/*--------------------------------*- C++ -*----------------------------------*\
| =========                 |                                                 |
| \\      /  F ield         | OpenFOAM: The Open Source CFD Toolbox           |
|  \\    /   O peration     | Version:  v2012                                 |
|   \\  /    A nd           | Website:  www.openfoam.com                      |
|    \\/     M anipulation  |                                                 |
\*---------------------------------------------------------------------------*/
FoamFile
{
    version     2.0;
    format      ascii;
    class       volScalarField;
    location    "2000";
    object      age;
}
// * * * * * * * * * * * * * * * * * * * * * * * * * * * * * * * * * * * * * //

dimensions      [0 0 1 0 0 0 0];


internalField   nonuniform List<scalar> 
6502
(
0.0133206
0.0122641
0.0123935
0.0124534
0.0124636
0.0124636
0.0124533
0.0123934
0.0122641
0.0133198
0.0421736
0.0364508
0.0363155
0.036827
0.0369747
0.0369744
0.0368264
0.0363146
0.0364484
0.0421679
0.0773932
0.0612497
0.0591278
0.0602126
0.0606766
0.0606759
0.0602116
0.0591246
0.0612346
0.0773627
0.120351
0.0875046
0.0810698
0.0825291
0.0834393
0.083438
0.0825281
0.0810599
0.0874514
0.120248
0.171406
0.115645
0.102507
0.1039
0.105305
0.105303
0.1039
0.102479
0.115505
0.171135
0.229747
0.144913
0.123617
0.124509
0.126379
0.126379
0.124513
0.123557
0.144597
0.229149
0.293803
0.177302
0.145011
0.144539
0.14678
0.146784
0.14455
0.144874
0.176673
0.292636
0.362154
0.209107
0.166562
0.164167
0.16663
0.166639
0.16419
0.166305
0.208018
0.360068
0.433726
0.241384
0.188245
0.183522
0.186033
0.186055
0.183554
0.187806
0.239489
0.430241
0.50774
0.274221
0.210132
0.202705
0.20507
0.205112
0.202735
0.209383
0.271045
0.502204
0.583951
0.30767
0.231998
0.221753
0.223809
0.223878
0.221785
0.230882
0.302519
0.575393
0.661602
0.341932
0.254953
0.24077
0.242296
0.242404
0.240749
0.252838
0.333788
0.648921
0.743382
0.377275
0.278481
0.259821
0.260568
0.260732
0.259647
0.275239
0.364729
0.726456
0.828762
0.413948
0.302344
0.278977
0.278658
0.27888
0.278483
0.297607
0.394963
0.804602
0.916225
0.45218
0.325462
0.298198
0.296604
0.296865
0.297199
0.319667
0.424388
0.880418
1.00555
0.492569
0.348766
0.317505
0.314442
0.314702
0.315758
0.340522
0.452579
0.951785
1.09735
0.535906
0.372629
0.33696
0.332203
0.332402
0.334127
0.360783
0.479056
1.01674
1.19234
0.583212
0.397295
0.356653
0.349926
0.349977
0.352262
0.38033
0.502975
1.07154
1.29179
0.635654
0.423009
0.376707
0.367668
0.367443
0.37012
0.398926
0.523409
1.11087
1.39668
0.695269
0.450364
0.397286
0.385509
0.384828
0.387677
0.416154
0.536737
1.10462
1.5094
0.764015
0.48052
0.418714
0.40365
0.402258
0.405042
0.43178
0.539798
0.998452
1.63241
0.842993
0.514539
0.441299
0.422197
0.419805
0.422341
0.44656
0.540267
0.919172
1.76674
0.932741
0.553639
0.466082
0.441584
0.437497
0.439619
0.461071
0.541171
0.852791
1.91673
1.03448
0.599179
0.491806
0.461815
0.455482
0.45696
0.475577
0.543169
0.796852
2.08277
1.14949
0.653111
0.519571
0.483031
0.473913
0.474438
0.490357
0.546596
0.751091
2.27462
1.28062
0.7179
0.550242
0.505497
0.492955
0.492167
0.504764
0.551575
0.714785
2.48967
1.42975
0.796468
0.58434
0.52956
0.512845
0.510273
0.519783
0.558029
0.686859
2.74892
1.60184
0.893955
0.625485
0.555704
0.53374
0.528901
0.535629
0.566024
0.666374
3.0602
1.80332
1.01162
0.676922
0.585059
0.556054
0.548248
0.552229
0.575675
0.652575
3.43586
2.04232
1.15348
0.742722
0.618497
0.580266
0.568604
0.569679
0.587164
0.644864
3.89904
2.33096
1.32596
0.828747
0.657608
0.606867
0.590305
0.588161
0.600194
0.642649
4.48565
2.68422
1.53592
0.942355
0.708281
0.637152
0.613824
0.607988
0.614718
0.645164
5.26807
3.14059
1.8015
1.09008
0.776711
0.671969
0.639152
0.629368
0.631522
0.652029
6.32595
3.69074
2.11589
1.27703
0.874427
0.718963
0.668221
0.652529
0.650393
0.663312
8.18965
4.70349
2.6004
1.52103
1.0016
0.782007
0.7036
0.678329
0.671759
0.675142
10.0522
4.97749
3.02066
1.85604
1.19343
0.875926
0.750384
0.707993
0.69558
0.693024
66.8782
12.726
3.92427
2.20111
1.42312
1.01316
0.821026
0.746481
0.722585
0.715032
115.466
35.2321
5.58037
2.75206
1.70313
1.19211
0.925136
0.802584
0.756359
0.740958
112.08
72.7428
16.3121
3.44752
2.04974
1.42616
1.07694
0.889208
0.804399
0.772629
107.677
101.203
46.1736
9.6989
2.52163
1.68315
1.27317
1.02161
0.881226
0.817119
106.231
85.7274
73.7103
29.7935
6.23611
2.02362
1.47989
1.19297
1.00202
0.889987
104.322
76.5762
76.5198
57.6835
21.5517
4.50171
1.72433
1.36342
1.15619
1.00526
102.734
73.6048
69.157
68.5652
47.2054
17.2648
3.73555
1.5574
1.304
1.14892
101.209
71.4771
66.7547
68.0724
64.2904
40.8963
14.9681
3.37403
1.46269
1.27521
99.7443
69.814
65.6051
66.4262
68.9014
61.5311
37.2422
13.9304
3.31615
1.43913
98.3813
68.8132
64.7165
67.1132
69.7327
72.0214
60.3816
36.2675
14.2273
3.65329
97.6527
68.0035
64.0622
67.427
73.1144
76.5113
75.6078
61.341
37.4083
15.7238
96.5129
67.2186
63.4774
67.7301
75.4633
82.4089
85.1963
80.9766
64.6315
40.5566
95.3604
66.4931
62.9316
67.7573
77.1016
87.3467
94.5798
95.8215
88.5042
70.3258
94.3297
65.834
62.3839
67.4584
77.8176
90.3861
101.967
108.942
108.308
98.1964
93.4057
65.2332
61.802
66.7689
77.4405
91.3226
105.819
117.977
124.382
121.823
92.8448
64.7505
61.1665
65.5533
75.787
89.8251
105.667
121.07
133.285
138.887
92.9435
64.4469
60.5291
63.8415
72.7919
85.7737
101.29
117.691
132.931
144.565
94.4749
64.4033
60.019
61.8356
68.7483
79.5521
93.0857
108.247
123.678
137.569
98.5047
64.8489
59.5959
59.7561
64.1683
71.9987
82.3638
94.472
107.487
120.337
105.877
66.4761
59.377
58.2067
59.9331
64.4061
71.0477
79.2521
88.4421
98.0132
119.715
70.2937
60.3033
57.6701
57.207
58.4656
61.4089
65.6809
70.7885
76.455
149.135
79.5228
63.4128
58.5405
56.4981
55.8911
55.73
56.5823
58.1251
60.2261
217.877
104.249
69.8306
62.2517
58.1235
55.7957
54.4293
53.6651
53.2581
52.8522
391.32
161.573
82.8971
69.2536
63.0638
59.1907
56.5583
54.6247
53.1412
51.9605
35.176
70.5435
70.3857
71.4818
73.6478
76.1541
78.8016
81.4471
83.9998
86.4521
88.9296
91.6288
94.8749
99.137
104.998
113.157
124.471
139.901
162.18
193.241
236.009
295.812
358.292
415.706
510.914
31.0436
64.483
58.6338
58.4747
58.2797
58.073
57.8449
57.6715
57.5772
57.587
57.7007
57.9283
58.2563
58.7596
59.6369
61.1843
63.7907
68.4095
77.9329
97.7284
137.404
217.666
346.51
492.339
558.858
24.0839
61.4767
60.0112
60.8035
60.1889
59.2523
58.2466
57.3146
56.4956
55.7575
55.1011
54.6085
54.2825
54.0268
53.7309
53.584
53.7634
54.4001
55.9683
58.8409
65.5463
93.3554
181.039
378.454
578.887
17.3746
57.5588
64.8018
69.3999
69.6519
68.4763
66.7646
64.9535
63.1941
61.5051
59.8674
58.2698
56.7431
55.4084
54.0695
52.9945
52.3008
52.0662
52.0763
53.1569
55.7589
60.1921
73.284
145.788
349.292
11.4776
51.9173
68.4807
76.9032
79.4907
79.475
78.1165
76.1622
73.9449
71.594
69.1322
66.5594
63.8878
61.1648
58.4818
55.9594
53.7687
52.1066
51.1688
50.9181
51.6703
54.4905
60.4844
72.0182
104.668
7.1245
42.6115
69.6017
82.6233
88.7072
90.8547
90.6423
89.1754
86.971
84.2847
81.211
77.7885
74.0532
70.0744
65.965
61.8848
58.0387
54.6776
52.0915
50.5792
50.1556
50.8614
54.0474
61.8537
77.1605
4.45361
32.0218
66.4573
86.0083
96.4337
101.775
103.648
103.407
101.822
99.2552
95.8874
91.8047
87.082
81.8281
76.2052
70.4306
64.7649
59.5094
55.007
51.6487
49.8904
49.5397
50.8075
55.4678
65.5366
2.87328
22.0441
58.6253
86.3028
101.826
111.384
116.366
118.281
118.077
116.279
113.109
108.7
103.166
96.6605
89.4148
81.7422
74.0066
66.5985
59.9344
54.4571
50.6638
49.1305
49.0894
51.7048
58.0911
1.93639
13.8045
47.576
82.0875
104.257
118.736
127.916
133.061
135.223
135.028
132.783
128.595
122.595
114.978
106.045
96.2389
86.089
76.137
66.9289
59.002
52.9039
49.2645
48.2491
49.275
53.4001
1.38562
7.67604
34.4518
72.485
102.653
122.799
137.184
146.712
152.403
154.9
154.522
151.387
145.529
137.141
126.592
114.465
101.518
88.5318
76.2629
65.4154
56.6287
50.5577
47.9965
47.7814
50.2895
1.0625
4.23612
22.0604
58.2732
95.2383
122.681
142.768
157.829
168.284
174.749
177.469
176.47
171.706
163.214
151.375
136.901
120.816
104.256
88.2979
73.9203
61.9384
53.0651
48.1109
46.9184
48.1335
0.878019
2.4994
12.423
42.1138
81.56
116.647
143.452
164.632
181.037
192.8
200.029
202.558
200.154
192.654
180.243
163.711
144.345
123.726
103.402
84.7771
68.9679
56.8162
49.1157
46.5382
46.6107
0.778952
1.61777
6.11657
26.1323
62.7679
103.134
137.589
165.39
188.406
206.644
219.792
227.418
228.931
223.938
212.231
194.421
172.016
147.09
121.806
98.1916
77.8463
61.8111
50.9655
46.2823
45.5394
0.731694
1.1509
3.15954
13.8171
42.4497
82.645
123.326
158.437
188.156
213.45
233.674
247.859
254.997
254.154
245.007
227.456
202.909
173.91
143.385
114.175
88.6285
68.1527
53.6899
46.3957
44.7974
0.713969
0.913105
1.85509
6.25768
24.0486
58.1033
100.357
141.849
178.559
210.604
238.138
259.873
273.896
279.237
274.461
259.508
234.7
202.7
167.359
132.361
101.135
75.7402
57.2695
46.9205
44.3506
0.712957
0.804964
1.23719
2.94045
11.2357
34.8076
71.912
115.295
157.872
196.46
230.607
259.619
282.8
296.553
295.449
285.608
263.571
230.661
191.954
151.782
114.881
84.3312
61.6298
47.8772
43.9669
0.722814
0.76492
0.945026
1.66271
4.45926
16.6724
43.6048
82.2332
126.214
169.75
209.816
245.044
275.168
295.011
304.113
299.97
284.378
253.659
214.223
170.638
128.914
93.4517
66.5316
49.3106
43.6446
0.738747
0.757634
0.829206
1.11481
2.06453
6.38922
21.2251
49.3754
87.9493
131.598
175.303
215.617
251.148
278.448
295.404
301.598
291.606
266.69
230.162
186.242
141.692
102.339
71.5983
51.0914
43.3725
0.762225
0.766318
0.795039
0.891111
1.25443
2.37423
7.86077
23.7472
51.2455
88.112
130
172.256
211.507
244.644
268.744
281.906
280.955
265.074
235.272
195.09
150.983
109.826
76.3585
53.0187
43.139
0.792618
0.78644
0.795673
0.827501
0.933657
1.30055
2.40486
8.334
23.5198
48.7188
82.2242
120.482
159.446
195.36
224.72
244.555
252.324
246.167
225.842
193.576
154.157
114.417
80.1033
54.8757
42.9342
0.836653
0.816057
0.8126
0.821578
0.848441
0.942234
1.11708
2.07305
7.2764
20.47
42.0767
70.7236
103.61
137.243
167.949
192.231
207.066
210.395
200.807
179.049
148.417
114.113
81.8428
56.3661
42.752
0.910585
0.862261
0.842391
0.838755
0.844092
0.863268
0.918982
1.04059
1.43486
5.09378
14.894
31.9666
54.8265
81.1934
108.156
132.502
151.128
161.364
161.792
151.642
132.256
106.932
80.25
56.8595
42.5709
1.02655
0.942127
0.893461
0.871745
0.864797
0.866781
0.878101
0.913778
1.00572
1.11696
2.81647
8.66123
20.4405
37.0517
56.5323
76.5139
94.4395
107.855
114.772
114.359
106.348
91.9529
73.7408
55.39
42.1537
1.15923
1.0593
0.980431
0.930002
0.904085
0.891691
0.88943
0.895945
0.922209
0.957668
1.08086
1.17222
3.58865
9.62108
19.9516
33
46.7508
59.2214
68.6478
73.7155
73.9942
69.4767
61.0135
50.303
40.4159
1.27643
1.18257
1.09814
1.02536
0.973279
0.941
0.92443
0.91727
0.922002
0.932913
0.965467
1.00461
1.10716
1.1836
2.98712
7.15946
13.71
21.9107
29.9141
36.4005
40.4867
41.8872
40.8782
37.9975
34.7088
1.53359
1.30798
1.21398
1.13986
1.0751
1.02306
0.9867
0.964192
0.952047
0.950218
0.955145
0.970908
1.00488
1.041
1.12158
1.19607
1.59224
3.20858
5.87999
9.22384
12.7055
15.61
17.4465
18.321
18.6065
4.58676
1.7973
1.39743
1.26634
1.18668
1.12713
1.07848
1.04063
1.01296
0.996444
0.987266
0.987099
0.994421
1.01109
1.0399
1.07342
1.1272
1.18862
1.25209
1.31452
1.63922
2.25277
2.98154
3.7081
4.39167
18.9002
6.56085
2.31244
1.57285
1.35462
1.245
1.18092
1.13564
1.09941
1.07103
1.04993
1.03654
1.02973
1.03053
1.03925
1.05266
1.0753
1.10415
1.13764
1.17375
1.21999
1.26804
1.3163
1.36576
1.41678
46.2918
24.3352
9.78551
3.2727
1.87549
1.50736
1.3402
1.24941
1.1974
1.16222
1.13495
1.11326
1.09673
1.08596
1.08084
1.08145
1.08936
1.1007
1.11706
1.13926
1.16516
1.19362
1.22403
1.25634
1.2908
78.964
54.7515
31.9622
14.622
5.52495
2.56431
1.80646
1.50616
1.35276
1.2731
1.22974
1.20233
1.182
1.16593
1.15357
1.14547
1.14147
1.14256
1.14793
1.1581
1.17191
1.18888
1.20866
1.23089
1.25569
110.003
89.9593
65.3401
41.1721
21.5587
9.54073
3.93789
2.33359
1.79687
1.53579
1.39351
1.31887
1.27934
1.25633
1.24087
1.22959
1.2212
1.21602
1.21424
1.21591
1.2211
1.22959
1.2411
1.25511
1.27222
135.144
122.341
101.777
76.9231
51.8104
30.8788
15.6709
7.15598
3.53085
2.34344
1.86274
1.6083
1.46506
1.38833
1.34772
1.32562
1.31281
1.30499
1.30048
1.29865
1.29942
1.30281
1.30879
1.31718
1.32785
149.412
144.831
132.094
112.073
87.7753
63.0766
41.1153
24.0257
12.6131
6.33045
3.52848
2.47053
1.99761
1.73422
1.58028
1.49327
1.445
1.4186
1.40451
1.39757
1.39512
1.39587
1.39919
1.40475
1.41238
147.334
151.354
147.49
135.537
117.319
95.2676
72.2825
50.9462
33.2864
20.1165
11.3858
6.40401
3.83164
2.73935
2.22169
1.93484
1.75914
1.65174
1.58769
1.5503
1.52943
1.51899
1.51538
1.51643
1.52094
131.379
139.128
142.448
140.195
129.437
114.434
96.2069
76.6801
57.8858
41.3594
28.0179
18.2441
11.3988
7.13643
4.68179
3.34252
2.66221
2.28634
2.05921
1.91396
1.81889
1.75743
1.71925
1.69683
1.68537
106.947
114.399
119.811
122.077
119.902
113.128
102.583
89.1352
74.4237
59.7184
46.0922
34.399
24.8838
17.6093
12.3497
8.65344
6.20747
4.64697
3.66006
3.0536
2.68174
2.44217
2.28153
2.1715
2.09575
82.0767
87.2033
91.6393
94.8481
96.1039
94.8631
90.7754
84.2026
75.7829
66.2369
56.2613
46.5922
37.7224
29.9759
23.5173
18.3069
14.2376
11.1562
8.84255
7.12413
5.8715
4.96618
4.3116
3.83495
3.50013
62.6045
65.0211
67.3754
69.446
70.8831
71.4175
70.6903
68.4331
64.9391
60.5239
55.379
49.7502
43.9419
38.3133
33.0804
28.3706
24.2424
20.7229
17.777
15.3408
13.347
11.7289
10.4271
9.3635
8.50349
52.6692
52.6791
52.8066
53.0058
53.2129
53.3335
53.1844
52.5798
51.4792
50.0375
48.2226
45.9985
43.4358
40.6934
37.9246
35.1705
32.5104
30.0485
27.8109
25.8019
24.0187
22.4564
21.1036
19.9405
18.9509
51.0122
50.2482
49.6448
49.061
48.5095
47.9808
47.4552
46.9045
46.3074
45.6426
44.901
44.142
43.3097
42.3943
41.4169
40.3935
39.2016
38.0935
37.0694
36.1187
35.243
34.4547
33.7575
33.1514
32.6337
38.6961
38.5425
35.3695
32.7378
31.9704
31.8493
18.8089
19.0962
19.4904
5.00942
5.60591
6.20966
1.46321
1.5099
1.56639
1.32223
1.35262
1.38408
1.28019
1.30391
1.32827
1.28928
1.30687
1.32563
1.3398
1.35252
1.36655
1.42125
1.43104
1.44212
1.52751
1.53548
1.54495
1.68136
1.6823
1.68666
2.04612
2.01417
1.99279
3.2744
3.1184
3.00087
7.84479
7.34503
6.93631
18.155
17.5223
16.9835
32.2436
31.9228
31.6598
2765.14
2713.53
2574.73
2166.54
1384.09
850.897
675.321
608.904
566.595
535.476
511.329
491.799
476.227
463.006
451.267
440.646
430.928
421.814
412.755
403.485
395.974
388.72
382.28
376.555
371.248
366.257
361.535
357.04
352.748
348.638
344.7
340.921
337.295
333.815
330.476
327.274
324.206
321.27
318.464
315.787
313.237
310.811
308.509
306.326
304.26
302.308
300.466
298.73
297.093
295.549
294.092
292.717
291.422
290.197
289.038
287.939
286.892
285.891
284.929
284.001
283.098
282.213
281.348
280.583
279.967
279.52
279.292
279.393
280.053
281.508
284.021
288.121
294.652
305.258
322.275
349.527
393.137
456.417
556.583
683.843
2392.46
2292.92
1968.79
1381.69
865.448
636.804
558.53
513.594
480.941
455.642
435.604
419.259
405.674
394.16
384.398
376.165
369.059
362.768
356.175
350.31
344.817
338.913
333.687
329.131
325.042
321.32
317.887
314.69
311.704
308.957
306.405
304.017
301.78
299.687
297.732
295.913
294.217
292.636
291.142
289.681
288.274
286.917
285.608
284.344
283.12
281.927
280.748
279.563
278.392
277.414
276.632
275.995
275.291
274.603
273.94
273.305
272.7
272.128
271.588
271.081
270.609
270.171
269.741
269.09
268.172
266.977
265.51
263.797
261.917
260.208
259.391
258.663
257.892
257.889
260.373
268.382
294.177
351.395
478.619
682.969
2013.94
1794.88
1333.18
859.867
607.527
519.197
473.36
439.431
413.905
393.729
377.632
364.55
353.797
344.898
337.486
331.241
325.91
321.392
317.476
314.024
310.976
308.321
306.087
304.206
302.608
301.166
299.86
298.67
297.578
296.56
295.572
294.592
293.637
292.816
292.122
291.574
291.026
290.472
289.934
289.425
288.961
288.57
288.366
288.366
288.599
289.1
289.911
291.083
292.662
294.663
297.053
299.792
302.805
306.02
309.359
312.712
315.94
318.883
321.364
323.191
324.171
324.124
322.922
320.562
316.961
312.119
306.099
299.041
291.176
282.842
274.55
267.22
260.54
255.327
252.642
252.084
253.856
263.413
296.296
383.253
1723.87
1388.89
919.138
611.665
497.94
451.061
415.322
388.522
368.363
352.69
340.582
331.252
324.251
319.203
315.46
312.657
310.523
308.855
307.349
305.929
304.622
303.497
302.549
301.731
301.09
300.465
299.868
299.304
298.771
298.372
298.106
297.992
298.051
298.298
298.724
299.347
300.222
301.434
303.058
305.147
307.7
310.737
314.272
318.345
322.986
328.212
334.024
340.4
347.291
354.626
362.319
370.267
378.36
386.501
394.483
402.075
409.013
415.019
419.807
423.091
424.585
424.011
421.142
415.818
407.963
397.6
384.877
370.081
353.636
336.096
318.122
300.479
284.035
269.694
258.469
251.451
249.202
250.191
258.19
276.526
1498.84
1097.98
687.16
501.983
442.338
405.145
375.632
354.83
339.914
329.317
322.2
317.742
314.84
312.661
310.918
309.555
308.434
307.544
306.939
306.385
305.872
305.64
305.627
305.811
306.199
306.827
307.761
309.017
310.559
312.361
314.448
316.839
319.557
322.63
326.102
330.02
334.433
339.372
344.859
350.914
357.587
364.961
373.058
381.91
391.531
401.924
413.074
424.947
437.489
450.619
464.227
478.164
492.236
506.196
519.736
532.484
543.994
553.798
561.419
566.38
568.208
566.425
560.614
550.574
536.253
517.737
495.329
469.575
441.239
411.26
380.705
350.7
322.385
296.893
275.373
259.078
249.451
246.667
249.193
258.998
1326.81
902.182
563.494
448.842
405.734
372.843
349.698
334.852
325.382
319.642
316.325
314.284
312.754
311.699
311.179
310.674
310.541
310.843
311.61
312.93
314.773
316.999
319.588
322.521
325.788
329.377
333.257
337.404
341.827
346.585
351.696
357.194
363.12
369.518
376.438
383.933
392.058
400.871
410.434
420.815
432.085
444.306
457.53
471.801
487.152
503.597
521.13
539.716
559.282
579.709
600.822
622.379
644.068
665.495
686.183
705.548
722.885
737.445
748.485
755.291
757.189
753.447
743.427
726.908
703.878
674.495
639.264
599.07
555.126
508.906
462.056
416.266
373.153
334.175
300.629
273.754
254.943
246.001
244.543
249.911
1191.34
765.986
493.967
416.412
378.826
351.026
334.238
324.673
319.389
316.583
315.087
314.307
313.845
314.045
315.103
317.051
319.815
323.299
327.422
332.085
337.152
342.626
348.452
354.596
361.029
367.739
374.727
382.014
389.633
397.623
406.027
414.898
424.297
434.292
444.959
456.379
468.64
481.837
496.066
511.424
528.007
545.905
565.201
585.965
608.249
632.077
657.437
684.274
712.47
741.838
772.106
802.907
833.77
864.113
893.245
920.32
944.348
964.295
979.119
987.853
989.58
983.29
968.145
943.824
910.3
867.812
817.082
759.349
696.326
630.128
563.129
497.781
436.397
380.969
333.085
294.016
265.02
247.727
242.497
244.269
1084.32
672.67
453.937
393.041
359.208
337.301
325.982
320.315
317.658
316.598
316.233
316.959
319.045
322.526
327.21
332.91
339.465
346.716
354.525
362.784
371.42
380.392
389.654
399.183
408.974
419.038
429.4
440.096
451.172
462.685
474.703
487.303
500.575
514.617
529.534
545.443
562.466
580.731
600.369
621.513
644.29
668.824
695.225
723.58
753.948
786.35
820.75
857.051
895.074
934.543
975.07
1016.14
1057.1
1097.16
1135.41
1170.72
1201.84
1227.48
1246.29
1257.03
1258.44
1249.3
1228.62
1195.86
1150.91
1094.04
1026.16
948.787
864.117
774.91
684.361
595.852
512.639
437.52
372.604
319.311
278.715
252.19
241.737
240.503
994.353
607.993
427.253
375.12
345.554
329.298
322.09
319.09
318.161
318.541
320.793
325.05
331.119
338.772
347.667
357.539
368.171
379.39
391.072
403.13
415.506
428.16
441.069
454.233
467.665
481.394
495.459
509.915
524.827
540.273
556.347
573.151
590.802
609.425
629.158
650.149
672.552
696.528
722.243
749.859
779.534
811.415
845.627
882.265
921.384
962.982
1006.99
1053.26
1101.54
1151.45
1202.49
1254
1305.15
1354.95
1402.28
1445.77
1483.92
1515.2
1538
1550.73
1551.84
1539.89
1513.73
1472.61
1416.25
1344.93
1259.6
1161.97
1054.58
940.723
824.391
709.964
601.836
503.921
419.199
349.507
295.808
259.077
241.449
237.906
920.754
560.604
407.275
361.362
336.497
324.944
320.796
319.666
320.63
324.242
330.486
339.178
349.831
362.016
375.343
389.53
404.364
419.696
435.424
451.479
467.817
484.417
501.276
518.407
535.836
553.606
571.77
590.398
609.573
629.393
649.968
671.425
693.902
717.55
742.533
769.025
797.208
827.271
859.404
893.794
930.616
970.029
1012.17
1057.12
1104.93
1155.57
1208.93
1264.79
1322.84
1382.63
1443.54
1504.78
1565.37
1624.17
1679.85
1730.85
1775.49
1811.97
1838.43
1853
1853.86
1839.37
1808.16
1759.3
1692.38
1607.6
1505.89
1389.02
1259.67
1121.47
978.978
837.484
702.571
579.51
472.542
384.338
316.02
268.086
242.398
236.181
866.338
527.406
391.564
350.969
330.586
323.031
321.132
321.999
326.406
334.287
345.295
358.837
374.266
391.086
408.922
427.515
446.68
466.296
486.279
506.578
527.163
548.025
569.17
590.619
612.407
634.583
657.212
680.373
704.159
728.68
754.062
780.445
807.986
836.854
867.229
899.305
933.284
969.372
1007.78
1048.69
1092.31
1138.79
1188.25
1240.8
1296.44
1355.12
1416.72
1480.94
1547.43
1615.66
1684.89
1754.29
1822.76
1889.05
1951.66
2008.91
2058.93
2099.71
2129.17
2145.18
2145.72
2128.93
2093.27
2037.64
1961.55
1865.14
1749.3
1615.73
1467.06
1306.99
1140.3
972.862
811.282
662.24
531.546
423.193
338.935
278.985
244.381
234.921
856.347
505.165
379.125
342.85
327.026
322.935
322.704
326.984
335.747
348.551
364.619
383.105
403.327
424.804
447.205
470.305
493.95
518.037
542.499
567.291
592.391
617.793
643.503
669.545
695.955
722.783
750.095
777.974
806.516
835.838
866.069
897.36
929.878
963.799
999.313
1036.62
1075.94
1117.48
1161.45
1208.05
1257.48
1309.89
1365.39
1424.05
1485.89
1550.82
1618.67
1689.14
1761.82
1836.17
1911.39
1986.57
2060.59
2132.12
2199.57
2261.17
2314.91
2358.6
2389.95
2406.63
2406.39
2387.14
2347.49
2286.49
2203.09
2097.61
1970.82
1824.38
1660.74
1483.37
1296.88
1107.28
921.738
748.132
593.927
464.85
363.848
291.365
247.448
233.805
807.045
481.03
368.576
336.877
325.588
323.509
326.261
334.779
348.491
366.466
387.602
410.975
435.941
462.072
489.079
516.77
545.012
573.711
602.805
632.249
662.018
692.099
722.496
753.223
784.311
815.806
847.768
880.274
913.421
947.32
982.101
1017.91
1054.93
1093.32
1133.27
1174.98
1218.68
1264.56
1312.84
1363.71
1417.35
1473.91
1533.48
1596.12
1661.83
1730.51
1801.97
1875.9
1951.86
2029.31
2107.47
2185.44
2262.08
2336.03
2405.67
2469.09
2524.14
2568.45
2599.59
2615.27
2613.34
2591.43
2546.72
2482.35
2394.23
2283.05
2149.51
1995.18
1822.3
1633.96
1434.29
1228.88
1024.93
830.962
655.836
507.187
389.656
304.561
251.439
232.834
744.873
457.252
359.317
332.621
325.499
325.302
331.94
345.259
364.155
387.26
413.318
441.441
471.052
501.777
533.364
565.64
598.479
631.79
665.502
699.564
733.938
768.601
803.542
838.766
874.289
910.147
946.388
983.082
1020.31
1058.19
1096.82
1136.36
1176.96
1218.79
1262.01
1306.83
1353.46
1402.08
1452.9
1506.09
1561.81
1620.2
1681.34
1745.27
1811.96
1881.32
1953.13
2027.11
2102.8
2179.67
2256.96
2333.75
2408.86
2480.85
2547.93
2607.96
2658.43
2696.16
2719.87
2730.73
2728.77
2712.57
2667.66
2601.41
2511.93
2399.28
2264.14
2107.96
1932.73
1741.08
1536.48
1323.77
1109.55
902.294
711.667
546.934
414.688
317.782
255.94
231.978
708.759
438.766
352.028
330.426
325.859
328.613
339.678
358.06
382.075
410.077
440.802
473.445
507.5
542.635
578.621
615.29
652.515
690.195
728.245
766.599
805.204
844.018
883.016
922.185
961.526
1001.06
1040.82
1080.85
1121.23
1162.05
1203.41
1245.43
1288.26
1332.04
1376.95
1423.15
1470.82
1520.15
1571.3
1624.44
1679.7
1737.19
1796.97
1859.08
1923.47
1990.01
2058.51
2128.65
2200.02
2272.06
2344.05
2415.07
2483.96
2549.32
2609.44
2662.32
2706.05
2734.83
2749.51
2758.53
2754.23
2734.16
2690.44
2624.63
2536.9
2427.2
2296.07
2144.65
1974.59
1787.99
1587.63
1377.41
1162.99
952.027
754.14
579.505
436.46
329.921
260.487
231.21
678.356
423.26
346.443
329.3
326.832
333.355
349.246
372.636
401.466
433.971
468.97
505.751
543.865
583.007
622.958
663.546
704.632
746.099
787.847
829.79
871.856
913.985
956.133
998.268
1040.37
1082.45
1124.51
1166.6
1208.75
1251.05
1293.57
1336.43
1379.72
1423.58
1468.17
1513.63
1560.11
1607.75
1656.72
1707.13
1759.11
1812.72
1868.02
1924.99
1983.59
2043.68
2105.04
2167.38
2230.3
2293.24
2355.53
2416.35
2474.66
2529.28
2578.69
2622.07
2655.18
2679.29
2692.2
2693.44
2680.84
2652.35
2606.43
2541.97
2458.29
2355.2
2233.02
2092.52
1934.81
1761.37
1574.28
1376.56
1172.73
969.237
774.623
598.879
451.466
339.281
264.464
230.506
651.355
409.871
342.107
329.207
328.897
339.562
360.233
388.283
421.387
457.802
496.471
536.761
578.265
620.692
663.823
707.475
751.496
795.751
840.12
884.5
928.801
972.944
1016.87
1060.52
1103.87
1146.9
1189.6
1231.99
1274.11
1316
1357.72
1399.35
1440.98
1482.72
1524.69
1567.01
1609.81
1653.2
1697.29
1742.2
1788
1834.75
1882.46
1931.12
1980.64
2030.89
2081.67
2132.67
2183.53
2233.76
2282.76
2329.83
2374.11
2414.72
2450.28
2480.88
2503.45
2517.48
2521.71
2514.81
2495.57
2462.87
2415.75
2353.47
2275.53
2181.75
2072.21
1947.23
1807.43
1653.76
1487.68
1311.44
1128.43
943.681
764.123
598.33
455.524
343.707
266.987
229.837
625.43
397.98
339.2
329.653
331.908
346.919
372.005
404.036
440.592
480.051
521.472
564.29
608.127
652.701
697.788
743.195
788.754
834.315
879.745
924.924
969.745
1014.12
1057.97
1101.22
1143.84
1185.78
1227.03
1267.59
1307.47
1346.7
1385.33
1423.41
1461
1498.19
1535.08
1571.76
1608.33
1644.89
1681.51
1718.29
1755.26
1792.48
1829.94
1867.6
1905.4
1943.19
1980.8
2017.96
2054.35
2089.57
2123.14
2154.49
2182.98
2207.88
2228.37
2243.65
2252.82
2254.79
2248.65
2233.57
2208.72
2173.33
2126.77
2068.51
1998.19
1915.61
1820.75
1713.79
1595.13
1465.48
1325.93
1178.13
1024.53
868.656
715.411
571.221
443.635
340.327
266.772
229.147
599.685
387.452
337.309
330.066
335.502
354.875
383.546
418.488
457.303
498.523
541.337
585.242
629.879
674.974
720.298
765.651
810.855
855.752
900.197
944.063
987.234
1029.61
1071.1
1111.64
1151.17
1189.64
1227.02
1263.32
1298.52
1332.65
1365.73
1397.82
1428.95
1459.2
1488.63
1517.34
1545.39
1572.86
1599.82
1626.34
1652.44
1678.17
1703.52
1728.46
1752.93
1776.81
1799.97
1822.2
1843.25
1862.83
1880.57
1896.07
1908.86
1918.44
1924.22
1925.58
1921.9
1912.62
1897.15
1874.92
1845.4
1808.11
1762.64
1708.68
1646.05
1574.66
1494.61
1406.12
1309.65
1205.88
1095.74
980.54
861.968
742.27
624.396
512.204
410.619
325.455
261.915
227.972
574.076
378.002
335.993
330.887
339.576
362.319
393.151
429.346
468.696
509.905
552.259
595.303
638.704
682.193
725.545
768.561
811.063
852.892
893.902
933.964
972.963
1010.8
1047.39
1082.65
1116.54
1149
1180.02
1209.57
1237.67
1264.31
1289.54
1313.4
1335.92
1357.16
1377.2
1396.1
1413.94
1430.76
1446.65
1461.66
1475.83
1489.19
1501.75
1513.49
1524.38
1534.35
1543.3
1551.1
1557.57
1562.49
1565.62
1566.67
1565.36
1561.32
1554.25
1543.77
1529.54
1511.18
1488.35
1460.71
1427.98
1389.92
1346.37
1297.23
1242.54
1182.42
1117.14
1047.12
972.958
895.386
815.318
733.817
652.081
571.435
493.359
419.603
352.416
294.781
249.826
224.305
550.264
371.687
335.597
332.208
343.422
367.14
397.683
432.73
470.232
509.055
548.55
588.292
627.968
667.323
706.138
744.223
781.409
817.544
852.494
886.137
918.371
949.107
978.269
1005.8
1031.65
1055.79
1078.21
1098.9
1117.88
1135.17
1150.79
1164.81
1177.28
1188.25
1197.79
1205.98
1212.89
1218.59
1223.12
1226.53
1228.89
1230.22
1230.56
1229.92
1228.29
1225.63
1221.9
1217.02
1210.9
1203.44
1194.5
1183.93
1171.55
1157.17
1140.6
1121.66
1100.14
1075.87
1048.71
1018.52
985.226
948.811
909.32
866.876
821.699
774.105
724.517
673.464
621.572
569.553
518.184
468.277
420.652
376.108
335.407
299.339
268.705
244.334
226.778
218.251
530.175
360.098
334.578
332.716
342.29
364.277
392.069
423.217
456.157
489.91
523.872
557.641
590.925
623.489
655.134
685.691
715.008
742.955
769.418
794.302
817.524
839.019
858.736
876.642
892.713
906.944
919.342
929.925
938.726
945.789
951.165
954.88
956.998
957.595
956.752
954.547
951.059
946.363
940.547
933.679
925.816
917.005
907.284
896.681
885.211
872.879
859.679
845.592
830.589
814.631
797.671
779.655
760.526
740.231
718.711
695.907
671.776
646.297
619.479
591.366
562.047
531.653
500.366
468.418
436.093
403.719
371.668
340.344
310.171
281.59
255.04
230.963
209.81
192.073
178.365
169.656
166.934
172.083
188.555
207.522
528.759
427.348
367.887
344.517
341.379
350.987
368.343
390.18
414.429
439.764
465.342
490.628
515.257
538.954
561.511
582.761
602.57
620.83
637.457
652.387
665.572
676.983
686.608
694.445
700.5
704.821
707.446
708.405
707.727
705.45
701.618
696.312
689.595
681.537
672.215
661.715
650.123
637.524
624
609.638
594.523
578.741
562.376
545.506
528.206
510.539
492.563
474.329
455.877
437.244
418.459
399.549
380.531
361.468
342.185
322.708
303.12
283.521
264.018
244.727
225.765
207.26
189.339
172.133
155.773
140.382
126.079
112.97
101.149
90.7013
81.704
74.2392
68.4226
64.4192
62.6653
64.0493
70.7064
86.1687
120.383
183.795
122.022
209.168
273.775
312.79
325.959
333.594
342.308
353.014
365.557
379.497
394.017
408.242
421.821
434.537
446.22
456.727
465.95
473.803
480.217
485.159
488.541
490.267
490.296
488.614
485.235
480.17
473.468
465.214
455.515
444.498
432.305
419.087
404.998
390.2
374.839
359.106
342.971
326.497
309.835
293.148
276.582
260.262
244.289
228.745
213.691
199.173
185.22
171.853
159.08
146.902
135.315
124.312
113.882
104.017
94.6789
86.0357
78.0891
70.8005
64.1262
58.0252
52.4614
47.4022
42.819
38.6854
34.9776
31.6734
28.7528
26.1978
23.9936
22.1295
20.6017
19.4174
18.6018
18.2203
18.3716
19.2321
21.499
27.6869
40.4452
83.9396
31.7847
36.9111
51.1123
75.2788
103.015
132.521
158.995
181.395
199.88
215.322
228.524
239.753
249.13
256.73
262.614
266.82
268.968
269.04
267.124
263.333
257.851
250.898
242.678
233.39
223.237
212.414
201.108
189.495
177.737
165.979
154.35
142.959
131.898
121.244
111.053
101.378
92.2046
83.7022
75.9478
68.9168
62.5581
56.8154
51.6334
46.9598
42.7456
38.9459
35.5194
32.4284
29.6391
27.1206
24.8455
22.7891
20.9297
19.2474
17.7252
16.347
15.0992
13.97
12.9491
12.0274
11.1969
10.4504
9.78176
9.18531
8.65618
8.19006
7.78329
7.43285
7.1365
6.89299
6.70242
6.56701
6.49106
6.49069
6.54899
6.6706