/*--------------------------------*- C++ -*----------------------------------*\
| =========                 |                                                 |
| \\      /  F ield         | OpenFOAM: The Open Source CFD Toolbox           |
|  \\    /   O peration     | Version:  v2012                                 |
|   \\  /    A nd           | Website:  www.openfoam.com                      |
|    \\/     M anipulation  |                                                 |
\*---------------------------------------------------------------------------*/
FoamFile
{
    version     2.0;
    format      ascii;
    class       volScalarField;
    location    "2000";
    object      k;
}
// * * * * * * * * * * * * * * * * * * * * * * * * * * * * * * * * * * * * * //

dimensions      [0 2 -2 0 0 0 0];


internalField   nonuniform List<scalar> 
6502
(
0.0527751
0.0708524
0.0931819
0.100384
0.102185
0.102186
0.100387
0.0931884
0.0708587
0.0527773
0.0299685
0.0380999
0.0685462
0.0860548
0.0920259
0.0920339
0.086077
0.0685757
0.0381144
0.0299791
0.0186858
0.0212254
0.0488762
0.0717787
0.0818181
0.0818404
0.071832
0.0489297
0.0212455
0.0187106
0.0118874
0.0125562
0.0351053
0.0591535
0.0719012
0.0719441
0.0592433
0.0351788
0.0125806
0.0119271
0.00818762
0.0079724
0.0258703
0.0487136
0.0626805
0.062749
0.048843
0.0259616
0.00800059
0.00824111
0.0062567
0.00544658
0.019687
0.0403399
0.0544042
0.0545024
0.0405114
0.0197955
0.00547904
0.00632599
0.00519275
0.00397828
0.015449
0.0337032
0.0471536
0.0472822
0.0339169
0.0155759
0.0040157
0.00528221
0.00456111
0.003076
0.0124559
0.028418
0.0408855
0.0410492
0.0286797
0.0126013
0.00311939
0.00467787
0.00415664
0.00248911
0.0102693
0.0241684
0.0354988
0.0357019
0.0244752
0.0104385
0.00254011
0.0043094
0.00387732
0.0020848
0.00860779
0.020715
0.0308838
0.0311276
0.0210743
0.00880469
0.00214554
0.00407749
0.00366594
0.00179056
0.00730524
0.0178685
0.0269297
0.0272184
0.0182868
0.00753497
0.00186384
0.00392978
0.00348905
0.0015654
0.00625674
0.0154927
0.0235337
0.0238721
0.0159775
0.00652432
0.00165457
0.00383636
0.00332734
0.00138535
0.00539307
0.0134821
0.0206013
0.0209945
0.0140523
0.00570615
0.00149468
0.0037844
0.00317045
0.00123601
0.00466898
0.0117606
0.0180592
0.0184994
0.0124457
0.00503981
0.00137168
0.00377054
0.00301173
0.00110823
0.00405258
0.0102719
0.0158448
0.0163281
0.0110692
0.00450496
0.00128691
0.00379837
0.00284517
0.000995782
0.00352064
0.00897224
0.0139072
0.0144328
0.00988501
0.0040722
0.00123179
0.00387985
0.00266522
0.000894132
0.00305606
0.00782829
0.0122024
0.0127718
0.00886304
0.00372308
0.00120414
0.00403624
0.00246783
0.000799961
0.00264631
0.00681404
0.010695
0.0113102
0.00797967
0.00344814
0.0012117
0.00430197
0.00225131
0.000710945
0.00228226
0.00590981
0.00935637
0.0100183
0.00721305
0.00324067
0.00126224
0.00477088
0.00201698
0.000625656
0.00195739
0.00510073
0.00816208
0.00886871
0.006546
0.00309382
0.0013274
0.00513124
0.00176837
0.000543065
0.00166535
0.0043715
0.00708843
0.00783417
0.0059644
0.00300366
0.0012129
0.00128482
0.00151402
0.00046403
0.00140574
0.0037215
0.00612851
0.00690733
0.00545243
0.00295593
0.00123076
0.000678437
0.00126647
0.000389819
0.00117702
0.00314664
0.00527063
0.0060746
0.00498842
0.00292104
0.00132115
0.000604342
0.00103636
0.000321925
0.000977567
0.00264307
0.00450931
0.00532605
0.0045587
0.00288054
0.00143867
0.000671776
0.000829829
0.000261398
0.000805317
0.00220581
0.00383814
0.00465365
0.00415608
0.00282389
0.00155681
0.000787909
0.000649162
0.000208622
0.000657916
0.00182903
0.00324999
0.00405085
0.00377598
0.0027462
0.00165952
0.000919377
0.000494733
0.00016353
0.000532916
0.00150666
0.0027373
0.00351038
0.00341457
0.00264557
0.00173718
0.00104904
0.000366017
0.000125786
0.000427884
0.00123269
0.00229306
0.00303014
0.00307099
0.00252194
0.00178445
0.00116568
0.000261634
9.48609e-05
0.00034048
0.00100139
0.00190986
0.00260315
0.00274567
0.00237806
0.00179862
0.00126095
0.000179515
7.00934e-05
0.000268485
0.000807435
0.00158084
0.00222454
0.00243957
0.00222046
0.00178083
0.00132901
0.000117128
5.07369e-05
0.000209812
0.000645929
0.00129964
0.00188988
0.00215377
0.00205289
0.00173477
0.00136778
7.16803e-05
3.60093e-05
0.000162535
0.000512479
0.00106052
0.00159511
0.00188861
0.00187956
0.0016641
0.00137741
4.02829e-05
2.51304e-05
0.000124887
0.000403164
0.000858409
0.00133656
0.00164425
0.0017049
0.00157547
0.0013608
2.00719e-05
1.73501e-05
9.52613e-05
0.000314463
0.00068877
0.00111086
0.00142042
0.00153266
0.00147368
0.00132227
8.25997e-06
1.19662e-05
7.221e-05
0.000243209
0.000547524
0.000914937
0.00121656
0.00136544
0.00136327
0.00126614
2.38817e-06
8.35783e-06
5.44503e-05
0.000186566
0.000431011
0.000746048
0.001032
0.00120511
0.00124833
0.0011978
4.77381e-07
6.02862e-06
4.09137e-05
0.000142042
0.000335936
0.000601734
0.000866062
0.00105278
0.00113161
0.00112095
1.04367e-06
4.58906e-06
3.06983e-05
0.000107447
0.000259301
0.000479739
0.000718159
0.000909278
0.00101509
0.00103855
2.54563e-06
3.68403e-06
2.30228e-05
8.08308e-05
0.000198309
0.000377909
0.000587747
0.00077531
0.000900013
0.000952393
4.30952e-06
3.09525e-06
1.72266e-05
6.04649e-05
0.000150329
0.000294082
0.000474253
0.000651601
0.000787389
0.000863476
6.05645e-06
2.71918e-06
1.29013e-05
4.50555e-05
0.000113093
0.000226171
0.000377061
0.00053897
0.00067835
0.000772421
7.35028e-06
2.44058e-06
9.68328e-06
3.35127e-05
8.45879e-05
0.000172107
0.0002954
0.000438265
0.000574334
0.000680021
7.89611e-06
2.18671e-06
7.29087e-06
2.4878e-05
6.2964e-05
0.00012975
0.000228176
0.00035016
0.000477074
0.000587636
8.18191e-06
2.01808e-06
5.55024e-06
1.8438e-05
4.68021e-05
9.73335e-05
0.000174512
0.000275751
0.000389423
0.000498458
8.29506e-06
1.84355e-06
4.22721e-06
1.36804e-05
3.46408e-05
7.25404e-05
0.000132011
0.000213736
0.000311681
0.000413722
8.04952e-06
1.66149e-06
3.21311e-06
1.01037e-05
2.53636e-05
5.36014e-05
9.87617e-05
0.000163152
0.000244678
0.000335876
7.70713e-06
1.50168e-06
2.45414e-06
7.47224e-06
1.86322e-05
3.92236e-05
7.31579e-05
0.000122881
0.000188723
0.000266989
7.4565e-06
1.38164e-06
1.89854e-06
5.55592e-06
1.37418e-05
2.87603e-05
5.37926e-05
9.15925e-05
0.000143401
0.000208155
7.21151e-06
1.28445e-06
1.49411e-06
4.17387e-06
1.02255e-05
2.12626e-05
3.94907e-05
6.78453e-05
0.000107776
0.000159695
6.89835e-06
1.19316e-06
1.19904e-06
3.17942e-06
7.7039e-06
1.59021e-05
2.93084e-05
4.99506e-05
8.03669e-05
0.00012101
6.46192e-06
1.09388e-06
9.80369e-07
2.47116e-06
5.88326e-06
1.20201e-05
2.19656e-05
3.71389e-05
5.94331e-05
9.06902e-05
5.78846e-06
9.66813e-07
8.03577e-07
1.94899e-06
4.56467e-06
9.16842e-06
1.64768e-05
2.75597e-05
4.37925e-05
6.68027e-05
4.84552e-06
8.04045e-07
6.43389e-07
1.52336e-06
3.51813e-06
6.96518e-06
1.23235e-05
2.02484e-05
3.16753e-05
4.79981e-05
3.6782e-06
6.10989e-07
4.88162e-07
1.14426e-06
2.60808e-06
5.09251e-06
8.89062e-06
1.44242e-05
2.23018e-05
3.3375e-05
2.42162e-06
4.07463e-07
3.38263e-07
7.94644e-07
1.78639e-06
3.43743e-06
5.92769e-06
9.52554e-06
1.46198e-05
2.17448e-05
1.2976e-06
2.25813e-07
2.04713e-07
4.86433e-07
1.07526e-06
2.03513e-06
3.46719e-06
5.52781e-06
8.44309e-06
1.25207e-05
5.0696e-07
9.56083e-08
1.02417e-07
2.48056e-07
5.36898e-07
9.9792e-07
1.68006e-06
2.65865e-06
4.04033e-06
5.968e-06
1.10504e-07
2.66929e-08
4.10056e-08
1.04659e-07
2.25012e-07
4.166e-07
6.99976e-07
1.10278e-06
1.66067e-06
2.41854e-06
6.52381e-09
5.3103e-09
2.10114e-08
7.0322e-08
1.704e-07
3.42913e-07
6.0564e-07
9.7425e-07
1.46129e-06
2.07429e-06
1.08028e-09
5.07511e-09
6.16686e-08
2.88665e-07
7.87009e-07
1.69445e-06
3.10148e-06
5.0838e-06
7.69275e-06
1.0939e-05
0.000557641
0.000191007
0.000169963
0.000121699
8.26212e-05
5.67885e-05
4.06395e-05
3.04565e-05
2.35954e-05
1.86417e-05
1.48073e-05
1.16501e-05
8.94453e-06
6.60131e-06
4.60888e-06
2.98782e-06
1.75655e-06
9.05286e-07
3.86323e-07
1.22012e-07
2.18384e-08
3.05859e-09
5.65154e-09
4.89723e-09
1.95733e-09
0.00022474
6.65866e-05
3.31545e-05
2.06337e-05
1.3559e-05
9.2267e-06
6.55271e-06
4.86743e-06
3.74358e-06
2.94177e-06
2.3289e-06
1.831e-06
1.40961e-06
1.04816e-06
7.42462e-07
4.93358e-07
3.02087e-07
1.66681e-07
8.04455e-08
3.26917e-08
1.08921e-08
3.54236e-09
1.63365e-09
1.2988e-09
5.96404e-09
0.000232243
8.08673e-05
3.31577e-05
1.59077e-05
8.76585e-06
5.33198e-06
3.49276e-06
2.43492e-06
1.78706e-06
1.36356e-06
1.06801e-06
8.47349e-07
6.72138e-07
5.27064e-07
4.05242e-07
3.02185e-07
2.16174e-07
1.46655e-07
9.3052e-08
5.41582e-08
2.80308e-08
1.22452e-08
4.0631e-09
1.31056e-09
4.6909e-09
0.000299654
0.000128096
5.67211e-05
2.79122e-05
1.48748e-05
8.65434e-06
5.39969e-06
3.58129e-06
2.51763e-06
1.87122e-06
1.46137e-06
1.18583e-06
9.8512e-07
8.2474e-07
6.85291e-07
5.5655e-07
4.35094e-07
3.2219e-07
2.21725e-07
1.38204e-07
7.49943e-08
3.30962e-08
1.04702e-08
2.07532e-09
1.11497e-09
0.000394951
0.000195863
9.46027e-05
4.97211e-05
2.77957e-05
1.628e-05
1.01393e-05
6.67333e-06
4.64915e-06
3.43762e-06
2.69096e-06
2.20759e-06
1.86728e-06
1.59819e-06
1.35879e-06
1.12788e-06
8.99022e-07
6.76405e-07
4.70821e-07
2.95237e-07
1.60324e-07
7.07724e-08
2.33113e-08
7.78523e-09
2.22502e-08
0.000507342
0.000279315
0.000150247
8.23502e-05
4.76625e-05
2.8651e-05
1.77979e-05
1.1641e-05
8.0462e-06
5.91047e-06
4.61521e-06
3.7962e-06
3.23389e-06
2.79557e-06
2.40358e-06
2.0178e-06
1.62556e-06
1.23456e-06
8.65927e-07
5.46196e-07
2.98302e-07
1.33634e-07
4.80654e-08
2.75982e-08
1.17897e-07
0.000629144
0.000376682
0.000222342
0.000127716
7.59995e-05
4.65855e-05
2.92527e-05
1.89184e-05
1.29059e-05
9.3672e-06
7.25821e-06
5.96017e-06
5.09827e-06
4.4446e-06
3.86399e-06
3.28447e-06
2.68056e-06
2.06217e-06
1.46435e-06
9.34532e-07
5.16813e-07
2.36701e-07
9.36888e-08
7.93682e-08
4.13438e-07
0.00075257
0.000483859
0.000307141
0.000189745
0.00011536
7.18132e-05
4.55095e-05
2.9475e-05
1.97645e-05
1.41121e-05
1.08068e-05
8.83377e-06
7.5782e-06
6.66493e-06
5.86831e-06
5.06338e-06
4.19988e-06
3.2855e-06
2.37244e-06
1.53939e-06
8.66301e-07
4.0666e-07
1.7162e-07
1.63497e-07
8.58397e-07
0.000869599
0.000595369
0.000402411
0.000265589
0.000168997
0.000106684
6.82304e-05
4.43445e-05
2.96427e-05
2.07578e-05
1.56566e-05
1.27046e-05
1.09139e-05
9.68179e-06
8.64163e-06
7.58069e-06
6.40359e-06
5.10649e-06
3.76053e-06
2.48922e-06
1.43101e-06
6.91883e-07
3.13854e-07
3.40127e-07
1.8393e-06
0.000972335
0.000704443
0.000503638
0.000352074
0.000238032
0.000154134
9.97483e-05
6.52523e-05
4.36405e-05
3.03996e-05
2.25008e-05
1.80573e-05
1.54905e-05
1.38377e-05
1.2515e-05
1.11648e-05
9.61077e-06
7.8204e-06
5.88188e-06
3.97957e-06
2.34301e-06
1.17009e-06
5.68386e-07
6.75565e-07
3.70273e-06
0.00105467
0.000803994
0.000604887
0.000445528
0.000317999
0.000217981
0.000143266
9.47287e-05
6.36545e-05
4.42679e-05
3.25289e-05
2.56746e-05
2.18913e-05
1.96347e-05
1.79521e-05
1.62706e-05
1.4266e-05
1.18441e-05
9.10116e-06
6.29914e-06
3.80342e-06
1.96448e-06
1.01512e-06
1.2843e-06
7.06833e-06
0.00111272
0.000887664
0.000699453
0.000540587
0.000405821
0.000293452
0.000203419
0.000136315
9.24123e-05
6.44338e-05
4.71758e-05
3.6848e-05
3.10028e-05
2.77724e-05
2.55971e-05
2.35217e-05
2.09817e-05
1.7758e-05
1.39348e-05
9.86532e-06
6.11058e-06
3.26459e-06
1.78403e-06
2.35848e-06
1.29683e-05
0.00114477
0.000950521
0.000780695
0.000630631
0.000496337
0.000377468
0.000276138
0.000194632
0.000133619
9.38731e-05
6.87274e-05
5.33768e-05
4.42317e-05
3.92965e-05
3.63222e-05
3.37367e-05
3.05837e-05
2.63598e-05
2.11036e-05
1.52706e-05
9.69543e-06
5.3503e-06
3.0743e-06
4.19947e-06
2.30074e-05
0.00115219
0.000990338
0.000843378
0.000708829
0.000582835
0.000464853
0.000357787
0.000265792
0.000191891
0.000136656
0.000100442
7.77415e-05
6.40315e-05
5.58446e-05
5.13929e-05
4.80454e-05
4.41236e-05
3.87068e-05
3.15919e-05
2.33417e-05
1.51665e-05
8.61813e-06
5.17092e-06
7.2466e-06
3.95133e-05
0.00113769
0.00100723
0.000884647
0.000769568
0.000658189
0.000548668
0.000443075
0.000346148
0.000262789
0.000196095
0.000146764
0.000113296
9.26321e-05
7.99786e-05
7.25921e-05
6.79337e-05
6.30388e-05
5.61713e-05
4.67097e-05
3.52108e-05
2.33696e-05
1.36115e-05
8.45214e-06
1.20875e-05
6.55932e-05
0.00110608
0.00100377
0.000904285
0.000809607
0.00071637
0.000621363
0.000524654
0.000429923
0.000342644
0.000267762
0.000208166
0.00016419
0.000133839
0.000114611
0.000102322
9.5272e-05
8.89766e-05
8.04091e-05
6.81052e-05
5.23794e-05
3.54661e-05
2.10634e-05
1.33836e-05
1.94417e-05
0.000105111
0.00106158
0.000984155
0.000904889
0.000828808
0.000753989
0.000676579
0.000594512
0.00050918
0.000424972
0.00034738
0.000280994
0.000228287
0.000189396
0.000162723
0.000144825
0.000132435
0.000123714
0.000113138
9.76444e-05
7.67143e-05
5.30291e-05
3.19721e-05
2.04985e-05
3.00681e-05
0.000162494
0.00100824
0.000952981
0.00089078
0.000829949
0.00077108
0.000710923
0.000646073
0.000575472
0.000501188
0.000427655
0.000359934
0.000302071
0.000256197
0.000222409
0.000198784
0.00018131
0.000168689
0.000155666
0.000137061
0.000110326
7.81186e-05
4.77353e-05
3.0383e-05
4.44421e-05
0.000240773
0.000948701
0.000914049
0.000866728
0.000817786
0.00077095
0.000724889
0.000676241
0.000622282
0.000562597
0.000499411
0.000436759
0.000379036
0.000329713
0.000290636
0.000261808
0.000240984
0.000223383
0.000207991
0.000187135
0.000154976
0.000113157
7.03388e-05
4.38198e-05
6.2596e-05
0.000339905
0.000884355
0.000869782
0.000836596
0.000797419
0.000758954
0.000722554
0.000686296
0.000647213
0.00060317
0.00055406
0.000501934
0.000450169
0.000402397
0.000361547
0.000329228
0.000304979
0.000285397
0.000266686
0.000244687
0.000210899
0.000160766
0.0001027
6.21308e-05
8.44626e-05
0.00046138
0.000815587
0.000821126
0.000802669
0.000772823
0.000740546
0.000709935
0.000681286
0.000652731
0.000621789
0.000586796
0.00054773
0.000506243
0.000465031
0.000427023
0.00039463
0.000368916
0.000348692
0.00032892
0.000306469
0.00027287
0.000219549
0.000148885
8.78312e-05
0.000108062
0.000598065
0.000742307
0.000767768
0.000765403
0.000746353
0.000719886
0.000692967
0.000667992
0.000645009
0.00062242
0.000598275
0.000571307
0.000541476
0.000509972
0.000478806
0.00045023
0.000426025
0.000406689
0.000390151
0.000369117
0.000338509
0.000286423
0.000208082
0.000125966
0.000128433
0.000706636
0.000664633
0.000708712
0.000723703
0.000717548
0.00069909
0.000675872
0.000652637
0.000631467
0.000612396
0.000594197
0.000575478
0.000555296
0.000533535
0.000510952
0.000488944
0.000469113
0.000452664
0.000439481
0.000426184
0.000402434
0.0003587
0.000282552
0.000183056
0.000140181
0.000653885
0.000584641
0.0006443
0.000676573
0.000685346
0.000677482
0.000660181
0.000639277
0.000618623
0.000599743
0.000583091
0.000567869
0.0005531
0.000538091
0.000522704
0.000507396
0.000493081
0.000480826
0.000471298
0.000463599
0.000452923
0.000426889
0.00037083
0.000276381
0.000164088
9.58784e-05
0.000503202
0.000574047
0.000621947
0.000646741
0.000652206
0.000644053
0.000627957
0.000608969
0.000589985
0.000572337
0.000556908
0.000543403
0.000531183
0.000519744
0.000508944
0.00049904
0.000490599
0.000484229
0.000479947
0.0004756
0.000466895
0.000442858
0.000385174
0.000290786
0.000179828
0.00042311
0.000499726
0.000559685
0.000599641
0.000620014
0.000624082
0.000616369
0.000601679
0.000584065
0.000566036
0.000549754
0.000534491
0.000521457
0.000510338
0.0005008
0.000492689
0.000486114
0.000481348
0.000478601
0.000477374
0.00047529
0.000468912
0.000451153
0.000408833
0.000338388
0.000347682
0.000424634
0.000491661
0.000543736
0.000578538
0.000596595
0.000600489
0.000593866
0.000580758
0.000564349
0.000547326
0.0005308
0.00051639
0.000502939
0.000491635
0.000482402
0.000475127
0.000469769
0.000466383
0.000464878
0.000464599
0.000463932
0.000459703
0.000447404
0.00042125
0.000279359
0.000352136
0.000421116
0.000480765
0.000527302
0.000558983
0.000576177
0.000580833
0.000575958
0.000564632
0.000549752
0.000533382
0.00051728
0.000501985
0.000488689
0.0004767
0.000466418
0.000458284
0.000452207
0.000448127
0.000445747
0.000444502
0.000443243
0.000439998
0.000432106
0.000219944
0.000285195
0.00035155
0.000413935
0.00046796
0.000510637
0.000540562
0.00055791
0.000564162
0.00056154
0.000552558
0.000539504
0.000524354
0.00050853
0.000492734
0.000478394
0.00046572
0.000454433
0.000444618
0.000436569
0.000430303
0.000425549
0.000421906
0.00041859
0.000414553
0.000170238
0.000226108
0.000286331
0.000346938
0.000403797
0.000453348
0.000493238
0.000522306
0.000540565
0.000549005
0.000549251
0.000543184
0.000532657
0.000519389
0.000504569
0.00048933
0.000474235
0.000459781
0.000447187
0.000436001
0.000425979
0.000417165
0.000409583
0.000403034
0.000397076
0.0001298
0.000175839
0.000227879
0.000283239
0.000338622
0.000390652
0.000436498
0.000474185
0.000502796
0.000522356
0.000533527
0.000537231
0.000534737
0.000527562
0.000517062
0.000504372
0.000490449
0.000475954
0.000461615
0.000447489
0.000434183
0.000422441
0.000411807
0.000402004
0.00039299
9.71208e-05
0.000133815
0.000176937
0.000224937
0.000275532
0.000326011
0.000373677
0.000416168
0.000451817
0.000480041
0.000500786
0.000514419
0.000521654
0.000523454
0.000520835
0.000514507
0.000505248
0.000493978
0.000481388
0.000468056
0.000454462
0.0004411
0.000428016
0.000415295
0.000403426
7.03079e-05
9.85365e-05
0.000132827
0.000172447
0.000216092
0.000261902
0.000307743
0.000351524
0.000391398
0.000425762
0.000453954
0.00047592
0.000491893
0.000502381
0.000508044
0.000509532
0.000507503
0.000502611
0.000495166
0.000485706
0.000474828
0.000462976
0.000450553
0.000437892
0.000425357
4.84125e-05
6.82476e-05
9.43443e-05
0.000125241
0.000160645
0.000199483
0.000240285
0.000281453
0.000321348
0.000358452
0.000391612
0.000419921
0.000442903
0.000460824
0.000474041
0.000482977
0.000488097
0.000489884
0.000488753
0.000485114
0.000479276
0.000471372
0.000461912
0.000451347
0.000440103
3.14045e-05
4.40884e-05
6.10088e-05
8.26764e-05
0.000109047
0.000139218
0.000172127
0.000206957
0.000242395
0.000277219
0.000310298
0.000340648
0.000367541
0.000390607
0.000409693
0.000424809
0.000436084
0.000443703
0.000448048
0.000449383
0.000447975
0.000444108
0.000438125
0.000430396
0.000421335
1.80578e-05
2.53228e-05
3.50203e-05
4.78372e-05
6.42574e-05
8.37707e-05
0.000106323
0.000131955
0.000158683
0.000186064
0.000213322
0.000239603
0.000264195
0.000286525
0.000306167
0.000322837
0.000336391
0.00034679
0.000354114
0.000358495
0.000360119
0.000359217
0.000356062
0.00035095
0.000344234
8.58023e-06
1.2002e-05
1.65687e-05
2.26233e-05
3.05602e-05
4.06782e-05
5.27005e-05
6.65621e-05
8.18455e-05
9.84806e-05
0.000115882
0.000133123
0.000149866
0.000165617
0.000179972
0.000192611
0.000203299
0.000211885
0.000218302
0.000222569
0.000224776
0.00022508
0.000223685
0.000220773
0.000216563
3.41484e-06
4.68389e-06
6.33137e-06
8.45641e-06
1.1176e-05
1.46356e-05
1.8958e-05
2.39593e-05
2.95498e-05
3.57511e-05
4.25322e-05
4.96564e-05
5.70005e-05
6.39719e-05
7.04934e-05
7.64285e-05
8.16434e-05
8.6019e-05
8.94993e-05
9.20787e-05
9.37994e-05
9.47642e-05
9.51357e-05
9.48562e-05
9.39549e-05
2.80124e-06
3.63011e-06
4.57903e-06
5.64052e-06
6.78629e-06
7.92109e-06
8.88716e-06
9.63216e-06
1.01687e-05
1.06305e-05
1.11381e-05
1.1595e-05
1.20347e-05
1.25008e-05
1.31629e-05
1.41433e-05
1.55739e-05
1.74715e-05
1.98904e-05
2.28468e-05
2.63432e-05
3.03961e-05
3.51632e-05
4.01145e-05
4.50753e-05
1.46967e-05
1.88719e-05
2.34917e-05
2.84561e-05
3.35919e-05
3.82442e-05
4.08092e-05
4.04905e-05
3.80626e-05
3.4659e-05
2.98262e-05
2.3319e-05
1.59263e-05
8.82369e-06
3.54042e-06
1.32425e-06
3.77447e-06
1.12822e-05
2.44101e-05
4.32387e-05
6.76424e-05
9.70248e-05
0.000130434
0.000166598
0.00020419
5.67539e-05
2.24706e-05
2.43547e-05
9.34265e-05
5.16871e-05
3.4482e-05
0.000262082
0.000198383
0.000152296
0.000383943
0.000340643
0.000297496
0.000418938
0.000400286
0.00037739
0.000409306
0.000401964
0.000392212
0.000391828
0.000386406
0.000380411
0.000385376
0.000378185
0.000371303
0.000393748
0.000384803
0.0003762
0.000414352
0.000403766
0.000393267
0.00042955
0.000418871
0.000407974
0.000412208
0.000402488
0.000392127
0.000336956
0.000328855
0.000319901
0.00021174
0.000206232
0.000200027
9.26435e-05
9.09885e-05
8.90028e-05
4.96175e-05
5.38523e-05
5.78712e-05
0.000239578
0.000272261
0.000303448
3.10288e-11
8.21851e-11
1.0696e-10
5.63589e-11
1.00609e-10
7.29279e-10
2.51989e-09
6.03401e-09
1.17156e-08
1.98367e-08
3.04366e-08
4.32921e-08
5.78289e-08
7.28828e-08
8.65791e-08
1.01238e-07
1.93896e-07
1.82294e-06
5.12468e-07
2.99036e-07
2.55333e-07
2.88158e-07
3.4071e-07
3.93079e-07
4.44668e-07
4.96427e-07
5.49352e-07
6.04419e-07
6.62513e-07
7.24472e-07
7.91165e-07
8.63549e-07
9.42722e-07
1.02996e-06
1.12674e-06
1.2348e-06
1.35616e-06
1.49317e-06
1.64852e-06
1.82532e-06
2.02713e-06
2.25795e-06
2.52228e-06
2.8251e-06
3.1718e-06
3.56816e-06
4.02012e-06
4.53361e-06
5.11415e-06
5.76633e-06
6.49313e-06
7.29502e-06
8.16885e-06
9.10644e-06
1.00931e-05
1.11064e-05
1.21155e-05
1.30816e-05
1.39586e-05
1.46936e-05
1.5226e-05
1.54963e-05
1.54676e-05
1.50849e-05
1.43106e-05
1.31678e-05
1.17044e-05
9.99511e-06
8.14706e-06
6.28706e-06
4.54463e-06
3.03282e-06
1.83019e-06
9.68412e-07
4.2714e-07
1.42733e-07
2.89163e-08
2.25819e-09
1.88968e-09
1.26427e-09
9.94882e-11
2.09914e-11
2.23634e-11
3.297e-11
7.74187e-11
2.26739e-10
5.64944e-10
1.17428e-09
2.12093e-09
3.44485e-09
5.15167e-09
7.209e-09
9.54479e-09
1.20793e-08
1.50433e-08
2.10044e-08
4.60265e-08
1.83799e-07
8.88531e-08
5.4761e-08
4.47198e-08
4.7567e-08
5.47961e-08
6.28112e-08
7.09123e-08
7.90897e-08
8.74653e-08
9.61823e-08
1.05378e-07
1.15187e-07
1.2575e-07
1.3722e-07
1.49775e-07
1.63621e-07
1.78997e-07
1.96183e-07
2.15506e-07
2.37343e-07
2.62131e-07
2.90374e-07
3.22642e-07
3.59584e-07
4.01924e-07
4.50461e-07
5.06062e-07
5.69644e-07
6.42152e-07
7.2451e-07
8.17564e-07
9.21989e-07
1.03817e-06
1.16607e-06
1.30499e-06
1.45344e-06
1.60884e-06
1.76738e-06
1.92399e-06
2.07236e-06
2.20508e-06
2.31385e-06
2.38966e-06
2.42416e-06
2.41176e-06
2.34593e-06
2.2219e-06
2.04289e-06
1.81655e-06
1.55461e-06
1.27308e-06
9.90603e-07
7.2592e-07
4.95001e-07
3.09049e-07
1.72796e-07
8.38282e-08
3.36678e-08
1.04721e-08
2.49321e-09
7.65508e-10
2.03795e-09
7.57827e-11
1.91586e-11
4.37285e-11
1.18815e-10
2.59089e-10
4.88119e-10
8.29548e-10
1.30481e-09
1.93024e-09
2.71447e-09
3.65736e-09
4.75163e-09
5.9907e-09
7.39857e-09
9.14188e-09
1.19201e-08
1.8326e-08
3.80238e-08
3.09496e-08
2.52794e-08
2.31729e-08
2.41167e-08
2.66243e-08
2.96944e-08
3.29325e-08
3.62418e-08
3.96299e-08
4.31361e-08
4.68083e-08
5.06986e-08
5.48642e-08
5.93699e-08
6.42909e-08
6.97148e-08
7.57443e-08
8.2499e-08
9.01181e-08
9.87623e-08
1.08617e-07
1.19892e-07
1.32828e-07
1.47694e-07
1.64786e-07
1.84432e-07
2.06978e-07
2.32788e-07
2.62228e-07
2.95644e-07
3.33336e-07
3.7552e-07
4.22281e-07
4.7351e-07
5.28844e-07
5.87589e-07
6.48668e-07
7.10577e-07
7.71406e-07
8.2888e-07
8.80453e-07
9.23456e-07
9.55328e-07
9.74056e-07
9.77876e-07
9.631e-07
9.2786e-07
8.72143e-07
7.97376e-07
7.06442e-07
6.03938e-07
4.96373e-07
3.9056e-07
2.91691e-07
2.04629e-07
1.3304e-07
7.86478e-08
4.1021e-08
1.79305e-08
6.11009e-09
1.93105e-09
2.90842e-09
4.66092e-11
3.67629e-11
1.19255e-10
3.44226e-10
7.58585e-10
1.38832e-09
2.24378e-09
3.32602e-09
4.6304e-09
6.14837e-09
7.86909e-09
9.78204e-09
1.18822e-08
1.41813e-08
1.6733e-08
1.96889e-08
2.34518e-08
2.91996e-08
3.1382e-08
3.27529e-08
3.45238e-08
3.7039e-08
4.01199e-08
4.35009e-08
4.70132e-08
5.05868e-08
5.42095e-08
5.78985e-08
6.16864e-08
6.56173e-08
6.97457e-08
7.41382e-08
7.88749e-08
8.40507e-08
8.97776e-08
9.61857e-08
1.03426e-07
1.1167e-07
1.21113e-07
1.31977e-07
1.44507e-07
1.58977e-07
1.75686e-07
1.94957e-07
2.17131e-07
2.42564e-07
2.71612e-07
3.04616e-07
3.4188e-07
3.83647e-07
4.30058e-07
4.81122e-07
5.36668e-07
5.96307e-07
6.59398e-07
7.25022e-07
7.91995e-07
8.58906e-07
9.242e-07
9.86305e-07
1.04383e-06
1.09589e-06
1.13674e-06
1.16098e-06
1.1644e-06
1.14369e-06
1.09664e-06
1.02274e-06
9.23821e-07
8.04347e-07
6.7098e-07
5.31793e-07
3.96076e-07
2.73111e-07
1.70611e-07
9.33979e-08
4.27193e-08
1.63484e-08
1.05431e-08
4.41673e-08
8.65244e-10
2.06436e-10
2.99994e-10
7.75526e-10
1.71213e-09
3.16993e-09
5.16395e-09
7.67788e-09
1.06791e-08
1.4129e-08
1.7989e-08
2.22244e-08
2.68069e-08
3.17173e-08
3.6947e-08
4.24995e-08
4.8399e-08
5.47429e-08
6.06522e-08
6.63403e-08
7.21107e-08
7.81308e-08
8.43972e-08
9.08272e-08
9.73404e-08
1.03891e-07
1.10467e-07
1.17087e-07
1.23793e-07
1.30647e-07
1.37737e-07
1.45172e-07
1.53087e-07
1.61646e-07
1.71041e-07
1.81498e-07
1.93276e-07
2.0667e-07
2.22015e-07
2.39682e-07
2.60088e-07
2.83689e-07
3.10985e-07
3.42515e-07
3.78857e-07
4.20612e-07
4.68403e-07
5.22849e-07
5.84544e-07
6.54025e-07
7.31736e-07
8.17978e-07
9.1286e-07
1.01624e-06
1.12766e-06
1.24628e-06
1.37082e-06
1.49954e-06
1.63035e-06
1.76082e-06
1.8884e-06
2.01025e-06
2.11271e-06
2.18582e-06
2.22063e-06
2.20909e-06
2.14493e-06
2.02503e-06
1.8507e-06
1.62856e-06
1.37066e-06
1.09387e-06
8.18437e-07
5.65263e-07
3.5249e-07
1.92232e-07
8.8476e-08
3.74108e-08
3.63114e-08
1.87834e-07
4.12574e-09
7.73316e-10
6.73761e-10
1.49453e-09
3.2596e-09
6.0924e-09
1.00394e-08
1.50718e-08
2.11143e-08
2.80726e-08
3.58509e-08
4.43613e-08
5.35278e-08
6.32846e-08
7.35734e-08
8.43366e-08
9.55142e-08
1.07049e-07
1.18743e-07
1.30562e-07
1.42548e-07
1.54727e-07
1.67077e-07
1.79534e-07
1.92037e-07
2.04542e-07
2.17038e-07
2.29551e-07
2.42144e-07
2.54919e-07
2.68019e-07
2.81631e-07
2.95992e-07
3.11388e-07
3.28161e-07
3.46709e-07
3.67494e-07
3.91038e-07
4.17933e-07
4.48841e-07
4.84496e-07
5.25709e-07
5.73364e-07
6.28424e-07
6.91919e-07
7.64943e-07
8.48634e-07
9.44152e-07
1.05264e-06
1.17519e-06
1.31276e-06
1.46609e-06
1.63563e-06
1.82141e-06
2.02291e-06
2.23891e-06
2.46731e-06
2.70498e-06
2.9478e-06
3.19087e-06
3.4287e-06
3.65043e-06
3.83648e-06
3.96922e-06
4.03274e-06
4.01284e-06
3.89824e-06
3.68306e-06
3.36901e-06
2.96711e-06
2.49856e-06
1.99395e-06
1.49057e-06
1.02746e-06
6.38887e-07
3.47866e-07
1.61941e-07
7.49221e-08
9.12501e-08
5.08119e-07
1.20572e-08
2.08199e-09
1.36259e-09
2.60499e-09
5.56348e-09
1.04421e-08
1.73558e-08
2.628e-08
3.70875e-08
4.95986e-08
6.36212e-08
7.89751e-08
9.55023e-08
1.13067e-07
1.31549e-07
1.5084e-07
1.70834e-07
1.91426e-07
2.12498e-07
2.33966e-07
2.55769e-07
2.77845e-07
3.00116e-07
3.2249e-07
3.44881e-07
3.67229e-07
3.89515e-07
4.11768e-07
4.34077e-07
4.56593e-07
4.79536e-07
5.03202e-07
5.27969e-07
5.54299e-07
5.82749e-07
6.13971e-07
6.48721e-07
6.87858e-07
7.32358e-07
7.83309e-07
8.41924e-07
9.09539e-07
9.87617e-07
1.07775e-06
1.18165e-06
1.30113e-06
1.43809e-06
1.59449e-06
1.77226e-06
1.97324e-06
2.19907e-06
2.45104e-06
2.72993e-06
3.03579e-06
3.36774e-06
3.72365e-06
4.09973e-06
4.49032e-06
4.88793e-06
5.28332e-06
5.66591e-06
6.01653e-06
6.30768e-06
6.51335e-06
6.60907e-06
6.57246e-06
6.38563e-06
6.03848e-06
5.53225e-06
4.88266e-06
4.12186e-06
3.29805e-06
2.47163e-06
1.70745e-06
1.06396e-06
5.8156e-07
2.74893e-07
1.3672e-07
1.8915e-07
1.08399e-06
2.73609e-08
4.54959e-09
2.5174e-09
4.23609e-09
8.8198e-09
1.65526e-08
2.76607e-08
4.21524e-08
5.98485e-08
8.04579e-08
1.0365e-07
1.29104e-07
1.56536e-07
1.85706e-07
2.1641e-07
2.48471e-07
2.81726e-07
3.16023e-07
3.51211e-07
3.87149e-07
4.23696e-07
4.60709e-07
4.98034e-07
5.35517e-07
5.7302e-07
6.10442e-07
6.47735e-07
6.84919e-07
7.221e-07
7.59477e-07
7.97357e-07
8.3616e-07
8.76434e-07
9.18863e-07
9.64273e-07
1.01364e-06
1.0681e-06
1.12895e-06
1.19767e-06
1.27591e-06
1.36551e-06
1.4685e-06
1.5871e-06
1.72372e-06
1.88096e-06
2.06158e-06
2.26845e-06
2.50451e-06
2.77269e-06
3.07573e-06
3.41606e-06
3.79557e-06
4.21529e-06
4.6751e-06
5.1736e-06
5.7071e-06
6.26952e-06
6.85202e-06
7.44283e-06
8.02767e-06
8.59028e-06
9.10277e-06
9.52906e-06
9.83364e-06
9.98162e-06
9.94008e-06
9.6813e-06
9.1873e-06
8.45516e-06
7.50252e-06
6.37176e-06
5.13107e-06
3.87037e-06
2.69062e-06
1.6869e-06
9.28791e-07
4.46042e-07
2.34647e-07
3.51451e-07
2.04539e-06
5.29423e-08
8.63491e-09
4.32837e-09
6.55666e-09
1.32702e-08
2.48182e-08
4.15845e-08
6.36457e-08
9.0779e-08
1.22562e-07
1.58484e-07
1.98034e-07
2.40752e-07
2.86252e-07
3.34213e-07
3.84367e-07
4.36478e-07
4.90328e-07
5.45702e-07
6.02381e-07
6.60138e-07
7.18732e-07
7.77913e-07
8.37436e-07
8.97076e-07
9.56657e-07
1.01607e-06
1.0753e-06
1.13444e-06
1.19372e-06
1.25352e-06
1.31438e-06
1.37703e-06
1.44238e-06
1.51157e-06
1.58595e-06
1.66708e-06
1.75679e-06
1.85715e-06
1.97048e-06
2.09937e-06
2.24668e-06
2.41554e-06
2.60935e-06
2.83175e-06
3.0866e-06
3.37792e-06
3.70979e-06
4.08623e-06
4.51103e-06
4.98751e-06
5.51817e-06
6.10435e-06
6.74573e-06
7.44011e-06
8.18246e-06
8.96432e-06
9.7737e-06
1.05948e-05
1.14082e-05
1.21911e-05
1.29082e-05
1.35146e-05
1.39642e-05
1.42095e-05
1.42037e-05
1.39041e-05
1.32782e-05
1.23119e-05
1.10178e-05
9.44415e-06
7.67921e-06
5.84911e-06
4.10456e-06
2.59616e-06
1.44229e-06
7.02615e-07
3.8479e-07
6.04936e-07
3.5496e-06
9.19243e-08
1.49428e-08
7.12187e-09
9.82212e-09
1.92216e-08
3.57063e-08
5.98564e-08
9.18502e-08
1.31431e-07
1.78029e-07
2.30918e-07
2.89349e-07
3.52637e-07
4.20205e-07
4.91584e-07
5.66392e-07
6.44305e-07
7.25025e-07
8.08259e-07
8.93701e-07
9.81023e-07
1.06987e-06
1.15987e-06
1.25066e-06
1.34188e-06
1.43325e-06
1.52454e-06
1.61567e-06
1.70665e-06
1.79772e-06
1.88927e-06
1.98193e-06
2.07658e-06
2.17434e-06
2.27665e-06
2.38522e-06
2.5021e-06
2.62965e-06
2.77059e-06
2.92796e-06
3.1052e-06
3.30607e-06
3.53472e-06
3.79562e-06
4.09359e-06
4.43368e-06
4.82115e-06
5.26136e-06
5.75953e-06
6.32045e-06
6.94848e-06
7.64692e-06
8.41752e-06
9.26008e-06
1.01719e-05
1.11469e-05
1.21751e-05
1.32421e-05
1.43289e-05
1.54117e-05
1.64619e-05
1.74372e-05
1.82844e-05
1.8946e-05
1.93605e-05
1.94629e-05
1.91893e-05
1.84837e-05
1.73091e-05
1.56616e-05
1.35851e-05
1.11835e-05
8.62405e-06
6.12369e-06
3.91521e-06
2.19651e-06
1.08263e-06
6.08331e-07
9.83358e-07
5.79631e-06
1.53502e-07
2.53975e-08
1.15953e-08
1.43872e-08
2.70277e-08
4.9755e-08
8.33263e-08
1.28033e-07
1.8359e-07
2.49267e-07
3.24092e-07
4.07037e-07
4.97156e-07
5.93644e-07
6.95861e-07
8.03295e-07
9.15528e-07
1.03218e-06
1.15289e-06
1.27726e-06
1.40485e-06
1.53519e-06
1.66777e-06
1.80205e-06
1.93754e-06
2.07377e-06
2.21036e-06
2.34706e-06
2.48377e-06
2.62063e-06
2.75797e-06
2.89643e-06
3.03695e-06
3.18082e-06
3.32967e-06