/*--------------------------------*- C++ -*----------------------------------*\
| =========                 |                                                 |
| \\      /  F ield         | OpenFOAM: The Open Source CFD Toolbox           |
|  \\    /   O peration     | Version:  v2012                                 |
|   \\  /    A nd           | Website:  www.openfoam.com                      |
|    \\/     M anipulation  |                                                 |
\*---------------------------------------------------------------------------*/
FoamFile
{
    version     2.0;
    format      ascii;
    class       volScalarField;
    location    "2000";
    object      nut;
}
// * * * * * * * * * * * * * * * * * * * * * * * * * * * * * * * * * * * * * //

dimensions      [0 2 -1 0 0 0 0];


internalField   nonuniform List<scalar> 
6502
(
2.28687e-05
0.000218173
0.00113711
0.00211647
0.00242578
0.00242596
0.00211703
0.00113763
0.000218244
2.28696e-05
1.29916e-05
8.22274e-05
0.000510824
0.00145794
0.002127
0.00212793
0.00145973
0.000511567
8.22954e-05
1.29962e-05
8.10216e-06
4.29275e-05
0.000295625
0.00101222
0.00177618
0.00177823
0.00101486
0.000296406
4.29954e-05
8.11289e-06
5.15502e-06
2.5722e-05
0.00019662
0.000743256
0.00146033
0.00146347
0.000746454
0.000197442
2.57947e-05
5.17224e-06
3.55084e-06
1.69429e-05
0.000143236
0.000575644
0.0012052
0.00120937
0.000579394
0.000144139
1.70237e-05
3.57403e-06
2.71353e-06
1.20541e-05
0.000111202
0.000464564
0.00100576
0.00101093
0.000468963
0.000112232
1.21464e-05
2.74357e-06
2.25214e-06
9.11393e-06
9.00699e-05
0.000386781
0.000850464
0.000856521
0.00039191
9.12781e-05
9.22182e-06
2.29093e-06
1.97821e-06
7.22284e-06
7.5014e-05
0.000329108
0.000727885
0.000734987
0.0003351
7.64334e-05
7.34945e-06
2.02885e-06
1.8028e-06
5.94233e-06
6.36618e-05
0.000284209
0.000629051
0.000637426
0.000291235
6.5337e-05
6.09191e-06
1.86905e-06
1.68166e-06
5.03065e-06
5.46738e-05
0.000247808
0.000547851
0.000557587
0.000256143
5.66698e-05
5.20979e-06
1.76848e-06
1.58999e-06
4.34787e-06
4.72722e-05
0.000217243
0.000479921
0.000491276
0.000227162
4.96574e-05
4.56475e-06
1.70442e-06
1.51328e-06
3.81387e-06
4.10253e-05
0.000190965
0.000422127
0.000435382
0.00020275
4.38574e-05
4.07744e-06
1.6639e-06
1.44314e-06
3.37995e-06
3.56611e-05
0.000167972
0.000372225
0.000387493
0.000182072
3.90211e-05
3.70222e-06
1.64137e-06
1.3751e-06
3.01609e-06
3.10115e-05
0.000147627
0.000328599
0.000345589
0.000164653
3.5006e-05
3.40955e-06
1.63536e-06
1.30627e-06
2.70206e-06
2.69443e-05
0.000129442
0.000289975
0.000308603
0.000149133
3.16809e-05
3.20757e-06
1.64743e-06
1.23402e-06
2.42358e-06
2.33547e-05
0.000113051
0.000255407
0.000275732
0.00013539
2.89495e-05
3.07884e-06
1.68276e-06
1.15598e-06
2.17035e-06
2.01639e-05
9.81945e-05
0.000224188
0.000246336
0.000123318
2.67616e-05
3.02129e-06
1.75059e-06
1.07037e-06
1.93505e-06
1.73157e-05
8.46952e-05
0.00019581
0.000219902
0.000112868
2.51658e-05
3.08948e-06
1.86583e-06
9.76463e-07
1.71281e-06
1.47721e-05
7.24521e-05
0.000169933
0.000196004
0.000103942
2.41638e-05
3.29805e-06
2.06919e-06
8.74834e-07
1.50093e-06
1.25083e-05
6.14161e-05
0.000146336
0.000174265
9.64535e-05
2.37837e-05
3.56436e-06
2.22546e-06
7.67007e-07
1.2975e-06
1.0496e-05
5.15144e-05
0.000124818
0.000154384
9.09698e-05
2.54553e-05
4.53449e-06
1.8545e-06
6.56686e-07
1.10497e-06
8.7418e-06
4.28469e-05
0.000105596
0.000136341
8.6998e-05
2.84733e-05
6.40508e-06
2.1353e-06
5.4932e-07
9.26504e-07
7.236e-06
3.54069e-05
8.87043e-05
0.000119937
8.374e-05
3.22159e-05
9.14727e-06
3.17827e-06
4.49514e-07
7.6479e-07
5.95762e-06
2.91195e-05
7.4091e-05
0.00010501
8.05909e-05
3.62374e-05
1.26657e-05
5.05391e-06
3.59933e-07
6.21258e-07
4.87873e-06
2.38583e-05
6.15967e-05
9.1433e-05
7.71546e-05
4.0158e-05
1.67974e-05
7.71988e-06
2.81571e-07
4.96395e-07
3.97257e-06
1.94833e-05
5.10089e-05
7.91301e-05
7.32058e-05
4.36799e-05
2.13307e-05
1.10734e-05
2.14589e-07
3.8979e-07
3.21518e-06
1.58609e-05
4.20969e-05
6.80371e-05
6.86409e-05
4.63978e-05
2.59435e-05
1.49286e-05
1.58759e-07
3.00507e-07
2.58546e-06
1.28711e-05
3.46381e-05
5.81419e-05
6.35013e-05
4.8088e-05
3.02298e-05
1.9035e-05
1.13483e-07
2.27246e-07
2.0651e-06
1.04104e-05
2.84228e-05
4.93874e-05
5.79255e-05
4.86089e-05
3.38766e-05
2.30826e-05
7.78644e-08
1.68439e-07
1.63807e-06
8.39069e-06
2.32614e-05
4.17123e-05
5.21085e-05
4.79532e-05
3.66479e-05
2.68008e-05
5.08041e-08
1.22344e-07
1.29031e-06
6.73751e-06
1.8988e-05
3.5046e-05
4.62652e-05
4.62019e-05
3.83998e-05
2.99651e-05
3.10913e-08
8.71549e-08
1.0095e-06
5.38903e-06
1.54605e-05
2.93101e-05
4.05942e-05
4.35399e-05
3.90546e-05
3.23894e-05
1.74727e-08
6.10647e-08
7.84826e-07
4.2935e-06
1.2558e-05
2.44176e-05
3.52569e-05
4.02193e-05
3.86505e-05
3.39492e-05
8.70617e-09
4.2332e-08
6.06694e-07
3.40721e-06
1.01766e-05
2.02763e-05
3.03633e-05
3.65122e-05
3.73042e-05
3.45926e-05
3.58276e-09
2.93184e-08
4.66663e-07
2.69315e-06
8.22802e-06
1.67936e-05
2.5974e-05
3.26701e-05
3.52134e-05
3.4339e-05
1.03587e-09
2.05521e-08
3.5727e-07
2.1199e-06
6.63711e-06
1.38801e-05
2.21066e-05
2.88974e-05
3.26186e-05
3.33011e-05
2.07064e-10
1.4878e-08
2.72698e-07
1.66216e-06
5.34145e-06
1.14529e-05
1.87463e-05
2.53381e-05
2.97559e-05
3.16458e-05
4.52691e-10
1.13724e-08
2.07985e-07
1.29885e-06
4.28904e-06
9.43721e-06
1.58568e-05
2.20784e-05
2.68274e-05
2.95736e-05
1.10417e-09
9.16941e-09
1.58556e-07
1.01126e-06
3.43499e-06
7.76566e-06
1.33897e-05
1.91559e-05
2.39808e-05
2.72778e-05
1.86926e-09
7.71883e-09
1.20199e-07
7.82214e-07
2.73965e-06
6.37768e-06
1.12905e-05
1.65729e-05
2.13089e-05
2.49176e-05
2.62698e-09
6.79309e-09
9.1114e-08
6.02204e-07
2.17552e-06
5.22484e-06
9.50722e-06
1.43102e-05
1.88593e-05
2.26058e-05
3.18818e-09
6.11958e-09
6.93107e-08
4.62665e-07
1.72084e-06
4.26819e-06
7.993e-06
1.23381e-05
1.66465e-05
2.04112e-05
3.42494e-09
5.50475e-09
5.28697e-08
3.54209e-07
1.35438e-06
3.4727e-06
6.70455e-06
1.06217e-05
1.46646e-05
1.83685e-05
3.5489e-09
5.25854e-09
4.12195e-08
2.71108e-07
1.06235e-06
2.8153e-06
5.614e-06
9.14123e-06
1.29169e-05
1.65144e-05
3.59798e-09
4.82627e-09
3.16974e-08
2.05686e-07
8.23276e-07
2.25961e-06
4.66939e-06
7.83797e-06
1.13539e-05
1.4823e-05
3.49148e-09
4.35201e-09
2.42123e-08
1.54304e-07
6.26042e-07
1.78624e-06
3.84073e-06
6.67752e-06
9.96065e-06
1.33311e-05
3.34297e-09
3.93392e-09
1.85338e-08
1.15326e-07
4.73412e-07
1.38659e-06
3.11433e-06
5.63602e-06
8.70111e-06
1.20006e-05
3.23426e-09
3.61976e-09
1.43638e-08
8.64615e-08
3.57343e-07
1.06813e-06
2.48745e-06
4.69868e-06
7.52842e-06
1.07295e-05
3.12799e-09
3.36572e-09
1.13186e-08
6.54075e-08
2.71051e-07
8.22438e-07
1.96267e-06
3.86197e-06
6.43507e-06
9.48487e-06
2.99216e-09
3.12724e-09
9.095e-09
5.00946e-08
2.07419e-07
6.35228e-07
1.54133e-06
3.10619e-06
5.38578e-06
8.21035e-06
2.80286e-09
2.86814e-09
7.45223e-09
3.91525e-08
1.60183e-07
4.90604e-07
1.19775e-06
2.44387e-06
4.32893e-06
6.82977e-06
2.51074e-09
2.53627e-09
6.12365e-09
3.10589e-08
1.25333e-07
3.77101e-07
9.04354e-07
1.83397e-06
3.26966e-06
5.27208e-06
2.10174e-09
2.11045e-09
4.91484e-09
2.43759e-08
9.6681e-08
2.83218e-07
6.56105e-07
1.28397e-06
2.23874e-06
3.6194e-06
1.59542e-09
1.60462e-09
3.73588e-09
1.83015e-08
7.06155e-08
1.97876e-07
4.34858e-07
8.10934e-07
1.36553e-06
2.16263e-06
1.05038e-09
1.07053e-09
2.58784e-09
1.25584e-08
4.61375e-08
1.20448e-07
2.46561e-07
4.34826e-07
7.05004e-07
1.09084e-06
5.62834e-10
5.93216e-10
1.55533e-09
7.37295e-09
2.47554e-08
5.83309e-08
1.10105e-07
1.84153e-07
2.88956e-07
4.37795e-07
2.19894e-10
2.5066e-10
7.54188e-10
3.31575e-09
9.56078e-09
1.99289e-08
3.49736e-08
5.62176e-08
8.61519e-08
1.28282e-07
4.79311e-11
6.88108e-11
2.61566e-10
9.74577e-10
2.35706e-09
4.50231e-09
7.61985e-09
1.20205e-08
1.81112e-08
2.64118e-08
2.8297e-12
1.1327e-11
7.26192e-11
2.72516e-10
6.70551e-10
1.35135e-09
2.38546e-09
3.83467e-09
5.74873e-09
8.15852e-09
4.68572e-13
3.35912e-12
4.08173e-11
1.91062e-10
5.20906e-10
1.12153e-09
2.05281e-09
3.36487e-09
5.09169e-09
7.2403e-09
3.84528e-07
1.31712e-07
1.17201e-07
8.392e-08
5.69731e-08
3.91597e-08
2.80238e-08
2.10019e-08
1.62707e-08
1.28548e-08
1.02107e-08
8.03361e-09
6.1679e-09
4.55208e-09
3.17816e-09
2.06032e-09
1.21127e-09
6.2426e-10
2.66398e-10
8.41363e-11
1.50592e-11
2.10912e-12
3.89715e-12
3.377e-12
9.77511e-13
6.51785e-07
2.45581e-07
1.35699e-07
8.62222e-08
5.70129e-08
3.88285e-08
2.7555e-08
2.0449e-08
1.57167e-08
1.23445e-08
9.76987e-09
7.67986e-09
5.91138e-09
4.39451e-09
3.11251e-09
2.06785e-09
1.26567e-09
6.97819e-10
3.36207e-10
1.35753e-10
4.36228e-11
1.38404e-11
5.73178e-12
2.69643e-12
2.33468e-12
1.35593e-06
6.67488e-07
3.47836e-07
1.85562e-07
1.06494e-07
6.58592e-08
4.34718e-08
3.05669e-08
2.26101e-08
1.73007e-08
1.35516e-08
1.07258e-08
8.45221e-09
6.55495e-09
5.02272e-09
3.73663e-09
2.66329e-09
1.79468e-09
1.12358e-09
6.34647e-10
3.05091e-10
1.12248e-10
2.38903e-11
2.94773e-12
1.8363e-12
2.66168e-06
1.61604e-06
9.93859e-07
6.04615e-07
3.58698e-07
2.20337e-07
1.4132e-07
9.5166e-08
6.74711e-08
5.03349e-08
3.93368e-08
3.18591e-08
2.63403e-08
2.18911e-08
1.8051e-08
1.45017e-08
1.11383e-08
8.00348e-09
5.22099e-09
2.94483e-09
1.31864e-09
4.05362e-10
6.76704e-11
4.69825e-12
4.36464e-13
4.57968e-06
3.1238e-06
2.18427e-06
1.53306e-06
1.03619e-06
6.75342e-07
4.46911e-07
3.03936e-07
2.1525e-07
1.60201e-07
1.25413e-07
1.02362e-07
8.57063e-08
7.22073e-08
6.00203e-08
4.82103e-08
3.65962e-08
2.5563e-08
1.58456e-08
8.26118e-09
3.34228e-09
9.32498e-10
1.53165e-10
1.76593e-11
8.71006e-12
7.08058e-06
5.14952e-06
3.94994e-06
3.03732e-06
2.27441e-06
1.61865e-06
1.11007e-06
7.67177e-07
5.44182e-07
4.02464e-07
3.12255e-07
2.5256e-07
2.09544e-07
1.74641e-07
1.43035e-07
1.12607e-07
8.32438e-08
5.62087e-08
3.34409e-08
1.66788e-08
6.50115e-09
1.7958e-09
3.21673e-10
6.48788e-11
4.61517e-11
1.00918e-05
7.64874e-06
6.19178e-06
5.05734e-06
4.05861e-06
3.10219e-06
2.23844e-06
1.56164e-06
1.10055e-06
8.00599e-07
6.08649e-07
4.82577e-07
3.93241e-07
3.22442e-07
2.60075e-07
2.01772e-07
1.47107e-07
9.81026e-08
5.77988e-08
2.86897e-08
1.1225e-08
3.16715e-09
6.26401e-10
1.86811e-10
1.61844e-10
1.34887e-05
1.05409e-05
8.79913e-06
7.52693e-06
6.31515e-06
5.07211e-06
3.82554e-06
2.72568e-06
1.89635e-06
1.34864e-06
9.9978e-07
7.75343e-07
6.21419e-07
5.03962e-07
4.0393e-07
3.12662e-07
2.28325e-07
1.53167e-07
9.12211e-08
4.60245e-08
1.84174e-08
5.36975e-09
1.14117e-09
3.84465e-10
3.36028e-10
1.70913e-05
1.37117e-05
1.16899e-05
1.02842e-05
8.95913e-06
7.46419e-06
5.83272e-06
4.26017e-06
2.97262e-06
2.06688e-06
1.49553e-06
1.13743e-06
9.00967e-07
7.27554e-07
5.84134e-07
4.5496e-07
3.35626e-07
2.28378e-07
1.38612e-07
7.16502e-08
2.95534e-08
8.97562e-09
2.07074e-09
7.98256e-10
7.20013e-10
2.0666e-05
1.70071e-05
1.47529e-05
1.32182e-05
1.18652e-05
1.02238e-05
8.26121e-06
6.20165e-06
4.38526e-06
3.04316e-06
2.15554e-06
1.61194e-06
1.26579e-06
1.02144e-06
8.24589e-07
6.48467e-07
4.84504e-07
3.34984e-07
2.07423e-07
1.09965e-07
4.68428e-08
1.48688e-08
3.71518e-09
1.58192e-09
1.44947e-09
2.4036e-05
2.02624e-05
1.78583e-05
1.62277e-05
1.4863e-05
1.32854e-05
1.11211e-05
8.64639e-06
6.27718e-06
4.38853e-06
3.09883e-06
2.27899e-06
1.77396e-06
1.43123e-06
1.16221e-06
9.23076e-07
6.98203e-07
4.89809e-07
3.08744e-07
1.67465e-07
7.35588e-08
2.44011e-08
6.56261e-09
2.99908e-09
2.76696e-09
2.70059e-05
2.32922e-05
2.08565e-05
1.91928e-05
1.78526e-05
1.63898e-05
1.43746e-05
1.16471e-05
8.77461e-06
6.27717e-06
4.47041e-06
3.27256e-06
2.51733e-06
2.02592e-06
1.65281e-06
1.32432e-06
1.01257e-06
7.18937e-07
4.59693e-07
2.5402e-07
1.14585e-07
3.96076e-08
1.13916e-08
5.48937e-09
5.07656e-09
2.94042e-05
2.59445e-05
2.35932e-05
2.19777e-05
2.07145e-05
1.94111e-05
1.76627e-05
1.51626e-05
1.19856e-05
8.93565e-06
6.48465e-06
4.78216e-06
3.64709e-06
2.91729e-06
2.38433e-06
1.92349e-06
1.48454e-06
1.06429e-06
6.87599e-07
3.85059e-07
1.77301e-07
6.34834e-08
1.93731e-08
9.73653e-09
9.00644e-09
3.11112e-05
2.81071e-05
2.59205e-05
2.44403e-05
2.33167e-05
2.22169e-05
2.07871e-05
1.87003e-05
1.58252e-05
1.2442e-05
9.36556e-06
7.04802e-06
5.42533e-06
4.29109e-06
3.50077e-06
2.83792e-06
2.20652e-06
1.59428e-06
1.03714e-06
5.85383e-07
2.73092e-07
1.00388e-07
3.21649e-08
1.67292e-08
1.54678e-08
3.20496e-05
2.96741e-05
2.77823e-05
2.64623e-05
2.55322e-05
2.46756e-05
2.35936e-05
2.19891e-05
1.96502e-05
1.66179e-05
1.33049e-05
1.0314e-05
8.08573e-06
6.4414e-06
5.22603e-06
4.25216e-06
3.33005e-06
2.42211e-06
1.58272e-06
8.95887e-07
4.20038e-07
1.56711e-07
5.19794e-08
2.77812e-08
2.5677e-08
3.222e-05
3.05869e-05
2.90968e-05
2.80019e-05
2.72631e-05
2.66712e-05
2.59468e-05
2.48351e-05
2.31191e-05
2.07096e-05
1.77603e-05
1.46559e-05
1.18832e-05
9.67287e-06
7.87154e-06
6.44022e-06
5.0893e-06
3.73216e-06
2.44898e-06
1.38544e-06
6.47855e-07
2.42093e-07
8.16297e-08
4.44892e-08
4.11468e-08
3.16803e-05
3.08424e-05
2.98315e-05
2.90174e-05
2.84812e-05
2.8123e-05
2.77421e-05
2.7098e-05
2.59946e-05
2.43024e-05
2.20245e-05
1.93416e-05
1.65639e-05
1.40966e-05
1.18669e-05
9.75346e-06
7.8131e-06
5.80795e-06
3.84199e-06
2.17119e-06
1.00725e-06
3.71969e-07
1.24632e-07
6.85402e-08
6.36097e-08
3.05541e-05
3.04935e-05
3.00021e-05
2.95039e-05
2.91825e-05
2.90301e-05
2.89232e-05
2.86918e-05
2.81381e-05
2.71297e-05
2.56085e-05
2.3622e-05
2.13223e-05
1.89679e-05
1.67279e-05
1.43512e-05
1.18256e-05
9.01476e-06
6.08531e-06
3.4543e-06
1.58764e-06
5.7288e-07
1.8568e-07
1.01067e-07
9.42525e-08
2.89995e-05
2.96399e-05
2.96707e-05
2.95049e-05
2.93952e-05
2.94206e-05
2.95303e-05
2.95985e-05
2.94896e-05
2.90636e-05
2.82364e-05
2.6988e-05
2.53628e-05
2.34697e-05
2.15653e-05
1.94986e-05
1.68177e-05
1.3553e-05
9.59026e-06
5.55494e-06
2.54742e-06
8.92144e-07
2.722e-07
1.423e-07
1.33058e-07
2.71805e-05
2.84109e-05
2.89335e-05
2.91018e-05
2.9195e-05
2.93607e-05
2.96214e-05
2.99045e-05
3.0083e-05
3.00619e-05
2.97912e-05
2.91824e-05
2.82185e-05
2.69445e-05
2.55593e-05
2.40082e-05
2.18737e-05
1.86367e-05
1.4159e-05
8.85433e-06
4.18012e-06
1.42459e-06
3.98523e-07
1.92274e-07
1.8061e-07
2.52389e-05
2.6941e-05
2.7904e-05
2.8396e-05
2.86858e-05
2.89612e-05
2.93073e-05
2.97124e-05
3.00858e-05
3.03233e-05
3.035e-05
3.01585e-05
2.97357e-05
2.90883e-05
2.8296e-05
2.73439e-05
2.59713e-05
2.34553e-05
1.91744e-05
1.30531e-05
6.67504e-06
2.36496e-06
5.99433e-07
2.48414e-07
2.34116e-07
2.3279e-05
2.53451e-05
2.66911e-05
2.74972e-05
2.79801e-05
2.83521e-05
2.87364e-05
2.91789e-05
2.96411e-05
3.00429e-05
3.03038e-05
3.04075e-05
3.03629e-05
3.01683e-05
2.98499e-05
2.94086e-05
2.87107e-05
2.72745e-05
2.39512e-05
1.79648e-05
1.01488e-05
3.84679e-06
9.58838e-07
3.03625e-07
2.76616e-07
2.13672e-05
2.37046e-05
2.53799e-05
2.64845e-05
2.71828e-05
2.76592e-05
2.80641e-05
2.84873e-05
2.89451e-05
2.9399e-05
2.97868e-05
3.0081e-05
3.02881e-05
3.04011e-05
3.04251e-05
3.03642e-05
3.01628e-05
2.95633e-05
2.77815e-05
2.31321e-05
1.50588e-05
6.50774e-06
1.6896e-06
3.68524e-07
2.55967e-07
1.95671e-05
2.20951e-05
2.40465e-05
2.54351e-05
2.63633e-05
2.69775e-05
2.74245e-05
2.78195e-05
2.82162e-05
2.86313e-05
2.90338e-05
2.94005e-05
2.97326e-05
3.00208e-05
3.02593e-05
3.0448e-05
3.05679e-05
3.05093e-05
2.97512e-05
2.70853e-05
2.1845e-05
1.27491e-05
4.84465e-06
1.16269e-06
2.25864e-07
1.78765e-05
2.05248e-05
2.27009e-05
2.4358e-05
2.55344e-05
2.63302e-05
2.68665e-05
2.72678e-05
2.76106e-05
2.79372e-05
2.82704e-05
2.86069e-05
2.895e-05
2.9293e-05
2.96255e-05
2.99427e-05
3.02369e-05
3.04675e-05
3.04084e-05
2.8188e-05
2.5392e-05
2.15062e-05
1.26546e-05
5.25214e-06
1.5832e-06
1.63463e-05
1.90427e-05
2.13775e-05
2.32701e-05
2.47e-05
2.57152e-05
2.6402e-05
2.68644e-05
2.71931e-05
2.74549e-05
2.77068e-05
2.79383e-05
2.81981e-05
2.84904e-05
2.88067e-05
2.9139e-05
2.94813e-05
2.98179e-05
3.00934e-05
3.00751e-05
2.76702e-05
2.50664e-05
2.20685e-05
1.55323e-05
8.54141e-06
1.50539e-05
1.77699e-05
2.01551e-05
2.22126e-05
2.38705e-05
2.51208e-05
2.60066e-05
2.65984e-05
2.69813e-05
2.72271e-05
2.74032e-05
2.75428e-05
2.77026e-05
2.78719e-05
2.80832e-05
2.83347e-05
2.86212e-05
2.89339e-05
2.92527e-05
2.95191e-05
2.95813e-05
2.86308e-05
2.62225e-05
2.38399e-05
1.94992e-05
1.38122e-05
1.66279e-05
1.91132e-05
2.12388e-05
2.30658e-05
2.45321e-05
2.56269e-05
2.63936e-05
2.68988e-05
2.72088e-05
2.73848e-05
2.74714e-05
2.75265e-05
2.75834e-05
2.76808e-05
2.78022e-05
2.79569e-05
2.81549e-05
2.83878e-05
2.86361e-05
2.88489e-05
2.89191e-05
2.86461e-05
2.77252e-05
2.58871e-05
1.25598e-05
1.54578e-05
1.80857e-05
2.03714e-05
2.22859e-05
2.38913e-05
2.5166e-05
2.61227e-05
2.67973e-05
2.72382e-05
2.74978e-05
2.76245e-05
2.76631e-05
2.76519e-05
2.76289e-05
2.76346e-05
2.76745e-05
2.77405e-05
2.78333e-05
2.79558e-05
2.80963e-05
2.82195e-05
2.82605e-05
2.8111e-05
2.76435e-05
1.12259e-05
1.41723e-05
1.6929e-05
1.93905e-05
2.14863e-05
2.31669e-05
2.45505e-05
2.56686e-05
2.65239e-05
2.71394e-05
2.75498e-05
2.77939e-05
2.79104e-05
2.79386e-05
2.79115e-05
2.78585e-05
2.77976e-05
2.77412e-05
2.7722e-05
2.77276e-05
2.77478e-05
2.77759e-05
2.77972e-05
2.778e-05
2.7678e-05
9.67669e-06
1.26017e-05
1.54537e-05
1.80845e-05
2.039e-05
2.22911e-05
2.37853e-05
2.48292e-05
2.56643e-05
2.64616e-05
2.72965e-05
2.78618e-05
2.8127e-05
2.8271e-05
2.83248e-05
2.83138e-05
2.82603e-05
2.81797e-05
2.80898e-05
2.79913e-05
2.78995e-05
2.78338e-05
2.77778e-05
2.77155e-05
2.76353e-05
7.7439e-06
1.04678e-05
1.33169e-05
1.60754e-05
1.85917e-05
2.07545e-05
2.25172e-05
2.36691e-05
2.41788e-05
2.46409e-05
2.51138e-05
2.56459e-05
2.62854e-05
2.70867e-05
2.80817e-05
2.87095e-05
2.87605e-05
2.87499e-05
2.86934e-05
2.86041e-05
2.84928e-05
2.83714e-05
2.82392e-05
2.80957e-05
2.79512e-05
5.47923e-06
7.73805e-06
1.02861e-05
1.29514e-05
1.55653e-05
1.7985e-05
2.01218e-05
2.1965e-05
2.35264e-05
2.4238e-05
2.45623e-05
2.48758e-05
2.52225e-05
2.56445e-05
2.61707e-05
2.68223e-05
2.76274e-05
2.85997e-05
2.90237e-05
2.90299e-05
2.89823e-05
2.88906e-05
2.87636e-05
2.86082e-05
2.84318e-05
3.26636e-06
4.74664e-06
6.68622e-06
8.89642e-06
1.128e-05
1.36974e-05
1.6021e-05
1.81678e-05
2.00893e-05
2.17626e-05
2.31884e-05
2.40776e-05
2.43452e-05
2.46141e-05
2.49205e-05
2.52882e-05
2.57374e-05
2.62773e-05
2.69166e-05
2.76683e-05
2.83341e-05
2.8313e-05
2.82205e-05
2.80675e-05
2.78638e-05
1.63041e-06
2.36642e-06
3.39071e-06
4.74529e-06
6.39337e-06
8.24512e-06
1.02e-05
1.21832e-05
1.41069e-05
1.59116e-05
1.75587e-05
1.90225e-05
2.02915e-05
2.13708e-05
2.22721e-05
2.30091e-05
2.35952e-05
2.395e-05
2.43214e-05
2.45686e-05
2.46629e-05
2.46509e-05
2.45409e-05
2.43421e-05
2.40654e-05
6.45426e-07
9.27451e-07
1.32075e-06
1.86968e-06
2.6087e-06
3.5048e-06
4.55133e-06
5.74173e-06
6.97535e-06
8.22959e-06
9.47349e-06
1.06679e-05
1.17794e-05
1.27828e-05
1.36614e-05
1.44059e-05
1.50125e-05
1.5481e-05
1.58156e-05
1.60221e-05
1.61078e-05
1.60828e-05
1.59593e-05
1.57464e-05
1.54547e-05
1.86293e-07
2.6384e-07
3.70232e-07
5.16839e-07
7.18052e-07
9.86471e-07
1.31051e-06
1.68728e-06
2.10436e-06
2.56163e-06
3.05187e-06
3.54824e-06
4.03761e-06
4.50211e-06
4.92741e-06
5.30207e-06
5.61732e-06
5.86707e-06
6.04874e-06
6.16292e-06
6.21343e-06
6.20842e-06
6.15996e-06
6.06542e-06
5.92758e-06
3.73879e-08
5.14744e-08
6.99574e-08
9.41985e-08
1.259e-07
1.67566e-07
2.21112e-07
2.82272e-07
3.49197e-07
4.22338e-07
5.05674e-07
5.95383e-07
6.89254e-07
7.79219e-07
8.63919e-07
9.4127e-07
1.00913e-06
1.06554e-06
1.10961e-06
1.14126e-06
1.16141e-06
1.1731e-06
1.18384e-06
1.1829e-06
1.17011e-06
1.10185e-08
1.4283e-08
1.80262e-08
2.2225e-08
2.67833e-08
3.13889e-08
3.54487e-08
3.85225e-08
4.02766e-08
4.12768e-08
4.32429e-08
4.51241e-08
4.69555e-08
4.88817e-08
5.15695e-08
5.55017e-08
6.11934e-08
6.86995e-08
7.82359e-08
8.98632e-08
1.03607e-07
1.19789e-07
1.41848e-07
1.63065e-07
1.83403e-07
9.72744e-09
1.2491e-08
1.55487e-08
1.88345e-08
2.22338e-08
2.53131e-08
2.70108e-08
2.67999e-08
2.51929e-08
2.29401e-08
1.97414e-08
1.54344e-08
1.05413e-08
5.84023e-09
2.34334e-09
8.76497e-10
2.49825e-09
7.4675e-09
1.61566e-08
2.86189e-08
4.47712e-08
6.42187e-08
8.63318e-08
1.10268e-07
1.35149e-07
3.75643e-08
1.48729e-08
1.61199e-08
4.24154e-07
2.08869e-07
1.41558e-07
4.47698e-06
2.788e-06
2.00924e-06
1.47249e-05
1.11535e-05
8.78408e-06
2.34492e-05
2.07746e-05
1.8273e-05
2.68651e-05
2.57799e-05
2.44789e-05
2.74745e-05
2.71441e-05
2.66791e-05
2.75336e-05
2.73937e-05
2.72091e-05
2.78271e-05
2.76986e-05
2.75537e-05
2.8259e-05
2.80757e-05
2.7873e-05
2.76401e-05
2.73852e-05
2.70959e-05
2.37528e-05
2.33911e-05
2.29767e-05
1.51278e-05
1.47553e-05
1.43351e-05
5.76832e-06
5.58673e-06
5.38337e-06
1.15003e-06
1.12469e-06
1.09472e-06
2.01716e-07
2.18653e-07
2.34629e-07
1.58571e-07
1.80203e-07
2.00845e-07
1.58845e-14
5.66726e-14
7.37568e-14
3.88635e-14
6.93769e-14
5.0289e-13
1.73765e-12
4.16089e-12
8.07876e-12
1.36788e-11
2.09883e-11
2.98531e-11
3.98772e-11
5.02579e-11
5.97026e-11
6.98112e-11
1.33705e-10
1.25705e-09
3.53383e-10
2.06207e-10
1.76071e-10
1.98706e-10
2.34944e-10
2.71056e-10
3.06631e-10
3.42323e-10
3.78818e-10
4.16791e-10
4.56851e-10
4.99576e-10
5.45565e-10
5.9548e-10
6.50075e-10
7.1023e-10
7.76968e-10
8.51485e-10
9.35173e-10
1.02965e-09
1.13677e-09
1.25869e-09
1.39785e-09
1.55702e-09
1.7393e-09
1.94811e-09
2.18719e-09
2.4605e-09
2.77217e-09
3.12625e-09
3.52658e-09
3.9763e-09
4.47748e-09
5.03045e-09
5.63301e-09
6.27955e-09
6.95992e-09
7.65864e-09
8.35451e-09
9.02073e-09
9.62544e-09
1.01323e-08
1.04994e-08
1.06858e-08
1.0666e-08
1.04021e-08
9.86821e-09
9.08014e-09
8.07104e-09
6.89235e-09
5.61799e-09
4.33538e-09
3.13385e-09
2.09135e-09
1.26205e-09
6.6779e-10
2.94544e-10
9.84245e-11
1.99399e-11
1.55719e-12
1.30307e-12
6.47216e-13
4.04981e-14
4.50082e-14
8.18995e-14
1.29529e-13
3.09343e-13
9.34732e-13
2.34744e-12
4.88479e-12
8.82402e-12
1.43323e-11
2.14339e-11
2.99952e-11
3.97193e-11
5.02812e-11
6.26528e-11
8.75118e-11
1.91773e-10
7.65489e-10
3.68409e-10
2.27224e-10
1.85848e-10
1.978e-10
2.27968e-10
2.61411e-10
2.95196e-10
3.29283e-10
3.64181e-10
4.0049e-10
4.38783e-10
4.7962e-10
5.23583e-10
5.71314e-10
6.23548e-10
6.81137e-10
7.45074e-10
8.1652e-10
8.96825e-10
9.87555e-10
1.09052e-09
1.20779e-09
1.34174e-09
1.49505e-09
1.6707e-09
1.87199e-09
2.1025e-09
2.36603e-09
2.66648e-09
3.00765e-09
3.39307e-09
3.82555e-09
4.30673e-09
4.83648e-09
5.41217e-09
6.02771e-09
6.67272e-09
7.3318e-09
7.98426e-09
8.60431e-09
9.16158e-09
9.62178e-09
9.94743e-09
1.01033e-08
1.0063e-08
9.79579e-09
9.28482e-09
8.54303e-09
7.60161e-09
6.50897e-09
5.33188e-09
4.14948e-09
3.04124e-09
2.07375e-09
1.2943e-09
7.23077e-10
3.50101e-10
1.39708e-10
4.20896e-11
8.79137e-12
1.57576e-12
8.29575e-13
3.08484e-14
4.64583e-14
2.71238e-13
1.11655e-12
2.82923e-12
5.65857e-12
9.82767e-12
1.55725e-11
2.30956e-11
3.25095e-11
4.38197e-11
5.69457e-11
7.18178e-11
8.87395e-11
1.09742e-10
1.43298e-10
2.21094e-10
4.64811e-10
3.79998e-10
3.09608e-10
2.79802e-10
2.90403e-10
3.22709e-10
3.62525e-10
4.03854e-10
4.45563e-10
4.87944e-10
5.31603e-10
5.77193e-10
6.25381e-10
6.76881e-10
7.32493e-10
7.93136e-10
8.5988e-10
9.33971e-10
1.01686e-09
1.11024e-09
1.21604e-09
1.33651e-09
1.47418e-09
1.63194e-09
1.81301e-09
2.02097e-09
2.25972e-09
2.53346e-09
2.84656e-09
3.20342e-09
3.60828e-09
4.06487e-09
4.57601e-09
5.14304e-09
5.7652e-09
6.43886e-09
7.15669e-09
7.90695e-09
8.67296e-09
9.43305e-09
1.01609e-08
1.08266e-08
1.13976e-08
1.18412e-08
1.21287e-08
1.22178e-08
1.20694e-08
1.16595e-08
1.09827e-08
1.00492e-08
8.88501e-09
7.54228e-09
6.14631e-09
4.82502e-09
3.59465e-09
2.50897e-09
1.61377e-09
9.31115e-10
4.5665e-10
1.68552e-10
3.69853e-11
4.50616e-12
1.18391e-12
1.89729e-14
8.70253e-14
8.11214e-13
4.42861e-12
1.37931e-11
2.98862e-11
5.21542e-11
7.99721e-11
1.13017e-10
1.51092e-10
1.94004e-10
2.41574e-10
2.93757e-10
3.50933e-10
4.1458e-10
4.88754e-10
5.84176e-10
7.31428e-10
7.87495e-10
8.2015e-10
8.60009e-10
9.21604e-10
1.00124e-09
1.0899e-09
1.18142e-09
1.27362e-09
1.36632e-09
1.46011e-09
1.55594e-09
1.65496e-09
1.75856e-09
1.86838e-09
1.98638e-09
2.11491e-09
2.25667e-09
2.41484e-09
2.59306e-09
2.79547e-09
3.0268e-09
3.29231e-09
3.59792e-09
3.95015e-09
4.35613e-09
4.8236e-09
5.36081e-09
5.97639e-09
6.67916e-09
7.47785e-09
8.38067e-09
9.39483e-09
1.05259e-08
1.17771e-08
1.31484e-08
1.46358e-08
1.62301e-08
1.79164e-08
1.96732e-08
2.14724e-08
2.32805e-08
2.50594e-08
2.67676e-08
2.83622e-08
2.96487e-08
3.0495e-08
3.07775e-08
3.03826e-08
2.922e-08
2.72493e-08
2.45182e-08
2.12007e-08
1.75242e-08
1.36766e-08
9.91126e-09
6.50227e-09
3.69734e-09
1.68575e-09
5.43294e-10
1.11549e-10
2.57559e-11
1.79789e-11
3.5221e-13
5.06557e-13
2.11631e-12
1.103e-11
3.8651e-11
9.50885e-11
1.82048e-10
2.95129e-10
4.29386e-10
5.81475e-10
7.49407e-10
9.31971e-10
1.12844e-09
1.33852e-09
1.5625e-09
1.80132e-09
2.0569e-09
2.33298e-09
2.58723e-09
2.82706e-09
3.06745e-09
3.3227e-09
3.59468e-09
3.87689e-09
4.16251e-09
4.44792e-09
4.73226e-09
5.01632e-09
5.30194e-09
5.59183e-09
5.88955e-09
6.19962e-09
6.52753e-09
6.8799e-09
7.26456e-09
7.69055e-09
8.16828e-09
8.70954e-09
9.32761e-09
1.00373e-08
1.08551e-08
1.17991e-08
1.28892e-08
1.41473e-08
1.55968e-08
1.72632e-08
1.91735e-08
2.13563e-08
2.38412e-08
2.66584e-08
2.98379e-08
3.34084e-08
3.73962e-08
4.18232e-08
4.67039e-08
5.20409e-08
5.78175e-08
6.3993e-08
7.04979e-08
7.72265e-08
8.40237e-08
9.0647e-08
9.63577e-08
1.00658e-07
1.03031e-07
1.02964e-07
1.00022e-07
9.39737e-08
8.48958e-08
7.32409e-08
5.97746e-08
4.54962e-08
3.16344e-08
1.94795e-08
1.01257e-08
4.13745e-09
1.21536e-09
2.59997e-10
8.89062e-11
7.64604e-11
1.67944e-12
1.90175e-12
4.78991e-12
2.19167e-11
8.00297e-11
2.14501e-10
4.48978e-10
7.82722e-10
1.19871e-09
1.6781e-09
2.20724e-09
2.77795e-09
3.38561e-09
4.02756e-09
4.702e-09
5.40709e-09
6.14004e-09
6.89565e-09
7.65615e-09
8.41786e-09
9.18738e-09
9.97441e-09
1.07802e-08
1.15975e-08
1.2417e-08
1.32321e-08
1.40402e-08
1.4842e-08
1.56408e-08
1.64425e-08
1.72557e-08
1.80916e-08
1.89641e-08
1.98904e-08
2.0891e-08
2.19896e-08
2.32135e-08
2.45938e-08
2.61653e-08
2.79672e-08
3.0043e-08
3.24411e-08
3.52149e-08
3.84238e-08
4.21333e-08
4.64158e-08
5.13512e-08
5.70268e-08
6.3538e-08
7.09875e-08
7.94844e-08
8.91419e-08
1.00073e-07
1.12384e-07
1.26167e-07
1.41475e-07
1.58293e-07
1.76499e-07
1.95837e-07
2.15885e-07
2.36015e-07
2.54834e-07
2.70705e-07
2.81991e-07
2.87092e-07
2.8452e-07
2.73167e-07
2.52666e-07
2.23656e-07
1.87908e-07
1.48219e-07
1.08127e-07
7.14337e-08
4.14745e-08
2.02691e-08
7.85236e-09
2.25533e-09
5.21042e-10
2.23299e-10
2.06837e-10
4.90804e-12
5.12131e-12
9.70718e-12
3.86072e-11
1.4129e-10
3.96426e-10
8.83394e-10
1.64117e-09
2.65327e-09
3.86985e-09
5.23862e-09
6.72098e-09
8.29346e-09
9.94306e-09
1.16622e-08
1.3445e-08
1.52843e-08
1.71703e-08
1.90892e-08
2.10335e-08
2.30031e-08
2.50004e-08
2.70206e-08
2.90511e-08
3.10767e-08
3.30848e-08
3.50682e-08
3.70257e-08
3.89621e-08
4.08884e-08
4.28214e-08
4.47848e-08
4.68092e-08
4.89326e-08
5.12006e-08
5.36668e-08
5.63934e-08
5.94511e-08
6.292e-08
6.68902e-08
7.14625e-08
7.67498e-08
8.28782e-08
8.99892e-08
9.82415e-08
1.07813e-07
1.18904e-07
1.31738e-07
1.46564e-07
1.63654e-07
1.83303e-07
2.05819e-07
2.31513e-07
2.60671e-07
2.93524e-07
3.3018e-07
3.70506e-07
4.14015e-07
4.59755e-07
5.06204e-07
5.51226e-07
5.91134e-07
6.22189e-07
6.40569e-07
6.42738e-07
6.25898e-07
5.88682e-07
5.31805e-07
4.58417e-07
3.74006e-07
2.85788e-07
2.01664e-07
1.28869e-07
7.25393e-08
3.457e-08
1.32029e-08
3.82009e-09
9.48327e-10
4.62496e-10
4.41254e-10
1.11377e-11
1.11925e-11
1.79575e-11
6.31083e-11
2.27591e-10
6.52578e-10
1.51153e-09
2.94242e-09
4.98371e-09
7.56874e-09
1.05767e-08
1.38898e-08
1.74223e-08
2.11222e-08
2.49607e-08
2.8921e-08
3.299e-08
3.71537e-08
4.13967e-08
4.57059e-08
5.00719e-08
5.44841e-08
5.89251e-08
6.33694e-08
6.77887e-08
7.21581e-08
7.64603e-08
8.06878e-08
8.48446e-08
8.89467e-08
9.30231e-08
9.71167e-08
1.01285e-07
1.05602e-07
1.10156e-07
1.15054e-07
1.2042e-07
1.26396e-07
1.33145e-07
1.40849e-07
1.49715e-07
1.59974e-07
1.71889e-07
1.85754e-07
2.01903e-07
2.20715e-07
2.42615e-07
2.68087e-07
2.97666e-07
3.31944e-07
3.71557e-07
4.17159e-07
4.69383e-07
5.2877e-07
5.95684e-07
6.70094e-07
7.5133e-07
8.3783e-07
9.2686e-07
1.01441e-06
1.0952e-06
1.1618e-06
1.20714e-06
1.22444e-06
1.20812e-06
1.15492e-06
1.06492e-06
9.42315e-07
7.95339e-07
6.35504e-07
4.76043e-07
3.29906e-07
2.07644e-07
1.15594e-07
5.47814e-08
2.09602e-08
6.16093e-09
1.62203e-09
8.5855e-10
8.32607e-10
2.15509e-11
2.12473e-11
3.10099e-11
9.82493e-11
3.46102e-10
1.00016e-09
2.36889e-09
4.75892e-09
8.35371e-09
1.31382e-08
1.89285e-08
2.54735e-08
3.25478e-08
3.99928e-08
4.77142e-08
5.56608e-08
6.38038e-08
7.21222e-08
8.05958e-08
8.92034e-08
9.79212e-08
1.06718e-07
1.15555e-07
1.24381e-07
1.33143e-07
1.41793e-07
1.50292e-07
1.58617e-07
1.66765e-07
1.74754e-07
1.82626e-07
1.90449e-07
1.98319e-07
2.06363e-07
2.14737e-07
2.2363e-07
2.33265e-07
2.43899e-07
2.55827e-07
2.69383e-07
2.84946e-07
3.02943e-07
3.23857e-07
3.48236e-07
3.767e-07
4.09952e-07
4.48786e-07
4.94094e-07
5.46869e-07
6.08191e-07
6.79203e-07
7.61045e-07
8.54746e-07
9.61066e-07
1.08029e-06
1.21182e-06
1.35365e-06
1.50204e-06
1.6511e-06
1.7927e-06
1.91673e-06
2.01117e-06
2.06495e-06
2.06828e-06
2.01418e-06
1.9001e-06
1.7292e-06
1.51084e-06
1.26006e-06
9.95935e-07
7.38999e-07
5.08246e-07
3.1822e-07
1.76757e-07
8.38915e-08
3.22989e-08
9.64109e-09
2.65036e-09
1.47629e-09
1.44491e-09
3.74191e-11
3.67884e-11
5.18894e-11
1.48817e-10
5.06631e-10
1.46137e-09
3.50223e-09
7.18028e-09
1.29347e-08
2.09207e-08
3.09596e-08
4.26473e-08
5.5529e-08
6.92301e-08
8.34996e-08
9.81938e-08
1.13238e-07
1.28591e-07
1.44223e-07
1.60101e-07
1.76181e-07
1.92404e-07
2.08695e-07
2.24963e-07
2.41114e-07
2.57056e-07
2.72713e-07
2.8803e-07
3.02982e-07
3.17578e-07
3.3187e-07
3.45953e-07
3.5997e-07
3.74117e-07
3.88643e-07
4.03852e-07
4.20109e-07
4.37837e-07
4.57525e-07
4.79729e-07
5.05081e-07
5.34294e-07
5.68177e-07
6.07643e-07
6.53727e-07
7.07593e-07
7.70553e-07
8.44064e-07
9.29727e-07
1.02925e-06
1.1444e-06
1.27688e-06
1.42807e-06
1.5988e-06
1.78893e-06
1.99665e-06
2.21792e-06
2.44583e-06
2.67024e-06
2.87786e-06
3.05298e-06
3.17843e-06
3.2388e-06
3.221e-06
3.11635e-06
2.92271e-06
2.64611e-06
2.30144e-06
1.91168e-06
1.50555e-06
1.1137e-06
7.64128e-07
4.77818e-07
2.65503e-07
1.26344e-07
4.89226e-08
1.47722e-08
4.17574e-09
2.39731e-09
2.35947e-09
6.24853e-11