/*--------------------------------*- C++ -*----------------------------------*\
| =========                 |                                                 |
| \\      /  F ield         | OpenFOAM: The Open Source CFD Toolbox           |
|  \\    /   O peration     | Version:  v2012                                 |
|   \\  /    A nd           | Website:  www.openfoam.com                      |
|    \\/     M anipulation  |                                                 |
\*---------------------------------------------------------------------------*/
FoamFile
{
    version     2.0;
    format      ascii;
    class       volScalarField;
    location    "2000";
    object      omega;
}
// * * * * * * * * * * * * * * * * * * * * * * * * * * * * * * * * * * * * * //

dimensions      [0 0 -1 0 0 0 0];


internalField   nonuniform List<scalar> 
6502
(
2307.74
324.753
81.9463
47.4298
42.1245
42.1219
47.419
81.9142
324.677
2307.74
2306.76
463.348
134.188
59.0249
43.2657
43.2505
58.9678
134.05
463.141
2306.76
2306.28
494.449
165.332
70.9124
46.064
46.0235
70.78
165.077
494.133
2306.28
2305.99
488.149
178.544
79.5869
49.2364
49.1598
79.3663
178.173
487.721
2305.99
2305.83
470.545
180.612
84.6244
52.0085
51.8858
84.3001
180.115
469.969
2305.83
2305.74
451.844
177.039
86.834
54.0924
53.9131
86.3851
176.38
451.085
2305.75
2305.7
436.505
171.523
87.1376
55.4445
55.2026
86.5426
170.643
435.456
2305.7
2305.67
425.871
166.048
86.3485
56.1703
55.8502
85.5855
164.866
424.439
2305.68
2305.65
418.877
161.31
85.0376
56.4323
56.0095
84.0395
159.764
416.965
2305.66
2305.64
414.42
157.439
83.5928
56.3727
55.8255
82.2755
155.368
411.829
2305.65
2305.63
411.824
154.536
82.2514
56.1127
55.4035
80.5012
151.739
408.312
2305.64
2305.63
410.449
152.509
81.1286
55.7503
54.8301
78.8036
148.762
405.787
2305.64
2305.62
409.873
151.231
80.2638
55.3464
54.1805
77.1799
146.232
403.727
2305.64
2305.61
409.805
150.556
79.6643
54.9583
53.5301
75.5875
143.97
402.304
2305.64
2305.61
410.143
150.406
79.3549
54.6419
52.9098
74.2236
142.198
401.211
2305.64
2305.6
410.872
150.746
79.3642
54.4511
52.3435
73.0111
140.666
400.083
2305.64
2305.59
411.976
151.561
79.7223
54.4293
51.8473
71.8716
139.12
398.551
2305.65
2305.58
413.406
152.827
80.4537
54.6192
51.4331
70.6994
137.017
392.203
2305.66
2305.57
415.074
154.498
81.5685
55.0593
51.1128
69.3949
134.113
382.722
2305.68
2305.56
416.845
156.487
83.0519
55.7762
50.8922
67.8669
130.082
372.411
2305.7
2305.55
418.545
158.665
84.8598
56.7902
50.7445
65.5646
117.998
267.484
692.812
2305.54
419.949
160.806
86.8557
58.0374
50.6623
62.6731
103.814
192.154
317.725
2305.53
420.742
162.661
88.8708
59.418
50.6483
59.5703
90.6707
144.431
190.148
2305.52
420.933
164.087
90.7666
60.8618
50.7197
56.566
79.4908
113.588
132.922
2305.51
420.757
165.067
92.4545
62.3108
50.8969
53.8669
70.3194
92.6814
102.062
2305.5
420.274
165.615
93.8767
63.7142
51.1923
51.5803
62.871
77.7996
83.0254
2305.5
419.534
165.75
94.992
65.0238
51.5951
49.7454
57.0192
66.9603
70.2706
2305.49
418.578
165.496
95.7718
66.2004
52.1164
48.3611
52.4444
59.0293
61.2388
2305.49
417.437
164.874
96.191
67.1947
52.7088
47.4
48.9222
53.0934
54.6275
2305.48
416.137
163.903
96.2299
67.9599
53.3306
46.8172
46.3046
48.5929
49.5887
2305.48
414.706
162.607
95.8706
68.4454
53.9257
46.5527
44.433
45.1767
45.6457
2305.48
413.164
161.005
95.0968
68.5952
54.4218
46.524
43.1687
42.6096
42.5267
2305.48
411.536
159.127
93.901
68.3557
54.7377
46.6361
42.3901
40.762
40.0834
2305.48
409.858
157.017
92.2933
67.6816
54.7862
46.7809
41.9766
39.5043
38.2239
2305.48
408.146
154.737
90.3067
66.5438
54.4814
46.8375
41.795
38.7145
36.8719
2305.48
406.665
152.407
88.0067
64.9395
53.7496
46.6827
41.7031
38.2704
35.9688
2305.48
405.205
150.033
85.4562
62.8922
52.5399
46.1991
41.5493
38.0299
35.4218
2305.48
403.527
147.598
82.7248
60.4566
50.8349
45.2902
41.1841
37.8379
35.1173
2305.48
401.774
145.202
79.931
57.7321
48.6641
43.8954
40.4736
37.5306
34.9146
2305.48
401
143.317
77.2997
54.8715
46.1111
42.0045
39.3172
36.9511
34.6533
2305.48
400.286
141.595
74.8177
51.9843
43.2877
39.6605
37.6633
35.969
34.1691
2305.48
398.816
139.708
72.4341
49.1551
40.3232
36.9573
35.5213
34.5017
33.316
2305.48
397.24
137.903
70.2355
46.489
37.3629
34.033
32.9664
32.5323
31.9914
2305.48
383.772
134.651
68.01
44.0551
34.5731
31.0852
30.1656
30.1484
30.1833
2305.48
381.982
133.362
66.5111
42.0768
32.1031
28.2716
27.2694
27.4513
27.9108
2305.48
381.775
132.706
65.4794
40.5143
30.008
25.7143
24.433
24.5644
25.1949
2305.48
381.725
132.414
64.7924
39.3573
28.2879
23.4907
21.8028
21.6895
22.248
2305.48
381.693
132.175
64.2589
38.4554
26.9258
21.6255
19.4933
19.0479
19.4002
2305.48
381.626
132.005
63.8133
37.7254
25.8531
20.1209
17.5675
16.7483
16.8368
2305.48
381.539
131.835
63.4683
37.1417
25.0337
19.0149
16.081
14.922
14.7387
2305.48
381.39
131.554
63.1162
36.7283
24.5007
18.339
15.1967
13.7293
13.2786
2305.48
381.195
131.225
62.7516
36.4204
24.3129
18.2194
15.0274
13.3936
12.671
2305.48
380.982
130.907
62.4945
36.3891
24.593
18.7828
15.7702
14.1487
13.2613
2305.48
380.768
130.668
62.5224
36.9336
25.7358
20.4449
17.7871
16.332
15.4326
2305.48
380.617
130.712
63.2757
38.7188
28.5387
24.0415
21.9066
20.7372
19.9339
2305.48
380.659
131.62
65.9754
43.4352
34.8894
31.4899
30.0174
29.2193
28.5995
2305.48
381.427
135.798
74.8116
56.1563
50.074
48.038
47.2922
46.8977
46.5224
2305.48
387.917
156.77
107.389
95.4627
92.5301
91.8622
91.7415
91.6931
91.5705
2305.48
468.817
289.337
258.047
254.119
253.757
253.888
254.063
254.193
254.248
2305.48
1510.84
1510.84
1510.84
1510.84
1510.84
1510.84
1510.84
1510.84
1510.84
1450.2
1450.18
1450.18
1450.18
1450.18
1450.18
1450.18
1450.18
1450.18
1450.18
1450.17
1450.17
1450.17
1450.17
1450.17
1450.17
1450.17
1450.17
1450.17
1450.17
1450.17
1450.17
1450.17
1450.17
2002.36
344.807
271.139
244.323
239.309
237.824
237.627
237.804
238.028
238.19
238.307
238.376
238.416
238.457
238.515
238.541
238.585
238.678
238.861
239.274
240.817
249.688
255.944
285.017
481.674
2554.54
171.28
121.152
95.3255
85.7274
82.3129
80.9603
80.3454
79.6587
79.0379
78.8152
78.8109
79.0009
79.5222
80.4071
80.6817
80.8709
81.1679
81.7169
82.8173
85.3359
91.8769
109.09
170.073
444.6
2554.54
112.581
79.2654
57.0715
46.1652
41.4689
39.2777
38.209
37.632
37.3141
37.1754
37.1503
37.2209
37.3997
37.6747
37.9642
38.3783
39.0628
40.2562
42.468
46.931
56.8725
81.646
154.724
441.722
2554.54
86.2399
62.7003
43.3108
32.4326
26.8249
24.1063
22.6874
21.9563
21.5988
21.4581
21.4569
21.5664
21.787
22.1334
22.6389
23.3951
24.566
26.4603
29.713
35.7378
47.9684
75.8955
152.197
440.857
2554.54
71.6525
54.241
38.0379
27.1127
20.956
17.7005
16.0332
15.1738
14.7859
14.6857
14.7802
15.0308
15.433
16.0075
16.8041
17.9189
19.5277
21.9638
25.8942
32.7479
45.8845
74.4149
149.423
425.38
2554.54
62.3423
49.2477
35.9092
25.2536
18.7255
15.017
13.0684
12.1144
11.7267
11.7002
11.9251
12.3507
12.9648
13.7842
14.8572
16.2781
18.2219
21.0206
25.3353
32.5738
46.041
74.7363
149.567
424.859
2554.54
55.7926
45.903
34.9058
25.2088
18.2672
14.1585
11.8962
10.8138
10.4224
10.4639
10.8091
11.3934
12.195
13.2251
14.528
16.1945
18.3943
21.4504
26.0076
33.4473
47.037
75.7317
150.391
425.258
2554.54
50.8796
43.4206
34.4238
25.825
18.8632
14.2927
11.6979
10.4091
9.97191
10.0431
10.4689
11.1695
12.1135
13.3073
14.7939
16.6623
19.0795
22.3598
27.1299
34.7413
48.4213
77.0847
151.566
426.088
2554.54
47.05
41.4204
34.1382
26.6356
20.0613
15.0759
12.0743
10.5218
9.95165
9.98947
10.4386
11.2023
12.2378
13.5473
15.1773
17.2172
19.8363
23.3456
28.357
36.1895
50.0186
78.6942
152.99
427.053
2554.54
43.8789
39.6792
33.8716
27.4547
21.3954
16.4075
12.8823
10.9559
10.1406
10.0872
10.4972
11.2658
12.3404
13.7188
15.4465
17.6265
20.4325
24.181
29.478
37.6146
51.7059
80.5077
154.682
428.231
2554.54
41.2028
38.11
33.5364
28.1662
22.7318
17.9046
14.1512
11.7037
10.5318
10.2648
10.5529
11.2597
12.3158
13.7085
15.487
17.7613
20.7213
24.7003
30.3133
38.8367
53.3277
82.4234
156.609
429.645
2554.54
38.9323
36.6366
33.0898
28.6941
23.9608
19.446
15.6339
12.8363
11.1483
10.5055
10.5985
11.1617
12.1279
13.4702
15.2337
17.5393
20.6016
24.7675
30.6917
39.6577
54.6835
84.2788
158.689
431.311
2554.54
37.0347
35.2344
32.537
29.0025
24.9964
20.9234
17.2119
14.2132
12.1257
10.9835
10.7246
11.0303
11.8023
13.0141
14.6805
16.9298
19.997
24.2786
30.4605
39.8742
55.5365
85.8478
160.763
433.17
2554.55
35.4979
33.9429
31.8421
29.0817
25.7788
22.2352
18.7795
15.7418
13.3734
11.8002
11.0308
10.9847
11.4563
12.4163
13.8905
15.9763
18.9303
23.191
29.5123
39.3027
55.6368
86.8575
162.605
435.097
2554.55
34.3289
32.8169
31.0785
28.9126
26.2762
23.2971
20.2204
17.3111
14.8208
12.9293
11.7209
11.2031
11.2629
11.8487
12.999
14.7933
17.4831
21.545
27.8097
37.807
54.7439
87.0054
163.955
436.998
2554.55
33.5092
31.9092
30.3333
28.5625
26.4733
24.0578
21.4299
18.7903
16.3485
14.2941
12.7582
11.8029
11.4343
11.5435
12.2041
13.5783
15.8342
19.4798
25.4151
35.3328
52.6475
85.9537
164.472
438.693
2554.55
32.9986
31.252
29.6906
28.1302
26.4227
24.4892
22.3376
20.057
17.8117
15.7633
14.0552
12.7877
12.0154
11.7255
11.8834
12.6339
14.2647
17.2679
22.5233
31.9387
49.2041
83.3252
163.631
439.731
2554.55
32.7144
30.8385
29.2115
27.7169
26.2271
24.6388
22.8999
21.0241
19.0778
17.1834
15.468
14.0446
12.9999
12.3835
12.1402
12.359
13.2826
15.3465
19.513
27.8988
44.4203
78.8424
160.984
439.887
2554.56
32.5363
30.6144
28.9145
27.4011
25.9961
24.6095
23.1689
21.6427
20.0502
18.4306
16.8484
15.4261
14.2601
13.4182
12.8809
12.7031
13.0475
14.3097
17.2814
23.8187
38.4597
72.0909
155.903
439.283
2554.56
32.3147
30.4787
28.7654
27.2159
25.8158
24.5133
23.2463
21.9683
20.6672
19.3513
18.0471
16.7861
15.6388
14.6803
13.9465
13.4917
13.4261
14.0233
15.9832
20.9047
32.8911
62.9547
146.524
435.009
2554.57
31.8875
30.2926
28.6764
27.1429
25.7285
24.4415
23.2455
22.1054
20.9986
19.914
18.8526
17.8073
16.7959
15.8712
15.0831
14.4864
14.165
14.3046
15.4112
18.8429
28.2223
54.0924
131.373
422.998
2554.57
31.1053
29.8976
28.5149
27.0931
25.7181
24.4357
23.2552
22.1667
21.1572
20.2114
19.3199
18.46
17.6153
16.807
16.0704
15.4495
15.0074
14.8658
15.3406
17.3972
23.82
43.4178
108.343
380.386
2554.57
29.8787
29.1603
28.136
26.9449
25.698
24.4715
23.3104
22.237
21.2553
20.3655
19.5589
18.8126
18.0977
17.4114
16.7682
16.1942
15.7298
15.4477
15.5131
16.388
19.5417
29.0868
57.0487
141.128
424.497
28.1488
27.9684
27.3974
26.5515
25.5422
24.4607
23.3732
22.3329
21.3681
20.4865
19.6993
18.9955
18.3483
17.743
17.1792
16.6665
16.2252
15.8933
15.7488
15.978
17.0876
20.5921
30.4376
55.3653
113.585
25.8841
26.2424
26.181
25.7688
25.1018
24.269
23.3455
22.3969
21.4784
20.6169
19.8418
19.1311
18.4927
17.9126
17.3849
16.9082
16.4889
16.1429
15.9038
15.8436
16.1275
17.1529
19.8325
26.3215
39.6174
23.0959
23.8963
24.3939
24.4787
24.2365
23.749
23.0899
22.3272
21.5245
20.7275
19.9731
19.2718
18.6405
18.0447
17.5064
17.0251
16.6005
16.236
15.9432
15.7484
15.7059
15.9322
16.6661
18.3647
21.6035
20.2256
21.1774
22.0328
22.6362
22.8607
22.7858
22.4833
22.0066
21.412
20.7518
20.0751
19.4159
18.7921
18.1988
17.6544
17.1461
16.6834
16.2772
15.9297
15.649
15.4511
15.3705
15.4731
15.87
16.6919
17.5117
18.4498
19.438
20.3195
20.9981
21.3733
21.4798
21.3573
21.0529
20.6159
20.0946
19.5299
18.955
18.3904
17.834
17.3114
16.8285
16.3815
15.9743
15.6164
15.3153
15.08
14.9292
14.8906
14.9964
15.1648
15.9542
16.9136
17.8922
18.7932
19.5688
20.0907
20.348
20.3803
20.229
19.9366
19.5433
19.0845
18.5903
18.0775
17.5648
17.0603
16.574
16.1311
15.7244
15.3518
15.019
14.7347
14.5081
14.3463
13.4136
13.9536
14.7459
15.662
16.6072
17.525
18.3516
18.9427
19.3036
19.4601
19.4421
19.282
19.0116
18.6609
18.2548
17.8136
17.3547
16.89
16.4335
15.9867
15.5624
15.1773
14.8251
14.5046
14.2206
12.5416
12.7836
13.2866
13.9926
14.8202
15.708
16.5952
17.3542
17.9371
18.3434
18.5817
18.668
18.6228
18.4685
18.2277
17.9211
17.5675
17.1819
16.7769
16.3632
15.95
15.5473
15.1568
14.7814
14.4332
12.8317
12.734
12.9133
13.315
13.8829
14.5622
15.2941
16.0038
16.6365
17.1612
17.5627
17.8375
17.9899
18.0304
17.9725
17.8317
17.6233
17.3621
17.0607
16.7312
16.3834
16.0251
15.664
15.3065
14.9606
14.8216
14.3781
14.1103
14.0777
14.2415
14.5636
14.9981
15.4919
15.996
16.471
16.8882
17.2295
17.4854
17.6534
17.7363
17.7405
17.6748
17.5493
17.3743
17.1598
16.9151
16.6486
16.368
16.0808
15.7948
19.2618
18.6309
17.9929
17.4228
17.0562
16.8849
16.8751
16.987
17.1828
17.4224
17.672
17.9077
18.1131
18.2776
18.3949
18.4627
18.4819
18.4562
18.3905
18.2909
18.1639
18.0159
17.8529
17.6812
17.5079
27.9781
27.3036
26.5155
25.5858
24.632
23.9017
23.3608
22.9817
22.7491
22.6092
22.5177
22.4602
22.4285
22.4149
22.4111
22.4101
22.4074
22.401
22.3901
22.3751
22.3568
22.3355
22.3106
22.2877
22.2738
46.0578
45.4897
44.7522
43.7725
42.5598
41.2361
40.2136
39.4494
38.8934
38.4445
37.9707
37.5181
37.1174
36.7865
36.5248
36.3274
36.1915
36.1142
36.0905
36.1142
36.1758
36.254
36.3128
36.3986
36.5349
91.3355
90.9945
90.5031
89.7723
88.7684
87.3421
85.7394
84.8803
84.6219
84.6505
84.11
83.4025
82.6987
82.0975
81.5973
81.1973
80.905
80.7284
80.6585
80.6814
80.7631
80.7808
80.3623
80.1893
80.2956
254.23
254.155
254.02
253.792
253.378
252.353
250.705
250.04
252.473
257.542
257.572
256.958
256.299
255.735
255.246
254.826
254.503
254.318
254.236
254.24
254.261
253.746
247.893
246.004
245.772
1510.85
1510.85
1510.85
1510.85
1510.85
1510.85
1510.85
1510.85
1510.85
1510.85
1510.85
1510.85
1510.85
1510.84
1510.84
1510.84
1510.84
1510.84
1510.85
1510.85
1510.85
1510.85
1510.85
1510.85
1510.85
1510.85
1510.85
1510.85
220.265
247.462
243.589
58.5398
71.1561
75.7977
26.0744
30.5415
33.8676
17.8658
19.2681
20.6529
15.2356
15.5921
16.0224
14.2615
14.2354
14.2588
13.9966
13.8055
13.6463
14.1498
13.8925
13.6533
14.6627
14.3813
14.1093
15.5408
15.2956
15.0566
17.354
17.2069
17.0663
22.2739
22.2873
22.316
36.7075
36.9147
37.1565
80.5576
80.9009
81.3016
245.977
246.291
246.649
1510.85
1510.86
1510.86
1953.39
1450.17
1450.17
1450.17
1450.17
1450.17
1450.17
1450.17
1450.17
1450.17
1450.17
1450.17
1450.17
1450.17
1450.17
1450.17
1450.17
1450.17
1450.17
1450.17
1450.17
1450.17
1450.17
1450.17
1450.17
1450.17
1450.17
1450.17
1450.17
1450.17
1450.17
1450.17
1450.17
1450.17
1450.17
1450.17
1450.17
1450.17
1450.17
1450.17
1450.17
1450.17
1450.17
1450.17
1450.17
1450.17
1450.17
1450.17
1450.17
1450.17
1450.17
1450.17
1450.17
1450.17
1450.17
1450.17
1450.17
1450.17
1450.17
1450.17
1450.17
1450.17
1450.17
1450.17
1450.17
1450.17
1450.17
1450.17
1450.17
1450.17
1450.17
1450.17
1450.17
1450.17
1450.17
1450.17
1450.17
1450.17
1450.17
1953.39
2456.61
466.391
273.059
254.539
250.268
242.571
240.664
240.395
240.358
240.355
240.351
240.338
240.306
240.235
240.106
240.017
240.006
240.106
241.181
241
240.626
240.48
240.368
240.278
240.221
240.188
240.17
240.162
240.16
240.164
240.171
240.183
240.198
240.218
240.24
240.267
240.298
240.334
240.373
240.417
240.465
240.517
240.573
240.632
240.695
240.759
240.824
240.889
240.951
241.009
241.059
241.098
241.122
241.127
241.107
241.057
240.973
240.851
240.688
240.481
240.229
239.936
239.667
239.483
239.305
239.129
238.969
238.842
238.767
238.729
238.692
238.699
238.778
238.973
239.44
240.987
248.804
283.597
485.803
2456.61
2456.61
412.383
161.218
106.413
91.5757
86.2618
84.4094
83.7897
83.5762
83.4978
83.4639
83.4415
83.4153
83.374
83.3036
83.1836
82.8879
81.805
81.4468
81.6497
82.819
83.0456
82.5026
81.9098
81.5455
81.3393
81.2181
81.1433
81.0964
81.0684
81.0544
81.0518
81.0591
81.0751
81.0992
81.131
81.1701
81.2162
81.269
81.3281
81.3932
81.4636
81.5385
81.6169
81.6976
81.7789
81.8588
81.9349
82.004
82.0629
82.1073
82.1324
82.1331
82.1035
82.0377
81.9302
81.777
81.5751
81.3231
81.022
80.6783
80.3099
80.0369
79.7965
79.5797
79.4104
79.3474
79.5094
80.0737
80.7595
80.9448
81.1458
81.5592
82.4401
84.4662
89.8304
106.38
165.203
428.535
2456.61
2456.61
422.438
147.008
77.7277
54.9974
46.4533
43.022
41.5898
40.9709
40.693
40.5615
40.4929
40.4492
40.4103
40.3614
40.2839
40.145
39.9214
39.8504
39.9352
40.1435
40.1897
40.07
39.9127
39.7937
39.7188
39.6756
39.6534
39.6457
39.6487
39.6607
39.6806
39.7078
39.742
39.7832
39.8311
39.8856
39.9466
40.0136
40.0863
40.164
40.2459
40.3308
40.4172
40.5034
40.5871
40.6656
40.7358
40.7939
40.8359
40.8571
40.8523
40.8161
40.7431
40.628
40.4669
40.2576
40.0005
39.6984
39.3586
38.9959
38.6392
38.3402
38.071
37.8328
37.6428
37.5304
37.5329
37.679
37.9396
38.2888
38.8834
39.9622
42.0025
46.1444
55.4044
78.6302
146.558
409.347
2456.61
2456.61
407.528
141.753
70.3104
44.2972
33.3366
28.3659
26.0154
24.8707
24.2986
24.0043
23.8466
23.7558
23.6957
23.6461
23.5936
23.5301
23.4648
23.4429
23.4662
23.5083
23.5143
23.4784
23.4278
23.385
23.3571
23.3433
23.3412
23.3486
23.364
23.3867
23.4163
23.4525
23.4953
23.5446
23.6001
23.6618
23.7292
23.8019
23.8791
23.96
24.0433
24.1275
24.2107
24.2907
24.3647
24.4297
24.4821
24.5182
24.5335
24.5237
24.4842
24.4105
24.2985
24.1449
23.9482
23.7094
23.433
23.1262
22.8007
22.4746
22.1767
21.9257
21.7154
21.553
21.455
21.4444
21.5489
21.7997
22.2357
22.9305
24.0431
25.8717
29.0184
34.8112
46.4615
72.798
143.889
408.424
2456.61
2456.61
406.633
140.663
68.1911
40.7298
28.4027
22.3606
19.2556
17.6142
16.7288
16.2424
15.9691
15.8104
15.7129
15.6472
15.5974
15.556
15.5241
15.5094
15.5101
15.5156
15.5125
15.4985
15.4805
15.4657
15.458
15.4583
15.4663
15.4816
15.5036
15.5322
15.567
15.608
15.6551
15.7082
15.767
15.831
15.8999
15.9728
16.0488
16.1267
16.205
16.2819
16.3551
16.4221
16.4802
16.5261
16.5563
16.5672
16.5549
16.5159
16.4467
16.3444
16.207
16.0336
15.8255
15.587
15.3258
15.0523
14.7804
14.5275
14.3247
14.1722
14.0757
14.0468
14.1039
14.2705
14.5768
15.0633
15.7902
16.8572
18.4409
20.8665
24.7734
31.5203
44.3008
71.8038
143.793
408.646
2456.61
2456.61
406.535
140.37
67.4743
39.3764
26.3405
19.6467
16.013
13.978
12.8167
12.1447
11.7505
11.5154
11.3714
11.28
11.2191
11.1771
11.1487
11.1319
11.1235
11.1189
11.1136
11.107
11.1008
11.0977
11.0996
11.1074
11.1212
11.141
11.1668
11.1985
11.236
11.2792
11.3278
11.3817
11.4404
11.5035
11.5702
11.6395
11.7104
11.7813
11.8507
11.9165
11.9764
12.028
12.0684
12.0946
12.1035
12.0921
12.0574
11.9969
11.9087
11.7917
11.646
11.4735
11.2776
11.0652
10.8458
10.6316
10.4371
10.2787
10.1779
10.1379
10.1681
10.2827
10.5008
10.8473
11.3547
12.0681
13.055
14.4228
16.3542
19.1794
23.5383
30.7769
44.0479
71.9599
144.17
408.977
2456.61
2456.61
406.486
140.186
67.1242
38.7528
25.3649
18.2997
14.3258
12.0088
10.6303
9.79985
9.29488
8.98482
8.79201
8.67005
8.59136
8.53972
8.50581
8.48405
8.47045
8.46176
8.45583
8.45197
8.45072
8.45304
8.45979
8.47152
8.48851
8.51085
8.53857
8.5716
8.60984
8.65314
8.70121
8.75371
8.81013
8.86979
8.93185
8.99526
9.05874
9.12077
9.17962
9.2333
9.2796
9.31617
9.34048
9.34998
9.34218
9.31477
9.26579
9.19392
9.09862
8.98049
8.84147
8.68515
8.51686
8.34456
8.1783
8.03015
7.91365
7.84357
7.83506
7.8939
8.03114
8.2621
8.60676
9.09109
9.74971
10.6309
11.8056
13.3848
15.5531
18.6394
23.2765
30.7932
44.3122
72.3986
144.662
409.354
2456.61
2456.61
406.399
139.58
66.7349
38.3418
24.8143
17.5544
13.374
10.8669
9.32868
8.37277
7.77412
7.3969
7.15759
7.00448
6.90552
6.84093
6.79857
6.77085
6.75289
6.74153
6.73484
6.73198
6.73284
6.73769
6.74686
6.76065
6.77921
6.80261
6.83086
6.86387
6.9015
6.9435
6.98955
7.03918
7.09182
7.14671
7.20294
7.25939
7.31478
7.3676
7.41618
7.45866
7.49305
7.51725
7.52918
7.52679
7.50826
7.47205
7.41713
7.34317
7.25079
7.14171
7.01901
6.88712
6.75222
6.62233
6.50693
6.4168
6.36372
6.36038
6.41827
6.54476
6.75157
7.05472
7.47521
8.04075
8.78867
9.77089
11.0628
12.7797
15.1092
18.3807
23.2214
30.9466
44.6546
72.8771
145.184
409.767
2456.62
2456.61
406.182
137.251
66.0015
37.9401
24.4334
17.091
12.792
10.1611
8.50974
7.45869
6.78469
6.35049
6.06969
5.88727
5.76811
5.68983
5.63821
5.60421
5.5821
5.56826
5.56053
5.55775
5.5594
5.56535
5.57562
5.59028
5.60936
5.63286
5.66072
5.69281
5.72891
5.76875
5.81193
5.85795
5.90618
5.95583
6.006
6.05559
6.10337
6.14793
6.18774
6.22116
6.24647
6.26192
6.26585
6.25675
6.23337
6.19486
6.14083
6.0717
5.98877
5.89435
5.79188
5.68603
5.5828
5.48941
5.41414
5.36614
5.35527
5.39207
5.48611
5.64541
5.88204
6.21256
6.65921
7.25188
8.03136
9.0544
10.4026
12.1981
14.6356
18.0488
23.0645
30.9886
44.8976
73.2883
145.682
410.193
2456.62
2456.61
406.084
136.173
65.5513
37.6565
24.1694
16.7838
12.4131
9.70076
7.9699
6.84809
6.11507
5.63408
5.31764
5.10896
4.97095
4.87942
4.81864
4.77842
4.75223
4.73592
4.72692
4.72373
4.72551
4.73183
4.74248
4.75735
4.77635
4.79939
4.82635
4.85704
4.89121
4.92853
4.96859
5.01085
5.05471
5.09939
5.14403
5.18761
5.229
5.26695
5.30013
5.32713
5.34652
5.35691
5.357
5.34567
5.3223
5.2865
5.23808
5.17798
5.10777
5.02985
4.94755
4.86515
4.78788
4.72182
4.6738
4.65126
4.66225
4.71558
4.81962
4.9824
5.2159
5.53692
5.96861
6.54292
7.30414
8.31454
9.6633
11.4825
13.978
17.494
22.6638
30.7904
44.9323
73.5484
146.1
410.605
2456.62
2456.61
406.002
135.759
65.3278
37.4805
23.9903
16.5741
12.1563
9.38891
7.6019
6.42771
5.64903
5.13027
4.7839
4.55232
4.39732
4.29349
4.22402
4.17785
4.14772
4.12896
4.11861
4.11481
4.11643
4.1228
4.13352
4.14832
4.16702
4.18943
4.21536
4.24458
4.27682
4.31172
4.34886
4.38774
4.42777
4.46823
4.50833
4.54717
4.58376
4.61701
4.64581
4.66899
4.68539
4.69393
4.69364
4.68375
4.66382
4.63393
4.59377
4.5447
4.48819
4.4264
4.36221
4.29921
4.24166
4.1944
4.16281
4.15278
4.17081
4.2242
4.3204
4.46683
4.67478
4.96053
5.34724
5.86784
6.56921
7.51849
8.8129
10.5963
13.0901
16.6562
21.9442
30.2644
44.6651
73.5684
146.367
410.962
2456.62
2456.61
405.932
135.682
65.2275
37.3725
23.8687
16.4292
11.9796
9.17462
7.34787
6.13505
5.32122
4.77221
4.40095
4.14967
3.97958
3.86455
3.78703
3.73524
3.70138
3.6803
3.66863
3.66421
3.66565
3.67205
3.68285
3.69764
3.71612
3.73804
3.76315
3.79118
3.82185
3.85478
3.88959
3.92578
3.96283
4.00009
4.03687
4.0724
4.10582
4.13623
4.16271
4.18431
4.20011
4.20928
4.21108
4.20498
4.19068
4.16822
4.13786
4.10049
4.05743
4.01049
3.96198
3.91472
3.87202
3.83758
3.81554
3.81046
3.82747
3.87262
3.95218
4.07256
4.24366
4.48023
4.80403
5.24711
5.85679
6.70295
7.8891
9.5709
11.9882
15.5284
20.869
29.3438
44.0047
73.2466
146.39
411.205
2456.62
2456.61
405.888
135.629
65.1607
37.2977
23.7843
16.3306
11.8611
9.03141
7.1771
5.93608
5.09539
4.52225
4.13035
3.86216
3.67872
3.55355
3.46857
3.41155
3.37419
3.35093
3.33808
3.33317
3.33458
3.34121
3.35231
3.36737
3.38599
3.40782
3.43258
3.45997
3.48968
3.52137
3.55463
3.58905
3.62413
3.65933
3.69405
3.72764
3.75939
3.78856
3.81441
3.83616
3.85312
3.8646
3.87008
3.86915
3.86163
3.84755
3.82722
3.80133
3.77093
3.7374
3.70253
3.66846
3.63764
3.61289
3.59733
3.59446
3.60832
3.64377
3.70562
3.79896
3.93183
4.11652
4.37189
4.72687
5.22617
5.93883
6.9701
8.48371
10.7377
14.1498
19.4395
27.9837
42.8612
72.4615
146.045
411.245
2456.62
2456.61
405.866
135.574
65.1063
37.2432
23.7287
16.2704
11.7914
8.9476
7.0754
5.81446
4.95352
4.36117
3.95212
3.66932
3.474
3.33953
3.2476
3.1856
3.14491
3.11961
3.1057
3.10047
3.10207
3.10922
3.12101
3.13678
3.15603
3.17836
3.20342
3.23088
3.26042
3.29166
3.3243
3.35793
3.3921
3.42635
3.46018
3.49306
3.5244
3.55361
3.58008
3.60322
3.62244
3.63726
3.64726
3.65212
3.65172
3.64609
3.63547
3.62039
3.60163
3.58024
3.55752
3.53506
3.51469
3.49852
3.48903
3.48897
3.50145
3.53028
3.57847
3.64989
3.75053
3.88976
4.08244
4.35242
4.73863
5.30595
6.15332
7.44408
9.44743
12.6103
17.7057
26.1777
41.154
71.0758
145.173
410.956
2456.62
2456.61
405.837
135.527
65.0622
37.2074
23.7019
16.2494
11.7712
8.9225
7.04062
5.76657
4.8907
4.28309
3.8596
3.56394
3.35774
3.2145
3.11583
3.04893
3.00487
2.97747
2.96246
2.95695
2.95889
2.96682
2.97965
2.99658
3.017
3.04043
3.06646
3.09472
3.12487
3.15657
3.18948
3.22323
3.25744
3.29172
3.32565
3.35879
3.39068
3.42085
3.44879
3.47402
3.4961
3.51465
3.52936
3.54
3.54646
3.54875
3.54705
3.54178
3.53352
3.52305
3.51133
3.49952
3.48898
3.48137
3.47869
3.48328
3.49786
3.52445
3.56506
3.62247
3.70087
3.80694
3.95171
4.15353
4.44341
4.87393
5.53391
6.576
8.26385
11.0574
15.7868
23.9989
38.8771
68.9774
143.614
410.195
2456.62
2456.61
405.798
135.487
65.0316
37.1972
23.7132
16.2782
11.8109
8.96604
7.0816
5.80005
4.91343
4.29346
3.85735
3.54982
3.33312
3.18107
3.07538
3.0032
2.95536
2.92534
2.90872
2.90255
2.90468
2.91339
2.92741
2.94575
2.96768
2.99263
3.02011
3.04972
3.08111
3.11392
3.14778
3.18235
3.2173
3.25228
3.28696
3.32097
3.35397
3.38563
3.41546
3.44299
3.46794
3.49005
3.5091
3.52492
3.53746
3.54675
3.55293
3.55631
3.55732
3.55651
3.55457
3.5523
3.55073
3.55122
3.55565
3.56654
3.58632
3.61516
3.65421
3.70528
3.77086
3.85519
3.96592
4.11644
4.33031
4.64941
5.14897
5.96542
7.34694
9.74545
13.9914
21.6668
36.124
66.0743
141.179
408.71
2456.62
2456.61
405.748
135.465
65.0318
37.2339
23.7862
16.381
11.9345
9.10113
7.2199
5.93492
5.04016
4.40923
3.96099
3.64137
3.41349
3.25154
3.1376
3.05908
3.00646
2.97242
2.95254
2.94441
2.94593
2.95494
2.96978
2.98928
3.01255
3.03891
3.06781
3.09881
3.13155
3.16567
3.20064
3.23619
3.27202
3.30784
3.34334
3.37824
3.41225
3.44505
3.47633
3.50577
3.53311
3.55816
3.58075
3.6008
3.61828
3.63326
3.64587
3.65637
3.66506
3.67241
3.67899
3.68556
3.693
3.70255
3.71622
3.73491
3.76005
3.7933
3.83591
3.88801
3.94914
4.0212
4.10949
4.22348
4.3803
4.61164
4.97748
5.59294
6.68042
8.66955
12.3913
19.4863
33.4465
63.0932
137.94
405.829
2456.62
2456.62
405.697
135.524
65.1179
37.3686
23.9693
16.6037
12.1854
9.36864
7.49365
6.20649
5.30344
4.66029
4.19804
3.86396
3.62253
3.44754
3.32208
3.23515
3.17677
3.13948
3.11821
3.1096
3.11104
3.12042
3.13608
3.15675
3.18145
3.20939
3.23996
3.27264
3.307
3.3426
3.37906
3.41601
3.45315
3.4902
3.52692
3.56305
3.59834
3.63254
3.6654
3.69673
3.72632
3.75404
3.7798
3.80356
3.82535
3.84529
3.86351
3.8802
3.89557
3.90998
3.92396
3.93854
3.95418
3.9713
3.99013
4.01226
4.03939
4.07342
4.11618
4.1684
4.22826
4.2935
4.36689
4.45522
4.57053
4.73556
4.99515
5.44031
6.25853
7.83768
10.9795
17.3533
30.5993
59.8212
134.851
403.826
2456.62
2456.62
405.698
135.969
65.4547
37.7114
24.3519
17.0257
12.6357
9.83479
7.96332
6.66959
5.75286
5.0908
4.60861
4.25322
3.99442
3.80688
3.67179
3.57622
3.51053
3.46758
3.44217
3.43053
3.4298
3.43777
3.45269
3.4732
3.49818
3.52675
3.55818
3.5919
3.62741
3.66422
3.7019
3.74005
3.77834
3.8165
3.85433
3.89163
3.92814
3.96361
3.99786
4.0307
4.06201
4.0917
4.11973
4.1461
4.17091
4.19449
4.217
4.23843
4.25891
4.27863
4.29777
4.31616
4.33437
4.35318
4.37345
4.39638
4.42359
4.45698
4.49843
4.54849
4.60423
4.6615
4.72189
4.79026
4.87482
4.99107
5.17047
5.48009
6.06722
7.25974
9.78976
15.2944
27.5247
55.9633
131.097
401.859
2456.62
2456.62
405.939
138.417
66.4268
38.4412
25.0732
17.7674
13.3923
10.5979
8.71713
7.40163
6.45704
5.76102
5.2506
4.87402
4.59523
4.38893
4.23704
4.12657
4.04797
3.9941
3.95964
3.94053
3.93369
3.93671
3.94771
3.96516
3.98779
4.01454
4.0446
4.07732
4.11222
4.14865
4.18603
4.22391
4.2619
4.29973
4.33734
4.37474
4.41141
4.44704
4.48144
4.5145
4.54615
4.57632
4.60502
4.63224
4.65798
4.6821
4.70464
4.72584
4.74587
4.76487
4.78303
4.80054
4.81781
4.83553
4.85461
4.87633
4.9023
4.93429
4.97332
5.01785
5.06274
5.10664
5.15176
5.20146
5.26125
5.34132
5.46254
5.67097
6.07365
6.92682
8.85237
13.3678
24.2319
51.4177
127.341
410.601
2456.62
2456.62
406.062
139.91
67.4243
39.541
26.2784
19.0244
14.6503
11.8165
9.87705
8.49168
7.48965
6.75385
6.20587
5.79359
5.48151
5.24475
5.06545
4.93058
4.83047
4.75783
4.70707
4.67384
4.65471
4.64708
4.64899
4.65867
4.67451
4.6952
4.71976
4.74769
4.77884
4.81186
4.84592
4.88044
4.91502
4.94929
4.98281
5.01512
5.04636
5.07653
5.1056
5.13354
5.16027
5.18575
5.20993
5.23282
5.25446
5.27488
5.29411
5.31217
5.32904
5.34476
5.35947
5.37343
5.38706
5.40106
5.41678
5.43554
5.45865
5.48667
5.51609
5.54328
5.56899
5.59438
5.62107
5.65142
5.68917
5.74103
5.82039
5.95696
6.2222
6.79786
8.16135
11.5878
20.5351
44.8594
117.846
400.759
2456.62
2456.62
399.259
137.714
67.7738
40.905
28.0185
20.8667
16.4695
13.5444
11.485
10.0173
8.94367
8.14118
7.53142
7.06256
6.69912
6.41609
6.1953
6.02334
5.89019
5.78835
5.71182
5.65562
5.61586
5.58967
5.57572
5.57153
5.57462
5.58324
5.59602
5.61162
5.62863
5.64704
5.6666
5.68701
5.708
5.72928
5.75054
5.77152
5.79208
5.81218
5.83181
5.8509
5.86933
5.88692
5.90357
5.91932
5.93431
5.94868
5.9624
5.97517
5.98655
5.99639
6.00494
6.01272
6.02033
6.02823
6.03665
6.04625
6.05344
6.05881
6.06325
6.06709
6.07091
6.07554
6.08221
6.09268
6.10969
6.1378
6.18559
6.2713
6.43851
6.80113
7.67528
9.96985
16.4009
35.6723
99.0941
362.464
2456.64
470.935
189.724
97.5471
58.981
39.933
29.3356
22.882
18.6473
15.6575
13.5264
11.9686
10.8013
9.90882
9.2154
8.67001
8.2373
7.89211
7.6155
7.39326
7.21483
7.07336
6.96186
6.87379
6.80434
6.74968
6.70588
6.67101
6.64396
6.62356
6.60865
6.59814
6.59109
6.58685
6.58501
6.58524
6.58726
6.59072
6.59522
6.60043
6.60626
6.61277
6.62005
6.62797
6.63598
6.64341
6.65005
6.65624
6.66254
6.66928
6.67589
6.68045
6.68077
6.67619
6.66776
6.65646
6.64307
6.62819
6.61231
6.59584
6.57877
6.56117
6.54336
6.52577
6.509
6.4938
6.48121
6.47265
6.47019
6.47706
6.49873
6.54588
6.64243
6.84917
7.33567
8.60294
12.1923
22.8223
55.0926
156.537
520.243
158.046
101.411
68.8631
49.5905
37.6202
29.8247
24.5188
20.7408
17.8895
15.7615
14.1471
12.9002
11.9209
11.1408
10.5125
10.0031
9.58917
9.24992
8.96983
8.73692
8.54066
8.37413
8.23273
8.11243
8.00983
7.92198
7.84661
7.7819
7.72625
7.67821
7.63646
7.60001
7.56822
7.54076
7.51748
7.49807
7.48176
7.46754
7.45481
7.44379
7.43514
7.42929
7.42529
7.42006
7.4104
7.39588
7.37782
7.35725
7.33484
7.31096
7.28557
7.25843
7.22934
7.19835
7.16565
7.13151
7.0962
7.06005
7.02336
6.98642
6.94952
6.91304
6.87737
6.84305
6.81073
6.78127
6.75577
6.73576
6.7234
6.72206
6.73752
6.78144
6.88122
7.11092
7.69077
9.28687
13.8628
26.8654
61.7274
143.72
68.7518
57.9672
47.9781
39.8433
33.5064
28.6338
24.8778
21.9489
19.6148
17.6802
16.1308
14.8901
13.8818
13.0532
12.3668
11.7936
11.3097
10.8996
10.5503
10.2509
9.99265
9.76843
9.57276
9.4013
9.25066
9.11818
9.00173
8.89933
8.80887
8.72802
8.65489
8.58849
8.52867
8.47584
8.43043
8.39164
8.35595
8.31863