/*--------------------------------*- C++ -*----------------------------------*\
| =========                 |                                                 |
| \\      /  F ield         | OpenFOAM: The Open Source CFD Toolbox           |
|  \\    /   O peration     | Version:  v2012                                 |
|   \\  /    A nd           | Website:  www.openfoam.com                      |
|    \\/     M anipulation  |                                                 |
\*---------------------------------------------------------------------------*/
FoamFile
{
    version     2.0;
    format      ascii;
    class       volScalarField;
    location    "2000";
    object      p;
}
// * * * * * * * * * * * * * * * * * * * * * * * * * * * * * * * * * * * * * //

dimensions      [0 2 -2 0 0 0 0];


internalField   nonuniform List<scalar> 
6502
(
2.09663
1.91348
1.81592
1.77525
1.75802
1.75788
1.77485
1.81526
1.9126
2.09559
1.84557
1.80023
1.77389
1.75406
1.74142
1.74127
1.75361
1.77315
1.79926
1.84448
1.70028
1.70068
1.7021
1.70015
1.69582
1.69564
1.69962
1.70122
1.69952
1.69895
1.62227
1.62837
1.63633
1.64082
1.64095
1.64071
1.64014
1.63522
1.62687
1.62056
1.56173
1.57141
1.58368
1.58874
1.58992
1.5896
1.58779
1.58213
1.56937
1.55951
1.51267
1.5234
1.53683
1.54185
1.54344
1.543
1.54053
1.53473
1.52068
1.50974
1.47325
1.48126
1.49147
1.49707
1.49925
1.49871
1.49542
1.48861
1.47763
1.46937
1.4395
1.44462
1.45195
1.45701
1.45836
1.45741
1.45425
1.44792
1.43971
1.43434
1.40903
1.41235
1.41756
1.42176
1.42184
1.42054
1.41808
1.41219
1.40574
1.40216
1.38052
1.38273
1.38589
1.38864
1.38828
1.38678
1.38428
1.37876
1.37394
1.37146
1.3533
1.35471
1.3562
1.35727
1.35654
1.35443
1.35119
1.34651
1.34307
1.34133
1.32726
1.32819
1.3286
1.32827
1.3264
1.32353
1.31973
1.31547
1.31268
1.31137
1.30244
1.30309
1.30289
1.30157
1.29827
1.29419
1.28975
1.28527
1.28255
1.2814
1.27899
1.27947
1.27872
1.27649
1.27203
1.26626
1.2607
1.25544
1.25235
1.25125
1.25703
1.25737
1.25601
1.25253
1.24689
1.23947
1.23212
1.22549
1.22166
1.22048
1.23673
1.23698
1.23498
1.22993
1.22259
1.2134
1.20362
1.19497
1.18996
1.18853
1.21833
1.21855
1.21598
1.20927
1.19962
1.18804
1.17517
1.16361
1.15665
1.15461
1.20213
1.20239
1.19934
1.19103
1.17883
1.16416
1.14728
1.13141
1.12099
1.11757
1.18842
1.1888
1.18543
1.17576
1.16108
1.14287
1.12119
1.09925
1.08238
1.07601
1.1775
1.1781
1.17463
1.16397
1.14716
1.12521
1.09916
1.06994
1.04126
1.02469
1.16956
1.17048
1.16722
1.15623
1.13841
1.11433
1.08607
1.05335
1.0184
0.990611
1.16479
1.16607
1.16342
1.15308
1.13595
1.11279
1.08661
1.05964
1.03746
1.02493
1.16329
1.16482
1.16301
1.15391
1.13824
1.11711
1.09422
1.07195
1.05574
1.04696
1.16472
1.16645
1.16545
1.15751
1.14303
1.12315
1.10142
1.07972
1.06277
1.05264
1.16858
1.17061
1.17026
1.16323
1.14957
1.13021
1.10778
1.08621
1.06837
1.05716
1.17453
1.17685
1.17705
1.17085
1.15797
1.13921
1.11594
1.09456
1.0759
1.06317
1.18225
1.18479
1.18549
1.18013
1.16797
1.14979
1.12698
1.10467
1.08414
1.06916
1.19136
1.19408
1.19522
1.19071
1.17938
1.16173
1.13931
1.11587
1.09284
1.07532
1.20152
1.20436
1.2059
1.20226
1.19195
1.17495
1.1522
1.12746
1.10268
1.08261
1.21239
1.2153
1.21718
1.2144
1.20518
1.18893
1.16621
1.13956
1.11405
1.09151
1.22365
1.22658
1.22873
1.2268
1.21882
1.20367
1.18169
1.15443
1.12774
1.10221
1.23502
1.23792
1.24028
1.23919
1.2326
1.21895
1.19824
1.17168
1.14331
1.11515
1.24624
1.24907
1.25157
1.25125
1.24612
1.23425
1.21506
1.18931
1.15959
1.13025
1.2571
1.25981
1.26237
1.26272
1.25901
1.24913
1.23188
1.20764
1.17804
1.14821
1.26738
1.26998
1.27251
1.2734
1.27102
1.26324
1.24846
1.22649
1.1983
1.16716
1.27686
1.27946
1.28189
1.28315
1.28195
1.27624
1.26415
1.24491
1.21895
1.18781
1.28564
1.28813
1.29037
1.29189
1.29166
1.28785
1.27853
1.26244
1.23959
1.21087
1.29391
1.29594
1.29795
1.29962
1.30012
1.29792
1.29123
1.27851
1.25913
1.23349
1.30145
1.30296
1.30468
1.3064
1.30738
1.30645
1.30206
1.2926
1.27701
1.2551
1.30778
1.30914
1.3107
1.31231
1.31353
1.31352
1.311
1.30448
1.29269
1.27493
1.31337
1.31451
1.31588
1.31733
1.31865
1.31925
1.31814
1.31408
1.30577
1.29223
1.31857
1.31915
1.32027
1.32159
1.32291
1.32386
1.32372
1.32153
1.31616
1.30653
1.32284
1.32322
1.32413
1.32527
1.3265
1.32757
1.32802
1.32715
1.32404
1.31772
1.32626
1.32669
1.32746
1.32839
1.32946
1.33051
1.33125
1.3312
1.32968
1.32591
1.32935
1.32965
1.33022
1.33099
1.3319
1.33286
1.33369
1.33408
1.33357
1.3316
1.33207
1.33219
1.33254
1.33319
1.33395
1.33477
1.33557
1.33615
1.33622
1.33541
1.33424
1.33431
1.33459
1.3351
1.33568
1.33634
1.33703
1.33763
1.33799
1.33786
1.33614
1.3362
1.33639
1.33673
1.33716
1.33765
1.33818
1.33871
1.33915
1.33938
1.33788
1.33791
1.33799
1.33817
1.33846
1.33878
1.33915
1.33955
1.33997
1.34033
1.33947
1.33944
1.33944
1.33953
1.33967
1.33982
1.34003
1.3403
1.34063
1.34101
1.34097
1.34089
1.34083
1.34081
1.34081
1.34085
1.34092
1.34106
1.34129
1.34164
1.34239
1.34225
1.34213
1.34202
1.34196
1.34192
1.34187
1.34192
1.34207
1.34237
1.3437
1.3435
1.34331
1.34317
1.34307
1.343
1.34293
1.34292
1.34303
1.34329
1.34487
1.34462
1.34439
1.34424
1.34413
1.34407
1.34403
1.34404
1.34415
1.34442
1.34582
1.34553
1.34528
1.34516
1.34509
1.34506
1.34508
1.34516
1.34534
1.34568
1.34648
1.34618
1.34594
1.34584
1.34582
1.34586
1.34597
1.34616
1.34646
1.34691
1.34681
1.34654
1.34632
1.34625
1.34627
1.34639
1.34659
1.3469
1.34734
1.34795
1.34683
1.3466
1.34641
1.34636
1.34642
1.34658
1.34685
1.34725
1.34782
1.34859
1.34661
1.34641
1.34623
1.34616
1.3462
1.34635
1.34664
1.34709
1.34772
1.34857
1.3463
1.34613
1.34595
1.34584
1.34583
1.34594
1.34621
1.34666
1.3473
1.34818
0.974893
1.00522
1.02585
1.03598
1.04187
1.04559
1.04823
1.05025
1.05185
1.05316
1.05426
1.05518
1.05595
1.05658
1.05705
1.05738
1.05757
1.05761
1.05754
1.0574
1.0572
1.05698
1.05676
1.0566
1.05653
1.02253
1.0292
1.03444
1.03879
1.04264
1.04583
1.04827
1.05007
1.05155
1.05279
1.05385
1.05476
1.05552
1.05614
1.05662
1.05697
1.05717
1.05725
1.05723
1.05711
1.05693
1.05674
1.05657
1.05643
1.05636
1.04301
1.04205
1.04223
1.04351
1.04519
1.047
1.04869
1.0502
1.05148
1.05258
1.05355
1.0544
1.05514
1.05576
1.05625
1.0566
1.05683
1.05693
1.05692
1.05683
1.05668
1.05651
1.05633
1.05618
1.05604
1.04846
1.04736
1.04699
1.04725
1.04794
1.04878
1.04969
1.05069
1.05167
1.05259
1.05342
1.05419
1.05488
1.05548
1.05598
1.05635
1.0566
1.05672
1.05672
1.05663
1.05647
1.05628
1.05607
1.05586
1.05565
1.05259
1.05105
1.05027
1.04995
1.05004
1.05036
1.05078
1.05131
1.05193
1.05259
1.05327
1.05393
1.05457
1.05516
1.05567
1.05607
1.05636
1.05651
1.05653
1.05644
1.05626
1.05603
1.05577
1.05548
1.0552
1.05697
1.05415
1.05272
1.05196
1.05163
1.05156
1.05165
1.05184
1.05214
1.05254
1.05302
1.05356
1.05414
1.05471
1.05524
1.05569
1.05604
1.05624
1.0563
1.05623
1.05603
1.05576
1.05544
1.05506
1.0547
1.06084
1.05664
1.05452
1.05341
1.05277
1.05241
1.05221
1.05212
1.05216
1.05231
1.0526
1.053
1.0535
1.05405
1.05462
1.05514
1.05557
1.05587
1.056
1.05597
1.05578
1.05547
1.05508
1.05462
1.0542
1.0647
1.05893
1.05595
1.05439
1.05347
1.05286
1.05241
1.05209
1.05188
1.05181
1.0519
1.05215
1.05256
1.0531
1.0537
1.05432
1.05488
1.05532
1.05557
1.05563
1.05547
1.05515
1.05469
1.05413
1.05363
1.06933
1.06156
1.05731
1.05506
1.05377
1.0529
1.05222
1.05168
1.05124
1.05095
1.05083
1.05091
1.05121
1.05171
1.05238
1.05311
1.05385
1.05449
1.05495
1.05516
1.05509
1.05478
1.05427
1.05357
1.05294
1.0752
1.06494
1.05894
1.05565
1.05378
1.05256
1.05162
1.05084
1.05017
1.04965
1.04931
1.0492
1.04935
1.04979
1.05051
1.05139
1.05234
1.05327
1.05403
1.0545
1.05462
1.05438
1.05383
1.05301
1.05223
1.08268
1.06952
1.06126
1.05646
1.05369
1.05194
1.05066
1.04959
1.04866
1.04788
1.0473
1.04697
1.04696
1.04728
1.04799
1.04904
1.05025
1.05154
1.05272
1.05358
1.05401
1.05395
1.05342
1.05247
1.05153
1.09236
1.07589
1.06478
1.05792
1.05381
1.05125
1.04945
1.04801
1.04677
1.04569
1.04482
1.04423
1.044
1.04422
1.04489
1.04602
1.04751
1.04922
1.05092
1.05233
1.05323
1.05349
1.05308
1.05203
1.05093
1.10455
1.08455
1.07012
1.0606
1.05462
1.05084
1.04826
1.0463
1.04465
1.04321
1.04201
1.04111
1.04061
1.04061
1.04121
1.04244
1.04417
1.04628
1.04861
1.05073
1.0523
1.05308
1.05292
1.05183
1.05055
1.11948
1.09598
1.07795
1.0652
1.05674
1.05122
1.04749
1.04477
1.04258
1.04071
1.03913
1.03788
1.03707
1.03682
1.03724
1.03843
1.04041
1.043
1.04593
1.04886
1.0513
1.05281
1.0531
1.05207
1.05063
1.13705
1.11072
1.08895
1.07252
1.06096
1.0531
1.04774
1.04391
1.04097
1.03856
1.03655
1.03493
1.03379
1.03327
1.0335
1.03461
1.03667
1.03961
1.04319
1.04697
1.05042
1.05292
1.05388
1.05305
1.05152
1.15761
1.1289
1.1036
1.08332
1.06817
1.05735
1.04978
1.0444
1.04039
1.03726
1.03472
1.0327
1.03124
1.03046
1.0305
1.03152
1.03363
1.03682
1.04093
1.04553
1.05004
1.05376
1.05566
1.05518
1.05368
1.18023
1.15019
1.12216
1.09825
1.07925
1.06495
1.05455
1.04706
1.04157
1.03743
1.03421
1.03172
1.02993
1.02892
1.02884
1.02979
1.03194
1.03536
1.03995
1.04533
1.05088
1.05583
1.05885
1.05896
1.05771
1.20405
1.17404
1.14446
1.11759
1.0949
1.07684
1.06309
1.05291
1.04542
1.03987
1.0357
1.0326
1.03043
1.0292
1.02901
1.03001
1.0323
1.03599
1.04104
1.04719
1.05384
1.06011
1.06427
1.0653
1.06454
1.22861
1.19972
1.16984
1.14113
1.11541
1.09375
1.07641
1.06303
1.05298
1.04553
1.04004
1.03607
1.03338
1.03189
1.03163
1.03271
1.03526
1.03934
1.04499
1.05197
1.05983
1.06741
1.0731
1.07545
1.07519
1.25216
1.22588
1.19717
1.16814
1.1405
1.11594
1.09519
1.07842
1.06537
1.05549
1.0482
1.04299
1.03953
1.03763
1.03725
1.03845
1.04133
1.04595
1.05234
1.06033
1.06942
1.07843
1.08636
1.09024
1.09046
1.27368
1.25105
1.22492
1.19706
1.16937
1.14305
1.1195
1.09959
1.08346
1.07082
1.06126
1.05435
1.04973
1.04715
1.04648
1.04771
1.05092
1.05618
1.06346
1.07266
1.08325
1.09423
1.10437
1.11067
1.11223
1.29233
1.27394
1.25154
1.22586
1.20015
1.17439
1.14885
1.12649
1.10767
1.09227
1.08015
1.07113
1.06491
1.06124
1.05995
1.06098
1.06436
1.07016
1.0784
1.08897
1.10149
1.11493
1.12775
1.13813
1.143
1.30759
1.29366
1.27583
1.25454
1.23083
1.20597
1.18123
1.15815
1.13749
1.1198
1.10527
1.09397
1.08582
1.08064
1.07827
1.07866
1.0818
1.08776
1.09661
1.10835
1.1228
1.13936
1.15677
1.17432
1.18761
1.31922
1.30935
1.29597
1.27917
1.25928
1.23732
1.21443
1.19237
1.1718
1.15255
1.13584
1.12251
1.11245
1.10548
1.10158
1.10078
1.10305
1.10844
1.11704
1.1289
1.144
1.16218
1.18304
1.20665
1.2327
1.32754
1.32107
1.31173
1.29933
1.28397
1.26615
1.24664
1.22556
1.20687
1.18922
1.17089
1.15578
1.14399
1.13526
1.12967
1.12723
1.12799
1.13196
1.13919
1.14965
1.16326
1.17975
1.19859
1.21892
1.24001
1.33324
1.32938
1.32341
1.315
1.30403
1.29065
1.27538
1.25857
1.24094
1.22278
1.20689
1.19321
1.18011
1.16957
1.1622
1.15791
1.15671
1.15866
1.16369
1.17173
1.18261
1.19598
1.21124
1.22741
1.243
1.33692
1.33492
1.33151
1.32636
1.31921
1.31001
1.2989
1.28619
1.27216
1.25766
1.24295
1.22844
1.2164
1.20674
1.19843
1.19226
1.1889
1.18852
1.1909
1.19595
1.20351
1.21314
1.22423
1.23595
1.24718
1.33918
1.33839
1.33678
1.33405
1.32995
1.32432
1.31708
1.30833
1.29828
1.28738
1.27581
1.26428
1.25303
1.24252
1.23418
1.2278
1.22348
1.2213
1.22093
1.22286
1.22704
1.23291
1.24
1.24777
1.2554
1.34054
1.34048
1.34002
1.33897
1.3371
1.33424
1.33025
1.32507
1.31871
1.31135
1.30321
1.29468
1.28598
1.27764
1.27025
1.26322
1.25728
1.25352
1.25162
1.25173
1.25341
1.25589
1.25935
1.26363
1.26807
1.34141
1.34175
1.34199
1.34201
1.34165
1.34078
1.33923
1.3369
1.3337
1.32963
1.32475
1.31923
1.31325
1.30705
1.30119
1.29581
1.29092
1.28675
1.28286
1.28023
1.27963
1.27997
1.28117
1.28303
1.28482
1.34209
1.34264
1.34327
1.34393
1.34452
1.34496
1.34511
1.34487
1.3441
1.34273
1.3407
1.33803
1.33476
1.33102
1.32701
1.32291
1.31885
1.31533
1.31222
1.30947
1.30717
1.30496
1.30366
1.30334
1.30306
1.34283
1.34347
1.3443
1.34531
1.34646
1.34771
1.34897
1.35013
1.35108
1.35171
1.3519
1.35159
1.35073
1.34931
1.34739
1.34505
1.34239
1.33962
1.33679
1.33397
1.33144
1.32908
1.32692
1.32504
1.32296
1.34375
1.34442
1.34535
1.34655
1.34802
1.34974
1.35165
1.3537
1.35577
1.35776
1.35953
1.36097
1.36197
1.36247
1.36242
1.36181
1.36067
1.35907
1.35707
1.35476
1.35229
1.34967
1.3469
1.34414
1.34136
1.3449
1.34561
1.3466
1.3479
1.34954
1.35151
1.3538
1.35636
1.35912
1.36195
1.36475
1.36736
1.36968
1.37158
1.37296
1.37376
1.37394
1.37351
1.37249
1.37093
1.36889
1.36644
1.36365
1.36063
1.35742
1.34622
1.347
1.34806
1.34944
1.35118
1.35329
1.35578
1.35863
1.36176
1.36509
1.36848
1.37182
1.37497
1.37779
1.38016
1.38197
1.38315
1.38367
1.38349
1.38264
1.38115
1.37909
1.37652
1.37353
1.37018
1.34754
1.34845
1.34965
1.35112
1.35293
1.35514
1.35774
1.36074
1.36408
1.36767
1.37138
1.3751
1.3787
1.38206
1.38503
1.38749
1.38934
1.39051
1.39095
1.39066
1.38965
1.38796
1.38565
1.3828
1.37948
1.34874
1.34977
1.35108
1.35268
1.35465
1.35698
1.35965
1.36272
1.3662
1.36992
1.37375
1.37764
1.38145
1.38508
1.38835
1.39115
1.39337
1.39493
1.39577
1.39584
1.39515
1.39374
1.39165
1.38896
1.38572
1.34957
1.35072
1.35213
1.35398
1.35619
1.35862
1.36132
1.36438
1.3679
1.37174
1.37568
1.37961
1.38348
1.38721
1.39062
1.39354
1.3959
1.39766
1.39869
1.39894
1.39842
1.39717
1.39522
1.39262
1.38946
1.34964
1.35092
1.35248
1.35445
1.35677
1.35942
1.36246
1.36581
1.36942
1.37332
1.37734
1.38131
1.38517
1.38897
1.39247
1.39543
1.39789
1.39978
1.40088
1.40118
1.4007
1.39949
1.39757
1.39499
1.39182
1.34929
1.35064
1.35227
1.35425
1.35662
1.35953
1.36296
1.36666
1.37037
1.37414
1.37819
1.38258
1.38697
1.39084
1.39427
1.39736
1.39977
1.40135
1.40234
1.4027
1.40232
1.40114
1.39921
1.3966
1.3934
1.2605
1.26356
1.2638
1.2566
1.26269
1.26537
1.25464
1.26109
1.26507
1.25599
1.26191
1.2661
1.26165
1.26626
1.26982
1.27182
1.27477
1.2772
1.28622
1.28733
1.28835
1.30273
1.30265
1.30271
1.32085
1.3192
1.3179
1.33875
1.33632
1.33393
1.35431
1.35131
1.34822
1.36681
1.36349
1.36003
1.37605
1.3726
1.36895
1.3823
1.37881
1.37508
1.38605
1.38255
1.37879
1.38839
1.38485
1.38104
1.38992
1.38631
1.38243
1.28054
1.28054
1.28052
1.28049
1.28046
1.28043
1.2804
1.28037
1.28034
1.28032
1.2803
1.28029
1.28027
1.28025
1.28022
1.28017
1.2801
1.28016
1.28044
1.28052
1.2805
1.28046
1.28044
1.28044
1.28045
1.28047
1.28049
1.28051
1.28054
1.28056
1.28059
1.28062
1.28065
1.28068
1.28072
1.28076
1.2808
1.28084
1.28089
1.28094
1.281
1.28107
1.28114
1.28123
1.28133
1.28145
1.28158
1.28174
1.28192
1.28214
1.28238
1.28267
1.283
1.28338
1.28381
1.2843
1.28485
1.28546
1.28614
1.28688
1.28768
1.28854
1.28945
1.29038
1.29132
1.29225
1.29316
1.29402
1.29479
1.29546
1.29601
1.29642
1.29669
1.29682
1.29683
1.29673
1.29659
1.29642
1.29625
1.29614
1.28057
1.28056
1.28054
1.28051
1.28049
1.28046
1.28043
1.28041
1.28039
1.28037
1.28035
1.28034
1.28033
1.28032
1.28031
1.28029
1.28029
1.28033
1.2804
1.28044
1.28046
1.28047
1.28048
1.28049
1.2805
1.28052
1.28055
1.28057
1.2806
1.28062
1.28065
1.28069
1.28072
1.28076
1.28079
1.28084
1.28088
1.28093
1.28098
1.28104
1.28111
1.28118
1.28127
1.28136
1.28147
1.28159
1.28174
1.2819
1.28209
1.28231
1.28255
1.28284
1.28316
1.28354
1.28395
1.28443
1.28496
1.28555
1.28619
1.2869
1.28766
1.28847
1.28933
1.29021
1.29111
1.292
1.29287
1.29368
1.29443
1.29508
1.29562
1.29604
1.29632
1.29648
1.29653
1.29647
1.29635
1.2962
1.29604
1.29591
1.2806
1.28059
1.28057
1.28054
1.28052
1.2805
1.28047
1.28045
1.28043
1.28042
1.2804
1.28039
1.28038
1.28038
1.28037
1.28037
1.28038
1.2804
1.28044
1.28047
1.28049
1.28051
1.28052
1.28054
1.28056
1.28058
1.2806
1.28063
1.28066
1.28069
1.28072
1.28075
1.28079
1.28083
1.28087
1.28092
1.28097
1.28102
1.28108
1.28115
1.28122
1.2813
1.28139
1.28149
1.2816
1.28173
1.28188
1.28204
1.28223
1.28244
1.28269
1.28296
1.28328
1.28363
1.28403
1.28448
1.28498
1.28553
1.28614
1.28681
1.28753
1.2883
1.28911
1.28995
1.29081
1.29168
1.29252
1.29332
1.29406
1.29472
1.29527
1.2957
1.296
1.29618
1.29625
1.29622
1.29612
1.29598
1.2958
1.29562
1.28065
1.28062
1.2806
1.28057
1.28055
1.28052
1.2805
1.28048
1.28047
1.28045
1.28044
1.28043
1.28043
1.28042
1.28042
1.28043
1.28044
1.28045
1.28048
1.2805
1.28052
1.28054
1.28056
1.28058
1.2806
1.28062
1.28065
1.28068
1.2807
1.28074
1.28077
1.28081
1.28085
1.28089
1.28094
1.28098
1.28104
1.28109
1.28116
1.28122
1.2813
1.28138
1.28147
1.28157
1.28169
1.28181
1.28195
1.28211
1.28229
1.28249
1.28272
1.28297
1.28326
1.28359
1.28395
1.28437
1.28483
1.28535
1.28592
1.28655
1.28723
1.28797
1.28875
1.28958
1.29042
1.29128
1.29213
1.29295
1.29372
1.2944
1.29499
1.29546
1.2958
1.29601
1.29609
1.29607
1.29597
1.2958
1.29557
1.29534
1.2807
1.28066
1.28063
1.2806
1.28057
1.28055
1.28053
1.28051
1.2805
1.28048
1.28047
1.28047
1.28046
1.28046
1.28046
1.28047
1.28048
1.28049
1.28051
1.28053
1.28055
1.28057
1.28059
1.28061
1.28063
1.28066
1.28068
1.28071
1.28075
1.28078
1.28082
1.28085
1.2809
1.28094
1.28099
1.28104
1.2811
1.28115
1.28122
1.28129
1.28136
1.28144
1.28153
1.28163
1.28173
1.28185
1.28198
1.28212
1.28228
1.28246
1.28266
1.28289
1.28314
1.28342
1.28374
1.28411
1.28453
1.285
1.28553
1.28611
1.28676
1.28747
1.28823
1.28903
1.28986
1.29073
1.2916
1.29245
1.29327
1.29401
1.29466
1.29519
1.29559
1.29584
1.29596
1.29596
1.29585
1.29565
1.29536
1.29509
1.28074
1.2807
1.28065
1.28062
1.28059
1.28056
1.28054
1.28053
1.28051
1.2805
1.2805
1.28049
1.28049
1.28049
1.28049
1.2805
1.2805
1.28052
1.28053
1.28055
1.28057
1.28059
1.28061
1.28063
1.28066
1.28068
1.28071
1.28074
1.28078
1.28081
1.28085
1.28089
1.28094
1.28098
1.28103
1.28109
1.28114
1.2812
1.28126
1.28133
1.2814
1.28148
1.28156
1.28165
1.28175
1.28185
1.28196
1.28208
1.28222
1.28236
1.28253
1.28272
1.28293
1.28317
1.28343
1.28374
1.2841
1.28452
1.28499
1.28551
1.28609
1.28675
1.28748
1.28826
1.2891
1.28998
1.29088
1.29179
1.29267
1.29349
1.29422
1.29485
1.29533
1.29566
1.29584
1.29586
1.29576
1.29554
1.2952
1.29488
1.28077
1.28072
1.28067
1.28063
1.2806
1.28057
1.28055
1.28053
1.28052
1.28051
1.2805
1.2805
1.2805
1.2805
1.2805
1.28051
1.28051
1.28053
1.28054
1.28056
1.28057
1.28059
1.28062
1.28064
1.28067
1.28069
1.28073
1.28076
1.28079
1.28083
1.28087
1.28092
1.28096
1.28101
1.28106
1.28112
1.28117
1.28123
1.2813
1.28136
1.28143
1.2815
1.28157
1.28165
1.28173
1.28181
1.2819
1.28199
1.28209
1.2822
1.28233
1.28247
1.28263
1.28281
1.28302
1.28327
1.28356
1.2839
1.28429
1.28476
1.28528
1.28587
1.28656
1.28732
1.28816
1.28905
1.28999
1.29095
1.2919
1.29282
1.29366
1.2944
1.295
1.29544
1.2957
1.29579
1.29571
1.29548
1.2951
1.29474
1.28079
1.28073
1.28067
1.28062
1.28059
1.28056
1.28054
1.28052
1.28051
1.2805
1.28049
1.28049
1.28049
1.28049
1.28049
1.2805
1.28051
1.28052
1.28053
1.28055
1.28057
1.28059
1.28061
1.28063
1.28066
1.28069
1.28073
1.28076
1.2808
1.28084
1.28088
1.28093
1.28098
1.28103
1.28108
1.28114
1.28119
1.28125
1.28131
1.28137
1.28143
1.2815
1.28156
1.28162
1.28168
1.28174
1.2818
1.28186
1.28192
1.28199
1.28207
1.28215
1.28225
1.28237
1.28252
1.28269
1.28291
1.28317
1.28349
1.2839
1.28437
1.28491
1.28554
1.28627
1.28708
1.28798
1.28894
1.28995
1.29098
1.292
1.29297
1.29386
1.2946
1.29518
1.29556
1.29573
1.29571
1.29549
1.29508
1.29466
1.28079
1.28072
1.28065
1.2806
1.28056
1.28053
1.2805
1.28049
1.28047
1.28047
1.28046
1.28046
1.28046
1.28046
1.28046
1.28047
1.28048
1.28049
1.2805
1.28052
1.28054
1.28056
1.28059
1.28061
1.28064
1.28067
1.28071
1.28075
1.28079
1.28083
1.28088
1.28093
1.28098
1.28103
1.28109
1.28115
1.2812
1.28126
1.28132
1.28137
1.28143
1.28148
1.28153
1.28157
1.28161
1.28164
1.28168
1.2817
1.28173
1.28175
1.28177
1.2818
1.28184
1.28189
1.28197
1.28208
1.28222
1.28241
1.28266
1.28298
1.28338
1.28387
1.28445
1.28513
1.28592
1.28681
1.28779
1.28884
1.28995
1.29107
1.29218
1.29322
1.29414
1.29489
1.29543
1.29573
1.29578
1.2956
1.29518
1.29471
1.28078
1.28069
1.28061
1.28055
1.28051
1.28047
1.28045
1.28043
1.28042
1.28041
1.28041
1.2804
1.2804
1.28041
1.28041
1.28042
1.28043
1.28044
1.28046
1.28047
1.28049
1.28052
1.28054
1.28057
1.2806
1.28064
1.28068
1.28072
1.28076
1.28081
1.28086
1.28092
1.28097
1.28103
1.28108
1.28114
1.2812
1.28125
1.28131
1.28136
1.28141
1.28145
1.28148
1.28151
1.28153
1.28154
1.28154
1.28153
1.28151
1.28149
1.28146
1.28144
1.28142
1.28141
1.28142
1.28146
1.28153
1.28165
1.28183
1.28208
1.28241
1.28283
1.28336
1.284
1.28475
1.28562
1.28661
1.2877
1.28887
1.2901
1.29134
1.29254
1.29365
1.2946
1.29534
1.2958
1.29598
1.29587
1.29544
1.29495
1.28076
1.28063
1.28054
1.28047
1.28043
1.28039
1.28037
1.28035
1.28034
1.28033
1.28033
1.28033
1.28033
1.28033
1.28034
1.28034
1.28036
1.28037
1.28039
1.2804
1.28043
1.28045
1.28048
1.28051
1.28055
1.28059
1.28063
1.28068
1.28072
1.28078
1.28083
1.28089
1.28095
1.28101
1.28107
1.28113
1.28119
1.28124
1.28129
1.28134
1.28138
1.28141
1.28143
1.28144
1.28144
1.28142
1.2814
1.28136
1.28131
1.28124
1.28117
1.2811
1.28102
1.28096
1.28091
1.28088
1.28089
1.28095
1.28106
1.28125
1.28152
1.28188
1.28235
1.28294
1.28366
1.28452
1.2855
1.28662
1.28784
1.28916
1.29053
1.2919
1.29321
1.29438
1.29533
1.29601
1.29635
1.29634
1.29595
1.29544
1.28063
1.28052
1.28042
1.28035
1.28031
1.28027
1.28025
1.28024
1.28023
1.28022
1.28022
1.28022
1.28022
1.28023
1.28024
1.28025
1.28026
1.28028
1.28029
1.28032
1.28034
1.28037
1.2804
1.28044
1.28048
1.28052
1.28057
1.28062
1.28067
1.28073
1.28079
1.28085
1.28092
1.28098
1.28104
1.28111
1.28117
1.28122
1.28127
1.28132
1.28135
1.28137
1.28138
1.28138
1.28136
1.28133
1.28127
1.2812
1.28112
1.28102
1.28091
1.28079
1.28067
1.28056
1.28046
1.28038
1.28034
1.28034
1.2804
1.28053
1.28075
1.28106
1.28149
1.28204
1.28273
1.28357
1.28455
1.28569
1.28697
1.28837
1.28986
1.29139
1.29289
1.2943
1.2955
1.29642
1.29697
1.29711
1.29678
1.29628
1.28041
1.28035
1.28026
1.28019
1.28015
1.28012
1.2801
1.28009
1.28008
1.28008
1.28008
1.28009
1.2801
1.2801
1.28011
1.28013
1.28014
1.28016
1.28018
1.28021
1.28024
1.28027
1.2803
1.28034
1.28039
1.28044
1.28049
1.28055
1.28061
1.28067
1.28074
1.2808
1.28087
1.28094
1.28101
1.28108
1.28114
1.2812
1.28125
1.28129
1.28132
1.28134
1.28134
1.28132
1.28129
1.28124
1.28116
1.28107
1.28096
1.28083
1.28069
1.28054
1.28039
1.28024
1.2801
1.27998
1.2799
1.27986
1.27987
1.27997
1.28014
1.28042
1.28082
1.28135
1.28202
1.28285
1.28385
1.28501
1.28634
1.28782
1.28942
1.29111
1.29282
1.29445
1.29593
1.29713
1.29792
1.29826
1.29805
1.29759
1.28024
1.28015
1.28006
1.27999
1.27996
1.27993
1.27992
1.27991
1.27991
1.27992
1.27992
1.27993
1.27994
1.27996
1.27997
1.27999
1.28001
1.28003
1.28006
1.28009
1.28012
1.28015
1.2802
1.28024
1.28029
1.28035
1.2804
1.28047
1.28053
1.2806
1.28068
1.28075
1.28083
1.2809
1.28098
1.28105
1.28112
1.28117
1.28123
1.28127
1.28129
1.2813
1.2813
1.28127
1.28123
1.28116
1.28108
1.28097
1.28084
1.28069
1.28052
1.28035
1.28017
1.27999
1.27983
1.27969
1.27958
1.27951
1.2795
1.27957
1.27973
1.27999
1.28038
1.2809
1.28157
1.28241
1.28343
1.28464
1.28603
1.2876
1.28933
1.29118
1.2931
1.29498
1.29675
1.29822
1.29932
1.29991
1.29989
1.29952
1.28003
1.27992
1.27981
1.27975
1.27972
1.2797
1.2797
1.2797
1.27971
1.27972
1.27974
1.27975
1.27977
1.27979
1.27981
1.27984
1.27986
1.27989
1.27992
1.27995
1.27999
1.28003
1.28008
1.28013
1.28019
1.28025
1.28031
1.28038
1.28046
1.28054
1.28062
1.28069
1.28077
1.28086
1.28094
1.28102
1.28109
1.28115
1.2812
1.28124
1.28127
1.28128
1.28127
1.28124
1.28119
1.28111
1.28101
1.28089
1.28075
1.28059
1.28041
1.28022
1.28003
1.27984
1.27966
1.2795
1.27938
1.27931
1.27929
1.27935
1.27951
1.27977
1.28016
1.2807
1.2814
1.28227
1.28334
1.28461
1.28609
1.28777
1.28964
1.29168
1.29382
1.29599
1.29806
1.29992
1.30135
1.30222
1.30243
1.30222
1.27973
1.27961
1.2795
1.27945
1.27942
1.27942
1.27944
1.27946
1.27948
1.27951
1.27953
1.27956
1.27959
1.27962
1.27965
1.27968
1.27971
1.27974
1.27978
1.27982
1.27986
1.27991
1.27996
1.28002
1.28008
1.28015
1.28022
1.2803
1.28038
1.28046
1.28055
1.28064
1.28073
1.28082
1.2809
1.28098
1.28106
1.28113
1.28118
1.28122
1.28125
1.28126
1.28125
1.28122
1.28116
1.28108
1.28098
1.28085
1.2807
1.28053
1.28035
1.28016
1.27996
1.27976
1.27958
1.27943
1.27931
1.27923
1.27923
1.2793
1.27947
1.27975
1.28017
1.28074
1.28149
1.28242
1.28356
1.28492
1.28651
1.28834
1.29038
1.29263
1.29502
1.29748
1.29992
1.3022
1.30405
1.30528
1.30582
1.30584
1.27935
1.27922
1.27912
1.27908
1.27908
1.2791
1.27914
1.27919
1.27923
1.27928
1.27932
1.27936
1.2794
1.27944
1.27948
1.27952
1.27956
1.2796
1.27964
1.27969
1.27974
1.27979
1.27985
1.27992
1.27998
1.28006
1.28014
1.28022
1.28031
1.2804
1.28049
1.28059
1.28068
1.28078
1.28087
1.28095
1.28103
1.2811
1.28116
1.28121
1.28124
1.28125
1.28123
1.2812
1.28115
1.28107
1.28096
1.28083
1.28068
1.28052
1.28033
1.28014
1.27995
1.27976
1.27959
1.27944
1.27934
1.27928
1.2793
1.27939
1.2796
1.27992
1.28038
1.28101
1.28181
1.28283
1.28406
1.28554
1.28727
1.28927
1.29153
1.29403
1.29673
1.29955
1.30239
1.30506
1.30744
1.30921
1.31018
1.31055
1.27885
1.27872
1.27864
1.27863
1.27867
1.27874
1.27881
1.27889
1.27897
1.27904
1.27911
1.27917
1.27922
1.27927
1.27932
1.27937
1.27942
1.27947
1.27952
1.27957
1.27963
1.27969
1.27976
1.27983
1.2799
1.27998
1.28006
1.28015
1.28025
1.28034
1.28044
1.28054
1.28064
1.28074
1.28084
1.28093
1.28101
1.28109
1.28115
1.2812
1.28123
1.28124
1.28123
1.2812
1.28114
1.28106
1.28096
1.28084
1.28069
1.28053
1.28036
1.28018
1.28
1.27982
1.27967
1.27954
1.27946
1.27943
1.27948
1.27962
1.27986
1.28023
1.28075
1.28145
1.28233
1.28344
1.28479
1.2864
1.2883
1.29049
1.29299
1.29578
1.29884
1.30209
1.30543
1.30868
1.31162
1.31398
1.31558
1.31646
1.27819
1.27808
1.27804
1.2781
1.27821
1.27834
1.27847
1.27861
1.27872
1.27882
1.27891
1.27899
1.27907
1.27913
1.27919
1.27925
1.27931
1.27937
1.27943
1.27949
1.27955
1.27961
1.27969
1.27976
1.27984
1.27993
1.28001
1.28011
1.28021
1.28031
1.28041
1.28052
1.28062
1.28072
1.28082
1.28092
1.281
1.28108
1.28114
1.28119
1.28122
1.28124
1.28123
1.2812
1.28115
1.28108
1.28098
1.28086
1.28073
1.28058
1.28041
1.28025
1.28009
1.27994
1.27981
1.27971
1.27966
1.27967
1.27976
1.27994
1.28023
1.28066
1.28125
1.28202
1.28299
1.2842
1.28566
1.28741
1.28947
1.29187
1.29461
1.29771
1.30114
1.30486
1.30877
1.31269
1.31634
1.31945
1.32188
1.32343
1.27728
1.27724
1.27729
1.27747
1.27769
1.27792
1.27813
1.27833
1.27849
1.27863
1.27875
1.27886
1.27895
1.27903
1.2791
1.27917
1.27924
1.2793
1.27937
1.27943
1.2795
1.27957
1.27965
1.27973
1.27981
1.2799
1.27999
1.28009
1.28019
1.2803
1.2804
1.28051
1.28062
1.28072
1.28082
1.28092
1.28101
1.28108
1.28115
1.2812
1.28123
1.28125
1.28124
1.28122
1.28117
1.2811
1.28101
1.2809
1.28078
1.28064
1.2805
1.28035
1.28021
1.28009
1.27999
1.27993
1.27991
1.27997
1.2801
1.28033
1.28068
1.28117
1.28183
1.28267
1.28372
1.28501
1.28658
1.28845
1.29065
1.29321
1.29616
1.29952
1.3033
1.30747
1.31196
1.31661
1.32112
1.32516
1.32862
1.3309
1.27592
1.27605
1.27634
1.27675
1.27715
1.27752
1.27784
1.2781
1.27831
1.27849
1.27865
1.27878
1.27889
1.27898
1.27907
1.27914
1.27922
1.27929
1.27936
1.27943
1.2795
1.27958
1.27966
1.27974
1.27982
1.27992
1.28001
1.28011
1.28021
1.28032
1.28043
1.28053
1.28064
1.28074
1.28084
1.28094
1.28103
1.2811
1.28117
1.28122
1.28125
1.28127
1.28126
1.28124
1.2812
1.28114
1.28106
1.28096
1.28085
1.28073
1.2806
1.28048
1.28037
1.28027
1.28021
1.28018
1.28021
1.28031
1.28049
1.28077
1.28117
1.28172
1.28243
1.28333
1.28444
1.2858
1.28743
1.28936
1.29163
1.29428
1.29734
1.30085
1.30483
1.30929
1.31422
1.3195
1.32487
1.32999
1.33481
1.33801
1.27354
1.2743
1.2752
1.276
1.27666
1.27719
1.27761
1.27795
1.27822
1.27844
1.27862
1.27877
1.2789
1.279
1.2791
1.27918
1.27926
1.27934
1.27941
1.27948
1.27956
1.27964
1.27972
1.2798
1.27989
1.27998
1.28007
1.28017
1.28027
1.28038
1.28048
1.28059
1.28069
1.2808
1.28089
1.28098
1.28107
1.28114
1.2812
1.28125
1.28128
1.2813
1.2813
1.28128
1.28124
1.28119
1.28111
1.28103
1.28093
1.28083
1.28073
1.28063
1.28054
1.28048
1.28045
1.28046
1.28053
1.28067
1.28089
1.28122
1.28166
1.28225
1.283
1.28393
1.28507
1.28644
1.28808
1.29
1.29224
1.29483
1.29782
1.30123
1.3051
1.30948
1.31438
1.31978
1.32554
1.33138
1.33759
1.34291
1.26946
1.27214
1.27414
1.2754
1.2763
1.27698
1.27751
1.27792
1.27824
1.27849
1.27869
1.27886
1.27899
1.27911
1.27921
1.2793
1.27938
1.27946
1.27954
1.27961
1.27968
1.27976
1.27984
1.27992
1.28001
1.2801
1.28019
1.28029
1.28038
1.28048
1.28058
1.28069
1.28078
1.28088
1.28097
1.28106
1.28114
1.2812
1.28126
1.28131
1.28134
1.28135
1.28135
1.28133
1.2813
1.28125
1.28118
1.28111
1.28103
1.28095
1.28086
1.28079
1.28073
1.2807
1.2807
1.28075
1.28085
1.28102
1.28128
1.28164
1.28212
1.28273
1.28349
1.28442
1.28554
1.28686
1.28842
1.29022
1.29229
1.29464
1.29729
1.30025
1.30353
1.30711
1.31099
1.31513
1.31937
1.32328
1.32642
1.3295
1.26741
1.27127
1.27368
1.27515
1.2762
1.27699
1.27759
1.27804
1.27839
1.27866
1.27888
1.27906
1.2792
1.27932
1.27943
1.27952
1.2796
1.27968
1.27975
1.27982
1.27989
1.27997
1.28004
1.28012
1.2802
1.28028
1.28037
1.28046
1.28055
1.28064
1.28073
1.28083
1.28092
1.28101
1.28109
1.28116
1.28123
1.28129
1.28134
1.28138
1.28141
1.28142
1.28141
1.2814
1.28137
1.28132
1.28127
1.28121
1.28114
1.28107
1.28101
1.28096
1.28092
1.28092
1.28095
1.28102
1.28115
1.28135
1.28164
1.28201
1.2825
1.2831
1.28384
1.28473
1.28577
1.28699
1.28839
1.28997
1.29172
1.29364
1.2957
1.29784
1.29996
1.30188
1.30325
1.30341
1.30091
1.29235
1.26899
1.20978
1.26848
1.27165
1.27383
1.2753
1.27638
1.27721
1.27785
1.27833
1.2787
1.27899
1.27921
1.27939
1.27954
1.27966
1.27977
1.27986
1.27993
1.28001
1.28007
1.28014
1.2802
1.28027
1.28033
1.2804
1.28047
1.28055
1.28062
1.2807
1.28078
1.28086
1.28094
1.28102
1.2811
1.28117
1.28124
1.2813
1.28136
1.28141
1.28145
1.28148
1.2815
1.2815
1.2815
1.28148
1.28145
1.28141
1.28136
1.2813
1.28125
1.2812
1.28115
1.28112
1.2811
1.28112
1.28117
1.28127
1.28142
1.28164
1.28192
1.2823
1.28277
1.28334
1.28403
1.28483
1.28576
1.28681
1.28798
1.28925
1.2906
1.29198
1.29332
1.2945
1.29532
1.29548
1.29445
1.29134
1.28457
1.27142
1.24761
1.2085
1.26862
1.27178
1.27405
1.27561
1.27676
1.27764
1.27832
1.27885
1.27924
1.27954
1.27977
1.27995
1.28009
1.28021
1.2803
1.28038
1.28045
1.2805
1.28056
1.28061
1.28066
1.28071
1.28076
1.28081
1.28086
1.28091
1.28097
1.28103
1.28109
1.28115
1.28121
1.28127
1.28133
1.28138
1.28143
1.28148
1.28152
1.28155
1.28158
1.2816
1.28161
1.2816