/*--------------------------------*- C++ -*----------------------------------*\
| =========                 |                                                 |
| \\      /  F ield         | OpenFOAM: The Open Source CFD Toolbox           |
|  \\    /   O peration     | Version:  v2012                                 |
|   \\  /    A nd           | Website:  www.openfoam.com                      |
|    \\/     M anipulation  |                                                 |
\*---------------------------------------------------------------------------*/
FoamFile
{
    version     2.0;
    format      ascii;
    class       surfaceScalarField;
    location    "2000";
    object      phi;
}
// * * * * * * * * * * * * * * * * * * * * * * * * * * * * * * * * * * * * * //

dimensions      [0 3 -1 0 0 0 0];
oriented        oriented;


internalField   nonuniform List<scalar> 
12722
(
2.41795e-05
0.00017582
1.31831e-05
0.000210996
6.55069e-06
0.000206632
2.88445e-06
0.000203666
2.10519e-08
0.000202863
-2.84395e-06
0.000202865
-6.51457e-06
0.000203671
-1.31554e-05
0.000206641
-2.41585e-05
0.000211003
0.000175842
3.13638e-05
0.000144457
2.67663e-05
0.000215594
1.63382e-05
0.000217061
7.52028e-06
0.000212484
6.58486e-08
0.000210318
-7.39177e-06
0.000210323
-1.62179e-05
0.000212497
-2.66626e-05
0.000217086
-3.13009e-05
0.000215641
0.000144541
2.53279e-05
0.000119129
2.73754e-05
0.000213546
1.8988e-05
0.000225448
9.26483e-06
0.000222207
1.17854e-07
0.000219465
-9.03377e-06
0.000219474
-1.8772e-05
0.000222235
-2.72002e-05
0.000225514
-2.52398e-05
0.000213681
0.000119301
1.85869e-05
0.000100542
2.47467e-05
0.000207387
1.83074e-05
0.000231887
9.33463e-06
0.00023118
1.80645e-07
0.000228619
-8.98283e-06
0.000228638
-1.79948e-05
0.000231247
-2.44998e-05
0.000232019
-1.84751e-05
0.000207656
0.000100826
1.2605e-05
8.79369e-05
2.04378e-05
0.000199554
1.64633e-05
0.000235862
8.7697e-06
0.000238874
2.61936e-07
0.000237127
-8.25892e-06
0.000237159
-1.60074e-05
0.000238995
-2.01013e-05
0.000236113
-1.24638e-05
0.000200019
8.8362e-05
8.05259e-06
7.98843e-05
1.58178e-05
0.000191789
1.44542e-05
0.000237225
8.06885e-06
0.000245259
3.73989e-07
0.000244821
-7.33566e-06
0.000244868
-1.37983e-05
0.000245458
-1.53605e-05
0.000237675
-7.87386e-06
0.000192532
8.04881e-05
5.11701e-06
7.47673e-05
1.20523e-05
0.000184853
1.22323e-05
0.000237045
7.16543e-06
0.000250326
5.00076e-07
0.000251487
-6.21515e-06
0.000251583
-1.13507e-05
0.000250593
-1.14342e-05
0.000237758
-4.87578e-06
0.000185974
7.56123e-05
3.45066e-06
7.13167e-05
9.27146e-06
0.000179033
1.02242e-05
0.000236092
6.29739e-06
0.000254253
6.90927e-07
0.000257093
-4.95868e-06
0.000257233
-9.07413e-06
0.000254709
-8.46581e-06
0.00023715
-3.13367e-06
0.000180642
7.24786e-05
2.458e-06
6.88587e-05
7.20929e-06
0.000174281
8.55206e-06
0.00023475
5.73948e-06
0.000257065
9.83834e-07
0.000261849
-3.83258e-06
0.000262049
-7.00437e-06
0.000257881
-6.17317e-06
0.000236319
-2.04915e-06
0.000176518
7.04295e-05
1.86895e-06
6.69897e-05
5.76023e-06
0.00017039
7.32186e-06
0.000233188
5.35228e-06
0.000259035
1.30611e-06
0.000265895
-2.86575e-06
0.000266221
-5.21974e-06
0.000260235
-4.37089e-06
0.00023547
-1.32111e-06
0.000173468
6.91084e-05
1.57781e-06
6.54119e-05
4.89147e-06
0.000167076
6.58218e-06
0.000231497
5.16273e-06
0.000260454
1.7428e-06
0.000269315
-1.83605e-06
0.0002698
-3.76548e-06
0.000262164
-3.02983e-06
0.000234734
-8.42693e-07
0.000171281
6.82657e-05
1.45536e-06
6.39565e-05
4.41055e-06
0.000164121
6.19558e-06
0.000229712
5.22934e-06
0.000261421
2.28138e-06
0.000272263
-7.99291e-07
0.000272881
-2.48023e-06
0.000263845
-1.97295e-06
0.000234227
-4.94156e-07
0.000169802
6.77715e-05
1.43955e-06
6.2517e-05
4.23519e-06
0.000161326
6.10376e-06
0.000227844
5.50386e-06
0.000262021
2.98176e-06
0.000274785
2.90053e-07
0.000275573
-1.23201e-06
0.000265367
-1.02361e-06
0.000234019
-1.75523e-07
0.000168954
6.7596e-05
1.48543e-06
6.10316e-05
4.25766e-06
0.000158553
6.24344e-06
0.000225858
5.99232e-06
0.000262272
3.98671e-06
0.000276791
1.59562e-06
0.000277964
1.19705e-07
0.000266843
-4.59018e-08
0.000234184
1.75355e-07
0.000168733
6.77714e-05
1.59265e-06
5.94389e-05
4.48344e-06
0.000155662
6.6917e-06
0.00022365
6.83909e-06
0.000262124
5.34428e-06
0.000278285
3.24321e-06
0.000280065
1.70685e-06
0.000268379
1.07533e-06
0.000234816
6.04448e-07
0.000169203
6.83758e-05
1.76811e-06
5.76708e-05
4.92598e-06
0.000152505
7.49109e-06
0.000221085
8.12793e-06
0.000261487
7.09873e-06
0.000279315
5.297e-06
0.000281866
3.65322e-06
0.000270023
2.46445e-06
0.000236005
1.17586e-06
0.000170492
6.95517e-05
2.00972e-06
5.56611e-05
5.58699e-06
0.000148927
8.66273e-06
0.000218009
9.89496e-06
0.000260255
9.34623e-06
0.000279863
7.86757e-06
0.000283345
6.1224e-06
0.000271768
4.29718e-06
0.00023783
1.993e-06
0.000172796
7.15447e-05
2.30725e-06
5.33538e-05
6.45224e-06
0.000144782
1.02099e-05
0.000214251
1.21803e-05
0.000258285
1.22429e-05
0.000279801
1.11855e-05
0.000284403
9.40166e-06
0.000273552
6.90573e-06
0.000240326
3.26984e-06
0.000176432
7.48145e-05
2.64225e-06
5.07116e-05
7.48486e-06
0.00013994
1.20973e-05
0.000209639
1.4972e-05
0.00025541
1.58237e-05
0.000278949
1.54093e-05
0.000284817
1.3839e-05
0.000275123
1.08071e-05
0.000243358
5.48027e-06
0.000181759
8.02948e-05
2.98725e-06
4.77243e-05
8.62225e-06
0.000134305
1.42516e-05
0.000204009
1.82313e-05
0.00025143
2.01329e-05
0.000277047
2.05607e-05
0.000284389
1.98695e-05
0.000275814
1.74642e-05
0.000245763
1.25388e-05
0.000186684
9.28335e-05
3.33626e-06
4.43881e-05
9.85905e-06
0.000127782
1.66851e-05
0.000197183
2.19993e-05
0.000246116
2.52171e-05
0.00027383
2.67672e-05
0.000282839
2.75233e-05
0.000275058
2.69799e-05
0.000246306
2.49166e-05
0.000188748
0.000103073
1.46776e-05
3.59275e-06
4.07953e-05
1.08874e-05
0.000120487
1.88535e-05
0.000189217
2.54642e-05
0.000239505
2.99615e-05
0.000269332
3.25876e-05
0.000280213
3.40807e-05
0.000273565
3.34763e-05
0.000246911
2.88895e-05
0.000193334
0.000117918
1.40439e-05
3.71143e-06
3.70839e-05
1.16437e-05
0.000112555
2.06449e-05
0.000180216
2.84532e-05
0.000231697
3.40848e-05
0.000263701
3.75038e-05
0.000276794
3.92105e-05
0.000271858
3.80358e-05
0.000248086
3.21498e-05
0.00019922
0.000131699
1.83694e-05
3.72019e-06
3.33637e-05
1.21228e-05
0.000104152
2.20301e-05
0.000170309
3.09684e-05
0.000222759
3.76724e-05
0.000256997
4.18811e-05
0.000272585
4.38919e-05
0.000269847
4.25275e-05
0.00024945
3.62277e-05
0.00020552
0.000144714
2.32128e-05
3.68489e-06
2.96788e-05
1.23874e-05
9.545e-05
2.30721e-05
0.000159624
3.30996e-05
0.000212731
4.09112e-05
0.000249185
4.60104e-05
0.000267486
4.83132e-05
0.000267544
4.71265e-05
0.000250637
4.07412e-05
0.000211906
0.000157186
2.82692e-05
3.60297e-06
2.60758e-05
1.24711e-05
8.65819e-05
2.3807e-05
0.000148288
3.48767e-05
0.000201662
4.38275e-05
0.000240234
4.98971e-05
0.000261416
5.25485e-05
0.000264893
5.17981e-05
0.000251387
4.57174e-05
0.000217986
0.000168976
3.39267e-05
3.48227e-06
2.25936e-05
1.23933e-05
7.76709e-05
2.42462e-05
0.000136435
3.62976e-05
0.00018961
4.6449e-05
0.000230083
5.35492e-05
0.000254316
5.69748e-05
0.000261467
5.67738e-05
0.000251588
5.12614e-05
0.000223499
0.000179996
4.0242e-05
3.32893e-06
1.92646e-05
1.21702e-05
6.88296e-05
2.44004e-05
0.000124205
3.73537e-05
0.000176657
4.87311e-05
0.000218706
5.70298e-05
0.000246017
6.1598e-05
0.000256899
6.22628e-05
0.000250923
5.74194e-05
0.000228342
0.000190212
4.72028e-05
3.1466e-06
1.6118e-05
1.18109e-05
6.01653e-05
2.42647e-05
0.000111751
3.80015e-05
0.00016292
5.0584e-05
0.000206123
6.02931e-05
0.000236308
6.6186e-05
0.000251006
6.79335e-05
0.000249176
6.4117e-05
0.000232158
0.000199494
5.48347e-05
2.93936e-06
1.31787e-05
1.13257e-05
5.1779e-05
2.38431e-05
9.92337e-05
3.82292e-05
0.000148534
5.20035e-05
0.000192349
6.32083e-05
0.000225104
7.06226e-05
0.000243592
7.34249e-05
0.000246373
7.11129e-05
0.000234471
0.000207532
6.30751e-05
2.71121e-06
1.04675e-05
1.07248e-05
4.37654e-05
2.31375e-05
8.68211e-05
3.80017e-05
0.00013367
5.28876e-05
0.000177463
6.56399e-05
0.000212351
7.47322e-05
0.0002345
7.90026e-05
0.000242103
7.8405e-05
0.000235068
0.000214098
7.18388e-05
2.46455e-06
8.00292e-06
1.00145e-05
3.62155e-05
2.21419e-05
7.46937e-05
3.72666e-05
0.000118545
5.31035e-05
0.000161626
6.73721e-05
0.000198083
7.82619e-05
0.00022361
8.45317e-05
0.000235833
8.57806e-05
0.000233819
0.000218858
8.10208e-05
2.20341e-06
5.79951e-06
9.20606e-06
2.92128e-05
2.08647e-05
6.30351e-05
3.59989e-05
0.000103411
5.25654e-05
0.00014506
6.82597e-05
0.000182388
8.10628e-05
0.000210807
8.95364e-05
0.00022736
9.27517e-05
0.000230604
0.000221336
9.02738e-05
1.9337e-06
3.86581e-06
8.32021e-06
2.28263e-05
1.93358e-05
5.20196e-05
3.42086e-05
8.8538e-05
5.12232e-05
0.000128045
6.81641e-05
0.000165447
8.28792e-05
0.000196092
9.36623e-05
0.000216576
9.92041e-05
0.000225062
0.000221131
9.94094e-05
1.65431e-06
2.2115e-06
7.38405e-06
1.70966e-05
1.75997e-05
4.1804e-05
3.19282e-05
7.42095e-05
4.90451e-05
0.000110928
6.69347e-05
0.000147558
8.34048e-05
0.000179622
9.65213e-05
0.00020346
0.000104861
0.000216722
0.00021825
0.000107742
1.42674e-06
7.84762e-07
6.44764e-06
1.20757e-05
1.5717e-05
3.25346e-05
2.92242e-05
6.07023e-05
4.60583e-05
9.40939e-05
6.45061e-05
0.00012911
8.24588e-05
0.000161669
9.78635e-05
0.000188055
0.000109072
0.000205514
0.000212549
0.000114773
1.19832e-06
-4.13557e-07
5.50083e-06
7.77317e-06
1.37392e-05
2.42962e-05
2.61917e-05
4.82497e-05
4.23545e-05
7.79311e-05
6.08956e-05
0.000110569
7.99098e-05
0.000142655
9.73283e-05
0.000170637
0.000111285
0.000191558
0.000203493
0.000120341
9.19125e-07
-1.33268e-06
4.54237e-06
4.14992e-06
1.17241e-05
1.71145e-05
2.29495e-05
3.70242e-05
3.80825e-05
6.27982e-05
5.62135e-05
9.24381e-05
7.57513e-05
0.000123117
9.47431e-05
0.000151645
0.000111241
0.000175059
0.000191107
0.000123627
6.12527e-07
-1.94521e-06
3.59027e-06
1.17218e-06
9.74733e-06
1.09575e-05
1.96401e-05
2.71315e-05
3.34437e-05
4.89946e-05
5.06718e-05
7.521e-05
7.01269e-05
0.000103662
9.00967e-05
0.000131675
0.000108676
0.00015648
0.00017569
0.000124093
5.14718e-07
-2.45992e-06
2.90842e-06
-1.22152e-06
7.98164e-06
5.88428e-06
1.64372e-05
1.86759e-05
2.86745e-05
3.67573e-05
4.45593e-05
5.93252e-05
6.33068e-05
8.49143e-05
8.35433e-05
0.000111439
0.000103536
0.000136488
0.000157734
0.000121492
4.19594e-07
-2.87952e-06
2.26471e-06
-3.06664e-06
6.33762e-06
1.81138e-06
1.34045e-05
1.16089e-05
2.39744e-05
2.61874e-05
3.81919e-05
4.51077e-05
5.56674e-05
6.74388e-05
7.54259e-05
9.16802e-05
9.60244e-05
0.000115889
0.000137972
0.000115787
1.60578e-07
-3.04009e-06
1.54308e-06
-4.44914e-06
4.80992e-06
-1.45545e-06
1.06097e-05
5.80915e-06
1.95197e-05
1.72774e-05
3.18849e-05
3.27426e-05
4.7648e-05
5.16757e-05
6.62372e-05
7.3091e-05
8.65782e-05
9.5548e-05
0.000117312
0.000107238
6.40285e-08
-3.10412e-06
1.04288e-06
-5.42799e-06
3.55083e-06
-3.96339e-06
8.17246e-06
1.18752e-06
1.54844e-05
9.96545e-06
2.59328e-05
2.22941e-05
3.96969e-05
3.79116e-05
5.6555e-05
5.62328e-05
7.58219e-05
7.62812e-05
9.67374e-05
9.63963e-05
7.80195e-08
-3.18214e-06
7.34992e-07
-6.08496e-06
2.53532e-06
-5.76372e-06
6.04318e-06
-2.32034e-06
1.17791e-05
4.22958e-06
2.02052e-05
1.3868e-05
3.16337e-05
2.64832e-05
4.61052e-05
4.17612e-05
6.32918e-05
5.90946e-05
7.75587e-05
8.24705e-05
-4.14166e-09
-3.178e-06
4.38688e-07
-6.52778e-06
1.77042e-06
-7.09544e-06
4.45709e-06
-5.00702e-06
8.96591e-06
-2.79237e-07
1.57479e-05
7.08604e-06
2.51769e-05
1.70541e-05
3.74611e-05
2.94771e-05
5.25426e-05
4.4013e-05
6.00698e-05
7.00316e-05
-8.49278e-08
-3.09307e-06
1.85781e-07
-6.79849e-06
1.16887e-06
-8.07853e-06
3.20561e-06
-7.04376e-06
6.68844e-06
-3.76207e-06
1.20277e-05
1.7468e-06
1.96078e-05
9.47404e-06
2.97233e-05
1.93615e-05
4.25e-05
3.12363e-05
4.47521e-05
5.78177e-05
-4.78451e-08
-3.04522e-06
1.21541e-07
-6.96787e-06
7.93501e-07
-8.75048e-06
2.27664e-06
-8.52689e-06
4.90384e-06
-6.38926e-06
9.01599e-06
-2.36536e-06
1.49648e-05
3.52525e-06
2.30676e-05
1.12587e-05
3.35493e-05
2.07547e-05
3.1827e-05
4.64745e-05
-4.34282e-08
-3.00179e-06
3.69738e-08
-7.04827e-06
4.82166e-07
-9.19567e-06
1.53804e-06
-9.58277e-06
3.47411e-06
-8.32532e-06
6.57585e-06
-5.4671e-06
1.11448e-05
-1.04368e-06
1.74807e-05
4.92274e-06
2.58413e-05
1.23941e-05
2.1275e-05
3.63933e-05
-5.92328e-08
-2.94256e-06
-7.57986e-08
-7.0317e-06
1.64566e-07
-9.43604e-06
8.66366e-07
-1.02846e-05
2.23308e-06
-9.69204e-06
4.50273e-06
-7.73674e-06
7.9306e-06
-4.47154e-06
1.27761e-05
7.7193e-08
1.92874e-05
5.88281e-06
1.28959e-05
2.76665e-05
-7.47336e-08
-2.86782e-06
-1.78753e-07
-6.92768e-06
-1.43472e-07
-9.47131e-06
1.94432e-07
-1.06225e-05
1.02782e-06
-1.05254e-05
2.58006e-06
-9.28898e-06
5.05196e-06
-6.94345e-06
8.65841e-06
-3.52925e-06
1.36142e-05
9.27061e-07
6.39546e-06
2.01146e-05
-1.18825e-07
-2.749e-06
-3.65439e-07
-6.68107e-06
-5.95725e-07
-9.24102e-06
-6.27856e-07
-1.05903e-05
-2.74662e-07
-1.08786e-05
6.27349e-07
-1.0191e-05
2.26105e-06
-8.57715e-06
4.81651e-06
-6.0847e-06
8.47134e-06
-2.72778e-06
1.4737e-06
1.33931e-05
-1.87776e-07
-2.56122e-06
-6.19147e-07
-6.24969e-06
-1.13975e-06
-8.72042e-06
-1.56668e-06
-1.01634e-05
-1.73435e-06
-1.07109e-05
-1.46383e-06
-1.04615e-05
-5.89661e-07
-9.45132e-06
1.03532e-06
-7.70968e-06
3.56725e-06
-5.2597e-06
-2.10852e-06
7.14947e-06
-2.69614e-07
-2.2916e-06
-9.0164e-07
-5.61766e-06
-1.7167e-06
-7.90535e-06
-2.54278e-06
-9.33732e-06
-3.22049e-06
-1.00332e-05
-3.58448e-06
-1.00975e-05
-3.46716e-06
-9.56863e-06
-2.72095e-06
-8.45588e-06
-1.21566e-06
-6.76499e-06
-4.4998e-06
1.17561e-06
-3.60364e-07
-1.93124e-06
-1.20205e-06
-4.77597e-06
-2.31983e-06
-6.78757e-06
-3.53557e-06
-8.12158e-06
-4.68294e-06
-8.88585e-06
-5.62797e-06
-9.15248e-06
-6.22157e-06
-8.97502e-06
-6.31596e-06
-8.3615e-06
-5.78088e-06
-7.30006e-06
-5.7821e-06
-4.49858e-06
-4.38847e-07
-1.49239e-06
-1.45512e-06
-3.75969e-06
-2.82328e-06
-5.41941e-06
-4.36776e-06
-6.5771e-06
-5.93701e-06
-7.3166e-06
-7.3909e-06
-7.69858e-06
-8.60405e-06
-7.76188e-06
-9.45201e-06
-7.51353e-06
-9.81191e-06
-6.94016e-06
-6.02455e-06
-9.56946e-06
-4.79343e-07
-1.01305e-06
-1.58406e-06
-2.65498e-06
-3.08752e-06
-3.91594e-06
-4.82767e-06
-4.83695e-06
-6.67139e-06
-5.47288e-06
-8.49962e-06
-5.87034e-06
-1.02027e-05
-6.05876e-06
-1.16719e-05
-6.04436e-06
-1.27976e-05
-5.81442e-06
-5.34585e-06
-1.34763e-05
-4.59373e-07
-5.53674e-07
-1.52635e-06
-1.58799e-06
-3.0026e-06
-2.4397e-06
-4.7534e-06
-3.08615e-06
-6.67053e-06
-3.55574e-06
-8.65928e-06
-3.8816e-06
-1.06311e-05
-4.08689e-06
-1.24969e-05
-4.17858e-06
-1.41627e-05
-4.1486e-06
-3.97887e-06
-1.55297e-05
-3.65083e-07
-1.8859e-07
-1.24442e-06
-7.08658e-07
-2.50292e-06
-1.18119e-06
-4.0433e-06
-1.54578e-06
-5.78198e-06
-1.81705e-06
-7.6482e-06
-2.01538e-06
-9.57767e-06
-2.15742e-06
-1.15061e-05
-2.25019e-06
-1.3364e-05
-2.29068e-06
-2.27042e-06
-1.50724e-05
-1.94781e-07
6.19229e-09
-7.42326e-07
-1.61111e-07
-1.60081e-06
-3.22703e-07
-2.70285e-06
-4.4373e-07
-3.98424e-06
-5.35666e-07
-5.39675e-06
-6.02862e-07
-6.89979e-06
-6.5438e-07
-8.45533e-06
-6.94647e-07
-1.00231e-05
-7.22955e-07
-7.36729e-07
-1.15568e-05
6.19251e-09
-1.54918e-07
-4.77621e-07
-9.21351e-07
-1.45702e-06
-2.05988e-06
-2.71426e-06
-3.4089e-06
-4.13186e-06
-4.86859e-06
-1.30492e-05
2.77268e-05
-1.76172e-05
4.56797e-06
-1.6298e-05
-1.31922e-06
-1.37547e-05
-2.54322e-06
-1.14342e-05
-2.32053e-06
-9.62308e-06
-1.81112e-06
-8.26051e-06
-1.36256e-06
-7.22273e-06
-1.03778e-06
-6.39768e-06
-8.25052e-07
-5.70165e-06
-6.96035e-07
-5.07479e-06
-6.26851e-07
-4.47706e-06
-5.97734e-07
-3.88538e-06
-5.91676e-07
-3.29098e-06
-5.94402e-07
-2.69673e-06
-5.94251e-07
-2.11443e-06
-5.82298e-07
-1.56204e-06
-5.5239e-07
-1.06264e-06
-4.99402e-07
-6.36024e-07
-4.26619e-07
-2.95655e-07
-3.40376e-07
-5.41246e-08
-2.41536e-07
7.64353e-08
-1.30571e-07
1.03156e-07
-2.67309e-08
5.64297e-08
4.67098e-08
5.64274e-08
-7.0025e-06
4.87733e-05
-1.84369e-05
1.60023e-05
-2.23636e-05
2.60756e-06
-2.26806e-05
-2.22628e-06
-2.14224e-05
-3.57875e-06
-1.97407e-05
-3.49274e-06
-1.80507e-05
-3.05264e-06
-1.65107e-05
-2.57771e-06
-1.50964e-05
-2.23941e-06
-1.37647e-05
-2.02765e-06
-1.2467e-05
-1.92455e-06
-1.11652e-05
-1.89954e-06
-9.83847e-06
-1.91844e-06
-8.48419e-06
-1.94868e-06
-7.11691e-06
-1.96153e-06
-5.76562e-06
-1.93359e-06
-4.46989e-06
-1.84812e-06
-3.27311e-06
-1.69619e-06
-2.22022e-06
-1.47951e-06
-1.35312e-06
-1.20749e-06
-7.00187e-07
-8.94491e-07
-2.67532e-07
-5.6325e-07
-3.99337e-08
-2.5438e-07
2.36069e-08
-1.68607e-08
8.00324e-08
9.55968e-07
6.61867e-05
-1.22386e-05
2.91969e-05
-1.96568e-05
1.00257e-05
-2.30056e-05
1.1226e-06
-2.40924e-05
-2.49193e-06
-2.38699e-05
-3.71533e-06
-2.2974e-05
-3.94849e-06
-2.1798e-05
-3.75368e-06
-2.0492e-05
-3.5454e-06
-1.90945e-05
-3.42514e-06
-1.76059e-05
-3.41318e-06
-1.60182e-05
-3.48723e-06
-1.43309e-05
-3.6058e-06
-1.25569e-05
-3.72264e-06
-1.07252e-05
-3.79322e-06
-8.87965e-06
-3.77914e-06
-7.07591e-06
-3.65186e-06
-5.37622e-06
-3.39588e-06
-3.84454e-06
-3.01119e-06
-2.53864e-06
-2.5134e-06
-1.4999e-06
-1.93324e-06
-7.4588e-07
-1.31731e-06
-2.71477e-07
-7.28799e-07
-4.41467e-08
-2.4422e-07
3.58839e-08
7.30008e-06
8.20994e-05
-6.17075e-06
4.26678e-05
-1.5258e-05
1.91129e-05
-2.06368e-05
6.50148e-06
-2.34222e-05
2.93426e-07
-2.4591e-05
-2.54652e-06
-2.48177e-05
-3.72181e-06
-2.43915e-05
-4.17981e-06
-2.35751e-05
-4.36182e-06
-2.24804e-05
-4.51986e-06
-2.11456e-05
-4.74793e-06
-1.95876e-05
-5.04531e-06
-1.7824e-05
-5.36939e-06
-1.58816e-05
-5.66505e-06
-1.38014e-05
-5.87335e-06
-1.16407e-05
-5.93993e-06
-9.47044e-06
-5.82207e-06
-7.3718e-06
-5.49452e-06
-5.42887e-06
-4.95412e-06
-3.72002e-06
-4.22225e-06
-2.30809e-06
-3.34519e-06
-1.2326e-06
-2.3928e-06
-5.06061e-07
-1.45537e-06
-1.10452e-07
-6.3984e-07
-7.45687e-08
1.33155e-05
9.7053e-05
-2.55005e-07
5.62383e-05
-1.03382e-05
2.91961e-05
-1.70675e-05
1.32307e-05
-2.12278e-05
4.45374e-06
-2.36351e-05
-1.39209e-07
-2.48753e-05
-2.48159e-06
-2.53335e-05
-3.72165e-06
-2.52135e-05
-4.48179e-06
-2.46365e-05
-5.09685e-06
-2.36788e-05
-5.70563e-06
-2.23723e-05
-6.3518e-06
-2.07406e-05
-7.00113e-06
-1.88143e-05
-7.5913e-06
-1.66401e-05
-8.04751e-06
-1.42841e-05
-8.29594e-06
-1.18316e-05
-8.27455e-06
-9.38369e-06
-7.94246e-06
-7.04964e-06
-7.28817e-06
-4.93681e-06
-6.33508e-06
-3.13887e-06
-5.14313e-06
-1.72546e-06
-3.80624e-06
-7.34848e-07
-2.44597e-06
-1.69662e-07
-1.20503e-06
-2.44231e-07
1.96823e-05
0.000111297
5.9805e-06
6.99401e-05
-4.951e-06
4.01276e-05
-1.28309e-05
2.11106e-05
-1.81893e-05
9.81209e-06
-2.17061e-05
3.37766e-06
-2.39375e-05
-2.5028e-07
-2.52662e-05
-2.39287e-06
-2.59088e-05
-3.83924e-06
-2.59928e-05
-5.01279e-06
-2.55767e-05
-6.12179e-06
-2.46932e-05
-7.23528e-06
-2.33601e-05
-8.33422e-06
-2.16013e-05
-9.35016e-06
-1.94597e-05
-1.0189e-05
-1.70038e-05
-1.07519e-05
-1.4329e-05
-1.09494e-05
-1.15562e-05
-1.07152e-05
-8.82471e-06
-1.00196e-05
-6.27955e-06
-8.88025e-06
-4.0559e-06
-7.3668e-06
-2.26425e-06
-5.59787e-06
-9.79275e-07
-3.73096e-06
-2.35235e-07
-1.94907e-06
-4.79465e-07
2.65475e-05
0.000124992
1.26871e-05
8.38005e-05
9.32759e-07
5.1882e-05
-8.0296e-06
3.0073e-05
-1.45137e-05
1.62962e-05
-1.90906e-05
7.95454e-06
-2.22899e-05
2.94906e-06
-2.44946e-05
-1.88182e-07
-2.59442e-05
-2.3896e-06
-2.67625e-05
-4.19456e-06
-2.70025e-05
-5.88174e-06
-2.66792e-05
-7.55858e-06
-2.57909e-05
-9.2225e-06
-2.43412e-05
-1.07999e-05
-2.23586e-05
-1.21716e-05
-1.99035e-05
-1.3207e-05
-1.70724e-05
-1.37805e-05
-1.40019e-05
-1.37857e-05
-1.08629e-05
-1.31587e-05
-7.84578e-06
-1.18974e-05
-5.13988e-06
-1.00727e-05
-2.91037e-06
-7.82739e-06
-1.27867e-06
-5.36264e-06
-3.07704e-07
-2.92002e-06
-7.87168e-07
3.40097e-05
0.000138185
2.00021e-05
9.78082e-05
7.45865e-06
6.44254e-05
-2.5813e-06
4.0113e-05
-1.01774e-05
2.38923e-05
-1.58035e-05
1.35806e-05
-1.99642e-05
7.10982e-06
-2.30572e-05
2.90481e-06
-2.53394e-05
-1.07415e-07
-2.69452e-05
-2.58873e-06
-2.79244e-05
-4.90251e-06
-2.8275e-05
-7.208e-06
-2.79693e-05
-9.52823e-06
-2.69743e-05
-1.17949e-05
-2.52928e-05
-1.38531e-05
-2.29663e-05
-1.55335e-05
-2.0077e-05
-1.66698e-05
-1.67647e-05
-1.70981e-05
-1.32266e-05
-1.66967e-05
-9.70278e-06
-1.54212e-05
-6.44853e-06
-1.33269e-05
-3.70103e-06
-1.05749e-05
-1.64666e-06
-7.417e-06
-3.96563e-07
-4.17009e-06
-1.18373e-06
4.21994e-05
0.00015082
2.81158e-05
0.000111892
1.48429e-05
7.76983e-05
3.7071e-06
5.12488e-05
-5.03312e-06
3.26326e-05
-1.17312e-05
2.02786e-05
-1.68653e-05
1.22439e-05
-2.08507e-05
6.89024e-06
-2.39745e-05
3.01637e-06
-2.63935e-05
-1.69785e-07
-2.81631e-05
-3.13289e-06
-2.92731e-05
-6.09799e-06
-2.96771e-05
-9.12418e-06
-2.92932e-05
-1.21789e-05
-2.80732e-05
-1.50731e-05
-2.60406e-05
-1.75661e-05
-2.3241e-05
-1.94695e-05
-1.97953e-05
-2.05437e-05
-1.59123e-05
-2.05797e-05
-1.18769e-05
-1.94567e-05
-8.01898e-06
-1.71848e-05
-4.66871e-06
-1.39251e-05
-2.10655e-06
-9.97912e-06
-5.24068e-07
-5.75254e-06
-1.70779e-06
5.11904e-05
0.000162705
3.71912e-05
0.000125891
2.32982e-05
9.15914e-05
1.10825e-05
6.34645e-05
1.13844e-06
4.25766e-05
-6.68154e-06
2.80986e-05
-1.28189e-05
1.83813e-05
-1.77042e-05
1.17756e-05
-2.16643e-05
6.97641e-06
-2.48937e-05
3.05963e-06
-2.74688e-05
-5.578e-07
-2.93783e-05
-4.18846e-06
-3.05582e-05
-7.94425e-06
-3.0932e-05
-1.18051e-05
-3.03779e-05
-1.56271e-05
-2.8836e-05
-1.9108e-05
-2.63313e-05
-2.19741e-05
-2.2932e-05
-2.3943e-05
-1.88301e-05
-2.46816e-05
-1.43389e-05
-2.39479e-05
-9.8622e-06
-2.16615e-05
-5.84009e-06
-1.79472e-05
-2.67756e-06
-1.31416e-05
-6.77969e-07
-7.75211e-06
-2.38576e-06
6.09732e-05
0.000173571
4.73171e-05
0.000139547
3.29987e-05
0.00010591
1.97833e-05
7.668e-05
8.59905e-06
5.37608e-05
-4.20976e-07
3.71186e-05
-7.61101e-06
2.55713e-05
-1.34146e-05
1.75792e-05
-1.8201e-05
1.17629e-05
-2.22174e-05
7.07598e-06
-2.55824e-05
2.80724e-06
-2.83056e-05
-1.46531e-06
-3.0317e-05
-5.93276e-06
-3.15117e-05
-1.06105e-05
-3.17622e-05
-1.53766e-05
-3.09392e-05
-1.9931e-05
-2.89833e-05
-2.39301e-05
-2.58861e-05
-2.70402e-05
-2.17808e-05
-2.87869e-05
-1.69777e-05
-2.8751e-05
-1.19362e-05
-2.6703e-05
-7.21342e-06
-2.26699e-05
-3.37179e-06
-1.69832e-05
-8.73009e-07
-1.02509e-05
-3.25877e-06
7.14997e-05
0.000183092
5.8521e-05
0.000152526
4.40668e-05
0.000120364
3.002e-05
9.07268e-05
1.76203e-05
6.61605e-05
7.32209e-06
4.74169e-05
-1.00516e-06
3.38986e-05
-7.76646e-06
2.43405e-05
-1.33767e-05
1.73731e-05
-1.8144e-05
1.18433e-05
-2.22499e-05
6.91314e-06
-2.57533e-05
2.03808e-06
-2.86102e-05
-3.07584e-06
-3.07046e-05
-8.51616e-06
-3.1877e-05
-1.42041e-05
-3.19218e-05
-1.98862e-05
-3.07401e-05
-2.51118e-05
-2.82552e-05
-2.95251e-05
-2.44489e-05
-3.25931e-05
-1.95839e-05
-3.3616e-05
-1.41313e-05
-3.21556e-05
-8.74999e-06
-2.80512e-05
-4.18455e-06
-2.15486e-05
-1.10988e-06
-1.33255e-05
-4.36865e-06
8.25418e-05
0.000190824
7.06951e-05
0.000164373
5.65218e-05
0.000134537
4.19363e-05
0.000105312
2.84406e-05
7.96562e-05
1.68354e-05
5.90221e-05
7.26447e-06
4.34695e-05
-5.4188e-07
3.21468e-05
-7.00328e-06
2.38345e-05
-1.24963e-05
1.73363e-05
-1.72773e-05
1.16942e-05
-2.14772e-05
6.23794e-06
-2.51092e-05
5.56194e-07
-2.80879e-05
-5.53742e-06
-3.02568e-05
-1.20353e-05
-3.13879e-05
-1.87551e-05
-3.12042e-05
-2.52954e-05
-2.95648e-05
-3.11645e-05
-2.64148e-05
-3.57431e-05
-2.1844e-05
-3.81868e-05
-1.62569e-05
-3.77426e-05
-1.03639e-05
-3.39442e-05
-5.09488e-06
-2.68176e-05
-1.39425e-06
-1.70261e-05
-5.76289e-06
9.38239e-05
0.000196409
8.3608e-05
0.000174589
7.02429e-05
0.000147902
5.55572e-05
0.000119998
4.12251e-05
9.39882e-05
2.83763e-05
7.1871e-05
1.7485e-05
5.43608e-05
8.50281e-06
4.1129e-05
1.0954e-06
3.12419e-05
-5.14744e-06
2.35791e-05
-1.05648e-05
1.71116e-05
-1.53743e-05
1.10474e-05
-1.96674e-05
4.84934e-06
-2.34209e-05
-1.78395e-06
-2.65093e-05
-8.94688e-06
-2.87238e-05
-1.65406e-05
-2.97525e-05
-2.42667e-05
-2.93056e-05
-3.16114e-05
-2.71945e-05
-3.78542e-05
-2.33559e-05
-4.20254e-05
-1.8038e-05
-4.30605e-05
-1.19115e-05
-4.00708e-05
-6.05178e-06
-3.26773e-05
-1.71817e-06
-2.13597e-05
-7.48106e-06
0.000104862
0.000199289
9.68685e-05
0.000182582
8.49417e-05
0.000159829
7.07463e-05
0.000134193
5.6012e-05
0.000108723
4.2131e-05
8.57519e-05
2.99262e-05
6.65657e-05
1.96477e-05
5.14075e-05
1.11351e-05
3.97545e-05
4.0284e-06
3.06859e-05
-2.06203e-06
2.3202e-05
-7.44583e-06
1.64312e-05
-1.23123e-05
9.71586e-06
-1.67249e-05
2.62863e-06
-2.06273e-05
-5.04452e-06
-2.38488e-05
-1.33191e-05
-2.61123e-05
-2.20032e-05
-2.70566e-05
-3.0667e-05
-2.63285e-05
-3.85822e-05
-2.36777e-05
-4.46763e-05
-1.91352e-05
-4.7603e-05
-1.31955e-05
-4.60105e-05
-6.97165e-06
-3.89011e-05
-2.06084e-06
-2.62705e-05
-9.5419e-06
0.00011505
0.000199012
0.000109884
0.000187748
0.000100116
0.000169597
8.7147e-05
0.000147163
7.26392e-05
0.00012323
5.81421e-05
0.000100249
4.47892e-05
7.99185e-05
3.31722e-05
6.30245e-05
2.33947e-05
4.9532e-05
1.52354e-05
3.88452e-05
8.32968e-06
3.01077e-05
2.31246e-06
2.24484e-05
-3.10281e-06
1.51311e-05
-8.08613e-06
7.61195e-06
-1.26818e-05
-4.48872e-07
-1.6801e-05
-9.19987e-06
-2.02232e-05
-1.8581e-05
-2.25983e-05
-2.82919e-05
-2.34725e-05
-3.77079e-05
-2.23908e-05
-4.5758e-05
-1.91705e-05
-5.08232e-05
-1.39756e-05
-5.12053e-05
-7.75656e-06
-4.51202e-05
-2.41155e-06
-3.16155e-05
-1.19534e-05
0.000123832
0.00019552
0.000121982
0.000189598
0.000115072
0.000176507
0.000104149
0.000158085
9.0675e-05
0.000136705
7.62135e-05
0.000114711
6.21125e-05
9.40195e-05
4.92889e-05
7.58481e-05
3.81688e-05
6.06521e-05
2.87656e-05
4.82484e-05
2.08303e-05
3.8043e-05
1.40076e-05
2.92711e-05
7.95377e-06
2.1185e-05
2.40309e-06
1.31626e-05
-2.79917e-06
4.75339e-06
-7.68559e-06
-4.31345e-06
-1.2136e-05
-1.41306e-05
-1.58723e-05
-2.45556e-05
-1.84462e-05
-3.5134e-05
-1.92663e-05
-4.49379e-05
-1.7792e-05
-5.22975e-05
-1.3961e-05
-5.50363e-05
-8.29467e-06
-5.07865e-05
-2.74961e-06
-3.71606e-05
-1.47031e-05
0.000130537
0.000188611
0.000132337
0.000187798
0.000128917
0.000179927
0.000120881
0.000166122
0.000109371
0.000148214
9.58187e-05
0.000128263
8.16473e-05
0.000108191
6.80168e-05
8.94786e-05
5.5675e-05
7.29939e-05
4.49362e-05
5.89872e-05
3.57637e-05
4.72155e-05
2.79038e-05
3.7131e-05
2.10184e-05
2.80704e-05
1.47835e-05
1.93976e-05
8.94949e-06
1.05874e-05
3.37314e-06
1.26291e-06
-1.96345e-06
-8.79401e-06
-6.90644e-06
-1.96126e-05
-1.11031e-05
-3.09374e-05
-1.3958e-05
-4.2083e-05
-1.46292e-05
-5.16263e-05
-1.27294e-05
-5.69362e-05
-8.32474e-06
-5.51911e-05
-2.98765e-06
-4.24976e-05
-1.76907e-05
0.000134551
0.000178152
0.00014018
0.00018217
0.000140694
0.000179412
0.000136276
0.00017054
0.000127672
0.000156819
0.000116048
0.000139887
0.000102743
0.000121496
8.90216e-05
0.0001032
7.58837e-05
8.61318e-05
6.39505e-05
7.09204e-05
5.34643e-05
5.77017e-05
4.43669e-05
4.62284e-05
3.64156e-05
3.60217e-05
2.9294e-05
2.65191e-05
2.26968e-05
1.71846e-05
1.63868e-05
7.57295e-06
1.02231e-05
-2.63025e-06
4.20689e-06
-1.35964e-05
-1.45971e-06
-2.52708e-05
-6.31619e-06
-3.72265e-05
-9.58079e-06
-4.83617e-05
-1.01859e-05
-5.63311e-05
-7.62789e-06
-5.77491e-05
-3.08152e-06
-4.7044e-05
-2.07722e-05
0.000135245
0.000164399
0.00014475
0.000172664
0.000149434
0.000174729
0.000149191
0.000170783
0.000144308
0.000161702
0.00013564
0.000148555
0.000124294
0.000132842
0.000111482
0.000116012
9.83239e-05
9.92904e-05
8.56806e-05
8.35637e-05
7.40787e-05
6.93036e-05
6.37175e-05
5.65896e-05
5.45379e-05
4.52013e-05
4.63175e-05
3.47395e-05
3.87633e-05
2.47388e-05
3.15842e-05
1.47521e-05
2.45477e-05
4.40624e-06
1.75103e-05
-6.55904e-06
1.04928e-05
-1.82533e-05
3.76028e-06
-3.0494e-05
-2.03876e-06
-4.25627e-05
-5.66675e-06
-5.27031e-05
-6.10635e-06
-5.73095e-05
-3.17117e-06
-4.99792e-05
-2.39434e-05
0.000132304
0.000147882
0.00014541
0.000159558
0.000154267
0.000165872
0.000158411
0.000166638
0.000157887
0.000162226
0.000153095
0.000153347
0.000144799
0.000141137
0.000134049
0.000126762
0.000121939
0.000111401
0.000109442
9.60608e-05
9.72998e-05
8.1446e-05
8.59679e-05
6.79216e-05
7.56232e-05
5.5546e-05
6.62168e-05
4.4146e-05
5.75486e-05
3.34069e-05
4.93443e-05
2.29564e-05
4.13192e-05
1.24313e-05
3.32301e-05
1.53002e-06
2.49255e-05
-9.9487e-06
1.64574e-05
-2.20258e-05
8.23282e-06
-3.43381e-05
1.20636e-06
-4.56766e-05
-3.10357e-06
-5.29996e-05
-2.71961e-06
-5.03631e-05
-2.6663e-05
0.000125742
0.000129378
0.000141868
0.000143432
0.000154586
0.000153154
0.000163214
0.00015801
0.000167336
0.000158104
0.000166906
0.000153777
0.000162538
0.000145505
0.000154974
0.000134326
0.000145111
0.000121264
0.000133895
0.000107277
0.000122159
9.31817e-05
0.000110543
7.95371e-05
9.94526e-05
6.66367e-05
8.90506e-05
5.4548e-05
7.92983e-05
4.31592e-05
7.00127e-05
3.2242e-05
6.09249e-05
2.15191e-05
5.17358e-05
1.07191e-05
4.21634e-05
-3.76325e-07
3.20215e-05
-1.18839e-05
2.13778e-05
-2.36944e-05
1.08763e-05
-3.51751e-05
2.21228e-06
-4.43355e-05
-1.81102e-06
-4.63398e-05
-2.8474e-05
0.000115914
0.00010986
0.000134155
0.000125191
0.000149971
0.000137339
0.000162422
0.00014556
0.000170989
0.000149537
0.000175426
0.00014934
0.000175704
0.000145227
0.00017227
0.00013776
0.000165786
0.000127747
0.000157078
0.000115986
0.000146941
0.000103319
0.000136084
9.03934e-05
0.000125069
7.76521e-05
0.000114249
6.53685e-05
0.000103772
5.36354e-05
9.36091e-05
4.24053e-05
8.35824e-05
3.15458e-05
7.34111e-05
2.08904e-05
6.27484e-05
1.02863e-05
5.12274e-05
-3.62797e-07
3.85547e-05
-1.10217e-05
2.47564e-05
-2.13768e-05
1.08433e-05
-3.04224e-05
-1.34557e-07
-3.5362e-05
-2.86086e-05
0.00010158
9.07502e-05
0.000120482
0.000106289
0.000138081
0.000119739
0.000153378
0.000130263
0.000165609
0.000137306
0.0001743
0.000140649
0.000179249
0.000140277
0.00018041
0.0001366
0.000178148
0.000130009
0.000173098
0.000121036
0.000165831
0.000110586
0.000157061
9.91632e-05
0.0001474
8.73135e-05
0.000137297
7.5471e-05
0.000127051
6.38815e-05
0.000116792
5.26642e-05
0.000106492
4.18464e-05
9.59844e-05
3.13976e-05
8.49913e-05
2.12794e-05
7.31318e-05
1.14967e-05
5.99722e-05
2.1379e-06
4.51126e-05
-6.51723e-06
2.85035e-05
-1.38134e-05
1.13811e-05
-1.82396e-05
-1.60767e-05
-1.15081e-06
8.82167e-05
7.25651e-05
0.000107083
8.74226e-05
0.000125666
0.000101156
0.000142984
0.000112946
0.000158165
0.000122125
0.000170548
0.000128266
0.000179679
0.000131146
0.000185562
0.000130716
0.00018794
0.00012763
0.000186845
0.000122132