/*--------------------------------*- C++ -*----------------------------------*\
| =========                 |                                                 |
| \\      /  F ield         | OpenFOAM: The Open Source CFD Toolbox           |
|  \\    /   O peration     | Version:  v2012                                 |
|   \\  /    A nd           | Website:  www.openfoam.com                      |
|    \\/     M anipulation  |                                                 |
\*---------------------------------------------------------------------------*/
FoamFile
{
    version     2.0;
    format      ascii;
    class       volVectorField;
    location    "2000";
    object      U;
}
// * * * * * * * * * * * * * * * * * * * * * * * * * * * * * * * * * * * * * //

dimensions      [0 1 -1 0 0 0 0];


internalField   nonuniform List<vector> 
6502
(
(0.048136 -0.883302 0)
(0.0712645 -1.01115 0)
(0.0424043 -1.00997 0)
(0.0190283 -1.00546 0)
(0.00572057 -1.00423 0)
(-0.00555434 -1.00423 0)
(-0.0188737 -1.00547 0)
(-0.0422717 -1.00998 0)
(-0.0711845 -1.01116 0)
(-0.0480793 -0.883334 0)
(0.0977673 -0.790233 0)
(0.131892 -1.07103 0)
(0.086131 -1.05467 0)
(0.0444763 -1.03439 0)
(0.0143107 -1.02752 0)
(-0.013786 -1.02753 0)
(-0.0439744 -1.03443 0)
(-0.0856855 -1.05474 0)
(-0.131522 -1.07109 0)
(-0.0976427 -0.790462 0)
(0.0793881 -0.662865 0)
(0.123075 -1.08151 0)
(0.0972383 -1.1074 0)
(0.0543534 -1.08428 0)
(0.0179298 -1.07137 0)
(-0.0169911 -1.07141 0)
(-0.0534449 -1.08437 0)
(-0.0964242 -1.1076 0)
(-0.122519 -1.08193 0)
(-0.0792562 -0.663466 0)
(0.0427009 -0.542922 0)
(0.107915 -1.0568 0)
(0.0916752 -1.14539 0)
(0.055018 -1.13488 0)
(0.0184984 -1.12036 0)
(-0.0170591 -1.12042 0)
(-0.0536427 -1.13508 0)
(-0.090553 -1.14588 0)
(-0.107115 -1.05774 0)
(-0.042624 -0.544042 0)
(0.0169235 -0.464191 0)
(0.087332 -1.01862 0)
(0.0791735 -1.17522 0)
(0.0515028 -1.17739 0)
(0.0179616 -1.16567 0)
(-0.0158679 -1.1658 0)
(-0.0495176 -1.17786 0)
(-0.0775344 -1.17603 0)
(-0.0863472 -1.02036 0)
(-0.0167546 -0.465933 0)
(0.00554049 -0.415652 0)
(0.0629307 -0.977672 0)
(0.0670605 -1.18442 0)
(0.0470405 -1.21206 0)
(0.0170946 -1.20609 0)
(-0.0141031 -1.20628 0)
(-0.0441934 -1.21278 0)
(-0.0646805 -1.18615 0)
(-0.0617427 -0.980606 0)
(-0.00524943 -0.418181 0)
(0.00159905 -0.384589 0)
(0.0424076 -0.940267 0)
(0.0561805 -1.18677 0)
(0.0412658 -1.23994 0)
(0.0158424 -1.2419 0)
(-0.0118339 -1.24226 0)
(-0.0376496 -1.24139 0)
(-0.0529061 -1.1896 0)
(-0.0407923 -0.944812 0)
(-0.00120446 -0.388142 0)
(0.000532192 -0.363983 0)
(0.0287757 -0.90855 0)
(0.0469006 -1.18384 0)
(0.0352612 -1.26331 0)
(0.0146934 -1.27273 0)
(-0.00918313 -1.27326 0)
(-0.0301986 -1.2643 0)
(-0.0427307 -1.18809 0)
(-0.0266056 -0.91523 0)
(-5.1728e-05 -0.368911 0)
(0.000313239 -0.34968 0)
(0.0203059 -0.882267 0)
(0.0383835 -1.17767 0)
(0.030903 -1.27984 0)
(0.0142137 -1.29852 0)
(-0.00640271 -1.29937 0)
(-0.0235945 -1.28339 0)
(-0.0332526 -1.18406 0)
(-0.0173796 -0.89169 0)
(0.000285896 -0.356402 0)
(0.000379434 -0.339175 0)
(0.0153178 -0.860844 0)
(0.0312612 -1.17001 0)
(0.0280696 -1.2909 0)
(0.0141805 -1.32022 0)
(-0.00377621 -1.32151 0)
(-0.0185547 -1.2958 0)
(-0.0242939 -1.1794 0)
(-0.0113334 -0.873861 0)
(0.00040013 -0.348248 0)
(0.0006053 -0.330763 0)
(0.0127075 -0.843087 0)
(0.026581 -1.16184 0)
(0.0264657 -1.29931 0)
(0.0146961 -1.33877 0)
(-0.000817055 -1.3407 0)
(-0.0137754 -1.30633 0)
(-0.0171435 -1.17529 0)
(-0.00736687 -0.860944 0)
(0.000406942 -0.343001 0)
(0.000844797 -0.323329 0)
(0.0114875 -0.827693 0)
(0.0238197 -1.15318 0)
(0.025954 -1.30524 0)
(0.0157147 -1.35429 0)
(0.00251826 -1.35728 0)
(-0.00903748 -1.31534 0)
(-0.0113999 -1.17214 0)
(-0.00449151 -0.851935 0)
(0.000445973 -0.339722 0)
(0.00106629 -0.316179 0)
(0.0111276 -0.813497 0)
(0.0227634 -1.14402 0)
(0.0262863 -1.30913 0)
(0.017388 -1.36837 0)
(0.0063509 -1.37157 0)
(-0.00411824 -1.32324 0)
(-0.00630234 -1.17026 0)
(-0.00194884 -0.846184 0)
(0.000580786 -0.338071 0)
(0.00127577 -0.308934 0)
(0.0113448 -0.799734 0)
(0.0227028 -1.13444 0)
(0.0274065 -1.31119 0)
(0.0202537 -1.37965 0)
(0.0112225 -1.38422 0)
(0.00151638 -1.33054 0)
(-0.0011636 -1.17005 0)
(0.000708665 -0.843486 0)
(0.000912525 -0.338055 0)
(0.00151299 -0.301306 0)
(0.0120991 -0.785739 0)
(0.0237575 -1.12408 0)
(0.0297177 -1.31148 0)
(0.0248573 -1.38831 0)
(0.0173952 -1.39551 0)
(0.00836254 -1.33797 0)
(0.00461424 -1.17191 0)
(0.00383868 -0.844003 0)
(0.00143612 -0.339896 0)
(0.0017945 -0.292976 0)
(0.0134045 -0.770797 0)
(0.0260701 -1.11233 0)
(0.0335303 -1.30963 0)
(0.0313346 -1.39444 0)
(0.0251147 -1.40514 0)
(0.0167845 -1.34583 0)
(0.0116178 -1.17632 0)
(0.00785013 -0.848213 0)
(0.00222581 -0.344166 0)
(0.00211228 -0.283602 0)
(0.0152364 -0.754143 0)
(0.0296532 -1.09843 0)
(0.0391433 -1.30512 0)
(0.0396975 -1.39852 0)
(0.034895 -1.41336 0)
(0.0273365 -1.35428 0)
(0.0205751 -1.18372 0)
(0.0133456 -0.856931 0)
(0.00347275 -0.351812 0)
(0.00244728 -0.272869 0)
(0.0175315 -0.735014 0)
(0.0344244 -1.08156 0)
(0.0466536 -1.29731 0)
(0.0503353 -1.39993 0)
(0.0475325 -1.41986 0)
(0.0410833 -1.36313 0)
(0.0327369 -1.19436 0)
(0.0215375 -0.871194 0)
(0.0055884 -0.364163 0)
(0.00276893 -0.260533 0)
(0.0201679 -0.712696 0)
(0.0401985 -1.06085 0)
(0.055939 -1.28542 0)
(0.0633448 -1.39791 0)
(0.0632197 -1.42395 0)
(0.0592046 -1.37191 0)
(0.049912 -1.20823 0)
(0.0342085 -0.892984 0)
(0.0104367 -0.385947 0)
(0.00303673 -0.246466 0)
(0.0229503 -0.686608 0)
(0.0466714 -1.03545 0)
(0.0667104 -1.26854 0)
(0.0787458 -1.39129 0)
(0.0820165 -1.42355 0)
(0.0822506 -1.37827 0)
(0.0756931 -1.22302 0)
(0.0598847 -0.918657 0)
(0.0371739 -0.406928 0)
(0.00321119 -0.230618 0)
(0.0256136 -0.656243 0)
(0.0533625 -1.00445 0)
(0.0783266 -1.24554 0)
(0.0958396 -1.3789 0)
(0.103567 -1.41982 0)
(0.108826 -1.37893 0)
(0.108911 -1.23244 0)
(0.10198 -0.942189 0)
(0.0924996 -0.50229 0)
(0.00323322 -0.213213 0)
(0.0277812 -0.621588 0)
(0.0594408 -0.967439 0)
(0.0894289 -1.21576 0)
(0.112143 -1.35973 0)
(0.124648 -1.40931 0)
(0.13323 -1.37307 0)
(0.135497 -1.23453 0)
(0.128152 -0.95687 0)
(0.099634 -0.558835 0)
(0.00271441 -0.194865 0)
(0.0291662 -0.583345 0)
(0.0642085 -0.924867 0)
(0.0989044 -1.17956 0)
(0.126267 -1.33408 0)
(0.143048 -1.39368 0)
(0.153772 -1.36414 0)
(0.155676 -1.23693 0)
(0.145279 -0.979158 0)
(0.110115 -0.621413 0)
(0.00206058 -0.176184 0)
(0.0297874 -0.54231 0)
(0.0675713 -0.877413 0)
(0.106607 -1.13755 0)
(0.138485 -1.30309 0)
(0.159308 -1.37441 0)
(0.172362 -1.35453 0)
(0.174445 -1.2432 0)
(0.162009 -1.01051 0)
(0.125149 -0.69047 0)
(0.0018307 -0.157593 0)
(0.029812 -0.499356 0)
(0.069752 -0.825765 0)
(0.11278 -1.09008 0)
(0.149249 -1.26685 0)
(0.174445 -1.35126 0)
(0.189443 -1.3434 0)
(0.192935 -1.25062 0)
(0.179824 -1.04387 0)
(0.142891 -0.755869 0)
(0.00172096 -0.139335 0)
(0.0293836 -0.455266 0)
(0.0709161 -0.770556 0)
(0.117535 -1.03729 0)
(0.15859 -1.22505 0)
(0.188538 -1.32367 0)
(0.205531 -1.33182 0)
(0.210987 -1.25578 0)
(0.198803 -1.07548 0)
(0.163297 -0.816428 0)
(0.00162684 -0.121585 0)
(0.028596 -0.410678 0)
(0.0711489 -0.712419 0)
(0.120924 -0.979406 0)
(0.166441 -1.17733 0)
(0.201451 -1.29054 0)
(0.22189 -1.31743 0)
(0.229641 -1.25824 0)
(0.219506 -1.10444 0)
(0.186496 -0.873285 0)
(0.0015317 -0.104518 0)
(0.0275108 -0.366164 0)
(0.0705122 -0.652031 0)
(0.122931 -0.916775 0)
(0.172852 -1.12355 0)
(0.213063 -1.25264 0)
(0.238225 -1.29739 0)
(0.249938 -1.25778 0)
(0.24244 -1.1304 0)
(0.212393 -0.926435 0)
(0.00142967 -0.0882934 0)
(0.0261614 -0.322271 0)
(0.0690362 -0.590126 0)
(0.12347 -0.849892 0)
(0.177574 -1.06362 0)
(0.223152 -1.20764 0)
(0.253988 -1.27148 0)
(0.270431 -1.25143 0)
(0.267052 -1.15293 0)
(0.240799 -0.975585 0)
(0.00132019 -0.0730461 0)
(0.0245818 -0.279523 0)
(0.0667729 -0.527493 0)
(0.122536 -0.779394 0)
(0.180463 -0.997664 0)
(0.231585 -1.15545 0)
(0.268945 -1.2385 0)
(0.289851 -1.23987 0)
(0.291983 -1.1685 0)
(0.271119 -1.01933 0)
(0.00120418 -0.0588895 0)
(0.0228015 -0.238406 0)
(0.0637616 -0.46495 0)
(0.120087 -0.706033 0)
(0.181265 -0.925888 0)
(0.237808 -1.09562 0)
(0.282237 -1.1975 0)
(0.308921 -1.22394 0)
(0.317498 -1.17631 0)
(0.303101 -1.05591 0)
(0.00108179 -0.0459216 0)
(0.0208406 -0.199384 0)
(0.0600226 -0.40337 0)
(0.116043 -0.630767 0)
(0.179646 -0.84885 0)
(0.2412 -1.02801 0)
(0.292623 -1.14766 0)
(0.326965 -1.19749 0)
(0.342946 -1.17462 0)
(0.336139 -1.0851 0)
(0.000958667 -0.0342291 0)
(0.0187328 -0.162899 0)
(0.0556154 -0.343673 0)
(0.110406 -0.554785 0)
(0.175398 -0.767517 0)
(0.241334 -0.952926 0)
(0.299592 -1.08849 0)
(0.342547 -1.16077 0)
(0.366443 -1.16328 0)
(0.368487 -1.10335 0)
(0.000838615 -0.0238898 0)
(0.016531 -0.129341 0)
(0.0506567 -0.286771 0)
(0.10329 -0.479411 0)
(0.16846 -0.683165 0)
(0.237807 -0.871046 0)
(0.302432 -1.01964 0)
(0.354306 -1.11286 0)
(0.387176 -1.14283 0)
(0.399466 -1.11041 0)
(0.000747954 -0.0149046 0)
(0.0142744 -0.0990069 0)
(0.0452946 -0.233505 0)
(0.094886 -0.406047 0)
(0.158888 -0.59737 0)
(0.230276 -0.783539 0)
(0.30033 -0.941423 0)
(0.360711 -1.05311 0)
(0.403879 -1.10808 0)
(0.426951 -1.10076 0)
(0.00129529 -0.00714457 0)
(0.0120515 -0.0720636 0)
(0.039727 -0.184624 0)
(0.0854797 -0.336114 0)
(0.146929 -0.511985 0)
(0.218701 -0.692139 0)
(0.292819 -0.854916 0)
(0.360809 -0.981595 0)
(0.414822 -1.05922 0)
(0.448841 -1.0816 0)
(0.00167884 -0.000607323 0)
(0.00984936 -0.0487426 0)
(0.0340891 -0.140762 0)
(0.0753849 -0.27094 0)
(0.13301 -0.429 0)
(0.203359 -0.599034 0)
(0.279699 -0.761883 0)
(0.353807 -0.899104 0)
(0.417694 -0.996146 0)
(0.464028 -1.04446 0)
(0.00104252 0.00462254 0)
(0.00774963 -0.0289696 0)
(0.0285158 -0.102199 0)
(0.0649527 -0.211568 0)
(0.117706 -0.350335 0)
(0.184844 -0.506704 0)
(0.261231 -0.664756 0)
(0.339467 -0.807405 0)
(0.411633 -0.919569 0)
(0.470062 -0.990588 0)
(0.000250842 0.00843144 0)
(0.00549985 -0.0125713 0)
(0.0231866 -0.0688935 0)
(0.0546132 -0.158664 0)
(0.101726 -0.277652 0)
(0.164049 -0.417697 0)
(0.238184 -0.566465 0)
(0.318076 -0.709147 0)
(0.396302 -0.831166 0)
(0.465171 -0.920655 0)
(0.000359626 0.0112825 0)
(0.00451756 0.000856012 0)
(0.0186855 -0.0407798 0)
(0.0449581 -0.112705 0)
(0.0858765 -0.212301 0)
(0.14206 -0.334402 0)
(0.211758 -0.470172 0)
(0.290544 -0.607672 0)
(0.372016 -0.733772 0)
(0.448836 -0.836436 0)
(0.000272741 0.0135286 0)
(0.00367922 0.0114189 0)
(0.0144134 -0.0180629 0)
(0.0360187 -0.0740009 0)
(0.0706855 -0.155222 0)
(0.119925 -0.258811 0)
(0.183405 -0.37895 0)
(0.258392 -0.506733 0)
(0.339925 -0.631185 0)
(0.421518 -0.741059 0)
(-0.000860751 0.0149554 0)
(0.00207122 0.0193671 0)
(0.0104677 0.000127571 0)
(0.0278547 -0.0420012 0)
(0.0565843 -0.106592 0)
(0.0986123 -0.192207 0)
(0.154668 -0.295384 0)
(0.223565 -0.410038 0)
(0.30197 -0.527723 0)
(0.384702 -0.638749 0)
(-0.000895739 0.0155083 0)
(0.00119011 0.0251404 0)
(0.00736176 0.0144505 0)
(0.0209216 -0.0160759 0)
(0.0441017 -0.066155 0)
(0.0790042 -0.135174 0)
(0.127013 -0.221317 0)
(0.188152 -0.320818 0)
(0.26064 -0.427731 0)
(0.340831 -0.534397 0)
(-0.00035958 0.0158222 0)
(0.000993527 0.0291474 0)
(0.00512308 0.0250368 0)
(0.0154082 0.00400571 0)
(0.0336537 -0.0337985 0)
(0.0619234 -0.0881966 0)
(0.101913 -0.158372 0)
(0.154454 -0.24223 0)
(0.219033 -0.335943 0)
(0.293517 -0.433963 0)
(-0.000309299 0.0159556 0)
(0.000240065 0.0317505 0)
(0.00337753 0.0326835 0)
(0.0110108 0.019259 0)
(0.0251461 -0.00844849 0)
(0.0475887 -0.0504254 0)
(0.0800943 -0.106382 0)
(0.123947 -0.175283 0)
(0.179537 -0.254891 0)
(0.246017 -0.341521 0)
(-0.000271831 0.0157173 0)
(-0.000551092 0.0335294 0)
(0.00201269 0.0383858 0)
(0.00760703 0.0308992 0)
(0.0183826 0.0112981 0)
(0.0358503 -0.0203889 0)
(0.0616533 -0.064102 0)
(0.097244 -0.119408 0)
(0.143557 -0.185136 0)
(0.200686 -0.259057 0)
(-0.000152255 0.0153779 0)
(-0.000369575 0.0345783 0)
(0.00133822 0.0424127 0)
(0.00521552 0.0395484 0)
(0.0132191 0.0263617 0)
(0.0265239 0.00296683 0)
(0.0465484 -0.0305813 0)
(0.0747075 -0.0741278 0)
(0.112164 -0.127121 0)
(0.159585 -0.188332 0)
(-0.000113008 0.0151344 0)
(-0.000322673 0.0351518 0)
(0.000607553 0.0451322 0)
(0.0033614 0.0457751 0)
(0.00910933 0.0375858 0)
(0.0190259 0.0207473 0)
(0.0342496 -0.00460425 0)
(0.0560359 -0.0383759 0)
(0.0855607 -0.0803185 0)
(0.123745 -0.129802 0)
(-9.47562e-05 0.0148913 0)
(-0.000409013 0.0353284 0)
(-0.000258594 0.0468617 0)
(0.00160355 0.0501321 0)
(0.00546725 0.045737 0)
(0.0125932 0.0339899 0)
(0.0238697 0.0151145 0)
(0.0403562 -0.0107663 0)
(0.0631144 -0.0435171 0)
(0.0930919 -0.0828168 0)
(-7.19461e-05 0.0145705 0)
(-0.00056533 0.0350519 0)
(-0.000954189 0.047563 0)
(-0.000167362 0.0527219 0)
(0.00178601 0.0511927 0)
(0.00648394 0.0434278 0)
(0.0144042 0.029665 0)
(0.0264894 0.0100733 0)
(0.0436123 -0.015213 0)
(0.0666289 -0.0460214 0)
(-8.47003e-05 0.0141116 0)
(-0.00094838 0.0342276 0)
(-0.00202738 0.0471233 0)
(-0.00278937 0.0535111 0)
(-0.00229058 0.0541148 0)
(6.03321e-05 0.0494974 0)
(0.004991 0.0398027 0)
(0.0132885 0.0252748 0)
(0.0256859 0.00602239 0)
(0.0428905 -0.01783 0)
(-0.000121429 0.0133623 0)
(-0.00150697 0.0325629 0)
(-0.00350868 0.0452719 0)
(-0.00574028 0.0523891 0)
(-0.00692021 0.0546453 0)
(-0.00710276 0.0524037 0)
(-0.00483236 0.0460116 0)
(4.76977e-05 0.0356091 0)
(0.00830187 0.0213029 0)
(0.0205458 0.00316379 0)
(-0.000170605 0.0122277 0)
(-0.00216141 0.0299164 0)
(-0.00517142 0.0419351 0)
(-0.0087188 0.0492342 0)
(-0.0118557 0.0524493 0)
(-0.0141853 0.0521776 0)
(-0.0148891 0.0484501 0)
(-0.0132314 0.0414672 0)
(-0.00882627 0.0312855 0)
(-0.00106247 0.0179327 0)
(-0.000237834 0.0106485 0)
(-0.00287639 0.0262146 0)
(-0.00690868 0.037072 0)
(-0.0118306 0.0440896 0)
(-0.016795 0.0478479 0)
(-0.0211035 0.0487667 0)
(-0.0244609 0.0471655 0)
(-0.0259672 0.0430092 0)
(-0.0252045 0.0362927 0)
(-0.021643 0.0270042 0)
(-0.000302712 0.00862213 0)
(-0.00348829 0.0214975 0)
(-0.00836127 0.0307559 0)
(-0.0144408 0.0370709 0)
(-0.0209041 0.0409322 0)
(-0.0271537 0.0426756 0)
(-0.0326946 0.0425228 0)
(-0.0369935 0.0405242 0)
(-0.0395627 0.0366077 0)
(-0.0399144 0.0307038 0)
(-0.000339605 0.00627646 0)
(-0.00380035 0.0160718 0)
(-0.00910401 0.0234105 0)
(-0.0158339 0.0286673 0)
(-0.0232282 0.0321924 0)
(-0.030779 0.0342536 0)
(-0.0380418 0.0350186 0)
(-0.0445764 0.0345205 0)
(-0.0499398 0.0326922 0)
(-0.0536993 0.0294444 0)
(-0.000317608 0.0038627 0)
(-0.00364842 0.0104804 0)
(-0.00879584 0.015744 0)
(-0.0154627 0.0196865 0)
(-0.023001 0.0225072 0)
(-0.0310018 0.0244024 0)
(-0.03911 0.0255019 0)
(-0.0469729 0.0258357 0)
(-0.0542203 0.0253406 0)
(-0.0604588 0.0238742 0)
(-0.000238182 0.00171523 0)
(-0.00292573 0.00542624 0)
(-0.00723379 0.00865515 0)
(-0.0130005 0.0111569 0)
(-0.019724 0.013014 0)
(-0.0270902 0.0143588 0)
(-0.0348385 0.0152929 0)
(-0.0427173 0.0158539 0)
(-0.05046 0.0160198 0)
(-0.0577507 0.015739 0)
(-0.000121374 0.000261759 0)
(-0.00162326 0.00178158 0)
(-0.00446218 0.00328518 0)
(-0.00850065 0.00444328 0)
(-0.0133849 0.00530357 0)
(-0.0188825 0.00594567 0)
(-0.0248231 0.00643794 0)
(-0.0310543 0.00680926 0)
(-0.037421 0.00705331 0)
(-0.0437405 0.00714764 0)
(9.23205e-05 -0.000115925 0)
(-0.000152458 7.85606e-05 0)
(-0.00115334 0.000194282 0)
(-0.00273427 0.000278607 0)
(-0.00475114 0.000397075 0)
(-0.00706616 0.000481086 0)
(-0.00962372 0.000542747 0)
(-0.0123675 0.000602 0)
(-0.0152502 0.000659849 0)
(-0.0182164 0.000710353 0)
(0.00017039 -0.122988 0)
(-0.066004 -0.0170049 0)
(-0.0731365 0.00784103 0)
(-0.0605702 0.0107525 0)
(-0.0499695 0.00628154 0)
(-0.0415049 0.0034553 0)
(-0.0351575 0.00220607 0)
(-0.0304967 0.0014604 0)
(-0.0268817 0.00100432 0)
(-0.0239192 0.000732957 0)
(-0.0213334 0.000583599 0)
(-0.018929 0.000511849 0)
(-0.0165823 0.000485327 0)
(-0.0142318 0.000480227 0)
(-0.0118676 0.000478671 0)
(-0.00952051 0.000467054 0)
(-0.0072549 0.000431898 0)
(-0.00515499 0.000342602 0)
(-0.00330164 0.000247463 0)
(-0.00176385 0.000213694 0)
(-0.000596864 0.000197107 0)
(0.000141571 9.253e-05 0)
(0.000425928 -5.93347e-05 0)
(0.000353528 -0.000181028 0)
(0.000133428 -0.000163063 0)
(0.0121736 -0.206897 0)
(-0.0604836 -0.0506096 0)
(-0.0861598 0.000958412 0)
(-0.0915359 0.0156324 0)
(-0.0882072 0.0187763 0)
(-0.0816277 0.0160315 0)
(-0.0750012 0.0123338 0)
(-0.0684257 0.00976437 0)
(-0.0625864 0.00801077 0)
(-0.0571831 0.00691185 0)
(-0.0520074 0.00631642 0)
(-0.0468782 0.00607162 0)
(-0.0416753 0.00603044 0)
(-0.0363523 0.00606353 0)
(-0.0309348 0.0060626 0)
(-0.0255123 0.00594317 0)
(-0.0202239 0.0056473 0)
(-0.0152387 0.00514485 0)
(-0.0107387 0.00443879 0)
(-0.00690102 0.0035495 0)
(-0.00386687 0.00251771 0)
(-0.00171201 0.0014225 0)
(-0.000437688 0.000429313 0)
(0.000104369 -0.000279111 0)
(8.49724e-05 -0.000426727 0)
(0.0375687 -0.299575 0)
(-0.0291016 -0.115498 0)
(-0.0679652 -0.0297499 0)
(-0.0873754 0.00607614 0)
(-0.0948601 0.0179524 0)
(-0.0960375 0.0205311 0)
(-0.0932216 0.0199133 0)
(-0.0889446 0.0173833 0)
(-0.0839754 0.0155606 0)
(-0.0785869 0.0144627 0)
(-0.0728629 0.01398 0)
(-0.0667677 0.0139616 0)
(-0.060268 0.0142011 0)
(-0.0533845 0.0144869 0)
(-0.0462002 0.0146247 0)
(-0.0388613 0.0144531 0)
(-0.0315689 0.013855 0)
(-0.0245615 0.012769 0)
(-0.0180959 0.0111989 0)
(-0.0124212 0.00920927 0)
(-0.00774118 0.00691958 0)
(-0.00417666 0.00451361 0)
(-0.00175461 0.00225576 0)
(-0.000402926 0.000476245 0)
(-2.35691e-05 -0.000381068 0)
(0.0611779 -0.390758 0)
(-0.00216603 -0.188375 0)
(-0.0467527 -0.0748407 0)
(-0.0741208 -0.0179281 0)
(-0.0893197 0.0077854 0)
(-0.0963826 0.0181104 0)
(-0.0986651 0.0213686 0)
(-0.0980718 0.0219914 0)
(-0.0953541 0.0216491 0)
(-0.0915929 0.021451 0)
(-0.0867257 0.0218284 0)
(-0.0809704 0.0226384 0)
(-0.0743642 0.0236513 0)
(-0.0669841 0.0245971 0)
(-0.0589614 0.0252041 0)
(-0.0504913 0.0252316 0)
(-0.0418309 0.0244968 0)
(-0.0332871 0.0228978 0)
(-0.0251946 0.0204305 0)
(-0.0178846 0.017195 0)
(-0.0116452 0.0133946 0)
(-0.00668236 0.00933396 0)
(-0.00309821 0.00541206 0)
(-0.000925863 0.00210636 0)
(-9.42266e-05 1.95023e-05 0)
(0.0837149 -0.472818 0)
(0.0228424 -0.260188 0)
(-0.0247265 -0.125937 0)
(-0.0572457 -0.0502898 0)
(-0.0779608 -0.0108035 0)
(-0.0903124 0.00858774 0)
(-0.097128 0.0176176 0)
(-0.100156 0.0218851 0)
(-0.100716 0.0241921 0)
(-0.0992335 0.0260995 0)
(-0.0961488 0.0281143 0)
(-0.0916332 0.0304306 0)
(-0.0857818 0.0328275 0)
(-0.0786902 0.0349929 0)
(-0.0705062 0.0365781 0)
(-0.0614515 0.0372528 0)
(-0.0518279 0.0367501 0)
(-0.0420101 0.0349063 0)
(-0.0324233 0.0316919 0)
(-0.0235079 0.0272313 0)
(-0.0156729 0.0218065 0)
(-0.0092448 0.0158461 0)
(-0.00443849 0.00990123 0)
(-0.00141959 0.00462327 0)
(-0.000121616 0.000761756 0)
(0.107884 -0.549058 0)
(0.0488734 -0.331777 0)
(-0.00110897 -0.181268 0)
(-0.0380279 -0.0888989 0)
(-0.063596 -0.0360363 0)
(-0.080581 -0.00711914 0)
(-0.0915376 0.00845831 0)
(-0.0983103 0.0171989 0)
(-0.102062 0.0229061 0)
(-0.103415 0.0274906 0)
(-0.102714 0.0318965 0)
(-0.100116 0.0363866 0)
(-0.0957015 0.0408263 0)
(-0.0895388 0.0448736 0)
(-0.0817518 0.0480908 0)
(-0.0725578 0.0500325 0)
(-0.0622806 0.0503136 0)
(-0.0513535 0.0486676 0)
(-0.040302 0.0450023 0)
(-0.0297033 0.0394388 0)
(-0.0201272 0.0323248 0)
(-0.0120659 0.0242182 0)
(-0.00589316 0.0158455 0)
(-0.00194534 0.00805197 0)
(-0.000145304 0.00183582 0)
(0.13442 -0.622325 0)
(0.0766702 -0.404244 0)
(0.0243938 -0.240972 0)
(-0.0167094 -0.133256 0)
(-0.0468223 -0.0672406 0)
(-0.0681995 -0.0284545 0)
(-0.0831777 -0.00585483 0)
(-0.0935983 0.00794114 0)
(-0.100675 0.0174508 0)
(-0.105089 0.0252141 0)
(-0.107156 0.0324885 0)
(-0.106985 0.0397229 0)
(-0.104582 0.0468518 0)
(-0.0999308 0.0534993 0)
(-0.0930819 0.059113 0)
(-0.0842076 0.0630966 0)
(-0.0736142 0.0648986 0)
(-0.0617642 0.0640863 0)
(-0.0492768 0.0604384 0)
(-0.0368859 0.0540187 0)
(-0.0253642 0.045212 0)
(-0.015427 0.0347079 0)
(-0.00766031 0.023438 0)
(-0.00258263 0.0124855 0)
(-0.000114711 0.00317995 0)
(0.163448 -0.69315 0)
(0.106744 -0.477673 0)
(0.0523719 -0.304991 0)
(0.00718123 -0.183204 0)
(-0.0274463 -0.104267 0)
(-0.0531649 -0.0552828 0)
(-0.0721327 -0.0252142 0)
(-0.0862046 -0.00599685 0)
(-0.0966774 0.00765363 0)
(-0.104301 0.0188868 0)
(-0.109405 0.0293701 0)
(-0.112057 0.0397846 0)
(-0.112173 0.0501659 0)
(-0.10961 0.0601204 0)
(-0.104279 0.0689497 0)
(-0.0962728 0.0758665 0)
(-0.0858244 0.0801039 0)
(-0.073365 0.0809784 0)
(-0.0595699 0.0780368 0)
(-0.0453271 0.0711925 0)
(-0.0316456 0.060806 0)
(-0.0195249 0.0476887 0)
(-0.00984109 0.0330269 0)
(-0.00336735 0.0182737 0)
(-8.47867e-05 0.00507769 0)
(0.195241 -0.761316 0)
(0.139786 -0.551755 0)
(0.0836669 -0.373032 0)
(0.0345061 -0.238912 0)
(-0.00479668 -0.147166 0)
(-0.0349744 -0.0876475 0)
(-0.0580018 -0.0496327 0)
(-0.075751 -0.0246058 0)
(-0.0896391 -0.00656111 0)
(-0.100528 0.00831746 0)
(-0.108813 0.0221886 0)
(-0.114553 0.0360437 0)
(-0.117612 0.0500853 0)
(-0.117718 0.0639791 0)
(-0.114542 0.0768036 0)
(-0.108063 0.0875808 0)
(-0.0983999 0.0953057 0)
(-0.0858585 0.0989452 0)
(-0.0710882 0.0976728 0)
(-0.0550894 0.0911054 0)
(-0.0391158 0.0794634 0)
(-0.0245091 0.0636249 0)
(-0.0125354 0.045051 0)
(-0.00437546 0.025622 0)
(-0.000182655 0.0074363 0)
(0.229875 -0.826197 0)
(0.176321 -0.62594 0)
(0.119051 -0.444709 0)
(0.0662007 -0.30041 0)
(0.0220773 -0.196225 0)
(-0.0128206 -0.125753 0)
(-0.0400711 -0.0792214 0)
(-0.0615678 -0.0479166 0)
(-0.0788637 -0.0251983 0)
(-0.0929939 -0.00655012 0)
(-0.104469 0.0107615 0)
(-0.113399 0.0281193 0)
(-0.119623 0.0459455 0)
(-0.122717 0.0641996 0)
(-0.122527 0.0818199 0)
(-0.118343 0.0972793 0)
(-0.110283 0.109584 0)
(-0.0984545 0.117252 0)
(-0.0833368 0.118909 0)
(-0.0659522 0.113667 0)
(-0.0477594 0.101412 0)
(-0.0304747 0.0829557 0)
(-0.0158606 0.060007 0)
(-0.00564697 0.0349538 0)
(-0.000241198 0.0105591 0)
(0.267146 -0.886366 0)
(0.216511 -0.699096 0)
(0.159055 -0.519259 0)
(0.103109 -0.367477 0)
(0.0542208 -0.251795 0)
(0.014284 -0.169903 0)
(-0.0174618 -0.11419 0)
(-0.0428422 -0.0759846 0)
(-0.0635524 -0.0482031 0)
(-0.0808403 -0.0256335 0)
(-0.0954181 -0.00488001 0)
(-0.10751 0.0159632 0)
(-0.116986 0.0376525 0)
(-0.123492 0.0600773 0)
(-0.12638 0.0827011 0)
(-0.125418 0.103841 0)
(-0.119899 0.121702 0)
(-0.109838 0.134744 0)
(-0.0953406 0.140861 0)
(-0.0773082 0.138386 0)
(-0.0572956 0.126591 0)
(-0.0373635 0.105971 0)
(-0.0198585 0.0783583 0)
(-0.00724186 0.0466968 0)
(-0.000322486 0.0145951 0)
(0.306673 -0.940653 0)
(0.2603 -0.769726 0)
(0.203977 -0.595434 0)
(0.145906 -0.439504 0)
(0.0926272 -0.313925 0)
(0.0474803 -0.220641 0)
(0.0108261 -0.154837 0)
(-0.0186899 -0.108948 0)
(-0.0428844 -0.0755213 0)
(-0.0632364 -0.0487662 0)
(-0.0807245 -0.0245908 0)
(-0.0958048 -0.000465687 0)
(-0.108484 0.0248606 0)
(-0.11843 0.05162 0)
(-0.125074 0.079168 0)
(-0.127671 0.106015 0)
(-0.125398 0.130219 0)
(-0.118265 0.149892 0)
(-0.105646 0.162154 0)
(-0.0881087 0.16425 0)
(-0.0671092 0.154498 0)
(-0.0449144 0.132686 0)
(-0.0244757 0.100469 0)
(-0.00917163 0.0612912 0)
(-0.000432175 0.019773 0)
(0.34729 -0.986607 0)
(0.307035 -0.835737 0)
(0.253638 -0.671419 0)
(0.19492 -0.515334 0)
(0.138091 -0.382298 0)
(0.0878633 -0.278273 0)
(0.0459512 -0.201783 0)
(0.0118358 -0.147084 0)
(-0.0160703 -0.107191 0)
(-0.0394839 -0.0757455 0)
(-0.0596815 -0.0480258 0)
(-0.0774269 -0.0208303 0)
(-0.0929846 0.0076803 0)
(-0.106201 0.0382013 0)
(-0.116569 0.0704846 0)
(-0.123289 0.103371 0)
(-0.125564 0.134208 0)
(-0.121804 0.161027 0)
(-0.112414 0.181005 0)
(-0.0968673 0.189652 0)
(-0.0762001 0.184027 0)
(-0.05261 0.16265 0)
(-0.0295364 0.126447 0)
(-0.0114155 0.0790988 0)
(-0.000677164 0.026336 0)
(0.388057 -1.02211 0)
(0.355676 -0.894419 0)
(0.307286 -0.744641 0)
(0.249943 -0.593047 0)
(0.191016 -0.455976 0)
(0.136329 -0.34278 0)
(0.0890561 -0.255552 0)
(0.0498463 -0.191068 0)
(0.0177085 -0.143472 0)
(-0.00900068 -0.106523 0)
(-0.0318682 -0.0748511 0)
(-0.0520097 -0.0446015 0)
(-0.0700239 -0.0132918 0)
(-0.0860338 0.0203431 0)
(-0.0997486 0.0564874 0)
(-0.110487 0.0943764 0)
(-0.117171 0.132272 0)
(-0.118611 0.167134 0)
(-0.113608 0.195385 0)
(-0.101767 0.212432 0)
(-0.0831911 0.213363 0)
(-0.05964 0.194768 0)
(-0.0346996 0.155979 0)
(-0.0139115 0.100295 0)
(-0.00102802 0.03451 0)
(0.426799 -1.04531 0)
(0.404376 -0.943365 0)
(0.36353 -0.812173 0)
(0.310107 -0.669958 0)
(0.251204 -0.533179 0)
(0.193366 -0.413523 0)
(0.141117 -0.316414 0)
(0.0964999 -0.241612 0)
(0.0594974 -0.185134 0)
(0.0288845 -0.141423 0)
(0.00304232 -0.105006 0)
(-0.0194805 -0.0714095 0)
(-0.0396907 -0.0374562 0)
(-0.0580705 -0.00124836 0)
(-0.074638 0.0379992 0)
(-0.0889533 0.080023 0)
(-0.100108 0.123513 0)
(-0.106794 0.165956 0)
(-0.10752 0.20333 0)
(-0.100964 0.230149 0)
(-0.0864427 0.240066 0)
(-0.0649285 0.227191 0)
(-0.0394707 0.188176 0)
(-0.0165171 0.124763 0)
(-0.00139259 0.0444603 0)
(0.460964 -1.05267 0)
(0.450767 -0.978657 0)
(0.420194 -0.870234 0)
(0.373656 -0.742526 0)
(0.31759 -0.611119 0)
(0.258751 -0.48892 0)
(0.202681 -0.38403 0)
(0.152832 -0.299257 0)
(0.110472 -0.233072 0)
(0.0751897 -0.181325 0)
(0.0456622 -0.138962 0)
(0.0203354 -0.101265 0)
(-0.00212506 -0.0644962 0)
(-0.022633 -0.0260558 0)
(-0.0416096 0.0155154 0)
(-0.0589928 0.0605837 0)
(-0.0741851 0.108475 0)
(-0.0860307 0.157231 0)
(-0.0929009 0.203178 0)
(-0.0929027 0.240494 0)
(-0.0842593 0.261347 0)
(-0.0671293 0.257347 0)
(-0.0432787 0.221503 0)
(-0.0190439 0.152026 0)
(-0.00183281 0.0562776 0)
(0.489126 -1.04236 0)
(0.492417 -0.997766 0)
(0.47442 -0.915081 0)
(0.437896 -0.806566 0)
(0.388041 -0.685967 0)
(0.331215 -0.566179 0)
(0.273465 -0.457004 0)
(0.219418 -0.36391 0)
(0.171728 -0.288058 0)
(0.13115 -0.227316 0)
(0.0970598 -0.177714 0)
(0.0681236 -0.134791 0)
(0.0428649 -0.0945201 0)
(0.020042 -0.0537604 0)
(-0.00115564 -0.010387 0)
(-0.021134 0.0367229 0)
(-0.0397791 0.0875833 0)
(-0.056308 0.141026 0)
(-0.0692692 0.194162 0)
(-0.0766203 0.24156 0)
(-0.0757173 0.274039 0)
(-0.0645863 0.282088 0)
(-0.0454569 0.253805 0)
(-0.0212065 0.181217 0)
(-0.00238832 0.0699904 0)
(0.508634 -1.01583 0)
(0.526206 -0.998156 0)
(0.522757 -0.943045 0)
(0.499243 -0.857594 0)
(0.459244 -0.75305 0)
(0.408151 -0.641234 0)
(0.351908 -0.532528 0)
(0.295842 -0.434287 0)
(0.24382 -0.350149 0)
(0.197919 -0.280317 0)
(0.158579 -0.222503 0)
(0.125089 -0.17311 0)
(0.0961588 -0.12828 0)
(0.0703999 -0.0845975 0)
(0.0466529 -0.0394142 0)
(0.0241581 0.00905473 0)
(0.00254666 0.061608 0)
(-0.0179953 0.117934 0)
(-0.0364986 0.176164 0)
(-0.0511128 0.231933 0)
(-0.0590249 0.276891 0)
(-0.0559846 0.297608 0)
(-0.0442875 0.281316 0)
(-0.0224447 0.210546 0)
(-0.00297397 0.0852501 0)
(0.517122 -0.96988 0)
(0.549462 -0.978931 0)
(0.561756 -0.95116 0)
(0.553601 -0.891242 0)
(0.52687 -0.807233 0)
(0.485541 -0.708951 0)
(0.43483 -0.606279 0)
(0.380127 -0.507469 0)
(0.326071 -0.418026 0)
(0.275933 -0.340387 0)
(0.231387 -0.274282 0)
(0.1927 -0.217538 0)
(0.159161 -0.16702 0)
(0.129562 -0.119446 0)
(0.102607 -0.0719215 0)
(0.0772159 -0.0221946 0)
(0.0526305 0.0312243 0)
(0.0284836 0.0888454 0)
(0.00510227 0.149898 0)
(-0.0162864 0.211499 0)
(-0.0330168 0.266891 0)
(-0.0420057 0.302065 0)
(-0.0378744 0.300102 0)
(-0.0229274 0.237168 0)
(-0.00342349 0.101324 0)
(0.512667 -0.905623 0)
(0.55949 -0.938931 0)
(0.587983 -0.937688 0)
(0.596745 -0.904241 0)
(0.586033 -0.8437 0)
(0.558233 -0.7637 0)
(0.517404 -0.672735 0)
(0.468361 -0.578856 0)
(0.415891 -0.488549 0)
(0.364042 -0.406005 0)
(0.315607 -0.332934 0)
(0.271987 -0.268901 0)
(0.233375 -0.211997 0)
(0.199118 -0.159579 0)
(0.168111 -0.108897 0)
(0.139149 -0.0575041 0)
(0.111197 -0.00347187 0)
(0.083458 0.054398 0)
(0.0555745 0.116258 0)
(0.0280435 0.180586 0)
(0.00260569 0.242594 0)
(-0.0181496 0.291474 0)
(-0.0249684 0.307949 0)
(-0.0235689 0.258482 0)
(-0.00384671 0.118169 0)
(0.494619 -0.825088 0)
(0.55433 -0.878849 0)
(0.598436 -0.901859 0)
(0.624577 -0.893862 0)
(0.631471 -0.858812 0)
(0.620364 -0.800227 0)
(0.593552 -0.725789 0)
(0.554754 -0.642462 0)
(0.508399 -0.55667 0)
(0.458752 -0.473587 0)
(0.409304 -0.396495 0)
(0.362445 -0.326668 0)
(0.319397 -0.263693 0)
(0.28035 -0.206009 0)
(0.244735 -0.15147 0)
(0.211544 -0.0978165 0)
(0.179639 -0.0430045 0)
(0.147973 0.0145771 0)
(0.115671 0.0758035 0)
(0.082389 0.140344 0)
(0.0488342 0.20549 0)
(0.0172587 0.263414 0)
(-0.00578503 0.295692 0)
(-0.0181669 0.2683 0)
(-0.0055632 0.134984 0)
(0.463615 -0.73172 0)
(0.533401 -0.800919 0)
(0.591499 -0.844411 0)
(0.633671 -0.860224 0)
(0.660782 -0.849218 0)
(0.666303 -0.814754 0)
(0.656648 -0.760323 0)
(0.632311 -0.692157 0)
(0.596776 -0.616207 0)
(0.554073 -0.537745 0)
(0.507838 -0.460911 0)
(0.461025 -0.38831 0)
(0.415718 -0.32098 0)
(0.373032 -0.258664 0)
(0.33317 -0.200195 0)
(0.295635 -0.143914 0)
(0.259479 -0.0880482 0)
(0.223563 -0.0309727 0)
(0.186732 0.0285531 0)
(0.147933 0.0909716 0)
(0.106706 0.155256 0)
(0.0638256 0.216797 0)
(0.0236254 0.262358 0)
(-0.00399645 0.262756 0)
(-0.0110703 0.147849 0)
(0.421559 -0.630253 0)
(0.497585 -0.709091 0)
(0.566201 -0.7681 0)
(0.622907 -0.803778 0)
(0.664918 -0.81539 0)
(0.69087 -0.803982 0)
(0.700044 -0.771689 0)
(0.693256 -0.722214 0)
(0.672846 -0.660491 0)
(0.641916 -0.591722 0)
(0.603799 -0.520206 0)
(0.561551 -0.449121 0)
(0.517728 -0.380584 0)
(0.474173 -0.315615 0)
(0.43188 -0.254207 0)
(0.39105 -0.195613 0)
(0.351231 -0.1387 0)
(0.311489 -0.0822414 0)
(0.270582 -0.0251545 0)
(0.227085 0.0332571 0)
(0.179567 0.0927081 0)
(0.126984 0.150999 0)
(0.0697996 0.200367 0)
(0.0192014 0.218827 0)
(-0.0151164 0.145976 0)
(0.372112 -0.527242 0)
(0.45014 -0.609817 0)
(0.52507 -0.678627 0)
(0.592571 -0.729341 0)
(0.648757 -0.759587 0)
(0.691573 -0.768833 0)
(0.71898 -0.757508 0)
(0.731917 -0.728536 0)
(0.728573 -0.68473 0)
(0.713246 -0.629101 0)
(0.687756 -0.567151 0)
(0.654664 -0.502144 0)
(0.616785 -0.436536 0)
(0.576389 -0.372151 0)
(0.534992 -0.310003 0)
(0.493436 -0.250368 0)
(0.451914 -0.192986 0)
(0.410016 -0.137322 0)
(0.36683 -0.0828399 0)
(0.321044 -0.0292528 0)
(0.270954 0.0232119 0)
(0.214716 0.0731414 0)
(0.150356 0.116861 0)
(0.0804762 0.145674 0)
(0.0106506 0.133387 0)
(0.319112 -0.427955 0)
(0.395038 -0.509004 0)
(0.471793 -0.581844 0)
(0.545399 -0.64198 0)
(0.611898 -0.686024 0)
(0.668253 -0.712139 0)
(0.712327 -0.719653 0)
(0.741203 -0.709254 0)
(0.761311 -0.684204 0)