/*--------------------------------*- C++ -*----------------------------------*\
| =========                 |                                                 |
| \\      /  F ield         | OpenFOAM: The Open Source CFD Toolbox           |
|  \\    /   O peration     | Version:  v2012                                 |
|   \\  /    A nd           | Website:  www.openfoam.com                      |
|    \\/     M anipulation  |                                                 |
\*---------------------------------------------------------------------------*/
FoamFile
{
    version     2.0;
    format      ascii;
    class       volScalarField;
    location    "614";
    object      age;
}
// * * * * * * * * * * * * * * * * * * * * * * * * * * * * * * * * * * * * * //

dimensions      [0 0 1 0 0 0 0];


internalField   nonuniform List<scalar> 
6054
(
0.48905
0.463934
0.438812
0.41369
0.388568
0.363449
0.338333
0.313223
0.288118
0.26302
0.237929
0.212845
0.187769
0.162701
0.137643
0.112594
0.0875549
0.0625266
0.0375091
0.0125017
0.487402
0.462431
0.437451
0.412464
0.387473
0.362478
0.33748
0.312482
0.287482
0.262482
0.237483
0.212483
0.187483
0.162485
0.137486
0.112488
0.0874912
0.0624944
0.0374975
0.0124996
0.48699
0.462057
0.437113
0.412162
0.387204
0.362242
0.337276
0.312308
0.287336
0.262362
0.237386
0.212408
0.187428
0.162446
0.137461
0.112474
0.0874848
0.0624926
0.0374976
0.0124998
0.486841
0.46192
0.436989
0.412051
0.387106
0.362156
0.337202
0.312245
0.287285
0.262321
0.237355
0.212385
0.187412
0.162435
0.137455
0.112472
0.0874844
0.062493
0.0374979
0.0124998
0.486801
0.461881
0.436951
0.412015
0.387073
0.362127
0.337177
0.312224
0.287267
0.262307
0.237344
0.212377
0.187407
0.162433
0.137454
0.112472
0.0874847
0.0624934
0.0374981
0.0124999
0.486834
0.461905
0.436968
0.412026
0.387081
0.362132
0.33718
0.312226
0.287269
0.262308
0.237345
0.212378
0.187407
0.162433
0.137454
0.112472
0.0874847
0.0624934
0.0374981
0.0124999
0.486938
0.46199
0.437038
0.412084
0.387128
0.362171
0.337212
0.312252
0.287289
0.262324
0.237356
0.212386
0.187412
0.162436
0.137456
0.112472
0.0874844
0.062493
0.0374979
0.0124998
0.487155
0.46217
0.437192
0.412214
0.387239
0.362265
0.337292
0.312318
0.287343
0.262367
0.237389
0.21241
0.187429
0.162446
0.137462
0.112474
0.0874849
0.0624927
0.0374976
0.0124998
0.487634
0.462597
0.437558
0.412536
0.387519
0.362508
0.3375
0.312494
0.28749
0.262488
0.237486
0.212485
0.187485
0.162485
0.137487
0.112489
0.0874913
0.0624944
0.0374975
0.0124996
0.485331
0.465101
0.438724
0.413831
0.388612
0.363488
0.338356
0.313238
0.288128
0.263026
0.237932
0.212847
0.18777
0.162702
0.137643
0.112594
0.087555
0.0625266
0.0375091
0.0125017
1.05489
1.02595
0.997845
0.970433
0.943586
0.917202
0.891191
0.865477
0.839996
0.814692
0.789518
0.764436
0.739411
0.714419
0.689438
0.664453
0.639456
0.614438
0.589398
0.564337
0.539256
0.514159
1.04737
1.0189
0.99123
0.96422
0.937751
0.911723
0.886048
0.860652
0.835472
0.810452
0.785548
0.76072
0.735936
0.71117
0.686404
0.661622
0.636815
0.611979
0.587113
0.562219
0.537299
0.512359
1.04379
1.01574
0.988433
0.961742
0.93555
0.909761
0.884295
0.85908
0.834058
0.809177
0.784393
0.75967
0.734979
0.710295
0.685601
0.660884
0.636136
0.611353
0.586536
0.561686
0.536809
0.511908
1.04211
1.01425
0.987105
0.96055
0.934477
0.908795
0.883425
0.858301
0.833362
0.808558
0.783847
0.75919
0.734559
0.709928
0.685279
0.6606
0.635884
0.611127
0.58633
0.561497
0.536634
0.511747
1.04101
1.01326
0.986211
0.959746
0.933759
0.908159
0.882868
0.857818
0.832949
0.808211
0.783561
0.75896
0.734377
0.709789
0.685174
0.660523
0.635825
0.61108
0.58629
0.561459
0.536596
0.511708
1.04034
1.01269
0.985736
0.959357
0.933445
0.907911
0.882676
0.857675
0.83285
0.80815
0.783534
0.758965
0.73441
0.709845
0.685249
0.660607
0.635913
0.611166
0.586368
0.561527
0.536651
0.511751
1.04045
1.01297
0.986149
0.959855
0.93399
0.908471
0.883228
0.858202
0.833341
0.8086
0.783941
0.759331
0.734741
0.710147
0.685532
0.660875
0.636164
0.611397
0.586574
0.561705
0.536801
0.511876
1.04295
1.01543
0.988491
0.962051
0.93602
0.910324
0.8849
0.859692
0.834629
0.809671
0.784785
0.759948
0.735143
0.710371
0.685683
0.661025
0.636346
0.611621
0.586832
0.561976
0.537065
0.512118
1.04113
1.01406
0.98807
0.962966
0.938549
0.91471
0.891639
0.867825
0.843468
0.818549
0.793123
0.767318
0.741407
0.715931
0.690239
0.664624
0.639072
0.613612
0.588245
0.562967
0.537774
0.512673
1.06966
1.05346
1.03972
1.0275
1.01566
1.00302
0.988476
0.971237
0.950815
0.926975
0.89984
0.869814
0.837468
0.803457
0.768464
0.733072
0.697904
0.663283
0.629371
0.596285
0.563894
0.531977
10.435
10.8868
11.7911
11.6264
2.48385
1.87161
1.6785
1.55836
1.4746
1.4081
1.3523
1.3036
1.25999
1.22018
1.1833
1.14874
1.11604
1.08484
9.52884
11.1756
11.0087
6.09995
2.03808
1.76549
1.622
1.52407
1.4499
1.38873
1.33624
1.28978
1.24778
1.20918
1.17326
1.13948
1.10744
1.07682
9.10447
10.3511
7.12571
2.9403
1.85886
1.69286
1.58073
1.49795
1.43102
1.37425
1.32459
1.28012
1.2396
1.20215
1.16717
1.13417
1.10279
1.07274
8.16522
7.49951
3.96075
2.01824
1.78368
1.64899
1.5555
1.48126
1.41909
1.36535
1.31771
1.27466
1.23518
1.19852
1.16414
1.1316
1.10059
1.07083
6.83745
5.0177
2.50936
1.87218
1.73834
1.62306
1.53999
1.47074
1.41173
1.36
1.31369
1.27155
1.23269
1.19646
1.16239
1.13008
1.09923
1.06961
5.78785
3.5061
2.06596
1.82796
1.71032
1.60733
1.53005
1.46399
1.40709
1.35669
1.31123
1.26964
1.23113
1.19514
1.16123
1.12905
1.09833
1.06883
5.05156
2.74256
1.96195
1.80587
1.69226
1.59754
1.52367
1.45987
1.4044
1.35479
1.30974
1.26833
1.22995
1.19412
1.16041
1.12848
1.098
1.06874
4.48698
2.37107
1.92519
1.79236
1.68056
1.59149
1.51961
1.45705
1.40201
1.35253
1.30778
1.26706
1.22964
1.19476
1.1618
1.1304
1.10028
1.07119
4.07554
2.22837
1.90729
1.78322
1.67326
1.5878
1.51696
1.45541
1.40176
1.35456
1.31235
1.2731
1.23512
1.19809
1.16307
1.13015
1.09898
1.06937
3.78785
2.16531
1.89881
1.77705
1.66902
1.58585
1.51608
1.45611
1.40351
1.3545
1.30541
1.25551
1.20979
1.17812
1.15412
1.13088
1.10923
1.08896
9.26208
15.922
24.5791
34.4599
44.984
55.5012
65.4304
74.2941
81.7229
87.3623
91.535
94.5188
96.5084
97.6016
97.966
97.7966
97.3324
96.6781
95.9525
95.5615
95.1552
92.7935
46.6294
63.1492
77.8807
90.2841
99.8343
106.41
110.343
112.364
112.997
112.881
112.675
112.345
111.82
111.23
110.664
110.172
109.782
109.51
109.362
109.273
109.208
109.185
91.0897
104.727
113.794
119.169
121.895
123.052
123.46
123.539
123.236
122.505
121.204
119.52
117.588
115.576
113.652
111.963
110.629
109.714
109.195
108.952
108.846
108.828
120.819
128.328
133.054
136.387
138.998
140.967
142.085
142.16
141.146
139.154
136.302
132.75
128.707
124.427
120.201
116.342
113.156
110.87
109.539
108.954
108.733
108.674
140.416
147.022
152.905
158.048
162.071
164.669
165.741
165.316
163.461
160.256
155.813
150.296
143.936
137.037
129.993
123.285
117.457
113.019
110.275
109.058
108.647
108.514
160.219
169.233
177.25
183.712
188.371
191.181
192.155
191.309
188.679
184.329
178.36
170.928
162.261
152.677
142.625
132.709
123.691
116.419
111.588
109.325
108.62
108.397
183.199
194.354
203.665
210.924
216.099
219.162
220.074
218.821
215.435
209.974
202.538
193.28
182.417
170.262
157.268
144.095
131.66
121.113
113.604
109.777
108.637
108.311
207.88
220.436
230.787
238.896
244.679
248.031
248.879
247.2
243.024
236.42
227.506
216.45
203.477
188.888
173.119
156.824
140.984
126.972
116.379
110.47
108.69
108.242
232.942
246.813
258.377
267.494
273.974
277.656
278.435
276.279
271.226
263.373
252.883
239.965
224.876
207.929
189.538
170.314
151.223
133.749
119.858
111.457
108.779
108.178
258.049
273.489
286.499
296.791
304.086
308.157
308.86
306.15
300.085
290.816
278.571
263.637
246.333
227.01
206.08
184.103
161.971
141.161
123.902
112.749
108.9
108.121
283.283
300.593
315.291
326.963
335.224
339.761
340.373
337.004
329.752
318.839
304.598
287.423
267.729
245.935
222.47
197.856
172.887
148.947
128.365
114.307
109.05
108.068
308.773
328.252
344.918
358.22
367.632
372.723
373.22
369.063
360.401
347.566
331.029
311.332
289.02
264.602
238.548
211.352
183.711
156.868
133.123
116.088
109.225
108.019
334.612
356.585
375.548
390.772
401.548
407.291
407.642
402.534
392.196
377.106
357.921
335.376
310.179
282.954
254.219
224.453
194.261
164.727
138.028
118.047
109.419
107.974
360.857
385.687
407.32
424.797
437.174
443.676
443.834
437.583
425.26
407.535
385.308
359.551
331.176
300.939
269.417
237.07
204.415
172.378
142.954
120.134
109.628
107.932
387.536
415.618
440.328
460.418
474.655
482.027
481.932
474.312
459.652
438.873
413.175
383.822
351.962
318.504
284.085
249.141
214.092
179.713
147.795
122.297
109.846
107.892
414.636
446.388
474.602
497.688
514.059
522.411
521.983
512.737
495.351
471.065
441.45
408.113
372.467
335.587
298.17
260.616
223.24
186.66
152.467
124.485
110.068
107.853
442.099
477.941
510.097
536.573
555.361
564.801
563.939
552.777
532.242
503.978
469.997
432.302
392.592
352.112
311.616
271.455
231.82
193.169
156.903
126.654
110.29
107.817
469.815
510.153
546.683
576.947
598.434
609.058
607.64
594.239
570.109
537.387
498.61
456.216
412.208
367.991
324.364
281.619
239.806
199.208
161.056
128.763
110.507
107.782
497.623
542.828
584.141
618.576
643.035
654.924
652.8
636.812
608.627
570.981
527.015
479.64
431.159
383.122
336.351
291.071
247.175
204.758
164.891
130.776
110.716
107.749
525.301
575.691
622.152
661.111
688.792
702.006
699
680.054
647.355
604.358
554.875
502.314
449.264
397.388
347.512
299.776
253.91
209.805
168.383
132.662
110.911
107.716
552.565
608.382
660.288
704.072
735.196
749.772
745.685
723.394
685.743
637.031
581.797
523.945
466.322
410.667
357.777
307.7
259.995
214.341
171.518
134.396
111.091
107.684
579.046
640.435
697.996
746.843
781.592
797.544
792.154
766.128
723.133
668.443
607.349
544.222
482.124
422.83
367.079
314.811
265.417
218.361
174.285
135.955
111.251
107.653
604.318
671.282
734.584
788.647
827.163
844.489
837.563
807.425
758.776
697.983
631.076
562.828
496.465
433.759
375.357
321.083
270.166
221.86
176.678
137.321
111.389
107.622
627.94
700.309
769.259
828.558
870.921
889.609
880.914
846.333
791.853
725.019
652.529
579.467
509.165
443.351
382.56
326.494
274.233
224.835
178.693
138.477
111.504
107.592
649.486
726.909
801.215
865.584
911.757
931.75
921.061
881.8
821.513
748.926
671.283
593.868
520.058
451.513
388.641
331.023
277.606
227.279
180.325
139.409
111.592
107.562
668.562
750.519
829.695
898.776
948.545
969.661
956.767
912.756
846.95
769.145
686.963
605.784
528.985
458.146
393.542
334.64
280.271
229.182
181.566
140.103
111.652
107.533
684.827
770.639
854.009
927.229
980.175
1002.12
986.85
938.246
867.477
785.196
699.238
614.992
535.802
463.158
397.209
337.314
282.207
230.528
182.408
140.545
111.681
107.503
698.001
786.842
873.52
950.035
1005.5
1027.92
1010.11
957.38
882.471
796.645
707.807
621.29
540.376
466.462
399.585
339.009
283.39
231.299
182.837
140.725
111.677
107.474
707.857
798.768
887.653
966.302
1023.36
1046.3
1025.22
969.238
891.336
803.099
712.406
624.502
542.588
467.976
400.612
339.681
283.786
231.469
182.836
140.633
111.633
107.444
714.23
806.134
895.906
975.198
1033.33
1061.85
1031.05
973.079
893.603
804.257
712.833
624.487
542.341
467.629
400.233
339.286
283.361
231.013
182.387
140.279
111.511
107.414
717.007
808.756
898.03
976.344
1033.19
1052.34
1026.96
968.543
889.03
799.954
708.968
621.154
539.561
465.362
398.398
337.779
282.079
229.9
181.466
139.641
111.31
107.384
716.167
806.598
893.924
969.552
1023.07
1036.78
1013.29
955.684
877.586
790.163
700.779
614.466
534.211
461.132
395.06
335.112
279.894
228.088
180.041
138.706
111.03
107.354
711.737
799.711
883.715
955.069
1004.42
1017.53
991.511
934.926
859.626
775.075
688.361
604.464
526.294
454.918
390.18
331.239
276.758
225.533
178.076
137.455
110.673
107.323
703.82
788.281
867.756
933.652
976.868
986.357
960.698
907.277
835.804
755.05
671.93
591.274
515.868
446.731
383.742
326.125
272.624
222.188
175.533
135.863
110.238
107.291
692.589
772.616
846.593
906.286
943.122
949.341
924.408
874.155
806.887
730.63
651.86
575.132
503.065
436.628
375.749
319.738
267.443
218
172.375
133.913
109.73
107.258
678.287
753.134
820.911
874.015
904.868
908.13
883.777
836.639
773.851
702.561
628.67
556.37
488.073
424.689
366.213
312.048
261.161
212.915
168.563
131.598
109.164
107.224
661.212
730.323
791.473
837.878
863.247
863.831
839.995
795.906
737.693
671.604
602.891
535.328
471.079
410.995
355.147
303.022
253.719
206.874
164.062
128.909
108.556
107.187
641.696
704.71
759.062
798.892
819.219
817.391
794.084
752.97
699.295
638.446
575.019
512.328
452.267
395.634
342.569
292.629
245.06
199.824
158.846
125.857
107.934
107.147
620.095
676.834
724.433
757.997
773.702
769.731
746.996
708.746
659.457
603.734
545.535
487.692
431.829
378.705
328.507
280.838
235.128
191.725
152.912
122.48
107.315
107.107
596.77
647.219
688.286
716.012
727.527
721.682
699.551
664.009
618.873
568.052
514.886
461.729
409.962
360.317
312.994
267.622
223.88
182.559
146.293
118.858
106.754
107.095
572.073
616.359
651.246
673.619
681.38
673.92
652.41
619.399
578.139
531.913
483.469
434.717
386.854
340.584
296.062
252.962
211.296
172.357
139.083
115.161
106.335
107.13
546.336
584.695
613.835
631.359
635.795
626.968
606.096
575.435
537.747
495.738
451.604
406.897
362.687
319.615
277.743
236.851
197.407
161.227
131.469
111.759
106.146
107.219
519.862
552.623
576.485
589.657
591.19
581.231
561.01
532.517
498.066
459.828
419.53
378.473
337.63
297.506
258.063
219.323
182.34
149.41
123.788
108.939
106.074
107.384
492.915
520.467
539.532
548.838
547.862
536.991
517.428
490.91
459.321
424.357
387.407
349.621
311.826
274.322
237.057
200.505
166.383
137.344
116.586
106.885
106.001
107.661
465.705
488.472
503.218
509.123
506.005
494.417
475.502
450.726
421.576
389.391
355.359
320.492
285.368
250.091
214.822
180.697
150.082
125.75
110.673
105.821
106.044
108.091
438.377
456.791
467.688
470.623
465.694
453.549
435.22
411.898
384.763
354.947
323.496
291.186
258.268
224.857
191.632
160.509
134.34
115.712
107.071
105.73
106.495
108.73
410.989
425.475
432.965
433.328
426.866
414.254
396.382
374.225
348.789
321.075
291.901
261.687
230.482
198.812
168.123
141.011
120.509
108.771
105.655
105.909
107.538
109.499
383.512
394.463
398.946
397.075
389.284
376.229
358.691
337.531
313.649
287.832
260.529
231.862
202.088
172.57
145.497
123.858
110.373
105.638
105.576
107.331
109.687
110.593
355.864
363.611
365.416
361.576
352.606
339.154
321.958
301.804
279.393
255.13
229.141
201.642
173.664
147.478
125.649
111.236
105.791
105.382
107.652
111.217
112.963
111.844
327.975
332.77
332.152
326.566
316.601
302.928
286.238
267.11
245.877
222.612
197.536
171.538
146.743
125.761
111.168
105.626
105.248
108.037
113.447
117.266
117.018
113.124
299.87
301.885
299.069
292.004
281.348
267.726
251.603
233.208
212.59
189.971
166.25
143.298
123.994
110.349
105.056
105.113
108.434
115.759
122.784
125.147
121.602
114.52
271.69
271.096
266.358
258.163
247.095
233.535
217.611
199.41
179.179
157.946
137.43
120.216
108.739
104.32
104.821
108.902
117.778
128.05
134.681
133.925
126.171
115.824
243.624
240.666
234.32
225.178
213.552
199.596
183.414
165.539
146.857
129.407
115.079
106.479
103.64
104.523
109.37
119.335
131.863
142.821
147.186
142.147
129.977
116.72
215.818
210.684
202.707
192.274
179.611
165.16
149.472
133.864
119.699
109.278
104.026
102.864
104.322
110.056
120.585
133.799
147.224
156.648
157.518
148.129
132.446
117.1
187.994
180.354
170.294
158.405
145.336
132.248
119.927
110.099
104.227
102.302
102.272
104.602
111.361
121.773
133.914
146.819
159.018
165.178
163.071
150.435
132.752
117.205
159.06
148.672
137.241
125.862
115.516
107.63
102.779
101.111
101.052
102.121
106.049
113.796
123.301
132.441
142.368
153.438
163.324
166.764
161.059
147.944
130.585
117.297
129.46
118.656
109.324
103.138
100.061
99.4557
99.5024
100.871
104.041
109.819
117.697
124.631
129.884
135.209
143.164
151.507
157.291
158.011
152.098
140.672
126.528
117.391
105.458
99.3496
97.044
97.1596
98.4284
100.905
105.271
111.164
117.072
122.702
125.084
125.572
128.082
131.959
136.339
140.521
143.099
142.639
138.369
130.724
122.12
117.497
94.6658
94.7176
99.0594
104.015
109.404
115.825
122.767
124.483
123.216
122.464
122.473
122.808
123.478
124.582
125.974
127.286
127.976
127.502
125.545
122.345
119.084
117.626
92.6722
98.0636
122.595
122.248
121.891
121.61
121.34
121.158
120.93
120.7
120.499
120.315
120.15
120.006
119.877
119.757
119.639
119.505
119.206
118.739
118.319
118.206
3.59016
2.13168
1.89548
1.77324
1.66714
1.58569
1.5171
1.4575
1.40225
1.34838
1.30056
1.27436
1.28023
1.3683
1.60681
2.13014
3.19973
5.30544
3.45458
2.113
1.89517
1.77158
1.66742
1.58745
1.51933
1.45743
1.39723
1.34432
1.32218
1.38387
1.65976
2.35713
4.18013
8.79726
17.7497
30.7481
3.36065
2.10322
1.89691
1.77204
1.66976
1.59053
1.52011
1.45161
1.38801
1.35858
1.43207
1.77113
2.97629
7.22046
16.9769
32.9287
52.8322
73.1123
3.29319
2.09899
1.90024
1.77446
1.67377
1.59361
1.51818
1.44507
1.3945
1.39674
1.55053
3.20652
9.39419
23.1721
43.9478
68.1308
90.8498
108.673
3.24331
2.0985
1.90495
1.77868
1.67881
1.59549
1.51335
1.44046
1.41693
1.52538
2.62154
9.36187
24.8582
48.6745
76.0874
100.985
119.636
132.035
3.20591
2.10075
1.91096
1.78442
1.68414
1.59583
1.50929
1.44926
1.45963
1.66187
6.82212
22.075
46.9749
77.0387
104.872
125.792
140.058
150.708
3.17791
2.10515
1.91818
1.79134
1.6893
1.59525
1.50852
1.47247
1.55648
3.57501
15.8057
39.7461
71.3354
102.732
127.351
144.649
158.163
170.863
3.15723
2.1113
1.92653
1.79908
1.69392
1.59472
1.51674
1.50013
1.62277
8.07841
28.5748
59.6498
94.2287
123.705
145.119
161.795
177.611
193.335
3.14243
2.11894
1.93588
1.80741
1.69839
1.5959
1.52871
1.56781
2.79464
15.6963
43.539
79.2998
113.893
140.677
160.997
179.698
198.68
216.811
3.13243
2.12786
1.94612
1.81613
1.7031
1.60132
1.55379
1.61986
5.4385
25.4617
59.1195
97.1714
130.273
155.364
176.868
198.692
220.396
240.354
3.12644
2.1379
1.95713
1.82531
1.70887
1.60993
1.57818
1.66645
9.59968
36.3231
74.1423
112.728
144.176
169.205
193.301
218.172
242.022
263.733
3.1238
2.14891
1.96882
1.83476
1.71486
1.62502
1.62273
2.15381
15.2178
47.4435
87.9378
126.095
156.543
182.946
210.09
237.535
263.306
287.023
3.12401
2.16078
1.98111
1.84471
1.72303
1.6406
1.65982
3.2824
21.7475
58.2308
100.256
137.689
168.078
196.755
226.827
256.471
284.263
310.331
3.12664
2.17342
1.99394
1.85529
1.73331
1.66122
1.69071
4.99444
28.578
68.3353
111.12
147.966
179.171
210.508
243.188
274.89
304.962
333.717
3.13134
2.18673
2.00729
1.86659
1.74555
1.68354
1.72099
7.19163
35.3571
77.5865
120.68
157.293
189.959
223.994
258.991
292.802
325.443
357.192
3.13786
2.20065
2.02111
1.87867
1.7593
1.70638
1.75142
9.75811
41.8618
85.9311
129.125
165.911
200.434
237.027
274.16
310.224
345.703
380.733
3.14596
2.21511
2.03541
1.89158
1.77469
1.72947
1.78155
12.5721
47.9563
93.3906
136.634
173.959
210.524
249.476
288.666
327.156
365.7
404.281
3.15544
2.23007
2.05017
1.90524
1.78962
1.75227
1.88455
15.5404
53.5655
100.024
143.355
181.508
220.148
261.264
302.497
343.569
385.364
427.744
3.16615
2.24547
2.06536
1.91923
1.80804
1.78372
2.11166
18.5224
58.6591
105.905
149.403
188.582
229.24
272.35
315.641
359.411
404.601
450.995
3.17794
2.26128
2.08094
1.93381
1.82719
1.81137
2.42845
21.356
63.2372
111.107
154.861
195.184
237.749
282.711
328.075
374.618
423.298
473.872
3.1907
2.27746
2.0969
1.9491
1.8459
1.83601
2.80299
23.978
67.3136
115.697
159.785
201.301
245.639
292.331
339.762
389.097
441.309
496.164
3.20431
2.29399
2.11324
1.96508
1.86475
1.85959
3.20726
26.3582
70.9093
119.728
164.213
206.92
252.882
301.188
350.644
402.731
458.447
517.598
3.21871
2.31084
2.12995
1.98167
1.88382
1.88272
3.61766
28.4828
74.0492
123.248
168.168
212.022
259.456
309.259
360.661
415.401
474.517
537.878
3.2338
2.328
2.14701
1.99879
1.9031
1.90556
4.01478
30.3464
76.7585
126.293
171.666
216.596
265.349
316.525
369.759
426.999
489.335
556.709
3.24954
2.34543
2.1644
2.01639
1.92257
1.92818
4.38302
31.9488
79.0609
128.896
174.719
220.634
270.553
322.973
377.89
437.426
502.727
573.808
3.26587
2.36314
2.18211
2.0344
1.94219
1.95062
4.71026
33.2929
80.9781
131.081
177.336
224.131
275.066
328.591
385.014
446.595
514.537
588.92
3.28276
2.3811
2.20012
2.0528
1.96191
1.97291
4.98744
34.3837
82.5292
132.87
179.524
227.086
278.891
333.37
391.096
454.434
524.632
601.823
3.30017
2.39931
2.21843
2.07154
1.98203
1.99508
5.20814
35.227
83.7312
134.28
181.289
229.501
282.031
337.307
396.111
460.885
532.907
612.341
3.31808
2.41776
2.23702
2.0906
2.00245
2.01714
5.36831
35.8295
84.5985
135.323
182.637
231.38
284.49
340.399
400.042
465.907
539.28
620.333
3.33647
2.43646
2.25589
2.10997
2.02299
2.03911
5.46611
36.1974
85.1425
136.012
183.573
232.727
286.275
342.647
402.877
469.469
543.695
625.701
3.35528
2.4554
2.27505
2.12965
2.04361
2.06099
5.49944
36.3393
85.3768
136.357
184.104
233.547
287.393
344.054
404.613
471.558
546.119
628.381
3.37452
2.47459
2.29446
2.14961
2.06434
2.0827
5.50074
36.248
85.2945
136.358
184.235
233.844
287.85
344.626
405.25
472.169
546.541
628.358
3.39377
2.49445
2.31405
2.16984
2.0852
2.10423
5.47457
35.9296
84.8994
136.01
183.972
233.63
287.647
344.366
404.798
471.313
544.975
625.65
3.41305
2.51507
2.33381
2.19034
2.1062
2.12561
5.42305
35.3928
84.1959
135.315
183.319
232.913
286.787
343.279
403.27
469.01
541.455
620.316
3.43237
2.53641
2.35374
2.21111
2.12735
2.14684
5.34835
34.6484
83.1878
134.273
182.276
231.697
285.275
341.372
400.683
465.292
536.035
612.453
3.45174
2.55846
2.37385
2.23215
2.14866
2.16795
5.25287
33.7087
81.878
132.884
180.845
229.987
283.118
338.655
397.058
460.202
528.796
602.201
3.47116
2.58123
2.39415
2.25346
2.17014
2.18894
5.13923
32.5875
80.2691
131.146
179.023
227.788
280.322
335.136
392.42
453.795
519.834
589.732
3.49065
2.60471
2.41466
2.27505
2.19181
2.20984
5.01021
31.3001
78.3638
129.055
176.808
225.105
276.895
330.826
386.797
446.133
509.267
575.248
3.51023
2.62894
2.43538
2.29692
2.21368
2.23065
4.86872
29.8637
76.1659
126.606
174.196
221.941
272.847
325.737
380.218
437.286
497.223
558.97
3.52989
2.65393
2.45634
2.31907
2.23577
2.25141
4.71775
28.2974
73.6809
123.795
171.182
218.302
268.189
319.882
372.715
427.327
483.843
541.13
3.54966
2.67969
2.47754
2.34151
2.25809
2.27213
4.56029
26.6218
70.9166
120.616
167.759
214.193
262.935
313.275
364.32
416.332
469.268
521.961
3.56954
2.70624
2.49901
2.36423
2.28068
2.29282
4.39932
24.8597
67.8844
117.064
163.918
209.615
257.098
305.935
355.063
404.371
453.637
501.69
3.58956
2.73359
2.52076
2.38724
2.30355
2.31353
4.2377
23.0352
64.6
113.137
159.652
204.573
250.697
297.884
344.975
391.512
437.079
480.527
3.60971
2.76177
2.54282
2.41054
2.32673
2.33427
4.07814
21.1742
61.0843
108.834
154.951
199.067
243.751
289.147
334.086
377.809
419.704
458.656
3.63001
2.79077
2.56519
2.43414
2.35022
2.35508
3.92316
19.3033
57.3642
104.16
149.807
193.096
236.279
279.757
322.429
363.307
401.598
436.226
3.65048
2.82062
2.58791
2.45802
2.37407
2.37599
3.77499
17.4498
53.4733
99.1259
144.211
186.659
228.303
269.749
310.039
348.043
382.819
413.335
3.67113
2.85132
2.61099
2.4822
2.39829
2.39703
3.63557
15.641
49.4513
93.7517
138.162
179.751
219.841
259.166
296.96
332.049
363.397
390.031
3.69197
2.88286
2.63444
2.50667
2.42289
2.41825
3.50649
13.9029
45.3498
88.0687
131.662
172.367
210.91
248.054
283.246
315.365
343.35
366.307
3.713
2.91521
2.65828
2.53143
2.44789
2.43967
3.38897
12.2637
41.1779
82.1158
124.724
164.506
201.523
236.461
268.967
298.051
322.705
342.145
3.73426
2.94843
2.68255
2.55646
2.4733
2.46134
3.28379
10.7838
36.9993
75.9435
117.377
156.169
191.691
224.437
254.211
280.202
301.529
317.554
3.75573
2.98271
2.70741
2.58178
2.49913
2.48329
3.1914
9.4786
32.8954
69.6195
109.667
147.375
181.424
212.026
239.072
261.943
279.942
292.617
3.77744
3.01763
2.73292
2.60737
2.52538
2.50556
3.11195
8.34708
28.95
63.2307
101.66
138.156
170.74
199.267
223.639
243.415
258.112
267.495
3.79939
3.05304
2.7591
2.63324
2.55203
2.52818
3.04524
7.38047
25.2403
56.8816
93.4507
128.576
159.672
186.196
207.986
224.744
236.206
242.377
3.82159
3.08879
2.78594
2.65939
2.57907
2.55117
2.99078
6.56618
21.8311
50.6893
85.1618
118.731
148.281
172.855
192.167
206.014
214.337
217.37
3.84405
3.12479
2.81343
2.68583
2.60649
2.57453
2.94788
5.88955
18.7704
44.7751
76.9432
108.763
136.675
159.317
176.231
187.26
192.497
192.429
3.86676
3.16091
2.84151
2.71254
2.63425
2.59827
2.91563
5.33482
16.0867
39.254
68.9641
98.8554
125.019
145.708
160.259
168.492
170.67
167.068
3.88973
3.19701
2.87015
2.73951
2.66232
2.62236
2.89301
4.88607
13.7878
34.2229
61.3998
89.227
113.542
132.24
144.409
149.875
148.612
140.471
3.91296
3.23297
2.89926
2.76674
2.69066
2.64678
2.87894
4.52787
11.863
29.7524
54.4157
80.1196
102.536
119.245
128.98
131.745
125.91
115.238
3.93639
3.26865
2.92874
2.79419
2.71924
2.67148
2.87231
4.24582
10.2843
25.8753
48.14
71.7592
92.3224
107.115
114.851
113.733
106.192
99.0125
3.96051
3.30393
2.95852
2.82185
2.74801
2.69633
2.87217
4.02692
9.02202
22.6122
42.6896
64.3752
83.2666
96.3566
102.715
98.2665
97.4743
93.805
3.97956
3.33503
2.98523
2.84666
2.7738
2.71899
2.87603
3.87737
8.10601
20.144
38.472
58.6077
76.2138
88.2395
92.4483
92.1404
99.3873
91.8018
3.99842
3.36206
3.00879
2.86857
2.79655
2.7398
2.88271
3.77141
7.45889
18.3345
35.3214
54.2829
70.968
82.6399
84.3535
93.5256
102.614
89.8286
4.01708
3.38878
3.03238
2.89054
2.81933
2.7614
2.8919
3.68744
6.93232
16.8147
32.6458
50.6202
66.6036
78.1487
80.4862
102.888
103.689
87.9042
87.7555
87.4444
87.2796
87.1881
87.0982
87.0098
86.9221
86.8342
86.743
86.6335
86.5061
86.3629
86.2102
86.0579
85.9205
85.7969
85.6532
85.5034
89.2171
100.5
149.419
354.798
101.129
100.673
100.602
101.183
101.796
102.325
102.638
102.67
102.376
101.722
100.704
99.3207
97.5965
95.5721
93.3385
91.0318
88.7685
86.6431
84.9261
84.4367
84.3701
85.516
129.015
130.448
132.515
135.113
137.484
139.368
140.544
140.878
140.283
138.709
136.136
132.565
128.029
122.588
116.35
109.495
102.336
95.3948
89.4381
85.357
83.7568
83.3957
162.454
168.647
174.781
180.606
185.562
189.349
191.729
192.529
191.636
188.994
184.568
178.362
170.415
160.806
149.677
137.271
124.019
110.671
98.4515
89.0672
84.258
83.0775
198.283
210.73
222.015
231.905
240.014
246.103
249.944
251.353
250.211
246.464
240.083
231.087
219.539
205.55
189.299
171.076
151.374
131.06
111.624
95.4208
85.5608
82.9236
234.842
254.1
271.074
285.538
297.215
305.93
311.46
313.615
312.273
307.377
298.923
286.968
271.631
253.091
231.605
207.534
181.427
154.2
127.465
103.981
87.8731
82.7964
271.252
297.48
320.448
339.888
355.548
367.25
374.738
377.804
376.314
370.225
359.565
344.449
325.076
301.735
274.807
244.778
212.296
178.318
144.466
113.701
91.0102
82.6887
307.059
340.276
369.427
394.156
414.163
429.174
438.868
443
441.425
434.113
421.136
402.678
379.042
350.648
318.035
281.866
242.953
202.351
161.675
123.89
94.619
82.5939
342.006
382.16
417.601
447.841
472.467
491.046
503.162
508.507
506.908
498.35
482.959
461.009
432.927
399.282
360.788
318.311
272.873
225.706
178.479
134.091
98.4652
82.5082
375.934
422.908
464.672
500.578
530.036
552.418
567.169
573.875
572.309
562.467
544.545
518.942
486.242
447.19
402.689
353.805
301.787
248.095
194.541
143.975
102.381
82.4291
408.716
462.336
510.414
552.109
586.609
613.052
630.679
638.913
637.433
626.238
605.623
576.156
538.635
494.025
443.432
388.115
329.534
269.39
209.711
153.365
106.251
82.3549
440.247
500.304
554.658
602.27
642.053
672.863
693.655
703.612
702.27
689.622
666.094
632.488
589.888
539.541
482.785
421.061
356.003
289.534
223.934
162.176
110
82.2847
470.422
536.699
597.293
650.961
696.309
731.841
756.135
768.04
766.892
752.665
725.954
687.873
639.881
583.581
520.585
452.51
381.119
308.505
237.206
170.375
113.583
82.2175
499.137
571.431
638.232
698.106
749.328
789.977
818.148
832.259
831.367
815.415
785.214
742.277
688.541
626.046
556.724
482.369
404.828
326.299
249.546
177.962
116.975
82.1528
526.291
604.413
677.387
743.618
801.032
847.212
879.668
896.266
895.704
877.871
843.849
795.65
735.8
666.862
591.129
510.578
427.098
342.921
260.984
184.951
120.16
82.09
551.778
635.541
714.646
787.367
851.279
903.409
940.574
959.967
959.82
939.945
901.757
847.889
781.568
705.955
623.746
537.099
447.912
358.382
271.552
191.364
123.132
82.0288
575.49
664.698
749.865
829.173
899.854
958.335
1000.64
1023.16
1023.53
1001.45
958.747
898.819
825.709
743.238
654.525
561.906
467.263
372.697
281.281
197.227
125.889
81.9692
597.314
691.748
782.866
868.798
946.458
1011.65
1059.54
1085.52
1086.52
1062.07
1014.53
948.187
868.038
778.598
683.411
584.98
485.151
385.88
290.202
202.566
128.434
81.9107
617.132
716.538
813.437
905.949
990.712
1062.93
1116.79
1146.59
1148.36
1121.4
1068.7
995.652
908.31
811.89
710.336
606.301
501.579
397.949
298.342
207.407
130.767
81.8533
634.818
738.898
841.333
940.277
1032.15
1111.59
1171.78
1205.76
1208.45
1178.87
1120.74
1040.79
946.224
842.935
735.218
625.846
516.556
408.925
305.729
211.775
132.896
81.7967
650.243
758.64
866.274
971.383
1070.24
1156.96
1223.75
1262.21
1265.99
1233.72
1170.01
1083.1
981.433
871.529
757.963
643.596
530.096
418.833
312.392
215.695
134.824
81.741
663.274
775.567
887.964
998.825
1104.35
1198.24
1271.72
1314.91
1319.95
1285.05
1215.78
1122.04
1013.58
897.475
778.495
659.548
542.23
427.708
318.361
219.192
136.558
81.686
673.785
789.491
906.106
1022.15
1133.83
1234.51
1314.58
1362.61
1369.12
1331.75
1257.23
1157.07
1042.39
920.669
796.814
673.749
553.012
435.594
323.667
222.289
138.106
81.6316
681.66
800.242
920.431
1040.93
1158.01
1264.87
1351.16
1403.98
1412.17
1372.7
1293.58
1187.76
1067.65
941.053
812.945
686.257
562.502
442.533
328.339
225.006
139.472
81.5778
686.804
807.683
930.727
1054.83
1176.38
1288.49
1380.22
1437.76
1447.9
1406.89
1324.16
1213.72
1089.14
958.512
826.848
697.083
570.73
448.555
332.398
227.358
140.661
81.5245
689.141
811.717
936.858
1063.63
1188.59
1304.94
1402.08
1463.51
1475.14
1433.5
1348.38
1234.55
1106.6
972.891
838.446
706.206
577.706
453.675
335.856
229.358
141.675
81.4716
688.611
812.287
938.75
1067.23
1194.44
1313.83
1414.9
1477.57
1492.16
1451.71
1365.62
1249.81