/*--------------------------------*- C++ -*----------------------------------*\
| =========                 |                                                 |
| \\      /  F ield         | OpenFOAM: The Open Source CFD Toolbox           |
|  \\    /   O peration     | Version:  v2012                                 |
|   \\  /    A nd           | Website:  www.openfoam.com                      |
|    \\/     M anipulation  |                                                 |
\*---------------------------------------------------------------------------*/
FoamFile
{
    version     2.0;
    format      ascii;
    class       volScalarField;
    location    "614";
    object      k;
}
// * * * * * * * * * * * * * * * * * * * * * * * * * * * * * * * * * * * * * //

dimensions      [0 2 -2 0 0 0 0];


internalField   nonuniform List<scalar> 
6054
(
0.0491182
0.0530819
0.0575921
0.062757
0.0687114
0.0756292
0.0837427
0.0933638
0.10492
0.119013
0.136512
0.158713
0.187629
0.226525
0.280992
0.361235
0.487398
0.703229
1.11562
2.02707
0.121347
0.131377
0.142742
0.155692
0.170546
0.187709
0.207697
0.231187
0.259087
0.292626
0.333515
0.384182
0.448174
0.530821
0.640406
0.790259
1.00264
1.316
1.79792
2.56226
0.161483
0.174856
0.189986
0.207196
0.226886
0.24956
0.275864
0.30663
0.342942
0.386248
0.438503
0.502406
0.581759
0.682031
0.811282
0.981673
1.21199
1.53187
1.98903
2.66206
0.184834
0.200162
0.217486
0.237162
0.259635
0.285457
0.315326
0.350129
0.391014
0.439477
0.497503
0.56777
0.653952
0.761194
0.896872
1.07183
1.3025
1.61473
2.05134
2.68868
0.195822
0.212087
0.230452
0.251294
0.275071
0.302358
0.333868
0.370509
0.413437
0.464148
0.524602
0.59741
0.6861
0.795558
0.932713
1.10773
1.33614
1.64303
2.0715
2.70133
0.195724
0.212015
0.230399
0.251254
0.275042
0.302336
0.333852
0.370497
0.413428
0.464141
0.524598
0.597406
0.686098
0.795556
0.932711
1.10773
1.33614
1.64303
2.0715
2.70133
0.184543
0.199952
0.217332
0.237049
0.259552
0.285396
0.315281
0.350097
0.390991
0.43946
0.497491
0.567762
0.653945
0.76119
0.896869
1.07183
1.30249
1.61473
2.05134
2.68868
0.161004
0.174527
0.18975
0.207026
0.226763
0.249473
0.275802
0.306585
0.34291
0.386224
0.438486
0.502394
0.58175
0.682025
0.811278
0.98167
1.21198
1.53187
1.98903
2.66206
0.120696
0.130976
0.142462
0.155499
0.170412
0.187614
0.207629
0.231138
0.259051
0.2926
0.333496
0.384168
0.448164
0.530814
0.640401
0.790256
1.00264
1.316
1.79792
2.56226
0.048912
0.0529492
0.0575038
0.0626971
0.0686689
0.0755986
0.0837205
0.0933476
0.104908
0.119005
0.136506
0.158708
0.187626
0.226523
0.28099
0.361234
0.487398
0.703229
1.11562
2.02707
0.0141311
0.0149541
0.0157946
0.0166562
0.0175431
0.0184601
0.0194127
0.0204075
0.0214518
0.0225543
0.023725
0.0249753
0.0263187
0.0277703
0.029348
0.0310637
0.0329302
0.034974
0.0372257
0.0397211
0.0425013
0.0456145
0.0318897
0.0339394
0.0360551
0.0382439
0.0405143
0.0428759
0.0453398
0.0479191
0.0506294
0.053489
0.0565196
0.059747
0.0632013
0.0669176
0.0709372
0.0752959
0.0800565
0.0852813
0.0910424
0.0974232
0.104521
0.11245
0.0435494
0.0460863
0.0487196
0.0514618
0.0543261
0.0573266
0.0604791
0.0638018
0.0673157
0.0710453
0.0750191
0.0792704
0.0838382
0.0887681
0.0941088
0.0999239
0.106286
0.113274
0.120983
0.129519
0.139011
0.149606
0.0510212
0.053719
0.056541
0.0595027
0.06262
0.0659097
0.0693903
0.0730828
0.0770113
0.0812035
0.0856917
0.0905133
0.0957118
0.101338
0.107449
0.114119
0.121427
0.12946
0.138322
0.148135
0.15904
0.171207
0.0554182
0.0580599
0.0608449
0.0637907
0.0669148
0.0702359
0.0737746
0.0775543
0.0816013
0.0859459
0.0906225
0.0956708
0.101136
0.107072
0.113544
0.120627
0.128401
0.136952
0.146386
0.156827
0.168424
0.181352
0.0572454
0.05964
0.0621842
0.0648957
0.067793
0.0708965
0.0742289
0.0778165
0.0816888
0.0858792
0.090425
0.0953675
0.100753
0.106635
0.113091
0.120192
0.128009
0.13662
0.146116
0.156612
0.168256
0.181222
0.0568277
0.0588041
0.0609181
0.063185
0.0656214
0.0682472
0.0710865
0.0741684
0.0775268
0.0812014
0.0852372
0.0896798
0.0945804
0.0999947
0.106013
0.112707
0.120144
0.128397
0.137479
0.147475
0.158533
0.170819
0.0545829
0.0560379
0.0576021
0.0592803
0.0610792
0.0630099
0.0650897
0.0673433
0.0698041
0.0725164
0.0755393
0.0789343
0.0827719
0.0871223
0.0920721
0.0977189
0.104132
0.111381
0.11947
0.128377
0.138153
0.148965
0.0512479
0.0522493
0.0533354
0.0544906
0.0556984
0.0569448
0.0582193
0.0595175
0.0608428
0.0622087
0.0636426
0.0651881
0.0669776
0.0691477
0.071757
0.0749887
0.078946
0.0836883
0.0893731
0.0959762
0.103406
0.111665
0.0476381
0.0483939
0.0492304
0.0501127
0.0510051
0.0518714
0.0526734
0.0533668
0.053897
0.0541953
0.05418
0.0537621
0.0528537
0.0513336
0.049051
0.0464338
0.0441978
0.0425971
0.0418334
0.0420666
0.0432744
0.0454575
0.00102852
0.000911285
0.000961413
0.00130233
0.00242275
0.00345433
0.00443639
0.00535661
0.00620741
0.00702613
0.00782527
0.00861277
0.00939396
0.0101727
0.0109523
0.0117353
0.0125244
0.0133221
0.00183045
0.00235641
0.00409002
0.00597969
0.00746955
0.00879066
0.0102316
0.0119052
0.0136626
0.0153957
0.0171292
0.0188722
0.0206316
0.0224141
0.024226
0.0260735
0.0279626
0.0298994
0.00282664
0.00550085
0.00745523
0.0092944
0.0109355
0.012803
0.0151005
0.0176479
0.0201762
0.0226188
0.0249898
0.0273029
0.0295786
0.0318377
0.0341007
0.0363868
0.0387134
0.0410961
0.00421592
0.00826357
0.0102715
0.0120981
0.0141188
0.0166868
0.0197211
0.022864
0.0258722
0.0287043
0.0313729
0.0339084
0.0363506
0.038739
0.0411107
0.0434983
0.0459303
0.048431
0.00578276
0.0108265
0.0127988
0.0147817
0.0172912
0.0204708
0.0239987
0.0274733
0.0307048
0.0336677
0.0363859
0.0389088
0.041294
0.0435975
0.0458698
0.0481547
0.0504885
0.0529014
0.00696441
0.0130709
0.0151905
0.0174576
0.0204423
0.0240582
0.0278444
0.031432
0.034678
0.037572
0.0401545
0.0424916
0.0446555
0.046715
0.0487307
0.0507539
0.0528264
0.0549814
0.00792556
0.0150803
0.0174844
0.020106
0.0234769
0.0273432
0.0311929
0.0347168
0.03781
0.0404789
0.0427802
0.0447939
0.0466041
0.0482895
0.0499186
0.0515478
0.0532215
0.0549731
0.00876363
0.0168643
0.0196686
0.0226581
0.0263011
0.0302501
0.0340097
0.0373274
0.0401337
0.042452
0.0443541
0.0459327
0.0472831
0.0484938
0.0496408
0.0507849
0.0519713
0.0532309
0.00948136
0.0184614
0.0217215
0.025046
0.0288432
0.0327404
0.0362855
0.0392833
0.0416933
0.04356
0.0449705
0.0460318
0.0468538
0.0475384
0.0481724
0.0488233
0.049538
0.050343
0.0100922
0.0199005
0.0236209
0.0272166
0.0310621
0.0347967
0.0380309
0.0406152
0.0425425
0.0438811
0.0447373
0.0452385
0.0455156
0.0456901
0.0458641
0.0461134
0.0464841
0.0469941
0.0437511
0.04425
0.0447633
0.0452442
0.0456586
0.0459858
0.0462164
0.0463413
0.0463495
0.0462176
0.0458921
0.0452649
0.0445161
0.0436089
0.0424395
0.0407546
0.038051
0.0335399
0.0263371
0.0192083
0.0133913
0.0082106
0.0388487
0.0385196
0.0379457
0.0370729
0.0358743
0.0343507
0.0325224
0.0304213
0.0280877
0.0256025
0.0233803
0.021536
0.0196765
0.0177451
0.0159929
0.0144295
0.0128179
0.0108176
0.00818547
0.00571788
0.00320916
0.00139622
0.0324291
0.0307591
0.0286604
0.0261883
0.0234593
0.020635
0.0178988
0.0154427
0.0134674
0.0121771
0.0111952
0.0104285
0.00968926
0.0089924
0.00831572
0.00761446
0.00684053
0.00595806
0.00491858
0.00381283
0.00252129
0.00109021
0.0251598
0.0224162
0.0194852
0.0166056
0.0140252
0.011936
0.010431
0.00949565
0.00902732
0.00875032
0.00854908
0.00836509
0.00815211
0.00788326
0.00752705
0.00705639
0.00645883
0.00573935
0.00488001
0.00385652
0.0026256
0.00123335
0.0185366
0.015671
0.0131373
0.0111399
0.00975203
0.0089192
0.00851153
0.00838746
0.0083927
0.00842998
0.00845694
0.00844557
0.00836935
0.00820116
0.0079122
0.00747353
0.00689346
0.00616329
0.00526462
0.00416842
0.00288385
0.00140257
0.0137252
0.0115379
0.00996632
0.0089898
0.00848675
0.00830938
0.00833063
0.00845435
0.00860169
0.00873589
0.00883432
0.00887644
0.00883989
0.00869987
0.00842921
0.00799992
0.00741194
0.00665459
0.00570752
0.00453978
0.00317263
0.00157299
0.0108667
0.00951388
0.00872966
0.00837147
0.00829579
0.00838618
0.00856157
0.00876655
0.00896413
0.00913432
0.0092602
0.00932353
0.00930381
0.00917766
0.00891952
0.00849893
0.00790882
0.00713472
0.00614992
0.0049236
0.00346559
0.00174003
0.00940424
0.0086746
0.00836012
0.00831762
0.00843572
0.00863762
0.0088741
0.00911193
0.00933137
0.00951796
0.00965662
0.00973067
0.00972068
0.00960419
0.00935643
0.00894833
0.00836343
0.00758401
0.00657538
0.00530253
0.00375581
0.00190269
0.00873522
0.00839553
0.00834208
0.00846009
0.00867096
0.00892448
0.00918928
0.00944387
0.00967514
0.00987037
0.0100159
0.0100959
0.0100919
0.00998228
0.00974317
0.00934761
0.00877221
0.00799565
0.00697552
0.00566875
0.00404191
0.00206111
0.00847372
0.00837033
0.00846424
0.00866896
0.00892917
0.00921056
0.00949189
0.00975755
0.00999635
0.0101967
0.0103457
0.0104284
0.0104269
0.0103208
0.0100873
0.00970188
0.00913735
0.00836839
0.00734677
0.00601906
0.00432412
0.00221583
0.0084184
0.0084611
0.00864307
0.00889939
0.00918985
0.00948976
0.00978361
0.0100579
0.0103023
0.0105058
0.010656
0.0107383
0.0107359
0.0106295
0.0103977
0.0100178
0.00946352
0.00870391
0.00768931
0.00635304
0.00460328
0.00236752
0.00846978
0.00860714
0.00884615
0.00913704
0.00944934
0.00976442
0.0100692
0.010351
0.0105999
0.0108051
0.0109545
0.0110341
0.0110276
0.010917
0.0106827
0.0103038
0.00975633
0.00900728
0.00800582
0.0066718
0.00488035
0.00251688
0.0085793
0.00878208
0.0090616
0.00937854
0.00970922
0.010038
0.0103527
0.0106412
0.0108936
0.0110993
0.0112463
0.011321
0.0113077
0.0111895
0.0109487
0.010567
0.0100226
0.00928434
0.00829993
0.0069771
0.00515635
0.00266459
0.00872364
0.00897481
0.00928565
0.00962455
0.0099718
0.010313
0.0106366
0.0109306
0.0111853
0.0113901
0.0115332
0.0116013
0.0115792
0.0114508
0.0112002
0.0108119
0.0102678
0.00953962
0.00857496
0.00727089
0.00543223
0.00281135
0.00889179
0.00918113
0.00951822
0.00987648
0.0102384
0.0105904
0.0109214
0.0112193
0.0114745
0.0116768
0.0118145
0.0118746
0.0118421
0.0117016
0.0114389
0.0110415
0.0104954
0.00977663
0.00883395
0.00755521
0.00570896
0.00295782
0.00907878
0.00939994
0.00975971
0.0101349
0.0105095
0.0108704
0.0112065
0.0115059
0.0117593
0.011957
0.0120877
0.0121385
0.0120946
0.0119409
0.0116648
0.0112568
0.0107077
0.00999807
0.00907955
0.00783205
0.0059875
0.0031047
0.0092822
0.0096306
0.0100101
0.0103997
0.0107844
0.0111514
0.0114897
0.0117877
0.0120365
0.0122272
0.0123491
0.0123895
0.0123335
0.0121663
0.0118765
0.0114579
0.0109057
0.0102059
0.00931398
0.00810329
0.00626882
0.00325269
0.00950042
0.00987231
0.0102685
0.0106697
0.0110615
0.0114314
0.0117683
0.0120612
0.0123023
0.0124834
0.0125945
0.0126233
0.0125547
0.0123742
0.0120717
0.0116438
0.0110898
0.0104014
0.00953907
0.00837066
0.00655391
0.00340252
0.00973144
0.0101234
0.0105331
0.0109427
0.0113382
0.0117072
0.0120388
0.0123229
0.0125528
0.0127214
0.0128197
0.0128355
0.0127541
0.0125609
0.0122477
0.0118131
0.0112598
0.0105853
0.00975626
0.0086358
0.00684378
0.00355498
0.00997178
0.0103806
0.0108009
0.0112154
0.0116109
0.0119749
0.0122972
0.0125687
0.0127841
0.0129375
0.0130207
0.0130222
0.0129274
0.0127228
0.0124017
0.0119643
0.0114153
0.0107581
0.00996673
0.00890022
0.00713948
0.00371092
0.010216
0.0106394
0.0110673
0.0114836
0.0118754
0.0122307
0.0125398
0.0127952
0.0129929
0.0131282
0.0131941
0.0131796
0.0130711
0.0128565
0.0125314
0.0120963
0.0115558
0.0109199
0.0101715
0.00916535
0.0074421
0.00387129
0.0104577
0.0108938
0.0113273
0.0117425
0.0121274
0.0124705
0.012763
0.0129991
0.0131761
0.0132908
0.0133368
0.0133047
0.0131822
0.0129594
0.0126351
0.0122078
0.0116808
0.011071
0.0103713
0.00943261
0.00775276
0.00403715
0.0106914
0.0111386
0.0115761
0.0119877
0.0123631
0.0126912
0.012964
0.0131777
0.0133312
0.0134224
0.0134466
0.0133954
0.0132599
0.0130325
0.0127116
0.0122983
0.0117896
0.0112112
0.0105672
0.00970342
0.00807268
0.00420972
0.0109172
0.011371
0.0118093
0.0122166
0.01258
0.0128903
0.0131407
0.0133292
0.0134562
0.0135218
0.0135221
0.0134534
0.0133082
0.0130791
0.0127643
0.0123682
0.011882
0.0113409
0.0107602
0.00997925
0.00840322
0.00439041
0.011135
0.0115922
0.012028
0.0124265
0.0127759
0.0130661
0.0132911
0.0134515
0.0135497
0.013588
0.0135665
0.0134823
0.0133297
0.0131015
0.0127954
0.0124185
0.0119584
0.0114609
0.0109516
0.0102617
0.00874567
0.00458088
0.0113447
0.011802
0.0122318
0.012618
0.0129487
0.0132147
0.0134115
0.0135421
0.0136116
0.0136242
0.0135821
0.0134845
0.0133268
0.0131021
0.0128073
0.0124504
0.0120201
0.0115726
0.0111431
0.0105524
0.00910134
0.00478313
0.0115452
0.0119991
0.012419
0.0127889
0.0130971
0.0133356
0.0135019
0.0136019
0.013643
0.0136314
0.0135712
0.0134629
0.0133027
0.0130839
0.0128026
0.0124669
0.0120694
0.0116781
0.0113367
0.010853
0.00947124
0.00499963
0.0117351
0.0121814
0.0125871
0.012936
0.0132174
0.0134255
0.01356
0.01363
0.013645
0.0136124
0.0135372
0.0134211
0.013261
0.0130502
0.0127842
0.0124707
0.0121088
0.0117801
0.0115349
0.0111654
0.00985629
0.00523349
0.0119126
0.0123468
0.0127336
0.0130573
0.0133086
0.0134843
0.0135875
0.0136297
0.0136215
0.0135713
0.0134847
0.0133638
0.0132061
0.0130051
0.0127555
0.0124646
0.0121414
0.0118819
0.0117404
0.0114917
0.0102602
0.00548552
0.0120766
0.012494
0.0128578
0.0131527
0.0133718
0.0135149
0.0135884
0.0136056
0.0135778
0.0135135
0.0134188
0.013296
0.0131427
0.0129525
0.01272
0.0124508
0.0121715
0.0119876
0.011957
0.0118375
0.0106892
0.00574909
0.0122266
0.012623
0.0129603
0.0132237
0.0134095
0.0135208
0.0135673
0.0135632
0.0135196
0.0134451
0.0133457
0.0132235
0.0130764
0.0128974
0.0126818
0.0124347
0.0122028
0.0120996
0.0121878
0.0122062
0.0111446
0.00602552
0.0123635
0.0127337
0.0130407
0.0132718
0.0134253
0.0135077
0.0135311
0.0135095
0.0134538
0.0133724
0.013271
0.0131519
0.0130118
0.0128441
0.0126445
0.0124211
0.0122398
0.012222
0.0124361
0.0126022
0.0116304
0.00631507
0.0124867
0.0128275
0.0131029
0.0133022
0.0134258
0.0134827
0.0134866
0.0134509
0.0133863
0.0133009
0.0132003
0.0130858
0.0129536
0.0127969
0.0126105
0.0124154
0.0122875
0.0123593
0.0127052
0.0130309
0.0121495
0.00661892
0.012599
0.0129079
0.0131517
0.0133206
0.0134172
0.0134521
0.0134398
0.013393
0.0133221
0.0132353
0.0131376
0.0130292
0.0129052
0.0127584
0.0125887
0.0124244
0.0123514
0.0125163
0.0129999
0.0134893
0.0127044
0.00693721
0.0127037
0.0129793
0.0131918
0.0133323
0.0134047
0.0134207
0.0133945
0.0133387
0.0132644
0.0131794
0.0130876
0.012988
0.0128745
0.0127405
0.012589
0.0124554
0.0124378
0.0126983
0.0133245
0.0139846
0.0132973
0.00727002
0.0128052
0.0130464
0.0132284
0.0133424
0.0133931
0.0133926
0.013355
0.0132947
0.0132221
0.0131441
0.013063
0.0129757
0.0128749
0.0127542
0.0126199
0.0125153
0.012553
0.0129112
0.0136837
0.0145193
0.0139301
0.00761665
0.0129082
0.0131142
0.0132664
0.0133557
0.013387
0.0133723
0.0133291
0.0132706
0.0132063
0.0131414
0.013076
0.0130043
0.0129174
0.0128089
0.0126891
0.0126109
0.0127036
0.0131609
0.0140814
0.0150947
0.0146022
0.00797511
0.0130178
0.013188
0.0133114
0.0133779
0.0133919
0.013369
0.0133271
0.013278
0.0132294
0.0131841
0.0131387
0.0130846
0.0130108
0.0129115
0.0128022
0.012748
0.0128958
0.0134531
0.0145206
0.0157097
0.0153099
0.00834164
0.0131401
0.0132742
0.0133699
0.0134158
0.0134165
0.0133931
0.0133608
0.0133294
0.013304
0.0132837
0.0132612
0.0132246
0.013161
0.0130664
0.0129632
0.0129309
0.0131349
0.0137925
0.0150026
0.0163584
0.0160445
0.00870998
0.0132822
0.0133805
0.0134497
0.0134772
0.0134719
0.0134569
0.0134431
0.0134377
0.0134419
0.0134502
0.0134511
0.0134292
0.0133707
0.0132749
0.0131735
0.0131625
0.0134251
0.0141822
0.0155248
0.0170276
0.01679
0.0090705
0.0134522
0.0135155
0.0135602
0.0135734
0.0135712
0.0135737
0.0135875
0.0136154
0.0136537
0.0136916
0.0137131
0.0137
0.0136393
0.0135354
0.0134322
0.0134438
0.013769
0.0146233
0.016079
0.0176916
0.0175209
0.00940957
0.0136593
0.0136892
0.0137123
0.0137186
0.01373
0.0137586
0.0138079
0.0138746
0.0139484
0.014013
0.0140483
0.0140347
0.0139619
0.0138425
0.0137355
0.013774
0.0141675
0.015114
0.0166486
0.0183049
0.0182006
0.00970899
0.0139136
0.0139133
0.0139183
0.0139285
0.0139641
0.0140285
0.014119
0.014226
0.0143321
0.0144154
0.0144528
0.0144256
0.014329
0.0141873
0.0140773
0.0141513
0.0146202
0.0156493
0.0172177
0.0188842
0.0187824
0.00994337
0.0142265
0.0142012
0.0141974
0.0142224
0.0142935
0.0144013
0.0145354
0.0146784
0.014807
0.0148945
0.0149168
0.0148593
0.0147263
0.0145576
0.0144511
0.0145736
0.0151259
0.0162231
0.0177768
0.0194154
0.0192598
0.0101208
0.0146111
0.0145681
0.0145695
0.0146234
0.0147401
0.0148952
0.0150693
0.0152368
0.0153692
0.0154389
0.0154238
0.0153168
0.0151363
0.0149413
0.0148527
0.0150422
0.0156824
0.0168201
0.0183289
0.0198801
0.0196157
0.0102141
0.0150827
0.0150354
0.0150592
0.015163
0.0153277
0.0155259
0.0157273
0.0158985
0.0160076
0.0160294
0.01595
0.0157747
0.0155411
0.0153308
0.0152865
0.0155648
0.016288
0.0174094
0.0188455
0.0202426
0.0198
0.0102018
0.0156592
0.0156279
0.015692
0.0158565
0.0160721
0.0163016
0.0165063
0.0166491
0.0166991
0.0166378
0.0164657
0.0162087
0.015929
0.0157309
0.0157743
0.0161586
0.0169434
0.0179952
0.019283
0.0204477
0.019741
0.0100788
0.0163626
0.0163736
0.0165004
0.0167312
0.0169865
0.0172202
0.0173898
0.0174597
0.0174064
0.0172259
0.0169394
0.0166018
0.0163063
0.0161733
0.0163337
0.0168369
0.0176254
0.0185263
0.0195677
0.0204197
0.0193973
0.00982986
0.0172213
0.0173064
0.0175323
0.0178101
0.0180716
0.0182628
0.0183424
0.0182834
0.0180785
0.0177483
0.0173454
0.0169598
0.0167151
0.0167217
0.0170406
0.0176169
0.0182693
0.0189033
0.0195844
0.0200575
0.0187024
0.0095002
0.018271
0.0184599
0.0187826
0.0190852
0.0193014
0.0193835
0.0193032
0.0190531
0.0186545
0.0181662
0.017684
0.0173334
0.017248
0.0174644
0.0179193
0.0184301
0.018761
0.0189584
0.0191768
0.019242
0.0175619
0.00901369
0.0195594
0.0199011
0.02028
0.0205364
0.0206202
0.0205025
0.0201812
0.019684
0.0190776
0.0184748
0.0180173
0.0178444
0.0180265
0.0184517
0.0188922
0.0190468
0.0188327
0.0184474
0.0181865
0.0178664
0.0161859
0.00838609
0.0211496
0.0216456
0.0219937
0.0220882
0.0219178
0.0214915
0.020854
0.0200906
0.0193328
0.0187513
0.0185044
0.0186659
0.0191379
0.0195924
0.0196511
0.0191046
0.0181333
0.0171724
0.0165784
0.0160893
0.0146169
0.00763161
0.0231656
0.0236796
0.0238193
0.0235795
0.0230045
0.0221674
0.0211908
0.0202426
0.0195162
0.0192019
0.019379
0.0199143
0.0204484
0.0204143
0.0195856
0.0180951
0.0164336
0.0151086
0.0143883
0.0141038
0.0129589
0.00679353
0.02553
0.0258296
0.0255099
0.0247197
0.0236026
0.0223362
0.0211483
0.0202822
0.0199046
0.0201313
0.0207687
0.0213363
0.0212437
0.0201177
0.0180965
0.0158275
0.0138694
0.0125984
0.0120459
0.012121
0.0113101
0.00591507
0.028072
0.0277135
0.0266153
0.0250879
0.0234401
0.0219636
0.0209508
0.0206054
0.0209223
0.0216663
0.022227
0.02202
0.0205386
0.0179288
0.0150624
0.0126686
0.0109928
0.0101128
0.00996016
0.0102758
0.00960978
0.0050892
0.0301548
0.0286191
0.0264862
0.0243324
0.0225587
0.0214268
0.0212051
0.0217533
0.0224905
0.0229674
0.0225123
0.0205468
0.0173121
0.0138474
0.0111663
0.00944314
0.00840701
0.00800643
0.00821536
0.00852907
0.00789361
0.00435613
0.0307337
0.0276765
0.0247532
0.0227473
0.0216206
0.0217432
0.0224343
0.0230906
0.0232371
0.0222386
0.0196133
0.0157867
0.0119752
0.00902486
0.00747808
0.00683426
0.0065173
0.0064682
0.0067261
0.00690207
0.00629086
0.00367053
0.0285315
0.0245014
0.0220309
0.0217223
0.0221531
0.022689
0.0228263
0.0220722
0.0200719
0.0169023
0.0128407
0.00902981
0.00656326
0.00536887
0.00502081
0.00499843
0.0050331
0.00515427
0.00536547
0.00543745
0.00492757
0.0029987
0.0228186
0.0202739
0.0196808
0.0196725
0.0197196
0.0189026
0.0170206
0.0144358
0.0115887
0.00866323
0.00595552
0.00401213
0.00319269
0.00305482
0.00318254
0.00338505
0.0035971
0.00383642
0.00407779
0.00418383
0.00383673
0.00228969
0.0158971
0.00906413
0.00406645
0.00401016
0.00408825
0.00401026
0.0037127
0.00321572
0.00256741
0.00187252
0.00136487
0.00115391
0.00116995
0.0012782
0.00141888
0.00157649
0.00175455
0.001971
0.00215834
0.0022466
0.00210743
0.00142056
0.0106465
0.0212543
0.0254251
0.0292162
0.0330164
0.0364841
0.039311
0.0413907
0.0427492
0.0434857
0.0437361
0.0436553
0.0434022
0.0431205
0.0429229
0.04288
0.0430176
0.0433219
0.0111266
0.0224319
0.027003
0.0309083
0.0345724
0.0377017
0.0400613
0.0415864
0.0423399
0.0424561
0.0421082
0.0414852
0.0407711
0.0401177
0.0396204
0.0393055
0.0391337
0.0390179
0.0115447
0.0234281
0.0283409
0.0322811
0.0357317
0.0384721
0.0403256
0.0412719
0.0414154
0.0409318
0.0400326
0.0389389
0.0378438
0.0368748
0.0360662
0.0353571
0.0346166
0.0336869
0.0118882
0.0242279
0.0294405
0.0333382
0.0365182
0.0388371
0.0401655
0.0405321
0.040088
0.039054
0.0376787
0.0361988
0.0347879
0.03351
0.0323058
0.031023
0.0294801
0.0275395
0.0121657
0.0248543
0.0302958
0.0340817
0.0369668
0.0388463
0.0396504
0.03946
0.0384769
0.0369673
0.0352068
0.0334239
0.0317377
0.0301231
0.0284345
0.0264862
0.0241553
0.0214522
0.0123814
0.0253096
0.0308953
0.0345455
0.0371163
0.0385554
0.0388556
0.0381527
0.0367015
0.0348081
0.0327572
0.0307401
0.0287965
0.0268166
0.0246233
0.0221001
0.0192886
0.0163969
0.0125395
0.0256077
0.0312701
0.0347617
0.0370107
0.0380242
0.0378581
0.0367055
0.0348728
0.0326938
0.0304385
0.0282358
0.026041
0.0236989
0.021086
0.0182431
0.0153954
0.0128549
0.0126443
0.0257649
0.0314484
0.0347651
0.0366966
0.0373125
0.036732
0.0352055
0.0330848
0.0307138
0.0283232
0.0259638
0.0235261
0.0208734
0.0180136
0.0151624
0.0126409
0.0106984
0.0127007
0.0257982
0.0314585
0.0345916
0.0362202
0.0364775
0.0355445
0.0337266
0.0314098
0.0289276
0.0264495
0.0239482
0.0212888
0.0184205
0.0155161
0.0129048
0.0108718
0.00950922
0.0127134
0.0257245
0.0313274
0.034276
0.035625
0.0355703
0.0343525
0.0323262
0.029897
0.0273662
0.0248284
0.0221929
0.0193491
0.0163803
0.0136015
0.0113573
0.00980842
0.00889989
0.0126877
0.0255604
0.0310808
0.0338506
0.0349497
0.0346342
0.0332008
0.0310446
0.0285737
0.0260379
0.0234522
0.0206887
0.017709
0.0147472
0.0122
0.0103438
0.00919881
0.00861609
0.0126286
0.0253215
0.0307423
0.0333446
0.0342275
0.0337043
0.0321223
0.0299062
0.0274492
0.0249348
0.0223018
0.019418
0.0163551
0.0134815
0.0112073
0.00970071
0.00886714
0.0085147
0.0125406
0.025022
0.0303331
0.0327828
0.0334853
0.0328067
0.0311381
0.0289219
0.0265199
0.0240389
0.0213532
0.0183598
0.015261
0.0125242
0.0105206
0.00930509
0.00870647
0.0085185
0.0124284
0.0246747
0.0298715
0.0321863
0.0327444
0.0319597
0.0302598
0.0280918
0.0257722
0.0233262
0.0205798
0.0174898
0.0143926
0.0118141
0.0100561
0.00907428
0.00865368
0.00858614
0.0122961
0.0242907
0.0293729
0.0315717
0.0320203
0.0311748
0.0294908
0.0274085
0.0251874
0.0227695
0.0199522
0.016781
0.0137145
0.0112976
0.00975191
0.0089565
0.0086725
0.00869581
0.0121474
0.0238796
0.0288501
0.0309522
0.0313238
0.0304577
0.0288288
0.0268594
0.0247441
0.0223278
0.019417
0.0161998
0.0131945
0.0109318
0.00956528
0.00891908
0.00874177
0.00883599
0.0119856
0.0234494
0.0283135
0.0303377
0.030662
0.0298098
0.0282674
0.026429
0.0244169
0.0219675
0.0189629
0.0157234
0.0128007
0.0106839
0.00946712
0.00894124
0.00884908
0.00900053
0.0118137
0.0230068
0.0277711
0.0297352
0.0300387
0.0292296
0.0277976
0.026101
0.0241645
0.0216716
0.0185846
0.0153349
0.0125085
0.0105288
0.00943745
0.00900973
0.00898688
0.00918571
0.011634
0.0225571
0.0272291
0.0291496
0.0294554
0.0287135
0.0274088
0.0258569
0.0239697
0.0214316
0.0182748
0.0150255
0.0123009
0.0104473
0.00946277
0.00911567
0.00914973
0.00938838
0.0114488
0.0221046
0.0266924
0.028584
0.0289118
0.028256
0.0270898
0.0256795
0.0238244
0.0212423
0.0180272
0.0147872
0.0121636
0.0104247
0.00953145
0.00925083
0.00933187
0.00960427
0.0112597
0.0216528
0.0261641
0.0280402
0.0284064
0.027851
0.0268292
0.0255534
0.0237215
0.0210991
0.0178367
0.0146141
0.0120803
0.0104463
0.00963255
0.00940625
0.00952562
0.00982681
0.0110684
0.0212042
0.0256467
0.0275188
0.0279368
0.027492
0.0266168
0.0254574
0.0236525
0.0209979
0.0176988
0.0144987
0.0120436
0.0105016
0.00975481
0.009571
0.00972156
0.0100485
0.010876
0.0207609
0.0251418
0.0270197
0.0275003
0.0271725
0.0264422
0.0253872
0.0236133
0.0209348
0.0176095
0.0144356
0.0120492
0.0105813
0.00988859
0.0097406
0.00991774
0.0102659
0.0106834
0.0203242
0.0246503
0.0265423
0.0270936
0.0268866
0.0262974
0.0253385
0.0236003
0.0209071
0.0175655
0.0144189
0.0120912
0.0106824
0.0100329
0.00991441
0.0101137
0.0104792
0.0104915
0.0198952
0.0241726
0.0260857
0.0267137
0.0266286
0.0261756
0.0253078
0.0236108
0.0209126
0.0175634
0.0144438
0.0121651
0.0108022
0.0101864
0.0100916
0.0103087
0.010688
0.0103008
0.0194747
0.0237089
0.0256487
0.0263574
0.0263936
0.0260715
0.025292
0.0236421
0.020949
0.0176002
0.0145063
0.0122673
0.0109388
0.0103482
0.0102715
0.0105024
0.0108919
0.0101119
0.019063
0.023259
0.0252299
0.0260217
0.0261774
0.0259806
0.0252883
0.0236918
0.0210141
0.0176729
0.0146029
0.0123951
0.0110908
0.0105176
0.0104536
0.010694
0.0110902
0.00992497
0.0186606
0.0228226
0.0248279
0.025704
0.0259761
0.0258992
0.0252943
0.0237578
0.021106
0.0177793
0.014731
0.0125464
0.0112571
0.010694
0.0106374
0.010883
0.0112818
0.00974017
0.018267
0.0223992
0.0244413
0.0254016
0.0257865
0.0258242
0.0253075
0.0238379
0.0212226
0.0179169
0.0148881
0.0127195
0.0114371
0.0108772
0.0108223
0.0110685
0.0114655
0.00955783
0.0178822
0.0219882
0.0240688
0.0251125
0.025606
0.0257531
0.0253258
0.02393
0.0213622
0.0180839
0.0150726
0.0129133
0.0116305
0.0110669
0.0110081
0.0112498
0.0116403
0.00937835
0.0175063
0.0215887
0.0237092
0.0248346
0.0254322
0.0256835
0.0253469
0.0240318
0.021523
0.018279
0.0152833
0.0131273
0.0118373
0.0112636
0.011195
0.0114271
0.011806
0.00920199
0.0171401
0.0212003
0.0233613
0.0245658
0.0252624
0.0256116
0.0253651
0.024138
0.021705
0.0185065
0.0155217
0.0133625
0.0120589
0.0114687
0.0113847
0.0116022
0.0119641
0.0090323
0.0167819
0.0208216
0.023023
0.0243043
0.0250947
0.025536
0.0253786
0.0242435
0.0218975
0.0187579
0.0157929
0.0136258
0.0123014
0.0116879
0.0115813
0.0117762
0.0121141
0.00886847
0.0164315
0.0204523
0.0226935
0.0240486
0.0249278
0.0254557
0.0253862
0.0243466
0.0220981
0.0190311
0.016093
0.0139169
0.0125672
0.0119232
0.0117858
0.0119503
0.0122577
0.00870979
0.016089
0.0200918
0.0223718
0.0237977
0.0247605
0.0253697
0.0253868
0.0244459
0.0223047
0.0193238
0.0164206
0.0142355
0.0128566
0.0121757
0.0119997
0.0121266
0.0123975
0.00855567
0.0157544
0.0197396
0.0220572
0.0235505
0.0245918
0.0252774
0.0253797
0.0245399
0.0225152
0.0196336
0.0167737
0.0145812
0.0131706
0.012447
0.0122255
0.0123079
0.0125372
0.00840559
0.0154274
0.0193952
0.021749
0.0233061
0.0244211
0.0251786
0.0253641
0.0246273
0.0227274
0.0199579
0.0171507
0.0149535
0.0135099
0.0127391
0.0124659
0.012498
0.012681
0.00825911
0.0151075
0.0190578
0.0214466
0.023064
0.0242477
0.0250728
0.0253395
0.0247069
0.0229391
0.0202941
0.0175499
0.0153521
0.0138756
0.0130544
0.0127245
0.0127012
0.012834
0.00811582
0.014794
0.0187273
0.0211495
0.0228235
0.0240714
0.0249601
0.0253055
0.0247776
0.023148
0.0206389
0.0179697
0.015777
0.014269
0.0133957
0.0130053
0.0129225
0.0130018
0.00797534
0.0144868
0.0184031
0.0208571
0.0225843
0.023892
0.0248405
0.025262
0.0248385
0.0233519
0.020988
0.0184076
0.016229
0.0146915
0.0137659
0.0133127
0.0131674
0.0131903
0.00783735
0.0141856
0.0180849
0.0205691
0.0223461
0.0237095
0.0247144
0.0252089
0.0248889
0.0235487
0.0213386
0.0188598
0.0167073
0.0151451
0.0141683
0.0136516
0.0134417
0.0134065
0.00770154
0.01389
0.0177724
0.0202852
0.0221087
0.0235241
0.0245821
0.0251465
0.0249283
0.0237364
0.0216876
0.0193227
0.0172098
0.015631
0.0146061
0.0140266
0.0137513
0.013659
0.00756765
0.0135999
0.0174651
0.020005
0.0218722
0.0233361
0.0244442
0.0250752
0.0249566
0.0239135
0.022032
0.0197933
0.0177341
0.016149
0.015082
0.0144418
0.0141035
0.0139565
0.00743544
0.013315
0.017163
0.0197285
0.0216366
0.0231458
0.0243014
0.0249957
0.0249739
0.0240787
0.0223692
0.0202682
0.0182777
0.0166988
0.0155974
0.0149016
0.0145055
0.0143081
0.00730472
0.013035
0.0168656
0.0194554
0.0214022
0.0229541
0.0241546
0.0249088
0.0249809
0.0242313
0.0226968
0.0207442
0.0188377
0.0172797
0.0161523
0.0154104
0.0149648
0.014724
0.00717529
0.01276
0.0165729
0.0191858
0.0211693
0.0227616
0.024005
0.0248157
0.0249786
0.0243715
0.0230132
0.0212184
0.0194115
0.0178886
0.0167491
0.0159733
0.0154891
0.0152155
0.00704701
0.0124896
0.0162847
0.0189196
0.0209383
0.0225692
0.0238537
0.0247177
0.0249683
0.0244998
0.0233176
0.0216886
0.0199968
0.0185232
0.017389
0.0165956
0.0160876
0.0157958
0.00691975
0.0122238
0.0160008
0.0186571
0.0207098
0.0223781
0.0237023
0.0246167
0.0249521
0.024618
0.0236102
0.022154
0.0205894
0.0191844
0.0180755
0.0172844
0.0167721
0.0164817
0.00679341
0.0119625
0.0157212
0.0183983
0.0204844
0.0221894
0.0235525
0.0245144
0.0249324
0.0247285
0.0238929
0.0226151
0.021189
0.0198731
0.0188134
0.0180493
0.0175579
0.0172953
0.00666793
0.0117056
0.0154459
0.0181433
0.0202628
0.0220043
0.023406
0.0244132
0.024912
0.0248345
0.0241688
0.0230721
0.0217986
0.0205938
0.0196104
0.0189031
0.0184648
0.0182644
0.00654328
0.0114532
0.0151748
0.0178925
0.0200455
0.0218241
0.0232645
0.0243153
0.0248939
0.0249401
0.0244425
0.023528
0.0224218
0.0213528
0.0204771
0.0198632
0.0195187
0.0194253
0.00641944
0.0112052
0.0149081
0.017646
0.0198331
0.0216496
0.0231294
0.0242229
0.0248813
0.0250497
0.0247184
0.0239905
0.0230665
0.0221603
0.0214295
0.0209543
0.0207571
0.0208306
0.00629645
0.0109616
0.0146456
0.0174041
0.0196259
0.0214808
0.0229987
0.0241382
0.0248774
0.0251677
0.0250016
0.024467
0.0237429
0.0230311
0.0224903
0.0222131
0.022237
0.0225642
0.00617438
0.0107227
0.0143877
0.0171669
0.0194242
0.0213175
0.022872
0.0240629
0.0248849
0.0252985
0.0252992
0.0249666
0.0244641
0.0239849
0.0236925
0.0236946
0.0240455
0.0247508
0.00605332
0.0104884
0.0141343
0.0169344
0.0192279
0.0211599
0.0227507
0.0239979
0.0249061
0.0254458
0.0256177
0.0254993
0.0252455
0.0250482
0.025083
0.0254808
0.0263115
0.0274827
0.0059334
0.0102589
0.0138858
0.0167069
0.019037
0.0210082
0.0226361
0.0239442
0.0249428
0.0256127
0.0259631
0.0260753
0.0261052
0.0262557
0.0267284
0.0276868
0.0292497
0.0304203
0.00581479
0.0100346