/*--------------------------------*- C++ -*----------------------------------*\
| =========                 |                                                 |
| \\      /  F ield         | OpenFOAM: The Open Source CFD Toolbox           |
|  \\    /   O peration     | Version:  v2012                                 |
|   \\  /    A nd           | Website:  www.openfoam.com                      |
|    \\/     M anipulation  |                                                 |
\*---------------------------------------------------------------------------*/
FoamFile
{
    version     2.0;
    format      ascii;
    class       volScalarField;
    location    "614";
    object      nut;
}
// * * * * * * * * * * * * * * * * * * * * * * * * * * * * * * * * * * * * * //

dimensions      [0 2 -1 0 0 0 0];


internalField   nonuniform List<scalar> 
6054
(
0.000497698
0.00051739
0.000538922
0.000562569
0.000588652
0.000617574
0.000649857
0.000686173
0.000727402
0.000774716
0.000829717
0.000894645
0.000972735
0.00106882
0.0011904
0.00134971
0.00156778
0.00188318
0.00237194
0.00319726
0.00277394
0.00287797
0.00299012
0.00311132
0.00324286
0.00338629
0.00354323
0.00371573
0.00390647
0.00411889
0.00435759
0.00462877
0.00494107
0.00530693
0.00574491
0.00628392
0.00697148
0.00789124
0.00920565
0.0112842
0.00473556
0.004903
0.00508243
0.00527509
0.0054824
0.00570607
0.00594822
0.00621132
0.00649831
0.00681295
0.00715998
0.00754554
0.00797767
0.00846698
0.00902753
0.00967766
0.0104402
0.0113398
0.0123914
0.0135603
0.00597729
0.00618194
0.00640022
0.00663339
0.00688285
0.00715017
0.00743713
0.00774576
0.00807836
0.00843747
0.00882594
0.00924694
0.00970389
0.0102003
0.0107395
0.0113233
0.0119507
0.0126141
0.013294
0.0139537
0.00656905
0.00679129
0.00702752
0.00727898
0.007547
0.00783299
0.00813846
0.00846491
0.00881388
0.00918674
0.00958461
0.0100081
0.0104569
0.0109291
0.0114209
0.0119254
0.012432
0.0129276
0.0134019
0.013866
0.00656398
0.00678779
0.00702509
0.00727729
0.00754582
0.00783217
0.00813788
0.00846452
0.00881361
0.00918656
0.0095845
0.010008
0.0104568
0.0109291
0.0114209
0.0119254
0.012432
0.0129276
0.0134019
0.013866
0.00596215
0.00617168
0.00639318
0.00662854
0.0068795
0.00714786
0.00743557
0.00774473
0.00807768
0.00843702
0.00882564
0.00924674
0.00970377
0.0102002
0.0107394
0.0113232
0.0119506
0.0126141
0.013294
0.0139537
0.00471106
0.00488727
0.00507181
0.00526792
0.00547755
0.00570286
0.00594611
0.00620991
0.00649737
0.00681232
0.00715957
0.00754527
0.0079775
0.00846687
0.00902746
0.00967761
0.0104402
0.0113398
0.0123914
0.0135603
0.00274589
0.00286216
0.00297965
0.00310457
0.00323848
0.00338341
0.00354131
0.00371445
0.00390561
0.00411832
0.00435721
0.00462852
0.0049409
0.00530682
0.00574484
0.00628388
0.00697145
0.00789122
0.00920564
0.0112842
0.000496652
0.000516742
0.000538509
0.0005623
0.00058847
0.00061745
0.000649771
0.000686114
0.00072736
0.000774688
0.000829697
0.000894632
0.000972726
0.00106881
0.00119039
0.0013497
0.00156778
0.00188318
0.00237194
0.00319726
0.000266951
0.000274616
0.000282227
0.000289823
0.000297439
0.000305113
0.000312887
0.000320804
0.00032891
0.000337256
0.000345898
0.000354895
0.000364314
0.000374227
0.00038471
0.000395796
0.000407513
0.000419969
0.000433277
0.000447564
0.000462962
0.000479619
0.00123168
0.00130361
0.0013749
0.00144529
0.0015146
0.00158267
0.0016494
0.00171476
0.00177882
0.00184171
0.00190365
0.00196497
0.00202608
0.00208749
0.0021498
0.00221343
0.00227996
0.00234999
0.00242412
0.00250296
0.00258712
0.00267723
0.00226284
0.00238061
0.00249523
0.00260671
0.00271517
0.00282077
0.00292379
0.00302459
0.0031236
0.00322132
0.00331833
0.00341528
0.00351292
0.00361207
0.00371336
0.00381834
0.00392816
0.00404364
0.00416562
0.00429493
0.00443245
0.00457903
0.00305558
0.0031855
0.003311
0.0034327
0.00355125
0.00366729
0.00378148
0.0038945
0.004007
0.00411968
0.00423323
0.00434839
0.00446593
0.00458667
0.00471137
0.00484167
0.00497836
0.00512217
0.0052739
0.00543437
0.00560448
0.00578514
0.00356
0.00367765
0.00379116
0.0039017
0.00401034
0.00411806
0.00422576
0.0043343
0.00444445
0.00455696
0.00467254
0.00479188
0.00491565
0.00504455
0.00517976
0.00532242
0.00547294
0.00563166
0.00579899
0.00597556
0.00616217
0.00635968
0.00379027
0.00387749
0.00396159
0.00404408
0.00412633
0.00420956
0.00429485
0.0043832
0.0044755
0.00457258
0.00467518
0.00478399
0.00489962
0.00502267
0.00515514
0.00529768
0.00545023
0.00561241
0.00578349
0.00596333
0.00615278
0.00635266
0.00377813
0.00382068
0.00386102
0.00390085
0.00394166
0.00398481
0.0040315
0.00408287
0.00413995
0.00420369
0.00427496
0.00435452
0.00444306
0.00454126
0.00465206
0.00477661
0.00491544
0.00506926
0.0052312
0.00540014
0.00557765
0.00576455
0.0035737
0.00356394
0.00355272
0.00354163
0.00353197
0.00352494
0.00352161
0.00352302
0.00353017
0.00354405
0.00356566
0.00359574
0.00363495
0.00368367
0.00374366
0.00381683
0.0039035
0.00400217
0.0041211
0.00425628
0.0043987
0.00454957
0.00326078
0.00320435
0.00314724
0.00309009
0.00303328
0.00297703
0.00292156
0.00286719
0.00281437
0.00276367
0.00271578
0.00267139
0.00263259
0.00260062
0.0025722
0.00255015
0.00253141
0.00251681
0.00251732
0.00254384
0.00260064
0.00267127
0.00292994
0.00284403
0.00275837
0.0026722
0.00258451
0.00249417
0.00239993
0.00230044
0.00219427
0.00207996
0.00195621
0.00182225
0.00167813
0.00152412
0.0013602
0.00119431
0.00104036
0.000903977
0.000788048
0.000693381
0.000615305
0.00054868
7.20195e-05
6.7791e-05
6.96305e-05
8.10411e-05
0.000110535
0.000110306
0.000111698
0.000164357
0.000176929
0.000188236
0.000198653
0.000208409
0.000217655
0.000226498
0.000235016
0.000243272
0.000251318
0.000259198
0.000120097
0.000231743
0.00030396
0.00031927
0.000327728
0.00036393
0.000409319
0.000468177
0.000533102
0.000598986
0.000665885
0.00073382
0.000802775
0.000872703
0.00094351
0.00101505
0.0010871
0.00115941
0.000149242
0.00044194
0.000470211
0.000485677
0.000524159
0.000596742
0.000702074
0.000827706
0.000960558
0.00109551
0.00123094
0.00136588
0.0014998
0.00163234
0.00176314
0.0018919
0.00201828
0.00214201
0.000182264
0.00057271
0.000618657
0.000658927
0.000737785
0.000866436
0.0010347
0.00122291
0.00141649
0.00160892
0.00179676
0.00197831
0.00215284
0.00232012
0.00248024
0.00263344
0.00278008
0.00292062
0.000213463
0.000686407
0.000743784
0.000849934
0.000978841
0.00116385
0.00138634
0.00162344
0.00186016
0.00208835
0.00230361
0.00250427
0.00269018
0.00286209
0.00302123
0.00316906
0.00330712
0.00343695
0.000234259
0.00071594
0.000870229
0.0010544
0.00123824
0.00147275
0.0017356
0.00200384
0.00226242
0.00250255
0.00271999
0.00291393
0.00308554
0.00323708
0.00337131
0.0034911
0.00359921
0.00369817
0.000249902
0.000777327
0.00100683
0.00126757
0.00150074
0.00177643
0.00206465
0.00234568
0.00260537
0.00283555
0.00303324
0.00319917
0.00333626
0.00344849
0.00354016
0.00361543
0.00367807
0.00373138
0.000262783
0.000870917
0.00115102
0.00148207
0.00175555
0.00205968
0.00236062
0.00263782
0.00288067
0.00308295
0.0032437
0.00336572
0.00345394
0.00351406
0.00355185
0.00357256
0.00358072
0.00358009
0.000273332
0.000976874
0.00129502
0.00169063
0.00199434
0.00231368
0.00261458
0.00287526
0.00308724
0.00324846
0.00336067
0.00342917
0.00346107
0.00346401
0.0034452
0.00341095
0.00336639
0.0033154
0.000281999
0.00108512
0.00143545
0.0018828
0.00221172
0.0025342
0.00282269
0.0030571
0.00322881
0.00334072
0.00339849
0.00341033
0.00338594
0.00333503
0.00326639
0.00318717
0.00310269
0.00301634
0.00262583
0.00252771
0.00243094
0.00233451
0.00223781
0.00214067
0.0020433
0.001946
0.00184907
0.00175251
0.00165573
0.00155694
0.00145834
0.00135833
0.00125412
0.00114026
0.00100824
0.000833168
0.000551601
0.000352462
0.00023963
0.000144755
0.00235354
0.00223881
0.002121
0.00199924
0.00187383
0.00174588
0.00161716
0.00149009
0.00136707
0.00125085
0.00114782
0.00105967
0.000972043
0.000882744
0.000799385
0.000722534
0.000645251
0.000556962
0.000422897
0.000305027
0.000228169
0.000104889
0.00208907
0.00194627
0.00179687
0.00164381
0.00149225
0.00134881
0.00122096
0.00111639
0.00104198
0.000996361
0.000961024
0.000930249
0.000894381
0.00085358
0.000804783
0.000745544
0.000674819
0.000592266
0.000448433
0.000344139
0.000245318
9.26851e-05
0.0018371
0.00167616
0.00152022
0.00138032
0.0012684
0.00119469
0.0011638
0.00117001
0.00118954
0.00120412
0.00120635
0.00119223
0.00115946
0.0011048
0.00102815
0.000921193
0.00076222
0.000622573
0.000497824
0.000393435
0.000247757
9.85823e-05
0.00163588
0.0014968
0.00139214
0.00133547
0.00133169
0.00137109
0.00143091
0.00148221
0.00150796
0.0015118
0.0014946
0.00145627
0.00139619
0.00131304
0.00120211
0.00101348
0.000856973
0.000715297
0.000580461
0.000432711
0.000263166
0.000105128
0.00153129
0.00146207
0.00145309
0.00149998
0.00158191
0.00166767
0.00173124
0.00176462
0.00177219
0.00175855
0.00172475
0.00167022
0.00159382
0.00149438
0.00135978
0.00115742
0.00098616
0.000828148
0.000672306
0.000476715
0.00028415
0.000111331
0.00154381
0.00156542
0.00164351
0.001751
0.00185338
0.00193071
0.0019766
0.0019943
0.00199127
0.00196905
0.00192723
0.0018644
0.00177898
0.00166935
0.00153409
0.00131153
0.0011193
0.000942687
0.000756875
0.000527262
0.000308132
0.000117094
0.00165333
0.00174939
0.00187512
0.00199558
0.00208843
0.00215048
0.00218542
0.00219696
0.00218949
0.0021632
0.00211672
0.00204845
0.00195659
0.00183921
0.00169444
0.00147018
0.00125674
0.00106045
0.00084144
0.00058233
0.000334132
0.000122445
0.00181793
0.00195787
0.00209718
0.00221063
0.00229231
0.00234596
0.00237631
0.00238549
0.00237585
0.00234656
0.00229619
0.00222312
0.00212557
0.00200152
0.00184876
0.00163136
0.00139693
0.00118123
0.000928941
0.000640508
0.000361688
0.00012744
0.00200192
0.00216009
0.00229722
0.00240245
0.00247766
0.0025279
0.00255668
0.00256487
0.00255325
0.00252079
0.00246619
0.00238799
0.0022846
0.00215408
0.00199412
0.00179148
0.00153901
0.00130503
0.00101724
0.000700696
0.000390523
0.000132137
0.0021844
0.00234667
0.00247901
0.00257926
0.00265198
0.00270149
0.00273011
0.00273737
0.00272334
0.00268706
0.00262741
0.00254326
0.00243336
0.00229606
0.00212911
0.00192951
0.00168119
0.0014185
0.0011046
0.000762014
0.000420448
0.000136585
0.00235696
0.00251896
0.00264811
0.00274667
0.00281945
0.00286981
0.00289867
0.00290467
0.00288762
0.00284667
0.00278098
0.00268983
0.00257245
0.00242766
0.00225352
0.00204695
0.00180366
0.00151876
0.00118971
0.000823734
0.000451314
0.000140827
0.00251888
0.00268041
0.00280882
0.00290813
0.00298278
0.00303482
0.00306385
0.00306818
0.00304746
0.00300096
0.00292817
0.00282887
0.00270287
0.00254963
0.00236773
0.00215435
0.00190477
0.00161248
0.00127161
0.000885236
0.000482995
0.000144901
0.00267176
0.00283413
0.00296401
0.00306605
0.00314377
0.00319769
0.00322677
0.00322901
0.00320395
0.00315103
0.0030701
0.00296148
0.00282565
0.00266283
0.00247237
0.00225197
0.00199684
0.00169912
0.00134955
0.000945995
0.000515379
0.000148838
0.00281771
0.00298252
0.00311585
0.00322203
0.00330327
0.00335916
0.00338809
0.00338781
0.00335778
0.0032976
0.00320752
0.00308843
0.00294156
0.00276801
0.00256808
0.00234026
0.00207999
0.00177842
0.00142299
0.00100557
0.000548367
0.000152666
0.00295867
0.0031276
0.00326571
0.00337665
0.00346163
0.00351943
0.00354796
0.00354472
0.00350911
0.00344092
0.00334077
0.00321013
0.00305106
0.0028657
0.00265542
0.00241971
0.0021545
0.00185032
0.00149158
0.00106359
0.000581863
0.00015641
0.00309593
0.00327026
0.00341395
0.00352995
0.00361867
0.00367823
0.00370604
0.00369938
0.00365764
0.00358076
0.00346971
0.00332657
0.00315428
0.00295613
0.00273478
0.00249078
0.00222075
0.00191494
0.00155513
0.00111977
0.000615778
0.000160095
0.00323021
0.00341075
0.0035604
0.00368148
0.00377375
0.00383476
0.00386145
0.00385094
0.00380259
0.00371648
0.00359387
0.00343742
0.00325104
0.00303932
0.00280636
0.00255385
0.00227913
0.00197251
0.00161357
0.00117388
0.000650023
0.00016374
0.00336155
0.00354873
0.00370438
0.0038303
0.00392576
0.0039878
0.00401294
0.00399817
0.00394284
0.00384708
0.00371243
0.00354207
0.0033409
0.00311503
0.00287021
0.00260923
0.00233003
0.0020233
0.00166693
0.00122574
0.000684509
0.000167369
0.00348929
0.00368327
0.00384473
0.00397506
0.00407319
0.00413576
0.00415889
0.00413951
0.00407695
0.00397134
0.00382436
0.00363968
0.00342324
0.00318288
0.00292626
0.00265713
0.00237382
0.00206763
0.00171533
0.00127523
0.000719139
0.000171
0.00361195
0.00381286
0.00397982
0.00411403
0.00421426
0.00427681
0.00429748
0.00427322
0.00420331
0.00408782
0.00392847
0.00372931
0.00349732
0.00324235
0.00297436
0.00269776
0.00241083
0.00210581
0.0017589
0.00132226
0.00075381
0.000174656
0.00367617
0.00393541
0.00410763
0.0042452
0.00434696
0.00440897
0.00442677
0.00439746
0.00432021
0.00419501
0.00402347
0.00380993
0.00352037
0.00323355
0.00301432
0.00273127
0.00244137
0.00213815
0.00179784
0.00136678
0.000788404
0.000178358
0.00360253
0.00391828
0.00422169
0.0043663
0.00446918
0.0045302
0.00454485
0.00451041
0.00442596
0.00429136
0.00410803
0.00378327
0.00344396
0.00317068
0.00298129
0.00275782
0.00246569
0.00216495
0.00183237
0.00140879
0.000822791
0.00018213
0.00352981
0.0038359
0.0041355
0.00441061
0.00457868
0.00463842
0.00464982
0.00461037
0.00451894
0.00437544
0.00405214
0.00370176
0.00337679
0.0031139
0.00293578
0.00277797
0.00248407
0.00218651
0.00186271
0.00144827
0.000856827
0.000185998
0.00346012
0.00375621
0.0040424
0.00430942
0.00453819
0.0046965
0.0047399
0.00469584
0.00453057
0.00427774
0.00396551
0.0036331
0.00331996
0.00306578
0.00289771
0.00279201
0.00249672
0.00220313
0.00188911
0.00148523
0.00089031
0.00018999
0.00339633
0.00368279
0.00395837
0.00420998
0.00442487
0.00457403
0.004628
0.00457609
0.00442397
0.00418732
0.00389488
0.0035771
0.0032754
0.00302914
0.00286824
0.00278375
0.00250388
0.00221511
0.00191182
0.00151967
0.000922971
0.000194139
0.00334519
0.00362472
0.00389336
0.00413725
0.00434282
0.00448337
0.00453601
0.004489
0.00434814
0.00412584
0.00384582
0.0035407
0.00324853
0.00300757
0.00284981
0.00277163
0.00250587
0.00222278
0.0019311
0.00155155
0.000954359
0.000198484
0.00331104
0.00358869
0.00385618
0.00410045
0.00430746
0.00444975
0.00450271
0.00445628
0.00431594
0.00409721
0.00382408
0.00352738
0.00324161
0.00300318
0.00284481
0.0027721
0.00250294
0.00222647
0.00194716
0.00158084
0.000983872
0.000203073
0.00329416
0.00357419
0.003845
0.00409406
0.00430671
0.00445356
0.00450748
0.00445917
0.0043164
0.00409807
0.00382895
0.00353756
0.00325567
0.00301697
0.00285578
0.00278583
0.00249522
0.00222649
0.0019602
0.00160747
0.00101212
0.000207905
0.0032922
0.00357703
0.00385342
0.00410922
0.00432921
0.00448163
0.0045373
0.00448758
0.00434322
0.00412579
0.00386017
0.00357271
0.00329246
0.00305136
0.00288668
0.0027746
0.00248326
0.00222388
0.00197165
0.00163387
0.00104111
0.000212841
0.00330201
0.00359269
0.0038757
0.0041396
0.00436897
0.0045293
0.00458894
0.00453997
0.00439655
0.00418211
0.00392066
0.00363615
0.00335497
0.00311052
0.00294291
0.00275378
0.00246732
0.00221846
0.00198138
0.00165979
0.00107081
0.000217898
0.0033203
0.00361655
0.00390624
0.00417986
0.0044219
0.00459385
0.00466069
0.00461602
0.00447785
0.00426994
0.00401374
0.0037308
0.00344698
0.00320024
0.00302216
0.00272711
0.00244741
0.00221034
0.00198948
0.00168531
0.00110136
0.000223072
0.00334306
0.003644
0.00394019
0.00422479
0.00448192
0.00466702
0.00474409
0.00471023
0.0045834
0.00438582
0.00413611
0.00385417
0.0035687
0.00331508
0.00300455
0.00269456
0.00242376
0.0021997
0.00199592
0.00171046
0.00113282
0.000228375
0.00336733
0.00367122
0.00397284
0.00426849
0.00453941
0.00473619
0.0048253
0.00480384
0.00467799
0.00447826
0.00422886
0.00393829
0.00361897
0.00328676
0.00295965
0.00265698
0.00239673
0.00218674
0.00200078
0.00173479
0.0011651
0.000233802
0.00339105
0.00369594
0.00400203
0.00430848
0.00459193
0.00480515
0.00486342
0.00476881
0.00461886
0.00441581
0.00416472
0.00387433
0.00355718
0.0032292
0.00290869
0.00261512
0.00236664
0.00217162
0.00200405
0.00175829
0.00119804
0.000239344
0.00341358
0.00371836
0.00402937
0.00434822
0.00465186
0.00484771
0.00480205
0.00470187
0.00454772
0.00434205
0.00409017
0.00380104
0.00348741
0.00316524
0.00285277
0.00256949
0.0023338
0.00215448
0.00200566
0.00178068
0.00123151
0.000244984
0.00343517
0.00373971
0.00405844
0.00439524
0.00472377
0.00478091
0.00472897
0.00462385
0.00446626
0.00425882
0.00400709
0.00372027
0.00341123
0.0030959
0.00279247
0.00252044
0.00229845
0.00213542
0.00200543
0.00180148
0.00126518
0.000250682
0.00345626
0.00375773
0.00409069
0.0044549
0.00470955
0.00470329
0.00464562
0.00453629
0.00437604
0.00416763
0.00391685
0.00363311
0.00332938
0.00302163
0.002728
0.00246811
0.00226073
0.00211447
0.00200307
0.00182
0.0012985
0.000256378
0.00347468
0.00377339
0.00412602
0.00452433
0.00462923
0.00461627
0.00455351
0.00444067
0.00427843
0.00406965
0.0038203
0.00354004
0.00324205
0.00294239
0.00265929
0.0024125
0.00222069
0.00209156
0.00199813
0.00183523
0.00133067
0.000261977
0.00348769
0.0037951
0.00416841
0.00450816
0.00454066
0.00452146
0.00445424
0.00433845
0.00417462
0.00396564
0.00371775
0.00344102
0.00314894
0.00285781
0.00258605
0.00235349
0.0021783
0.00206652
0.00198993
0.00184569
0.00136056
0.000267344
0.00350345
0.00382383
0.0042207
0.00441684
0.00444384
0.00442059
0.00434955
0.00423108
0.00406552
0.00385592
0.00360904
0.00333551
0.00304936
0.00276728
0.00250786
0.00229091
0.00213349
0.00203912
0.0019775
0.0018492
0.00138671
0.000272295
0.00352358
0.00385659
0.00425198
0.00432019
0.00434112
0.00431525
0.00424144
0.00411989
0.00395169
0.00374036
0.00349348
0.00322259
0.0029424
0.00267004
0.0024243
0.00222463
0.00208624
0.00200905
0.00195948
0.00163754
0.00140746
0.000276594
0.00355078
0.00389414
0.00416064
0.00422178
0.00423738
0.00420814
0.0041315
0.00400586
0.00383312
0.00361819
0.00336993
0.00310104
0.002827
0.0025654
0.00233511
0.00215473
0.00203667
0.00197605
0.0018207
0.0014751
0.00132632
0.000279912
0.00358249
0.00393153
0.00407042
0.00412485
0.00413516
0.00410164
0.00402037
0.00388887
0.00370888
0.00348789
0.00323675
0.00296943
0.00270216
0.00245294
0.00224044
0.00208172
0.00198518
0.00194004
0.00160712
0.00135694
0.0012532
0.000282399
0.00361591
0.00390227
0.00398495
0.00403223
0.00403643
0.00399669
0.00390769
0.00376671
0.00357663
0.00334695
0.00309174
0.00282619
0.00256713
0.00233279
0.00214118
0.00200674
0.00193253
0.00186459
0.00144734
0.001271
0.00119835
0.000283698
0.00364697
0.00383386
0.00390712
0.00394439
0.00394165
0.00389234
0.00379082
0.00363547
0.00343165
0.00319183
0.00293219
0.00266986
0.00242176
0.00220604
0.00203935
0.00193176
0.00187989
0.00164846
0.00133166
0.00121511
0.00116643
0.000283526
0.00366481
0.0037754
0.00383953
0.00386643
0.00385112
0.00378547
0.00366446
0.00348905
0.00326821
0.00301771
0.00275571
0.00249972
0.00226714
0.00207531
0.00193852
0.00185959
0.00182898
0.00149676
0.00125855
0.00119147
0.00117607
0.000281813
0.00364675
0.00372807
0.0037816
0.00379376
0.00375845
0.00366798
0.00351998
0.00331964
0.00308041
0.002821
0.00256071
0.00231702
0.00210683
0.00194559
0.00184216
0.00179314
0.001739
0.00139331
0.0012288
0.00120447
0.00122281
0.00027831
0.00357045
0.00369039
0.00372624
0.00371689
0.00365215
0.00352771
0.00334644
0.00311922
0.00286388
0.00260085
0.00234935
0.0021267
0.00194785
0.00182413
0.00175696
0.00173553
0.00155867
0.00133469
0.00124694
0.00126052
0.00129116
0.000273603
0.00343697
0.00362651
0.00366854
0.00362369
0.00351677
0.00334992
0.00313276
0.00288175
0.00261755
0.00236053
0.00212883
0.00193817
0.00180043
0.00171879
0.00168643
0.00168579
0.00143546
0.00132865
0.00132349
0.00137262
0.0013243
0.000266506
0.0032701
0.00345927
0.00358525
0.00349008
0.00333104
0.00311917
0.00287078
0.00260606
0.00234587
0.00210889
0.00191115
0.00176466
0.00167449
0.0016339
0.00162865
0.0014823
0.00137448
0.00139335
0.00147716
0.00153824
0.00127297
0.00025706
0.0030911
0.00330628
0.00344885
0.00328948
0.00307553
0.00282576
0.00256008
0.00229893
0.00206072
0.00186136
0.00171254
0.00161897
0.0015755
0.00156583
0.00147298
0.00137016
0.00140801
0.00154384
0.00164128
0.00159403
0.00120571
0.000245224
0.00292004
0.00319653
0.00322285
0.00299739
0.00273999
0.00247191
0.00221185
0.00197716
0.00178211
0.00163807
0.00154866
0.00150677
0.00148612
0.00131967
0.00129009
0.00137214
0.00151232
0.00153925
0.0015716
0.00151392
0.0011219
0.000231368
0.00274326
0.00308643
0.00288057
0.00260675
0.00233349
0.00207693
0.00185102
0.00166798
0.00153551
0.00145752
0.001424
0.00127125
0.00116079
0.00116343
0.00125466
0.00140106
0.00141722
0.00145702
0.00148832
0.00141075
0.00102051
0.000215891
0.00258277
0.00272441
0.00242205
0.0021393
0.00188904
0.00167762
0.0015138
0.00140328
0.00134305
0.00126304
0.00108124
0.00102775
0.00105785
0.00114092
0.00125339
0.00128524
0.00131891
0.00136715
0.00137438
0.00125749
0.000861091
0.000200254
0.00244101
0.00219445
0.00189206
0.00164856
0.00145923
0.00132165
0.00123952
0.00120539
0.00100607
0.000925861
0.000929259
0.00098373
0.00104635
0.00107292
0.00108838
0.00114505
0.00118728
0.00120744
0.0011679
0.00102187
0.000672068
0.00018527
0.00196272
0.00160903
0.00136587
0.00120462
0.00110098
0.00105436
0.000870591
0.00080596
0.000816758
0.000874356
0.000940408
0.000959122
0.000898193
0.000796588
0.000775983
0.000879434
0.000952766
0.000943157
0.000893314
0.000758471
0.000500274
0.000170067
0.00132717
0.00106201
0.000925988
0.000872068
0.000670043
0.000650099
0.00069401
0.000771365
0.000856534
0.000915243
0.000867064
0.00070999
0.000572172
0.000517646
0.000552487
0.000651612
0.000670379
0.00065995
0.000621222
0.000529047
0.000368623
0.000153717
0.000740938
0.000608178
0.000438825
0.000473097
0.000534639
0.000617943
0.000703921
0.000778566
0.000795565
0.00071073
0.000555152
0.000399811
0.00032553
0.000317067
0.000339115
0.000371095
0.00039763
0.000406618
0.000397123
0.000358123
0.000276222
0.000125076
0.000240678
0.000201032
0.000152153
0.000151097
0.000152561
0.000151098
0.000145385
0.000135305
0.000120899
0.000103249
8.81491e-05
8.10513e-05
8.16128e-05
8.5305e-05
8.98767e-05
9.47371e-05
9.99441e-05
0.00010593
0.00011085
0.000113093
0.000109451
9.72215e-05
0.00028964
0.00120355
0.00158039
0.0020411
0.00241327
0.00272782
0.00299257
0.00319001
0.00331498
0.00337174
0.00337192
0.00332746
0.00325099
0.00315445
0.00304785
0.00293848
0.00283076
0.00272653
0.000296099
0.00132904
0.0017266
0.0021954
0.00258517
0.00288305
0.00311631
0.0032711
0.00334601
0.0033495
0.00329612
0.00320288
0.00308535
0.00295691
0.00282731
0.00270199
0.00258239
0.00246714
0.00030161
0.00145704
0.00187658
0.00235277
0.00272691
0.00300179
0.00319877
0.00330854
0.00333402
0.00328815
0.00318941
0.00305802
0.002912
0.00276441
0.0026224
0.00248732
0.00235639
0.00222502
0.000306065
0.00151761
0.00203632
0.00251654
0.00284028
0.00308804
0.00324651
0.00331162
0.0032909
0.00320185
0.00306698
0.00290877
0.00274534
0.00258734
0.00243742
0.00229235
0.00214645
0.00199507
0.000309615
0.00156851
0.00220872
0.00261896
0.00292809
0.00314639
0.00326631
0.00328919
0.00322738
0.00310276
0.00294118
0.00276607
0.0025934
0.00242943
0.00227219
0.00211589
0.00195606
0.00179348
0.000312349
0.00160941
0.00229218
0.00270153
0.00299342
0.00318162
0.00326462
0.00324923
0.00315256
0.00300048
0.00282101
0.00263666
0.00245956
0.0022911
0.00212656
0.00196184
0.00179918
0.00164977
0.000314337
0.00164094
0.00235701
0.00276628
0.00303956
0.00319837
0.00324733
0.00319858
0.0030738
0.00290213
0.00271222
0.00252391
0.00234457
0.00217208
0.00200272
0.00183914
0.00169457
0.0015896
0.000315648
0.00166392
0.00240807
0.0028154
0.00306976
0.00320092
0.00321955
0.00314289
0.00299677
0.0028126
0.00261805
0.00242887
0.00224805
0.00207286
0.00190511
0.00175825
0.00165514
0.00161749
0.00031635
0.00167923
0.00244689
0.00285109
0.00308709
0.00319307
0.00318556
0.0030866
0.00292558
0.00273493
0.00253979
0.00235122
0.00216943
0.00199482
0.00183867
0.00172525
0.00168013
0.0017149
0.000316509
0.00168775
0.00247497
0.00287548
0.00309433
0.00317806
0.00314884
0.00303307
0.00286296
0.00267066
0.00247748
0.00229002
0.00210824
0.00193939
0.00180595
0.0017385
0.0017563
0.0018538
0.000316189
0.00169037
0.00249378
0.00289051
0.00309389
0.00315858
0.00311207
0.00298466
0.00281053
0.00262019
0.00243029
0.00224403
0.00206411
0.00190713
0.00180562
0.00178977
0.00186567
0.00201109
0.000315451
0.00168793
0.00250467
0.00289793
0.00308783
0.00313677
0.00307724
0.0029429
0.00276897
0.0025831
0.00239698
0.00221196
0.00203628
0.00189692
0.00183303
0.00186812
0.00199336
0.00217168
0.00031435
0.00168119
0.00250887
0.00289928
0.00307785
0.00311429
0.00304571
0.00290861
0.00273825
0.00255843
0.00237601
0.00219241
0.00202344
0.0019062
0.00188192
0.00196356
0.0021281
0.00232769
0.000312941
0.00167089
0.00250751
0.00289587
0.00306531
0.00309235
0.00301836
0.00288204
0.00271781
0.00254483
0.00236569
0.00218392
0.00202397
0.00193158
0.00194598
0.0020688
0.0022635
0.00247685
0.000311271
0.00165766
0.00250155
0.00288879
0.00305128
0.00307183
0.00299561
0.00286298
0.00270664
0.00254048
0.00235438
0.00218485
0.00203595
0.00196956
0.0020203
0.00217841
0.00239602
0.00261926
0.000309383
0.00164207
0.00249184
0.00287893
0.00303656
0.00305325
0.00297758
0.0028509
0.0027034
0.00243378
0.002213
0.00219267
0.00205716
0.00201694
0.002101
0.00228887
0.00252447
0.00275589
0.000307316
0.00162462
0.0024791
0.00286702
0.00302174
0.00303694
0.00296412
0.00284499
0.00270624
0.00228342
0.00211066
0.00216156
0.00208543
0.00207092
0.00218534
0.00239863
0.00264883
0.00288784
0.000305103
0.00160572
0.00246395
0.00285364
0.00300723
0.00302302
0.00295489
0.00284426
0.00258336
0.00217467
0.00203948
0.00210493
0.00211905
0.00212931
0.00227183
0.00250707
0.0027694
0.00301591
0.000302774
0.00158574
0.00244688
0.00283922
0.00299333
0.00301148
0.00294944
0.00284757
0.00245587
0.00209641
0.00198879
0.00206267
0.00215685
0.00219095
0.00235869
0.00261281
0.00288624
0.00314041
0.000300354
0.00156497
0.00242832
0.00282411
0.00298019
0.00300218
0.00294722
0.00285391
0.00236205
0.00204016
0.00195257
0.0020331
0.00219757
0.00225435
0.00244444
0.00271515
0.00299891
0.0032609
0.000297864
0.00154367
0.00240862
0.00280857
0.00296788
0.00299494
0.00294768
0.00285468
0.00229411
0.00200011
0.00192787
0.0020135
0.00218767
0.00231802
0.00252771
0.0028127
0.00310595
0.00337589
0.000295323
0.00152203
0.00238804
0.0027928
0.00295643
0.0029895
0.00295027
0.0027712
0.00224504
0.00197263
0.00191159
0.00200088
0.00217191
0.00236396
0.00257776
0.00281928
0.00308234
0.00336762
0.000292744
0.00150021
0.00236682
0.00277691
0.0029458
0.0029856
0.00295442
0.00270736
0.00221042
0.00195419
0.00190132
0.00199282
0.0021599
0.00234599
0.00254673
0.00277459
0.00302739
0.00330343
0.000290141
0.00147836
0.00234514
0.00276101
0.00293592
0.002983
0.00295973
0.00266144
0.00218704
0.001943
0.00189567
0.00198696
0.0021488
0.00232531
0.00251317
0.00272893
0.00297197
0.00323961
0.000287523
0.00145656
0.00232314
0.00274514
0.00292672
0.00298144
0.00296589
0.00262956
0.00217259
0.00193794
0.00189386
0.00198278
0.00213816
0.00230535
0.00248224
0.00268654
0.00291931
0.00317811
0.000284899
0.0014349
0.00230094
0.00272935
0.0029181
0.0029807
0.00297263
0.00260885
0.00216552
0.00193806
0.0018953
0.00198044
0.00212874
0.0022871
0.00245443
0.00264866
0.00287222
0.00312272
0.000282274
0.00141343
0.0022786
0.00271364
0.00290997
0.00298059
0.00297979
0.00259746
0.00216482
0.0019426
0.00189957
0.00198001
0.00212119
0.00227136
0.00243042
0.00261647
0.00283301
0.00307755
0.000279653
0.00139221
0.00225621
0.00269801
0.00290221
0.00298095
0.00298721
0.00259403
0.00216974
0.00195103
0.00190644
0.00198159
0.00211596
0.00225888
0.00241116
0.00259123
0.00280345
0.00304531
0.000277037
0.00137123
0.0022338
0.00268244
0.00289474
0.00298162
0.00299476
0.00259752
0.00217973
0.00196302
0.0019158
0.0019853
0.00211338
0.0022502
0.00239738
0.00257375
0.00278435
0.00302667
0.000274432
0.00135049
0.00221139
0.00266691
0.00288746
0.00298248
0.00300237
0.00260713
0.00219441
0.00197837
0.00192765
0.00199129
0.00211371
0.00224569
0.00238939
0.0025641
0.00277536
0.00302054
0.000271843
0.00133
0.00218899
0.00265139
0.00288029
0.0029834
0.00300991
0.00262216
0.00221347
0.00199698
0.00194209
0.0019997
0.00211704
0.00224542
0.00238713
0.00256182
0.00277545
0.00302497
0.000269275
0.00130981
0.00216647
0.00263575
0.00287302
0.0029841
0.00301706
0.00264163
0.0022365
0.00201902
0.00195977
0.00201091
0.00212366
0.00224949
0.00239038
0.00256625
0.00278332
0.0030378
0.00026678
0.00128904
0.00214341
0.00261966
0.00286543
0.00298447
0.00302377
0.00266504
0.00226294
0.00204372
0.00198009
0.00202577
0.00213458
0.00225872
0.00239967
0.00257715
0.00279738
0.0030561
0.00026435
0.00126775
0.00211985
0.00260311
0.00285747
0.00298442
0.00303001
0.00269206
0.00229269
0.00207098
0.00200302
0.00204392
0.00214961
0.00227306
0.00241455
0.0025934
0.00281599
0.00307763
0.000261974
0.00124614
0.0020958
0.00258608
0.00284907
0.00298389
0.00303573
0.00272232
0.00232567
0.00210086
0.00202856
0.00206521
0.0021684
0.00229197
0.00243429
0.00261401
0.0028378
0.0031007
0.000259646
0.00122432
0.00207127
0.00256852
0.00284017
0.00298282
0.00304093
0.00275542
0.00236178
0.0021334
0.00205673
0.00208947
0.00219062
0.00231493
0.00245826
0.00263826
0.00286201
0.00312447
0.000257359
0.00120237
0.00204623
0.00255041
0.00283072
0.00298115
0.00304557
0.00279089
0.00240085
0.00216863
0.00208756
0.00211662
0.00221599
0.00234152
0.00248603
0.00266575
0.00288829
0.00314872
0.000255106
0.00118034
0.00202067
0.00253169
0.00282065
0.00297884
0.00304965
0.00282816
0.00244265
0.0022065
0.00212102
0.00214656
0.00224426
0.00237142
0.00251733
0.00269633
0.00291654
0.00317342
0.000252884
0.00115823
0.00199462
0.00251235
0.00280992
0.00297585
0.00305315
0.00286659
0.00248684
0.00224693
0.00215701
0.00217927
0.00227538
0.00240442
0.00255202
0.00273004
0.00294684
0.00319903
0.000250686
0.00113608
0.00196809
0.00249235
0.00279849
0.00297216
0.00305606
0.00290537
0.00253297
0.00228977
0.0021953
0.00221462
0.00230946
0.00244039
0.00259009
0.0027669
0.00297985
0.00322583
0.000248507
0.00111391
0.0019411
0.00247166
0.00278632
0.00296773
0.00305836
0.00294359