/*--------------------------------*- C++ -*----------------------------------*\
| =========                 |                                                 |
| \\      /  F ield         | OpenFOAM: The Open Source CFD Toolbox           |
|  \\    /   O peration     | Version:  v2012                                 |
|   \\  /    A nd           | Website:  www.openfoam.com                      |
|    \\/     M anipulation  |                                                 |
\*---------------------------------------------------------------------------*/
FoamFile
{
    version     2.0;
    format      ascii;
    class       volScalarField;
    location    "614";
    object      omega;
}
// * * * * * * * * * * * * * * * * * * * * * * * * * * * * * * * * * * * * * //

dimensions      [0 0 -1 0 0 0 0];


internalField   nonuniform List<scalar> 
6054
(
98.6908
102.596
106.865
111.554
116.727
122.462
128.863
136.064
144.24
153.622
164.528
177.403
192.888
211.941
236.049
267.64
310.883
373.425
470.342
634.001
43.7453
45.6491
47.7377
50.0405
52.5914
55.432
58.6179
62.2185
66.3225
71.0449
76.5365
82.9988
90.7038
100.024
111.474
125.759
143.82
166.767
195.307
227.066
34.1001
35.6631
37.381
39.2782
41.3843
43.7359
46.3776
49.3663
52.7741
56.6932
61.2436
66.5832
72.9234
80.5518
89.8676
101.437
116.089
135.088
160.518
196.313
30.9227
32.3786
33.981
35.7528
37.722
39.9231
42.3988
45.2027
48.4026
52.0863
56.3683
61.4009
67.3907
74.6245
83.5119
94.6573
108.989
128.01
154.305
192.685
29.8098
31.2292
32.7929
34.5232
36.4478
38.6005
41.0236
43.77
46.9075
50.5237
54.7338
59.6926
65.6125
72.7926
81.6669
92.8879
107.476
127.095
154.568
194.817
29.8179
31.2347
32.7966
34.5258
36.4496
38.6018
41.0244
43.7706
46.9079
50.5239
54.734
59.6928
65.6126
72.7926
81.6669
92.8879
107.476
127.095
154.568
194.817
30.9524
32.3984
33.9944
35.7619
37.7283
39.9275
42.4017
45.2046
48.4038
52.0871
56.3688
61.4012
67.3909
74.6246
83.512
94.6573
108.989
128.01
154.305
192.685
34.1758
35.7106
37.4127
39.2994
41.3986
43.7452
46.3837
49.3703
52.7767
56.6949
61.2447
66.5839
72.9239
80.5521
89.8678
101.437
116.089
135.088
160.518
196.313
43.955
45.7613
47.8116
50.0873
52.6211
55.4512
58.6305
62.2268
66.328
71.0484
76.5389
83.0003
90.7048
100.025
111.474
125.759
143.821
166.767
195.307
227.066
98.4834
102.467
106.783
111.501
116.69
122.437
128.846
136.053
144.232
153.616
164.525
177.401
192.886
211.939
236.048
267.639
310.883
373.425
470.342
634.001
52.935
54.4548
55.9642
57.4703
58.9805
60.5023
62.0438
63.6136
65.221
66.876
68.5896
70.3738
72.2416
74.2072
76.286
78.4841
80.8077
83.2775
85.9166
88.7495
91.8029
95.1058
25.8912
26.035
26.2238
26.461
26.7492
27.0909
27.4887
27.945
28.4623
29.0431
29.6901
30.4061
31.1939
32.0565
32.9972
34.0178
35.1131
36.2901
37.5569
38.9233
40.4005
42.0024
19.2454
19.359
19.5251
19.742
20.0084
20.323
20.6851
21.0943
21.5507
22.0547
22.6075
23.2105
23.8657
24.5754
25.3433
26.1694
27.0573
28.0129
29.0432
30.1563
31.3621
32.672
16.6977
16.8636
17.0767
17.3341
17.6332
17.9723
18.35
18.7657
19.2192
19.7111
20.2426
20.8153
21.4316
22.094
22.8063
23.5702
24.3909
25.2744
26.2277
27.2589
28.3773
29.5942
15.5669
15.7872
16.0492
16.3495
16.6856
17.0556
17.4583
17.8932
18.3603
18.8603
19.3947
19.9652
20.5744
21.2252
21.9206
22.664
23.461
24.3182
25.2434
26.2448
27.3319
28.5159
15.1032
15.3811
15.6968
16.0471
16.4294
16.8418
17.2832
17.7534
18.2525
18.7814
19.3415
19.9347
20.5635
21.2308
21.9376
22.6877
23.4868
24.3425
25.2643
26.2625
27.3463
28.527
15.0412
15.391
15.7777
16.1978
16.6481
17.1268
17.6328
18.1657
18.7265
19.3167
19.9387
20.5946
21.2872
22.0192
22.7884
23.5957
24.4422
25.3286
26.2807
27.3095
28.4228
29.6327
15.2735
15.7236
16.2135
16.7381
17.2932
17.8755
18.483
19.1152
19.7736
20.4614
21.1852
21.9521
22.7711
23.651
24.5942
25.6021
26.6767
27.8301
28.9899
30.1617
31.4076
32.7426
15.7165
16.3058
16.9467
17.634
18.3625
19.1281
19.9274
20.7581
21.6186
22.5095
23.4344
24.4023
25.4417
26.5889
27.8971
29.4056
31.1866
33.2518
35.5033
37.7289
39.7616
41.8021
16.2591
17.0159
17.8477
18.7534
19.7349
20.797
21.9479
23.1985
24.5626
26.0559
27.6964
29.5032
31.4956
33.6808
36.0615
38.879
42.4833
47.1219
53.0849
60.6687
70.33
82.8489
14.2811
13.4426
13.8074
16.07
21.9184
26.172
29.6599
32.5912
35.0841
37.3262
39.3917
41.3263
43.1598
44.9133
46.6024
48.2396
49.835
51.3975
15.2414
10.1682
13.4558
18.7292
22.3613
24.1548
24.9966
25.4288
25.6284
25.703
25.724
25.7177
25.7004
25.6836
25.6764
25.687
25.7223
25.7886
18.94
12.447
15.8551
19.137
20.863
21.4549
21.5084
21.3214
21.0046
20.6468
20.3014
19.9893
19.7216
19.5043
19.3409
19.233
19.1814
19.1858
23.1309
14.4289
16.6028
18.3603
19.1368
19.2592
19.0596
18.6965
18.265
17.8407
17.4608
17.1401
16.885
16.697
16.5753
16.5177
16.5212
16.5824
27.0902
15.5992
16.6294
17.3916
17.6649
17.5889
17.3108
16.9229
16.5066
16.1217
15.7951
15.537
15.3499
15.2327
15.1825
15.1952
15.2666
15.392
29.7295
16.2234
16.3707
16.5569
16.5092
16.3356
16.0431
15.6859
15.3278
15.0135
14.7628
14.5823
14.4725
14.4312
14.4545
14.5381
14.6772
14.8672
31.7147
16.5041
16.0142
15.8619
15.6436
15.3922
15.1081
14.8003
14.5124
14.2755
14.1038
14.0018
13.969
14.0031
14.1007
14.2577
14.4699
14.7327
33.3494
16.5601
15.6418
15.2881
14.9817
14.6868
14.4071
14.1509
13.9321
13.7699
13.6739
13.6472
13.6896
13.7999
13.976
14.2153
14.5142
14.8686
34.6881
16.5071
15.2905
14.8146
14.4626
14.1508
13.8781
13.6625
13.5051
13.4094
13.3814
13.4236
13.5374
13.7235
13.9825
14.3137
14.7155
15.1846
35.7881
16.4132
14.9724
14.42
14.0444
13.7308
13.4733
13.2855
13.1759
13.1352
13.1639
13.2651
13.4425
13.7
14.0412
14.4684
14.9819
15.5798
16.6618
17.506
18.414
19.3806
20.4033
21.482
22.6185
23.8136
25.0664
26.3722
27.7172
29.073
30.5251
32.1047
33.8401
35.7416
37.74
39.6062
40.6864
40.1984
37.6612
32.2799
16.5065
17.2054
17.8905
18.5435
19.1449
19.6753
20.1108
20.4158
20.5459
20.4681
20.3693
20.3234
20.2424
20.1022
20.0065
19.9706
19.865
19.4226
18.2857
16.6539
14.0648
13.3113
15.5232
15.8041
15.9502
15.9314
15.7207
15.2986
14.6597
13.8327
12.9248
12.2216
11.6492
11.2104
10.8335
10.5349
10.3329
10.2133
10.1368
10.0598
9.95646
10.0635
10.2776
11.7625
13.6954
13.3736
12.8173
12.0303
11.0574
9.9909
8.9629
8.11589
7.5889
7.267
7.08675
7.01636
7.03096
7.13547
7.32094
7.58507
7.93235
8.38258
8.95166
9.67071
10.5975
12.5109
11.3313
10.4697
9.43676
8.34158
7.32304
6.50517
5.94833
5.65874
5.56561
5.5761
5.65831
5.79946
5.9944
6.24593
6.55606
6.93313
7.39289
7.96385
8.68829
9.63327
10.9583
13.3416
8.96315
7.89149
6.8587
5.99329
5.36487
4.98264
4.81194
4.79102
4.85371
4.96766
5.1221
5.31452
5.54634
5.82173
6.14838
6.54048
7.02072
7.62655
8.423
9.52303
11.1653
14.1289
7.03893
6.07752
5.3116
4.78096
4.47604
4.34357
4.33147
4.3958
4.5017
4.63895
4.80492
5.00083
5.22987
5.49775
5.81421
6.19663
6.67273
7.28781
8.12541
9.33805
11.2471
14.8601
5.68808
4.95865
4.45845
4.16803
4.03926
4.0166
4.0606
4.14751
4.2619
4.39994
4.56206
4.75026
4.96818
5.2219
5.52183
5.88655
6.34777
6.95765
7.81443
9.10572
11.2405
15.5392
4.80503
4.2881
3.97775
3.82701
3.78264
3.80419
3.86704
3.95888
4.07228
4.20631
4.36195
4.54131
4.74785
4.98736
5.2701
5.61496
6.05604
6.65084
7.50911
8.85041
11.1751
16.1732
4.2328
3.87499
3.68456
3.60839
3.60388
3.64357
3.71259
3.8043
3.91515
4.04503
4.19503
4.36701
4.56401
4.79128
5.05851
5.38412
5.80278
6.37596
7.22226
8.59012
11.0727
16.7692
3.85388
3.60558
3.4865
3.45036
3.46528
3.51279
3.5836
3.67431
3.78297
3.90977
4.05569
4.22227
4.41199
4.62945
4.88358
5.19189
5.58814
6.13602
6.9612
8.33717
10.9485
17.3337
3.59351
3.41695
3.34056
3.32659
3.35149
3.40246
3.47374
3.56359
3.67081
3.7957
3.93909
4.10215
4.28681
4.4969
4.74043
5.03373
5.40918
5.93066
6.72924
8.09946
10.8137
17.8721
3.406
3.27639
3.22612
3.22493
3.25509
3.30762
3.37899
3.46825
3.57465
3.69858
3.84074
4.00195
4.18359
4.38868
4.62414
4.90493
5.26182
5.75779
6.52709
7.88162
10.6758
18.3891
3.26513
3.16669
3.1328
3.13907
3.17192
3.22513
3.29635
3.38512
3.49108
3.61471
3.75663
3.91741
4.09788
4.30022
4.53014
4.80108
5.14201
5.61443
6.35393
7.68598
10.5403
18.8887
3.15568
3.07832
3.05478
3.0653
3.09947
3.15271
3.22347
3.31168
3.4173
3.54099
3.68338
3.84486
4.02579
4.22744
4.45425
4.71806
5.04591
5.49738
6.20802
7.51338
10.4108
19.3745
3.06854
3.00548
2.98854
3.00147
3.03599
3.08867
3.15856
3.24593
3.35109
3.47494
3.61824
3.78132
3.96406
4.16686
4.39282
4.65215
4.96992
5.40344
6.08721
7.36377
10.2902
19.8497
2.99819
2.9449
2.93211
2.94612
2.98021
3.03174
3.10027
3.18639
3.29079
3.4147
3.55912
3.7244
3.91007
4.1156
4.34277
4.60014
4.91081
5.3296
5.98921
7.23653
10.1803
20.3173
2.94112
2.89447
2.88408
2.8982
2.93118
2.981
3.04764
3.13202
3.23525
3.35893
3.50445
3.6723
3.86175
4.07137
4.30155
4.55931
4.86579
5.27315
5.91179
7.13074
10.0826
20.78
2.89493
2.85267
2.84342
2.85688
2.88816
2.93575
2.99999
3.08213
3.18369
3.30677
3.45318
3.62374
3.81755
4.03236
4.26716
4.52743
4.83246
5.23168
5.85282
7.04536
9.99809
21.2404
2.85783
2.81832
2.80927
2.82145
2.85056
2.89547
2.95685
3.03628
3.13571
3.25771
3.40468
3.57784
3.77636
3.99725
4.23805
4.50273
4.80883
5.20309
5.81039
6.9793
9.92782
21.7013
2.82838
2.79039
2.78086
2.79132
2.8179
2.85977
2.91795
2.99427
3.09111
3.21155
3.35858
3.53406
3.73745
3.96519
4.21313
4.48383
4.7933
5.18563
5.78285
6.93158
9.87264
22.1652
2.80538
2.76814
2.75763
2.76606
2.78985
2.82844
2.88314
2.95604
3.04987
3.16823
3.31476
3.49213
3.70034
3.93553
4.19168
4.46967
4.78453
5.17783
5.76877
6.90131
9.83348
22.6351
2.78829
2.75109
2.73932
2.7455
2.76631
2.80146
2.85247
2.92163
3.01204
3.12778
3.27324
3.45206
3.66489
3.90746
4.17276
4.45943
4.78144
5.17851
5.76698
6.88778
9.81134
23.1138
2.77692
2.73921
2.72593
2.72979
2.74752
2.77902
2.82608
2.89113
2.97773
3.09039
3.23445
3.41434
3.63095
3.88051
4.15555
4.45226
4.78326
5.18677
5.77665
6.89047
9.80737
23.6046
2.77112
2.73244
2.71743
2.71895
2.73364
2.76138
2.80409
2.86456
2.94688
3.05637
3.19874
3.37892
3.59873
3.85499
4.13998
4.44788
4.78964
5.20212
5.79723
6.90916
9.82317
24.1112
2.77063
2.73052
2.71349
2.71247
2.7239
2.74764
2.78572
2.84141
2.91937
3.02545
3.16588
3.34614
3.56885
3.83155
4.12653
4.44652
4.80061
5.2244
5.82851
6.94385
9.86092
24.6377
2.77494
2.73288
2.71338
2.70934
2.71701
2.73629
2.76945
2.82039
2.8943
2.99737
3.13619
3.31668
3.54221
3.81116
4.1161
4.44869
4.81644
5.25382
5.8706
6.99493
9.9242
25.1892
2.78338
2.73871
2.71612
2.70845
2.71175
2.72615
2.75446
2.80115
2.87176
2.97262
3.11049
3.29164
3.52011
3.79517
4.10988
4.45532
4.83783
5.29093
5.92396
7.063
10.0179
25.7715
2.79526
2.74726
2.72096
2.70908
2.70764
2.71715
2.74113
2.78444
2.85273
2.95234
3.09007
3.27246
3.50414
3.78518
4.10925
4.4677
4.86586
5.33663
5.98938
7.14893
10.1374
26.3848
2.81008
2.75806
2.72751
2.71111
2.70492
2.70995
2.73047
2.77149
2.83859
2.93795
3.07645
3.26081
3.49607
3.783
4.11585
4.48742
4.90142
5.39041
6.06449
7.24509
10.2671
27.0112
2.82762
2.77101
2.73587
2.7149
2.70435
2.70579
2.72389
2.76354
2.83023
2.93015
3.07015
3.25714
3.4965
3.78947
4.13098
4.51551
4.94578
5.45408
6.15113
7.35406
10.4076
27.653
2.84816
2.78664
2.74678
2.7213
2.70683
2.70542
2.72193
2.76109
2.82827
2.92965
3.07214
3.26275
3.50706
3.80657
4.15722
4.55468
5.00112
5.52947
6.25097
7.47768
10.5601
28.3096
2.87256
2.80563
2.76089
2.73112
2.7133
2.70987
2.72562
2.76515
2.83375
2.93765
3.08381
3.27926
3.52957
3.83633
4.19714
4.60758
5.06958
5.6186
6.36559
7.61833
10.7249
28.9826
2.90139
2.82868
2.77908
2.74539
2.72489
2.72026
2.73606
2.7768
2.84783
2.95545
3.10665
3.30834
3.566
3.88177
4.25345
4.67615
5.15346
5.7237
6.49739
7.77575
10.9041
29.6713
2.93544
2.85672
2.80237
2.76518
2.74265
2.73753
2.75414
2.79708
2.87178
2.98459
3.1425
3.35233
3.61931
3.94539
4.32806
4.76283
5.25545
5.84738
6.6488
7.95354
11.0993
30.3747
2.97571
2.89082
2.83184
2.79154
2.76755
2.76266
2.78111
2.82754
2.90741
3.02717
3.19375
3.41371
3.69183
4.02947
4.42374
4.87072
5.37876
5.99271
6.82254
8.1538
11.3114
31.0904
3.0234
2.93213
2.86858
2.82559
2.80068
2.79702
2.81861
2.87002
2.9569
3.0857
3.26321
3.49553
3.78674
4.13738
4.54403
5.00346
5.52702
6.16315
7.02162
8.37906
11.5416
31.8136
3.07999
2.98237
2.91407
2.86863
2.84356
2.84247
2.86874
2.92706
3.02315
3.16345
3.3544
3.6015
3.90788
4.27304
4.6929
5.16507
5.70426
6.3624
7.24919
8.63166
11.7905
32.5365
3.14716
3.0435
2.97041
2.92235
2.89822
2.90129
2.93418
3.00167
3.10955
3.26408
3.47125
3.73571
4.05947
4.44073
4.8747
5.35995
5.9148
6.59435
7.50833
8.91353
12.0575
33.2471
3.22676
3.117
3.03978
2.98952
2.96695
2.97623
3.01805
3.09735
3.2199
3.39169
3.61807
3.90267
4.2461
4.64512
5.09408
5.59274
6.16312
6.86283
7.80169
9.2256
12.3406
33.9282
3.31995
3.20452
3.124
3.0731
3.05394
3.07056
3.12389
3.21795
3.3584
3.5508
3.79966
4.10734
4.47283
4.89122
5.35603
5.86832
6.45372
7.17141
8.13097
9.56718
12.6349
34.5565
3.42824
3.30793
3.22491
3.17547
3.16278
3.18837
3.25548
3.36771
3.52972
3.74643
4.02128
4.35511
4.74506
5.18438
5.66573
6.19163
6.79091
7.523
8.49645
9.93517
12.9315
35.102
3.55301
3.42925
3.34522
3.2992
3.29546
3.33365
3.41739
3.55129
3.73903
3.98415
4.28874
4.65185
5.06861
5.53023
6.02856
6.56753
7.17847
7.91946
8.90283
10.3255
13.1995
35.5232
3.69567
3.5702
3.48796
3.44799
3.45656
3.5111
3.61544
3.77446
3.99231
4.27033
4.60857
5.00408
5.44982
5.93477
6.45013
7.00073
7.61939
8.36224
9.34719
10.7274
13.4572
35.8387
3.85791
3.73324
3.65614
3.62663
3.65178
3.72689
3.85632
4.04513
4.29712
4.61283
4.98871
5.41957
5.89616
6.40492
6.93668
7.49581
8.11496
8.85013
9.81743
11.1192
13.6926
36.0036
4.04154
3.92175
3.85428
3.8442
3.88865
3.98884
4.14879
4.37316
4.66469
5.022
5.43963
5.90843
6.41727
6.94944
7.49574
8.05734
8.6643
9.37579
10.2906
11.4685
13.8697
35.9817
4.24902
4.13941
4.08697
4.10108
4.17335
4.30636
4.50442
4.77182
5.10957
5.51338
5.97514
6.48421
7.02603
7.58001
8.13731
8.68935
9.26387
9.92027
10.7269
11.7301
13.9403
35.7643
4.48468
4.39199
4.36333
4.41019
4.51954
4.69475
4.94032
5.2595
5.65068
6.10631
6.61509
7.16514
7.73975
8.3128
8.86661
9.38959
9.89987
10.4484
11.0719
11.8507
13.8835
35.3198
4.75595
4.68958
4.70508
4.79165
4.94822
5.17697
5.48116
5.86153
6.31262
6.82404
7.38306
7.97468
8.58133
9.16694
9.69893
10.1508
10.5394
10.8987
11.2521
11.7735
13.681
34.7225
5.07436
5.04758
5.11991
5.26678
5.48838
5.78625
6.16172
6.61164
7.12671
7.69582
8.3069
8.9432
9.5799
10.1609
10.6256
10.9326
11.1068
11.1686
11.1804
11.4439
13.2612
33.8217
5.45966
5.50857
5.65652
5.88424
6.19031
6.57306
7.02989
7.55315
8.13241
8.76042
9.42748
10.1121
10.7654
11.2931
11.5999
11.6467
11.4682
11.1262
10.7889
10.8296
12.7151
32.623
5.94831
6.11783
6.37711
6.71479
7.12652
7.60559
8.14584
8.73912
9.38156
10.074
10.8053
11.5295
12.1472
12.5125
12.5051
12.1083
11.4326
10.6709
10.1009
10.0935
12.123
31.1209
6.64736
6.98067
7.39076
7.86667
8.39585
8.96772
9.58056
10.2382
10.9511
11.7223
12.5134
13.2165
13.6591
13.6535
13.0864
12.0528
10.8665
9.81557
9.15519
9.31609
11.5508
29.3625
7.67445
8.24886
8.85584
9.48296
10.1147
10.7544
11.4252
12.1598
12.9629
13.812
14.5848
15.0858
15.0558
14.3124
12.9341
11.2968
9.78633
8.64674
8.0936
8.59186
11.0827
27.3984
9.2931
10.1723
10.9888
11.7272
12.4085
13.0921
13.8399
14.6837
15.5782
16.3909
16.8808
16.7221
15.6801
13.8747
11.7783
9.85697
8.33472
7.397
7.24704
8.17171
11.16
25.4138
11.8045
13.0416
13.9986
14.7598
15.4593
16.2122
17.1075
18.0467
18.8272
19.146
18.6136
17.0091
14.627
12.0771
9.9037
8.24694
7.08092
6.63093
7.03428
8.34652
11.7453
23.5123
15.6587
17.2008
18.1227
18.8834
19.6375
20.6222
21.594
22.1107
21.8367
20.4212
17.8055
14.6692
11.9423
9.80587
8.33129
7.37298
6.8404
6.85804
7.52938
9.09998
12.5748
21.5829
21.498
23.0707
23.7918
24.8528
26.0474
26.6178
26.0307
24.0279
20.8155
17.003
13.4013
11.0552
9.76433
8.86146
8.15907
7.67088
7.50784
7.81009
8.63696
10.2778
13.3675
19.5079
30.7969
31.7444
32.396
32.3854
31.0672
27.6681
22.7491
17.8431
14.5666
12.1892
10.7277
10.0351
9.80767
9.63461
9.38483
9.12179
9.04636
9.43494
10.2683
11.6827
13.89
17.0464
52.8428
39.9016
26.726
26.5404
26.7975
26.5407
25.5371
23.7665
21.2361
18.136
15.4836
14.2368
14.3354
14.9839
15.7869
16.6407
17.5553
18.6067
19.4709
19.865
19.2399
14.6116
36.7577
16.3001
14.6718
14.0688
13.6812
13.3748
13.1362
12.9751
12.8958
12.8971
12.9707
13.1197
13.3505
13.6697
14.083
14.5925
15.1965
15.889
37.5775
16.1872
14.4013
13.7657
13.3734
13.077
12.8553
12.7133
12.6538
12.6753
12.7751
12.9525
13.2144
13.5674
14.0134
14.5469
15.1541
15.815
38.2769
16.0793
14.1537
13.4959
13.1034
12.8164
12.6066
12.4744
12.4221
12.4483
12.5517
12.7334
12.9958
13.3391
13.7532
14.2149
14.6905
15.14
38.8422
15.9645
13.9199
13.2477
12.8573
12.5766
12.3719
12.2394
12.1815
12.1974
12.2853
12.4447
12.6716
12.9515
13.2541
13.5333
13.7344
13.8038
39.2928
15.8458
13.6958
13.0134
12.6249
12.3463
12.1392
11.9969
11.922
11.9143
11.9703
12.0835
12.2379
12.3993
12.5142
12.5178
12.3489
11.9612
39.6397
15.726
13.4786
12.7874
12.3993
12.1182
11.902
11.7421
11.6418
11.6008
11.6119
11.6587
11.708
11.7047
11.5789
11.265
10.7208
9.93886
39.892
15.6055
13.2668
12.5662
12.1763
11.8886
11.6582
11.4755
11.3452
11.2654
11.2227
11.1873
11.107
10.9107
10.5287
9.91934
9.08512
8.08691
40.0584
15.4845
13.0596
12.3482
11.9542
11.6568
11.4091
11.2016
11.0401
10.9201
10.8185
10.6897
10.4651
10.0699
9.45545
8.62359
7.63733
6.61418
40.1475
15.3631
12.8565
12.1327
11.7328
11.424
11.158
10.9268
10.7363
10.5771
10.4141
10.1854
9.81307
9.23413
8.43877
7.47997
6.47081
5.54505
40.1677
15.2418
12.6577
11.9201
11.513
11.1924
10.9095
10.6579
10.4427
10.247
10.0217
9.69115
9.17783
8.44607
7.5315
6.53279
5.5847
4.80089
40.1271
15.1212
12.4633
11.711
11.2964
10.9651
10.6684
10.4014
10.1667
9.93742
9.64994
9.21943
8.57948
7.73268
6.75669
5.77939
4.93056
4.28429
40.0334
15.0016
12.274
11.5063
11.0846
10.7449
10.4387
10.1622
9.91316
9.65306
9.30415
8.77866
8.03185
7.10705
6.1141
5.19276
4.44834
3.92079
39.8937
14.8835
12.0903
11.3072
10.8794
10.5342
10.2236
9.94354
9.68495
9.39595
8.98704
8.37425
7.5421
6.57023
5.59034
4.73889
4.09119
3.65964
39.7149
14.7674
11.9128
11.1145
10.6822
10.3351
10.0253
9.7472
9.48272
9.16611
8.69927
8.00845
7.11105
6.11632
5.16765
4.38625
3.82314
3.46656
39.5029
14.6536
11.7419
10.929
10.494
10.1486
9.84468
9.5734
9.30578
8.96269
8.44063
7.68062
6.73617
5.73611
4.82696
4.11149
3.61955
3.31995
39.2634
14.5424
11.5778
10.7513
10.3156
9.97549
9.68196
9.42137
9.15297
8.78519
8.20856
7.38817
6.41395
5.42001
4.55274
3.89672
3.46281
3.20622
39.001
14.4338
11.4208
10.5816
10.1472
9.81573
9.53654
9.28967
9.02242
8.63098
8.00121
7.1306
6.13814
5.15899
4.3321
3.72765
3.34075
3.1167
38.7202
14.328
11.271
10.4201
9.98881
9.66901
9.40732
9.17674
8.9119
8.49681
7.81771
6.90533
5.90286
4.94473
4.15412
3.59373
3.24507
3.04575
38.4246
14.225
11.1281
10.2668
9.84033
9.53468
9.2929
9.08034
8.81888
8.38048
7.65646
6.70945
5.70319
4.76841
4.01188
3.48884
3.17012
2.98954
38.1175
14.1246
10.9921
10.1214
9.70133
9.41182
9.19164
8.99801
8.74086
8.28023
7.51588
6.54047
5.53504
4.62426
3.89923
3.40711
3.11175
2.94528
37.8015
14.0269
10.8627
9.98379
9.57127
9.29937
9.10181
8.92757
8.6756
8.19447
7.39453
6.39702
5.39467
4.50656
3.81079
3.34421
3.0669
2.91088
37.479
13.9316
10.7396
9.85348
9.44952
9.19619
9.02182
8.86731
8.62101
8.12177
7.29107
6.27701
5.27934
4.41215
3.74269
3.29675
3.03286
2.88441
37.1517
13.8386
10.6226
9.73012
9.33542
9.10118
8.95004
8.81552
8.5755
8.06049
7.20411
6.17914
5.18761
4.33864
3.69075
3.2615
3.00799
2.86513
36.8214
13.7478
10.5112
9.61328
9.22831
9.01327
8.88504
8.7706
8.53777
8.00982
7.13295
6.10139
5.11695
4.28323
3.65275
3.237
2.99148
2.85257
36.4892
13.659
10.4051
9.5025
9.1275
8.93147
8.82556
8.73119
8.50671
7.96901
7.07663
6.04188
5.0651
4.24379
3.62711
3.22222
2.98268
2.84639
36.1561
13.5722
10.304
9.39736
9.03236
8.85485
8.77051
8.69615
8.48131
7.93731
7.03411
5.99888
5.03011
4.21867
3.6126
3.21628
2.98103
2.84623
35.823
13.4871
10.2076
9.29743
8.94227
8.78261
8.71894
8.66447
8.4607
7.91399
7.00436
5.97085
5.01027
4.20652
3.60825
3.21844
2.98595
2.85159
35.4903
13.4036
10.1155
9.20231
8.85669
8.71403
8.67004
8.63528
8.44404
7.89834
6.98637
5.95638
5.0041
4.20627
3.6133
3.22802
2.99684
2.86187
35.1584
13.3216
10.0274
9.11159
8.77511
8.6485
8.62312
8.60779
8.43057
7.88965
6.97918
5.95422
5.01029
4.21699
3.62711
3.24444
3.01313
2.87645
34.8277
13.2413
9.94315
9.02497
8.69709
8.5855
8.57761
8.58131
8.41956
7.88722
6.98192
5.96321
5.02762
4.23796
3.64927
3.26722
3.03433
2.89484
34.4992
13.1626
9.86241
8.94216
8.62224
8.52458
8.533
8.55519
8.41023
7.89035
6.9939
5.98239
5.05504
4.26856
3.67955
3.29601
3.0601
2.91673
34.1732
13.0859
9.78564
8.86325
8.55054
8.46565
8.48894
8.52819
8.40068
7.89819
7.01581
6.01144
5.09211
4.30839
3.71775
3.3305
3.09036
2.94225
33.8567
13.0189
9.71423
8.78855
8.4819
8.40843
8.4451
8.49989
8.38967
7.90723
7.04358
6.0504
5.13931
4.35807
3.76508
3.37317
3.12699
2.97262
33.5482
12.9612
9.64798
8.71783
8.41606
8.35264
8.4012
8.46996
8.37677
7.91651
7.07609
6.0976
5.1955
4.41774
3.82226
3.42407
3.17017
3.00822
33.2468
12.9111
9.58668
8.65087
8.35279
8.29806
8.35702
8.43816
8.36165
7.92551
7.11247
6.15206
5.25993
4.48676
3.88898
3.48333
3.22033
3.04969
32.9513
12.8679
9.53022
8.58752
8.29192
8.2445
8.31241
8.40433
8.34402
7.93369
7.15194
6.21293
5.33183
4.56453
3.96499
3.55122
3.27808
3.09789
32.661
12.8308
9.47852
8.52767
8.2333
8.19184
8.26726
8.36837
8.32366
7.94056
7.19376
6.27945
5.41045
4.65044
4.05009
3.62805
3.34417
3.15385
32.3752
12.7992
9.43146
8.47125
8.17683
8.13999
8.22152
8.33024
8.3004
7.94565
7.23721
6.35107
5.49509
4.74394
4.1441
3.71421
3.41946
3.21877
32.0931
12.773
9.3889
8.41819
8.12246
8.08891
8.17519
8.29
8.27418
7.94854
7.28105
6.4272
5.58575
4.84455
4.24687
3.81008
3.50486
3.29409
31.8141
12.7517
9.35071
8.36844
8.07016
8.03861
8.1283
8.24773
8.24498
7.9488
7.32351
6.50648
5.68307
4.95209
4.35831
3.91607
3.60139
3.38117
31.5377
12.7349
9.3168
8.32198
8.01992
7.98911
8.08093
8.20361
8.21288
7.9461
7.36394
6.58676
5.78602
5.06713
4.4785
4.0327
3.71038
3.48185
31.2632
12.7223
9.28708
8.27877
7.97178
7.94049
8.03322
8.15785
8.17803
7.94021
7.4017
6.66668
5.89309
5.18935
4.60758
4.16083
3.83275
3.59694
30.9903
12.7134
9.26144
8.23881
7.92578
7.89285
7.98534
8.11075
8.14069
7.93105
7.43629
6.74535
6.00292
5.31783
4.74576
4.30061
3.96896
3.7272
30.7184
12.7079
9.23977
8.20211
7.88201
7.84635
7.93751
8.06265
8.10123
7.91867
7.46733
6.822
6.11432
5.45166
4.89275
4.45225
4.11895
3.87346
30.4472
12.7053
9.22193
8.16867
7.84055
7.80114
7.88998
8.01397
8.06011
7.90331
7.49464
6.89598
6.22634
5.59086
5.04825
4.61488
4.28299
4.03655
30.1762
12.705
9.20776
8.13847
7.80152
7.75744
7.84308
7.96519
8.01793
7.8854
7.51827
6.96691
6.33855
5.7343
5.21188
4.78859
4.46154
4.21748
29.9053
12.7065
9.19702
8.1115
7.76503
7.71547
7.79716
7.91686
7.97539
7.86563
7.53862
7.03484
6.45121
5.88224
5.38287
4.9738
4.65561
4.41798
29.634
12.709
9.18943
8.0877
7.73119
7.6755
7.75263
7.86959
7.93335
7.8449
7.55646
7.10067
6.56468
6.0348
5.56226
5.17191
4.86741
4.6413
29.3623
12.7118
9.18463
8.06697
7.7001
7.63777
7.70991
7.82407
7.89275
7.82438
7.57301
7.16587
6.68096
6.1928
5.75187
5.38561
5.10079
4.89292
29.0898
12.714
9.18216
8.04916
7.67181
7.60252
7.66946
7.78104
7.85468
7.80547
7.59014
7.23251
6.8018
6.35895
5.95486
5.61909
5.36157
5.18092
28.8166
12.7146
9.18146
8.03403
7.64632
7.56996
7.63171
7.74127
7.82028
7.78982
7.61044
7.30547
6.92988
6.53694
6.17595
5.87874
5.65846
5.5176
28.5426
12.7125
9.18189
8.02126
7.62356
7.54022
7.59705
7.7055
7.79074
7.77922
7.6362
7.38749
7.06967
6.73205
6.42225
6.17453
6.00595
5.92515
28.2679
12.7065
9.18266
8.01046
7.60336
7.51335
7.56584
7.67443
7.7672
7.7758
7.67288
7.48221
7.22693
6.95159
6.70444
6.52266
6.42979
6.4502
27.9925
12.6955
9.18292
8.0011
7.58544
7.48928
7.53841
7.64866
7.7507
7.78131
7.72367
7.59386
7.40742
7.20558
7.03862
6.94967
6.97797
7.1995
27.7167
12.6781
9.1817
7.99257
7.5694
7.46781
7.51483
7.62855
7.74203
7.79716
7.79034
7.72656
7.61832
7.50714
7.44856
7.4998
7.74719
8.40467
27.4408
12.6532
9.178
7.98411
7.55471
7.44863
7.49496
7.61419
7.74165
7.8245
7.87423
7.88407
7.86808
7.87385
7.96912
8.24821
8.98728
10.3118
27.1652
12.6196
9.17078
7.97494
7.54073
7.43125
7.47844
7.60533
7.74952
7.86677
7.97663
8.06962
8.16604
8.32823
8.65019
9.31067
10.8648
13.259
26.8903
12.5763
9.15904
7.9642
7.52674
7.41506
7.46465
7.60129
7.76499
7.9219
8.09689
8.2846
8.51973
8.89513
9.56545
11.0333
13.4763
17.468
26.6166
12.5222
9.1419
7.95107
7.51199
7.39932
7.45275
7.60098
7.78661
7.98693
8.23183
8.52562
8.92618
9.57631
10.7199
13.1453
16.2054
22.7825
26.3451
12.4562
9.11865
7.93486
7.49581
7.38333
7.44172
7.60281
7.8119
8.05701
8.374
8.78015
9.35965
10.3078
11.948
14.8107
18.1835
29.293
26.1323
12.397
9.09548
7.91924
7.48125
7.36965
7.43271
7.60481
7.83362
8.11506
8.491
8.99024
9.71619
10.8945
12.9041
15.4855
19.3586
37.2531
25.9216
12.3325
9.06817
7.90108
7.46513
7.35507
7.42315
7.60637
7.85473
8.17072
8.60231
9.18658
10.0338
11.3692
13.5405
15.785
19.6867
26.513
25.7128
12.2624
9.03645
7.87994
7.44693
7.33896
7.41232
7.60663
7.87422
8.22281
8.70543
9.36205
10.2923
11.6835
13.7236
15.9854
19.0843
16.0224
13.4217
12.7392
12.6948
12.9038
13.1369
13.3785
13.6262
13.8838
14.1516
14.3887
14.5938
14.7627
14.8935
14.9819
15.0189
14.9871
14.8514
14.5418
13.9353
12.9224
11.1451
4.70515
6.29436
5.63944
5.57709
5.59624
5.58053
5.55674
5.55022
5.57911
5.65031
5.73793
5.84276
5.96735
6.1151
6.2906
6.50008
6.7514
7.05277
7.40633
7.7864
8.10956
8.19657
7.56573
4.71647
4.38417
4.28508
4.23856
4.22329
4.23434
4.27305
4.34009
4.43406
4.54939
4.68716
4.84959
5.04012
5.26399
5.52909
5.84738
6.23649
6.71995
7.32163
8.0488
8.85132
9.14674
4.16077
3.87567
3.75216
3.69719
3.68614
3.70672
3.75411
3.82557
3.91947
4.03389
4.17031
4.33094
4.51937
4.74125
5.00556
5.32646
5.72632
6.23966
6.91638
7.82738
9.03666
10.2928
3.81322
3.54589
3.41831
3.36064
3.34665
3.36406
3.40722
3.473
3.55987
3.66674
3.79504
3.94688
4.12587
4.33782
4.59209
4.90389
5.2982
5.81618
6.52635
7.54271
9.024
11.1669
3.55964
3.29556
3.16809
3.10752
3.08801
3.0992
3.13569
3.19449
3.27421
3.37363
3.4939
3.637
3.80642
4.00791
4.25082
4.55054
4.93292
5.44262
6.16068
7.22624
8.91039
11.8791
3.36809
3.09575
2.96807
2.90466
2.88008
2.88575
2.9167
2.96997
3.04418
3.13777
3.25153
3.38723
3.54817
3.73992
3.97164
4.25859
4.62676
5.12281
5.83198
6.92052
8.75424
12.4873
3.21909
2.93441
2.80558
2.73943
2.71127
2.7132
2.74039
2.78986
2.86012
2.94936
3.05796
3.18748
3.341
3.52385
3.74495
4.01932
4.373
4.85286
5.54887
6.64648
8.59364
13.0233
3.10197
2.80445
2.67301
2.60466
2.57462
2.57457
2.59962
2.6467
2.7142
2.80016
2.90461
3.02888
3.17584
3.35057
3.56171
3.82402
4.16335
4.62709
5.30819
6.40711
8.44235
13.5043
3.00941
2.70005
2.56495
2.49533
2.46478
2.46416
2.4883
2.53402
2.59959
2.68302
2.78403
2.90376
3.04486
3.21216
3.41399
3.66485
3.99044
4.43848
5.10424
6.20016
8.30528
13.942
2.93634
2.61673
2.47762
2.40739
2.3773
2.37705
2.40112
2.44618
2.5104
2.59178
2.68986
2.80559
2.94142
3.10192
3.29511
3.53519
3.84772
4.2807
4.93132
6.02174
8.18329
14.3446
2.87666
2.55076
2.40776
2.33735
2.30832
2.30902
2.33352
2.37835
2.44156
2.5212
2.61671
2.72889
2.85999
3.01428
3.19949
3.4295
3.72972
4.14841
4.78437
5.86784
8.0757
14.7186
2.82998
2.49917
2.35247
2.28223
2.25452
2.25644
2.28161
2.3264
2.38876
2.46686
2.56007
2.66908
2.79593
2.94463
3.12251
3.34317
3.63185
4.03712
4.65913
5.73488
7.98128
15.0688
2.79485
2.45988
2.30964
2.2395
2.21309
2.21622
2.24206
2.28682
2.34838
2.42504
2.51614
2.62233
2.74544
2.88914
3.0604
3.27243
3.55039
3.94311
4.552
5.61976
7.89868
15.3994
2.7702
2.43175
2.27758
2.2071
2.18166
2.18577
2.21211
2.25672
2.31741
2.39263
2.4818
2.58549
2.70535
2.8447
3.01006
3.21421
3.48224
3.86334
4.46003
5.51986
7.82664
15.7136
2.75482
2.41366
2.25496
2.18335
2.15831
2.16299
2.18949
2.23368
2.29336
2.36711
2.45447
2.55597
2.67308
2.80876
2.96895
3.16602
3.42494
3.79535
4.38081
5.43302
7.76407
16.0144
2.7475
2.40447
2.24064
2.16692
2.14149
2.14615
2.17236
2.21581
2.27427
2.34647
2.43209
2.53167
2.64653
2.77922
2.93506
3.12585
3.37649
3.73712
4.31234
5.35742
7.70999
16.3042
2.74714
2.40306
2.23362
2.15671
2.12998
2.13391
2.15931
2.20164
2.25862
2.32914
2.41302
2.51091
2.62401
2.75441
2.90673
3.09208
3.33527
3.68703
4.25299
5.29154
7.66358
16.5851
2.75292
2.40852
2.233
2.15186
2.12282
2.12526
2.1493
2.19009
2.24531
2.31393
2.39605
2.49242
2.60418
2.73299
2.88266
3.06345
3.30003
3.64378
4.20141
5.23412
7.62416
16.8591
2.76413
2.41996
2.23795
2.15165
2.11934
2.11952
2.14163
2.18045
2.23353
2.30004
2.38029
2.47522
2.58597
2.71388
2.86184
3.039
3.26977
3.6063
4.15646
5.18405
7.59109
17.128
2.77996
2.43633
2.24771
2.15549
2.11905
2.11628
2.13585
2.1722
2.2228
2.28695
2.36515
2.45856
2.56856
2.69623
2.84349
3.01796
3.24365
3.57366
4.11714
5.14034
7.56381
17.3935
2.7998
2.45679
2.26177
2.1631
2.12176
2.1152
2.13167
2.16512
2.21289
2.27434
2.35018
2.44187
2.5512
2.67917
2.82648
2.99934
3.22081
3.54494
4.0825
5.1021
7.54179
17.6571
2.82325
2.48035
2.27992
2.17439
2.12718
2.11621
2.12907
2.15921
2.20375
2.26206
2.33508
2.42495
2.53361
2.66162
2.80914
2.9815
3.20012
3.51926
4.05171
5.06855
7.52454
17.9205
2.85122
2.50764
2.30171
2.18909
2.13539
2.11942
2.12818
2.15453
2.19534
2.25003
2.31988
2.40733
2.51469
2.64263
2.79074
2.96339
3.18056
3.49599
4.0241
5.03908
7.51167
18.1853
2.88427
2.53942
2.32729
2.20718
2.14655
2.12494
2.12897
2.15097
2.18751
2.23796
2.30392
2.3883
2.49393
2.62176
2.77092
2.94455
3.16163
3.47483
3.99919
5.0132
7.50293
18.453
2.92282
2.5762
2.35719
2.229
2.16078
2.13273
2.13122
2.14811
2.17968
2.22532
2.2869
2.36777
2.47134
2.59899
2.74966
2.92514
3.14316
3.45518
3.97669
4.99063
7.49823
18.7254
2.968
2.61906
2.39217
2.25504
2.17833
2.14283
2.13482
2.14578
2.17177
2.21223
2.26915
2.34622
2.44738
2.57464
2.72705
2.9052
3.12512
3.43691
3.95645
4.97121
7.49774
19.0042
3.01664
2.66658
2.43224
2.28606
2.19986
2.1557
2.14012
2.14439
2.16436
2.19941
2.25149
2.32447
2.42281
2.54926
2.70335
2.88476
3.10752
3.42
3.93846
4.95497
7.50187
19.2914
3.06758
2.71797
2.47635
2.32088
2.22505
2.1716
2.14777
2.14482
2.15841
2.18786
2.23491
2.30351
2.39856
2.52352
2.67891
2.86389
3.09031
3.40445
3.92279
4.94202
7.51127
19.5893
3.11981