/*--------------------------------*- C++ -*----------------------------------*\
| =========                 |                                                 |
| \\      /  F ield         | OpenFOAM: The Open Source CFD Toolbox           |
|  \\    /   O peration     | Version:  v2012                                 |
|   \\  /    A nd           | Website:  www.openfoam.com                      |
|    \\/     M anipulation  |                                                 |
\*---------------------------------------------------------------------------*/
FoamFile
{
    version     2.0;
    format      ascii;
    class       volScalarField;
    location    "614";
    object      p;
}
// * * * * * * * * * * * * * * * * * * * * * * * * * * * * * * * * * * * * * //

dimensions      [0 2 -2 0 0 0 0];


internalField   nonuniform List<scalar> 
6054
(
0.330873
0.331534
0.33208
0.332537
0.332927
0.333266
0.333568
0.333844
0.334102
0.334347
0.334583
0.334813
0.335039
0.335264
0.33549
0.33572
0.335959
0.336256
0.336743
0.337448
0.33087
0.331542
0.332095
0.332554
0.332942
0.333281
0.333584
0.333862
0.334123
0.334371
0.334613
0.334849
0.335082
0.335314
0.335548
0.335782
0.336016
0.33627
0.336563
0.336817
0.330946
0.331606
0.332143
0.332585
0.33296
0.333287
0.333581
0.333852
0.334108
0.334354
0.334594
0.33483
0.335063
0.335296
0.33553
0.335758
0.33598
0.336201
0.336388
0.336475
0.33116
0.331781
0.332277
0.332681
0.333024
0.333326
0.333601
0.333858
0.334104
0.334342
0.334577
0.334808
0.335038
0.335268
0.335496
0.335715
0.335926
0.336126
0.33628
0.336331
0.331521
0.332068
0.332495
0.332838
0.333133
0.333399
0.333647
0.333886
0.334118
0.334348
0.334576
0.334803
0.33503
0.335257
0.335481
0.335696
0.335902
0.336091
0.33623
0.33627
0.332037
0.33246
0.332786
0.333044
0.333276
0.333496
0.333713
0.33393
0.334148
0.334368
0.334589
0.334812
0.335036
0.335261
0.335483
0.335698
0.335903
0.336092
0.336231
0.336271
0.332733
0.332951
0.333138
0.333285
0.33344
0.333608
0.333791
0.333985
0.334189
0.334399
0.334614
0.334833
0.335055
0.335279
0.335503
0.33572
0.335929
0.336129
0.336282
0.336333
0.333677
0.333528
0.333525
0.333534
0.333604
0.333721
0.333871
0.334046
0.334237
0.334439
0.33465
0.334867
0.335088
0.335312
0.335541
0.335765
0.335985
0.336205
0.336391
0.336477
0.334803
0.334133
0.333864
0.333728
0.333726
0.333802
0.33393
0.334091
0.334274
0.334471
0.334678
0.334892
0.33511
0.335333
0.33556
0.33579
0.336021
0.336274
0.336566
0.336819
0.335803
0.334634
0.334018
0.333797
0.333749
0.333805
0.333922
0.334077
0.334254
0.334446
0.334648
0.334855
0.335067
0.335282
0.335502
0.335727
0.335964
0.336259
0.336746
0.337451
0.442805
0.420694
0.400958
0.383645
0.368734
0.356162
0.34582
0.337562
0.331216
0.326588
0.323466
0.321627
0.320842
0.320887
0.321548
0.322627
0.323949
0.325357
0.326733
0.327999
0.329116
0.330072
0.442916
0.420758
0.400953
0.383554
0.368553
0.355892
0.345465
0.337132
0.330722
0.326047
0.322899
0.321056
0.320288
0.320372
0.321096
0.322256
0.323659
0.325149
0.326597
0.327918
0.329074
0.330054
0.44009
0.418074
0.3984
0.381127
0.366251
0.353717
0.343421
0.335225
0.328958
0.324435
0.321453
0.31979
0.319209
0.319488
0.320408
0.321753
0.323327
0.324964
0.32653
0.32793
0.329128
0.330128
0.434443
0.412692
0.393296
0.376317
0.36175
0.349537
0.339575
0.331722
0.325807
0.321643
0.31903
0.317751
0.317546
0.318194
0.31947
0.321142
0.323003
0.324877
0.326619
0.328121
0.329358
0.330362
0.425928
0.404579
0.385627
0.369126
0.355066
0.343381
0.333965
0.326672
0.321327
0.317729
0.315677
0.314987
0.31536
0.316533
0.31833
0.320477
0.322742
0.324941
0.326917
0.328542
0.329795
0.33077
0.414554
0.393756
0.375421
0.359591
0.346238
0.335289
0.326636
0.320125
0.315544
0.312678
0.311361
0.311496
0.312675
0.31454
0.317026
0.319805
0.322598
0.325216
0.327497
0.329261
0.330468
0.331354
0.400408
0.380311
0.362767
0.347794
0.335344
0.325329
0.317633
0.31207
0.30836
0.306401
0.306131
0.307285
0.309507
0.312395
0.315723
0.319247
0.322689
0.325837
0.328492
0.330364
0.331375
0.332103
0.383679
0.364445
0.34787
0.333939
0.322574
0.313664
0.307068
0.302588
0.299999
0.299217
0.300116
0.302393
0.305755
0.309916
0.314425
0.318838
0.323037
0.326798
0.329797
0.331729
0.332514
0.333024
0.364776
0.3466
0.331193
0.318494
0.308388
0.300728
0.29535
0.292072
0.290714
0.291119
0.293053
0.296348
0.300891
0.306353
0.312124
0.317661
0.32279
0.327211
0.330657
0.333449
0.334874
0.334014
0.34446
0.327597
0.313589
0.302314
0.29361
0.287296
0.283197
0.281159
0.28104
0.282638
0.285671
0.290096
0.295901
0.302667
0.309906
0.317285
0.324377
0.330558
0.335323
0.339421
0.34016
0.332213
0.782966
0.781755
0.78108
0.781105
0.780809
0.778343
0.76979
0.753185
0.730605
0.704176
0.675201
0.644698
0.613478
0.582219
0.551501
0.521821
0.493596
0.46717
0.782448
0.780831
0.780666
0.78149
0.781514
0.778049
0.767676
0.750487
0.728453
0.702567
0.674065
0.64395
0.613038
0.582013
0.55146
0.521885
0.493715
0.4673
0.782897
0.780929
0.780882
0.781226
0.779425
0.77315
0.760913
0.743385
0.721657
0.69637
0.668532
0.639023
0.608626
0.578023
0.547808
0.518503
0.490552
0.464318
0.785128
0.782656
0.781497
0.779428
0.774497
0.765481
0.751871
0.733962
0.71226
0.68736
0.660047
0.63107
0.601153
0.570959
0.54109
0.512081
0.484396
0.458417
0.788343
0.784803
0.781329
0.776231
0.768233
0.756826
0.74176
0.723092
0.70109
0.676234
0.649139
0.620453
0.590836
0.560929
0.531334
0.502599
0.475202
0.449542
0.790734
0.785312
0.779241
0.77122
0.760497
0.746903
0.730262
0.710574
0.688001
0.662898
0.635754
0.607133
0.577642
0.547901
0.51851
0.490031
0.462956
0.437692
0.790307
0.782849
0.774522
0.763895
0.75081
0.735256
0.717081
0.696277
0.672954
0.647385
0.619972
0.591213
0.56168
0.531978
0.502717
0.47447
0.447743
0.422953
0.786158
0.776943
0.766814
0.75405
0.739001
0.72174
0.702128
0.680183
0.655996
0.62979
0.601913
0.572829
0.543088
0.513303
0.484097
0.456064
0.429726
0.405498
0.778689
0.767644
0.756052
0.741636
0.724996
0.706268
0.685339
0.662272
0.637153
0.610185
0.581691
0.552122
0.522037
0.492072
0.462882
0.435087
0.409222
0.385695
0.767503
0.754927
0.742282
0.726639
0.708742
0.688784
0.666684
0.642549
0.616478
0.58867
0.559451
0.529289
0.49878
0.468606
0.439471
0.412029
0.386819
0.364223
0.323356
0.308233
0.296002
0.286458
0.279377
0.274534
0.271727
0.270805
0.271629
0.273966
0.277572
0.282418
0.28843
0.295168
0.302179
0.309128
0.315531
0.321132
0.32614
0.329821
0.327384
0.315271
0.303374
0.290527
0.280492
0.27298
0.267725
0.264501
0.26314
0.26354
0.2656
0.269083
0.273728
0.279489
0.286327
0.293774
0.301153
0.307959
0.313903
0.319012
0.3234
0.325843
0.323957
0.318851
0.286711
0.27631
0.26846
0.262843
0.259216
0.257395
0.25723
0.258595
0.261371
0.265345
0.270207
0.276025
0.282782
0.29011
0.2976
0.3047
0.310974
0.316217
0.320281
0.322243
0.32107
0.318362
0.273743
0.265589
0.259616
0.255524
0.253087
0.252129
0.252511
0.254137
0.25698
0.260972
0.265948
0.271799
0.278408
0.285526
0.292795
0.299804
0.306187
0.311628
0.315772
0.317999
0.31785
0.316397
0.263916
0.257506
0.252823
0.249608
0.247699
0.247009
0.247504
0.249159
0.251965
0.25587
0.260777
0.266576
0.273104
0.280122
0.28728
0.294217
0.300609
0.306136
0.310413
0.313078
0.313883
0.313256
0.256119
0.250797
0.246785
0.243941
0.242214
0.241605
0.242127
0.243771
0.246534
0.250359
0.255162
0.260833
0.267215
0.274077
0.281092
0.287924
0.29429
0.299893
0.304362
0.307465
0.309008
0.308939
0.249292
0.244541
0.240839
0.238155
0.23651
0.235935
0.236456
0.238062
0.24075
0.244469
0.249138
0.254648
0.260849
0.267529
0.27438
0.281098
0.287435
0.293099
0.297739
0.301178
0.303233
0.303529
0.242805
0.238349
0.234808
0.232218
0.230625
0.230067
0.230569
0.232119
0.234712
0.238301
0.242813
0.248142
0.254144
0.260624
0.267304
0.273901
0.280185
0.285874
0.290631
0.294291
0.296661
0.297182
0.236405
0.232124
0.228697
0.226184
0.224634
0.224085
0.224556
0.226037
0.228522
0.231968
0.236307
0.241439
0.247229
0.253498
0.259998
0.266457
0.272659
0.278327
0.283138
0.286914
0.289449
0.290096
0.230034
0.225891
0.22257
0.220132
0.218623
0.218077
0.21851
0.219913
0.22228
0.225572
0.229727
0.234652
0.240222
0.24627
0.252576
0.258882
0.264972
0.270575
0.275379
0.279183
0.281774
0.28248
0.223721
0.219712
0.2165
0.214138
0.212669
0.212123
0.212514
0.213834
0.216076
0.219207
0.223169
0.22788
0.233223
0.239044
0.245143
0.251283
0.257235
0.262737
0.267478
0.271245
0.273815
0.274535
0.217524
0.213655
0.210554
0.208271
0.206841
0.206295
0.206641
0.207874
0.209989
0.212953
0.216719
0.221209
0.22632
0.231909
0.237793
0.243751
0.249546
0.254918
0.259554
0.263235
0.265735
0.266441
0.211501
0.207777
0.204791
0.202587
0.201199
0.200651
0.200953
0.202099
0.204084
0.206881
0.210447
0.214714
0.21959
0.224943
0.230604
0.236364
0.241987
0.247205
0.251713
0.255279
0.257681
0.258356
0.205702
0.202127
0.199259
0.197137
0.19579
0.195244
0.195501
0.196561
0.198417
0.201048
0.204414
0.208459
0.213098
0.218212
0.223644
0.229195
0.234632
0.239684
0.24405
0.247487
0.249776
0.250414
0.200167
0.196744
0.193996
0.191957
0.190655
0.190111
0.190327
0.191303
0.193035
0.195501
0.198671
0.202495
0.206899
0.211775
0.216976
0.222312
0.227553
0.232432
0.236649
0.239952
0.242126
0.242728
0.194928
0.191658
0.189031
0.187077
0.185821
0.185283
0.185462
0.186359
0.18797
0.190278
0.193258
0.196867
0.20104
0.205682
0.210653
0.215771
0.220814
0.225518
0.229585
0.232758
0.234819
0.23539
0.190006
0.186891
0.184386
0.182518
0.181312
0.180782
0.180928
0.181752
0.18325
0.185408
0.188205
0.191607
0.195559
0.199975
0.204722
0.209625
0.21447
0.219
0.222921
0.225972
0.227928
0.228476
0.185418
0.182458
0.180076
0.178296
0.17714
0.176623
0.176742
0.177499
0.178892
0.180909
0.183534
0.186741
0.190484
0.194685
0.199218
0.203914
0.208566
0.212929
0.21671
0.219649
0.221511
0.222047
0.181174
0.17837
0.17611
0.17442
0.173317
0.172815
0.172912
0.173611
0.174908
0.176796
0.179262
0.182287
0.185834
0.189838
0.194173
0.198671
0.20314
0.207344
0.210994
0.213836
0.215616
0.216153
0.177283
0.174634
0.172496
0.170894
0.169846
0.169364
0.169445
0.170092
0.171304
0.173075
0.175394
0.178249
0.181621
0.185454
0.189614
0.193926
0.198221
0.202277
0.205809
0.208568
0.210281
0.210832
0.173757
0.171262
0.16924
0.167725
0.166732
0.166272
0.166342
0.166946
0.168083
0.169746
0.171928
0.174629
0.177855
0.181558
0.185571
0.189707
0.193832
0.197754
0.201182
0.203874
0.205535
0.206118
0.17057
0.168246
0.166351
0.164917
0.163978
0.16354
0.163603
0.16417
0.165239
0.166803
0.168862
0.171449
0.174572
0.178156
0.182044
0.186028
0.189989
0.193789
0.197131
0.199776
0.201403
0.202038
0.167704
0.165542
0.163798
0.162473
0.161588
0.161171
0.161226
0.161758
0.162766
0.164248
0.166236
0.16876
0.17178
0.175224
0.178993
0.182857
0.186686
0.19039
0.193668
0.196292
0.197907
0.198612
0.1652
0.16316
0.161548
0.160346
0.159545
0.159161
0.159209
0.159707
0.16067
0.162122
0.164084
0.166535
0.169429
0.172734
0.176388
0.180163
0.183915
0.187558
0.190805
0.193437
0.195064
0.195853
0.163088
0.161155
0.159631
0.158517
0.1578
0.157472
0.157541
0.15804
0.158994
0.160431
0.162344
0.164696
0.167477
0.170669
0.174221
0.177944
0.181673
0.185297
0.188548
0.191222
0.192884
0.193779
0.161356
0.159525
0.158081
0.15703
0.156367
0.156091
0.156202
0.156726
0.157684
0.159087
0.160932
0.163208
0.165907
0.169019
0.172501
0.176204
0.179956
0.183614
0.186911
0.189658
0.191374
0.192426
0.15998
0.158242
0.156874
0.15588
0.155261
0.15502
0.155156
0.155693
0.156644
0.158021
0.159826
0.162056
0.16471
0.16778
0.171231
0.174947
0.178766
0.182514
0.185908
0.188772
0.190586
0.191832
0.158939
0.157278
0.155972
0.155025
0.154441
0.154222
0.154373
0.154915
0.155865
0.157233
0.159023
0.161239
0.163881
0.166949
0.170409
0.174182
0.178119
0.182009
0.185546
0.188585
0.190597
0.192012
0.158214
0.15661
0.15535
0.154438
0.153879
0.153679
0.153842
0.154395
0.155353
0.156727
0.158526
0.160755
0.163422
0.166528
0.170034
0.173922
0.178042
0.182119
0.185842
0.189091
0.191278
0.192961
0.157791
0.156228
0.155
0.154112
0.153572
0.153386
0.153564
0.154133
0.155109
0.156507
0.158336
0.160607
0.163336
0.166519
0.17012
0.174184
0.178545
0.182866
0.186849
0.190385
0.192737
0.194725
0.157666
0.156129
0.154919
0.154047
0.153519
0.153345
0.153539
0.154129
0.155134
0.15657
0.158452
0.160797
0.163622
0.166921
0.170691
0.174997
0.17964
0.184269
0.188598
0.192511
0.195087
0.197386
0.157839
0.156313
0.155112
0.154246
0.153724
0.153558
0.153766
0.154383
0.155427
0.156918
0.158877
0.161325
0.164281
0.167748
0.171781
0.176396
0.181351
0.186345
0.191069
0.19528
0.198214
0.20096
0.158318
0.156791
0.155587
0.154718
0.154192
0.154027
0.154246
0.154892
0.155988
0.157556
0.15962
0.162206
0.165339
0.169057
0.173422
0.17837
0.183683
0.189107
0.194264
0.198854
0.202233
0.205499
0.159113
0.157573
0.156356
0.155474
0.154937
0.15476
0.154986
0.155674
0.156844
0.158512
0.16071
0.163474
0.166841
0.170867
0.175572
0.180881
0.186627
0.192552
0.198229
0.203384
0.207203
0.211028
0.160238
0.158673
0.157434
0.156531
0.155968
0.155778
0.156036
0.156788
0.158038
0.159815
0.162162
0.165129
0.168761
0.173102
0.178169
0.183908
0.190172
0.196686
0.202978
0.20874
0.213096
0.217567
0.161706
0.160105
0.158834
0.157897
0.157299
0.157122
0.157437
0.158245
0.159567
0.161452
0.163955
0.167132
0.171037
0.17572
0.181202
0.187446
0.194313
0.201503
0.208503
0.214944
0.219912
0.225115
0.16353
0.161882
0.160567
0.159579
0.158959
0.158815
0.159169
0.160015
0.161407
0.163404
0.16607
0.169468
0.173665
0.178721
0.184669
0.191486
0.199035
0.206987
0.214779
0.221966
0.227613
0.233629
0.165724
0.164015
0.162642
0.161594
0.16097
0.160851
0.161212
0.162092
0.163555
0.165668
0.168503
0.172134
0.176642
0.182102
0.188563
0.196013
0.204318
0.213103
0.221761
0.229748
0.236119
0.243008
0.168306
0.16652
0.165067
0.163967
0.163343
0.163212
0.163569
0.16448
0.166014
0.168245
0.171253
0.175128
0.179965
0.185855
0.192866
0.201004
0.210123
0.219797
0.229385
0.238207
0.245289
0.253058
0.171296
0.169412
0.167858
0.166716
0.166075
0.165902
0.166247
0.167184
0.168787
0.171136
0.174323
0.178449
0.183627
0.189966
0.197557
0.206417
0.216388
0.226985
0.237568
0.247193
0.254881
0.263462
0.174709
0.172704
0.171045
0.16985
0.169153
0.168926
0.169253
0.170212
0.171881
0.174348
0.177714
0.182095
0.18762
0.194417
0.202599
0.212191
0.223006
0.234523
0.246118
0.256377
0.264536
0.273761
0.178562
0.176408
0.174649
0.173381
0.172585
0.172293
0.172596
0.173572
0.175303
0.177886
0.181431
0.186065
0.191933
0.199182
0.207942
0.218236
0.229822
0.24218
0.254612
0.265286
0.273806
0.28337
0.182883
0.18056
0.178684
0.177302
0.176384
0.176015
0.176286
0.177273
0.179064
0.18176
0.18548
0.190359
0.196555
0.204226
0.213517
0.224427
0.236642
0.249667
0.262558
0.273427
0.282127
0.291626
0.187694
0.18519
0.183162
0.181611
0.180559
0.180103
0.180333
0.181328
0.183178
0.185986
0.189874
0.194983
0.201481
0.209517
0.219247
0.230612
0.243244
0.256614
0.269555
0.280375
0.288957
0.297945
0.193028
0.190317
0.188087
0.18633
0.185123
0.18457
0.184754
0.185755
0.187664
0.190581
0.194628
0.199947
0.206705
0.215034
0.225111
0.236626
0.249348
0.262602
0.275194
0.285666
0.293974
0.302229
0.198931
0.19596
0.193465
0.191474
0.190092
0.189428
0.189563
0.190574
0.192545
0.195571
0.199767
0.20526
0.212205
0.220736
0.231038
0.24226
0.254581
0.267191
0.279067
0.288853
0.296856
0.304349
0.205436
0.202139
0.199316
0.197053
0.195477
0.194694
0.194782
0.195811
0.197856
0.200996
0.20533
0.210948
0.217976
0.226506
0.236389
0.247221
0.258623
0.270006
0.280746
0.289579
0.297214
0.303762
0.212586
0.208878
0.205668
0.203089
0.201291
0.200381
0.20043
0.201496
0.203635
0.206905
0.211373
0.217075
0.22414
0.232293
0.241284
0.251215
0.261138
0.270789
0.279968
0.287683
0.294759
0.300862
0.220437
0.216208
0.212542
0.209591
0.20754
0.2065
0.206529
0.207663
0.209931
0.213352
0.217941
0.223688
0.230725
0.238011
0.245896
0.254051
0.261916
0.269539
0.276917
0.28349
0.289852
0.296095
0.22905
0.224173
0.219947
0.216555
0.214214
0.213049
0.213095
0.21435
0.216795
0.220397
0.225076
0.23072
0.237005
0.243487
0.249738
0.255644
0.261163
0.26668
0.272283
0.277788
0.283334
0.289447
0.238466
0.232776
0.227844
0.223932
0.221271
0.220007
0.220135
0.221597
0.224297
0.228133
0.232811
0.238064
0.243253
0.248479
0.252661
0.256112
0.259387
0.262944
0.266982
0.271445
0.276121
0.282004
0.248647
0.241899
0.236095
0.231581
0.228607
0.227306
0.227624
0.229415
0.232511
0.236603
0.240995
0.245514
0.249647
0.252687
0.254571
0.255772
0.257082
0.258988
0.261742
0.265249
0.269218
0.274954
0.259484
0.251288
0.244434
0.239267
0.236045
0.234832
0.235522
0.237741
0.241321
0.245327
0.249354
0.252807
0.255068
0.255922
0.255652
0.254931
0.25466
0.255356
0.257167
0.259946
0.263349
0.268671
0.270716
0.260563
0.252448
0.246677
0.243372
0.242527
0.243774
0.246355
0.249993
0.253926
0.257063
0.258945
0.259286
0.25816
0.256105
0.254032
0.252732
0.252618
0.253806
0.256173
0.259093
0.263988
0.281588
0.268801
0.25941
0.253395
0.250296
0.250185
0.251616
0.254632
0.258224
0.261386
0.263229
0.263436
0.261977
0.259415
0.256422
0.253625
0.251695
0.251132
0.252036
0.254272
0.257027
0.261636
0.291357
0.27482
0.264378
0.258685
0.25586
0.25603
0.258525
0.261775
0.264593
0.266442
0.266792
0.265623
0.263285
0.260242
0.256901
0.253764
0.251573
0.250905
0.251877
0.254337
0.257526
0.262156
0.299613
0.277709
0.266472
0.260961
0.258854
0.260146
0.263203
0.265755
0.267352
0.267958
0.267614
0.266344
0.26411
0.261027
0.257518
0.254302
0.252229
0.25185
0.253327
0.256513
0.260778
0.265482
0.297898
0.271746
0.263171
0.26036
0.259994
0.261369
0.263424
0.265182
0.266489
0.267328
0.267546
0.266734
0.264687
0.26161
0.258142
0.255206
0.253635
0.25387
0.256214
0.260654
0.266234
0.270362
0.268196
0.252157
0.253648
0.255878
0.25729
0.258823
0.260865
0.263187
0.265314
0.266763
0.267292
0.266611
0.264666
0.261798
0.258689
0.256258
0.255383
0.256535
0.260091
0.26592
0.271942
0.274385
0.230595
0.240614
0.249082
0.252071
0.254698
0.257175
0.259682
0.262212
0.264402
0.265878
0.266395
0.26584
0.264233
0.261856
0.259309
0.25756
0.257532
0.259682
0.263993
0.270124
0.275155
0.276095
0.75175
0.73831
0.725041
0.708548
0.689684
0.668693
0.645558
0.62041
0.593376
0.564675
0.534661
0.503853
0.472919
0.442619
0.413726
0.386928
0.36275
0.341517
0.731661
0.717762
0.704271
0.687289
0.667746
0.645933
0.621916
0.595844
0.567887
0.538303
0.507512
0.476127
0.444931
0.414802
0.386593
0.361005
0.338508
0.319306
0.708453
0.694402
0.680895
0.663737
0.643769
0.621366
0.596652
0.56981
0.541059
0.510726
0.479337
0.447648
0.416603
0.387209
0.360371
0.336739
0.316627
0.300031
0.682902
0.668868
0.655464
0.638297
0.61813
0.595355
0.570137
0.542714
0.513366
0.482525
0.450869
0.419342
0.389065
0.361144
0.336451
0.315461
0.298225
0.284467
0.655597
0.641718
0.6285
0.611409
0.591255
0.568308
0.542803
0.515035
0.485366
0.454371
0.422922
0.392171
0.363385
0.337679
0.315755
0.297795
0.283527
0.272425
0.627049
0.613468
0.600468
0.583559
0.563595
0.540677
0.515124
0.487289
0.457647
0.426946
0.396272
0.366959
0.34034
0.3174
0.298547
0.283601
0.271993
0.263036
0.59776
0.584594
0.571871
0.555275
0.53563
0.512935
0.487584
0.459991
0.43077
0.400858
0.371533
0.34425
0.320278
0.30035
0.2845
0.272205
0.262693
0.255235
0.568217
0.555562
0.543208
0.527023
0.507815
0.485535
0.460636
0.43361
0.405215
0.376566
0.34909
0.324253
0.303146
0.286159
0.272955
0.262757
0.254726
0.248207
0.538859
0.52679
0.514888
0.4992
0.480551
0.458874
0.434671
0.408525
0.38133
0.354349
0.329077
0.306888
0.288604
0.274249
0.263188
0.25452
0.247459
0.2415
0.510063
0.498635
0.48725
0.472143
0.454177
0.433276
0.409998
0.385008
0.359326
0.334304
0.311424
0.29188
0.27618
0.264028
0.254595
0.246986
0.240545
0.234929
0.482147
0.471398
0.460583
0.446136
0.428963
0.408991
0.38683
0.363222
0.339274
0.316377
0.29592
0.278859
0.265399
0.254999
0.246756
0.239866
0.233831
0.228451
0.455366
0.445323
0.43512
0.421399
0.405111
0.38619
0.365293
0.343222
0.321138
0.300412
0.282287
0.267454
0.255855
0.246802
0.239415
0.233022
0.227277
0.222093
0.429922
0.420598
0.411035
0.39809
0.382753
0.36497
0.345434
0.324986
0.304798
0.286195
0.270239
0.257341
0.24724
0.239206
0.23244
0.226411
0.2209
0.215903
0.405959
0.397352
0.388445
0.376309
0.361964
0.345368
0.32724
0.308428
0.290085
0.273486
0.259518
0.248269
0.239345
0.232077
0.225774
0.220034
0.214737
0.20993
0.38357
0.375669
0.36742
0.356107
0.342769
0.327374
0.310651
0.293428
0.276789
0.262047
0.249942
0.240078
0.232039
0.225347
0.219404
0.213914
0.208827
0.204217
0.362805
0.355589
0.347987
0.337495
0.325157
0.310946
0.295587
0.279867
0.264794
0.251774
0.241308
0.232574
0.225233
0.218983
0.213338
0.208079
0.203205
0.198796
0.343678
0.337115
0.330142
0.320453
0.309087
0.296023
0.281959
0.267618
0.254085
0.242643
0.233387
0.225567
0.218852
0.212965
0.207586
0.202553
0.197895
0.19369
0.326171
0.320228
0.313855
0.304939
0.294504
0.282531
0.269685
0.256606
0.244557
0.234472
0.22608
0.21901
0.212844
0.207284
0.202159
0.197353
0.192915
0.188918
0.310247
0.304882
0.299076
0.290895
0.281338
0.27039
0.258688
0.246794
0.236037
0.22704
0.219361
0.212907
0.207201
0.201948
0.197071
0.192493
0.188277
0.184489
0.295848
0.291021
0.285742
0.27825
0.269512
0.259508
0.248853
0.238075
0.228404
0.220258
0.2132
0.207243
0.201938
0.196981
0.192332
0.187979
0.183988
0.180411
0.282909
0.278576
0.273785
0.266931
0.258943
0.249793
0.240049
0.230317
0.221597
0.214106
0.207579
0.202022
0.197059
0.192382
0.187943
0.183813
0.180051
0.176693
0.271355
0.267477
0.263129
0.256859
0.249553
0.241173
0.232224
0.223426
0.215525
0.208559
0.202489
0.197266
0.192571
0.188143
0.183931
0.180024
0.176475
0.173317
0.261109
0.257648
0.253701
0.247962
0.241271
0.233592
0.225365
0.217339
0.210094
0.203589
0.19792
0.192988
0.188515
0.184314
0.180339
0.176647
0.173283
0.17029
0.2521
0.249014
0.245429
0.24017
0.234029
0.226976
0.219401
0.21201
0.205285
0.199187
0.193866
0.189197
0.184935
0.180941
0.177179
0.173683
0.170493
0.167653
0.244256
0.241506
0.238245
0.233417
0.22776
0.221256
0.214257
0.207396
0.201097
0.195351
0.190326
0.18589
0.181829
0.178026
0.174452
0.171133
0.168106
0.165414
0.237508
0.235056
0.232086
0.22764
0.222407
0.216377
0.209878
0.203464
0.197517
0.19207
0.187296
0.183063
0.179184
0.175556
0.172151
0.168992
0.166116
0.16356
0.231791
0.229604
0.226895
0.222784
0.217918
0.212296
0.206225
0.200184
0.194527
0.189331
0.184767
0.18071
0.176993
0.173521
0.170267
0.167252
0.16451
0.162076
0.227044
0.225075
0.222626
0.2188
0.214249
0.208975
0.203268
0.197536
0.192112
0.187123
0.182732
0.178825
0.175249
0.171912
0.16879
0.1659
0.163274
0.160945
0.223227
0.221493
0.219245
0.215643
0.21136
0.20638
0.200979
0.1955
0.190261
0.185437
0.181185
0.177402
0.173943
0.17072
0.167709
0.164924
0.162393
0.160148
0.220305
0.218886
0.216698
0.213273
0.209218
0.204482
0.199336
0.194062
0.188964
0.184265
0.18012
0.176434
0.173069
0.169939
0.167016
0.164313
0.161855
0.159673
0.218218
0.217003
0.214876
0.21165
0.20779
0.203257
0.19832
0.193209
0.188212
0.183602
0.179531
0.175915
0.172622
0.169561
0.166704
0.16406
0.161655
0.159515
0.216867
0.215708
0.213743
0.21074
0.207049
0.202683
0.197917
0.192931
0.188001
0.183444
0.179417
0.175845
0.172599
0.169585
0.166771
0.164165
0.161789
0.159672
0.216259
0.215123
0.213346
0.210531
0.206976
0.202749
0.198116
0.19322
0.188326
0.183791
0.179779
0.176224
0.173
0.17001
0.167217
0.164626
0.162262
0.16015
0.216406
0.215348
0.213707
0.211017
0.207566
0.203447
0.198912
0.194073
0.189186
0.184646
0.180621
0.177057
0.173831
0.170842
0.168048
0.165453
0.163081
0.160958
0.217317
0.216336
0.214793
0.212186
0.208811
0.204769
0.200302
0.195492
0.190584
0.186012
0.181948
0.178349
0.175097
0.172087
0.169272
0.166655
0.164258
0.162109
0.218943
0.218062
0.216571
0.214019
0.2107
0.206711
0.202284
0.197478
0.192528
0.187896
0.183767
0.180108
0.176807
0.173756
0.170902
0.168245
0.165807
0.163617
0.221242
0.22051
0.219019
0.216503
0.213225
0.209266
0.204858
0.200037
0.195024
0.190309
0.18609
0.182348
0.178976
0.175863
0.172952
0.170237
0.167741
0.165494
0.224181
0.223587
0.222099
0.219624
0.216375
0.212434
0.208027
0.203175
0.198085
0.193265
0.188933
0.185084
0.181619
0.178426
0.175437
0.172647
0.170077
0.167757
0.227744
0.227234
0.225788
0.223368
0.220145
0.216212
0.211795
0.206902
0.201723
0.19678
0.192315
0.188337
0.184758
0.181462
0.178379
0.175495
0.172832
0.170421
0.231935
0.231492
0.230096
0.227731
0.224531
0.220602
0.216167
0.211227
0.205955
0.200875
0.196258
0.192131
0.188415
0.184997
0.181798
0.178801
0.176025
0.173509
0.236752
0.236375
0.235026
0.232709
0.229531
0.225606
0.221151
0.216164
0.210798
0.205573
0.200788
0.196493
0.19262
0.189057
0.185722
0.18259
0.179684
0.177045
0.242178
0.241869
0.240563
0.238295
0.235145
0.231228
0.226755
0.221725
0.216271
0.2109
0.205935
0.201455
0.197404
0.193675
0.19018
0.186894
0.183839
0.18105
0.248192
0.24795
0.246691
0.24448
0.241367
0.237469
0.232985
0.227923
0.222396
0.216883
0.211734
0.207055
0.202806
0.198888
0.19521
0.191749
0.18852
0.185548
0.254773
0.254597
0.253392
0.25125
0.248191
0.244328
0.239848
0.234773
0.229194
0.223553
0.218223
0.213335
0.208871
0.204738
0.200859
0.197202
0.193759
0.190568
0.261895
0.261788
0.260648
0.258591
0.255606
0.251803
0.24735
0.242286
0.236686
0.230943
0.225444
0.220344
0.21565
0.211285
0.207185
0.203293
0.199594
0.196149
0.269529
0.269495
0.268432
0.266482
0.263598
0.259886
0.255492
0.250473
0.244893
0.239086
0.233441
0.228139
0.223205
0.2186
0.21425
0.210072
0.206075
0.202336
0.277641
0.277685
0.276716
0.274895
0.272146
0.268566
0.264272
0.259342
0.253834
0.248015
0.242265
0.236779
0.231616
0.226762
0.222122
0.217615
0.213269
0.209178
0.286188
0.286317
0.285459
0.283797
0.281223
0.277822
0.273681
0.268895
0.263525
0.257761
0.251964
0.246333
0.240969
0.235859
0.230892
0.226017
0.221266
0.216746
0.295121
0.295343
0.294616
0.293146
0.290791
0.287627
0.2837
0.279127
0.273974
0.268353
0.262587
0.256879
0.251352
0.245986
0.240679
0.2354
0.230177
0.225131
0.304384
0.304706
0.304132
0.302889
0.300801
0.297939
0.294301
0.290024
0.285182
0.279807
0.274174
0.268486
0.262857
0.257256
0.251613
0.245893
0.24012
0.234428
0.313913
0.314341
0.313943
0.312964
0.311195
0.308699
0.305436
0.301557
0.297134
0.292128
0.286758
0.281209
0.275565
0.269789
0.263825
0.257622
0.251197
0.24471
0.323635
0.324177
0.323976
0.323296
0.321898
0.319827
0.31704
0.313685
0.309789
0.305292
0.300345
0.295081
0.289543
0.283688
0.277437
0.270703
0.263494
0.256005
0.333471
0.334132
0.334148
0.333802
0.332828
0.331239
0.32903
0.326326
0.323077
0.319241
0.314895
0.310097
0.304835
0.299032
0.292551
0.285241
0.277078
0.26831
0.343336
0.34412
0.344369
0.344387
0.34389
0.342848
0.341299
0.339344
0.33688
0.33387
0.330316
0.326196
0.321423
0.315848
0.309231
0.301309
0.291986
0.281554
0.35314
0.354047
0.354542
0.354944
0.354965
0.354534
0.353703
0.352576
0.351031
0.349012
0.346449
0.343239
0.339208
0.334085
0.327478
0.318919
0.30817
0.295485
0.362789
0.363817
0.364563
0.36536
0.36592
0.366143
0.366075
0.36584
0.365321
0.364435
0.363052
0.360993
0.35798
0.353588
0.347191
0.337994
0.32561
0.310009
0.372191
0.373334
0.374327
0.375516
0.376615
0.377511
0.378231
0.378924
0.379497
0.379844
0.379796
0.379108
0.377399
0.374064
0.36814
0.358358
0.344324
0.325368
0.381254
0.382507
0.383735
0.385294
0.386911
0.388471
0.389974
0.39159
0.393267
0.394887
0.396262
0.397108
0.396964
0.395051
0.389964
0.379656
0.363195
0.336805
0.389887
0.391258
0.392691
0.394587
0.396677
0.398862
0.401105
0.403588
0.406317
0.409168
0.411954
0.414386
0.415965
0.415802
0.412252
0.401891
0.382545
0.334205
0.398
0.399526
0.401112
0.403297
0.405795
0.408538
0.41144
0.414684
0.41834
0.422284
0.42634
0.430227
0.433446
0.435068
0.433723
0.425252
0.41067
0.343194
0.405043
0.406463
0.40808
0.410474
0.413259
0.416416
0.419804
0.423595
0.427915
0.432636
0.437588
0.44249
0.446839
0.449728
0.450084
0.44446
0.438399
0.389817
0.410942
0.412106
0.413764
0.416289
0.419265
0.422712
0.42644
0.430596
0.435348
0.440562
0.446066
0.451569
0.456542
0.460219
0.461679
0.460093
0.452082
0.395389
0.416205
0.417286
0.419039
0.421657
0.424773
0.428438
0.432419
0.436826
0.441856
0.447371
0.453181
0.458974
0.464208
0.468294
0.470906
0.4744
0.462698
0.401315
0.460769
0.463264
0.463289
0.462494
0.461606
0.46095
0.4607
0.460938
0.461712
0.463046
0.464961
0.467435
0.470439
0.473938
0.477869
0.482065
0.486192
0.489904
0.492968
0.494562
0.494496
0.494327
0.468421
0.466028
0.464336
0.462823
0.4616
0.460741
0.460333
0.46044
0.461094
0.462316
0.464089
0.466405
0.469231
0.472523
0.476214
0.480174
0.484187
0.488008
0.491324
0.49352
0.494256
0.49426
0.47186
0.467934
0.465083
0.462962
0.461405
0.46034
0.459793
0.459787
0.460339
0.461455
0.46312
0.46531
0.467986
0.471092
0.474548
0.478239
0.482014
0.485704
0.489099
0.491905
0.49363
0.493915
0.472546
0.468397
0.465098
0.46261
0.460809
0.459571
0.458889
0.45877
0.459213
0.460213
0.461754
0.463803
0.466316
0.469232
0.472466
0.475917
0.479461
0.482957
0.486283
0.489379
0.491824
0.492675
0.471707
0.467753
0.464412
0.461803
0.459871
0.458527
0.457746
0.457532
0.457874
0.458762
0.460175
0.462077
0.464419
0.467136
0.470147
0.473356
0.476657
0.479933
0.483107
0.486196
0.488891
0.490134
0.470028
0.466387
0.46318
0.460596
0.458633
0.457237
0.456393
0.456103
0.456355
0.457137
0.458424
0.46018
0.462352
0.464877
0.467672
0.470648
0.473707
0.476745
0.479703
0.482615
0.485251
0.486585
0.467874
0.46456
0.461557
0.459077
0.457154
0.455752
0.454875
0.45453
0.454706
0.45539
0.456557
0.45817
0.460179
0.462517
0.465108
0.467862
0.470685
0.473479
0.476181
0.478811
0.4812
0.482469
0.46545
0.462444
0.459668
0.457338
0.455496
0.45412
0.453236
0.452854
0.452967
0.453562
0.454617
0.456095
0.457947
0.460109
0.462504
0.465047
0.467643
0.470195
0.472631
0.474942
0.477006
0.478127
0.462889
0.460163
0.457619
0.455459
0.453715
0.452389
0.451516
0.451112
0.451174
0.451691
0.452643
0.453994
0.455697
0.457691
0.459902
0.462244
0.464623
0.466943
0.469118
0.471118
0.472848
0.473789
0.460291
0.457817
0.455496
0.453506
0.451866
0.450602
0.449753
0.449338
0.449359
0.449807
0.450664
0.451897
0.453462
0.455299
0.457336
0.459488
0.461664
0.463764
0.465698
0.467413
0.468838
0.469601
0.457737
0.455484
0.453367
0.451532
0.449994