/*--------------------------------*- C++ -*----------------------------------*\
| =========                 |                                                 |
| \\      /  F ield         | OpenFOAM: The Open Source CFD Toolbox           |
|  \\    /   O peration     | Version:  v2012                                 |
|   \\  /    A nd           | Website:  www.openfoam.com                      |
|    \\/     M anipulation  |                                                 |
\*---------------------------------------------------------------------------*/
FoamFile
{
    version     2.0;
    format      ascii;
    class       surfaceScalarField;
    location    "614";
    object      phi;
}
// * * * * * * * * * * * * * * * * * * * * * * * * * * * * * * * * * * * * * //

dimensions      [0 3 -1 0 0 0 0];
oriented        oriented;


internalField   nonuniform List<scalar> 
11863
(
-0.000199062
-6.09523e-08
0.000199123
-0.000199029
-3.30861e-08
-0.000199019
-1.04252e-08
-0.000199026
7.5353e-09
-0.000199047
2.12068e-08
-0.000199079
3.18027e-08
-0.000199119
3.9864e-08
-0.000199165
4.60569e-08
-0.000199216
5.10076e-08
-0.000199271
5.52147e-08
-0.00019933
5.9082e-08
-0.000199393
6.29323e-08
-0.00019946
6.70119e-08
-0.000199532
7.14575e-08
-0.000199608
7.62227e-08
-0.000199689
8.09533e-08
-0.000199774
8.48115e-08
-0.000199862
8.78009e-08
-0.000199947
8.52796e-08
5.30953e-08
-0.00020023
-1.62504e-07
0.000200332
-0.000200155
-1.08216e-07
-0.000200101
-6.42164e-08
-0.000200064
-2.98692e-08
-0.000200039
-3.99094e-09
-0.000200022
1.52727e-08
-0.000200012
2.94877e-08
-0.000200006
4.00525e-08
-0.000200003
4.81265e-08
-0.000200002
5.4597e-08
-0.000200003
6.01671e-08
-0.000200006
6.53619e-08
-0.000200009
7.05452e-08
-0.000200014
7.58727e-08
-0.000200019
8.11481e-08
-0.000200023
8.56361e-08
-0.000200027
8.85146e-08
-0.000200027
8.81346e-08
-0.000200017
7.51675e-08
3.59544e-08
-0.000200531
-2.73955e-07
0.000200643
-0.000200448
-1.91817e-07
-0.000200385
-1.2681e-07
-0.000200338
-7.70298e-08
-0.000200302
-4.02613e-08
-0.000200273
-1.35737e-08
-0.000200249
5.58468e-09
-0.000200228
1.93881e-08
-0.00020021
2.95022e-08
-0.000200192
3.71486e-08
-0.000200175
4.32783e-08
-0.000200159
4.85575e-08
-0.000200141
5.34309e-08
-0.000200124
5.81316e-08
-0.000200105
6.24953e-08
-0.000200085
6.54241e-08
-0.000200063
6.66425e-08
-0.000200039
6.38556e-08
-0.000200014
5.07969e-08
2.16542e-08
-0.000200632
-3.86892e-07
0.000200745
-0.000200549
-2.74414e-07
-0.000200487
-1.88478e-07
-0.00020044
-1.24226e-07
-0.000200402
-7.8014e-08
-0.000200371
-4.53239e-08
-0.000200343
-2.25207e-08
-0.000200317
-6.6199e-09
-0.000200292
4.54412e-09
-0.000200267
1.24815e-08
-0.000200242
1.83355e-08
-0.000200216
2.28835e-08
-0.00020019
2.66445e-08
-0.000200161
2.99021e-08
-0.000200131
3.26062e-08
-0.0002001
3.43103e-08
-0.000200069
3.47915e-08
-0.000200037
3.25945e-08
-0.000200011
2.50383e-08
1.01599e-08
-0.000200634
-4.95313e-07
0.000200742
-0.00020056
-3.48527e-07
-0.000200506
-2.42289e-07
-0.000200465
-1.65137e-07
-0.000200431
-1.11545e-07
-0.000200402
-7.47826e-08
-0.000200374
-4.99032e-08
-0.000200348
-3.3156e-08
-0.000200321
-2.19482e-08
-0.000200294
-1.4501e-08
-0.000200266
-9.56908e-09
-0.000200237
-6.30823e-09
-0.000200207
-4.14396e-09
-0.000200174
-2.71274e-09
-0.00020014
-1.77823e-09
-0.000200104
-1.15809e-09
-0.000200069
-7.30429e-10
-0.000200035
-4.34734e-10
-0.00020001
-2.2652e-10
-7.49026e-11
-0.000200561
-5.94457e-07
0.00020066
-0.000200504
-4.05704e-07
-0.000200465
-2.81309e-07
-0.000200436
-1.94013e-07
-0.000200412
-1.36137e-07
-0.000200388
-9.78737e-08
-0.000200365
-7.2885e-08
-0.000200342
-5.67081e-08
-0.000200317
-4.64259e-08
-0.000200292
-4.01437e-08
-0.000200265
-3.65776e-08
-0.000200236
-3.49061e-08
-0.000200206
-3.45397e-08
-0.000200173
-3.50634e-08
-0.000200139
-3.5991e-08
-0.000200104
-3.65201e-08
-0.000200068
-3.61818e-08
-0.000200035
-3.34171e-08
-0.00020001
-2.54566e-08
-1.02971e-08
-0.00020041
-6.83722e-07
0.000200499
-0.000200382
-4.33431e-07
-0.000200366
-2.97234e-07
-0.000200356
-2.04629e-07
-0.000200345
-1.47136e-07
-0.000200332
-1.10801e-07
-0.000200317
-8.80526e-08
-0.000200299
-7.39605e-08
-0.00020028
-6.55141e-08
-0.000200259
-6.09576e-08
-0.000200237
-5.89265e-08
-0.000200213
-5.88493e-08
-0.000200188
-6.0182e-08
-0.00020016
-6.25281e-08
-0.000200131
-6.5381e-08
-0.0002001
-6.73241e-08
-0.000200068
-6.78332e-08
-0.000200037
-6.45547e-08
-0.000200011
-5.11137e-08
-2.17557e-08
-0.000200142
-7.65323e-07
0.000200224
-0.000200168
-4.08086e-07
-0.000200186
-2.78541e-07
-0.000200202
-1.89091e-07
-0.00020021
-1.39144e-07
-0.000200211
-1.09163e-07
-0.000200208
-9.12846e-08
-0.000200201
-8.07607e-08
-0.000200192
-7.49681e-08
-0.000200181
-7.23988e-08
-0.000200168
-7.17734e-08
-0.000200154
-7.29221e-08
-0.000200138
-7.54873e-08
-0.000200122
-7.90997e-08
-0.000200104
-8.32776e-08
-0.000200084
-8.70289e-08
-0.000200063
-8.93848e-08
-0.000200038
-8.8687e-08
-0.000200014
-7.53299e-08
-3.60013e-08
-0.000199634
-7.74018e-07
0.000199642
-0.000199751
-2.90483e-07
-0.000199828
-2.02122e-07
-0.000199882
-1.3474e-07
-0.000199918
-1.03299e-07
-0.000199942
-8.48249e-08
-0.000199959
-7.44574e-08
-0.000199971
-6.87206e-08
-0.00019998
-6.59078e-08
-0.000199987
-6.50436e-08
-0.000199994
-6.54544e-08
-0.0002
-6.70735e-08
-0.000200005
-6.97137e-08
-0.000200011
-7.32204e-08
-0.000200017
-7.73823e-08
-0.000200022
-8.17048e-08
-0.000200027
-8.52894e-08
-0.000200027
-8.81216e-08
-0.000200017
-8.53136e-08
-5.31066e-08
-0.000198164
0.00019739
-0.000198455
-0.000198657
-0.000198791
-0.000198895
-0.000198979
-0.000199054
-0.000199123
-0.000199189
-0.000199254
-0.000199319
-0.000199386
-0.000199456
-0.000199529
-0.000199606
-0.000199688
-0.000199773
-0.000199862
-0.000199947
-0.000173312
5.78697e-06
0.000167525
-0.000178391
5.07891e-06
-0.000182802
4.41096e-06
-0.000186589
3.78671e-06
-0.000189796
3.2069e-06
-0.000192467
2.67128e-06
-0.000194649
2.18134e-06
-0.000196387
1.73828e-06
-0.00019773
1.34272e-06
-0.000198724
9.94785e-07
-0.000199419
6.94541e-07
-0.000199861
4.4216e-07
-0.000200098
2.36881e-07
-0.000200174
7.65516e-08
-0.000200133
-4.14194e-08
-0.000200013
-1.20324e-07
-0.000199847
-1.65795e-07
-0.000199665
-1.81567e-07
-0.000199491
-1.7483e-07
-0.000199338
-1.52869e-07
-0.000199215
-1.23176e-07
-9.13877e-08
-0.000177822
1.11893e-05
0.000172419
-0.000182562
9.81863e-06
-0.00018667
8.51915e-06
-0.00019018
7.29673e-06
-0.000193129
6.15657e-06
-0.000195561
5.10322e-06
-0.00019752
4.14024e-06
-0.000199052
3.27016e-06
-0.000200204
2.49436e-06
-0.000201022
1.81327e-06
-0.000201555
1.22703e-06
-0.000201849
7.36222e-07
-0.000201952
3.39774e-07
-0.000201908
3.30589e-08
-0.000201761
-1.88244e-07
-0.00020155
-3.31575e-07
-0.000201308
-4.07622e-07
-0.000201062
-4.27494e-07
-0.000200833
-4.04686e-07
-0.000200631
-3.53908e-07
-0.000200465
-2.9009e-07
-2.2434e-07
-0.000179397
1.64587e-05
0.000174127
-0.000184018
1.44399e-05
-0.000188019
1.25198e-05
-0.000191432
1.07098e-05
-0.000194295
9.01956e-06
-0.000196648
7.45665e-06
-0.000198535
6.02687e-06
-0.000199999
4.73445e-06
-0.000201087
3.5818e-06
-0.000201843
2.5698e-06
-0.000202315
1.69875e-06
-0.000202549
9.70214e-07
-0.000202594
3.84828e-07
-0.000202495
-6.61732e-08
-0.000202294
-3.89328e-07
-0.000202031
-5.94216e-07
-0.000201742
-6.96132e-07
-0.000201456
-7.13362e-07
-0.000201195
-6.66336e-07
-0.000200971
-5.78075e-07
-0.000200788
-4.73053e-07
-3.6926e-07
-0.000180334
2.16743e-05
0.000175118
-0.000184909
1.90154e-05
-0.00018887
1.64804e-05
-0.000192247
1.40867e-05
-0.000195075
1.18485e-05
-0.000197395
9.77652e-06
-0.000199248
7.87909e-06
-0.000200676
6.16247e-06
-0.000201724
4.63008e-06
-0.000202437
3.28303e-06
-0.000202861
2.12244e-06
-0.000203041
1.15e-06
-0.000203028
3.72631e-07
-0.00020287
-2.24367e-07
-0.00020261
-6.49647e-07
-0.000202291
-9.13255e-07
-0.000201952
-1.03511e-06
-0.000201624
-1.04121e-06
-0.000201331
-9.59562e-07
-0.000201087
-8.22166e-07
-0.000200894
-6.65845e-07
-5.18499e-07
-0.000181003
2.68657e-05
0.000175812
-0.000185558
2.35707e-05
-0.000189501
2.04231e-05
-0.000192862
1.74471e-05
-0.000195675
1.46616e-05
-0.000197978
1.20803e-05
-0.000199813
9.7134e-06
-0.00020122
7.56943e-06
-0.000202243
5.65299e-06
-0.000202925
3.96516e-06
-0.000203312
2.50999e-06
-0.000203446
1.28317e-06
-0.000203375
3.0196e-07
-0.000203157
-4.42672e-07
-0.000202832
-9.73757e-07
-0.00020245
-1.2958e-06
-0.000202053
-1.43166e-06
-0.000201678
-1.41683e-06
-0.000201349
-1.28779e-06
-0.000201086
-1.08564e-06
-0.000200889
-8.63068e-07
-6.65241e-07
-0.000181323
3.20273e-05
0.000176161
-0.000185851
2.80989e-05
-0.000189771
2.43432e-05
-0.000193115
2.07912e-05
-0.000195919
1.74654e-05
-0.00019822
1.4381e-05
-0.000200055
1.15485e-05
-0.000201463
8.97721e-06
-0.000202486
6.67631e-06
-0.000203169
4.64796e-06
-0.000203549
2.89041e-06
-0.000203677
1.41061e-06
-0.000203578
2.02856e-07
-0.000203309
-7.11078e-07
-0.000202935
-1.34843e-06
-0.000202496
-1.7342e-06
-0.000202046
-1.88166e-06
-0.000201625
-1.83829e-06
-0.000201263
-1.64986e-06
-0.000200984
-1.36473e-06
-0.000200794
-1.05309e-06
-7.98434e-07
-0.000180952
3.70961e-05
0.000175883
-0.000185392
3.2539e-05
-0.000189236
2.81876e-05
-0.000192524
2.40787e-05
-0.000195296
2.02374e-05
-0.000197593
1.66782e-05
-0.000199453
1.34087e-05
-0.000200907
1.0431e-05
-0.000201978
7.74719e-06
-0.000202716
5.38637e-06
-0.000203172
3.34667e-06
-0.000203367
1.60517e-06
-0.000203331
1.67513e-07
-0.0002031
-9.42496e-07
-0.000202728
-1.7208e-06
-0.000202291
-2.17108e-06
-0.000201833
-2.33919e-06
-0.000201397
-2.27462e-06
-0.000201023
-2.024e-06
-0.000200748
-1.63912e-06
-0.000200597
-1.20414e-06
-8.96524e-07
-0.000179213
4.18921e-05
0.000174417
-0.000183382
3.67084e-05
-0.000186975
3.17808e-05
-0.000190049
2.71524e-05
-0.00019266
2.28487e-05
-0.000194863
1.88805e-05
-0.000196701
1.52472e-05
-0.000198211
1.19413e-05
-0.000199427
8.96259e-06
-0.000200369
6.32821e-06
-0.000201045
4.02295e-06
-0.000201474
2.03399e-06
-0.000201681
3.74715e-07
-0.000201688
-9.3581e-07
-0.000201542
-1.86648e-06
-0.000201318
-2.39468e-06
-0.000201036
-2.6213e-06
-0.000200726
-2.58485e-06
-0.000200449
-2.30103e-06
-0.000200265
-1.82328e-06
-0.000200223
-1.24572e-06
-8.95815e-07
-0.000174938
4.60087e-05
0.000170821
-0.000178401
4.01721e-05
-0.000181294
3.46732e-05
-0.000183704
2.95626e-05
-0.000185721
2.48661e-05
-0.00018743
2.05896e-05
-0.000188907
1.6724e-05
-0.000190218
1.32519e-05
-0.000191415
1.01601e-05
-0.000192525
7.43776e-06
-0.000193559
5.05695e-06
-0.000194519
2.9936e-06
-0.000195387
1.24329e-06
-0.000196147
-1.76373e-07
-0.000196805
-1.20807e-06
-0.000197395
-1.80454e-06
-0.000197894
-2.12273e-06
-0.000198281
-2.19779e-06
-0.00019862
-1.96141e-06
-0.000198891
-1.55234e-06
-0.000199094
-1.04331e-06
-3.47256e-07
-0.000166518
0.000163797
4.8729e-05
-0.000168486
4.214e-05
-0.000169814
3.6002e-05
-0.000170622
3.037e-05
-0.000171023
2.52668e-05
-0.000171125
2.06923e-05
-0.000171033
1.66317e-05
-0.000170847
1.30656e-05
-0.000170668
9.98141e-06
-0.000170602
7.37201e-06
-0.000170786
5.24017e-06
-0.000171321
3.52949e-06
-0.000172265
2.18644e-06
-0.000173678
1.23706e-06
-0.000175591
7.04735e-07
-0.00017796
5.64647e-07
-0.000180712
6.29572e-07
-0.000183722
8.12134e-07
-0.000186904
1.2202e-06
-0.000189941
1.48465e-06
-0.000192351
1.3669e-06
4.69166e-06
7.27269e-06
-7.27271e-06
8.81239e-06
-1.53972e-06
5.71608e-06
3.0963e-06
-7.5418e-07
6.47025e-06
-1.17082e-05
1.0954e-05
-2.73442e-05
1.5636e-05
-4.49194e-05
1.75752e-05
-6.17994e-05
1.688e-05
-7.71882e-05
1.53887e-05
-9.12487e-05
1.40605e-05
-0.000104125
1.28765e-05
-0.000115923
1.17974e-05
-0.000126721
1.07989e-05
-0.000136584
9.86212e-06
-0.000145557
8.97362e-06
-0.000153682
8.12491e-06
-0.000160994
7.31147e-06
6.5319e-06
4.02524e-06
-1.1298e-05
1.58857e-06
8.96936e-07
-5.63936e-06
1.03242e-05
-1.81227e-05
1.89536e-05
-3.39477e-05
2.67791e-05
-4.97647e-05
3.14529e-05
-6.41736e-05
3.19842e-05
-7.76435e-05
3.03499e-05
-9.05873e-05
2.83324e-05
-0.000102803
2.62762e-05
-0.000114217
2.42907e-05
-0.000124829
2.24095e-05
-0.000134652
2.06212e-05
-0.000143699
1.89091e-05
-0.000151984
1.7259e-05
-0.000159522
1.56625e-05
-0.000166327
1.4117e-05
1.26243e-05
-1.48162e-06
-9.81635e-06
-8.28042e-06
7.69573e-06
-1.93195e-05
2.13633e-05
-3.33827e-05
3.30167e-05
-4.77534e-05
4.11498e-05
-6.08098e-05
4.45093e-05
-7.29658e-05
4.41401e-05
-8.48592e-05
4.22434e-05
-9.64516e-05
3.99249e-05
-0.000107593
3.74181e-05
-0.000118196
3.48933e-05
-0.000128196
3.24095e-05
-0.000137554
2.99789e-05
-0.000146244
2.75989e-05
-0.00015425
2.52653e-05
-0.000161565
2.29775e-05
-0.000168188
2.07404e-05
1.85634e-05
-6.9476e-06
-2.86876e-06
-1.7095e-05
1.78431e-05
-2.98024e-05
3.40707e-05
-4.3254e-05
4.64683e-05
-5.56836e-05
5.35795e-05
-6.70117e-05
5.58374e-05
-7.80264e-05
5.51548e-05
-8.90103e-05
5.32273e-05
-9.9817e-05
5.07315e-05
-0.000110329
4.79296e-05
-0.000120443
4.50075e-05
-0.000130074
4.20406e-05
-0.000139157
3.90623e-05
-0.000147645
3.60865e-05
-0.000155502
3.31224e-05
-0.000162706
3.01815e-05
-0.000169245
2.72795e-05
2.44364e-05
-1.10111e-05
8.14229e-06
-2.33791e-05
3.02112e-05
-3.65133e-05
4.72049e-05
-4.89719e-05
5.89269e-05
-6.01764e-05
6.47841e-05
-7.07104e-05
6.63714e-05
-8.11685e-05
6.56128e-05
-9.16223e-05
6.36811e-05
-0.000101959
6.10679e-05
-0.00011208
5.80509e-05
-0.000121883
5.48104e-05
-0.000131277
5.14349e-05
-0.000140188
4.79726e-05
-0.000148553
4.44517e-05
-0.000156325
4.08949e-05
-0.000163471
3.73272e-05
-0.000169969
3.37776e-05
3.0279e-05
-1.36248e-05
2.17671e-05
-2.7281e-05
4.38673e-05
-4.02983e-05
6.02221e-05
-5.20026e-05
7.06312e-05
-6.26291e-05
7.54106e-05
-7.28598e-05
7.66021e-05
-8.30492e-05
7.58023e-05
-9.32064e-05
7.38383e-05
-0.000103263
7.11243e-05
-0.000113139
6.79272e-05
-0.000122742
6.44136e-05
-0.000131984
6.06763e-05
-0.000140783
5.67716e-05
-0.000149069
5.27381e-05
-0.000156785
4.86112e-05
-0.000163888
4.44303e-05
-0.000170351
4.02402e-05
3.60895e-05
-1.51654e-05
3.69325e-05
-2.932e-05
5.80219e-05
-4.20609e-05
7.2963e-05
-5.33546e-05
8.19249e-05
-6.37894e-05
8.58454e-05
-7.39329e-05
8.67455e-05
-8.39961e-05
8.58655e-05
-9.39905e-05
8.38326e-05
-0.000103879
8.10129e-05
-0.000113599
7.76469e-05
-0.000123068
7.38827e-05
-0.0001322
6.98085e-05
-0.00014091
6.54813e-05
-0.000149119
6.09469e-05
-0.00015676
5.6253e-05
-0.000163785
5.14553e-05
-0.000170163
4.66179e-05
4.18091e-05
-1.60145e-05
5.2947e-05
-3.00852e-05
7.20927e-05
-4.25329e-05
8.54107e-05
-5.36461e-05
9.30381e-05
-6.40603e-05
9.62595e-05
-7.41938e-05
9.6879e-05
-8.41949e-05
9.58666e-05
-9.40927e-05
9.37305e-05
-0.00010387
9.07899e-05
-0.000113474
8.72514e-05
-0.000122831
8.32391e-05
-0.00013185
7.88279e-05
-0.000140439
7.40705e-05
-0.000148509
6.9017e-05
-0.000155985
6.37284e-05
-0.00016281
5.82808e-05
-0.000168956
5.27633e-05
4.72701e-05
-1.61254e-05
6.90723e-05
-2.99854e-05
8.59527e-05
-4.22001e-05
9.76254e-05
-5.32354e-05
0.000104073
-6.36701e-05
0.000106694
-7.38029e-05
0.000107012
-8.37573e-05
0.000105821
-9.35767e-05
0.00010355
-0.000103253
0.000100466
-0.000112737
9.67358e-05
-0.000121951
9.24527e-05
-0.000130794
8.76708e-05
-0.000139156
8.24331e-05
-0.000146932
7.6793e-05
-0.000154032
7.08279e-05
-0.000160392
6.46414e-05
-0.000165986
5.83569e-05
5.2105e-05
-1.57148e-05
8.47871e-05
-2.93204e-05
9.95583e-05
-4.13545e-05
0.000109659
-5.23334e-05
0.000115052
-6.27617e-05
0.000117122
-7.28652e-05
0.000117115
-8.27534e-05
0.000115709
-9.24738e-05
0.00011327
-0.000102018
0.00011001
-0.000111328
0.000106046
-0.000120308
0.000101433
-0.000128833
9.61955e-05
-0.000136762
9.03619e-05
-0.000143958
8.39893e-05
-0.000150309
7.71783e-05
-0.00015574
7.00725e-05
-0.000160227
6.28446e-05
5.56751e-05
-0.00016187
4.92113e-05
0.000161388
-0.000161407
4.16762e-05
-0.000160143
3.47383e-05
-0.000158208
2.84351e-05
-0.000155703
2.27619e-05
-0.000152697
1.76867e-05
-0.00014923
1.31641e-05
-0.000145309
9.1444e-06
-0.00014091
5.58317e-06
-0.000135991
2.45233e-06
-0.000130501
-2.49434e-07
-0.000124387
-2.58422e-06
-0.000117587
-4.61435e-06
-0.000110087
-6.26251e-06
-0.000101872
-7.51065e-06
-9.27953e-05
-8.51162e-06
-8.26909e-05
-9.47492e-06
-7.15407e-05
-1.0338e-05
-5.97841e-05
-1.05364e-05
-4.75976e-05
-1.07018e-05
-3.15379e-05
-1.46928e-05
-2.68463e-05
-0.00014111
4.69082e-05
0.000143413
-0.000137914
3.84803e-05
-0.000134028
3.08526e-05
-0.000129615
2.40222e-05
-0.000124793
1.79401e-05
-0.000119641
1.25343e-05
-0.000114206
7.72945e-06
-0.000108518
3.45631e-06
-0.000102588
-3.46509e-07
-9.64214e-05
-3.71475e-06
-8.99936e-05
-6.67719e-06
-8.31889e-05
-9.38901e-06
-7.59578e-05
-1.18454e-05
-6.82223e-05
-1.39981e-05
-5.97205e-05
-1.60124e-05
-5.02549e-05
-1.79773e-05
-3.9906e-05
-1.98238e-05
-2.89886e-05
-2.12554e-05
-1.75949e-05
-2.19301e-05
-5.96878e-06
-2.2328e-05
2.91964e-06
-2.35812e-05
-2.39266e-05
-0.000118349
4.25652e-05
0.000122692
-0.000113552
3.36833e-05
-0.000108575
2.58751e-05
-0.000103623
1.90702e-05
-9.88365e-05
1.31535e-05
-9.42941e-05
7.99188e-06
-9.00138e-05
3.44921e-06
-8.59486e-05
-6.0896e-07
-8.197e-05
-4.32505e-06
-7.78736e-05
-7.81116e-06
-7.34175e-05
-1.11333e-05
-6.85249e-05
-1.42817e-05
-6.31296e-05
-1.72407e-05
-5.70913e-05
-2.00363e-05
-5.04043e-05
-2.26994e-05
-4.31562e-05
-2.52253e-05
-3.54294e-05
-2.75506e-05
-2.72295e-05
-2.94553e-05
-1.84185e-05
-3.07412e-05
-9.38713e-06
-3.13593e-05
-2.13187e-06
-3.08365e-05
-2.60585e-05
-9.77691e-05
3.77886e-05
0.000102546
-9.33099e-05
2.9224e-05
-8.94209e-05
2.19862e-05
-8.62036e-05
1.58529e-05
-8.36082e-05
1.05581e-05
-8.14573e-05
5.84093e-06
-7.94934e-05
1.48537e-06
-7.74444e-05
-2.65799e-06
-7.50956e-05
-6.67387e-06
-7.23139e-05
-1.05928e-05
-6.90258e-05
-1.44214e-05
-6.5171e-05
-1.81364e-05
-6.0677e-05
-2.17347e-05
-5.55104e-05
-2.52029e-05
-4.96872e-05
-2.85226e-05
-4.32446e-05
-3.16679e-05
-3.62153e-05
-3.45799e-05
-2.8653e-05
-3.70176e-05
-2.06393e-05
-3.87549e-05
-1.25388e-05
-3.94598e-05
-5.26009e-06
-3.81152e-05
-3.13186e-05
-8.24e-05
3.4264e-05
8.59246e-05
-7.984e-05
2.66641e-05
-7.81968e-05
2.03429e-05
-7.72171e-05
1.48732e-05
-7.65538e-05
9.89491e-06
-7.58806e-05
5.16774e-06
-7.49585e-05
5.63246e-07
-7.36436e-05
-3.97292e-06
-7.18574e-05
-8.46012e-06
-6.95465e-05
-1.29036e-05
-6.66708e-05
-1.72972e-05
-6.31873e-05
-2.16199e-05
-5.90663e-05
-2.58557e-05
-5.42913e-05
-2.99779e-05
-4.88687e-05
-3.39452e-05
-4.2839e-05
-3.76976e-05
-3.62844e-05
-4.11345e-05
-2.92567e-05
-4.40454e-05
-2.18377e-05
-4.61738e-05
-1.42285e-05
-4.7069e-05
-6.81861e-06
-4.55251e-05
-3.81372e-05
-7.25981e-05
3.27618e-05
7.41004e-05
-7.20781e-05
2.61441e-05
-7.21426e-05
2.04073e-05
-7.23775e-05
1.51081e-05
-7.24755e-05
9.99297e-06
-7.22565e-05
4.94868e-06
-7.16274e-05
-6.58245e-08
-7.05365e-05
-5.06378e-06
-6.89483e-05
-1.00484e-05
-6.68327e-05
-1.50192e-05
-6.41638e-05
-1.99661e-05
-6.09144e-05
-2.48693e-05
-5.7065e-05
-2.9705e-05
-5.26047e-05
-3.44383e-05
-4.75382e-05
-3.90117e-05
-4.19021e-05
-4.33337e-05
-3.57742e-05
-4.72624e-05
-2.9201e-05
-5.06186e-05
-2.22416e-05
-5.31333e-05
-1.49815e-05
-5.43291e-05
-7.54761e-06
-5.29589e-05
-4.56848e-05
-6.6595e-05
3.29399e-05
6.64169e-05
-6.7303e-05
2.68521e-05
-6.81023e-05
2.12066e-05
-6.87112e-05
1.5717e-05
-6.89891e-05
1.02709e-05
-6.88727e-05
4.83226e-06
-6.83279e-05
-6.10572e-07
-6.7328e-05
-6.06371e-06
-6.5849e-05
-1.15274e-05
-6.38691e-05
-1.6999e-05
-6.13678e-05
-2.24674e-05
-5.83251e-05
-2.79121e-05
-5.47261e-05
-3.3304e-05
-5.05639e-05
-3.86005e-05
-4.58409e-05
-4.37347e-05
-4.05771e-05
-4.85975e-05
-3.4828e-05
-5.30116e-05
-2.86402e-05
-5.68064e-05
-2.20548e-05
-5.97187e-05
-1.51036e-05
-6.12803e-05
-7.77806e-06
-6.02844e-05
-5.34629e-05
-6.24027e-05
3.40364e-05
6.13061e-05
-6.35779e-05
2.80273e-05
-6.45551e-05
2.21838e-05
-6.52116e-05
1.63735e-05
-6.54998e-05
1.05591e-05
-6.53964e-05
4.7288e-06
-6.48829e-05
-1.124e-06
-6.39413e-05
-7.00531e-06
-6.25529e-05
-1.29159e-05
-6.06988e-05
-1.88531e-05
-5.836e-05
-2.48062e-05
-5.55183e-05
-3.07538e-05
-5.216e-05
-3.66622e-05
-4.82785e-05
-4.2482e-05
-4.38745e-05
-4.81387e-05
-3.89575e-05
-5.35144e-05
-3.35597e-05
-5.84093e-05
-2.77212e-05
-6.26449e-05
-2.14703e-05
-6.59695e-05
-1.48198e-05
-6.79308e-05
-7.70902e-06
-6.73952e-05
-6.11719e-05
-5.88412e-05
3.5464e-05
5.74136e-05
-6.00944e-05
2.92805e-05
-6.10479e-05
2.31374e-05
-6.16604e-05
1.6986e-05
-6.19157e-05
1.08143e-05
-6.18021e-05
4.61525e-06
-6.13077e-05
-1.61842e-06
-6.04187e-05
-7.89427e-06
-5.91192e-05
-1.42154e-05
-5.73911e-05
-2.05812e-05
-5.52149e-05
-2.69824e-05
-5.25714e-05
-3.33973e-05
-4.94454e-05
-3.97882e-05
-4.58289e-05
-4.60985e-05
-4.17216e-05
-5.22461e-05
-3.71293e-05
-5.81067e-05
-3.20617e-05
-6.34769e-05
-2.65524e-05
-6.81543e-05
-2.06219e-05
-7.19e-05
-1.42804e-05
-7.42723e-05
-7.46026e-06
-7.42154e-05
-6.86321e-05
-5.54366e-05
3.6923e-05
5.39776e-05
-5.66249e-05
3.04688e-05
-5.74977e-05
2.40101e-05
-5.80427e-05
1.7531e-05
-5.82538e-05
1.10255e-05
-5.8125e-05
4.48639e-06
-5.7648e-05
-2.09537e-06
-5.68121e-05
-8.73018e-06
-5.56026e-05
-1.54249e-05
-5.40016e-05
-2.21823e-05
-5.19882e-05
-2.89958e-05
-4.95412e-05
-3.58443e-05
-4.6642e-05
-4.26875e-05
-4.32788e-05
-4.94617e-05
-3.94498e-05
-5.6075e-05
-3.51605e-05
-6.23961e-05
-3.04082e-05
-6.82292e-05
-2.52156e-05
-7.33468e-05
-1.96025e-05
-7.75131e-05
-1.35843e-05
-8.02905e-05
-7.10544e-06
-8.06942e-05
-7.57376e-05
-5.20554e-05
3.82956e-05
5.06828e-05
-5.31369e-05
3.15504e-05
-5.39148e-05
2.4788e-05
-5.43869e-05
1.80031e-05
-5.4552e-05
1.11906e-05
-5.44077e-05
4.34207e-06
-5.39489e-05
-2.5542e-06
-5.31667e-05
-9.51242e-06
-5.20474e-05
-1.65442e-05
-5.05729e-05
-2.36568e-05
-4.87213e-05
-3.08474e-05
-4.64688e-05
-3.80968e-05
-4.3793e-05
-4.53633e-05
-4.06771e-05
-5.25776e-05
-3.71143e-05
-5.96378e-05
-3.31081e-05
-6.64023e-05
-2.86576e-05
-7.26796e-05
-2.37725e-05
-7.8232e-05
-1.8479e-05
-8.28067e-05
-1.27977e-05
-8.59717e-05
-6.69088e-06
-8.68011e-05
-8.24285e-05
-4.86826e-05
3.95443e-05
4.74339e-05
-4.96479e-05
3.25156e-05
-5.03291e-05
2.54691e-05
-5.07285e-05
1.84026e-05
-5.08486e-05
1.13106e-05
-5.06898e-05
4.18328e-06
-5.02494e-05
-2.99458e-06
-4.95203e-05
-1.02416e-05
-4.84896e-05
-1.75748e-05
-4.71393e-05
-2.50071e-05
-4.54464e-05
-3.25404e-05
-4.33846e-05
-4.01585e-05
-4.09281e-05
-4.78197e-05
-3.80552e-05
-5.54505e-05
-3.47527e-05
-6.29403e-05
-3.10184e-05
-7.01366e-05
-2.68561e-05
-7.6842e-05
-2.2273e-05
-8.28151e-05
-1.73011e-05
-8.77785e-05
-1.19651e-05
-9.13077e-05
-6.24604e-06
-9.25201e-05
-8.86745e-05
-4.53355e-05
4.06611e-05
4.42187e-05
-4.61849e-05
3.3365e-05
-4.67714e-05
2.60557e-05
-4.71006e-05
1.87318e-05
-4.71775e-05
1.13876e-05
-4.70052e-05
4.01093e-06
-4.65829e-05
-3.4169e-06
-4.5905e-05
-1.09195e-05
-4.49599e-05
-1.85199e-05
-4.37297e-05
-2.62373e-05
-4.21904e-05
-3.40797e-05
-4.03138e-05
-4.20351e-05
-3.80704e-05
-5.00631e-05
-3.54343e-05
-5.80867e-05
-3.23871e-05
-6.59875e-05
-2.89208e-05
-7.36028e-05
-2.50389e-05
-8.07239e-05
-2.07549e-05
-8.7099e-05
-1.61035e-05
-9.24299e-05
-1.11155e-05
-9.62958e-05
-5.78958e-06
-9.7846e-05
-9.44641e-05
-4.20367e-05
4.16476e-05
4.10503e-05
-4.27741e-05
3.41024e-05
-4.32698e-05
2.65514e-05
-4.35319e-05
1.89939e-05
-4.35678e-05
1.14234e-05
-4.33825e-05
3.82558e-06
-4.29771e-05
-3.82234e-06
-4.23476e-05
-1.15489e-05
-4.14838e-05
-1.93837e-05
-4.03682e-05
-2.73529e-05
-3.89763e-05
-3.54715e-05
-3.72779e-05
-4.37336e-05
-3.52402e-05
-5.21008e-05
-3.28334e-05
-6.04935e-05
-3.0035e-05
-6.87858e-05
-2.68334e-05
-7.68044e-05
-2.32296e-05
-8.43277e-05
-1.92418e-05
-9.10868e-05
-1.49079e-05
-9.67638e-05
-1.02671e-05
-0.000100937
-5.33302e-06
-0.00010278
-9.97971e-05
-3.88076e-05
4.25088e-05
3.79464e-05
-3.9438e-05
3.47328e-05
-3.98475e-05
2.69609e-05
-4.00461e-05
1.91925e-05
-4.0043e-05
1.14203e-05
-3.98449e-05
3.62746e-06
-3.94546e-05
-4.21258e-06
-3.887e-05
-1.21335e-05
-3.80823e-05
-2.01714e-05
-3.70749e-05
-2.83602e-05
-3.58231e-05
-3.67233e-05
-3.42951e-05
-4.52617e-05
-3.24549e-05
-5.39409e-05
-3.02692e-05
-6.26793e-05
-2.77126e-05
-7.13425e-05
-2.47707e-05
-7.97462e-05
-2.14427e-05
-8.76558e-05
-1.77477e-05
-9.47818e-05
-1.37279e-05
-0.000100784
-9.43117e-06
-0.000105233
-4.88332e-06
-0.000107328
-0.00010468
-3.56658e-05
4.32508e-05
3.49238e-05
-3.61949e-05
3.52619e-05
-3.65228e-05
2.72888e-05
-3.66613e-05
1.9331e-05
-3.6621e-05
1.138e-05
-3.641e-05
3.4165e-06
-3.60329e-05
-4.5897e-06
-3.54892e-05
-1.26773e-05
-3.47717e-05
-2.08889e-05
-3.38653e-05
-2.92666e-05
-3.27458e-05
-3.78428e-05
-3.13796e-05
-4.66278e-05
-2.97283e-05
-5.55923e-05
-2.77548e-05
-6.46527e-05
-2.54319e-05
-7.36654e-05
-2.2744e-05
-8.24342e-05
-1.96879e-05
-9.07119e-05
-1.62819e-05
-9.81879e-05
-1.25719e-05
-0.000104494
-8.61411e-06
-0.000109191
-4.44444e-06
-0.000111498
-0.000109125
-3.2625e-05
4.38799e-05
3.19959e-05
-3.30583e-05
3.56952e-05
-3.33091e-05
2.75396e-05
-3.33906e-05
1.94125e-05
-3.33146e-05
1.1304e-05
-3.30906e-05
3.19245e-06
-3.27244e-05
-4.95586e-06
-3.22173e-05
-1.31844e-05
-3.1564e-05
-2.15422e-05
-3.07511e-05
-3.00794e-05
-2.97552e-05
-3.88388e-05
-2.8542e-05
-4.78409e-05
-2.70702e-05
-5.70641e-05
-2.52997e-05
-6.64232e-05
-2.32018e-05
-7.57633e-05
-2.07609e-05
-8.4875e-05
-1.79717e-05
-9.3501e-05
-1.48499e-05
-0.00010131
-1.14445e-05
-0.000107899
-7.8193e-06
-0.000112816
-4.01836e-06
-0.000115299
-0.000113143
-2.96948e-05
4.44019e-05
2.91728e-05
-3.00369e-05
3.60373e-05
-3.02145e-05
2.77171e-05
-3.02417e-05
1.94397e-05
-3.01313e-05
1.11937e-05
-2.98939e-05
2.95505e-06
-2.95367e-05
-5.31313e-06
-2.90622e-05
-1.36588e-05
-2.84671e-05
-2.21372e-05
-2.774e-05
-3.08066e-05
-2.68587e-05
-3.97201e-05
-2.5789e-05
-4.89106e-05
-2.4487e-05
-5.83661e-05
-2.29097e-05
-6.80006e-05
-2.10276e-05
-7.76454e-05
-1.88263e-05
-8.70763e-05
-1.6298e-05
-9.60293e-05
-1.34548e-05
-0.000104153
-1.03478e-05
-0.000111006
-7.04797e-06
-0.000116116
-3.60577e-06
-0.000118741
-0.000116749
-2.68796e-05
4.48215e-05
2.646e-05
-2.71346e-05
3.62923e-05
-2.7242e-05
2.78246e-05
-2.72173e-05
1.9415e-05
-2.70738e-05
1.10502e-05
-2.68229e-05
2.70422e-06
-2.64729e-05
-5.66314e-06
-2.60276e-05
-1.41041e-05
-2.54851e-05
-2.26797e-05
-2.4836e-05
-3.14557e-05
-2.406e-05
-4.0496e-05
-2.31236e-05
-4.9847e-05
-2.19816e-05
-5.95081e-05
-2.05877e-05
-6.93944e-05
-1.89122e-05
-7.93209e-05
-1.69424e-05
-8.90461e-05
-1.46685e-05
-9.83032e-05
-1.20974e-05
-0.000106724
-9.28185e-06
-0.000113821
-6.29984e-06
-0.000119098
-3.20646e-06
-0.000121834
-0.000119955
-2.41766e-05
4.51432e-05
2.38549e-05
-2.43484e-05
3.64641e-05
-2.43891e-05
2.78653e-05
-2.43149e-05
1.93408e-05
-2.41399e-05
1.08751e-05
-2.38761e-05
2.44047e-06
-2.35326e-05
-6.00671e-06
-2.31138e-05
-1.45229e-05
-2.26191e-05
-2.31745e-05
-2.20405e-05
-3.20343e-05
-2.13602e-05
-4.11764e-05
-2.05462e-05
-5.0661e-05
-1.95534e-05
-6.05009e-05
-1.83334e-05
-7.06144e-05
-1.68559e-05
-8.07985e-05
-1.51101e-05
-9.07918e-05
-1.30832e-05
-0.00010033
-1.07768e-05
-0.00010903
-8.24542e-06
-0.000116353
-5.57355e-06
-0.00012177
-2.81968e-06
-0.000124588
-0.000122775
-2.15701e-05
4.53785e-05
2.13348e-05
-2.16672e-05
3.65612e-05
-2.16467e-05
2.78449e-05
-2.15271e-05
1.92211e-05
-2.13233e-05
1.06713e-05
-2.10484e-05
2.16556e-06
-2.07117e-05
-6.34338e-06
-2.03183e-05
-1.49163e-05
-1.98677e-05
-2.36251e-05
-1.93531e-05
-3.25488e-05
-1.87589e-05
-4.17707e-05
-1.80551e-05
-5.13648e-05
-1.71987e-05
-6.13573e-05
-1.61433e-05
-7.16697e-05
-1.4858e-05
-8.20838e-05
-1.3329e-05
-9.23208e-05
-1.15411e-05
-0.000102118
-9.49113e-06
-0.00011108
-7.236e-06
-0.000118608
-4.86684e-06
-0.000124139
-2.44432e-06
-0.000127011
-0.000125219
-1.90361e-05
4.55355e-05
1.88791e-05
-1.90701e-05
3.65952e-05
-1.89993e-05
2.77741e-05
-1.88414e-05
1.90633e-05
-1.8614e-05
1.04439e-05
-1.83317e-05
1.88322e-06
-1.80041e-05
-6.6709e-06
-1.76366e-05
-1.52838e-05
-1.72284e-05
-2.40333e-05
-1.67733e-05
-3.3004e-05
-1.62568e-05
-4.22871e-05
-1.56518e-05
-5.19698e-05
-1.49206e-05
-6.20885e-05
-1.40211e-05
-7.25692e-05
-1.29201e-05
-8.31848e-05
-1.15995e-05
-9.36414e-05
-1.00407e-05
-0.000103677
-8.23709e-06
-0.000112884
-6.24987e-06
-0.000120595
-4.17652e-06
-0.000126213
-2.07935e-06
-0.000129108
-0.000127299
-1.65724e-05
4.56111e-05
1.64968e-05
-1.65429e-05
3.65657e-05
-1.64277e-05
2.76589e-05
-1.62419e-05
1.88775e-05
-1.60001e-05
1.02021e-05
-1.57167e-05
1.5998e-06
-1.54026e-05
-6.98494e-06
-1.50635e-05
-1.5623e-05
-1.46982e-05
-2.43986e-05
-1.43004e-05
-3.34017e-05
-1.38578e-05
-4.27297e-05
-1.33467e-05
-5.24809e-05
-1.27348e-05
-6.27004e-05
-1.1982e-05
-7.3322e-05
-1.10495e-05
-8.41174e-05
-9.92181e-06
-9.47691e-05
-8.57775e-06
-0.000105021
-7.00919e-06
-0.000114453
-5.28165e-06
-0.000122323
-3.49819e-06
-0.000127996
-1.72389e-06
-0.000130882
-0.000129023
-1.41992e-05
4.56053e-05
1.4205e-05
-1.41015e-05
3.6468e-05
-1.39357e-05
2.74932e-05
-1.37212e-05
1.8663e-05
-1.34712e-05
9.95209e-06
-1.31953e-05
1.32393e-06
-1.29013e-05
-7.27902e-06
-1.25934e-05
-1.59308e-05
-1.22722e-05
-2.47197e-05
-1.19333e-05
-3.37407e-05
-1.1563e-05
-4.31001e-05
-1.11402e-05
-5.29037e-05
-1.06373e-05
-6.32033e-05
-1.00179e-05
-7.39414e-05
-9.23969e-06
-8.48956e-05
-8.2884e-06
-9.57204e-05
-7.14294e-06
-0.000106166
-5.79868e-06
-0.000115797
-4.32398e-06
-0.000123797
-2.82628e-06
-0.000129494
-1.3736e-06
-0.000132335
-0.000130396
-1.19301e-05
4.55255e-05
1.20099e-05
-1.17708e-05
3.63087e-05
-1.15552e-05
2.72776e-05
-1.13056e-05
1.84133e-05
-1.10401e-05
9.68667e-06
-1.07699e-05
1.05364e-06
-1.04995e-05
-7.54933e-06
-1.023e-05
-1.62004e-05
-9.95846e-06
-2.49913e-05
-9.67648e-06
-3.40226e-05
-9.36844e-06
-4.34081e-05
-9.01764e-06
-5.32545e-05
-8.60503e-06
-6.36159e-05
-8.10179e-06
-7.44446e-05
-7.4673e-06
-8.553e-05
-6.68099e-06
-9.65067e-05
-5.72231e-06
-0.000107125
-4.59424e-06
-0.000116925
-3.36766e-06
-0.000125024
-2.1538e-06
-0.000130708
-1.02504e-06
-0.000133463
-0.000131421
-9.77141e-06
4.53818e-05
9.91511e-06
-9.56236e-06
3.60996e-05
-9.31048e-06
2.70257e-05
-9.03623e-06
1.81391e-05
-8.75815e-06
9.4086e-06
-8.49037e-06
7.85853e-07
-8.2391e-06
-7.80059e-06
-8.00171e-06
-1.64378e-05
-7.76906e-06
-2.52239e-05
-7.52601e-06
-3.42657e-05
-7.25893e-06
-4.36752e-05
-6.95974e-06
-5.35537e-05
-6.61866e-06
-6.3957e-05
-6.21509e-06
-7.48482e-05
-5.71275e-06
-8.60324e-05
-5.08144e-06
-9.7138e-05
-4.30059e-06
-0.000107906