/*--------------------------------*- C++ -*----------------------------------*\
| =========                 |                                                 |
| \\      /  F ield         | OpenFOAM: The Open Source CFD Toolbox           |
|  \\    /   O peration     | Version:  v2012                                 |
|   \\  /    A nd           | Website:  www.openfoam.com                      |
|    \\/     M anipulation  |                                                 |
\*---------------------------------------------------------------------------*/
FoamFile
{
    version     2.0;
    format      ascii;
    class       volVectorField;
    location    "614";
    object      U;
}
// * * * * * * * * * * * * * * * * * * * * * * * * * * * * * * * * * * * * * //

dimensions      [0 1 -1 0 0 0 0];


internalField   nonuniform List<vector> 
6054
(
(-7.367e-05 -0.995431 0)
(1.55039e-06 -0.995202 0)
(6.04727e-05 -0.995099 0)
(0.000105327 -0.995096 0)
(0.000136631 -0.995172 0)
(0.00016319 -0.995307 0)
(0.000185219 -0.995489 0)
(0.000203478 -0.995705 0)
(0.000219312 -0.995948 0)
(0.000233954 -0.996214 0)
(0.000248471 -0.9965 0)
(0.000263729 -0.996805 0)
(0.000280324 -0.99713 0)
(0.000298408 -0.997475 0)
(0.00031747 -0.997844 0)
(0.000336015 -0.998239 0)
(0.000349351 -0.998666 0)
(0.000346125 -0.999112 0)
(0.000280821 -0.999509 0)
(6.93562e-05 -0.99978 0)
(-0.000444246 -1.00137 0)
(-0.000282003 -1.00094 0)
(-0.000148345 -1.00062 0)
(-4.19464e-05 -1.0004 0)
(3.99875e-05 -1.00025 0)
(0.000101645 -1.00014 0)
(0.000147601 -1.00008 0)
(0.000182323 -1.00004 0)
(0.000209485 -1.00002 0)
(0.000232 -1.00001 0)
(0.000252187 -1.00001 0)
(0.000271838 -1.00002 0)
(0.000292211 -1.00004 0)
(0.000313888 -1.00006 0)
(0.000336637 -1.00008 0)
(0.000358815 -1.00011 0)
(0.000374034 -1.00013 0)
(0.000380246 -1.00014 0)
(0.000335612 -1.00012 0)
(0.000180684 -1.00003 0)
(-0.000867112 -1.0029 0)
(-0.000595593 -1.00242 0)
(-0.00037785 -1.00206 0)
(-0.000209453 -1.00179 0)
(-8.36652e-05 -1.00159 0)
(8.80137e-06 -1.00143 0)
(7.61437e-05 -1.0013 0)
(0.000125332 -1.00119 0)
(0.000162073 -1.00109 0)
(0.000190658 -1.001 0)
(0.000214376 -1.00092 0)
(0.000235632 -1.00084 0)
(0.000256108 -1.00075 0)
(0.000276677 -1.00066 0)
(0.000296152 -1.00057 0)
(0.000308754 -1.00048 0)
(0.000315489 -1.00037 0)
(0.000307428 -1.00025 0)
(0.000256012 -1.00012 0)
(0.000124245 -1.00002 0)
(-0.00132204 -1.0034 0)
(-0.000935113 -1.00292 0)
(-0.000632987 -1.00257 0)
(-0.000403911 -1.00231 0)
(-0.000236604 -1.0021 0)
(-0.00011653 -1.00193 0)
(-3.15724e-05 -1.00178 0)
(2.87636e-05 -1.00165 0)
(7.22185e-05 -1.00152 0)
(0.000104111 -1.0014 0)
(0.000128741 -1.00127 0)
(0.00014901 -1.00115 0)
(0.000166817 -1.00102 0)
(0.000183053 -1.00088 0)
(0.000197116 -1.00073 0)
(0.000206529 -1.00058 0)
(0.000209227 -1.00042 0)
(0.000196118 -1.00026 0)
(0.000152197 -1.00011 0)
(6.43276e-05 -1.00001 0)
(-0.00177277 -1.0034 0)
(-0.00125725 -1.00296 0)
(-0.000871345 -1.00265 0)
(-0.000586375 -1.00242 0)
(-0.00038447 -1.00223 0)
(-0.000243648 -1.00208 0)
(-0.000146737 -1.00194 0)
(-8.02584e-05 -1.00181 0)
(-3.46959e-05 -1.00167 0)
(-3.28956e-06 -1.00154 0)
(1.87937e-05 -1.0014 0)
(3.48352e-05 -1.00126 0)
(4.70429e-05 -1.00111 0)
(5.66893e-05 -1.00095 0)
(6.41245e-05 -1.00079 0)
(6.88647e-05 -1.00061 0)
(7.01998e-05 -1.00043 0)
(6.53573e-05 -1.00025 0)
(4.94274e-05 -1.0001 0)
(1.96913e-05 -1.00001 0)
(-0.00219623 -1.00301 0)
(-0.00152961 -1.00264 0)
(-0.00106408 -1.00241 0)
(-0.000731372 -1.00225 0)
(-0.000504987 -1.00212 0)
(-0.000352392 -1.002 0)
(-0.000250876 -1.00189 0)
(-0.000183871 -1.00177 0)
(-0.000140176 -1.00165 0)
(-0.0001123 -1.00152 0)
(-9.50649e-05 -1.00139 0)
(-8.51118e-05 -1.00125 0)
(-8.00662e-05 -1.00111 0)
(-7.83024e-05 -1.00095 0)
(-7.82844e-05 -1.00078 0)
(-7.8087e-05 -1.00061 0)
(-7.60232e-05 -1.00043 0)
(-6.88254e-05 -1.00025 0)
(-5.1222e-05 -1.0001 0)
(-2.02774e-05 -1.00001 0)
(-0.00257903 -1.00222 0)
(-0.00171383 -1.00195 0)
(-0.00118093 -1.00187 0)
(-0.000814945 -1.0018 0)
(-0.000579596 -1.00175 0)
(-0.000427499 -1.00169 0)
(-0.000330244 -1.00162 0)
(-0.00026867 -1.00154 0)
(-0.000230636 -1.00145 0)
(-0.000208499 -1.00135 0)
(-0.000197593 -1.00124 0)
(-0.00019441 -1.00113 0)
(-0.000196645 -1.001 0)
(-0.00020256 -1.00087 0)
(-0.00020991 -1.00073 0)
(-0.00021486 -1.00058 0)
(-0.000214436 -1.00042 0)
(-0.000199184 -1.00026 0)
(-0.000153711 -1.00011 0)
(-6.48194e-05 -1.00001 0)
(-0.00288028 -1.00089 0)
(-0.00174016 -1.00075 0)
(-0.00117497 -1.0009 0)
(-0.000805171 -1.00098 0)
(-0.000585747 -1.00104 0)
(-0.000450721 -1.00106 0)
(-0.00036805 -1.00105 0)
(-0.000317974 -1.00103 0)
(-0.000289034 -1.00099 0)
(-0.000275046 -1.00093 0)
(-0.000269516 -1.00087 0)
(-0.000271705 -1.0008 0)
(-0.000279699 -1.00073 0)
(-0.000291959 -1.00065 0)
(-0.000306269 -1.00056 0)
(-0.000315547 -1.00047 0)
(-0.000319706 -1.00037 0)
(-0.000309839 -1.00025 0)
(-0.000257083 -1.00012 0)
(-0.00012456 -1.00002 0)
(-0.00314367 -0.998422 0)
(-0.00147991 -0.99845 0)
(-0.00100176 -0.998984 0)
(-0.000679271 -0.999291 0)
(-0.000505879 -0.999512 0)
(-0.000404738 -0.999658 0)
(-0.000346135 -0.999758 0)
(-0.000312846 -0.999828 0)
(-0.000295661 -0.99988 0)
(-0.00028905 -0.99992 0)
(-0.000289267 -0.999953 0)
(-0.000295932 -0.999983 0)
(-0.000307963 -1.00001 0)
(-0.000324216 -1.00004 0)
(-0.000343348 -1.00007 0)
(-0.000363101 -1.0001 0)
(-0.000376821 -1.00013 0)
(-0.000382335 -1.00014 0)
(-0.000335778 -1.00012 0)
(-0.00018075 -1.00003 0)
(-0.00259876 -0.992091 0)
(-0.000633334 -0.991655 0)
(-0.000604419 -0.992826 0)
(-0.000407948 -0.993653 0)
(-0.000342139 -0.994234 0)
(-0.000298103 -0.994696 0)
(-0.000274698 -0.99509 0)
(-0.000262809 -0.995444 0)
(-0.000258643 -0.995779 0)
(-0.000259984 -0.996105 0)
(-0.00026556 -0.99643 0)
(-0.000274955 -0.99676 0)
(-0.000287711 -0.997101 0)
(-0.000303316 -0.997458 0)
(-0.000320838 -0.997833 0)
(-0.000338199 -0.998233 0)
(-0.00035069 -0.998664 0)
(-0.000346786 -0.999111 0)
(-0.000280879 -0.999509 0)
(-6.93769e-05 -0.999779 0)
(0.0138377 -0.853024 0)
(0.0121482 -0.880126 0)
(0.0105504 -0.903781 0)
(0.00906455 -0.92421 0)
(0.00769191 -0.941632 0)
(0.00642073 -0.956265 0)
(0.00525441 -0.968333 0)
(0.00419698 -0.97807 0)
(0.00325082 -0.985711 0)
(0.00241721 -0.991493 0)
(0.00169714 -0.995655 0)
(0.00109127 -0.998438 0)
(0.000597976 -1.00008 0)
(0.000212986 -1.00081 0)
(-6.73081e-05 -1.00085 0)
(-0.000245224 -1.00041 0)
(-0.000348894 -0.999658 0)
(-0.00037629 -0.998764 0)
(-0.000351971 -0.997858 0)
(-0.000294132 -0.997032 0)
(-0.000220763 -0.996341 0)
(-0.000144942 -0.995807 0)
(0.0339327 -0.876468 0)
(0.029801 -0.901773 0)
(0.0258913 -0.92384 0)
(0.0222166 -0.942835 0)
(0.0187884 -0.958925 0)
(0.0156192 -0.972319 0)
(0.0127197 -0.983235 0)
(0.0100973 -0.991901 0)
(0.00775603 -0.99855 0)
(0.00569725 -1.00341 0)
(0.00392204 -1.00673 0)
(0.00243183 -1.00874 0)
(0.00122313 -1.00968 0)
(0.000283517 -1.00977 0)
(-0.000400499 -1.00924 0)
(-0.000854404 -1.00831 0)
(-0.00110715 -1.00714 0)
(-0.00118962 -1.0059 0)
(-0.00114078 -1.0047 0)
(-0.00100358 -1.00362 0)
(-0.000821604 -1.0027 0)
(-0.00062845 -1.00195 0)
(0.055299 -0.884652 0)
(0.0485147 -0.909337 0)
(0.042071 -0.930844 0)
(0.0360026 -0.949326 0)
(0.0303399 -0.964961 0)
(0.0251078 -0.977945 0)
(0.0203247 -0.988487 0)
(0.0160036 -0.996806 0)
(0.0121519 -1.00313 0)
(0.00877231 -1.00768 0)
(0.00586659 -1.01069 0)
(0.00343641 -1.01239 0)
(0.00147855 -1.01303 0)
(-3.12484e-05 -1.01284 0)
(-0.00111748 -1.01204 0)
(-0.00181438 -1.01084 0)
(-0.00217267 -1.00943 0)
(-0.00225159 -1.00796 0)
(-0.00211848 -1.00658 0)
(-0.00184775 -1.00536 0)
(-0.0015158 -1.00435 0)
(-0.0011797 -1.00353 0)
(0.076253 -0.889459 0)
(0.0668938 -0.913899 0)
(0.0579827 -0.935195 0)
(0.049577 -0.953489 0)
(0.0417238 -0.968951 0)
(0.0344593 -0.981768 0)
(0.0278107 -0.992141 0)
(0.0217982 -1.00028 0)
(0.016435 -1.00642 0)
(0.0117272 -1.01077 0)
(0.00767647 -1.01355 0)
(0.0042847 -1.01499 0)
(0.00156233 -1.01536 0)
(-0.000524641 -1.01487 0)
(-0.00201945 -1.01377 0)
(-0.00295841 -1.01228 0)
(-0.00341142 -1.01059 0)
(-0.00346657 -1.00889 0)
(-0.00322121 -1.00732 0)
(-0.00278351 -1.00598 0)
(-0.00227064 -1.0049 0)
(-0.00177277 -1.00405 0)
(0.0970604 -0.892861 0)
(0.0851549 -0.917193 0)
(0.0737919 -0.938395 0)
(0.0630548 -0.956604 0)
(0.0530093 -0.971988 0)
(0.0437046 -0.984727 0)
(0.0351782 -0.995017 0)
(0.0274621 -1.00306 0)
(0.0205775 -1.00908 0)
(0.0145249 -1.01329 0)
(0.00929819 -1.01591 0)
(0.00490505 -1.01714 0)
(0.00140442 -1.01725 0)
(-0.0012849 -1.01646 0)
(-0.00319078 -1.01505 0)
(-0.00436079 -1.01323 0)
(-0.00488256 -1.01123 0)
(-0.00487669 -1.00927 0)
(-0.00447127 -1.00748 0)
(-0.00380852 -1.00601 0)
(-0.00306041 -1.00487 0)
(-0.00237329 -1.00403 0)
(0.1178 -0.894533 0)
(0.103353 -0.91872 0)
(0.0895418 -0.939795 0)
(0.0764785 -0.957906 0)
(0.0642467 -0.973225 0)
(0.0529075 -0.985936 0)
(0.0425087 -0.996222 0)
(0.0330916 -1.00427 0)
(0.0246719 -1.0103 0)
(0.0172197 -1.01452 0)
(0.0107675 -1.01715 0)
(0.00535869 -1.01825 0)
(0.00100737 -1.01843 0)
(-0.00230654 -1.01733 0)
(-0.00464417 -1.01569 0)
(-0.00603865 -1.0136 0)
(-0.00660249 -1.01133 0)
(-0.00649337 -1.0091 0)
(-0.00586503 -1.00711 0)
(-0.00489826 -1.00551 0)
(-0.0038441 -1.00437 0)
(-0.00294574 -1.00359 0)
(0.138349 -0.892906 0)
(0.121373 -0.916631 0)
(0.105142 -0.937287 0)
(0.0897946 -0.95506 0)
(0.075427 -0.970153 0)
(0.0621022 -0.982773 0)
(0.0498582 -0.993108 0)
(0.0387146 -1.00135 0)
(0.0286854 -1.00769 0)
(0.019883 -1.01207 0)
(0.0123279 -1.01503 0)
(0.00592391 -1.01661 0)
(0.000651013 -1.01696 0)
(-0.00332669 -1.0163 0)
(-0.00614469 -1.01465 0)
(-0.00784595 -1.01257 0)
(-0.00846011 -1.01029 0)
(-0.00821634 -1.008 0)
(-0.00731169 -1.00591 0)
(-0.0059923 -1.0043 0)
(-0.00458312 -1.00331 0)
(-0.00344606 -1.00271 0)
(0.158302 -0.884901 0)
(0.138817 -0.907246 0)
(0.120233 -0.926574 0)
(0.10271 -0.943162 0)
(0.0863524 -0.957302 0)
(0.0712129 -0.969269 0)
(0.0573085 -0.979309 0)
(0.0446366 -0.987646 0)
(0.0332366 -0.994447 0)
(0.0232306 -0.999789 0)
(0.0145505 -1.00382 0)
(0.00708746 -1.00656 0)
(0.000876355 -1.00811 0)
(-0.00396436 -1.00859 0)
(-0.0073024 -1.00818 0)
(-0.00924002 -1.00721 0)
(-0.00999605 -1.00591 0)
(-0.00971801 -1.00437 0)
(-0.00865987 -1.00282 0)
(-0.00715768 -1.00166 0)
(-0.00535229 -1.0012 0)
(-0.00370162 -1.00113 0)
(0.176614 -0.865273 0)
(0.154611 -0.884117 0)
(0.133763 -0.899889 0)
(0.114256 -0.913027 0)
(0.0961908 -0.923982 0)
(0.0795983 -0.933195 0)
(0.0644535 -0.941067 0)
(0.0507022 -0.947963 0)
(0.0383062 -0.954178 0)
(0.0272401 -0.959914 0)
(0.0174117 -0.965291 0)
(0.00888919 -0.970269 0)
(0.00180951 -0.974822 0)
(-0.00382265 -0.978869 0)
(-0.00797774 -0.982435 0)
(-0.0104548 -0.985563 0)
(-0.0118408 -0.988299 0)
(-0.0122193 -0.990558 0)
(-0.0112969 -0.992345 0)
(-0.00889524 -0.993649 0)
(-0.00532677 -0.994995 0)
(-0.00242513 -0.997096 0)
(0.191053 -0.826805 0)
(0.166311 -0.838377 0)
(0.143122 -0.846464 0)
(0.121707 -0.851653 0)
(0.102173 -0.854532 0)
(0.0845453 -0.85566 0)
(0.068783 -0.855563 0)
(0.0548213 -0.854739 0)
(0.0426094 -0.853678 0)
(0.0320932 -0.852923 0)
(0.0231329 -0.853099 0)
(0.0155167 -0.854765 0)
(0.00911996 -0.858309 0)
(0.0040382 -0.864162 0)
(0.000839057 -0.872495 0)
(-7.40853e-05 -0.88325 0)
(0.000465191 -0.896107 0)
(0.00182977 -0.910815 0)
(0.00370191 -0.9267 0)
(0.0055993 -0.941274 0)
(0.0067934 -0.956028 0)
(0.00576256 -0.975419 0)
(-0.0265898 0.012405 0)
(-0.0213709 0.0441765 0)
(-0.0048825 0.0429189 0)
(0.00921 0.0221612 0)
(0.0220444 -0.0203857 0)
(0.0351109 -0.0917484 0)
(0.0412986 -0.184332 0)
(0.0402311 -0.271416 0)
(0.0367137 -0.350355 0)
(0.0335212 -0.423316 0)
(0.0307084 -0.490259 0)
(0.0281306 -0.551696 0)
(0.0257491 -0.608019 0)
(0.0235187 -0.659552 0)
(0.0214071 -0.706549 0)
(0.0193924 -0.749219 0)
(0.017462 -0.787743 0)
(0.0156103 -0.822288 0)
(-0.0450133 0.000718322 0)
(-0.00817156 0.0206328 0)
(0.0226665 0.000800118 0)
(0.0487015 -0.0512333 0)
(0.0759108 -0.126546 0)
(0.0954022 -0.210568 0)
(0.0998771 -0.288603 0)
(0.0947061 -0.355536 0)
(0.0876049 -0.422018 0)
(0.0807759 -0.484898 0)
(0.0743606 -0.543854 0)
(0.0683851 -0.598825 0)
(0.0627764 -0.649839 0)
(0.0574608 -0.696957 0)
(0.05238 -0.740243 0)
(0.0474968 -0.779759 0)
(0.0427936 -0.815576 0)
(0.038269 -0.847777 0)
(-0.0498939 -0.0160539 0)
(0.0166475 -0.0156452 0)
(0.0622079 -0.0611635 0)
(0.103346 -0.128642 0)
(0.136248 -0.203668 0)
(0.152427 -0.273465 0)
(0.1526 -0.335665 0)
(0.1455 -0.395012 0)
(0.136762 -0.454162 0)
(0.127566 -0.51102 0)
(0.118495 -0.565419 0)
(0.10973 -0.616934 0)
(0.101268 -0.665329 0)
(0.0930649 -0.710444 0)
(0.0850834 -0.752176 0)
(0.0773042 -0.790465 0)
(0.0697307 -0.825289 0)
(0.0623843 -0.856667 0)
(-0.0235052 -0.0310755 0)
(0.0510269 -0.0537277 0)
(0.110773 -0.113623 0)
(0.159925 -0.182986 0)
(0.190812 -0.249157 0)
(0.201737 -0.307758 0)
(0.19934 -0.362817 0)
(0.191595 -0.417914 0)
(0.181866 -0.472615 0)
(0.171125 -0.525993 0)
(0.160123 -0.577654 0)
(0.149131 -0.627079 0)
(0.13824 -0.673911 0)
(0.127472 -0.717868 0)
(0.116835 -0.758747 0)
(0.106347 -0.796405 0)
(0.0960478 -0.830755 0)
(0.0859943 -0.861767 0)
(0.0115829 -0.043099 0)
(0.0954704 -0.0831272 0)
(0.162774 -0.14913 0)
(0.211865 -0.215445 0)
(0.237718 -0.274286 0)
(0.245028 -0.327579 0)
(0.241976 -0.379736 0)
(0.234204 -0.432206 0)
(0.223921 -0.484314 0)
(0.21221 -0.535575 0)
(0.199813 -0.585497 0)
(0.187065 -0.633577 0)
(0.174133 -0.679409 0)
(0.161102 -0.722651 0)
(0.148036 -0.763031 0)
(0.135004 -0.800347 0)
(0.122095 -0.83446 0)
(0.10941 -0.865301 0)
(0.0589922 -0.0491907 0)
(0.147378 -0.101914 0)
(0.215131 -0.170154 0)
(0.259673 -0.232674 0)
(0.280712 -0.28748 0)
(0.286095 -0.338886 0)
(0.282982 -0.389836 0)
(0.275206 -0.440817 0)
(0.264535 -0.491447 0)
(0.25208 -0.541395 0)
(0.238537 -0.590206 0)
(0.224278 -0.637418 0)
(0.209518 -0.682605 0)
(0.194392 -0.725389 0)
(0.179016 -0.765448 0)
(0.163518 -0.802528 0)
(0.148042 -0.836453 0)
(0.132748 -0.867127 0)
(0.113899 -0.053137 0)
(0.203382 -0.111955 0)
(0.266586 -0.180557 0)
(0.3053 -0.240234 0)
(0.32253 -0.293465 0)
(0.326693 -0.344479 0)
(0.32339 -0.394938 0)
(0.315428 -0.445133 0)
(0.304365 -0.494913 0)
(0.29123 -0.544038 0)
(0.276659 -0.59212 0)
(0.261022 -0.638733 0)
(0.244551 -0.683438 0)
(0.227417 -0.72582 0)
(0.209785 -0.765511 0)
(0.191843 -0.802217 0)
(0.173803 -0.835736 0)
(0.155896 -0.865967 0)
(0.178537 -0.0562293 0)
(0.260186 -0.116186 0)
(0.316888 -0.183882 0)
(0.349961 -0.241853 0)
(0.364158 -0.29476 0)
(0.367226 -0.345878 0)
(0.363493 -0.396135 0)
(0.355183 -0.445895 0)
(0.343675 -0.495138 0)
(0.32987 -0.543686 0)
(0.31432 -0.591201 0)
(0.297359 -0.637262 0)
(0.279211 -0.681401 0)
(0.260069 -0.723151 0)
(0.240147 -0.762091 0)
(0.219703 -0.797885 0)
(0.199037 -0.830319 0)
(0.178467 -0.85931 0)
(0.24438 -0.0570889 0)
(0.316176 -0.116096 0)
(0.366159 -0.182704 0)
(0.39422 -0.239771 0)
(0.405851 -0.292736 0)
(0.407762 -0.343996 0)
(0.403399 -0.394107 0)
(0.394614 -0.443532 0)
(0.382588 -0.49232 0)
(0.368074 -0.540316 0)
(0.351515 -0.587187 0)
(0.333177 -0.632472 0)
(0.313255 -0.675629 0)
(0.291956 -0.7161 0)
(0.269552 -0.753379 0)
(0.246394 -0.787074 0)
(0.222895 -0.816955 0)
(0.199496 -0.842978 0)
(0.30776 -0.0556263 0)
(0.371137 -0.11312 0)
(0.414653 -0.178759 0)
(0.438252 -0.235277 0)
(0.447622 -0.288216 0)
(0.448275 -0.339435 0)
(0.443117 -0.389294 0)
(0.43373 -0.4383 0)
(0.42108 -0.486514 0)
(0.405741 -0.533762 0)
(0.388021 -0.579645 0)
(0.368087 -0.623591 0)
(0.346085 -0.664911 0)
(0.322232 -0.702885 0)
(0.296876 -0.736864 0)
(0.270496 -0.766365 0)
(0.243667 -0.791141 0)
(0.216996 -0.811204 0)
(0.198345 -0.76181 0)
(0.17021 -0.761663 0)
(0.144164 -0.757426 0)
(0.120419 -0.74976 0)
(0.099036 -0.739212 0)
(0.0799671 -0.726188 0)
(0.0631 -0.71094 0)
(0.0483063 -0.693555 0)
(0.0354888 -0.673992 0)
(0.0246235 -0.652149 0)
(0.0159354 -0.62778 0)
(0.00915936 -0.600459 0)
(0.00380711 -0.570046 0)
(-1.90846e-05 -0.536424 0)
(-0.00262582 -0.499499 0)
(-0.0046625 -0.458972 0)
(-0.00691822 -0.414173 0)
(-0.00914659 -0.364181 0)
(-0.00891418 -0.308305 0)
(-0.0104263 -0.248044 0)
(-0.0235536 -0.192106 0)
(-0.0358032 -0.149969 0)
(0.194662 -0.670631 0)
(0.162569 -0.657422 0)
(0.133199 -0.640541 0)
(0.106621 -0.620854 0)
(0.0827193 -0.599019 0)
(0.0612892 -0.575492 0)
(0.0421133 -0.550555 0)
(0.0249981 -0.524345 0)
(0.00977462 -0.496938 0)
(-0.00370825 -0.468495 0)
(-0.0156811 -0.439017 0)
(-0.0264886 -0.407994 0)
(-0.0360239 -0.374662 0)
(-0.0438064 -0.339731 0)
(-0.0499987 -0.301922 0)
(-0.0555183 -0.259823 0)
(-0.060835 -0.213082 0)
(-0.0651206 -0.162484 0)
(-0.0666914 -0.108048 0)
(-0.0675142 -0.0507658 0)
(-0.0775133 -0.00603902 0)
(-0.103351 0.00834405 0)
(0.180246 -0.567842 0)
(0.145023 -0.545975 0)
(0.11347 -0.522704 0)
(0.0855024 -0.499151 0)
(0.060882 -0.476117 0)
(0.0392966 -0.454112 0)
(0.0203834 -0.43337 0)
(0.00371746 -0.413818 0)
(-0.0111785 -0.395002 0)
(-0.024622 -0.376268 0)
(-0.0368289 -0.356726 0)
(-0.0483643 -0.334267 0)
(-0.0592031 -0.310401 0)
(-0.0693827 -0.283437 0)
(-0.079346 -0.253405 0)
(-0.0887976 -0.220544 0)
(-0.097111 -0.185338 0)
(-0.103432 -0.147802 0)
(-0.107176 -0.106905 0)
(-0.108756 -0.0639463 0)
(-0.1084 -0.0264288 0)
(-0.0973058 -0.00577195 0)
(0.160296 -0.471104 0)
(0.124627 -0.448999 0)
(0.0939202 -0.429157 0)
(0.0677156 -0.412414 0)
(0.0452939 -0.398883 0)
(0.0257921 -0.387991 0)
(0.00835363 -0.37865 0)
(-0.00773856 -0.369525 0)
(-0.0230268 -0.359301 0)
(-0.0378031 -0.347353 0)
(-0.0521204 -0.333169 0)
(-0.0657336 -0.316405 0)
(-0.0786989 -0.296796 0)
(-0.0910818 -0.27402 0)
(-0.1029 -0.248108 0)
(-0.11416 -0.219208 0)
(-0.124725 -0.187453 0)
(-0.133607 -0.152924 0)
(-0.139869 -0.115815 0)
(-0.142316 -0.0773755 0)
(-0.137602 -0.0416618 0)
(-0.112966 -0.0141312 0)
(0.142434 -0.39491 0)
(0.109779 -0.380514 0)
(0.0827302 -0.370843 0)
(0.059891 -0.365078 0)
(0.0398011 -0.361651 0)
(0.0212842 -0.358856 0)
(0.00359349 -0.355319 0)
(-0.0136436 -0.350151 0)
(-0.0305661 -0.342908 0)
(-0.0472375 -0.33332 0)
(-0.0636799 -0.321159 0)
(-0.079803 -0.306224 0)
(-0.0955215 -0.288326 0)
(-0.110755 -0.26736 0)
(-0.125372 -0.243357 0)
(-0.13923 -0.216319 0)
(-0.152046 -0.186563 0)
(-0.16282 -0.154505 0)
(-0.170518 -0.120337 0)
(-0.173498 -0.0846181 0)
(-0.167268 -0.0493848 0)
(-0.13821 -0.0183833 0)
(0.132256 -0.343746 0)
(0.104118 -0.339421 0)
(0.0804815 -0.338905 0)
(0.0593717 -0.34007 0)
(0.0394516 -0.34114 0)
(0.0200323 -0.341002 0)
(0.000835397 -0.339068 0)
(-0.0182287 -0.335045 0)
(-0.0371842 -0.328774 0)
(-0.056033 -0.320087 0)
(-0.0747434 -0.308854 0)
(-0.0932394 -0.294944 0)
(-0.111436 -0.278229 0)
(-0.129208 -0.258648 0)
(-0.146351 -0.236232 0)
(-0.162548 -0.210972 0)
(-0.177282 -0.183145 0)
(-0.189824 -0.15319 0)
(-0.199095 -0.121323 0)
(-0.20319 -0.0876034 0)
(-0.197151 -0.0529422 0)
(-0.167565 -0.0203641 0)
(0.130244 -0.311997 0)
(0.105311 -0.314716 0)
(0.082907 -0.318715 0)
(0.0615141 -0.322264 0)
(0.0404557 -0.324454 0)
(0.019498 -0.32488 0)
(-0.00143095 -0.323341 0)
(-0.0223565 -0.319719 0)
(-0.0432848 -0.313909 0)
(-0.0642062 -0.305789 0)
(-0.0850766 -0.295263 0)
(-0.105816 -0.282229 0)
(-0.126318 -0.26659 0)
(-0.146427 -0.248298 0)
(-0.165888 -0.227408 0)
(-0.184282 -0.203865 0)
(-0.200975 -0.17781 0)
(-0.215276 -0.149672 0)
(-0.226113 -0.119653 0)
(-0.231604 -0.0875904 0)
(-0.226811 -0.0538279 0)
(-0.198557 -0.0209769 0)
(0.133452 -0.290747 0)
(0.109574 -0.296559 0)
(0.08674 -0.301841 0)
(0.0641785 -0.305765 0)
(0.0416528 -0.308021 0)
(0.0190944 -0.308474 0)
(-0.00352594 -0.307026 0)
(-0.0262274 -0.303611 0)
(-0.0490124 -0.298147 0)
(-0.0718682 -0.290533 0)
(-0.09475 -0.280684 0)
(-0.117574 -0.268505 0)
(-0.140213 -0.253911 0)
(-0.162483 -0.236851 0)
(-0.184099 -0.217368 0)
(-0.204608 -0.195422 0)
(-0.223233 -0.171035 0)
(-0.239296 -0.14455 0)
(-0.251765 -0.11616 0)
(-0.258812 -0.0856195 0)
(-0.255765 -0.0530269 0)
(-0.229703 -0.0207678 0)
(0.13888 -0.27364 0)
(0.114628 -0.280181 0)
(0.0906862 -0.285446 0)
(0.0667544 -0.289153 0)
(0.0427605 -0.29121 0)
(0.018673 -0.291551 0)
(-0.00553361 -0.290119 0)
(-0.0298834 -0.28687 0)
(-0.0543842 -0.281737 0)
(-0.079028 -0.27463 0)
(-0.103774 -0.265461 0)
(-0.128534 -0.254134 0)
(-0.153166 -0.240559 0)
(-0.177456 -0.224676 0)
(-0.201095 -0.206503 0)
(-0.223599 -0.186041 0)
(-0.24414 -0.163226 0)
(-0.261974 -0.138292 0)
(-0.276118 -0.111427 0)
(-0.284805 -0.0823877 0)
(-0.283669 -0.0511803 0)
(-0.260123 -0.0200662 0)
(0.144814 -0.257738 0)
(0.119575 -0.264053 0)
(0.0943644 -0.26892 0)
(0.0690828 -0.272263 0)
(0.0437016 -0.274049 0)
(0.0181937 -0.274245 0)
(-0.00747193 -0.272815 0)
(-0.0333291 -0.269731 0)
(-0.0593979 -0.264935 0)
(-0.0856814 -0.25834 0)
(-0.112147 -0.249855 0)
(-0.138707 -0.239377 0)
(-0.165205 -0.226806 0)
(-0.1914 -0.212062 0)
(-0.216944 -0.19513 0)
(-0.241331 -0.17604 0)
(-0.26376 -0.154715 0)
(-0.283358 -0.131264 0)
(-0.299198 -0.105874 0)
(-0.309529 -0.0783621 0)
(-0.310284 -0.0487037 0)
(-0.289285 -0.0190748 0)
(0.150535 -0.242087 0)
(0.124135 -0.247883 0)
(0.0976745 -0.252259 0)
(0.0711224 -0.255201 0)
(0.044458 -0.256703 0)
(0.0176507 -0.256749 0)
(-0.00933948 -0.255323 0)
(-0.0365607 -0.252408 0)
(-0.0640498 -0.24795 0)
(-0.0918262 -0.241867 0)
(-0.11987 -0.234063 0)
(-0.148098 -0.224428 0)
(-0.176347 -0.212847 0)
(-0.204348 -0.199222 0)
(-0.231713 -0.1835 0)
(-0.257896 -0.165688 0)
(-0.282141 -0.145764 0)
(-0.303494 -0.123752 0)
(-0.321005 -0.0998087 0)
(-0.332926 -0.0738666 0)
(-0.335456 -0.0458682 0)
(-0.316882 -0.0179207 0)
(0.155796 -0.226507 0)
(0.128234 -0.231716 0)
(0.100595 -0.235585 0)
(0.0728676 -0.238125 0)
(0.0450305 -0.239346 0)
(0.0170476 -0.239249 0)
(-0.0111334 -0.237831 0)
(-0.0395778 -0.235083 0)
(-0.0683429 -0.230959 0)
(-0.0974681 -0.225378 0)
(-0.12695 -0.218242 0)
(-0.156718 -0.209433 0)
(-0.186602 -0.198822 0)
(-0.216316 -0.186294 0)
(-0.245434 -0.171764 0)
(-0.273368 -0.155198 0)
(-0.299347 -0.136595 0)
(-0.322422 -0.115975 0)
(-0.341527 -0.093479 0)
(-0.354954 -0.0691249 0)
(-0.359099 -0.0428516 0)
(-0.342746 -0.0166844 0)
(0.160531 -0.211049 0)
(0.131864 -0.215668 0)
(0.103131 -0.219038 0)
(0.0743255 -0.221186 0)
(0.045426 -0.222137 0)
(0.0163885 -0.221904 0)
(-0.0128539 -0.220496 0)
(-0.0423855 -0.217911 0)
(-0.0722866 -0.214108 0)
(-0.10262 -0.209012 0)
(-0.133405 -0.202523 0)
(-0.164584 -0.194514 0)
(-0.195991 -0.184846 0)
(-0.227324 -0.173382 0)
(-0.258125 -0.160016 0)
(-0.287764 -0.144685 0)
(-0.315431 -0.127369 0)
(-0.340151 -0.10811 0)
(-0.360765 -0.0870599 0)
(-0.375593 -0.0642883 0)
(-0.381175 -0.0397689 0)
(-0.366799 -0.0154162 0)
(0.164737 -0.195811 0)
(0.135036 -0.199856 0)
(0.105294 -0.202746 0)
(0.0755079 -0.20452 0)
(0.0456529 -0.205214 0)
(0.0156762 -0.204852 0)
(-0.0145043 -0.203451 0)
(-0.0449933 -0.201019 0)
(-0.075896 -0.197521 0)
(-0.107302 -0.192887 0)
(-0.139258 -0.187016 0)
(-0.171724 -0.179777 0)
(-0.204542 -0.171017 0)
(-0.237399 -0.160581 0)
(-0.269807 -0.148345 0)
(-0.301093 -0.134224 0)
(-0.330399 -0.118186 0)
(-0.356687 -0.100275 0)
(-0.378727 -0.0806563 0)
(-0.39484 -0.0594536 0)
(-0.401679 -0.0366919 0)
(-0.389024 -0.0141468 0)
(0.168429 -0.180888 0)
(0.137769 -0.184384 0)
(0.107102 -0.186818 0)
(0.0764286 -0.188237 0)
(0.0457194 -0.188687 0)
(0.0149123 -0.188201 0)
(-0.0160906 -0.186806 0)
(-0.0474144 -0.184514 0)
(-0.0791904 -0.181299 0)
(-0.111538 -0.177098 0)
(-0.144534 -0.171813 0)
(-0.178166 -0.165308 0)
(-0.212286 -0.157418 0)
(-0.246573 -0.147972 0)
(-0.280507 -0.136827 0)
(-0.313372 -0.123889 0)
(-0.344256 -0.109113 0)
(-0.372045 -0.0925371 0)
(-0.395426 -0.0743351 0)
(-0.412704 -0.0546809 0)
(-0.420626 -0.0336643 0)
(-0.409434 -0.0128939 0)
(0.171631 -0.166362 0)
(0.140084 -0.169337 0)
(0.108575 -0.171339 0)
(0.0771018 -0.172423 0)
(0.0456333 -0.172643 0)
(0.0140968 -0.172037 0)
(-0.0176205 -0.170642 0)
(-0.0496644 -0.168476 0)
(-0.0821923 -0.165521 0)
(-0.115356 -0.161722 0)
(-0.149266 -0.156986 0)
(-0.183943 -0.151177 0)
(-0.219258 -0.144116 0)
(-0.25488 -0.135616 0)
(-0.290255 -0.125522 0)
(-0.324622 -0.113734 0)
(-0.357017 -0.100199 0)
(-0.386239 -0.0849418 0)
(-0.410876 -0.0681383 0)
(-0.429202 -0.050006 0)
(-0.438045 -0.0307112 0)
(-0.428068 -0.011667 0)
(0.174369 -0.152298 0)
(0.142005 -0.15478 0)
(0.10973 -0.156373 0)
(0.0775408 -0.15714 0)
(0.0454012 -0.15714 0)
(0.0132292 -0.156419 0)
(-0.0191028 -0.155017 0)
(-0.0517598 -0.152962 0)
(-0.0849256 -0.150243 0)
(-0.118784 -0.146813 0)
(-0.153486 -0.142589 0)
(-0.18909 -0.137432 0)
(-0.225493 -0.131158 0)
(-0.262356 -0.123561 0)
(-0.299085 -0.114474 0)
(-0.33487 -0.103797 0)
(-0.368699 -0.0914766 0)
(-0.399287 -0.0775174 0)
(-0.425098 -0.0620905 0)
(-0.444356 -0.0454479 0)
(-0.453971 -0.0278457 0)
(-0.444973 -0.0104701 0)
(0.176667 -0.138742 0)
(0.143553 -0.140756 0)
(0.110584 -0.14196 0)
(0.0777571 -0.142426 0)
(0.0450287 -0.142216 0)
(0.012308 -0.141382 0)
(-0.0205461 -0.139969 0)
(-0.0537175 -0.13801 0)
(-0.0874148 -0.135502 0)
(-0.121855 -0.13241 0)
(-0.15723 -0.128656 0)
(-0.193644 -0.124109 0)
(-0.231028 -0.118575 0)
(-0.26904 -0.111835 0)
(-0.307034 -0.10371 0)
(-0.344145 -0.0941047 0)
(-0.379326 -0.0829671 0)
(-0.411209 -0.07028 0)
(-0.438113 -0.0562035 0)
(-0.458196 -0.0410144 0)
(-0.468443 -0.0250724 0)
(-0.460203 -0.00930322 0)
(0.178546 -0.125717 0)
(0.144744 -0.127283 0)
(0.111152 -0.128116 0)
(0.0777605 -0.128293 0)
(0.0445206 -0.127882 0)
(0.0113325 -0.126938 0)
(-0.0219583 -0.12551 0)
(-0.0555528 -0.123636 0)
(-0.0896834 -0.121318 0)
(-0.124599 -0.118531 0)
(-0.160532 -0.115207 0)
(-0.197642 -0.111223 0)
(-0.235903 -0.106381 0)
(-0.274973 -0.10045 0)
(-0.314141 -0.0932429 0)
(-0.352479 -0.0846687 0)
(-0.388922 -0.0746801 0)
(-0.422028 -0.0632352 0)
(-0.449949 -0.0504793 0)
(-0.470749 -0.0367049 0)
(-0.481501 -0.0223906 0)
(-0.473811 -0.00816417 0)
(0.180023 -0.113211 0)
(0.145592 -0.114349 0)
(0.111444 -0.114827 0)
(0.0775596 -0.11473 0)
(0.0438819 -0.114128 0)
(0.0103029 -0.113078 0)
(-0.0233445 -0.111635 0)
(-0.0572781 -0.109838 0)
(-0.0917524 -0.107694 0)
(-0.127045 -0.105183 0)
(-0.163432 -0.102249 0)
(-0.201132 -0.0987781 0)
(-0.240165 -0.094574 0)
(-0.280192 -0.0893993 0)
(-0.320439 -0.0830742 0)
(-0.359902 -0.0754943 0)
(-0.397514 -0.0666172 0)
(-0.431774 -0.0563808 0)
(-0.460633 -0.0449127 0)
(-0.482047 -0.0325127 0)
(-0.493184 -0.0197952 0)
(-0.485849 -0.00704906 0)
(0.181139 -0.101133 0)
(0.146127 -0.101894 0)
(0.111478 -0.102048 0)
(0.0771657 -0.101697 0)
(0.0431198 -0.10092 0)
(0.00922291 -0.0997759 0)
(-0.0247059 -0.0983228 0)
(-0.0589011 -0.0966018 0)
(-0.0936387 -0.0946199 0)
(-0.129224 -0.0923621 0)
(-0.165977 -0.0897832 0)
(-0.204167 -0.0867726 0)
(-0.243858 -0.0831366 0)
(-0.284725 -0.0786621 0)
(-0.325947 -0.0731941 0)
(-0.366437 -0.0665858 0)
(-0.405131 -0.0587767 0)
(-0.440475 -0.0497082 0)
(-0.470196 -0.0394922 0)
(-0.49212 -0.0284264 0)
(-0.503529 -0.0172774 0)
(-0.496365 -0.00595403 0)
(0.181899 -0.0893677 0)
(0.146388 -0.0897968 0)
(0.111298 -0.089702 0)
(0.0766051 -0.0891324 0)
(0.0422505 -0.0882077 0)
(0.00810275 -0.0869892 0)
(-0.0260375 -0.0855404 0)
(-0.0604235 -0.083902 0)
(-0.0953555 -0.0820804 0)
(-0.131166 -0.0800665 0)
(-0.168207 -0.0778124 0)
(-0.206775 -0.0751961 0)
(-0.247007 -0.0720853 0)
(-0.288621 -0.0682757 0)
(-0.330702 -0.0635968 0)
(-0.372113 -0.057952 0)
(-0.411809 -0.0511579 0)
(-0.448169 -0.0432032 0)
(-0.478671 -0.0342003 0)
(-0.500998 -0.0244291 0)
(-0.512562 -0.0148238 0)
(-0.505398 -0.00488121 0)
(0.182358 -0.0779442 0)
(0.146366 -0.078025 0)
(0.110913 -0.0776723 0)
(0.0759273 -0.0769529 0)
(0.0413125 -0.075929 0)
(0.00696664 -0.0746689 0)
(-0.0273258 -0.0732488 0)
(-0.0618434 -0.0717101 0)
(-0.0969125 -0.0700577 0)
(-0.132885 -0.0682886 0)
(-0.170108 -0.066317 0)
(-0.208972 -0.0640942 0)
(-0.24968 -0.0614934 0)
(-0.291921 -0.0583191 0)
(-0.334762 -0.0543495 0)
(-0.377002 -0.0495885 0)
(-0.4176 -0.0437518 0)
(-0.454902 -0.036842 0)
(-0.486092 -0.0290104 0)
(-0.508706 -0.0204965 0)
(-0.520303 -0.0124157 0)
(-0.512996 -0.00384547 0)
(0.182509 -0.0669593 0)
(0.146125 -0.0666838 0)
(0.110338 -0.066026 0)
(0.0751019 -0.0651273 0)
(0.0403305 -0.0640241 0)
(0.00585489 -0.0627753 0)
(-0.0285462 -0.061419 0)
(-0.0631501 -0.0600049 0)
(-0.0982966 -0.0585271 0)
(-0.134333 -0.056984 0)
(-0.171701 -0.0553231 0)
(-0.210839 -0.0534884 0)
(-0.251905 -0.0513486 0)
(-0.29465 -0.0487398 0)
(-0.338177 -0.0454422 0)
(-0.38115 -0.0414552 0)
(-0.422566 -0.0365141 0)
(-0.460719 -0.0305828 0)
(-0.492491 -0.0238838 0)
(-0.515264 -0.0165964 0)
(-0.526753 -0.0100323 0)
(-0.519193 -0.00283093 0)
(0.182335 -0.056441 0)
(0.145614 -0.055848 0)
(0.109584 -0.054934 0)
(0.0741732 -0.053813 0)
(0.0392762 -0.0525892 0)
(0.00474213 -0.051325 0)
(-0.0296748 -0.0500461 0)
(-0.0642812 -0.0487786 0)
(-0.0994367 -0.047514 0)
(-0.135551 -0.0462093 0)
(-0.173061 -0.0448512 0)
(-0.212376 -0.0433205 0)
(-0.253717 -0.0415462 0)
(-0.296879 -0.0394188 0)
(-0.340994 -0.036744 0)
(-0.384615 -0.0334623 0)
(-0.426763 -0.0293675 0)
(-0.465657 -0.0243675 0)
(-0.497892 -0.0187716 0)
(-0.520688 -0.0126909 0)
(-0.531923 -0.0076521 0)
(-0.524001 -0.00181728 0)
(0.181877 -0.0464155 0)
(0.144866 -0.0455554 0)
(0.108644 -0.0444439 0)
(0.0731294 -0.0431814 0)
(0.0382023 -0.0418653 0)
(0.0036805 -0.0405672 0)
(-0.030705 -0.0393465 0)
(-0.0652866 -0.0382011 0)
(-0.100446 -0.0371121 0)
(-0.136599 -0.0360077 0)
(-0.174196 -0.0348223 0)
(-0.213658 -0.0334975 0)
(-0.255208 -0.0320023 0)
(-0.298678 -0.0302703 0)
(-0.343253 -0.0281535 0)
(-0.387442 -0.0255335 0)
(-0.430238 -0.0222275 0)
(-0.469745 -0.0181283 0)
(-0.502306 -0.0136181 0)
(-0.524984 -0.00874055 0)
(-0.535814 -0.00524769 0)
(-0.527396 -0.000690769 0)
(0.181186 -0.0368795 0)
(0.143943 -0.0358065 0)
(0.107579 -0.0345529 0)
(0.0720029 -0.0332124 0)
(0.0370857 -0.0318684 0)
(0.00262246 -0.030581 0)
(-0.0316861 -0.0293924 0)
(-0.0662062 -0.0282998 0)
(-0.101344 -0.0272595 0)
(-0.137529 -0.0262092 0)
(-0.175207 -0.0250946 0)
(-0.214772 -0.0238939 0)
(-0.256448 -0.0226044 0)
(-0.300109 -0.0211955 0)
(-0.345008 -0.0195719 0)
(-0.389668 -0.0175795 0)
(-0.433019 -0.0150047 0)
(-0.473001 -0.0117841 0)
(-0.505734 -0.00836039 0)
(-0.528135 -0.00470448 0)
(-0.538374 -0.00277699 0)
(-0.529323 0.000525068 0)
(0.180303 -0.0277841 0)
(0.142888 -0.0265334 0)
(0.106434 -0.025164 0)