/*--------------------------------*- C++ -*----------------------------------*\
| =========                 |                                                 |
| \\      /  F ield         | OpenFOAM: The Open Source CFD Toolbox           |
|  \\    /   O peration     | Version:  v2012                                 |
|   \\  /    A nd           | Website:  www.openfoam.com                      |
|    \\/     M anipulation  |                                                 |
\*---------------------------------------------------------------------------*/
FoamFile
{
    version     2.0;
    format      ascii;
    class       volScalarField;
    location    "626";
    object      age;
}
// * * * * * * * * * * * * * * * * * * * * * * * * * * * * * * * * * * * * * //

dimensions      [0 0 1 0 0 0 0];


internalField   nonuniform List<scalar> 
6108
(
0.489488
0.46429
0.439105
0.413933
0.388771
0.363619
0.338477
0.313343
0.288219
0.263103
0.237996
0.212898
0.18781
0.162732
0.137665
0.112608
0.0875634
0.0625308
0.0375105
0.0125019
0.487558
0.462536
0.437521
0.412509
0.387501
0.362494
0.337489
0.312486
0.287483
0.262481
0.23748
0.21248
0.18748
0.162481
0.137483
0.112486
0.0874894
0.0624932
0.037497
0.0124996
0.487056
0.462086
0.437119
0.412153
0.387187
0.362221
0.337254
0.312286
0.287316
0.262344
0.237371
0.212395
0.187418
0.162438
0.137455
0.11247
0.0874824
0.0624915
0.0374972
0.0124997
0.486853
0.461906
0.436961
0.412015
0.387068
0.362119
0.337168
0.312214
0.287257
0.262298
0.237335
0.212369
0.1874
0.162427
0.137449
0.112468
0.0874823
0.0624921
0.0374977
0.0124998
0.486763
0.46183
0.436896
0.41196
0.387021
0.36208
0.337135
0.312187
0.287236
0.262282
0.237323
0.212361
0.187395
0.162424
0.137448
0.112468
0.0874827
0.0624925
0.0374979
0.0124998
0.486744
0.461818
0.436887
0.411954
0.387017
0.362077
0.337134
0.312186
0.287236
0.262281
0.237323
0.212361
0.187394
0.162424
0.137448
0.112468
0.0874827
0.0624925
0.0374979
0.0124998
0.486798
0.46187
0.436937
0.411999
0.387058
0.362112
0.337163
0.312211
0.287256
0.262297
0.237335
0.212369
0.1874
0.162426
0.137449
0.112468
0.0874822
0.0624921
0.0374977
0.0124998
0.48697
0.46203
0.437082
0.412129
0.387172
0.362211
0.337247
0.312281
0.287313
0.262343
0.23737
0.212395
0.187417
0.162437
0.137455
0.11247
0.0874824
0.0624914
0.0374972
0.0124997
0.487443
0.462464
0.437472
0.412477
0.38748
0.36248
0.33748
0.31248
0.287479
0.262479
0.237479
0.212479
0.18748
0.162481
0.137483
0.112486
0.0874893
0.0624932
0.037497
0.0124996
0.484881
0.46526
0.438798
0.413953
0.388732
0.363606
0.338465
0.313336
0.288214
0.2631
0.237994
0.212897
0.187809
0.162732
0.137664
0.112608
0.0875634
0.0625308
0.0375105
0.0125019
0.590484
0.565196
0.539937
0.514703
0.587767
0.562688
0.53763
0.512588
0.587023
0.562011
0.537015
0.512031
0.586706
0.561724
0.536758
0.511802
0.586547
0.561585
0.536637
0.511698
0.586489
0.561537
0.536599
0.51167
0.586539
0.561585
0.536648
0.511721
0.586788
0.561798
0.53684
0.511902
0.587442
0.562396
0.53739
0.512409
0.631005
0.598955
0.566472
0.533519
11.0261
11.4865
11.9854
13.1248
4.44134
1.98491
1.74884
1.61148
1.51887
1.44669
1.38671
1.33469
1.28831
1.24611
1.20712
1.17064
1.13618
1.10336
1.07188
1.04149
1.01202
0.983298
0.955204
0.92763
0.900486
0.873699
0.847206
0.820955
0.794904
0.769017
0.743264
0.717621
0.692068
0.66659
0.641173
0.615808
10.13
11.2806
11.821
7.70843
2.52361
1.83249
1.68318
1.57142
1.4909
1.42481
1.36858
1.31904
1.27443
1.23356
1.19561
1.15999
1.12625
1.09406
1.06315
1.03328
1.00429
0.976018
0.948347
0.921172
0.894407
0.867978
0.841826
0.8159
0.790158
0.764566
0.739094
0.713719
0.688424
0.663192
0.638011
0.612873
9.71714
11.2304
8.57452
3.77206
1.99467
1.75035
1.63376
1.54089
1.46903
1.40797
1.35498
1.30771
1.26478
1.22522
1.18834
1.15362
1.12065
1.08912
1.05877
1.0294
1.00084
0.972939
0.945593
0.9187
0.892181
0.865967
0.840004
0.814244
0.788649
0.763187
0.737832
0.712564
0.687364
0.662221
0.637122
0.612058
8.95022
8.63108
4.85963
2.23102
1.85334
1.70225
1.60277
1.52123
1.45481
1.39732
1.34669
1.30109
1.2594
1.22079
1.18464
1.1505
1.11799
1.08683
1.05678
1.02765
0.999291
0.971564
0.944362
0.917593
0.891181
0.865063
0.839183
0.813499
0.787971
0.76257
0.737271
0.712052
0.686898
0.661796
0.636735
0.611708
7.62364
5.94825
2.93621
1.95424
1.79161
1.67372
1.58339
1.50869
1.4458
1.39075
1.34172
1.29724
1.25633
1.21828
1.18255
1.14871
1.11643
1.08546
1.05557
1.02657
0.998328
0.970703
0.943592
0.916905
0.890566
0.864512
0.838691
0.813058
0.787577
0.762218
0.736956
0.71177
0.686646
0.661571
0.636534
0.611528
6.44718
4.06207
2.20113
1.88766
1.76113
1.65527
1.57092
1.50048
1.43999
1.38659
1.33863
1.29485
1.25443
1.2167
1.1812
1.14755
1.11543
1.0846
1.05484
1.02596
0.997813
0.970274
0.943234
0.916604
0.890311
0.864294
0.8385
0.81289
0.787427
0.762083
0.736834
0.71166
0.686547
0.661482
0.636455
0.61146
5.58364
3.0561
2.03682
1.85942
1.74262
1.64288
1.56287
1.49524
1.43646
1.38414
1.33678
1.29333
1.25308
1.21551
1.1802
1.14677
1.11489
1.08429
1.05474
1.02605
0.998048
0.970612
0.943634
0.917032
0.890737
0.864697
0.838866
0.81321
0.787699
0.762307
0.737015
0.711803
0.686658
0.661568
0.636523
0.611516
4.92361
2.55363
1.98827
1.84487
1.72998
1.63476
1.55777
1.4918
1.43375
1.38169
1.3345
1.29149
1.25203
1.21544
1.18105
1.14836
1.11708
1.08691
1.05764
1.02909
1.00112
0.97362
0.946506
0.919711
0.893186
0.866891
0.840797
0.814878
0.789113
0.763486
0.73798
0.712581
0.687277
0.662054
0.636905
0.61182
4.43918
2.34821
1.96538
1.8357
1.72135
1.62969
1.55451
1.4895
1.43247
1.38215
1.33742
1.29675
1.25833
1.22101
1.18482
1.15067
1.11829
1.08733
1.05758
1.02879
1.00078
0.97341
0.946553
0.920089
0.893908
0.867921
0.84206
0.816287
0.79058
0.764931
0.739342
0.713819
0.688368
0.663005
0.637735
0.612551
4.09295
2.25987
1.95443
1.82943
1.71583
1.62681
1.55292
1.4893
1.43389
1.38397
1.33604
1.2875
1.23922
1.19651
1.16805
1.14366
1.11985
1.09706
1.0751
1.05357
1.03295
1.01356
0.994799
0.976035
0.956683
0.936305
0.914602
0.891419
0.866725
0.840611
0.813199
0.784651
0.755131
0.72487
0.694045
0.662734
115.309
121.46
127.309
130.006
148.22
149.28
151.441
154.357
146.643
147.077
148.662
154.42
146.412
147.154
149.251
154.674
146.118
146.823
148.942
154.606
145.86
146.565
148.733
154.431
145.609
146.291
148.434
154.203
145.371
146.031
148.115
153.982
145.143
145.784
147.803
153.762
144.924
145.551
147.522
153.544
144.714
145.332
147.283
153.327
144.512
145.126
147.085
153.118
144.317
144.938
146.916
152.935
144.135
144.769
146.784
152.778
143.971
144.623
146.693
152.653
143.814
144.503
146.651
152.563
143.662
144.419
146.667
152.511
143.512
144.389
146.753
152.502
143.388
144.427
146.928
152.547
143.312
144.563
147.217
152.658
143.32
144.838
147.652
152.85
143.466
145.32
148.273
153.143
143.856
146.097
149.119
153.553
144.654
147.28
150.222
154.069
146.067
149.001
151.621
154.664
148.414
151.428
153.379
155.239
152.069
154.75
155.556
155.92
157.457
159.166
158.224
156.691
165.032
164.9
161.461
157.578
175.223
172.098
165.263
158.664
188.236
180.761
169.573
159.814
204.09
190.779
174.305
160.966
222.433
201.886
179.327
162.087
242.619
213.697
184.469
163.153
263.724
225.718
189.546
164.14
284.721
237.386
194.353
165.027
304.544
248.173
198.706
165.797
322.218
257.626
202.462
166.442
337.006
265.419
205.529
166.961
348.429
271.369
207.861
167.356
356.256
275.415
209.456
167.636
360.481
277.593
210.352
167.811
361.248
278.009
210.562
167.923
358.868
276.819
210.084
168.033
353.676
274.167
208.958
168.143
346.033
270.202
207.257
168.255
336.303
265.061
205.047
168.367
324.835
258.874
202.393
168.482
311.942
251.755
199.355
168.6
297.896
243.805
195.994
168.722
282.923
235.119
192.37
168.848
267.216
225.798
188.557
168.981
250.964
215.981
184.65
169.122
234.422
205.899
180.793
169.275
218.024
195.949
177.202
169.443
202.555
186.778
174.158
169.635
189.121
179.171
172.015
169.862
179.07
174.041
170.974
170.174
173.254
171.729
171.213
171.245
172.834
173.25
174.177
176.397
3.85253
2.21424
1.95031
1.82532
1.71288
1.62592
1.55334
1.49081
1.43454
1.3805
1.32855
1.28663
1.26859
1.28323
1.37052
1.58606
2.02367
2.81379
4.15356
6.28499
9.46992
13.9498
19.8286
26.8187
34.1322
41.6026
49.0436
56.3468
63.4623
70.4089
77.1915
83.8368
90.3724
96.8785
103.316
109.491
3.68745
2.18919
1.94998
1.82325
1.71228
1.62712
1.55556
1.49237
1.43249
1.37616
1.33685
1.33218
1.4317
1.76852
2.53988
4.21813
7.84006
15.0078
25.9535
39.8585
55.6838
72.0409
87.554
101.185
112.569
122.11
129.661
135.156
139.322
142.345
144.559
146.09
147.038
147.465
147.534
147.749
3.57381
2.17593
1.95204
1.82327
1.71399
1.63019
1.55807
1.49061
1.42515
1.3767
1.36919
1.52047
2.0458
3.53379
7.82704
17.5656
33.598
54.6892
77.395
99.2403
118.254
133.185
143.84
150.707
154.574
156.212
156.288
155.455
154.24
152.647
150.698
148.823
147.41
146.696
146.483
146.456
3.49287
2.16978
1.95579
1.82533
1.71775
1.63431
1.55918
1.48578
1.42028
1.39478
1.47692
1.91812
4.15735
11.4615
26.9534
50.6955
79.0161
107.581
132.295
151.473
164.975
173.753
179.06
181.881
182.774
181.916
179.441
175.497
170.437
164.668
158.705
153.227
149.079
146.926
146.289
146.205
3.43344
2.1683
1.96099
1.82934
1.72314
1.63853
1.55854
1.48139
1.42802
1.4387
1.6164
3.85229
12.6145
31.6469
60.5732
94.9611
128.328
156.264
177.258
192.187
202.491
209.217
212.75
213.179
210.759
206.086
199.67
191.947
183.338
174.283
165.307
157.122
150.7
147.107
146.118
145.934
3.38914
2.17018
1.96751
1.83513
1.72968
1.64221
1.55646
1.48012
1.45373
1.55218
2.52969
10.4914
30.162
61.9261
101.008
139.709
172.243
197.116
215.479
228.708
237.279
241.247
241.009
237.487
231.471
223.548
214.207
203.858
192.884
181.682
170.728
160.672
152.483
147.434
145.943
145.698
3.3561
2.17461
1.97531
1.84246
1.73681
1.64503
1.55522
1.49076
1.49328
1.66106
6.17222
23.5282
54.9727
97.0097
141.13
179.691
210.048
233.225
250.416
261.666
266.942
267.074
263.402
256.82
248.116
237.844
226.409
214.142
201.371
188.47
175.892
164.25
154.483
147.966
145.797
145.475
3.33181
2.18111
1.98434
1.85111
1.7443
1.64776
1.55683
1.50957
1.57208
2.5212
13.7935
41.7951
83.6119
132.075
177.423
214.621
243.905
266.514
282.235
290.695
292.737
289.852
283.26
274.065
263.068
250.795
237.58
223.672
209.341
194.934
180.9
167.833
156.611
148.675
145.674
145.268
3.31451
2.18933
1.99452
1.86083
1.75185
1.65058
1.56554
1.54264
1.64974
5.26948
25.3942
63.2069
112.831
164.408
209.404
245.977
275.501
297.972
312.319
318.628
318.126
312.35
302.827
290.895
277.485
263.154
248.179
232.711
216.921
201.101
185.699
171.31
158.774
149.491
145.566
145.07
3.30288
2.19904
2.00578
1.8714
1.75966
1.65563
1.58043
1.57605
1.71902
10.2104
39.5504
85.6778
140.484
193.201
237.941
275.294
306.273
329.495
343.509
348.394
345.381
336.389
323.431
308.212
291.927
275.229
258.344
241.282
224.065
206.889
190.176
174.541
160.817
150.33
145.465
144.88
3.29598
2.21005
2.01802
1.88273
1.76816
1.66315
1.5976
1.63249
2.35276
17.3517
54.9473
107.626
165.574
218.719
264.207
303.984
337.973
363.45
378.177
381.848
376.007
363.144
345.903
326.56
306.707
287.16
268.092
249.328
230.677
212.183
194.214
177.402
162.604
151.087
145.358
144.693
3.29304
2.22221
2.03114
1.89476
1.77758
1.67375
1.62262
1.67855
3.90864
26.0194
70.5068
128.101
187.901
241.643
289.323
333.421
372.364
401.632
417.717
420.133
410.933
393.31
370.728
346.232
321.964
298.974
277.379
256.763
236.649
216.868
197.7
179.783
164.02
151.653
145.236
144.505
3.29344
2.23539
2.04506
1.90751
1.7882
1.68698
1.65009
1.72124
6.31366
35.2859
85.479
146.665
207.682
262.71
314.258
364.78
410.648
444.892
462.709
463.711
450.503
427.123
398.042
367.274
337.671
310.6
286.112
263.483
241.873
220.836
200.53
181.59
164.974
151.932
145.085
144.313
3.29667
2.24947
2.05973
1.92094
1.79988
1.7042
1.67835
1.76418
9.41086
44.5627
99.3902
163.182
225.245
282.528
339.73
398.76
453.208
493.235
513.001
512.335
494.436
464.312
427.59
389.445
353.613
321.857
294.144
269.368
246.243
223.986
202.608
182.738
165.39
151.859
144.895
144.115
3.30233
2.26438
2.07508
1.93506
1.81285
1.72395
1.70733
1.80721
13.0044
53.449
111.982
177.686
240.905
301.503
366.076
435.418
499.627
545.915
567.69
565.031
541.815
504.075
458.702
412.208
369.38
332.453
301.276
274.28
249.651
226.222
203.849
183.153
165.212
151.413
144.636
143.916
3.31011
2.28001
2.09104
1.94992
1.82738
1.74321
1.73483
1.85777
16.8842
61.694
123.166
190.329
254.958
319.87
393.269
474.227
548.841
601.541
625.186
620.181
591.141
545.114
490.319
434.743
384.38
341.994
307.268
278.072
251.994
227.461
204.176
182.775
164.413
150.575
144.313
143.716
3.31972
2.29629
2.10759
1.96555
1.84315
1.76218
1.77211
2.11125
20.9129
69.1603
132.965
201.303
267.652
337.734
421.013
514.264
599.369
658.252
683.401
675.688
640.485
585.755
521.071
456.006
397.886
350.027
311.858
280.593
253.172
227.623
203.528
181.559
162.96
149.373
143.965
143.515
3.33094
2.31316
2.12467
1.98191
1.85995
1.78395
1.80514
2.50627
24.7384
75.7935
141.453
210.802
279.173
355.082
448.856
554.456
649.564
713.95
739.963
729.184
687.707
624.125
549.416
474.834
409.116
356.084
314.794
281.711
253.103
226.649
201.856
179.467
160.86
147.902
143.648
143.319
3.34355
2.33055
2.14225
1.99894
1.87772
1.80712
1.8343
2.98634
28.2312
81.5941
148.735
219.003
289.644
371.817
476.294
593.757
697.82
766.512
792.441
778.272
730.682
658.347
573.796
490.07
417.319
359.743
315.867
281.318
251.724
224.492
199.117
176.491
158.159
146.382
143.407
143.128
3.35738
2.34841
2.16029
2.0166
1.89636
1.83081
1.86221
3.50493
31.342
86.5965
154.926
226.054
299.137
387.774
502.765
631.144
742.635
813.979
838.616
820.81
767.515
686.727
592.799
500.691
421.874
360.69
314.931
279.355
249.016
221.115
195.294
172.656
154.965
144.943
143.127
142.953
3.37228
2.36669
2.17875
2.03484
1.91573
1.85466
1.88978
4.02506
34.0551
90.851
160.138
232.082
307.681
402.742
527.71
665.735
782.805
854.801
876.884
855.253
796.725
707.884
605.289
505.93
422.374
358.744
311.958
275.855
244.959
216.493
190.393
168.034
151.469
143.752
142.833
142.839
3.38812
2.38535
2.19759
2.05361
1.93572
1.87858
1.91715
4.51872
36.3729
94.413
164.472
237.185
315.278
416.506
550.613
696.635
817.086
888.169
906.348
880.878
817.336
720.84
610.508
505.359
418.653
353.943
307.063
270.858
239.549
210.623
184.462
162.773
148.007
142.966
142.613
142.755
3.40477
2.40435
2.21678
2.07285
1.95623
1.90254
1.94433
4.96667
38.3109
97.3415
168.021
241.447
321.916
428.847
570.992
723.569
846.88
913.118
925.493
897.672
828.872
725.065
608.162
498.934
410.825
346.545
300.427
264.436
232.794
203.529
177.612
157.133
145.219
142.649
142.449
142.728
3.42214
2.42365
2.23629
2.09254
1.97718
1.92653
1.97132
5.35649
39.8918
99.6951
170.867
244.933
327.573
439.565
588.507
746.093
869.177
924.167
932.335
905.963
831.257
720.553
598.364
486.846
399.379
336.975
292.292
256.668
224.712
195.284
170.048
151.562
143.267
142.334
142.377
142.935
3.44015
2.44322
2.25609
2.11261
1.99849
1.95053
1.99813
5.68127
41.1413
101.529
173.082
247.701
332.228
448.5
602.867
763.712
884.325
928.201
930.64
906.407
824.851
707.488
581.422
469.859
385.073
325.767
282.903
247.613
215.342
186.041
162.128
146.798
142.292
142.158
142.393
143.619
3.45872
2.46304
2.27615
2.13303
2.02013
1.97455
2.02476
5.93833
42.0865
102.895
174.728
249.799
335.869
455.526
613.841
776.265
893.145
929.593
929.601
899.859
809.651
686.29
558.295
449.059
368.833
313.462
272.452
237.31
204.778
176.086
154.431
143.577
142.06
142.109
142.824
145.172
3.47777
2.48307
2.29645
2.15376
2.04204
1.99857
2.05123
6.12817
42.7543
103.838
175.86
251.27
338.491
460.561
621.279
783.556
896.497
930.426
927.736
886.082
786.129
657.982
530.284
425.776
351.627
300.514
261.04
225.796
193.214
165.902
147.849
141.961
141.929
142.256
144.32
148.149
3.49727
2.50331
2.31696
2.17478
2.06419
2.02261
2.07753
6.25376
43.1704
104.401
176.525
252.153
340.107
463.569
625.09
785.792
894.498
931.826
921.988
863.607
754.984
623.929
498.982
401.446
334.316
287.195
248.683
213.16
181.014
156.256
143.626
141.773
141.943
143.478
147.795
153.226
3.51718
2.52373
2.33767
2.19604
2.08655
2.04666
2.10369
6.31801
43.3606
104.62
176.77
252.489
340.732
464.557
625.471
783.058
886.733
925.366
905.802
832.483
717.721
585.756
466.141
377.431
317.501
273.571
235.363
199.614
168.794
148.29
141.641
141.704
142.619
146.88
154.113
161.129
3.53741
2.54432
2.35857
2.21753
2.1091
2.07072
2.12965
6.34167
43.3426
104.527
176.612
252.299
340.443
463.694
622.502
775.445
873.111
907.04
876.129
794.952
675.978
545.191
433.548
354.828
301.434
259.537
221.116
185.576
157.499
143.418
141.484
142.009
145.513
154.098
164.656
172.73
3.55795
2.56506
2.37963
2.23923
2.13182
2.09479
2.15536
6.34004
43.1294
104.149
176.083
251.614
339.308
461.111
616.389
763.283
854.933
874.072
840.911
753.822
631.053
504.109
402.854
334.292
286.013
244.933
206.136
171.745
148.504
141.303
141.566
143.797
152.415
166.483
180.437
188.593
3.57875
2.58594
2.40085
2.26112
2.15467
2.11889
2.18084
6.3175
42.7419
103.515
175.215
250.472
337.395
456.958
607.437
746.975
833.877
849.75
804.333
708.666
584.451
464.549
375.306
315.935
270.89
229.69
190.859
159.144
143.119
141.165
142.362
149.329
165.481
185.784
202.457
209.111
3.59981
2.60696
2.42219
2.28315
2.17774
2.143
2.20611
6.27732
42.2021
102.652
174.042
248.914
334.782
451.416
596.029
727.145
806.97
815.614
760.71
661.21
538.455
428.264
351.526
299.385
255.676
213.961
175.984
149.175
140.836
141.434
145.655
160.998
186.259
212.862
230.91
234.059
3.62088
2.6283
2.44362
2.30533
2.201
2.16714
2.23121
6.22253
41.532
101.586
172.593
246.979
331.549
444.687
582.604
704.637
774.632
773.888
715.437
613.965
494.64
396.479
331.5
283.975
240.143
198.172
162.457
143.13
140.715
142.707
154.054
180.819
216.01
247.944
265.314
262.655
3.64196
2.64996
2.46512
2.32764
2.22437
2.1913
2.25616
6.15601
40.753
100.342
170.902
244.713
327.785
436.992
567.633
680.304
740.193
732.399
671.485
567.715
454.481
369.969
314.617
269.006
224.378
182.983
151.414
140.314
140.98
146.964
170.041
209.699
254.432
289.866
304.166
293.545
3.66305
2.67191
2.4867
2.35006
2.24783
2.2155
2.28098
6.08042
39.8854
98.9449
168.998
242.157
323.581
428.556
551.599
654.961
705.315
692.517
628.873
523.318
419.488
348.755
299.868
254.032
208.798
169.168
144.328
139.961
142.262
157.046
194.833
247.376
299.972
336.449
345.368
325.14
3.68417
2.69411
2.50836
2.37259
2.27138
2.23974
2.30572
5.99822
38.9484
97.4179
166.913
239.356
319.027
419.604
534.965
629.357
671.074
655.184
587.695
482.034
390.707
332.076
286.228
239.036
194.028
157.503
140.21
139.855
146.101
174.498
227.462
291.623
349.715
384.729
386.28
355.629
3.7053
2.71652
2.53008
2.39521
2.29502
2.26402
2.33038
5.91165
37.9601
95.7847
164.677
236.355
314.212
410.345
518.158
604.151
638.365
620.749
547.895
445.307
368.423
318.673
273.024
224.389
180.706
148.611
138.565
140.721
155.244
199.533
266.347
339.41
400.172
431.523
424.564
383.397
3.72646
2.73911
2.55186
2.41791
2.31873
2.28834
2.355
5.8227
36.9373
94.0685
162.322
233.197
309.221
400.975
501.556
579.881
608.085
588.999
509.712
414.547
352.04
307.227
260.112
210.664
169.322
142.958
138.433
143.004
169.515
229.41
307.868
386.8
447.723
473.928
458.177
407.127
3.74765
2.76185
2.57371
2.4407
2.3425
2.31271
2.3796
5.73316
35.8958
92.2919
159.876
229.926
304.136
391.671
485.495
556.965
581.112
559.206
473.937
390.704
340.245
296.813
247.808
198.402
160.127
139.522
138.398
147.544
189.018
262.327
348.461
430.136
489.22
509.611
485.49
425.846
3.76886
2.78471
2.59561
2.46355
2.36635
2.33714
2.4042
5.64457
34.8498
90.4774
157.371
226.587
299.036
382.597
470.273
535.73
558.164
530.411
441.985
373.867
331.475
287.134
236.654
187.973
153.085
137.65
138.604
155.552
211.601
294.23
384.319
466.458
521.884
536.771
505.563
439.003
3.7901
2.80767
2.61757
2.48646
2.39025
2.36161
2.42882
5.55829
33.8122
88.6467
154.838
223.224
293.997
373.901
456.153
516.443
539.583
501.572
415.653
363.139
324.483
278.456
227.166
179.548
148.011
136.839
139.368
166.074
233.572
321.776
412.938
493.692
542.244
550.06
516.974
446.403
3.81137
2.8307
2.63957
2.50943
2.41421
2.38614
2.45349
5.47545
32.7948
86.8208
152.305
219.881
289.093
365.715
443.343
499.357
524.986
472.749
396.71
356.89
318.739
271.337
219.717
173.166
144.715
136.652
140.525
177.314
252.498
342.777
432.67
510.324
552.143
556.925
520.668
448.072
3.83267
2.85377
2.66162
2.53243
2.43821
2.41072
2.47822
5.39699
31.8078
85.0197
149.803
216.601
284.391
358.147
431.987
484.716
513.246
445.165
385.444
353.344
314.427
266.317
214.549
168.815
142.722
136.566
141.819
187.457
266.331
355.919
442.738
515.905
554.372
554.359
516.862
444.495
3.85399
2.87687
2.68371
2.55548
2.46226
2.43537
2.50302
5.32367
30.8597
83.2619
147.359
213.424
279.949
351.278
422.162
472.761
502.435
421.319
380.582
351.42
312.04
263.745
211.843
166.472
141.665
136.499
142.925
194.365
273.679
360.796
443.135
510.612
547.56
545.661
506.212
436.253
3.87535
2.89997
2.70584
2.57855
2.48636
2.46006
2.52792
5.25606
29.9578
81.564
144.998
210.387
275.818
345.164
413.893
463.597
492.599
404.42
379.656
350.994
311.971
263.832
211.775
166.163
141.325
136.44
143.43
196.473
274.206
357.598
434.375
496.063
530.438
528.245
489.686
424.02
3.89673
2.92305
2.728
2.60165
2.51048
2.48481
2.55292
5.19458
29.1077
79.9405
142.743
207.521
272.037
339.843
407.18
457.041
486.28
395.639
380.326
352.494
314.419
266.786
214.576
168.016
141.645
136.374
142.978
193.294
268.158
347.096
418.002
474.036
505.098
503.461
468.507
408.514
3.91813
2.94609
2.75018
2.62477
2.53464
2.50962
2.57803
5.13948
28.3136
78.4035
140.612
204.853
268.638
335.337
401.999
453.223
472.277
393.817
382.397
356.127
319.44
272.763
220.535
172.411
142.815
136.311
141.048
185.843
256.356
330.46
395.507
446.225
474.64
474.111
443.878
390.439
3.93956
2.96907
2.77239
2.6479
2.55885
2.53448
2.60327
5.0909
27.5782
76.9628
138.623
202.406
265.645
331.654
398.355
451.219
450.509
395.69
386.141
361.801
327
281.807
229.887
179.931
145.594
136.262
138.385
174.876
239.666
308.926
368.611
414.501
440.896
441.989
416.884
370.448
3.96101
2.99199
2.79461
2.67104
2.58294
2.55939
2.62863
5.04887
26.9032
75.6258
136.787
200.197
263.075
328.795
396.127
450.726
431.79
399.336
391.411
369.409
336.966
293.852
242.783
191.113
151.284
136.356
135.771
161.917
219.286
283.74
338.917
380.544
405.416
408.407
388.47
349.12
3.98249
3.01482
2.81685
2.69418
2.60694
2.58434
2.65413
5.01331
26.289
74.3979
135.115
198.24
260.94
326.759
395.695
449.017
420.074
404.965
398.109
378.762
349.089
308.671
259.22
206.339
160.982
137.791
134.189
149.193
196.709
256.034
307.789
345.82
369.459
374.425
359.431
326.941
4.00398
3.03756
2.83909
2.71732
2.63091
2.60934
2.67977
4.98407
25.7352
73.2821
133.613
196.543
259.243
325.515
396.954
445.875
414.977
411.719
406.135
389.626
363.042
325.87
278.976
226.17
176.01
142.543
134.114
139.605
173.912
226.888
276.206
311.574
334.019
340.908
330.406
304.304
4.02549
3.0602
2.86135
2.74046
2.65486
2.63437
2.70554
4.96094
25.2406
72.2797
132.285
195.112
257.984
325.132
399.414
442.201
416.147
418.907
415.341
401.75
378.455
344.943
301.44
250.215
197.319
153.855
134.519
133.631
153.519
197.592
244.699
278.807
299.897
308.483
301.894
281.533
4.04701
3.08273
2.88361
2.76359
2.67879
2.65944
2.73144
4.94366
24.8032
71.3904
131.133
193.947
257.158
325.668
402.636
438.862
418.363
427.055
425.515
414.903
394.97
365.349
325.875
277.58
224.2
174.009
140.431
131.663
138.844
170.073
213.515
248.114
267.977
277.551
274.326
258.936
4.06855
3.10516
2.90586
2.78671
2.70272
2.68455
2.75749
4.93192
24.4206
70.6124
130.154
193.046
256.755
327.13
406.223
436.015
422.293
435.948
436.539
428.89
412.291
386.591
351.498
307.275
255.771
202.154
156.33
132.923
131.002
147.232
183.26
219.232
239.452
248.623
248.193
236.936
4.09009
3.12747
2.92812
2.80982
2.72663
2.70969
2.78366
4.92539
24.0902
69.9424
129.347
192.404
256.765
329.554
409.972
433.965
428.302
445.39
448.307
443.57
430.218
408.312
377.609
338.027
290.191
236.876
184.728
144.681
129.183
132.727
155.897
190.96
214.992
223.15
224.185
216.339
4.11165
3.14967
2.95038
2.83292
2.75053
2.73486
2.80996
4.92372
23.8087
69.3765
128.706
192.014
257.188
332.982
413.65
433.371
435.681
455.311
460.708
458.83
448.618
430.302
403.765
368.909
325.75
275.22
220.835
170.597
136.953
127.364
135.294
162.956
192.486
203.361
203.432
198.447
4.13321
3.17176
2.97262
2.85601
2.77439
2.76006
2.83637
4.92655
23.5731
68.9098
128.224
191.858
258.042
337.236
416.552
434.218
443.985
465.669
473.634
474.56
467.388
452.465
429.762
399.298
361.055
315.202
262.884
207.986
159.401
131.509
126.424
138.568
167.608
188.705
187.914
184.769
4.15475
3.19372
2.99487
2.87909
2.79839
2.78529
2.8629
4.93349
23.3794
68.536
127.894
191.92
259.339
342.074
419.11
436.428
452.918
476.413
486.972
490.621
486.396
474.719
455.593
429.084
395.257
354.252
306.454
253.143
198.195
150.721
126.421
124.61
140.921
170.664
180.007
175.913
4.17658
3.21572
3.0171
2.90215
2.82243
2.81055
2.88963
4.94429
23.2255
68.252
127.712
192.195
261.103
347.266
421.63
439.893
462.303
487.488
500.587
506.845
505.459
496.883
481.165
458.357
428.506
391.763
348.479
299.322
245.727
191.39
144.901
121.911
121.411
143.181
174.147
173.413
4.19366
3.23444
3.03693
2.92272
2.84408
2.83312
2.91107
4.95557
23.1152
68.0603
127.652
192.586
263.013
352.003
423.9
443.804
470.891
497.532
512.837
521.336
522.379
516.417
503.574
483.908
457.431
424.196
384.461
338.83
288.372
234.922
182.081
137.54
115.986
118.187
145.669
173.22
4.21054
3.25139
3.05436
2.94079
2.86366
2.85297
2.93203
4.96816
23.04
67.9426
127.683
193.054
264.976
356.17
426.109
447.872
478.578
506.476
523.66
534.051
537.125
533.322
522.821
505.722
482.049
451.804
415.088
372.292
324.311
272.744
220.055
170.124
129.837
111.265
117.969
153.888
4.22721
3.26829
3.07179
2.95886
2.88284
2.87285
2.95303
4.98234
22.9825
67.8664
127.784
193.627
267.172
360.299
428.522
452.413
486.335
515.482
534.491
546.712
551.737
549.982
541.657
526.916
505.823
478.387
444.627
404.742
359.328
309.598
257.558
206.181
159.666
123.868
106.042
102.843
102.746
102.227
102.261
102.455
110.795
104.339
101.972
101.403
128.843
111.48
103.18
101.223
151.578
123.198
105.97
101.122
174.865
137.108
110.46
101.045
196.624
151.018
115.778
100.98
216.191
164.155
121.281
100.923
233.42
176.027
126.626
100.87
248.492
186.536
131.617
100.822
261.662
195.748
136.176
100.776
273.193
203.796
140.288
100.732
283.32
210.827
143.973
100.69
292.246
216.983
147.266
100.649
300.138
222.388
150.206
100.609
307.137
227.146
152.832
100.57
313.357
231.346
155.177
100.531
318.894
235.061
157.273
100.494
323.826
238.351
159.146
100.456
328.219
241.266
160.819
100.419
332.128
243.848
162.31
100.383
335.598
246.131
163.636
100.346
338.667
248.142
164.809
100.311
341.363
249.902
165.839
100.275
343.705
251.425
166.733
100.24
345.702
252.718
167.492
100.205
347.356
253.785
168.118
100.17
348.662
254.624
168.609
100.136
349.61
255.23
168.961
100.101
350.186
255.595
169.168
100.066
350.371
255.709
169.225
100.031
350.146
255.558
169.132
99.9949
349.49
255.124
168.907
99.9291
348.373
254.387
168.536
99.8313
346.761
253.326
168.008
99.6977
344.615
251.915
167.311
99.5264
341.888
250.128
166.434
99.3142
338.531
247.932
165.359
99.0576
334.484
245.293
164.072
98.7526
329.686
242.173
162.554
98.3951
324.068
238.531
160.787
97.9803
317.561
234.328
158.749
97.5032
310.1
229.526
156.421
96.9581
301.609
224.084
153.78
96.3374
292.014
217.963
150.806
95.6289
281.249
211.129
147.482
94.8302
269.257
203.557
143.791
93.9342
256.003
195.234
139.717
92.9324
241.462
186.133
135.231
91.8125
225.603
176.206
130.296
90.5583
208.41
165.41
124.875
89.1495
189.917
153.705
118.913
87.5474
170.218
141.057
112.322
85.6691
149.462
127.446
105.003
83.3818
127.882
112.896
96.8691
80.5801
105.823
97.485
87.8941
77.4405
83.7694
81.3351
78.0886
74.2316
62.3467
64.576
67.2653
70.434
42.8821
47.991
55.2769
66.0085
26.4917
32.4504
41.7342
59.232
13.6079
18.6761
27.1276
53.2813
4.24845
3.28829
3.09161
2.9794
2.90362
2.89547
2.97943
5.00176
22.938
67.8314
127.983
194.416
269.954
365.002
431.536
458.106
495.225
525.791
546.804
561.029
568.172
568.619
562.573
550.256
531.79
507.228
476.567
439.89
397.571
350.439
299.929
248.266
198.714
155.608
123.678
107.133
4.26994
3.31006
3.11381
3.00243
2.92741
2.92083
3.00651
5.02415
22.9084
67.8441
128.288
195.445
273.348
370.237
435.14
464.938
505.183
537.337
560.52
576.928
586.371
589.165
585.479
575.593
559.709
537.968
510.405
477.049
438.094
394.054
345.943
295.384
244.739
197.175
156.469
126.702
4.29135
3.33171
3.13601
3.02545
2.95143
2.94622
3.03355
5.04797
22.8966
67.9037
128.665
196.613
276.978
375.394
438.969
472.115
515.074
548.814
574.102
592.653
604.341
609.383
607.887
600.119
586.378
566.928
541.931
511.461
475.583
434.53
388.965
340.138
289.877
240.487
194.803
156.485
4.31274
3.35334
3.1582
3.04846
2.9755
2.97162
3.06062
5.07289
22.8987
68.0014
129.101
197.905
280.789
380.436
443.011
479.518
524.844
560.17
587.519
608.219
622.175
629.456
630.045
624.155
612.162
594.471
571.437
543.272
510.008
471.65
428.491
381.372
331.752
281.541
232.977
188.762
4.33411
3.37495
3.18038
3.07148
2.99958
2.99703
3.08771
5.09848
22.9105
68.127
129.582
199.302
284.718
385.335
447.237
487.033
534.44
571.353
600.751
623.653
639.95
649.509
652.147
647.975
637.411
620.992
599.3
572.75
541.459
505.334
464.339
418.845
369.858
318.966
268.106
219.371
4.35548
3.39657
3.20257
3.09451
3.02368
3.02245
3.11481
5.12429
22.928
68.2697
130.093
200.782
288.703
390.069
451.606
494.557
543.81
582.317
613.78
638.977
657.73
669.667
674.395
671.875
662.512
646.964
626.03
600.372
570.302
535.762
496.503
452.45
404.072
352.544
299.57
247.001
4.37685
3.41819
3.22477
3.11754
3.04778
3.04787
3.1419
5.14989
22.9467
68.4192
130.618
202.318
292.68
394.619
456.068
501.997
552.905
593.02
626.591
654.202
675.565
690.036
696.962
696.11
687.811
672.818
652.124
626.669
597.043
563.345
525.25
482.329
434.5
382.405
327.455
271.452
4.39823
3.43982
3.24697
3.14058
3.07189
3.0733
3.16896
5.17483
22.9612
68.5648
131.141
203.88
296.589
398.966
460.565
509.268
561.68
603.422
639.164
669.33
693.493
710.702
719.996
720.889
713.59
698.91
678.01
652.135
622.209
588.584
550.997
508.79
461.38
408.811
352.079
292.945