/*--------------------------------*- C++ -*----------------------------------*\
| =========                 |                                                 |
| \\      /  F ield         | OpenFOAM: The Open Source CFD Toolbox           |
|  \\    /   O peration     | Version:  v2012                                 |
|   \\  /    A nd           | Website:  www.openfoam.com                      |
|    \\/     M anipulation  |                                                 |
\*---------------------------------------------------------------------------*/
FoamFile
{
    version     2.0;
    format      ascii;
    class       volScalarField;
    location    "626";
    object      k;
}
// * * * * * * * * * * * * * * * * * * * * * * * * * * * * * * * * * * * * * //

dimensions      [0 2 -2 0 0 0 0];


internalField   nonuniform List<scalar> 
6108
(
0.0456969
0.0493223
0.0534309
0.058119
0.0635088
0.0697587
0.0770765
0.0857406
0.0961316
0.108783
0.124464
0.144316
0.170102
0.204665
0.252822
0.323273
0.432926
0.617785
0.963612
1.70527
0.111984
0.121087
0.131363
0.143034
0.156378
0.171745
0.18959
0.210502
0.235266
0.264943
0.300998
0.345499
0.401446
0.473303
0.567934
0.696234
0.876098
1.1378
1.53317
2.14659
0.149065
0.16115
0.174774
0.190216
0.207825
0.228038
0.251406
0.278641
0.310669
0.348714
0.394422
0.45005
0.518749
0.605007
0.715364
0.859556
1.05238
1.31679
1.68898
2.22728
0.170703
0.184514
0.200068
0.217673
0.237711
0.260654
0.287093
0.317781
0.353678
0.396037
0.446506
0.507291
0.5814
0.673005
0.788031
0.935092
1.12709
1.38405
1.73864
2.24821
0.180955
0.195573
0.212028
0.23064
0.251802
0.275999
0.303835
0.336069
0.373666
0.417865
0.470283
0.533053
0.609045
0.702202
0.818074
0.964739
1.15443
1.40663
1.75433
2.25724
0.180995
0.195603
0.21205
0.230657
0.251815
0.276008
0.303842
0.336074
0.373669
0.417868
0.470285
0.533054
0.609046
0.702202
0.818075
0.964739
1.15443
1.40663
1.75433
2.25724
0.170818
0.1846
0.200132
0.217721
0.237746
0.260678
0.287111
0.317793
0.353688
0.396044
0.446511
0.507295
0.581402
0.673007
0.788032
0.935093
1.12709
1.38405
1.73864
2.24821
0.149236
0.161278
0.174867
0.190283
0.207873
0.228072
0.251431
0.27866
0.310682
0.348723
0.394429
0.450056
0.518752
0.605009
0.715366
0.859558
1.05238
1.31679
1.68898
2.22728
0.112164
0.121229
0.131462
0.143105
0.156429
0.171783
0.189618
0.210522
0.235281
0.264954
0.301006
0.345505
0.40145
0.473306
0.567936
0.696236
0.876099
1.1378
1.53317
2.14659
0.045757
0.0493652
0.0534619
0.0581416
0.0635254
0.0697709
0.0770855
0.0857471
0.0961364
0.108787
0.124466
0.144318
0.170104
0.204666
0.252823
0.323274
0.432926
0.617785
0.963612
1.70527
0.0346983
0.0370245
0.039604
0.042478
0.084185
0.0900857
0.0966163
0.103876
0.112097
0.119947
0.128634
0.138289
0.128414
0.137395
0.147335
0.15838
0.136185
0.145693
0.156216
0.167909
0.136288
0.145779
0.156285
0.167963
0.128704
0.137644
0.147535
0.158533
0.11251
0.120325
0.128938
0.138519
0.0850706
0.0906508
0.0969961
0.104149
0.0407557
0.0404137
0.0410918
0.0427813
0.000965938
0.000860547
0.00086047
0.00110021
0.00200184
0.0030098
0.00394559
0.00482512
0.0056332
0.00640325
0.00715221
0.00788821
0.00861664
0.00934144
0.0100658
0.0107925
0.0115243
0.0122638
0.013014
0.013778
0.0145594
0.015362
0.0161903
0.0170491
0.0179441
0.0188812
0.0198675
0.0209106
0.022019
0.0232025
0.0244717
0.0258388
0.0273174
0.0289232
0.0306742
0.0325911
0.0016961
0.00209132
0.0034429
0.00528138
0.00671185
0.00791918
0.00919268
0.0107
0.0123251
0.0139241
0.0155179
0.0171178
0.0187314
0.0203653
0.0220255
0.023718
0.0254486
0.0272231
0.0290471
0.0309268
0.0328688
0.0348809
0.0369717
0.0391515
0.0414316
0.0438254
0.0463486
0.0490188
0.0518565
0.0548849
0.0581309
0.0616242
0.0653988
0.0694939
0.0739542
0.0788313
0.00257148
0.00489035
0.00662254
0.00837673
0.00987418
0.0114989
0.0135316
0.015871
0.0182245
0.0204947
0.0226967
0.0248438
0.0269552
0.0290506
0.0311493
0.0332693
0.0354267
0.0376365
0.0399121
0.0422658
0.0447099
0.0472565
0.0499184
0.0527097
0.0556461
0.0587455
0.0620284
0.0655181
0.0692411
0.0732275
0.0775115
0.0821321
0.0871341
0.0925684
0.0984934
0.104977
0.00382659
0.00744064
0.00926705
0.0109468
0.0127193
0.0149683
0.0177137
0.0206366
0.0234572
0.0261166
0.0286248
0.0310083
0.0333032
0.0355465
0.0377729
0.0400132
0.0422942
0.0446387
0.0470661
0.0495933
0.0522356
0.055008
0.0579253
0.0610038
0.0642614
0.0677183
0.0713975
0.0753251
0.0795306
0.0840478
0.0889149
0.0941755
0.0998796
0.106084
0.112855
0.120269
0.00518664
0.00983171
0.0116087
0.0133733
0.0155636
0.0183998
0.0216467
0.0249099
0.0279681
0.0307836
0.033373
0.0357786
0.0380528
0.0402477
0.042411
0.0445838
0.0468008
0.0490904
0.0514756
0.0539761
0.0566089
0.0593901
0.0623361
0.0654643
0.0687941
0.0723474
0.0761489
0.0802264
0.0846112
0.0893387
0.0944489
0.0999868
0.106004
0.112559
0.119719
0.127564
0.00636472
0.0119274
0.0138052
0.0157939
0.0184239
0.0217052
0.0252368
0.0286406
0.0317493
0.0345401
0.0370424
0.0393132
0.0414183
0.0434216
0.0453807
0.047344
0.0493514
0.051434
0.0536166
0.0559191
0.0583585
0.0609509
0.0637131
0.0666635
0.0698231
0.0732156
0.076868
0.0808104
0.0850764
0.089703
0.0947309
0.100205
0.106177
0.112702
0.119845
0.127679
0.00726628
0.0138005
0.0159098
0.0182077
0.0212178
0.0247793
0.0284149
0.0318002
0.0348101
0.0374362
0.039722
0.0417374
0.0435591
0.0452608
0.0469074
0.0485525
0.0502379
0.0519946
0.0538448
0.0558047
0.0578873
0.0601051
0.0624724
0.0650066
0.0677295
0.0706675
0.0738514
0.0773168
0.0811031
0.0852529
0.0898119
0.0948282
0.100353
0.106442
0.113158
0.120571
0.00804862
0.0154642
0.0179197
0.0205573
0.0238551
0.0275438
0.0311432
0.0343837
0.0371764
0.0395288
0.0414985
0.0431678
0.0446247
0.0459528
0.0472244
0.0484968
0.0498118
0.0511956
0.0526619
0.0542156
0.0558566
0.0575843
0.059401
0.0613145
0.0633403
0.065502
0.0678324
0.0703726
0.0731746
0.0762993
0.0798126
0.083779
0.0882607
0.0933196
0.0990157
0.105409
0.00872567
0.0169462
0.0198169
0.0227798
0.0262641
0.0299566
0.0334082
0.0364048
0.038887
0.0408829
0.0424659
0.0437338
0.0447903
0.0457334
0.0466468
0.0475944
0.0486173
0.0497341
0.0509432
0.0522283
0.0535636
0.0549199
0.0562695
0.0575897
0.0588658
0.060093
0.0612781
0.0624408
0.0636164
0.0648567
0.0662821
0.0680237
0.0701966
0.0729243
0.0762753
0.0802813
0.00930176
0.0182811
0.0215839
0.0248255
0.028401
0.0319968
0.0352156
0.0378889
0.0399905
0.0415731
0.0427317
0.043587
0.044267
0.0448925
0.0455651
0.0463582
0.0473119
0.0484328
0.0496988
0.0510666
0.0524804
0.0538795
0.0552036
0.0563944
0.0573957
0.0581504
0.0585974
0.0586676
0.0582822
0.0573538
0.0557981
0.0535221
0.0504206
0.0472221
0.0443667
0.0421329
0.0321201
0.0231555
0.0150332
0.00806003
0.00980691
0.00578952
0.00329089
0.00136828
0.00496357
0.00360301
0.00246994
0.00102973
0.00421956
0.00338196
0.0024168
0.000961812
0.0041969
0.00345348
0.00248303
0.000966303
0.0043355
0.00359402
0.00260087
0.00100342
0.00452788
0.00377176
0.00274084
0.00106424
0.0047491
0.00397469
0.00290341
0.00113393
0.00498968
0.00419628
0.00308399
0.00121163
0.00524494
0.00443268
0.00327894
0.00129773
0.00551222
0.00468165
0.00348595
0.00139418
0.00578975
0.00494182
0.00370595
0.00150274
0.00607847
0.00521611
0.00393908
0.00161814
0.006378
0.00550169
0.00418268
0.00173982
0.00668556
0.0057968
0.00443552
0.00186685
0.00699879
0.00609983
0.00469653
0.00199871
0.00731499
0.00640881
0.0049643
0.00213474
0.00763087
0.00672108
0.00523687
0.00227399
0.00794232
0.00703311
0.00551142
0.002415
0.00824433
0.0073403
0.00578404
0.0025556
0.00853097
0.00763702
0.00604967
0.00269231
0.00879535
0.00791684
0.00630251
0.00281919
0.00902921
0.00817237
0.00653622
0.00292768
0.00922302
0.00839412
0.00674025
0.00301832
0.00936269
0.00857008
0.00691004
0.0031036
0.00944559
0.00870065
0.00704734
0.003185
0.00946369
0.00877454
0.00713862
0.00324223
0.00940883
0.00877931
0.00717255
0.0032836
0.00928048
0.00870864
0.00715526
0.00330332
0.0090791
0.0085698
0.00708323
0.00329096
0.00882085
0.008372
0.00696247
0.00325138
0.00851647
0.00812373
0.00679813
0.00318933
0.00817577
0.0078346
0.00659391
0.0031068
0.00781617
0.00751573
0.00635546
0.00300569
0.00745232
0.00718177
0.00609502
0.00288985
0.00708985
0.00684318
0.0058218
0.0027628
0.00674382
0.00651231
0.00554514
0.00262828
0.00642317
0.00619741
0.00527257
0.00248986
0.00613163
0.00590311
0.00500924
0.00235047
0.00586874
0.00563067
0.00475785
0.00221217
0.00563117
0.00537875
0.00451904
0.00207665
0.00541349
0.005144
0.00429195
0.00194496
0.0052078
0.00492041
0.00407258
0.00182072
0.0050062
0.00470168
0.00385678
0.00170817
0.00480496
0.00448501
0.00364304
0.0016039
0.00460038
0.00426751
0.00343053
0.00150565
0.00438879
0.00404613
0.00321777
0.00141179
0.00416654
0.00381779
0.00300329
0.00132108
0.00392996
0.0035794
0.00278562
0.00123257
0.00367536
0.00332791
0.00256337
0.00114542
0.00339924
0.00306054
0.00233547
0.0010589
0.00309881
0.00277539
0.00210167
0.000972308
0.00277313
0.00247249
0.00186313
0.000884998
0.00242489
0.00215533
0.00162316
0.000796301
0.00206256
0.0018325
0.00138752
0.000705444
0.00170201
0.00151794
0.0011636
0.00061131
0.00136558
0.00122977
0.000959915
0.00051218
0.00107771
0.000988497
0.000786755
0.000404382
0.000841913
0.000789479
0.00062814
0.000284624
0.000478287
0.000436899
0.000342785
0.00013782
0.00982149
0.0195393
0.0232761
0.026736
0.0303198
0.0337271
0.036631
0.0389066
0.0405618
0.0416824
0.042397
0.0428589
0.0432297
0.0436583
0.0442627
0.0451159
0.0462409
0.047614
0.0491766
0.05085
0.0525506
0.0542012
0.0557365
0.0571055
0.0582691
0.059196
0.059859
0.0602298
0.0602601
0.0598547
0.0589579
0.0574654
0.0552091
0.0519516
0.0472617
0.0408048
0.0102682
0.0206376
0.0247686
0.0283752
0.0318861
0.0350407
0.0375785
0.0394173
0.0406034
0.0412618
0.0415635
0.0417029
0.0418741
0.0422418
0.0429147
0.0439292
0.0452506
0.046788
0.0484194
0.0500164
0.0514638
0.0526692
0.0535647
0.0541008
0.0542416
0.053951
0.0531825
0.051889
0.049966
0.0472125
0.0437286
0.0394971
0.0345114
0.0288669
0.022788
0.0157713
0.0106576
0.02157
0.0260438
0.0297256
0.0330935
0.0359494
0.0380879
0.0394722
0.0401922
0.0404184
0.0403665
0.0402687
0.0403342
0.0407089
0.0414456
0.0424965
0.0437329
0.0449818
0.0460648
0.046829
0.0471624
0.0469963
0.0462968
0.0450456
0.0432342
0.0408564
0.0378336
0.0343826
0.0307069
0.0270855
0.0233773
0.0196169
0.0159074
0.0122695
0.00920797
0.00673877
0.0109757
0.0223155
0.0270968
0.0307801
0.0339576
0.0364834
0.038206
0.0391372
0.0394152
0.0392595
0.0389265
0.0386667
0.0386709
0.0390208
0.0396697
0.040462
0.0411819
0.0416101
0.0415692
0.0409474
0.039703
0.0378438
0.0354134
0.0324744
0.0290833
0.0255984
0.0224488
0.0195489
0.0168641
0.0144366
0.0122353
0.0102596
0.00860017
0.00720498
0.00603828
0.00506116
0.0112304
0.0228954
0.0279183
0.0315447
0.0345039
0.0366817
0.0379881
0.0384862
0.0383659
0.0378933
0.0373521
0.0369818
0.0369131
0.0371266
0.0374622
0.0376761
0.0375181
0.0367944
0.0354068
0.0333516
0.0307048
0.0275962
0.0241956
0.0207443
0.017864
0.0155064
0.0135665
0.0119516
0.010593
0.00944167
0.00845089
0.00758888
0.00683069
0.00614364
0.00549047
0.00485049
0.0114259
0.0233131
0.0284995
0.0320453
0.0347638
0.0365902
0.0374963
0.0375989
0.03714
0.0364242
0.0357401
0.0352826
0.0350884
0.035024
0.0348382
0.0342554
0.0330645
0.0311758
0.0286267
0.0255615
0.0222044
0.0188413
0.0158238
0.0136517
0.0120518
0.0108571
0.00993603
0.00919473
0.0085698
0.00801442
0.00750095
0.00700618
0.00651684
0.00602181
0.00550776
0.0049544
0.0115663
0.0235824
0.0288685
0.0323085
0.0347755
0.0362603
0.0367968
0.0365566
0.0358306
0.0349469
0.0341728
0.0336282
0.0332403
0.0327756
0.0319414
0.0304999
0.0283521
0.0255624
0.0223303
0.0189661
0.0158349
0.0132721
0.0115897
0.0104904
0.00974028
0.00919642
0.00876699
0.0083969
0.00805016
0.00770533
0.00735198
0.00698087
0.00658333
0.00615106
0.00567599
0.00514384
0.0116558
0.0237184
0.0290504
0.0323654
0.0345804
0.0357457
0.0359558
0.0354368
0.0345208
0.0335409
0.0327164
0.032072
0.0314287
0.0304904
0.028982
0.0267682
0.0239108
0.0206433
0.0173297
0.0143805
0.0121136
0.0106886
0.0098468
0.00932789
0.00897672
0.00870868
0.0084749
0.00824868
0.00801142
0.00775144
0.00746069
0.00713474
0.00676955
0.00635999
0.00589844
0.00537074
0.011699
0.023737
0.0290708
0.0322488
0.0342213
0.0350988
0.0350354
0.0343085
0.0332799
0.0322673
0.0314204
0.0306603
0.0297217
0.0282921
0.0261711
0.0233732
0.0201338
0.0168434
0.0139501
0.0117845
0.0104161
0.00966526
0.00924329
0.00898546
0.0088081
0.0086602
0.00851277
0.00834802
0.00815509
0.00792764
0.00766185
0.00735504
0.00700417
0.00660453
0.006148
0.00561951
0.0117007
0.0236544
0.0289552
0.0319914
0.033739
0.0343682
0.0340901
0.0332281
0.03216
0.0311686
0.0303186
0.0294309
0.0281828
0.0262916
0.023677
0.0205251
0.0172251
0.0142567
0.0120001
0.0105552
0.00976246
0.00934634
0.00912493
0.00899474
0.00889872
0.00880445
0.00869262
0.00855176
0.00837553
0.00816053
0.00790475
0.00760641
0.00726259
0.00686811
0.00641384
0.00588327
0.0116658
0.0234863
0.0287279
0.031624
0.0331709
0.0335961
0.0331647
0.0322382
0.0311963
0.0302699
0.0294305
0.0284103
0.026861
0.0245694
0.0216053
0.0183174
0.0151985
0.0127072
0.0110411
0.0100884
0.00960139
0.00936187
0.00924359
0.0091747
0.00911588
0.00904364
0.00894393
0.00880916
0.0086358
0.0084225
0.00816873
0.00787337
0.00753335
0.00714257
0.00669041
0.00615832
0.011599
0.0232475
0.0284116
0.031175
0.0325494
0.0328173
0.0322931
0.0313676
0.0304079
0.0295803
0.0287614
0.0276093
0.0257826
0.0231677
0.0199937
0.0167401
0.0139293
0.0119055
0.0106756
0.0100164
0.00969883
0.00955469
0.00948918
0.0094501
0.00940656
0.00933958
0.00923864
0.00909889
0.00891917
0.00870023
0.00844311
0.00814743
0.00780987
0.00742302
0.00697421
0.00644227
0.011505
0.0229519
0.0280269
0.0306688
0.0319015
0.0320587
0.0314986
0.0306318
0.0298001
0.0290955
0.0283001
0.0270179
0.0249441
0.0220872
0.0188237
0.0157132
0.0132372
0.0115909
0.0106471
0.0101662
0.00994548
0.00985317
0.00981539
0.00978923
0.00974772
0.00967507
0.0095633
0.00941002
0.00921655
0.00898604
0.00872138
0.00842316
0.00808771
0.00770587
0.00726254
0.00673317
0.0113882
0.0226117
0.0275917
0.0301261
0.0312485
0.0313396
0.0307953
0.030036
0.0293669
0.0287974
0.0280185
0.0265849
0.0242991
0.0212921
0.0180418
0.0151274
0.0129542
0.0115852
0.0108232
0.010451
0.0102885
0.0102257
0.0102015
0.0101769
0.010128
0.010041
0.00991037
0.00973609
0.0095223
0.00927489
0.00899904
0.0086965
0.00836327
0.00798795
0.00755431
0.00703294
0.0112526
0.0222378
0.0271212
0.0295639
0.0306067
0.0306729
0.0301894
0.029577
0.0290929
0.0286543
0.0278408
0.026264
0.0238009
0.0207321
0.0175749
0.0148764
0.0129541
0.0117786
0.0111382
0.0108324
0.0107043
0.0106579
0.0106368
0.0106052
0.0105409
0.0104321
0.010275
0.0100727
0.00983236
0.00956297
0.00927243
0.00896395
0.00863327
0.00826946
0.00784905
0.00733818
0.011102
0.0218395
0.0266279
0.0289954
0.0299877
0.0300659
0.0296812
0.0292449
0.0289542
0.0286078
0.0277528
0.0260489
0.0234528
0.0203596
0.0173467
0.014871
0.013152
0.0121114
0.0115529
0.0112904
0.0111823
0.0111417
0.0111156
0.0110695
0.0109825
0.0108443
0.0106537
0.0104165
0.0101433
0.00984686
0.00953815
0.00922308
0.00889795
0.00854678
0.00814242
0.00764563
0.0109394
0.0214245
0.0261222
0.0284307
0.0293991
0.0295217
0.0292664
0.0290251
0.0289233
0.0286341
0.0277435
0.0259333
0.0232429
0.0201602
0.0173063
0.0150424
0.0134916
0.0125515
0.0120484
0.0118139
0.0117157
0.0116729
0.0116344
0.0115666
0.0114496
0.0112747
0.011043
0.0107638
0.0104516
0.0101231
0.00979491
0.009473
0.00915237
0.00881523
0.00843021
0.00795183
0.010768
0.0209994
0.025612
0.0278771
0.0288456
0.0290398
0.0289368
0.0288985
0.0289586
0.0287225
0.0278044
0.0259094
0.0231584
0.0201175
0.0174102
0.0153409
0.0139337
0.0130772
0.0126143
0.0123968
0.0123006
0.0122486
0.0121907
0.0120939
0.0119392
0.0117196
0.0114392
0.011111
0.0107534
0.0103913
0.0100403
0.0097085
0.00939153
0.00906993
0.00870786
0.00825278
0.0105901
0.0205693
0.0251035
0.0273398
0.0283294
0.0286177
0.0286824
0.0288462
0.0290393
0.0288631
0.0279276
0.025969
0.0231863
0.0202078
0.0176399
0.0157421
0.0144564
0.0136711
0.0132417
0.0130347
0.0129342
0.0128664
0.012782
0.0126484
0.0124477
0.0121751
0.0118378
0.0114538
0.0110489
0.0106473
0.0102689
0.00992426
0.00961018
0.00930567
0.0089703
0.00854381
0.010408
0.0201383
0.0246013
0.0268221
0.0278508
0.0282507
0.0284925
0.0288522
0.0291593
0.0290477
0.0281053
0.0261035
0.0233151
0.0204135
0.0179789
0.0162277
0.0150491
0.0143257
0.0139257
0.0137245
0.0136141
0.0135238
0.0134052
0.0132264
0.0129707
0.0126359
0.0122353
0.0117915
0.0113319
0.0108849
0.0104746
0.0101146
0.00980271
0.00951678
0.00921188
0.00881948
0.0102235
0.0197098
0.0241086
0.0263258
0.0274088
0.027933
0.0283557
0.028901
0.0293119
0.0292691
0.0283303
0.0263051
0.0235345
0.0207208
0.018414
0.0167825
0.0157042
0.0150381
0.014664
0.0144632
0.0143372
0.0142174
0.0140562
0.0138228
0.0135021
0.0130991
0.0126287
0.0121168
0.0115952
0.0110973
0.0106512
0.0102734
0.00996314
0.00969725
0.00942648
0.0090737
0.010038
0.0192861
0.0236279
0.0258518
0.0270012
0.0276582
0.0282592
0.0289677
0.0294905
0.0295208
0.0285963
0.0265673
0.023836
0.0211187
0.0189332
0.0174063
0.016416
0.0158033
0.0154517
0.0152474
0.0150998
0.0149428
0.0147296
0.0144314
0.0140396
0.0135595
0.01301
0.0124215
0.011831
0.0112768
0.0107913
0.0103939
0.0100851
0.00984075
0.00960755
0.00929959
0.00985286
0.0188693
0.0231605
0.0254001
0.0266256
0.0274201
0.0281937
0.0290499
0.0296893
0.0297971
0.028898
0.0268844
0.0242119
0.021598
0.0195263
0.0180972
0.0171845
0.0166186
0.0162849
0.0160727
0.0158971
0.015694
0.0154194
0.0150491
0.0145758
0.0140083
0.01337
0.0126964
0.0120301
0.0114148
0.0108871
0.010469
0.0101618
0.0099405
0.00974773
0.00948922
0.00966903
0.0184606
0.0227075
0.0249704
0.0262792
0.027213
0.0281517
0.0291444
0.0299033
0.0300934
0.0292308
0.0272515
0.0246558
0.0221512
0.0201864
0.0188506
0.0180082
0.0174818
0.0171607
0.0169347
0.016723
0.0164654
0.0161209
0.0156675
0.0151013
0.0144355
0.0136983
0.0129309
0.0121823
0.0115016
0.0109297
0.0104904
0.0101855
0.00998825
0.00983796
0.00963313
0.00948735
0.0180611
0.0222693
0.0245618
0.025959
0.0270315
0.0281274
0.0292481
0.0301286
0.0304052
0.0295908
0.0276639
0.025162
0.0227727
0.0209128
0.019663
0.0188841
0.01839
0.0180749
0.0178275
0.0175722
0.0172509
0.0168252
0.0162768
0.0156057
0.0148298
0.0139832
0.0131135
0.0122764
0.011527
0.0109098
0.0104496
0.0101472
0.00997355
0.00986418
0.00971685
0.00930846
0.0176715
0.021846
0.0241732
0.0256622
0.0268712
0.0281162
0.0293587
0.0303617
0.0307291
0.0299746
0.0281177
0.0257235
0.0234559
0.0217037
0.020534
0.0198095
0.0193397
0.0190226
0.0187467
0.0184378
0.0180415
0.0175223
0.0168659
0.0160769
0.0151786
0.0142119
0.0132316
0.0123008
0.0114806
0.0108181
0.010338
0.0100381
0.00988356
0.00981601
0.00973368
0.00913287
0.0172922
0.0214375
0.0238034
0.025386
0.026728
0.0281143
0.0294738
0.0305998
0.031062
0.0303793
0.028609
0.0263346
0.0241963
0.0225529
0.0214586
0.0207802
0.0203267
0.0199997
0.0196845
0.0193107
0.0188268
0.0182008
0.0174225
0.0165018
0.0154684
0.0143708
0.0132723
0.012244
0.0113526
0.010647
0.0101494
0.00985303
0.00971529
0.00969201
0.00967712
0.00896083
0.0169236
0.0210435
0.0234513
0.025128
0.0265988
0.0281189
0.0295917
0.0308405
0.0314016
0.0308025
0.0291344
0.0269917
0.0249889
0.0234553
0.0224313
0.0217923
0.0213473
0.0209989
0.0206322
0.0201806
0.0195955
0.0188482
0.0179331
0.0168662
0.0156846
0.0144458
0.0132229
0.0120954
0.0111352
0.0103914
0.00988184
0.00958845
0.00947262
0.00949653
0.00954856
0.00879264
0.0165653
0.0206638
0.0231155
0.0248862
0.0264808
0.0281279
0.0297108
0.0310818
0.0317456
0.0312415
0.029691
0.0276915
0.0258296
0.0244056
0.0234498
0.022841
0.0223945
0.0220115
0.02158
0.0210365
0.0203352
0.0194509
0.0183834
0.0171552
0.0158125
0.0144233
0.0130718
0.0118467
0.0108241
0.0100507
0.00953766
0.00925287
0.00916537
0.0092382
0.00935379
0.0086287
0.0162175
0.0202975
0.0227951
0.0246586
0.0263723
0.0281406
0.0298305
0.0313212
0.0320893
0.0316915
0.0302749
0.0284311
0.0267168
0.0254038
0.024509
0.0239184
0.0234612
0.0230281
0.0225166
0.0218659
0.0210325
0.0199949
0.0187584
0.0173539
0.0158377
0.0142906
0.0128096
0.0114932
0.0104197
0.00963004
0.00912553
0.00885869
0.00880569
0.0089276
0.00910056
0.00846912
0.0158803
0.0199444
0.0224893
0.0244449
0.026273
0.0281544
0.0299487
0.0315566
0.0324322
0.0321517
0.0308833
0.029207
0.0276459
0.0264415
0.0256
0.0250166
0.0245365
0.0240369
0.0234299
0.0226559
0.0216736
0.0204654
0.0190434
0.0174475
0.0157468
0.0140371
0.0124308
0.0110356
0.00992869
0.00914081
0.00865959
0.00842093
0.00840758
0.00857692
0.00879881
0.00831391
0.0155535
0.0196046
0.0221983
0.0242431
0.0261797
0.0281674
0.030065
0.0317876
0.0327743
0.0326218
0.0315147
0.0300152
0.02861
0.0275102
0.0267127
0.0261238
0.0256029
0.0250244
0.0243066
0.0233927
0.0222443
0.0208481
0.0192237
0.0174222
0.0155281
0.0136558
0.0119348
0.0104809
0.00936471
0.00860095
0.00815595
0.00795614
0.00798619
0.00819858
0.00845442
0.00816315
0.0152384
0.0192776
0.02192
0.0240515
0.0260911
0.0281787
0.0301788
0.0320143
0.033116
0.0331016
0.0321669
0.0308514
0.0296026
0.028601
0.0278371
0.0272288
0.0266508
0.025978
0.0251333
0.0240627
0.0227304
0.0211285
0.0192854
0.017266
0.0151732
0.0131441
0.0113276
0.00984391
0.00874953
0.00803472
0.00763681
0.00748316
0.00755717
0.00780551
0.0080775
0.00801848
0.0149336
0.0189625
0.0216535
0.0238692
0.0260064
0.0281887
0.03029
0.0322368
0.0334578
0.0335909
0.0328379
0.0317112
0.0306163
0.0297047
0.0289622
0.0283199
0.0276683
0.026885
0.0258968
0.0246521
0.0231184
0.0212934
0.0192166
0.0169693
0.0146777
0.0125059
0.0106233
0.00914768
0.00811572
0.00746519
0.00712296
0.00701876
0.00713447
0.00741118
0.00769802
0.0078794
0.0146386
0.0186587
0.0213982
0.0236953
0.025925
0.0281977
0.0303984
0.0324556
0.0338002
0.0340892
0.0335257
0.0325897
0.0316436
0.0308113
0.0300766
0.0293844
0.0286424
0.0277322
0.0265838
0.0251479
0.0233952
0.0213309
0.0190074
0.0165264
0.0140428
0.0117529
0.00984439
0.00842545
0.00747234
0.00691089
0.00662991
0.00657597
0.00672893
0.00702265
0.0073207
0.0077455
0.0143534
0.0183661
0.0211535
0.023529
0.0258468
0.0282059
0.0305044
0.0326714
0.0341438
0.0345962
0.0342277
0.0334818
0.0326766
0.0319104
0.0311681
0.0304094
0.0295598
0.0285064
0.0271814
0.0255376
0.0235494
0.021231
0.0186512
0.0159365
0.0132771
0.0109052
0.00901965
0.00769263
0.00685945
0.00639315
0.00617058
0.00616418
0.00634915
0.00664757
0.00695527
0.00761645
0.0140778
0.0180841
0.0209187
0.0233698
0.0257714
0.0282138
0.0306082
0.0328847
0.0344892
0.0351114
0.0349414
0.0343821
0.0337068
0.0329911
0.0322243
0.0313818
0.0304071
0.0291946
0.0276772
0.0258097
0.0235711
0.0209867
0.0181458
0.0152054
0.0123981
0.00999269
0.00818895
0.0070031
0.00630005
0.00591541
0.00574896
0.00578836
0.00600389
0.00631392
0.00661716
0.00749194
0.0138114
0.0178126
0.0206935
0.0232173
0.0256989
0.0282216
0.0307103
0.0330965
0.0348371
0.0356343
0.0356639
0.0352848
0.0347255
0.0340429
0.0332335
0.0322894
0.0311714
0.0297847
0.0280602
0.0259543
0.0234524
0.0205946
0.017495
0.0143472
0.0114342
0.0090573
0.00739719
0.00637973
0.00580251
0.00548347
0.00536918
0.00545298
0.00569743
0.00601692
0.00630736
0.00737173
0.0135542
0.0175511
0.0204775
0.0230711
0.0256292
0.0282299
0.0308114
0.0333077
0.0351879
0.0361641
0.0363922
0.0361839
0.0357243
0.0350554
0.0341851
0.0331226
0.031842
0.0302652
0.0283201
0.025963
0.0231883
0.0200561
0.0167102
0.0133868
0.0104245
0.00815049
0.00668162
0.00583952
0.00536546
0.00509973
0.00503415
0.00516126
0.00543105
0.00575546
0.00603067
0.00725558
0.0133058
0.0172994
0.0202702
0.0229311
0.0255626
0.028239
0.0309122
0.0335192
0.0355424
0.0366999
0.037123
0.0370734
0.0366946
0.0360192
0.0350697
0.0338737
0.0324123
0.0306279
0.0284478
0.0258284
0.0227767
0.0193785
0.0158121
0.01236
0.009418
0.00731479
0.0060706
0.00538898
0.00498594
0.00476425
0.00474529
0.0049132
0.00520148
0.00552668
0.00578649
0.00714332
0.0130661
0.0170571
0.0200714
0.0227969
0.0254991
0.0282494
0.0310134
0.033732
0.0359009
0.0372407
0.0378527
0.0379466
0.0376274
0.0369238
0.0358766
0.0345316
0.0328775
0.0308653
0.0284338
0.0255442
0.0222185
0.0185767
0.0148325
0.0113152
0.00847196
0.00659709
0.00558351
0.00502569
0.00466382
0.00447611
0.00450055
0.00470444
0.00500664
0.00532858
0.00557049
0.00703476
0.0128348
0.0168241
0.0198808
0.0226686
0.0254388
0.0282615
0.0311157
0.033947
0.0362639
0.0377851
0.038577
0.0387959
0.0385124
0.0377573
0.0365933
0.0350831
0.0332247
0.030974
0.0282748
0.025103
0.0215175
0.0176743
0.0138156
0.0103093
0.00764208
0.00602825
0.00522227
0.00474003
0.0043931
0.00423042
0.00429212
0.00452565
0.00484041
0.00515448
0.00537617
0.00692978
0.0126117
0.0166
0.0196981
0.0225459
0.0253821
0.028276
0.0312199
0.0341651
0.0366313
0.0383311
0.0392909
0.0396128
0.039338
0.0385065
0.0372055
0.0355146
0.0334389
0.030939
0.0279681
0.0245198
0.0206943
0.0167064
0.0128166
0.0094031
0.00696519
0.00561942
0.00497684
0.00452175
0.00416455
0.00401822
0.00411267
0.00437186
0.00469319
0.00499577
0.00519472
0.00682824
0.0123966
0.0163847
0.0195231
0.022429
0.0253291
0.0282932
0.0313267
0.0343868
0.0370029
0.0388762
0.0399883
0.0403876
0.0400926
0.0391587
0.0377006
0.0358136
0.033509
0.030753
0.0275133
0.0238109
0.0197905
0.0157347
0.0118994
0.00865233
0.00647184
0.00536569
0.0048333
0.00436413
0.0039759
0.00383797
0.00395947
0.00423624
0.00455514
0.00483981
0.00501595
0.00673003
0.0121894
0.0161779
0.0193557
0.0223177
0.0252801
0.0283136
0.0314369
0.0346128
0.0373781
0.0394174
0.0406627
0.0411107
0.040765
0.0397035
0.0380691
0.0359725
0.0334301
0.030417
0.0269218
0.0230041
0.0188591
0.0148242
0.0111248
0.00809803
0.00617359
0.00524968
0.00477662
0.00426446
0.0038308
0.00369101
0.00382387
0.00410223
0.00441328
0.00468058
0.00483544
0.00663504
0.0119897
0.0159794
0.0191957
0.022212
0.0252352
0.0283377
0.0315508
0.0348434
0.0377559
0.0399507
0.041307
0.0417729
0.0413462
0.0401335
0.0383058
0.0359873
0.0332014
0.0299365
0.0262094
0.0221343
0.0179524
0.01403
0.0105377
0.00775619
0.00605713
0.00524546
0.00479255
0.00422468
0.00373697
0.00357195
0.0036938
0.00396391
0.00426344
0.00451365
0.00464908
0.0065432
0.0117976
0.015789
0.0190428
0.0221119
0.0251946
0.0283659
0.0316692
0.0350786
0.038135
0.0404723
0.041914
0.042366
0.0418295
0.0404448
0.0384092
0.0358579
0.0328235
0.0293286
0.0254327
0.0212654
0.01712
0.0133783
0.0101352
0.00759632
0.00608385
0.00532701
0.00487563
0.00425903
0.00369453
0.00347226
0.00356377
0.00381677
0.00410183
0.0043351
0.00445298
0.00645441
0.0116127
0.0156066
0.0188971
0.0220175
0.0251587
0.0283986
0.0317922
0.0353183
0.0385135
0.0409774
0.0424771
0.0428832
0.0422108
0.0406365
0.038381
0.0355874
0.0323319
0.0286539
0.0246419
0.0204399
0.0163945
0.0128901
0.00991429
0.00758272
0.0061968
0.00545886
0.00501582
0.00436326
0.00370253
0.00339063
0.0034307
0.00365716
0.0039249
0.00414128
0.00424337
0.00636861
0.0114349
0.0154319
0.0187583
0.0219287
0.0251275
0.028436
0.0319203
0.0355622
0.0388893
0.0414614
0.0429898
0.0433194
0.0424885
0.0407109
0.038226
0.0352063
0.0317646
0.0279448
0.0238667
0.0196944
0.0158093
0.0125698
0.00985708
0.00769602
0.0063707
0.00563088
0.00520802
0.00454392
0.00377342
0.00333307
0.00329428
0.00348215
0.00372925
0.00392858
0.0040165
0.00628573
0.0112641
0.0152648
0.0186263
0.0218455
0.0251013
0.0284785
0.0320536
0.0358096
0.0392598
0.0419195
0.0434468
0.0436716
0.0426635
0.0406736
0.0379599
0.0347474
0.031148
0.0272319
0.0231351
0.0190549
0.0153813
0.0124011
0.00993841
0.00792629
0.00659526
0.00583764
0.00544152
0.00480582
0.00392802
0.00331434
0.00315822
0.00328987
0.00351148
0.00369332
0.00376858
0.0062057
0.0111
0.0151051
0.018501
0.021768
0.0250801
0.0285263
0.032192
0.0360596
0.0396222
0.042347
0.0438436
0.0439384
0.0427388
0.040529
0.0376146
0.0342324
0.0305078
0.0265401
0.0224755
0.0185406
0.0151054
0.0123647
0.0101318
0.00825833
0.00687575
0.00607629
0.00569645
0.00514042
0.00419198
0.00336275
0.0030335
0.00308077
0.00326847
0.00343186
0.00349592
0.00612847
0.0109425
0.0149527
0.0183823
0.0216961
0.0250642
0.0285796
0.0323354
0.0363109
0.0399736
0.0427395
0.044177
0.0441206
0.0427206
0.0402963
0.037208
0.0336838
0.0298679
0.0258927
0.0219071
0.0181545
0.014966
0.0124482
0.0104132
0.00864115
0.00722314
0.00635414
0.00594885
0.00551606
0.00458403
0.0035226
0.00294401
0.00286026
0.00299783
0.00314112
0.00319545
0.00605397
0.0107915
0.0148074
0.01827
0.0216299
0.0250537
0.0286384
0.0324835
0.0365621
0.0403106
0.0430932
0.0444451
0.0442205
0.0426136
0.0399995
0.0367597
0.0331233
0.0292476
0.0253085
0.0214394
0.017891
0.0149454
0.0126352
0.0107671
0.00910288
0.00765965
0.00668808
0.00619058
0.00587839
0.00508966
0.00385273
0.00293855
0.00264471
0.00269745
0.00281979
0.00286582
0.00598216
0.0106467
0.0146689
0.0181641
0.0215693
0.0250485
0.0287027
0.0326358
0.0368115
0.0406302
0.0434047
0.0446477
0.044243
0.0424323
0.039653
0.0362883
0.0325733
0.0286799
0.0248026
0.0210747
0.01774
0.0150268
0.0129089
0.0111786
0.00963307
0.00820567
0.0070806
0.00644119
0.00617086
0.00563258
0.00439468
0.00309966
0.00247511
0.0023899
0.00247321
0.00250955
0.00591297
0.0105081
0.0145372
0.0180645
0.0215144
0.0250489
0.0287725
0.0327917
0.0370573
0.0409293
0.0436716
0.0447856
0.0441929
0.042193
0.0392714
0.0358097
0.0320492
0.0281739
0.0243784
0.0208082
0.0176907
0.0151958
0.013255
0.0116544
0.0102123
0.00882462
0.00759743
0.00676418
0.00638286
0.00608454
0.00510022
0.0035338
0.00243277
0.00210032
0.00211283
0.0021354
0.00584634
0.0103753
0.014412
0.0179709
0.021465
0.0250547
0.0288475
0.0329504
0.0372974
0.041205
0.0438925
0.0448613
0.044078
0.0419094
0.0388681
0.0353367
0.0315608
0.027732
0.0240385
0.0206391
0.0177337
0.0154404
0.0136627
0.0121881
0.0108378
0.00952226
0.00824435
0.00719963
0.00659749
0.00635576
0.00577394
0.00429616
0.00265722
0.00188466
0.00176034
0.00176003
0.00578223
0.0102483
0.0142932
0.0178834
0.0214212
0.025066
0.0289276
0.0331108
0.0375298
0.0414547
0.0440665
0.0448785
0.0439084
0.0415915
0.0384539
0.0348783
0.0311142
0.0273573
0.0237853
0.0205624
0.0178592
0.0157504
0.014121
0.0127668
0.0115158
0.0102778
0.00902134
0.00784062
0.00696563
0.00651734
0.00621698
0.00521037
0.00332769