/*--------------------------------*- C++ -*----------------------------------*\
| =========                 |                                                 |
| \\      /  F ield         | OpenFOAM: The Open Source CFD Toolbox           |
|  \\    /   O peration     | Version:  v2012                                 |
|   \\  /    A nd           | Website:  www.openfoam.com                      |
|    \\/     M anipulation  |                                                 |
\*---------------------------------------------------------------------------*/
FoamFile
{
    version     2.0;
    format      ascii;
    class       volScalarField;
    location    "626";
    object      nut;
}
// * * * * * * * * * * * * * * * * * * * * * * * * * * * * * * * * * * * * * //

dimensions      [0 2 -1 0 0 0 0];


internalField   nonuniform List<scalar> 
6108
(
0.000480051
0.000498731
0.000519088
0.000541382
0.000565929
0.000593122
0.000623456
0.000657563
0.00069627
0.000740671
0.000792256
0.000853103
0.000926189
0.00101594
0.00112915
0.00127682
0.00147758
0.00176507
0.00220443
0.00293252
0.00263616
0.00273429
0.00283937
0.00295234
0.00307431
0.0032066
0.00335081
0.00350891
0.00368337
0.00387739
0.00409515
0.00434233
0.0046268
0.00495982
0.00535812
0.00584761
0.00647059
0.00730088
0.00848061
0.010329
0.00448827
0.00464348
0.00480875
0.00498528
0.00517444
0.00537781
0.00559726
0.00583501
0.00609381
0.00637704
0.00668897
0.00703509
0.00742253
0.00786061
0.00836151
0.00894086
0.00961765
0.0104116
0.011333
0.0123495
0.00565852
0.00584572
0.00604441
0.00625572
0.00648093
0.00672144
0.0069788
0.00725476
0.00755125
0.00787044
0.00821477
0.00858689
0.00898967
0.00942599
0.0098984
0.0104083
0.0109544
0.0115299
0.0121184
0.0126905
0.00621835
0.00641947
0.00663261
0.00685881
0.00709916
0.00735483
0.00762699
0.00791687
0.00822562
0.00855427
0.00890359
0.00927387
0.00966464
0.0100743
0.0104994
0.0109346
0.0113717
0.0118016
0.0122182
0.0126319
0.00622041
0.00642094
0.00663366
0.00685956
0.0070997
0.0073552
0.00762725
0.00791704
0.00822573
0.00855435
0.00890364
0.0092739
0.00966466
0.0100743
0.0104994
0.0109346
0.0113717
0.0118016
0.0122182
0.0126319
0.00566445
0.00584992
0.00604738
0.00625781
0.00648237
0.00672239
0.00697944
0.00725518
0.00755153
0.00787063
0.00821489
0.00858698
0.00898973
0.00942603
0.00989842
0.0104083
0.0109544
0.0115299
0.0121184
0.0126905
0.00449704
0.00464958
0.00481301
0.00498817
0.00517636
0.00537911
0.00559813
0.00583561
0.00609421
0.0063773
0.00668915
0.00703521
0.00742261
0.00786066
0.00836155
0.00894088
0.00961766
0.0104117
0.011333
0.0123495
0.00264385
0.00273989
0.00284308
0.00295488
0.00307604
0.00320778
0.00335161
0.00350945
0.00368374
0.00387763
0.00409532
0.00434244
0.00462687
0.00495986
0.00535815
0.00584763
0.0064706
0.00730089
0.00848061
0.010329
0.000480367
0.000498948
0.000519238
0.000541487
0.000566002
0.000593173
0.000623492
0.000657589
0.000696287
0.000740683
0.000792265
0.000853109
0.000926193
0.00101594
0.00112915
0.00127682
0.00147758
0.00176507
0.00220443
0.00293252
0.00041831
0.000432105
0.000446904
0.000462835
0.00229815
0.00237569
0.00245751
0.00254413
0.00394869
0.00407302
0.00420391
0.00434206
0.00500491
0.00515573
0.00531441
0.00548173
0.00551595
0.00567786
0.00584838
0.00602828
0.00552405
0.00568386
0.00585263
0.00603123
0.00503241
0.00517563
0.00532794
0.00549063
0.00401246
0.00411814
0.00423237
0.00435822
0.00249089
0.00249525
0.00252919
0.00257965
0.000790567
0.000685037
0.000600702
0.000531881
6.97942e-05
6.58767e-05
6.58738e-05
7.44874e-05
0.000100475
0.000110136
9.76693e-05
0.000147128
0.000168547
0.000179699
0.000189917
0.00019945
0.000208456
0.000217046
0.000225304
0.000233295
0.000241075
0.000248689
0.000256183
0.000263595
0.000270967
0.000278335
0.00028574
0.000293221
0.000300819
0.000308574
0.000316531
0.000324734
0.00033323
0.000342068
0.000351299
0.000360978
0.000371162
0.000381916
0.000393306
0.00040541
0.000115606
0.000214826
0.000289639
0.000306143
0.000311925
0.00033799
0.000382702
0.000436918
0.000498559
0.00056117
0.000624529
0.000688709
0.000753721
0.000819501
0.000885931
0.000952833
0.00101997
0.00108709
0.00115389
0.00122012
0.00128554
0.00135001
0.00141343
0.00147581
0.0015372
0.00159772
0.00165759
0.00171708
0.00177651
0.00183626
0.00189672
0.00195828
0.00202138
0.00208648
0.002154
0.00222441
0.000142346
0.000427881
0.000453771
0.000461952
0.00049508
0.000556539
0.000651449
0.000769205
0.000895352
0.00102358
0.00115218
0.00128016
0.00140696
0.00153216
0.0016554
0.00177634
0.00189468
0.00201017
0.00212261
0.00223195
0.00233819
0.0024415
0.00254211
0.00264036
0.00273668
0.00283156
0.00292553
0.00301918
0.0031131
0.0032079
0.0033042
0.00340263
0.00350383
0.00360842
0.00371701
0.00383023
0.000173644
0.000552018
0.000593916
0.000625573
0.000691696
0.000805257
0.000960424
0.00113825
0.00132266
0.00150648
0.0016861
0.00185966
0.00202635
0.00218588
0.00233829
0.00248381
0.00262282
0.00275576
0.0028832
0.00300573
0.00312399
0.00323868
0.0033505
0.00346017
0.00356841
0.00367594
0.00378348
0.00389171
0.00400132
0.00411296
0.00422729
0.00434493
0.00446653
0.0045927
0.00472407
0.00486126
0.000202161
0.000667731
0.000708487
0.000802871
0.000915053
0.00108292
0.00129118
0.00151678
0.00174376
0.00196361
0.0021716
0.00236576
0.00254578
0.00271226
0.00286634
0.0030094
0.00314291
0.00326835
0.00338713
0.00350058
0.00360993
0.00371631
0.00382076
0.00392425
0.00402767
0.00413187
0.00423759
0.00434556
0.00445644
0.00457084
0.00468934
0.0048125
0.00494084
0.00507486
0.00521505
0.0053619
0.000223946
0.000693131
0.000822814
0.000993572
0.00115808
0.00137497
0.00162386
0.00188128
0.00213165
0.00236583
0.00257912
0.00277027
0.00294014
0.00309071
0.00322455
0.00334435
0.00345272
0.00355207
0.00364454
0.00373201
0.00381614
0.00389835
0.00397993
0.00406201
0.00414561
0.00423164
0.00432093
0.00441421
0.00451215
0.00461537
0.00472439
0.00483973
0.00496182
0.00509107
0.00522779
0.00537215
0.000239282
0.00074397
0.000948637
0.00119407
0.00140696
0.00166565
0.00194156
0.00221424
0.00246917
0.0026977
0.0028962
0.00306481
0.00320596
0.00332322
0.00342057
0.00350189
0.00357071
0.00363011
0.00368269
0.00373065
0.00377582
0.00381978
0.00386393
0.0039095
0.00395761
0.00400928
0.00406544
0.00412693
0.00419451
0.00426888
0.00435066
0.0044405
0.00453905
0.00464709
0.00476561
0.00489585
0.000251834
0.000825799
0.00108428
0.00139775
0.00165132
0.0019403
0.00223178
0.00250471
0.00274787
0.00295434
0.00312232
0.00325386
0.00335318
0.00342548
0.00347603
0.00350969
0.00353066
0.00354234
0.00354745
0.00354812
0.00354603
0.0035426
0.00353903
0.00353645
0.00353593
0.00353851
0.0035452
0.00355695
0.00357468
0.00359925
0.00363138
0.00367155
0.00372014
0.00377762
0.00384483
0.00392058
0.000262213
0.000926929
0.00122334
0.00159771
0.00188293
0.00219008
0.00248559
0.00274733
0.00296596
0.00313843
0.00326543
0.00335133
0.00340244
0.00342571
0.00342779
0.00341445
0.0033903
0.00335869
0.00332188
0.00328121
0.00323737
0.00319069
0.00314132
0.00308943
0.00303528
0.00297936
0.00292232
0.00286506
0.00280861
0.00275402
0.00270332
0.00265789
0.00261765
0.00258117
0.00254547
0.00251165
0.00027073
0.00103099
0.00136084
0.00178836
0.00209636
0.00241058
0.00269886
0.00294067
0.00312639
0.00325758
0.00333871
0.00337699
0.00338127
0.00336059
0.00332314
0.00327547
0.00322219
0.00316594
0.00310762
0.00304691
0.00298266
0.00291339
0.00283748
0.0027534
0.00265974
0.00255518
0.00243852
0.00230867
0.00216477
0.00200635
0.0018338
0.00164808
0.00145072
0.0012577
0.00107922
0.000922214
0.000619152
0.000362561
0.000229048
0.000135007
0.000478627
0.000340285
0.000250112
0.000103834
0.000601652
0.000567561
0.000459106
9.00774e-05
0.0010656
0.000903902
0.000540167
8.70562e-05
0.00140147
0.00105818
0.00056327
8.72593e-05
0.00156254
0.00112089
0.000579468
8.89192e-05
0.00165591
0.00116706
0.000594448
9.15744e-05
0.00172997
0.00121503
0.000616045
9.45252e-05
0.00179955
0.00126691
0.000642574
9.77102e-05
0.0018678
0.00132125
0.000671727
0.000101122
0.00193443
0.00137603
0.000701295
0.000104813
0.00199829
0.0014294
0.00073073
0.000108817
0.00206029
0.00148424
0.000761735
0.000112918
0.00212118
0.00153938
0.000793536
0.000117087
0.0021797
0.00159404
0.00082581
0.000121286
0.00223494
0.0016476
0.000858305
0.000125496
0.00228607
0.00169941
0.000890753
0.000129696
0.00233225
0.00174878
0.000922834
0.00013386
0.00237255
0.00179489
0.000954136
0.000137947
0.00240596
0.00183676
0.000984124
0.000141906
0.00243137
0.00187329
0.00101211
0.000145653
0.00244752
0.00190316
0.00103728
0.000149045
0.00245298
0.00192496
0.00105874
0.000151886
0.00244602
0.00193707
0.00107564
0.000154219
0.00226515
0.00193727
0.00108754
0.000156383
0.00207957
0.00192938
0.00109502
0.00015842
0.00194011
0.00183413
0.00109565
0.000159837
0.00183792
0.00175371
0.00109212
0.000160854
0.00176202
0.00170435
0.00108444
0.000161336
0.00170482
0.00167261
0.00107196
0.000161034
0.00167013
0.00166123
0.00105524
0.000160062
0.00166274
0.00167676
0.00103491
0.000158528
0.00168673
0.00168261
0.00101072
0.000156463
0.0017498
0.00163305
0.000982362
0.000153896
0.00184073
0.00158308
0.000951228
0.000150901
0.00180156
0.00153163
0.000918013
0.000147547
0.0017523
0.00147975
0.000883603
0.00014391
0.00170527
0.00142814
0.000848794
0.000140069
0.00166021
0.00137731
0.000814231
0.000136092
0.00161644
0.00132746
0.000780346
0.000132027
0.001573
0.00127848
0.000747363
0.00012792
0.00152847
0.00122981
0.000715162
0.000123797
0.00148
0.00117913
0.000681589
0.000119778
0.00142516
0.00112398
0.000644905
0.000116017
0.00136415
0.0010652
0.000606468
0.00011242
0.00129722
0.00100349
0.000567455
0.000108922
0.00122466
0.000939337
0.000528281
0.000105473
0.00114674
0.000873043
0.000489148
0.000102028
0.00106374
0.00080477
0.000450068
9.85511e-05
0.000975882
0.000734548
0.000410939
9.50032e-05
0.000883412
0.000662363
0.00037164
9.13445e-05
0.000786679
0.000588295
0.000332133
8.753e-05
0.000686408
0.000512769
0.000292603
8.35077e-05
0.000584104
0.000436883
0.00025358
7.92125e-05
0.000482552
0.000362734
0.000216032
7.45567e-05
0.000386205
0.000293526
0.000181301
6.94043e-05
0.000300519
0.000233188
0.000151052
6.35282e-05
0.000230744
0.000185251
0.000127218
5.0553e-05
0.00017252
0.000146835
0.000107715
4.73578e-05
5.21818e-05
4.57621e-05
4.41759e-05
3.02823e-05
0.000278191
0.00114534
0.00150342
0.00195139
0.00229699
0.00260828
0.00287916
0.00309152
0.003239
0.0033244
0.00335806
0.00335099
0.00331513
0.00326189
0.0032007
0.00313818
0.00307786
0.00302046
0.00296473
0.00290833
0.00284861
0.0027832
0.00271024
0.00262853
0.00253739
0.00243665
0.00232647
0.00220729
0.00207941
0.00194237
0.00179711
0.00164406
0.00148291
0.00131296
0.00113027
0.000930775
0.000284447
0.00126615
0.00164787
0.00210791
0.00247087
0.00277119
0.00301767
0.00319561
0.0033023
0.00334473
0.00333621
0.00329303
0.0032303
0.00316097
0.00309422
0.00303472
0.00298289
0.00293608
0.00289012
0.00284063
0.00278397
0.00271757
0.00264002
0.00255082
0.00244998
0.00233796
0.0022153
0.00208281
0.00194057
0.00178647
0.00162288
0.00145034
0.00126908
0.00107992
0.00088609
0.000670608
0.00028979
0.00139596
0.00179779
0.002269
0.002617
0.00290049
0.00311818
0.00325977
0.00332678
0.00333075
0.00328909
0.00322136
0.00314518
0.0030731
0.00301152
0.00296077
0.00291667
0.00287285
0.00282279
0.00276126
0.00268492
0.00259228
0.00248331
0.00235925
0.0022214
0.00207221
0.00191302
0.00174871
0.00158412
0.00142722
0.00127362
0.00112328
0.00097896
0.00083946
0.000724012
0.00064502
0.000294084
0.00145458
0.00195916
0.00241257
0.00273663
0.00299939
0.00318629
0.00329204
0.00332278
0.00329461
0.00322906
0.00314779
0.00306822
0.00300006
0.00294468
0.00289697
0.00284847
0.00279042
0.00271593
0.00262092
0.00250425
0.00236733
0.00221383
0.00204918
0.00188025
0.00171785
0.00157447
0.00144634
0.00133133
0.00123049
0.00114412
0.00107336
0.00102776
0.00100918
0.00100371
0.00102127
0.000297476
0.00150369
0.00212045
0.00251721
0.00283197
0.00307177
0.00322781
0.00330007
0.00329944
0.00324637
0.0031655
0.00307908
0.00300166
0.00293775
0.00288284
0.0028271
0.00275964
0.00267177
0.00255857
0.0024197
0.00225944
0.0020863
0.00191293
0.00175665
0.00163608
0.00154762
0.00148516
0.00144494
0.00142374
0.00142007
0.00143289
0.00145269
0.00148405
0.00152818
0.00159757
0.00154506
0.000300055
0.001543
0.00219994
0.00260283
0.00290562
0.00312177
0.00324839
0.00329078
0.00326452
0.00319382
0.00310502
0.00301883
0.00294504
0.00288178
0.00281927
0.002745
0.00264843
0.00252373
0.00237147
0.00219973
0.00202382
0.00186595
0.0017553
0.00170458
0.00169696
0.00171976
0.00176297
0.0018188
0.0018745
0.00193159
0.00199782
0.00207881
0.0021243
0.00211058
0.0020606
0.00187041
0.000301892
0.00157318
0.00226464
0.00267115
0.00296048
0.00315347
0.00325321
0.00327018
0.00322434
0.00314281
0.00305198
0.002969
0.00289766
0.00283021
0.00275325
0.00265445
0.00252678
0.00237133
0.00220007
0.00203547
0.00190999
0.00186135
0.00189074
0.00196848
0.00207123
0.0021767
0.00227718
0.00237736
0.00248038
0.00256522
0.00260558
0.00263054
0.00259551
0.00248531
0.00230817
0.00203418
0.000303058
0.00159498
0.00231589
0.00272411
0.00299947
0.00317075
0.00324689
0.00324333
0.00318395
0.00309766
0.00300923
0.00293077
0.0028598
0.00278397
0.00268908
0.00256612
0.00241546
0.00225151
0.00210304
0.00201086
0.00201677
0.00211892
0.00226944
0.0024274
0.00258531
0.00273077
0.00285675
0.00294785
0.0030184
0.00304818
0.00301939
0.00295405
0.00284296
0.00267712
0.00244824
0.00213783
0.000303619
0.00160924
0.0023551
0.00276372
0.00302543
0.0031771
0.0032334
0.00321438
0.00314723
0.00306146
0.0029787
0.00290518
0.00283268
0.00274635
0.00263415
0.002494
0.00233926
0.00220232
0.00212996
0.00216725
0.00232136
0.00252504
0.00274104
0.00294674
0.0031088
0.00323609
0.00332418
0.0033569
0.00335009
0.00330765
0.00323014
0.00312184
0.00297794
0.00278945
0.00254325
0.00222022
0.000303641
0.0016168
0.00238367
0.00279196
0.00304095
0.00317559
0.00321604
0.0031866
0.00311705
0.0030363
0.00296165
0.00289317
0.00281817
0.00272162
0.00259692
0.00245254
0.00231975
0.00224876
0.00229141
0.00246268
0.00270851
0.00297835
0.00321426
0.00340227
0.00351929
0.00358423
0.00360216
0.00357859
0.00352457
0.00344553
0.00334316
0.003217
0.00306182
0.00286762
0.00261887
0.00229397
0.000303187
0.00161853
0.00240298
0.00281069
0.00304836
0.00316881
0.00319747
0.00316243
0.00309535
0.00302341
0.00295873
0.00289555
0.00281814
0.00271388
0.00258447
0.0024526
0.00236778
0.00238868
0.00254672
0.00280827
0.00311099
0.00339081
0.00359119
0.0037178
0.00377904
0.00378928
0.00376031
0.00370209
0.00362234
0.00352503
0.00341108
0.00327857
0.00312159
0.0029292
0.00268425
0.00236245
0.000302318
0.00161524
0.00241436
0.00282162
0.00304967
0.00315891
0.00317973
0.0031436
0.00308326
0.00302322
0.00296997
0.00291244
0.00283375
0.00272599
0.00260132
0.00249822
0.00247882
0.00259315
0.00283466
0.00315252
0.00346387
0.00370053
0.00384978
0.00392517
0.00394172
0.00391482
0.0038574
0.00377852
0.00368396
0.00357668
0.00345714
0.00332299
0.00316798
0.00298055
0.0027422
0.00242606
0.000301091
0.00160772
0.00241901
0.00282624
0.00304657
0.00314756
0.0031643
0.00313113
0.00308114
0.00303534
0.00299424
0.00294232
0.00286425
0.00275876
0.00264825
0.00258561
0.0026355
0.00282497
0.00311761
0.00345265
0.00373364
0.00392387
0.00402955
0.00406655
0.00405166
0.00400057
0.00392488
0.00383234
0.00372778
0.00361381
0.00349089
0.00335673
0.00320503
0.00302375
0.00279328
0.00248427
0.000299559
0.00159667
0.00241803
0.00282586
0.00304044
0.00313606
0.00315216
0.00312548
0.00308865
0.00305826
0.00302831
0.00283503
0.00283457
0.00280955
0.00272168
0.002705
0.00281626
0.0030554
0.00337833
0.00370018
0.00394022
0.00409083
0.00416257
0.00417138
0.00413464
0.00406665
0.00397761
0.00387441
0.00376157
0.00364184
0.00351602
0.00338217
0.00323409
0.00305927
0.0028383
0.00253959
0.00029777
0.00158275
0.00241242
0.0028216
0.0030324
0.00312536
0.0031439
0.00312657
0.00310464
0.00308876
0.00280088
0.00266547
0.00270331
0.00285117
0.00281549
0.00284483
0.003004
0.00327481
0.00360614
0.00390155
0.00410577
0.00422378
0.00426873
0.0042567
0.0042037
0.00412245
0.0040221
0.00390917
0.00378833
0.00366274
0.00353379
0.00340003
0.0032555
0.00308887
0.00287845
0.00259084
0.00029577
0.00156654
0.00240301
0.00281437
0.0030233
0.00311609
0.00313973
0.00313387
0.00312715
0.00293079
0.00263424
0.00255135
0.00260971
0.00277324
0.00292279
0.00299493
0.00318806
0.00347913
0.00380538
0.00407129
0.00424424
0.00433561
0.00435962
0.00433131
0.00426498
0.00417198
0.00406088
0.00393819
0.00380896
0.003677
0.00354443
0.0034108
0.00327089
0.00311217
0.00291261
0.00263704
0.000293597
0.00154854
0.00239057
0.00280492
0.00301379
0.00310866
0.00313959
0.00314653
0.003154
0.00275526
0.00252112
0.00247547
0.00254953
0.00272053
0.00300495
0.00314841
0.00336521
0.00366955
0.00398282
0.00421885
0.00436492
0.00443454
0.00444154
0.00439949
0.00432108
0.00421671
0.00409466
0.00396171
0.00382344
0.00368446
0.00354865
0.00341535
0.00327929
0.00312827
0.00293988
0.00267734
0.000291288
0.0015292
0.0023757
0.00279387
0.00300435
0.00310327
0.00314317
0.00316323
0.00304988
0.00263116
0.00244512
0.00242599
0.00251593
0.00269717
0.00300209
0.00330149
0.00353769
0.0038454
0.00413998
0.00435056
0.004474
0.0045254
0.00451771
0.00446308
0.00437286
0.00425681
0.00412322
0.00397933
0.00383131
0.00368613
0.00354651
0.00341261
0.00327985
0.00313636
0.00295946
0.0027109
0.000288872
0.00150888
0.00235896
0.0027817
0.00299532
0.00309996
0.00315001
0.00318276
0.00290709
0.00254437
0.00239499
0.00239728
0.00250155
0.00269595
0.00301979
0.00345153
0.00370528
0.00401127
0.00428444
0.00447186
0.00457556
0.00461087
0.00458963
0.00452263
0.00442024
0.00429182
0.00414589
0.00399055
0.00383378
0.00368123
0.00353682
0.00340161
0.00327173
0.00313567
0.00297055
0.00273686
0.000286378
0.00148791
0.00234078
0.00276878
0.00298691
0.00309866
0.00315959
0.0032042
0.00280203
0.00248444
0.00236444
0.00238545
0.0025021
0.00271039
0.003058
0.00358363
0.00386937
0.00417035
0.00442028
0.0045861
0.00467192
0.00469226
0.00465771
0.00457798
0.00446261
0.0043209
0.00416259
0.00399627
0.00382936
0.00366845
0.00351849
0.00338144
0.00325411
0.00312541
0.00297234
0.00275429
0.000283827
0.00146655
0.00232154
0.00275543
0.00297924
0.00309919
0.00317134
0.00322379
0.00272693
0.00244453
0.0023496
0.00238696
0.00251431
0.00273623
0.00310755
0.00365903
0.00402828
0.00431879
0.00454865
0.0046949
0.00476413
0.00476992
0.00472176
0.00462849
0.00449905
0.00434441
0.00417345
0.00399479
0.00381665
0.00364656
0.00349047
0.00335119
0.00322623
0.00310483
0.00296399
0.00276225
0.000281241
0.00144502
0.00230155
0.00274184
0.00297235
0.0031013
0.00318448
0.00313177
0.00267378
0.00242064
0.00234696
0.00239858
0.00253561
0.0027703
0.00316371
0.00373866
0.00418232
0.00445938
0.00467069
0.00479903
0.00485247
0.00484363
0.00478109
0.00467322
0.00453028
0.00436174
0.00417677
0.00398457
0.00379424
0.00361431
0.00345168
0.00330999
0.00318729
0.00307319
0.00294468
0.0027597
0.000278635
0.00142349
0.00228105
0.00272819
0.00296625
0.00310475
0.00319851
0.00306043
0.0026372
0.00240848
0.00235358
0.00241785
0.00256419
0.00281116
0.00322368
0.00382348
0.00432979
0.00459308
0.00478704
0.00489868
0.00493668
0.00491271
0.00483508
0.00471279
0.00455508
0.00437126
0.00417094
0.00396407
0.00376071
0.00357042
0.00340104
0.00325692
0.00313657
0.00302975
0.00291352
0.00274547
0.000276023
0.00140209
0.00226025
0.00271461
0.0029609
0.0031093
0.00321311
0.00300866
0.00261331
0.00240583
0.00236759
0.00244307
0.00259864
0.0028574
0.00328556
0.00390875
0.00446933
0.00472005
0.00489791
0.00499362
0.00501612
0.0049766
0.00488375
0.00474593
0.004572
0.00437142
0.00415438
0.00393171
0.00371456
0.00351354
0.0033374
0.00319108
0.00307328
0.0029737
0.00286942
0.00270288
0.000273418
0.00138096
0.00223932
0.00270117
0.00295624
0.00311472
0.00322803
0.00297167
0.00259935
0.00241114
0.00238757
0.00247306
0.00263782
0.00290777
0.00334923
0.00399241
0.00460211
0.00484064
0.00500318
0.00508333
0.00509
0.0050349
0.00492605
0.00477134
0.00457957
0.0043606
0.0041254
0.00388586
0.00365425
0.00344232
0.00325966
0.00311157
0.00299663
0.00290404
0.0026736
0.00244462
0.000270828
0.00136017
0.0022184
0.00268794
0.0029522
0.00312082
0.00324309
0.00294597
0.00259335
0.00242287
0.00241228
0.00250684
0.00268053
0.00296098
0.00341483
0.0040747
0.0047279
0.00495487
0.00510252
0.00516656
0.00515789
0.00508683
0.00496083
0.00478761
0.00457621
0.00433711
0.00408226
0.00382479
0.00357824
0.00335546
0.0031668
0.00301765
0.00290596
0.00269626
0.00242888
0.00222598
0.000268261
0.0013398
0.00219761
0.00267497
0.00294871
0.00312744
0.00325817
0.00292923
0.00259383
0.00243966
0.00244064
0.00254357
0.00272579
0.0030165
0.00348168
0.0041549
0.004847
0.00506224
0.00519425
0.00524328
0.00521929
0.00513143
0.00498681
0.00479324
0.00456022
0.00429913
0.00402316
0.00374681
0.00348505
0.00325186
0.00305813
0.00290898
0.00280106
0.00246357
0.00222083
0.00205463
0.000265723
0.0013199
0.00217702
0.00266227
0.00294571
0.00313443
0.00327317
0.0029197
0.00259957
0.00246038
0.00247181
0.00258257
0.00277307
0.00307371
0.00354921
0.00423235
0.00495862
0.00516114
0.00527882
0.00531331
0.00527351
0.00516762
0.00500261
0.0047866
0.00452983
0.00424483
0.00394626
0.00365029
0.00337343
0.00313076
0.00293345
0.00278598
0.00257265
0.0022559
0.00204139
0.00191282
0.000263217
0.00130048
0.00215671
0.00264986
0.00294312
0.0031417
0.00328806
0.00291595
0.00260956
0.00248409
0.00250505
0.00262325
0.00282185
0.003132
0.00361654
0.00430691
0.00506143
0.0052523
0.00535644
0.00537629
0.00531975
0.00519424
0.00500678
0.00476602
0.0044832
0.00417231
0.00384983
0.00353383
0.00324254
0.002992
0.00279333
0.00264978
0.00236088
0.00206854
0.00188497
0.00179514
0.000260752
0.00128155
0.00213673
0.00263777
0.00294091
0.00314918
0.00330283
0.00291686
0.00262291
0.00250981
0.0025395
0.00266498
0.00287172
0.00319126
0.00368427
0.00437808
0.00513108
0.00533642
0.00542716
0.00543177
0.00535712
0.00521005
0.00499779
0.00472976
0.00441849
0.00407979
0.00373231
0.0033964
0.00309211
0.00283629
0.00263939
0.00250274
0.00216791
0.00190083
0.00175236
0.0017005
0.000258329
0.00126315
0.00211713
0.00262603
0.00293916
0.00315688
0.00331729
0.00292144
0.00263887
0.00253693
0.00257473
0.00270735
0.00292236
0.00325126
0.00375166
0.00444556
0.00518744
0.00541385
0.00549089
0.00547919
0.00538467
0.00521377
0.00497409
0.00467608
0.00433393
0.00396564
0.0035925
0.00323755
0.00292279
0.00266544
0.00247445
0.0023483
0.00198822
0.00175348
0.00164371
0.00162965
0.000255951
0.00124531
0.00209805
0.00261478
0.00293767
0.00316453
0.00332144
0.00292897
0.00265689
0.002565
0.00261042
0.00275012
0.00297357
0.00331181
0.00381849
0.00450927
0.00523769
0.0054847
0.00554735
0.00551786
0.00540137
0.00520406
0.00493412
0.00460332
0.00422789
0.00382854
0.00342978
0.00305774
0.00273639
0.0024826
0.00230265
0.00214902
0.00182166
0.00162852
0.0015601
0.00158409
0.00025362
0.00122823
0.00207938
0.00260374
0.00293633
0.00317208
0.00331983
0.00293879
0.00267648
0.00259369
0.00264634
0.00279312
0.00302518
0.00337268
0.00388453
0.00456901
0.00528129
0.00554904
0.00559615
0.00554704
0.00540615
0.00517959
0.00487637
0.00450994
0.00409902
0.00366768
0.0032443
0.00285859
0.0025362
0.00229251
0.00212944
0.00195362
0.00167114
0.00152847
0.00150477
0.00156947
0.000251362
0.00121139
0.00206098
0.00259291
0.00293514
0.00317952
0.00332012
0.00295035
0.0026972
0.00262275
0.00268233
0.00283625
0.00307709
0.00343371
0.00394956
0.00462491
0.00531804
0.00560674
0.0056368
0.00556588
0.00539788
0.00513903
0.00479943
0.00439462
0.00394643
0.003483
0.00303738
0.00264319
0.00232713
0.00210186
0.00196082
0.00176055
0.00154192
0.00145737
0.00148254
0.00159499
0.000249173
0.00119484
0.00204292
0.00258233
0.00293408
0.00318684
0.00332202
0.00296317
0.0027188
0.00265203
0.00271829
0.00287946
0.00312926
0.00349483
0.00401368
0.00467752
0.00534839
0.00565749
0.00566865
0.00557348
0.00537547
0.00508115
0.00470208
0.00425643
0.00376982
0.00327539
0.00281169
0.00241636
0.0021161
0.00191538
0.0018022
0.00158717
0.0014395
0.00141773
0.00149498
0.00165724
0.000247047
0.00117866
0.00202524
0.00257203
0.00293316
0.00319406
0.00332506
0.00297689
0.00274103
0.00268144
0.00275419
0.00292276
0.00318173
0.00355617
0.00407725
0.00472783
0.00537309
0.00570079
0.00569097
0.0055689
0.00533779
0.00500481
0.00458337
0.00409493
0.0035698
0.00304708
0.00257162
0.00218437
0.00190854
0.0017408
0.00165907
0.00143711
0.0013683
0.00141313
0.00154286
0.00174504
0.00024498
0.00116291
0.00200799
0.00256202
0.00293236
0.0032012
0.0033289
0.00299123
0.00276371
0.00271089
0.00279005
0.00296623
0.00323462
0.00361791
0.00414072
0.0047768
0.0053928
0.00573599
0.00570292
0.00555116
0.00528383
0.00490906
0.00444276
0.00391046
0.0033481
0.00280193
0.00232341
0.00195551
0.00171442
0.00158444
0.00144641
0.00132261
0.00133759
0.00144529
0.00161733
0.00181292
0.00024297
0.00114763
0.00199122
0.00255233
0.00293171
0.00320829
0.00333332
0.003006
0.00278665
0.00274033
0.0028259
0.00300993
0.00328797
0.00368006
0.00420399
0.00482419
0.00540733
0.00576233
0.00570362
0.00551931
0.00521266
0.00479325
0.00428029
0.00370434
0.00310796
0.00254574
0.00207541
0.00173923
0.00154032
0.00144988
0.00128882
0.00125968
0.00134898
0.00150414
0.00169243
0.00177811
0.000241012
0.00113284
0.00197495
0.00254299
0.00293122
0.00321535
0.00333821
0.00302104
0.00280974
0.00276977
0.0028618
0.00305391
0.00334177
0.00374237
0.00426626
0.00486873
0.00541425
0.00574257
0.00569217
0.00547245
0.00512348
0.00465707
0.00409678
0.00347916
0.00285448
0.00228636
0.00183774
0.00154382
0.00139082
0.00130823
0.00119659
0.00124887
0.00139445
0.00157019
0.0017217
0.00174744
0.000239106
0.00111859
0.00195923
0.00253403
0.0029309
0.00322243
0.00334348
0.00303628
0.00283293
0.00279924
0.00289783
0.00309823
0.00339596
0.00380453
0.00432648
0.00490735
0.00540804
0.00567433
0.00566792
0.00540976
0.00501566
0.00450067
0.00389403
0.00323919
0.00259475
0.00203336
0.0016197
0.00137573
0.00126785
0.00118174
0.00116016
0.00127961
0.00145891
0.00162825
0.00171003
0.00171927
0.000237249
0.00110487
0.00194409
0.00252546
0.00293079
0.00322956
0.00334914
0.00305167
0.00285622
0.00282883
0.00293415
0.00314308
0.00345073
0.00386662
0.00438433
0.00493832
0.00538677
0.00558218
0.00551912
0.00530012
0.00488867
0.0043247
0.00367513
0.00299063
0.00233797
0.00179764
0.00143047
0.00123883
0.00117058
0.00112286
0.00116965
0.00133692
0.00152277
0.00163714
0.00169968
0.00169141
0.000235439
0.00109172
0.00192955
0.00251731
0.00293091
0.00323678
0.00335522
0.00306725
0.00287966
0.00285868
0.00297102
0.00318886
0.00350664
0.00392942
0.004441
0.00496366
0.00535259
0.00547506
0.00533339
0.00504476
0.00463678
0.00413037
0.00344473
0.00274176
0.00209485
0.00158968
0.00127589
0.00113279
0.00109548
0.00111089
0.00120825
0.00138043
0.00153072
0.00163909
0.00168673
0.0016613
0.000233676
0.00107913
0.00191564
0.00250962
0.00293129
0.00324414
0.00336182
0.00308311
0.00290339
0.00288907
0.00300884
0.00323617
0.0035646
0.00399419
0.00449835
0.00498722
0.00531384
0.00536128
0.00514773
0.00479431
0.00433664
0.0038371
0.00320951
0.00250281
0.00187651
0.00141664
0.00115722
0.00105398
0.00103757
0.00108967
0.00121302
0.00138058
0.0015352
0.001634
0.00166662
0.00162535
0.000231958
0.00106711
0.00190238
0.00250241
0.00293196
0.00325167
0.00336908
0.00309941
0.00292762
0.00292028
0.00304809
0.00328568
0.00362545
0.00406192
0.00455754
0.00501096
0.00527519
0.00524889
0.00496706
0.00455859
0.00406236
0.0035467
0.00298072
0.00228524
0.00169269
0.00128305
0.00107186
0.000997225
0.000992024
0.00105451
0.00119487
0.001375
0.00152779
0.00161498
0.00163483
0.0015806
0.000230284
0.00105567
0.0018898
0.00249571
0.00293295
0.00325942
0.00337714
0.00311632
0.00295256
0.00295265
0.00308921
0.00333792
0.00368969
0.00413289
0.00461845
0.00503445
0.00523636
0.00513882
0.00479183
0.00433269
0.00381038
0.00329425
0.00276966
0.00209939
0.00154972
0.00118909
0.00101449
0.000956938
0.000954785
0.0010209
0.0011709
0.0013527
0.00150022
0.00157988
0.00159076
0.00152676
0.000228653
0.0010448
0.0018779
0.00248954
0.0029343
0.00326743
0.00338615
0.003134
0.00297842
0.00298647
0.00313255
0.00339322
0.00375746
0.00420671
0.00468008
0.00505638
0.00519608
0.00503012
0.0046216
0.00411804
0.00358099
0.00307491
0.00258553
0.0019523
0.00144895
0.00113037
0.000978473
0.000928137
0.000923041
0.000984257
0.0011306
0.00131076
0.00145491
0.00152977
0.00153452
0.00146382
0.000227065
0.00103451
0.00186672
0.00248393
0.00293603
0.00327574
0.00339627
0.00315263
0.0030054
0.00302197
0.00317836
0.00345173
0.00382856
0.00428269
0.00474124
0.00507567
0.00515357
0.00492206
0.00445872
0.00392502
0.00337853
0.00288678
0.00243229
0.00184223
0.00138337
0.00109814
0.000957678
0.000907159
0.000893819
0.000941215
0.00107685
0.0012524
0.00139387
0.00146578
0.0014666
0.00139201
0.000225519
0.00102479
0.00185625
0.00247889
0.00293817
0.0032844
0.0034076
0.00317234
0.00303367
0.00305933
0.00322679
0.00351342
0.00390265
0.00436004
0.00480106
0.00509177
0.00510859
0.0048205
0.00431598
0.00376144
0.00314591
0.00268957
0.00231352
0.00176756
0.00134509
0.00108111
0.000943457
0.000889622
0.000866313
0.000894043
0.00101146
0.00117919
0.00131837
0.00138891
0.00138759
0.00131169
0.000224015
0.00101564
0.0018465
0.00247444
0.00294076
0.00329344
0.00342023
0.00319325
0.00306333
0.00309868
0.00327791
0.00357819
0.00397933
0.00443811
0.00485905
0.00510446
0.00506576
0.00473196
0.00419722
0.00361312
0.00295758
0.00250897
0.00223032
0.00172492
0.00132987
0.00107516
0.00093412
0.000874827
0.00084158
0.000845963
0.000936758
0.00109236
0.00122929
0.0013
0.00129815
0.00122326
0.000222552
0.00100704
0.00183748
0.00247062
0.00294383
0.0033029
0.00343421
0.00321544
0.00309449
0.0031401
0.00333171
0.00364587
0.00405815
0.00451634
0.00491494
0.00511524
0.0050295
0.00466058
0.0041062
0.00347034
0.0028153
0.00237094
0.00213542
0.00171061
0.00133575
0.00107926
0.000929823
0.000862656
0.000820755
0.000801302
0.000857173
0.000993602
0.00112749
0.00119983
0.00119894
0.00112719
0.000221131
0.000998992
0.00182919
0.00246741
0.00294738
0.00331282
0.00344956