/*--------------------------------*- C++ -*----------------------------------*\
| =========                 |                                                 |
| \\      /  F ield         | OpenFOAM: The Open Source CFD Toolbox           |
|  \\    /   O peration     | Version:  v2012                                 |
|   \\  /    A nd           | Website:  www.openfoam.com                      |
|    \\/     M anipulation  |                                                 |
\*---------------------------------------------------------------------------*/
FoamFile
{
    version     2.0;
    format      ascii;
    class       volScalarField;
    location    "626";
    object      omega;
}
// * * * * * * * * * * * * * * * * * * * * * * * * * * * * * * * * * * * * * //

dimensions      [0 0 -1 0 0 0 0];


internalField   nonuniform List<scalar> 
6108
(
95.1916
98.8957
102.932
107.353
112.221
117.613
123.628
130.391
138.067
146.871
157.1
169.166
183.658
201.455
223.905
253.186
292.996
350.005
437.126
581.503
42.4801
44.2846
46.2649
48.4478
50.866
53.56
56.5804
59.9908
63.8725
68.3303
73.501
79.5654
86.7654
95.4276
105.995
119.063
135.397
155.844
180.785
207.821
33.212
34.7046
36.3449
38.1555
40.1638
42.4035
44.916
47.7533
50.9811
54.6827
58.966
63.9722
69.8883
76.9668
85.5544
96.138
109.422
126.473
149.032
180.354
30.1674
31.5639
33.0996
34.7959
36.6785
38.7794
41.1379
43.8031
46.8371
50.3196
54.3541
59.0774
64.6742
71.3988
79.6119
89.841
102.889
120.04
143.472
177.157
29.1002
30.4656
31.9674
33.6267
35.4692
37.5262
39.8368
42.4497
45.427
48.8487
52.8195
57.479
63.0179
69.7025
77.9161
88.2284
101.517
119.19
143.583
178.694
29.097
30.4634
31.9658
33.6256
35.4684
37.5256
39.8364
42.4494
45.4269
48.8486
52.8194
57.4789
63.0178
69.7025
77.9161
88.2284
101.517
119.19
143.583
178.694
30.1561
31.5561
33.094
34.7919
36.6758
38.7776
41.1367
43.8023
46.8366
50.3192
54.3538
59.0773
64.6741
71.3988
79.6119
89.841
102.889
120.04
143.472
177.157
33.1854
34.6866
36.3322
38.1469
40.1581
42.3996
44.9134
47.7516
50.9799
54.6819
58.9655
63.9719
69.8881
76.9667
85.5543
96.1379
109.422
126.473
149.032
180.354
42.4243
44.2457
46.2393
48.4302
50.8541
53.552
56.575
59.9872
63.8701
68.3287
73.5
79.5647
86.7649
95.4273
105.995
119.063
135.397
155.844
180.785
207.821
95.2543
98.9387
102.962
107.374
112.235
117.623
123.635
130.396
138.07
146.874
157.102
169.167
183.659
201.455
223.905
253.187
292.997
350.005
437.126
581.503
82.9487
85.6841
88.6186
91.7778
36.6316
37.9198
39.3148
40.8297
28.3885
29.4491
30.5987
31.8486
25.6576
26.6491
27.7237
28.8923
24.6894
25.6598
26.711
27.8536
24.6718
25.6479
26.7034
27.8488
25.5749
26.5947
27.6909
28.8734
28.0402
29.2183
30.4646
31.7834
34.1527
36.3294
38.3506
40.3731
51.5525
58.9949
68.4064
80.434
13.8398
13.063
13.0624
14.7705
19.9237
24.4301
27.9712
30.9321
33.4221
35.6333
37.6596
39.5498
41.3356
43.039
44.6765
46.2612
47.8038
49.3138
50.7997
52.2696
53.7312
55.1924
56.6608
58.1442
59.6507
61.1886
62.7664
64.393
66.0777
67.8302
69.6607
71.58
73.5995
75.7319
77.9905
80.3905
14.6714
9.73497
11.8869
17.2514
21.0703
23.105
24.0205
24.4897
24.7214
24.8126
24.8474
24.8549
24.852
24.8509
24.8614
24.8921
24.9503
25.0422
25.1731
25.3474
25.5681
25.8376
26.1574
26.5287
26.9527
27.43
27.9613
28.5477
29.19
29.8895
30.6482
31.4685
32.3535
33.3069
34.3334
35.4391
18.065
11.4292
14.5944
18.0473
19.9446
20.6615
20.7716
20.633
20.3546
20.0226
19.6989
19.4068
19.1584
18.9606
18.8168
18.7291
18.698
18.7231
18.8033
18.9368
19.1216
19.3555
19.6366
19.9631
20.3334
20.7467
21.2025
21.7007
22.2419
22.8272
23.4585
24.1378
24.8682
25.6535
26.498
27.4075
22.0369
13.479
15.6033
17.4989
18.3886
18.5883
18.4436
18.1301
17.7348
17.3361
16.9769
16.6741
16.4351
16.2619
16.154
16.1096
16.1255
16.1983
16.3242
16.4996
16.7208
16.9847
17.2885
17.6303
18.0084
18.422
18.8709
19.3553
19.8761
20.4349
21.0336
21.6748
22.3618
23.0984
23.8894
24.7403
25.656
14.7241
15.7885
16.6568
17.0084
16.991
16.7651
16.4229
16.0389
15.677
15.3679
15.1235
14.9474
14.8392
14.7962
14.8149
14.8909
15.0199
15.1974
15.4192
15.6814
15.9809
16.3151
16.682
17.0804
17.5096
17.9699
18.4617
18.9863
19.5454
20.1412
20.7765
21.4546
22.1797
22.9566
23.7909
28.4207
15.4178
15.6295
15.8961
15.909
15.786
15.5413
15.224
14.8943
14.5996
14.3624
14.1911
14.0872
14.0491
14.0735
14.1564
14.2935
14.48
14.7115
14.9836
15.2926
15.6351
16.0086
16.4115
16.8426
17.3019
17.7897
18.3069
18.855
19.4357
20.0515
20.7048
21.3988
22.1372
22.9245
23.7668
30.367
15.7572
15.3382
15.2484
15.0806
14.8766
14.6351
14.3617
14.0979
13.8771
13.7152
13.6182
13.5869
13.6196
13.7133
13.8647
14.0695
14.3231
14.621
14.9584
15.3311
15.7352
16.1681
16.6279
17.1138
17.626
18.1657
18.7347
19.3355
19.9708
20.6433
21.3553
22.1089
22.9052
23.7447
24.6273
31.96
15.8617
15.0092
14.7074
14.4461
14.1957
13.9544
13.7276
13.5292
13.3799
13.2909
13.2666
13.3082
13.415
13.5857
13.818
14.1084
14.4525
14.845
15.2801
15.7519
16.2548
16.7845
17.3379
17.9133
18.5112
19.1336
19.7846
20.4702
21.1987
21.9786
22.8184
23.7251
24.7033
25.753
26.886
33.2771
15.8361
14.6867
14.2578
13.9485
13.6783
13.4407
13.251
13.1111
13.0266
13.0047
13.0497
13.1642
13.35
13.6084
13.9391
14.3401
14.8076
15.3357
15.9174
16.5454
17.2125
17.9127
18.6409
19.3938
20.1698
20.969
21.7939
22.6505
23.5498
24.5188
25.5931
26.8167
28.2524
29.9651
31.9635
34.358
15.7586
14.3887
13.8817
13.5477
13.2735
13.0483
12.8845
12.7913
12.762
12.7989
12.907
13.0918
13.3585
13.7115
14.1531
14.6831
15.2981
15.9925
16.7601
17.5951
18.4938
19.4552
20.4817
21.5794
22.7579
24.0299
25.4118
26.9231
28.5862
30.4276
32.4755
34.7557
37.5464
41.1101
45.6866
45.3035
45.0323
40.4649
31.9826
20.4897
17.0138
13.1577
13.1775
8.2499
6.34823
5.37989
11.4316
3.95978
3.74151
4.47417
11.0482
2.99465
3.26361
4.40825
11.0739
2.77464
3.2064
4.48838
11.2846
2.73438
3.23185
4.61073
11.6215
2.74519
3.27128
4.71298
11.996
2.77274
3.31221
4.79944
12.4002
2.80808
3.35492
4.88135
12.8333
2.84953
3.4023
4.97073
13.3016
2.89735
3.45726
5.07157
13.8098
2.9503
3.51433
5.1712
14.3302
3.00681
3.57397
5.27094
14.8592
3.06719
3.63654
5.37112
15.3922
3.13153
3.70225
5.47187
15.9265
3.19981
3.77118
5.57315
16.4595
3.2719
3.84329
5.67477
16.9879
3.34759
3.91842
5.77635
17.5066
3.42663
3.99632
5.87735
18.0091
3.50871
4.07681
5.97727
18.4845
3.59357
4.15984
6.07602
18.915
3.68092
4.24547
6.17361
19.2755
3.77063
4.33341
6.26628
19.5716
3.86245
4.42379
6.35384
19.8462
3.95177
4.50955
6.4358
20.1048
4.03093
4.58289
6.51542
20.2846
4.09759
4.64196
6.56753
20.4136
4.14993
4.68254
6.59811
20.4748
4.18636
4.70485
6.60772
20.4365
4.20089
4.70826
6.59802
20.3132
4.19174
4.692
6.56883
20.1184
4.15674
4.65623
6.52399
19.8564
4.09713
4.60228
6.46957
19.5307
4.02081
4.53659
6.40753
19.1506
3.9354
4.46789
6.34174
18.7249
3.84856
4.40097
6.27561
18.2634
3.76666
4.3395
6.21183
17.7759
3.6933
4.28597
6.15212
17.2712
3.63066
4.24169
6.0971
16.7554
3.57988
4.20713
6.04665
16.234
3.54177
4.18275
6.00137
15.7109
3.51879
4.17293
5.97512
15.2008
3.51274
4.18306
5.98039
14.7235
3.52232
4.21049
6.00697
14.267
3.54633
4.25266
6.04547
13.8231
3.58369
4.30743
6.09102
13.3853
3.63339
4.37297
6.13984
12.9482
3.69449
4.44774
6.18934
12.5069
3.7662
4.53055
6.23783
12.0567
3.84785
4.62065
6.28424
11.5924
3.9391
4.71769
6.32779
11.1083
4.04006
4.82183
6.36746
10.5978
4.15147
4.93344
6.401
10.0527
4.27426
5.05191
6.42274
9.46185
4.40701
5.17139
6.41804
8.80796
4.54409
5.27372
6.35487
8.06225
4.67061
5.336
6.18432
7.16375
4.88008
5.37665
5.83149
6.01008
9.16579
8.76024
7.75955
4.55118
35.3048
15.6569
14.1039
13.5462
13.1998
12.9308
12.7228
12.5849
12.5229
12.5383
12.6255
12.7899
13.0401
13.3844
13.8291
14.3764
15.0237
15.7638
16.5872
17.4843
18.4478
19.4744
20.5651
21.7253
22.9641
24.2941
25.7296
27.2867
28.9795
30.8153
32.807
34.9534
37.2303
39.5682
41.8146
43.8396
36.0988
15.5525
13.8461
13.256
12.9048
12.6446
12.4528
12.3348
12.2955
12.3364
12.4583
12.664
12.9629
13.3636
13.8693
14.4755
15.17
15.9355
16.7534
17.6075
18.4857
19.381
20.2895
21.2092
22.1396
23.0761
24.0068
24.9129
25.7481
26.4277
26.945
27.233
27.194
26.7306
25.7175
23.518
36.7769
15.4517
13.6087
12.9971
12.6456
12.3942
12.2148
12.1089
12.0814
12.1349
12.2729
12.5005
12.8241
13.2469
13.7624
14.3532
14.9941
15.6576
16.3189
16.9593
17.5656
18.1294
18.6432
19.0932
19.4626
19.7163
19.7768
19.6617
19.3842
18.9778
18.355
17.4639
16.2493
14.6159
12.718
10.4474
37.3217
15.3415
13.3834
12.7582
12.4086
12.1636
11.9908
11.8884
11.8621
11.9163
12.0551
12.2838
12.6037
13.0067
13.4717
13.967
14.4576
14.9117
15.3057
15.6233
15.8543
15.9858
15.9965
15.8475
15.4678
14.9015
14.258
13.5161
12.6672
11.7324
10.694
9.55847
8.36788
7.13947
6.01595
4.95574
37.7523
15.2262
13.1662
12.5316
12.1837
11.9415
11.769
11.6622
11.628
11.6725
11.7998
12.0107
12.2976
12.6378
12.9949
13.3268
13.5953
13.7716
13.8385
13.7833
13.5895
13.2273
12.6485
11.809
10.9188
10.0195
9.1347
8.27135
7.44024
6.64873
5.89781
5.22403
4.60273
4.02022
3.43677
3.13936
38.0795
15.1089
12.9547
12.3117
11.9643
11.721
11.543
11.4255
11.3769
11.4046
11.5104
11.6875
11.9144
12.1536
12.3572
12.4792
12.4846
12.353
12.0713
11.6203
10.9715
10.0974
9.01491
8.00884
7.10199
6.31318
5.63597
5.0554
4.57178
4.14912
3.75456
3.37028
3.06775
2.85315
2.67289
2.64883
38.3127
14.9903
12.7475
12.0954
11.7466
11.4985
11.3109
11.1788
11.1125
11.1196
11.1969
11.3265
11.4714
11.5806
11.6013
11.4901
11.2206
10.7798
10.1498
9.31781
8.2906
7.13039
6.12975
5.32917
4.70264
4.22494
3.84993
3.53203
3.24553
3.00377
2.82163
2.65378
2.53643
2.47496
2.45909
2.5287
38.4606
14.8706
12.5439
11.8811
11.5288
11.2736
11.0739
10.9261
10.8421
10.8278
10.872
10.9432
10.9898
10.9521
10.7776
10.4314
9.89905
9.16862
8.24035
7.15144
6.00641
5.04433
4.33886
3.84275
3.4722
3.1891
2.96663
2.7982
2.6542
2.54297
2.47093
2.41525
2.38116
2.37568
2.40925
2.51224
38.5318
14.7505
12.3438
11.6686
11.3112
11.0474
10.8355
10.6734
10.5743
10.5398
10.5483
10.5537
10.4924
10.3017
9.9353
9.37178
8.60691
7.64803
6.54947
5.43754
4.48708
3.82776
3.37218
3.04929
2.83328
2.67613
2.56086
2.48682
2.43429
2.39676
2.37198
2.35599
2.35202
2.36768
2.41738
2.53105
38.5346
14.6304
12.1473
11.4584
11.0949
10.8226
10.6
10.4275
10.3175
10.2653
10.2371
10.1725
10.0004
9.66028
9.11733
8.3689
7.42543
6.33984
5.237
4.28607
3.60436
3.13809
2.83889
2.64374
2.52856
2.45644
2.41317
2.3897
2.37633
2.36844
2.36446
2.36444
2.37198
2.39506
2.44909
2.56467
38.4771
14.5108
11.9551
11.2513
10.8815
10.6021
10.3722
10.1941
10.0784
10.0118
9.947
9.81173
9.53146
9.05326
8.35966
7.46856
6.41888
5.31973
4.33541
3.59238
3.08628
2.76095
2.57396
2.46778
2.41222
2.38664
2.37851
2.37951
2.38404
2.38934
2.39476
2.40146
2.41331
2.4384
2.49247
2.60675
38.3668
14.3926
11.7678
11.0486
10.6731
10.3888
10.1559
9.97823
9.86226
9.7844
9.68407
9.47981
9.09841
8.49882
7.68599
6.70082
5.61936
4.59115
3.76608
3.17728
2.8
2.58198
2.46486
2.40756
2.38641
2.3857
2.39504
2.40806
2.42109
2.43249
2.44222
2.45183
2.46525
2.49048
2.54329
2.65544
38.2111
14.2761
11.5861
10.8514
10.4713
10.1852
9.95438
9.78298
9.67175
9.58559
9.45153
9.1825
8.70877
8.00618
7.10796
6.07716
5.02264
4.10302
3.41516
2.94446
2.66375
2.51108
2.43585
2.40726
2.40586
2.41843
2.43658
2.45542
2.4724
2.48658
2.49833
2.50933
2.52344
2.54845
2.6
2.71032
38.0166
14.1618
11.4108
10.6609
10.2776
9.99329
9.76957
9.61006
9.508
9.41627
9.2522
8.92336
8.3645
7.57845
6.62894
5.59238
4.5998
3.7917
3.20373
2.82445
2.61114
2.49967
2.45077
2.4397
2.44954
2.46912
2.49154
2.51292
2.53147
2.54676
2.55944
2.57128
2.58597
2.61106
2.66157
2.76932
37.7896
14.0501
11.2423
10.4777
10.0932
9.8142
9.60252
9.4599
9.37079
9.27694
9.08722
8.70165
8.06605
7.21616
6.24223
5.2293
4.31227
3.59674
3.08867
2.77642
2.60715
2.5233
2.49179
2.49142
2.50753
2.53055
2.55465
2.57669
2.59544
2.61088
2.62393
2.63643
2.6519
2.67718
2.72683
2.83236
37.5358
13.9413
11.0811
10.3027
9.91887
9.6486
9.45342
9.33187
9.259
9.16647
8.95324
8.5153
7.8146
6.9162
5.93497
4.96538
4.12539
3.48116
3.03593
2.77317
2.6347
2.56981
2.54966
2.55569
2.57504
2.59932
2.62349
2.64499
2.66301
2.67796
2.69103
2.70408
2.72035
2.74624
2.79558
2.89932
37.26
13.8353
10.9272
10.136
9.75486
9.49658
9.32171
9.22449
9.17038
9.08223
8.8472
8.36207
7.60681
6.67257
5.69715
4.77778
4.00916
3.42044
3.0251
2.80027
2.68406
2.63226
2.61945
2.62909
2.64971
2.67381
2.69693
2.71697
2.73356
2.74751
2.76018
2.77365
2.79096
2.81792
2.86754
2.97005
36.9669
13.7323
10.7808
9.97798
9.60127
9.35781
9.20624
9.13575
9.10253
9.02086
8.766
8.23907
7.43849
6.4807
5.51707
4.64666
3.93863
3.40074
3.04695
2.84948
2.74934
2.70662
2.69842
2.70978
2.73029
2.75314
2.77434
2.79217
2.80672
2.81904
2.83104
2.84489
2.8634
2.89186
2.94238
3.04429
36.6603
13.6321
10.6418
9.82847
9.45789
9.23162
9.10551
9.06327
9.05296
8.9791
8.70646
8.14286
7.30519
6.33278
5.38492
4.56092
3.90155
3.40817
3.09065
2.91484
2.82681
2.79045
2.78497
2.7967
2.81608
2.83681
2.85531
2.87023
2.88199
2.89233
2.90342
2.91752
2.93734
2.96768
3.01974
3.12176
36.3438
13.5346
10.5098
9.6873
9.3243
9.11706
9.01779
9.00449
9.01887
8.95385
8.66536
8.0699
7.20278
6.22265
5.29374
4.51099
3.88928
3.43514
3.15041
2.99262
2.91402
2.88216
2.87806
2.88913
2.90651
2.92437
2.93935
2.95062
2.9592
2.96717
2.97703
2.99122
3.01241
3.04497
3.0992
3.20208
36.0201
13.4395
10.3847
9.55415
9.19993
9.01301
8.94124
8.95708
8.99749
8.94215
8.63956
8.01696
7.12762
6.14539
5.23742
4.48467
3.89848
3.48201
3.22381
3.08063
3.00941
2.98064
2.97689
2.98647
3.00111
3.01516
3.02597
3.03314
3.03806
3.04323
3.05151
3.0656
3.08817
3.12328
3.18033
3.28489
35.6919
13.3466
10.2661
9.42861
9.08412
8.91825
8.87405
8.91929
8.98641
8.94122
8.62628
7.98126
7.07664
6.09685
5.20971
4.47883
3.92511
3.54385
3.30823
3.17718
3.11178
3.08503
3.0808
3.08811
3.09906
3.10873
3.11486
3.1174
3.11815
3.12005
3.1264
3.14018
3.16415
3.20213
3.26268
3.36979
35.3612
13.2557
10.1535
9.31023
8.97619
8.83166
8.81461
8.88941
8.98349
8.94874
8.62323
7.96049
7.04723
6.07345
5.20344
4.49214
3.96889
3.61819
3.40188
3.28104
3.22019
3.19456
3.18906
3.19325
3.1999
3.20463
3.20551
3.20287
3.19889
3.19704
3.20111
3.21437
3.23978
3.28096
3.34569
3.45633
35.0297
13.1664
10.0465
9.19853
8.87541
8.75213
8.76149
8.86575
8.98683
8.96265
8.62845
7.95266
7.03726
6.0723
5.21346
4.52287
4.02928
3.70373
3.50368
3.39127
3.33384
3.30857
3.30092
3.30125
3.30301
3.30223
3.29732
3.28888
3.27959
3.27351
3.2749
3.28742
3.31421
3.35886
3.42855
3.54405
34.6991
13.0786
9.94468
9.09301
8.78109
8.67864
8.71348
8.84687
8.99481
8.98113
8.64027
7.95606
7.04474
6.09067
5.2397
4.56943
4.10336
3.79908
3.61269
3.50706
3.45231
3.42627
3.41556
3.41137
3.40768
3.40086
3.38953
3.37468
3.35948
3.34861
3.3469
3.35831
3.3862
3.43437
3.51029
3.63247
34.3704
12.9921
9.84763
8.99319
8.69256
8.6103
8.66957
8.83158
9.00603
9.0027
8.65731
7.96893
7.06561
6.12288
5.2837
4.63388
4.18992
3.90316
3.72808
3.62846
3.57468
3.5467
3.53214
3.52283
3.51315
3.49972
3.48137
3.45944
3.43768
3.42145
3.4161
3.42585
3.45431
3.50665
3.59015
3.7193
34.0447
12.9065
9.75495
8.89859
8.60918
8.5463
8.62888
8.81889
9.01931
9.02617
8.67846
7.98967
7.09634
6.16789
5.3443
4.71305
4.28724
4.01535
3.85036
3.75423
3.69987
3.66892
3.64979
3.63481
3.61864
3.59803
3.57202
3.5423
3.51329
3.4911
3.48154
3.48901
3.5176
3.5745
3.66513
3.79939
33.7225
12.8219
9.66622
8.80876
8.5304
8.486
8.59073
8.80795
9.03368
9.05063
8.70279
8.01704
7.13595
6.22418
5.41831
4.80407
4.39483
4.13616
3.97795
3.88312
3.8268
3.79198
3.76766
3.74652
3.72335
3.69499
3.66064
3.62242
3.58548
3.55672
3.54238
3.54699
3.57577
3.63664
3.73294
3.8702
33.4045
12.7379
9.58114
8.72329
8.45571
8.42882
8.55455
8.79809
9.04829
9.07526
8.72945
8.04993
7.18339
6.28999
5.50286
4.90723
4.51276
4.26374
4.10936
4.01391
3.95441
3.91494
3.88491
3.85717
3.82655
3.78987
3.74649
3.69904
3.65352
3.61769
3.59811
3.59942
3.62809
3.69179
3.79184
3.92948
33.0916
12.6546
9.49933
8.64181
8.38468
8.37434
8.52013
8.78892
9.06208
9.0984
8.75678
8.08699
7.23755
6.36514
5.59969
5.02179
4.63868
4.39643
4.24312
4.14536
4.08165
4.0369
4.00074
3.96605
3.92756
3.88199
3.82889
3.77154
3.71696
3.67372
3.64858
3.64622
3.67391
3.7388
3.83966
3.97448
32.7842
12.572
9.42048
8.564
8.31696
8.32246
8.48717
8.77984
9.07435
9.11989
8.78456
8.12735
7.29768
6.44877
5.70601
5.14466
4.77026
4.53217
4.3776
4.27617
4.20748
4.15699
4.11441
4.07252
4.02579
3.97081
3.90734
3.83958
3.77571
3.72497
3.69408
3.6876
3.71295
3.77621
3.87376
4.00153
32.4824
12.4897
9.34417
8.48955
8.25249
8.27286
8.45538
8.77054
9.08486
9.13976
8.81274
8.17064
7.36296
6.5392
5.81929
5.27301
4.90492
4.66807
4.51105
4.40507
4.33089
4.27441
4.22529
4.17604
4.12078
4.05589
3.98153
3.90314
3.83019
3.77213
3.73524
3.72373
3.74432
3.80164
3.89061
4.00632
32.1866
12.4068
9.27085
8.41868
8.19101
8.22523
8.42456
8.76078
9.09349
9.15811
8.84129
8.21649
7.43255
6.63481
5.93724
5.40442
5.04051
4.80278
4.64212
4.53095
4.45099
4.38847
4.33283
4.27621
4.21222
4.13701
4.05143
3.96267
3.88136
3.81658
3.77317
3.75401
3.76576
3.81135
3.88555
3.98249
31.9001
12.3276
9.20069
8.35105
8.13222
8.17935
8.39452
8.75041
9.10026
9.17506
8.8702
8.26455
7.50558
6.73403
6.05778
5.53669
5.17511
4.93482
4.76955
4.65278
4.567
4.49858
4.43665
4.37276
4.29991
4.21411
4.11735
4.01911
3.93088
3.86121
3.80717
3.77627
3.77308
3.80001
3.85379
3.92999
31.6222
12.2515
9.13337
8.28638
8.07586
8.13504
8.36514
8.73936
9.10522
9.19077
8.89947
8.31446
7.58114
6.83533
6.17893
5.66779
5.30691
5.06274
4.8922
4.76969
4.67828
4.60432
4.53647
4.46557
4.38387
4.28737
4.18001
4.07406
3.98159
3.90124
3.83469
3.78582
3.75996
3.76163
3.7911
3.85192
31.3524
12.1778
9.0686
8.22442
8.02173
8.09214
8.33632
8.72759
9.1085
9.20541
8.92908
8.36579
7.65829
6.93718
6.29881
5.79585
5.43428
5.18522
5.00906
4.88092
4.78429
4.70536
4.63218
4.55469
4.46426
4.35731
4.2406
4.12917
4.03063
3.94039
3.85346
3.77656
3.71898
3.69121
3.69549
3.75428
31.0901
12.1057
9.00609
8.16493
7.96962
8.05055
8.308
8.71513
9.11026
9.21915
8.95897
8.4181
7.73604
7.03811
6.41569
5.91917
5.55578
5.30111
5.11925
4.98585
4.88465
4.80154
4.7238
4.64032
4.5415
4.42484
4.30088
4.18762
4.08481
3.97619
3.85686
3.73908
3.64289
3.58899
3.5827
3.65
30.8349
12.0348
8.94559
8.10769
7.91938
8.01016
8.28013
8.70205
9.1107
9.23216
8.98907
8.47091
7.81343
7.13673
6.52804
6.03633
5.6703
5.40951
5.22207
5.08401
4.9791
4.8928
4.8115
4.72286
4.61628
4.49148
4.36411
4.25314
4.14183
4.00207
3.83433
3.66452
3.53053
3.46206
3.46198
3.54722
30.5865
11.9647
8.88686
8.05252
7.87084
7.9709
8.2527
8.68842
9.11002
9.24458
9.01928
8.52371
7.8895
7.2318
6.63458
6.14626
5.77719
5.50998
5.317
5.17502
5.06745
4.97916
4.89557
4.80295
4.68974
4.55944
4.43505
4.32797
4.19862
4.01005
3.77718
3.55174
3.39034
3.32298
3.34289
3.45114
30.3446
11.8952
8.82968
7.99922
7.8239
7.9327
8.22571
8.67436
9.10845
9.25655
9.04944
8.57597
7.96331
7.32214
6.73421
6.24804
5.87591
5.60227
5.40372
5.25861
5.14955
5.06074
4.97646
4.88148
4.76348
4.63176
4.51613
4.41264
4.25049
3.99314
3.68439
3.41038
3.23772
3.1834
3.23191
3.36566
30.1089
11.8258
8.77386
7.94764
7.77842
7.89551
8.19915
8.65997
9.10618
9.26817
9.07938
8.62707
8.03384
7.40654
6.82568
6.34051
5.96507
5.68588
5.48227
5.33446
5.22519
5.13758
5.05471
4.95967
4.83976
4.71283
4.61182
4.50709
4.29332
3.94957
3.56504
3.25722
3.0894
3.05815
3.13505
3.2934
29.8793
11.7565
8.7192
7.89762
7.73431
7.85929
8.17305
8.64538
9.1034
9.27949
9.10879
8.67627
8.09992
7.48356
6.90748
6.42212
6.04306
5.75909
5.55179
5.40246
5.29422
5.20959
5.13082
5.03896
4.92128
4.80732
4.72475
4.6101
4.32691
3.88732
3.43555
3.10927
2.95655
2.95311
3.0559
3.23612
29.6555
11.6869
8.66554
7.84902
7.69148
7.82399
8.14741
8.63069
9.10026
9.29047
9.13729
8.72268
8.1602
7.55162
6.97797
6.49119
6.10826
5.82
5.61003
5.46096
5.35604
5.27692
5.20529
5.12089
5.01096
4.91669
4.85598
4.72194
4.35802
3.82185
3.31259
2.97894
2.84775
2.87221
2.99754
3.19607
29.4374
11.617
8.61273
7.80172
7.64983
7.78957
8.12225
8.61599
9.09686
9.30103
9.16434
8.76525
8.21327
7.6092
7.0357
6.54633
6.15932
5.86717
5.65545
5.50826
5.40929
5.33926
5.27884
5.20707
5.11159
5.0441
5.00596
4.84675
4.39922
3.77038
3.21204
2.87961
2.77279
2.82056
2.96043
3.17345
29.225
11.5466
8.56064
7.75559
7.60929
7.756
8.09759
8.60136
9.09326
9.31096
9.18932
8.80289
8.25779
7.65506
7.07967
6.58674
6.1955
5.89979
5.68729
5.54373
5.45351
5.3965
5.35234
5.29906
5.22548
5.19186
5.17469
4.99157
4.46641
3.75236
3.15228
2.82684
2.73442
2.79344
2.94236
3.16714
29.018
11.4756
8.50915
7.71053
7.56978
7.72325
8.07343
8.58684
9.08946
9.32
9.21152
8.83452
8.29265
7.68839
7.10945
6.61216
6.21645
5.91742
5.70518
5.56725
5.4889
5.44903
5.42636
5.39756
5.35297
5.35854
5.36086
5.16363
4.57692
3.79675
3.15933
2.81806
2.7245
2.78699
2.9414
3.17599
28.8164
11.404
8.45816
7.66643
7.53124
7.69128
8.04977
8.57248
9.08542
9.32784
9.23024
8.85919
8.31701
7.70878
7.12496
6.62253
6.22176
5.91952
5.7093
5.57948
5.51561
5.4966
5.50026
5.50158
5.49117
5.54016
5.56243
5.37461
4.76498
3.92528
3.22445
2.84554
2.73825
2.79839
2.95589
3.19895
28.6203
11.3318
8.40759
7.62321
7.4936
7.66006
8.0266
8.55827
9.08104
9.33409
9.24475
8.87607
8.33036
7.71614
7.12636
6.61787
6.21092
5.90793
5.70084
5.5795
5.53228
5.53739
5.57164
5.60903
5.63734
5.73188
5.78602
5.63814
5.03659
4.14133
3.35223
2.90936
2.774
2.82589
2.98451
3.23505
28.4294
11.2589
8.35737
7.5808
7.4568
7.62956
8.00393
8.5442
9.0762
9.33836
9.25439
8.88453
8.33244
7.71066
7.11391
6.59788
6.18655
5.8838
5.67918
5.56598
5.53567
5.56738
5.63585
5.71452
5.78703
5.92536
6.028
5.95319
5.39927
4.4605
3.55809
3.01574
2.83264
2.86866
3.0263
3.28344
28.2438
11.1853
8.30746
7.53913
7.4208
7.59975
7.98173
8.53025
9.07073
9.34022
9.25856
8.88412
8.32325
7.69264
7.08793
6.56378
6.15078
5.8472
5.64391
5.53754
5.52253
5.58129
5.6863
5.80987
5.93397
6.11089
6.27822
6.30787
5.85536
4.90205
3.8666
3.17856
2.91787
2.92664
3.08049
3.34333
28.0634
11.1112
8.25781
7.49813
7.38554
7.57061
7.95999
8.51635
9.06445
9.33925
9.25673
8.87459
8.30296
7.66243
7.04781
6.51965
6.10417
5.7985
5.59482
5.49274
5.49013
5.57373
5.71487
5.88361
6.06588
6.27952
6.52096
6.67786
6.39109
5.48482
4.31506
3.42493
3.03777
3.0008
3.14646
3.414
27.8883
11.0366
8.20842
7.45777
7.35099
7.54211
7.93868
8.50245
9.05713
9.33503
9.24849
8.85586
8.27195
7.62064
6.99623
6.46607
6.04748
5.73826
5.53239
5.43131
5.43637
5.53948
5.71292
5.92374
6.15635
6.41997
6.73888
7.02787
6.97029
6.21598
4.94759
3.7987
3.2091
3.09429
3.22385
3.49484
27.7182
10.9616
8.15927
7.41801
7.31712
7.51423
7.91778
8.48846
9.04854
9.32717
9.23356
8.82804
8.23059
7.56679
6.93692
6.40425
5.9818
5.66695
5.45779
5.35401
5.3604
5.47439
5.67242
5.92215
6.20475
6.52184
6.91352
7.32214
7.53073
7.06434
5.81361
4.37761
3.47001
3.21659
3.31288
3.58546
27.5534
10.8863
8.11037
7.37882
7.28389
7.48694
7.89724
8.47427
9.03843
9.31532
9.21177
8.7914
8.17958
7.50327
6.87058
6.33537
5.90875
5.58808
5.37313
5.26232
5.2629
5.37706
5.58769
5.86752
6.19587
6.5723
7.01512
7.53136
7.99409
7.93979
6.92522
5.26072
3.89842
3.37838
3.41399
3.68588
27.3935
10.8109
8.06175
7.34018
7.25129
7.46023
7.87704
8.45978
9.02654
9.29919
9.18309
8.7463
8.11899
7.43304
6.79825
6.2606
5.82962
5.5027
5.27958
5.15776
5.14592
5.24933
5.45795
5.75267
6.1149
6.54025
7.04156
7.64203
8.29434
8.69877
8.1969
6.54362
4.65477
3.63426
3.53333
3.79692
27.2388
10.7355
8.01343
7.30208
7.2193
7.43407
7.85712
8.44487
9.01264
9.27855
9.1476
8.69326
8.0498
7.35773
6.72102
6.18092
5.74531
5.41126
5.17717
5.04215
5.01264
5.09579
5.28742
5.57786
5.9572
6.41774
6.9672
7.62638
8.40936
9.19384
9.40736
8.23013
5.93531
4.10714
3.68629
3.92125
27.089
10.6602
7.96544
7.26451
7.1879
7.40844
7.83744
8.42939
8.99647
9.25325
9.10551
8.63287
7.97398
7.27796
6.63974
6.09705
5.65659
5.31492
5.06779
4.91771
4.8668
4.92295
5.08544
5.35188
5.72232
6.19652
6.77946
7.48941
8.35235
9.35253
10.2381
10.0814
7.9473
5.14823
3.92455
4.05839
26.9442
10.5852
7.91783
7.22748
7.15708
7.38331
7.81794
8.41322
8.97783
9.22318
9.05703
8.56498
7.89402
7.19467
6.55511
6.00925
5.56482
5.21571
4.95494
4.78664
4.71185
4.73705
4.86261
5.0899
5.42616
5.88206
6.46655
7.19816
8.10455
9.21665
10.4878
11.4775
10.6485
7.23378
4.37456
4.219
26.8043
10.5106
7.87064
7.191
7.12685
7.35869
7.79857
8.3962
8.95654
9.1884
9.00267
8.4911
7.81077
7.10882
6.46793
5.91877
5.47116
5.11442
4.8392
4.6497
4.55073
4.5434
4.62832
4.80774
5.09162
5.49773
6.04748
6.7649
7.67838
8.82454
10.2491
11.9058
13
10.9748
5.946
4.51859
26.6694
10.4369
7.82413
7.15528
7.09738
7.33472
7.77942
8.3784
8.93272
9.14942
8.94349
8.41345
7.7257
7.02174
6.37895
5.8276
5.37713
5.01267
4.72268
4.51019
4.38644
4.34653
4.39005
4.51844
4.74086
5.07584
5.55112
6.20336
7.07474
8.20442
9.65267
11.4954
13.7768
15.1251
10.7437
7.19861
26.5662
10.3791
7.78757
7.12716
7.07416
7.31576
7.76396
8.36321
8.91121
9.11397
8.89009
8.34566
7.65172
6.94568
6.30046
5.74766
5.29443
4.92305
4.61987
4.38718
4.23731
4.16564
4.16905
4.24741
4.40733
4.66398
5.04266
5.58226
6.33597
7.36423
8.73429
10.5464
12.9603
16.2512
18.3365
9.51655
26.4663
10.3223
7.75157
7.09963
7.05153
7.29727
7.74865
8.34742
8.88808
9.0763
8.83489
8.27818
7.57953
6.87246
6.22589
5.67296
5.21805
4.84144
4.52787
4.27946
4.10899
4.01428
3.98836
4.03036
4.14428
4.34111
4.6411
5.07796
5.70223
6.58087
7.79641
9.45075
11.6887
14.73
18.8719
15.1165
26.3695
10.2666
7.71579
7.07226
7.02904
7.27883
7.73304
8.33053
8.86255
9.03518
8.77605
8.20806
7.50537
6.7977
6.15032
5.59767
5.14133
4.76015
4.43726
4.17481
3.98621
3.87271
3.82305
3.83598
3.91263
4.05942
4.29055
4.631
5.11929
5.81415
6.79882
8.19272
10.1645
12.9514
16.9821
23.6098
25.8783
22.8659
19.2265
11.5319
12.2239
13.0943
14.0792
13.7168
10.0476
11.6716
13.6861
15.5208
8.8346
10.619
13.1772
16.8187
7.93747
9.75193
12.6416
17.8047
7.27729
9.05544
12.1313
18.625
6.79612
8.51769
11.6958
19.3352
6.44299
8.10612
11.3378
19.9608
6.1802
7.79032
11.0483
20.519
5.98127
7.54603
10.8162
21.0222
5.82784
7.35491
10.6308
21.4802
5.70716
7.20348
10.483
21.9009
5.61036
7.08192
10.3653
22.2908
5.53121
6.98306
10.2718
22.6556
5.46529
6.90167
10.1976
23.0001
5.40942
6.83384
10.1392
23.3282
5.36128
6.7767
10.0935
23.6436
5.31914
6.72801
10.0584
23.9494
5.2817
6.68609
10.0319
24.2483
5.2479
6.64958
10.0127
24.5429
5.21693
6.61744
9.99945
24.8354
5.18817
6.58884
9.99137
25.128
5.16118
6.56322
9.98777
25.4227
5.13572
6.54021
9.9883
25.7215
5.11169
6.51964
9.99286
26.0265
5.08911
6.50149
10.0017
26.3398
5.06806
6.48586
10.0152
26.6637
5.04868
6.47294
10.0343
27.0008
5.03111
6.46301
10.0599
27.3541
5.01551
6.45637
10.0942
27.727
5.00216
6.45333
10.1385
28.1242
4.98977
6.45118
10.1843
28.533
4.97824
6.44965
10.2308
28.9549
4.96774
6.44889
10.278
29.39
4.95852
6.44916
10.3263
29.8399
4.95089
6.45079
10.3759
30.3058
4.94523
6.45418
10.4271
30.7886
4.94206
6.45986
10.4803
31.2893
4.94201
6.46841
10.536
31.8092
4.9459
6.48051
10.5948
32.3492
4.95463
6.49686
10.6573
32.9105
4.96803
6.5182
10.724
33.4947
4.98662
6.54559
10.796
34.1029
5.0109
6.58028
10.874
34.7368
5.04103
6.62382
10.9593
35.3986
5.07632
6.67826
11.0526
36.092
5.11773
6.73917
11.1545
36.8223
5.16516
6.80265
11.2677
37.5953
5.21728
6.86637
11.3984
38.4187
5.27769
6.93372
11.5427
39.3086
5.35505
7.01397
11.6853
40.2844
5.45264
7.10969
11.824
41.3529
5.57235
7.22344
11.9569
42.5067
5.71519
7.35672
12.0708
43.6889
5.88124
7.49662
12.0708
44.7218
6.07954
7.69495
12.1402
45.9187
6.33699
8.03007
12.472
48.1716
6.55367
8.35745
12.9751
50.4644
6.73285
8.59956
13.5121
53.2872
6.84561
8.77153
16.0132
56.2236
26.2513
10.198
7.67138
7.03849
7.00144
7.25619
7.71342
8.30825
8.82827
8.98122
8.70179
8.12229
7.41643
6.70927
6.06218
5.51067
5.05333
4.66797
4.3361
4.06047
3.85667
3.72755
3.66069
3.65237
3.70071
3.80825
3.98401
4.24463
4.61618
5.13905
5.87276
6.90988
8.39644
10.5591
13.7961
18.9326
26.1378
10.1309
7.62772
7.0051
6.97413
7.2336
7.69323
8.28405
8.79024
8.92217
8.62276
8.03247
7.32384
6.6173
5.97064
5.41985
4.9612
4.57177
4.23168
3.94408
3.72633
3.58188
3.50151
3.47552
3.49947
3.57267
3.69963
3.88811
4.15449
4.52058
5.01529
5.67532
6.54276
7.65842
9.05385
10.7398
26.0288
10.0655
7.585
6.97234
6.94734
7.21126
7.67258
8.25807
8.74881
8.85936
8.54127
7.94172
7.23142
6.52626
5.88081
5.33114
4.8717
4.47916
4.13311
3.83732
3.61031
3.45548
3.36693
3.32952
3.33709
3.38691
3.47976
3.62024
3.8195
4.09208
4.45734
4.94068
5.57408
6.39502
7.43201
8.65402
25.9242
10.0019
7.54323
6.94025
6.92105
7.18912
7.65136
8.2302
8.70424
8.79321
8.45784
7.85056
7.13966
6.43665
5.79326
5.24511
4.78539
4.39068
4.04112
3.7413
3.50997
3.35076
3.25676
3.21262
3.20997
3.24449
3.31435
3.42367
3.58013
3.79427
4.08051
4.45843
4.95417
5.60202
6.44089
7.49895
25.8236
9.94006
7.50236
6.90884
6.89526
7.16711
7.62948
8.20034
8.65663
8.72414
8.37301
7.75949
7.04903
6.34894
5.70857
5.16235
4.70286
4.30681
3.95625
3.6565
3.42498
3.26512
3.16866
3.1213
3.11273
3.13693
3.1921
3.28126
3.40993
3.586
3.82071
4.12978
4.535
5.06667
5.76563
6.68764
25.727
9.88006
7.46241
6.8781
6.86994
7.14519
7.60686
8.16848
8.60609
8.65257
8.28726
7.66896
6.95995
6.26362
5.62729
5.08342
4.62464
4.22796
3.87887
3.58297
3.35447
3.19647
3.0996
3.05146
3.03957
3.05731
3.10341
3.17975
3.29027
3.44114
3.64145
3.90432
4.24848
4.70122
5.30328
6.12007
25.6339
9.82188
7.4234
6.84803
6.84507
7.12328
7.58337
8.13452
8.55271
8.57893
8.20105
7.57939
6.87285
6.18112
5.54992
5.00884
4.55123
4.15453
3.80932
3.52032
3.29723
3.1429
3.0477
2.99937
2.98563
2.99995
3.04077
3.10909
3.20774
3.34168
3.51856
3.74968
4.05167
4.44962
4.98317
5.72046
25.5443
9.76553
7.3853
6.81863
6.82062
7.10133
7.55894
8.09844
8.49668
8.50362
8.11482
7.4912
6.78811
6.10187
5.47689
4.93906
4.48293
4.08719
3.74749
3.46734
3.25157
3.10196
3.00932
2.96161
2.94729
2.96016
2.99818
3.06158
3.15241
3.27476
3.43521
3.6438
3.91566
4.27422
4.75783
5.43475
25.4578
9.71099
7.3481
6.78992
6.79656
7.07927
7.53349
8.06028
8.43822
8.42704
8.02897
7.40474
6.70609
6.0262
5.40841
4.87424
4.41938
4.0264
3.6941
3.42359
3.21596
3.0715
2.98185
2.93533
2.9214
2.93407
2.9708
3.03123
3.11683
3.23099
3.37952
3.57149
3.82094
4.15007
4.59603
5.22645
25.3742
9.65825
7.31183
6.76188
6.77286
7.05702
7.50695
8.02006
8.37755
8.34958
7.94388
7.32038
6.62713
5.95441
5.3444
4.81429
4.36085
3.97296
3.64928
3.38835
3.18897
3.04972