/*--------------------------------*- C++ -*----------------------------------*\
| =========                 |                                                 |
| \\      /  F ield         | OpenFOAM: The Open Source CFD Toolbox           |
|  \\    /   O peration     | Version:  v2012                                 |
|   \\  /    A nd           | Website:  www.openfoam.com                      |
|    \\/     M anipulation  |                                                 |
\*---------------------------------------------------------------------------*/
FoamFile
{
    version     2.0;
    format      ascii;
    class       volScalarField;
    location    "626";
    object      p;
}
// * * * * * * * * * * * * * * * * * * * * * * * * * * * * * * * * * * * * * //

dimensions      [0 2 -2 0 0 0 0];


internalField   nonuniform List<scalar> 
6108
(
0.326821
0.326807
0.326872
0.326992
0.327152
0.327339
0.327545
0.327764
0.327991
0.328223
0.328459
0.328697
0.328936
0.329178
0.329425
0.329677
0.32994
0.330267
0.330808
0.331597
0.326811
0.326802
0.326871
0.326996
0.327161
0.327352
0.327562
0.327784
0.328015
0.328252
0.328494
0.328738
0.328985
0.329235
0.329489
0.329745
0.330001
0.33028
0.330607
0.330897
0.326691
0.326705
0.326794
0.326935
0.327111
0.32731
0.327525
0.327751
0.327985
0.328225
0.328468
0.328715
0.328963
0.329215
0.32947
0.329719
0.329962
0.330206
0.330418
0.33052
0.326485
0.326548
0.326676
0.326846
0.327042
0.327255
0.327479
0.327712
0.32795
0.328192
0.328437
0.328683
0.328932
0.329183
0.329432
0.329671
0.329903
0.330127
0.330301
0.330361
0.326215
0.326351
0.326538
0.326746
0.326968
0.327202
0.32744
0.327682
0.327926
0.328172
0.328419
0.328667
0.328916
0.329166
0.329413
0.32965
0.329877
0.330088
0.330246
0.330292
0.325886
0.32612
0.326386
0.326643
0.3269
0.327157
0.32741
0.327662
0.327913
0.328163
0.328413
0.328663
0.328913
0.329164
0.329412
0.329649
0.329877
0.330088
0.330245
0.330292
0.325516
0.325884
0.326242
0.326555
0.326847
0.327126
0.327394
0.327655
0.327912
0.328167
0.32842
0.328672
0.328925
0.329178
0.329429
0.329669
0.329902
0.330126
0.3303
0.33036
0.325188
0.325691
0.326136
0.326497
0.326819
0.327115
0.327395
0.327665
0.327928
0.328187
0.328443
0.328698
0.328952
0.329208
0.329465
0.329716
0.329959
0.330205
0.330417
0.330519
0.325036
0.325615
0.3261
0.32648
0.326816
0.327122
0.327408
0.327682
0.327948
0.328208
0.328464
0.328719
0.328972
0.329226
0.329483
0.329741
0.329998
0.330278
0.330605
0.330896
0.325293
0.325677
0.326085
0.326463
0.326798
0.327104
0.327389
0.327661
0.327923
0.328179
0.32843
0.328678
0.328923
0.32917
0.32942
0.329674
0.329938
0.330265
0.330807
0.331595
0.328252
0.327623
0.327197
0.32694
0.328261
0.327623
0.327187
0.326928
0.328066
0.327442
0.327021
0.326782
0.327678
0.327095
0.326709
0.32652
0.327123
0.326602
0.326266
0.326154
0.326444
0.325998
0.325689
0.325677
0.325668
0.325261
0.324891
0.325045
0.324475
0.32409
0.32376
0.324317
0.32231
0.322732
0.323147
0.323201
0.323383
0.324732
0.324776
0.318159
0.777454
0.776254
0.77554
0.775601
0.775538
0.774074
0.767903
0.754103
0.734183
0.710405
0.6841
0.656239
0.627606
0.598851
0.57053
0.543111
0.516984
0.492459
0.469762
0.449048
0.430392
0.413797
0.399207
0.38653
0.375636
0.366374
0.35858
0.352081
0.346708
0.342307
0.338734
0.335852
0.33354
0.331699
0.330245
0.329113
0.776884
0.775263
0.775047
0.775875
0.776233
0.774136
0.766138
0.751425
0.732006
0.708795
0.682957
0.65547
0.62713
0.598597
0.570435
0.543124
0.517062
0.492569
0.469882
0.44916
0.430483
0.413862
0.399249
0.386551
0.375641
0.366368
0.358569
0.352069
0.346696
0.342296
0.338731
0.335859
0.333555
0.331717
0.330264
0.329129
0.777123
0.77524
0.775193
0.775755
0.774748
0.770088
0.760008
0.744793
0.725593
0.702914
0.677692
0.650774
0.622919
0.594787
0.566951
0.539909
0.514075
0.489784
0.467287
0.446748
0.428253
0.411816
0.397388
0.384875
0.374146
0.36505
0.357418
0.351078
0.345858
0.341599
0.338155
0.335387
0.333171
0.331404
0.330004
0.328908
0.779088
0.776788
0.775926
0.774503
0.770727
0.763372
0.75178
0.736121
0.716856
0.694475
0.669715
0.643284
0.615878
0.588136
0.560639
0.533898
0.508351
0.484347
0.46215
0.441931
0.423778
0.407699
0.393643
0.381505
0.371148
0.362412
0.355122
0.349102
0.344179
0.340192
0.33699
0.334433
0.332393
0.330766
0.329474
0.32846
0.782188
0.779049
0.776206
0.7721
0.765461
0.75575
0.742661
0.726198
0.70656
0.684156
0.659557
0.633373
0.606237
0.578764
0.551537
0.52508
0.499847
0.476203
0.454419
0.434667
0.417028
0.401501
0.388017
0.376458
0.366673
0.358489
0.351722
0.346189
0.341712
0.338128
0.335287
0.333043
0.331264
0.329844
0.328709
0.327814
0.784773
0.780112
0.774924
0.768118
0.758881
0.747028
0.732359
0.714837
0.694572
0.671865
0.647165
0.621004
0.593963
0.566638
0.539612
0.513424
0.488542
0.465342
0.444098
0.424975
0.408037
0.393263
0.380562
0.369792
0.360781
0.353341
0.347278
0.342397
0.338513
0.335464
0.333099
0.331269
0.329831
0.32868
0.327748
0.327008
0.785206
0.778658
0.771357
0.76208
0.75056
0.736783
0.720579
0.701911
0.680849
0.657624
0.632605
0.606264
0.579147
0.551843
0.524943
0.499002
0.474504
0.451835
0.431261
0.412933
0.396888
0.383075
0.371367
0.361592
0.353554
0.347047
0.34186
0.337783
0.334628
0.332232
0.330451
0.329143
0.328144
0.327336
0.326657
0.326099
0.782261
0.77411
0.765112
0.75377
0.740336
0.724875
0.707231
0.687395
0.665424
0.641513
0.615981
0.589268
0.561909
0.534499
0.507649
0.481939
0.45787
0.43583
0.416073
0.39872
0.38377
0.371126
0.360618
0.352037
0.345154
0.339741
0.335573
0.332433
0.330135
0.32851
0.327433
0.32679
0.326314
0.325851
0.325373
0.324897
0.776166
0.766434
0.756072
0.743125
0.728137
0.711221
0.692249
0.671259
0.648312
0.623587
0.597385
0.570139
0.542396
0.51478
0.487937
0.462479
0.438927
0.41766
0.398906
0.38274
0.369102
0.357838
0.348724
0.341502
0.335907
0.331688
0.328613
0.326441
0.324919
0.323967
0.323564
0.323538
0.323453
0.323158
0.322815
0.322497
0.766933
0.755703
0.744293
0.730139
0.713911
0.695762
0.675596
0.653501
0.629553
0.603932
0.57695
0.549059
0.520846
0.492987
0.466185
0.441089
0.418228
0.397962
0.380465
0.365738
0.353645
0.343951
0.33637
0.330598
0.326337
0.32333
0.32136
0.320178
0.319504
0.319333
0.319607
0.320104
0.320705
0.321421
0.322261
0.322947
0.309692
0.309907
0.307616
0.29762
0.307582
0.307171
0.305457
0.302293
0.306647
0.306164
0.30513
0.303903
0.30611
0.305666
0.30508
0.304492
0.305647
0.305379
0.305027
0.304702
0.30532
0.30516
0.304932
0.304736
0.305039
0.304953
0.304807
0.304691
0.304778
0.304754
0.304675
0.304613
0.304536
0.304569
0.304548
0.304534
0.304318
0.304405
0.304438
0.304472
0.304126
0.304267
0.304355
0.304442
0.303965
0.304161
0.304308
0.304451
0.303836
0.304089
0.304302
0.304507
0.303739
0.304052
0.304335
0.304614
0.303672
0.304046
0.304408
0.304772
0.303629
0.304068
0.304517
0.304976
0.303604
0.304107
0.304652
0.305215
0.303586
0.304153
0.3048
0.305475
0.30356
0.304188
0.304944
0.305734
0.303509
0.304189
0.305057
0.305958
0.303413
0.304134
0.305108
0.3061
0.303254
0.304003
0.30508
0.306127
0.303006
0.303772
0.304967
0.306037
0.30261
0.303389
0.304718
0.305793
0.302056
0.302837
0.304255
0.305367
0.301358
0.302119
0.303541
0.304758
0.300458
0.301196
0.302589
0.303931
0.299299
0.30003
0.301393
0.302842
0.297876
0.298621
0.299965
0.30152
0.296204
0.296988
0.298336
0.299988
0.294309
0.295152
0.296502
0.298195
0.292249
0.293155
0.294483
0.296166
0.290098
0.29105
0.292329
0.293967
0.287933
0.2889
0.290113
0.291673
0.285815
0.286766
0.287912
0.289365
0.283812
0.284732
0.285797
0.287122
0.281986
0.282879
0.283841
0.285019
0.280406
0.281253
0.282098
0.283118
0.279103
0.27988
0.280601
0.281459
0.27807
0.278764
0.279367
0.280068
0.277292
0.2779
0.278392
0.278956
0.276751
0.277277
0.277666
0.278118
0.27643
0.27688
0.277182
0.277535
0.27631
0.276695
0.276925
0.277195
0.276374
0.276706
0.276883
0.277085
0.276605
0.276895
0.277037
0.277193
0.276988
0.27725
0.277374
0.277501
0.277507
0.277755
0.27788
0.277993
0.278148
0.278397
0.27854
0.278659
0.278896
0.279162
0.279346
0.27949
0.279738
0.28004
0.280289
0.280477
0.280661
0.281019
0.281361
0.281613
0.281654
0.282089
0.282552
0.282882
0.282703
0.283236
0.283843
0.284256
0.283793
0.284439
0.285197
0.285677
0.284899
0.285661
0.286542
0.287036
0.285978
0.286836
0.287761
0.288171
0.286945
0.287859
0.288687
0.288893
0.287678
0.288583
0.289159
0.289174
0.287975
0.289013
0.289332
0.289243
0.753683
0.741479
0.72939
0.71437
0.697167
0.677967
0.656729
0.633573
0.608606
0.582031
0.554192
0.525597
0.496906
0.468881
0.442295
0.417838
0.396031
0.377179
0.361361
0.348465
0.33824
0.330351
0.324435
0.320132
0.317112
0.315098
0.313847
0.313109
0.312669
0.312446
0.312338
0.312227
0.312132
0.311992
0.311615
0.310619
0.736401
0.723657
0.711291
0.695748
0.677832
0.657775
0.635605
0.611469
0.585515
0.557992
0.529309
0.500071
0.47106
0.443151
0.417203
0.393924
0.373783
0.356966
0.343399
0.332808
0.324805
0.318955
0.314834
0.312058
0.3103
0.309284
0.308783
0.308602
0.308618
0.308709
0.308806
0.308832
0.308825
0.308733
0.308461
0.30796
0.716095
0.703197
0.690793
0.675033
0.656651
0.635958
0.613037
0.58807
0.561256
0.532915
0.503567
0.473958
0.445024
0.41777
0.393108
0.371703
0.353884
0.339639
0.328686
0.320577
0.3148
0.310859
0.308313
0.306796
0.306015
0.305736
0.305786
0.306032
0.306369
0.306708
0.306999
0.307185
0.307307
0.307337
0.307157
0.306869
0.693606
0.680729
0.668411
0.652601
0.63398
0.612861
0.58938
0.563771
0.536295
0.50738
0.477696
0.44817
0.419904
0.393997
0.371336
0.352437
0.337398
0.32596
0.31763
0.311821
0.307962
0.305552
0.304193
0.303581
0.303486
0.30374
0.304193
0.304737
0.305293
0.305804
0.306235
0.306517
0.306625
0.306648
0.306583
0.30639
0.669545
0.656817
0.644656
0.628889
0.610233
0.588884
0.565061
0.539044
0.511185
0.482052
0.452499
0.423645
0.396726
0.372849
0.352764
0.336745
0.324611
0.315865
0.309858
0.305942
0.303555
0.30226
0.301736
0.301742
0.302094
0.30265
0.303294
0.303942
0.304538
0.305046
0.305445
0.305741
0.305922
0.305975
0.305928
0.305815
0.644399
0.631963
0.619995
0.604378
0.585851
0.564473
0.540545
0.514402
0.486511
0.457606
0.428737
0.401186
0.376242
0.354911
0.337712
0.324626
0.315212
0.308795
0.304657
0.302163
0.300824
0.300284
0.300277
0.300614
0.301154
0.301791
0.302453
0.303092
0.303676
0.304182
0.304596
0.30492
0.305161
0.305315
0.305385
0.305386
0.618652
0.606621
0.594913
0.57957
0.561301
0.540092
0.516309
0.490355
0.462829
0.434641
0.407015
0.38133
0.358825
0.34031
0.326017
0.315652
0.308574
0.304018
0.30127
0.299768
0.299104
0.298985
0.299217
0.299668
0.300244
0.300883
0.301542
0.302186
0.302791
0.303337
0.303814
0.304216
0.304541
0.304788
0.304955
0.305038
0.592773
0.581241
0.569882
0.554909
0.537024
0.51618
0.492801
0.467366
0.440614
0.413615
0.387717
0.364312
0.344494
0.328812
0.317219
0.309198
0.303992
0.300822
0.299033
0.298151
0.297851
0.297926
0.298249
0.298737
0.299331
0.299988
0.300673
0.301355
0.302011
0.30262
0.303169
0.303647
0.304045
0.304359
0.304586
0.304724
0.567185
0.556223
0.545294
0.530779
0.51341
0.493125
0.470403
0.445808
0.420208
0.3948
0.370992
0.350098
0.333003
0.319978
0.310736
0.304616
0.300822
0.298615
0.29743
0.296895
0.296779
0.29695
0.297327
0.297852
0.298482
0.299179
0.29991
0.300646
0.301361
0.302031
0.302638
0.303171
0.303619
0.303978
0.304249
0.304433
0.542249
0.53191
0.521476
0.507509
0.490786
0.471244
0.449414
0.425946
0.401812
0.378291
0.356781
0.338459
0.32396
0.313293
0.305994
0.301339
0.298549
0.296967
0.29614
0.295801
0.295796
0.296039
0.29647
0.297044
0.297722
0.29847
0.299253
0.30004
0.300804
0.301521
0.302171
0.302743
0.30323
0.303628
0.303938
0.304165
0.518265
0.508588
0.498703
0.485369
0.46941
0.450772
0.430037
0.407925
0.385487
0.364025
0.344877
0.329051
0.316921
0.308261
0.302503
0.298924
0.296813
0.295622
0.295015
0.294804
0.294885
0.295194
0.295684
0.296313
0.297042
0.297836
0.298664
0.299492
0.300296
0.301051
0.301739
0.302348
0.302871
0.303306
0.303656
0.303926
0.495472
0.486483
0.477192
0.464563
0.449469
0.431867
0.412383
0.39179
0.371176
0.351823
0.334973
0.321477
0.311464
0.304466
0.299882
0.297062
0.295396
0.294455
0.293997
0.293884
0.29404
0.294416
0.294963
0.295641
0.296414
0.297248
0.298112
0.298977
0.299817
0.300609
0.301334
0.301981
0.302541
0.303015
0.303404
0.303717
0.474051
0.465762
0.457098
0.445232
0.431078
0.414609
0.396482
0.377499
0.358742
0.341426
0.326701
0.315386
0.307273
0.301607
0.297871
0.295565
0.294189
0.293417
0.293067
0.293034
0.29326
0.293694
0.29429
0.29501
0.295819
0.296687
0.297585
0.298485
0.299362
0.300192
0.300956
0.301642
0.302242
0.302754
0.303184
0.30354
0.454125
0.446537
0.438518
0.427457
0.414295
0.399018
0.382304
0.364954
0.347993
0.332549
0.319874
0.310584
0.304057
0.299449
0.29631
0.29433
0.293143
0.292488
0.292219
0.292253
0.292537
0.29302
0.293656
0.294409
0.295251
0.296151
0.297082
0.298017
0.298931
0.2998
0.300605
0.301332
0.301972
0.302525
0.302995
0.303394
0.435766
0.428868
0.421502
0.411267
0.399122
0.385066
0.369779
0.354031
0.338752
0.325155
0.314512
0.306827
0.301444
0.297728
0.295086
0.293306
0.292234
0.291659
0.291451
0.291539
0.29187
0.29239
0.293058
0.293841
0.294711
0.29564
0.296604
0.297574
0.298526
0.299435
0.300282
0.301051
0.301732
0.302325
0.302836
0.303278
0.419
0.412772
0.406052
0.396649
0.385527
0.372689
0.35881
0.344613
0.330941
0.319239
0.310363
0.303793
0.299227
0.296229
0.294053
0.292448
0.291449
0.290926
0.290763
0.290892
0.291257
0.291806
0.2925
0.293307
0.294202
0.29516
0.296154
0.297158
0.298148
0.299097
0.299985
0.300797
0.30152
0.302154
0.302704
0.303187
0.403812
0.398227
0.392138
0.383557
0.373441
0.361798
0.349277
0.336535
0.324489
0.314543
0.306989
0.301298
0.297392
0.294885
0.293113
0.291718
0.29077
0.290283
0.290154
0.290314
0.290703
0.291273
0.291987
0.292814
0.293731
0.294713
0.295735
0.296772
0.297796
0.298785
0.299714
0.300567
0.301332
0.302005
0.302594
0.303116
0.390157
0.385184
0.3797
0.371921
0.362778
0.352286
0.341056
0.329647
0.319194
0.310757
0.304174
0.299247
0.295891
0.293722
0.292257
0.291067
0.29018
0.289725
0.289624
0.289806
0.290213
0.290797
0.291525
0.292367
0.293301
0.294303
0.29535
0.296414
0.297472
0.298497
0.299465
0.300358
0.301162
0.301873
0.302497
0.303055
0.377973
0.37357
0.368661
0.36165
0.353434
0.344033
0.334026
0.323872
0.314831
0.307614
0.301834
0.297565
0.29466
0.292754
0.291489
0.290468
0.289672
0.289251
0.289175
0.289374
0.289792
0.290384
0.29112
0.291971
0.292917
0.293934
0.294999
0.296087
0.297172
0.298229
0.299232
0.300162
0.301003
0.301748
0.302404
0.302993
0.367182
0.3633
0.35893
0.352645
0.3453
0.336913
0.328037
0.31908
0.311238
0.304979
0.299905
0.296187
0.293641
0.291948
0.290813
0.289942
0.289255
0.288866
0.28881
0.289022
0.289445
0.29004
0.290777
0.291631
0.292582
0.293606
0.294682
0.295786
0.296892
0.297975
0.299009
0.299971
0.300844
0.30162
0.302303
0.302914
0.357686
0.354279
0.350408
0.3448
0.338262
0.330799
0.322912
0.315099
0.308323
0.302806
0.298334
0.295066
0.292808
0.291286
0.290253
0.28951
0.288923
0.28857
0.288535
0.288754
0.289178
0.289769
0.290501
0.291351
0.292297
0.293319
0.294397
0.295508
0.296627
0.297728
0.298784
0.299772
0.300672
0.301474
0.302178
0.302804
0.349386
0.346407
0.342995
0.338011
0.332212
0.325592
0.318568
0.311796
0.305954
0.301033
0.297073
0.294173
0.292147
0.290766
0.289826
0.289178
0.288674
0.288366
0.288352
0.288576
0.288996
0.289578
0.290297
0.291132
0.292064
0.293073
0.294142
0.295248
0.296367
0.297475
0.298544
0.29955
0.300472
0.301297
0.302018
0.302648
0.342176
0.339584
0.336588
0.332176
0.327052
0.321206
0.314979
0.309074
0.303987
0.299598
0.296081
0.293485
0.29165
0.290383
0.289524
0.288955
0.288523
0.288261
0.288267
0.288494
0.288904
0.289469
0.290166
0.290976
0.291882
0.292865
0.29391
0.294997
0.296103
0.297203
0.298273
0.299287
0.300227
0.30108
0.301819
0.302434
0.335957
0.33371
0.331092
0.327201
0.322685
0.317541
0.312042
0.306857
0.30238
0.298466
0.295327
0.292986
0.291308
0.290136
0.289347
0.288846
0.288482
0.288265
0.288286
0.288511
0.288906
0.289446
0.290112
0.290884
0.291749
0.292691
0.293695
0.294744
0.295818
0.296894
0.297948
0.298958
0.299916
0.300802
0.301544
0.302108
0.330631
0.328691
0.326414
0.322993
0.319021
0.3145
0.309653
0.305079
0.301113
0.297613
0.294794
0.292665
0.291119
0.290027
0.289298
0.288859
0.288558
0.288382
0.288414
0.288633
0.289006
0.289513
0.290134
0.290855
0.291663
0.292545
0.293488
0.294478
0.295497
0.296526
0.297541
0.298529
0.299494
0.300369
0.30106
0.301593
0.326106
0.324437
0.322467
0.319467
0.31598
0.312005
0.307734
0.303688
0.300158
0.297015
0.294465
0.292516
0.291083
0.29006
0.289382
0.288999
0.288757
0.288618
0.288658
0.288864
0.289208
0.28967
0.290234
0.290888
0.29162
0.29242
0.293279
0.294184
0.295121
0.296073
0.297021
0.297959
0.298886
0.299684
0.300312
0.300867
0.322297
0.320867
0.319173
0.316549
0.313489
0.309995
0.30623
0.302641
0.299485
0.296652
0.294332
0.292536
0.291199
0.290236
0.289603
0.28927
0.289085
0.28898
0.289021
0.289208
0.289513
0.289919
0.290411
0.290979
0.291614
0.292309
0.293056
0.293847
0.29467
0.295512
0.296358
0.297216
0.298037
0.298726
0.299337
0.299924
0.31912
0.317888
0.316466
0.314168
0.311486
0.308415
0.305094
0.301903
0.29907
0.296505
0.294384
0.292722
0.291469
0.290559
0.289966
0.289676
0.289546
0.289473
0.289509
0.289668
0.289924
0.29026
0.290664
0.291127
0.291642
0.292205
0.29281
0.293452
0.294124
0.294817
0.295518
0.29625
0.296931
0.297525
0.298129
0.298734
0.316522
0.315515
0.31429
0.312264
0.309916
0.307216
0.304286
0.301444
0.298891
0.296563
0.294616
0.293072
0.291895
0.291033
0.290473
0.290219
0.290144
0.290105
0.290125
0.290245
0.290441
0.290694
0.290993
0.291329
0.291699
0.292099
0.292528
0.292986
0.293467
0.293968
0.29448
0.295031
0.295569
0.296089
0.296671
0.297284
0.314444
0.313679
0.312566
0.31078
0.308727
0.306352
0.30377
0.301238
0.298932
0.296812
0.295021
0.293585
0.292476
0.291659
0.291131
0.290907
0.290883
0.290873
0.290869
0.290941
0.291065
0.29122
0.291395
0.291582
0.291779
0.291985
0.292204
0.292436
0.292686
0.292954
0.29324
0.293576
0.293955
0.294399
0.294955
0.295576
0.312799
0.312175
0.3112
0.30966
0.307872
0.305782
0.303514
0.301265
0.299174
0.297243
0.295595
0.294259
0.293215
0.29244
0.291943
0.291746
0.291762
0.29177
0.291738
0.291754
0.291795
0.291838
0.29187
0.291884
0.291879
0.291859
0.291828
0.291795
0.291769
0.291771
0.291802
0.291897
0.292099
0.292467
0.292997
0.293632
0.311521
0.31096
0.310158
0.308859
0.307311
0.305475
0.303493
0.301502
0.299604
0.297845
0.296331
0.295088
0.294107
0.293374
0.292906
0.292734
0.292779
0.292794
0.292731
0.292684
0.292632
0.292547
0.292416
0.292233
0.291998
0.291716
0.291399
0.291056
0.29072
0.290418
0.290159
0.290013
0.290045
0.290334
0.290845
0.291506
0.31057
0.310072
0.309433
0.308345
0.307013
0.305408
0.303681
0.301923
0.300204
0.298608
0.297219
0.296067
0.295148
0.294456
0.294016
0.293866
0.293929
0.293945
0.293847
0.293729
0.293573
0.293347
0.293035
0.292631
0.292134
0.291557
0.290913
0.290223
0.289554
0.288896
0.28834
0.287977
0.287857
0.288073
0.288574
0.289274
0.309921
0.309503
0.309
0.308088
0.306949
0.305558
0.304057
0.302507
0.300961
0.299519
0.298252
0.297189
0.296332
0.295682
0.295268
0.295133
0.295207
0.295219
0.295081
0.294888
0.294619
0.294239
0.293728
0.293077
0.29229
0.291383
0.290375
0.289296
0.288261
0.287248
0.28643
0.285864
0.285616
0.28578
0.286286
0.287032
0.309537
0.309207
0.308813
0.308053
0.30709
0.305897
0.304598
0.303238
0.301859
0.300566
0.299417
0.298443
0.29765
0.297042
0.296653
0.296527
0.296603
0.296607
0.296429
0.296157
0.29577
0.295224
0.294496
0.293576
0.292469
0.291198
0.289781
0.288297
0.286882
0.285561
0.284478
0.283739
0.283422
0.283568
0.284096
0.284891
0.309379
0.309129
0.30883
0.308209
0.307407
0.306395
0.305283
0.304101
0.302883
0.301734
0.300703
0.299819
0.29909
0.298526
0.29816
0.298036
0.298106
0.298099
0.297885
0.297534
0.297025
0.296306
0.295346
0.294134
0.292678
0.291005
0.289131
0.287272
0.285439
0.283818
0.282564
0.281717
0.281386
0.281545
0.282099
0.282921
0.309414
0.309227
0.309016
0.308524
0.30787
0.307027
0.30609
0.305078
0.304018
0.303009
0.302095
0.301302
0.300639
0.300119
0.299774
0.299645
0.299699
0.299684
0.299444
0.299017
0.298386
0.297488
0.296283
0.294757
0.292926
0.290813
0.28846
0.286144
0.28396
0.282153
0.280782
0.279909
0.279606
0.279795
0.280363
0.281154
0.309606
0.309475
0.309344
0.308971
0.308455
0.307771
0.306998
0.306148
0.305243
0.304373
0.303577
0.302876
0.302281
0.301804
0.301478
0.301338
0.301362
0.301351
0.301105
0.300606
0.299855
0.298775
0.297314
0.295456
0.293221
0.290629
0.287822
0.285042
0.282577
0.280624
0.279217
0.278401
0.278146
0.278357
0.278908
0.279628
0.309923
0.309847
0.30979
0.309526
0.309138
0.308603
0.307986
0.307293
0.306539
0.305808
0.305129
0.304523
0.303997
0.303565
0.303256
0.3031
0.303084
0.30308
0.30285
0.302301
0.301437
0.300176
0.298449
0.296237
0.293575
0.290481
0.287213
0.284007
0.281323
0.279307
0.27795
0.277221
0.277013
0.277229
0.277724
0.278372
0.310341
0.310314
0.310325
0.310162
0.309895
0.3095
0.309032
0.308491
0.307887
0.307294
0.306734
0.306224
0.30577
0.305383
0.305089
0.304919
0.304862
0.304836
0.304638
0.304096
0.303149
0.30171
0.2997
0.297116
0.293999
0.290348
0.286576
0.283055
0.280253
0.278265
0.277012
0.276363
0.276185
0.276375
0.276806
0.277396
0.310836
0.310853
0.310926
0.310857
0.310703
0.310441
0.310115
0.309721
0.309265
0.308809
0.308368
0.307956
0.307575
0.307235
0.306958
0.306777
0.306689
0.306623
0.306434
0.305938
0.30498
0.303393
0.301084
0.2981
0.294486
0.290229
0.286003
0.282252
0.279421
0.277524
0.276383
0.27579
0.275613
0.275762
0.276143
0.276682
0.311383
0.31144
0.31157
0.311588
0.311541
0.311403
0.311213
0.310962
0.310649
0.310328
0.310007
0.309693
0.309387
0.309093
0.308834
0.308649
0.308547
0.308463
0.308266
0.307788
0.306842
0.305171
0.302592
0.29918
0.29503
0.29025
0.285545
0.281633
0.278848
0.277063
0.276005
0.275442
0.275256
0.275376
0.27572
0.276208
0.311962
0.312053
0.312235
0.312334
0.312386
0.312367
0.312305
0.31219
0.312017
0.311828
0.311623
0.311405
0.311171
0.31092
0.310681
0.310499
0.310396
0.31032
0.310138
0.309665
0.308692
0.306954
0.304149
0.300325
0.295645
0.290411
0.285232
0.28121
0.278512
0.276832
0.275829
0.275285
0.275101
0.275203
0.275511
0.275949
0.312553
0.312672
0.312903
0.313076
0.313219
0.31331
0.313369
0.313384
0.313344
0.31328
0.313187
0.313059
0.31289
0.312679
0.312457
0.312283
0.312193
0.31214
0.311989
0.311536
0.310538
0.308706
0.305695
0.301514
0.296351
0.290638
0.285073
0.28099
0.278381
0.276791
0.275835
0.275314
0.275133
0.275217
0.275492
0.275883
0.313137
0.313281
0.313554
0.313794
0.314022
0.314215
0.314386
0.314521
0.314605
0.314659
0.314668
0.314622
0.314509
0.314329
0.314124
0.313964
0.313896
0.313878
0.313768
0.313346
0.312341
0.310416
0.307224
0.302729
0.297129
0.290974
0.285105
0.280973
0.278431
0.276914
0.276003
0.275503
0.275326
0.275395
0.275642
0.275994
0.313697
0.313861
0.314172
0.314471
0.314775
0.315061
0.315334
0.31558
0.315778
0.315939
0.316039
0.316064
0.315996
0.315841
0.315651
0.31551
0.315473
0.315498
0.315433
0.315037
0.314044
0.312073
0.308741
0.303968
0.297969
0.291457
0.285357
0.281153
0.27864
0.277174
0.276305
0.27583
0.275659
0.275719
0.275943
0.276263
0.314218
0.314397
0.314741
0.315092
0.315464
0.315832
0.316198
0.316541
0.316842
0.317096
0.317275
0.317357
0.317324
0.317188
0.317013
0.316896
0.316897
0.316967
0.316936
0.316553
0.315596
0.313649
0.31024
0.305266
0.298962
0.292134
0.285837
0.281504
0.278981
0.277551
0.276723
0.276276
0.276116
0.276171
0.276379
0.276674
0.314685
0.314876
0.315248
0.315643
0.316072
0.316514
0.316959
0.317388
0.317777
0.318111
0.318355
0.318481
0.318472
0.318349
0.318189
0.318101
0.318144
0.318253
0.318237
0.317881
0.316966
0.315059
0.311663
0.30663
0.300182
0.293043
0.286574
0.28203
0.279443
0.278029
0.277241
0.276824
0.276679
0.276736
0.276933
0.277211
0.315087
0.315286
0.315679
0.316111
0.316589
0.317092
0.317606
0.318107
0.318569
0.318969
0.319262
0.319419
0.319425
0.319309
0.319165
0.319107
0.319188
0.319321
0.31931
0.319001
0.31812
0.31622
0.312926
0.307989
0.301567
0.294203
0.287604
0.282753
0.280029
0.278601
0.277846
0.277463
0.277337
0.277399
0.27759
0.277859
0.315413
0.315617
0.316026
0.316486
0.317004
0.317557
0.318125
0.318685
0.319206
0.319655
0.319983
0.320158
0.320169
0.320058
0.319929
0.3199
0.320009
0.320153
0.320145
0.319867
0.319007
0.317116
0.313977
0.309241
0.302974
0.295595
0.28891
0.283692
0.280746
0.279262
0.278528
0.278181
0.278078
0.278148
0.278338
0.278604
0.315654
0.31586
0.31628
0.316759
0.317307
0.317898
0.31851
0.319113
0.319677
0.320161
0.32051
0.320691
0.320699
0.320588
0.320473
0.320466
0.320589
0.320736
0.320729
0.320455
0.3196
0.317755
0.314788
0.310349
0.30435
0.29712
0.290376
0.28488
0.281625
0.280019
0.279282
0.27897
0.278892
0.278973
0.279164
0.279432
0.315804
0.316009
0.316433
0.316924
0.317493
0.318111
0.318753
0.319386
0.319979
0.320482
0.320837
0.321013
0.32101
0.320897
0.320793
0.320797
0.320923
0.321058
0.321045
0.32076
0.319901
0.318118
0.315312
0.311266
0.305734
0.298911
0.292033
0.286409
0.282724
0.280889
0.280106
0.279821
0.279773
0.279865
0.280058
0.280331
0.315857
0.316058
0.316481
0.316978
0.317557
0.318192
0.318851
0.319501
0.320107
0.320615
0.320964
0.321123
0.321105
0.320987
0.320886
0.320892
0.321008
0.32112
0.321093
0.320787
0.319914
0.318185
0.315525
0.311863
0.306923
0.30079
0.293964
0.288234
0.284094
0.281902
0.281005
0.280728
0.280716
0.280819
0.28101
0.28129
0.31581
0.316004
0.316422
0.316915
0.317497
0.318137
0.318802
0.319455
0.320062
0.320561
0.320892
0.321027
0.320989
0.320861
0.320757
0.320757
0.320852
0.320928
0.320881
0.32055
0.319654
0.317972
0.315457
0.312111
0.307756
0.302283
0.295876
0.290122
0.285777
0.283128
0.282001
0.281689
0.281717
0.281832
0.282014
0.282297
0.315661
0.315845
0.316252
0.316737
0.317312
0.317948
0.318608
0.319253
0.319846
0.320324
0.320627
0.320732
0.32067
0.320528
0.320416
0.320401
0.320467
0.320502
0.320424
0.320058
0.319137
0.317502
0.315124
0.31203
0.308217
0.303478
0.297852
0.292194
0.287738
0.284687
0.28318
0.282736
0.282782
0.282909
0.283066
0.28334
0.31541
0.315582
0.315974
0.316444
0.317005
0.317627
0.318271
0.318896
0.319465
0.319912
0.320177
0.320246
0.320157
0.319999
0.319873
0.319839
0.319871
0.319865
0.319738
0.319323
0.31838
0.316789
0.314539
0.311666
0.308242
0.304215
0.299512
0.294305
0.28976
0.286564
0.28465
0.283989
0.283962
0.284061
0.284164
0.2844
0.31506
0.315215
0.315586
0.316037
0.316578
0.317177
0.317795
0.318391
0.318925
0.319331
0.319553
0.319582
0.319464
0.319286
0.319141
0.319084
0.319077
0.319026
0.318842
0.31837
0.317405
0.315859
0.313734
0.311071
0.30794
0.30443
0.300479
0.296092
0.291667
0.288395
0.286318
0.285483
0.285384
0.285357
0.285302
0.28544
0.314613
0.31475
0.315094
0.315522
0.316035
0.316604
0.317188
0.317745
0.318235
0.318592
0.318765
0.318752
0.318602
0.3184
0.318233
0.318147
0.318097
0.317994
0.31775
0.317216
0.31623
0.314726
0.312722
0.310263
0.307412
0.304294
0.301011
0.297493
0.29381
0.290415
0.288
0.286969
0.287126
0.28694
0.286444
0.286354
0.314069
0.314193
0.314505
0.314904
0.315383
0.315914
0.316457
0.316966
0.317405
0.317707
0.317826
0.317768
0.317583
0.317354
0.317161
0.317039
0.316942
0.316782
0.316474
0.31588
0.314871
0.313405
0.311514
0.309248
0.306663
0.303858
0.301023
0.298242
0.295439
0.292716
0.290046
0.288408
0.288801
0.288931
0.287677
0.286884
0.313432
0.313541
0.313823
0.314189
0.314628
0.315115
0.31561
0.316065
0.316445
0.316686
0.316749
0.316643
0.316421
0.31616
0.315936
0.315774
0.315624
0.315404
0.315032
0.314381
0.313349
0.311916
0.310124
0.308032
0.305702
0.303204
0.300707
0.298398
0.296317
0.294444
0.292591
0.290741
0.29039
0.291196
0.289177
0.286016
0.31279
0.312889
0.313138
0.31347
0.313871
0.314314
0.31476
0.315161
0.315482
0.315663
0.315671
0.315521
0.315265
0.314975
0.314721
0.31452
0.314321
0.314046
0.313615
0.312919
0.311868
0.310462
0.308748
0.306797
0.304673
0.302446
0.300266
0.298337
0.296749
0.295553
0.294488
0.293211
0.292706
0.293602
0.290491
0.283247
0.312172
0.312264
0.312478
0.312782
0.313146
0.313549
0.313949
0.314298
0.314562
0.314686
0.314645
0.314456
0.314171
0.313855
0.313572
0.313334
0.31309
0.312766
0.312287
0.31155
0.310485
0.309102
0.307454
0.305615
0.303654
0.301643
0.299748
0.298174
0.296991
0.296255
0.2958
0.295161
0.295122
0.29674
0.291443
0.282476
0.311505
0.311589
0.311776
0.312052
0.312377
0.312736
0.313087
0.313381
0.313586
0.313651
0.31356
0.313331
0.313014
0.312669
0.312352
0.312075
0.311784
0.311411
0.310884
0.31011
0.309034
0.307673
0.306087
0.304353
0.302539
0.300726
0.299102
0.297876
0.2971
0.296799
0.29689
0.297202
0.298425
0.30116
0.295697
0.281012
0.35045
0.368608
0.374584
0.374318
0.350403
0.365097
0.372689
0.373596
0.346236
0.359101
0.367869
0.370685
0.340993
0.351794
0.360308
0.364331
0.335211
0.34415
0.351664
0.355677
0.329211
0.336496
0.342739
0.346267
0.323267
0.329136
0.334124
0.337025
0.317581
0.322272
0.326159
0.328438
0.31227
0.316001
0.318986
0.320717
0.307397
0.310359
0.312629
0.31391
0.302986
0.305338
0.307055
0.307981
0.299036
0.300908
0.302203
0.302855
0.295533
0.297029
0.298003
0.29845
0.292453
0.293655
0.294387
0.294683
0.289769
0.290743
0.291294
0.291481
0.287455
0.288253
0.288668
0.288777
0.285485
0.286147
0.286461
0.286517
0.283834
0.284391
0.284631
0.284652
0.28248
0.282957
0.283143
0.283144
0.281399
0.281818
0.281967
0.281958
0.28057
0.280949
0.281075
0.281068
0.279973
0.280332
0.280449
0.280453
0.279593
0.27995
0.280071
0.280096
0.279419
0.279793
0.279932
0.279987
0.279449
0.279857
0.280026
0.280122
0.279684
0.280142
0.280353
0.280498
0.280131
0.280653
0.280919
0.281117
0.280799
0.281396
0.281727
0.281989
0.281697
0.282379
0.282782
0.283125
0.282834
0.283613
0.284101
0.284527
0.284215
0.285106
0.285691
0.286207
0.285852
0.286872
0.287568
0.288183
0.287759
0.288924
0.28974
0.290483
0.289953
0.291281
0.292234
0.293119
0.29245
0.29396
0.29507
0.296112
0.295269
0.296983
0.29827
0.299489
0.298429
0.30037
0.301857
0.303276
0.301955
0.304145
0.305857
0.307501
0.305875
0.308331
0.310295
0.312192
0.310213
0.312949
0.315193
0.317374
0.314964
0.318008
0.320569
0.323073
0.320134
0.323521
0.326442
0.329313
0.325762
0.329511