/*--------------------------------*- C++ -*----------------------------------*\
| =========                 |                                                 |
| \\      /  F ield         | OpenFOAM: The Open Source CFD Toolbox           |
|  \\    /   O peration     | Version:  v2012                                 |
|   \\  /    A nd           | Website:  www.openfoam.com                      |
|    \\/     M anipulation  |                                                 |
\*---------------------------------------------------------------------------*/
FoamFile
{
    version     2.0;
    format      ascii;
    class       surfaceScalarField;
    location    "626";
    object      phi;
}
// * * * * * * * * * * * * * * * * * * * * * * * * * * * * * * * * * * * * * //

dimensions      [0 3 -1 0 0 0 0];
oriented        oriented;


internalField   nonuniform List<scalar> 
11989
(
-0.000198432
1.2772e-07
0.000198304
-0.00019854
1.08019e-07
-0.000198633
9.36419e-08
-0.000198717
8.36279e-08
-0.000198794
7.69705e-08
-0.000198867
7.2852e-08
-0.000198937
7.06153e-08
-0.000199007
6.97979e-08
-0.000199077
6.99629e-08
-0.000199148
7.11051e-08
-0.000199221
7.30905e-08
-0.000199297
7.58609e-08
-0.000199377
7.94043e-08
-0.00019946
8.36763e-08
-0.000199549
8.85014e-08
-0.000199642
9.34072e-08
-0.00019974
9.73783e-08
-0.00019984
1.00513e-07
-0.000199938
9.80515e-08
6.18725e-08
-0.000199841
1.90099e-07
0.000199779
-0.000199885
1.52057e-07
-0.000199916
1.24608e-07
-0.000199938
1.05508e-07
-0.000199954
9.2641e-08
-0.000199966
8.43963e-08
-0.000199974
7.94532e-08
-0.000199982
7.70039e-08
-0.000199988
7.6115e-08
-0.000199993
7.67235e-08
-0.000199999
7.85712e-08
-0.000200004
8.14732e-08
-0.00020001
8.53167e-08
-0.000200017
8.99143e-08
-0.000200023
9.47543e-08
-0.000200028
9.89532e-08
-0.000200033
1.01571e-07
-0.000200033
1.00703e-07
-0.000200021
8.60064e-08
4.11691e-08
-0.000200244
2.29005e-07
0.000200206
-0.000200266
1.73571e-07
-0.000200276
1.34121e-07
-0.000200277
1.06841e-07
-0.000200273
8.84123e-08
-0.000200265
7.64519e-08
-0.000200254
6.8789e-08
-0.000200241
6.43662e-08
-0.000200227
6.21223e-08
-0.000200212
6.16151e-08
-0.000200196
6.24204e-08
-0.000200179
6.42804e-08
-0.000200161
6.70151e-08
-0.000200141
7.04381e-08
-0.00020012
7.39359e-08
-0.000200097
7.60723e-08
-0.000200073
7.66478e-08
-0.000200045
7.29638e-08
-0.000200017
5.78666e-08
2.4511e-08
-0.000200434
2.50909e-07
0.000200412
-0.00020044
1.79568e-07
-0.000200436
1.29902e-07
-0.000200425
9.57807e-08
-0.00020041
7.30333e-08
-0.000200391
5.82178e-08
-0.000200371
4.83061e-08
-0.000200349
4.20665e-08
-0.000200325
3.83569e-08
-0.0002003
3.64313e-08
-0.000200273
3.57758e-08
-0.000200245
3.60613e-08
-0.000200215
3.70606e-08
-0.000200183
3.85483e-08
-0.000200149
4.00468e-08
-0.000200114
4.08195e-08
-0.000200078
4.05573e-08
-0.000200042
3.75051e-08
-0.000200013
2.85824e-08
1.14857e-08
-0.000200538
2.54921e-07
0.000200533
-0.000200529
1.7085e-07
-0.000200513
1.14322e-07
-0.000200493
7.56991e-08
-0.00020047
5.01509e-08
-0.000200446
3.36565e-08
-0.00020042
2.23499e-08
-0.000200393
1.48363e-08
-0.000200364
9.84887e-09
-0.000200334
6.53709e-09
-0.000200303
4.33064e-09
-0.000200269
2.86025e-09
-0.000200234
1.88296e-09
-0.000200197
1.23773e-09
-0.000200158
8.15556e-10
-0.000200117
5.34132e-10
-0.000200077
3.38841e-10
-0.00020004
2.02752e-10
-0.000200011
1.06176e-10
3.52349e-11
-0.000200586
2.37513e-07
0.000200604
-0.000200562
1.46323e-07
-0.000200534
8.70213e-08
-0.000200507
4.84679e-08
-0.00020048
2.28359e-08
-0.000200452
5.82028e-09
-0.000200424
-5.7396e-09
-0.000200395
-1.37914e-08
-0.000200366
-1.95872e-08
-0.000200335
-2.39721e-08
-0.000200303
-2.75213e-08
-0.00020027
-3.06104e-08
-0.000200235
-3.34742e-08
-0.000200197
-3.61937e-08
-0.000200158
-3.84944e-08
-0.000200118
-3.98002e-08
-0.000200077
-3.99122e-08
-0.00020004
-3.71213e-08
-0.000200011
-2.83862e-08
-1.1421e-08
-0.000200575
1.88407e-07
0.000200624
-0.000200535
1.06717e-07
-0.000200498
5.00546e-08
-0.000200466
1.6334e-08
-0.000200437
-6.41491e-09
-0.000200409
-2.1725e-08
-0.000200383
-3.23565e-08
-0.000200357
-4.00882e-08
-0.00020033
-4.60319e-08
-0.000200303
-5.09439e-08
-0.000200275
-5.53529e-08
-0.000200246
-5.96147e-08
-0.000200216
-6.39484e-08
-0.000200184
-6.84318e-08
-0.000200149
-7.26122e-08
-0.000200114
-7.51958e-08
-0.000200078
-7.60947e-08
-0.000200042
-7.26372e-08
-0.000200013
-5.77179e-08
-2.44625e-08
-0.000200467
9.57336e-08
0.00020056
-0.000200415
5.42748e-08
-0.000200372
7.73534e-09
-0.000200341
-1.53498e-08
-0.000200315
-3.21996e-08
-0.000200293
-4.39338e-08
-0.000200273
-5.2435e-08
-0.000200254
-5.89027e-08
-0.000200236
-6.41809e-08
-0.000200218
-6.88612e-08
-0.0002002
-7.3377e-08
-0.000200181
-7.80446e-08
-0.000200162
-8.30615e-08
-0.000200142
-8.84347e-08
-0.000200121
-9.37743e-08
-0.000200098
-9.83105e-08
-0.000200073
-1.01166e-07
-0.000200045
-1.00444e-07
-0.000200017
-8.59313e-08
-4.11457e-08
-0.000200129
-6.5534e-08
0.000200291
-0.000200071
-4.11425e-09
-0.000200039
-2.44007e-08
-0.00020002
-3.47231e-08
-0.000200008
-4.37766e-08
-0.000200001
-5.05359e-08
-0.000199998
-5.56833e-08
-0.000199997
-5.98173e-08
-0.000199998
-6.34025e-08
-0.0002
-6.67871e-08
-0.000200003
-7.02408e-08
-0.000200007
-7.39813e-08
-0.000200012
-7.81691e-08
-0.000200018
-8.28648e-08
-0.000200023
-8.79674e-08
-0.000200029
-9.30599e-08
-0.000200033
-9.71552e-08
-0.000200033
-1.00363e-07
-0.000200021
-9.80366e-08
-6.18658e-08
-0.000198753
0.000198688
-0.000198757
-0.000198782
-0.000198816
-0.00019886
-0.000198911
-0.000198966
-0.000199026
-0.00019909
-0.000199156
-0.000199227
-0.000199301
-0.000199379
-0.000199462
-0.00019955
-0.000199643
-0.00019974
-0.00019984
-0.000199938
-0.000197737
2.71504e-07
0.000197466
-0.000197963
2.25972e-07
-0.00019815
1.86841e-07
1.53898e-07
-0.000199416
4.70976e-07
0.000199217
-0.000199573
3.8253e-07
-0.000199692
3.0595e-07
2.4121e-07
-0.000199912
6.45571e-07
0.000199737
-0.000200045
5.15905e-07
-0.000200142
4.02355e-07
3.05146e-07
-0.000200162
8.04802e-07
0.000200002
-0.000200281
6.35728e-07
-0.000200364
4.85207e-07
3.53241e-07
-0.000200314
9.54158e-07
0.000200165
-0.000200425
7.46892e-07
-0.000200499
5.59126e-07
3.87485e-07
-0.000200397
1.10444e-06
0.000200246
-0.000200507
8.56855e-07
-0.00020058
6.32565e-07
4.1101e-07
-0.000200376
1.29088e-06
0.000200189
-0.00020051
9.9134e-07
-0.000200611
7.33137e-07
4.24394e-07
-0.000200088
1.64153e-06
0.000199738
-0.000200337
1.23981e-06
-0.000200536
9.32739e-07
4.47837e-07
-0.000198753
2.60467e-06
0.00019779
-0.000199449
1.93554e-06
-0.000199885
1.36918e-06
8.53095e-07
-0.000188401
0.000184918
6.08792e-06
-0.000191593
5.12753e-06
-0.000193869
3.64513e-06
5.67137e-06
7.29911e-06
-7.29912e-06
9.20177e-06
-1.90266e-06
6.65085e-06
2.55091e-06
1.09857e-06
5.55227e-06
-8.36146e-06
9.46003e-06
-2.2655e-05
1.42935e-05
-3.96028e-05
1.69478e-05
-5.6199e-05
1.65962e-05
-7.1288e-05
1.50891e-05
-8.50316e-05
1.37435e-05
-9.75987e-05
1.25672e-05
-0.000109107
1.15078e-05
-0.000119637
1.05307e-05
-0.000129253
9.61544e-06
-0.000138001
8.7488e-06
-0.000145925
7.92312e-06
-0.00015306
7.13512e-06
-0.000159444
6.38479e-06
-0.000165119
5.6743e-06
-0.000170126
5.00729e-06
-0.000174514
4.38788e-06
-0.000178332
3.81829e-06
-0.000181631
3.29838e-06
-0.000184459
2.82828e-06
-0.000186867
2.40808e-06
-0.000188904
2.03658e-06
-0.000190615
1.71171e-06
-0.000192046
1.431e-06
-0.000193238
1.19184e-06
-0.000194227
9.89148e-07
-0.000195046
8.1832e-07
-0.000195723
6.7712e-07
-0.000196284
5.61592e-07
-0.000196751
4.66997e-07
-0.000197141
3.89344e-07
3.25139e-07
4.3554e-06
-1.16545e-05
2.64137e-06
-1.88643e-07
-3.52112e-06
8.7134e-06
-1.46824e-05
1.67135e-05
-2.96988e-05
2.44765e-05
-4.5223e-05
2.98177e-05
-5.9295e-05
3.10198e-05
-7.22775e-05
2.95787e-05
-8.48046e-05
2.76162e-05
-9.6681e-05
2.56199e-05
-0.000107797
2.36835e-05
-0.000118137
2.18473e-05
-0.000127708
2.01015e-05
-0.000136523
1.84304e-05
-0.000144595
1.68215e-05
-0.000151941
1.52689e-05
-0.000158579
1.37724e-05
-0.000164531
1.23368e-05
-0.000169826
1.09697e-05
-0.000174499
9.67992e-06
-0.000178586
8.47516e-06
-0.000182129
7.36188e-06
-0.000185176
6.34486e-06
-0.000187774
5.42651e-06
-0.000189973
4.60673e-06
-0.000191819
3.88319e-06
-0.000193359
3.25165e-06
-0.000194635
2.70628e-06
-0.000195683
2.24014e-06
-0.000196541
1.8467e-06
-0.000197241
1.51906e-06
-0.000197813
1.2489e-06
-0.000198279
1.02758e-06
-0.000198659
8.46587e-07
-0.000198967
6.9789e-07
5.74541e-07
-7.12989e-07
-1.09415e-05
-6.56341e-06
5.66178e-06
-1.65119e-05
1.86619e-05
-2.98079e-05
3.00095e-05
-4.38576e-05
3.85261e-05
-5.66528e-05
4.26129e-05
-6.83462e-05
4.27133e-05
-7.97602e-05
4.09927e-05
-9.09505e-05
3.88065e-05
-0.00010174
3.64091e-05
-0.000112027
3.39703e-05
-0.000121739
3.15594e-05
-0.000130831
2.91939e-05
-0.000139275
2.68748e-05
-0.000147055
2.46015e-05
-0.000154164
2.23774e-05
-0.000160603
2.02119e-05
-0.000166385
1.81187e-05
-0.00017153
1.61144e-05
-0.000176066
1.42157e-05
-0.000180028
1.2438e-05
-0.00018346
1.07932e-05
-0.000186405
9.29017e-06
-0.000188912
7.93297e-06
-0.000191027
6.72182e-06
-0.000192797
5.65338e-06
-0.000194267
4.72146e-06
-0.000195478
3.91765e-06
-0.00019647
3.23217e-06
-0.000197278
2.65475e-06
-0.000197933
2.17417e-06
-0.000198463
1.77858e-06
-0.000198891
1.45562e-06
-0.000199237
1.19233e-06
-0.000199515
9.7626e-07
7.96753e-07
-5.98442e-06
-4.95712e-06
-1.51118e-05
1.47892e-05
-2.69864e-05
3.05365e-05
-3.99924e-05
4.30154e-05
-5.21597e-05
5.06935e-05
-6.31051e-05
5.35582e-05
-7.36244e-05
5.32326e-05
-8.41523e-05
5.15206e-05
-9.45561e-05
4.92104e-05
-0.000104703
4.65557e-05
-0.000114486
4.37533e-05
-0.000123814
4.08877e-05
-0.000132618
3.7998e-05
-0.000140846
3.51032e-05
-0.000148463
3.2218e-05
-0.000155445
2.93594e-05
-0.000161783
2.65495e-05
-0.000167479
2.38147e-05
-0.000172547
2.11832e-05
-0.000177014
1.86822e-05
-0.000180912
1.63359e-05
-0.000184282
1.41631e-05
-0.000187168
1.21768e-05
-0.000189619
1.03833e-05
-0.00019168
8.78331e-06
-0.000193399
7.3727e-06
-0.000194821
6.14336e-06
-0.000195988
5.08424e-06
-0.000196938
4.18226e-06
-0.000197707
3.42325e-06
-0.000198325
2.79248e-06
-0.000198821
2.27494e-06
-0.00019922
1.85439e-06
-0.000199541
1.51303e-06
-0.000199798
1.23359e-06
1.00117e-06
-9.9438e-06
4.98668e-06
-2.14326e-05
2.6278e-05
-3.39502e-05
4.30541e-05
-4.60462e-05
5.51114e-05
-5.69055e-05
6.15529e-05
-6.69807e-05
6.36334e-05
-7.69507e-05
6.32026e-05
-8.696e-05
6.15298e-05
-9.68899e-05
5.91403e-05
-0.00010664
5.63059e-05
-0.000116104
5.32177e-05
-0.000125188
4.99712e-05
-0.000133811
4.66205e-05
-0.000141907
4.31998e-05
-0.000149428
3.97385e-05
-0.000156337
3.6269e-05
-0.000162616
3.28287e-05
-0.000168261
2.94592e-05
-0.000173281
2.62031e-05
-0.000177699
2.31004e-05
-0.000181549
2.01856e-05
-0.000184871
1.7485e-05
-0.00018771
1.50164e-05
-0.000190115
1.27885e-05
-0.000192134
1.08023e-05
-0.000193814
9.05227e-06
-0.000195199
7.52831e-06
-0.000196331
6.21653e-06
-0.000197249
5.10036e-06
-0.000197988
4.16177e-06
-0.000198578
3.38274e-06
-0.000199049
2.74577e-06
-0.000199426
2.23126e-06
-0.000199729
1.81585e-06
-0.000199972
1.47675e-06
1.19424e-06
-1.26279e-05
1.76146e-05
-2.55074e-05
3.91575e-05
-3.80133e-05
5.55599e-05
-4.93294e-05
6.64275e-05
-5.95272e-05
7.17507e-05
-6.92703e-05
7.33765e-05
-7.89839e-05
7.29162e-05
-8.87027e-05
7.12486e-05
-9.83543e-05
6.87918e-05
-0.00010786
6.58115e-05
-0.000117124
6.24815e-05
-0.000126052
5.88997e-05
-0.00013456
5.5128e-05
-0.000142571
5.12117e-05
-0.000150027
4.71941e-05
-0.000156882
4.31237e-05
-0.000163109
3.9056e-05
-0.000168701
3.50507e-05
-0.000173665
3.11679e-05
-0.000178027
2.74625e-05
-0.000181822
2.39804e-05
-0.000185093
2.07561e-05
-0.000187889
1.78118e-05
-0.000190258
1.51576e-05
-0.000192249
1.27938e-05
-0.00019391
1.07125e-05
-0.000195282
8.90075e-06
-0.000196407
7.34171e-06
-0.000197322
6.01514e-06
-0.000198059
4.89896e-06
-0.000198649
3.97222e-06
-0.000199119
3.21616e-06
-0.000199497
2.60925e-06
-0.000199803
2.12147e-06
-0.00020005
1.72368e-06
1.39092e-06
-1.42222e-05
3.18368e-05
-2.77333e-05
5.26686e-05
-3.99967e-05
6.78234e-05
-5.08521e-05
7.72828e-05
-6.08086e-05
8.17073e-05
-7.04599e-05
8.30277e-05
-8.00574e-05
8.25137e-05
-8.96199e-05
8.08112e-05
-9.91097e-05
7.82816e-05
-0.000108463
7.51653e-05
-0.000117596
7.16142e-05
-0.000126416
6.77199e-05
-0.000134834
6.35451e-05
-0.000142764
5.91425e-05
-0.000150139
5.45687e-05
-0.000156906
4.98906e-05
-0.000163035
4.51851e-05
-0.000168519
4.05346e-05
-0.000173371
3.60198e-05
-0.000177622
3.17133e-05
-0.000181315
2.76736e-05
-0.000184502
2.39429e-05
-0.000187236
2.05462e-05
-0.000189571
1.74928e-05
-0.000191556
1.47789e-05
-0.000193235
1.23916e-05
-0.000194648
1.0313e-05
-0.000195829
8.52332e-06
-0.000196812
6.9978e-06
-0.000197623
5.70965e-06
-0.000198286
4.63599e-06
-0.000198827
3.75685e-06
-0.000199272
3.0544e-06
-0.000199641
2.49018e-06
-0.000199944
2.02702e-06
1.63582e-06
-1.51328e-05
4.69696e-05
-2.86481e-05
6.61839e-05
-4.06223e-05
7.97976e-05
-5.12584e-05
8.79188e-05
-6.11726e-05
9.16216e-05
-7.08181e-05
9.26732e-05
-8.03623e-05
9.20578e-05
-8.9836e-05
9.0285e-05
-9.92217e-05
8.76673e-05
-0.000108466
8.44098e-05
-0.00011749
8.06379e-05
-0.000126199
7.6429e-05
-0.000134495
7.18408e-05
-0.000142283
6.69311e-05
-0.000149486
6.1771e-05
-0.000156045
5.64499e-05
-0.000161932
5.10724e-05
-0.000167148
4.57499e-05
-0.000171718
4.059e-05
-0.000175691
3.56863e-05
-0.000179129
3.11119e-05
-0.000182102
2.69156e-05
-0.000184678
2.31226e-05
-0.000186923
1.9737e-05
-0.00018889
1.67466e-05
-0.000190626
1.41268e-05
-0.000192159
1.18469e-05
-0.000193515
9.87873e-06
-0.000194711
8.19376e-06
-0.000195762
6.76121e-06
-0.000196681
5.55472e-06
-0.000197471
4.5466e-06
-0.000198162
3.74535e-06
-0.000198771
3.09941e-06
-0.000199297
2.55305e-06
2.0763e-06
-1.53978e-05
6.23674e-05
-2.86813e-05
7.94674e-05
-4.03954e-05
9.15117e-05
-5.09286e-05
9.84521e-05
-6.08567e-05
0.00010155
-7.05074e-05
0.000102324
-8.00127e-05
0.000101563
-8.94153e-05
9.96876e-05
-9.87065e-05
9.69585e-05
-0.000107835
9.35381e-05
-0.000116717
8.95198e-05
-0.000125247
8.49592e-05
-0.00013331
7.99043e-05
-0.000140796
7.44169e-05
-0.000147612
6.85865e-05
-0.000153695
6.25329e-05
-0.000159021
5.63986e-05
-0.000163606
5.03351e-05
-0.000167502
4.44859e-05
-0.000170788
3.89723e-05
-0.00017356
3.38843e-05
-0.000175922
2.92776e-05
-0.000177975
2.51751e-05
-0.00017981
2.15725e-05
-0.000181508
1.84443e-05
-0.000183132
1.57506e-05
-0.000184728
1.34434e-05
-0.000186323
1.14739e-05
-0.000187922
9.79261e-06
-0.000189504
8.34345e-06
-0.000191051
7.10079e-06
-0.000192536
6.03197e-06
-0.000193981
5.19008e-06
-0.000195379
4.49742e-06
-0.000196666
3.84061e-06
3.20023e-06
-1.50915e-05
7.74589e-05
-2.81161e-05
9.24919e-05
-3.96225e-05
0.000103018
-5.00835e-05
0.000108913
-6.00056e-05
0.000111472
-6.96328e-05
0.000111951
-7.90779e-05
0.000111008
-8.83864e-05
0.000108996
-9.75476e-05
0.00010612
-0.0001065
0.000102491
-0.000115142
9.81617e-05
-0.000123342
9.31593e-05
-0.000130955
8.75169e-05
-0.000137839
8.13016e-05
-0.000143882
7.46295e-05
-0.000149014
6.76643e-05
-0.000153219
6.06034e-05
-0.000156536
5.36529e-05
-0.000159053
4.7003e-05
-0.000160889
4.08074e-05
-0.000162177
3.5173e-05
-0.000163058
3.01584e-05
-0.000163663
2.57799e-05
-0.000164112
2.20213e-05
-0.000164511
1.88436e-05
-0.000164955
1.61947e-05
-0.000165529
1.40175e-05
-0.000166312
1.22572e-05
-0.000167409
1.08894e-05
-0.000168865
9.79872e-06
-0.000170694
8.92975e-06
-0.000172883
8.22185e-06
-0.000175432
7.7382e-06
-0.000178343
7.40912e-06
-0.000181538
7.03538e-06
6.58032e-06
-6.73007e-05
-6.87208e-06
8.02607e-05
-5.32782e-05
-8.89494e-06
-3.51433e-05
-1.44898e-05
-2.94719e-05
-9.72793e-06
-1.51578e-05
1.80137e-05
-1.97557e-06
-1.66473e-05
3.44573e-06
-1.99111e-05
-2.60262e-05
-6.251e-07
-1.82302e-05
3.69748e-06
1.8183e-06
-1.90907e-05
2.67371e-06
-2.07665e-05
-2.33525e-05
-5.06483e-07
-1.95999e-05
1.8762e-06
5.98704e-07
-2.01959e-05
9.74139e-07
-2.11419e-05
-2.23784e-05
-9.30133e-07
-2.0611e-05
1.94117e-06
-9.63478e-08
-2.10297e-05
3.38144e-07
-2.15764e-05
-2.20402e-05
-1.17977e-06
-2.14895e-05
2.05835e-06
-4.55393e-07
-2.1754e-05
-6.61134e-09
-2.20252e-05
-2.20468e-05
-1.23939e-06
-2.22783e-05
2.02812e-06
-5.96602e-07
-2.23968e-05
-1.56026e-07
-2.24658e-05
-2.22028e-05
-1.15077e-06
-2.29789e-05
1.85141e-06
-5.93678e-07
-2.29539e-05
-2.00992e-07
-2.28585e-05
-2.24038e-05
-9.48993e-07
-2.35841e-05
1.55418e-06
-4.87942e-07
-2.3415e-05
-1.71061e-07
-2.31753e-05
-2.25749e-05
-6.58114e-07
-2.40845e-05
1.15851e-06
-3.05739e-07
-2.37673e-05
-8.86464e-08
-2.33924e-05
-2.26635e-05
-2.93798e-07
-2.44703e-05
6.79569e-07
-6.41382e-08
-2.3997e-05
2.88273e-08
-2.34854e-05
-2.26347e-05
1.34242e-07
-2.47315e-05
1.27004e-07
2.27191e-07
-2.409e-05
1.76163e-07
-2.34344e-05
-2.24585e-05
6.19788e-07
-2.48582e-05
-4.9313e-07
5.61556e-07
-2.40317e-05
3.43911e-07
-2.32167e-05
-2.21146e-05
1.15896e-06
-2.48405e-05
-1.17659e-06
9.37319e-07
-2.38101e-05
5.40415e-07
-2.28198e-05
-2.15742e-05
1.7489e-06
-2.46691e-05
-1.9203e-06
1.35134e-06
-2.34125e-05
7.57938e-07
-2.22264e-05
-2.08163e-05
2.38759e-06
-2.43349e-05
-2.72182e-06
1.80211e-06
-2.2827e-05
9.96224e-07
-2.14205e-05
-1.98201e-05
3.07284e-06
-2.38293e-05
-3.57847e-06
2.28846e-06
-2.20427e-05
1.25578e-06
-2.03878e-05
-1.85643e-05
3.80143e-06
-2.31442e-05
-4.48646e-06
2.8083e-06
-2.10495e-05
1.53633e-06
-1.91159e-05
-1.70279e-05
4.56801e-06
-2.22722e-05
-5.44006e-06
3.35756e-06
-1.98391e-05
1.83663e-06
-1.75949e-05
-1.51913e-05
5.36355e-06
-2.12054e-05
-6.43032e-06
3.92854e-06
-1.84041e-05
2.1535e-06
-1.58199e-05
-1.30378e-05
6.17277e-06
-1.99347e-05
-7.44346e-06
4.50586e-06
-1.67372e-05
2.47809e-06
-1.37921e-05
-1.05597e-05
6.97098e-06
-1.84464e-05
-8.45927e-06
5.05844e-06
-1.48246e-05
2.77929e-06
-1.1513e-05
-7.78044e-06
7.7247e-06
-1.67212e-05
-9.44993e-06
5.5408e-06
-1.26407e-05
2.98092e-06
-8.9531e-06
-4.79952e-06
8.40044e-06
-1.474e-05
-1.03817e-05
5.94858e-06
-1.01889e-05
3.10586e-06
-6.11038e-06
-1.69367e-06
9.01127e-06
-1.24664e-05
-1.12848e-05
6.31619e-06
-7.49378e-06
3.24424e-06
-3.03844e-06
1.55057e-06
9.61128e-06
-9.89568e-06
-1.2182e-05
6.68213e-06
-4.56463e-06
3.43833e-06
2.05365e-07
4.98889e-06
1.01831e-05
-7.06992e-06
-1.30089e-05
7.01717e-06
-1.39867e-06
3.60416e-06
3.61837e-06
8.59305e-06
1.06563e-05
-4.04632e-06
-1.36799e-05
7.31496e-06
1.94265e-06
3.79234e-06
7.14099e-06
1.23854e-05
1.09404e-05
-8.69593e-07
-1.41171e-05
7.50566e-06
5.37739e-06
3.92988e-06
1.07168e-05
1.63153e-05
1.0983e-05
2.40863e-06
-1.42612e-05
7.51547e-06
8.84493e-06
3.91791e-06
1.43143e-05
2.02332e-05
1.07707e-05
5.70878e-06
-1.40709e-05
7.35745e-06
1.22582e-05
3.81776e-06
1.7854e-05
2.40509e-05
1.03065e-05
8.92945e-06
-1.35272e-05
7.0521e-06
1.55126e-05
3.65608e-06
2.125e-05
2.7707e-05
9.62612e-06
1.19561e-05
-1.26527e-05
6.60797e-06
1.85308e-05
3.42734e-06
2.44307e-05
3.11344e-05
8.78728e-06
1.46755e-05
-1.15067e-05
6.04661e-06
2.12714e-05
3.13291e-06
2.73444e-05
3.42673e-05
7.80956e-06
1.70235e-05
-1.01575e-05
5.39102e-06
2.369e-05
2.79045e-06
2.99449e-05
3.70577e-05
6.72311e-06
1.90116e-05
-8.71127e-06
4.65229e-06
2.57608e-05
2.40868e-06
3.21885e-05
3.94664e-05
5.58924e-06
2.06511e-05
-7.22875e-06
3.87427e-06
2.74758e-05
2.00647e-06
3.40563e-05
4.14729e-05
4.45213e-06
2.19558e-05
-5.75679e-06
3.09178e-06
2.88361e-05
1.6031e-06
3.5545e-05
4.3076e-05
3.35798e-06
2.2947e-05
-4.34921e-06
2.33471e-06
2.98594e-05
1.21238e-06
3.66674e-05
4.42884e-05
2.33135e-06
2.36479e-05
-3.03222e-06
1.62174e-06
3.0569e-05
8.39354e-07
3.74497e-05
4.51277e-05
1.3838e-06
2.4082e-05
-1.81789e-06
9.64015e-07
3.09888e-05
4.97297e-07
3.79165e-05
4.5625e-05
5.15995e-07
2.42705e-05
-7.0457e-07
3.63063e-07
3.11417e-05
1.86991e-07
3.80925e-05
4.5812e-05
-2.79235e-07
2.42333e-05
3.16445e-07
-1.89617e-07
3.10521e-05
-1.13293e-07
3.80162e-05
4.56987e-05
-1.01144e-06
2.39884e-05
1.25634e-06
-7.01032e-07
3.07417e-05
-3.96694e-07
3.77119e-05
4.5302e-05
-1.69087e-06
2.35526e-05
2.12673e-06
-1.1803e-06
3.02311e-05
-6.70965e-07
3.72025e-05
4.46311e-05
-2.32832e-06
2.29412e-05
2.93968e-06
-1.63364e-06
2.95364e-05
-9.25635e-07
3.64945e-05
4.37054e-05
-2.93613e-06
2.21692e-05
3.70813e-06
-2.07319e-06
2.86735e-05
-1.17946e-06
3.56008e-05
4.2526e-05
-3.52821e-06
2.12512e-05
4.4462e-06
-2.51102e-06
2.76563e-05
-1.43797e-06
3.45278e-05
4.1088e-05
-4.12054e-06
2.02023e-05
5.16947e-06
-2.96164e-06
2.64974e-05
-1.71099e-06
3.32771e-05
3.9377e-05
-4.73253e-06
1.9039e-05
5.89582e-06
-3.44353e-06
2.52084e-05
-2.01104e-06
3.18446e-05
3.7366e-05
-5.38825e-06
1.77808e-05
6.64647e-06
-3.97992e-06
2.38001e-05
-2.35312e-06
3.02178e-05
3.50128e-05
-6.11727e-06
1.64512e-05
7.44685e-06
-4.59881e-06
2.22816e-05
-2.75393e-06
2.8373e-05
3.22589e-05
-6.9542e-06
1.50786e-05
8.32689e-06
-5.33067e-06
2.06581e-05
-3.22901e-06
2.62713e-05
2.90299e-05
-7.93439e-06
1.36932e-05
9.31975e-06
-6.20058e-06
1.89243e-05
-3.78581e-06
2.38565e-05
2.52441e-05
-9.08032e-06
1.23201e-05
1.04534e-05
-7.20921e-06
1.70532e-05
-4.4082e-06
2.10555e-05
2.08359e-05
-1.03685e-05
1.09606e-05
1.1728e-05
-8.29437e-06
1.4979e-05
-5.0262e-06
1.77873e-05
1.58097e-05
-1.16666e-05
9.55483e-06
1.30723e-05
-9.26186e-06
1.25743e-05
-5.43476e-06
1.39602e-05
1.03749e-05
-1.26196e-05
7.87731e-06
1.42971e-05
-9.64572e-06
9.6004e-06
-5.18285e-06
9.49736e-06
5.19209e-06
-1.25685e-05
5.48269e-06
1.49631e-05
-8.73788e-06
5.76976e-06
-3.91373e-06
4.67321e-06
1.27836e-06
-1.17213e-05
1.7204e-05
-5.95157e-06
-1.27836e-06
-1.53289e-05
9.27878e-05
-2.88409e-05
0.000106004
-4.08449e-05
0.000115022
-5.18641e-05
0.000119932
-6.23353e-05
0.000121943
-7.24756e-05
0.000122092
-8.23895e-05
0.000120922
-9.21132e-05
0.00011872
-0.000101617
0.000115624
-0.00011081
0.000111683
-0.000119541
0.000106893
-0.000127623
0.000101241
-0.000134848
9.47415e-05
-0.000141023
8.74772e-05
-0.000146006
7.9612e-05
-0.000149725
7.13835e-05
-0.000152194
6.30727e-05
-0.000153503
5.49621e-05
-0.000153797
4.72964e-05
-0.000153246
4.02569e-05
-0.000152026
3.39525e-05
-0.000150292
2.84244e-05
-0.000148172
2.36597e-05
-0.000145758
1.96077e-05
-0.000143109
1.61942e-05
-0.000140247
1.3333e-05
-0.000137159
1.093e-05
-0.000133793
8.89114e-06
-0.000130067
7.16294e-06
-0.00012587
5.60214e-06
-0.000121076
4.13532e-06
-0.000115537
2.68265e-06
-0.000108977
1.1789e-06
-0.000101101
-4.67569e-07
-9.16025e-05
-2.46287e-06
-4.7615e-06
-1.45283e-05
0.000107316
-2.75555e-05
0.000119031
-3.92824e-05
0.000126749
-5.01299e-05
0.00013078
-6.04408e-05
0.000132254
-7.04058e-05
0.000132056
-8.01076e-05
0.000130624
-8.95552e-05
0.000128167
-9.86831e-05
0.000124752
-0.000107349
0.000120349
-0.00011534
0.000114885
-0.000122399
0.000108299
-0.000128258
0.000100601
-0.000132695
9.19139e-05
-0.000135575
8.24926e-05
-0.000136882
7.26902e-05
-0.00013671
6.29011e-05
-0.000135241
5.34931e-05
-0.0001327
4.4755e-05
-0.000129315
3.68719e-05
-0.000125288
2.99259e-05
-0.000120779
2.39148e-05
-0.000115895
1.8776e-05
-0.000110699
1.44113e-05
-0.00010521
1.07056e-05
-9.94164e-05
7.53944e-06
-9.3278e-05
4.79167e-06
-8.6743e-05
2.35613e-06
-7.97262e-05
1.46127e-07
-7.21856e-05
-1.93847e-06
-6.40948e-05
-3.95547e-06
-5.54605e-05
-5.95165e-06
-4.62672e-05
-8.01439e-06
-3.66552e-05
-1.00796e-05
-2.70811e-05
-1.2037e-05
-1.38289e-05
-1.37273e-05
0.000121043
-2.61694e-05
0.000131473
-3.75344e-05
0.000138114
-4.81081e-05
0.000141354
-5.81664e-05
0.000142312
-6.78617e-05
0.000141752
-7.72441e-05
0.000140006
-8.62822e-05
0.000137206
-9.4857e-05
0.000133327
-0.000102757
0.000128249
-0.000109695
0.000121823
-0.000115344
0.000113948
-0.000119406
0.000104663
-0.00012168
9.41872e-05
-0.00012211
8.29232e-05
-0.000120801
7.13808e-05
-0.000117978
6.00789e-05
-0.000113939
4.94532e-05
-0.000108986
3.9802e-05
-0.00010339
3.12764e-05
-9.73649e-05
2.39008e-05
-9.10591e-05
1.7609e-05
-8.45645e-05
1.22814e-05
-7.79286e-05
7.77551e-06
-7.117e-05
3.9469e-06
-6.4298e-05
6.67474e-07
-5.73324e-05
-2.17396e-06
-5.03071e-05
-4.66914e-06
-4.3267e-05
-6.89397e-06
-3.62832e-05
-8.92224e-06
-2.94381e-05
-1.08006e-05
-2.29308e-05
-1.24589e-05
-1.70357e-05
-1.39096e-05
-1.18389e-05
-1.52763e-05
-7.37326e-06
-1.65026e-05
-1.75047e-05
-1.2924e-05
0.000133967
-2.47549e-05
0.000143304
-3.56547e-05
0.000149014
-4.58515e-05
0.00015155
-5.55631e-05
0.000152024
-6.48879e-05
0.000151077
-7.38324e-05
0.000148951
-8.23137e-05
0.000145687
-9.01463e-05
0.000141159
-9.7043e-05
0.000135146
-0.000102646
0.000127426
-0.000106596
0.000117899
-0.000108621
0.000106687
-0.000108615
9.4181e-05
-0.00010667
8.09782e-05
-0.000103048
6.77586e-05
-9.81092e-05
5.51405e-05
-9.22378e-05
4.35817e-05
-8.57786e-05
3.33429e-05
-7.90072e-05
2.4505e-05
-7.21211e-05
1.70147e-05
-6.52506e-05
1.07385e-05
-5.84779e-05
5.50866e-06
-5.18611e-05
1.15868e-06
-4.54583e-05
-2.45583e-06
-3.93275e-05
-5.46333e-06
-3.35228e-05
-7.97874e-06
-2.8087e-05
-1.01049e-05
-2.30644e-05
-1.19165e-05
-1.85122e-05
-1.34745e-05
-1.44888e-05
-1.4824e-05
-1.09831e-05
-1.59646e-05
-7.97685e-06
-1.69158e-05
-5.48812e-06
-1.77651e-05
-3.48179e-06
-1.8509e-05
-1.91103e-05
-1.21241e-05
0.000146092
-2.33187e-05
0.000154499
-3.36651e-05
0.00015936
-4.34062e-05
0.000161291
-5.26822e-05
0.0001613
-6.1535e-05
0.000159929
-6.99234e-05
0.000157339
-7.77052e-05
0.000153469
-8.46244e-05
0.000148078
-9.03268e-05
0.000140848
-9.44168e-05
0.000131516
-9.65556e-05
0.000120037
-9.6567e-05
0.000106699
-9.45006e-05
9.21145e-05
-9.06204e-05
7.70981e-05
-8.53319e-05
6.24701e-05
-7.90867e-05
4.88953e-05
-7.23046e-05
3.67995e-05
-6.53292e-05
2.63676e-05
-5.84161e-05
1.75919e-05
-5.17428e-05
1.03414e-05
-4.54312e-05
4.42685e-06
-3.95717e-05
-3.50808e-07
-3.4227e-05
-4.18605e-06
-2.94171e-05
-7.26575e-06
-2.51212e-05
-9.75921e-06
-2.12953e-05
-1.18046e-05
-1.78917e-05
-1.35086e-05
-1.48665e-05
-1.49417e-05
-1.21901e-05
-1.61509e-05
-9.84153e-06
-1.71726e-05
-7.7754e-06
-1.80307e-05
-5.95708e-06
-1.87341e-05
-4.3988e-06
-1.93233e-05
-3.08054e-06
-1.98272e-05
-2.02497e-05
-1.13212e-05
0.000157413
-2.18472e-05
0.000165025
-3.16038e-05
0.000169117
-4.08197e-05
0.000170507
-4.95751e-05
0.000170055
-5.78631e-05
0.000168217
-6.55904e-05
0.000165066
-7.25537e-05
0.000160432
-7.84353e-05
0.00015396
-8.2839e-05
0.000145252
-8.53775e-05
0.000134054
-8.5793e-05
0.000120453
-8.40567e-05
0.000104962
-8.03922e-05
8.845e-05
-7.5214e-05
7.19198e-05
-6.90214e-05
5.62775e-05
-6.23021e-05
4.21759e-05
-5.54712e-05
2.99687e-05
-4.88507e-05
1.9747e-05
-4.26724e-05
1.14136e-05
-3.70936e-05
4.76258e-06
-3.22062e-05
-4.60546e-07
-2.8018e-05
-4.53906e-06
-2.44517e-05
-7.75227e-06
-2.13839e-05
-1.03336e-05
-1.86894e-05
-1.24537e-05
-1.62701e-05
-1.42239e-05
-1.40625e-05
-1.57162e-05
-1.20281e-05
-1.69761e-05
-1.01504e-05
-1.80286e-05
-8.42903e-06
-1.8894e-05
-6.86355e-06
-1.95962e-05
-5.44265e-06
-2.0155e-05
-4.16914e-06
-2.05969e-05
-3.04812e-06
-2.09482e-05
-2.12394e-05
-1.05165e-05
0.000167929
-2.03491e-05
0.000174857
-2.94916e-05
0.000178259
-3.81264e-05
0.000179142
-4.6294e-05
0.000178223
-5.39426e-05
0.000175866
-6.09285e-05
0.000172052
-6.69945e-05
0.000166498
-7.17802e-05
0.000158746
-7.48833e-05
0.000148355
-7.59737e-05
0.000135145
-7.49191e-05
0.000119398
-7.18563e-05
0.0001019
-6.71629e-05
8.37566e-05
-6.13543e-05
6.61112e-05
-5.49692e-05
4.98925e-05
-4.84901e-05
3.56967e-05
-4.23063e-05
2.37849e-05
-3.67056e-05
1.41463e-05
-3.18708e-05
6.57889e-06
-2.78698e-05
7.61545e-07
-2.46326e-05
-3.69774e-06
-2.19857e-05
-7.18599e-06
-1.97387e-05
-9.99923e-06
-1.77383e-05
-1.2334e-05
-1.58834e-05
-1.43086e-05
-1.41185e-05
-1.59888e-05
-1.24224e-05
-1.74122e-05
-1.07933e-05
-1.86052e-05
-9.23634e-06
-1.95856e-05
-7.76187e-06
-2.03684e-05
-6.38634e-06
-2.09717e-05
-5.1187e-06
-2.14227e-05
-3.96645e-06
-2.17491e-05
-2.93598e-06
-2.19787e-05
-2.21473e-05
-9.71577e-06
0.000177645
-1.88436e-05
0.000183985
-2.7348e-05
0.000186764
-3.53626e-05
0.000187157
-4.28945e-05
0.000185754
-4.98526e-05
0.000182824
-5.60492e-05
0.000178249
-6.11874e-05
0.000171636
-6.48902e-05
0.000162449
-6.67872e-05
0.000150252
-6.66429e-05
0.000135001
-6.44706e-05
0.000117226
-6.05586e-05
9.79877e-05
-5.5395e-05
7.8593e-05
-4.9543e-05
6.02592e-05
-4.35372e-05
4.38867e-05
-3.78274e-05
2.99869e-05
-3.27542e-05
1.87117e-05
-2.85265e-05
9.91857e-06
-2.51919e-05
3.24433e-06
-2.2626e-05
-1.80436e-06
-2.05962e-05
-5.72751e-06
-1.88808e-05
-8.90145e-06
-1.73221e-05
-1.1558e-05
-1.58293e-05
-1.38268e-05
-1.43571e-05
-1.57809e-05
-1.28881e-05
-1.74577e-05
-1.14229e-05
-1.88774e-05
-9.97504e-06
-2.00531e-05
-8.56171e-06
-2.09989e-05
-7.20133e-06
-2.17288e-05
-5.91523e-06
-2.22578e-05
-4.72375e-06
-2.26142e-05
-3.643e-06
-2.28299e-05
-2.68301e-06
-2.29387e-05
-2.29789e-05
-8.92655e-06
0.000186572
-1.73464e-05
0.000192405
-2.51965e-05
0.000194614
-3.25673e-05
0.000194528
-3.94356e-05
0.000192623
-4.56776e-05
0.000189066
-5.10719e-05
0.000183643
-5.53001e-05
0.000175864
-5.79968e-05
0.000165145
-5.88544e-05
0.000151109
-5.77532e-05
0.000133899
-5.48453e-05
0.000114318
-5.0536e-05
9.36783e-05
-4.53748e-05
7.34318e-05
-3.99274e-05
5.48118e-05
-3.46911e-05
3.86504e-05
-3.00536e-05
2.53495e-05
-2.62596e-05
1.49176e-05
-2.33667e-05
7.02567e-06
-2.12363e-05
1.11397e-06
-1.96126e-05
-3.42807e-06
-1.82561e-05
-7.084e-06
-1.70098e-05
-1.01478e-05
-1.57848e-05
-1.2783e-05
-1.45364e-05
-1.50751e-05
-1.32498e-05
-1.70675e-05
-1.19261e-05
-1.87814e-05
-1.05755e-05
-2.0228e-05
-9.21656e-06
-2.1412e-05
-7.87379e-06
-2.23417e-05
-6.57406e-06
-2.30286e-05
-5.34357e-06
-2.34883e-05
-4.20821e-06
-2.37495e-05
-3.18953e-06
-2.38485e-05
-2.30184e-06
-2.38264e-05
-2.37266e-05
-8.15542e-06
0.000194727
-1.58722e-05
0.000200122
-2.30629e-05
0.000201804
-2.97808e-05
0.000201246
-3.59769e-05
0.000198819
-4.15018e-05
0.000194591
-4.6113e-05
0.000188254
-4.94906e-05
0.000179242
-5.13051e-05
0.00016696
-5.13325e-05
0.000151137
-4.95707e-05
0.000132138
-4.62847e-05
0.000111032
-4.19522e-05
8.93459e-05
-3.71414e-05
6.8621e-05
-3.23856e-05
5.0056e-05
-2.81138e-05
3.43786e-05
-2.46137e-05
2.18493e-05
-2.19842e-05
1.22882e-05
-2.01133e-05
5.15475e-06
-1.87508e-05
-2.48559e-07
-1.76472e-05
-4.53163e-06
-1.6637e-05
-8.09426e-06
-1.56264e-05
-1.11584e-05
-1.45692e-05
-1.38402e-05
-1.34458e-05
-1.61985e-05
-1.22542e-05
-1.8259e-05
-1.10038e-05