/*--------------------------------*- C++ -*----------------------------------*\
| =========                 |                                                 |
| \\      /  F ield         | OpenFOAM: The Open Source CFD Toolbox           |
|  \\    /   O peration     | Version:  v2012                                 |
|   \\  /    A nd           | Website:  www.openfoam.com                      |
|    \\/     M anipulation  |                                                 |
\*---------------------------------------------------------------------------*/
FoamFile
{
    version     2.0;
    format      ascii;
    class       volVectorField;
    location    "626";
    object      U;
}
// * * * * * * * * * * * * * * * * * * * * * * * * * * * * * * * * * * * * * //

dimensions      [0 1 -1 0 0 0 0];


internalField   nonuniform List<vector> 
6108
(
(0.000401826 -0.991861 0)
(0.000356724 -0.992444 0)
(0.000323904 -0.992944 0)
(0.000301444 -0.993383 0)
(0.000287118 -0.993782 0)
(0.000279184 -0.994154 0)
(0.000276229 -0.994511 0)
(0.000277266 -0.994861 0)
(0.000281588 -0.995209 0)
(0.000289004 -0.995561 0)
(0.000299306 -0.995921 0)
(0.00031244 -0.996292 0)
(0.000328355 -0.99668 0)
(0.000346734 -0.997087 0)
(0.0003667 -0.997516 0)
(0.000386131 -0.997974 0)
(0.000399664 -0.998465 0)
(0.000394351 -0.998977 0)
(0.000320379 -0.99943 0)
(8.08268e-05 -0.999739 0)
(0.00065498 -0.999073 0)
(0.000537725 -0.999332 0)
(0.000452592 -0.999515 0)
(0.000393253 -0.999644 0)
(0.000353601 -0.999735 0)
(0.000328709 -0.999802 0)
(0.000314527 -0.999852 0)
(0.00030815 -0.999891 0)
(0.000307095 -0.999924 0)
(0.000311315 -0.999953 0)
(0.000320073 -0.99998 0)
(0.000332891 -1.00001 0)
(0.000349452 -1.00004 0)
(0.00036928 -1.00007 0)
(0.000391618 -1.0001 0)
(0.00041424 -1.00013 0)
(0.00042915 -1.00016 0)
(0.000435052 -1.00017 0)
(0.00038655 -1.00014 0)
(0.000208631 -1.00003 0)
(0.000850726 -1.00115 0)
(0.000663067 -1.00129 0)
(0.000528295 -1.00136 0)
(0.000434813 -1.00139 0)
(0.000371931 -1.00138 0)
(0.000330984 -1.00135 0)
(0.000305488 -1.0013 0)
(0.000292072 -1.00124 0)
(0.000285631 -1.00117 0)
(0.000285872 -1.0011 0)
(0.000291332 -1.00102 0)
(0.000301092 -1.00094 0)
(0.000314655 -1.00085 0)
(0.000331376 -1.00076 0)
(0.000347935 -1.00065 0)
(0.000357462 -1.00055 0)
(0.000362275 -1.00043 0)
(0.000351447 -1.00029 0)
(0.000292044 -1.00014 0)
(0.000141506 -1.00003 0)
(0.000973115 -1.00214 0)
(0.000718264 -1.0022 0)
(0.000538221 -1.0022 0)
(0.000415286 -1.00216 0)
(0.00033163 -1.00209 0)
(0.000276681 -1.00201 0)
(0.000241071 -1.00191 0)
(0.000219325 -1.0018 0)
(0.000207671 -1.00169 0)
(0.000203098 -1.00156 0)
(0.000203742 -1.00143 0)
(0.000208416 -1.0013 0)
(0.00021624 -1.00115 0)
(0.00022616 -1.001 0)
(0.000235927 -1.00083 0)
(0.000241933 -1.00066 0)
(0.000241639 -1.00048 0)
(0.000224276 -1.00029 0)
(0.000172982 -1.00012 0)
(7.26424e-05 -1.00002 0)
(0.00103153 -1.0027 0)
(0.00071649 -1.00267 0)
(0.00049912 -1.00261 0)
(0.00034888 -1.00252 0)
(0.000250121 -1.00241 0)
(0.000187912 -1.00229 0)
(0.000144769 -1.00217 0)
(0.000116828 -1.00203 0)
(9.91724e-05 -1.00189 0)
(8.85869e-05 -1.00175 0)
(8.28647e-05 -1.00159 0)
(8.05875e-05 -1.00143 0)
(8.0772e-05 -1.00126 0)
(8.25636e-05 -1.00108 0)
(8.47602e-05 -1.00089 0)
(8.57409e-05 -1.00069 0)
(8.41369e-05 -1.00048 0)
(7.64673e-05 -1.00028 0)
(5.69857e-05 -1.00011 0)
(2.24632e-05 -1.00001 0)
(0.00100379 -1.003 0)
(0.000643203 -1.00287 0)
(0.000410383 -1.00274 0)
(0.000252492 -1.0026 0)
(0.000148648 -1.00247 0)
(7.98759e-05 -1.00233 0)
(3.31735e-05 -1.00219 0)
(1.37273e-06 -1.00205 0)
(-2.07005e-05 -1.0019 0)
(-3.65003e-05 -1.00175 0)
(-4.83614e-05 -1.0016 0)
(-5.78001e-05 -1.00144 0)
(-6.57705e-05 -1.00126 0)
(-7.27044e-05 -1.00108 0)
(-7.82677e-05 -1.00089 0)
(-8.14884e-05 -1.00069 0)
(-8.14356e-05 -1.00048 0)
(-7.48498e-05 -1.00028 0)
(-5.61448e-05 -1.00011 0)
(-2.21875e-05 -1.00001 0)
(0.000874934 -1.003 0)
(0.000514935 -1.00277 0)
(0.000277949 -1.00258 0)
(0.000131108 -1.00241 0)
(3.17703e-05 -1.00226 0)
(-3.50527e-05 -1.00212 0)
(-8.04036e-05 -1.00198 0)
(-0.00011273 -1.00185 0)
(-0.000136862 -1.00172 0)
(-0.000156063 -1.00158 0)
(-0.000172565 -1.00145 0)
(-0.000187827 -1.00131 0)
(-0.000202694 -1.00116 0)
(-0.000217261 -1.001 0)
(-0.000230058 -1.00083 0)
(-0.000238089 -1.00066 0)
(-0.000239222 -1.00048 0)
(-0.000222845 -1.00029 0)
(-0.000172272 -1.00012 0)
(-7.24094e-05 -1.00002 0)
(0.000591428 -1.00256 0)
(0.000315869 -1.00218 0)
(0.000112207 -1.00196 0)
(-4.20748e-06 -1.00177 0)
(-8.40201e-05 -1.00163 0)
(-0.000138517 -1.00152 0)
(-0.00017729 -1.00141 0)
(-0.000206095 -1.00131 0)
(-0.000228884 -1.00122 0)
(-0.000248382 -1.00113 0)
(-0.000266534 -1.00104 0)
(-0.000284727 -1.00095 0)
(-0.000303919 -1.00086 0)
(-0.000324387 -1.00076 0)
(-0.000343287 -1.00066 0)
(-0.000354327 -1.00055 0)
(-0.000360318 -1.00043 0)
(-0.000350322 -1.00029 0)
(-0.000291539 -1.00014 0)
(-0.000141354 -1.00003 0)
(7.64527e-05 -1.0012 0)
(0.000102189 -1.00044 0)
(-3.79801e-05 -1.00027 0)
(-0.000107127 -1.00014 0)
(-0.000161547 -1.00006 0)
(-0.000199819 -1.00002 0)
(-0.000228213 -0.999996 0)
(-0.00025039 -0.999986 0)
(-0.000269103 -0.999986 0)
(-0.000286334 -0.999994 0)
(-0.00030359 -1.00001 0)
(-0.000322004 -1.00002 0)
(-0.000342273 -1.00005 0)
(-0.000364558 -1.00007 0)
(-0.000388536 -1.0001 0)
(-0.000412267 -1.00013 0)
(-0.000427847 -1.00016 0)
(-0.000434066 -1.00017 0)
(-0.000386488 -1.00014 0)
(-0.000208594 -1.00004 0)
(-0.00032324 -0.996498 0)
(-5.39893e-05 -0.993724 0)
(-0.000157013 -0.993826 0)
(-0.000179183 -0.993985 0)
(-0.000202547 -0.994183 0)
(-0.000221677 -0.994421 0)
(-0.000237423 -0.994688 0)
(-0.000251216 -0.994977 0)
(-0.000264237 -0.995285 0)
(-0.000277442 -0.995611 0)
(-0.000291604 -0.995953 0)
(-0.00030733 -0.996313 0)
(-0.000324972 -0.996693 0)
(-0.000344447 -0.997095 0)
(-0.000365159 -0.997521 0)
(-0.00038513 -0.997976 0)
(-0.000399051 -0.998467 0)
(-0.000394051 -0.998977 0)
(-0.000320345 -0.99943 0)
(-8.08137e-05 -0.999739 0)
(0.000749419 -0.988062 0)
(0.000638494 -0.989298 0)
(0.000543335 -0.990322 0)
(0.000463771 -0.991165 0)
(0.00150616 -0.996634 0)
(0.0012373 -0.997518 0)
(0.00100579 -0.9982 0)
(0.000810497 -0.998707 0)
(0.00224304 -0.999174 0)
(0.0018062 -0.99994 0)
(0.00142682 -1.00051 0)
(0.00110474 -1.0009 0)
(0.00290808 -1.00046 0)
(0.00230949 -1.00116 0)
(0.0017837 -1.00166 0)
(0.0013293 -1.00197 0)
(0.00351662 -1.00125 0)
(0.00276539 -1.0019 0)
(0.00209626 -1.00236 0)
(0.00149663 -1.00262 0)
(0.00410893 -1.00166 0)
(0.00321519 -1.00231 0)
(0.00239977 -1.00278 0)
(0.00161476 -1.003 0)
(0.00481751 -1.00147 0)
(0.00372406 -1.00229 0)
(0.00269348 -1.00291 0)
(0.00165966 -1.00315 0)
(0.00569457 -0.99967 0)
(0.00414512 -1.00122 0)
(0.00292438 -1.00235 0)
(0.00182579 -1.00287 0)
(0.00592831 -0.99164 0)
(0.00446476 -0.995709 0)
(0.00386358 -0.998675 0)
(0.00308944 -1.00081 0)
(0.0230501 -0.933613 0)
(0.0202507 -0.949539 0)
(0.0168732 -0.964291 0)
(0.00950975 -0.982354 0)
(-0.0256494 0.0126462 0)
(-0.0206929 0.044723 0)
(-0.00602927 0.0453738 0)
(0.00710086 0.0277715 0)
(0.0182194 -0.00858464 0)
(0.0313668 -0.0687054 0)
(0.0396197 -0.158008 0)
(0.0394445 -0.2446 0)
(0.0359694 -0.321811 0)
(0.0327577 -0.393053 0)
(0.0299609 -0.458397 0)
(0.0274354 -0.518323 0)
(0.025106 -0.573247 0)
(0.0229281 -0.623489 0)
(0.0208698 -0.669304 0)
(0.0189116 -0.710903 0)
(0.0170438 -0.748476 0)
(0.0152648 -0.782205 0)
(0.0135787 -0.812283 0)
(0.0119938 -0.838911 0)
(0.0105261 -0.862323 0)
(0.00918505 -0.882769 0)
(0.00796211 -0.900492 0)
(0.0068527 -0.915741 0)
(0.00585867 -0.928769 0)
(0.00497765 -0.93982 0)
(0.00420566 -0.949134 0)
(0.00353696 -0.95694 0)
(0.00296366 -0.963453 0)
(0.00247545 -0.968865 0)
(0.00206597 -0.973347 0)
(0.00172795 -0.977056 0)
(0.00145029 -0.980128 0)
(0.00122249 -0.98268 0)
(0.00103508 -0.984805 0)
(0.000879701 -0.986579 0)
(-0.045636 0.0019531 0)
(-0.0117494 0.0230954 0)
(0.0183974 0.0078637 0)
(0.0416856 -0.0370569 0)
(0.0679516 -0.106815 0)
(0.0895336 -0.1872 0)
(0.0968418 -0.265687 0)
(0.0926351 -0.329884 0)
(0.0855578 -0.394022 0)
(0.0788223 -0.455084 0)
(0.0725267 -0.512479 0)
(0.0666806 -0.566023 0)
(0.0611992 -0.615728 0)
(0.0560081 -0.661637 0)
(0.0510525 -0.703808 0)
(0.0463018 -0.742308 0)
(0.0417463 -0.777219 0)
(0.0373928 -0.808641 0)
(0.0332592 -0.836704 0)
(0.0293677 -0.861565 0)
(0.0257376 -0.883405 0)
(0.0223835 -0.902419 0)
(0.0193171 -0.918827 0)
(0.0165458 -0.932874 0)
(0.0140694 -0.944804 0)
(0.0118813 -0.954859 0)
(0.00996976 -0.96327 0)
(0.00831883 -0.970259 0)
(0.00690928 -0.976032 0)
(0.00571519 -0.980748 0)
(0.00471341 -0.984607 0)
(0.00388643 -0.987763 0)
(0.00320937 -0.990334 0)
(0.00265489 -0.992429 0)
(0.00219937 -0.994135 0)
(0.00182212 -0.995519 0)
(-0.0528877 -0.0143135 0)
(0.0103563 -0.00982173 0)
(0.0534051 -0.0497258 0)
(0.0925884 -0.111988 0)
(0.126343 -0.18454 0)
(0.14545 -0.253288 0)
(0.147841 -0.314034 0)
(0.141466 -0.370543 0)
(0.133109 -0.427586 0)
(0.124247 -0.482584 0)
(0.115444 -0.535329 0)
(0.106914 -0.58534 0)
(0.0986669 -0.632356 0)
(0.0906694 -0.676195 0)
(0.0828932 -0.716746 0)
(0.0753319 -0.753949 0)
(0.0680028 -0.787792 0)
(0.060942 -0.818309 0)
(0.0541968 -0.84558 0)
(0.0478178 -0.869728 0)
(0.0418506 -0.890916 0)
(0.0363329 -0.909339 0)
(0.0312915 -0.925217 0)
(0.0267396 -0.938784 0)
(0.0226773 -0.950278 0)
(0.0190927 -0.959933 0)
(0.0159647 -0.96798 0)
(0.0132643 -0.974634 0)
(0.0109597 -0.980098 0)
(0.00901911 -0.984559 0)
(0.00740425 -0.988182 0)
(0.00607238 -0.991115 0)
(0.00498225 -0.993485 0)
(0.00409186 -0.995402 0)
(0.00336063 -0.996948 0)
(0.0027536 -0.998189 0)
(-0.0306096 -0.0281004 0)
(0.0408823 -0.0462083 0)
(0.0981295 -0.101109 0)
(0.146897 -0.16727 0)
(0.179825 -0.232165 0)
(0.193446 -0.289387 0)
(0.192639 -0.342058 0)
(0.185668 -0.394646 0)
(0.176596 -0.44727 0)
(0.166373 -0.49873 0)
(0.155781 -0.548661 0)
(0.145137 -0.596507 0)
(0.134554 -0.641888 0)
(0.12407 -0.684501 0)
(0.113713 -0.724131 0)
(0.103519 -0.76063 0)
(0.0935508 -0.793916 0)
(0.0838847 -0.823974 0)
(0.0746081 -0.850848 0)
(0.0658076 -0.874637 0)
(0.05756 -0.895492 0)
(0.0499267 -0.913601 0)
(0.0429496 -0.929179 0)
(0.0366499 -0.942459 0)
(0.0310292 -0.953678 0)
(0.0260723 -0.963072 0)
(0.0217506 -0.970872 0)
(0.0180252 -0.977294 0)
(0.0148502 -0.982542 0)
(0.0121765 -0.986799 0)
(0.00995288 -0.99023 0)
(0.00812517 -0.992986 0)
(0.0066359 -0.9952 0)
(0.00542403 -0.99698 0)
(0.00443069 -0.998412 0)
(0.003605 -0.999557 0)
(0.00112109 -0.0398658 0)
(0.0815353 -0.0753308 0)
(0.147308 -0.137348 0)
(0.197332 -0.2015 0)
(0.225568 -0.258928 0)
(0.235038 -0.310187 0)
(0.233307 -0.359802 0)
(0.226485 -0.409938 0)
(0.217029 -0.45994 0)
(0.205979 -0.509258 0)
(0.194127 -0.557415 0)
(0.181839 -0.603878 0)
(0.169308 -0.648219 0)
(0.156642 -0.690074 0)
(0.143926 -0.729154 0)
(0.131259 -0.765248 0)
(0.118756 -0.798219 0)
(0.106549 -0.828009 0)
(0.0947792 -0.854636 0)
(0.0835775 -0.878183 0)
(0.0730596 -0.898797 0)
(0.0633157 -0.916664 0)
(0.0544066 -0.932004 0)
(0.0463634 -0.945053 0)
(0.0391898 -0.956053 0)
(0.0328669 -0.965242 0)
(0.0273585 -0.972849 0)
(0.0226154 -0.979094 0)
(0.0185783 -0.984177 0)
(0.0151828 -0.988279 0)
(0.0123633 -0.991564 0)
(0.0100535 -0.994185 0)
(0.00818074 -0.996279 0)
(0.0066638 -0.997961 0)
(0.00542335 -0.999314 0)
(0.00439087 -1.00039 0)
(0.0446542 -0.0465379 0)
(0.130077 -0.0947663 0)
(0.197484 -0.159641 0)
(0.243697 -0.22025 0)
(0.267 -0.273155 0)
(0.274184 -0.322175 0)
(0.272384 -0.370636 0)
(0.265723 -0.419346 0)
(0.256015 -0.46787 0)
(0.244359 -0.515883 0)
(0.231489 -0.562926 0)
(0.2178 -0.608514 0)
(0.203531 -0.652197 0)
(0.188841 -0.69357 0)
(0.173878 -0.732293 0)
(0.158801 -0.768099 0)
(0.143792 -0.800811 0)
(0.129052 -0.830342 0)
(0.114781 -0.856698 0)
(0.101168 -0.879965 0)
(0.0883722 -0.900297 0)
(0.0765167 -0.917897 0)
(0.0656815 -0.932997 0)
(0.0559064 -0.945844 0)
(0.0471948 -0.956685 0)
(0.039522 -0.965759 0)
(0.0328431 -0.973289 0)
(0.0270971 -0.979486 0)
(0.0222096 -0.984546 0)
(0.0181005 -0.988638 0)
(0.0146903 -0.991919 0)
(0.0119025 -0.994535 0)
(0.0096554 -0.996631 0)
(0.00784635 -0.998324 0)
(0.00637308 -0.999696 0)
(0.00514807 -1.0008 0)
(0.0963415 -0.0501248 0)
(0.183212 -0.105506 0)
(0.246998 -0.17121 0)
(0.287667 -0.228863 0)
(0.30697 -0.279805 0)
(0.312807 -0.328318 0)
(0.310909 -0.376356 0)
(0.304202 -0.424315 0)
(0.294234 -0.472018 0)
(0.282033 -0.519235 0)
(0.268256 -0.565569 0)
(0.253291 -0.610568 0)
(0.237393 -0.653769 0)
(0.220759 -0.69473 0)
(0.203589 -0.73306 0)
(0.18611 -0.768452 0)
(0.168582 -0.800701 0)
(0.151285 -0.829713 0)
(0.134496 -0.855509 0)
(0.118467 -0.878205 0)
(0.103408 -0.897995 0)
(0.0894728 -0.91512 0)
(0.0767577 -0.929851 0)
(0.0653055 -0.942459 0)
(0.0551131 -0.953201 0)
(0.0461437 -0.962309 0)
(0.0383378 -0.969992 0)
(0.0316176 -0.976437 0)
(0.0258942 -0.981815 0)
(0.0210738 -0.986269 0)
(0.0170658 -0.989923 0)
(0.0137948 -0.992901 0)
(0.0111891 -0.995342 0)
(0.0091159 -0.997366 0)
(0.00743568 -0.999042 0)
(0.00603385 -1.0004 0)
(0.155407 -0.0530521 0)
(0.237611 -0.110344 0)
(0.295405 -0.175427 0)
(0.330472 -0.23116 0)
(0.346619 -0.281572 0)
(0.351375 -0.330179 0)
(0.349166 -0.378068 0)
(0.342243 -0.425627 0)
(0.331962 -0.472833 0)
(0.31922 -0.519508 0)
(0.304579 -0.565298 0)
(0.288385 -0.609759 0)
(0.270882 -0.652396 0)
(0.252293 -0.692714 0)
(0.23287 -0.730269 0)
(0.21292 -0.764714 0)
(0.192798 -0.795833 0)
(0.172884 -0.823554 0)
(0.153548 -0.847953 0)
(0.13512 -0.869226 0)
(0.117859 -0.887659 0)
(0.101951 -0.903591 0)
(0.087498 -0.917375 0)
(0.074533 -0.92935 0)
(0.0630298 -0.939818 0)
(0.0529207 -0.949027 0)
(0.0441192 -0.957173 0)
(0.0365537 -0.964373 0)
(0.0301392 -0.970732 0)
(0.0247223 -0.976344 0)
(0.0201872 -0.98125 0)
(0.0164818 -0.985492 0)
(0.0135337 -0.989177 0)
(0.011149 -0.992433 0)
(0.00912721 -0.995282 0)
(0.00734511 -0.997701 0)
(0.218983 -0.054442 0)
(0.291391 -0.110986 0)
(0.342729 -0.174895 0)
(0.372755 -0.229521 0)
(0.386291 -0.279911 0)
(0.389971 -0.32868 0)
(0.38726 -0.376462 0)
(0.379994 -0.423725 0)
(0.369324 -0.470511 0)
(0.355994 -0.51666 0)
(0.340449 -0.561819 0)
(0.322961 -0.6055 0)
(0.303747 -0.647134 0)
(0.283044 -0.686137 0)
(0.261168 -0.721982 0)
(0.238529 -0.754269 0)
(0.215608 -0.782778 0)
(0.19292 -0.807493 0)
(0.170957 -0.828592 0)
(0.150143 -0.846418 0)
(0.130803 -0.861425 0)
(0.113146 -0.874124 0)
(0.0972702 -0.885034 0)
(0.0831748 -0.894646 0)
(0.0707822 -0.903392 0)
(0.0599588 -0.911627 0)
(0.0505424 -0.919625 0)
(0.0423646 -0.927587 0)
(0.0352485 -0.935624 0)
(0.0291343 -0.943594 0)
(0.0240076 -0.951401 0)
(0.0196687 -0.958977 0)
(0.0160587 -0.966337 0)
(0.0129079 -0.973517 0)
(0.0101505 -0.98029 0)
(0.00782799 -0.986403 0)
(0.279721 -0.0535482 0)
(0.344064 -0.108565 0)
(0.389169 -0.171383 0)
(0.414745 -0.225318 0)
(0.426031 -0.275663 0)
(0.428567 -0.324421 0)
(0.425195 -0.371982 0)
(0.417456 -0.418853 0)
(0.406285 -0.465085 0)
(0.39224 -0.510489 0)
(0.375624 -0.55464 0)
(0.356609 -0.596937 0)
(0.33536 -0.63666 0)
(0.312132 -0.673067 0)
(0.287325 -0.705496 0)
(0.26149 -0.733469 0)
(0.235287 -0.756771 0)
(0.209418 -0.775471 0)
(0.184543 -0.789905 0)
(0.161211 -0.800606 0)
(0.139825 -0.808229 0)
(0.12062 -0.813475 0)
(0.103687 -0.817028 0)
(0.0889935 -0.819523 0)
(0.0764192 -0.821524 0)
(0.0657915 -0.823524 0)
(0.0569127 -0.825954 0)
(0.0495725 -0.82925 0)
(0.0435281 -0.833876 0)
(0.0384556 -0.8402 0)
(0.0341178 -0.848372 0)
(0.0303968 -0.858522 0)
(0.0280372 -0.870316 0)
(0.0268605 -0.884002 0)
(0.025922 -0.899326 0)
(0.0247578 -0.916016 0)
(0.00564285 -0.349128 0)
(-0.00438033 -0.280425 0)
(-0.0241248 -0.212561 0)
(-0.0398367 -0.152132 0)
(-0.0507639 -0.0634188 0)
(-0.0557939 -0.0245486 0)
(-0.0716982 0.00678443 0)
(-0.116823 0.0121419 0)
(-0.068616 -0.00887865 0)
(-0.0730368 0.00368377 0)
(-0.0817222 0.0126573 0)
(-0.0978978 0.00820131 0)
(-0.0763749 -0.0053044 0)
(-0.0787645 0.000534971 0)
(-0.083608 0.00485163 0)
(-0.0911632 0.00231582 0)
(-0.0804878 -0.00657308 0)
(-0.0824947 -0.0021762 0)
(-0.0854266 0.00108106 0)
(-0.0886476 0.00102115 0)
(-0.0842622 -0.00746272 0)
(-0.0856399 -0.00364724 0)
(-0.0872218 -0.000805682 0)
(-0.0880803 0.000118177 0)
(-0.0876167 -0.00753389 0)
(-0.0883866 -0.00414354 0)
(-0.0890319 -0.00161073 0)
(-0.0884854 -0.000207462 0)
(-0.0906076 -0.00690325 0)
(-0.0907965 -0.00393679 0)
(-0.0907251 -0.00175468 0)
(-0.0892626 -0.000318115 0)
(-0.0932282 -0.00572032 0)
(-0.0928442 -0.00321374 0)
(-0.0921686 -0.00145812 0)
(-0.0900501 -0.000189926 0)
(-0.0954484 -0.00409426 0)
(-0.0944835 -0.00209551 0)
(-0.0932574 -0.000850229 0)
(-0.0905995 0.000132783 0)
(-0.0972299 -0.00209716 0)
(-0.0956605 -0.000659543 0)
(-0.0938967 -4.12234e-06 0)
(-0.090743 0.000560221 0)
(-0.0985332 0.000225817 0)
(-0.0963185 0.00104737 0)
(-0.0939964 0.00104079 0)
(-0.0903569 0.00108501 0)
(-0.0993178 0.00284583 0)
(-0.0963994 0.00299547 0)
(-0.0934736 0.00225665 0)
(-0.0893344 0.00164567 0)
(-0.0995444 0.00574341 0)
(-0.0958506 0.00516881 0)
(-0.0922586 0.00362786 0)
(-0.0875786 0.00237876 0)
(-0.0991745 0.00890431 0)
(-0.0946226 0.00755341 0)
(-0.0902902 0.00514718 0)
(-0.0849959 0.00321368 0)
(-0.0981708 0.0123176 0)
(-0.092666 0.01014 0)
(-0.0875029 0.00681463 0)
(-0.0814994 0.00414888 0)
(-0.096498 0.0159715 0)
(-0.0899347 0.0129193 0)
(-0.0838354 0.00863007 0)
(-0.0770034 0.00519885 0)
(-0.0941229 0.0198487 0)
(-0.0863865 0.015877 0)
(-0.079232 0.0105905 0)
(-0.0714181 0.00637498 0)
(-0.0910146 0.0239225 0)
(-0.0819845 0.0189886 0)
(-0.0736466 0.0126862 0)
(-0.0646525 0.00768482 0)
(-0.0871452 0.0281496 0)
(-0.0767007 0.0222121 0)
(-0.067056 0.0148932 0)
(-0.0566484 0.00912153 0)
(-0.0824827 0.0324606 0)
(-0.07051 0.0254737 0)
(-0.0594663 0.0171543 0)
(-0.0474325 0.0106302 0)
(-0.076972 0.0367479 0)
(-0.063361 0.0286486 0)
(-0.0508594 0.0193331 0)
(-0.0369695 0.0120106 0)
(-0.0705447 0.0408544 0)
(-0.0551723 0.0315738 0)
(-0.0411384 0.0212079 0)
(-0.0249141 0.012836 0)
(-0.0632146 0.0445791 0)
(-0.0459331 0.0341493 0)
(-0.0303229 0.0228249 0)
(-0.0130167 0.0135031 0)
(-0.0547086 0.0480362 0)
(-0.0355748 0.0363826 0)
(-0.0184602 0.0242737 0)
(-0.000373086 0.0144136 0)
(-0.0449514 0.051523 0)
(-0.0243175 0.0384681 0)
(-0.00584975 0.025521 0)
(0.0128565 0.0147394 0)
(-0.0341327 0.0548396 0)
(-0.0121297 0.0404488 0)
(0.0075032 0.0264406 0)
(0.0269724 0.014641 0)
(-0.0224002 0.0575133 0)
(0.000954176 0.042193 0)
(0.0213844 0.0272608 0)
(0.0413229 0.0150312 0)
(-0.00996554 0.0591489 0)
(0.0145608 0.0432683 0)
(0.0356582 0.0277409 0)
(0.0574712 0.0154481 0)
(0.00298314 0.0595049 0)
(0.0284202 0.0433845 0)
(0.050062 0.0275263 0)
(0.0731226 0.0152256 0)
(0.016208 0.0584576 0)
(0.0422758 0.0425296 0)
(0.0643988 0.0267691 0)
(0.0885488 0.0145903 0)
(0.0293572 0.0559901 0)
(0.0557134 0.0407337 0)
(0.078336 0.0255835 0)
(0.103574 0.0137463 0)
(0.0419807 0.0522954 0)
(0.068305 0.0380918 0)
(0.0915356 0.0239449 0)
(0.117826 0.0127495 0)
(0.053591 0.0476576 0)
(0.0798652 0.034856 0)
(0.103784 0.0218355 0)
(0.131018 0.0116151 0)
(0.0637373 0.04217 0)
(0.0902023 0.031155 0)
(0.114857 0.0193721 0)
(0.142923 0.0103726 0)
(0.0723785 0.0362071 0)
(0.0992178 0.0269472 0)
(0.124587 0.0166395 0)
(0.153369 0.00904994 0)
(0.0796336 0.0301189 0)
(0.106808 0.0224724 0)
(0.132837 0.0137728 0)
(0.162234 0.00769094 0)
(0.0855335 0.0240194 0)
(0.112961 0.0179549 0)
(0.139558 0.0109049 0)
(0.169469 0.00634769 0)
(0.0901127 0.018133 0)
(0.117715 0.0135808 0)
(0.144774 0.00814649 0)
(0.175096 0.00504047 0)
(0.093475 0.0126036 0)
(0.121161 0.00946329 0)
(0.148566 0.00556382 0)
(0.179189 0.00375305 0)
(0.0957228 0.00749799 0)
(0.123398 0.00565947 0)
(0.151041 0.003179 0)
(0.181847 0.00262986 0)
(0.0969481 0.00281936 0)
(0.124522 0.00217867 0)
(0.152295 0.000987093 0)
(0.183195 0.00168867 0)
(0.0972332 -0.00146872 0)
(0.124627 -0.00101262 0)
(0.152461 -0.00103051 0)
(0.183324 0.000690192 0)
(0.0966516 -0.00541481 0)
(0.123806 -0.00395776 0)
(0.151682 -0.00289566 0)
(0.18229 -0.000276684 0)
(0.0952732 -0.00907083 0)
(0.122145 -0.00670208 0)
(0.150041 -0.00464087 0)
(0.180144 -0.0012607 0)
(0.0931631 -0.012491 0)
(0.119718 -0.00928894 0)
(0.147592 -0.00630596 0)
(0.17694 -0.00208641 0)
(0.0903813 -0.0157361 0)
(0.116587 -0.0117736 0)
(0.14438 -0.00793404 0)
(0.172725 -0.00291512 0)
(0.0869862 -0.0188729 0)
(0.112813 -0.0142193 0)
(0.14044 -0.00957479 0)
(0.167496 -0.00374826 0)
(0.0830365 -0.021977 0)
(0.108448 -0.0167005 0)
(0.135791 -0.0112899 0)
(0.161215 -0.00460896 0)
(0.0785942 -0.0251384 0)
(0.10354 -0.0193097 0)
(0.13043 -0.013156 0)
(0.153803 -0.00553366 0)
(0.0737301 -0.0284669 0)
(0.0981349 -0.0221627 0)
(0.124329 -0.0152658 0)
(0.145126 -0.00656707 0)
(0.0685294 -0.0320975 0)
(0.0922748 -0.0254007 0)
(0.11742 -0.0177262 0)
(0.134991 -0.00775877 0)
(0.0630972 -0.0361902 0)
(0.0859949 -0.029183 0)
(0.109591 -0.020644 0)
(0.123139 -0.00915462 0)
(0.0575576 -0.0409182 0)
(0.0793084 -0.0336556 0)
(0.100664 -0.0240887 0)
(0.109268 -0.0107761 0)
(0.0520414 -0.0464157 0)
(0.0721765 -0.0388676 0)
(0.090391 -0.028008 0)
(0.0930882 -0.0125727 0)
(0.0466406 -0.0526424 0)
(0.0644393 -0.0445917 0)
(0.0784462 -0.0320627 0)
(0.0744268 -0.0143395 0)
(0.0413303 -0.0591174 0)
(0.0557588 -0.0500027 0)
(0.0645598 -0.0352951 0)
(0.0535388 -0.0153786 0)
(0.0355796 -0.0644463 0)
(0.0454631 -0.0530706 0)
(0.0480985 -0.0355411 0)
(0.0309125 -0.0140938 0)
(0.0284147 -0.0662005 0)
(0.0315919 -0.0503781 0)
(0.0277066 -0.0301048 0)
(0.0100689 -0.00960036 0)
(0.0153447 -0.0724916 0)
(0.0167216 -0.0372921 0)
(0.0103251 -0.0185974 0)
(0.000477661 -0.00274803 0)
(0.340866 -0.051174 0)
(0.39716 -0.104221 0)
(0.4362 -0.165794 0)
(0.45773 -0.219122 0)
(0.466885 -0.269167 0)
(0.468167 -0.317562 0)
(0.46398 -0.364642 0)
(0.455603 -0.410849 0)
(0.443731 -0.456175 0)
(0.428698 -0.50033 0)
(0.410615 -0.542728 0)
(0.389515 -0.582546 0)
(0.365495 -0.618814 0)
(0.338838 -0.650549 0)
(0.310077 -0.67692 0)
(0.279984 -0.697405 0)
(0.24949 -0.711871 0)
(0.21956 -0.720588 0)
(0.191068 -0.72414 0)
(0.164699 -0.723307 0)
(0.140908 -0.718931 0)
(0.119917 -0.711805 0)
(0.101758 -0.702606 0)
(0.0863159 -0.691854 0)
(0.0733812 -0.679902 0)
(0.0626882 -0.666928 0)
(0.0539389 -0.652957 0)
(0.0468711 -0.637878 0)
(0.041559 -0.621325 0)
(0.0372888 -0.602794 0)
(0.0337887 -0.581814 0)
(0.0307427 -0.557734 0)
(0.0278226 -0.529639 0)
(0.0244228 -0.495914 0)
(0.0195668 -0.455357 0)
(0.0128361 -0.407244 0)
(0.400386 -0.0481371 0)
(0.450353 -0.0988962 0)
(0.483695 -0.15888 0)
(0.501537 -0.211319 0)
(0.508517 -0.260656 0)
(0.508446 -0.308261 0)
(0.503289 -0.354464 0)
(0.494047 -0.399557 0)
(0.481138 -0.443399 0)
(0.464619 -0.485501 0)
(0.444347 -0.525005 0)
(0.420172 -0.56076 0)
(0.392126 -0.591466 0)
(0.360585 -0.615907 0)
(0.326336 -0.633195 0)
(0.290522 -0.642963 0)
(0.254474 -0.645422 0)
(0.219495 -0.641276 0)
(0.186674 -0.631536 0)
(0.156771 -0.617315 0)
(0.130194 -0.599654 0)
(0.107042 -0.579411 0)
(0.0871744 -0.557214 0)
(0.0702946 -0.533456 0)
(0.0560172 -0.508319 0)
(0.0439115 -0.481808 0)
(0.0335175 -0.453796 0)
(0.0243618 -0.424062 0)
(0.0160003 -0.392282 0)
(0.00799616 -0.358041 0)
(7.21921e-05 -0.3213 0)
(-0.00809545 -0.28197 0)
(-0.0167464 -0.23996 0)
(-0.0259664 -0.195383 0)
(-0.0359858 -0.149506 0)
(-0.0449879 -0.10586 0)
(0.457141 -0.0451368 0)
(0.501407 -0.0934268 0)
(0.529972 -0.151285 0)
(0.544494 -0.202403 0)
(0.549344 -0.250561 0)
(0.54786 -0.296962 0)
(0.541565 -0.341822 0)
(0.531152 -0.385256 0)
(0.51672 -0.42691 0)
(0.497986 -0.466004 0)
(0.474503 -0.501324 0)
(0.445933 -0.531352 0)
(0.412322 -0.554522 0)
(0.374305 -0.569573 0)
(0.333135 -0.575868 0)
(0.290514 -0.573545 0)
(0.248275 -0.563452 0)
(0.208052 -0.5469 0)
(0.17106 -0.525368 0)
(0.138005 -0.500249 0)
(0.109121 -0.472693 0)
(0.0842805 -0.443546 0)
(0.0631141 -0.413357 0)
(0.0451232 -0.382436 0)
(0.0297668 -0.350916 0)
(0.0165158 -0.31884 0)
(0.00490624 -0.286248 0)
(-0.00541192 -0.253286 0)
(-0.0147424 -0.220127 0)
(-0.0233958 -0.187046 0)
(-0.0315573 -0.154381 0)
(-0.0392397 -0.122719 0)
(-0.0467718 -0.0930517 0)
(-0.0536034 -0.0670915 0)
(-0.0590208 -0.0444642 0)
(-0.0641098 -0.0252422 0)
(0.510582 -0.0421356 0)
(0.550005 -0.088049 0)
(0.574659 -0.143367 0)
(0.586126 -0.19258 0)
(0.588978 -0.239135 0)
(0.586001 -0.283897 0)
(0.578336 -0.326907 0)
(0.566336 -0.368074 0)
(0.549716 -0.406765 0)
(0.527798 -0.44185 0)
(0.499824 -0.471743 0)
(0.465349 -0.494643 0)
(0.424628 -0.508939 0)
(0.378818 -0.513666 0)
(0.329884 -0.508799 0)
(0.280213 -0.495253 0)
(0.232119 -0.474601 0)
(0.187435 -0.448689 0)
(0.147321 -0.419288 0)
(0.112263 -0.387877 0)
(0.0822094 -0.355561 0)
(0.05675 -0.323086 0)
(0.0352972 -0.29092 0)
(0.0172266 -0.259361 0)
(0.00196935 -0.228655 0)
(-0.0109302 -0.199094 0)
(-0.0219139 -0.170965 0)
(-0.0313926 -0.144473 0)
(-0.039659 -0.119816 0)
(-0.0469904 -0.0972182 0)
(-0.0535506 -0.0769222 0)
(-0.0589334 -0.0593986 0)
(-0.0631782 -0.0440806 0)
(-0.0673857 -0.0309879 0)
(-0.071389 -0.0205989 0)
(-0.0743781 -0.0122319 0)
(0.560724 -0.0391703 0)
(0.596133 -0.082746 0)
(0.617223 -0.135193 0)
(0.626073 -0.182015 0)
(0.627043 -0.226638 0)
(0.622455 -0.269299 0)
(0.613115 -0.309956 0)
(0.598996 -0.348254 0)
(0.579374 -0.383244 0)
(0.553155 -0.413448 0)
(0.519336 -0.43699 0)
(0.477563 -0.451992 0)
(0.428585 -0.457116 0)
(0.374367 -0.452033 0)
(0.317735 -0.437554 0)
(0.261731 -0.415385 0)
(0.208976 -0.387668 0)
(0.161282 -0.356531 0)
(0.119561 -0.323802 0)
(0.0839657 -0.290881 0)
(0.0541197 -0.25876 0)
(0.0293794 -0.228102 0)
(0.00903473 -0.199371 0)
(-0.00758476 -0.172956 0)
(-0.0211082 -0.149071 0)
(-0.0321592 -0.127695 0)
(-0.0412522 -0.108658 0)
(-0.0488119 -0.0917125 0)
(-0.0551432 -0.0766374 0)
(-0.0604766 -0.0632608 0)
(-0.0650025 -0.051473 0)
(-0.0688888 -0.0411393 0)
(-0.0721055 -0.0320271 0)
(-0.0747237 -0.0240709 0)
(-0.0769704 -0.0173663 0)
(-0.0788695 -0.0116368 0)
(0.607643 -0.0362739 0)
(0.639617 -0.0773659 0)
(0.657448 -0.126814 0)
(0.664066 -0.170979 0)
(0.663188 -0.213283 0)
(0.656826 -0.253428 0)
(0.645445 -0.291277 0)
(0.628593 -0.326177 0)
(0.605078 -0.356877 0)
(0.573436 -0.381618 0)
(0.532583 -0.398402 0)
(0.482529 -0.405543 0)
(0.424824 -0.402276 0)
(0.362426 -0.389098 0)
(0.299006 -0.367646 0)
(0.238074 -0.340222 0)
(0.182314 -0.309257 0)
(0.133309 -0.276923 0)
(0.0916191 -0.244956 0)
(0.0570383 -0.214634 0)
(0.0289163 -0.186838 0)
(0.00641844 -0.162138 0)
(-0.0113604 -0.140843 0)
(-0.02539 -0.122733 0)
(-0.0365648 -0.107302 0)
(-0.045601 -0.0938918 0)
(-0.0530406 -0.0819625 0)
(-0.0592616 -0.07114 0)
(-0.0644991 -0.0611927 0)
(-0.0688853 -0.0520021 0)
(-0.0725251 -0.0435332 0)
(-0.0755356 -0.0358059 0)
(-0.077987 -0.0287894 0)
(-0.0799835 -0.0224368 0)
(-0.0816222 -0.0168133 0)
(-0.0830254 -0.0118714 0)
(0.651348 -0.0334629 0)
(0.680367 -0.0719226 0)
(0.695297 -0.118271 0)
(0.699832 -0.159614 0)
(0.697103 -0.19927 0)
(0.688772 -0.236571 0)
(0.674946 -0.271247 0)
(0.654718 -0.302361 0)
(0.626451 -0.328416 0)
(0.588423 -0.347495 0)
(0.539706 -0.357691 0)
(0.480975 -0.357762 0)
(0.414808 -0.347692 0)
(0.34518 -0.328801 0)
(0.276439 -0.303361 0)
(0.212308 -0.273994 0)
(0.155317 -0.243176 0)
(0.10671 -0.212978 0)
(0.0666625 -0.184987 0)
(0.0346177 -0.160296 0)
(0.00958457 -0.139499 0)
(-0.00969175 -0.122655 0)
(-0.0246238 -0.109059 0)
(-0.0364442 -0.0977776 0)
(-0.0460693 -0.0879442 0)
(-0.0540931 -0.0789672 0)
(-0.0608654 -0.070496 0)
(-0.0665959 -0.0623655 0)
(-0.0714266 -0.0545384 0)
(-0.0754324 -0.0470383 0)
(-0.0786727 -0.0398879 0)
(-0.0812302 -0.0331647 0)
(-0.0832167 -0.0269393 0)
(-0.0847411 -0.0212328 0)
(-0.0859015 -0.0160918 0)
(-0.086833 -0.0115352 0)
(0.691835 -0.030747 0)
(0.718315 -0.0664747 0)
(0.730631 -0.109652 0)
(0.733175 -0.148042 0)
(0.728551 -0.184814 0)
(0.718035 -0.219041 0)
(0.701354 -0.250298 0)
(0.677147 -0.277419 0)
(0.6434 -0.298746 0)
(0.598313 -0.312362 0)
(0.541376 -0.31665 0)
(0.47418 -0.310975 0)
(0.40042 -0.296095 0)
(0.324976 -0.273999 0)
(0.252622 -0.247335 0)
(0.18706 -0.218795 0)
(0.130528 -0.190738 0)
(0.0838748 -0.165041 0)
(0.0468397 -0.143015 0)
(0.018352 -0.125282 0)
(-0.00320745 -0.111663 0)
(-0.0197173 -0.101167 0)
(-0.0328104 -0.0926014 0)
(-0.0435759 -0.0850488 0)
(-0.0526589 -0.0779481 0)
(-0.0604331 -0.0710071 0)
(-0.0670893 -0.0640983 0)
(-0.0727271 -0.0571858 0)
(-0.0774202 -0.0503117 0)
(-0.0812383 -0.0435623 0)
(-0.0842448 -0.0370118 0)
(-0.0864986 -0.0307583 0)
(-0.0881125 -0.0249092 0)
(-0.0892058 -0.0195459 0)
(-0.0898986 -0.0147338 0)
(-0.0903316 -0.010514 0)
(0.729131 -0.028134 0)
(0.753426 -0.061082 0)
(0.763363 -0.101045 0)
(0.763973 -0.136395 0)
(0.757381 -0.170143 0)
(0.74446 -0.201165 0)
(0.724546 -0.228897 0)
(0.695856 -0.252007 0)
(0.656116 -0.268787 0)
(0.603654 -0.277472 0)
(0.538619 -0.276882 0)
(0.463671 -0.267042 0)
(0.383583 -0.249375 0)
(0.30393 -0.226317 0)
(0.229664 -0.200645 0)
(0.164284 -0.174936 0)
(0.109643 -0.151309 0)
(0.066103 -0.131295 0)
(0.0327701 -0.115644 0)
(0.00779517 -0.104116 0)
(-0.011126 -0.095636 0)
(-0.0260767 -0.0888742 0)
(-0.0384111 -0.0828969 0)
(-0.0489051 -0.0771608 0)
(-0.0579662 -0.0713753 0)
(-0.0658145 -0.0654168 0)
(-0.0725617 -0.0592698 0)
(-0.0782694 -0.052961 0)
(-0.0829707 -0.0465592 0)
(-0.0867118 -0.0401739 0)
(-0.0895448 -0.0339251 0)
(-0.0915291 -0.0279405 0)
(-0.0927745 -0.0223467 0)
(-0.0934168 -0.0172571 0)
(-0.0936055 -0.0127578 0)
(-0.0935011 -0.00890403 0)
(0.763295 -0.0256308 0)
(0.785705 -0.0557961 0)
(0.793455 -0.0925422 0)
(0.792163 -0.124818 0)
(0.783522 -0.155488 0)
(0.767996 -0.183275 0)
(0.744536 -0.207504 0)
(0.711008 -0.226757 0)
(0.665016 -0.239387 0)
(0.605225 -0.243904 0)
(0.532623 -0.239639 0)
(0.45097 -0.22722 0)
(0.365986 -0.208552 0)
(0.283709 -0.186285 0)
(0.209047 -0.163136 0)
(0.145153 -0.141428 0)
(0.0933859 -0.1229 0)
(0.0534401 -0.108519 0)
(0.0235745 -0.0982166 0)
(0.00118643 -0.0909649 0)
(-0.0162734 -0.0854268 0)
(-0.0305904 -0.0806104 0)
(-0.0427703 -0.0759361 0)
(-0.0533539 -0.0711087 0)
(-0.0626219 -0.065991 0)
(-0.0707042 -0.0605385 0)
(-0.0776618 -0.0547782 0)
(-0.0835234 -0.0487726 0)
(-0.0882948 -0.0426174 0)
(-0.0919949 -0.0364392 0)
(-0.0946628 -0.0303833 0)
(-0.0963641 -0.0246003 0)
(-0.097215 -0.0192356 0)
(-0.0973694 -0.0144208 0)
(-0.0970064 -0.0102573 0)