/*--------------------------------*- C++ -*----------------------------------*\
| =========                 |                                                 |
| \\      /  F ield         | OpenFOAM: The Open Source CFD Toolbox           |
|  \\    /   O peration     | Version:  v2012                                 |
|   \\  /    A nd           | Website:  www.openfoam.com                      |
|    \\/     M anipulation  |                                                 |
\*---------------------------------------------------------------------------*/
FoamFile
{
    version     2.0;
    format      ascii;
    class       volScalarField;
    location    "765";
    object      age;
}
// * * * * * * * * * * * * * * * * * * * * * * * * * * * * * * * * * * * * * //

dimensions      [0 0 1 0 0 0 0];


internalField   nonuniform List<scalar> 
6066
(
0.48847
0.463534
0.43854
0.413506
0.388446
0.363368
0.33828
0.313189
0.288096
0.263006
0.23792
0.21284
0.187766
0.1627
0.137642
0.112593
0.0875548
0.0625266
0.037509
0.0125017
0.486913
0.462098
0.437224
0.412311
0.38737
0.36241
0.337436
0.312453
0.287464
0.262471
0.237475
0.212478
0.187481
0.162483
0.137485
0.112488
0.087491
0.0624943
0.0374975
0.0124996
0.486577
0.46178
0.436929
0.412039
0.387123
0.362189
0.337242
0.312285
0.287322
0.262353
0.23738
0.212405
0.187426
0.162444
0.13746
0.112474
0.0874846
0.0624926
0.0374976
0.0124998
0.486526
0.461717
0.436857
0.411965
0.38705
0.36212
0.337179
0.31223
0.287275
0.262315
0.237351
0.212382
0.18741
0.162434
0.137455
0.112472
0.0874842
0.062493
0.0374979
0.0124998
0.486616
0.461771
0.436885
0.411975
0.387049
0.362112
0.337168
0.312218
0.287263
0.262305
0.237343
0.212376
0.187406
0.162432
0.137454
0.112472
0.0874846
0.0624933
0.0374981
0.0124999
0.486807
0.461907
0.436979
0.412039
0.387091
0.36214
0.337186
0.31223
0.287271
0.26231
0.237346
0.212378
0.187408
0.162433
0.137454
0.112472
0.0874847
0.0624934
0.0374981
0.0124999
0.487089
0.462119
0.437132
0.412151
0.387175
0.362203
0.337233
0.312266
0.287298
0.26233
0.23736
0.212388
0.187414
0.162437
0.137456
0.112472
0.0874846
0.0624931
0.037498
0.0124998
0.48753
0.462423
0.437371
0.412334
0.387319
0.362318
0.337326
0.31234
0.287357
0.262376
0.237395
0.212414
0.187431
0.162448
0.137462
0.112475
0.0874851
0.0624928
0.0374976
0.0124998
0.488805
0.462881
0.43785
0.412699
0.387631
0.362579
0.337546
0.312524
0.287509
0.2625
0.237493
0.212489
0.187487
0.162487
0.137487
0.112489
0.0874915
0.0624945
0.0374975
0.0124996
0.487068
0.465474
0.43912
0.414042
0.388756
0.363578
0.338414
0.313275
0.288151
0.26304
0.237941
0.212852
0.187773
0.162704
0.137644
0.112594
0.0875551
0.0625267
0.0375091
0.0125017
0.930137
0.909929
0.889942
0.870145
0.850487
0.830927
0.811427
0.791955
0.77248
0.752976
0.733419
0.713786
0.694061
0.674228
0.654277
0.634201
0.614
0.593675
0.573232
0.552681
0.532034
0.511305
0.924775
0.904851
0.885133
0.865594
0.846182
0.82686
0.807589
0.788336
0.769067
0.749756
0.730377
0.710911
0.69134
0.671651
0.651834
0.631884
0.6118
0.591587
0.571252
0.550806
0.530262
0.509636
0.922866
0.903131
0.883581
0.864188
0.844906
0.825699
0.80653
0.787367
0.768182
0.748948
0.729642
0.710241
0.69073
0.671093
0.651322
0.631411
0.611359
0.591172
0.570857
0.550427
0.529897
0.509284
0.921912
0.90226
0.882792
0.863479
0.844277
0.825149
0.806058
0.786972
0.767859
0.748692
0.729447
0.710101
0.690636
0.671039
0.651298
0.631409
0.61137
0.591185
0.570865
0.550424
0.529879
0.509249
0.921326
0.901731
0.882321
0.863069
0.843931
0.82487
0.80585
0.786838
0.767804
0.748719
0.729552
0.710275
0.690865
0.671304
0.651583
0.6317
0.611656
0.591453
0.571106
0.550629
0.530046
0.509378
0.920211
0.900587
0.881158
0.8619
0.842768
0.823726
0.80474
0.785784
0.766859
0.747932
0.728969
0.709936
0.690793
0.67149
0.651964
0.632162
0.612134
0.591929
0.571543
0.551011
0.530362
0.50963
0.918955
0.899544
0.880316
0.861214
0.842184
0.823184
0.80418
0.785144
0.766055
0.7469
0.727672
0.708406
0.68915
0.670016
0.651094
0.632032
0.61213
0.592131
0.571887
0.551438
0.530805
0.510021
0.933578
0.916314
0.898786
0.881006
0.862942
0.844514
0.825671
0.806394
0.786768
0.766883
0.746704
0.726154
0.704907
0.681744
0.655342
0.63289
0.612934
0.592355
0.571914
0.551431
0.530996
0.510574
1.8739
2.05185
2.22656
2.38423
2.51261
2.60149
2.64373
2.63278
2.52141
2.29414
1.98754
1.6407
1.29536
0.992553
0.769226
0.657141
0.634127
0.61106
0.588131
0.565114
0.540092
0.509356
14.5135
17.0062
19.2403
21.0939
22.4861
23.3673
23.7212
23.5564
22.9203
21.8942
20.5029
18.7877
16.797
14.591
12.2413
9.83628
7.54499
5.40599
3.54833
2.06125
1.03228
0.526714
8.82401
9.23467
10.1582
7.1622
1.88809
1.59507
1.46019
1.37169
1.30477
1.24951
1.20167
1.15892
1.11984
1.08352
1.04931
1.01675
0.985475
0.9552
7.98032
9.51091
8.75489
3.6674
1.70105
1.53442
1.42508
1.34863
1.28734
1.23545
1.18979
1.14857
1.11064
1.07524
1.0418
1.0099
0.979208
0.94945
7.60227
8.50709
5.20442
2.05807
1.61177
1.49029
1.39982
1.33201
1.2752
1.2261
1.18232
1.14247
1.10559
1.07102
1.03825
1.0069
0.976658
0.947273
6.81534
6.18409
3.02943
1.7385
1.56581
1.46373
1.38491
1.32219
1.26837
1.22113
1.17857
1.13955
1.10326
1.06911
1.03664
1.00552
0.97545
0.94621
5.72339
4.20306
2.08763
1.65949
1.53995
1.44829
1.37642
1.31674
1.2648
1.21863
1.1767
1.13807
1.10204
1.06806
1.03573
1.0047
0.974721
0.945559
4.88191
3.03762
1.8288
1.62688
1.52462
1.4392
1.3712
1.31306
1.26202
1.21639
1.17496
1.13676
1.10104
1.06722
1.0349
1.0038
0.973739
0.944496
4.29632
2.44131
1.75428
1.61156
1.51485
1.43356
1.36789
1.31144
1.26228
1.2184
1.17795
1.13956
1.10263
1.06722
1.0336
1.00204
0.971923
0.942926
3.86041
2.13955
1.72352
1.60348
1.5085
1.43058
1.36719
1.31234
1.26261
1.21448
1.16671
1.12099
1.08051
1.04731
1.02527
1.00202
0.97909
0.956172
3.5313
2.00851
1.70809
1.59892
1.50502
1.43002
1.36735
1.30981
1.25377
1.20115
1.16091
1.14303
1.13541
1.1571
1.21205
1.30825
1.45366
1.6502
3.29892
1.94737
1.70141
1.59662
1.50391
1.43025
1.36502
1.30272
1.24847
1.21955
1.22987
1.32424
1.56953
2.07936
3.067
4.8448
7.67837
11.2955
42.7724
46.2867
49.0513
51.0341
52.2838
52.8569
52.8407
52.3771
51.5604
50.4333
49.0568
47.4916
45.8043
44.0738
42.4431
40.9997
39.7913
38.8349
38.1111
37.5237
36.8107
35.3627
67.665
70.3205
72.2295
73.4198
73.9741
73.931
73.2763
71.9753
70.0998
67.7112
64.8898
61.7266
58.3232
54.7912
51.2533
47.8482
44.73
42.0757
40.07
38.8451
38.3695
38.205
94.6813
97.9584
100.391
101.891
102.454
102.084
100.833
98.7452
95.8644
92.2476
87.9614
83.0834
77.7025
71.9231
65.8712
59.7071
53.6519
48.0233
43.2555
39.8525
38.2262
37.8207
123.86
127.511
130.092
131.535
131.873
131.124
129.315
126.48
122.661
117.913
112.297
105.883
98.7507
90.9859
82.6904
73.9986
65.1244
56.4311
48.5111
42.2343
38.668
37.757
153.67
157.615
160.34
161.759
161.891
160.742
158.334
154.7
149.885
143.943
136.942
128.957
120.072
110.378
99.9661
88.9436
77.4907
65.9473
54.9491
45.5887
39.4775
37.6967
183.747
188.032
190.923
192.311
192.209
190.619
187.563
183.074
177.196
169.989
161.525
151.891
141.188
129.525
117.011
103.755
89.9158
75.7816
61.9439
49.5883
40.7113
37.6472
213.931
218.562
221.607
222.938
222.568
220.496
216.745
211.348
204.354
195.827
185.847
174.51
161.93
148.241
133.582
118.101
101.971
85.4424
69.0152
53.8337
42.2126
37.6045
244.055
249.035
252.227
253.481
252.804
250.198
245.688
239.315
231.141
221.24
209.702
196.632
182.155
166.419
149.596
131.881
113.496
94.6932
75.9021
58.1462
43.8633
37.5666
274.087
279.452
282.804
283.963
282.934
279.72
274.356
266.905
257.449
246.088
232.93
218.096
201.717
183.949
164.98
145.051
124.437
103.435
82.4459
62.3581
45.5867
37.5321
304.144
309.963
313.506
314.557
313.114
309.189
302.84
294.161
283.277
270.325
255.449
238.792
220.498
200.724
179.661
157.57
134.777
111.643
88.5839
66.3793
47.3237
37.5001
334.43
340.796
344.571
345.493
343.558
338.789
331.282
321.185
308.681
293.966
277.236
258.67
238.428
216.669
193.573
169.399
144.504
119.314
94.2948
70.1603
49.0338
37.4702
365.161
372.188
376.243
377.007
374.475
368.698
359.826
348.081
333.728
317.046
298.298
277.711
255.472
231.737
206.667
180.504
153.609
126.455
99.5795
73.6775
50.6888
37.4419
396.528
404.343
408.727
409.294
406.04
399.057
388.574
374.915
358.457
339.582
318.637
295.909
271.611
245.902
218.917
190.864
162.084
133.077
104.448
76.9222
52.2694
37.4149
428.664
437.413
442.18
442.496
438.369
429.948
417.574
401.707
382.866
361.561
338.238
313.248
286.836
259.154
230.31
200.467
169.927
139.187
108.914
79.8947
53.7624
37.3889
461.638
471.482
476.69
476.69
471.507
461.382
446.802
428.409
406.899
382.93
357.058
329.701
301.13
271.485
240.842
209.312
177.139
144.796
112.993
82.6008
55.1591
37.3638
495.437
506.558
512.269
511.872
505.425
493.291
476.163
454.912
430.447
403.595
375.027
345.223
314.468
282.887
250.517
217.407
183.73
149.916
116.7
85.0496
56.4538
37.3394
529.953
542.559
548.844
547.959
540.005
525.524
505.48
481.035
453.346
423.424
392.048
359.75
326.819
293.354
259.343
224.764
189.712
154.56
120.052
87.2525
57.6438
37.3156
564.97
579.298
586.244
584.764
575.028
557.828
534.489
506.529
475.386
442.252
408.005
373.209
338.147
302.879
267.33
231.398
195.099
158.743
123.065
89.2221
58.7281
37.2924
600.138
616.458
624.168
621.977
610.154
589.839
562.831
531.076
496.309
459.888
422.767
385.524
348.419
311.458
274.491
237.33
199.91
162.479
125.754
90.9705
59.707
37.2696
634.939
653.552
662.152
659.126
644.883
621.055
590.049
554.294
515.822
476.124
436.199
396.622
357.606
319.09
280.838
242.577
204.164
165.785
128.133
92.5095
60.5816
37.2471
668.64
689.865
699.501
695.517
678.515
650.814
615.576
575.74
533.602
490.745
448.177
406.438
365.682
325.771
286.382
247.157
207.879
168.676
130.215
93.85
61.3535
37.225
700.234
724.364
735.195
730.153
710.109
678.288
638.757
594.934
549.325
503.548
458.582
414.91
372.621
331.497
291.135
251.088
211.072
171.165
132.011
95.0017
62.0247
37.2032
728.35
755.567
767.735
761.622
738.455
702.506
658.877
611.386
562.671
514.338
467.304
421.985
378.401
336.268
295.102
254.383
213.759
173.266
133.531
95.9732
62.5969
37.1816
751.337
781.552
795.103
788.067
762.108
722.415
675.214
624.623
573.345
522.936
474.242
427.612
383.006
340.081
298.293
257.053
215.952
174.99
134.782
96.7718
63.0719
37.1602
767.535
800.248
815.093
807.384
779.52
736.976
687.099
634.231
581.093
529.194
479.315
431.751
386.419
342.936
300.713
259.108
217.66
176.345
135.772
97.4033
63.4513
37.139
775.703
810.275
825.533
817.636
789.279
745.286
693.979
639.878
585.722
533
482.461
434.374
388.632
344.835
302.368
260.555
218.892
177.338
136.506
97.8724
63.7361
37.1178
774.998
810.222
825.144
818.809
790.448
746.742
695.497
641.355
587.112
534.284
483.643
435.462
389.641
345.78
303.264
261.398
219.653
177.975
136.986
98.1826
63.9276
37.0967
765.564
800.119
816.329
810.014
782.816
741.198
691.553
638.603
585.227
533.032
482.854
435.015
389.447
345.776
303.404
261.641
219.945
178.257
137.215
98.3357
64.0265
37.0755
748.448
781.197
796.847
791.775
767.49
729.105
682.356
631.729
580.13
529.278
480.117
433.047
388.061
344.83
302.795
261.289
219.772
178.187
137.194
98.3326
64.0333
37.0542
725.185
755.377
770.117
766.553
745.628
711.308
668.414
621.016
571.976
523.112
475.483
429.588
385.498
342.95
301.442
260.343
219.133
177.765
136.922
98.1728
63.9542
37.0304
697.345
724.683
738.424
736.304
718.831
688.918
650.415
606.871
561.003
514.672
469.032
424.683
381.782
340.149
299.347
258.803
218.028
176.989
136.398
97.8558
63.8015
36.9886
666.341
690.891
703.637
702.81
688.608
663.062
629.131
589.79
547.516
504.14
460.87
418.389
376.944
336.438
296.515
256.668
216.451
175.855
135.621
97.3804
63.5716
36.9286
633.362
655.381
667.217
667.502
656.234
634.777
605.329
570.298
531.856
491.726
451.119
410.775
371.017
331.832
292.948
253.934
214.398
174.358
134.586
96.7441
63.2642
36.8503
599.325
619.124
630.173
631.398
622.686
604.925
579.704
548.909
514.375
477.655
439.916
401.915
364.037
326.345
288.649
250.597
211.861
172.49
133.288
95.944
62.8775
36.7533
564.907
582.781
593.159
595.182
588.668
574.183
552.845
526.089
495.408
462.153
427.398
391.889
356.044
319.992
283.618
246.65
208.829
170.242
131.721
94.9761
62.4099
36.637
530.588
546.796
556.6
559.303
554.675
543.06
525.228
502.235
475.259
445.43
413.7
380.771
347.075
312.785
277.853
242.086
205.294
167.605
129.877
93.8361
61.859
36.5009
496.692
511.459
520.767
524.043
521.034
511.921
497.217
477.673
454.189
427.675
398.945
368.634
337.163
304.733
271.351
236.895
201.243
164.569
127.748
92.5189
61.2224
36.3441
463.415
476.942
485.818
489.576
487.955
481.016
469.076
452.654
432.407
409.047
383.242
355.542
326.339
295.845
264.108
231.065
196.665
161.122
125.326
91.0191
60.4972
36.166
430.841
443.311
451.816
455.978
455.545
450.487
440.977
427.351
410.072
389.672
366.677
341.547
314.627
286.125
256.114
224.584
191.544
157.252
122.603
89.3314
59.6807
35.9656
398.959
410.542
418.736
423.242
423.824
420.39
413.007
401.87
387.288
369.638
349.317
326.69
302.046
275.573
247.36
217.436
185.865
152.946
119.57
87.4512
58.77
35.7419
367.669
378.525
386.475
391.281
392.735
390.705
385.18
376.252
364.108
348.999
331.204
310.997
288.604
264.185
237.833
209.607
179.615
148.192
116.22
85.3744
57.7626
35.4937
336.791
347.076
354.853
359.94
362.153
361.342
357.444
350.479
340.539
327.77
312.354
294.475
274.299
251.951
227.519
201.079
172.778
142.979
112.544
83.0959
56.6554
35.2197
306.083
315.944
323.627
328.995
331.886
332.148
329.689
324.479
316.539
305.932
292.755
277.116
259.12
238.856
216.398
191.836
165.341
137.296
108.535
80.611
55.4453
34.9183
275.252
284.829
292.503
298.172
301.69
302.919
301.756
298.137
292.029
283.432
272.372
258.893
243.045
224.879
204.455
181.862
157.292
131.135
104.187
77.9162
54.1296
34.5878
243.993
253.405
261.151
267.151
271.278
273.412
273.449
271.301
266.897
260.19
251.151
239.769
226.046
210.001
191.672
171.149
148.626
124.492
99.4983
75.0099
52.7062
34.2267
212.036
221.369
229.253
235.619
240.362
243.377
244.558
243.803
241.016
236.113
229.025
219.698
208.095
194.204
178.044
159.694
139.345
117.371
94.4703
71.8925
51.1741
33.8338
179.246
188.524
196.573
203.331
208.705
212.594
214.89
215.483
214.26
211.11
205.934
198.647
189.18
177.491
163.581
147.516
129.469
109.788
89.113
68.5689
49.5342
33.408
145.783
154.925
163.094
170.219
176.205
180.949
184.337
186.247
186.557
185.137
181.862
176.622
169.322
159.897
148.327
134.655
119.033
101.773
83.4477
65.0478
47.7858
32.9472
112.32
121.096
129.209
136.566
143.062
148.581
152.997
156.177
157.979
158.265
156.887
153.709
148.615
141.516
132.367
121.189
108.101
93.3744
77.5048
61.3416
45.9295
32.4486
80.2469
88.2514
95.9532
103.241
109.993
116.08
121.359
125.677
128.875
130.789
131.263
130.136
127.261
122.524
115.855
107.243
96.7726
84.6629
71.3276
57.4686
43.9676
31.9093
51.6613
58.3599
65.1268
71.8504
78.4087
84.6629
90.458
95.6247
99.9825
103.345
105.522
106.337
105.622
103.223
99.033
93.009
85.1904
75.7377
64.9737
53.4525
41.9035
31.3252
28.9636
33.8761
39.1452
44.6965
50.438
56.251
61.9904
67.4865
72.5484
76.9708
80.5397
83.0411
84.273
84.0659
82.259
78.7587
73.5513
66.7285
58.5149
49.3217
39.7414
30.6897
13.4338
16.4709
19.9792
23.9416
28.325
33.0671
38.0713
43.2055
48.3025
53.165
57.5724
61.2898
64.0816
65.7226
66.0316
64.8553
62.106
57.7916
52.0336
45.1085
37.4861
29.9914
4.7149
5.92575
7.65026
9.95086
12.7813
16.1274
19.9517
24.1744
28.6808
33.3179
37.8961
42.1937
45.9673
48.9667
50.9542
51.7285
51.1377
49.0962
45.6175
40.8484
35.1435
29.2169
2.88842
2.9233
3.0549
3.47136
4.28934
5.64744
7.69928
10.5327
13.9675
17.8695
22.067
26.3611
30.5247
34.3096
37.4578
39.7224
40.8876
40.7944
39.3531
36.5851
32.7279
28.3699
2.83315
2.85092
2.87741
2.91248
2.94424
2.97774
3.1365
3.76638
5.04789
7.16875
10.2291
13.8942
17.8833
21.9162
25.7122
28.9936
31.4977
32.9958
33.3171
32.3723
30.2776
27.5132
2.90126
2.8963
2.89715
2.90559
2.91617
2.93098
2.95964
3.00594
3.05044
3.22183
4.02651
5.70715
8.47933
11.9959
15.8339
19.625
23.0353
25.7666
27.5673
28.2599
27.8474
26.7366
3.17077
3.12175
3.06991
3.0244
2.99224
2.97362
2.97053
2.97718
2.99413
3.02898
3.0957
3.15517
3.82282
5.46875
8.33665
11.8956
15.6608
19.2086
22.1803
24.2968
25.4596
25.9332
3.58143
3.49822
3.40387
3.30824
3.2197
3.14198
3.07858
3.03847
3.0201
3.02307
3.03815
3.06242
3.14653
3.24895
4.17807
6.33372
9.62967
13.426
17.1864
20.4801
23.0879
25.1167
4.56784
4.30959
4.0593
3.83458
3.6384
3.46801
3.32239
3.20919
3.13108
3.08361
3.06193
3.06492
3.07972
3.1229
3.20902
3.77116
5.6032
8.824
12.7948
16.8987
20.7375
24.268
3.1375
1.91462
1.69995
1.59624
1.50444
1.42939
1.35885
1.29589
1.2647
1.31608
1.54787
2.18799
3.91421
7.80968
13.9185
21.6504
29.8878
37.4071
3.02639
1.89678
1.70167
1.59751
1.5049
1.42438
1.34853
1.30139
1.34102
1.60616
2.75105
6.36581
13.5322
23.8538
35.298
46.4094
55.8236
63.1015
2.9497
1.88796
1.70547
1.59968
1.50382
1.4172
1.34704
1.32811
1.43493
2.86497
7.63417
17.2691
30.6775
45.6353
59.6945
71.7616
81.5667
89.4136
2.89502
1.88476
1.71065
1.60193
1.5006
1.40997
1.35886
1.42438
2.24562
7.09724
17.6726
33.4595
51.5347
69.0312
84.4279
97.5723
108.659
117.775
2.85502
1.88529
1.71669
1.60368
1.49621
1.40889
1.38364
1.49826
4.84586
15.0241
31.6954
52.4257
73.4507
92.6174
109.496
124.231
136.779
146.978
2.8255
1.88844
1.72315
1.6045
1.492
1.41744
1.45679
2.47033
10.1124
25.9913
48.0215
72.2898
95.379
116.236
134.895
151.291
165.181
176.406
2.80388
1.8935
1.72989
1.60539
1.49127
1.4383
1.51329
4.76122
17.6482
38.9533
65.2639
92.1141
117.063
139.802
160.312
178.321
193.564
205.893
2.78845
1.89998
1.73642
1.60445
1.49723
1.4777
1.77805
8.61533
26.8421
52.9232
82.5649
111.54
138.407
163.12
185.473
205.124
221.803
235.3
2.77798
1.90751
1.74274
1.6054
1.51068
1.52225
2.71708
13.995
37.0413
67.1695
99.4829
130.434
159.296
186.006
210.226
231.603
249.811
264.553
2.77156
1.91585
1.74933
1.60974
1.52687
1.55639
4.384
20.3221
47.7004
81.2222
115.809
148.711
179.608
208.328
234.486
257.704
277.573
293.71
2.76847
1.92488
1.75643
1.61694
1.54802
1.58876
6.75971
27.1976
58.4104
94.8032
131.44
166.297
199.237
230.004
258.203
283.418
305.155
322.919
2.76817
1.93456
1.76446
1.62648
1.56768
1.62007
9.75357
34.3084
68.8848
107.754
146.31
183.116
218.103
250.975
281.353
308.782
332.669
352.359
2.77022
1.94486
1.77285
1.63673
1.59882
1.9073
13.3211
41.4044
78.9319
119.982
160.369
199.102
236.139
271.195
303.927
333.842
360.221
382.185
2.7743
1.95568
1.78154
1.65156
1.62825
2.42425
17.0991
48.3038
88.4262
131.429
173.573
214.198
253.29
290.626
325.915
358.625
387.875
412.5
2.78014
1.96703
1.79111
1.66838
1.65293
3.12756
20.8967
54.8767
97.2854
142.058
185.881
228.351
269.505
309.222
347.283
383.114
415.635
443.342
2.78754
1.97894
1.80186
1.68493
1.67605
3.96821
24.5916
61.03
105.456
151.84
197.259
241.515
284.731
326.924
367.962
407.23
443.429
474.663
2.79633
1.99145
1.81374
1.70175
1.69847
4.89537
28.0945
66.6973
112.901
160.752
207.673
253.646
298.909
343.648
387.837
430.828
471.1
506.325
2.80639
2.00457
1.82662
1.71888
1.72039
5.85943
31.338
71.8312
119.596
168.775
217.095
264.699
311.971
359.287
406.747
453.694
498.397
538.079
2.8176
2.01827
1.84037
1.73627
1.74191
6.81404
34.2707
76.3982
125.526
175.895
225.498
274.63
323.841
373.71
424.487
475.54
524.97
569.553
2.8299
2.03258
1.85488
1.75385
1.76309
7.71728
36.8536
80.3742
130.676
182.099
232.859
283.396
334.434
386.768
440.815
496.014
550.362
600.227
2.84323
2.04746
1.87007
1.77161
1.78397
8.53237
39.0573
83.7412
135.039
187.376
239.156
290.95
343.662
398.297
455.458
514.702
574.004
629.408
2.85754
2.06292
1.88587
1.78949
1.80458
9.2281
40.8598
86.4862
138.607
191.716
244.367
297.251
351.436
408.131
468.128
531.143
595.224
656.212
2.8728
2.07896
1.90226
1.8075
1.82496
9.77896
42.2456
88.6001
141.375
195.112
248.477
302.258
357.671
416.103
478.525
544.838
613.241
679.525
2.88905
2.09558
1.9192
1.82561
1.84512
10.1657
43.2033
90.076
143.34
197.558
251.469
305.935
362.289
422.06
486.376
555.314
627.267
698.119
2.90625
2.11277
1.93668
1.84395
1.8651
10.3726
43.7277
90.9094
144.497
199.047
253.331
308.255
365.232
425.894
491.479
562.209
636.663
710.888
2.92418
2.13068
1.95469
1.86261
1.88481
10.4026
43.8072
91.0931
144.841
199.578
254.057
309.204
366.468
427.537
493.712
565.295
640.995
717.024
2.94217
2.15014
1.97308
1.88153
1.90411
10.282
43.4262
90.623
144.359
199.138
253.642
308.775
365.99
426.976
493.043
564.511
640.122
716.136
2.96023
2.17135
1.99182
1.90071
1.92302
10.0216
42.5856
89.4971
143.042
197.72
252.083
306.973
363.81
424.24
489.525
559.943
634.181
708.396
2.97837
2.19433
2.01094
1.92016
1.94161
9.63424
41.2946
87.714
140.889
195.319
249.382
303.811
359.965
419.397
483.284
551.809
623.55
694.469
2.99664
2.21914
2.0305
1.9399
1.95992
9.13681
39.5696
85.2727
137.894
191.927
245.539
299.306
354.495
412.537
474.486
540.404
608.753
675.307
3.01506
2.24589
2.05055
1.95996
1.97804
8.55067
37.4361
82.1755
134.054
187.536
240.553
293.477
347.453
403.766
463.324
526.066
590.371
651.929
3.03368
2.2747
2.07115
1.98036
1.99595
7.90061
34.9306
78.43
129.367
182.139
234.425
286.349
338.903
393.213
450.033
509.189
569.042
625.353
3.05252
2.30571
2.0924
2.00114
2.0137
7.21329
32.1022
74.0528
123.836
175.729
227.153
277.946
328.916
381.024
434.875
490.203
545.429
596.54
3.07164
2.33914
2.11441
2.02232
2.03136
6.51562
29.0138
69.0727
117.465
168.302
218.737
268.292
317.566
367.349
418.111
469.528
520.144
566.305
3.09108
2.375
2.1372
2.04404
2.04901
5.83303
25.7431
63.5368
110.27
159.859
209.175
257.41
304.919
352.326
399.984
447.543
493.716
535.294
3.11088
2.41436
2.1614
2.06647
2.06677
5.18796
22.3806
57.5154
102.279
150.404
198.467
245.312
291.032
336.077
380.704
424.567
466.572
503.991
3.13112
2.4567
2.18749
2.08961
2.08475
4.5985
19.0276
51.1085
93.5405
139.954
186.613
232.009
275.947
318.699
360.44
400.85
439.034
472.738
3.15185
2.50194
2.21594
2.11352
2.10306
4.0776
15.7908
44.4487
84.137
128.544
173.624
217.504
259.688
300.258
339.309
376.565
411.318
441.756
3.17317
2.55014
2.24726
2.13833
2.12183
3.63271
12.7755
37.7061
74.1942
116.237
159.52
201.8
242.262
280.783
317.377
351.809
383.542
411.151
3.19515
2.60139
2.28204
2.16438
2.1412
3.26607
10.0748
31.0688
63.8978
103.147
144.352
184.907
223.664
260.276
294.657
326.606
355.731
380.931
3.21792
2.65579
2.32096
2.19148
2.16099
2.97493
7.79421
24.6742
53.4693
89.4525
128.218
166.858
203.887
238.708
271.115
300.914
327.826
351.015
3.24159
2.71341
2.36476
2.22046
2.1809
2.75216
6.0432
18.8187
43.2005
75.4122
111.291
147.736
182.941
216.042
246.68
274.634
299.699
321.244
3.26633
2.77431
2.41427
2.25297
2.20078
2.58932
4.76981
13.7866
33.4692
61.3853
93.8494
127.709
160.891
192.257
221.267
247.629
271.168
291.398
3.29232
2.8385
2.47029
2.29174
2.22138
2.47761
3.87843
9.76026
24.6974
47.8466
76.3089
107.076
137.901
167.396
194.814
219.755
242.022
261.214
3.31979
2.90594
2.5336
2.33777
2.24065
2.40603
3.27731
6.78269
17.2927
35.3916
59.2634
86.3224
114.306
141.635
167.354
190.92
212.069
230.428
3.34902
2.97651
2.60496
2.39191
2.27316
2.36521
2.88536
4.78621
11.4164
24.5733
43.4553
66.1743
90.6964
115.379
139.104
161.173
181.215
198.838
3.38042
3.05012
2.68506
2.45562
2.31738
2.35401
2.63856
3.63816
7.27517
15.8958
29.6813
47.5646
67.9659
89.3708
110.6
130.836
149.59
166.416
3.41407
3.12631
2.77436
2.53069
2.37374
2.3661
2.50398
3.01383
4.73244
9.65482
18.6703
31.5362
47.2912
64.7479
82.8252
100.675
117.726
133.478
3.45185
3.20548
2.87318
2.61894
2.44491
2.38672
2.44741
2.69086
3.3921
5.71632
10.8061
18.9911
29.9489
42.9691
57.239
72.0193
86.7403
100.9
3.49081
3.28598
2.98126
2.72207
2.5331
2.4343
2.446
2.54006
2.81077
3.67126
6.00205
10.3824
16.9589
25.5042
35.5809
46.6922
58.389
70.2631
3.53946
3.36952
3.09785
2.84121
2.64053
2.51048
2.46992
2.49652
2.59266
2.83086
3.602
5.43521
8.64714
13.3272
19.3859
26.6271
34.8163
43.7411
3.59805
3.45759
3.22202
2.97653
2.76922
2.61652
2.53315
2.51439
2.53752
2.59963
2.74046
3.19183
4.24807
6.2207
9.13887
13.0138
17.8083
23.5287
3.66933
3.55199
3.35277
3.12695
2.9203
2.75345
2.63844
2.57739
2.56101
2.56892
2.6032
2.69258
2.7813
3.13808
3.92099
5.28285
7.39819
10.3491
3.76088
3.65597
3.48952
3.2902
3.09334
2.92161
2.78683
2.69394
2.64078
2.61619
2.6158
2.6303
2.6632
2.72534
2.79295
2.85092
3.12444
3.80973
3.89521
3.77882
3.63261
3.46238
3.28524
3.11988
2.97822
2.86626
2.78545
2.73303
2.69943
2.68309
2.68584
2.69787
2.72336
2.75251
2.79924
2.85314
4.11148
3.94345
3.79208
3.64259
3.48973
3.34156
3.20692
3.09138
2.99725
2.92514
2.8711
2.83284
2.80493
2.78862
2.78282
2.78738
2.80048
2.81453
4.7689
4.20034
3.97439
3.83617
3.7129
3.59094
3.47456
3.36899
3.27687
3.19918
3.13518
3.0836
3.04149
3.00739
2.97895
2.95392
2.93092
2.91268
13.4338
6.96591
4.5247
4.00299
3.89162
3.81882
3.74863
3.67902
3.61299
3.55265
3.49888
3.45168
3.41023
3.3732
3.33866
3.30419
3.26582
3.22004
13.8404
10.191
6.5586
4.86813
4.23053
4.07609
4.01312
3.96884
3.93087
3.89662
3.86547
3.83706
3.81115
3.78713
3.76293
3.73701
3.70144
3.65211
12.3544
10.6652
8.613
7.24078
6.29212
5.74398
5.42928
5.23728
5.12744
5.06268
5.02033
4.98984
4.96544
4.94416
4.92293
4.89877
4.86131
4.81354
32.6839
23.1858
14.7192
8.88242
5.95537
4.61916
3.93861
3.54024
3.30727
3.18278
3.12059
3.09324
3.08568
3.09655
3.13007
3.20617
3.77124
5.85207
9.45677
13.9221
18.6578
23.399
69.6195
60.236
46.5449
30.7502
18.1589
10.0019
6.185
4.58647
3.81521
3.40629
3.21463
3.13791
3.11066
3.10703
3.12085
3.1488
3.26927
4.28041
7.17432
11.5863
16.8968
22.6206
72.0365
72.3879
72.7392
65.6809
50.3352
31.7564
17.2458
8.68808
5.19774
3.99094
3.46904
3.22539
3.1433
3.12342
3.12888
3.14497
3.19565
3.53364
5.44349
9.53539
15.2236
21.8856
72.1751
72.6888
73.0043
73.1358
72.0908
62.9645
45.8921
27.5183
14.0298
6.83981
4.35501
3.57822
3.26873
3.16493
3.14418
3.15345
3.18363
3.31796
4.29267
7.64733
13.4729
21.062
82.8925
83.9541
84.5167
83.6525
82.2142
79.9153
72.4543
56.3641
36.3592
18.9232
8.66536
4.45649
3.42696
3.22244
3.16937
3.16675
3.18638
3.25788
3.67921
6.04711
11.7305
20.2177
105.241
104.649
103.324
100.522
96.2821
91.8323
87.2379
78.5562
61.8189
39.8742
20.8412
9.01298
4.18928
3.33136
3.2088
3.18233
3.1946
3.24052
3.46557
4.9712
10.2145
19.4191
134.562
131.744
127.911
122.613
115.72
107.788
100.219
92.989
81.9232
62.56
38.9155
19.2231
7.56714
3.52022
3.25892
3.20659
3.20564
3.23833
3.38308
4.3339
8.9233
18.6769
166.798
161.885
155.696
147.966
138.631
127.847
116.49
106.144
96.2595
81.5083
58.5521
33.6261
14.8706
5.20324
3.34207
3.23683
3.2186
3.24224
3.3455
3.99938
7.8854
18.0015
199.175
192.55
184.433
174.66
163.193
150.119
135.78
121.488
108.893
95.9249
76.1915
49.6794
25.1818
9.04087
3.47943
3.27331
3.23744
3.25162
3.32813
3.81391
7.07372
17.3903
230.453
222.412
212.729
201.292
188.051
173.073
156.506
139.012
122.515
107.979
90.6129
65.1525
37.0718
15.2709
4.61836
3.321
3.25895
3.26254
3.32244
3.70266
6.44998
16.8286
260.394
251.057
239.982
227.101
212.352
195.758
177.416
157.577
137.575
119.736
102.468
78.8336
49.2203
22.8788
6.86819
3.36586
3.28203
3.27279
3.32328
3.63289
5.99808
16.3275
289.227
278.564
266.104
251.829
235.687
217.654
197.786
176.166
153.468
132.049
112.968
90.4952
60.7104
31.0593
10.157
3.40436
3.30515
3.28671
3.32818
3.58818
5.67031
15.8913
317.312
305.195
291.244
275.502
257.945
238.533
217.265
194.16
169.443
144.888
123
100.49
71.0864
39.2006
14.3569
3.83677
3.3351
3.30285
3.33598
3.55962
5.42797
15.5169
344.999
331.236
315.619
298.258
279.178
258.346
235.714
211.256
184.955
157.88
132.951
109.325
80.2536
46.9321
18.9061
4.6468
3.35993
3.31957
3.34595
3.54208
5.24554
15.1984
372.587
356.936
339.429
320.255
299.494
277.138
253.112
227.344
199.693
170.635
142.862
117.412
88.3158
54.0637
23.4577
5.75247
3.38332
3.33638
3.35741
3.53231
5.1065
14.9293
400.318
382.493
362.84
341.631
319.005
294.988
269.498
242.412
213.52
182.87
152.617
125.002
95.4465
60.5269
27.8235
7.06567
3.40615
3.35311
3.36986
3.52815
4.99966
14.7028
428.371
408.054
385.971
362.487
337.803
311.979
284.932
256.493
226.403
194.415
162.067
132.212
101.82
66.3337
31.9093
8.50807
3.42857
3.3697
3.38302
3.52811
4.9172
14.5129
456.861
433.712
408.898
382.892
355.956
328.178
299.478
269.642
238.362
205.196
171.088
139.079
107.582
71.5359
35.6751
10.014
3.45061
3.38616
3.39606
3.53121
4.85351
14.3539
485.833
459.505
431.657
402.883
373.506
343.639
313.195
281.917
249.441
215.192
179.599
145.601
112.837
76.1957
39.1101
11.5307
3.47226
3.40242
3.4092
3.53667
4.80442
14.2211
515.259
485.416
454.243
422.466
390.475
358.399
326.134
293.375
259.695
224.423
187.555
151.764
117.659
80.3728
42.2185
13.0145
3.49326
3.41871
3.42255
3.54389
4.76674
14.1101
545.039
511.375
476.613
441.623
406.865
372.477
338.33
304.061
269.175
232.92
194.938
157.55
122.094
84.1204
45.0139
14.4434
3.54289
3.43648
3.43605
3.55246
4.73806
14.0173
575.01
537.262
498.689
460.311
422.66
385.881
349.805
314.01
277.923
240.719
201.751
162.949
126.178
87.4862
47.5177
15.7683
3.61849
3.45441
3.44973
3.56206
4.71654
13.9399
604.954
562.919
520.364
478.467
437.832
398.605
360.575
323.251
285.978
247.858
208.006
167.957
129.935
90.5119
49.7547
16.9699
3.70988
3.47136
3.46359
3.57248
4.70083
13.8754
634.616
588.156
541.509
496.012
452.338
410.637
370.651
331.813
293.379
254.378
213.726
172.577
133.385
93.2331
51.7493
18.0487
3.80947
3.48748
3.47758
3.58356
4.68987
13.8219
663.713
612.763
561.979
512.853
466.13
421.963
380.041
339.72
300.162
260.318
218.937
176.818
136.545
95.6796
53.5236
19.0108
3.9117
3.50315
3.49166
3.59517
4.68281
13.7777
691.945
636.515
581.618
528.893
479.158
432.566
388.754
346.996
306.36
265.716
223.668
180.693
139.43
97.8758
55.0969
19.8632
4.01254
3.51858
3.50579
3.60721
4.67899
13.7415
719.016
659.191
600.273
544.04
491.375
442.432
396.8
353.666
312.005
270.608
227.951
184.218
142.055
99.8429
56.4865
20.6132
4.1092
3.53387
3.51996
3.6196
4.67788
13.7121
744.637
680.581
617.804
558.209
502.74
451.553
404.187
359.752
317.129
275.029
231.816
187.412
144.433
101.599
57.7078
21.2683
4.19975
3.54906
3.53415
3.6323
4.67907
13.6887
768.542
700.497
634.086
571.328
513.22
459.922
410.928
365.277
321.76
279.01
235.292
190.295
146.579
103.161
58.7744
21.8351
4.28289
3.56417
3.54836
3.64523
4.68222
13.6703
790.51