/*--------------------------------*- C++ -*----------------------------------*\
| =========                 |                                                 |
| \\      /  F ield         | OpenFOAM: The Open Source CFD Toolbox           |
|  \\    /   O peration     | Version:  v2012                                 |
|   \\  /    A nd           | Website:  www.openfoam.com                      |
|    \\/     M anipulation  |                                                 |
\*---------------------------------------------------------------------------*/
FoamFile
{
    version     2.0;
    format      ascii;
    class       volScalarField;
    location    "765";
    object      k;
}
// * * * * * * * * * * * * * * * * * * * * * * * * * * * * * * * * * * * * * //

dimensions      [0 2 -2 0 0 0 0];


internalField   nonuniform List<scalar> 
6066
(
0.0496443
0.0534841
0.0578957
0.0629791
0.068867
0.0757329
0.0838075
0.093403
0.104948
0.119033
0.136527
0.158724
0.187637
0.226531
0.280996
0.361237
0.4874
0.703229
1.11562
2.02707
0.122137
0.131958
0.143191
0.156044
0.170824
0.187926
0.207863
0.23131
0.259171
0.292686
0.333558
0.384213
0.448197
0.530838
0.640418
0.790267
1.00265
1.316
1.79792
2.56226
0.162209
0.175351
0.190357
0.20748
0.227105
0.249732
0.275999
0.306734
0.343021
0.386304
0.438542
0.502435
0.581779
0.682045
0.811292
0.98168
1.21199
1.53187
1.98903
2.66206
0.18535
0.200473
0.217708
0.237329
0.259763
0.285556
0.315404
0.350191
0.391063
0.439515
0.497532
0.56779
0.653966
0.761204
0.896879
1.07183
1.3025
1.61473
2.05134
2.68868
0.196013
0.212141
0.23048
0.251314
0.275089
0.302373
0.333882
0.370522
0.413448
0.464158
0.524611
0.597417
0.686106
0.795562
0.932715
1.10773
1.33614
1.64303
2.0715
2.70133
0.195496
0.211764
0.230205
0.251113
0.274942
0.302265
0.333802
0.370462
0.413404
0.464125
0.524586
0.597398
0.686093
0.795553
0.932709
1.10772
1.33614
1.64303
2.0715
2.70133
0.183832
0.199378
0.216916
0.236754
0.259342
0.285246
0.315174
0.350021
0.390936
0.439421
0.497463
0.567741
0.653931
0.76118
0.896862
1.07182
1.30249
1.61473
2.05134
2.68868
0.15978
0.173648
0.189143
0.206604
0.226467
0.249263
0.275653
0.306478
0.342833
0.386169
0.438445
0.502365
0.581729
0.68201
0.811267
0.981663
1.21198
1.53186
1.98903
2.66206
0.119048
0.129903
0.141751
0.155017
0.170079
0.18738
0.207463
0.23102
0.258966
0.292539
0.333452
0.384136
0.44814
0.530797
0.640389
0.790248
1.00263
1.31599
1.79792
2.56226
0.0484203
0.052625
0.0572852
0.0625462
0.068563
0.0755234
0.0836666
0.0933086
0.10488
0.118984
0.13649
0.158697
0.187618
0.226517
0.280986
0.361231
0.487396
0.703228
1.11562
2.02707
0.0187908
0.019576
0.0203794
0.0212075
0.0220659
0.0229611
0.0239009
0.024895
0.0259457
0.0270277
0.0281471
0.0293117
0.0305311
0.0318167
0.0331826
0.0346451
0.0362238
0.0379417
0.0398245
0.0419015
0.044205
0.046771
0.0424919
0.0445155
0.0465758
0.048696
0.0508847
0.0531498
0.0555005
0.0579481
0.0604925
0.0631568
0.0659573
0.0689128
0.0720462
0.0753846
0.0789605
0.0828117
0.0869827
0.0915244
0.0964946
0.101958
0.107987
0.114661
0.0560689
0.0585754
0.0611456
0.0638128
0.0665884
0.0694828
0.0725078
0.0756771
0.0790057
0.0825207
0.0862435
0.0901985
0.0944145
0.0989257
0.103772
0.109002
0.114669
0.120838
0.12758
0.134978
0.143121
0.152112
0.0636257
0.0663083
0.0690795
0.0719776
0.0750167
0.0782092
0.0815684
0.0851104
0.0888633
0.0928582
0.0971198
0.101675
0.106557
0.1118
0.117448
0.123551
0.130166
0.137361
0.145214
0.153813
0.163257
0.17366
0.0667844
0.0694076
0.0721398
0.0750215
0.0780686
0.0812955
0.0847176
0.088353
0.0922434
0.096426
0.100929
0.105782
0.111018
0.116672
0.122787
0.129408
0.136588
0.14439
0.152888
0.162169
0.172331
0.183491
0.0661268
0.0684568
0.0709098
0.0735249
0.0763207
0.0793135
0.0825224
0.0859655
0.0897009
0.0937736
0.0982182
0.10307
0.108363
0.114136
0.120424
0.127267
0.134705
0.142782
0.151549
0.16108
0.171467
0.182817
0.0620402
0.0638433
0.065768
0.0678501
0.070113
0.0725742
0.0752566
0.0781851
0.0814168
0.0850116
0.0890213
0.0934881
0.0984601
0.103984
0.110102
0.116854
0.124275
0.132353
0.141075
0.150483
0.160647
0.171652
0.0553807
0.0565154
0.0577497
0.0591088
0.060611
0.0622752
0.0641248
0.0661887
0.0685153
0.0711713
0.0742125
0.0777049
0.0817138
0.0863193
0.0915997
0.0976056
0.10437
0.111943
0.120244
0.129177
0.138687
0.148806
0.0475695
0.0480575
0.0486099
0.0492376
0.0499485
0.050753
0.0516642
0.0526986
0.0538879
0.0552599
0.0568365
0.058641
0.0606983
0.0631657
0.066201
0.0699027
0.0743742
0.0798236
0.0862975
0.0937184
0.101805
0.11028
0.0390509
0.0387929
0.038541
0.0382987
0.0380738
0.0378763
0.0377161
0.0376326
0.0377258
0.0379192
0.0382024
0.0385671
0.0390084
0.0394977
0.039969
0.040308
0.0403556
0.0399086
0.0397726
0.040693
0.0425475
0.0451528
0.00139293
0.00115021
0.00131367
0.00215419
0.00367374
0.00504102
0.00629584
0.00744223
0.00851887
0.00956042
0.0105805
0.0115885
0.0125914
0.0135947
0.0146033
0.015622
0.0166558
0.0177104
0.00254651
0.00328646
0.00592322
0.00848581
0.010257
0.0119804
0.0139562
0.0161685
0.0183803
0.0205979
0.0228274
0.0250816
0.0273725
0.0297116
0.0321094
0.0345762
0.0371238
0.0397648
0.00381427
0.00722777
0.0102169
0.0125473
0.0146282
0.0171657
0.0202707
0.0234656
0.026524
0.0294564
0.0322918
0.0350753
0.0378495
0.0406525
0.0435167
0.0464702
0.0495392
0.0527477
0.00560943
0.0107157
0.0135389
0.0158698
0.018523
0.0219984
0.0258968
0.0296438
0.0330818
0.0362444
0.0392044
0.0420473
0.04485
0.047677
0.0505797
0.0535997
0.056772
0.0601259
0.00759049
0.013805
0.0163979
0.0189376
0.0222712
0.02644
0.0307437
0.0346657
0.0381216
0.0411811
0.0439596
0.0465767
0.049136
0.0517209
0.0543955
0.0572092
0.0602016
0.0634049
0.00911559
0.0164388
0.0190499
0.0219314
0.0258405
0.0303827
0.0347575
0.0385569
0.0417585
0.0444704
0.0468422
0.0490187
0.0511222
0.0532484
0.0554683
0.0578343
0.0603868
0.0631591
0.0102959
0.0187563
0.0215614
0.0248255
0.0291152
0.0337361
0.037916
0.0413598
0.0440956
0.0462662
0.0480474
0.0496033
0.0510696
0.0525492
0.054115
0.0558172
0.0576926
0.0597705
0.0112955
0.0207936
0.0239219
0.0275386
0.0319946
0.0364534
0.0402307
0.0431345
0.045236
0.0467088
0.0477525
0.04855
0.0492494
0.0499594
0.0507514
0.0516689
0.0527382
0.0539772
0.0121485
0.0225759
0.0261021
0.0299932
0.034422
0.0385257
0.0417413
0.043961
0.0452995
0.0459635
0.0461814
0.04616
0.0460639
0.0460063
0.0460528
0.0462315
0.0465481
0.0469982
0.0128583
0.024151
0.0280785
0.0321364
0.0363709
0.0399752
0.0425063
0.0439355
0.0444283
0.0442321
0.043613
0.042807
0.0419895
0.0412638
0.0406656
0.040182
0.039776
0.039407
0.0288878
0.0276429
0.0263959
0.0251744
0.0240175
0.0229629
0.0220637
0.0214231
0.0208215
0.0202033
0.0195206
0.0187072
0.0178288
0.0168894
0.0158578
0.0147695
0.013664
0.0125763
0.0114841
0.0101906
0.00886823
0.00652862
0.0201054
0.018763
0.0176227
0.0166968
0.0159949
0.015513
0.0152273
0.0149837
0.014736
0.0144627
0.0141485
0.0137837
0.0133623
0.0128745
0.0123056
0.0116305
0.0107955
0.00979198
0.00862699
0.00722824
0.00545634
0.00216172
0.0157777
0.0151742
0.0148129
0.0146415
0.0146147
0.0146864
0.0147778
0.0148472
0.0148735
0.0148381
0.0147227
0.0145089
0.0141795
0.0137192
0.0131149
0.0123537
0.0114199
0.0102718
0.00889765
0.00724469
0.00524052
0.00246904
0.0146754
0.0146642
0.0147958
0.0150157
0.0152828
0.0155568
0.0158098
0.016024
0.0161826
0.0162671
0.016256
0.0161246
0.0158472
0.0153998
0.0147606
0.0139089
0.0128279
0.0115048
0.00990867
0.00800501
0.00578273
0.00290636
0.014819
0.0150939
0.0154319
0.0157991
0.0161707
0.0165237
0.01685
0.0171373
0.0173706
0.0175306
0.0175924
0.017526
0.0172985
0.0168771
0.0162355
0.0153536
0.0142103
0.0127729
0.0110013
0.00884891
0.00634688
0.00329358
0.0152437
0.0156335
0.0160446
0.0164602
0.0168668
0.0172536
0.0176178
0.0179499
0.0182357
0.0184555
0.0185831
0.0185858
0.0184247
0.0180547
0.0174528
0.0165958
0.015446
0.0139561
0.0120667
0.00969518
0.00689131
0.00363586
0.0156258
0.0160518
0.0164802
0.0169052
0.01732
0.0177212
0.0181069
0.0184689
0.0187936
0.0190617
0.0192476
0.0193173
0.019229
0.0189282
0.0183965
0.0175993
0.0164878
0.0149985
0.0130515
0.0105187
0.0074318
0.00394481
0.0158867
0.0163146
0.016738
0.0171576
0.0175706
0.0179774
0.0183762
0.0187589
0.0191132
0.0194211
0.0196577
0.019789
0.0197724
0.0195497
0.0191002
0.018382
0.0173367
0.0158862
0.0139305
0.0112934
0.00796381
0.00422924
0.016031
0.0164475
0.0168584
0.0172679
0.0176759
0.0180845
0.0184908
0.018888
0.0192651
0.0196056
0.0198857
0.0200722
0.0201225
0.0199785
0.0196144
0.0189827
0.0180178
0.0166297
0.014698
0.0120066
0.00848229
0.00449405
0.0160883
0.0164898
0.016887
0.0172864
0.0176893
0.0180971
0.0185074
0.0189143
0.0193086
0.0196753
0.0199921
0.0202272
0.0203386
0.0202694
0.0199879
0.0194432
0.0185643
0.0172513
0.0153649
0.0126573
0.00898448
0.0047427
0.0160915
0.016479
0.0168646
0.0172554
0.0176533
0.0180589
0.01847
0.0188824
0.0192881
0.0196744
0.020021
0.0202979
0.020464
0.0204637
0.0202601
0.0197998
0.0190073
0.0177756
0.0159452
0.0132502
0.00946945
0.00497789
0.0160698
0.0164464
0.0168234
0.0172071
0.0175997
0.0180011
0.0184099
0.0188229
0.0192341
0.0196329
0.0200017
0.0203129
0.020527
0.0205893
0.0204589
0.0200799
0.0193727
0.0182243
0.016457
0.0137939
0.0099378
0.00520172
0.0160466
0.0164156
0.016786
0.0171635
0.0175498
0.0179446
0.018347
0.0187551
0.019165
0.0195687
0.0199517
0.0202895
0.0205446
0.0206635
0.0206032
0.0203034
0.0196803
0.0186147
0.0169149
0.0142971
0.010391
0.00541594
0.0160381
0.0164022
0.0167672
0.0171382
0.0175163
0.0179008
0.0182918
0.0186889
0.0190901
0.0194907
0.0198795
0.020236
0.0205255
0.0206965
0.0207051
0.020484
0.0199442
0.0189597
0.0173313
0.0147678
0.0108307
0.00562199
0.0160546
0.016415
0.0167747
0.0171378
0.0175044
0.0178743
0.0182481
0.0186272
0.019012
0.0194009
0.019787
0.0201542
0.0204717
0.0206941
0.0207724
0.0206312
0.020175
0.0192684
0.0177154
0.0152127
0.0112588
0.00582112
0.0161003
0.0164574
0.0168106
0.017163
0.0175141
0.0178641
0.0182146
0.0185685
0.0189289
0.0192975
0.0196721
0.0200426
0.0203834
0.0206591
0.0208098
0.0207509
0.0203797
0.0195507
0.0180757
0.0156374
0.0116769
0.00601444
0.0161752
0.0165278
0.0168723
0.0172104
0.0175414
0.017866
0.018187
0.0185087
0.0188365
0.0191759
0.0195305
0.0198968
0.0202625
0.0205931
0.0208196
0.0208466
0.0205624
0.0198142
0.0184185
0.016046
0.0120864
0.00620299
0.0162753
0.0166213
0.0169538
0.0172734
0.0175795
0.0178734
0.0181589
0.0184417
0.0187293
0.0190315
0.0193578
0.0197184
0.0201101
0.0204967
0.0208025
0.0209196
0.0207257
0.0200622
0.0187474
0.0164417
0.0124885
0.00638771
0.0163935
0.0167298
0.0170467
0.0173436
0.0176201
0.0178786
0.0181234
0.0183613
0.0186023
0.0188599
0.0191566
0.0195119
0.0199276
0.0203699
0.0207579
0.0209704
0.0208722
0.0202971
0.0190648
0.0168267
0.0128845
0.00656953
0.0165206
0.0168439
0.0171412
0.0174113
0.0176544
0.0178732
0.018073
0.0182619
0.018451
0.0186657
0.0189337
0.0192814
0.0197174
0.0202133
0.0206853
0.0209985
0.0210019
0.0205198
0.0193722
0.0172029
0.0132755
0.00674938
0.0166463
0.016953
0.0172274
0.0174673
0.0176735
0.0178495
0.0180014
0.0181387
0.0182811
0.0184553
0.0186945
0.0190312
0.0194828
0.0200285
0.0205848
0.0210035
0.0211141
0.0207308
0.0196709
0.0175721
0.0136625
0.00692819
0.0167601
0.0170471
0.0172957
0.0175026
0.0176699
0.0178014
0.0179061
0.0179975
0.0180966
0.0182328
0.0184431
0.018766
0.0192281
0.0198185
0.0204575
0.0209855
0.0212093
0.0209311
0.0199619
0.0179354
0.0140467
0.00710691
0.0168536
0.0171186
0.0173389
0.0175107
0.0176383
0.017728
0.0177902
0.0178399
0.0178995
0.0180003
0.0181825
0.0184904
0.0189588
0.0195877
0.0203055
0.020945
0.0212881
0.0211213
0.020246
0.0182941
0.014429
0.00728658
0.0169188
0.0171596
0.0173503
0.0174883
0.0175786
0.0176296
0.017653
0.0176652
0.0176895
0.0177587
0.0179158
0.018209
0.0186804
0.0193414
0.020132
0.0208828
0.0213509
0.021302
0.0205239
0.0186493
0.0148104
0.00746832
0.0169527
0.0171678
0.0173286
0.0174331
0.0174879
0.0175034
0.0174923
0.0174718
0.0174661
0.0175092
0.0176454
0.0179259
0.0183985
0.0190855
0.0199411
0.0208004
0.0213978
0.0214734
0.0207963
0.019002
0.0151921
0.00765333
0.0169491
0.0171368
0.0172674
0.0173398
0.0173622
0.0173462
0.0173057
0.0172586
0.0172295
0.0172529
0.0173738
0.0176449
0.0181182
0.0188258
0.0197377
0.0206996
0.0214292
0.0216355
0.0210636
0.0193532
0.015575
0.00784301
0.0169004
0.0170604
0.0171616
0.0172047
0.0171988
0.0171568
0.0170932
0.0170263
0.016981
0.0169917
0.0171034
0.0173692
0.017844
0.0185679
0.0195268
0.0205832
0.0214452
0.021788
0.0213263
0.0197037
0.0159601
0.00803893
0.016804
0.0169362
0.0170097
0.0170269
0.0169977
0.0169357
0.0168558
0.0167764
0.0167225
0.0167278
0.0168365
0.0171017
0.0175797
0.0183169
0.0193138
0.0204542
0.0214463
0.0219303
0.0215848
0.0200544
0.0163484
0.00824293
0.0166595
0.0167649
0.0168133
0.0168091
0.016762
0.0166861
0.0165963
0.0165109
0.0164546
0.0164606
0.0165723
0.0168421
0.0173273
0.0180781
0.0191073
0.0203198
0.0214332
0.0220614
0.0218394
0.0204058
0.0167409
0.00845719
0.0164683
0.0165491
0.0165762
0.0165554
0.0164961
0.0164122
0.0163183
0.0162327
0.0161794
0.0161913
0.0163109
0.0165898
0.0170854
0.0178509
0.018909
0.0201855
0.0214139
0.0221846
0.0220932
0.0207594
0.0171366
0.00868259
0.0162354
0.0162946
0.0163046
0.0162721
0.0162056
0.0161187
0.0160258
0.0159448
0.0158995
0.015922
0.016054
0.0163462
0.0168555
0.0176369
0.0187215
0.0200549
0.0213911
0.022304
0.0223507
0.02112
0.0175406
0.00891094
0.0159631
0.0160062
0.016004
0.0159641
0.0158948
0.0158094
0.015722
0.0156501
0.0156172
0.0156548
0.0158037
0.0161132
0.0166395
0.0174385
0.0185478
0.0199315
0.0213683
0.0224232
0.0226136
0.0214892
0.0179541
0.00914283
0.0156552
0.0156849
0.015676
0.0156337
0.0155662
0.0154868
0.0154094
0.0153512
0.0153353
0.0153926
0.0155625
0.0158932
0.0164397
0.0172579
0.0183907
0.0198189
0.0213482
0.0225436
0.0228828
0.0218681
0.0183784
0.00937905
0.0153191
0.0153362
0.0153227
0.015284
0.0152226
0.0151538
0.0150912
0.0150515
0.0150573
0.0151385
0.0153336
0.0156892
0.0162586
0.0170979
0.0182533
0.0197204
0.0213336
0.0226666
0.023159
0.0222577
0.0188145
0.00962019
0.0149656
0.0149696
0.0149521
0.0149186
0.0148691
0.0148158
0.0147727
0.014756
0.0147877
0.0148969
0.0151209
0.0155046
0.0160996
0.0169613
0.0181384
0.0196393
0.0213274
0.0227934
0.0234427
0.0226589
0.0192635
0.00986688
0.0146075
0.0145981
0.0145765
0.0145483
0.0145152
0.0144812
0.0144613
0.0144714
0.0145327
0.0146734
0.0149293
0.0153437
0.0159663
0.0168513
0.0180493
0.0195791
0.0213328
0.0229256
0.0237343
0.0230729
0.0197266
0.0101197
0.0142593
0.0142363
0.0142101
0.0141862
0.0141704
0.0141603
0.0141667
0.0142063
0.0142998
0.0144744
0.0147645
0.0152114
0.0158629
0.0167715
0.017989
0.019543
0.0213529
0.0230645
0.0240339
0.0235006
0.0202048
0.0103792
0.013937
0.0139003
0.0138697
0.0138505
0.013851
0.0138663
0.0139006
0.013971
0.0140979
0.0143077
0.0146331
0.0151134
0.015794
0.0167258
0.017961
0.0195346
0.0213912
0.0232118
0.0243412
0.0239432
0.0206992
0.010646
0.0136569
0.0136069
0.0135721
0.0135584
0.0135739
0.0136136
0.0136754
0.0137765
0.0139369
0.0141819
0.0145425
0.0150559
0.0157648
0.0167182
0.0179685
0.019557
0.0214508
0.023369
0.0246551
0.0244019
0.0212108
0.0109205
0.0134354
0.013373
0.0133346
0.0133262
0.0133547
0.0134162
0.0135039
0.0136343
0.013827
0.014106
0.0145006
0.0150453
0.0157804
0.0167528
0.0180151
0.0196138
0.0215356
0.0235384
0.0249748
0.0248781
0.0217406
0.0112033
0.013289
0.0132154
0.0131742
0.0131708
0.0132098
0.0132888
0.0133992
0.0135565
0.0137791
0.0140897
0.0145155
0.0150884
0.0158462
0.0168339
0.018104
0.0197079
0.0216493
0.0237253
0.0253072
0.0253738
0.0222896
0.0114949
0.0132339
0.0131506
0.0131078
0.0131094
0.0131571
0.0132473
0.0133755
0.0135556
0.0138044
0.0141427
0.0145953
0.0151917
0.0159672
0.0169654
0.0182389
0.0198428
0.0217955
0.0239327
0.0256536
0.0258894
0.022858
0.0117955
0.013285
0.0131947
0.0131514
0.0131579
0.0132127
0.0133069
0.0134469
0.0136444
0.0139139
0.0142742
0.0147475
0.015361
0.0161484
0.0171517
0.0184235
0.020022
0.0219779
0.0241641
0.0260152
0.0264238
0.0234455
0.0121053
0.0134549
0.0133611
0.0133188
0.0133287
0.0133859
0.013481
0.013626
0.013834
0.0141173
0.014492
0.0149784
0.0156019
0.0163944
0.017397
0.0186618
0.0202492
0.0222004
0.0244226
0.0263924
0.0269745
0.024051
0.0124244
0.0137522
0.0136588
0.0136178
0.0136263
0.0136773
0.0137751
0.0139205
0.0141323
0.0144213
0.0148022
0.0152935
0.0159192
0.01671
0.0177057
0.0189578
0.0205281
0.0224668
0.0247118
0.0267857
0.0275368
0.0246726
0.0127529
0.0141799
0.0140885
0.0140457
0.0140441
0.0140903
0.0141882
0.0143382
0.0145455
0.0148316
0.0152099
0.0156977
0.0163179
0.0170998
0.0180821
0.0193153
0.0208623
0.0227807
0.0250349
0.0271956
0.0280999
0.0253082
0.0130913
0.0147319
0.014639
0.0145863
0.0145791
0.0146213
0.0147168
0.0148693
0.0150737
0.0153503
0.0157185
0.0161953
0.0168023
0.0175681
0.01853
0.0197378
0.0212546
0.0231447
0.0253953
0.0276262
0.0286744
0.0259651
0.0134411
0.0153922
0.0152938
0.0152375
0.0152262
0.0152638
0.0153547
0.0155038
0.0157154
0.0159805
0.0163317
0.0167899
0.0173761
0.0181182
0.0190525
0.0202278
0.0217072
0.0235604
0.0257948
0.0280793
0.0292614
0.0266429
0.0138022
0.0161452
0.0160461
0.0159878
0.0159732
0.0160061
0.016091
0.0162334
0.0164402
0.0167158
0.0170502
0.0174825
0.0180406
0.0187514
0.0196507
0.0207861
0.0222208
0.0240284
0.0262341
0.0285553
0.0298594
0.0273375
0.0141736
0.0169771
0.0168792
0.0168205
0.0168035
0.0168319
0.0169098
0.0170432
0.0172397
0.0175081
0.0178537
0.0182694
0.0187928
0.0194656
0.0203229
0.0214116
0.0227945
0.0245482
0.0267132
0.0290541
0.0304655
0.0280435
0.0145542
0.0178632
0.0177694
0.0177124
0.0176945
0.017719
0.0177901
0.0179138
0.018098
0.0183528
0.018687
0.0191113
0.0196246
0.0202542
0.0210638
0.0221
0.023425
0.0251174
0.0272304
0.0295743
0.0310758
0.0287536
0.0149423
0.0187631
0.018679
0.0186284
0.0186133
0.0186367
0.0187029
0.0188181
0.0189903
0.01923
0.0195487
0.0199572
0.0204725
0.0211049
0.0218639
0.0228447
0.0241072
0.0257317
0.0277827
0.0301137
0.0316854
0.0294597
0.0153355
0.0196155
0.0195515
0.0195164
0.0195116
0.0195404
0.0196072
0.0197185
0.0198826
0.0201103
0.0204147
0.0208054
0.0213017
0.0219261
0.0227061
0.0236433
0.0248358
0.0263848
0.028365
0.0306693
0.032292
0.0301563
0.0157287
0.0203381
0.0203097
0.0203043
0.0203226
0.0203682
0.0204464
0.0205636
0.0207284
0.0209517
0.0212472
0.0216266
0.0221058
0.0227095
0.023468
0.0244171
0.0255867
0.0270614
0.0289685
0.0312385
0.0328998
0.0308477
0.0161057
0.0208335
0.0208609
0.0209041
0.0209628
0.0210416
0.0211468
0.0212854
0.021466
0.0216993
0.0219995
0.0223804
0.0228531
0.0234431
0.0241815
0.0251082
0.0262757
0.0277486
0.0295871
0.0318211
0.0335201
0.0315223
0.0164181
0.0209947
0.0211018
0.0212152
0.0213353
0.0214692
0.0216242
0.0218068
0.0220249
0.0222893
0.0226147
0.0230173
0.0235013
0.0240931
0.0248239
0.0257344
0.0268805
0.0283401
0.0302028
0.0324208
0.0341528
0.0321753
0.0166515
0.0206947
0.0209127
0.0211212
0.0213236
0.0215349
0.0217655
0.0220211
0.0223079
0.0226353
0.0230173
0.0234717
0.0239965
0.0246155
0.0253604
0.0262724
0.0274085
0.0288499
0.0306977
0.0329668
0.034774
0.0328278
0.0168693
0.0197354
0.0200794
0.020414
0.0207417
0.0210745
0.0214214
0.0217901
0.0221867
0.0226192
0.0231013
0.0236506
0.02426
0.0249449
0.0257385
0.0266819
0.0278322
0.0292727
0.0311113
0.0333901
0.035283
0.0334663
0.0171339
0.0175932
0.018063
0.0185326
0.0190431
0.0195968
0.0201707
0.0207631
0.0213792
0.0220194
0.0226951
0.0234233
0.0241879
0.0249964
0.0258881
0.0269063
0.0281084
0.0295782
0.0314276
0.0337162
0.0356727
0.03401
0.0174643
0.010421
0.011418
0.0125721
0.0137874
0.0150436
0.0163736
0.017732
0.0190209
0.0202407
0.0214101
0.0225538
0.0236411
0.0246822
0.0257481
0.0268991
0.0282002
0.0297385
0.0316285
0.0339406
0.0359597
0.0344329
0.0178195
0.0134794
0.0256052
0.0299131
0.0340147
0.037901
0.0408679
0.0425942
0.0431323
0.0427114
0.0416343
0.0402114
0.0386983
0.0372528
0.0359225
0.0346664
0.0333972
0.0320292
0.0305172
0.01399
0.0268472
0.0314674
0.035486
0.0389233
0.0411761
0.0420505
0.041684
0.040381
0.0385109
0.0364197
0.0343504
0.0323954
0.0305116
0.0285903
0.0265458
0.0243752
0.0221681
0.0144125
0.0278796
0.0327341
0.0365666
0.0394741
0.0409756
0.0409965
0.0397699
0.0376858
0.0351764
0.0325985
0.03014
0.0278065
0.0255071
0.0231834
0.0208905
0.0187824
0.0170328
0.0147634
0.0287073
0.03372
0.0372848
0.0396104
0.0403565
0.039562
0.0375669
0.0348509
0.0318875
0.029006
0.0263157
0.023775
0.0213486
0.0191149
0.017236
0.0158543
0.0150173
0.0150344
0.0293112
0.0344356
0.0376628
0.0393972
0.0394138
0.0378781
0.0352432
0.0320671
0.0288318
0.0258043
0.0230348
0.0205112
0.0183061
0.0165632
0.0153853
0.0147714
0.0146284
0.0152321
0.0297147
0.0348821
0.0377477
0.038902
0.0382422
0.036068
0.0329421
0.0294749
0.0261192
0.0230732
0.0203776
0.0180948
0.0163466
0.0152099
0.0146529
0.0145649
0.0148078
0.0153632
0.0299386
0.0350856
0.0375875
0.0381921
0.036931
0.0342384
0.0307716
0.0271582
0.0237948
0.0208332
0.0183485
0.0164515
0.015214
0.0145911
0.0144571
0.0146679
0.0150953
0.0154345
0.0300055
0.0350838
0.0372303
0.0373318
0.0355589
0.0324733
0.0288013
0.0251521
0.0218592
0.0190623
0.0168802
0.0154064
0.0146082
0.0143481
0.014468
0.0148312
0.0153336
0.0154524
0.0299376
0.0349121
0.036722
0.0363787
0.0341908
0.0308318
0.0270658
0.0234566
0.0202848
0.0177067
0.01586
0.0147672
0.0142977
0.0142717
0.0145333
0.0149651
0.015487
0.0154232
0.029756
0.0346035
0.0361046
0.0353822
0.0328758
0.0293495
0.0255732
0.0220498
0.0190286
0.0166942
0.0151668
0.0143797
0.0141397
0.0142579
0.0145933
0.0150487
0.0155647
0.0153529
0.0294806
0.0341881
0.0354144
0.0343813
0.0316476
0.0280423
0.024313
0.0208988
0.0180409
0.0159488
0.0146972
0.014141
0.0140564
0.0142615
0.0146317
0.015089
0.0155898
0.0152472
0.0291292
0.0336922
0.0346818
0.0334057
0.0305265
0.0269114
0.0232641
0.019967
0.0172719
0.0154023
0.0143757
0.0139895
0.01401
0.0142668
0.0146517
0.0151022
0.0155871
0.0151113
0.0287179
0.0331384
0.033931
0.0324759
0.0295214
0.025948
0.0224011
0.0192187
0.0166765
0.0150008
0.0141523
0.0138912
0.013984
0.0142726
0.014663
0.0151056
0.0155779
0.0149499
0.0282604
0.0325453
0.0331805
0.0316048
0.0286335
0.0251378
0.0216975
0.0186216
0.0162171
0.0147047
0.013996
0.0138285
0.0139731
0.0142831
0.0146767
0.0151142
0.0155787
0.0147671
0.0277685
0.0319284
0.0324438
0.0307992
0.027858
0.0244635
0.0211288
0.0181483
0.0158639
0.0144864
0.013888
0.0137929
0.013977
0.014304
0.0147023
0.015139
0.0156009
0.0145667
0.0272522
0.0312994
0.0317302
0.0300613
0.0271865
0.0239077
0.0206734
0.0177764
0.0155946
0.0143275
0.0138174
0.0137803
0.0139972
0.0143405
0.0147465
0.015187
0.0156504
0.0143518
0.0267196
0.0306677
0.0310454
0.0293897
0.0266091
0.0234537
0.020313
0.0174882
0.0153925
0.0142157
0.0137775
0.0137887
0.014035
0.0143958
0.0148131
0.0152611
0.0157286
0.0141251
0.0261771
0.03004
0.0303927
0.028781
0.0261148
0.0230864
0.0200324
0.0172697
0.0152456
0.0141426
0.0137638
0.0138168
0.014091
0.0144711
0.0149026
0.0153606
0.0158332
0.0138888
0.0256299
0.0294213
0.0297732
0.0282303
0.0256931
0.0227926
0.0198192
0.0171103
0.015145
0.0141019
0.0137727
0.0138629
0.0141643
0.0145651
0.0150126
0.0154815
0.0159585
0.0136448
0.0250821
0.0288149
0.0291866
0.027732
0.0253336
0.0225609
0.0196623
0.017001
0.0150838
0.014089
0.0138011
0.0139243
0.0142521
0.0146742
0.0151381
0.0156172
0.0160963
0.0133944
0.0245366
0.028223
0.0286316
0.0272804
0.0250271
0.0223818
0.0195495
0.0169339
0.0150567
0.0140998
0.0138456
0.0139976
0.01435
0.0147924
0.0152715
0.0157586
0.0162365
0.0131389
0.0239957
0.0276468
0.0281065
0.0268696
0.0247653
0.0222465
0.0194768
0.0169017
0.0150585
0.0141305
0.0139024
0.0140783
0.0144517
0.0149115
0.015403
0.0158951
0.0163683
0.0128793
0.0234611
0.027087
0.0276089
0.0264942
0.0245406
0.0221475
0.0194403
0.0169008
0.0150858
0.0141778
0.0139679
0.0141613
0.0145499
0.0150221
0.0155233
0.0160177
0.0164827
0.0126154
0.022934
0.0265435
0.0271365
0.0261491
0.0243464
0.0220786
0.0194364
0.0169293
0.0151357
0.0142387
0.0140384
0.0142411
0.0146368
0.0151179
0.0156244
0.0161171
0.0165713
0.0123486
0.0224153
0.0260163
0.0266868
0.0258293
0.0241766
0.0220343
0.0194621
0.0169858
0.0152063
0.0143111
0.0141112
0.0143134
0.014712
0.0151973
0.015705
0.0161921
0.0166316
0.0120828
0.0219039
0.0255019
0.026255
0.0255279
0.0240238
0.0220088
0.0195174
0.0170736
0.0152983
0.0143947
0.0141852
0.0143784
0.0147737
0.0152578
0.0157614
0.0162377
0.0166576
0.0118272
0.0213956
0.0249961
0.0258348
0.0252382
0.02388
0.021992
0.0195938
0.0171929
0.0154214
0.0144977
0.0142649
0.0144388
0.0148221
0.015297
0.0157891
0.0162478
0.0166414
0.0115799
0.0208919
0.0244992
0.025425
0.0249574
0.0237413
0.0219797
0.0196871
0.0173405
0.0155714
0.0146187
0.0143501
0.0144948
0.0148563
0.0153127
0.0157849
0.0162183
0.0165794
0.0113392
0.0203945
0.0240105
0.0250244
0.0246832
0.0236042
0.0219682
0.0197922
0.0175122
0.0157452
0.0147555
0.0144392
0.014545
0.0148741
0.0153019
0.0157449
0.0161456
0.0164695
0.0111038
0.019903
0.0235302
0.0246324
0.0244138
0.0234662
0.021955
0.0199004
0.0176998
0.0159389
0.0149063
0.014531
0.0145852
0.0148729
0.0152618
0.0156663
0.0160278
0.0163115
0.0108723
0.0194177
0.0230583
0.0242485
0.0241478
0.0233255
0.021937
0.0200078
0.0178953
0.0161479
0.0150699
0.0146258
0.0146148
0.0148471
0.0151874
0.0155462
0.0158646
0.0161087
0.0106437
0.0189386
0.0225949
0.0238722
0.0238847
0.0231807
0.0219121
0.0201103
0.0180938
0.0163682
0.0152453
0.0147251
0.0146368
0.0148007
0.015081
0.0153863
0.0156574
0.0158619
0.010417
0.0184658
0.0221402
0.0235035
0.0236241
0.0230314
0.0218785
0.0202044
0.0182905
0.0165956
0.0154314
0.0148309
0.0146555
0.0147394
0.0149497
0.0151943
0.0154143
0.0155779
0.0101912
0.0179994
0.021694
0.0231426
0.0233663
0.0228778
0.0218354
0.0202874
0.0184807
0.0168259
0.0156268
0.0149453
0.0146759
0.0146705
0.014802
0.0149795
0.0151446
0.0152658
0.00996542
0.0175394
0.0212565
0.0227899
0.0231123
0.022721
0.0217831
0.0203575
0.0186608
0.0170552
0.0158299
0.0150703
0.0147036
0.0146022
0.0146478
0.0147526
0.0148593
0.0149364
0.00973889
0.0170858
0.0208277
0.0224459
0.0228633
0.0225629
0.0217227
0.0204142
0.018828
0.0172798
0.0160389
0.0152079
0.0147443
0.0145432
0.014498
0.0145259
0.0145712
0.0146028
0.00951078
0.0166387
0.0204075
0.0221112
0.022621
0.022406
0.0216568
0.0204585
0.018981
0.0174971
0.0162521
0.0153594
0.0148034
0.0145025
0.0143642
0.0143124
0.0142944
0.0142793
0.00928031
0.0161979
0.0199956
0.0217863
0.0223874
0.0222538
0.0215889
0.0204931
0.0191204
0.0177055
0.0164681
0.0155258
0.0148856
0.0144887
0.014258
0.0141259
0.0140436
0.0139815
0.00904672
0.0157633
0.0195917
0.0214717
0.0221645
0.02211
0.0215241
0.0205224
0.0192489
0.0179054
0.0166864
0.0157084
0.0149954
0.0145098
0.0141906
0.0139798
0.0138336
0.013725
0.0088092
0.0153347
0.0191951
0.0211673
0.0219539
0.0219786
0.0214679
0.0205527
0.0193714
0.0180998
0.0169083
0.0159084
0.0151365
0.0145729
0.0141723
0.0138872
0.0136795
0.0135257
0.00856695
0.0149118
0.0188047
0.0208722
0.0217564
0.0218633
0.0214267
0.0205917
0.0194953
0.0182939
0.0171369
0.0161285
0.0153126
0.0146844
0.0142125
0.0138599
0.0135955
0.0133997
0.0083191
0.0144941
0.0184188
0.0205845
0.021571
0.0217658
0.021406
0.020648
0.0196302
0.018496
0.0173781
0.0163728
0.0155281
0.0148499
0.0143192
0.013909
0.0135952
0.0133623
0.00806474
0.014081
0.0180345
0.0202966
0.0213882
0.0216838
0.0214082
0.0207287
0.0197862
0.0187165
0.0176406
0.016648
0.0157882
0.015075
0.0144996
0.0140438
0.01369
0.0134272
0.00780287
0.013671
0.0176454
0.0199907
0.0211932
0.0216007
0.0214291
0.020837
0.019972
0.0189666
0.0179351
0.0169627
0.0160996
0.0153657
0.01476
0.0142718
0.0138893
0.0136055
0.00753236
0.0132617
0.0172437
0.0196617
0.0209791
0.0215069
0.0214548
0.0209688
0.0201912
0.0192551
0.0182725
0.0173269
0.0164706
0.0157284
0.015106
0.0145987
0.0141997
0.013905
0.00725191
0.0128493
0.0168139
0.0193023
0.0207366
0.0213936
0.0214702
0.021114
0.02044
0.0195851
0.01866
0.0177494
0.0169091
0.0161695
0.0155423
0.0150281
0.0146243
0.0143292
0.00696001
0.0124312
0.0163519
0.0189032
0.020454
0.0212481
0.0214655
0.0212479
0.0207047
0.0199504
0.0190978
0.0182342
0.0174206
0.0166938
0.0160718
0.0155609
0.0151624
0.0148758
0.0066549
0.0120041
0.015853
0.0184542
0.0201175
0.021054
0.0214242
0.0213583
0.0209659
0.0203354
0.0195758
0.0187767
0.018004
0.0173013
0.016694
0.0161948
0.0158094
0.015535
0.00633431
0.0115623
0.0153117
0.0179446
0.019712
0.020792
0.0213243
0.0214246
0.0211914
0.020714
0.0200722
0.0193599
0.018647
0.0179833
0.0174016
0.016922
0.0165546
0.0162887
0.00599423
0.0110883
0.0147199
0.0173631
0.0192212
0.0204409
0.0211396
0.0214171
0.0213566
0.0210422
0.0205501
0.0199516
0.0193221
0.0187167
0.0181751
0.0177246
0.0173786
0.017117
0.00563002
0.0105634
0.0140658
0.016697
0.0186288
0.0199788
0.0208421
0.0212984
0.0214226
0.0212865
0.0209593
0.0205044
0.0199841
0.0194598
0.0189768
0.0185685
0.0182455
0.0179967
0.00523236
0.00997972
0.0133363
0.0159329
0.0179189
0.0193848
0.0204009
0.0210326
0.0213448
0.0213972
0.0212478
0.0209549
0.0205709
0.0201511
0.0197473
0.019397
0.0191077
0.0188832
0.00479117
0.00932517
0.0125188
0.0150589
0.0170779
0.0186396
0.0197893
0.0205845
0.0210774
0.0213177
0.0213534
0.0212323
0.0210032
0.0207111
0.0204064
0.0201297
0.0198941
0.0197109
0.00428946
0.00860874
0.0116144
0.0140718
0.0160995
0.0177248
0.018986
0.0199234
0.0205788
0.0209936
0.021208
0.0212613
0.0211931
0.0210448
0.0208587
0.0206728
0.0205126
0.0203928
0.00370243
0.00787264
0.0106683
0.0130015
0.0149874
0.0166413
0.01798
0.0190276
0.0198158
0.0203788
0.0207509
0.0209653
0.0210547
0.0210531
0.0209966
0.0209219
0.0208589
0.0208276
0.00300326
0.00714463
0.00976196
0.0119315
0.0138131
0.0154333
0.016792
0.0178988
0.0187742
0.0194443
0.0199376
0.0202828
0.0205085
0.0206432
0.0207178
0.0207659
0.0208192
0.0209042
0.00218433
0.00639713
0.0089547
0.0109776
0.0127154
0.0142245
0.0155182
0.0166038
0.0174933
0.0182046
0.0187597
0.0191827
0.0194986
0.0197339
0.0199173
0.0200824
0.0202613
0.0204907
0.0012359
0.00562257
0.00822652
0.0102057
0.011821
0.0131699
0.0143108
0.0152708
0.0160663
0.0167134
0.0172324
0.0176441
0.0179703
0.0182353
0.0184683
0.0187066
0.0189942
0.0194043
0.0009998
0.00464915