/*--------------------------------*- C++ -*----------------------------------*\
| =========                 |                                                 |
| \\      /  F ield         | OpenFOAM: The Open Source CFD Toolbox           |
|  \\    /   O peration     | Version:  v2012                                 |
|   \\  /    A nd           | Website:  www.openfoam.com                      |
|    \\/     M anipulation  |                                                 |
\*---------------------------------------------------------------------------*/
FoamFile
{
    version     2.0;
    format      ascii;
    class       volScalarField;
    location    "765";
    object      omega;
}
// * * * * * * * * * * * * * * * * * * * * * * * * * * * * * * * * * * * * * //

dimensions      [0 0 -1 0 0 0 0];


internalField   nonuniform List<scalar> 
6066
(
99.218
102.984
107.147
111.752
116.859
122.546
128.913
136.093
144.259
153.635
164.537
177.409
192.892
211.943
236.051
267.641
310.884
373.426
470.342
634.001
43.7408
45.6376
47.7238
50.0228
52.5698
55.4091
58.5959
62.1998
66.3103
71.037
76.5313
82.9953
90.7015
100.023
111.473
125.758
143.82
166.767
195.307
227.066
34.0863
35.6457
37.3661
39.2653
41.3728
43.7253
46.3683
49.3585
52.7681
56.6891
61.241
66.5815
72.9222
80.551
89.867
101.437
116.088
135.087
160.518
196.313
30.9269
32.3744
33.9763
35.7485
37.7182
39.9197
42.3958
45.2
48.4004
52.0846
56.3671
61.4001
67.3902
74.6242
83.5117
94.6571
108.989
128.01
154.305
192.685
29.8367
31.2405
32.799
34.5266
36.4497
38.6014
41.0239
43.77
46.9073
50.5234
54.7336
59.6924
65.6124
72.7925
81.6668
92.8878
107.476
127.095
154.568
194.817
29.8784
31.2676
32.8167
34.5384
36.4575
38.6068
41.0276
43.7726
46.9091
50.5247
54.7345
59.693
65.6128
72.7927
81.6669
92.8879
107.476
127.095
154.568
194.817
31.0773
32.4703
34.0385
35.7896
37.7459
39.9387
42.409
45.2092
48.4069
52.0891
56.3701
61.402
67.3914
74.625
83.5122
94.6574
108.99
128.01
154.305
192.685
34.4514
35.8682
37.5071
39.3578
41.4354
43.7687
46.3988
49.3801
52.7831
56.6991
61.2474
66.5857
72.9251
80.5529
89.8683
101.438
116.089
135.088
160.518
196.313
44.6196
46.1245
48.0218
50.2145
52.7002
55.5012
58.6623
62.2473
66.3412
71.0571
76.5445
83.004
90.7073
100.026
111.475
125.76
143.821
166.767
195.307
227.066
97.9871
102.153
106.58
111.367
116.601
122.376
128.805
136.024
144.212
153.603
164.515
177.395
192.882
211.937
236.047
267.638
310.883
373.425
470.342
634.001
61.0418
62.3042
63.5699
64.8486
66.148
67.4764
68.8435
70.2605
71.7279
73.2082
74.7089
76.2388
77.8084
79.4298
81.1167
82.885
84.7525
86.7388
88.865
91.1529
93.6249
96.3039
27.1188
27.2937
27.5214
27.8001
28.1315
28.5184
28.9644
29.4735
30.0484
30.6601
31.3109
32.0042
32.744
33.5344
34.3799
35.285
36.2547
37.2938
38.4074
39.6012
40.8814
42.2555
20.1512
20.3563
20.5997
20.8811
21.2003
21.5572
21.9522
22.386
22.8559
23.3565
23.8895
24.4577
25.0639
25.7116
26.4043
27.1458
27.9401
28.7913
29.7038
30.6825
31.7327
32.861
17.817
18.0682
18.3473
18.6545
18.9893
19.3516
19.7415
20.1595
20.6035
21.0721
21.5672
22.0914
22.6476
23.2395
23.8709
24.5461
25.2697
26.0465
26.8815
27.7798
28.747
29.7894
16.9925
17.2881
17.605
17.9443
18.3054
18.688
19.0924
19.519
19.965
20.4299
20.915
21.4225
21.9555
22.5177
23.1137
23.7489
24.4293
25.1614
25.9519
26.8071
27.733
28.7361
16.8962
17.2474
17.6166
18.0054
18.4132
18.8397
19.2848
19.7485
20.2276
20.7199
21.2259
21.7461
22.2824
22.8376
23.4158
24.0227
24.666
25.3563
26.1057
26.9236
27.8179
28.7962
17.2622
17.6919
18.1391
18.6061
19.093
19.5989
20.1239
20.6681
21.2289
21.8028
22.389
22.9853
23.5907
24.2037
24.8231
25.4472
26.0757
26.7303
27.4341
28.2043
29.0576
30.0086
17.8962
18.4249
18.9729
19.5437
20.1376
20.7553
21.3981
22.0683
22.7689
23.497
24.2526
25.0363
25.8467
26.6834
27.5441
28.4213
29.3122
30.1527
30.9151
31.6613
32.4736
33.3925
18.6469
19.3079
19.9986
20.7245
21.4869
22.2874
23.1286
24.0142
24.9551
25.9619
27.0401
28.1935
29.4236
30.7591
32.2268
33.8335
35.5721
37.3849
39.1896
40.7771
42.0591
43.2856
19.0324
19.7531
20.5072
21.3021
22.1403
23.0238
23.954
24.9422
26.0734
27.3906
28.935
30.7553
32.9115
35.4689
38.4919
42.032
46.1157
50.7271
56.3663
63.6353
72.8582
84.3485
16.6196
15.1024
16.1398
20.6679
26.9904
31.6165
35.3331
38.4155
41.1004
43.5405
45.8045
47.9369
49.9681
51.9207
53.8122
55.6575
57.4696
59.2611
14.9808
10.938
16.9943
23.2393
26.4594
27.5122
27.8109
27.8006
27.6419
27.4508
27.2599
27.0851
26.9375
26.8274
26.7641
26.7564
26.8116
26.9337
18.3345
14.1293
19.2097
22.6472
23.7385
23.6153
23.1089
22.4677
21.8206
21.2426
20.7531
20.3582
20.059
19.8545
19.7424
19.7198
19.7833
19.9287
22.2343
16.2874
19.391
21.0458
21.2414
20.7704
20.0855
19.3547
18.6855
18.1259
17.6855
17.3637
17.1545
17.0504
17.043
17.1237
17.2847
17.519
25.8642
17.3806
18.9213
19.4728
19.2777
18.7289
18.0633
17.4018
16.8307
16.3815
16.0581
15.8551
15.7638
15.7738
15.8744
16.0556
16.3083
16.6243
28.3437
17.871
18.2821
18.1778
17.7941
17.2597
16.6744
16.1265
15.6802
15.3566
15.1563
15.0722
15.0949
15.2137
15.418
15.6976
16.0433
16.4468
30.1228
18.0093
17.636
17.1805
16.6826
16.188
15.6967
15.2675
14.9444
14.7409
14.656
14.6833
14.8145
15.0405
15.3518
15.7388
16.1925
16.7046
31.5512
17.9296
17.0432
16.4054
15.8597
15.3924
14.9896
14.6682
14.4548
14.3573
14.3746
14.5024
14.7352
15.0665
15.4884
15.9919
16.5678
17.2076
32.7209
17.7349
16.5231
15.7941
15.2374
14.794
14.4605
14.2274
14.1021
14.0888
14.1876
14.3979
14.7184
15.1459
15.675
16.2982
17.0075
17.7955
33.6633
17.5012
16.0747
15.3021
14.7529
14.3367
14.0462
13.8769
13.8135
13.857
14.0102
14.2764
14.6577
15.1524
15.754
16.453
17.2389
18.1035
17.5378
17.8242
18.0636
18.2619
18.4248
18.5619
18.7046
18.9754
19.3339
19.7767
20.296
20.8696
21.5304
22.2837
23.1155
24.0519
25.1352
26.4079
27.9054
29.5033
31.5118
34.4161
13.8188
13.457
13.0712
12.6988
12.3792
12.1537
12.094
12.1231
12.2246
12.3957
12.637
12.9527
13.3534
13.8513
14.4603
15.1985
16.0897
17.1608
18.3756
19.5818
20.4261
19.8038
10.2011
9.73383
9.36549
9.11439
8.98909
8.98839
9.07993
9.23017
9.43459
9.69389
10.0106
10.3894
10.8381
11.3692
12.0011
12.7601
13.6839
14.8271
16.2382
17.9143
19.7562
21.1648
8.01531
7.75661
7.61261
7.56713
7.60531
7.71694
7.87359
8.07025
8.30776
8.58865
8.91644
9.29672
9.7382
10.2539
10.8636
11.5971
12.5027
13.6548
15.1637
17.1749
19.869
22.9628
6.85776
6.75695
6.73683
6.77741
6.86627
6.99772
7.16163
7.35785
7.58828
7.85547
8.16336
8.51779
8.92715
9.40435
9.96849
10.6513
11.507
12.6257
14.1566
16.344
19.6015
24.4446
6.17475
6.14753
6.1729
6.23732
6.3343
6.46278
6.61893
6.80348
7.01817
7.26592
7.55082
7.87826
8.25607
8.69682
9.21785
9.85129
10.654
11.7242
13.2368
15.5123
19.1797
25.6834
5.69788
5.69988
5.73877
5.80672
5.90091
6.0222
6.16846
6.34039
6.54006
6.77038
7.03493
7.33849
7.68825
8.09651
8.58023
9.17087
9.92621
10.9481
12.4266
14.7378
18.7069
26.7524
5.32331
5.33593
5.37755
5.44386
5.53387
5.64843
5.78611
5.94815
6.13657
6.35378
6.60273
6.88749
7.21444
7.59551
8.04814
8.60223
9.31561
10.2918
11.7293
14.0457
18.2423
27.7
5.0105
5.02662
5.06789
5.13192
5.21862
5.32796
5.45978
5.61544
5.79665
6.00534
6.24385
6.51534
6.82521
7.18459
7.61095
8.13289
8.80761
9.73954
11.1326
13.4359
17.806
28.5541
4.74177
4.7589
4.79923
4.86099
4.94553
5.05168
5.18019
5.33238
5.50973
5.71384
5.94642
6.20972
6.50795
6.85091
7.25533
7.74879
8.38752
9.2765
10.6234
12.9016
17.4035
29.3334
4.50816
4.52561
4.56499
4.62509
4.70779
4.81217
4.93906
5.08974
5.26561
5.46797
5.69806
5.95734
6.24876
6.58041
6.96741
7.43633
8.0422
8.8899
10.1901
12.435
17.035
30.0519
4.30396
4.32113
4.35934
4.41827
4.49977
4.60315
4.72929
4.87955
5.05529
5.2577
5.48771
5.74617
6.03485
6.35993
6.73424
7.18301
7.75993
8.56896
9.82276
12.0287
16.6987
30.7201
4.12495
4.1413
4.17845
4.23648
4.317
4.41957
4.54521
4.69538
4.87154
5.07493
5.30639
5.56636
5.85559
6.17826
6.54453
6.97779
7.53014
8.30404
9.51297
11.6761
16.393
31.3463
3.96799
3.98344
4.01959
4.07664
4.15604
4.25758
4.38246
4.53231
4.70882
4.91344
5.14713
5.4102
5.70257
6.02633
6.38893
6.81127
7.34352
8.0865
9.25326
11.3713
16.1158
31.937
3.83108
3.84558
3.88058
3.93637
4.01424
4.11427
4.2378
4.38672
4.56305
4.7686
5.00466
5.27163
5.56916
5.89706
6.2599
6.67575
7.19205
7.90854
9.03702
11.1091
15.8658
32.4977
3.71258
3.72599
3.75956
3.81369
3.88952
3.98736
4.10878
4.25594
4.43126
4.63705
4.87512
5.14627
5.45014
5.78477
6.15141
6.565
7.06944
7.76354
8.85785
10.8847
15.6412
33.0329
3.61093
3.62306
3.65488
3.70688
3.78008
3.87503
3.99352
4.13802
4.31135
4.51638
4.75568
5.03103
5.34185
5.68483
6.05855
6.47379
6.97055
7.64618
8.71009
10.6937
15.4405
33.5467
3.52459
3.53521
3.56492
3.61432
3.68432
3.77572
3.89051
4.03144
4.20175
4.40499
4.64472
4.92363
5.24121
5.5937
5.97721
6.39767
6.89078
7.55196
8.58913
10.5322
15.2623
34.0425
3.45197
3.46082
3.48808
3.53443
3.60073
3.68801
3.79843
3.93496
4.10139
4.30203
4.54132
4.82235
5.14589
5.50857
5.904
6.3331
6.82633
7.47684
8.49108
10.3967
15.1054
34.5236
3.39145
3.39829
3.42278
3.46572
3.52793
3.61061
3.71614
3.8477
4.00977
4.20718
4.4444
4.72601
5.05449
5.42726
5.83619
6.27705
6.77418
7.41766
8.41266
10.2844
14.9686
34.993
3.34143
3.34608
3.36759
3.40684
3.46463
3.54237
3.64258
3.76917
3.92651
4.11941
4.35338
4.63422
4.96623
5.34841
5.77174
6.22705
6.73181
7.37194
8.35119
10.1928
14.851
35.4535
3.30054
3.3029
3.3213
3.35673
3.40986
3.4824
3.57736
3.69849
3.85037
4.03817
4.26801
4.54686
4.88093
5.27136
5.70935
6.18131
6.6972
7.33751
8.30447
10.1198
14.7521
35.9079
3.26797
3.26804
3.2832
3.31452
3.36288
3.43008
3.5193
3.63459
3.78067
3.96296
4.18812
4.46413
4.79892
5.1961
5.64829
6.13855
6.66877
7.31265
8.27072
10.0638
14.6714
36.359
3.24279
3.24054
3.25237
3.27932
3.32247
3.38399
3.46729
3.57657
3.71668
3.89335
4.1137
4.38642
4.72083
5.1231
5.58836
6.09785
6.64533
7.29604
8.24857
10.0234
14.609
36.8096
3.22379
3.21898
3.22715
3.24945
3.28723
3.34298
3.42032
3.52361
3.65788
3.82918
4.04492
4.3142
4.64744
5.05318
5.52984
6.05865
6.62589
7.28663
8.23691
9.99758
14.5651
37.2627
3.20971
3.202
3.20621
3.2237
3.2561
3.30618
3.37776
3.47537
3.60421
3.77058
3.98207
4.24802
4.5796
4.98733
5.47336
6.02078
6.60974
7.2836
8.23494
9.98553
14.5406
37.7217
3.20004
3.18897
3.18901
3.20163
3.22875
3.27344
3.33966
3.43207
3.55599
3.71796
3.92564
4.18846
4.51811
4.92665
5.41985
5.98439
6.59633
7.28629
8.24204
9.98673
14.5364
38.1899
3.19403
3.17922
3.17501
3.18292
3.20517
3.24503
3.30658
3.39452
3.51424
3.67217
3.87621
4.13613
4.46375
4.87216
5.37041
5.94992
6.5853
7.29422
8.25784
10.0008
14.5541
38.6714
3.19081
3.17195
3.16344
3.16689
3.18472
3.22033
3.27783
3.36193
3.47806
3.63269
3.83385
4.09147
4.41753
4.82585
5.32795
5.9199
6.57645
7.30706
8.28214
10.0277
14.5966
39.1708
3.19011
3.16713
3.15449
3.15387
3.16787
3.19986
3.25394
3.33477
3.44779
3.59956
3.79822
4.05381
4.37849
4.78659
5.29164
5.89434
6.57165
7.3253
8.31461
10.0661
14.6658
39.6894
3.19258
3.16566
3.14927
3.14509
3.15576
3.18465
3.23579
3.31379
3.42409
3.5733
3.7697
4.02346
4.34693
4.75478
5.26209
5.87385
6.57048
7.34797
8.35304
10.1109
14.7402
40.2079
3.19943
3.16876
3.14905
3.14176
3.14953
3.17567
3.22419
3.29966
3.40751
3.55443
3.74878
4.00091
4.32335
4.731
5.24008
5.85938
6.57385
7.37529
8.39712
10.1619
14.8194
40.7277
3.21206
3.17769
3.15482
3.14467
3.14984
3.17353
3.21969
3.29291
3.39858
3.54345
3.736
3.98674
4.30835
4.71592
5.22643
5.85191
6.58253
7.40769
8.4471
10.2193
14.9035
41.2505
3.23149
3.19339
3.16742
3.1545
3.1573
3.17876
3.22286
3.2941
3.39789
3.541
3.73202
3.98162
4.30265
4.71031
5.22202
5.85246
6.5974
7.4457
8.50334
10.2835
14.9928
41.7774
3.25911
3.21701
3.18792
3.17231
3.17285
3.19225
3.23451
3.30407
3.40625
3.54787
3.73765
3.98641
4.30713
4.71504
5.22778
5.86209
6.61943
7.48991
8.56627
10.355
15.0876
42.3097
3.29662
3.2502
3.2178
3.1995
3.19788
3.21543
3.25597
3.32396
3.42472
3.56509
3.75392
4.00215
4.32282
4.73112
5.24472
5.8819
6.64966
7.54099
8.63638
10.4344
15.1882
42.8483
3.34599
3.2949
3.25897
3.23815
3.23428
3.25005
3.28879
3.35522
3.45464
3.59397
3.78212
4.03011
4.35094
4.75969
5.27393
5.91304
6.68921
7.59964
8.71428
10.5223
15.295
43.3943
3.40929
3.35327
3.31354
3.29011
3.28388
3.29778
3.33471
3.39953
3.49764
3.63606
3.82379
4.07178
4.39289
4.80199
5.31653
5.95673
6.73931
7.66664
8.80065
10.6195
15.4086
43.9484
3.4887
3.42756
3.38379
3.35738
3.34857
3.3605
3.3956
3.45879
3.55561
3.69324
3.88071
4.12883
4.45018
4.85934
5.3737
6.0142
6.80126
7.74286
8.89627
10.727
15.5294
44.5114
3.58681
3.5201
3.47214
3.4425
3.43082
3.44046
3.47362
3.5351
3.63064
3.76757
3.95487
4.20308
4.52438
4.9331
5.44668
6.08671
6.87647
7.82949
9.00202
10.8455
15.658
45.084
3.70607
3.63352
3.58103
3.5481
3.53367
3.54035
3.57115
3.63076
3.72501
3.86129
4.04838
4.2964
4.61711
5.02468
5.53677
6.17558
6.96657
7.92894
9.11924
10.9744
15.7949
45.6669
3.84803
3.77031
3.713
3.67662
3.66034
3.66283
3.69061
3.74812
3.84111
3.97673
4.16335
4.4106
4.72995
5.13555
5.64539
6.28225
7.07315
8.0428
9.24899
11.1142
15.941
46.2603
4.01335
3.9318
3.87033
3.82982
3.8103
3.8089
3.83387
3.88953
3.98138
4.11615
4.30174
4.54741
4.86449
5.26731
5.77421
6.40842
7.19802
8.17277
9.39239
11.2659
16.0973
46.8639
4.20211
4.11831
4.05402
4.00965
3.98554
3.98264
4.00444
4.05799
4.14831
4.28159
4.46529
4.70846
5.02245
5.42177
5.92511
6.55598
7.34317
8.32064
9.55047
11.43
16.265
47.4776
4.41386
4.32949
4.26353
4.21592
4.18854
4.18533
4.20444
4.2557
4.34384
4.47475
4.65565
4.89552
5.20574
5.601
6.10016
6.72697
7.51071
8.48833
9.72423
11.6073
16.446
48.1011
4.64777
4.56409
4.49723
4.44855
4.42106
4.41727
4.43846
4.48592
4.57041
4.6977
4.87483
5.11067
5.41657
5.80722
6.30156
6.92351
7.70275
8.67784
9.91447
11.7977
16.6423
48.7351
4.90264
4.82111
4.75576
4.70914
4.68325
4.68016
4.70221
4.74897
4.82924
4.95222
5.12495
5.35621
5.65726
6.04272
6.5315
7.14762
7.9211
8.89136
10.1256
12.0051
16.8478
49.3819
5.17885
5.1016
5.04075
4.99783
4.97475
4.97354
4.99639
5.04781
5.12463
5.24192
5.40906
5.6348
5.93021
6.30968
6.79199
7.40111
8.16731
9.13035
10.3592
12.2307
17.0613
50.0408
5.47908
5.40757
5.35198
5.31371
5.29448
5.29601
5.32063
5.37171
5.45629
5.56958
5.72961
5.94857
6.23733
6.6099
7.08468
7.6855
8.44271
9.39599
10.6163
12.4749
17.2822
50.7097
5.808
5.7415
5.69092
5.65741
5.64238
5.64718
5.67402
5.7256
5.80843
5.93092
6.08903
6.29936
6.58008
6.94464
7.41081
8.002
8.74841
9.68923
10.8979
12.7379
17.5091
51.3859
6.17287
6.1094
6.06229
6.03237
6.02057
6.02826
6.0571
6.10941
6.18918
6.30886
6.47611
6.6899
6.96023
7.31513
7.77145
8.35167
9.08535
10.0109
11.2042
13.0188
17.7397
52.0665
6.58472
6.52123
6.47476
6.44584
6.43518
6.44392
6.47332
6.52524
6.60271
6.71571
6.87821
7.09902
7.38187
7.72415
8.16894
8.73638
9.45486
10.3617
11.5358
13.3165
17.9717
52.7472
7.05798
6.9907
6.94098
6.90907
6.89583
6.90221
6.92918
6.97812
7.05144
7.15456
7.3081
7.52247
7.80835
8.17638
8.61441
9.1622
9.85969
10.7429
11.8931
13.6311
18.2039
53.4191
7.61039
7.53526
7.47757
7.43732
7.41585
7.41455
7.43428
7.47586
7.54105
7.63395
7.77324
7.97525
8.25209
8.61581
9.07641
9.63046
10.3012
11.1564
12.2789
13.9667
18.4394
54.0556
8.26362
8.177
8.10594
8.05018
8.01235
7.99524
8.00013
8.02737
8.07817
8.15616
8.27566
8.4599
8.72196
9.07482
9.5301
10.0987
10.7908
11.6111
12.7007
14.3318
18.672
54.5772
9.04578
8.94528
8.85404
8.77342
8.70923
8.66614
8.64581
8.64836
8.67495
8.72933
8.82115
8.98046
9.22096
9.55668
9.9999
10.561
11.2561
12.1143
13.1784
14.7436
18.9313
54.9639
10.0033
9.89255
9.7723
9.64978
9.54021
9.4532
9.3914
9.35444
9.3437
9.36339
9.42095
9.54634
9.75654
10.0669
10.4908
11.0375
11.7197
12.5671
13.6615
15.1917
19.2215
55.3221
11.3114
11.1764
11.0091
10.8223
10.6373
10.4706
10.3296
10.2168
10.1364
10.0946
10.0988
10.174
10.3402
10.6133
11.008
11.5327
12.1945
13.0196
14.0926
15.5997
19.5434
55.7542
14.4261
14.0512
13.6
13.1448
12.7157
12.3114
11.9389
11.6082
11.3366
11.1336
11.0046
10.9666
11.0387
11.2362
11.5735
12.0572
12.6858
13.4755
14.5072
15.96
19.8263
56.2893
36.8254
31.8597
27.384
23.6513
20.6423
18.2772
16.447
15.0453
13.9812
13.1854
12.6125
12.2389
12.0559
12.0614
12.2592
12.6474
13.2087
13.9396
14.908
16.2932
20.0727
56.8588
34.4667
17.248
15.6681
14.8768
14.3431
13.9516
13.6919
13.5558
13.5262
13.5954
13.7671
14.0446
14.4246
14.893
15.4243
15.986
16.5437
17.0698
35.1134
17.0061
15.3156
14.5189
13.9995
13.624
13.3767
13.2447
13.2122
13.266
13.4034
13.6172
13.8825
14.1537
14.3709
14.4754
14.4237
14.1975
35.6397
16.7793
15.003
14.2063
13.6968
13.3259
13.0718
12.9193
12.8487
12.8455
12.8934
12.9636
13.0013
12.9339
12.6968
12.2612
11.6468
10.9223
36.0709
16.5673
14.7171
13.9223
13.4162
13.0374
12.7586
12.5636
12.4297
12.335
12.2489
12.1177
11.869
11.4414
10.8243
10.0677
9.27083
8.55215
36.4005
16.3604
14.4481
13.6554
13.1454
12.747
12.4293
12.1762
11.9621
11.756
11.5105
11.1586
10.6411
9.95115
9.15115
8.34854
7.65757
7.15175
36.639
16.159
14.1904
13.3976
12.8772
12.4501
12.0843
11.7654
11.4641
11.1389
10.7302
10.1779
9.46678
8.65419
7.84631
7.15096
6.63812
6.32045
36.7964
15.9629
13.9406
13.1446
12.6084
12.147
11.7299
11.3444
10.9567
10.5145
9.95683
9.25218
8.4393
7.61662
6.89148
6.33603
5.96986
5.76985
36.8816
15.7715
13.697
12.8945
12.339
11.8415
11.3747
10.9272
10.4582
9.90828
9.2283
8.42804
7.58852
6.81772
6.19795
5.76153
5.49494
5.36117
36.903
15.5845
13.4587
12.6471
12.071
11.5389
11.0279
10.5254
9.98277
9.33865
8.56794
7.72157
6.90224
6.20529
5.68205
5.33395
5.13048
5.03285
36.8681
15.4018
13.2257
12.4035
11.8072
11.2448
10.6968
10.1472
9.53916
8.81655
7.98524
7.12844
6.35207
5.72978
5.28491
4.99892
4.8347
4.75694
36.784
15.2236
12.9982
12.1648
11.5507
10.9638
10.3868
9.79755
9.13208
8.3467
7.47968
6.63462
5.909
5.35334
4.96886
4.72576
4.58615
4.51969
36.6572
15.0501
12.7769
11.9326
11.3043
10.6997
10.1013
9.47846
8.76309
7.92932
7.04518
6.22391
5.54886
5.04929
4.71055
4.49699
4.37317
4.31348
36.4935
14.8817
12.5625
11.7084
11.0701
10.4545
9.84137
9.19004
8.43165
7.56184
6.67349
5.88154
5.25319
4.7996
4.49525
4.30248
4.18901
4.13363
36.298
14.7187
12.3555
11.4932
10.8494
10.2294
9.60694
8.93116
8.13603
7.24032
6.35624
5.5952
5.00829
4.59193
4.3136
4.13583
4.02943
3.9768
36.0755
14.5612
12.1564
11.2879
10.6432
10.0243
9.39688
8.7
7.87392
6.9604
6.08587
5.3551
4.80416
4.41783
4.15937
3.99259
3.89139
3.84034
35.8298
14.4095
11.9657
11.0929
10.4514
9.83849
9.20955
8.49454
7.64279
6.71783
5.85588
5.15353
4.63342
4.27133
4.02829
3.86981
3.77244
3.72237
35.5646
14.2638
11.7834
10.9083
10.2738
9.67086
9.04308
8.31273
7.44019
6.50869
5.66084
4.98446
4.49055
4.14815
3.91724
3.76519
3.67073
3.62138
35.2825
14.1241
11.6097
10.7341
10.1098
9.51993
8.89552
8.15263
7.26379
6.32954
5.49621
4.84311
4.37136
4.04503
3.82383
3.67689
3.58471
3.53587
34.9862
13.9904
11.4445
10.5699
9.95838
9.38412
8.76503
8.01245
7.11148
6.17732
5.35826
4.72567
4.27258
3.9594
3.74605
3.60322
3.51285
3.46428
34.6774
13.8628
11.2878
10.4154
9.81862
9.26186
8.64993
7.89066
6.98128
6.04939
5.24384
4.62905
4.19154
3.88914
3.68215
3.54259
3.45357
3.40501
34.3579
13.7412
11.1392
10.27
9.68945
9.15163
8.54885
7.78587
6.8712
5.94344
5.15032
4.55071
4.12604
3.83239
3.63045
3.4934
3.4053
3.35645
34.0286
13.6256
10.9986
10.1331
9.56982
9.05201
8.46028
7.69689
6.77984
5.85728
5.0755
4.48852
4.07424
3.7875
3.58946
3.45417
3.3665
3.31712
33.6908
13.5159
10.8657
10.0043
9.45873
8.9617
8.38287
7.62249
6.7059
5.78923
5.01754
4.44079
4.03466
3.7533
3.558
3.42367
3.33612
3.28609
33.3437
13.4123
10.7403
9.88299
9.35524
8.8795
8.31539
7.56147
6.64822
5.73794
4.97497
4.40619
4.00639
3.72877
3.53501
3.40111
3.3133
3.26245
32.9893
13.3152
10.6224
9.76868
9.25848
8.8043
8.25668
7.51273
6.60585
5.70236
4.94665
4.38393
3.98832
3.71281
3.51974
3.3857
3.29719
3.24518
32.6323
13.2297
10.5131
9.66122
9.16752
8.73461
8.20518
7.47559
6.57923
5.68208
4.93203
4.37337
3.97994
3.70501
3.51173
3.37686
3.28702
3.23327
32.2853
13.1707
10.4155
9.56122
9.08186
8.66885
8.15791
7.44575
6.56486
5.67829
4.93336
4.37632
3.98261
3.7064
3.5116
3.37486
3.28279
3.22642
31.946
13.1372
10.3302
9.46863
9.00107
8.60635
8.11404
7.42209
6.56153
5.6887
4.94915
4.39201
3.9959
3.71671
3.51891
3.37912
3.2838
3.22386
31.6123
13.1261
10.2576
9.38361
8.92493
8.54656
8.07286
7.40353
6.56785
5.71209
4.97846
4.41964
4.01908
3.73524
3.5329
3.38875
3.28908
3.22462
31.2823
13.1367
10.1985
9.3065
8.85336
8.48914
8.03398
7.38932
6.58212
5.74696
5.02036
4.45902
4.0518
3.76127
3.55292
3.40312
3.29805
3.22821
30.9546
13.1685
10.1537
9.23786
8.78652
8.43398
7.99697
7.37877
6.60298
5.79167
5.07399
4.50997
4.09471
3.79535
3.57908
3.42229
3.31082
3.235
30.6274
13.2213
10.1242
9.17843
8.72479
8.38117
7.96155
7.37105
6.62912
5.8448
5.13842
4.57232
4.14822
3.83851
3.61263
3.44744
3.3286
3.24624
30.2995
13.2946
10.1111
9.1292
8.66876
8.331
7.92762
7.36545
6.65926
5.90485
5.2126
4.64583
4.21276
3.89159
3.65472
3.47989
3.35273
3.2633
29.9693
13.3885
10.1159
9.09142
8.61934
8.28405
7.89527
7.36142
6.69222
5.97032
5.29534
4.73008
4.2887
3.95554
3.70659
3.52096
3.38454
3.28738
29.6355
13.5029
10.1402
9.06667
8.57772
8.2412
7.86491
7.35866
6.72698
6.03975
5.3853
4.82441
4.37624
4.03127
3.76959
3.57221
3.42561
3.32
29.2967
13.6381
10.1859
9.05682
8.54546
8.20366
7.83725
7.35717
6.76277
6.11179
5.48106
4.92795
4.47534
4.11952
3.84505
3.63532
3.47771
3.36293
28.9516
13.7943
10.255
9.06411
8.52451
8.17306
7.8134
7.35732
6.79916
6.18528
5.58115
5.03954
4.5856
4.22079
3.93417
3.71194
3.54266
3.41811
28.5986
13.9717
10.3499
9.09117
8.51723
8.15144
7.79492
7.35997
6.83614
6.25938
5.68421
5.15785
4.70629
4.33514
4.03785
3.80368
3.62251
3.48742
28.2364
14.1706
10.4731
9.14101
8.52646
8.14134
7.7839
7.36652
6.87429
6.33374
5.78911
5.28148
4.83631
4.46224
4.15663
3.91168
3.71925
3.57331
27.8633
14.3914
10.6272
9.21708
8.55553
8.14582
7.78299
7.37902
6.91484
6.40862
5.89518
5.40919
4.9744
4.60128
4.29036
4.03674
3.8342
3.67813
27.4775
14.6343
10.8154
9.32326
8.60824
8.16848
7.79547
7.40024
6.95982
6.48507
6.00239
5.54007
5.11929
4.75125
4.43854
4.17896
3.96827
3.80345
27.0771
14.8992
11.0405
9.46375
8.68882
8.21331
7.82515
7.43364
7.01211
6.5651
6.1116
5.67389
5.2701
4.91088
4.60031
4.33802
4.12181
3.95019
26.6599
15.1859
11.306
9.64327
8.80201
8.2846
7.87623
7.48333
7.07545
6.6517
6.22474
5.81139
5.42638
5.07927
4.77451
4.51318
4.29461
4.1187
26.2235
15.4934
11.6148
9.86708
8.9539
8.38776
7.95315
7.5538
7.15431
6.74888
6.3449
5.95446
5.58888
5.25604
4.96032
4.70353
4.48603
4.30879
25.765
15.8202
11.9682
10.1403
9.15133
8.53004
8.06194
7.65007
7.25367
6.86151
6.47644
6.10639
5.75953
5.44196
5.15761
4.90842
4.69529
4.51983
25.2808
16.1643
12.3671
10.467
9.40052
8.71899
8.21039
7.77837
7.37927
6.9953
6.6247
6.27186
5.94178
5.63921
5.36732
5.12786
4.92185
4.75109
24.7667
16.5216
12.8118
10.8507
9.70699
8.9614
8.4072
7.94732
7.53801
7.15669
6.79647
6.45685
6.14081
5.85171
5.59203
5.36316
5.16603
5.00214
24.2178
16.8869
13.3006
11.2934
10.0749
9.26299
8.65967
8.16671
7.73921
7.35491
6.99976
6.66909
6.36362
6.08546
5.8364
5.61757
5.42969
5.27342
23.6273
17.2525
13.8284
11.7938
10.506
9.62767
8.97345
8.44519
7.99482
7.6005
7.24469
6.91821
6.61935
6.34878
6.10767
5.89692
5.71714
5.56776
22.9843
17.6072
14.3847
12.3453
10.9979
10.0566
9.35203
8.78827
8.31744
7.90758
7.54397
7.21636
6.91953
6.65259
6.41589
6.21008
6.03537
5.89153
22.2751
17.9346
14.9515
12.9338
11.543
10.5473
9.79651
9.20505
8.7152
8.29032
7.91389
7.57864
7.27854
7.01048
6.77386
6.56889
6.39508
6.25378
21.474
18.2106
15.5006
13.5364
12.1266
11.0927
10.3111
9.69931
9.19401
8.7572
8.36899
8.02191
7.71285
7.43836
7.19666
6.98733
6.81009
6.66642
20.5487
18.3927
15.9912
14.121
12.7269
11.6831
10.8949
10.2727
9.75786
9.31313
8.91708
8.55968
8.23856
7.95282
7.7008
7.48151
7.29576
7.14431
19.4431
18.4386
16.3773
14.6474
13.3135
12.3117
11.5413
10.9243
10.4086
9.96093
9.56095
9.19765
8.86674
8.56827
8.30236
8.06901
7.86964
7.70515
18.0637
18.322
16.634
15.0857
13.8791
12.9618
12.2404
11.6488
11.1444
10.7008
10.3015
9.93657
9.60106
9.29354
9.01477
8.76649
8.55075
8.36965
16.269
17.9263
16.7342
15.4503
14.4311
13.6327
12.9849
12.4372
11.9585
11.5292
11.1377
10.7768
10.4423
10.1324
9.84702
9.58807
9.35835
9.16237
13.8747
16.9638
16.5869
15.8068
15.0433
14.3775
13.807
13.3101
12.8656
12.4593
12.0827
11.7315
11.4034
11.0974
10.8136
10.5543
10.321
10.1212
10.4365
15.1246
16.1617
16.1615
15.7955
15.3203
14.8489
14.4111
14.0058
13.6278
13.2723
12.9376
12.6239
12.3318
12.0628
11.8211
11.6067
11.4316
9.38686
13.0308
15.4488
16.5475
16.9053
16.8241
16.5966
16.3297
16.0622
15.8109
15.5705
15.341
15.1265
14.93
14.756
14.6156
14.4954
14.5701
11.2885
18.8202
26.4722
29.9594
32.1598
33.7709
34.8951
35.7083
36.3447
36.876
37.3171
37.6925
38.036
38.383
38.7836
39.3007
40.1125
41.3126
37.0751
49.1537
46.289
39.9904
33.145
27.4664
23.1171
19.8824
17.5289
15.8235
14.6005
13.7478
13.2042
12.9404
12.9412
13.1927
13.6623
14.3229
15.2263
16.5514
20.246
57.3111
32.1838
41.5596
53.4909
53.1508
46.8982
39.2885
32.3361
26.6891
22.4768
19.4366
17.2794
15.7648
14.7279
14.086
13.8006
13.8456
14.1745
14.7329
15.5533
16.8137
20.4272
57.5674
21.7921
25.9417
25.001
36.1767
42.8249
42.2175
37.9563
32.4745
27.3455
23.2212
20.1793
18.0145
16.4944
15.4563
14.841
14.6244
14.7632
15.1824
15.8955
17.0785
20.6164
57.7457
20.6731
20.029
20.5758
21.1591
24.43
29.8053
33.4667
33.2211
30.2984
26.5278
23.1187
20.4769
18.5613
17.1986
16.2637
15.7363
15.61
15.8142
16.3531
17.4069
20.8393
57.8912
9.63578
9.92377
10.2685
11.1531
13.2457
17.1453
22.5105
27.1709
28.7761
27.4424
24.7567
22.0849
19.9989
18.5108
17.4689
16.7852
16.4653
16.4706
16.818
17.7204
21.0464
57.967
7.58527
7.77162
8.04425
8.50098
9.43407
11.3306
14.6949
19.3445
23.726
25.7026
24.9716
22.9032
20.8292
19.3018
18.2613
17.5808
17.2043
17.0897
17.2649
18.0084
21.2323
57.9752
6.72514
6.82782
6.99149
7.25839
7.75535
8.74853
10.6553
13.7998
18.0073
21.933
23.6397
22.9506
21.2263
19.6803
18.6551
18.0494
17.7335
17.6047
17.6614
18.2577
21.3919
57.9254
6.1261
6.20329
6.32593
6.51369
6.82673
7.41317
8.55108
10.5868
13.7424
17.7379
21.0978
22.1787
21.271
19.8195
18.7647
18.2186
18.0177
17.9665
17.9778
18.4565
21.5231
57.8202
5.64374
5.71218
5.81693
5.97014
6.20329
6.60027
7.33996
8.70374
10.986
14.3099
18.1282
20.7042
20.9684
19.8476
18.7281
18.1744
18.0753
18.1551
18.1937
18.5971
21.6256
57.6623
5.23802
5.30393
5.40118
5.53771
5.73256
6.03601
6.56332
7.52535
9.20604
11.8504
15.4207
18.8327
20.3256
19.7956
18.6686
18.0302
17.9606
18.1733
18.2986
18.6722
21.6713
57.4063
4.89376
4.95775
5.05101
5.17901
5.35385
5.60773
6.01727
6.73689
8.01283
10.126
13.2498
16.9087
19.409
19.655
18.6481
17.857
17.7524
18.0528
18.2928
18.6813
21.6681
57.0644
4.60116
4.66287
4.75281
4.87524
5.03849
5.26399
5.60501
6.17532
7.17853
8.89633
11.5945
15.1697
18.3352
19.422
18.6642
17.7052
17.4995
17.8425
18.1917
18.6282
21.6236
56.6526
4.3519
4.41089
4.4975
4.61537
4.77075
4.97863
5.27758
5.75331
6.57125
7.9969
10.3421
13.7077
17.226
19.1047
18.7224
17.6353
17.2527
17.5789
18.015
18.519
21.5444
56.1867
4.13911
4.1951
4.27828
4.39195
4.54118
4.7372
5.00879
5.42226
6.11349
7.32389
9.38553
12.5186
16.1718
18.7135
18.8054
17.6426
17.0247
17.2903
17.784
18.3629
21.4391
55.6779
3.95724
4.01013
4.08984
4.19951
4.34347
4.53064
4.78336
5.15439
5.75747
6.8097
8.64599
11.5625
15.2238
18.2701
18.8928
17.7157
16.8281
16.9947
17.5194
18.172
21.3138
55.1352
3.80185
3.85168
3.92801
4.03382
4.17301
4.353
4.59164
4.93322
5.47403
6.40924
8.06737
10.7937
14.4021
17.8054
18.9712
17.8441
16.6821
16.7097
17.2384
17.9569
21.1729
54.5675
3.66935
3.7163
3.78939
3.89149
4.02622
4.19999
4.4278
4.74811
5.24428
6.09216
7.60994
10.1741
13.7039
17.3459
19.0301
18.0153
16.6061
16.4461
16.9523
17.7266
21.0205
53.9826
3.55686
3.60116
3.67119
3.76973
3.90016
4.06816
4.288
4.59269
5.05578
5.83765
7.24515
9.67362
13.1172
16.9097
19.063
18.2126
16.588
16.2094
16.668
17.4879
20.8604
53.3874
3.46199
3.50389
3.57106
3.66616
3.79234
3.95551
4.16891
4.46183
4.89999
5.63115
6.9522
9.26938
12.6274
16.5079
19.0687
18.4204
16.6067
15.9917
16.3905
17.2457
20.6952
52.7881
3.38268
3.42247
3.48697
3.57876
3.70095
3.86008
4.06838
4.35201
4.77093
5.46246
6.71582
8.94363
12.2213
16.1455
19.0501
18.6291
16.6519
15.792
16.1215
17.0041
20.5271
52.19
3.31717
3.35511
3.41715
3.5057
3.62475
3.78027
3.98399
4.2606
4.66487
5.32583
6.52651
8.6808
11.8874
15.8247
19.0118
18.8324
16.7169
15.6073
15.8627
16.7658
20.3573
51.5974
3.26386
3.30024
3.35993
3.44585
3.56184
3.71417
3.91411
4.18494
4.57848
5.21674
6.37634
8.47044
11.6142
15.5479
18.9599
19.0244
16.7952
15.4377
15.6148
16.5325
20.1871
51.0135
3.22134
3.25635
3.31412
3.39766
3.51119
3.6608
3.85724
4.12305
4.5088
5.13101
6.2591
8.30439
11.3924
15.3131
18.8992
19.2005
16.8818
15.2841
15.3781
16.3053
20.0172
50.4406
3.18827
3.22227
3.27853
3.36033
3.47181
3.61892
3.81215
4.07351
4.45282
5.0644
6.17126
8.17617
11.2146
15.1165
18.8335
19.3572
16.9723
15.1464
15.1526
16.0846
19.8481
49.8801
3.16361
3.19708
3.25242
3.33291
3.44263
3.58748
3.7778
4.0352
4.40921
5.01432
6.10817
8.0804
11.0746
14.9541
18.7656
19.4929
17.0629
15.024
14.938
15.8708
19.6801
49.3334
3.1466
3.18001
3.2349
3.31446
3.42276
3.56562
3.75327
4.00712
4.37681
4.97792
6.06545
8.01274
10.9672
14.8232
18.6981
19.6072
17.1505
14.9159
14.7339
15.6638
19.5136
48.8011
3.13646
3.17029
3.22518
3.30425
3.41144
3.55252
3.73767
3.98835
4.35457
4.95347
6.04005
7.96926
10.888
14.7201
18.6323
19.7007
17.2329
14.8209
14.5399
15.4637
19.3487
48.2837
3.13259
3.16728
3.22262
3.30156
3.40791
3.5474
3.73023
3.97806
4.34161
4.93997
6.02933
7.9462
10.8342
14.6413
18.5694
19.7743
17.3082
14.7396
14.3546
15.2703
19.1856
47.7811
3.13442
3.17041
3.22661
3.30574
3.41149
3.54955
3.73023
3.97552
4.33714
4.93641
6.03063
7.94052
10.8037
14.5832
18.5099
19.829
17.3753
14.6693
14.1775
15.0827
19.0242
47.2936
3.14152
3.17921
3.23658
3.31616
3.42152
3.55832
3.737
3.98004
4.34044
4.94195
6.04293
7.95019
10.7931
14.543
18.4538
19.8662
17.4337
14.6077
14.0082
14.8996
18.8646
46.821
3.15346
3.19314
3.25197
3.33225
3.4374
3.57308
3.74991
3.99099
4.35085
4.95586
6.06536
7.9735
10.7996
14.5179
18.4012
19.8874
17.4827
14.5504
13.8459
14.7213
18.7068
46.3632
3.16968
3.21163
3.27218
3.3534
3.45853
3.59323
3.76838
4.00781
4.36779
4.97747
6.09712