/*--------------------------------*- C++ -*----------------------------------*\
| =========                 |                                                 |
| \\      /  F ield         | OpenFOAM: The Open Source CFD Toolbox           |
|  \\    /   O peration     | Version:  v2012                                 |
|   \\  /    A nd           | Website:  www.openfoam.com                      |
|    \\/     M anipulation  |                                                 |
\*---------------------------------------------------------------------------*/
FoamFile
{
    version     2.0;
    format      ascii;
    class       volScalarField;
    location    "765";
    object      p;
}
// * * * * * * * * * * * * * * * * * * * * * * * * * * * * * * * * * * * * * //

dimensions      [0 2 -2 0 0 0 0];


internalField   nonuniform List<scalar> 
6066
(
2.19358
2.19636
2.19848
2.20006
2.20125
2.20215
2.20283
2.20336
2.20379
2.20415
2.20447
2.20475
2.20501
2.20525
2.2055
2.20574
2.20598
2.20628
2.20677
2.20747
2.19351
2.19638
2.19854
2.20015
2.20131
2.20218
2.20286
2.20339
2.20382
2.20418
2.2045
2.20478
2.20505
2.2053
2.20555
2.2058
2.20604
2.20629
2.20659
2.20684
2.19412
2.19691
2.19897
2.20047
2.20154
2.20233
2.20295
2.20344
2.20385
2.20419
2.2045
2.20478
2.20504
2.20529
2.20554
2.20577
2.206
2.20623
2.20642
2.2065
2.19554
2.19807
2.19985
2.20111
2.202
2.20266
2.20317
2.20359
2.20393
2.20424
2.20452
2.20478
2.20503
2.20528
2.20551
2.20574
2.20595
2.20615
2.20631
2.20636
2.19778
2.19983
2.20117
2.20205
2.20267
2.20312
2.20349
2.2038
2.20407
2.20433
2.20458
2.20481
2.20505
2.20528
2.20551
2.20572
2.20593
2.20612
2.20626
2.2063
2.20085
2.20214
2.20284
2.20322
2.20347
2.20367
2.20386
2.20404
2.20424
2.20444
2.20465
2.20486
2.20508
2.2053
2.20552
2.20573
2.20594
2.20613
2.20626
2.2063
2.20478
2.20494
2.20476
2.20452
2.20433
2.20424
2.20424
2.2043
2.20441
2.20456
2.20473
2.20492
2.20512
2.20534
2.20555
2.20576
2.20597
2.20617
2.20632
2.20637
2.20964
2.20809
2.20677
2.20577
2.20513
2.20476
2.20457
2.20452
2.20457
2.20467
2.20481
2.20499
2.20518
2.20538
2.2056
2.20581
2.20603
2.20625
2.20643
2.20651
2.21527
2.21113
2.20844
2.20672
2.20569
2.20509
2.20478
2.20466
2.20466
2.20474
2.20486
2.20502
2.20521
2.20541
2.20562
2.20584
2.20607
2.20631
2.2066
2.20686
2.21996
2.21305
2.20924
2.2071
2.20586
2.20517
2.20482
2.20467
2.20465
2.20472
2.20483
2.20499
2.20516
2.20536
2.20556
2.20578
2.20601
2.2063
2.20679
2.20749
2.15041
2.13798
2.12808
2.12054
2.11525
2.11209
2.11089
2.11151
2.11376
2.11744
2.12235
2.12824
2.13486
2.14198
2.14932
2.15665
2.16373
2.17036
2.17638
2.18167
2.18624
2.19016
2.14912
2.13682
2.12686
2.11918
2.11373
2.11041
2.10907
2.10957
2.11172
2.11535
2.12024
2.12616
2.13287
2.14012
2.14764
2.1552
2.16254
2.16944
2.17572
2.18124
2.18599
2.19
2.14527
2.13307
2.12321
2.11562
2.11024
2.10701
2.10577
2.10637
2.10866
2.11246
2.11757
2.12377
2.13079
2.13839
2.1463
2.15426
2.16202
2.16931
2.17592
2.1817
2.1866
2.19065
2.1385
2.12653
2.11691
2.10958
2.10448
2.10154
2.10064
2.10159
2.10426
2.10848
2.11408
2.12082
2.12844
2.13666
2.14523
2.15387
2.16226
2.17012
2.17718
2.18324
2.18825
2.19225
2.12878
2.11722
2.10805
2.10119
2.09656
2.09411
2.0938
2.09535
2.09858
2.10346
2.10982
2.11738
2.12586
2.13498
2.14447
2.15405
2.16332
2.17195
2.17959
2.18599
2.19105
2.19486
2.11616
2.10522
2.09665
2.09039
2.08637
2.08459
2.08519
2.0876
2.09154
2.0973
2.10463
2.11333
2.12297
2.13327
2.14398
2.15481
2.1653
2.17495
2.1834
2.1902
2.1952
2.19859
2.10075
2.09053
2.08258
2.07704
2.07394
2.07312
2.07462
2.0782
2.08345
2.09016
2.09858
2.10865
2.11981
2.13165
2.14383
2.1563
2.16852
2.17953
2.189
2.19623
2.20092
2.20355
2.08285
2.07349
2.06651
2.06194
2.05975
2.05985
2.06218
2.06666
2.07316
2.08143
2.09141
2.10312
2.1162
2.12994
2.14386
2.15828
2.17276
2.18536
2.19612
2.20398
2.20839
2.20998
2.0633
2.05496
2.04905
2.04553
2.04432
2.04535
2.04853
2.05386
2.06129
2.07072
2.08205
2.09517
2.10984
2.12571
2.14239
2.15949
2.17617
2.19137
2.20456
2.21481
2.21988
2.21878
2.04343
2.03623
2.03143
2.02898
2.02883
2.03094
2.03527
2.04178
2.05039
2.06102
2.07369
2.08832
2.10478
2.12306
2.14309
2.1644
2.18558
2.20575
2.22387
2.23761
2.24005
2.22782
2.63362
2.6316
2.63073
2.63074
2.62903
2.6196
2.59617
2.56127
2.51975
2.47478
2.42847
2.3824
2.33784
2.29577
2.25688
2.2218
2.19164
2.16755
2.63297
2.63047
2.63052
2.63162
2.62954
2.61749
2.5923
2.55792
2.51725
2.47303
2.4273
2.38164
2.33735
2.29543
2.25661
2.22158
2.19133
2.1666
2.63337
2.63044
2.63076
2.63066
2.62483
2.60882
2.58249
2.54866
2.5091
2.46602
2.42123
2.37631
2.33255
2.29102
2.2525
2.21774
2.18767
2.16282
2.63597
2.63236
2.63081
2.62654
2.61581
2.59672
2.56969
2.53612
2.49738
2.45525
2.41132
2.3671
2.32388
2.28278
2.24464
2.21023
2.18045
2.15581
2.64006
2.63485
2.62955
2.62031
2.60513
2.58337
2.55523
2.5214
2.48295
2.44133
2.39794
2.35421
2.31144
2.27077
2.23307
2.19912
2.16978
2.14562
2.64353
2.63546
2.62589
2.61195
2.59288
2.56853
2.53888
2.50435
2.46574
2.42423
2.38108
2.33766
2.29524
2.25499
2.21781
2.18445
2.15576
2.1323
2.64392
2.63253
2.61906
2.60095
2.57854
2.55173
2.52045
2.48493
2.44581
2.40407
2.3609
2.3176
2.27544
2.23561
2.19902
2.16641
2.13856
2.11603
2.63936
2.62526
2.60862
2.5871
2.5619
2.53287
2.49991
2.4632
2.42329
2.38106
2.33762
2.29427
2.25231
2.21293
2.17703
2.14533
2.11854
2.09713
2.63029
2.61362
2.59452
2.57039
2.54289
2.51187
2.47725
2.43924
2.39834
2.35538
2.3115
2.26801
2.22626
2.18744
2.15243
2.12187
2.0964
2.07638
2.61707
2.59782
2.5769
2.55084
2.52146
2.48868
2.45249
2.41314
2.37113
2.32732
2.28292
2.23934
2.19796
2.15998
2.12622
2.09719
2.07342
2.05511
2.02442
2.0186
2.01513
2.01396
2.01506
2.0184
2.02388
2.03137
2.04076
2.05209
2.06545
2.08071
2.09761
2.11605
2.1359
2.15659
2.1771
2.19692
2.21555
2.22897
2.2288
2.21601
2.00842
2.00412
2.00195
2.00188
2.00388
2.0079
2.01394
2.02197
2.03195
2.04383
2.05763
2.07328
2.09067
2.10966
2.12997
2.15091
2.17155
2.19126
2.20901
2.22098
2.22216
2.21664
1.99451
1.99101
1.98942
1.98976
1.99206
1.99632
2.00256
2.01077
2.02091
2.03294
2.04677
2.06229
2.07935
2.09774
2.1172
2.13723
2.1572
2.17644
2.19377
2.20648
2.2115
2.21063
1.98096
1.97782
1.97652
1.9771
1.97959
1.984
1.99035
1.99864
2.00882
2.02084
2.0346
2.04995
2.06669
2.08453
2.10317
2.12219
2.14107
2.15918
2.17557
2.18882
2.19722
2.19978
1.96717
1.96425
1.96313
1.96385
1.96644
1.9709
1.97726
1.98549
1.99557
2.00741
2.02091
2.03591
2.05213
2.06926
2.08701
2.10503
2.12285
2.13986
2.1553
2.16854
2.17847
2.18268
1.95313
1.95039
1.94941
1.95022
1.95283
1.95728
1.96356
1.97165
1.98152
1.99308
2.00623
2.0208
2.03645
2.05284
2.06972
2.08675
2.1035
2.11942
2.13387
2.14651
2.15658
2.16124
1.93899
1.93641
1.93552
1.93638
1.93897
1.94334
1.94947
1.95734
1.96691
1.9781
1.99081
2.00485
2.01987
2.03551
2.05154
2.06765
2.0834
2.09828
2.11168
2.12335
2.13275
2.13725
1.92493
1.92248
1.92168
1.92254
1.92508
1.92931
1.93523
1.94282
1.95203
1.96277
1.97497
1.98842
2.00275
2.01762
2.03282
2.04805
2.06285
2.07674
2.08911
2.09966
2.10807
2.11212
1.91114
1.9088
1.90804
1.90889
1.91133
1.91539
1.92106
1.92832
1.93711
1.94737
1.95899
1.9718
1.98542
1.99951
2.01389
2.02827
2.04217
2.05512
2.06649
2.07595
2.0833
2.08683
1.89775
1.89552
1.89479
1.8956
1.89792
1.90178
1.90717
1.91406
1.9224
1.93213
1.94314
1.95528
1.96818
1.9815
1.99508
2.00862
2.02167
2.03372
2.04416
2.05263
2.05901
2.062
1.8849
1.88276
1.88206
1.8828
1.88499
1.88863
1.89372
1.90022
1.90809
1.91726
1.92765
1.9391
1.95128
1.96385
1.97665
1.98939
2.00161
2.01282
2.02241
2.03002
2.03555
2.03807
1.8727
1.87064
1.86995
1.87063
1.87267
1.87608
1.88084
1.88694
1.89433
1.90295
1.9127
1.92346
1.93493
1.94678
1.95885
1.97083
1.98227
1.99267
2.00149
2.00835
2.01318
2.0153
1.86122
1.85924
1.85855
1.85916
1.86105
1.86422
1.86867
1.87436
1.88127
1.88933
1.89847
1.90854
1.91931
1.93049
1.94187
1.95313
1.96384
1.97348
1.9816
1.98783
1.99209
1.99388
1.85054
1.84863
1.84794
1.84847
1.8502
1.85315
1.85728
1.86258
1.86901
1.87653
1.88506
1.89447
1.90457
1.91513
1.92586
1.93646
1.94647
1.95544
1.96294
1.96861
1.97239
1.97392
1.84068
1.83884
1.83815
1.8386
1.84019
1.84291
1.84674
1.85166
1.85765
1.86464
1.87258
1.88135
1.89086
1.90083
1.91096
1.92094
1.93031
1.93866
1.94561
1.9508
1.95418
1.9555
1.83167
1.82989
1.8292
1.82958
1.83103
1.83354
1.83709
1.84166
1.84722
1.85371
1.86109
1.86933
1.8783
1.8877
1.89726
1.90666
1.91545
1.92323
1.92967
1.93446
1.9375
1.93866
1.82353
1.8218
1.82111
1.82143
1.82276
1.82508
1.82837
1.8326
1.83775
1.84379
1.85071
1.8585
1.86694
1.87578
1.88479
1.89367
1.90193
1.90919
1.91518
1.91962
1.92237
1.92341
1.81624
1.81458
1.81389
1.81416
1.81537
1.81751
1.82057
1.82449
1.82928
1.83496
1.84154
1.84889
1.8568
1.86509
1.8736
1.88199
1.88977
1.89656
1.90214
1.90629
1.90881
1.90975
1.80982
1.80821
1.80753
1.80775
1.80887
1.81085
1.81369
1.81734
1.82188
1.82733
1.83357
1.84046
1.84785
1.85564
1.86366
1.8716
1.87896
1.88534
1.89056
1.89445
1.89678
1.89766
1.80424
1.80269
1.80202
1.80221
1.80324
1.80508
1.80774
1.81126
1.81566
1.82085
1.82671
1.83315
1.84008
1.8474
1.85495
1.86249
1.86948
1.87551
1.88043
1.8841
1.88628
1.88713
1.79951
1.79802
1.79736
1.79752
1.79848
1.80024
1.80283
1.80629
1.81051
1.8154
1.8209
1.82694
1.83346
1.84034
1.84748
1.85463
1.86132
1.86706
1.87172
1.87522
1.87728
1.87812
1.79562
1.79418
1.79354
1.79369
1.79464
1.79641
1.79898
1.8023
1.80629
1.81091
1.8161
1.82182
1.82797
1.83447
1.84122
1.84803
1.85445
1.85996
1.8644
1.86777
1.86975
1.87061
1.79257
1.79119
1.79061
1.79079
1.79178
1.79353
1.79601
1.79917
1.80296
1.80736
1.81231
1.81774
1.82358
1.82976
1.83618
1.84267
1.84886
1.85418
1.85846
1.86174
1.86367
1.86456
1.79037
1.78906
1.78854
1.78878
1.78975
1.79145
1.79383
1.79687
1.80052
1.80474
1.80948
1.81469
1.82029
1.8262
1.83233
1.83855
1.84454
1.84972
1.85388
1.85709
1.859
1.85996
1.78897
1.78773
1.78725
1.78749
1.78846
1.79011
1.79243
1.79538
1.79892
1.80302
1.80762
1.81266
1.81807
1.82377
1.82966
1.83565
1.84148
1.84654
1.85063
1.85382
1.85573
1.85678
1.78834
1.78712
1.78666
1.78692
1.78787
1.78951
1.7918
1.7947
1.79818
1.80219
1.8067
1.81163
1.81691
1.82246
1.82818
1.83398
1.83967
1.84466
1.8487
1.8519
1.85385
1.85499
1.78842
1.78722
1.78678
1.78704
1.78801
1.78965
1.79194
1.79483
1.79829
1.80227
1.80673
1.81161
1.81682
1.82227
1.82787
1.83354
1.83911
1.84405
1.84809
1.85133
1.85335
1.8546
1.78921
1.78803
1.78759
1.78788
1.78887
1.79053
1.79285
1.79576
1.79925
1.80325
1.80772
1.81259
1.81777
1.82319
1.82872
1.83431
1.83979
1.84472
1.8488
1.8521
1.85419
1.8556
1.79072
1.78954
1.78912
1.78943
1.79046
1.79217
1.79454
1.79752
1.80107
1.80514
1.80966
1.81457
1.81978
1.82521
1.83074
1.83628
1.8417
1.84667
1.85083
1.85421
1.8564
1.85797
1.79297
1.79178
1.79138
1.79172
1.7928
1.79459
1.79705
1.80013
1.80378
1.80795
1.81256
1.81756
1.82285
1.82834
1.83391
1.83947
1.84486
1.8499
1.85417
1.85765
1.85997
1.8617
1.79598
1.79481
1.79441
1.79479
1.79593
1.79782
1.80039
1.80359
1.80738
1.81168
1.81644
1.82157
1.82698
1.83258
1.83825
1.84387
1.8493
1.85441
1.85881
1.86242
1.86487
1.86682
1.79969
1.79857
1.79823
1.79865
1.79986
1.80185
1.80456
1.80792
1.81187
1.81635
1.82128
1.82658
1.83217
1.83792
1.84374
1.84948
1.855
1.86022
1.86474
1.86852
1.87114
1.87331
1.8041
1.803
1.80275
1.80328
1.80458
1.80668
1.80955
1.8131
1.81725
1.82194
1.82709
1.83261
1.83841
1.84438
1.85039
1.85631
1.86198
1.86733
1.87199
1.87596
1.87878
1.88119
1.80924
1.80814
1.80795
1.80862
1.81006
1.81231
1.81536
1.81913
1.82352
1.82845
1.83386
1.83965
1.84572
1.85194
1.85821
1.86436
1.87023
1.87574
1.88057
1.88475
1.8878
1.89047
1.81513
1.81402
1.81386
1.81464
1.81627
1.81871
1.82198
1.82599
1.83065
1.83588
1.8416
1.8477
1.85408
1.86063
1.8672
1.87363
1.87975
1.88547
1.8905
1.89492
1.89821
1.90118
1.82176
1.82062
1.82049
1.82135
1.82316
1.82585
1.82938
1.83367
1.83865
1.84422
1.85028
1.85676
1.86351
1.87043
1.87736
1.88413
1.89057
1.89653
1.90177
1.90646
1.91002
1.91331
1.82911
1.82793
1.82782
1.82877
1.83075
1.8337
1.83753
1.84216
1.84749
1.85344
1.85992
1.86682
1.87401
1.88135
1.8887
1.89587
1.90267
1.90892
1.91442
1.91939
1.92325
1.9269
1.83716
1.83594
1.83585
1.83688
1.83902
1.84222
1.8464
1.85143
1.85717
1.86356
1.8705
1.87788
1.88556
1.89339
1.90121
1.90883
1.91605
1.92262
1.92845
1.93375
1.9379
1.94195
1.8459
1.84463
1.84455
1.84567
1.84797
1.85144
1.85599
1.86145
1.86766
1.87454
1.88201
1.88993
1.89816
1.90654
1.91489
1.92301
1.9307
1.93765
1.94386
1.94951
1.95398
1.95845
1.85529
1.85395
1.85389
1.8551
1.85758
1.86133
1.86628
1.87221
1.87893
1.88637
1.89442
1.90295
1.9118
1.92078
1.92972
1.9384
1.94661
1.95401
1.96064
1.96665
1.97146
1.97639
1.8653
1.86388
1.86382
1.86513
1.86781
1.87187
1.87724
1.88366
1.89094
1.899
1.9077
1.91691
1.92643
1.93608
1.94567
1.95499
1.96378
1.97172
1.97877
1.98513
1.99032
1.99577
1.87587
1.87437
1.87431
1.87572
1.87862
1.88302
1.88882
1.89577
1.90366
1.91239
1.92181
1.93175
1.94201
1.95241
1.96273
1.97274
1.98218
1.99072
1.99824
2.00496
2.01055
2.01657
1.88695
1.88534
1.88527
1.8868
1.88996
1.89473
1.90098
1.90847
1.91702
1.92648
1.93667
1.94742
1.9585
1.96972
1.98083
1.99161
2.00176
2.01097
2.01901
2.02612
2.03212
2.03875
1.89845
1.89671
1.89664
1.89829
1.90172
1.90687
1.9136
1.92168
1.93094
1.94118
1.95222
1.96384
1.97583
1.98793
1.99992
2.01153
2.02248
2.03241
2.04099
2.04856
2.05499
2.06226
1.91025
1.90836
1.90828
1.91005
1.91371
1.91926
1.92653
1.93527
1.9453
1.95641
1.96837
1.98095
1.9939
2.00699
2.01993
2.03244
2.04423
2.05493
2.06409
2.07217
2.07906
2.08696
1.92223
1.92015
1.91997
1.92179
1.92573
1.93174
1.93961
1.9491
1.95998
1.97203
1.98499
1.99861
2.01263
2.02677
2.04074
2.05423
2.06691
2.07841
2.08823
2.09683
2.10415
2.11271
1.93414
1.93174
1.9314
1.93329
1.93758
1.94412
1.95268
1.96298
1.9748
1.98787
2.00193
2.01669
2.03187
2.04715
2.06222
2.07675
2.09039
2.10272
2.11327
2.12237
2.13008
2.13935
1.94559
1.94278
1.94229
1.94436
1.94904
1.95617
1.96546
1.97667
1.98952
2.00373
2.01899
2.03499
2.05142
2.06793
2.08418
2.09982
2.11446
2.12768
2.13899
2.14861
2.15668
2.16667
1.95621
1.95298
1.95242
1.95466
1.95975
1.9675
1.97762
1.98983
2.00383
2.0193
2.03588
2.05325
2.07103
2.08886
2.10638
2.12319
2.13888
2.15302
2.16512
2.17525
2.18369
2.19441
1.96564
1.96199
1.96129
1.96366
1.96919
1.97765
1.98871
2.00205
2.01733
2.03419
2.05225
2.07111
2.09037
2.10964
2.1285
2.14654
2.16333
2.17841
2.19133
2.20197
2.21078
2.22224
1.97336
1.96914
1.96821
1.9707
1.97671
1.98599
1.99814
2.01277
2.02951
2.04793
2.06762
2.08813
2.10902
2.12984
2.15014
2.16949
2.18742
2.20347
2.21721
2.22834
2.23757
2.24979
1.97862
1.97363
1.97234
1.97494
1.98154
1.99178
2.00518
2.0213
2.03969
2.05989
2.08142
2.10376
2.12643
2.14894
2.17081
2.19154
2.21067
2.22772
2.24228
2.2539
2.26362
2.27658
1.9805
1.97441
1.97264
1.9754
1.98272
1.9941
2.00897
2.02681
2.04711
2.06933
2.09293
2.11734
2.14199
2.16634
2.18989
2.21212
2.23253
2.25061
2.26597
2.27806
2.28831
2.30185
1.97785
1.97022
1.96785
1.97088
1.97913
1.99189
2.00847
2.02832
2.05084
2.07538
2.10133
2.12807
2.15495
2.18136
2.20674
2.23057
2.25232
2.27151
2.28768
2.30021
2.31088
2.3244
1.96922
1.95938
1.95634
1.96001
1.96957
1.98399
2.00259
2.02478
2.04986
2.07707
2.1057
2.13508
2.16447
2.19319
2.22062
2.24619
2.26938
2.2897
2.30676
2.31984
2.33086
2.34363
1.95275
1.93971
1.93618
1.94112
1.95246
1.96892
1.98995
2.01493
2.043
2.07328
2.105
2.13739
2.16965
2.20097
2.23069
2.25821
2.28299
2.30454
2.32252
2.33633
2.34799
2.36025
1.9254
1.90778
1.90544
1.91338
1.92696
1.94556
1.96936
1.99758
2.02906
2.06285
2.09809
2.13394
2.16948
2.20378
2.23608
2.26577
2.29231
2.31525
2.33421
2.3487
2.36107
2.37281
1.8829
1.85735
1.85929
1.87344
1.89061
1.91203
1.93922
1.97124
2.0067
2.04455
2.08387
2.1237
2.163
2.20069
2.23592
2.26803
2.29651
2.32094
2.34099
2.35615
2.36905
2.38005
1.81733
1.79076
1.80306
1.82263
1.84248
1.86736
1.89851
1.93455
1.97427
2.01671
2.06076
2.10531
2.14908
2.19074
2.22932
2.26418
2.29482
2.32085
2.34203
2.35783
2.37107
2.38267
1.66686
1.68254
1.73125
1.75905
1.78073
1.81048
1.84623
1.88704
1.93199
1.97936
2.0283
2.07795
2.12681
2.17307
2.21553
2.25351
2.28657
2.31437
2.33675
2.35314
2.36636
2.3797
2.59838
2.57731
2.55524
2.52777
2.49688
2.46255
2.42489
2.38418
2.34099
2.29632
2.25151
2.20809
2.16752
2.13095
2.09906
2.0722
2.05066
2.03444
2.57404
2.55193
2.52944
2.50106
2.46905
2.43344
2.39445
2.35246
2.3082
2.26286
2.21802
2.17539
2.13645
2.10219
2.07305
2.04908
2.0303
2.0165
2.54522
2.52297
2.50056
2.47177
2.43902
2.40244
2.36237
2.31936
2.27435
2.22884
2.18472
2.14381
2.10746
2.0763
2.05037
2.02939
2.01313
2.00127
2.5132
2.49129
2.46921
2.44038
2.40722
2.36998
2.32916
2.28549
2.24026
2.19534
2.15286
2.11459
2.0815
2.05371
2.03078
2.01221
1.99768
1.98703
2.47908
2.45763
2.43602
2.40737
2.37415
2.33659
2.29539
2.25156
2.20679
2.16331
2.12333
2.08831
2.05861
2.03382
2.01323
1.99627
1.98279
1.97285
2.44354
2.42263
2.40159
2.37331
2.34032
2.30279
2.26165
2.21825
2.17468
2.13341
2.0965
2.06484
2.03817
2.01572
1.99674
1.98082
1.96799
1.95852
2.40716
2.38695
2.36652
2.3388
2.3063
2.26913
2.22853
2.18616
2.14445
2.10594
2.07227
2.04369
2.01946
1.99869
1.98078
1.96556
1.95323
1.94414
2.37054
2.35115
2.33141
2.3044
2.2726
2.23614
2.19652
2.15571
2.11637
2.08086
2.05027
2.02427
2.00188
1.9823
1.96517
1.9505
1.93861
1.92986
2.33423
2.31575
2.29678
2.27059
2.23968
2.20424
2.16599
2.12716
2.09047
2.05794
2.03008
2.00613
1.98511
1.96641
1.94989
1.93573
1.92428
1.91586
2.29869
2.28119
2.26303
2.23778
2.20794
2.17376
2.1372
2.10062
2.06666
2.03689
2.01132
1.98898
1.969
1.951
1.93505
1.92139
1.91037
1.90227
2.26431
2.24781
2.23052
2.20629
2.17766
2.14496
2.11029
2.07608
2.04476
2.01744
1.99374
1.97268
1.95353
1.93616
1.92076
1.90761
1.89702
1.88924
2.23141
2.21594
2.19954
2.1764
2.14909
2.11799
2.08531
2.05347
2.02459
1.99937
1.97721
1.95717
1.93874
1.92198
1.90714
1.8945
1.88433
1.87686
2.20026
2.18581
2.17032
2.1483
2.12236
2.09293
2.06227
2.03268
2.00599
1.98255
1.96165
1.94247
1.92471
1.90854
1.89427
1.88213
1.87238
1.86522
2.17105
2.15762
2.14302
2.12213
2.09758
2.06982
2.04112
2.01361
1.98884
1.9669
1.94705
1.92863
1.91151
1.89594
1.88222
1.87058
1.86124
1.85438
2.14393
2.13148
2.11776
2.09799
2.07481
2.04867
2.0218
1.99618
1.97307
1.95239
1.93344
1.91571
1.89921
1.88422
1.87104
1.85989
1.85094
1.84436
2.11901
2.10751
2.09462
2.07594
2.05406
2.02945
2.00427
1.98032
1.95862
1.93901
1.92084
1.90375
1.88785
1.87343
1.86077
1.85008
1.84152
1.83521
2.09635
2.08575
2.07365
2.05599
2.03533
2.01213
1.98847
1.96596
1.94547
1.92677
1.90929
1.8928
1.87746
1.86359
1.85143
1.84118
1.83298
1.82693
2.07599
2.06624
2.05487
2.03815
2.01861
1.99668
1.97435
1.95309
1.93362
1.91568
1.89881
1.88288
1.86808
1.85472
1.84303
1.83319
1.82532
1.81951
2.05795
2.04899
2.03828
2.02242
2.00388
1.98307
1.96188
1.94168
1.92306
1.90577
1.88944
1.87401
1.85971
1.84682
1.83557
1.82611
1.81854
1.81296
2.04223
2.034
2.02388
2.00879
1.99111
1.97126
1.95102
1.93171
1.91382
1.89705
1.88119
1.86622
1.85237
1.8399
1.82904
1.81992
1.81264
1.80727
2.02881
2.02126
2.01166
1.99722
1.98029
1.96124
1.94177
1.92317
1.90587
1.88955
1.87408
1.8595
1.84604
1.83395
1.82344
1.81463
1.80761
1.80243
2.01767
2.01075
2.00159
1.98772
1.97139
1.953
1.93415
1.91607
1.89922
1.88326
1.86811
1.85387
1.84073
1.82895
1.81875
1.81023
1.80344
1.79843
2.00881
2.00245
1.99367
1.98025
1.9644
1.94652
1.92815
1.91043
1.89387
1.87818
1.8633
1.84932
1.83643
1.82492
1.81499
1.80671
1.80012
1.79527
2.00218
1.99631
1.98789
1.9748
1.95931
1.9418
1.92376
1.90626
1.88985
1.87434
1.85964
1.84586
1.83319
1.82191
1.81218
1.80407
1.79766
1.79297
1.99788
1.99262
1.98422
1.97136
1.9561
1.93881
1.92098
1.90355
1.88717
1.87174
1.85716
1.84352
1.83103
1.81992
1.81033
1.80235
1.79606
1.79148
1.99578
1.99096
1.98255
1.96991
1.95477
1.93756
1.91979
1.90232
1.88584
1.8704
1.85587
1.84231
1.82993
1.81892
1.8094
1.8015
1.79529
1.79079
1.99579
1.99091
1.98288
1.97044
1.9553
1.93805
1.9202
1.90257
1.88587
1.87031
1.85575
1.84221
1.82986
1.81886
1.80936
1.8015
1.79532
1.79085
1.99802
1.99337
1.98543
1.97297
1.9577
1.94029
1.92222
1.90431
1.88729
1.8715
1.8568
1.84319
1.8308
1.81974
1.8102
1.80231
1.79611
1.79164
2.00255
1.99829
1.99015
1.97751
1.962
1.94428
1.92584
1.90755
1.89012
1.87398
1.85901
1.84522
1.8327
1.82153
1.81189
1.80391
1.79767
1.79315
2.00924
2.00522
1.99691
1.98405
1.96819
1.95004
1.93109
1.91228
1.89436
1.87775
1.86239
1.84829
1.83553
1.82419
1.81441
1.80631
1.79999
1.79542
2.01808
2.01417
2.0057
1.99259
1.97629
1.9576
1.93801
1.91855
1.90002
1.88282
1.86696
1.85243
1.83933
1.82772
1.81774
1.80949
1.80305
1.79843
2.02909
2.02527
2.01659
2.00314
1.98631
1.96698
1.94663
1.92639
1.90711
1.88921
1.87274
1.8577
1.84415
1.83219
1.82192
1.81345
1.80685
1.80215
2.04229
2.03852
2.02957
2.01571
1.99825
1.97818
1.95697
1.93583
1.91566
1.89693
1.87974
1.86409
1.85003
1.83763
1.82701
1.81825
1.81144
1.80659
2.05768
2.05392
2.04464
2.03029
2.01213
1.99122
1.96905
1.94689
1.9257
1.90602
1.88799
1.87162
1.85695
1.84405
1.833
1.82391
1.81683
1.81181
2.07524
2.07144
2.06177
2.04688
2.02795
2.00611
1.98288
1.95958
1.93726
1.9165
1.8975
1.88031
1.86494
1.85144
1.8399
1.8304
1.82302
1.81779
2.09492
2.09106
2.08096
2.06546
2.0457
2.02285
1.99847
1.97393
1.95035
1.92838
1.9083
1.89017
1.87399
1.85981
1.8477
1.83774
1.83
1.82452
2.11671
2.11273
2.10215
2.086
2.06534
2.04143
2.01582
1.98995
1.965
1.94171
1.92041
1.90121
1.88412
1.86916
1.8564
1.84591
1.83777
1.832
2.14054
2.13642
2.1253
2.10844
2.08685
2.06181
2.03492
2.00765
1.98123
1.95649
1.93386
1.91346
1.89533
1.87949
1.86599
1.85491
1.8463
1.84021
2.16634
2.16203
2.15034
2.13271
2.11014
2.08396
2.05575
2.02701
1.99903
1.97275
1.94864
1.92692
1.90764
1.89081
1.87648
1.86471
1.85558
1.84912
2.194
2.18948
2.17716
2.15871
2.13514
2.10779
2.07824
2.048
2.01841
1.99048
1.96479
1.94162
1.92105
1.90311
1.88785
1.87532
1.86559
1.85871
2.22341
2.21863
2.20564
2.18632
2.16171
2.13321
2.10233
2.07058
2.03934
2.00969
1.98232
1.95756
1.93557
1.91639
1.90009
1.8867
1.87631
1.86895
2.25438
2.24934
2.23562
2.21537
2.18971
2.16007
2.12791
2.09467
2.06177
2.03036
2.0012
1.97475
1.9512
1.93066
1.91318
1.89883
1.88768
1.87978
2.28673
2.28139
2.26694
2.24573
2.21903
2.18824
2.15484
2.12017
2.08562
2.05242
2.02143
1.99317
1.96795
1.9459
1.92711
1.91168
1.89967
1.89116
2.3202
2.31456
2.29935
2.27723
2.24952
2.21762
2.18297
2.14693
2.11078
2.0758
2.04293
2.0128
1.98577
1.96208
1.94185
1.92519
1.91222
1.903
2.35447
2.34853
2.33253
2.30956
2.28092
2.24798
2.21214
2.17476
2.1371
2.10039
2.06563
2.03356
2.00464
1.97916
1.95734
1.93932
1.92525
1.91522
2.38918
2.3829
2.36612
2.34233
2.31287
2.27903
2.24213
2.20347
2.16439
2.12601
2.08939
2.05535
2.02445
1.99707
1.9735
1.95395
1.93863
1.92767
2.42389
2.41722
2.39968
2.37512
2.34502
2.31045
2.27267
2.23289
2.19243
2.15247
2.11404
2.07802
2.04507
2.01567
1.9902
1.96896
1.95221
1.94017
2.45811
2.45098
2.43272
2.40752
2.37695
2.34188
2.30342
2.26276
2.22103
2.17954
2.13936
2.10137
2.06633
2.0348
2.00727
1.98414
1.96578
1.95243
2.49131
2.48362
2.46471
2.43908
2.40826
2.37292
2.33405
2.29271
2.24997
2.20703
2.16512
2.12518
2.08799
2.05423
2.02448
1.99923
1.979
1.96404
2.52289
2.51451
2.49512
2.46932
2.43852
2.40319
2.36416
2.32239
2.2789
2.23473
2.19111
2.14918
2.1098
2.07369
2.04152
2.01393
1.99149
1.97458
2.55221
2.54301
2.52338
2.49778
2.46734
2.43231
2.39338
2.35143
2.30739
2.26224
2.21709
2.17315
2.13148
2.09288
2.05808
2.02782
2.00278
1.98357
2.57836
2.56845
2.54898
2.52402
2.49434
2.45995
2.42139
2.37946
2.33502
2.28906
2.2426
2.19677
2.15274
2.11147
2.07379
2.04047
2.01238
1.99045
2.60014
2.59016
2.57142
2.54764
2.51922
2.48585
2.44792
2.40618
2.36146
2.31475
2.26711
2.21957
2.17323
2.12915
2.08828
2.05145
2.01975
1.99449
2.61603
2.60772
2.59041
2.56836
2.54176
2.50981
2.47275
2.43132
2.38639
2.33898
2.29016
2.241
2.19246
2.14553
2.10118
2.06034
2.02431
1.99479
2.62487
2.62024
2.60572
2.58614
2.5619
2.53171
2.49567
2.45462
2.40952
2.36139
2.3114
2.2606
2.20992
2.16015
2.11212
2.06675
2.02547
1.99035
2.62788
2.62677
2.61691
2.60109
2.57973
2.55145
2.51648
2.47582
2.4305
2.38163
2.33046
2.27804
2.22522
2.17261
2.12076
2.07035
2.02262
1.98004
2.62838
2.62864
2.62402
2.6133
2.59533
2.56901
2.53504
2.49467
2.449
2.39933
2.34698
2.293
2.2381
2.18267
2.12688
2.07089
2.01531
1.96263
2.62849
2.62847
2.62794
2.62258
2.60825
2.58386
2.55086
2.51067
2.46452
2.41399
2.36056
2.30525
2.24856
2.19061
2.13095
2.06892
2.00355
1.93752
2.62877
2.62873
2.63039
2.62908
2.61789
2.59527
2.56335
2.52322
2.47635
2.42491
2.37056
2.3142
2.25617
2.19625
2.13334
2.06551
1.98786
1.90212
2.62928
2.62987
2.63266
2.63383
2.62489
2.60374
2.5737
2.53445
2.48742
2.43546
2.38051
2.3234
2.26438
2.20306
2.13796
2.06551
1.9767
1.85519
1.47264
1.56121
1.65088
1.69376
1.71679
1.74806
1.78499
1.82905
1.88072
1.93452
1.98928
2.04448
2.09861
2.1497
2.19624
2.23745
2.27297
2.30255
2.32621
2.34334
2.35651
2.37168
1.49598
1.56282
1.63832
1.66721
1.67135
1.69401
1.733
1.77733
1.82828
1.88558
1.94604
2.00749
2.0671
2.12312
2.17387
2.21837
2.2563
2.2876
2.3125
2.33057
2.34422
2.36069
1.48773
1.57257
1.64465
1.66455
1.66011
1.66668
1.69022
1.72539
1.77425
1.83147
1.89484
1.9629
2.02895
2.09058
2.14624
2.19456
2.23519
2.26838
2.29459
2.31363
2.32774
2.34441
1.52646
1.58168
1.63397
1.65668
1.66145
1.66179
1.6666
1.6815
1.71438
1.76534
1.83062
1.90353
1.97716
2.04635
2.10856
2.16192
2.20599
2.24148
2.26923
2.2893
2.30403
2.32045
1.55986
1.58666
1.6153
1.63337
1.6412
1.64524
1.65013
1.6574
1.67316
1.70643
1.76045
1.83092
1.9095
1.98712
2.05776
2.11768
2.16629
2.20472
2.23434
2.25557
2.27086
2.28835
1.56319
1.57968
1.59899
1.61467
1.62434
1.6311
1.63731
1.64412
1.6538
1.67226
1.70851
1.76611
1.84058
1.92029
1.99971
2.06614
2.11971
2.16153
2.19316
2.21556
2.23125
2.24942
1.56005
1.57324
1.5879
1.60094
1.61085
1.61876
1.62592
1.63333
1.64144
1.65283
1.67496
1.71614
1.77931
1.85674
1.93746
2.00906
2.06766
2.113
2.14664
2.17016
2.18616
2.20462
1.55442
1.56544
1.57711
1.58809
1.59763
1.60617
1.61431
1.62224
1.62999
1.63884
1.65316
1.68071
1.7292
1.7991
1.87451
1.94959
2.01224
2.06067
2.09617
2.12068
2.13699
2.15559
1.54717
1.55656
1.56636
1.57599
1.58509
1.59377
1.60233
1.61078
1.61888
1.62699
1.63752
1.65598
1.69055
1.74685
1.81697
1.89098
1.95582
2.00629
2.04321
2.06849
2.0851
2.10373
1.53914
1.54736
1.55598
1.56471
1.57337
1.58192
1.59051
1.59919
1.60772
1.61589
1.62475
1.63793
1.66225
1.70546
1.76725
1.83415
1.90058
1.95175
1.9893
2.01502
2.03179
2.05023
1.53087
1.5382
1.54598
1.55403
1.56225
1.57056
1.57901
1.58766
1.59637
1.60478
1.61308
1.62347
1.6412
1.67349
1.72458
1.786
1.84836
1.89853
1.93592
1.96174
1.97843
1.99638
1.52262
1.52926
1.53637
1.54385
1.55163
1.55964
1.56786
1.57633
1.58497
1.5935
1.6017
1.61071
1.62435
1.64855
1.68887
1.74445
1.79933
1.84784
1.88458
1.90996
1.9263
1.94346
1.51453
1.5206
1.52716
1.53415
1.5415
1.54916
1.5571
1.56529
1.57372
1.58218
1.59034
1.59863
1.60964
1.62822
1.65894
1.70487
1.7539
1.80088
1.83616
1.86063
1.87645
1.89255
1.5067
1.51228
1.51836
1.5249
1.53185
1.53914
1.54674
1.55462
1.56274
1.57098
1.579
1.58685
1.5961
1.61073
1.63463
1.67219
1.7158
1.75862
1.7911
1.81442
1.82955
1.84433
1.49919
1.50434
1.51
1.51613
1.52268
1.52959
1.53682
1.54434
1.5521
1.56001
1.56778
1.57528
1.58338
1.59524
1.61452
1.64529
1.68409
1.72076
1.74992
1.77178
1.78593
1.79927
1.49204
1.49682
1.50209
1.50783
1.51398
1.52051
1.52736
1.53449
1.54185
1.54937
1.55681
1.56397
1.57129
1.58113
1.59689
1.62158
1.65472
1.68643
1.7128
1.73294
1.74589
1.75778
1.4853
1.48974
1.49464
1.5
1.50578
1.51192
1.51837
1.52509
1.53204
1.53913
1.54619
1.55298
1.55969
1.56801
1.58098
1.60072
1.62831
1.65606
1.67974
1.69794
1.7096
1.72013
1.47898
1.4831
1.48767
1.49267
1.49807
1.50382
1.50987
1.51618
1.52269
1.52934
1.53598
1.54237
1.54858
1.55576
1.5666
1.58274
1.60574
1.6294
1.6505
1.66667
1.67704
1.6863
1.47309
1.47691
1.48116
1.48582
1.49086
1.49622
1.50187
1.50775
1.51382
1.52003
1.52624
1.53222
1.538
1.54433
1.55358
1.56711
1.58652
1.60663
1.62487
1.63893
1.64804
1.65614
1.46764
1.47118
1.47513
1.47946
1.48414
1.48914
1.49437
1.4998
1.50543
1.51122
1.51701
1.5226
1.52798
1.53366
1.54165
1.55319
1.56966
1.58716
1.60239
1.61442
1.62235
1.62938
1.46261
1.46589
1.46956
1.47358
1.47793
1.48253
1.48733
1.49233
1.49752
1.50289
1.5083
1.51351
1.51852
1.52367
1.53062
1.54051
1.55433
1.56957
1.58235
1.59274
1.59964
1.60571
1.458
1.46105
1.46445
1.46816
1.47213
1.47632
1.48074
1.48535
1.49013
1.49508
1.50012
1.50497
1.50963
1.51432
1.52038
1.52888
1.54037
1.55352
1.56446
1.57356
1.57955
1.58481
1.45381
1.45663
1.45975
1.46311
1.4667
1.47053
1.47462
1.4789
1.4833
1.48784
1.49248
1.49699
1.50132
1.50561
1.51092
1.5183
1.5279
1.53907
1.54862
1.5566
1.56181
1.56636
1.45001
1.45259
1.45538
1.45839
1.46166
1.46521
1.469
1.47296
1.47703
1.48117
1.48542
1.4896
1.49361
1.49754
1.50224
1.50872
1.51688
1.5264
1.53472
1.54166
1.54616
1.55011
1.44655
1.44884
1.45131
1.45405
1.45709
1.46037
1.46387
1.46752
1.47129
1.47508
1.47895
1.4828
1.4865
1.49011
1.49429
1.50005
1.5071
1.5153
1.5225
1.52849
1.53238
1.53581
1.44335
1.44536
1.44761
1.45015
1.45295
1.45598
1.4592
1.46257
1.46604
1.46953
1.47305
1.47658
1.47998
1.48328
1.48705
1.4922
1.49835
1.50547
1.51169
1.51687
1.52025
1.52324
1.44041
1.44223
1.44432
1.44666
1.44923
1.45202
1.45499
1.45809
1.46128
1.4645
1.46771
1.47092
1.47404
1.47707
1.48048
1.4851
1.49052
1.49675
1.50202
1.5066
1.50957
1.51218
1.43778
1.43946
1.44139
1.44354
1.44591
1.44847
1.4512
1.45405
1.45699
1.45995
1.46288
1.46581
1.46866
1.47145
1.47455
1.47872
1.48353
1.48909
1.49364
1.49758
1.50018
1.50247
1.43549
1.43704
1.43881
1.44078
1.44296
1.44532
1.44782
1.45045
1.45314
1.45586
1.45856
1.46122
1.46381
1.46639
1.46923
1.47302
1.47732
1.48232
1.48645
1.48968
1.49197
1.49395
1.4335
1.43493
1.43655
1.43837
1.44036
1.44253
1.44483
1.44724
1.44972
1.45221
1.45469
1.45711
1.45948
1.46186
1.46447
1.46793
1.4718
1.47626
1.47996
1.48273
1.48479
1.48649
1.4318
1.43311
1.4346
1.43627
1.4381
1.44009
1.44221
1.44442
1.4467
1.44898
1.45125
1.45347
1.45564
1.45784
1.46023
1.46341
1.46692
1.47086
1.47413
1.47665
1.47848
1.47993
1.43037
1.43157
1.43294
1.43447
1.43615
1.43798
1.43993
1.44196
1.44405
1.44615