/*--------------------------------*- C++ -*----------------------------------*\
| =========                 |                                                 |
| \\      /  F ield         | OpenFOAM: The Open Source CFD Toolbox           |
|  \\    /   O peration     | Version:  v2012                                 |
|   \\  /    A nd           | Website:  www.openfoam.com                      |
|    \\/     M anipulation  |                                                 |
\*---------------------------------------------------------------------------*/
FoamFile
{
    version     2.0;
    format      ascii;
    class       surfaceScalarField;
    location    "765";
    object      phi;
}
// * * * * * * * * * * * * * * * * * * * * * * * * * * * * * * * * * * * * * //

dimensions      [0 3 -1 0 0 0 0];
oriented        oriented;


internalField   nonuniform List<scalar> 
11891
(
-0.00020044
-5.89911e-07
0.00020103
-0.000200005
-4.34855e-07
-0.0001997
-3.05354e-07
-0.000199495
-2.04984e-07
-0.000199365
-1.29906e-07
-0.000199292
-7.33415e-08
-0.000199261
-3.07258e-08
-0.000199259
-1.86453e-09
-0.000199278
1.88004e-08
-0.000199311
3.35801e-08
-0.000199356
4.47992e-08
-0.00019941
5.35402e-08
-0.000199471
6.08616e-08
-0.000199538
6.7443e-08
-0.000199612
7.36092e-08
-0.000199691
7.92589e-08
-0.000199775
8.3743e-08
-0.000199862
8.70697e-08
-0.000199947
8.52001e-08
5.3069e-08
-0.000201419
-1.19621e-06
0.000202026
-0.00020098
-8.7415e-07
-0.00020067
-6.15187e-07
-0.000200455
-4.201e-07
-0.000200304
-2.80515e-07
-0.0002002
-1.77385e-07
-0.00020013
-1.01033e-07
-0.000200084
-4.82149e-08
-0.000200054
-1.10319e-08
-0.000200036
1.52811e-08
-0.000200025
3.41129e-08
-0.00020002
4.8189e-08
-0.000200018
5.92852e-08
-0.000200019
6.85164e-08
-0.000200022
7.63059e-08
-0.000200025
8.24968e-08
-0.000200028
8.6558e-08
-0.000200028
8.68667e-08
-0.000200017
7.47903e-08
3.58464e-08
-0.000201586
-1.78543e-06
0.000202175
-0.000201165
-1.29501e-06
-0.000200867
-9.12667e-07
-0.000200659
-6.28613e-07
-0.000200515
-4.24107e-07
-0.000200415
-2.77213e-07
-0.000200343
-1.72894e-07
-0.000200291
-1.01038e-07
-0.00020025
-5.11552e-08
-0.000200219
-1.62978e-08
-0.000200193
7.87782e-09
-0.00020017
2.52153e-08
-0.000200149
3.81107e-08
-0.000200128
4.81334e-08
-0.000200108
5.59095e-08
-0.000200086
6.11198e-08
-0.000200064
6.39546e-08
-0.000200039
6.22486e-08
-0.000200014
5.00652e-08
2.14203e-08
-0.000201486
-2.34123e-06
0.000202042
-0.000201106
-1.67524e-06
-0.000200848
-1.17097e-06
-0.000200673
-8.03869e-07
-0.000200553
-5.43689e-07
-0.000200469
-3.61415e-07
-0.000200406
-2.35281e-07
-0.000200358
-1.49247e-07
-0.000200319
-9.05264e-08
-0.000200285
-5.05081e-08
-0.000200254
-2.32935e-08
-0.000200224
-4.52884e-09
-0.000200194
8.65895e-09
-0.000200164
1.81321e-08
-0.000200133
2.48763e-08
-0.000200101
2.92793e-08
-0.000200069
3.16225e-08
-0.000200038
3.07045e-08
-0.000200012
2.40744e-08
9.84383e-09
-0.000201212
-2.83613e-06
0.000201707
-0.000200902
-1.98517e-06
-0.000200708
-1.36515e-06
-0.000200584
-9.27209e-07
-0.000200503
-6.25058e-07
-0.000200445
-4.18864e-07
-0.000200401
-2.79417e-07
-0.000200365
-1.85836e-07
-0.000200332
-1.23177e-07
-0.000200301
-8.13858e-08
-0.000200271
-5.36532e-08
-0.00020024
-3.52745e-08
-0.000200208
-2.31221e-08
-0.000200175
-1.51279e-08
-0.00020014
-9.91591e-09
-0.000200104
-6.45469e-09
-0.000200069
-4.08127e-09
-0.000200036
-2.43691e-09
-0.00020001
-1.27144e-09
-4.20515e-10
-0.000200776
-3.22956e-06
0.00020117
-0.000200575
-2.18623e-06
-0.000200474
-1.46669e-06
-0.000200422
-9.79098e-07
-0.000200392
-6.54839e-07
-0.000200371
-4.40251e-07
-0.000200351
-2.9873e-07
-0.000200331
-2.05655e-07
-0.00020031
-1.4458e-07
-0.000200287
-1.04727e-07
-0.000200261
-7.90108e-08
-0.000200234
-6.27105e-08
-0.000200204
-5.27096e-08
-0.000200173
-4.6918e-08
-0.000200139
-4.37522e-08
-0.000200104
-4.15868e-08
-0.000200068
-3.93899e-08
-0.000200035
-3.53191e-08
-0.00020001
-2.64238e-08
-1.06145e-08
-0.000200167
-3.46392e-06
0.000200402
-0.000200129
-2.22456e-06
-0.000200155
-1.44092e-06
-0.000200195
-9.38829e-07
-0.000200229
-6.2102e-07
-0.000200251
-4.18325e-07
-0.000200261
-2.88361e-07
-0.000200262
-2.04827e-07
-0.000200255
-1.51195e-07
-0.000200243
-1.17013e-07
-0.000200226
-9.56585e-08
-0.000200206
-8.2861e-08
-0.000200183
-7.58271e-08
-0.000200157
-7.27068e-08
-0.000200129
-7.20056e-08
-0.000200099
-7.16707e-08
-0.000200068
-7.06012e-08
-0.000200037
-6.61792e-08
-0.000200011
-5.18486e-08
-2.19915e-08
-0.000199326
-3.44149e-06
0.000199304
-0.000199541
-2.00949e-06
-0.00019974
-1.24249e-06
-0.000199894
-7.84837e-07
-0.000200001
-5.13783e-07
-0.000200071
-3.47983e-07
-0.000200115
-2.44722e-07
-0.00020014
-1.80029e-07
-0.000200151
-1.39495e-07
-0.000200154
-1.14316e-07
-0.000200151
-9.91994e-08
-0.000200143
-9.08489e-08
-0.000200131
-8.71787e-08
-0.000200117
-8.67229e-08
-0.000200101
-8.81712e-08
-0.000200083
-9.01961e-08
-0.000200062
-9.14124e-08
-0.000200038
-8.99742e-08
-0.000200014
-7.5707e-08
-3.61108e-08
-0.000198066
-2.80458e-06
0.000197429
-0.000198711
-1.36459e-06
-0.000199147
-8.06544e-07
-0.000199438
-4.94062e-07
-0.000199628
-3.23767e-07
-0.000199753
-2.23348e-07
-0.000199835
-1.62252e-07
-0.00019989
-1.24967e-07
-0.000199927
-1.02215e-07
-0.000199953
-8.8519e-08
-0.000199972
-8.07608e-08
-0.000199985
-7.70443e-08
-0.000199996
-7.62027e-08
-0.000200006
-7.7439e-08
-0.000200014
-8.00619e-08
-0.000200021
-8.34228e-08
-0.000200026
-8.64024e-08
-0.000200027
-8.887e-08
-0.000200017
-8.53931e-08
-5.31327e-08
-0.000195521
0.000192716
-0.000196886
-0.000197692
-0.000198186
-0.00019851
-0.000198733
-0.000198896
-0.000199021
-0.000199123
-0.000199211
-0.000199292
-0.000199369
-0.000199445
-0.000199523
-0.000199603
-0.000199686
-0.000199773
-0.000199861
-0.000199947
-0.000207102
2.98945e-06
0.000204113
-0.000209519
2.41718e-06
-0.000211438
1.91907e-06
-0.000212898
1.4592e-06
-0.00021393
1.032e-06
-0.000214565
6.35499e-07
-0.000214836
2.70588e-07
-0.000214774
-6.15345e-08
-0.000214414
-3.59687e-07
-0.000213793
-6.21787e-07
-0.000212947
-8.45189e-07
-0.000211921
-1.02696e-06
-0.000210756
-1.16479e-06
-0.000209498
-1.25723e-06
-0.000208195
-1.3036e-06
-0.000206891
-1.30402e-06
-0.00020563
-1.26066e-06
-0.000204451
-1.17885e-06
-0.000203385
-1.06609e-06
-0.000202454
-9.31559e-07
-0.000201668
-7.85479e-07
-6.38316e-07
-0.000210845
5.56995e-06
0.000208265
-0.000212985
4.55719e-06
-0.000214672
3.60588e-06
-0.000215922
2.70886e-06
-0.000216758
1.86836e-06
-0.000217208
1.08532e-06
-0.000217301
3.63771e-07
-0.00021707
-2.92869e-07
-0.000216547
-8.82824e-07
-0.000215768
-1.40107e-06
-0.000214771
-1.84123e-06
-0.000213602
-2.19674e-06
-0.000212304
-2.4626e-06
-0.000210925
-2.63588e-06
-0.000209514
-2.71516e-06
-0.000208117
-2.70093e-06
-0.00020678
-2.59779e-06
-0.000205542
-2.41642e-06
-0.000204435
-2.17294e-06
-0.000203479
-1.88804e-06
-0.000202678
-1.58579e-06
-1.29118e-06
-0.000212154
8.10358e-06
0.00020962
-0.000214231
6.63443e-06
-0.00021586
5.23483e-06
-0.000217059
3.90806e-06
-0.00021785
2.65844e-06
-0.000218254
1.48966e-06
-0.0002183
4.10176e-07
-0.000218021
-5.72247e-07
-0.000217446
-1.45805e-06
-0.000216609
-2.23809e-06
-0.000215548
-2.90173e-06
-0.000214308
-3.43733e-06
-0.000212934
-3.83634e-06
-0.000211476
-4.09413e-06
-0.000209983
-4.20826e-06
-0.000208505
-4.17841e-06
-0.000207093
-4.01e-06
-0.00020579
-3.71893e-06
-0.000204633
-3.33047e-06
-0.000203643
-2.87798e-06
-0.000202827
-2.40208e-06
-1.94297e-06
-0.000213061
1.06456e-05
0.000210519
-0.000215141
8.71429e-06
-0.000216772
6.86613e-06
-0.000217972
5.10762e-06
-0.000218759
3.44602e-06
-0.000219155
1.88559e-06
-0.000219183
4.38341e-07
-0.000218879
-8.76905e-07
-0.000218267
-2.0694e-06
-0.000217381
-3.12467e-06
-0.000216254
-4.02823e-06
-0.000214932
-4.75928e-06
-0.000213465
-5.30425e-06
-0.000211902
-5.65697e-06
-0.000210296
-5.81378e-06
-0.000208703
-5.77166e-06
-0.00020718
-5.53281e-06
-0.000205781
-5.11767e-06
-0.00020455
-4.56207e-06
-0.000203515
-3.91324e-06
-0.000202683
-3.23324e-06
-2.58414e-06
-0.000213752
1.32141e-05
0.000211183
-0.000215858
1.08211e-05
-0.000217519
8.52635e-06
-0.000218747
6.33578e-06
-0.000219562
4.26105e-06
-0.000219983
2.30668e-06
-0.000220021
4.76807e-07
-0.000219709
-1.18915e-06
-0.000219084
-2.69495e-06
-0.000218162
-4.04625e-06
-0.000216972
-5.21782e-06
-0.000215561
-6.17035e-06
-0.000213983
-6.88248e-06
-0.000212292
-7.34818e-06
-0.000210543
-7.56299e-06
-0.000208795
-7.51928e-06
-0.000207121
-7.20653e-06
-0.000205591
-6.64843e-06
-0.000204258
-5.89514e-06
-0.000203164
-5.00728e-06
-0.000202321
-4.07605e-06
-3.19836e-06
-0.000213928
1.5802e-05
0.000211341
-0.000216062
1.29544e-05
-0.000217762
1.02263e-05
-0.000219047
7.62065e-06
-0.000219924
5.13834e-06
-0.000220408
2.79035e-06
-0.000220535
6.04655e-07
-0.000220281
-1.44308e-06
-0.000219676
-3.30043e-06
-0.000218772
-4.94991e-06
-0.000217566
-6.42446e-06
-0.000216095
-7.64108e-06
-0.000214423
-8.55462e-06
-0.000212606
-9.16498e-06
-0.000210702
-9.46655e-06
-0.000208772
-9.44968e-06
-0.000206907
-9.07135e-06
-0.000205207
-8.34846e-06
-0.000203741
-7.361e-06
-0.000202573
-6.17516e-06
-0.000201729
-4.92078e-06
-3.75747e-06
-0.00021285
1.83538e-05
0.000210298
-0.000214972
1.50765e-05
-0.00021667
1.19248e-05
-0.000217982
8.93266e-06
-0.000218941
6.09669e-06
-0.000219553
3.40242e-06
-0.000219815
8.66663e-07
-0.000219746
-1.51157e-06
-0.000219338
-3.70901e-06
-0.000218554
-5.73412e-06
-0.00021745
-7.52851e-06
-0.000216064
-9.0264e-06
-0.000214415
-1.02038e-05
-0.000212563
-1.10169e-05
-0.000210574
-1.14552e-05
-0.000208497
-1.15269e-05
-0.000206424
-1.11444e-05
-0.000204539
-1.02334e-05
-0.000202921
-8.97952e-06
-0.000201674
-7.42147e-06
-0.000200857
-5.73786e-06
-4.21333e-06
-0.000208909
2.06292e-05
0.000206634
-0.000210809
1.69759e-05
-0.00021237
1.34857e-05
-0.00021361
1.01734e-05
-0.000214546
7.03176e-06
-0.000215203
4.05945e-06
-0.000215595
1.25861e-06
-0.000215737
-1.36899e-06
-0.000215628
-3.81781e-06
-0.000215281
-6.08093e-06
-0.000214685
-8.12459e-06
-0.000213792
-9.9202e-06
-0.000212585
-1.14108e-05
-0.000211055
-1.25469e-05
-0.00020922
-1.32901e-05
-0.000207239
-1.35075e-05
-0.000205153
-1.3231e-05
-0.000203232
-1.21539e-05
-0.000201555
-1.06564e-05
-0.000200295
-8.68183e-06
-0.000199574
-6.4588e-06
-4.48333e-06
-0.000199527
2.20739e-05
0.000198082
-0.000200628
1.80764e-05
-0.00020143
1.42879e-05
-0.000201974
1.07179e-05
-0.000202305
7.36247e-06
-0.000202467
4.22108e-06
-0.000202503
1.29452e-06
-0.000202457
-1.41453e-06
-0.000202377
-3.89791e-06
-0.000202306
-6.15207e-06
-0.000202261
-8.16965e-06
-0.000202243
-9.93823e-06
-0.000202219
-1.14344e-05
-0.00020213
-1.26363e-05
-0.000201905
-1.35149e-05
-0.000201426
-1.3986e-05
-0.00020058
-1.40773e-05
-0.000199468
-1.32662e-05
-0.000198344
-1.17807e-05
-0.000197436
-9.58946e-06
-0.000197038
-6.85705e-06
-4.09167e-06
-0.000182185
0.000182382
2.18766e-05
-0.000181621
1.7512e-05
-0.00018074
1.34071e-05
-0.000179588
9.56652e-06
-0.00017821
5.98431e-06
-0.000176649
2.66e-06
-0.00017496
-3.94147e-07
-0.000173219
-3.15569e-06
-0.000171496
-5.62113e-06
-0.000169857
-7.79077e-06
-0.000168377
-9.64978e-06
-0.000167182
-1.11335e-05
-0.000166435
-1.21817e-05
-0.000166304
-1.27666e-05
-0.000166981
-1.28386e-05
-0.000168582
-1.23845e-05
-0.000171246
-1.1413e-05
-0.000174666
-9.84614e-06
-0.000178627
-7.82019e-06
-0.000182828
-5.38864e-06
-0.000187041
-2.64374e-06
1.58367e-06
9.29294e-06
-9.293e-06
1.00892e-05
-7.96326e-07
4.69301e-06
5.39617e-06
-5.86585e-06
1.05588e-05
-2.41414e-05
1.82755e-05
-4.77825e-05
2.36412e-05
-7.12398e-05
2.34572e-05
-9.21767e-05
2.0937e-05
-0.000110733
1.85559e-05
-0.000127195
1.64625e-05
-0.000141828
1.46324e-05
-0.000154816
1.29884e-05
-0.000166292
1.14763e-05
-0.000176354
1.00615e-05
-0.000185081
8.72742e-06
-0.000192552
7.47099e-06
-0.000198858
6.30557e-06
5.2548e-06
5.17604e-06
-1.44691e-05
1.12088e-06
3.2588e-06
-1.03604e-05
1.68774e-05
-2.9995e-05
3.01934e-05
-5.26089e-05
4.08894e-05
-7.32281e-05
4.42603e-05
-9.15963e-05
4.18255e-05
-0.000108669
3.80095e-05
-0.000124375
3.42619e-05
-0.000138704
3.07918e-05
-0.000151695
2.76233e-05
-0.000163392
2.46855e-05
-0.000173833
2.19171e-05
-0.000183049
1.92774e-05
-0.00019107
1.67485e-05
-0.000197933
1.43339e-05
-0.000203673
1.20457e-05
9.847e-06
-1.53937e-06
-1.29297e-05
-1.13319e-05
1.30513e-05
-2.80077e-05
3.35533e-05
-4.84074e-05
5.05931e-05
-6.75753e-05
6.00573e-05
-8.43177e-05
6.10027e-05
-0.000100006
5.75136e-05
-0.00011507
5.30736e-05
-0.000129322
4.85136e-05
-0.000142636
4.41066e-05
-0.000154917
3.99041e-05
-0.000166108
3.5876e-05
-0.000176176
3.19855e-05
-0.000185108
2.82093e-05
-0.000192904
2.45445e-05
-0.000199577
2.10065e-05
-0.000205139
1.76083e-05
1.43282e-05
-8.60671e-06
-4.32307e-06
-2.28359e-05
2.72804e-05
-4.11554e-05
5.18728e-05
-5.95546e-05
6.89923e-05
-7.56049e-05
7.61075e-05
-9.01898e-05
7.55876e-05
-0.000104473
7.17972e-05
-0.000118455
6.70552e-05
-0.000131911
6.19691e-05
-0.000144656
5.68515e-05
-0.00015654
5.17886e-05
-0.00016746
4.67959e-05
-0.000177346
4.18713e-05
-0.000186156
3.70197e-05
-0.000193873
3.22614e-05
-0.000200495
2.76284e-05
-0.000206032
2.31453e-05
1.88154e-05
-1.41717e-05
9.84861e-06
-3.12295e-05
4.43383e-05
-4.9368e-05
7.00113e-05
-6.57306e-05
8.53549e-05
-8.00123e-05
9.03893e-05
-9.35965e-05
8.91719e-05
-0.00010714
8.53409e-05
-0.000120501
8.04162e-05
-0.000133476
7.49433e-05
-0.000145864
6.92399e-05
-0.000157501
6.34253e-05
-0.000168258
5.75535e-05
-0.000178044
5.16574e-05
-0.000186799
4.57741e-05
-0.00019449
3.99521e-05
-0.000201107
3.42457e-05
-0.000206661
2.86991e-05
2.3338e-05
-1.79945e-05
2.78431e-05
-3.65019e-05
6.28457e-05
-5.38628e-05
8.73722e-05
-6.88644e-05
0.000100356
-8.23471e-05
0.000103872
-9.55128e-05
0.000102338
-0.000108664
9.84919e-05
-0.00012166
9.34129e-05
-0.000134332
8.76144e-05
-0.000146488
8.13961e-05
-0.000157959
7.48966e-05
-0.000168603
6.81978e-05
-0.000178312
6.13659e-05
-0.000187011
5.44734e-05
-0.000194662
4.7603e-05
-0.000201254
4.08378e-05
-0.000206802
3.4247e-05
2.78766e-05
-2.01959e-05
4.8039e-05
-3.92438e-05
8.18935e-05
-5.58563e-05
0.000103985
-7.01499e-05
0.00011465
-8.33623e-05
0.000117084
-9.63688e-05
0.000115344
-0.000109309
0.000111432
-0.000122085
0.000106189
-0.000134554
0.000100084
-0.000146539
9.33804e-05
-0.000157863
8.62211e-05
-0.000168372
7.87069e-05
-0.000177944
7.09373e-05
-0.000186497
6.30266e-05
-0.000193994
5.51003e-05
-0.000200436
4.72794e-05
-0.000205853
3.9664e-05
3.23217e-05
-2.14182e-05
6.94572e-05
-4.02429e-05
0.000100718
-5.6274e-05
0.000120016
-7.027e-05
0.000128646
-8.34399e-05
0.000130254
-9.63872e-05
0.000128291
-0.000109203
0.000124247
-0.000121826
0.000118812
-0.000134126
0.000112384
-0.000145927
0.000105181
-0.000157038
9.73326e-05
-0.000167285
8.89538e-05
-0.000176531
8.01828e-05
-0.000184692
7.11872e-05
-0.00019174
6.21491e-05
-0.000197701
5.32404e-05
-0.000202638
4.46003e-05
3.63182e-05
-2.17932e-05
9.12504e-05
-4.01121e-05
0.000119037
-5.57183e-05
0.000135622
-6.96036e-05
0.000142531
-8.27894e-05
0.00014344
-9.56969e-05
0.000141199
-0.000108409
0.000136959
-0.000120879
0.000131283
-0.000132971
0.000124476
-0.000144486
0.000116696
-0.000155199
0.000108046
-0.000164902
9.86569e-05
-0.000173437
8.87174e-05
-0.000180718
7.84685e-05
-0.00018674
6.81704e-05
-0.000191563
5.80639e-05
-0.0001953
4.83371e-05
3.91005e-05
-2.13973e-05
0.000112648
-3.9237e-05
0.000136877
-5.45414e-05
0.000150926
-6.83626e-05
0.000156352
-8.15393e-05
0.000156617
-9.43782e-05
0.000154038
-0.000106954
0.000149535
-0.000119207
0.000143536
-0.000130968
0.000136236
-0.000141981
0.000127709
-0.000151961
0.000118026
-0.000160647
0.000107343
-0.000167856
9.5926e-05
-0.000173512
8.41245e-05
-0.00017765
7.23085e-05
-0.000180391
6.08051e-05
-0.000181908
4.98537e-05
3.95753e-05
-0.000168204
1.98917e-05
0.000170189
-0.000165925
1.52332e-05
-0.0001634
1.08821e-05
-0.00016066
6.82673e-06
-0.000157723
3.04737e-06
-0.000154591
-4.7231e-07
-0.000151227
-3.75872e-06
-0.000147544
-6.83845e-06
-0.000143454
-9.71059e-06
-0.000138894
-1.23513e-05
-0.000133811
-1.47328e-05
-0.000128104
-1.68399e-05
-0.00012161
-1.86761e-05
-0.000114134
-2.02421e-05
-0.000105444
-2.15288e-05
-9.5273e-05
-2.25556e-05
-8.34401e-05
-2.3246e-05
-6.98729e-05
-2.34134e-05
-5.48902e-05
-2.28028e-05
-3.89081e-05
-2.13707e-05
-2.14935e-05
-2.00584e-05
-1.99098e-05
-0.000146346
1.814e-05
0.000148097
-0.000144626
1.35137e-05
-0.000142896
9.1522e-06
-0.000141087
5.01747e-06
-0.000139108
1.06801e-06
-0.000136853
-2.72669e-06
-0.000134229
-6.38309e-06
-0.00013117
-9.89787e-06
-0.000127619
-1.32608e-05
-0.000123513
-1.64575e-05
-0.000118764
-1.94823e-05
-0.000113263
-2.23408e-05
-0.000106891
-2.50482e-05
-9.94964e-05
-2.76362e-05
-9.0867e-05
-3.01583e-05
-8.07481e-05
-3.26745e-05
-6.88514e-05
-3.51427e-05
-5.49414e-05
-3.73234e-05
-3.88242e-05
-3.892e-05
-2.06837e-05
-3.95113e-05
-3.69295e-06
-3.70491e-05
-2.36028e-05
-0.000133166
1.76867e-05
0.000133619
-0.000132672
1.30195e-05
-0.000132012
8.4921e-06
-0.000131075
4.08078e-06
-0.000129774
-2.33396e-07
-0.000128044
-4.45627e-06
-0.000125844
-8.5835e-06
-0.000123134
-1.26077e-05
-0.000119875
-1.65196e-05
-0.000116024
-2.03088e-05
-0.000111535
-2.39707e-05
-0.000106364
-2.7512e-05
-0.000100457
-3.0955e-05
-9.3744e-05
-3.43495e-05
-8.61259e-05
-3.77763e-05
-7.74821e-05
-4.13183e-05
-6.7631e-05
-4.49938e-05
-5.62858e-05
-4.86686e-05
-4.319e-05
-5.20158e-05
-2.85027e-05
-5.41986e-05
-1.34119e-05
-5.21399e-05
-3.70147e-05
-0.000124832
1.79862e-05
0.000124532
-0.000124867
1.30544e-05
-0.000124562
8.18761e-06
-0.000123862
3.38058e-06
-0.000122727
-1.36877e-06
-0.000121124
-6.05871e-06
-0.000119024
-1.06836e-05
-0.000116393
-1.52391e-05
-0.000113195
-1.97174e-05
-0.000109394
-2.41097e-05
-0.000104955
-2.841e-05
-9.98484e-05
-3.26183e-05
-9.40524e-05
-3.6751e-05
-8.75427e-05
-4.08591e-05
-8.02777e-05
-4.50413e-05
-7.22127e-05
-4.93833e-05
-6.32897e-05
-5.39169e-05
-5.33701e-05
-5.85882e-05
-4.22447e-05
-6.31411e-05
-2.97679e-05
-6.66754e-05
-1.57854e-05
-6.61225e-05
-5.28e-05
-0.000117918
1.84667e-05
0.000117438
-0.000118041
1.31769e-05
-0.000117776
7.9234e-06
-0.0001171
2.70458e-06
-0.000115989
-2.48002e-06
-0.000114417
-7.63108e-06
-0.000112354
-1.27465e-05
-0.000109769
-1.78244e-05
-0.000106626
-2.28595e-05
-0.000102891
-2.78448e-05
-9.85296e-05
-3.27718e-05
-9.35158e-05
-3.76321e-05
-8.78398e-05
-4.2427e-05
-8.15018e-05
-4.71971e-05
-7.44897e-05
-5.20534e-05
-6.68253e-05
-5.70477e-05
-5.85241e-05
-6.22182e-05
-4.95258e-05
-6.75865e-05
-3.9664e-05
-7.3003e-05
-2.86232e-05
-7.77162e-05
-1.57103e-05
-7.90354e-05
-6.85104e-05
-0.000111234
1.89134e-05
0.000110788
-0.000111316
1.32582e-05
-0.000111018
7.62533e-06
-0.000110324
2.01083e-06
-0.000109215
-3.58906e-06
-0.000107667
-9.17884e-06
-0.000105653
-1.47605e-05
-0.000103142
-2.03353e-05
-0.0001001
-2.59014e-05
-9.64914e-05
-3.14538e-05
-9.22794e-05
-3.69838e-05
-8.74341e-05
-4.24775e-05
-8.19376e-05
-4.79235e-05
-7.57913e-05
-5.33434e-05
-6.90181e-05
-5.88266e-05
-6.16799e-05
-6.43859e-05
-5.38244e-05
-7.00736e-05
-4.54448e-05
-7.5966e-05
-3.6426e-05
-8.20218e-05
-2.64151e-05
-8.77271e-05
-1.46207e-05
-9.08298e-05
-8.31311e-05
-0.000104517
1.92733e-05
0.000104158
-0.00010453
1.32708e-05
-0.000104186
7.28089e-06
-0.000103471
1.29591e-06
-0.000102368
-4.69192e-06
-0.000100856
-1.0691e-05
-9.89087e-05
-1.67075e-05
-9.64973e-05
-2.27467e-05
-9.35885e-05
-2.88101e-05
-9.0147e-05
-3.48953e-05
-8.61364e-05
-4.09943e-05
-8.15215e-05
-4.70924e-05
-7.62739e-05
-5.31711e-05
-7.03865e-05
-5.92308e-05
-6.39059e-05
-6.53071e-05
-5.68962e-05
-7.13956e-05
-4.94192e-05
-7.75506e-05
-4.15141e-05
-8.38712e-05
-3.31222e-05
-9.04137e-05
-2.39417e-05
-9.69076e-05
-1.32463e-05
-0.000101525
-9.63774e-05
-9.77496e-05
1.95382e-05
9.74847e-05
-9.7692e-05
1.32132e-05
-9.73038e-05
6.89277e-06
-9.65741e-05
5.66124e-07
-9.54871e-05
-5.77885e-06
-9.40236e-05
-1.21545e-05
-9.21596e-05
-1.85716e-05
-8.98666e-05
-2.50396e-05
-8.71127e-05
-3.1564e-05
-8.38636e-05
-3.81445e-05
-8.00835e-05
-4.47744e-05
-7.57368e-05
-5.14391e-05
-7.07908e-05
-5.81171e-05
-6.52285e-05
-6.47931e-05
-5.90931e-05
-7.14426e-05
-5.24429e-05
-7.80458e-05
-4.53484e-05
-8.4645e-05
-3.78748e-05
-9.13448e-05
-3.00145e-05
-9.8274e-05
-2.15462e-05
-0.000105376
-1.18726e-05
-0.000111199
-0.00010825
-9.09719e-05
1.9712e-05
9.07982e-05
-9.08495e-05
1.30907e-05
-9.04249e-05
6.46824e-06
-8.96892e-05
-1.69599e-07
-8.86288e-05
-6.83926e-06
-8.72262e-05
-1.35571e-05
-8.54588e-05
-2.0339e-05
-8.32994e-05
-2.7199e-05
-8.07168e-05
-3.41466e-05
-7.76769e-05
-4.11844e-05
-7.41448e-05
-4.83064e-05
-7.00861e-05
-5.54978e-05
-6.54691e-05
-6.2734e-05
-6.02718e-05
-6.99904e-05
-5.45196e-05
-7.71948e-05
-4.82661e-05
-8.42992e-05
-4.15836e-05
-9.13275e-05
-3.45469e-05
-9.83815e-05
-2.7185e-05
-0.000105636
-1.93583e-05
-0.000113202
-1.06083e-05
-0.000119949
-0.000118858
-8.42377e-05
1.98025e-05
8.41471e-05
-8.40588e-05
1.29118e-05
-8.36066e-05
6.01609e-06
-8.28741e-05
-9.02166e-07
-8.18498e-05
-7.86351e-06
-8.05182e-05
-1.48887e-05
-7.88585e-05
-2.19988e-05
-7.68445e-05
-2.92129e-05
-7.44458e-05
-3.65454e-05
-7.16281e-05
-4.40021e-05
-6.83563e-05
-5.15782e-05
-6.45966e-05
-5.92576e-05
-6.03193e-05
-6.70113e-05
-5.55022e-05
-7.48076e-05
-5.01541e-05
-8.25429e-05
-4.43235e-05
-9.01299e-05
-3.80806e-05
-9.75704e-05
-3.15005e-05
-0.000104962
-2.46313e-05
-0.000112505
-1.74023e-05
-0.000120431
-9.47982e-06
-0.000127871
-0.000128338
-7.76e-05
1.982e-05
7.75825e-05
-7.73743e-05
1.26862e-05
-7.69035e-05
5.54532e-06
-7.61825e-05
-1.62321e-06
-7.52022e-05
-8.8438e-06
-7.39491e-05
-1.61418e-05
-7.24043e-05
-2.35436e-05
-7.05435e-05
-3.10737e-05
-6.83371e-05
-3.87518e-05
-6.57507e-05
-4.65884e-05
-6.27482e-05
-5.45807e-05
-5.92946e-05
-6.27112e-05
-5.53604e-05
-7.09456e-05
-5.09241e-05
-7.92438e-05
-4.59858e-05
-8.74813e-05
-4.05902e-05
-9.55255e-05
-3.48044e-05
-0.000103356
-2.8697e-05
-0.000111069
-2.23193e-05
-0.000118883
-1.56581e-05
-0.000127093
-8.48134e-06
-0.000135048
-0.000136819
-7.11068e-05
1.97755e-05
7.11513e-05
-7.08445e-05
1.24238e-05
-7.03639e-05
5.06474e-06
-6.96618e-05
-2.32533e-06
-6.87313e-05
-9.7743e-06
-6.75611e-05
-1.7312e-05
-6.61348e-05
-2.49698e-05
-6.44303e-05
-3.27782e-05
-6.24195e-05
-4.07627e-05
-6.00685e-05
-4.89394e-05
-5.734e-05
-5.73092e-05
-5.41966e-05
-6.58546e-05
-5.06058e-05
-7.45363e-05
-4.65448e-05
-8.33048e-05
-4.20129e-05
-9.20132e-05
-3.7053e-05
-0.000100485
-3.17283e-05
-0.000108681
-2.61004e-05
-0.000116697
-2.02127e-05
-0.00012477
-1.4096e-05
-0.000133209
-7.59646e-06
-0.000141547
-0.000144416
-6.4798e-05
1.9681e-05
6.48925e-05
-6.45093e-05
1.21351e-05
-6.40274e-05
4.58284e-06
-6.33507e-05
-3.00206e-06
-6.24742e-05
-1.06507e-05
-6.13892e-05
-1.8397e-05
-6.00817e-05
-2.62773e-05
-5.85323e-05
-3.43276e-05
-5.67151e-05
-4.25799e-05
-5.45977e-05
-5.10568e-05
-5.21423e-05
-5.97646e-05
-4.93089e-05
-6.8688e-05
-4.60599e-05
-7.77853e-05
-4.23667e-05
-8.6998e-05
-3.82348e-05
-9.6145e-05
-3.37048e-05
-0.000105015
-2.88351e-05
-0.000113551
-2.3682e-05
-0.00012185
-1.82783e-05
-0.000130174
-1.26856e-05
-0.000138802
-6.80688e-06
-0.000147426
-0.000151223
-5.87037e-05
1.95484e-05
5.88364e-05
-5.83988e-05
1.18302e-05
-5.79236e-05
4.10769e-06
-5.7278e-05
-3.64766e-06
-5.64589e-05
-1.14698e-05
-5.54596e-05
-1.93963e-05
-5.4269e-05
-2.7468e-05
-5.28705e-05
-3.57261e-05
-5.12411e-05
-4.42093e-05
-4.93505e-05
-5.29473e-05
-4.71614e-05
-6.19537e-05
-4.46322e-05
-7.12172e-05
-4.17182e-05
-8.06994e-05
-3.83861e-05
-9.033e-05
-3.4649e-05
-9.98821e-05
-3.05404e-05
-0.000109124
-2.61139e-05
-0.000117977
-2.14203e-05
-0.000126544
-1.64903e-05
-0.000135104
-1.14023e-05
-0.00014389
-6.09679e-06
-0.000152732
-0.00015732
-5.28435e-05
1.93891e-05
5.30027e-05
-5.2532e-05
1.15187e-05
-5.20711e-05
3.64689e-06
-5.1462e-05
-4.2568e-06
-5.0703e-05
-1.22288e-05
-4.97895e-05
-2.03099e-05
-4.87127e-05
-2.85447e-05
-4.74592e-05
-3.69796e-05
-4.6009e-05
-4.56595e-05
-4.4335e-05
-5.46214e-05
-4.24018e-05
-6.3887e-05
-4.01655e-05
-7.34534e-05
-3.75721e-05
-8.32928e-05
-3.45973e-05
-9.33048e-05
-3.12511e-05
-0.000103228
-2.75545e-05
-0.000112821
-2.3557e-05
-0.000121975
-1.93017e-05
-0.000130799
-1.48319e-05
-0.000139574
-1.02277e-05
-0.000148494
-5.4538e-06
-0.000157506
-0.000162773
-4.72263e-05
1.92139e-05
4.74015e-05
-4.69172e-05
1.12095e-05
-4.64777e-05
3.20747e-06
-4.591e-05
-4.82454e-06
-4.52138e-05
-1.2925e-05
-4.4386e-05
-2.11376e-05
-4.34203e-05
-2.95105e-05
-4.23055e-05
-3.80944e-05
-4.10248e-05
-4.69401e-05
-3.95545e-05
-5.60917e-05
-3.78625e-05
-6.5579e-05
-3.5901e-05
-7.54149e-05
-3.36171e-05
-8.55768e-05
-3.09981e-05
-9.59238e-05
-2.80359e-05
-0.000106191
-2.47384e-05
-0.000116118
-2.11537e-05
-0.000125559
-1.73199e-05
-0.000134633
-1.32934e-05
-0.0001436
-9.14844e-06
-0.000152639
-4.86832e-06
-0.000161786
-0.000167642
-4.18517e-05
1.90323e-05
4.20333e-05
-4.1553e-05
1.09108e-05
-4.11414e-05
2.79587e-06
-4.06198e-05
-5.34615e-06
-3.99891e-05
-1.35556e-05
-3.92478e-05
-2.18789e-05
-3.8391e-05
-3.03673e-05
-3.74097e-05
-3.90757e-05
-3.629e-05
-4.80599e-05
-3.50105e-05
-5.73711e-05
-3.35385e-05
-6.7051e-05
-3.18304e-05
-7.7123e-05
-2.98539e-05
-8.75532e-05
-2.75879e-05
-9.81899e-05
-2.49984e-05
-0.00010878
-2.20841e-05
-0.000119032
-1.88925e-05
-0.000128751
-1.54664e-05
-0.000138059
-1.18644e-05
-0.000147202
-8.1532e-06
-0.000156351
-4.33247e-06
-0.000165606
-0.000171974
-3.6711e-05
1.88526e-05
3.68907e-05
-3.64297e-05
1.06295e-05
-3.60518e-05
2.41792e-06
-3.55809e-05
-5.81706e-06
-3.50191e-05
-1.41175e-05
-3.43658e-05
-2.25321e-05
-3.36174e-05
-3.11158e-05
-3.27665e-05
-3.99266e-05
-3.18005e-05
-4.90259e-05
-3.06962e-05
-5.84754e-05
-2.94246e-05
-6.83225e-05
-2.79618e-05
-7.85859e-05
-2.62881e-05
-8.92269e-05
-2.43622e-05
-0.000100116
-2.21322e-05
-0.00011101
-1.95856e-05
-0.000121579
-1.67675e-05
-0.000131569
-1.37313e-05
-0.000141095
-1.0533e-05
-0.000150401
-7.23178e-06
-0.000159652
-3.83962e-06
-0.000168999
-0.000175814
-3.17888e-05
1.8682e-05
3.19594e-05
-3.15312e-05
1.03719e-05
-3.11924e-05
2.07907e-06
-3.07768e-05
-6.23265e-06
-3.02876e-05
-1.46067e-05
-2.97254e-05
-2.30942e-05
-2.9087e-05
-3.17542e-05
-2.83654e-05
-4.06482e-05
-2.75445e-05
-4.98467e-05
-2.66024e-05
-5.94176e-05
-2.55257e-05
-6.93992e-05
-2.43052e-05
-7.98063e-05
-2.29177e-05
-9.06144e-05
-2.13116e-05
-0.000101722
-1.94251e-05
-0.000112896
-1.72313e-05
-0.000123773
-1.47712e-05
-0.000134029
-1.21051e-05
-0.000143761
-9.28896e-06
-0.000153217
-6.37511e-06
-0.000162566
-3.38407e-06
-0.00017199
-0.000179198
-2.70641e-05
1.85266e-05
2.72195e-05
-2.6836e-05
1.01438e-05
-2.65418e-05
1.78486e-06
-2.61868e-05
-6.58758e-06
-2.57753e-05
-1.50182e-05
-2.53083e-05
-2.35613e-05
-2.47829e-05
-3.22796e-05
-2.41893e-05
-4.12418e-05
-2.35086e-05
-5.05274e-05
-2.27297e-05
-6.01965e-05
-2.18479e-05
-7.0281e-05
-2.08556e-05
-8.07986e-05
-1.97303e-05
-9.17398e-05
-1.8422e-05
-0.00010303
-1.6862e-05
-0.000114456
-1.5007e-05
-0.000125628
-1.28895e-05
-0.000136147
-1.05751e-05
-0.000146075
-8.12194e-06
-0.00015567
-5.57494e-06
-0.000165113
-2.96077e-06
-0.000174604
-0.000182159
-2.25109e-05
1.83923e-05
2.26452e-05
-2.23183e-05
9.95116e-06
-2.20755e-05
1.54211e-06
-2.17887e-05
-6.87438e-06
-2.14622e-05
-1.53447e-05
-2.10976e-05
-2.39259e-05
-2.06897e-05
-3.26875e-05
-2.02245e-05
-4.1707e-05
-1.96881e-05
-5.10638e-05
-1.90738e-05
-6.08107e-05
-1.83775e-05
-7.09774e-05
-1.75945e-05
-8.15816e-05
-1.67086e-05
-9.26256e-05
-1.56767e-05
-0.000104062
-1.44271e-05
-0.000115706
-1.2899e-05
-0.000127156
-1.11088e-05
-0.000137937
-9.12978e-06
-0.000148055
-7.02242e-06
-0.000157777
-4.8238e-06
-0.000167311
-2.56525e-06
-0.000176862
-0.000184724
-1.80982e-05
1.82865e-05
1.82039e-05
-1.79495e-05
9.80242e-06
-1.77668e-05
1.35945e-06
-1.75586e-05
-7.08257e-06
-1.73296e-05
-1.55737e-05
-1.70783e-05
-2.41772e-05
-1.67943e-05
-3.29714e-05
-1.64614e-05
-4.20399e-05
-1.6069e-05
-5.14562e-05
-1.56122e-05
-6.12675e-05
-1.50895e-05
-7.15002e-05
-1.44996e-05
-8.21714e-05
-1.38336e-05
-9.32917e-05
-1.30578e-05
-0.000104838
-1.21023e-05
-0.000116662
-1.08904e-05
-0.000128367
-9.41644e-06
-0.000139411
-7.75894e-06
-0.000149712
-5.98119e-06
-0.000159555
-4.11455e-06
-0.000169178
-2.19337e-06
-0.000178783
-0.000186917
-1.37879e-05
1.82219e-05
1.38525e-05
-1.36997e-05
9.71423e-06
-1.35973e-05
1.25709e-06
-1.3488e-05
-7.19195e-06
-1.33719e-05
-1.56898e-05
-1.32409e-05
-2.43081e-05
-1.30803e-05
-3.3132e-05
-1.28763e-05
-4.2244e-05
-1.26218e-05
-5.17106e-05
-1.23148e-05
-6.15745e-05
-1.1956e-05
-7.1859e-05
-1.15473e-05
-8.25801e-05
-1.10854e-05
-9.37535e-05
-1.05474e-05
-0.000105376
-9.86967e-06
-0.000117339
-8.9632e-06
-0.000129274
-7.7974e-06
-0.000140577
-6.45055e-06
-0.000151059
-4.98873e-06
-0.000161017
-3.44028e-06
-0.000170726
-1.84125e-06
-0.000180382
-0.000188759
-9.60575e-06
1.82163e-05
9.61136e-06
-9.59688e-06
9.70536e-06
-9.59137e-06
1.25159e-06
-9.59051e-06
-7.19282e-06
-9.58713e-06
-1.56932e-05
-9.56842e-06
-2.43269e-05
-9.52189e-06
-3.31786e-05
-9.43844e-06
-4.23274e-05
-9.31437e-06
-5.18347e-05
-9.15015e-06
-6.17387e-05
-8.94844e-06
-7.20607e-05
-8.7127e-06
-8.28159e-05
-8.44399e-06
-9.40222e-05
-8.12858e-06
-0.000105691
-7.71309e-06
-0.000117755
-7.10168e-06
-0.000129885
-6.23762e-06
-0.000141441
-5.19291e-06
-0.000152104
-4.03587e-06
-0.000162174
-2.79443e-06
-0.000171968
-1.50527e-06
-0.000181672
-0.000190264
-5.58989e-06
1.82827e-05
5.5235e-06
-5.667e-06
9.78247e-06
-5.75516e-06
1.33975e-06
-5.85023e-06
-7.09774e-06
-5.94376e-06
-1.55997e-05
-6.0244e-06
-2.42462e-05
-6.08226e-06
-3.31207e-05
-6.11168e-06
-4.2298e-05
-6.11206e-06
-5.18343e-05
-6.08613e-06
-6.17646e-05
-6.03776e-06
-7.2109e-05
-5.97094e-06
-8.28827e-05
-5.88874e-06
-9.41044e-05
-5.7848e-06
-0.000105795
-5.61766e-06
-0.000117922
-5.29152e-06
-0.000130212
-4.72424e-06
-0.000142008
-3.97517e-06
-0.000152853
-3.11406e-06
-0.000163035
-2.17101e-06
-0.000172911
-1.18201e-06
-0.000182661
-0.000191446
-1.69863e-06
1.84226e-05
1.55874e-06
-1.85645e-06
9.9403e-06
-2.02858e-06
1.51188e-06
-2.20905e-06
-6.91727e-06
-2.38979e-06
-1.54189e-05
-2.56182e-06
-2.40742e-05
-2.71835e-06
-3.29642e-05
-2.85696e-06
-4.21594e-05
-2.97971e-06
-5.17115e-05
-3.09111e-06
-6.16532e-05
-3.19573e-06