/*--------------------------------*- C++ -*----------------------------------*\
| =========                 |                                                 |
| \\      /  F ield         | OpenFOAM: The Open Source CFD Toolbox           |
|  \\    /   O peration     | Version:  v2012                                 |
|   \\  /    A nd           | Website:  www.openfoam.com                      |
|    \\/     M anipulation  |                                                 |
\*---------------------------------------------------------------------------*/
FoamFile
{
    version     2.0;
    format      ascii;
    class       volVectorField;
    location    "0";
    object      C;
}
// * * * * * * * * * * * * * * * * * * * * * * * * * * * * * * * * * * * * * //

dimensions      [0 1 0 0 0 0 0];


internalField   nonuniform List<vector> 
6502
(
(0.01 1.4875 -0.005)
(0.03 1.4875 -0.005)
(0.05 1.4875 -0.005)
(0.07 1.4875 -0.005)
(0.09 1.4875 -0.005)
(0.11 1.4875 -0.005)
(0.13 1.4875 -0.005)
(0.15 1.4875 -0.005)
(0.17 1.4875 -0.005)
(0.19 1.4875 -0.005)
(0.01 1.4625 -0.005)
(0.03 1.4625 -0.005)
(0.05 1.4625 -0.005)
(0.07 1.4625 -0.005)
(0.09 1.4625 -0.005)
(0.11 1.4625 -0.005)
(0.13 1.4625 -0.005)
(0.15 1.4625 -0.005)
(0.17 1.4625 -0.005)
(0.19 1.4625 -0.005)
(0.01 1.4375 -0.005)
(0.03 1.4375 -0.005)
(0.05 1.4375 -0.005)
(0.07 1.4375 -0.005)
(0.09 1.4375 -0.005)
(0.11 1.4375 -0.005)
(0.13 1.4375 -0.005)
(0.15 1.4375 -0.005)
(0.17 1.4375 -0.005)
(0.19 1.4375 -0.005)
(0.01 1.4125 -0.005)
(0.03 1.4125 -0.005)
(0.05 1.4125 -0.005)
(0.07 1.4125 -0.005)
(0.09 1.4125 -0.005)
(0.11 1.4125 -0.005)
(0.13 1.4125 -0.005)
(0.15 1.4125 -0.005)
(0.17 1.4125 -0.005)
(0.19 1.4125 -0.005)
(0.01 1.3875 -0.005)
(0.03 1.3875 -0.005)
(0.05 1.3875 -0.005)
(0.07 1.3875 -0.005)
(0.09 1.3875 -0.005)
(0.11 1.3875 -0.005)
(0.13 1.3875 -0.005)
(0.15 1.3875 -0.005)
(0.17 1.3875 -0.005)
(0.19 1.3875 -0.005)
(0.01 1.3625 -0.005)
(0.03 1.3625 -0.005)
(0.05 1.3625 -0.005)
(0.07 1.3625 -0.005)
(0.09 1.3625 -0.005)
(0.11 1.3625 -0.005)
(0.13 1.3625 -0.005)
(0.15 1.3625 -0.005)
(0.17 1.3625 -0.005)
(0.19 1.3625 -0.005)
(0.01 1.3375 -0.005)
(0.03 1.3375 -0.005)
(0.05 1.3375 -0.005)
(0.07 1.3375 -0.005)
(0.09 1.3375 -0.005)
(0.11 1.3375 -0.005)
(0.13 1.3375 -0.005)
(0.15 1.3375 -0.005)
(0.17 1.3375 -0.005)
(0.19 1.3375 -0.005)
(0.01 1.3125 -0.005)
(0.03 1.3125 -0.005)
(0.05 1.3125 -0.005)
(0.07 1.3125 -0.005)
(0.09 1.3125 -0.005)
(0.11 1.3125 -0.005)
(0.13 1.3125 -0.005)
(0.15 1.3125 -0.005)
(0.17 1.3125 -0.005)
(0.19 1.3125 -0.005)
(0.01 1.2875 -0.005)
(0.03 1.2875 -0.005)
(0.05 1.2875 -0.005)
(0.07 1.2875 -0.005)
(0.09 1.2875 -0.005)
(0.11 1.2875 -0.005)
(0.13 1.2875 -0.005)
(0.15 1.2875 -0.005)
(0.17 1.2875 -0.005)
(0.19 1.2875 -0.005)
(0.01 1.2625 -0.005)
(0.03 1.2625 -0.005)
(0.05 1.2625 -0.005)
(0.07 1.2625 -0.005)
(0.09 1.2625 -0.005)
(0.11 1.2625 -0.005)
(0.13 1.2625 -0.005)
(0.15 1.2625 -0.005)
(0.17 1.2625 -0.005)
(0.19 1.2625 -0.005)
(0.01 1.2375 -0.005)
(0.03 1.2375 -0.005)
(0.05 1.2375 -0.005)
(0.07 1.2375 -0.005)
(0.09 1.2375 -0.005)
(0.11 1.2375 -0.005)
(0.13 1.2375 -0.005)
(0.15 1.2375 -0.005)
(0.17 1.2375 -0.005)
(0.19 1.2375 -0.005)
(0.01 1.2125 -0.005)
(0.03 1.2125 -0.005)
(0.05 1.2125 -0.005)
(0.07 1.2125 -0.005)
(0.09 1.2125 -0.005)
(0.11 1.2125 -0.005)
(0.13 1.2125 -0.005)
(0.15 1.2125 -0.005)
(0.17 1.2125 -0.005)
(0.19 1.2125 -0.005)
(0.01 1.1875 -0.005)
(0.03 1.1875 -0.005)
(0.05 1.1875 -0.005)
(0.07 1.1875 -0.005)
(0.09 1.1875 -0.005)
(0.11 1.1875 -0.005)
(0.13 1.1875 -0.005)
(0.15 1.1875 -0.005)
(0.17 1.1875 -0.005)
(0.19 1.1875 -0.005)
(0.01 1.1625 -0.005)
(0.03 1.1625 -0.005)
(0.05 1.1625 -0.005)
(0.07 1.1625 -0.005)
(0.09 1.1625 -0.005)
(0.11 1.1625 -0.005)
(0.13 1.1625 -0.005)
(0.15 1.1625 -0.005)
(0.17 1.1625 -0.005)
(0.19 1.1625 -0.005)
(0.01 1.1375 -0.005)
(0.03 1.1375 -0.005)
(0.05 1.1375 -0.005)
(0.07 1.1375 -0.005)
(0.09 1.1375 -0.005)
(0.11 1.1375 -0.005)
(0.13 1.1375 -0.005)
(0.15 1.1375 -0.005)
(0.17 1.1375 -0.005)
(0.19 1.1375 -0.005)
(0.01 1.1125 -0.005)
(0.03 1.1125 -0.005)
(0.05 1.1125 -0.005)
(0.07 1.1125 -0.005)
(0.09 1.1125 -0.005)
(0.11 1.1125 -0.005)
(0.13 1.1125 -0.005)
(0.15 1.1125 -0.005)
(0.17 1.1125 -0.005)
(0.19 1.1125 -0.005)
(0.01 1.0875 -0.005)
(0.03 1.0875 -0.005)
(0.05 1.0875 -0.005)
(0.07 1.0875 -0.005)
(0.09 1.0875 -0.005)
(0.11 1.0875 -0.005)
(0.13 1.0875 -0.005)
(0.15 1.0875 -0.005)
(0.17 1.0875 -0.005)
(0.19 1.0875 -0.005)
(0.01 1.0625 -0.005)
(0.03 1.0625 -0.005)
(0.05 1.0625 -0.005)
(0.07 1.0625 -0.005)
(0.09 1.0625 -0.005)
(0.11 1.0625 -0.005)
(0.13 1.0625 -0.005)
(0.15 1.0625 -0.005)
(0.17 1.0625 -0.005)
(0.19 1.0625 -0.005)
(0.01 1.0375 -0.005)
(0.03 1.0375 -0.005)
(0.05 1.0375 -0.005)
(0.07 1.0375 -0.005)
(0.09 1.0375 -0.005)
(0.11 1.0375 -0.005)
(0.13 1.0375 -0.005)
(0.15 1.0375 -0.005)
(0.17 1.0375 -0.005)
(0.19 1.0375 -0.005)
(0.01 1.0125 -0.005)
(0.03 1.0125 -0.005)
(0.05 1.0125 -0.005)
(0.07 1.0125 -0.005)
(0.09 1.0125 -0.005)
(0.11 1.0125 -0.005)
(0.13 1.0125 -0.005)
(0.15 1.0125 -0.005)
(0.17 1.0125 -0.005)
(0.19 1.0125 -0.005)
(0.01 0.987391 -0.005)
(0.03 0.987391 -0.005)
(0.05 0.987391 -0.005)
(0.07 0.987391 -0.005)
(0.09 0.987391 -0.005)
(0.11 0.987391 -0.005)
(0.13 0.987391 -0.005)
(0.15 0.987391 -0.005)
(0.17 0.987391 -0.005)
(0.19 0.987391 -0.005)
(0.01 0.962174 -0.005)
(0.03 0.962174 -0.005)
(0.05 0.962174 -0.005)
(0.07 0.962174 -0.005)
(0.09 0.962174 -0.005)
(0.11 0.962174 -0.005)
(0.13 0.962174 -0.005)
(0.15 0.962174 -0.005)
(0.17 0.962174 -0.005)
(0.19 0.962174 -0.005)
(0.01 0.936957 -0.005)
(0.03 0.936957 -0.005)
(0.05 0.936957 -0.005)
(0.07 0.936957 -0.005)
(0.09 0.936957 -0.005)
(0.11 0.936957 -0.005)
(0.13 0.936957 -0.005)
(0.15 0.936957 -0.005)
(0.17 0.936957 -0.005)
(0.19 0.936957 -0.005)
(0.01 0.911739 -0.005)
(0.03 0.911739 -0.005)
(0.05 0.911739 -0.005)
(0.07 0.911739 -0.005)
(0.09 0.911739 -0.005)
(0.11 0.911739 -0.005)
(0.13 0.911739 -0.005)
(0.15 0.911739 -0.005)
(0.17 0.911739 -0.005)
(0.19 0.911739 -0.005)
(0.01 0.886522 -0.005)
(0.03 0.886522 -0.005)
(0.05 0.886522 -0.005)
(0.07 0.886522 -0.005)
(0.09 0.886522 -0.005)
(0.11 0.886522 -0.005)
(0.13 0.886522 -0.005)
(0.15 0.886522 -0.005)
(0.17 0.886522 -0.005)
(0.19 0.886522 -0.005)
(0.01 0.861304 -0.005)
(0.03 0.861304 -0.005)
(0.05 0.861304 -0.005)
(0.07 0.861304 -0.005)
(0.09 0.861304 -0.005)
(0.11 0.861304 -0.005)
(0.13 0.861304 -0.005)
(0.15 0.861304 -0.005)
(0.17 0.861304 -0.005)
(0.19 0.861304 -0.005)
(0.01 0.836087 -0.005)
(0.03 0.836087 -0.005)
(0.05 0.836087 -0.005)
(0.07 0.836087 -0.005)
(0.09 0.836087 -0.005)
(0.11 0.836087 -0.005)
(0.13 0.836087 -0.005)
(0.15 0.836087 -0.005)
(0.17 0.836087 -0.005)
(0.19 0.836087 -0.005)
(0.01 0.81087 -0.005)
(0.03 0.81087 -0.005)
(0.05 0.81087 -0.005)
(0.07 0.81087 -0.005)
(0.09 0.81087 -0.005)
(0.11 0.81087 -0.005)
(0.13 0.81087 -0.005)
(0.15 0.81087 -0.005)
(0.17 0.81087 -0.005)
(0.19 0.81087 -0.005)
(0.01 0.785652 -0.005)
(0.03 0.785652 -0.005)
(0.05 0.785652 -0.005)
(0.07 0.785652 -0.005)
(0.09 0.785652 -0.005)
(0.11 0.785652 -0.005)
(0.13 0.785652 -0.005)
(0.15 0.785652 -0.005)
(0.17 0.785652 -0.005)
(0.19 0.785652 -0.005)
(0.01 0.760435 -0.005)
(0.03 0.760435 -0.005)
(0.05 0.760435 -0.005)
(0.07 0.760435 -0.005)
(0.09 0.760435 -0.005)
(0.11 0.760435 -0.005)
(0.13 0.760435 -0.005)
(0.15 0.760435 -0.005)
(0.17 0.760435 -0.005)
(0.19 0.760435 -0.005)
(0.01 0.735217 -0.005)
(0.03 0.735217 -0.005)
(0.05 0.735217 -0.005)
(0.07 0.735217 -0.005)
(0.09 0.735217 -0.005)
(0.11 0.735217 -0.005)
(0.13 0.735217 -0.005)
(0.15 0.735217 -0.005)
(0.17 0.735217 -0.005)
(0.19 0.735217 -0.005)
(0.01 0.71 -0.005)
(0.03 0.71 -0.005)
(0.05 0.71 -0.005)
(0.07 0.71 -0.005)
(0.09 0.71 -0.005)
(0.11 0.71 -0.005)
(0.13 0.71 -0.005)
(0.15 0.71 -0.005)
(0.17 0.71 -0.005)
(0.19 0.71 -0.005)
(0.01 0.684783 -0.005)
(0.03 0.684783 -0.005)
(0.05 0.684783 -0.005)
(0.07 0.684783 -0.005)
(0.09 0.684783 -0.005)
(0.11 0.684783 -0.005)
(0.13 0.684783 -0.005)
(0.15 0.684783 -0.005)
(0.17 0.684783 -0.005)
(0.19 0.684783 -0.005)
(0.01 0.659565 -0.005)
(0.03 0.659565 -0.005)
(0.05 0.659565 -0.005)
(0.07 0.659565 -0.005)
(0.09 0.659565 -0.005)
(0.11 0.659565 -0.005)
(0.13 0.659565 -0.005)
(0.15 0.659565 -0.005)
(0.17 0.659565 -0.005)
(0.19 0.659565 -0.005)
(0.01 0.634348 -0.005)
(0.03 0.634348 -0.005)
(0.05 0.634348 -0.005)
(0.07 0.634348 -0.005)
(0.09 0.634348 -0.005)
(0.11 0.634348 -0.005)
(0.13 0.634348 -0.005)
(0.15 0.634348 -0.005)
(0.17 0.634348 -0.005)
(0.19 0.634348 -0.005)
(0.01 0.60913 -0.005)
(0.03 0.60913 -0.005)
(0.05 0.60913 -0.005)
(0.07 0.60913 -0.005)
(0.09 0.60913 -0.005)
(0.11 0.60913 -0.005)
(0.13 0.60913 -0.005)
(0.15 0.60913 -0.005)
(0.17 0.60913 -0.005)
(0.19 0.60913 -0.005)
(0.01 0.583913 -0.005)
(0.03 0.583913 -0.005)
(0.05 0.583913 -0.005)
(0.07 0.583913 -0.005)
(0.09 0.583913 -0.005)
(0.11 0.583913 -0.005)
(0.13 0.583913 -0.005)
(0.15 0.583913 -0.005)
(0.17 0.583913 -0.005)
(0.19 0.583913 -0.005)
(0.01 0.558696 -0.005)
(0.03 0.558696 -0.005)
(0.05 0.558696 -0.005)
(0.07 0.558696 -0.005)
(0.09 0.558696 -0.005)
(0.11 0.558696 -0.005)
(0.13 0.558696 -0.005)
(0.15 0.558696 -0.005)
(0.17 0.558696 -0.005)
(0.19 0.558696 -0.005)
(0.01 0.533478 -0.005)
(0.03 0.533478 -0.005)
(0.05 0.533478 -0.005)
(0.07 0.533478 -0.005)
(0.09 0.533478 -0.005)
(0.11 0.533478 -0.005)
(0.13 0.533478 -0.005)
(0.15 0.533478 -0.005)
(0.17 0.533478 -0.005)
(0.19 0.533478 -0.005)
(0.01 0.508261 -0.005)
(0.03 0.508261 -0.005)
(0.05 0.508261 -0.005)
(0.07 0.508261 -0.005)
(0.09 0.508261 -0.005)
(0.11 0.508261 -0.005)
(0.13 0.508261 -0.005)
(0.15 0.508261 -0.005)
(0.17 0.508261 -0.005)
(0.19 0.508261 -0.005)
(0.01 0.483043 -0.005)
(0.03 0.483043 -0.005)
(0.05 0.483043 -0.005)
(0.07 0.483043 -0.005)
(0.09 0.483043 -0.005)
(0.11 0.483043 -0.005)
(0.13 0.483043 -0.005)
(0.15 0.483043 -0.005)
(0.17 0.483043 -0.005)
(0.19 0.483043 -0.005)
(0.01 0.457826 -0.005)
(0.03 0.457826 -0.005)
(0.05 0.457826 -0.005)
(0.07 0.457826 -0.005)
(0.09 0.457826 -0.005)
(0.11 0.457826 -0.005)
(0.13 0.457826 -0.005)
(0.15 0.457826 -0.005)
(0.17 0.457826 -0.005)
(0.19 0.457826 -0.005)
(0.01 0.432609 -0.005)
(0.03 0.432609 -0.005)
(0.05 0.432609 -0.005)
(0.07 0.432609 -0.005)
(0.09 0.432609 -0.005)
(0.11 0.432609 -0.005)
(0.13 0.432609 -0.005)
(0.15 0.432609 -0.005)
(0.17 0.432609 -0.005)
(0.19 0.432609 -0.005)
(0.01 0.407647 -0.005)
(0.03 0.407647 -0.005)
(0.05 0.407647 -0.005)
(0.07 0.407647 -0.005)
(0.09 0.407647 -0.005)
(0.11 0.407647 -0.005)
(0.13 0.407647 -0.005)
(0.15 0.407647 -0.005)
(0.17 0.407647 -0.005)
(0.19 0.407647 -0.005)
(0.01 0.382941 -0.005)
(0.03 0.382941 -0.005)
(0.05 0.382941 -0.005)
(0.07 0.382941 -0.005)
(0.09 0.382941 -0.005)
(0.11 0.382941 -0.005)
(0.13 0.382941 -0.005)
(0.15 0.382941 -0.005)
(0.17 0.382941 -0.005)
(0.19 0.382941 -0.005)
(0.01 0.358235 -0.005)
(0.03 0.358235 -0.005)
(0.05 0.358235 -0.005)
(0.07 0.358235 -0.005)
(0.09 0.358235 -0.005)
(0.11 0.358235 -0.005)
(0.13 0.358235 -0.005)
(0.15 0.358235 -0.005)
(0.17 0.358235 -0.005)
(0.19 0.358235 -0.005)
(0.01 0.333529 -0.005)
(0.03 0.333529 -0.005)
(0.05 0.333529 -0.005)
(0.07 0.333529 -0.005)
(0.09 0.333529 -0.005)
(0.11 0.333529 -0.005)
(0.13 0.333529 -0.005)
(0.15 0.333529 -0.005)
(0.17 0.333529 -0.005)
(0.19 0.333529 -0.005)
(0.01 0.308824 -0.005)
(0.03 0.308824 -0.005)
(0.05 0.308824 -0.005)
(0.07 0.308824 -0.005)
(0.09 0.308824 -0.005)
(0.11 0.308824 -0.005)
(0.13 0.308824 -0.005)
(0.15 0.308824 -0.005)
(0.17 0.308824 -0.005)
(0.19 0.308824 -0.005)
(0.01 0.284118 -0.005)
(0.03 0.284118 -0.005)
(0.05 0.284118 -0.005)
(0.07 0.284118 -0.005)
(0.09 0.284118 -0.005)
(0.11 0.284118 -0.005)
(0.13 0.284118 -0.005)
(0.15 0.284118 -0.005)
(0.17 0.284118 -0.005)
(0.19 0.284118 -0.005)
(0.01 0.259412 -0.005)
(0.03 0.259412 -0.005)
(0.05 0.259412 -0.005)
(0.07 0.259412 -0.005)
(0.09 0.259412 -0.005)
(0.11 0.259412 -0.005)
(0.13 0.259412 -0.005)
(0.15 0.259412 -0.005)
(0.17 0.259412 -0.005)
(0.19 0.259412 -0.005)
(0.01 0.234706 -0.005)
(0.03 0.234706 -0.005)
(0.05 0.234706 -0.005)
(0.07 0.234706 -0.005)
(0.09 0.234706 -0.005)
(0.11 0.234706 -0.005)
(0.13 0.234706 -0.005)
(0.15 0.234706 -0.005)
(0.17 0.234706 -0.005)
(0.19 0.234706 -0.005)
(0.01 0.21 -0.005)
(0.03 0.21 -0.005)
(0.05 0.21 -0.005)
(0.07 0.21 -0.005)
(0.09 0.21 -0.005)
(0.11 0.21 -0.005)
(0.13 0.21 -0.005)
(0.15 0.21 -0.005)
(0.17 0.21 -0.005)
(0.19 0.21 -0.005)
(0.01 0.185294 -0.005)
(0.03 0.185294 -0.005)
(0.05 0.185294 -0.005)
(0.07 0.185294 -0.005)
(0.09 0.185294 -0.005)
(0.11 0.185294 -0.005)
(0.13 0.185294 -0.005)
(0.15 0.185294 -0.005)
(0.17 0.185294 -0.005)
(0.19 0.185294 -0.005)
(0.01 0.160588 -0.005)
(0.03 0.160588 -0.005)
(0.05 0.160588 -0.005)
(0.07 0.160588 -0.005)
(0.09 0.160588 -0.005)
(0.11 0.160588 -0.005)
(0.13 0.160588 -0.005)
(0.15 0.160588 -0.005)
(0.17 0.160588 -0.005)
(0.19 0.160588 -0.005)
(0.01 0.135882 -0.005)
(0.03 0.135882 -0.005)
(0.05 0.135882 -0.005)
(0.07 0.135882 -0.005)
(0.09 0.135882 -0.005)
(0.11 0.135882 -0.005)
(0.13 0.135882 -0.005)
(0.15 0.135882 -0.005)
(0.17 0.135882 -0.005)
(0.19 0.135882 -0.005)
(0.01 0.111176 -0.005)
(0.03 0.111176 -0.005)
(0.05 0.111176 -0.005)
(0.07 0.111176 -0.005)
(0.09 0.111176 -0.005)
(0.11 0.111176 -0.005)
(0.13 0.111176 -0.005)
(0.15 0.111176 -0.005)
(0.17 0.111176 -0.005)
(0.19 0.111176 -0.005)
(0.01 0.0864706 -0.005)
(0.03 0.0864706 -0.005)
(0.05 0.0864706 -0.005)
(0.07 0.0864706 -0.005)
(0.09 0.0864706 -0.005)
(0.11 0.0864706 -0.005)
(0.13 0.0864706 -0.005)
(0.15 0.0864706 -0.005)
(0.17 0.0864706 -0.005)
(0.19 0.0864706 -0.005)
(0.01 0.0617647 -0.005)
(0.03 0.0617647 -0.005)
(0.05 0.0617647 -0.005)
(0.07 0.0617647 -0.005)
(0.09 0.0617647 -0.005)
(0.11 0.0617647 -0.005)
(0.13 0.0617647 -0.005)
(0.15 0.0617647 -0.005)
(0.17 0.0617647 -0.005)
(0.19 0.0617647 -0.005)
(0.01 0.0370588 -0.005)
(0.03 0.0370588 -0.005)
(0.05 0.0370588 -0.005)
(0.07 0.0370588 -0.005)
(0.09 0.0370588 -0.005)
(0.11 0.0370588 -0.005)
(0.13 0.0370588 -0.005)
(0.15 0.0370588 -0.005)
(0.17 0.0370588 -0.005)
(0.19 0.0370588 -0.005)
(0.01 0.0123529 -0.005)
(0.03 0.0123529 -0.005)
(0.05 0.0123529 -0.005)
(0.07 0.0123529 -0.005)
(0.09 0.0123529 -0.005)
(0.11 0.0123529 -0.005)
(0.13 0.0123529 -0.005)
(0.15 0.0123529 -0.005)
(0.17 0.0123529 -0.005)
(0.19 0.0123529 -0.005)
(0.2095 0.987391 -0.005)
(0.2285 0.987391 -0.005)
(0.2475 0.987391 -0.005)
(0.2665 0.987391 -0.005)
(0.2855 0.987391 -0.005)
(0.3045 0.987391 -0.005)
(0.3235 0.987391 -0.005)
(0.3425 0.987391 -0.005)
(0.3615 0.987391 -0.005)
(0.3805 0.987391 -0.005)
(0.3995 0.987391 -0.005)
(0.4185 0.987391 -0.005)
(0.4375 0.987391 -0.005)
(0.4565 0.987391 -0.005)
(0.4755 0.987391 -0.005)
(0.4945 0.987391 -0.005)
(0.5135 0.987391 -0.005)
(0.5325 0.987391 -0.005)
(0.5515 0.987391 -0.005)
(0.5705 0.987391 -0.005)
(0.5895 0.987391 -0.005)
(0.6085 0.987391 -0.005)
(0.6275 0.987391 -0.005)
(0.6465 0.987391 -0.005)
(0.6655 0.987391 -0.005)
(0.2095 0.962174 -0.005)
(0.2285 0.962174 -0.005)
(0.2475 0.962174 -0.005)
(0.2665 0.962174 -0.005)
(0.2855 0.962174 -0.005)
(0.3045 0.962174 -0.005)
(0.3235 0.962174 -0.005)
(0.3425 0.962174 -0.005)
(0.3615 0.962174 -0.005)
(0.3805 0.962174 -0.005)
(0.3995 0.962174 -0.005)
(0.4185 0.962174 -0.005)
(0.4375 0.962174 -0.005)
(0.4565 0.962174 -0.005)
(0.4755 0.962174 -0.005)
(0.4945 0.962174 -0.005)
(0.5135 0.962174 -0.005)
(0.5325 0.962174 -0.005)
(0.5515 0.962174 -0.005)
(0.5705 0.962174 -0.005)
(0.5895 0.962174 -0.005)
(0.6085 0.962174 -0.005)
(0.6275 0.962174 -0.005)
(0.6465 0.962174 -0.005)
(0.6655 0.962174 -0.005)
(0.2095 0.936957 -0.005)
(0.2285 0.936957 -0.005)
(0.2475 0.936957 -0.005)
(0.2665 0.936957 -0.005)
(0.2855 0.936957 -0.005)
(0.3045 0.936957 -0.005)
(0.3235 0.936957 -0.005)
(0.3425 0.936957 -0.005)
(0.3615 0.936957 -0.005)
(0.3805 0.936957 -0.005)
(0.3995 0.936957 -0.005)
(0.4185 0.936957 -0.005)
(0.4375 0.936957 -0.005)
(0.4565 0.936957 -0.005)
(0.4755 0.936957 -0.005)
(0.4945 0.936957 -0.005)
(0.5135 0.936957 -0.005)
(0.5325 0.936957 -0.005)
(0.5515 0.936957 -0.005)
(0.5705 0.936957 -0.005)
(0.5895 0.936957 -0.005)
(0.6085 0.936957 -0.005)
(0.6275 0.936957 -0.005)
(0.6465 0.936957 -0.005)
(0.6655 0.936957 -0.005)
(0.2095 0.911739 -0.005)
(0.2285 0.911739 -0.005)
(0.2475 0.911739 -0.005)
(0.2665 0.911739 -0.005)
(0.2855 0.911739 -0.005)
(0.3045 0.911739 -0.005)
(0.3235 0.911739 -0.005)
(0.3425 0.911739 -0.005)
(0.3615 0.911739 -0.005)
(0.3805 0.911739 -0.005)
(0.3995 0.911739 -0.005)
(0.4185 0.911739 -0.005)
(0.4375 0.911739 -0.005)
(0.4565 0.911739 -0.005)
(0.4755 0.911739 -0.005)
(0.4945 0.911739 -0.005)
(0.5135 0.911739 -0.005)
(0.5325 0.911739 -0.005)
(0.5515 0.911739 -0.005)
(0.5705 0.911739 -0.005)
(0.5895 0.911739 -0.005)
(0.6085 0.911739 -0.005)
(0.6275 0.911739 -0.005)
(0.6465 0.911739 -0.005)
(0.6655 0.911739 -0.005)
(0.2095 0.886522 -0.005)
(0.2285 0.886522 -0.005)
(0.2475 0.886522 -0.005)
(0.2665 0.886522 -0.005)
(0.2855 0.886522 -0.005)
(0.3045 0.886522 -0.005)
(0.3235 0.886522 -0.005)
(0.3425 0.886522 -0.005)
(0.3615 0.886522 -0.005)
(0.3805 0.886522 -0.005)
(0.3995 0.886522 -0.005)
(0.4185 0.886522 -0.005)
(0.4375 0.886522 -0.005)
(0.4565 0.886522 -0.005)
(0.4755 0.886522 -0.005)
(0.4945 0.886522 -0.005)
(0.5135 0.886522 -0.005)
(0.5325 0.886522 -0.005)
(0.5515 0.886522 -0.005)
(0.5705 0.886522 -0.005)
(0.5895 0.886522 -0.005)
(0.6085 0.886522 -0.005)
(0.6275 0.886522 -0.005)
(0.6465 0.886522 -0.005)
(0.6655 0.886522 -0.005)
(0.2095 0.861304 -0.005)
(0.2285 0.861304 -0.005)
(0.2475 0.861304 -0.005)
(0.2665 0.861304 -0.005)
(0.2855 0.861304 -0.005)
(0.3045 0.861304 -0.005)
(0.3235 0.861304 -0.005)
(0.3425 0.861304 -0.005)
(0.3615 0.861304 -0.005)
(0.3805 0.861304 -0.005)
(0.3995 0.861304 -0.005)
(0.4185 0.861304 -0.005)
(0.4375 0.861304 -0.005)
(0.4565 0.861304 -0.005)
(0.4755 0.861304 -0.005)
(0.4945 0.861304 -0.005)
(0.5135 0.861304 -0.005)
(0.5325 0.861304 -0.005)
(0.5515 0.861304 -0.005)
(0.5705 0.861304 -0.005)
(0.5895 0.861304 -0.005)
(0.6085 0.861304 -0.005)
(0.6275 0.861304 -0.005)
(0.6465 0.861304 -0.005)
(0.6655 0.861304 -0.005)
(0.2095 0.836087 -0.005)
(0.2285 0.836087 -0.005)
(0.2475 0.836087 -0.005)
(0.2665 0.836087 -0.005)
(0.2855 0.836087 -0.005)
(0.3045 0.836087 -0.005)
(0.3235 0.836087 -0.005)
(0.3425 0.836087 -0.005)
(0.3615 0.836087 -0.005)
(0.3805 0.836087 -0.005)
(0.3995 0.836087 -0.005)
(0.4185 0.836087 -0.005)
(0.4375 0.836087 -0.005)
(0.4565 0.836087 -0.005)
(0.4755 0.836087 -0.005)
(0.4945 0.836087 -0.005)
(0.5135 0.836087 -0.005)
(0.5325 0.836087 -0.005)
(0.5515 0.836087 -0.005)
(0.5705 0.836087 -0.005)
(0.5895 0.836087 -0.005)
(0.6085 0.836087 -0.005)
(0.6275 0.836087 -0.005)
(0.6465 0.836087 -0.005)
(0.6655 0.836087 -0.005)
(0.2095 0.81087 -0.005)
(0.2285 0.81087 -0.005)
(0.2475 0.81087 -0.005)
(0.2665 0.81087 -0.005)
(0.2855 0.81087 -0.005)
(0.3045 0.81087 -0.005)
(0.3235 0.81087 -0.005)
(0.3425 0.81087 -0.005)
(0.3615 0.81087 -0.005)
(0.3805 0.81087 -0.005)
(0.3995 0.81087 -0.005)
(0.4185 0.81087 -0.005)
(0.4375 0.81087 -0.005)
(0.4565 0.81087 -0.005)
(0.4755 0.81087 -0.005)
(0.4945 0.81087 -0.005)
(0.5135 0.81087 -0.005)
(0.5325 0.81087 -0.005)
(0.5515 0.81087 -0.005)
(0.5705 0.81087 -0.005)
(0.5895 0.81087 -0.005)
(0.6085 0.81087 -0.005)
(0.6275 0.81087 -0.005)
(0.6465 0.81087 -0.005)
(0.6655 0.81087 -0.005)
(0.2095 0.785652 -0.005)
(0.2285 0.785652 -0.005)
(0.2475 0.785652 -0.005)
(0.2665 0.785652 -0.005)
(0.2855 0.785652 -0.005)
(0.3045 0.785652 -0.005)
(0.3235 0.785652 -0.005)
(0.3425 0.785652 -0.005)
(0.3615 0.785652 -0.005)
(0.3805 0.785652 -0.005)
(0.3995 0.785652 -0.005)
(0.4185 0.785652 -0.005)
(0.4375 0.785652 -0.005)
(0.4565 0.785652 -0.005)
(0.4755 0.785652 -0.005)
(0.4945 0.785652 -0.005)
(0.5135 0.785652 -0.005)
(0.5325 0.785652 -0.005)
(0.5515 0.785652 -0.005)
(0.5705 0.785652 -0.005)
(0.5895 0.785652 -0.005)
(0.6085 0.785652 -0.005)
(0.6275 0.785652 -0.005)
(0.6465 0.785652 -0.005)
(0.6655 0.785652 -0.005)
(0.2095 0.760435 -0.005)
(0.2285 0.760435 -0.005)
(0.2475 0.760435 -0.005)
(0.2665 0.760435 -0.005)
(0.2855 0.760435 -0.005)
(0.3045 0.760435 -0.005)
(0.3235 0.760435 -0.005)
(0.3425 0.760435 -0.005)
(0.3615 0.760435 -0.005)
(0.3805 0.760435 -0.005)
(0.3995 0.760435 -0.005)
(0.4185 0.760435 -0.005)
(0.4375 0.760435 -0.005)
(0.4565 0.760435 -0.005)
(0.4755 0.760435 -0.005)
(0.4945 0.760435 -0.005)
(0.5135 0.760435 -0.005)
(0.5325 0.760435 -0.005)
(0.5515 0.760435 -0.005)
(0.5705 0.760435 -0.005)
(0.5895 0.760435 -0.005)
(0.6085 0.760435 -0.005)
(0.6275 0.760435 -0.005)
(0.6465 0.760435 -0.005)
(0.6655 0.760435 -0.005)
(0.2095 0.735217 -0.005)
(0.2285 0.735217 -0.005)
(0.2475 0.735217 -0.005)
(0.2665 0.735217 -0.005)
(0.2855 0.735217 -0.005)
(0.3045 0.735217 -0.005)
(0.3235 0.735217 -0.005)
(0.3425 0.735217 -0.005)
(0.3615 0.735217 -0.005)
(0.3805 0.735217 -0.005)
(0.3995 0.735217 -0.005)
(0.4185 0.735217 -0.005)
(0.4375 0.735217 -0.005)
(0.4565 0.735217 -0.005)
(0.4755 0.735217 -0.005)
(0.4945 0.735217 -0.005)
(0.5135 0.735217 -0.005)
(0.5325 0.735217 -0.005)
(0.5515 0.735217 -0.005)
(0.5705 0.735217 -0.005)
(0.5895 0.735217 -0.005)
(0.6085 0.735217 -0.005)
(0.6275 0.735217 -0.005)
(0.6465 0.735217 -0.005)
(0.6655 0.735217 -0.005)
(0.2095 0.71 -0.005)
(0.2285 0.71 -0.005)
(0.2475 0.71 -0.005)
(0.2665 0.71 -0.005)
(0.2855 0.71 -0.005)
(0.3045 0.71 -0.005)
(0.3235 0.71 -0.005)
(0.3425 0.71 -0.005)
(0.3615 0.71 -0.005)
(0.3805 0.71 -0.005)
(0.3995 0.71 -0.005)
(0.4185 0.71 -0.005)
(0.4375 0.71 -0.005)
(0.4565 0.71 -0.005)
(0.4755 0.71 -0.005)
(0.4945 0.71 -0.005)
(0.5135 0.71 -0.005)
(0.5325 0.71 -0.005)
(0.5515 0.71 -0.005)
(0.5705 0.71 -0.005)
(0.5895 0.71 -0.005)
(0.6085 0.71 -0.005)
(0.6275 0.71 -0.005)
(0.6465 0.71 -0.005)
(0.6655 0.71 -0.005)
(0.2095 0.684783 -0.005)
(0.2285 0.684783 -0.005)
(0.2475 0.684783 -0.005)
(0.2665 0.684783 -0.005)
(0.2855 0.684783 -0.005)
(0.3045 0.684783 -0.005)
(0.3235 0.684783 -0.005)
(0.3425 0.684783 -0.005)
(0.3615 0.684783 -0.005)
(0.3805 0.684783 -0.005)
(0.3995 0.684783 -0.005)
(0.4185 0.684783 -0.005)
(0.4375 0.684783 -0.005)
(0.4565 0.684783 -0.005)
(0.4755 0.684783 -0.005)
(0.4945 0.684783 -0.005)
(0.5135 0.684783 -0.005)
(0.5325 0.684783 -0.005)
(0.5515 0.684783 -0.005)
(0.5705 0.684783 -0.005)
(0.5895 0.684783 -0.005)
(0.6085 0.684783 -0.005)
(0.6275 0.684783 -0.005)
(0.6465 0.684783 -0.005)
(0.6655 0.684783 -0.005)
(0.2095 0.659565 -0.005)
(0.2285 0.659565 -0.005)
(0.2475 0.659565 -0.005)
(0.2665 0.659565 -0.005)
(0.2855 0.659565 -0.005)
(0.3045 0.659565 -0.005)
(0.3235 0.659565 -0.005)
(0.3425 0.659565 -0.005)
(0.3615 0.659565 -0.005)
(0.3805 0.659565 -0.005)
(0.3995 0.659565 -0.005)
(0.4185 0.659565 -0.005)
(0.4375 0.659565 -0.005)
(0.4565 0.659565 -0.005)
(0.4755 0.659565 -0.005)
(0.4945 0.659565 -0.005)
(0.5135 0.659565 -0.005)
(0.5325 0.659565 -0.005)
(0.5515 0.659565 -0.005)
(0.5705 0.659565 -0.005)
(0.5895 0.659565 -0.005)
(0.6085 0.659565 -0.005)
(0.6275 0.659565 -0.005)
(0.6465 0.659565 -0.005)
(0.6655 0.659565 -0.005)
(0.2095 0.634348 -0.005)
(0.2285 0.634348 -0.005)
(0.2475 0.634348 -0.005)
(0.2665 0.634348 -0.005)
(0.2855 0.634348 -0.005)
(0.3045 0.634348 -0.005)
(0.3235 0.634348 -0.005)
(0.3425 0.634348 -0.005)
(0.3615 0.634348 -0.005)
(0.3805 0.634348 -0.005)
(0.3995 0.634348 -0.005)
(0.4185 0.634348 -0.005)
(0.4375 0.634348 -0.005)
(0.4565 0.634348 -0.005)
(0.4755 0.634348 -0.005)
(0.4945 0.634348 -0.005)
(0.5135 0.634348 -0.005)
(0.5325 0.634348 -0.005)
(0.5515 0.634348 -0.005)
(0.5705 0.634348 -0.005)
(0.5895 0.634348 -0.005)
(0.6085 0.634348 -0.005)
(0.6275 0.634348 -0.005)
(0.6465 0.634348 -0.005)
(0.6655 0.634348 -0.005)
(0.2095 0.60913 -0.005)
(0.2285 0.60913 -0.005)
(0.2475 0.60913 -0.005)
(0.2665 0.60913 -0.005)
(0.2855 0.60913 -0.005)
(0.3045 0.60913 -0.005)
(0.3235 0.60913 -0.005)
(0.3425 0.60913 -0.005)
(0.3615 0.60913 -0.005)
(0.3805 0.60913 -0.005)
(0.3995 0.60913 -0.005)
(0.4185 0.60913 -0.005)
(0.4375 0.60913 -0.005)
(0.4565 0.60913 -0.005)
(0.4755 0.60913 -0.005)
(0.4945 0.60913 -0.005)
(0.5135 0.60913 -0.005)
(0.5325 0.60913 -0.005)
(0.5515 0.60913 -0.005)
(0.5705 0.60913 -0.005)
(0.5895 0.60913 -0.005)
(0.6085 0.60913 -0.005)
(0.6275 0.60913 -0.005)
(0.6465 0.60913 -0.005)
(0.6655 0.60913 -0.005)
(0.2095 0.583913 -0.005)
(0.2285 0.583913 -0.005)
(0.2475 0.583913 -0.005)
(0.2665 0.583913 -0.005)
(0.2855 0.583913 -0.005)
(0.3045 0.583913 -0.005)
(0.3235 0.583913 -0.005)
(0.3425 0.583913 -0.005)
(0.3615 0.583913 -0.005)
(0.3805 0.583913 -0.005)
(0.3995 0.583913 -0.005)
(0.4185 0.583913 -0.005)
(0.4375 0.583913 -0.005)
(0.4565 0.583913 -0.005)
(0.4755 0.583913 -0.005)
(0.4945 0.583913 -0.005)
(0.5135 0.583913 -0.005)
(0.5325 0.583913 -0.005)
(0.5515 0.583913 -0.005)
(0.5705 0.583913 -0.005)
(0.5895 0.583913 -0.005)
(0.6085 0.583913 -0.005)
(0.6275 0.583913 -0.005)
(0.6465 0.583913 -0.005)
(0.6655 0.583913 -0.005)
(0.2095 0.558696 -0.005)
(0.2285 0.558696 -0.005)
(0.2475 0.558696 -0.005)
(0.2665 0.558696 -0.005)
(0.2855 0.558696 -0.005)
(0.3045 0.558696 -0.005)
(0.3235 0.558696 -0.005)
(0.3425 0.558696 -0.005)
(0.3615 0.558696 -0.005)
(0.3805 0.558696 -0.005)
(0.3995 0.558696 -0.005)
(0.4185 0.558696 -0.005)
(0.4375 0.558696 -0.005)
(0.4565 0.558696 -0.005)
(0.4755 0.558696 -0.005)
(0.4945 0.558696 -0.005)
(0.5135 0.558696 -0.005)
(0.5325 0.558696 -0.005)
(0.5515 0.558696 -0.005)
(0.5705 0.558696 -0.005)
(0.5895 0.558696 -0.005)
(0.6085 0.558696 -0.005)
(0.6275 0.558696 -0.005)
(0.6465 0.558696 -0.005)
(0.6655 0.558696 -0.005)
(0.2095 0.533478 -0.005)
(0.2285 0.533478 -0.005)
(0.2475 0.533478 -0.005)
(0.2665 0.533478 -0.005)
(0.2855 0.533478 -0.005)
(0.3045 0.533478 -0.005)
(0.3235 0.533478 -0.005)
(0.3425 0.533478 -0.005)
(0.3615 0.533478 -0.005)
(0.3805 0.533478 -0.005)
(0.3995 0.533478 -0.005)
(0.4185 0.533478 -0.005)
(0.4375 0.533478 -0.005)
(0.4565 0.533478 -0.005)
(0.4755 0.533478 -0.005)
(0.4945 0.533478 -0.005)
(0.5135 0.533478 -0.005)
(0.5325 0.533478 -0.005)
(0.5515 0.533478 -0.005)
(0.5705 0.533478 -0.005)
(0.5895 0.533478 -0.005)
(0.6085 0.533478 -0.005)
(0.6275 0.533478 -0.005)
(0.6465 0.533478 -0.005)
(0.6655 0.533478 -0.005)
(0.2095 0.508261 -0.005)
(0.2285 0.508261 -0.005)
(0.2475 0.508261 -0.005)
(0.2665 0.508261 -0.005)
(0.2855 0.508261 -0.005)
(0.3045 0.508261 -0.005)
(0.3235 0.508261 -0.005)
(0.3425 0.508261 -0.005)
(0.3615 0.508261 -0.005)
(0.3805 0.508261 -0.005)
(0.3995 0.508261 -0.005)
(0.4185 0.508261 -0.005)
(0.4375 0.508261 -0.005)
(0.4565 0.508261 -0.005)
(0.4755 0.508261 -0.005)
(0.4945 0.508261 -0.005)
(0.5135 0.508261 -0.005)
(0.5325 0.508261 -0.005)
(0.5515 0.508261 -0.005)
(0.5705 0.508261 -0.005)
(0.5895 0.508261 -0.005)
(0.6085 0.508261 -0.005)
(0.6275 0.508261 -0.005)
(0.6465 0.508261 -0.005)
(0.6655 0.508261 -0.005)
(0.2095 0.483043 -0.005)
(0.2285 0.483043 -0.005)
(0.2475 0.483043 -0.005)
(0.2665 0.483043 -0.005)
(0.2855 0.483043 -0.005)
(0.3045 0.483043 -0.005)
(0.3235 0.483043 -0.005)
(0.3425 0.483043 -0.005)
(0.3615 0.483043 -0.005)
(0.3805 0.483043 -0.005)
(0.3995 0.483043 -0.005)
(0.4185 0.483043 -0.005)
(0.4375 0.483043 -0.005)
(0.4565 0.483043 -0.005)
(0.4755 0.483043 -0.005)
(0.4945 0.483043 -0.005)
(0.5135 0.483043 -0.005)
(0.5325 0.483043 -0.005)
(0.5515 0.483043 -0.005)
(0.5705 0.483043 -0.005)
(0.5895 0.483043 -0.005)
(0.6085 0.483043 -0.005)
(0.6275 0.483043 -0.005)
(0.6465 0.483043 -0.005)
(0.6655 0.483043 -0.005)
(0.2095 0.457826 -0.005)
(0.2285 0.457826 -0.005)
(0.2475 0.457826 -0.005)
(0.2665 0.457826 -0.005)
(0.2855 0.457826 -0.005)
(0.3045 0.457826 -0.005)
(0.3235 0.457826 -0.005)
(0.3425 0.457826 -0.005)
(0.3615 0.457826 -0.005)
(0.3805 0.457826 -0.005)
(0.3995 0.457826 -0.005)
(0.4185 0.457826 -0.005)
(0.4375 0.457826 -0.005)
(0.4565 0.457826 -0.005)
(0.4755 0.457826 -0.005)
(0.4945 0.457826 -0.005)
(0.5135 0.457826 -0.005)
(0.5325 0.457826 -0.005)
(0.5515 0.457826 -0.005)
(0.5705 0.457826 -0.005)
(0.5895 0.457826 -0.005)
(0.6085 0.457826 -0.005)
(0.6275 0.457826 -0.005)
(0.6465 0.457826 -0.005)
(0.6655 0.457826 -0.005)
(0.2095 0.432609 -0.005)
(0.2285 0.432609 -0.005)
(0.2475 0.432609 -0.005)
(0.2665 0.432609 -0.005)
(0.2855 0.432609 -0.005)
(0.3045 0.432609 -0.005)
(0.3235 0.432609 -0.005)
(0.3425 0.432609 -0.005)
(0.3615 0.432609 -0.005)
(0.3805 0.432609 -0.005)
(0.3995 0.432609 -0.005)
(0.4185 0.432609 -0.005)
(0.4375 0.432609 -0.005)
(0.4565 0.432609 -0.005)
(0.4755 0.432609 -0.005)
(0.4945 0.432609 -0.005)
(0.5135 0.432609 -0.005)
(0.5325 0.432609 -0.005)
(0.5515 0.432609 -0.005)
(0.5705 0.432609 -0.005)
(0.5895 0.432609 -0.005)
(0.6085 0.432609 -0.005)
(0.6275 0.432609 -0.005)
(0.6465 0.432609 -0.005)
(0.6655 0.432609 -0.005)
(0.2095 0.407647 -0.005)
(0.2285 0.407647 -0.005)
(0.2475 0.407647 -0.005)
(0.2665 0.407647 -0.005)
(0.2855 0.407647 -0.005)
(0.3045 0.407647 -0.005)
(0.3235 0.407647 -0.005)
(0.3425 0.407647 -0.005)
(0.3615 0.407647 -0.005)
(0.3805 0.407647 -0.005)
(0.3995 0.407647 -0.005)
(0.4185 0.407647 -0.005)
(0.4375 0.407647 -0.005)
(0.4565 0.407647 -0.005)
(0.4755 0.407647 -0.005)
(0.4945 0.407647 -0.005)
(0.5135 0.407647 -0.005)
(0.5325 0.407647 -0.005)
(0.5515 0.407647 -0.005)
(0.5705 0.407647 -0.005)
(0.5895 0.407647 -0.005)
(0.6085 0.407647 -0.005)
(0.6275 0.407647 -0.005)
(0.6465 0.407647 -0.005)
(0.6655 0.407647 -0.005)
(0.2095 0.382941 -0.005)
(0.2285 0.382941 -0.005)
(0.2475 0.382941 -0.005)
(0.2665 0.382941 -0.005)
(0.2855 0.382941 -0.005)
(0.3045 0.382941 -0.005)
(0.3235 0.382941 -0.005)
(0.3425 0.382941 -0.005)
(0.3615 0.382941 -0.005)
(0.3805 0.382941 -0.005)
(0.3995 0.382941 -0.005)
(0.4185 0.382941 -0.005)
(0.4375 0.382941 -0.005)
(0.4565 0.382941 -0.005)
(0.4755 0.382941 -0.005)
(0.4945 0.382941 -0.005)
(0.5135 0.382941 -0.005)
(0.5325 0.382941 -0.005)
(0.5515 0.382941 -0.005)
(0.5705 0.382941 -0.005)
(0.5895 0.382941 -0.005)
(0.6085 0.382941 -0.005)
(0.6275 0.382941 -0.005)
(0.6465 0.382941 -0.005)
(0.6655 0.382941 -0.005)
(0.2095 0.358235 -0.005)
(0.2285 0.358235 -0.005)
(0.2475 0.358235 -0.005)
(0.2665 0.358235 -0.005)
(0.2855 0.358235 -0.005)
(0.3045 0.358235 -0.005)
(0.3235 0.358235 -0.005)
(0.3425 0.358235 -0.005)
(0.3615 0.358235 -0.005)
(0.3805 0.358235 -0.005)
(0.3995 0.358235 -0.005)
(0.4185 0.358235 -0.005)
(0.4375 0.358235 -0.005)