/*--------------------------------*- C++ -*----------------------------------*\
| =========                 |                                                 |
| \\      /  F ield         | OpenFOAM: The Open Source CFD Toolbox           |
|  \\    /   O peration     | Version:  v2012                                 |
|   \\  /    A nd           | Website:  www.openfoam.com                      |
|    \\/     M anipulation  |                                                 |
\*---------------------------------------------------------------------------*/
FoamFile
{
    version     2.0;
    format      ascii;
    class       volScalarField;
    location    "2000";
    object      age;
}
// * * * * * * * * * * * * * * * * * * * * * * * * * * * * * * * * * * * * * //

dimensions      [0 0 1 0 0 0 0];


internalField   nonuniform List<scalar> 
6502
(
0.0129333
0.0123638
0.0124501
0.0124767
0.0124812
0.0124811
0.0124766
0.0124499
0.0123639
0.0129324
0.0399164
0.0367165
0.0368986
0.03715
0.0372143
0.037214
0.037149
0.0368974
0.0367147
0.0399104
0.0700003
0.0610127
0.0606702
0.0612833
0.0614802
0.0614791
0.0612806
0.0606664
0.0610007
0.0699726
0.104015
0.0857109
0.083766
0.0847772
0.0851664
0.0851638
0.0847722
0.0837571
0.0856682
0.103926
0.14281
0.111205
0.106257
0.107605
0.108244
0.108239
0.107598
0.106237
0.111091
0.142576
0.186931
0.137691
0.128257
0.129797
0.130731
0.130724
0.129791
0.128217
0.137429
0.186399
0.236388
0.165116
0.149887
0.151434
0.152678
0.15267
0.151432
0.149811
0.164591
0.235309
0.290705
0.193577
0.171278
0.172599
0.174152
0.174143
0.172612
0.171137
0.192555
0.288693
0.349194
0.22447
0.192833
0.193366
0.195213
0.195207
0.193405
0.192563
0.222839
0.345683
0.411203
0.254294
0.214405
0.213819
0.215915
0.215918
0.213899
0.213931
0.251547
0.405441
0.47619
0.284535
0.23601
0.234015
0.236307
0.236326
0.234157
0.235219
0.280048
0.467112
0.543822
0.315523
0.257674
0.253996
0.25643
0.256476
0.254225
0.256426
0.308394
0.53017
0.614105
0.347451
0.279514
0.273809
0.276313
0.276403
0.274142
0.277542
0.336365
0.593239
0.686501
0.38051
0.301327
0.293453
0.29598
0.296128
0.293963
0.298528
0.363712
0.65891
0.763953
0.415354
0.324368
0.313033
0.315444
0.31567
0.313663
0.319395
0.390512
0.725546
0.845247
0.452387
0.348073
0.332647
0.334715
0.335047
0.33323
0.34003
0.416538
0.788305
0.930238
0.492265
0.372172
0.352381
0.353803
0.354271
0.352656
0.360816
0.441517
0.846609
1.0189
0.535793
0.396702
0.372383
0.372733
0.373351
0.371938
0.381297
0.464852
0.895768
1.11305
0.584187
0.421017
0.392612
0.391546
0.392298
0.391076
0.401198
0.486035
0.936957
1.2134
0.63876
0.446166
0.413137
0.410294
0.411124
0.410084
0.420259
0.50332
0.949817
1.32372
0.702931
0.473562
0.434209
0.429123
0.429939
0.429093
0.438315
0.514972
0.912536
1.44544
0.777192
0.504222
0.456044
0.448104
0.448773
0.448175
0.455603
0.524341
0.876619
1.5839
0.863217
0.539447
0.478944
0.467293
0.467571
0.467311
0.472238
0.532837
0.834654
1.74037
0.962874
0.581029
0.503032
0.486641
0.486343
0.4865
0.4896
0.541048
0.791318
1.92668
1.07957
0.63138
0.530325
0.506829
0.505109
0.505709
0.50737
0.549626
0.751471
2.15347
1.21846
0.693504
0.560189
0.52854
0.524058
0.52489
0.525525
0.559114
0.717659
2.43142
1.3866
0.772028
0.592412
0.551697
0.543441
0.544047
0.544061
0.569888
0.691158
2.77959
1.5925
0.873151
0.62904
0.576678
0.563589
0.563259
0.562957
0.582136
0.672507
3.24065
1.8557
1.00874
0.676882
0.60425
0.584664
0.582664
0.582137
0.596165
0.661674
3.84462
2.17667
1.17851
0.742449
0.63647
0.607154
0.602372
0.601685
0.609355
0.65767
4.93789
2.7054
1.41691
0.832191
0.67508
0.632619
0.622893
0.621562
0.624754
0.659049
5.72552
3.06966
1.69206
0.971976
0.723578
0.661666
0.64483
0.64188
0.642356
0.665388
30.5047
5.58697
2.10179
1.13454
0.788861
0.696353
0.668819
0.662829
0.661456
0.676078
94.6515
19.4732
2.82311
1.33711
0.869278
0.738989
0.696764
0.685199
0.68186
0.688666
92.5775
39.0718
5.97768
1.79506
0.991911
0.793702
0.729939
0.710035
0.704041
0.701713
89.8002
70.9423
17.6305
2.29584
1.16968
0.870773
0.771387
0.738304
0.728353
0.717357
87.8535
80.1801
39.7456
7.58405
1.43668
0.9706
0.825176
0.773606
0.756069
0.740913
86.9759
60.6775
54.4508
21.2133
3.67624
1.18753
0.897433
0.814877
0.787629
0.770362
85.8339
55.9913
56.2315
39.2008
12.2484
1.89517
1.05853
0.878913
0.823575
0.802168
84.8379
54.5085
51.5178
49.0954
28.0475
7.55759
1.22926
0.970984
0.877147
0.840648
84.4614
53.4553
49.095
49.9586
42.6709
20.5219
4.9212
1.10798
0.949228
0.890201
83.7681
52.6125
48.3251
48.4651
48.6749
36.4292
15.6571
3.69476
1.05938
0.951028
83.7193
52.0994
47.6642
47.6541
49.1278
46.9728
31.373
12.8467
3.11941
1.05062
84.6976
51.8247
47.1543
47.1941
48.8682
50.5368
44.8447
27.9651
11.283
2.86261
85.3768
51.5299
46.6837
46.7826
49.2708
51.0083
52.0609
43.0629
26.1038
10.7507
85.8142
51.2334
46.2293
46.3454
49.2141
52.3805
54.462
53.1763
42.4114
25.8082
86.2026
50.9347
45.7858
45.9101
49.0544
53.1776
56.2714
57.9261
54.735
43.1391
86.0636
50.5234
45.3286
45.4791
48.8027
53.5664
58.2939
61.1327
61.8385
57.2187
85.3843
50.0142
44.8654
45.0363
48.4671
53.6932
59.4076
64.3746
66.977
66.6144
84.5193
49.4878
44.405
44.541
47.9848
53.4502
59.885
66.2544
71.3615
73.701
83.798
49.0307
43.9579
43.9554
47.2543
52.7117
59.4864
66.8193
73.7321
79.0908
83.6683
48.7527
43.5427
43.2747
46.182
51.3086
58.0188
65.75
73.8131
81.3555
85.2061
48.8012
43.166
42.5664
44.7677
49.1869
55.3296
62.831
71.2448
79.9512
89.7
49.3522
42.9759
41.8995
43.1444
46.488
51.5557
58.12
65.9511
74.6903
98.1329
50.7547
43.194
41.4946
41.6156
43.594
47.1759
52.1991
58.578
66.1257
113.42
54.069
44.3263
41.3228
40.6373
41.1284
42.9886
46.0951
50.4385
55.8999
142.608
63.8539
47.0591
42.2799
40.429
39.9151
39.9965
41.1337
43.2485
46.2817
195.889
97.8172
53.4501
45.3768
41.7772
39.8646
39.0267
38.7624
38.8031
39.5635
281.401
189.367
75.9064
52.6147
46.2648
42.2607
39.9828
38.5479
37.6896
37.2599
409.128
408.763
146.953
68.0694
55.1427
48.1629
43.917
41.0595
39.0407
37.5789
154.869
255.94
256.797
266.78
277.319
288.155
298.956
309.728
320.294
330.908
341.272
351.887
362.113
373.398
383.132
393.799
403.466
411.828
419.688
427.399
435.752
446.378
462.322
502.227
604.767
137.75
220.348
198.654
206.447
212.858
221.356
230.598
240.747
251.68
263.624
276.773
291.438
307.918
326.504
347.124
369.545
392.543
413.078
427.946
436.279
441.019
444.912
452.956
480.559
572.398
110.749
204.486
186.21
188.474
190.377
193.645
197.867
203.181
209.634
217.544
227.391
239.891
256.005
276.916
303.865
337.622
377.924
421.3
461.221
482.058
480.05
468.526
459.954
473.14
548.275
82.5436
190.084
183.553
183.452
184.111
185.608
187.586
190.014
192.96
196.63
201.428
208.029
217.526
231.635
252.764
284.167
328.524
386.904
452.698
506.741
517.455
500.533
476.088
476.925
535.459
57.6321
171.194
182.554
180.722
180.722
181.413
182.573
184.077
185.86
187.922
190.367
193.448
197.683
204.058
214.585
232.404
263.108
312.571
383.445
463.813
517.041
522.165
491.371
482.28
533.001
37.1801
149.195
182.032
179.37
178.827
178.856
179.245
179.971
181.017
182.384
184.08
186.18
188.738
191.984
196.309
203.344
216.142
241.297
289.26
365.758
457.608
511.434
499.238
488.139
536.382
21.0809
118.657
177.15
179.131
178.179
177.866
177.7
177.699
177.873
178.307
179.104
180.386
182.329
184.909
188.282
192.475
197.854
206.097
223.78
263.438
342.354
442.594
499.452
495.285
543.455
11.6496
85.3052
163.67
179.14
178.052
177.608
177.292
177.074
176.935
176.808
176.717
176.795
177.271
178.542
180.902
184.659
189.628
195.688
202.678
213.49
244.772
317.474
445.255
531.438
550.455
6.55708
55.5122
141.875
177.645
178.099
177.59
177.38
177.149
176.909
176.677
176.451
176.205
175.952
175.848
176.045
177.444
180.746
186.926
194.193
202.337
211.915
231.898
301.428
462.709
563.908
3.80103
32.3422
111.183
168.642
178.376
178.208
178.916
179.658
180.091
180.149
179.775
178.955
177.729
176.377
175.385
175.203
175.235
178.077
184.431
193.62
204.564
214.968
228.917
300.25
583.22
2.31105
16.2295
76.434
149.956
177.711
178.904
182.413
186.485
190.011
192.634
193.972
193.621
191.441
187.465
182.448
178.042
175.048
174.181
176.36
182.821
194.35
208.758
220.844
229.502
265.578
1.50364
7.93533
45.6591
118.256
169.016
179.711
185.093
193.725
201.457
208.1
213.134
215.787
215.296
211.264
203.767
193.922
183.883
176.735
173.834
175.712
183.127
197.855
214.148
224.487
229.141
1.08072
4.13238
23.4299
82.0969
148.173
178.17
186.128
198.419
211.384
223.37
233.813
241.454
244.893
243.057
235.496
222.606
206.284
189.881
177.982
173.751
175.867
187.085
206.099
220.706
225.319
0.877078
2.34794
10.1529
47.6463
113.075
164.926
185.894
198.919
216.9
234.9
251.746
265.901
275.249
277.941
272.899
259.821
239.724
215.473
192.187
176.986
173.186
178.138
196.976
217.127
222.885
0.790462
1.45893
4.67081
22.8975
73.9725
135.337
176.307
196.59
215.755
239.267
262.703
283.605
299.767
308.567
308.204
298.062
278.07
249.914
217.598
188.511
173.726
172.737
187.362
212.853
221.45
0.759197
1.03744
2.46851
9.01446
39.066
94.6386
150.041
186.337
209.786
234.659
263.205
290.766
313.435
328.629
334.402
329.057
312.377
284.801
248.811
210.116
179.788
170.733
178.981
207.877
220.407
0.756897
0.866248
1.46654
3.82122
16.3883
54.7339
109.684
160.297
195.892
223.495
252.918
284.755
313.781
336.424
350.336
348.501
336.919
312.926
277.673
235.197
192.691
170.687
172.345
202.601
219.67
0.766444
0.810563
1.02489
1.9918
5.56724
24.164
65.8638
118.779
166.859
203.816
235.131
267.24
299.596
328.188
347.391
355.349
349.272
330.513
298.642
258.088
210.596
173.163
166.919
197.297
219.143
0.78843
0.80243
0.874074
1.21314
2.38147
8.04994
30.2938
71.9665
122.297
169.187
208.014
241.949
274.559
305.519
330.31
345.27
350.181
335.74
309.091
273.217
227.354
180.496
162.695
192.198
218.756
0.820069
0.814146
0.837604
0.926334
1.35362
2.67669
10.0472
33.6901
73.2188
120.443
166.238
206.366
241.526
273.38
300.919
321.061
330.577
326.373
308.635
278.911
237.842
188.812
160.164
187.443
218.461
0.860769
0.842662
0.843226
0.865814
0.960036
1.39804
2.52503
10.7306
33.4867
69.6089
113.105
157.053
197.201
232.449
262.637
286.555
301.717
305.642
296.828
275.021
241.107
195.296
159.164
182.795
218.224
0.909767
0.884838
0.868515
0.870044
0.885898
0.966672
1.14781
2.02789
9.50727
29.7236
61.5393
100.538
141.395
180.025
214.15
242.364
263.043
274.256
274.054
261.254
235.704
197.94
158.227
177.291
218.026
0.962088
0.932653
0.911784
0.89665
0.893141
0.903145
0.945502
1.06281
1.29352
6.91924
22.6812
49.3601
83.1118
119.67
155.284
187.146
213.106
231.255
239.78
236.967
221.927
194.872
157.646
168.16
217.722
1.04829
0.973652
0.954237
0.939077
0.925233
0.915551
0.919997
0.946958
1.01736
1.10156
4.20178
14.849
35.4608
63.0789
94.2063
125.489
154.034
177.428
193.627
200.96
198.149
184.029
158.137
149.987
195.798
2.94054
1.12322
1.00323
0.980002
0.966815
0.953949
0.943129
0.94401
0.95776
0.98794
1.06989
1.95369
7.90939
21.3783
42.1674
67.0932
93.1559
117.667
138.316
153.208
161.084
160.872
155.627
134.554
130.186
11.3404
3.5438
1.29181
1.05989
1.01377
0.994994
0.983057
0.971698
0.967493
0.97292
0.990594
1.06693
1.13317
3.14551
9.95758
22.9023
40.8268
60.9865
80.9647
98.7257
112.732
121.914
126.023
125.944
123.751
27.2581
13.1913
4.66693
1.5957
1.1583
1.06575
1.03083
1.01308
1.00202
0.996826
0.997772
1.0091
1.03021
1.11206
1.17159
3.15052
8.81468
18.7698
32.3796
47.305
61.783
74.5277
84.5961
92.0922
96.9932
45.7009
30.4189
16.1946
6.51971
2.20762
1.33944
1.15375
1.084
1.05122
1.03601
1.02902
1.02463
1.02917
1.04395
1.06679
1.13623
1.19291
2.11632
5.47362
11.5434
20.2403
30.3973
40.6143
50.1448
58.5115
61.2942
50.0366
35.0109
20.5362
9.38946
3.55985
1.74706
1.32336
1.17514
1.10819
1.07767
1.06339
1.05779
1.05622
1.06169
1.07764
1.09949
1.1555
1.2101
1.25971
2.32392
4.93728
9.09602
14.6531
21.2702
72.6487
66.983
55.8538
41.1729
26.1578
13.6837
6.01274
2.5808
1.64164
1.34136
1.20784
1.14235
1.11103
1.09619
1.09124
1.09154
1.098
1.11098
1.13532
1.16033
1.21145
1.25586
1.30097
1.58905
2.72223
81.375
79.9876
74.0716
63.1939
48.7638
33.294
19.8292
9.99743
4.52154
2.36604
1.67526
1.39625
1.25832
1.18762
1.15262
1.13598
1.13059
1.13029
1.13825
1.14893
1.16643
1.19017
1.21411
1.2529
1.29181
87.0276
89.5917
88.1914
82.2653
71.7121
57.5504
42.0087
27.5786
15.9105
8.19369
4.02126
2.38071
1.7677
1.48364
1.3323
1.25009
1.20735
1.18619
1.17745
1.17743
1.18293
1.19308
1.20557
1.2223
1.24336
87.908
94.0993
98.0265
96.6361
90.9064
80.7582
67.0848
51.7385
36.6615
23.8287
13.9315
7.56925
4.0674
2.56088
1.92954
1.61785
1.44228
1.34087
1.28371
1.25345
1.23891
1.23474
1.23743
1.24428
1.25641
83.5667
91.786
98.7598
103.506
101.962
97.4477
88.3249
75.7283
61.1058
46.2841
32.6975
21.612
13.2303
7.73342
4.54455
2.93737
2.20044
1.82659
1.61195
1.48096
1.40086
1.3535
1.32738
1.31455
1.31054
74.3513
82.7067
90.7369
97.5371
101.751
103.623
99.7727
91.8407
80.9176
67.9844
54.3072
41.2533
29.7328
20.4219
13.4119
8.53677
5.47331
3.66821
2.69726
2.18633
1.89421
1.71426
1.5981
1.52258
1.47443
62.1989
69.0648
76.2633
83.3088
89.4645
93.864
95.7309
94.8738
87.9318
79.5686
69.3834
58.1818
46.9316
36.4731
27.367
19.8987
14.1633
9.92679
6.95634
4.99106
3.73411
2.93736
2.46092
2.16796
1.97846
50.0225
54.4119
59.3282
64.5368
69.6205
74.0654
77.3699
79.0821
78.6275
76.0625
70.4058
63.7001
55.8442
47.5944
39.492
31.9775
25.3792
19.8302
15.3357
11.8229
9.16893
7.16259
5.68734
4.62564
3.87109
40.8719
42.7118
45.0169
47.7108
50.6331
53.5116
56.0501
58.0649
59.3192
59.4297
58.0182
55.5297
52.0199
47.6938
42.8375
37.7193
32.7096
28.0389
23.8311
20.1431
16.9988
14.3654
12.1953
10.4293
9.01266
36.9796
36.8596
37.0174
37.4034
38.016
38.8132
39.6688
40.4695
41.1343
41.5328
41.5748
41.2338
40.4272
39.0936
37.3034
35.1201
32.7133
30.2538
27.8412
25.5091
23.3027
21.2854
19.4888
17.8999
16.5137
36.5288
35.7684
35.2202
34.8216
34.4632
34.1486
33.8661
33.6075
33.3669
33.1372
32.9128
32.692
32.4667
32.1862
31.7395
31.0887
30.3272
29.5815
28.7788
27.9384
27.0671
26.1634
25.3201
24.5446
23.8406
247.306
262.016
270.25
150.217
179.604
200.603
114.106
107.224
178.343
100.006
101.389
104.101
65.354
71.4146
75.4307
27.6558
33.6288
39.2644
4.42472
6.6723
9.4608
1.32375
1.35651
1.38967
1.26477
1.28604
1.30746
1.26792
1.28086
1.2956
1.31247
1.31795
1.32616
1.44591
1.43025
1.42204
1.8568
1.77604
1.71775
3.35346
3.00025
2.74507
7.93117
7.10065
6.41493
15.3761
14.4522
13.647
23.2672
22.7775
22.3467
2221.85
2063.2
1892.18
1756.29
1656.42
1578.6
1519.55
1471.9
1435.73
1420.23
1414.75
1411.09
1409.22
1406.94
1406.71
1407.71
1409.92
1413
1416.65
1420.74
1425.16
1429.75
1434.33
1438.94
1444.01
1449.85
1455.86
1461.69
1466.66
1472.54
1478.64
1484.98
1491.55
1498.35
1506.24
1513.31
1526.6
1526.01
1504.59
967.333
225.191
190.12
183.019
176.791
172.849
169.925
167.73
166.031
164.694
163.625
162.758
162.048
161.447
160.935
160.495
160.149
159.826
159.518
159.218
158.927
158.645
158.364
158.089
157.801
157.496
157.179
156.977
157.133
157.819
159.301
161.878
166.154
173.822
186.758
203.398
225.264
248.748
262.773
277.295
323.421
1866.51
1658.59
1484.26
1361.57
1286.7
1247.15
1229.75
1223.25
1226.88
1234.61
1242.44
1249.78
1256.37
1262.09
1267.81
1275.11
1284.37
1292.67
1300.01
1306.84
1313.23
1319.28
1325.13
1330.74
1335.87
1340.81
1345.78
1350.64
1355.42
1359.99
1365.45
1373.17
1383.48
1395.32
1419.65
1477.44
1390.13
898.327
494.691
257.633
177.538
173.775
169.912
167.611
165.904
164.618
163.711
163.174
162.885
162.591
162.348
162.143
161.965
161.872
161.852
161.888
161.966
162.061
162.164
162.243
162.28
162.243
162.041
161.33
160.142
158.484
156.384
154.009
151.593
149.497
148.21
147.95
147.957
153.023
166.477
196.663
242.607
298.147
292.46
325.786
1453.5
1318.34
1222.05
1170.81
1160.14
1166.31
1178.42
1200.92
1231.73
1264.87
1295.46
1326.26
1356.69
1386.86
1415.71
1441.96
1465.07
1485.04
1502.25
1516.72
1528.15
1536.82
1543.34
1547.8
1549.13
1545.64
1538.18
1527.98
1514.85
1497.11
1474.86
1449.24
1421.68
1413.72
1347.84
1028.91
554.632
261.468
175.907
171.986
169.009
167.444
166.473
166.069
165.857
165.787
166.3
167.33
168.88
171.122
174.236
178.368
183.531
189.345
195.498
201.734
207.75
213.21
217.768
221.097
222.898
222.932
221.097
217.537
212.244
205.367
197.149
187.944
178.214
168.538
159.662
152.655
147.315
144.719
144.383
155.355
190.53
263.156
322.374
336.453
1276.38
1191.57
1140.45
1133.61
1150.1
1190.41
1246.91
1312.96
1383.76
1456.1
1527.87
1597.5
1663.61
1724.91
1780.53
1829.92
1872.34
1907.84
1937.16
1959.99
1975.22
1983.04
1984.44
1978.54
1963.38
1937.03
1899.76
1851.59
1791.29
1717.95
1621.59
1543.8
1469.93
1195.99
762.051
366.528
195.628
171.628
169.575
168.511
167.962
167.816
168.126
169.264
171.432
175.37
181.273
188.973
198.468
209.692
222.342
235.963
249.983
263.837
277.228
289.667
300.673
309.8
316.656
320.93
322.391
320.838
316.119
308.189
297.173
283.342
267.118
249.087
229.978
210.645
192.032
175.14
161.019
150.599
144.836
143.155
148.354
190.948
296.096
355.08
1203.28
1133.83
1111.89
1131.97
1191.21
1276.95
1378.44
1489.06
1604.49
1721.49
1837.35
1949.57
2055.74
2154.2
2243.58
2321.99
2387.72
2440.71
2481.57
2509.53
2522.92
2522.33
2507.18
2475.85
2426.33
2356.45
2264.92
2150.63
2005.88
1844.3
1692.25
1430.94
1032.62
570.564
275.48
173.346
171.376
169.667
169.351
169.33
170.241
172.594
177.466
184.913
195.2
208.411
224.152
242.139
262.242
283.917
306.578
329.613
352.422
374.425
395.034
413.631
429.633
442.492
451.683
456.767
457.429
453.424
444.557
430.759
412.251
389.468
363.028
333.782
302.792
271.288
240.604
212.093
187.058
166.704
152.143
144.423
142.501
145.321
197.379
344.327
1157.22
1097.75
1103.52
1159.16
1260.75
1388.75
1533.49
1689.62
1852.89
2019.12
2184.21
2343.92
2494.89
2634.56
2758.74
2862.6
2946.34
3010.09
3053.51
3075.48
3076.17
3053.56
3005.54
2928.96
2821.44
2680.39
2500.46
2287.08
2055.6
1759.66
1365.41
882.392
453.233
226.711
172.576
170.907
170.464
170.494
171.616
175.013
181.485
191.401
205.011
221.993
242.628
266.559
293.41
322.778
354.139
386.833
420.196
453.522
486.066
517.038
545.618
571.013
592.49
609.354
620.903
626.558
625.934
618.767
604.882
584.216
557.052
523.945
485.665
443.298
398.226
352.093
306.715
263.953
225.566
193.095
167.805
150.739
142.9
141.599
144.204
161.62
1123.57
1074.42
1104.1
1200.18
1337.74
1502.96
1688.65
1889.6
2100.35
2314.92
2527.43
2731.46
2923.92
3093.52
3231.15
3337.04
3422.42
3479.64
3509.67
3514.8
3491.47
3434.92
3343.89
3212.87
3024.24
2788.72
2512.7
2177.26
1762.64
1265.11
759.636
369.716
200.095
172.451
171.413
171.311
172.181
175.564
182.355
193.207
208.12
227.374
250.981
278.803
310.706
346.28
385.093
426.588
470.089
514.84
559.996
604.615
647.685
688.157
724.997
757.231
783.998
804.499
817.942
823.689
821.307
810.483
791.066
763.083
726.837
682.904
632.137
575.752
515.35
452.913
390.742
331.297
276.985
229.928
191.81
163.847
146.823
140.932
140.317
144.744
1096.65
1058.51
1115.33
1239.78
1406.04
1602.7
1823.22
2061.65
2310.8
2562.89
2810.42
3045.12
3261.89
3420.12
3531.35
3627.94
3682.35
3696.72
3702.73
3702.73
3673.97
3588.62
3433.31
3236.81
2955.03
2605.36
2178.3
1672.6
1128.98
636.011
306.766
182.145
172.77
172.103
172.41
174.813
180.719
190.91
205.435
224.859
249.208
278.619
313.029
352.284
396.091
444.028
495.556
549.97
606.417
663.898
721.277
777.328
830.789
880.416
925.03
963.538
994.951
1018.35
1032.95
1038.1
1033.37
1018.45
993.27
957.913
912.706
858.237
795.377
725.347
649.782
570.803
491.021
413.443
341.218
277.279
224.007
183.086
155.581
142.134
139.023
140.107
1073.36
1047.66
1124.95
1268.99
1454.48
1671.34
1912.89
2172.09
2440.22
2708.31
2967.79
3208.92
3417.89
3526.23
3613.86
3727.58
3713.91
3707.26
3693.3
3671.13
3617.51
3471.11
3231.25
2913.35
2503.07
2017.29
1479.21
946.957
508.468
256.374
174.472
173.297
172.86
173.896
178.041
186.276
199.064
216.811
239.795
268.347
302.557
342.495
388.082
439.128
495.281
556.032
620.668
688.259
757.678
827.628
896.701
963.448
1026.44
1084.29
1135.72
1179.52
1214.61
1240.03
1254.97
1258.82
1251.11
1231.66
1200.44
1157.65
1103.72
1039.32
965.336
882.943
793.663
699.487
603.006
507.476
416.666
334.445
264.212
208.46
168.729
145.872
138.678
137.627
1052.32
1038.43
1127.93
1279.86
1470.37
1689.69
1930.52
2184.8
2443.15
2696.52
2936.46
3153.18
3333.35
3453.7
3527.05
3574.28
3592.72
3577.11
3526.19
3414.88
3227.08
2949.44
2598.29
2173.99
1691.8
1191.93
732.597
386.762
216.672
174.596
173.711
173.677
175.7
181.428
191.51
206.284
226.319
251.961
283.55
321.332
365.448
415.953
472.763
535.634
604.118
677.524
754.895
835.027
916.516
997.827
1077.37
1153.56
1224.85
1289.77
1346.91
1395
1432.85
1459.46
1473.99
1475.81
1464.51
1440.01
1402.41
1352.08
1289.61
1215.81
1131.69
1038.43
937.434
830.427
719.656
608.147
499.845
399.368
311.308
239.369
185.936
152.371
139.007
136.296
1032.5
1026.08
1119.3
1264.66
1441.71
1639.57
1850.57
2067.38
2281.6
2484.79
2669.75
2830.21
2960.09
3053.38
3104.71
3111.53
3074.34
2986.49
2839.65
2628.19
2355.74
2021.92
1640.09
1230.15
829.875
491.395
276.088
184.159
174.984
174.328
174.779
177.797
184.861
196.157
212.296
233.73
260.974
294.4
334.361
381.114
434.83
495.558
563.176
637.345
717.45
802.527
891.391
982.592
1074.54
1165.55
1253.95
1338.08
1416.3
1487.06
1548.86
1600.28
1640.05
1667.06
1680.42
1679.54
1664.07
1634.09
1589.89
1532.07
1461.4
1378.87
1285.6
1182.88
1072.11
954.823
832.839
708.596
585.602
468.643
363.298
274.764
206.728
161.318
140.216
135.629
1013.14
1009.74
1093.01
1214.23
1355.24
1505.27
1656.65
1803.38
1939.78
2060.14
2159.14
2232.34
2276.27
2288.66
2268.1
2211.18
2112.98
1971.44
1785.67
1558.36
1296.4
1012.01
726.876
472.385
294.696
200.768
176.587
175.484
175.112
176.254
180.357
188.319
200.417
217.204
239.25
267.063
301.128
341.861
389.634
444.731
507.331
577.443
654.855
739.08
829.291
924.257
1022.62
1122.8
1223.09
1321.78
1417.14
1507.49
1591.12
1666.4
1731.69
1785.44
1826.24
1852.85
1864.33
1860.12
1839.96
1804.27
1753.56
1688.67
1610.61
1520.48
1419.5
1309
1190.42
1065.25
935.06
801.706
667.865
537.748
417.259
312.955
230.293
172.513
142.275
135.058
994.989
986.287
1043.57
1120.67
1202.06
1279.29
1346.56
1400.13
1437.68
1458.43
1461.5
1446.21
1412.03
1358.01
1282.75
1186.01
1068.02
930.493
777.21
615.322
457.887
330.194
238.892
188.817
177.871
176.812
176.1
176.197
178.349
183.52
192.12
204.607
221.498
243.411
270.9
304.495
344.69
391.935
446.62
509.036
579.327
657.408
742.908
835.21
933.255
1035.69
1141.02
1247.6
1353.73
1457.71
1557.82
1652.37
1739.61
1817.81
1885.19
1940.02
1980.68
2005.88
2014.72
2006.74
1981.92
1940.63
1883.98
1812.96
1728.89
1632.97
1526.38
1410.42
1286.45
1155.94
1020.41
881.366
740.73
601.677
469.586
351.724
255.364
185.434
145.333
134.6
975.988
951.109
965.747
978.727
980.359
968.574
943.868
907.772
862
807.773
746.677
680.119
609.28
535.397
460.695
391.648
329.156
274.654
230.164
198.108
180.825
179.739
178.834
177.949
177.328
177.234
178.317
181.61
187.753
196.728
209.266
225.825
247.013
273.428
305.624
344.143
389.493
442.137
502.459
570.711
646.953
730.977
822.252
920.062
1023.16
1130.14
1239.46
1349.49
1458.56
1565.01
1667.17
1763.32
1851.68
1930.36
1997.38
2050.76
2088.79
2110.38
2115.48
2104.78
2078.73
2033.05
1971.96
1896.59
1808.63
1709.36
1599.92
1481.42
1355.09
1222.29
1084.44
942.95
799.31
655.703
516.387
388.47
280.434
199.283
149.434
134.223
954.566
901.579
856.692
792.523
711.93
622.703
532.306
446.819
370.593
310.118
264.598
231.175
207.635
192.439
184.53
183.22
182.295
181.534
180.838
180.145
179.323
179.074
178.838
178.797
179.752
182.232
186.785
193.533
202.808
215.078
230.967
250.99
275.753
305.826
341.762
384.102
433.349
489.945
554.231
626.385
706.368
793.855
888.192
988.513
1093.52
1201.8
1311.82
1421.99
1530.7
1636.35
1737.3
1831.85
1918.19
1994.33
2058.04
2106.82
2137.9
2149.36
2149.59
2139.77
2119.31
2072.47
2009.45
1932.53
1843.65
1744.16
1635.08
1517.38
1392.11
1260.43
1123.64
983.034
839.93
695.905
554.003
420.344
303.744
213.059
154.357
133.908
929.263
834.473
717.767
578.86
441.95
327.588
252.201
210.509
191.411
186.983
185.696
184.712
183.917
183.121
182.302
181.887
181.52
181.232
180.973
180.779
180.93
181.508
182.855
185.382
189.24
194.618
201.749
211.027
222.861
237.786
256.332
279.036
306.468
339.17
377.677
422.509
474.135
532.945
599.205
673.004
754.194
842.342
936.724
1036.36
1139.97
1246.15
1353.42
1460.25
1565.1
1666.42
1762.64
1852.14
1933.15
2003.82
2062.2
2106.21
2135.35
2141.82
2139.98
2127.92
2101.03
2054.28
1991.97
1916.75
1830.39
1734.08
1628.76
1515.28
1394.51
1267.46
1135.24
998.972
859.835
719.129
579.068
444.39
323.302
225.669
159.549
133.636
895.722
748.92
562.87
383.868
257.062
202.41
189.596
187.592
185.962
184.985
184.403
183.942
183.674
183.432
183.324
183.443
183.726
184.296
185.323
186.881
189.006
191.8
195.488
200.123
205.956
213.232
222.261
233.447
247.216
264.051
284.437
308.889
337.931
372.073
411.813
457.621
509.906
568.98
635.021
708.018
787.727
873.634
964.976
1060.75
1159.69
1260.47
1361.66
1461.8
1559.42
1653.07
1741.27
1822.52
1895.27
1957.93
2009.08
2046.83
2072.87
2083.54
2079.39
2060.6
2027.21
1980.15
1920.65
1849.95
1769.09
1678.97
1580.39
1474.11
1360.94
1241.7
1117.33
988.755
856.942
723.02
588.784
457.864
336.981
235.954
164.47
133.395
852.458
649.693
417.135
251.156
193.308
189.173
186.791
186.036
185.52
185.348
185.321
185.622
186.303
187.471
189.055
190.935
193.171
195.772
198.738
202.061
205.873
210.283
215.432
221.481
228.672
237.284
247.644
260.113
275.089
293
314.299
339.456
368.946
403.228
442.744
487.894
539.005
596.301
659.867
729.6
805.184
886.066
971.49
1060.44
1151.74
1244.15
1336.31
1426.87
1514.47
1597.76
1675.41
1746.1
1808.55
1861.48
1903.83
1934.49
1953.09
1958.9
1951.81
1932.01
1899.97
1856.34
1801.93
1737.52
1663.92
1581.85
1492.03
1395.13
1291.86
1182.94
1069.1
951.079
829.632
705.712
580.914
458.164
342.538
242.558
168.628
133.178
799.789
543.891
296.827
197.033
188.151
187.17
186.621
186.511
186.894
188.058
189.995
192.566
195.663
199.138
202.828
206.745
210.853
215.14
219.624
224.369
229.475
235.062
241.297
248.371
256.497
265.959
277.069
290.138
305.53
323.635
344.86
369.623
398.34
431.409
469.201
512.032
560.143
613.669
672.608
736.797
805.874
879.269
956.261
1035.9
1117.12
1198.76
1279.62
1358.47
1434.08
1505.27
1570.88
1629.82
1681.05
1723.62
1756.73
1779.73
1792.15
1793.71
1784.44
1764.54
1734.36
1694.39
1645.19
1587.35
1521.47
1448.16
1368.02
1281.62
1189.59
1092.51
990.982
885.572
776.889
665.768
553.626
442.882
337.481
243.845
171.277
132.977
733.875
432.227
226.138
189.981
187.672
187.321
187.714
189.323
192.255
196.216
200.867
206.04
211.509
217.124
222.801
228.513
234.241
240.002
245.829
251.789
257.972
264.513
271.589
279.379
288.068
297.913
309.19
322.181
337.214
354.639
374.814
398.1
424.848
455.388
490.014
528.963
572.392
620.36
672.804
729.513
790.115
854.063
920.689
989.158
1058.52
1127.77
1195.86
1261.71
1324.29
1382.59
1435.65
1482.6
1522.64
1555.08
1579.36
1595.04
1601.86
1599.66
1588.52
1568.6
1540.19
1503.63
1459.34
1407.78
1349.41
1284.73
1214.26
1138.52
1058.02
973.279
884.78
793.027
698.601
602.326
505.54
410.283
319.38
237.235
170.709
132.758
659.09
339.007
201.43
188.813
187.948
188.867
191.864
196.612
202.606
209.413
216.668
224.151
231.68
239.166
246.559
253.838
261.018
268.115
275.145
282.164
289.253
296.538
304.174
312.323
321.16
330.902
341.788
354.071
368.037
383.989
402.231
423.063
446.775
473.628
503.843
537.585
574.948
615.933
660.435
708.228
758.956
812.13
867.154
923.324
979.848
1035.88
1090.53
1142.94
1192.25
1237.63
1278.35
1313.7
1343.11
1366.07
1382.19
1391.19
1392.87
1387.21
1374.26
1354.17
1327.14
1293.43
1253.39
1207.37
1155.79
1099.05
1037.61
971.908
902.388
829.512
753.778
675.759
596.163
515.928
436.366
359.178
286.268
220.091
164.737
131.9
563.054
264.809
193.647
188.852
189.656
193.771
200.147
208.043
216.81
225.989
235.305
244.595
253.758
262.746
271.527
280.09
288.447
296.597
304.547
312.337
320.038
327.753
335.604
343.723
352.268
361.423
371.39
382.391
394.666
408.464
424.036
441.625
461.458
483.732
508.608
536.199
566.546
599.615
635.286
673.343
713.47
755.254
798.194
841.717
885.189
927.933
969.256
1008.46
1044.89
1077.9
1106.91
1131.42
1150.98
1165.22
1173.88
1176.75
1173.72
1164.79
1150
1129.46
1103.37
1071.94
1035.45
994.209
948.549
898.819
845.38
788.615
728.953
666.914
603.125
538.353
473.516
409.699
348.18
290.358
237.49
190.754
151.587
127.792
445.853
215.115
191.195
190.179
194.929
202.586
211.906
222.179
232.855
243.573
254.188
264.621
274.822
284.765
294.424
303.782
312.826
321.541
329.926
338.008
345.839
353.492
361.06
368.655
376.409
384.467
392.998
402.181
412.211
423.289
435.614
449.372
464.739
481.868
500.864
521.797
544.681
569.467
596.036
624.201
653.701
684.204
715.315
746.586
777.53
807.633
836.37
863.218
887.675
909.269
927.571
942.201
952.836
959.222
961.146
958.476
951.162
939.202
922.654
901.622
876.256
846.739
813.281
776.116
735.508
691.752
645.196
596.262
545.48
493.524
441.191
389.386
339.099
291.38
247.305
207.912
174.069
146.806
126.377
119.068
254.718
196.666
192.141
196.517
204.856
214.551
225.263
236.427
247.708
258.868
269.829
280.545
290.985
301.122
310.927
320.362
329.392
337.988
346.146
353.883
361.232
368.257
375.051
381.655
388.105
394.528
401.062
407.882
415.15
423.026
431.666
441.217
451.809
463.552
476.524
490.768
506.28
523.012
540.862
559.679
579.255
599.338
619.63
639.798
659.482
678.304
695.883
711.841
725.814
737.463
746.481
752.6
755.585
755.245
751.464
744.171
733.334
718.954
701.068
679.742
655.074
627.199
596.292
562.583
526.366
488.019
448.002
406.865
365.269
323.961
283.722
245.332
209.54
177.029
148.381
124.066
104.4
89.9603
80.4212
81.1033
196.692
196.459
199.278
206.564
215.158
224.872
235.355
246.113
256.896
267.511
277.893
287.999
297.806
307.294
316.368
325
333.152
340.799
347.932
354.552
360.681
366.417
371.394
375.677
379.89
384.145
388.478
392.87
397.348
402.018
406.998
412.405
418.34
424.89
432.116
440.054
448.707
458.042
467.986
478.431
489.23
500.201
511.133
521.789
531.916
541.25
549.523
556.474
561.849
565.42
566.988
566.362
563.389
557.938
549.901
539.198
525.782
509.65
490.839
469.443
445.613
419.559
391.564
361.976
331.217
299.773
268.174
236.977
206.736