/*--------------------------------*- C++ -*----------------------------------*\
| =========                 |                                                 |
| \\      /  F ield         | OpenFOAM: The Open Source CFD Toolbox           |
|  \\    /   O peration     | Version:  v2012                                 |
|   \\  /    A nd           | Website:  www.openfoam.com                      |
|    \\/     M anipulation  |                                                 |
\*---------------------------------------------------------------------------*/
FoamFile
{
    version     2.0;
    format      ascii;
    class       volScalarField;
    location    "2000";
    object      k;
}
// * * * * * * * * * * * * * * * * * * * * * * * * * * * * * * * * * * * * * //

dimensions      [0 2 -2 0 0 0 0];


internalField   nonuniform List<scalar> 
6502
(
0.0786229
0.10535
0.119595
0.122635
0.123239
0.123239
0.122636
0.1196
0.105361
0.0786251
0.0488134
0.0729559
0.101042
0.110201
0.112478
0.112483
0.110217
0.101076
0.0729906
0.0488276
0.033152
0.0495574
0.0833047
0.0983296
0.102806
0.10282
0.0983759
0.0833862
0.0496161
0.0331875
0.0234394
0.0338857
0.067807
0.0872228
0.0939385
0.0939713
0.0873183
0.0679499
0.0339668
0.0235065
0.016924
0.0236415
0.0550673
0.077103
0.085754
0.0858142
0.0772664
0.0552793
0.0237418
0.01703
0.0125813
0.0169851
0.0449961
0.0681273
0.0782205
0.0783179
0.0683743
0.0452802
0.0171025
0.0127281
0.00977929
0.0126317
0.037166
0.0603067
0.071326
0.0714712
0.0606556
0.0375289
0.0127653
0.00997137
0.00795643
0.00973417
0.0311132
0.0535412
0.0650486
0.0652532
0.0540108
0.0315607
0.00988721
0.00820141
0.00674583
0.0077584
0.0263914
0.0477096
0.0593574
0.0596333
0.048317
0.0269322
0.00793332
0.00705593
0.00592465
0.00635563
0.0226659
0.0426787
0.0542122
0.0545725
0.0434448
0.0233076
0.0065643
0.00631578
0.00534491
0.00532277
0.0196882
0.0383161
0.0495664
0.0500259
0.0392693
0.0204422
0.00556864
0.0058381
0.00490522
0.00453989
0.0172734
0.0344994
0.0453659
0.0459453
0.0356767
0.0181564
0.00482988
0.00553202
0.00454627
0.00393003
0.0152806
0.0311529
0.0415614
0.0422696
0.0325946
0.016319
0.00427277
0.00534653
0.00423135
0.00344154
0.0136086
0.0281903
0.0381076
0.0389443
0.0299621
0.0148349
0.00384833
0.005256
0.00393573
0.00303924
0.012183
0.0255475
0.0349606
0.0359309
0.0276633
0.0136668
0.00353849
0.00525009
0.00364349
0.00269757
0.0109235
0.0231727
0.0320777
0.0331916
0.0256413
0.0127323
0.0033463
0.0053316
0.00334375
0.00239891
0.00979347
0.021022
0.0294179
0.0306915
0.0238605
0.0119904
0.00324873
0.00551489
0.00303031
0.00213118
0.00876852
0.0190567
0.0269598
0.0283996
0.0222912
0.0114145
0.00323921
0.00582755
0.00270036
0.00188582
0.00782647
0.0172429
0.0246715
0.0262865
0.020905
0.0109845
0.00332293
0.00635709
0.0023552
0.0016571
0.00695281
0.0155481
0.0225324
0.0243223
0.0196779
0.0106927
0.00350665
0.00678682
0.00200073
0.00144064
0.00613352
0.013945
0.0204955
0.0224676
0.0185744
0.0105465
0.0037152
0.00257985
0.00165067
0.00123749
0.00537215
0.0124386
0.0185705
0.0207176
0.0175691
0.0105106
0.00410094
0.00180921
0.0013198
0.00104855
0.00466863
0.0110282
0.0167551
0.0190557
0.0166256
0.010521
0.00459534
0.00186529
0.00101983
0.000875503
0.00402432
0.00971627
0.0150419
0.0174694
0.0157171
0.0105323
0.00514854
0.00223793
0.000758938
0.000720091
0.00344009
0.00850607
0.0134338
0.0159504
0.0148216
0.0105181
0.00571496
0.00276639
0.000541277
0.000583522
0.00291542
0.0073986
0.0119332
0.0144923
0.0139248
0.0104556
0.00625061
0.00336972
0.000367353
0.000466236
0.00244874
0.00639305
0.0105431
0.0130966
0.0130195
0.0103213
0.00671769
0.00399125
0.000234857
0.000367884
0.00203782
0.00548716
0.0092678
0.0117922
0.0121081
0.0101065
0.00709025
0.00458501
0.00013945
0.000287383
0.00167995
0.00467736
0.00810589
0.0105693
0.0111959
0.00980993
0.00735031
0.00511219
7.54123e-05
0.000223015
0.00137197
0.0039588
0.00705537
0.0094304
0.0102936
0.00943252
0.00749303
0.0055451
3.61072e-05
0.000172588
0.00111016
0.00332533
0.00611156
0.00837996
0.0094131
0.00898459
0.00751577
0.00586891
1.47296e-05
0.000133505
0.000890204
0.00277013
0.00526757
0.00742041
0.00856822
0.00848373
0.00743456
0.00607885
5.38137e-06
0.00010354
0.000707845
0.00228652
0.00451489
0.00655007
0.00777131
0.00795304
0.0072618
0.00618324
5.53189e-06
8.10833e-05
0.000559113
0.00186863
0.00384431
0.00576316
0.00703025
0.0074145
0.00701738
0.0061927
9.15566e-06
6.41818e-05
0.00043983
0.00151153
0.00324718
0.00505094
0.00634773
0.00688806
0.00672695
0.00612845
1.26587e-05
5.11102e-05
0.00034517
0.00121036
0.00271602
0.00440272
0.00572005
0.00638726
0.00641649
0.00601013
1.52986e-05
4.02313e-05
0.000268345
0.000957623
0.00224347
0.00380675
0.00513737
0.00591652
0.00610637
0.00586257
1.75572e-05
3.17913e-05
0.000206959
0.000748683
0.0018254
0.00325334
0.00458612
0.00547082
0.00580834
0.00570806
1.88456e-05
2.53295e-05
0.000159513
0.00058125
0.00146259
0.00273866
0.00405305
0.00503701
0.00552221
0.00556137
1.82757e-05
1.99997e-05
0.000122403
0.000448575
0.00115487
0.00226418
0.00352917
0.0045973
0.00523511
0.00542397
1.72804e-05
1.57692e-05
9.36402e-05
0.000341831
0.000898444
0.0018345
0.00301342
0.00413542
0.00492494
0.00528239
1.62225e-05
1.24806e-05
7.1554e-05
0.000258945
0.000691431
0.00145861
0.00251719
0.00364589
0.00456832
0.00511009
1.43622e-05
9.92981e-06
5.46918e-05
0.000197828
0.000525869
0.00114281
0.00206022
0.00314175
0.00415245
0.00487515
1.23437e-05
7.76915e-06
4.14586e-05
0.0001498
0.000397365
0.000883441
0.0016539
0.00264588
0.00368369
0.00455496
1.07859e-05
6.07261e-06
3.12493e-05
0.000111872
0.000297363
0.000661547
0.00129246
0.00216469
0.00317221
0.00413444
9.50915e-06
4.71677e-06
2.31211e-05
8.20315e-05
0.000218528
0.000487682
0.000971614
0.00170668
0.00263118
0.0036177
8.52375e-06
3.64527e-06
1.67373e-05
5.90622e-05
0.00015691
0.000349917
0.000699857
0.00128546
0.00208413
0.00302377
7.92435e-06
2.88536e-06
1.21033e-05
4.22794e-05
0.000111299
0.000246607
0.000492051
0.000908346
0.00156162
0.00239422
7.55005e-06
2.38248e-06
8.99084e-06
3.0835e-05
7.94564e-05
0.000173379
0.000342039
0.000630983
0.00109974
0.00178661
7.20769e-06
2.04982e-06
7.01755e-06
2.35011e-05
5.8761e-05
0.000123983
0.000238819
0.000433545
0.000753288
0.00125266
6.72015e-06
1.80652e-06
5.80257e-06
1.89717e-05
4.59706e-05
9.30455e-05
0.000170796
0.000299942
0.000512045
0.00084982
5.92684e-06
1.58019e-06
4.98385e-06
1.59575e-05
3.75893e-05
7.3389e-05
0.000129105
0.000215387
0.000351594
0.000575548
4.77231e-06
1.31449e-06
4.27486e-06
1.34829e-05
3.10384e-05
5.90208e-05
0.000100786
0.00016274
0.000255839
0.000398777
3.36897e-06
1.00901e-06
3.50733e-06
1.0943e-05
2.47483e-05
4.62524e-05
7.77435e-05
0.000123516
0.000190773
0.000290402
1.9776e-06
6.85778e-07
2.61995e-06
8.11228e-06
1.81039e-05
3.35092e-05
5.6044e-05
8.88603e-05
0.000136977
0.000207763
8.90321e-07
3.93168e-07
1.68264e-06
5.17241e-06
1.1416e-05
2.10392e-05
3.529e-05
5.63707e-05
8.76695e-05
0.000134107
2.63503e-07
1.77831e-07
8.58798e-07
2.60416e-06
5.67278e-06
1.04317e-05
1.76231e-05
2.85077e-05
4.49928e-05
6.98384e-05
3.36127e-08
5.68971e-08
3.03305e-07
8.90987e-07
1.90556e-06
3.49933e-06
5.96741e-06
9.79694e-06
1.57259e-05
2.48309e-05
2.94716e-09
1.06813e-08
5.46239e-08
1.57745e-07
3.4624e-07
6.651e-07
1.19124e-06
2.04765e-06
3.42141e-06
5.58585e-06
1.56501e-09
2.91277e-09
8.87844e-09
7.0004e-08
2.57732e-07
6.81628e-07
1.50156e-06
2.95571e-06
5.39817e-06
9.33323e-06
0.000702846
0.000211021
0.000147559
8.88229e-05
5.22022e-05
3.07685e-05
1.83024e-05
1.09196e-05
6.42716e-06
3.67848e-06
2.00066e-06
9.94695e-07
4.21602e-07
1.31943e-07
3.47491e-08
1.10709e-07
1.32755e-07
1.8899e-07
2.21007e-07
2.05867e-07
1.53952e-07
9.05409e-08
4.07363e-08
9.3613e-09
1.0244e-09
0.000465195
0.000108942
4.07707e-05
2.11372e-05
1.23961e-05
7.59671e-06
4.76049e-06
3.03587e-06
1.97136e-06
1.3359e-06
9.46334e-07
7.00083e-07
5.38207e-07
4.26135e-07
3.44577e-07
2.84779e-07
2.25867e-07
1.7518e-07
1.30313e-07
9.03973e-08
5.65195e-08
2.99535e-08
1.23529e-08
4.18649e-09
1.11055e-08
0.000639193
0.00019484
7.69973e-05
3.97215e-05
2.45208e-05
1.61703e-05
1.10109e-05
7.78143e-06
5.79378e-06
4.58783e-06
3.83016e-06
3.30681e-06
2.88919e-06
2.50547e-06
2.12218e-06
1.7325e-06
1.34545e-06
9.81889e-07
6.64639e-07
4.10806e-07
2.25783e-07
1.04138e-07
3.62453e-08
1.36053e-08
5.12359e-08
0.000949941
0.000382772
0.000172329
9.19592e-05
5.77869e-05
3.85571e-05
2.65953e-05
1.91908e-05
1.47518e-05
1.21311e-05
1.05225e-05
9.40433e-06
8.46123e-06
7.51867e-06
6.4988e-06
5.39388e-06
4.24657e-06
3.13052e-06
2.12707e-06
1.30165e-06
6.92409e-07
3.03507e-07
9.80266e-08
3.27016e-08
1.2226e-07
0.00136667
0.0006749
0.000332134
0.000185284
0.000112631
7.31136e-05
4.94037e-05
3.5314e-05
2.72995e-05
2.2873e-05
2.03484e-05
1.86695e-05
1.72141e-05
1.5641e-05
1.37964e-05
1.16642e-05
9.33486e-06
6.97394e-06
4.78002e-06
2.93338e-06
1.55065e-06
6.59425e-07
2.03709e-07
5.87771e-08
2.01081e-07
0.00187349
0.00106612
0.000587673
0.000334636
0.000196695
0.000122552
7.95181e-05
5.51916e-05
4.22245e-05
3.5666e-05
3.23446e-05
3.03688e-05
2.8661e-05
2.66321e-05
2.40022e-05
2.07153e-05
1.69012e-05
1.28434e-05
8.92164e-06
5.52114e-06
2.92621e-06
1.24048e-06
3.74973e-07
9.21153e-08
2.62342e-07
0.00244476
0.00154526
0.000959015
0.00056123
0.000331885
0.000195508
0.000120431
8.00311e-05
5.97599e-05
5.04097e-05
4.63561e-05
4.4423e-05
4.28732e-05
4.07625e-05
3.76029e-05
3.32264e-05
2.77488e-05
2.15595e-05
1.5273e-05
9.59985e-06
5.14175e-06
2.19272e-06
6.56286e-07
1.36362e-07
2.83767e-07
0.00304552
0.00209316
0.00142701
0.000899329
0.000531182
0.000306784
0.000179127
0.000113187
8.15845e-05
6.80973e-05
6.31556e-05
6.16085e-05
6.07525e-05
5.91278e-05
5.59151e-05
5.07134e-05
4.35121e-05
3.47338e-05
2.52466e-05
1.62286e-05
8.84314e-06
3.81189e-06
1.14059e-06
2.02571e-07
2.48035e-07
0.00363496
0.00267618
0.00196985
0.00135984
0.0008195
0.000475093
0.000271053
0.000162143
0.000111143
9.06341e-05
8.41032e-05
8.321e-05
8.37217e-05
8.33903e-05
8.08836e-05
7.53893e-05
6.65868e-05
5.47806e-05
4.1041e-05
2.71383e-05
1.51403e-05
6.63261e-06
1.99332e-06
3.17451e-07
1.61239e-07
0.00417298
0.00325176
0.00255302
0.00190223
0.0012491
0.000725819
0.000410158
0.000238656
0.000156022
0.000121782
0.000111176
0.000110764
0.000113391
0.000115451
0.000114813
0.000109959
0.0001
8.48677e-05
6.56931e-05
4.48763e-05
2.5781e-05
1.15474e-05
3.50998e-06
5.33889e-07
6.4703e-08
0.00462999
0.00377798
0.00313106
0.00249796
0.00179757
0.00110134
0.000620846
0.000353204
0.000221454
0.000166162
0.000148146
0.000146286
0.000151531
0.000157376
0.000160314
0.000157605
0.000147486
0.000129033
0.000103227
7.30092e-05
4.33891e-05
2.00014e-05
6.20614e-06
9.77853e-07
2.34821e-07
0.00498623
0.00422019
0.00365536
0.00309574
0.00241292
0.00164334
0.000946192
0.000533906
0.000321763
0.0002288
0.000197413
0.000193608
0.000200324
0.000211577
0.000220375
0.000222064
0.000213727
0.00019254
0.000158978
0.000116418
7.17545e-05
3.42443e-05
1.09511e-05
1.87348e-06
1.07806e-06
0.00523673
0.00455749
0.00408421
0.00363664
0.00304298
0.0022735
0.00146827
0.000831473
0.000485715
0.000323821
0.00026363
0.000252911
0.000262808
0.000279724
0.000297817
0.000308368
0.000304598
0.000282303
0.000240071
0.000181707
0.000116153
5.75949e-05
1.9156e-05
3.73799e-06
4.16445e-06
0.00538826
0.00478739
0.00439439
0.00406884
0.00361925
0.00294031
0.00211008
0.00133366
0.000768246
0.000483067
0.000361566
0.000328598
0.00033767
0.000362621
0.00039314
0.000417928
0.000425146
0.000406311
0.000355778
0.000277733
0.000183778
9.47382e-05
3.29686e-05
7.45432e-06
1.22046e-05
0.00545796
0.00492205
0.00458477
0.00436188
0.00407533
0.00356347
0.00281059
0.00197512
0.00125868
0.000776758
0.000529826
0.000438782
0.000430769
0.000462459
0.000506353
0.000552663
0.000580018
0.000571475
0.000516675
0.000415892
0.000284246
0.000152051
5.54345e-05
1.43815e-05
2.95391e-05
0.005465
0.00498391
0.00467494
0.004515
0.00436903
0.00405868
0.00348097
0.00270012
0.00190411
0.00126517
0.000850874
0.000633138
0.000564973
0.000582471
0.000640107
0.00070997
0.000769124
0.000784742
0.000733839
0.000609819
0.000430022
0.000237966
9.0591e-05
2.62786e-05
6.18033e-05
0.00543189
0.00500006
0.00469803
0.00455637
0.00449784
0.00436853
0.00401863
0.00340812
0.00264783
0.00191933
0.00135434
0.000990286
0.000805832
0.000756788
0.000801673
0.000886828
0.000985952
0.00104305
0.00101332
0.000872742
0.000636145
0.000363303
0.000143579
4.50838e-05
0.000114771
0.00537932
0.00499547
0.00468896
0.00452992
0.00449686
0.00448551
0.00434907
0.00397817
0.00337922
0.00267664
0.00202619
0.00152793
0.0012103
0.00105557
0.00103237
0.00110264
0.00122435
0.00133436
0.00135081
0.00121334
0.000918614
0.000541633
0.000220999
7.27707e-05
0.000192529
0.00532927
0.00499203
0.00468086
0.00448311
0.00442298
0.00445127
0.00445865
0.00431968
0.00396142
0.00341381
0.00279211
0.00222382
0.00179017
0.00151732
0.00139615
0.00140243
0.0014913
0.00164101
0.00172706
0.00162756
0.0012893
0.000789639
0.000331808
0.000111733
0.000291777
0.00529528
0.00501011
0.00469925
0.00445834
0.00433953
0.00433929
0.004398
0.004416
0.00429291
0.00398059
0.00351358
0.00298773
0.00250622
0.0021385
0.00191311
0.00182909
0.00186664
0.00197934
0.00211248
0.00209342
0.0017566
0.00112701
0.000489455
0.000168091
0.000399057
0.00527826
0.00506176
0.00476306
0.004485
0.0042972
0.00422729
0.00425772
0.00433079
0.00436234
0.00427414
0.00403229
0.00366502
0.00324606
0.00285727
0.0025599
0.00238488
0.00233838
0.00238705
0.00251088
0.0025675
0.00231074
0.00157838
0.000715667
0.000261714
0.000551795
0.00526203
0.00514614
0.00488326
0.00458751
0.00433142
0.00417699
0.00413038
0.00417193
0.00425104
0.00429985
0.00425873
0.00410093
0.00384359
0.00353819
0.00324817
0.00302673
0.0029096
0.00290522
0.00296449
0.00304162
0.00288753
0.00217372
0.00104991
0.000437392
0.000962462
0.00521294
0.00524016
0.00505396
0.004767
0.00447111
0.00422937
0.00408668
0.00404364
0.00408174
0.00415933
0.00422515
0.00423426
0.00416263
0.00401574
0.00382549
0.00363394
0.00349503
0.00344497
0.0034779
0.00352698
0.00346571
0.0029001
0.00158571
0.000755784
0.00164691
0.00508995
0.00530081
0.00524276
0.00501143
0.00470803
0.00440978
0.00417231
0.00402469
0.00397017
0.00399325
0.00406215
0.00413965
0.00419092
0.00419347
0.00414372
0.00404668
0.00394431
0.00388806
0.00390093
0.00396536
0.003979
0.00370424
0.00257894
0.00129147
0.000679049
0.00485174
0.00527377
0.00539875
0.00528635
0.00502822
0.00471301
0.00440788
0.00416222
0.00399942
0.00391884
0.00391519
0.00396667
0.00404541
0.00412374
0.00418102
0.00420247
0.00417853
0.00415903
0.0041751
0.00424031
0.00433623
0.00434031
0.00399036
0.00290506
0.00162032
0.00447079
0.00510109
0.00544927
0.00552277
0.00538179
0.00510994
0.00478501
0.00446702
0.00420386
0.00400931
0.00389549
0.00385651
0.00387974
0.00394498
0.00403062
0.00411651
0.00417703
0.00421548
0.00426084
0.0043312
0.00443338
0.00455206
0.00461575
0.00443982
0.00382048
0.00394345
0.00473965
0.00531667
0.00562603
0.00567915
0.00553162
0.00525775
0.00492443
0.00459364
0.00430352
0.00407447
0.00392307
0.00383823
0.00381931
0.00385323
0.00392339
0.00401025
0.00409529
0.00417207
0.0042569
0.00435931
0.0044814
0.00461195
0.00471773
0.00474042
0.00329882
0.00418428
0.0049474
0.00550076
0.00580322
0.00586432
0.00573208
0.00546801
0.00513659
0.00479408
0.00447684
0.00421333
0.00401201
0.00388231
0.0038085
0.00379348
0.00382521
0.00389007
0.00397624
0.00406688
0.00416693
0.00428022
0.00440599
0.00453671
0.00465459
0.00260188
0.00348249
0.00434547
0.00509288
0.00564762
0.00597069
0.00606644
0.00597067
0.00573544
0.00541973
0.00507322
0.00473713
0.00443702
0.00419067
0.00400136
0.00387568
0.00379933
0.00377315
0.00379121
0.00384298
0.00392262
0.00401701
0.00412242
0.0042372
0.0043556
0.00193172
0.00272563
0.003585
0.00442882
0.00517218
0.00574597
0.00611135
0.0062642
0.00622762
0.00604413
0.00576267
0.00543086
0.00508724
0.00476134
0.00447231
0.00422611
0.00403834
0.00390291
0.00381291
0.003762
0.0037545
0.00378146
0.0038371
0.00391652
0.0040091
0.00135007
0.00201037
0.00278316
0.00361603
0.00444038
0.00518397
0.00578531
0.00620552
0.00643157
0.0064754
0.00636696
0.00614564
0.00585233
0.00552352
0.00519067
0.00487262
0.00458663
0.0043369
0.00413265
0.0039764
0.00386393
0.00378491
0.00373635
0.00372332
0.00373695
0.000912873
0.00139986
0.0020453
0.00279127
0.00359297
0.0043939
0.00513385
0.00575997
0.00623541
0.00654109
0.00667857
0.0066653
0.0065295
0.00630341
0.00602015
0.00570782
0.0053891
0.00508105
0.00479546
0.00454125
0.00431423
0.00412907
0.00398289
0.00387134
0.00378602
0.000615662
0.000947928
0.00142058
0.00205113
0.0027687
0.00353538
0.00430518
0.00502689
0.00566105
0.00617587
0.0065506
0.00677871
0.00686717
0.00683342
0.00670168
0.00649841
0.0062469
0.00596541
0.00567173
0.00538109
0.00510202
0.00484332
0.00461015
0.00439853
0.00421564
0.000437148
0.000647965
0.000955653
0.0014159
0.00202921
0.00271597
0.00344825
0.00418135
0.00487618
0.00549128
0.00600665
0.00640653
0.00668495
0.00684519
0.00689839
0.0068611
0.0067516
0.00658754
0.00638563
0.0061609
0.00592561
0.0056888
0.00545733
0.00522795
0.00500722
0.000310488
0.000454924
0.000662203
0.000957772
0.00136825
0.00193692
0.0026214
0.00331655
0.00401193
0.00467881
0.00528393
0.00579808
0.00621573
0.00653208
0.0067493
0.00687535
0.0069216
0.00690086
0.00682638
0.00671089
0.00656614
0.00640193
0.00622616
0.00604378
0.00585994
0.000201817
0.000296942
0.000433022
0.000626292
0.000896848
0.00126857
0.00176384
0.00235836
0.00300904
0.00368328
0.00431509
0.0049019
0.00542906
0.00586589
0.00621504
0.00648272
0.00667494
0.00679876
0.00686186
0.00687326
0.00684252
0.00677876
0.00668982
0.00658199
0.00646125
0.000106554
0.000158644
0.000233882
0.000341747
0.000494107
0.000705186
0.000990485
0.00136805
0.00184836
0.00237184
0.00291232
0.00346875
0.0040246
0.00451049
0.00494272
0.00532318
0.00564611
0.00590895
0.00610232
0.00623377
0.00631407
0.00635179
0.00635392
0.00632631
0.00627477
3.84871e-05
5.8101e-05
8.6689e-05
0.000127887
0.000186599
0.00026912
0.000382792
0.000536726
0.000742976
0.00101577
0.00132816
0.001661
0.00201111
0.00235994
0.00270564
0.00305468
0.00335161
0.00360783
0.00381997
0.00398825
0.00411566
0.00420498
0.00425872
0.0042799
0.00427245
8.87723e-06
1.36438e-05
2.05762e-05
3.04333e-05
4.40803e-05
6.24272e-05
8.65096e-05
0.000117689
0.00015781
0.000209337
0.000275782
0.000359555
0.000457067
0.000562942
0.00067603
0.000792218
0.000898701
0.000994661
0.0010847
0.00115772
0.00121743
0.00126344
0.00129478
0.00131312
0.00131958
1.52909e-05
2.38583e-05
3.60929e-05
5.312e-05
7.57465e-05
0.000103383
0.000134319
0.000166659
0.000197313
0.000223919
0.000246204
0.000262997
0.000269666
0.000263148
0.000243902
0.000212744
0.000174495
0.000135352
0.000102135
7.63837e-05
7.54743e-05
0.000112716
0.00016945
0.000246247
0.000341544
0.000949697
0.000568425
0.000364877
0.000940842
0.000584998
0.000396638
0.0028782
0.00210141
0.00160175
0.00460013
0.00431344
0.00392236
0.00472366
0.0047357
0.00467942
0.0044573
0.00454481
0.00461044
0.00409572
0.00418245
0.00426651
0.00376691
0.00381041
0.0038646
0.00372811
0.00368566
0.00366184
0.00408046
0.0039673
0.00387032
0.00482275
0.00465213
0.00449113
0.00569781
0.00553962
0.00538069
0.00634629
0.0062271
0.00610346
0.00621237
0.00613745
0.00605074
0.00424438
0.0041989
0.00413705
0.00131616
0.00130522
0.00128739
0.000445707
0.000556055
0.000674559
7.19364e-12
2.03034e-11
2.70191e-10
1.33133e-09
3.87122e-09
8.44646e-09
1.58572e-08
2.81119e-08
4.83584e-08
6.15998e-08
6.83839e-08
8.09019e-08
9.67857e-08
1.13086e-07
1.28362e-07
1.42246e-07
1.54556e-07
1.65297e-07
1.74656e-07
1.82783e-07
1.8976e-07
1.95903e-07
2.01784e-07
2.07461e-07
2.11912e-07
2.13685e-07
2.13649e-07
2.14175e-07
2.16395e-07
2.17212e-07
2.10812e-07
1.99701e-07
1.90318e-07
1.78088e-07
1.55519e-07
1.26466e-07
9.28317e-08
6.07697e-08
3.08096e-08
1.9126e-08
5.47671e-08
1.69202e-07
4.10035e-07
8.47866e-07
1.58138e-06
2.73717e-06
4.47266e-06
6.97484e-06
1.04534e-05
1.51274e-05
2.12105e-05
2.89065e-05
3.83759e-05
4.96715e-05
6.26807e-05
7.70745e-05
9.23206e-05
0.000107702
0.000122332
0.00013516
0.000144968
0.000150925
0.000152053
0.000147415
0.000137085
0.000121736
0.000102725
8.18619e-05
6.09998e-05
4.19685e-05
2.62025e-05
1.44816e-05
6.82496e-06
2.57631e-06
7.05637e-07
1.47838e-07
1.31614e-07
1.16761e-07
7.51935e-08
1.57538e-08
2.25293e-11
6.76032e-11
3.54577e-10
1.06241e-09
2.32707e-09
4.23626e-09
6.87865e-09
1.0416e-08
1.48385e-08
1.8503e-08
2.12396e-08
2.42943e-08
2.75528e-08
3.06976e-08
3.36922e-08
3.62553e-08
3.81836e-08
3.96107e-08
4.06935e-08
4.15596e-08
4.23218e-08
4.31144e-08
4.4081e-08
4.52898e-08
4.66887e-08
4.82248e-08
5.00905e-08
5.26122e-08
5.58496e-08
5.94145e-08
6.40485e-08
7.00256e-08
7.82623e-08
8.88014e-08
1.01633e-07
1.17962e-07
1.39511e-07
1.68473e-07
2.07385e-07
2.6139e-07
3.38175e-07
4.4722e-07
6.01527e-07
8.19309e-07
1.12485e-06
1.54894e-06
2.12923e-06
2.90973e-06
3.93923e-06
5.26862e-06
6.94829e-06
9.02656e-06
1.15469e-05
1.4537e-05
1.79499e-05
2.16203e-05
2.54233e-05
2.9224e-05
3.28642e-05
3.61834e-05
3.90708e-05
4.15982e-05
4.40533e-05
4.58339e-05
4.6523e-05
4.59488e-05
4.40332e-05
4.07857e-05
3.63146e-05
3.08657e-05
2.48265e-05
1.86985e-05
1.3023e-05
8.26667e-06
4.7027e-06
2.34409e-06
9.88459e-07
3.17783e-07
6.67304e-08
7.66523e-08
4.84827e-10
3.56883e-10
1.72171e-09
5.21997e-09
1.12222e-08
1.96825e-08
3.02389e-08
4.22774e-08
5.49565e-08
6.71757e-08
7.81349e-08
8.74782e-08
9.49074e-08
1.00299e-07
1.03749e-07
1.05257e-07
1.04972e-07
1.0338e-07
1.01068e-07
9.86134e-08
9.66006e-08
9.56223e-08
9.62158e-08
9.88785e-08
1.041e-07
1.12458e-07
1.24722e-07
1.41757e-07
1.64494e-07
1.94242e-07
2.33588e-07
2.85158e-07
3.52174e-07
4.38175e-07
5.48725e-07
6.89609e-07
8.69775e-07
1.09964e-06
1.3927e-06
1.7668e-06
2.24449e-06
2.85326e-06
3.62672e-06
4.60633e-06
5.84204e-06
7.39251e-06
9.32493e-06
1.1714e-05
1.46404e-05
1.81878e-05
2.24399e-05
2.74758e-05
3.33616e-05
4.0137e-05
4.77934e-05
5.62869e-05
6.55979e-05
7.57086e-05
8.66045e-05
9.83024e-05
0.000110895
0.00012462
0.000137305
0.000147849
0.000155349
0.000158977
0.000158024
0.000152008
0.000140811
0.000124818
0.000105016
8.30047e-05
6.08369e-05
4.06698e-05
2.42625e-05
1.25086e-05
5.25756e-06
1.57855e-06
2.53546e-07
1.22959e-07
2.48286e-09
1.15136e-09
5.08431e-09
1.6104e-08
3.59914e-08
6.47803e-08
1.01043e-07
1.42323e-07
1.8557e-07
2.27589e-07
2.65541e-07
2.97303e-07
3.21566e-07
3.37874e-07
3.46498e-07
3.48163e-07
3.44087e-07
3.36001e-07
3.25833e-07
3.15518e-07
3.07048e-07
3.02431e-07
3.03467e-07
3.1167e-07
3.28923e-07
3.57469e-07
3.99983e-07
4.59591e-07
5.40136e-07
6.46813e-07
7.87065e-07
9.6975e-07
1.20719e-06
1.51056e-06
1.8982e-06
2.39311e-06
3.02435e-06
3.82756e-06
4.84756e-06
6.14059e-06
7.77555e-06
9.83501e-06
1.2417e-05
1.56369e-05
1.96281e-05
2.45417e-05
3.0545e-05
3.78188e-05
4.65524e-05
5.69374e-05
6.91567e-05
8.33721e-05
9.97065e-05
0.000118224
0.000138915
0.000161685
0.000186354
0.00021263
0.000240102
0.000268254
0.000296474
0.000323216
0.000345285
0.000361737
0.000371388
0.000373092
0.000365832
0.000348908
0.000322149
0.000286171
0.000242602
0.00019421
0.00014479
9.86959e-05
5.99703e-05
3.1275e-05
1.31071e-05
3.85014e-06
5.82096e-07
1.27231e-07
6.94869e-09
2.71132e-09
1.13208e-08
3.66501e-08
8.40865e-08
1.54795e-07
2.45635e-07
3.50258e-07
4.60524e-07
5.67924e-07
6.64824e-07
7.45376e-07
8.05983e-07
8.4537e-07
8.64328e-07
8.65258e-07
8.51851e-07
8.28704e-07
8.00764e-07
7.73038e-07
7.50564e-07
7.38135e-07
7.39327e-07
7.58595e-07
8.0082e-07
8.71561e-07
9.77359e-07
1.12622e-06
1.3282e-06
1.59641e-06
1.94958e-06
2.40534e-06
2.99153e-06
3.74204e-06
4.70031e-06
5.92145e-06
7.47422e-06
9.4432e-06
1.19323e-05
1.5068e-05
1.90013e-05
2.39092e-05
2.99966e-05
3.74972e-05
4.66729e-05
5.78108e-05
7.12168e-05
8.72054e-05
0.000106083
0.000128127
0.000153553
0.000182481
0.000214901
0.000250637
0.000289366
0.000330541
0.000373395
0.00041697
0.000460166
0.000501802
0.000540674
0.000573149
0.00059861
0.000615848
0.000623462
0.00062012
0.000604499
0.000575522
0.000532657
0.000476278
0.000408076
0.000331403
0.000251396
0.000174619
0.000108003
5.70742e-05
2.40555e-05
7.05362e-06
1.04457e-06
7.56066e-08
1.42739e-08
5.2788e-09
2.17144e-08
7.11037e-08
1.65525e-07
3.09085e-07
4.96482e-07
7.14697e-07
9.46105e-07
1.17189e-06
1.37509e-06
1.54269e-06
1.66682e-06
1.74485e-06
1.77886e-06
1.77466e-06
1.74072e-06
1.68714e-06
1.62463e-06
1.56396e-06
1.51561e-06
1.48689e-06
1.48686e-06
1.52479e-06
1.61062e-06
1.75557e-06
1.97261e-06
2.27849e-06
2.69447e-06
3.24247e-06
3.9561e-06
4.87681e-06
6.05769e-06
7.56568e-06
9.48493e-06
1.19202e-05
1.50002e-05
1.88805e-05
2.37479e-05
2.98232e-05
3.73635e-05
4.66632e-05
5.80549e-05
7.19077e-05
8.86219e-05
0.000108618
0.000132318
0.000160119
0.000192349
0.00022923
0.000270816
0.000316954
0.000367241
0.000421004
0.0004773
0.00053498
0.000592669
0.000648734
0.000701933
0.000751001
0.000794852
0.000830681
0.000858044
0.000876027
0.000882975
0.000877095
0.000856479
0.000819324
0.000764282
0.000690948
0.000600462
0.000496144
0.000383968
0.000272568
0.000172271
9.27486e-05
3.95975e-05
1.16929e-05
1.74575e-06
1.52131e-07
2.40018e-08
9.08266e-09
3.82684e-08
1.26249e-07
2.96065e-07
5.56966e-07
9.00617e-07
1.30327e-06
1.73144e-06
2.14873e-06
2.52219e-06
2.82678e-06
3.04769e-06
3.1806e-06
3.23047e-06
3.20942e-06
3.13446e-06
3.02525e-06
2.90231e-06
2.78589e-06
2.69045e-06
2.63256e-06
2.6288e-06
2.69563e-06
2.85039e-06
3.11354e-06
3.50619e-06
4.05447e-06
4.79247e-06
5.76287e-06
7.0211e-06
8.63768e-06
1.07016e-05
1.33238e-05
1.66414e-05
2.08217e-05
2.60654e-05
3.26109e-05
4.07371e-05
5.07667e-05
6.30678e-05
7.80542e-05
9.61836e-05
0.00011795
0.000143869
0.00017445
0.00021016
0.000251366
0.000298277
0.000350876
0.000408867
0.000471636
0.000538248
0.00060748
0.000677896
0.000747954
0.000816213
0.00088142
0.0009424
0.000998082
0.00104763
0.00108886
0.00112162
0.00114469
0.00115616
0.00115359
0.00113415
0.00109485
0.00103297
0.000946747
0.000836153
0.000703938
0.000556514
0.000404468
0.000262007
0.000144373
6.27808e-05
1.87719e-05
2.89784e-06
7.28574e-07
3.4791e-08
1.4416e-08
6.41683e-08
2.12931e-07
5.00859e-07
9.44721e-07
1.53074e-06
2.21765e-06
2.94638e-06
3.65256e-06
4.2782e-06
4.78003e-06
5.13359e-06
5.33346e-06
5.39055e-06
5.3281e-06
5.17735e-06
4.97337e-06
4.75198e-06
4.54084e-06
4.36808e-06
4.26233e-06
4.25082e-06
4.35959e-06
4.61451e-06
5.04413e-06
5.6814e-06
6.56675e-06
7.75147e-06
9.30094e-06
1.12986e-05
1.38495e-05
1.70848e-05
2.11651e-05
2.62853e-05
3.26781e-05
4.06176e-05
5.0423e-05
6.24616e-05
7.71523e-05
9.49665e-05
0.000116427
0.000142099
0.000172574
0.000208437
0.000250217
0.000298328
0.000352986
0.000414145
0.00048143
0.00055411
0.000631115
0.000711101
0.000792556
0.000873931
0.000953776
0.00103084
0.00110409
0.00117266
0.00123578
0.00129239
0.00134191
0.00138432
0.00141822
0.00144127
0.0014502
0.00144087
0.00140853
0.00134828
0.00125596
0.00112942
0.000969961
0.000783912
0.000583747
0.000388146
0.00021956
9.76795e-05
2.97137e-05
4.82718e-06
2.42091e-06
4.59057e-08
2.19642e-08
1.04555e-07
3.48398e-07
8.19679e-07
1.54496e-06
2.49942e-06
3.61237e-06
4.78408e-06
5.9072e-06
6.88687e-06
7.65467e-06
8.17478e-06
8.44326e-06
8.48276e-06
8.33497e-06
8.05363e-06
7.6971e-06
7.31441e-06
6.95229e-06
6.6592e-06
6.47839e-06
6.4488e-06
6.60674e-06
6.98826e-06
7.63233e-06
8.58439e-06
9.90027e-06
1.16505e-05
1.39248e-05
1.68364e-05
2.05264e-05
2.51681e-05
3.09705e-05
3.81827e-05
4.70969e-05
5.80527e-05
7.14407e-05
8.77065e-05
0.000107354
0.000130946
0.000159095
0.000192448
0.000231652
0.000277298
0.000329853
0.000389573
0.000456422
0.000530008
0.000609555
0.000693928
0.000781713
0.000871343
0.000961244
0.00104997
0.00113633
0.00121938
0.0012985
0.00137324
0.00144326
0.00150726
0.00156714
0.00162293
0.00167333
0.00171572
0.0017461
0.00175887
0.00174699
0.00170244
0.0016172
0.00148512
0.00130418
0.00107923
0.000824214
0.00056304
0.000327528
0.000149577
4.64904e-05
8.03444e-06
6.30706e-06
6.03777e-08
3.32917e-08
1.67795e-07
5.60225e-07
1.31537e-06
2.47102e-06
3.97972e-06
5.72103e-06
7.53083e-06
9.23779e-06
1.06957e-05
1.18046e-05
1.25183e-05
1.28407e-05
1.28157e-05
1.25155e-05
1.20258e-05
1.14237e-05
1.07862e-05
1.01934e-05
9.71536e-06
9.41256e-06
9.33747e-06
9.53759e-06
1.00591e-05
1.09515e-05
1.22719e-05
1.4091e-05
1.64975e-05
1.96039e-05
2.35507e-05
2.85114e-05
3.46961e-05
4.23548e-05
5.17816e-05
6.33178e-05
7.73569e-05
9.43493e-05
0.000114807
0.000139307
0.000168484
0.000203017
0.000243596
0.000290863
0.000345342
0.00040735
0.000476894
0.000553608
0.000636714
0.000725041
0.000817114
0.000911287
0.00100591
0.00109947
0.00119076
0.00127894
0.00136354
0.00144444
0.00152178
0.00159581
0.0016668
0.0017375
0.00180864
0.0018794
0.0019474
0.00200835
0.00205562
0.00208005
0.00207006
0.00201245
0.00189453
0.00170756
0.00145144
0.00113943
0.000800845
0.000479722
0.000225427
7.18494e-05
1.3256e-05
1.40189e-05
6.57565e-08
4.924e-08
2.67502e-07
8.93431e-07
2.08752e-06
3.89573e-06
6.22805e-06
8.88246e-06
1.15968e-05
1.41079e-05
1.62011e-05
1.77396e-05
1.86714e-05
1.90187e-05
1.88584e-05
1.83103e-05
1.74775e-05
1.64869e-05
1.54661e-05
1.45273e-05
1.37659e-05
1.32619e-05
1.30823e-05
1.32863e-05
1.39294e-05
1.50701e-05
1.67755e-05
1.91277e-05
2.22302e-05
2.62128e-05
3.12376e-05
3.75025e-05
4.52453e-05
5.47469e-05
6.63347e-05
8.03875e-05
9.73407e-05
0.000117693
0.000142008
0.000170919
0.000205109
0.00024529
0.000292145
0.000346241
0.000407925
0.000477326
0.000554132
0.000637607
0.000726586
0.000819554
0.00091478
0.00101049
0.00110506
0.00119717
0.00128593
0.00137093
0.00145226
0.00153048
0.00160647
0.00168133
0.00175726
0.00183754
0.00192369
0.00201574
0.00211202
0.00220868
0.00229902
0.00237282
0.00241578
0.00240957
0.00233329
0.00216738
0.00190071
0.00153986
0.00111681
0.000690209
0.000334361
0.00010957
2.15108e-05
2.77376e-05
1.2231e-07
7.78032e-08
4.2414e-07
1.41279e-06
3.27997e-06
6.07217e-06
9.62148e-06
1.35952e-05
1.75858e-05
2.12014e-05
2.41381e-05
2.62185e-05
2.73974e-05
2.77334e-05
2.73343e-05
2.63521e-05
2.49871e-05
2.34289e-05
2.18502e-05
2.04005e-05
1.92045e-05
1.83647e-05
1.7965e-05
1.80765e-05
1.87638e-05
2.00927e-05
2.21369e-05