/*--------------------------------*- C++ -*----------------------------------*\
| =========                 |                                                 |
| \\      /  F ield         | OpenFOAM: The Open Source CFD Toolbox           |
|  \\    /   O peration     | Version:  v2012                                 |
|   \\  /    A nd           | Website:  www.openfoam.com                      |
|    \\/     M anipulation  |                                                 |
\*---------------------------------------------------------------------------*/
FoamFile
{
    version     2.0;
    format      ascii;
    class       volScalarField;
    location    "2000";
    object      nut;
}
// * * * * * * * * * * * * * * * * * * * * * * * * * * * * * * * * * * * * * //

dimensions      [0 2 -1 0 0 0 0];


internalField   nonuniform List<scalar> 
6502
(
7.25349e-05
0.000757141
0.00219624
0.00268474
0.00276179
0.00276185
0.00268501
0.002197
0.000757566
7.25369e-05
4.51474e-05
0.000357303
0.00149035
0.00241681
0.00267218
0.00267259
0.0024184
0.00149268
0.000357812
4.51605e-05
3.0703e-05
0.000211227
0.0010472
0.00210389
0.00254601
0.00254731
0.00210778
0.00105073
0.00021179
3.07358e-05
2.17258e-05
0.000136941
0.000768056
0.00180638
0.00239196
0.0023948
0.00181322
0.000772583
0.00013757
2.17879e-05
1.56955e-05
9.4546e-05
0.000587399
0.00155047
0.00222363
0.00222868
0.00156065
0.000592863
9.5236e-05
1.57937e-05
1.16723e-05
6.90568e-05
0.000467726
0.00134318
0.00205455
0.0020624
0.0013569
0.000474156
6.98199e-05
1.18084e-05
9.07493e-06
5.29278e-05
0.000386145
0.0011789
0.00189384
0.00190508
0.00119668
0.000393731
5.37914e-05
9.25302e-06
7.38451e-06
4.22047e-05
0.000328221
0.00104728
0.00174535
0.00176066
0.00106988
0.000337337
4.32151e-05
7.61172e-06
6.26157e-06
3.46946e-05
0.000284753
0.000940063
0.0016102
0.00163025
0.000968238
0.000295771
3.58808e-05
6.54924e-06
5.49973e-06
2.91895e-05
0.000250798
0.000850864
0.00148801
0.00151355
0.000885677
0.00026403
3.05959e-05
5.86261e-06
4.96181e-06
2.49786e-05
0.000223296
0.000774834
0.00137761
0.00140957
0.000817626
0.000239237
2.66536e-05
5.41943e-06
4.55381e-06
2.16366e-05
0.000200184
0.000708347
0.00127722
0.00131697
0.0007609
0.000219504
2.36452e-05
5.13544e-06
4.22071e-06
1.8924e-05
0.000180191
0.000648896
0.00118509
0.00123337
0.000714032
0.000203689
2.13292e-05
4.96333e-06
3.92845e-06
1.66647e-05
0.000162371
0.00059429
0.00109978
0.00115683
0.000675893
0.000191093
1.95408e-05
4.87932e-06
3.65408e-06
1.47408e-05
0.000146174
0.000543216
0.00101984
0.00108631
0.000642227
0.000181484
1.81529e-05
4.87383e-06
3.38284e-06
1.3065e-05
0.000131135
0.000494862
0.00094399
0.00102076
0.00061187
0.00017357
1.7312e-05
4.94947e-06
3.10462e-06
1.15716e-05
0.000117009
0.000448535
0.000871028
0.000959164
0.000584671
0.000167427
1.69451e-05
5.11954e-06
2.81367e-06
1.02183e-05
0.00010372
0.000403862
0.000800105
0.000900607
0.000560587
0.000163225
1.70538e-05
5.40964e-06
2.50738e-06
8.97379e-06
9.11996e-05
0.000360589
0.000730366
0.000844137
0.000539522
0.000161181
1.77096e-05
5.90094e-06
2.18695e-06
7.81952e-06
7.94764e-05
0.000318759
0.000661463
0.00078879
0.000521425
0.00016183
1.90906e-05
6.2996e-06
1.85786e-06
6.74427e-06
6.8566e-05
0.000278483
0.000592806
0.000733322
0.000506671
0.000169135
2.46843e-05
6.09006e-06
1.53284e-06
5.75697e-06
5.86601e-05
0.00024069
0.00052559
0.000677505
0.000494446
0.00018187
3.3829e-05
7.93364e-06
1.22562e-06
4.85801e-06
4.98243e-05
0.000206024
0.000460977
0.000621104
0.000483079
0.000198271
4.64601e-05
1.25084e-05
9.47082e-07
4.04994e-06
4.20716e-05
0.000174948
0.000400099
0.00056422
0.000470917
0.000217108
6.30523e-05
2.05657e-05
7.04818e-07
3.33476e-06
3.53554e-05
0.000147629
0.000343927
0.000507252
0.00045641
0.000237663
8.34971e-05
3.23435e-05
5.02688e-07
2.71218e-06
2.95886e-05
0.00012399
0.000293141
0.000450916
0.000438265
0.000258122
0.0001071
4.77371e-05
3.41168e-07
2.18012e-06
2.46717e-05
0.000103799
0.000248123
0.000396241
0.000415731
0.00027582
0.00013276
6.63782e-05
2.18119e-07
1.73446e-06
2.05057e-05
8.67403e-05
0.000208984
0.000344719
0.000388645
0.000288985
0.000159021
8.7649e-05
1.29512e-07
1.36892e-06
1.6998e-05
7.24608e-05
0.000175533
0.00029726
0.000357609
0.000296072
0.000184116
0.000110627
7.00388e-08
1.07517e-06
1.40614e-05
6.05918e-05
0.000147364
0.000254597
0.000323932
0.000295981
0.000206166
0.00013416
3.35345e-08
8.43346e-07
1.16142e-05
5.07713e-05
0.000123925
0.000217178
0.000289321
0.000288525
0.000223251
0.000156873
1.36801e-08
6.61056e-07
9.57517e-06
4.26589e-05
0.000104604
0.000185099
0.000255559
0.000274567
0.000233955
0.000177169
4.99794e-09
5.19392e-07
7.88143e-06
3.59581e-05
8.87822e-05
0.000158131
0.000224148
0.00025585
0.000237462
0.000193532
5.13774e-09
4.1253e-07
6.48705e-06
3.0424e-05
7.58784e-05
0.000135822
0.000196116
0.00023456
0.000234076
0.000204665
8.50331e-09
3.31554e-07
5.34882e-06
2.58548e-05
6.53729e-05
0.000117595
0.00017197
0.000212855
0.000225193
0.000209987
1.17568e-08
2.68089e-07
4.41587e-06
2.20652e-05
5.67994e-05
0.000102818
0.000151748
0.000192435
0.000212868
0.000209759
1.42086e-08
2.12522e-07
3.58863e-06
1.87988e-05
4.96894e-05
9.08399e-05
0.00013514
0.000174355
0.000199228
0.000205228
1.63063e-08
1.68715e-07
2.87713e-06
1.59416e-05
4.36822e-05
8.10709e-05
0.000121643
0.000159053
0.000186018
0.000198175
1.75028e-08
1.35713e-07
2.31103e-06
1.35099e-05
3.85736e-05
7.30421e-05
0.000110701
0.000146497
0.000174356
0.0001904
1.69735e-08
1.07492e-07
1.83208e-06
1.13633e-05
3.41195e-05
6.63387e-05
0.000101791
0.000136354
0.000164724
0.000183281
1.60491e-08
8.48263e-08
1.43097e-06
9.35156e-06
3.00322e-05
6.05794e-05
9.45087e-05
0.000128177
0.000157122
0.000177614
1.50666e-08
6.71822e-08
1.1124e-06
7.57638e-06
2.62319e-05
5.55697e-05
8.88988e-05
0.000121742
0.000151361
0.000173688
1.33388e-08
5.35278e-08
8.58035e-07
6.09005e-06
2.25369e-05
5.11554e-05
8.52942e-05
0.000117793
0.000147522
0.000171563
1.14642e-08
4.18972e-08
6.53154e-07
4.7675e-06
1.88233e-05
4.65821e-05
8.19615e-05
0.000116064
0.00014555
0.000171083
1.00174e-08
3.27548e-08
4.93907e-07
3.62657e-06
1.51405e-05
4.07022e-05
7.74753e-05
0.000114135
0.000145981
0.000172196
8.83161e-09
2.54441e-08
3.66107e-07
2.68684e-06
1.16781e-05
3.37543e-05
6.99659e-05
0.000110113
0.000145538
0.000174649
7.91642e-09
1.96547e-08
2.65012e-07
1.94581e-06
8.64361e-06
2.63587e-05
5.8996e-05
0.000101872
0.000142003
0.000175401
7.35973e-09
1.55514e-08
1.91638e-07
1.3989e-06
6.25431e-06
1.97001e-05
4.68485e-05
8.75396e-05
0.000132609
0.000171701
7.01211e-09
1.28413e-08
1.42529e-07
1.02578e-06
4.52895e-06
1.43932e-05
3.52855e-05
6.96411e-05
0.000114468
0.000159898
6.69414e-09
1.10538e-08
1.11558e-07
7.87794e-07
3.3931e-06
1.05147e-05
2.56833e-05
5.17547e-05
8.9811e-05
0.00013604
6.24134e-09
9.75751e-09
9.26958e-08
6.42404e-07
2.68708e-06
7.94334e-06
1.83703e-05
3.6152e-05
6.35187e-05
0.000102099
5.50455e-09
8.57804e-09
8.01689e-08
5.46059e-07
2.21126e-06
6.18975e-06
1.33678e-05
2.45802e-05
4.15379e-05
6.78496e-05
4.43228e-09
7.11663e-09
6.90257e-08
4.64373e-07
1.81414e-06
4.78399e-06
9.64136e-06
1.66634e-05
2.68134e-05
4.2059e-05
3.12893e-09
5.4689e-09
5.6843e-08
3.76485e-07
1.40569e-06
3.47093e-06
6.56592e-06
1.08137e-05
1.68039e-05
2.56248e-05
1.83669e-09
3.7197e-09
4.2452e-08
2.74187e-07
9.62281e-07
2.21055e-06
3.96378e-06
6.32813e-06
9.6557e-06
1.45287e-05
8.26886e-10
2.13172e-09
2.70077e-08
1.65792e-07
5.31003e-07
1.12829e-06
1.94389e-06
3.06063e-06
4.65342e-06
6.99126e-06
2.44729e-10
9.61386e-10
1.32982e-08
7.26284e-08
2.02722e-07
3.98481e-07
6.71384e-07
1.06062e-06
1.62891e-06
2.4684e-06
3.12178e-11
3.02666e-10
4.06324e-09
1.71778e-08
4.04853e-08
7.52393e-08
1.26813e-07
2.04359e-07
3.21339e-07
4.97142e-07
2.73717e-12
4.87201e-11
4.01967e-10
1.25683e-09
2.78284e-09
5.33184e-09
9.50219e-09
1.62335e-08
2.69302e-08
4.36172e-08
1.4535e-12
4.12805e-12
1.25828e-11
9.92116e-11
3.65265e-10
9.66022e-10
2.12806e-09
4.18892e-09
7.65043e-09
1.32273e-08
1.03767e-06
3.11567e-07
2.1787e-07
1.31147e-07
7.70771e-08
4.543e-08
2.70238e-08
1.6123e-08
9.48982e-09
5.43134e-09
2.95401e-09
1.46869e-09
6.22503e-10
1.94817e-10
5.13078e-11
1.63464e-10
1.96015e-10
2.79048e-10
3.26321e-10
3.03967e-10
2.27314e-10
1.33685e-10
6.01479e-11
1.38221e-11
1.09544e-12
2.25597e-06
8.34315e-07
3.5957e-07
1.92968e-07
1.13878e-07
6.96416e-08
4.34065e-08
2.73706e-08
1.72655e-08
1.16313e-08
8.21843e-09
6.069e-09
4.65873e-09
3.68346e-09
2.97405e-09
2.45407e-09
1.9432e-09
1.5043e-09
1.11641e-09
7.70891e-10
4.78777e-10
2.48393e-10
9.17101e-11
1.79369e-11
9.30862e-12
5.48819e-06
3.0169e-06
1.7349e-06
1.0399e-06
6.78606e-07
4.53539e-07
3.07456e-07
2.14385e-07
1.56665e-07
1.2271e-07
1.0169e-07
8.72809e-08
7.58585e-08
6.54401e-08
5.51138e-08
4.47021e-08
3.44497e-08
2.48968e-08
1.66137e-08
9.99828e-09
5.17359e-09
2.03667e-09
4.62474e-10
6.76656e-11
4.29458e-11
1.10996e-05
7.78553e-06
5.97847e-06
4.38025e-06
3.23714e-06
2.30757e-06
1.61882e-06
1.16168e-06
8.80563e-07
7.14207e-07
6.11921e-07
5.4077e-07
4.81228e-07
4.22687e-07
3.60541e-07
2.94445e-07
2.26978e-07
1.62361e-07
1.05084e-07
5.87923e-08
2.6143e-08
8.07509e-09
1.3831e-09
1.62081e-10
1.02478e-10
1.93351e-05
1.50969e-05
1.32527e-05
1.16208e-05
9.29412e-06
6.97004e-06
4.98936e-06
3.60874e-06
2.76483e-06
2.2784e-06
1.98877e-06
1.78886e-06
1.61574e-06
1.43583e-06
1.23486e-06
1.01217e-06
7.77198e-07
5.46399e-07
3.39796e-07
1.76857e-07
7.0589e-08
1.89645e-08
2.8948e-09
2.8608e-10
1.68545e-10
3.03366e-05
2.47311e-05
2.3108e-05
2.19142e-05
1.87035e-05
1.44909e-05
1.03911e-05
7.41956e-06
5.63162e-06
4.64282e-06
4.08066e-06
3.70175e-06
3.36941e-06
3.01411e-06
2.60697e-06
2.14596e-06
1.64954e-06
1.15335e-06
7.05778e-07
3.57065e-07
1.37641e-07
3.59459e-08
5.3223e-09
4.47648e-10
2.19894e-10
4.40591e-05
3.65936e-05
3.49536e-05
3.43715e-05
3.09698e-05
2.41017e-05
1.70036e-05
1.17303e-05
8.65465e-06
7.04322e-06
6.18256e-06
5.62951e-06
5.15179e-06
4.63843e-06
4.04413e-06
3.3628e-06
2.61756e-06
1.8577e-06
1.15623e-06
5.95896e-07
2.34201e-07
6.2315e-08
9.24443e-09
6.62273e-10
2.37852e-10
6.02912e-05
5.05305e-05
4.83972e-05
4.8383e-05
4.47392e-05
3.5621e-05
2.46555e-05
1.63338e-05
1.15857e-05
9.23621e-06
8.07577e-06
7.38698e-06
6.81543e-06
6.19923e-06
5.47195e-06
4.61975e-06
3.66669e-06
2.66873e-06
1.71602e-06
9.20804e-07
3.7838e-07
1.04755e-07
1.58676e-08
9.81441e-10
2.07902e-10
7.85809e-05
6.62181e-05
6.32424e-05
6.3536e-05
6.02326e-05
4.94843e-05
3.45941e-05
2.21465e-05
1.49173e-05
1.15534e-05
1.00322e-05
9.23052e-06
8.61476e-06
7.94361e-06
7.11541e-06
6.11269e-06
4.9539e-06
3.70036e-06
2.46121e-06
1.38001e-06
5.97647e-07
1.74176e-07
2.7257e-08
1.53307e-09
1.3515e-10
9.82672e-05
8.31799e-05
7.91098e-05
7.94434e-05
7.73858e-05
6.58917e-05
4.74317e-05
3.03135e-05
1.96376e-05
1.45853e-05
1.24355e-05
1.1472e-05
1.08314e-05
1.01357e-05
9.24143e-06
8.08755e-06
6.68417e-06
5.10722e-06
3.49676e-06
2.03849e-06
9.28699e-07
2.8633e-07
4.68328e-08
2.56211e-09
5.42338e-11
0.000118577
0.000100853
9.54801e-05
9.57765e-05
9.50759e-05
8.51167e-05
6.41384e-05
4.1787e-05
2.65076e-05
1.90378e-05
1.58592e-05
1.44804e-05
1.37855e-05
1.31093e-05
1.21715e-05
1.08461e-05
9.12745e-06
7.10674e-06
4.97766e-06
2.99283e-06
1.42417e-06
4.64405e-07
8.0358e-08
4.66615e-09
1.96826e-10
0.000138539
0.000118585
0.000111785
0.000111935
0.000112506
0.000106115
8.54021e-05
5.85213e-05
3.72567e-05
2.56973e-05
2.07694e-05
1.88083e-05
1.78658e-05
1.72455e-05
1.63175e-05
1.48125e-05
1.26875e-05
1.00415e-05
7.1554e-06
4.40043e-06
2.16577e-06
7.42384e-07
1.36722e-07
8.86905e-09
9.03625e-10
0.000157073
0.000135669
0.000127406
0.000127235
0.000129028
0.000125928
0.000110978
8.19639e-05
5.3888e-05
3.60497e-05
2.7869e-05
2.48088e-05
2.36827e-05
2.30162e-05
2.22186e-05
2.06176e-05
1.7991e-05
1.44666e-05
1.04474e-05
6.52443e-06
3.28689e-06
1.17222e-06
2.29582e-07
1.7479e-08
3.49063e-09
0.000173034
0.000151401
0.000141796
0.000141075
0.000143894
0.000143903
0.000134769
0.000112123
7.90693e-05
5.31476e-05
3.89125e-05
3.33195e-05
3.16889e-05
3.11288e-05
3.05894e-05
2.90716e-05
2.59383e-05
2.12414e-05
1.55385e-05
9.80297e-06
5.00831e-06
1.83664e-06
3.80078e-07
3.43812e-08
1.02298e-08
0.000185402
0.000165081
0.000154504
0.000152971
0.000156434
0.000159225
0.000155409
0.000140308
0.000112937
8.09637e-05
5.74349e-05
4.63533e-05
4.29393e-05
4.26357e-05
4.23644e-05
4.13221e-05
3.78639e-05
3.16566e-05
2.34975e-05
1.49461e-05
7.68932e-06
2.86606e-06
6.19425e-07
6.54464e-08
2.47595e-08
0.000193463
0.000176086
0.000165213
0.000162674
0.000166204
0.000171161
0.000172087
0.000164251
0.000145213
0.00011718
8.86375e-05
6.82059e-05
5.9599e-05
5.82046e-05
5.88685e-05
5.84771e-05
5.52435e-05
4.7478e-05
3.59185e-05
2.30671e-05
1.19034e-05
4.46344e-06
9.92638e-07
1.18215e-07
5.18031e-08
0.000197132
0.000184009
0.000173755
0.00017022
0.000173145
0.000179339
0.000184094
0.00018277
0.000172245
0.000152254
0.000126603
0.000102525
8.64487e-05
8.035e-05
8.07996e-05
8.13246e-05
7.93478e-05
7.0623e-05
5.4916e-05
3.58003e-05
1.85371e-05
6.93625e-06
1.56326e-06
2.01092e-07
9.61995e-08
0.000197056
0.000188799
0.000180089
0.000175844
0.000177611
0.000183899
0.000191165
0.000195152
0.000192364
0.000181246
0.000162998
0.000141749
0.000123321
0.000111926
0.000109199
0.000111064
0.000110294
0.000102253
8.27199e-05
5.53475e-05
2.8881e-05
1.0738e-05
2.42058e-06
3.2326e-07
1.61375e-07
0.000194579
0.00019092
0.000184448
0.00017996
0.00018027
0.000185548
0.000193699
0.000201302
0.000204834
0.000201969
0.000192299
0.000177746
0.000162145
0.000149825
0.000143509
0.000143937
0.000144833
0.000140613
0.000120121
8.40768e-05
4.46541e-05
1.65198e-05
3.6878e-06
4.9622e-07
2.44561e-07
0.000191239
0.000191415
0.000187374
0.000183165
0.000182054
0.000185487
0.000192873
0.000201993
0.000209831
0.000213668
0.000212107
0.000205408
0.000195638
0.000185963
0.000179334
0.000177454
0.000179645
0.000177859
0.000163192
0.000123213
6.83311e-05
2.5217e-05
5.52681e-06
7.44041e-07
3.34478e-07
0.000188368
0.000191568
0.000189764
0.000186167
0.000183916
0.000185151
0.000190481
0.000199004
0.000208647
0.000216921
0.000221795
0.000222422
0.000219508
0.000214642
0.000210025
0.000207279
0.000208357
0.000208677
0.000199775
0.000166511
0.000102479
3.83128e-05
8.17271e-06
1.14278e-06
4.62493e-07
0.000186831
0.00019256
0.000192726
0.000189973
0.000186821
0.000185923
0.0001885
0.000194769
0.000203758
0.000213681
0.000222569
0.000228865
0.000231865
0.000231996
0.000230889
0.00022961
0.000230604
0.00023283
0.000228336
0.0002035
0.000141345
5.87991e-05
1.2101e-05
1.84657e-06
8.06672e-07
0.000187015
0.000195137
0.000197233
0.000195394
0.000191939
0.000189058
0.000188743
0.000191789
0.000198214
0.000207123
0.000217084
0.000226546
0.000234168
0.000239116
0.000241571
0.00023589
0.000237283
0.000242758
0.000238694
0.000220187
0.000182073
9.11194e-05
1.9432e-05
3.1098e-06
1.38026e-06
0.000188882
0.00019951
0.000203731
0.000203125
0.000199759
0.000195649
0.000192686
0.000192273
0.00019507
0.000201029
0.000209412
0.000219103
0.000228786
0.000237154
0.000243285
0.000230941
0.00022072
0.000224373
0.000224851
0.000214798
0.000191301
0.000146763
4.99914e-05
1.07705e-05
2.43684e-06
0.000192225
0.00020558
0.000212348
0.000213564
0.000210914
0.000206276
0.000201395
0.00019789
0.000196859
0.000198717
0.000203601
0.000210982
0.000219931
0.000229242
0.000237653
0.000239899
0.000213517
0.000208795
0.000209601
0.000206663
0.000196468
0.000175339
0.000138084
6.40607e-05
2.13416e-05
0.000196605
0.000212843
0.000222656
0.000226447
0.000225404
0.000221148
0.000215334
0.000209469
0.000205018
0.000202694
0.000203162
0.000206484
0.000212341
0.000219955
0.000228243
0.000236064
0.000224954
0.00020544
0.000200287
0.000198062
0.000193999
0.000186413
0.0001728
0.00014929
0.00011996
0.00020102
0.000220262
0.00023362
0.000240816
0.000242472
0.000239795
0.000234273
0.000227299
0.00022036
0.000214565
0.000210689
0.000209448
0.000210695
0.000214434
0.000220077
0.000226737
0.000233445
0.000225694
0.000205218
0.000197201
0.000192603
0.000188189
0.000182902
0.000176169
0.000170018
0.0002024
0.000226164
0.000243554
0.000254981
0.0002605
0.000260822
0.000257103
0.000250613
0.000242693
0.000234628
0.000227376
0.000221821
0.000218371
0.000217433
0.000218543
0.000221645
0.000226105
0.000231304
0.000236821
0.000215284
0.000202522
0.000195267
0.000190356
0.000186854
0.000184922
0.00019729
0.000227052
0.00025003
0.000266512
0.000277009
0.000281755
0.000281534
0.000277373
0.000270407
0.000261866
0.000252822
0.000244268
0.000236914
0.000231329
0.000227693
0.000226223
0.000226403
0.000228144
0.000231186
0.000235089
0.00023954
0.000224705
0.000211064
0.000203096
0.000198862
0.000180931
0.000218527
0.000248852
0.000272126
0.000288641
0.000299099
0.000304014
0.000304103
0.000300242
0.000293455
0.000284786
0.000275241
0.000265682
0.000256829
0.000249215
0.000242998
0.000238674
0.000236059
0.000234928
0.000235072
0.000236581
0.000239054
0.000242158
0.00024559
0.000240102
0.000148326
0.000194516
0.000234423
0.000266736
0.000291486
0.000308998
0.000320103
0.000325976
0.000327205
0.000324496
0.00031869
0.000310683
0.000301344
0.000291449
0.000281712
0.000272567
0.000264466
0.000257521
0.000252
0.000248013
0.000245465
0.000244058
0.000243675
0.000244405
0.000245888
0.000104283
0.000150668
0.000199946
0.000243569
0.000279261
0.000306588
0.000325703
0.000337462
0.000344806
0.000347915
0.000347209
0.000343301
0.000336909
0.000328751
0.00031954
0.000309876
0.000300256
0.000291072
0.000282611
0.000275123
0.000268502
0.000263215
0.000259217
0.000256385
0.000254454
6.48173e-05
9.86036e-05
0.000143366
0.00019599
0.000244055
0.000283761
0.000313976
0.000330217
0.000340271
0.000348163
0.00035301
0.000354512
0.000352965
0.000349273
0.000344792
0.000340556
0.000336409
0.000327796
0.00031904
0.000310493
0.000302364
0.000294883
0.000288197
0.00028219
0.000277064
3.87958e-05
5.80618e-05
8.65e-05
0.00012861
0.000181268
0.000231312
0.000274476
0.00030809
0.000328132
0.000325753
0.000320653
0.000314535
0.000308182
0.000302011
0.00029637
0.000291465
0.000287669
0.000285371
0.000285053
0.000287317
0.00029205
0.000301502
0.000316174
0.000315184
0.000309661
2.17478e-05
3.22437e-05
4.79589e-05
7.14007e-05
0.000105183
0.000152564
0.000205171
0.00025102
0.000288962
0.000318562
0.000334098
0.000328057
0.000319702
0.00031072
0.000302012
0.000294118
0.000287387
0.000282119
0.000278463
0.000276659
0.000276677
0.000278689
0.000282984
0.000289407
0.000298398
1.04382e-05
1.54146e-05
2.28463e-05
3.40378e-05
5.08393e-05
7.56517e-05
0.000111012
0.000154428
0.000198747
0.000239725
0.000273068
0.000299789
0.000320541
0.000319596
0.000313003
0.000305699
0.000298451
0.000291915
0.00028654
0.000282506
0.000279826
0.000278432
0.00027844
0.000279993
0.000283086
3.70252e-06
5.46896e-06
8.08432e-06
1.19952e-05
1.78691e-05
2.66384e-05
3.95038e-05
5.82189e-05
8.44489e-05
0.000113292
0.000142073
0.000170206
0.000196897
0.000218908
0.000237407
0.000252818
0.000265142
0.000274619
0.000274239
0.000271109
0.000268357
0.000266094
0.000264548
0.000263904
0.000264116
7.56686e-07
1.12608e-06
1.66451e-06
2.45025e-06
3.60498e-06
5.30596e-06
7.7752e-06
1.13344e-05
1.65152e-05
2.40236e-05
3.2973e-05
4.25088e-05
5.2741e-05
6.30079e-05
7.3287e-05
8.37207e-05
9.25665e-05
0.000100122
0.000106347
0.000111252
0.000114901
0.000117351
0.000118677
0.000118989
0.00011841
6.87474e-08
1.04806e-07
1.56806e-07
2.30272e-07
3.32271e-07
4.71611e-07
6.57736e-07
9.0319e-07
1.2287e-06
1.65893e-06
2.22427e-06
2.96363e-06
3.85332e-06
4.80146e-06
5.82591e-06
6.89166e-06
7.87886e-06
8.76999e-06
9.61089e-06
1.02987e-05
1.086e-05
1.12846e-05
1.15624e-05
1.17123e-05
1.17445e-05
2.16706e-08
3.38126e-08
5.11517e-08
7.52826e-08
1.07349e-07
1.46515e-07
1.90357e-07
2.36189e-07
2.7963e-07
3.17335e-07
3.48916e-07
3.72714e-07
3.82165e-07
3.72927e-07
3.45653e-07
3.01498e-07
2.47293e-07
1.91821e-07
1.44747e-07
1.08252e-07
1.06963e-07
1.59743e-07
2.40143e-07
3.48977e-07
4.84024e-07
1.34577e-06
8.05528e-07
5.17089e-07
8.67466e-06
5.24751e-06
3.80117e-06
7.49026e-05
5.19784e-05
4.15904e-05
0.000167242
0.000165597
0.000159347
0.000184768
0.000185994
0.000187729
0.000196976
0.000197025
0.000198085
0.000229332
0.00022353
0.000220393
0.000247634
0.000249636
0.000251816
0.000253355
0.000252774
0.00025281
0.000273357
0.000270358
0.000267906
0.000304997
0.000300674
0.000296589
0.000310591
0.000324258
0.000327577
0.000287595
0.000292705
0.000298797
0.000265056
0.000266292
0.000267974
0.000117213
0.000115478
0.000113233
1.16813e-05
1.15448e-05
1.13418e-05
6.31632e-07
7.88e-07
9.55919e-07
7.8853e-15
2.99784e-14
3.98942e-13
1.96574e-12
5.71593e-12
1.24714e-11
2.34134e-11
4.15078e-11
7.14022e-11
9.09533e-11
1.0097e-10
1.19453e-10
1.42906e-10
1.66973e-10
1.89529e-10
2.10028e-10
2.28205e-10
2.44065e-10
2.57883e-10
2.69882e-10
2.80185e-10
2.89255e-10
2.97938e-10
3.0632e-10
3.12892e-10
3.1551e-10
3.15457e-10
3.16233e-10
3.19512e-10
3.20718e-10
3.11268e-10
2.94862e-10
2.81008e-10
2.6295e-10
2.29627e-10
1.8673e-10
1.37068e-10
8.97276e-11
4.5491e-11
2.82399e-11
8.08647e-11
2.4983e-10
6.05424e-10
1.25189e-09
2.33494e-09
4.04148e-09
6.60396e-09
1.02985e-08
1.54346e-08
2.23359e-08
3.13176e-08
4.26809e-08
5.66625e-08
7.33405e-08
9.25484e-08
1.13801e-07
1.36311e-07
1.59022e-07
1.80623e-07
1.99563e-07
2.14043e-07
2.22839e-07
2.24505e-07
2.17656e-07
2.02405e-07
1.79742e-07
1.51674e-07
1.20869e-07
9.00666e-08
6.19669e-08
3.86883e-08
2.13823e-08
1.00772e-08
3.80397e-09
1.04189e-09
2.18286e-10
1.94331e-10
1.724e-10
1.11025e-10
1.72685e-11
1.96367e-14
2.97922e-13
2.66869e-12
8.88629e-12
1.98364e-11
3.62565e-11
5.89486e-11
8.93721e-11
1.27591e-10
1.59101e-10
1.82247e-10
2.08266e-10
2.36187e-10
2.63653e-10
2.94013e-10
3.21091e-10
3.39786e-10
3.53007e-10
3.62839e-10
3.70627e-10
3.77444e-10
3.84514e-10
3.9313e-10
4.03891e-10
4.16319e-10
4.2994e-10
4.46328e-10
4.67912e-10
4.92537e-10
5.10568e-10
5.48122e-10
5.98822e-10
6.69184e-10
7.58945e-10
8.67495e-10
1.00566e-09
1.18842e-09
1.43303e-09
1.76004e-09
2.2128e-09
2.85581e-09
3.76664e-09
5.0497e-09
6.85278e-09
9.37099e-09
1.28496e-08
1.75866e-08
2.39286e-08
3.22585e-08
4.29779e-08
5.64933e-08
7.32247e-08
9.36672e-08
1.18744e-07
1.48717e-07
1.80728e-07
2.13861e-07
2.47319e-07
2.79881e-07
3.09934e-07
3.35654e-07
3.5658e-07
3.80299e-07
3.98235e-07
4.06767e-07
4.04111e-07
3.89272e-07
3.62066e-07
3.23292e-07
2.75122e-07
2.21161e-07
1.66151e-07
1.15209e-07
7.26812e-08
4.10196e-08
2.0217e-08
8.30934e-09
2.3895e-09
2.93758e-10
6.68109e-11
4.2258e-13
1.78126e-12
2.22853e-11
1.03871e-10
2.60892e-10
4.82074e-10
7.5414e-10
1.06155e-09
1.38501e-09
1.69595e-09
1.97222e-09
2.20733e-09
2.39545e-09
2.53712e-09
2.64477e-09
2.70393e-09
2.70639e-09
2.66877e-09
2.60991e-09
2.54631e-09
2.49369e-09
2.46771e-09
2.4823e-09
2.55024e-09
2.68353e-09
2.89584e-09
3.20684e-09
3.63446e-09
4.18814e-09
4.88091e-09
5.83217e-09
7.09549e-09
8.73812e-09
1.08322e-08
1.34976e-08
1.68676e-08
2.11438e-08
2.65279e-08
3.32873e-08
4.17895e-08
5.24901e-08
6.59154e-08
8.26827e-08
1.03569e-07
1.29514e-07
1.61633e-07
2.01239e-07
2.49859e-07
3.09259e-07
3.81475e-07
4.6889e-07
5.74344e-07
7.01303e-07
8.53819e-07
1.03411e-06
1.24116e-06
1.47801e-06
1.74869e-06
2.05683e-06
2.40559e-06
2.79805e-06
3.23894e-06
3.6464e-06
4.00256e-06
4.27895e-06
4.44434e-06
4.46968e-06
4.33359e-06
4.02825e-06
3.56512e-06
2.97833e-06
2.32335e-06
1.66919e-06
1.08424e-06
6.19366e-07
2.95568e-07
1.04496e-07
2.03622e-08
1.26559e-09
1.07172e-10
2.16408e-12
5.80489e-12
7.32085e-11
4.37728e-10
1.38661e-09
2.96294e-09
5.00642e-09
7.3181e-09
9.71311e-09
1.20183e-08
1.40802e-08
1.57948e-08
1.7106e-08
1.80088e-08
1.85387e-08
1.86986e-08
1.85188e-08
1.80957e-08
1.75447e-08
1.69776e-08
1.6506e-08
1.62412e-08
1.62799e-08
1.66938e-08
1.7578e-08
1.90461e-08
2.12319e-08
2.42697e-08
2.82968e-08
3.35215e-08
4.03982e-08
4.9333e-08
6.08277e-08
7.52644e-08
9.33207e-08
1.15849e-07
1.4387e-07
1.78489e-07
2.21083e-07
2.73408e-07
3.37587e-07
4.16111e-07
5.11968e-07
6.28871e-07
7.71411e-07
9.45238e-07
1.1573e-06
1.41613e-06
1.7322e-06
2.11833e-06
2.59018e-06
3.16664e-06
3.86997e-06
4.72464e-06
5.75412e-06
6.98016e-06
8.42709e-06
1.01122e-05
1.20343e-05
1.41605e-05
1.64088e-05
1.85457e-05
2.03195e-05
2.16933e-05
2.25575e-05
2.28004e-05
2.23363e-05
2.11275e-05
1.9202e-05
1.66636e-05
1.36917e-05
1.05286e-05
7.45136e-06
4.73061e-06
2.58238e-06
1.12334e-06
3.37714e-07
5.42279e-08
2.92603e-09
1.10896e-10
6.05655e-12
1.36835e-11
1.66143e-10
1.0878e-09
3.97329e-09
9.78391e-09
1.84268e-08
2.89503e-08
4.01735e-08
5.10461e-08
6.07488e-08
6.87296e-08
7.47009e-08
7.86138e-08
8.05959e-08
8.08406e-08
7.96486e-08
7.7456e-08
7.47529e-08
7.20307e-08
6.97774e-08
6.8446e-08
6.83213e-08
6.97963e-08
7.3282e-08
7.9229e-08
8.81381e-08
1.00555e-07
1.17105e-07
1.38622e-07
1.66457e-07
2.01629e-07
2.45637e-07
3.0009e-07
3.66948e-07
4.48625e-07
5.47973e-07
6.68308e-07
8.13752e-07
9.89548e-07
1.20225e-06
1.45998e-06
1.77298e-06
2.15425e-06
2.62029e-06
3.1919e-06
3.8952e-06
4.76278e-06
5.83499e-06
7.1612e-06
8.80068e-06
1.08224e-05
1.3303e-05
1.63211e-05
1.99476e-05
2.42288e-05
2.91645e-05
3.46668e-05
4.05154e-05
4.63379e-05
5.16475e-05
5.5632e-05
5.83703e-05
5.97377e-05
5.95898e-05
5.78575e-05
5.45569e-05
4.98108e-05
4.38514e-05
3.70121e-05
2.97085e-05
2.24095e-05
1.56004e-05
9.73888e-06
5.19851e-06
2.18809e-06
6.32488e-07
9.89113e-08
5.2303e-09
6.58995e-11
1.24413e-11
2.66453e-11
3.19973e-10
2.16304e-09
8.42226e-09
2.26264e-08
4.663e-08
7.91176e-08
1.16335e-07
1.53872e-07
1.87977e-07
2.16094e-07
2.36899e-07
2.50112e-07
2.56218e-07
2.56187e-07
2.51344e-07
2.43268e-07
2.3363e-07
2.24078e-07
2.16181e-07
2.10821e-07
2.09259e-07
2.12687e-07
2.22274e-07
2.39228e-07
2.64798e-07
3.00422e-07
3.47753e-07
4.08218e-07
4.84242e-07
5.78429e-07
6.93696e-07
8.33368e-07
1.00145e-06
1.20293e-06
1.44396e-06
1.73229e-06
2.0779e-06
2.49376e-06
2.99654e-06
3.60759e-06
4.35427e-06
5.27161e-06
6.40428e-06
7.80877e-06
9.55595e-06
1.17336e-05
1.44484e-05
1.78267e-05
2.2012e-05
2.71563e-05
3.3402e-05
4.08494e-05
4.95073e-05
5.92384e-05
6.96994e-05
8.0309e-05
9.03065e-05
9.88569e-05
0.00010525
0.000108928
0.000110182
0.00010902
0.000105439
9.95359e-05
9.15142e-05
8.16976e-05
7.05258e-05
5.85387e-05
4.63487e-05
3.46023e-05
2.39336e-05
1.49141e-05
7.99269e-06
3.40214e-06
1.00251e-06
1.6058e-07
8.69326e-09
1.32599e-10
2.09202e-11
4.58518e-11
5.64706e-10
3.87303e-09
1.54983e-08
4.35182e-08
9.48901e-08
1.70836e-07
2.65052e-07
3.66112e-07
4.61802e-07
5.42522e-07
6.02681e-07
6.40546e-07
6.57337e-07
6.56206e-07
6.41423e-07
6.1777e-07
5.90075e-07
5.62913e-07
5.38995e-07
5.21705e-07
5.14164e-07
5.19103e-07
5.38983e-07
5.76277e-07
6.33016e-07
7.11249e-07
8.13374e-07
9.42101e-07
1.10081e-06
1.29346e-06
1.5247e-06
1.80023e-06
2.12731e-06
2.51542e-06
2.97695e-06
3.5281e-06
4.19011e-06
4.99067e-06
5.96569e-06
7.16145e-06
8.63748e-06
1.04699e-05
1.27556e-05
1.56157e-05
1.92002e-05
2.36896e-05
2.92939e-05
3.62431e-05
4.47668e-05
5.50532e-05
6.71875e-05
8.10695e-05
9.63337e-05
0.000112307
0.000128074
0.000142615
0.000154928
0.000164229
0.000170099
0.00017229
0.000171181
0.000166834
0.000159306
0.000148752
0.000135468
0.000119912
0.000102712
8.46447e-05
6.65907e-05
4.94618e-05
3.41196e-05
2.12943e-05
1.15098e-05
4.99201e-06
1.51569e-06
2.51487e-07
1.43432e-08
6.35032e-10
3.03242e-11
7.27961e-11
9.48037e-10
6.56219e-09
2.65871e-08
7.62725e-08
1.71567e-07
3.20814e-07
5.17903e-07
7.42057e-07
9.64753e-07
1.1592e-06
1.30713e-06
1.40089e-06
1.44202e-06
1.43829e-06
1.40087e-06
1.34212e-06
1.27409e-06
1.20508e-06
1.1433e-06
1.09662e-06
1.07139e-06
1.07278e-06
1.10449e-06
1.16953e-06
1.27043e-06
1.40952e-06
1.58939e-06
1.81321e-06
2.08515e-06
2.41066e-06
2.79689e-06
3.25342e-06
3.7931e-06
4.43318e-06
5.19651e-06
6.11321e-06
7.22271e-06
8.57638e-06
1.02408e-05
1.23018e-05
1.48697e-05
1.80845e-05
2.2122e-05
2.71985e-05
3.35723e-05
4.15393e-05
5.14158e-05
6.35025e-05
7.80234e-05
9.50386e-05
0.000114346
0.000135404
0.000157323
0.000178963
0.000199121
0.000216715
0.000230897
0.000241124
0.000246967
0.000248476
0.000245897
0.000239174
0.000228243
0.000213169
0.000194225
0.000171956
0.000147212
0.000121131
9.50546e-05
7.03874e-05
4.84301e-05
3.02212e-05
1.64212e-05
7.22721e-06
2.25402e-06
3.87725e-07
2.37244e-08
2.11009e-09
4.00118e-11
1.10964e-10
1.54722e-09
1.07828e-08
4.39559e-08
1.27439e-07
2.91393e-07
5.56943e-07
9.22241e-07
1.35599e-06
1.80437e-06
2.2085e-06
2.52245e-06
2.72303e-06
2.8097e-06
2.79837e-06
2.714e-06
2.58442e-06
2.43184e-06
2.27628e-06
2.13696e-06
2.02865e-06
1.96207e-06
1.94456e-06
1.98071e-06
2.07326e-06
2.22389e-06
2.43401e-06
2.7055e-06
3.0415e-06
3.44712e-06
3.9301e-06
4.50165e-06
5.17741e-06
5.97872e-06
6.93422e-06
8.08183e-06
9.47134e-06
1.11678e-05
1.32558e-05
1.58447e-05
1.90753e-05
2.31264e-05
2.82224e-05
3.46389e-05
4.27037e-05
5.27888e-05
6.52874e-05
8.05665e-05
9.88922e-05
0.00012033
0.000144639
0.000171209
0.000199069
0.000227004
0.000253746
0.000278157
0.000299318
0.000316544
0.000329314
0.00033669
0.000339333
0.000337172
0.000329867
0.000317039
0.000298434
0.000274076
0.000244425
0.000210494
0.000173884
0.000136667
0.000101133
6.9434e-05
4.32427e-05
2.35237e-05
1.04422e-05
3.32398e-06
5.91034e-07
3.91713e-08
5.4973e-09
5.26259e-11
1.68313e-10
2.48834e-09
1.74227e-08
7.12417e-08
2.07631e-07
4.78688e-07
9.25674e-07
1.55508e-06
2.32222e-06
3.13539e-06
3.88305e-06
4.4701e-06
4.84348e-06
4.99714e-06
4.96157e-06
4.78631e-06
4.51928e-06
4.20683e-06
3.89345e-06
3.61338e-06
3.391e-06
3.24219e-06
3.17602e-06
3.19651e-06
3.30445e-06
3.49901e-06
3.77926e-06
4.1456e-06
4.60093e-06
5.15176e-06
5.80922e-06
6.59013e-06
7.51826e-06
8.62595e-06
9.95644e-06
1.15668e-05
1.35316e-05
1.59484e-05
1.89434e-05
2.2679e-05
2.73622e-05
3.32523e-05
4.06677e-05
4.99863e-05
6.16375e-05
7.60742e-05
9.3722e-05
0.000114899
0.000139711
0.000167951
0.000199032
0.000232011
0.000265698
0.000298843
0.000330296
0.000359106
0.000384507
0.000405843
0.000422473
0.000433445
0.000439517
0.000440456
0.000435574
0.000423983
0.000404783
0.000377319
0.000341486
0.00029807
0.000248976
0.000197212
0.000146507
0.000100611
6.2528e-05
3.39561e-05
1.51196e-05
4.87857e-06
8.92273e-07
6.40878e-08
1.2219e-08
5.73141e-11
2.48947e-10
3.97236e-09
2.79111e-08