/*--------------------------------*- C++ -*----------------------------------*\
| =========                 |                                                 |
| \\      /  F ield         | OpenFOAM: The Open Source CFD Toolbox           |
|  \\    /   O peration     | Version:  v2012                                 |
|   \\  /    A nd           | Website:  www.openfoam.com                      |
|    \\/     M anipulation  |                                                 |
\*---------------------------------------------------------------------------*/
FoamFile
{
    version     2.0;
    format      ascii;
    class       volScalarField;
    location    "2000";
    object      omega;
}
// * * * * * * * * * * * * * * * * * * * * * * * * * * * * * * * * * * * * * //

dimensions      [0 0 -1 0 0 0 0];


internalField   nonuniform List<scalar> 
6502
(
1083.93
139.142
54.4543
45.6785
44.6227
44.6219
45.6745
54.4379
139.078
1083.93
1081.2
204.185
67.7974
45.5978
42.0924
42.0875
45.5743
67.7144
203.992
1081.2
1079.76
234.617
79.5498
46.737
40.3791
40.3643
46.6727
79.3606
234.27
1079.77
1078.87
247.447
88.2839
48.2859
39.2726
39.2398
48.1565
87.9516
246.906
1078.88
1078.27
250.053
93.7478
49.7288
38.5648
38.5044
49.509
93.2413
249.295
1078.28
1077.87
245.958
96.2018
50.7209
38.0718
37.9741
50.3901
95.4964
244.951
1077.89
1077.62
238.659
96.2488
51.155
37.6622
37.516
50.6867
95.3162
237.312
1077.63
1077.45
230.642
94.7934
51.124
37.2696
37.0617
50.4832
93.5584
228.791
1077.47
1077.34
223.62
92.6817
50.7515
36.8633
36.5792
49.902
91.0577
221.102
1077.37
1077.26
217.737
90.3752
50.1592
36.4328
36.0559
49.0526
88.2763
214.548
1077.3
1077.21
213.093
88.1708
49.4507
35.98
35.4901
48.0285
85.4473
208.927
1077.25
1077.17
209.824
86.2872
48.7042
35.5192
34.8872
46.8875
82.7155
204.265
1077.23
1077.13
207.675
84.8025
48.0091
35.0701
34.2715
45.6486
80.1175
200.325
1077.21
1077.11
206.517
83.8117
47.4353
34.6503
33.6646
44.3296
77.6319
196.938
1077.2
1077.08
206.178
83.3455
47.03
34.2804
33.0759
43.0741
75.306
194.927
1077.2
1077.05
206.473
83.2995
46.8265
33.981
32.5167
41.9065
73.3553
193.293
1077.21
1077.02
207.309
83.6982
46.868
33.7738
31.9982
40.8102
71.6161
191.721
1077.22
1077
208.565
84.5402
47.1863
33.6953
31.5338
39.764
69.9311
189.941
1077.25
1076.96
210.148
85.8169
47.8186
33.7796
31.1401
38.7473
68.1501
187.634
1077.3
1076.93
211.918
87.4827
48.7769
34.0645
30.835
37.7386
66.0738
183.684
1077.34
1076.9
213.61
89.4543
50.0748
34.5737
30.6381
36.6598
62.3554
150.508
423.617
1076.87
214.955
91.581
51.6791
35.3327
30.5792
35.5329
57.7918
121.226
228.043
1076.84
215.84
93.7019
53.5284
36.3469
30.6804
34.416
53.0637
98.9093
149.122
1076.81
216.177
95.6541
55.538
37.5955
30.962
33.3755
48.5119
81.655
108.818
1076.79
215.935
97.3003
57.6177
39.0599
31.4448
32.4743
44.2564
68.445
85.5317
1076.77
215.149
98.5317
59.6709
40.708
32.1398
31.7725
40.5063
58.3624
70.5892
1076.75
213.858
99.2533
61.5908
42.4917
33.0521
31.3171
37.4205
50.6004
60.129
1076.74
212.103
99.3781
63.2596
44.347
34.2081
31.1546
34.9723
44.5867
52.3111
1076.73
209.933
98.8322
64.5502
46.1786
35.5559
31.3077
33.1336
39.9222
46.2109
1076.72
207.423
97.57
65.3357
47.8772
37.0404
31.7771
31.8687
36.3446
41.3321
1076.72
204.646
95.5866
65.4963
49.3165
38.5856
32.5351
31.1397
33.6651
37.4119
1076.72
201.957
92.97
64.9366
50.3571
40.0889
33.5273
30.8986
31.7778
34.311
1076.72
199.348
89.8118
63.5884
50.8535
41.4218
34.6704
31.0847
30.5809
31.9494
1076.72
196.551
86.1891
61.4197
50.6641
42.4318
35.8474
31.6102
29.9791
30.2578
1076.72
193.579
82.2293
58.4622
49.6717
42.9522
36.9119
32.3604
29.8719
29.1848
1076.72
190.646
78.1656
54.8539
47.8177
42.8205
37.6944
33.1918
30.1431
28.6525
1076.72
189.304
74.7763
50.9406
45.1499
41.9061
38.0151
33.9338
30.6502
28.5662
1076.72
188.432
71.9324
46.9641
41.7882
40.1296
37.7015
34.3961
31.2246
28.8031
1076.72
186.641
69.0223
43.024
37.9169
37.4943
36.6126
34.383
31.672
29.2088
1076.72
186.057
66.811
39.4759
33.8476
34.1307
34.6708
33.7159
31.7812
29.5937
1076.72
185.9
65.4384
36.5533
29.9161
30.2825
31.8851
32.2633
31.3446
29.7408
1076.72
185.773
64.3239
34.178
26.3584
26.2483
28.3152
29.9477
30.1816
29.4211
1076.72
185.507
63.7407
32.4837
23.3337
22.3399
24.1543
26.6718
28.148
28.4161
1076.72
185.433
63.4745
31.4211
21.1103
18.9652
20.179
22.7968
25.3087
26.6243
1076.72
185.396
63.2696
30.8479
19.6403
16.2534
16.6823
18.966
21.7303
24.0101
1076.72
185.378
63.1539
30.5309
18.7126
14.448
13.887
15.4994
18.079
20.7141
1076.72
185.465
63.1567
30.3535
18.1533
13.2752
11.8628
12.6183
14.6766
17.2392
1076.72
185.537
63.157
30.2233
17.7955
12.5181
10.503
10.3764
11.7761
13.9441
1076.72
185.533
63.0808
30.0602
17.5441
12.0459
9.69347
9.06049
9.6074
11.1734
1076.72
185.44
62.905
29.8315
17.3178
11.7914
9.29862
8.37693
8.38748
9.20804
1076.72
185.141
62.598
29.5323
17.108
11.7136
9.2974
8.29667
8.06134
8.32349
1076.72
184.214
62.1668
29.2231
16.999
11.8565
9.65791
8.76262
8.46441
8.48271
1076.72
184.706
61.9314
29.0347
17.1092
12.3371
10.4535
9.76633
9.54147
9.48137
1076.72
184.5
61.7021
29.0664
17.6058
13.3257
11.8405
11.4222
11.3529
11.3329
1076.72
184.364
61.7155
29.5866
18.8135
15.1588
14.139
14.0421
14.1861
14.3002
1076.72
184.437
62.302
31.1982
21.4989
18.6469
18.1543
18.418
18.8398
19.1821
1076.72
184.974
64.5799
35.856
27.983
26.1786
26.249
26.8784
27.6213
28.293
1076.72
187.986
74.6462
51.8685
47.068
46.5093
47.0566
47.9399
48.9388
49.9473
1076.72
219.238
135.891
125.51
124.42
124.741
125.365
126.137
127.047
128.065
1076.72
705.603
705.603
705.603
705.603
705.603
705.603
705.603
705.604
705.604
677.333
677.288
677.282
677.277
677.273
677.271
677.27
677.269
677.269
677.269
677.269
677.269
677.268
677.268
677.268
677.268
677.268
677.268
677.268
677.268
677.268
677.268
677.268
677.268
935.153
206.206
130.576
113.387
109.537
108.854
109.083
109.672
110.918
114.179
114.854
115.148
115.354
115.526
115.689
115.861
116.044
116.234
116.453
116.725
117.263
118.05
120.589
134.695
233.402
1193.04
116.467
64.583
44.3814
38.1976
36.1341
35.6536
35.813
36.2966
36.982
37.3875
37.6651
37.887
38.0865
38.2865
38.5054
38.7566
39.0554
39.4384
40.0053
41.0877
43.6415
51.1314
78.3726
201.067
1193.04
85.5833
49.1645
28.8249
20.9941
17.8512
16.709
16.4288
16.5199
16.7527
16.9854
17.1959
17.3906
17.5826
17.7878
18.0251
18.3188
18.7091
19.2812
20.2416
22.1398
26.4855
37.5855
70.8747
201.761
1193.04
70.6835
44.7046
25.0616
15.9442
12.1185
10.4897
9.90182
9.78568
9.87385
10.0391
10.2317
10.4365
10.654
10.8933
11.1724
11.524
12.0109
12.7635
14.0673
16.5862
21.9673
34.7715
70.3708
205.457
1193.04
61.7567
43.1084
25.4316
15.2703
10.5165
8.45716
7.65252
7.43866
7.49775
7.68196
7.92632
8.20391
8.50622
8.83581
9.20694
9.65317
10.246
11.1358
12.6409
15.4625
21.2598
34.5097
70.4533
205.776
1193.04
55.4882
42.2276
27.4368
16.3283
10.7164
8.11181
7.08267
6.82257
6.90495
7.1572
7.49788
7.89109
8.322
8.78799
9.29816
9.88057
10.601
11.6055
13.2093
16.1099
21.9545
35.1877
70.9926
205.899
1193.04
50.5135
41.4238
29.4854
18.5877
11.8728
8.61245
7.26517
6.92963
7.04185
7.37287
7.82038
8.34015
8.91397
9.53792
10.2185
10.9775
11.8669
13.0151
14.7123
17.6243
23.371
36.3885
71.8813
206.401
1193.04
46.2575
40.4146
31.1477
21.4027
13.6056
9.60088
7.83525
7.32137
7.4506
7.84479
8.38332
9.01467
9.7184
10.4978
11.3674
12.3333
13.4413
14.8041
16.6751
19.6652
25.3333
38.0799
73.1306
207.069
1193.04
42.4656
39.0932
32.2719
23.9445
16.1412
11.0153
8.64733
7.87293
7.94504
8.34964
8.94022
9.65511
10.4687
11.3905
12.4237
13.5961
14.9608
16.6172
18.7869
22.0145
27.7603
40.329
74.9469
208.378
1193.04
39.0462
37.4602
32.7928
26.0811
18.9067
12.9392
9.67978
8.45248
8.35436
8.728
9.34132
10.1023
10.9921
12.0049
13.1713
14.5309
16.1586
18.1565
20.738
24.3947
30.4662
43.0687
77.2311
209.563
1193.04
35.9915
35.5878
32.6999
27.6564
21.447
15.4864
11.0793
9.12327
8.63638
8.90367
9.50503
10.2938
11.2128
12.2685
13.5055
14.9916
16.8455
19.1744
22.2179
26.456
33.1312
46.1274
80.0975
211.238
1193.04
33.3394
33.5928
32.0567
28.5821
23.5838
18.054
13.2303
10.1444
9.01343
8.98263
9.45963
10.1944
11.0971
12.1534
13.404
14.9565
16.9306
19.5141
22.979
27.8503
35.3382
49.1334
83.4384
213.856
1193.04
31.1399
31.6207
30.991
28.8417
25.1522
20.4326
15.657
11.8947
9.7161
9.08917
9.29175
9.86203
10.6558
11.6491
12.8522
14.3758
16.3907
19.1283
22.8965
28.3315
36.6946
51.5825
86.7417
216.814
1193.04
29.4385
29.8159
29.6741
28.5144
26.0514
22.3801
18.0852
14.077
11.145
9.5939
9.22481
9.46604
10.032
10.8468
11.9523
13.3745
15.3185
18.0523
21.9885
27.8262
36.9664
53.0524
89.4935
219.744
1193.04
28.2484
28.3038
28.2964
27.7549
26.2871
23.7126
20.2279
16.439
13.1125
10.7968
9.59947
9.28276
9.47957
10.0073
10.8735
12.141
13.9224
16.5286
20.4307
26.4368
36.1261
53.3146
91.2629
222.296
1193.04
27.5546
27.1729
27.0382
26.7676
25.9772
24.3591
21.8292
18.647
15.3725
12.6061
10.6976
9.65896
9.32151
9.41865
9.92175
10.9048
12.4257
14.7693
18.4521
24.378
34.3173
52.3774
91.846
224.195
1193.05
27.2984
26.4592
26.0369
25.761
25.3185
24.3912
22.7503
20.385
17.5668
14.768
12.4308
10.7791
9.81425
9.43096
9.45409
9.92792
11.1007
13.0496
16.33
21.9223
31.8068
50.4409
91.3002
225.115
1193.05
27.3888
26.1472
25.3776
24.9116
24.5353
23.9899
23.0184
21.4587
19.3396
16.9026
14.5196
12.5112
11.0405
10.1273
9.72866
9.74335
10.2967
11.6704
14.3776
19.358
28.873
47.7995
89.9747
225.168
1193.06
27.6893
26.174
25.0795
24.3405
23.8365
23.394
22.8026
21.8622
20.4589
18.6298
16.5651
14.5453
12.8105
11.4996
10.6679
10.3074
10.3907
11.1287
12.9447
16.9903
25.7072
44.6925
88.5603
225.916
1193.07
28.0209
26.4228
25.0999
24.0912
23.365
22.8316
22.3524
21.7624
20.9078
19.7037
18.1803
16.4778
14.7879
13.3118
12.1885
11.5057
11.223
11.439
12.5685
15.4194
22.5483
41.1973
87.568
229.014
1193.09
28.1647
26.7248
25.3378
24.1483
23.1848
22.4663
21.9118
21.4199
20.8632
20.1227
19.1345
17.9186
16.5768
15.2511
14.0681
13.182
12.6173
12.4779
12.983
14.9465
20.4289
36.9685
86.7626
236.867
1193.13
27.8744
26.8537
25.6244
24.3969
23.2944
22.3708
21.6521
21.0838
20.5925
20.0815
19.4632
18.6905
17.7763
16.7941
15.8359
14.9691
14.2844
13.9083
14.0212
15.1445
19.0348
31.8275
81.6028
243.033
1193.19
26.9478
26.5692
25.7337
24.6716
23.5685
22.5393
21.6534
20.9321
20.3525
19.8641
19.3979
18.8936
18.3181
17.6825
17.0323
16.3902
15.7966
15.3665
15.259
15.7756
17.9335
25.2396
51.5876
119.909
278.659
25.2399
25.6531
25.424
24.753
23.8402
22.8481
21.8867
21.033
20.3161
19.7207
19.2297
18.801
18.394
17.9886
17.593
17.2107
16.8281
16.4998
16.3324
16.4916
17.3254
19.9749
27.4681
45.3486
75.923
22.74
23.9665
24.4739
24.3888
23.8762
23.1064
22.2213
21.3255
20.5049
19.7801
19.1742
18.6771
18.2713
17.9354
17.6594
17.4381
17.2449
17.0728
16.9697
17.0195
17.356
18.2279
20.2547
24.6854
31.8479
19.6172
21.5182
22.7577
23.3623
23.4219
23.0681
22.4428
21.665
20.8461
20.057
19.3388
18.7305
18.217
17.8112
17.5085
17.3037
17.1786
17.1033
17.0756
17.1264
17.3106
17.7125
18.4647
19.7144
21.4074
16.2985
18.5011
20.3134
21.5732
22.2772
22.484
22.2949
21.8185
21.165
20.4327
19.6892
18.9943
18.3724
17.8552
17.4268
17.1151
16.9178
16.818
16.7901
16.8299
16.9512
17.1804
17.5564
18.1154
18.8433
13.1881
15.3379
17.3798
19.1094
20.3879
21.1911
21.5478
21.5257
21.2104
20.6966
20.0664
19.3932
18.7284
18.1156
17.5735
17.1321
16.7813
16.5384
16.3989
16.3469
16.3756
16.485
16.6818
16.9723
17.3492
10.6766
12.4728
14.4061
16.2749
17.9191
19.2109
20.1022
20.5989
20.742
20.5964
20.2351
19.7312
19.1479
18.539
17.9456
17.3916
16.9199
16.5336
16.2302
16.0036
15.8699
15.8184
15.8455
15.9474
16.1143
9.10205
10.3352
11.8724
13.5566
15.2336
16.7767
18.0733
19.0367
19.6561
19.9553
19.9785
19.7811
19.4207
18.9519
18.4255
17.8768
17.343
16.8409
16.3994
16.033
15.7412
15.5083
15.3334
15.2342
15.1978
8.75385
9.29099
10.2293
11.4599
12.866
14.3316
15.7623
17.0685
18.0838
18.8008
19.235
19.4153
19.3806
19.1738
18.8401
18.4197
17.9484
17.4564
16.9684
16.5063
16.0678
15.687
15.3651
15.0997
14.879
9.49841
9.61352
9.90879
10.4655
11.3446
12.459
13.7118
15.0355
16.2849
17.3165
18.1082
18.659
18.983
19.1045
19.0539
18.8648
18.5694
18.1985
17.7775
17.3308
16.8738
16.4246
15.9965
15.5871
15.2154
11.2679
11.1599
11.048
11.0092
11.1945
11.7416
12.563
13.5719
14.6618
15.7233
16.6818
17.4896
18.121
18.568
18.8365
18.9426
18.9076
18.7556
18.51
18.1938
17.8281
17.4284
17.0107
16.587
16.17
14.2767
14.1089
13.8077
13.414
13.0082
12.6958
12.7767
13.2123
13.8839
14.6873
15.5346
16.3575
17.1039
17.7381
18.2405
18.6048
18.8341
18.9377
18.9293
18.8242
18.6397
18.3915
18.0943
17.7624
17.4091
19.3345
19.2637
18.9537
18.3999
17.6408
16.7686
15.8888
15.2716
15.1401
15.3646
15.8023
16.3512
16.9372
17.5098
18.0342
18.4871
18.855
19.1307
19.3123
19.4034
19.4121
19.3491
19.2248
19.05
18.8363
28.7788
29.0081
28.9304
28.4903
27.6515
26.4725
25.0732
23.4983
21.8873
20.9356
20.4988
20.3797
20.4402
20.6045
20.8196
21.0554
21.2947
21.5169
21.7035
21.8461
21.9432
21.9975
22.0124
21.9919
21.9423
50.8626
51.5958
52.0808
52.1933
51.7615
50.7203
49.2324
47.3538
44.9873
42.2819
40.2802
39.0743
38.1317
37.4547
36.9185
36.4865
36.2076
36.0343
35.92
35.8489
35.8191
35.8324
35.8849
35.9688
36.0818
129.128
130.181
131.221
132.163
132.664
132.37
131.526
130.304
128.437
126.188
123.988
121.322
118.617
117.244
116.039
114.953
114.065
113.417
112.861
112.414
112.102
111.962
111.982
112.114
112.356
705.604
705.605
705.606
705.608
705.61
705.613
705.615
705.618
705.621
705.624
705.626
705.627
705.628
705.627
705.625
705.623
705.619
705.615
705.612
705.61
705.61
705.613
705.619
705.626
705.634
705.69
705.655
705.637
108.459
111.481
104.346
38.4259
40.4286
38.5124
23.1342
24.3424
24.6151
19.5817
20.2534
20.7155
17.7425
18.1491
18.5242
16.3097
16.5353
16.7755
15.2116
15.2639
15.3469
14.7149
14.5809
14.4845
14.9272
14.6742
14.4466
15.8125
15.4724
15.1426
17.0834
16.7551
16.4258
18.6209
18.3894
18.1449
21.8798
21.8044
21.7196
36.2108
36.3611
36.5357
112.673
113.057
113.508
705.644
705.654
705.665
912.285
677.268
677.268
677.268
677.268
677.268
677.268
677.268
677.268
677.268
677.268
677.268
677.268
677.268
677.268
677.268
677.268
677.268
677.268
677.268
677.268
677.268
677.268
677.268
677.268
677.268
677.268
677.268
677.268
677.268
677.268
677.268
677.268
677.268
677.268
677.268
677.268
677.268
677.268
677.268
677.268
677.268
677.268
677.269
677.269
677.269
677.269
677.269
677.269
677.27
677.27
677.271
677.272
677.273
677.274
677.276
677.277
677.278
677.28
677.281
677.282
677.282
677.282
677.282
677.281
677.28
677.278
677.276
677.274
677.272
677.271
677.27
677.269
677.269
677.269
677.268
677.268
677.268
677.268
912.285
1147.3
226.916
132.866
119.556
117.313
116.842
116.689
116.546
116.297
116.297
116.543
116.65
116.657
116.432
114.594
112.913
112.375
112.209
112.153
112.133
112.128
112.127
112.129
112.134
112.146
112.166
112.228
112.44
113.392
116.369
116.851
116.939
116.952
117.006
117.157
117.298
117.391
117.564
117.83
118.127
118.417
118.732
119.121
119.559
120.036
120.544
121.071
121.601
122.114
122.589
122.993
123.272
123.276
122.423
120.699
119.629
118.878
118.163
117.422
116.745
116.402
116.659
115.839
115.092
114.373
113.703
113.117
112.647
112.328
112.189
112.255
112.539
113.038
113.739
114.645
115.947
118.957
132.992
227.161
1147.3
1147.3
200.354
77.2578
50.2544
43.0146
40.8289
40.0972
39.826
39.6794
39.6094
39.6177
39.6308
39.6198
39.5325
39.2281
38.9276
38.7869
38.7368
38.7246
38.728
38.738
38.7494
38.7607
38.7723
38.7922
38.8344
38.8926
39.0034
39.2762
39.7962
40.0516
40.1886
40.3032
40.4513
40.6536
40.8836
41.1361
41.4523
41.8389
42.2786
42.7602
43.2867
43.8631
44.4759
45.1075
45.7365
46.3376
46.8826
47.3403
47.6775
47.8575
47.8385
47.5708
47.0088
46.2171
45.3502
44.3825
43.2944
42.1059
40.8642
39.633
38.4755
37.655
36.9385
36.3054
35.7707
35.3546
35.0766
34.956
35.0109
35.2601
35.7263
36.447
37.5098
39.1732
42.3205
50.3133
77.5233
200.339
1147.3
1147.3
198.344
69.4497
36.79
25.9564
21.8635
20.1827
19.4481
19.1051
18.9369
18.8592
18.8228
18.7984
18.7616
18.6906
18.6197
18.5804
18.568
18.5716
18.5844
18.6022
18.6212
18.6406
18.6698
18.7122
18.7686
18.8387
18.9368
19.0882
19.2955
19.4827
19.6572
19.8461
20.0701
20.3406
20.6571
21.0215
21.4443
21.9264
22.4594
23.0328
23.6356
24.2535
24.865
25.4444
25.9635
26.3933
26.7057
26.8748
26.8785
26.6996
26.3282
25.7642
25.0229
24.1419
23.1635
22.1137
21.0271
19.9515
18.9438
18.068
17.428
16.9928
16.675
16.4641
16.3634
16.3784
16.5144
16.7768
17.1735
17.7189
18.4459
19.4314
20.8632
23.2229
27.8411
38.8113
70.9992
198.937
1147.3
1147.3
198.146
68.1388
33.692
21.1629
15.8214
13.3303
12.0986
11.4634
11.1257
10.9438
10.8451
10.7895
10.7535
10.7242
10.7033
10.6951
10.699
10.7122
10.7321
10.7566
10.7842
10.8213
10.8687
10.9279
11.0005
11.089
11.2
11.342
11.5163
11.7123
11.9296
12.1787
12.4697
12.8092
13.1991
13.6397
14.13
14.6633
15.2272
15.8049
16.3764
16.9188
17.4061
17.8121
18.1117
18.2832
18.3098
18.1806
17.8918
17.4478
16.8614
16.1543
15.3566
14.5063
13.6425
12.8031
12.0279
11.3578
10.8292
10.4685
10.3025
10.2554
10.3092
10.4626
10.7181
11.0801
11.5542
12.1469
12.8682
13.736
14.7885
16.1147
17.9301
20.7758
26.084
38.0331
71.3126
199.715
1147.3
1147.3
198.114
67.8633
32.8722
19.6533
13.6603
10.6473
9.03336
8.13257
7.61602
7.3152
7.13898
7.03598
6.97627
6.94276
6.92719
6.92564
6.93532
6.95388
6.97955
7.01084
7.05286
7.10533
7.16919
7.24611
7.33848
7.44952
7.58429
7.74823
7.94299
8.16969
8.43113
8.73249
9.07844
9.47116
9.90934
10.3882
10.8992
11.4288
11.9591
12.4689
12.9347
13.3329
13.6406
13.8379
13.9098
13.8467
13.6462
13.3129
12.8588
12.3031
11.6715
10.9946
10.3063
9.64101
9.03097
8.50321
8.07796
7.77278
7.59685
7.55206
7.62595
7.78752
8.03546
8.37424
8.81185
9.35898
10.0287
10.8369
11.8033
12.9553
14.3385
16.043
18.2758
21.5535
27.2618
39.4983
72.8163
200.816
1147.3
1147.3
198.087
67.7669
32.597
19.103
12.7985
9.49116
7.6288
6.53245
5.86906
5.46163
5.21044
5.05688
4.96546
4.91448
4.89088
4.88673
4.89704
4.91854
4.94906
4.9916
5.04607
5.11277
5.19286
5.28847
5.40285
5.53887
5.70049
5.89209
6.11704
6.37812
6.67797
7.0188
7.40118
7.82277
8.27761
8.75573
9.24317
9.7222
10.1723
10.5718
10.8992
11.1356
11.2656
11.2789
11.1715
10.9457
10.6108
10.1822
9.68116
9.13326
8.5669
8.01113
7.49333
7.03696
6.65993
6.373
6.18043
6.08283
6.07737
6.15895
6.31993
6.55226
6.86126
7.25751
7.75513
8.37209
9.13043
10.057
11.185
12.5566
14.232
16.3107
18.9942
22.7638
28.9209
41.4205
74.6434
202.036
1147.3
1147.3
198.033
67.6855
32.4481
18.8384
12.3861
8.92212
6.91257
5.68905
4.92221
4.43451
4.12355
3.92738
3.80718
3.73818
3.70446
3.69581
3.70561
3.7297
3.7681
3.82058
3.88679
3.96755
4.06383
4.17797
4.31295
4.47203
4.65886
4.87702
5.12954
5.41857
5.74512
6.10848
6.5055
6.92977
7.37127
7.81633
8.2482
8.64794
8.99591
9.27336
9.46417
9.55625
9.54261
9.42212
9.19969
8.88613
8.49765
8.05483
7.58127
7.10184
6.64062
6.21885
5.85325
5.555
5.32946
5.17696
5.09469
5.07871
5.12511
5.23302
5.40057
5.62966
5.92967
6.31463
6.80303
7.41859
8.19126
9.15875
10.3686
11.8818
13.7803
16.1864
19.3158
23.6368
30.3796
43.3357
76.6362
203.469
1147.3
1147.3
197.94
67.5761
32.3106
18.6477
12.1231
8.57747
6.48607
5.18745
4.35638
3.81678
3.46601
3.24081
3.10068
3.0191
2.97851
2.96743
2.97828
3.00776
3.05423
3.1162
3.19344
3.28673
3.39755
3.52816
3.68132
3.86007
4.06747
4.30623
4.57827
4.8842
5.22288
5.59086
5.98186
6.38643
6.79196
7.18312
7.54283
7.85352
8.09866
8.26429
8.34036
8.32159
8.20808
8.00538
7.72422
7.37983
6.99097
6.57852
6.16384
5.76689
5.40457
5.08934
4.8287
4.62536
4.4782
4.3838
4.33819
4.33824
4.38263
4.47669
4.61831
4.81337
5.07274
5.41171
5.85086
6.41744
7.14736
8.0878
9.3005
10.8667
12.8957
15.5433
19.0602
23.935
31.3658
44.9994
78.6595
205.111
1147.3
1147.3
197.796
67.4325
32.1548
18.4635
11.901
8.3138
6.18039
4.84274
3.978
3.41129
3.04004
2.80045
2.65113
2.5646
2.52248
2.51254
2.52778
2.56397
2.61808
2.68872
2.77575
2.87999
3.003
3.14691
3.31415
3.50726
3.7285
3.97953
4.26085
4.57139
4.90796
5.26485
5.6336
6.003
6.35948
6.68787
6.9725
7.19865
7.35383
7.42904
7.41962
7.32569
7.1522
6.90874
6.6088
6.26881
5.90692
5.54151
5.18956
4.86519
4.57858
4.3356
4.13804
3.98459
3.8721
3.79703
3.75659
3.74966
3.77731
3.84547
3.95321
4.10628
4.31476
4.59312
4.96153
5.44795
6.09117
6.94486
8.08291
9.60655
11.6552
14.4263
18.2226
23.5847
31.7286
46.2077
80.524
206.841
1147.3
1147.3
197.793
67.3407
32.0099
18.2861
11.697
8.08468
5.92948
4.57433
3.69675
3.12161
2.74574
2.50458
2.35602
2.27204
2.23376
2.22957
2.25163
2.29477
2.35608
2.43432
2.52942
2.64224
2.77425
2.9273
3.10343
3.30451
3.53194
3.78623
4.06661
4.37057
4.69337
5.02771
5.36388
5.69019
5.99341
6.2597
6.47581
6.63024
6.71445
6.72363
6.6572
6.51887
6.31622
6.06041
5.76587
5.44812
5.12306
4.80552
4.508
4.23968
4.00601
3.80895
3.64769
3.51973
3.42206
3.35214
3.30864
3.29191
3.30412
3.34967
3.42791
3.54328
3.70391
3.92188
4.2147
4.60789
5.13887
5.86268
6.85997
8.24795
10.1956
12.9475
16.8729
22.5932
31.3933
46.8045
82.0468
208.551
1147.3
1147.3
197.769
67.2402
31.8542
18.0944
11.4819
7.85542
5.69356
4.33789
3.46444
2.89654
2.52962
2.29797
2.15878
2.08397
2.05505
2.05937
2.08894
2.13888
2.20652
2.29079
2.39172
2.51014
2.64734
2.80488
2.98429
3.18677
3.41284
3.66201
3.9324
4.22086
4.52212
4.82762
5.12676
5.40846
5.6608
5.87188
6.03103
6.12985
6.163
6.12875
6.02918
5.87001
5.65951
5.40823
5.13181
4.84311
4.55533
4.27998
4.02593
3.79894
3.60171
3.43435
3.29528
3.18214
3.09268
3.02544
2.98012
2.95779
2.96097
2.99168
3.04932
3.13689
3.26021
3.42827
3.6546
3.95984
4.37596
4.95306
5.76993
6.94981
8.68317
11.2607
15.1295
21.0209
30.3429
46.6865
83.0758
210.166
1147.31
1147.3
197.79
67.1205
31.6688
17.8724
11.2417
7.61093
5.45551
4.11376
3.25877
2.71119
2.36439
2.15147
2.02904
1.96844
1.95097
1.96452
2.00149
2.05742
2.12995
2.2182
2.32231
2.44301
2.58146
2.73885
2.91623
3.11419
3.33249
3.56971
3.82348
4.0909
4.36641
4.64075
4.90285
5.14285
5.35058
5.51628
5.63169
5.69089
5.6908
5.63154
5.51656
5.35336
5.14746
4.91197
4.65901
4.40028
4.14641
3.90627
3.6862
3.48994
3.31878
3.17225
3.04882
2.94665
2.86427
2.80096
2.757
2.73372
2.73408
2.75747
2.80347
2.87396
2.97272
3.10574
3.28241
3.5176
3.83554
4.27654
4.90864
5.84716
7.28621
9.54689
13.1536
18.9732
28.5989
45.7819
83.4797
211.622
1147.31
1147.3
197.584
66.9177
31.4312
17.6087
10.9684
7.34435
5.20865
3.89543
3.07274
2.55714
2.23934
2.05106
1.94856
1.90358
1.89801
1.92041
1.96383
2.0243
2.09982
2.18973
2.29423
2.41401
2.55001
2.70316
2.87413
3.06304
3.26922
3.49092
3.72526
3.9689
4.21637
4.45885
4.6861
4.88958
5.06069
5.19156
5.27588
5.30948
5.29067
5.22045
5.10284
4.94621
4.75434
4.53924
4.31159
4.08135
3.85724
3.64625
3.45317
3.28062
3.1294
2.99903
2.8883
2.79593
2.72099
2.66323
2.62325
2.60256
2.60395
2.62548
2.66689
2.72923
2.81471
2.92698
3.07186
3.25899
3.50484
3.83831
4.31146
5.01969
6.13853
7.98703
11.1402
16.6064
26.2183
44.0273
83.1013
212.748
1147.31
1147.3
197.421
66.6834
31.1511
17.3065
10.6672
7.06359
4.96201
3.68974
2.90903
2.43221
2.14762
1.98617
1.90436
1.87475
1.88018
1.91014
1.95841
2.02158
2.09803
2.1873
2.28963
2.40566
2.53617
2.68187
2.84316
3.01989
3.21118
3.41517
3.62895
3.84843
4.0679
4.27996
4.47644
4.64968
4.79244
4.89837
4.96252
4.98186
4.95553
4.88505
4.77419
4.62943
4.45644
4.26426
4.06205
3.85831
3.6604
3.47406
3.30316
3.14983
3.01482
2.89809
2.79875
2.71587
2.6489
2.59786
2.56362
2.54802
2.55251
2.57574
2.61742
2.67805
2.75871
2.86131
2.98908
3.1477
3.34735
3.60681
3.96181
4.48277
5.31108
6.72438
9.2911
14.1214
23.3192
41.3768
81.7122
213.241
1147.32
1147.3
197.24
66.4139
30.8323
16.9717
10.345
6.7754
4.72076
3.49986
2.76829
2.33428
2.08449
1.9498
1.88767
1.87192
1.88661
1.9223
1.97357
2.03758
2.11305
2.19968
2.29776
2.40786
2.53062
2.66661
2.81606
2.97867
3.15342
3.33844
3.53079
3.72643
3.92004
4.10586
4.27667
4.42611
4.54808
4.63732
4.68981
4.70316
4.67692
4.61265
4.51378
4.38549
4.23347
4.065
3.88758
3.70866
3.53457
3.37011
3.21858
3.08163
2.96009
2.85601
2.76787
2.69487
2.63668
2.59355
2.56652
2.55768
2.56727
2.5948
2.64018
2.70348
2.78498
2.88535
3.00609
3.15029
3.32392
3.53836
3.816
4.20391
4.80879
5.83722
7.78539
11.7666
20.1121
37.8712
79.1494
212.897
1147.33
1147.3
197.028
66.1012
30.4719
16.606
10.0068
6.48644
4.49128
3.3303
2.65244
2.2627
2.04713
1.93761
1.89317
1.88923
1.91125
1.95083
2.00338
2.06662
2.13959
2.22216
2.31458
2.41728
2.53079
2.65564
2.79199
2.93943
3.09691
3.26265
3.43397
3.60726
3.77803
3.9412
4.09111
4.22228
4.32949
4.40823
4.45508
4.46802
4.44667
4.39238
4.30801
4.19777
4.06711
3.92175
3.76661
3.61049
3.45933
3.31629
3.184
3.0642
2.95797
2.86621
2.78871
2.72521
2.67571
2.64074
2.62162
2.6206
2.6373
2.67186
2.72425
2.79405
2.88076
2.98408
3.10441
3.24348
3.40506
3.59645
3.83192
4.14141
4.59093
5.33056
6.73368
9.79807
16.8851
33.6561
75.3879
211.77
1147.34
1147.3
196.77
65.7332
30.0645
16.2106
9.65849
6.20445
4.28072
3.1862
2.56428
2.21833
2.03524
1.94882
1.92014
1.9264
1.95435
1.9964
2.04884
2.11012
2.17966
2.25746
2.34385
2.43852
2.54177
2.65448
2.77698
2.90872
3.04854
3.19503
3.34603
3.49853
3.64879
3.79255
3.92519
4.04203
4.13855
4.21081
4.25576
4.27148
4.25746
4.21458
4.14484
4.05061
3.93995
3.81708
3.68676
3.55492
3.42628
3.30403
3.19053
3.08744
2.99593
2.91681
2.85046
2.79715
2.75736
2.73213
2.72372
2.7332
2.76066
2.80607
2.86876
2.94822
3.04341
3.15312
3.27653
3.4144
3.57003
3.74858
3.95938
4.22225
4.58225
5.14779
6.19529
8.46658
14.0274
28.98
70.1852
209.12
1147.35
1147.3
196.437
65.2855
29.5972
15.784
9.30589
5.93794
4.09728
3.07417
2.50888
2.20539
2.05302
1.98833
1.97473
1.99086
2.02497
2.07092
2.12516
2.18589
2.25234
2.32456
2.40283
2.48748
2.57913
2.67845
2.78705
2.90348
3.02507
3.15188
3.28275
3.41537
3.54619
3.67192
3.78886
3.89308
3.98068
4.04816
4.09264
4.11205
4.10521
4.0725
4.01685
3.94129
3.85095
3.75009
3.64296
3.534
3.42705
3.32502
3.23009
3.14387
3.06767
3.0026
2.94949
2.9091
2.88226
2.86996
2.87456
2.89849
2.94178
3.00324
3.08119
3.17411
3.28029
3.39785
3.5255
3.66377
3.81564
3.98593
4.18073
4.41324
4.71435
5.16187
5.96356
7.70671
12.145
24.6967
62.9933
202.699
1147.35
1147.3
195.969
64.7053
29.0412
15.3185
8.95411
5.69739
3.95243
3.00506
2.49653
2.2344
2.11204
2.06946
2.07207
2.10061
2.14438
2.1976
2.25685
2.32028
2.38702
2.45673
2.52958
2.60604
2.68684
2.77258
2.86388
2.9602
3.06094
3.16633
3.27618
3.38989
3.50035
3.60665
3.70647
3.79677
3.87428
3.93595
3.97888
4.00029
3.9991
3.97656
3.9349
3.87688
3.80623
3.7266
3.64165
3.55493
3.46962
3.38831
3.31286
3.24401
3.18366
3.13475
3.09849
3.07595
3.06851
3.07809
3.10756
3.15452
3.21826
3.29736
3.39011
3.49471
3.60934
3.73233
3.86238
3.99969
4.14723
4.31066
4.49363
4.70449
4.96388
5.32612
5.94399
7.27604
10.7937
21.4687
56.6328
192.364
1147.36
1147.3
195.212
63.8631
28.3275
14.7929
8.60828
5.49907
3.86583
2.99919
2.54787
2.32671
2.23487
2.21567
2.23662
2.27994
2.33624
2.40047
2.46922
2.54054
2.61324
2.6867
2.76072
2.83544
2.91118
2.98822
3.06677
3.14694
3.22889
3.3128
3.39853
3.4853
3.57077
3.65362
3.73213
3.80419
3.8673
3.9195
3.95593
3.9756
3.97782
3.96319
3.9334
3.89087
3.83851
3.77929
3.71621
3.65218
3.58987
3.53162
3.47934
3.43447
3.39856
3.37351
3.36095
3.36259
3.38071
3.41902
3.47336
3.54208
3.62361
3.71637
3.81876
3.92926
4.04645
4.16906
4.29636
4.4292
4.57145
4.72816
4.90121
5.09519
5.32332
5.62189
6.09822
7.09487
9.79511
18.6346
50.9821
186.098
1147.36
1147.3
193.518
62.3204
27.2589
14.1502
8.27526
5.37395
3.87566
3.09609
2.70223
2.52158
2.45964
2.46275
2.50164
2.56112
2.63237
2.7104
2.7922
2.87575
2.9597
3.04308
3.12526
3.20589
3.28478
3.36182
3.43693
3.5101
3.58135
3.65081
3.7185
3.78421
3.84736
3.90728
3.96314
4.01438
4.05823
4.09302
4.1172
4.12991
4.13081
4.12031
4.09952
4.07012
4.03421
3.99408
3.95209
3.91058
3.87174
3.83756
3.8098
3.79002
3.77966
3.78025
3.79345
3.8215
3.8677
3.92946
4.00189
4.08378
4.17395
4.27126
4.37461
4.48301
4.5955
4.71136
4.83057
4.95524
5.09131
5.24171
5.40509
5.58393
5.7864
6.03574
6.40171
7.11793
9.05808
15.8563
43.9691
176.246
1147.34
1147.31
185.643
57.9442
25.1718
13.2464
7.97459
5.38848
4.05819
3.37178
3.03321
2.88715
2.84704
2.8657
2.91861
2.99163
3.07646
3.16816
3.26365
3.36091
3.4584
3.55494
3.64959
3.74158
3.83031
3.91528
3.99603
4.07213
4.14313
4.20895
4.26959
4.32511
4.37572
4.42097
4.45998
4.49302
4.51951
4.53892
4.55084
4.55509
4.55184
4.54162
4.52537
4.50438
4.48018
4.45452
4.42917
4.40592
4.38644
4.37232
4.36505
4.366
4.37654
4.39835
4.43312
4.48486
4.54842
4.61859
4.69487
4.77671
4.86353
4.95473
5.0497
5.14787
5.24872
5.35213
5.45933
5.57479
5.70566
5.84803
5.999
6.16076
6.33961
6.55033
6.83234
7.31464
8.51695
12.885
33.6803
153.877
1147.36
240.574
87.7759
39.0038
20.2312
11.8962
7.81333
5.69143
4.56108
3.96115
3.66084
3.52776
3.49042
3.51052
3.56573
3.64274
3.73331
3.83211
3.93569
4.04197
4.14929
4.25631
4.36186
4.4649
4.56446
4.65969
4.75001
4.83456
4.91176
4.98158
5.04383
5.09842
5.14539
5.18476
5.21659
5.24117
5.25874
5.26955
5.27392
5.27233
5.26542
5.25399
5.23906
5.22179
5.20353
5.18569
5.16972
5.15697
5.14874
5.14629
5.15108
5.16458
5.18797
5.2248
5.2745
5.32956
5.38842
5.45119
5.51779
5.58801
5.66159
5.73822
5.81766
5.89961
5.98401
6.07188
6.16772
6.27851
6.40067
6.5277
6.66002
6.79995
6.952
7.12461
7.33676
7.63934
8.20537
9.74979
15.6162
43.0185
193.289
71.0322
42.3449
25.5733
16.3296
11.1897
8.28145
6.60278
5.62805
5.07657
4.76659
4.60555
4.53784
4.53085
4.56442
4.62522
4.70446
4.79378
4.89048
4.99236
5.09758
5.20456
5.31195
5.41837
5.52242
5.62271
5.71804
5.80733
5.88964
5.96412
6.03006
6.08704
6.13492
6.1738
6.204
6.22605
6.24042
6.24766
6.24843
6.24354
6.23387
6.22046
6.2044
6.18689
6.16924
6.15298
6.13943
6.12967
6.12468
6.12557
6.13495
6.15533
6.1844
6.21759
6.25309
6.29155
6.33316
6.37795
6.42582
6.47661
6.53011
6.58618
6.64554
6.70818
6.77578
6.85267
6.94124
7.03641
7.13475
7.23533
7.33921
7.44774
7.56343
7.69096
7.83881
8.02393
8.28839
8.76518
9.94805
13.7668
27.1308
32.5764
25.8615
19.8554
15.2762
12.0591
9.90484
8.51796
7.60178
7.00014
6.60798
6.35833
6.20807
6.1288
6.09919
6.10379
6.13365
6.18178
6.24433
6.31783
6.39961
6.48757
6.58017
6.67548
6.77124
6.86524
6.9556
7.04095
7.12074
7.19321
7.25689
7.31108
7.35552
7.39033
7.41616
7.43401
7.44402
7.44664
7.44261
7.43277
7.41814
7.3998
7.37887