/*--------------------------------*- C++ -*----------------------------------*\
| =========                 |                                                 |
| \\      /  F ield         | OpenFOAM: The Open Source CFD Toolbox           |
|  \\    /   O peration     | Version:  v2012                                 |
|   \\  /    A nd           | Website:  www.openfoam.com                      |
|    \\/     M anipulation  |                                                 |
\*---------------------------------------------------------------------------*/
FoamFile
{
    version     2.0;
    format      ascii;
    class       volScalarField;
    location    "2000";
    object      p;
}
// * * * * * * * * * * * * * * * * * * * * * * * * * * * * * * * * * * * * * //

dimensions      [0 2 -2 0 0 0 0];


internalField   nonuniform List<scalar> 
6502
(
1.31032
1.21532
1.16688
1.14585
1.13665
1.1365
1.14538
1.16614
1.21436
1.30915
1.19242
1.16059
1.14756
1.13501
1.12754
1.12737
1.1345
1.14672
1.15949
1.19116
1.12067
1.11316
1.11086
1.10613
1.10254
1.10233
1.10552
1.10987
1.11181
1.11911
1.07939
1.07746
1.0757
1.07339
1.07157
1.07131
1.07262
1.07448
1.07579
1.07742
1.04024
1.041
1.04205
1.0418
1.04078
1.04044
1.0408
1.04044
1.03884
1.03772
1.00064
1.00382
1.00803
1.01027
1.01019
1.00974
1.00896
1.00594
1.00096
0.997358
0.966529
0.971201
0.977494
0.980189
0.980389
0.979776
0.978371
0.974548
0.967345
0.962233
0.93964
0.944437
0.951433
0.953069
0.952959
0.952142
0.950653
0.947555
0.939333
0.934063
0.917384
0.921557
0.927113
0.92822
0.927992
0.926939
0.925131
0.922207
0.914842
0.910065
0.897954
0.901193
0.904765
0.905436
0.905016
0.90364
0.901377
0.898183
0.89231
0.888313
0.880567
0.882873
0.884974
0.884909
0.883894
0.882029
0.879351
0.875991
0.871188
0.868016
0.864769
0.866344
0.867523
0.866989
0.864816
0.862162
0.859123
0.85548
0.851103
0.848562
0.85038
0.851344
0.851554
0.850498
0.847267
0.843789
0.840386
0.835997
0.831589
0.829427
0.837216
0.837668
0.836846
0.834662
0.830587
0.826266
0.82217
0.816753
0.812131
0.810146
0.825271
0.825392
0.823627
0.820063
0.814804
0.809255
0.803861
0.79731
0.792281
0.790327
0.814651
0.814588
0.811939
0.806911
0.800119
0.792862
0.7856
0.77758
0.771672
0.769486
0.805469
0.805266
0.80181
0.795346
0.786965
0.777447
0.767737
0.757436
0.749806
0.747047
0.797904
0.797657
0.793453
0.785364
0.775181
0.763126
0.750414
0.736746
0.726108
0.722101
0.79213
0.791893
0.787149
0.777444
0.764997
0.750166
0.734154
0.71596
0.700184
0.69367
0.788337
0.788177
0.783157
0.772136
0.757619
0.740344
0.7205
0.696862
0.672238
0.658722
0.786714
0.786627
0.78164
0.769781
0.753566
0.73427
0.711693
0.685025
0.654655
0.633474
0.78735
0.787394
0.782739
0.770582
0.753416
0.733029
0.710586
0.686616
0.663303
0.650894
0.790139
0.790499
0.78642
0.774521
0.757339
0.73703
0.715204
0.693392
0.67356
0.661781
0.794895
0.795672
0.792283
0.780911
0.763867
0.743456
0.72099
0.698713
0.677667
0.663524
0.801349
0.802512
0.799811
0.789021
0.771919
0.750992
0.727344
0.704274
0.681928
0.666109
0.809156
0.810635
0.808622
0.798556
0.781496
0.760082
0.735982
0.712098
0.688681
0.67114
0.817948
0.819672
0.818368
0.809261
0.79253
0.770655
0.746445
0.72161
0.696778
0.677094
0.827357
0.829251
0.828659
0.82075
0.804852
0.78302
0.757985
0.732107
0.705785
0.683806
0.837033
0.83902
0.839099
0.832575
0.817969
0.796757
0.77082
0.743116
0.716112
0.691886
0.846661
0.848667
0.849323
0.844249
0.831192
0.810815
0.784884
0.755863
0.72822
0.701458
0.855956
0.857948
0.859044
0.855406
0.844229
0.825195
0.800023
0.770959
0.74209
0.712678
0.864641
0.866676
0.868051
0.865747
0.856729
0.839642
0.815625
0.786726
0.75613
0.725774
0.872658
0.874666
0.876164
0.87502
0.868252
0.85362
0.831326
0.803209
0.771585
0.740942
0.880082
0.881838
0.88333
0.883121
0.878499
0.866687
0.84689
0.820501
0.789525
0.757646
0.886879
0.88823
0.889605
0.890072
0.887317
0.878423
0.861726
0.837737
0.808082
0.775354
0.892878
0.893902
0.895092
0.895958
0.894654
0.888487
0.875224
0.854344
0.826941
0.794888
0.89781
0.898755
0.899861
0.900863
0.900542
0.896717
0.886943
0.869816
0.845634
0.815779
0.902004
0.902758
0.903769
0.904751
0.90507
0.90311
0.896559
0.883467
0.863203
0.836486
0.905776
0.906142
0.906944
0.907854
0.908529
0.907877
0.903996
0.89479
0.878882
0.856136
0.908863
0.909077
0.909684
0.910468
0.911252
0.91137
0.909455
0.903618
0.892115
0.874023
0.911291
0.911519
0.912022
0.912671
0.913411
0.913899
0.913271
0.910051
0.902505
0.889205
0.913426
0.913559
0.91392
0.914453
0.915098
0.915721
0.915831
0.914414
0.910016
0.901085
0.91528
0.915285
0.915475
0.915918
0.91648
0.917104
0.917548
0.917207
0.915031
0.909666
0.916677
0.916658
0.916804
0.917176
0.917641
0.918188
0.918711
0.918887
0.918062
0.91524
0.917804
0.917805
0.917916
0.918197
0.918576
0.91903
0.919514
0.919872
0.919741
0.918487
0.918764
0.918775
0.918833
0.919013
0.91932
0.919686
0.920086
0.920453
0.920602
0.920178
0.919554
0.919555
0.919583
0.919707
0.919931
0.920188
0.920476
0.920762
0.920962
0.920893
0.92025
0.920239
0.920247
0.920308
0.920426
0.920566
0.920724
0.920889
0.921024
0.921041
0.920907
0.920883
0.920865
0.920846
0.920846
0.920871
0.920889
0.920912
0.920926
0.920895
0.921549
0.921506
0.92145
0.921368
0.921272
0.921169
0.921045
0.920914
0.920782
0.920638
0.922192
0.922122
0.922028
0.921909
0.921737
0.921522
0.921268
0.920985
0.920696
0.92041
0.922829
0.92273
0.922605
0.922453
0.922238
0.921961
0.921619
0.921209
0.920771
0.920333
0.923429
0.923305
0.92316
0.922997
0.922771
0.922467
0.922094
0.921628
0.921084
0.920515
0.923949
0.923807
0.923654
0.923504
0.923302
0.92302
0.922651
0.922198
0.921653
0.921045
0.924337
0.924187
0.92404
0.923916
0.923762
0.923545
0.923244
0.922847
0.922381
0.92185
0.924557
0.924412
0.924278
0.924184
0.924082
0.923942
0.923746
0.923477
0.923135
0.922737
0.924604
0.924477
0.924361
0.924288
0.924223
0.924146
0.924044
0.923909
0.923737
0.923533
0.924519
0.924416
0.924316
0.924248
0.924191
0.924137
0.924083
0.924031
0.923985
0.923958
0.924371
0.924283
0.924184
0.924095
0.92401
0.92393
0.923861
0.923809
0.923788
0.92382
0.924224
0.924143
0.924031
0.923917
0.9238
0.923681
0.923571
0.923478
0.923412
0.923399
0.623724
0.639691
0.649313
0.65364
0.656006
0.657417
0.658375
0.659022
0.659426
0.659657
0.659761
0.659769
0.659713
0.659621
0.659485
0.659278
0.659067
0.658864
0.658652
0.658471
0.658331
0.658234
0.658174
0.658157
0.658172
0.648195
0.650522
0.652423
0.654323
0.656078
0.657406
0.658283
0.658865
0.659241
0.659468
0.659582
0.65961
0.659567
0.659466
0.659328
0.659159
0.658968
0.658784
0.658613
0.658456
0.658326
0.658231
0.658174
0.658163
0.658181
0.657455
0.655803
0.65534
0.655971
0.656872
0.657734
0.6584
0.65885
0.659152
0.659341
0.65944
0.659463
0.659423
0.659332
0.659203
0.659045
0.658869
0.658693
0.658528
0.658381
0.65826
0.65817
0.658114
0.658104
0.658122
0.658612
0.65759
0.657198
0.657386
0.657826
0.658304
0.658735
0.659039
0.659227
0.65934
0.659391
0.659387
0.659334
0.659238
0.659106
0.658947
0.65877
0.658591
0.65842
0.658267
0.65814
0.658042
0.657977
0.657958
0.657974
0.660317
0.659067
0.658638
0.658601
0.6588
0.659035
0.659227
0.65935
0.659401
0.659405
0.659383
0.659332
0.659252
0.659142
0.659004
0.658841
0.658661
0.658474
0.658291
0.658123
0.657978
0.65786
0.657778
0.657741
0.657738
0.663322
0.660808
0.660023
0.659789
0.65981
0.659867
0.659866
0.659795
0.659663
0.659523
0.659401
0.659279
0.659152
0.659018
0.658873
0.658711
0.658532
0.658341
0.658146
0.657957
0.657784
0.657635
0.657522
0.657445
0.657419
0.66672
0.662648
0.661357
0.660965
0.660843
0.660742
0.660553
0.660282
0.659976
0.659672
0.659399
0.659164
0.658968
0.658801
0.658652
0.658504
0.658344
0.658167
0.657972
0.657765
0.657559
0.657367
0.657202
0.657074
0.657005
0.670663
0.664739
0.662654
0.662036
0.661768
0.661531
0.661187
0.66073
0.660214
0.659702
0.65924
0.658856
0.658561
0.658351
0.658207
0.658101
0.658003
0.657883
0.657724
0.657521
0.657288
0.657045
0.656817
0.65662
0.656463
0.675678
0.667378
0.664001
0.662898
0.662448
0.662067
0.661566
0.660915
0.660169
0.65941
0.65871
0.658124
0.657689
0.657419
0.657295
0.657278
0.657313
0.657338
0.657297
0.657161
0.656934
0.656646
0.656341
0.656048
0.65579
0.682026
0.670834
0.66554
0.663528
0.662744
0.662165
0.661483
0.660615
0.659602
0.658537
0.657527
0.656663
0.656016
0.655646
0.655552
0.655672
0.655942
0.656254
0.656485
0.65655
0.65642
0.656129
0.65575
0.655336
0.654935
0.69
0.67545
0.667527
0.664022
0.662569
0.661677
0.660747
0.659622
0.658295
0.656857
0.655446
0.654198
0.653229
0.652677
0.652586
0.652873
0.653468
0.654245
0.65497
0.655459
0.65561
0.655429
0.655017
0.654476
0.653944
0.700068
0.681702
0.670417
0.664674
0.662034
0.660572
0.659285
0.657828
0.656131
0.65426
0.652366
0.650635
0.649249
0.648357
0.648119
0.648592
0.649576
0.650914
0.652367
0.653565
0.654282
0.654424
0.654078
0.653412
0.652754
0.712224
0.689987
0.674823
0.666029
0.661493
0.659025
0.657188
0.655304
0.653183
0.650839
0.648414
0.646129
0.644229
0.642926
0.64239
0.642801
0.64405
0.645972
0.648322
0.650521
0.652162
0.652954
0.65287
0.652133
0.651324
0.726764
0.70094
0.681529
0.668888
0.661601
0.657492
0.65475
0.65231
0.649724
0.64691
0.643965
0.64112
0.638657
0.63685
0.635933
0.636158
0.637572
0.639816
0.642802
0.646194
0.649079
0.650893
0.651365
0.650688
0.649757
0.74388
0.714935
0.691247
0.674211
0.663302
0.65674
0.652553
0.649297
0.646195
0.642955
0.639598
0.636309
0.633382
0.63113
0.629808
0.629635
0.630773
0.633245
0.636831
0.641055
0.645169
0.648269
0.649614
0.649187
0.648207
0.762827
0.732023
0.704572
0.682966
0.667733
0.657823
0.651452
0.646933
0.643129
0.639478
0.635831
0.632288
0.629085
0.626526
0.624902
0.624394
0.625212
0.627469
0.631122
0.635835
0.640902
0.64536
0.647836
0.647861
0.646924
0.783649
0.752529
0.721793
0.695873
0.676035
0.661986
0.652542
0.646084
0.641199
0.636999
0.633089
0.62942
0.62614
0.62349
0.62172
0.621013
0.621538
0.623488
0.626916
0.631687
0.637299
0.642719
0.64641
0.647056
0.646213
0.805819
0.774273
0.742603
0.713447
0.689147
0.670484
0.657111
0.64784
0.641228
0.636113
0.631803
0.628019
0.62475
0.622142
0.6204
0.619715
0.620136
0.621847
0.624991
0.629579
0.635289
0.641112
0.645786
0.647191
0.646484
0.828392
0.797608
0.766458
0.735544
0.707545
0.68435
0.666491
0.653495
0.64427
0.637582
0.632471
0.628381
0.625093
0.622595
0.620985
0.620409
0.62098
0.622735
0.6258
0.630235
0.635893
0.641996
0.646973
0.649058
0.648362
0.850424
0.822771
0.792364
0.761182
0.730907
0.704057
0.681781
0.664434
0.651663
0.642499
0.63588
0.631015
0.627441
0.624956
0.623519
0.623177
0.624021
0.626071
0.629407
0.634018
0.639755
0.646063
0.651389
0.653511
0.652653
0.870269
0.846614
0.818735
0.788615
0.758573
0.729346
0.703133
0.681534
0.664748
0.652242
0.643205
0.636815
0.632425
0.629629
0.628222
0.628135
0.629381
0.632
0.635944
0.641154
0.647236
0.653502
0.658804
0.659635
0.658174
0.886956
0.867842
0.843828
0.81509
0.787924
0.760765
0.730739
0.705026
0.684438
0.668212
0.655918
0.647085
0.641103
0.637424
0.635679
0.635677
0.637343
0.640685
0.645669
0.652112
0.65942
0.666274
0.67045
0.667157
0.658232
0.900078
0.885956
0.867206
0.844076
0.816804
0.789826
0.762417
0.734581
0.710778
0.691147
0.675347
0.663337
0.654889
0.649537
0.646829
0.646467
0.648292
0.652264
0.658429
0.666669
0.676541
0.686612
0.693066
0.685889
0.663207
0.909369
0.899833
0.886083
0.868217
0.845921
0.820365
0.794035
0.767579
0.742901
0.720702
0.701586
0.686251
0.674841
0.667077
0.662598
0.661145
0.662508
0.666566
0.673363
0.68295
0.69519
0.709571
0.723787
0.732417
0.742991
0.915251
0.909366
0.900076
0.886992
0.870028
0.849293
0.825783
0.800489
0.77753
0.756432
0.734541
0.715677
0.701316
0.690899
0.683997
0.680578
0.68054
0.683686
0.689923
0.699247
0.711556
0.726482
0.743175
0.760362
0.778423
0.918591
0.915301
0.909627
0.900931
0.888897
0.873521
0.855236
0.834884
0.811682
0.790806
0.7715
0.750827
0.734063
0.721055
0.711563
0.705685
0.703417
0.704619
0.709131
0.716837
0.727568
0.740959
0.756339
0.772651
0.788464
0.920209
0.918553
0.91543
0.910244
0.902508
0.891982
0.878669
0.863119
0.845046
0.825644
0.80536
0.78735
0.772093
0.757293
0.745299
0.736723
0.731694
0.730161
0.732029
0.737045
0.744901
0.7552
0.767291
0.780226
0.792699
0.920768
0.92
0.918435
0.915644
0.91118
0.904677
0.895887
0.884892
0.871846
0.857034
0.841173
0.824917
0.808138
0.794076
0.782923
0.773191
0.765751
0.761128
0.759697
0.76123
0.765486
0.772031
0.780204
0.789228
0.7982
0.920746
0.920381
0.919643
0.918282
0.915993
0.912461
0.907395
0.900622
0.892134
0.882054
0.870807
0.858465
0.845764
0.83288
0.819912
0.809677
0.802056
0.796435
0.792899
0.790951
0.791289
0.793762
0.797808
0.802881
0.808298
0.920465
0.920228
0.919864
0.919257
0.918246
0.916635
0.914202
0.910738
0.906091
0.900188
0.893128
0.885005
0.876243
0.866955
0.857628
0.84905
0.839763
0.831962
0.827052
0.823684
0.822188
0.821684
0.821887
0.823062
0.824838
0.920142
0.919894
0.919652
0.919389
0.919047
0.918539
0.917743
0.916513
0.914697
0.912153
0.908802
0.904609
0.899648
0.894049
0.887934
0.882007
0.876034
0.870191
0.86455
0.85883
0.854326
0.85145
0.849932
0.849354
0.848691
0.919939
0.919612
0.919367
0.919224
0.919195
0.919269
0.919407
0.919542
0.919584
0.919416
0.918917
0.91797
0.916481
0.914418
0.911735
0.908617
0.905067
0.901247
0.897631
0.894023
0.890327
0.886038
0.88136
0.87758
0.874688
0.919996
0.919564
0.919255
0.919123
0.919218
0.919583
0.920233
0.921158
0.922323
0.923672
0.925118
0.92653
0.927765
0.928682
0.929144
0.929068
0.928381
0.927071
0.925274
0.922813
0.920026
0.917142
0.913779
0.910104
0.906062
0.920424
0.919896
0.919512
0.919344
0.919469
0.919962
0.920882
0.922262
0.924103
0.926382
0.929045
0.932006
0.935128
0.938232
0.941131
0.943648
0.945616
0.946877
0.947335
0.946895
0.945632
0.943656
0.940789
0.937202
0.933276
0.921255
0.920693
0.920269
0.920058
0.920178
0.920731
0.921784
0.923391
0.9256
0.928424
0.93183
0.935743
0.940029
0.944534
0.94908
0.953457
0.95744
0.960798
0.963334
0.964904
0.965418
0.964852
0.963198
0.960541
0.957022
0.922312
0.921868
0.921526
0.92136
0.921488
0.922054
0.923174
0.924923
0.927333
0.93043
0.934233
0.938693
0.943668
0.949005
0.954535
0.960067
0.965367
0.970169
0.974215
0.97731
0.979319
0.980154
0.979771
0.978167
0.975389
0.92331
0.923102
0.922999
0.923052
0.923318
0.92398
0.925202
0.927063
0.929572
0.932789
0.936798
0.941556
0.946895
0.952673
0.958734
0.964902
0.970968
0.976658
0.981647
0.985709
0.988709
0.990534
0.991082
0.990302
0.988227
0.923969
0.924041
0.924216
0.924575
0.925167
0.926096
0.927543
0.929512
0.932
0.935269
0.939454
0.94442
0.949971
0.955948
0.962212
0.968652
0.975122
0.981309
0.986793
0.991348
0.994873
0.997272
0.998385
0.998101
0.996477
0.923931
0.924154
0.92454
0.925134
0.925999
0.927232
0.928892
0.93106
0.933956
0.937657
0.942037
0.947069
0.9527
0.958761
0.965098
0.971619
0.978139
0.984381
0.990042
0.994819
0.99858
1.00129
1.0027
1.00262
1.00119
0.923476
0.92368
0.924061
0.92468
0.925652
0.927114
0.929098
0.931622
0.934818
0.93867
0.942993
0.947912
0.953658
0.960199
0.967266
0.974296
0.980779
0.986634
0.992004
0.996774
1.00059
1.00309
1.00425
1.00421
1.00292
0.779249
0.792173
0.798992
0.794356
0.802803
0.808623
0.800322
0.807926
0.813309
0.802602
0.809548
0.814498
0.805658
0.811189
0.815334
0.812985
0.816618
0.81947
0.826528
0.827941
0.82909
0.847638
0.846581
0.845615
0.872259
0.870284
0.868443
0.901507
0.896749
0.892669
0.929205
0.924863
0.920373
0.953038
0.948677
0.943817
0.971847
0.967804
0.963116
0.98521
0.981545
0.977123
0.993823
0.990429
0.986218
0.998702
0.995432
0.991314
1.00051
0.997273
0.993183
0.824557
0.824564
0.82457
0.824575
0.824576
0.824573
0.824566
0.824557
0.824535
0.824499
0.824469
0.82444
0.824404
0.824363
0.824319
0.824273
0.824224
0.824173
0.82412
0.824065
0.824009
0.823951
0.82389
0.823826
0.823758
0.823685
0.823609
0.823532
0.823446
0.823345
0.823231
0.823116
0.822996
0.822855
0.82268
0.82249
0.822294
0.822069
0.821809
0.821531
0.821244
0.820937
0.820597
0.820232
0.819847
0.819451
0.81905
0.818658
0.818287
0.817955
0.817683
0.817487
0.817389
0.817428
0.817646
0.818065
0.818708
0.819591
0.820727
0.822121
0.823779
0.825687
0.827785
0.830003
0.83228
0.834551
0.836734
0.838733
0.840456
0.841834
0.84283
0.843439
0.843695
0.84367
0.843473
0.843175
0.842847
0.842555
0.842358
0.842297
0.824545
0.824553
0.82456
0.824563
0.824563
0.824558
0.824549
0.824535
0.824515
0.824489
0.82446
0.824428
0.824392
0.824352
0.824309
0.824264
0.824216
0.824167
0.824115
0.824062
0.824007
0.82395
0.823891
0.823829
0.82376
0.823688
0.823614
0.823538
0.823455
0.823362
0.823259
0.823147
0.823024
0.822891
0.822749
0.822593
0.822411
0.822208
0.821989
0.821748
0.821479
0.821183
0.820866
0.820528
0.82017
0.819797
0.819416
0.819036
0.81867
0.818333
0.818044
0.817827
0.817712
0.817725
0.817889
0.818236
0.818792
0.819581
0.820616
0.821906
0.823453
0.825244
0.827244
0.8294
0.831644
0.833901
0.836082
0.838095
0.839849
0.84127
0.842314
0.842976
0.843289
0.843318
0.843144
0.842875
0.842593
0.842358
0.842198
0.842138
0.824535
0.824544
0.824552
0.824555
0.824554
0.824548
0.824538
0.824522
0.824502
0.824478
0.824449
0.824417
0.824381
0.824343
0.824301
0.824257
0.824211
0.824163
0.824113
0.824061
0.824006
0.82395
0.823893
0.823833
0.823769
0.823703
0.823633
0.823557
0.823477
0.823395
0.823306
0.823204
0.823092
0.822971
0.82284
0.822695
0.82253
0.82235
0.822154
0.821936
0.821695
0.821428
0.821135
0.820815
0.82047
0.820101
0.819713
0.819311
0.818908
0.818516
0.818154
0.817844
0.817617
0.817504
0.817535
0.817742
0.818157
0.818808
0.819714
0.820884
0.822322
0.824018
0.825944
0.828053
0.830283
0.832563
0.834804
0.836912
0.838789
0.840352
0.841543
0.842341
0.842769
0.842886
0.84278
0.842556
0.842297
0.842062
0.841892
0.841791
0.824532
0.824543
0.824552
0.824555
0.824554
0.824547
0.824536
0.824519
0.824499
0.824474
0.824445
0.824412
0.824377
0.824338
0.824297
0.824253
0.824207
0.82416
0.824114
0.824065
0.824013
0.823958
0.823901
0.823843
0.823786
0.823726
0.823661
0.823591
0.823518
0.823441
0.823358
0.823267
0.823167
0.823059
0.822941
0.82281
0.822663
0.822498
0.822314
0.822107
0.821872
0.821605
0.821302
0.820958
0.820571
0.82014
0.819666
0.819156
0.818621
0.818076
0.817546
0.817057
0.81664
0.816334
0.816177
0.816204
0.816453
0.81697
0.817771
0.81883
0.820145
0.821738
0.8236
0.825685
0.827934
0.830282
0.832648
0.834936
0.837044
0.838875
0.84035
0.84142
0.842079
0.842371
0.842377
0.842201
0.841942
0.841677
0.841454
0.841272
0.824537
0.824549
0.824559
0.824563
0.82456
0.824552
0.82454
0.824522
0.824501
0.824475
0.824445
0.824412
0.824376
0.824338
0.824297
0.824253
0.824208
0.824163
0.824116
0.824068
0.82402
0.823968
0.823914
0.82386
0.823806
0.823749
0.823689
0.823627
0.823561
0.823492
0.823417
0.823337
0.82325
0.823154
0.823047
0.822928
0.822791
0.822634
0.82245
0.822235
0.821979
0.821675
0.821314
0.820888
0.820392
0.819822
0.819182
0.818481
0.817735
0.816968
0.816212
0.815503
0.814871
0.814353
0.813988
0.813809
0.813874
0.814253
0.814935
0.815832
0.817005
0.818492
0.820259
0.822294
0.824535
0.826934
0.829423
0.831916
0.834314
0.836508
0.838395
0.839889
0.840942
0.841554
0.841782
0.841723
0.841494
0.841198
0.840891
0.840606
0.824553
0.824566
0.824575
0.824577
0.824573
0.824564
0.82455
0.824531
0.824508
0.824481
0.82445
0.824416
0.82438
0.824341
0.8243
0.824259
0.824215
0.824169
0.824121
0.824073
0.824026
0.823977
0.823928
0.823878
0.823828
0.823776
0.823722
0.823666
0.823608
0.823547
0.823482
0.823412
0.823335
0.823248
0.823149
0.823034
0.822897
0.82273
0.822525
0.822272
0.821957
0.821568
0.821093
0.82052
0.819844
0.819066
0.818193
0.817242
0.816238
0.815214
0.814208
0.813264
0.812424
0.811716
0.811152
0.810815
0.810783
0.811013
0.811487
0.812251
0.813328
0.814648
0.816258
0.818196
0.820372
0.822763
0.82532
0.827975
0.830643
0.833217
0.835577
0.837604
0.839195
0.840287
0.840883
0.841051
0.840915
0.840609
0.840216
0.839824
0.824581
0.824592
0.8246
0.824601
0.824595
0.824583
0.824567
0.824546
0.824521
0.824492
0.824459
0.824424
0.824387
0.824348
0.824307
0.824264
0.824221
0.824176
0.824131
0.824085
0.824039
0.823993
0.823947
0.8239
0.823854
0.823807
0.823759
0.82371
0.82366
0.823607
0.82355
0.823488
0.823418
0.823336
0.823237
0.823116
0.822962
0.822764
0.82251
0.822182
0.821764
0.82124
0.820594
0.819819
0.818911
0.81788
0.816741
0.815522
0.814258
0.812989
0.811759
0.810613
0.809593
0.808729
0.808047
0.80759
0.807401
0.807472
0.807802
0.808421
0.809346
0.810559
0.812043
0.813812
0.815863
0.818174
0.820713
0.823436
0.826279
0.829156
0.831952
0.834529
0.836737
0.838443
0.839564
0.840102
0.840157
0.839885
0.839414
0.838941
0.82462
0.82463
0.824635
0.824632
0.824624
0.82461
0.824591
0.824567
0.824539
0.824508
0.824474
0.824438
0.824399
0.824359
0.824317
0.824275
0.824232
0.824188
0.824144
0.8241
0.824056
0.824012
0.823969
0.823927
0.823885
0.823843
0.823801
0.823759
0.823716
0.823671
0.823621
0.823565
0.823498
0.823414
0.823307
0.823166
0.822977
0.822725
0.82239
0.821953
0.821392
0.820691
0.819836
0.818825
0.817662
0.816367
0.814967
0.813498
0.812005
0.810532
0.809124
0.807823
0.806668
0.805689
0.804912
0.804364
0.804062
0.804015
0.804234
0.804729
0.805504
0.806564
0.807907
0.809532
0.811437
0.813619
0.816063
0.81875
0.821642
0.824683
0.827783
0.830815
0.833611
0.835979
0.837743
0.8388
0.839178
0.839017
0.838495
0.837949
0.824667
0.824677
0.824679
0.824674
0.824661
0.824644
0.824622
0.824595
0.824565
0.824531
0.824495
0.824457
0.824417
0.824376
0.824334
0.824291
0.824248
0.824205
0.824162
0.82412
0.824078
0.824038
0.823998
0.82396
0.823923
0.823887
0.823852
0.823817
0.823782
0.823743
0.8237
0.823647
0.823579
0.823487
0.823361
0.823187
0.822945
0.822616
0.822176
0.821601
0.82087
0.819968
0.818888
0.817635
0.816224
0.814685
0.813055
0.811378
0.809703
0.808075
0.806538
0.805132
0.803888
0.802832
0.801988
0.801372
0.800998
0.800874
0.801007
0.801405
0.802067
0.802997
0.8042
0.805677
0.807431
0.809462
0.811769
0.814347
0.817181
0.820243
0.823478
0.826793
0.830038
0.833003
0.835437
0.837121
0.837959
0.838016
0.83749
0.836872
0.824729
0.824736
0.824733
0.824723
0.824707
0.824687
0.824661
0.82463
0.824597
0.824561
0.824523
0.824483
0.824442
0.8244
0.824357
0.824314
0.824271
0.824229
0.824188
0.824148
0.824109
0.824072
0.824037
0.824004
0.823973
0.823944
0.823917
0.823891
0.823863
0.823833
0.823795
0.823744
0.823671
0.823566
0.823413
0.823194
0.822886
0.822464
0.821901
0.821173
0.820262
0.819157
0.817858
0.816378
0.814748
0.813002
0.811187
0.809351
0.807543
0.805809
0.804189
0.802716
0.801419
0.80032
0.799435
0.798777
0.798355
0.798176
0.798245
0.798565
0.799138
0.799967
0.801055
0.802407
0.804025
0.805915
0.808079
0.81052
0.813238
0.816223
0.819452
0.822871
0.826373
0.829773
0.832798
0.835134
0.836534
0.836924
0.83646
0.835795
0.824812
0.824811
0.8248
0.824784
0.824762
0.824736
0.824707
0.824674
0.824637
0.824599
0.824558
0.824516
0.824473
0.82443
0.824387
0.824344
0.824302
0.824262
0.824223
0.824186
0.824151
0.824119
0.82409
0.824064
0.824041
0.824022
0.824005
0.823989
0.823972
0.823951
0.823919
0.82387
0.823792
0.82367
0.823485
0.823214
0.822832
0.822309
0.821619
0.820737
0.819651
0.818355
0.816857
0.815179
0.813377
0.811469
0.809516
0.807566
0.805669
0.803867
0.802196
0.800687
0.799362
0.798239
0.797331
0.796647
0.796195
0.795978
0.796001
0.796264
0.79677
0.797522
0.798522
0.799776
0.801286
0.803059
0.805099
0.807413
0.810005
0.812876
0.816021
0.819417
0.823003
0.826646
0.830103
0.833023
0.835018
0.835836
0.835511
0.834838
0.824929
0.824904
0.824878
0.824852
0.824824
0.824793
0.824759
0.824722
0.824683
0.824642
0.824599
0.824555
0.824511
0.824467
0.824424
0.824382
0.824342
0.824304
0.824269
0.824236
0.824207
0.824183
0.824162
0.824146
0.824135
0.824129
0.824126
0.824124
0.824122
0.824113
0.824091
0.824045
0.823962
0.823823
0.823606
0.823283
0.822826
0.822204
0.821392
0.820368
0.819123
0.817663
0.81601
0.8142
0.812236
0.810201
0.808151
0.806125
0.804171
0.802328
0.800628
0.799099
0.797759
0.796624
0.795703
0.795004
0.794532
0.79429
0.79428
0.794504
0.794963
0.79566
0.796598
0.79778
0.799213
0.8009
0.802849
0.805065
0.807554
0.810321
0.813368
0.816686
0.820248
0.823974
0.827678
0.831041
0.833614
0.834924
0.834811
0.834157
0.825041
0.824997
0.824957
0.824922
0.824888
0.824852
0.824814
0.824774
0.824731
0.824687
0.824642
0.824597
0.824553
0.824509
0.824467
0.824428
0.824391
0.824357
0.824327
0.824302
0.824282
0.824268
0.82426
0.824258
0.824263
0.824274
0.824291
0.824309
0.824326
0.824336
0.824328
0.824291
0.824207
0.824055
0.823808
0.823438
0.822912
0.822203
0.821283
0.820139
0.818769
0.817191
0.815408
0.813471
0.811396
0.809281
0.807162
0.805086
0.803096
0.801228
0.799512
0.797971
0.796623
0.79548
0.79455
0.793841
0.793355
0.793095
0.793064
0.793262
0.793691
0.794353
0.795252
0.796392
0.797776
0.799411
0.801303
0.80346
0.805887
0.808589
0.811568
0.814821
0.818332
0.822054
0.825846
0.829464
0.832579
0.834424
0.834578
0.833964
0.825129
0.82508
0.825029
0.824986
0.824947
0.824906
0.824865
0.824822
0.824777
0.824731
0.824684
0.824639
0.824594
0.824552
0.824513
0.824478
0.824446
0.82442
0.824399
0.824385
0.824377
0.824378
0.824387
0.824406
0.824433
0.824469
0.824511
0.824557
0.824601
0.824636
0.82465
0.824627
0.824548
0.824389
0.824121
0.823712
0.823131
0.822348
0.821344
0.820103
0.818622
0.816926
0.815061
0.813032
0.810908
0.808741
0.80658
0.804472
0.802459
0.800574
0.798847
0.797298
0.795942
0.794791
0.793854
0.793135
0.792639
0.792368
0.792324
0.792506
0.79292
0.793567
0.794448
0.795569
0.796934
0.79855
0.800423
0.802562
0.804973
0.807663
0.810632
0.813876
0.817383
0.821118
0.824978
0.828789
0.832219
0.834539
0.835042
0.834561
0.825217
0.825152
0.825087
0.825037
0.824992
0.824949
0.824904
0.824859
0.824811
0.824764
0.824717
0.824671
0.824629
0.82459
0.824557
0.824528
0.824505
0.82449
0.824482
0.824483
0.824494
0.824516
0.824549
0.824594
0.824652
0.82472
0.824797
0.824878
0.824957
0.825025
0.825068
0.825067
0.825002
0.824845
0.824565
0.824129
0.823507
0.82267
0.8216
0.820288
0.818733
0.816964
0.815036
0.81296
0.810797
0.808596
0.806409
0.804281
0.802252
0.800356
0.798618
0.79706
0.795695
0.794536
0.79359
0.792863
0.792358
0.79208
0.792028
0.792206
0.792617
0.793263
0.794146
0.795272
0.796644
0.798272
0.800162
0.802325
0.804769
0.807503
0.810529
0.813844
0.817432
0.821259
0.82526
0.829296
0.832956
0.835584
0.836558
0.836339
0.825284
0.8252
0.825118
0.82506
0.825012
0.824965
0.824919
0.824871
0.824823
0.824775
0.824728
0.824685
0.824647
0.824615
0.82459
0.824572
0.824562
0.824562
0.824572
0.824595
0.82463
0.82468
0.824745
0.824825
0.824921
0.82503
0.825149
0.825275
0.825398
0.825506
0.825585
0.825616
0.825575
0.825428
0.825147
0.824698
0.824051
0.823181
0.822071
0.820717
0.819128
0.81733
0.815354
0.813245
0.811055
0.808835
0.806633
0.804494
0.802455
0.800549
0.798801
0.797231
0.795854
0.794682
0.793725
0.792987
0.792473
0.792189
0.792134
0.792314
0.792731
0.793388
0.794289
0.795439
0.796843
0.798512
0.800456
0.802686
0.805216
0.808057
0.811216
0.814692
0.81847
0.822515
0.826757
0.83109
0.835178
0.838203
0.839662
0.839696
0.82531
0.825204
0.825104
0.825038
0.824987
0.82494
0.824892
0.824844
0.824796
0.824749
0.824706
0.824668
0.824638
0.824616
0.824603
0.8246
0.824608
0.824628
0.824662
0.824712
0.82478
0.824865
0.824969
0.825093
0.825236
0.825395
0.825566
0.825744
0.825918
0.826076
0.8262
0.826269
0.826255
0.826129
0.825857
0.825409
0.824754
0.823868
0.82274
0.821367
0.819762
0.817948
0.81596
0.813843
0.811648
0.809423
0.807215
0.805069
0.803022
0.801106
0.799346
0.797764
0.796375
0.795191
0.794222
0.793474
0.792953
0.792665
0.792612
0.792799
0.793229
0.793907
0.794837
0.796026
0.797483
0.799218
0.801245
0.803582
0.806244
0.80925
0.812613
0.816342
0.820431
0.824852
0.82953
0.834326
0.838905
0.842825
0.844753
0.844966
0.825271
0.825138
0.825017
0.824946
0.824895
0.824849
0.824804
0.824758
0.824713
0.82467
0.824634
0.824605
0.824587
0.824579
0.824583
0.824599
0.824629
0.824675
0.824738
0.824821
0.824928
0.825057
0.82521
0.825391
0.825589
0.825802
0.826031
0.826268
0.826501
0.826714
0.826888
0.827
0.827022
0.826922
0.826669
0.826232
0.825582
0.824699
0.823571
0.8222
0.820597
0.818789
0.81681
0.814704
0.812518
0.8103
0.808099
0.805955
0.803907
0.801987
0.800219
0.798626
0.797225
0.796028
0.795046
0.794288
0.793761
0.79347
0.79342
0.793617
0.794066
0.79477
0.795738
0.796977
0.7985
0.800321
0.80246
0.804937
0.807777
0.811005
0.814645
0.818714
0.823224
0.82817
0.833491
0.839
0.844353
0.849305
0.8521
0.852713
0.825126
0.824963
0.824822
0.824751
0.824707
0.82467
0.824633
0.824595
0.824558
0.824525
0.8245
0.824485
0.824483
0.824494
0.824519
0.82456
0.824616
0.824694
0.824795
0.824922
0.825076
0.825253
0.825454
0.825679
0.82593
0.82621
0.82651
0.826814
0.82711
0.827382
0.82761
0.827768
0.827829
0.827761
0.827534
0.827117
0.826484
0.825617
0.824506
0.823154
0.821575
0.819791
0.817839
0.81576
0.8136
0.811405
0.809221
0.807089
0.805047
0.803127
0.801356
0.799755
0.798344
0.797136
0.796144
0.795378
0.794846
0.794555
0.794511
0.79472
0.795188
0.795922
0.796931
0.798227
0.799827
0.801749
0.804017
0.806661
0.809714
0.81321
0.817186
0.821676
0.826711
0.832316
0.838477
0.845033
0.851582
0.857618
0.861964
0.863487
0.824813
0.824622
0.824465
0.824412
0.824392
0.824378
0.824361
0.824341
0.824321
0.824306
0.824298
0.824303
0.824321
0.824354
0.824403
0.824466
0.824548
0.824658
0.824797
0.824963
0.82516
0.825396
0.825664
0.825953
0.826269
0.826613
0.826974
0.82734
0.827695
0.828024
0.828303
0.828508
0.828609
0.828576
0.828378
0.827988
0.827381
0.826541
0.825462
0.824145
0.822605
0.820864
0.818955
0.81692
0.8148
0.812642
0.810488
0.808379
0.806354
0.804444
0.802677
0.801077
0.799663
0.798451
0.797455
0.796685
0.796152
0.795864
0.795827
0.79605
0.796538
0.797304
0.798357
0.799714
0.801395
0.803423
0.805831
0.808654
0.811937
0.815726
0.820077
0.825046
0.830691
0.83707
0.844221
0.85205
0.86008
0.867451
0.873375
0.876368
0.824292
0.824038
0.823875
0.823882
0.823925
0.823963
0.823987
0.823999
0.82401
0.824021
0.824038
0.824066
0.824105
0.824157
0.824223
0.824315
0.824434
0.824577
0.82475
0.824953
0.825194
0.825478
0.825802
0.826155
0.826536
0.82694
0.827357
0.827779
0.828189
0.828568
0.828893
0.829138
0.829275
0.829273
0.829105
0.828743
0.828168