/*--------------------------------*- C++ -*----------------------------------*\
| =========                 |                                                 |
| \\      /  F ield         | OpenFOAM: The Open Source CFD Toolbox           |
|  \\    /   O peration     | Version:  v2012                                 |
|   \\  /    A nd           | Website:  www.openfoam.com                      |
|    \\/     M anipulation  |                                                 |
\*---------------------------------------------------------------------------*/
FoamFile
{
    version     2.0;
    format      ascii;
    class       surfaceScalarField;
    location    "2000";
    object      phi;
}
// * * * * * * * * * * * * * * * * * * * * * * * * * * * * * * * * * * * * * //

dimensions      [0 3 -1 0 0 0 0];
oriented        oriented;


internalField   nonuniform List<scalar> 
12722
(
1.32587e-05
0.000186741
6.75995e-06
0.000206499
3.4326e-06
0.000203327
1.55308e-06
0.00020188
2.4214e-08
0.000201529
-1.50669e-06
0.000201531
-3.39229e-06
0.000201886
-6.72957e-06
0.000203337
-1.32323e-05
0.000206503
0.000186768
1.91064e-05
0.000167635
1.49429e-05
0.000210662
9.02591e-06
0.000209244
4.2138e-06
0.000206692
7.51843e-08
0.000205667
-4.06784e-06
0.000205674
-8.89123e-06
0.000206709
-1.48266e-05
0.000209273
-1.90308e-05
0.000210707
0.000167737
1.84922e-05
0.000149143
1.63376e-05
0.000212817
1.09222e-05
0.00021466
5.40153e-06
0.000212212
1.34229e-07
0.000210935
-5.13974e-06
0.000210948
-1.06793e-05
0.000212249
-1.61328e-05
0.000214726
-1.83653e-05
0.000212939
0.000149372
1.74732e-05
0.000131669
1.69854e-05
0.000213305
1.16522e-05
0.000219993
5.86648e-06
0.000217998
2.05661e-07
0.000216596
-5.46442e-06
0.000216618
-1.12772e-05
0.000218061
-1.66672e-05
0.000220116
-1.72791e-05
0.000213551
0.000132092
1.54098e-05
0.00011626
1.66288e-05
0.000212086
1.1822e-05
0.0002248
6.04941e-06
0.000223771
2.96224e-07
0.000222349
-5.46851e-06
0.000222383
-1.1276e-05
0.000223869
-1.61695e-05
0.00022501
-1.51526e-05
0.000212534
0.00011694
1.23226e-05
0.000103937
1.52821e-05
0.000209126
1.11713e-05
0.000228911
5.89945e-06
0.000229042
4.10977e-07
0.000227837
-5.09604e-06
0.00022789
-1.04365e-05
0.000229209
-1.46603e-05
0.000229233
-1.20031e-05
0.000209877
0.000104937
9.28131e-06
9.46557e-05
1.32442e-05
0.000205163
1.01109e-05
0.000232044
5.53553e-06
0.000233618
5.62693e-07
0.00023281
-4.43313e-06
0.000232886
-9.09348e-06
0.00023387
-1.24229e-05
0.000232563
-8.87994e-06
0.000206334
9.60569e-05
6.78954e-06
8.78662e-05
1.11524e-05
0.0002008
9.21897e-06
0.000233977
5.23091e-06
0.000237606
7.64093e-07
0.000237277
-3.72916e-06
0.000237379
-7.81982e-06
0.00023796
-1.00367e-05
0.00023478
-6.25828e-06
0.000202556
8.97986e-05
5.05151e-06
8.28147e-05
9.52455e-06
0.000196327
8.42079e-06
0.000235081
5.01552e-06
0.000241011
1.0189e-06
0.000241274
-3.01612e-06
0.000241414
-6.58027e-06
0.000241524
-8.04966e-06
0.000236249
-4.37859e-06
0.000198885
8.542e-05
3.82896e-06
7.89857e-05
8.22142e-06
0.000191935
7.76969e-06
0.000235533
4.88689e-06
0.000243894
1.34283e-06
0.000244818
-2.26041e-06
0.000245017
-5.33822e-06
0.000244602
-6.34313e-06
0.000237254
-2.99882e-06
0.00019554
8.24212e-05
3.04009e-06
7.59457e-05
7.23583e-06
0.000187739
7.32139e-06
0.000235447
4.85374e-06
0.000246362
1.75924e-06
0.000247912
-1.43297e-06
0.000248209
-4.14771e-06
0.000247317
-4.81357e-06
0.00023792
-1.96728e-06
0.000192694
8.04539e-05
2.61816e-06
7.33275e-05
6.60462e-06
0.000183753
7.07591e-06
0.000234976
5.08088e-06
0.000248357
2.34264e-06
0.00025065
-5.07189e-07
0.000251059
-2.95385e-06
0.000249764
-3.45009e-06
0.000238416
-1.19739e-06
0.000190441
7.92565e-05
2.38732e-06
7.09402e-05
6.23515e-06
0.000179905
7.08784e-06
0.000234123
5.58992e-06
0.000249855
3.12833e-06
0.000253112
5.20935e-07
0.000253667
-1.66462e-06
0.000251949
-2.16603e-06
0.000238918
-5.55826e-07
0.000188831
7.87007e-05
2.34079e-06
6.85994e-05
6.20128e-06
0.000176044
7.45831e-06
0.000232866
6.28699e-06
0.000251026
4.09625e-06
0.000255303
1.68581e-06
0.000256077
-2.67786e-07
0.000253903
-8.85675e-07
0.000239536
4.04577e-08
0.000187905
7.87412e-05
2.42702e-06
6.61724e-05
6.42068e-06
0.000172051
8.10033e-06
0.000231187
7.25845e-06
0.000251868
5.30889e-06
0.000257252
3.08925e-06
0.000258297
1.27086e-06
0.000255721
4.6456e-07
0.000240342
6.65989e-07
0.000187704
7.94072e-05
2.60481e-06
6.35676e-05
6.84712e-06
0.000167808
8.9995e-06
0.000229034
8.56056e-06
0.000252307
6.85266e-06
0.00025896
4.84623e-06
0.000260303
3.07435e-06
0.000257493
1.98716e-06
0.000241429
1.3647e-06
0.000188326
8.07719e-05
2.87476e-06
6.06928e-05
7.52917e-06
0.000163154
1.02358e-05
0.000226328
1.02436e-05
0.000252299
8.87413e-06
0.00026033
7.07195e-06
0.000262105
5.3288e-06
0.000259236
3.86754e-06
0.00024289
2.26932e-06
0.000189924
8.30412e-05
3.2057e-06
5.74871e-05
8.39883e-06
0.000157961
1.17786e-05
0.000222948
1.23721e-05
0.000251706
1.14545e-05
0.000261247
9.91871e-06
0.000263641
8.2646e-06
0.00026089
6.39326e-06
0.000244762
3.59031e-06
0.000192727
8.66315e-05
3.58897e-06
5.38982e-05
9.48482e-06
0.000152065
1.36915e-05
0.000218741
1.50208e-05
0.000250376
1.46364e-05
0.000261632
1.34558e-05
0.000264822
1.20815e-05
0.000262265
9.9187e-06
0.000246924
5.55038e-06
0.000197096
9.21819e-05
3.99082e-06
4.99073e-05
1.07065e-05
0.000145349
1.59033e-05
0.000213544
1.81266e-05
0.000248153
1.83862e-05
0.000261372
1.78565e-05
0.000265351
1.70807e-05
0.000263041
1.53449e-05
0.00024866
1.08703e-05
0.00020157
0.000103052
4.37052e-06
4.55368e-05
1.2074e-05
0.000137646
1.84774e-05
0.000207141
2.17873e-05
0.000244843
2.28982e-05
0.000260261
2.32649e-05
0.000264985
2.34549e-05
0.000262851
2.29712e-05
0.000249144
2.04947e-05
0.000204047
0.000112693
1.0854e-05
4.60869e-06
4.09281e-05
1.32863e-05
0.000128968
2.0978e-05
0.000199449
2.5511e-05
0.00024031
2.75921e-05
0.00025818
2.86313e-05
0.000263945
2.94391e-05
0.000262043
2.91361e-05
0.000249447
2.50818e-05
0.000208101
0.000127133
1.0642e-05
4.74755e-06
3.61806e-05
1.43282e-05
0.000119388
2.33487e-05
0.000190429
2.91636e-05
0.000234495
3.2169e-05
0.000255175
3.37361e-05
0.000262378
3.47117e-05
0.000261067
3.42035e-05
0.000249955
2.93438e-05
0.000212961
0.00014082
1.56565e-05
4.77669e-06
3.14039e-05
1.51169e-05
0.000109047
2.54549e-05
0.000180091
3.26172e-05
0.000227333
3.66038e-05
0.000251188
3.87591e-05
0.000260223
3.98971e-05
0.000259929
3.94888e-05
0.000250363
3.4505e-05
0.000217945
0.000153965
2.13603e-05
4.70217e-06
2.67017e-05
1.56278e-05
9.81218e-05
2.72553e-05
0.000168463
3.5881e-05
0.000218707
4.09969e-05
0.000246072
4.38513e-05
0.000257369
4.52033e-05
0.000258577
4.50349e-05
0.000250532
4.01e-05
0.000222879
0.000166735
2.733e-05
4.54331e-06
2.21584e-05
1.58567e-05
8.68084e-05
2.87053e-05
0.000155615
3.88979e-05
0.000208515
4.5314e-05
0.000239656
4.89375e-05
0.000253745
5.07096e-05
0.000256805
5.07968e-05
0.000250445
4.61406e-05
0.000227536
0.000178889
3.39864e-05
4.31051e-06
1.78479e-05
1.57885e-05
7.53304e-05
2.97318e-05
0.000141671
4.1566e-05
0.00019668
4.95055e-05
0.000231717
5.40275e-05
0.000249223
5.64079e-05
0.000254425
5.68686e-05
0.000249984
5.27122e-05
0.000231692
0.000190211
4.13901e-05
4.01084e-06
1.38371e-05
1.54074e-05
6.39338e-05
3.02495e-05
0.000126829
4.37435e-05
0.000183186
5.33926e-05
0.000222067
5.91583e-05
0.000243458
6.22329e-05
0.00025135
6.32526e-05
0.000248964
5.98025e-05
0.000235142
0.000200529
4.94845e-05
3.65301e-06
1.01841e-05
1.47082e-05
5.28787e-05
3.01725e-05
0.000111365
4.52513e-05
0.000168108
5.67565e-05
0.000210562
6.41469e-05
0.000236067
6.82221e-05
0.000247275
6.97069e-05
0.00024748
6.72883e-05
0.000237561
0.000209602
5.82155e-05
3.24995e-06
6.93412e-06
1.3713e-05
4.24156e-05
2.94596e-05
9.56183e-05
4.59647e-05
0.000151602
5.94753e-05
0.000197052
6.87473e-05
0.000226795
7.41722e-05
0.00024185
7.63016e-05
0.00024535
7.51049e-05
0.000238757
0.000217233
6.74737e-05
2.80719e-06
4.12693e-06
1.24709e-05
3.2752e-05
2.81092e-05
7.99799e-05
4.57609e-05
0.000133951
6.12979e-05
0.000181515
7.26802e-05
0.000215413
7.97734e-05
0.000234757
8.31252e-05
0.000241998
8.32403e-05
0.000238642
0.000223276
7.71981e-05
2.41151e-06
1.71542e-06
1.10665e-05
2.4097e-05
2.61531e-05
6.48933e-05
4.45364e-05
0.000115568
6.19719e-05
0.000164079
7.56656e-05
0.000201719
8.48246e-05
0.000225598
8.98609e-05
0.000236962
9.11937e-05
0.00023731
0.000227309
8.71607e-05
2.03127e-06
-3.15844e-07
9.55354e-06
1.65747e-05
2.36661e-05
5.07807e-05
4.2259e-05
9.69747e-05
6.13011e-05
0.000145037
7.74008e-05
0.000185619
8.90081e-05
0.00021399
9.61199e-05
0.00022985
9.88794e-05
0.00023455
0.000229063
9.71248e-05
1.59592e-06
-1.91176e-06
7.97934e-06
1.01913e-05
2.07732e-05
3.79868e-05
3.89825e-05
7.87654e-05
5.91463e-05
0.000124873
7.75374e-05
0.000167228
9.184e-05
0.000199688
0.000101404
0.000220286
0.000106306
0.000229648
0.000228636
0.000106733
1.11854e-06
-3.03029e-06
6.38229e-06
4.92753e-06
1.76323e-05
2.67368e-05
3.48602e-05
6.15375e-05
5.54839e-05
0.00010425
7.5805e-05
0.000146907
9.28766e-05
0.000182616
0.000105309
0.000207854
0.00011287
0.000222087
0.000225935
0.000115572
6.32114e-07
-3.6624e-06
4.80313e-06
7.56519e-07
1.44305e-05
1.71095e-05
3.01498e-05
4.58182e-05
5.04535e-05
8.39459e-05
7.20869e-05
0.000125274
9.17404e-05
0.000162963
0.000107287
0.000192307
0.000117922
0.000211452
0.000220434
0.000123424
4.82986e-07
-4.14539e-06
3.70516e-06
-2.46564e-06
1.1512e-05
9.30264e-06
2.52132e-05
3.2117e-05
4.43578e-05
6.48013e-05
6.64454e-05
0.000103186
8.81572e-05
0.000141251
0.000106772
0.000173692
0.000120784
0.000197441
0.000211567
0.00012965
3.92016e-07
-4.5374e-06
2.82028e-06
-4.8939e-06
8.88587e-06
3.23705e-06
2.03394e-05
2.06635e-05
3.76033e-05
4.75374e-05
5.91558e-05
8.16336e-05
8.20838e-05
0.000118323
0.000103369
0.000152406
0.000120851
0.000179959
0.000198987
0.000133431
6.42632e-08
-4.60166e-06
1.76396e-06
-6.59359e-06
6.45796e-06
-1.45693e-06
1.57458e-05
1.13756e-05
3.06552e-05
3.26281e-05
5.07088e-05
6.158e-05
7.37748e-05
9.52571e-05
9.69439e-05
0.000129237
0.000117606
0.000159297
0.000182554
0.000134039
-1.03657e-07
-4.498e-06
9.56076e-07
-7.65332e-06
4.40968e-06
-4.91053e-06
1.1672e-05
4.11331e-06
2.39967e-05
2.03033e-05
4.17529e-05
4.38239e-05
6.37842e-05
7.32258e-05
8.76999e-05
0.000105321
0.000110783
0.000136214
0.000162538
0.000130799
-5.98016e-08
-4.43819e-06
5.59712e-07
-8.27282e-06
2.93539e-06
-7.28621e-06
8.31802e-06
-1.26931e-06
1.80332e-05
1.05882e-05
3.29726e-05
2.88844e-05
5.29012e-05
5.32972e-05
7.62383e-05
8.19843e-05
0.000100566
0.000111887
0.000139684
0.00012342
-1.59647e-07
-4.27854e-06
1.13288e-07
-8.54575e-06
1.68768e-06
-8.8606e-06
5.55413e-06
-5.13575e-06
1.29347e-05
3.20755e-06
2.49302e-05
1.68889e-05
4.20059e-05
3.62216e-05
6.34959e-05
6.04942e-05
8.76381e-05
8.77444e-05
0.000115198
0.000112124
-3.15167e-07
-3.96337e-06
-3.46249e-07
-8.51466e-06
6.32576e-07
-9.83941e-06
3.35102e-06
-7.85419e-06
8.78176e-06
-2.22319e-06
1.8014e-05
7.65672e-06
3.19021e-05
2.23335e-05
5.05665e-05
4.18298e-05
7.30822e-05
6.52287e-05
9.0624e-05
9.76563e-05
-2.5787e-07
-3.7055e-06
-4.04652e-07
-8.36787e-06
8.49925e-08
-1.03291e-05
1.81975e-06
-9.58894e-06
5.57359e-06
-5.97701e-06
1.22596e-05
9.70678e-07
2.28141e-05
1.17789e-05
3.78324e-05
2.68115e-05
5.71735e-05
4.58877e-05
6.79983e-05
7.97992e-05
-2.16398e-07
-3.4891e-06
-4.31917e-07
-8.15234e-06
-2.30808e-07
-1.05302e-05
8.69761e-07
-1.06895e-05
3.45064e-06
-8.55789e-06
8.24682e-06
-3.8255e-06
1.61114e-05
3.91441e-06
2.78338e-05
1.50891e-05
4.38125e-05
2.99089e-05
4.80681e-05
6.37427e-05
-2.02888e-07
-3.28621e-06
-4.56871e-07
-7.89835e-06
-3.98083e-07
-1.05889e-05
3.1545e-07
-1.1403e-05
2.07599e-06
-1.03184e-05
5.44052e-06
-7.19003e-06
1.11028e-05
-1.74788e-06
1.98434e-05
6.34852e-06
3.23216e-05
1.74307e-05
3.15978e-05
4.8792e-05
-1.38497e-07
-3.1477e-06
-3.2414e-07
-7.7127e-06
-3.15548e-07
-1.05975e-05
1.22632e-07
-1.18412e-05
1.29645e-06
-1.14922e-05
3.61944e-06
-9.51302e-06
7.61057e-06
-5.73901e-06
1.39056e-05
5.35024e-08
2.31952e-05
8.14104e-06
1.87692e-05
3.60238e-05
-8.39866e-08
-3.06371e-06
-2.14076e-07
-7.5826e-06
-2.41847e-07
-1.05697e-05
1.56491e-08
-1.20987e-05
7.97326e-07
-1.22739e-05
2.40483e-06
-1.11205e-05
5.21735e-06
-8.55152e-06
9.69641e-06
-4.42556e-06
1.64043e-05
1.43313e-06
9.2379e-06
2.59356e-05
-6.47032e-08
-2.99901e-06
-2.03854e-07
-7.44343e-06
-3.09563e-07
-1.0464e-05
-2.0727e-07
-1.2201e-05
2.81145e-07
-1.27623e-05
1.38448e-06
-1.22239e-05
3.38348e-06
-1.05505e-05
6.60693e-06
-7.64902e-06
1.14419e-05
-3.40185e-06
2.31951e-06
1.83603e-05
-7.87496e-08
-2.92025e-06
-2.87464e-07
-7.23471e-06
-5.27971e-07
-1.02235e-05
-6.38089e-07
-1.20909e-05
-4.48555e-07
-1.29518e-05
2.24092e-07
-1.28965e-05
1.61842e-06
-1.19449e-05
3.96283e-06
-9.99343e-06
7.51668e-06
-6.9557e-06
-2.74553e-06
1.25817e-05
-1.32353e-07
-2.78789e-06
-4.84133e-07
-6.88291e-06
-9.4369e-07
-9.76394e-06
-1.3587e-06
-1.16758e-05
-1.52795e-06
-1.27826e-05
-1.27434e-06
-1.31501e-05
-4.28346e-07
-1.27909e-05
1.22123e-06
-1.1643e-05
3.84988e-06
-9.58436e-06
-6.54017e-06
7.64452e-06
-2.22757e-07
-2.56513e-06
-7.84006e-07
-6.32165e-06
-1.53729e-06
-9.01064e-06
-2.31084e-06
-1.09023e-05
-2.91847e-06
-1.2175e-05
-3.16721e-06
-1.29014e-05
-2.89108e-06
-1.3067e-05
-1.92566e-06
-1.26084e-05
-9.78601e-08
-1.14122e-05
-9.35571e-06
2.71767e-06
-3.33366e-07
-2.23176e-06
-1.13406e-06
-5.52095e-06
-2.21129e-06
-7.9334e-06
-3.38193e-06
-9.73164e-06
-4.47003e-06
-1.10869e-05
-5.30047e-06
-1.2071e-05
-5.69659e-06
-1.26709e-05
-5.49986e-06
-1.28052e-05
-4.52467e-06
-1.23874e-05
-1.12267e-05
-2.65365e-06
-4.38627e-07
-1.79312e-06
-1.45923e-06
-4.50034e-06
-2.83553e-06
-6.5571e-06
-4.38723e-06
-8.17994e-06
-5.95465e-06
-9.51945e-06
-7.38105e-06
-1.06446e-05
-8.51023e-06
-1.15417e-05
-9.17594e-06
-1.21395e-05
-9.21622e-06
-1.23471e-05
-1.2019e-05
-8.42391e-06
-5.06627e-07
-1.2865e-06
-1.66769e-06
-3.33927e-06
-3.24522e-06
-4.97958e-06
-5.07941e-06
-6.34576e-06
-7.04319e-06
-7.55567e-06
-9.01321e-06
-8.67455e-06
-1.08511e-05
-9.70385e-06
-1.24045e-05
-1.0586e-05
-1.35331e-05
-1.12185e-05
-1.15097e-05
-1.40425e-05
-5.09743e-07
-7.76753e-07
-1.67999e-06
-2.16903e-06
-3.29549e-06
-3.36408e-06
-5.23278e-06
-4.40847e-06
-7.40836e-06
-5.38008e-06
-9.74549e-06
-6.33742e-06
-1.21512e-05
-7.29811e-06
-1.45043e-05
-8.233e-06
-1.66521e-05
-9.07066e-06
-9.70972e-06
-1.8452e-05
-4.34126e-07
-3.42629e-07
-1.45735e-06
-1.14582e-06
-2.91084e-06
-1.9106e-06
-4.71528e-06
-2.60402e-06
-6.83044e-06
-3.26492e-06
-9.22713e-06
-3.94073e-06
-1.18665e-05
-4.65879e-06
-1.46823e-05
-5.41713e-06
-1.75695e-05
-6.18345e-06
-6.9007e-06
-2.03785e-05
-2.88118e-07
-5.45327e-08
-1.02324e-06
-4.10715e-07
-2.12506e-06
-8.08778e-07
-3.55628e-06
-1.1728e-06
-5.30616e-06
-1.51502e-06
-7.37647e-06
-1.87042e-06
-9.77312e-06
-2.26215e-06
-1.24895e-05
-2.70081e-06
-1.54899e-05
-3.18301e-06
-3.69084e-06
-1.86998e-05
-1.07053e-07
5.25018e-08
-4.70935e-07
-4.686e-08
-1.10094e-06
-1.78779e-07
-1.98566e-06
-2.88058e-07
-3.11852e-06
-3.82151e-07
-4.50501e-06
-4.83938e-07
-6.17017e-06
-5.9699e-07
-8.14228e-06
-7.28694e-07
-1.04393e-05
-8.85949e-07
-1.06638e-06
-1.30638e-05
5.24967e-08
5.63404e-09
-1.73143e-07
-4.612e-07
-8.43351e-07
-1.32729e-06
-1.92428e-06
-2.65298e-06
-3.53892e-06
-4.6053e-06
-1.5467e-05
2.6321e-05
-1.72797e-05
1.81273e-06
-1.44526e-05
-2.82713e-06
-1.12768e-05
-3.17585e-06
-8.71325e-06
-2.56352e-06
-6.7529e-06
-1.96037e-06
-5.21286e-06
-1.54004e-06
-4.00347e-06
-1.20942e-06
-3.04317e-06
-9.60315e-07
-2.26481e-06
-7.78403e-07
-1.61937e-06
-6.45436e-07
-1.07773e-06
-5.41671e-07
-6.17078e-07
-4.60662e-07
-2.17195e-07
-3.99904e-07
1.04035e-07
-3.21272e-07
3.39609e-07
-2.35612e-07
5.2877e-07
-1.8921e-07
6.3503e-07
-1.06291e-07
6.46982e-07
-1.19545e-08
5.89329e-07
5.76178e-08
4.78079e-07
1.11237e-07
3.32206e-07
1.45809e-07
1.75122e-07
1.57018e-07
4.85835e-08
1.26446e-07
4.85709e-08
-8.96943e-06
4.59324e-05
-1.76071e-05
1.04505e-05
-1.90876e-05
-1.34666e-06
-1.77524e-05
-4.5111e-06
-1.54884e-05
-4.82748e-06
-1.31181e-05
-4.33072e-06
-1.09452e-05
-3.713e-06
-9.02944e-06
-3.12518e-06
-7.35726e-06
-2.63256e-06
-5.89106e-06
-2.24464e-06
-4.59279e-06
-1.94377e-06
-3.4312e-06
-1.70329e-06
-2.39207e-06
-1.49984e-06
-1.48109e-06
-1.31098e-06
-6.93858e-07
-1.10862e-06
-3.56801e-08
-8.9393e-07
4.5046e-07
-6.75462e-07
7.78124e-07
-4.34009e-07
9.51666e-07
-1.85571e-07
9.63893e-07
4.53445e-08
8.38626e-07
2.36379e-07
6.1696e-07
3.6732e-07
3.52548e-07
4.21204e-07
1.17346e-07
3.61444e-07
1.65901e-07
-1.39635e-06
6.29852e-05
-1.23896e-05
2.14438e-05
-1.69774e-05
3.24111e-06
-1.78854e-05
-3.60308e-06
-1.70803e-05
-5.63265e-06
-1.55691e-05
-5.8419e-06
-1.38442e-05
-5.43787e-06
-1.2108e-05
-4.86149e-06
-1.04428e-05
-4.29778e-06
-8.86592e-06
-3.82155e-06
-7.37264e-06
-3.43707e-06
-5.95635e-06
-3.11962e-06
-4.62088e-06
-2.83536e-06
-3.38122e-06
-2.55073e-06
-2.25222e-06
-2.23772e-06
-1.26243e-06
-1.88384e-06
-4.51525e-07
-1.48647e-06
1.63452e-07
-1.04907e-06
5.70984e-07
-5.9318e-07
7.67809e-07
-1.51576e-07
7.71762e-07
2.32285e-07
6.21467e-07
5.17438e-07
3.79421e-07
6.63003e-07
1.34186e-07
6.06453e-07
3.0007e-07
4.85271e-06
7.94928e-05
-7.21943e-06
3.35159e-05
-1.37532e-05
9.77486e-06
-1.64396e-05
-9.16644e-07
-1.69456e-05
-5.12669e-06
-1.64273e-05
-6.36021e-06
-1.545e-05
-6.41519e-06
-1.42621e-05
-6.0494e-06
-1.29717e-05
-5.58823e-06
-1.16224e-05
-5.17089e-06
-1.02269e-05
-4.83259e-06
-8.7934e-06
-4.55313e-06
-7.33884e-06
-4.28997e-06
-5.89092e-06
-3.99872e-06
-4.48766e-06
-3.64108e-06
-3.17864e-06
-3.19297e-06
-2.018e-06
-2.64723e-06
-1.05211e-06
-2.01505e-06
-3.16847e-07
-1.32856e-06
1.69232e-07
-6.37768e-07
4.07752e-07
-6.4223e-09
4.2925e-07
4.95743e-07
3.03467e-07
7.8848e-07
1.1918e-07
7.90516e-07
4.19232e-07
1.10604e-05
9.57624e-05
-2.16034e-06
4.67367e-05
-1.01889e-05
1.78035e-05
-1.43842e-05
3.27864e-06
-1.62054e-05
-3.30553e-06
-1.67334e-05
-5.83216e-06
-1.66101e-05
-6.53855e-06
-1.61288e-05
-6.53067e-06
-1.54221e-05
-6.29496e-06
-1.45153e-05
-6.07773e-06
-1.34143e-05
-5.9336e-06
-1.21295e-05
-5.83801e-06
-1.06806e-05
-5.73887e-06
-9.10385e-06
-5.57555e-06
-7.45427e-06
-5.29074e-06
-5.80403e-06
-4.8433e-06
-4.23533e-06
-4.21604e-06
-2.82985e-06
-3.42064e-06
-1.65862e-06
-2.49989e-06
-7.71585e-07
-1.52498e-06
-1.89044e-07
-5.89141e-07
1.06731e-07
1.99701e-07
1.68416e-07
7.26551e-07
8.39141e-08
8.74735e-07
5.03126e-07
1.79472e-05
0.000111802
3.50689e-06
6.1177e-05
-6.16851e-06
2.74789e-05
-1.18656e-05
8.97574e-06
-1.50077e-05
-1.63389e-07
-1.66628e-05
-4.17715e-06
-1.75246e-05
-5.6767e-06
-1.79265e-05
-6.12881e-06
-1.79607e-05
-6.26079e-06
-1.76601e-05
-6.37833e-06
-1.70288e-05
-6.5649e-06
-1.60536e-05
-6.8132e-06
-1.47376e-05
-7.05491e-06
-1.3114e-05
-7.19919e-06
-1.1247e-05
-7.15786e-06
-9.23026e-06
-6.86012e-06
-7.18053e-06
-6.26586e-06
-5.22518e-06
-5.37608e-06
-3.48604e-06
-4.23918e-06
-2.06141e-06
-2.94975e-06
-1.01093e-06
-1.63984e-06
-3.46088e-07
-4.65301e-07
-2.83315e-08
4.0839e-07
4.02351e-08
8.06004e-07
5.43356e-07
2.5622e-05
0.00012757
1.00527e-05
7.67464e-05
-1.47646e-06
3.9008e-05
-8.83603e-06
1.63353e-05
-1.33671e-05
4.36764e-06
-1.62236e-05
-1.32056e-06
-1.81491e-05
-3.75127e-06
-1.95148e-05
-4.76306e-06
-2.04484e-05
-5.3272e-06
-2.09553e-05
-5.87144e-06
-2.09906e-05
-6.52969e-06
-2.05113e-05
-7.29253e-06
-1.94954e-05
-8.07079e-06
-1.79546e-05
-8.74006e-06
-1.59456e-05
-9.1669e-06
-1.35736e-05
-9.23227e-06
-1.09877e-05
-8.85184e-06
-8.36928e-06
-7.99456e-06
-5.90959e-06
-6.69897e-06
-3.78029e-06
-5.07917e-06
-2.10572e-06
-3.31451e-06
-9.43368e-07
-1.62786e-06
-2.74286e-07
-2.60638e-07
-7.1235e-09
5.38758e-07
5.36233e-07
3.4143e-05
0.000142911
1.76473e-05
9.3242e-05
4.17949e-06
5.24759e-05
-5.04914e-06
2.55639e-05
-1.11132e-05
1.04317e-05
-1.52357e-05
2.80193e-06
-1.82822e-05
-7.04716e-07
-2.07045e-05
-2.34076e-06
-2.26519e-05
-3.37985e-06
-2.41104e-05
-4.41295e-06
-2.50014e-05
-5.6387e-06
-2.5238e-05
-7.05597e-06
-2.47484e-05
-8.56039e-06
-2.34985e-05
-9.99002e-06
-2.15132e-05
-1.11523e-05
-1.8885e-05
-1.18605e-05
-1.57785e-05
-1.19584e-05
-1.24245e-05
-1.13486e-05
-9.09703e-06
-1.00265e-05
-6.07105e-06
-8.10521e-06
-3.57315e-06
-5.81238e-06
-1.7413e-06
-3.45951e-06
-6.05021e-07
-1.39706e-06
-8.51847e-08
1.90978e-08
4.51074e-07
4.35815e-05
0.000157545
2.64811e-05
0.000110343
1.11624e-05
6.77946e-05
-1.79644e-07
3.6906e-05
-7.95197e-06
1.8204e-05
-1.34374e-05
8.28741e-06
-1.76391e-05
3.49696e-06
-2.11337e-05
1.15383e-06
-2.41357e-05
-3.77858e-07
-2.664e-05
-1.90869e-06
-2.85422e-05
-3.73655e-06
-2.97087e-05
-5.88944e-06
-3.00077e-05
-8.26147e-06
-2.93336e-05
-1.06642e-05
-2.76488e-05
-1.28372e-05
-2.49983e-05
-1.45111e-05
-2.15243e-05
-1.54324e-05
-1.74774e-05
-1.53955e-05
-1.32045e-05
-1.42994e-05
-9.10593e-06
-1.22037e-05
-5.55759e-06
-9.36063e-06
-2.83348e-06
-6.18368e-06
-1.05195e-06
-3.17804e-06
-1.70423e-07
-8.62097e-07
2.80685e-07
5.39207e-05
0.000171098
3.66797e-05
0.000127583
1.97804e-05
8.46939e-05
6.19026e-06
5.04962e-05
-3.53261e-06
2.79269e-05
-1.04901e-05
1.52449e-05
-1.58528e-05
8.85956e-06
-2.03718e-05
5.67286e-06
-2.43815e-05
3.63182e-06
-2.7926e-05
1.63586e-06
-3.09002e-05
-7.6243e-07
-3.31366e-05
-3.65304e-06
-3.44582e-05
-6.93991e-06
-3.46774e-05
-1.0445e-05
-3.36585e-05
-1.38561e-05
-3.13613e-05
-1.68082e-05
-2.78586e-05
-1.89352e-05
-2.33634e-05
-1.98908e-05
-1.82386e-05
-1.94242e-05
-1.29987e-05
-1.74436e-05
-8.20688e-06
-1.41524e-05
-4.34731e-06
-1.00428e-05
-1.71016e-06
-5.81491e-06
-3.4495e-07
-2.22683e-06
-6.42281e-08
6.50872e-05
0.000183209
4.82608e-05
0.00014441
3.02455e-05
0.000102709
1.4486e-05
6.62556e-05
2.54493e-06
3.9868e-05
-6.05528e-06
2.38451e-05
-1.25926e-05
1.53969e-05
-1.80354e-05
1.11156e-05
-2.29069e-05
8.50327e-06
-2.73594e-05
6.08838e-06
-3.13241e-05
3.2022e-06
-3.46254e-05
-3.51721e-07
-3.70483e-05
-4.51706e-06
-3.83996e-05
-9.09375e-06
-3.84539e-05
-1.38019e-05
-3.69713e-05
-1.82909e-05
-3.39429e-05
-2.19635e-05
-2.94912e-05
-2.43426e-05
-2.3877e-05
-2.50383e-05
-1.76541e-05
-2.36664e-05
-1.15659e-05
-2.02405e-05
-6.37239e-06
-1.52362e-05
-2.64111e-06
-9.54567e-06
-5.75194e-07
-4.29231e-06
-6.39387e-07
7.69185e-05
0.000193451
6.11375e-05
0.000160191
4.26591e-05
0.000121188
2.50458e-05
8.38689e-05
1.07398e-05
5.4174e-05
1.98129e-07
3.43868e-05
-7.59902e-06
2.31941e-05
-1.38805e-05
1.73971e-05
-1.94132e-05
1.4036e-05
-2.45317e-05
1.12068e-05
-2.92646e-05
7.9351e-06
-3.34774e-05
3.86112e-06
-3.69508e-05
-1.04373e-06
-3.94306e-05
-6.61399e-06
-4.06734e-05
-1.25591e-05
-4.04593e-05
-1.85049e-05
-3.85588e-05
-2.3864e-05
-3.48333e-05
-2.80681e-05
-2.93761e-05
-3.04956e-05
-2.26396e-05
-3.04028e-05
-1.54583e-05
-2.74217e-05
-8.86668e-06
-2.18277e-05
-3.82017e-06
-1.45917e-05
-8.57681e-07
-7.25442e-06
-1.49704e-06
8.91083e-05
0.000201468
7.50469e-05
0.000174252
5.6929e-05
0.000139305
3.80604e-05
0.000102737
2.14836e-05
7.07508e-05
8.67023e-06
4.72002e-05
-6.79078e-07
3.25434e-05
-7.81792e-06
2.45359e-05
-1.38492e-05
2.00673e-05
-1.93589e-05
1.67164e-05
-2.45525e-05
1.31287e-05
-2.93963e-05
8.70487e-06
-3.37356e-05
3.29559e-06
-3.73356e-05
-3.01402e-06
-3.99034e-05
-9.99128e-06
-4.11456e-05
-1.72627e-05
-4.0632e-05
-2.43775e-05
-3.81827e-05
-3.05174e-05
-3.36782e-05
-3.5e-05
-2.71867e-05
-3.68944e-05
-1.94554e-05
-3.51529e-05
-1.16838e-05
-2.9599e-05
-5.26414e-06
-2.10111e-05
-1.26037e-06
-1.12578e-05
-2.75737e-06
0.0001013
0.000206901
8.95974e-05
0.000185955
7.27532e-05
0.00015615
5.35001e-05
0.000121991
3.50758e-05
8.91751e-05
1.98349e-05
6.24411e-05
8.45393e-06
4.39243e-05
1.52486e-07
3.28374e-05
-6.36593e-06
2.65857e-05
-1.20554e-05
2.24059e-05
-1.73733e-05
1.84466e-05
-2.2447e-05
1.37785e-05
-2.72277e-05
8.07628e-06
-3.15719e-05
1.33023e-06
-3.52629e-05
-6.30028e-06
-3.79812e-05
-1.45444e-05
-3.93148e-05
-2.30439e-05
-3.86806e-05
-3.11516e-05
-3.56968e-05
-3.79837e-05
-3.03137e-05
-4.22773e-05
-2.28684e-05
-4.25981e-05
-1.44744e-05
-3.79928e-05
-6.86075e-06
-2.86243e-05
-1.74182e-06
-1.63765e-05
-4.49918e-06
0.000113081
0.000209392
0.000104273
0.000194762
8.96162e-05
0.000170807
7.10513e-05
0.000140555
5.15801e-05
0.000108646
3.40937e-05
7.99275e-05
2.02728e-05
5.77452e-05
1.0188e-05
4.29222e-05
2.80586e-06
3.39678e-05
-3.11337e-06
2.83251e-05
-8.39911e-06
2.37324e-05
-1.34317e-05
1.8811e-05
-1.8308e-05
1.29526e-05
-2.29921e-05
6.01428e-06
-2.73558e-05
-1.93654e-06
-3.11519e-05
-1.07482e-05
-3.40169e-05
-2.01789e-05
-3.53797e-05
-2.97887e-05
-3.46046e-05
-3.87587e-05
-3.11537e-05
-4.57282e-05
-2.49467e-05
-4.88049e-05
-1.67456e-05
-4.61937e-05
-8.38899e-06
-3.69808e-05
-2.24742e-06
-2.25178e-05
-6.74658e-06
0.000123846
0.00020897
0.000118407
0.000200201
0.000106774
0.000182439
9.00658e-05
0.000157264
7.06979e-05
0.000128014
5.16291e-05
9.89963e-05
3.52953e-05
7.4079e-05
2.27917e-05
5.54258e-05
1.37817e-05
4.29777e-05
7.12831e-06
3.49786e-05
1.69528e-06
2.91654e-05
-3.25489e-06
2.37612e-05
-8.06598e-06
1.77637e-05
-1.28381e-05
1.07864e-05
-1.75404e-05
2.76572e-06
-2.20465e-05
-6.24204e-06
-2.60826e-05
-1.61427e-05
-2.91681e-05
-2.67031e-05
-3.05574e-05
-3.73693e-05
-2.93889e-05
-4.68966e-05
-2.51671e-05
-5.30267e-05
-1.80319e-05
-5.33289e-05
-9.58993e-06
-4.54225e-05
-2.71251e-06
-2.93951e-05
-9.45908e-06
0.000133081
0.000205539
0.000131428
0.000201855
0.000123419
0.000190448
0.000109639
0.000171044
9.17114e-05
0.000145942
7.22093e-05
0.000118498
5.38664e-05
9.24219e-05
3.86492e-05
7.0643e-05
2.71933e-05
5.44336e-05
1.89246e-05
4.32472e-05
1.27131e-05
3.5377e-05
7.525e-06
2.89493e-05
2.6989e-06
2.25899e-05
-2.08232e-06
1.55677e-05
-6.92012e-06
7.60355e-06
-1.17964e-05
-1.36571e-06
-1.6564e-05
-1.1375e-05
-2.08816e-05
-2.23855e-05
-2.41163e-05
-3.41345e-05
-2.52814e-05
-4.57315e-05
-2.33385e-05
-5.49695e-05
-1.80398e-05
-5.86275e-05
-1.02608e-05
-5.32014e-05
-3.09479e-06
-3.65611e-05
-1.25539e-05
0.00014041
0.00019856
0.000142396
0.000199868
0.000138586
0.000194257
0.000128663
0.000180968
0.000113519
0.000161085
9.50674e-05
0.00013695
7.58551e-05
0.000111634
5.83054e-05
8.81927e-05
4.39653e-05
6.87737e-05
3.31551e-05
5.40574e-05
2.52074e-05
4.33246e-05
1.90675e-05
3.50892e-05
1.38047e-05
2.78527e-05
8.82212e-06
2.05502e-05
3.82715e-06
1.25985e-05
-1.26592e-06
3.72739e-06
-6.44897e-06
-6.19195e-06
-1.15399e-05
-1.72945e-05
-1.61112e-05
-2.95632e-05
-1.92985e-05
-4.25441e-05
-1.96942e-05
-5.45738e-05
-1.67283e-05
-6.15933e-05
-1.03159e-05
-5.96138e-05
-3.30904e-06
-4.35679e-05
-1.58629e-05
0.000144937
0.000187662
0.000150668
0.000194137
0.000151243
0.000193682
0.000145872
0.000186339
0.000134707
0.00017225
0.000118898
0.00015276
0.00010044
0.000130092
8.17172e-05
0.000106915
6.48324e-05
8.56584e-05
5.10072e-05
6.78827e-05
4.0385e-05
5.39468e-05
3.23134e-05
4.31608e-05
2.58534e-05
3.43127e-05
2.01858e-05
2.62178e-05
1.47735e-05
1.80109e-05
9.34173e-06
9.15915e-06
3.80355e-06
-6.53735e-07
-1.81742e-06
-1.16735e-05
-7.30709e-06
-2.40735e-05
-1.21062e-05
-3.7745e-05
-1.49929e-05
-5.1687e-05
-1.43221e-05
-6.22641e-05
-9.76318e-06
-6.41727e-05
-3.28506e-06
-5.0046e-05
-1.9148e-05
0.000145661
0.0001728
0.000155699
0.000184099
0.000160643
0.000188739
0.000160143
0.000186839
0.000153767
0.000178625
0.000141996
0.000164531
0.000126085
0.000146003
0.000107953
0.000125048
8.97652e-05
0.000103846
7.33297e-05
8.43181e-05
5.96379e-05
6.76386e-05
4.87723e-05
5.40264e-05
4.01711e-05
4.29139e-05
3.30392e-05
3.33497e-05
2.66674e-05
2.43828e-05
2.05673e-05
1.52593e-05
1.44781e-05
5.43546e-06
8.28437e-06
-5.47976e-06
2.03341e-06
-1.78225e-05
-4.0156e-06
-3.1696e-05
-9.08341e-06
-4.66192e-05
-1.10357e-05
-6.03119e-05
-8.78905e-06
-6.64193e-05
-3.31481e-06
-5.55202e-05
-2.24628e-05
0.000142009
0.000154211
0.000156402
0.000169705
0.000165971
0.00017917
0.000170245
0.000182565
0.000169152
0.000179719
0.00016249
0.000171192
0.000150708
0.000157786
0.000135123
0.000140633
0.000117554
0.000121415
9.99088e-05
0.000101963
8.37303e-05
8.38171e-05
6.98666e-05
6.78901e-05
5.8423e-05
5.43575e-05
4.89731e-05
4.27996e-05
4.08724e-05
3.24835e-05
3.35116e-05
2.26201e-05
2.64325e-05
1.25146e-05
1.93548e-05
1.59791e-06
1.21338e-05
-1.06015e-05
4.84741e-06
-2.44096e-05
-2.06645e-06
-3.97053e-05
-7.15953e-06
-5.52188e-05
-7.85112e-06
-6.57278e-05
-3.70004e-06
-5.96713e-05
-2.61628e-05
0.000133712
0.000132623
0.000152149
0.000151268
0.000166459
0.000164861
0.000176152
0.000172871
0.000180397
0.000175474
0.000178937
0.000172652
0.000172242
0.000164482
0.000160868
0.000152006
0.00014598
0.000136303
0.000129176
0.000118767
0.000112096
0.000100897
9.60614e-05
8.39246e-05
8.18394e-05
6.85795e-05
6.96005e-05
5.50386e-05
5.90606e-05
4.30234e-05
4.97115e-05
3.19692e-05
4.10059e-05
2.12202e-05
3.24735e-05
1.01304e-05
2.37547e-05
-1.88276e-06
1.46428e-05
-1.52976e-05
5.26992e-06
-3.03324e-05
-3.44468e-06
-4.65042e-05
-8.41662e-06
-6.07558e-05
-5.63681e-06
-6.24511e-05
-3.17996e-05
0.000120981
0.000109298
0.000142535
0.000129714
0.000160916
0.00014648
0.000175169
0.000158618
0.000184884
0.000165759
0.000189555
0.00016798
0.00018867
0.000165368
0.000182661
0.000158015
0.00017222
0.000146744
0.000158421
0.000132566
0.000142628
0.000116689
0.00012622
0.000100333
0.000110343
8.44562e-05
9.57215e-05
6.96605e-05
8.25894e-05
5.61555e-05
7.07776e-05
4.3781e-05
5.98705e-05
3.21273e-05
4.9317e-05
2.06839e-05
3.85269e-05
8.90739e-06
2.69271e-05
-3.69782e-06
1.40903e-05
-1.74956e-05
1.74822e-07
-3.25887e-05
-1.24413e-05
-4.81397e-05
-1.64602e-05
-5.84322e-05
-4.82598e-05
0.000102813
8.62851e-05
0.000125639
0.000106887
0.000146729
0.000125389
0.000164809
0.000140539
0.000179024
0.000151544
0.000188845
0.000158159
0.000193979
0.000160234
0.000194014
0.00015798
0.000189278
0.00015148
0.000180424
0.000141421
0.000168301
0.000128813
0.000154035
0.000114599
0.000138788
9.97024e-05
0.000123549
8.49003e-05
0.00010896
7.07438e-05
9.52743e-05
5.7467e-05
8.23983e-05
4.50033e-05
6.99625e-05
3.31197e-05
5.73659e-05
2.15039e-05
4.38147e-05
9.85344e-06
2.83616e-05
-2.0425e-06
9.90637e-06
-1.41335e-05
-1.19938e-05
-2.62394e-05
-3.43799e-05
-3.60462e-05
-3.24817e-05
-5.0158e-05
8.53846e-05
6.46432e-05
0.000108318
8.39543e-05
0.000131044
0.000102663
0.000152132
0.000119451
0.000170429
0.000133248
0.000185169
0.000143418
0.000195764
0.000149639
0.0002021
0.000151644
0.000203515
0.000150065