/*--------------------------------*- C++ -*----------------------------------*\
| =========                 |                                                 |
| \\      /  F ield         | OpenFOAM: The Open Source CFD Toolbox           |
|  \\    /   O peration     | Version:  v2012                                 |
|   \\  /    A nd           | Website:  www.openfoam.com                      |
|    \\/     M anipulation  |                                                 |
\*---------------------------------------------------------------------------*/
FoamFile
{
    version     2.0;
    format      ascii;
    class       volVectorField;
    location    "2000";
    object      U;
}
// * * * * * * * * * * * * * * * * * * * * * * * * * * * * * * * * * * * * * //

dimensions      [0 1 -1 0 0 0 0];


internalField   nonuniform List<vector> 
6502
(
(0.0203707 -0.937883 0)
(0.0387843 -1.00763 0)
(0.022074 -1.00517 0)
(0.0101387 -1.00285 0)
(0.00309776 -1.00232 0)
(-0.0029075 -1.00232 0)
(-0.0099643 -1.00286 0)
(-0.0219277 -1.00518 0)
(-0.0386882 -1.00765 0)
(-0.0203092 -0.93792 0)
(0.0517755 -0.881864 0)
(0.0803948 -1.04119 0)
(0.0460028 -1.02823 0)
(0.0247817 -1.01801 0)
(0.00828704 -1.01482 0)
(-0.00768762 -1.01484 0)
(-0.0242168 -1.01806 0)
(-0.045508 -1.0283 0)
(-0.0799693 -1.04121 0)
(-0.0516375 -0.88213 0)
(0.0635442 -0.79898 0)
(0.0789215 -1.06406 0)
(0.0545961 -1.05911 0)
(0.0315769 -1.04538 0)
(0.0109621 -1.03944 0)
(-0.00989181 -1.03948 0)
(-0.030557 -1.04551 0)
(-0.0536707 -1.05934 0)
(-0.0782605 -1.06447 0)
(-0.063231 -0.79972 0)
(0.0609661 -0.702934 0)
(0.0777749 -1.06789 0)
(0.0583703 -1.08749 0)
(0.0344926 -1.07547 0)
(0.0121204 -1.06841 0)
(-0.0104808 -1.0685 0)
(-0.0329231 -1.07571 0)
(-0.0569344 -1.08794 0)
(-0.0767087 -1.06875 0)
(-0.060585 -0.704486 0)
(0.0490178 -0.614818 0)
(0.0745639 -1.06514 0)
(0.059036 -1.11297 0)
(0.0353354 -1.1048 0)
(0.0125981 -1.09754 0)
(-0.0102361 -1.09768 0)
(-0.0330592 -1.10519 0)
(-0.0569454 -1.11374 0)
(-0.073033 -1.06677 0)
(-0.0486214 -0.617535 0)
(0.032091 -0.544968 0)
(0.0679776 -1.05406 0)
(0.055384 -1.13395 0)
(0.0340433 -1.13254 0)
(0.0125111 -1.1258 0)
(-0.00923607 -1.12601 0)
(-0.0309026 -1.13316 0)
(-0.0526252 -1.13535 0)
(-0.0658968 -1.05693 0)
(-0.0317217 -0.549091 0)
(0.0175956 -0.493331 0)
(0.0589764 -1.03675 0)
(0.0489138 -1.15487 0)
(0.0315136 -1.15749 0)
(0.0122028 -1.15218 0)
(-0.00770744 -1.15249 0)
(-0.0272087 -1.1585 0)
(-0.0451308 -1.15662 0)
(-0.0563024 -1.04137 0)
(-0.0171305 -0.499235 0)
(0.00759822 -0.454415 0)
(0.0490331 -1.01549 0)
(0.0430173 -1.16634 0)
(0.0293945 -1.17887 0)
(0.0120965 -1.17589 0)
(-0.0059943 -1.17633 0)
(-0.0235168 -1.18037 0)
(-0.0377408 -1.16979 0)
(-0.0456101 -1.02262 0)
(-0.00675005 -0.462632 0)
(0.00285835 -0.425155 0)
(0.0398938 -0.992945 0)
(0.0384912 -1.17336 0)
(0.027718 -1.19724 0)
(0.0122219 -1.19699 0)
(-0.0040917 -1.19758 0)
(-0.0199045 -1.19934 0)
(-0.0315098 -1.17809 0)
(-0.0355834 -1.00344 0)
(-0.00165982 -0.436336 0)
(0.000949246 -0.403394 0)
(0.0318866 -0.970474 0)
(0.0350784 -1.17728 0)
(0.026392 -1.21282 0)
(0.0126409 -1.21578 0)
(-0.00191878 -1.21661 0)
(-0.0161346 -1.21591 0)
(-0.0259115 -1.18425 0)
(-0.026615 -0.985581 0)
(0.000586962 -0.418281 0)
(0.000339788 -0.386705 0)
(0.0257859 -0.948949 0)
(0.0327977 -1.17811 0)
(0.0253017 -1.22603 0)
(0.0134794 -1.23235 0)
(0.000583664 -1.23355 0)
(-0.0120767 -1.23009 0)
(-0.020807 -1.18833 0)
(-0.0189462 -0.969946 0)
(0.00162177 -0.406271 0)
(0.000403409 -0.37284 0)
(0.0219175 -0.928526 0)
(0.0313665 -1.17661 0)
(0.0251591 -1.2379 0)
(0.0150942 -1.2469 0)
(0.00361682 -1.24861 0)
(-0.00759361 -1.24316 0)
(-0.0159708 -1.19106 0)
(-0.012721 -0.957158 0)
(0.00209325 -0.398572 0)
(0.000772943 -0.360534 0)
(0.0194198 -0.909067 0)
(0.0305777 -1.17321 0)
(0.0263843 -1.24588 0)
(0.0176879 -1.25977 0)
(0.00723715 -1.26215 0)
(-0.00271599 -1.25474 0)
(-0.0109241 -1.19334 0)
(-0.00742977 -0.94744 0)
(0.00239728 -0.394268 0)
(0.0013362 -0.348859 0)
(0.0183459 -0.889946 0)
(0.0311676 -1.16795 0)
(0.0286264 -1.25251 0)
(0.0211156 -1.27134 0)
(0.0115066 -1.2746 0)
(0.00249154 -1.26492 0)
(-0.00536821 -1.19597 0)
(-0.00263125 -0.941036 0)
(0.00268385 -0.392974 0)
(0.0019519 -0.337055 0)
(0.0184624 -0.870461 0)
(0.0326712 -1.1607 0)
(0.0320266 -1.25769 0)
(0.0255668 -1.28164 0)
(0.0167644 -1.28614 0)
(0.00838269 -1.27407 0)
(0.000838765 -1.19941 0)
(0.00202823 -0.938151 0)
(0.00326042 -0.394724 0)
(0.00253571 -0.32458 0)
(0.019511 -0.850034 0)
(0.0348979 -1.15116 0)
(0.0367958 -1.26095 0)
(0.0312457 -1.29078 0)
(0.0234307 -1.29673 0)
(0.0155884 -1.28305 0)
(0.00798275 -1.20404 0)
(0.00698913 -0.939067 0)
(0.00401956 -0.399681 0)
(0.00311501 -0.310958 0)
(0.0213283 -0.827948 0)
(0.0384271 -1.13912 0)
(0.0429654 -1.26212 0)
(0.0386997 -1.29887 0)
(0.0319961 -1.30627 0)
(0.0247131 -1.29185 0)
(0.0167559 -1.21028 0)
(0.0129512 -0.944398 0)
(0.00540623 -0.408551 0)
(0.00365034 -0.295829 0)
(0.0237864 -0.803525 0)
(0.0428836 -1.12407 0)
(0.0505657 -1.26075 0)
(0.0482973 -1.30437 0)
(0.0429555 -1.31472 0)
(0.0365005 -1.30038 0)
(0.0282231 -1.21849 0)
(0.0210584 -0.954976 0)
(0.00777463 -0.422381 0)
(0.0041387 -0.278881 0)
(0.0266976 -0.775984 0)
(0.0487586 -1.10532 0)
(0.0597837 -1.25616 0)
(0.0602098 -1.3078 0)
(0.0564993 -1.32126 0)
(0.051483 -1.30813 0)
(0.0436197 -1.22863 0)
(0.0325623 -0.972206 0)
(0.0114023 -0.445527 0)
(0.00453853 -0.25992 0)
(0.0298256 -0.744592 0)
(0.0555834 -1.08203 0)
(0.0704793 -1.24751 0)
(0.0742202 -1.30839 0)
(0.0727941 -1.32681 0)
(0.070472 -1.31395 0)
(0.0653138 -1.23908 0)
(0.0524642 -0.994559 0)
(0.0304647 -0.467688 0)
(0.00439001 -0.238965 0)
(0.0328964 -0.708661 0)
(0.0628977 -1.05324 0)
(0.0823882 -1.23391 0)
(0.0898945 -1.30519 0)
(0.0917487 -1.32646 0)
(0.0930467 -1.31579 0)
(0.0929435 -1.24597 0)
(0.0842881 -1.01637 0)
(0.0748963 -0.546901 0)
(0.00371039 -0.216428 0)
(0.0355746 -0.667752 0)
(0.0701601 -1.01816 0)
(0.0948787 -1.21452 0)
(0.106747 -1.29739 0)
(0.1117 -1.3233 0)
(0.115224 -1.31324 0)
(0.117567 -1.24772 0)
(0.109472 -1.032 0)
(0.0880682 -0.604488 0)
(0.00316671 -0.192933 0)
(0.0375058 -0.622012 0)
(0.0767378 -0.976437 0)
(0.107005 -1.18876 0)
(0.123448 -1.28478 0)
(0.131161 -1.31683 0)
(0.135938 -1.30831 0)
(0.13872 -1.24849 0)
(0.130151 -1.05135 0)
(0.101706 -0.667675 0)
(0.00282259 -0.169028 0)
(0.0385024 -0.572012 0)
(0.082204 -0.928003 0)
(0.118231 -1.15638 0)
(0.139529 -1.26724 0)
(0.150333 -1.30727 0)
(0.156389 -1.30251 0)
(0.159699 -1.25063 0)
(0.151364 -1.07637 0)
(0.120362 -0.736333 0)
(0.00255747 -0.145245 0)
(0.0385971 -0.518615 0)
(0.0863881 -0.873018 0)
(0.128408 -1.11702 0)
(0.155121 -1.24464 0)
(0.16963 -1.29485 0)
(0.177161 -1.29638 0)
(0.181294 -1.2525 0)
(0.17381 -1.10243 0)
(0.142063 -0.802766 0)
(0.00234517 -0.122051 0)
(0.0378887 -0.462766 0)
(0.0891543 -0.811722 0)
(0.137296 -1.07011 0)
(0.170032 -1.2161 0)
(0.188764 -1.27885 0)
(0.198484 -1.28951 0)
(0.203616 -1.25296 0)
(0.197403 -1.1267 0)
(0.166547 -0.865153 0)
(0.00216071 -0.0998406 0)
(0.036441 -0.405505 0)
(0.0903177 -0.744559 0)
(0.144504 -1.01514 0)
(0.18394 -1.1805 0)
(0.207716 -1.25853 0)
(0.220255 -1.27872 0)
(0.226933 -1.25166 0)
(0.222405 -1.14878 0)
(0.193812 -0.923811 0)
(0.00198466 -0.0789601 0)
(0.0343025 -0.348005 0)
(0.0896904 -0.672306 0)
(0.149499 -0.951798 0)
(0.196249 -1.13679 0)
(0.226205 -1.2338 0)
(0.242253 -1.26547 0)
(0.251202 -1.2483 0)
(0.248943 -1.16804 0)
(0.223619 -0.97814 0)
(0.00180788 -0.059727 0)
(0.0315413 -0.291549 0)
(0.0871397 -0.596149 0)
(0.151743 -0.880221 0)
(0.206046 -1.08407 0)
(0.243278 -1.20103 0)
(0.264535 -1.24804 0)
(0.275809 -1.24106 0)
(0.276389 -1.18327 0)
(0.255506 -1.02714 0)
(0.00162675 -0.0424268 0)
(0.0282838 -0.237445 0)
(0.0826893 -0.517651 0)
(0.150912 -0.800986 0)
(0.212704 -1.02163 0)
(0.25813 -1.15964 0)
(0.286275 -1.22474 0)
(0.300672 -1.2336 0)
(0.304617 -1.19235 0)
(0.289068 -1.06886 0)
(0.00145646 -0.0272436 0)
(0.0246723 -0.18691 0)
(0.0764986 -0.438673 0)
(0.146767 -0.715166 0)
(0.215498 -0.948989 0)
(0.269696 -1.10837 0)
(0.305915 -1.1939 0)
(0.325555 -1.22029 0)
(0.333929 -1.19561 0)
(0.324168 -1.10344 0)
(0.00205144 -0.0141211 0)
(0.0209226 -0.140849 0)
(0.0688636 -0.361283 0)
(0.13922 -0.624475 0)
(0.213699 -0.866305 0)
(0.276909 -1.0459 0)
(0.32236 -1.15375 0)
(0.349404 -1.19968 0)
(0.362727 -1.19053 0)
(0.359403 -1.12929 0)
(0.00272246 -0.00296359 0)
(0.0171652 -0.10029 0)
(0.060196 -0.287756 0)
(0.128453 -0.531297 0)
(0.206813 -0.77461 0)
(0.278683 -0.971421 0)
(0.334308 -1.10228 0)
(0.370836 -1.16992 0)
(0.390199 -1.18233 0)
(0.39395 -1.14393 0)
(0.00217504 0.00608074 0)
(0.0135796 -0.0655104 0)
(0.0509818 -0.220099 0)
(0.114956 -0.438506 0)
(0.194708 -0.675858 0)
(0.273984 -0.884913 0)
(0.340112 -1.03777 0)
(0.387513 -1.12878 0)
(0.415636 -1.1636 0)
(0.427169 -1.14683 0)
(0.000863216 0.0128417 0)
(0.0100012 -0.0364167 0)
(0.0416898 -0.159777 0)
(0.0995134 -0.349181 0)
(0.177771 -0.572957 0)
(0.262205 -0.787511 0)
(0.338327 -0.959282 0)
(0.397536 -1.07421 0)
(0.436841 -1.13295 0)
(0.457335 -1.13936 0)
(0.000139794 0.0171511 0)
(0.00609268 -0.0130981 0)
(0.032734 -0.107625 0)
(0.0831551 -0.266236 0)
(0.156974 -0.469605 0)
(0.243437 -0.681672 0)
(0.327886 -0.867032 0)
(0.399017 -1.00446 0)
(0.451184 -1.08802 0)
(0.482953 -1.12009 0)
(0.00033133 0.0198701 0)
(0.00459259 0.00544759 0)
(0.0252583 -0.0637433 0)
(0.0672115 -0.192084 0)
(0.133821 -0.369911 0)
(0.218547 -0.571146 0)
(0.308357 -0.762742 0)
(0.390281 -0.918809 0)
(0.455886 -1.02672 0)
(0.501233 -1.08458 0)
(-0.000408706 0.0219557 0)
(0.00414788 0.0195864 0)
(0.0187525 -0.0292436 0)
(0.0524465 -0.129006 0)
(0.109909 -0.278042 0)
(0.189117 -0.460725 0)
(0.280286 -0.649869 0)
(0.370439 -0.818291 0)
(0.448838 -0.947887 0)
(0.508978 -1.03129 0)
(-0.00169416 0.0231128 0)
(0.00194807 0.0296166 0)
(0.0126397 -0.00278366 0)
(0.0390989 -0.0774322 0)
(0.0867135 -0.197209 0)
(0.157309 -0.35555 0)
(0.245357 -0.533388 0)
(0.339758 -0.705891 0)
(0.428749 -0.851886 0)
(0.503403 -0.958764 0)
(-0.00158241 0.0229335 0)
(0.000365741 0.0362699 0)
(0.00759967 0.0173952 0)
(0.0277024 -0.0363105 0)
(0.0656141 -0.12902 0)
(0.125564 -0.26018 0)
(0.206238 -0.419158 0)
(0.299904 -0.586547 0)
(0.395534 -0.741266 0)
(0.482616 -0.867036 0)
(-0.000763916 0.0224741 0)
(0.000132813 0.0403986 0)
(0.00453952 0.0316738 0)
(0.0188381 -0.00489593 0)
(0.0476325 -0.0740118 0)
(0.0961097 -0.177986 0)
(0.166118 -0.313031 0)
(0.25391 -0.466669 0)
(0.350875 -0.620992 0)
(0.446464 -0.75857 0)
(-0.000505818 0.0219228 0)
(-0.000968067 0.0424556 0)
(0.0019686 0.0413356 0)
(0.0115158 0.0177227 0)
(0.032772 -0.0317485 0)
(0.0703661 -0.110725 0)
(0.128033 -0.21981 0)
(0.20569 -0.353088 0)
(0.298234 -0.497877 0)
(0.39683 -0.638379 0)
(-0.000440347 0.0206724 0)
(-0.00237515 0.042968 0)
(-0.000486521 0.0474565 0)
(0.0057339 0.0338199 0)
(0.0209432 -0.000236125 0)
(0.0490608 -0.0580779 0)
(0.0943508 -0.142285 0)
(0.159241 -0.251733 0)
(0.242253 -0.3795 0)
(0.337571 -0.513636 0)
(-0.000320633 0.0191835 0)
(-0.00208316 0.0423551 0)
(-0.00129053 0.050911 0)
(0.00220744 0.0445658 0)
(0.0125371 0.0222168 0)
(0.0327641 -0.018881 0)
(0.0668575 -0.0815833 0)
(0.118309 -0.167286 0)
(0.188412 -0.273733 0)
(0.274759 -0.393768 0)
(-0.000275435 0.0179752 0)
(-0.00167074 0.0413715 0)
(-0.00191682 0.0523903 0)
(0.00016885 0.0513546 0)
(0.00691069 0.0375912 0)
(0.0210967 0.00921293 0)
(0.0458955 -0.0361356 0)
(0.0848813 -0.100693 0)
(0.140835 -0.184965 0)
(0.214229 -0.286045 0)
(-0.000253069 0.0169125 0)
(-0.00145808 0.0401332 0)
(-0.00235997 0.0529522 0)
(-0.000872289 0.0556573 0)
(0.00354113 0.048072 0)
(0.0133044 0.029088 0)
(0.0308513 -0.0029803 0)
(0.0592545 -0.0501276 0)
(0.101678 -0.113987 0)
(0.160334 -0.194447 0)
(-0.000161437 0.0160406 0)
(-0.00100537 0.0389815 0)
(-0.00173159 0.0530457 0)
(-0.000829345 0.0584118 0)
(0.00193439 0.055137 0)
(0.00856305 0.0428571 0)
(0.0207949 0.0205042 0)
(0.040939 -0.0132966 0)
(0.0718252 -0.0602035 0)
(0.116219 -0.12135 0)
(-8.42685e-05 0.0155024 0)
(-0.000644174 0.0382266 0)
(-0.00114619 0.0529859 0)
(-0.000814887 0.0600407 0)
(0.000997385 0.059842 0)
(0.00546675 0.0523422 0)
(0.0140153 0.0369702 0)
(0.0282857 0.0128472 0)
(0.0503231 -0.0210985 0)
(0.0826468 -0.0661799 0)
(-4.16093e-05 0.0151644 0)
(-0.000525563 0.0376242 0)
(-0.00111513 0.0527275 0)
(-0.00142202 0.0610085 0)
(-0.000267143 0.0630038 0)
(0.00259654 0.05895 0)
(0.00859074 0.0486409 0)
(0.018823 0.0315186 0)
(0.034718 0.00688989 0)
(0.0579985 -0.0260479 0)
(-2.37099e-05 0.0148425 0)
(-0.000657845 0.0368331 0)
(-0.00164667 0.0519493 0)
(-0.00264788 0.0610489 0)
(-0.00252859 0.0646627 0)
(-0.00108269 0.0633724 0)
(0.00287748 0.0569646 0)
(0.010213 0.0450902 0)
(0.0218839 0.0272644 0)
(0.0389974 0.00300778 0)
(-4.2794e-05 0.0143525 0)
(-0.00109214 0.035512 0)
(-0.00282662 0.0502938 0)
(-0.0047679 0.0598381 0)
(-0.00624893 0.0648508 0)
(-0.00612746 0.0656291 0)
(-0.00420344 0.0625624 0)
(0.000699495 0.0549548 0)
(0.00917121 0.0424287 0)
(0.0219801 0.0246075 0)
(-0.00010199 0.013491 0)
(-0.00180035 0.0332801 0)
(-0.00454908 0.0473159 0)
(-0.00783725 0.0569157 0)
(-0.0108762 0.0629707 0)
(-0.0127443 0.0658461 0)
(-0.0128919 0.0653357 0)
(-0.0105726 0.0615221 0)
(-0.00505996 0.0535162 0)
(0.00421121 0.0409438 0)
(-0.000189043 0.012105 0)
(-0.00265555 0.0298766 0)
(-0.00653523 0.0427383 0)
(-0.0112918 0.0520594 0)
(-0.0160668 0.0587354 0)
(-0.020135 0.063143 0)
(-0.02274 0.0652784 0)
(-0.0233979 0.0644973 0)
(-0.0212028 0.0606073 0)
(-0.0155216 0.0527083 0)
(-0.000282119 0.0101508 0)
(-0.00346339 0.0252625 0)
(-0.00837227 0.0365271 0)
(-0.0144936 0.0451801 0)
(-0.0209818 0.0520449 0)
(-0.0272128 0.0574708 0)
(-0.0325501 0.0613737 0)
(-0.0363332 0.0634641 0)
(-0.037988 0.0631359 0)
(-0.0366704 0.0594416 0)
(-0.000349325 0.00773468 0)
(-0.00398387 0.0196864 0)
(-0.00955335 0.0289867 0)
(-0.0166236 0.0365492 0)
(-0.0244475 0.0430593 0)
(-0.0325412 0.0488543 0)
(-0.040408 0.0538911 0)
(-0.0474792 0.0578165 0)
(-0.0529451 0.0601796 0)
(-0.0565908 0.0605171 0)
(-0.000360111 0.00512284 0)
(-0.0040096 0.0136956 0)
(-0.00964004 0.0207914 0)
(-0.0169508 0.0268755 0)
(-0.0253641 0.0324409 0)
(-0.0345813 0.0378026 0)
(-0.0442909 0.04301 0)
(-0.0540777 0.0478341 0)
(-0.0633685 0.0518072 0)
(-0.0714599 0.0543926 0)
(-0.000289257 0.00269339 0)
(-0.00344102 0.0080412 0)
(-0.0084158 0.0128841 0)
(-0.0150811 0.0172287 0)
(-0.0230559 0.0213564 0)
(-0.0322197 0.0255362 0)
(-0.0424638 0.0298922 0)
(-0.0535954 0.0343562 0)
(-0.0652715 0.0386638 0)
(-0.0769683 0.0423968 0)
(-0.000159649 0.000818352 0)
(-0.00233666 0.00349774 0)
(-0.00600115 0.00628017 0)
(-0.0111628 0.00885123 0)
(-0.0176116 0.0113156 0)
(-0.0253377 0.0138743 0)
(-0.0343775 0.0166697 0)
(-0.0447473 0.0197447 0)
(-0.0563755 0.0230321 0)
(-0.0690456 0.0263646 0)
(-4.8854e-05 -0.000192487 0)
(-0.00093485 0.00071877 0)
(-0.0029087 0.00191877 0)
(-0.00599897 0.00299992 0)
(-0.0100837 0.00399235 0)
(-0.0151643 0.00503824 0)
(-0.0213168 0.00620393 0)
(-0.028657 0.00755002 0)
(-0.037289 0.00909623 0)
(-0.0472641 0.0108278 0)
(0.000136572 -0.000173676 0)
(0.000230535 -5.36288e-05 0)
(-0.000224284 9.72452e-05 0)
(-0.00118626 0.000167761 0)
(-0.0025499 0.000173854 0)
(-0.00429208 0.000204974 0)
(-0.00646331 0.000249565 0)
(-0.00913213 0.00032536 0)
(-0.0123862 0.000496108 0)
(-0.0163215 0.000736221 0)
(-0.011899 -0.118422 0)
(-0.0707531 -0.00863284 0)
(-0.0677216 0.0117664 0)
(-0.0513423 0.0114118 0)
(-0.0394554 0.00667537 0)
(-0.030364 0.00358873 0)
(-0.023395 0.00235801 0)
(-0.0180472 0.00163362 0)
(-0.0138087 0.00115574 0)
(-0.0104006 0.000839849 0)
(-0.00760968 0.000619492 0)
(-0.00528395 0.000410503 0)
(-0.00331069 0.000287235 0)
(-0.00157068 0.000385187 0)
(-0.000115575 0.00031864 0)
(0.000839509 8.11483e-05 0)
(0.00183476 0.000280766 0)
(0.00237745 0.000100697 0)
(0.00259911 -0.000212848 0)
(0.00251023 -0.000275103 0)
(0.00216391 -0.0002476 0)
(0.00163264 -0.000233946 0)
(0.000996051 -0.000227732 0)
(0.000416578 -0.000170452 0)
(3.81541e-05 -5.64408e-05 0)
(-0.00154964 -0.194165 0)
(-0.0634113 -0.0278342 0)
(-0.0768687 0.0145898 0)
(-0.0743101 0.0223501 0)
(-0.0660579 0.0210396 0)
(-0.0567195 0.0174537 0)
(-0.0475435 0.0142137 0)
(-0.0393957 0.0114642 0)
(-0.0322998 0.00930241 0)
(-0.0261094 0.00767164 0)
(-0.0206554 0.00645137 0)
(-0.0157948 0.00551388 0)
(-0.0114414 0.00475193 0)
(-0.00757132 0.00404841 0)
(-0.0041849 0.00329424 0)
(-0.00132268 0.00253897 0)
(0.000972165 0.00185215 0)
(0.00258684 0.00109171 0)
(0.00358063 0.000310968 0)
(0.00393937 -0.000411807 0)
(0.00368935 -0.00101672 0)
(0.00295529 -0.00139998 0)
(0.00192982 -0.00152165 0)
(0.000901264 -0.00125875 0)
(0.000111261 -0.000541669 0)
(0.0257152 -0.282364 0)
(-0.0360498 -0.0796634 0)
(-0.0622006 -0.00143787 0)
(-0.071147 0.0238225 0)
(-0.0702497 0.0291389 0)
(-0.0649836 0.0280046 0)
(-0.0584582 0.0248652 0)
(-0.0514362 0.0214924 0)
(-0.0446412 0.0184837 0)
(-0.0382106 0.0160286 0)
(-0.032129 0.0140775 0)
(-0.026361 0.0124891 0)
(-0.0208976 0.0111059 0)
(-0.0157751 0.00977938 0)
(-0.0110537 0.00838224 0)
(-0.00682518 0.00687304 0)
(-0.00322515 0.00524558 0)
(-0.000378572 0.00348451 0)
(0.00165893 0.00168105 0)
(0.00285329 -3.02604e-05 0)
(0.0032268 -0.00145926 0)
(0.00288784 -0.00246913 0)
(0.00202307 -0.00293302 0)
(0.00101706 -0.00258068 0)
(0.000132675 -0.00122966 0)
(0.0520171 -0.374475 0)
(-0.0112841 -0.142575 0)
(-0.0460761 -0.031927 0)
(-0.0624908 0.0141294 0)
(-0.067559 0.0300017 0)
(-0.0667139 0.0333977 0)
(-0.0634545 0.0323006 0)
(-0.0590934 0.0295799 0)
(-0.0540762 0.0266704 0)
(-0.0488197 0.0241199 0)
(-0.0433683 0.0220309 0)
(-0.037748 0.0202812 0)
(-0.032001 0.0186744 0)
(-0.0262143 0.0170118 0)
(-0.0205186 0.0151265 0)
(-0.015091 0.0129249 0)
(-0.0101438 0.0103867 0)
(-0.00588417 0.00755506 0)
(-0.00248033 0.00456844 0)
(-4.66609e-05 0.00164037 0)
(0.00137705 -0.000963842 0)
(0.00185593 -0.0029572 0)
(0.00151872 -0.00401833 0)
(0.000914187 -0.00378086 0)
(0.000122277 -0.00192643 0)
(0.0775579 -0.461943 0)
(0.0123182 -0.209712 0)
(-0.0291341 -0.0705399 0)
(-0.0514697 -0.00428125 0)
(-0.06229 0.0239825 0)
(-0.0661179 0.0334862 0)
(-0.0665599 0.0352137 0)
(-0.0651699 0.0341066 0)
(-0.0627838 0.032137 0)
(-0.0595575 0.0302915 0)
(-0.0555621 0.0288195 0)
(-0.0508235 0.0276221 0)
(-0.0453758 0.0264537 0)
(-0.039333 0.0250496 0)
(-0.0328744 0.0231717 0)
(-0.0262564 0.0206614 0)
(-0.0197927 0.0174659 0)
(-0.0138181 0.0136536 0)
(-0.00864579 0.00942259 0)
(-0.00452538 0.00508626 0)
(-0.00160565 0.00104566 0)
(8.93809e-05 -0.00224339 0)
(0.000741932 -0.00427948 0)
(0.000616447 -0.00455441 0)
(0.000109364 -0.00248213 0)
(0.105276 -0.546583 0)
(0.0385552 -0.282401 0)
(-0.00986809 -0.116856 0)
(-0.0387195 -0.0302106 0)
(-0.0550403 0.0107986 0)
(-0.0638451 0.0278434 0)
(-0.0682944 0.0335065 0)
(-0.070705 0.0345344 0)
(-0.0715478 0.0340825 0)
(-0.070934 0.0336583 0)
(-0.069104 0.0335871 0)
(-0.065945 0.0337627 0)
(-0.0613757 0.0338848 0)
(-0.0554993 0.0335695 0)
(-0.0485015 0.0324528 0)
(-0.0406977 0.030262 0)
(-0.032514 0.0268683 0)
(-0.024448 0.0223235 0)
(-0.0170108 0.0168771 0)
(-0.010656 0.0109622 0)
(-0.00571141 0.00515817 0)
(-0.00232821 0.000138944 0)
(-0.000418289 -0.00337702 0)
(0.00016383 -0.0046458 0)
(0.00021693 -0.00282671 0)
(0.136044 -0.630234 0)
(0.0682307 -0.36149 0)
(0.0126262 -0.172376 0)
(-0.0236859 -0.0643782 0)
(-0.0460205 -0.00923678 0)
(-0.0598255 0.0159796 0)
(-0.0688595 0.0261379 0)
(-0.0751531 0.0298962 0)
(-0.0796699 0.0316884 0)
(-0.0825464 0.0333263 0)
(-0.0836624 0.0353799 0)
(-0.0828133 0.0378245 0)
(-0.0798521 0.0402416 0)
(-0.0747482 0.0420746 0)
(-0.0676298 0.0427606 0)
(-0.0588177 0.0418291 0)
(-0.0488234 0.0389861 0)
(-0.0383187 0.0341884 0)
(-0.0280682 0.0276921 0)
(-0.0188205 0.0200551 0)
(-0.0111865 0.0120839 0)
(-0.00553954 0.00474551 0)
(-0.0019617 -0.00092623 0)
(-0.000264421 -0.00385237 0)
(0.000225479 -0.00293097 0)
(0.169851 -0.712435 0)
(0.101682 -0.446237 0)
(0.0394065 -0.238165 0)
(-0.00528342 -0.107666 0)
(-0.0343343 -0.0368931 0)
(-0.0535895 -0.00227629 0)
(-0.0672433 0.0131213 0)
(-0.0778387 0.019999 0)
(-0.0864583 0.024173 0)
(-0.0932575 0.0282783 0)
(-0.0979954 0.0331476 0)
(-0.100305 0.0387267 0)
(-0.0998518 0.0444973 0)
(-0.0964043 0.0497078 0)
(-0.089929 0.0535181 0)
(-0.080653 0.0551485 0)
(-0.0690867 0.0540082 0)
(-0.056026 0.0498133 0)
(-0.0425047 0.042709 0)
(-0.0296582 0.0333317 0)
(-0.0185254 0.0227549 0)
(-0.00985517 0.0123521 0)
(-0.00399022 0.00362578 0)
(-0.000830825 -0.00188417 0)
(-1.17619e-07 -0.00271933 0)
(0.206662 -0.791844 0)
(0.139399 -0.535178 0)
(0.071605 -0.314132 0)
(0.0180223 -0.161422 0)
(-0.0187737 -0.0730556 0)
(-0.0440056 -0.0274273 0)
(-0.0625265 -0.00594248 0)
(-0.0774598 0.00439323 0)
(-0.0902695 0.0111456 0)
(-0.10125 0.0179117 0)
(-0.1101 0.0259428 0)
(-0.116309 0.0352776 0)
(-0.119323 0.0453322 0)
(-0.118644 0.0551637 0)
(-0.113956 0.0635912 0)
(-0.105265 0.0694159 0)
(-0.092922 0.0715998 0)
(-0.0777186 0.0694092 0)
(-0.0608505 0.0626428 0)
(-0.0438688 0.0518496 0)
(-0.0283883 0.0383408 0)
(-0.0157546 0.0240109 0)
(-0.00676995 0.0110398 0)
(-0.00160894 0.00164117 0)
(-7.9146e-05 -0.00208694 0)
(0.246185 -0.866475 0)
(0.181557 -0.626237 0)
(0.110067 -0.39938 0)
(0.047885 -0.226955 0)
(0.00214567 -0.118601 0)
(-0.0297472 -0.0599481 0)
(-0.0533264 -0.0310644 0)
(-0.0724658 -0.0167616 0)
(-0.0892429 -0.00739506 0)
(-0.104271 0.00194907 0)
(-0.117326 0.0131485 0)
(-0.127822 0.0264747 0)
(-0.135042 0.0413818 0)
(-0.138233 0.0568289 0)
(-0.136721 0.0712639 0)
(-0.130154 0.0830538 0)
(-0.118459 0.0905596 0)
(-0.102349 0.092372 0)
(-0.0828387 0.0876321 0)
(-0.0617582 0.0764181 0)
(-0.0413582 0.0600655 0)
(-0.0238195 0.0410133 0)
(-0.0107419 0.0223757 0)
(-0.0029071 0.00737529 0)
(-0.000417449 -0.000827334 0)
(0.28805 -0.934467 0)
(0.227957 -0.716636 0)
(0.155177 -0.491969 0)
(0.0856429 -0.304387 0)
(0.0302799 -0.175204 0)
(-0.00942286 -0.100513 0)
(-0.0383768 -0.062247 0)
(-0.0614896 -0.0430405 0)
(-0.0816838 -0.0309313 0)
(-0.100174 -0.0192669 0)
(-0.11699 -0.00522343 0)
(-0.131579 0.0118737 0)
(-0.14317 0.0316028 0)
(-0.150682 0.0530161 0)
(-0.153757 0.0744182 0)
(-0.151142 0.0937193 0)
(-0.141947 0.108593 0)
(-0.127021 0.116777 0)
(-0.106672 0.116593 0)
(-0.0825575 0.106974 0)
(-0.0574231 0.0887368 0)
(-0.0343912 0.0646057 0)
(-0.0162543 0.0388052 0)
(-0.00485341 0.0161129 0)
(-0.000608374 0.00145931 0)
(0.331414 -0.99409 0)
(0.278067 -0.803405 0)
(0.206861 -0.589003 0)
(0.132194 -0.392782 0)
(0.067456 -0.244162 0)
(0.0185791 -0.150254 0)
(-0.0165679 -0.0997064 0)
(-0.0436046 -0.0738734 0)
(-0.0665784 -0.0584862 0)
(-0.0875894 -0.0447096 0)
(-0.10721 -0.0283462 0)
(-0.125113 -0.00803986 0)
(-0.140558 0.0160485 0)
(-0.152631 0.0428949 0)
(-0.160104 0.0710631 0)
(-0.162248 0.0988333 0)
(-0.15847 0.122508 0)
(-0.147115 0.139335 0)
(-0.12879 0.146795 0)
(-0.10394 0.141955 0)
(-0.0754563 0.12415 0)
(-0.0471576 0.0956719 0)
(-0.0233122 0.0616631 0)
(-0.0074564 0.0291032 0)
(-0.000374543 0.00522139 0)
(0.375271 -1.0422 0)
(0.330717 -0.882696 0)
(0.264257 -0.68647 0)
(0.187664 -0.489766 0)
(0.115057 -0.325726 0)
(0.0562453 -0.211303 0)
(0.0131866 -0.144098 0)
(-0.0183099 -0.108981 0)
(-0.0437198 -0.0889832 0)
(-0.0663077 -0.0729473 0)
(-0.0875096 -0.0548216 0)
(-0.107524 -0.0321866 0)
(-0.125882 -0.00464555 0)
(-0.141825 0.027083 0)
(-0.154394 0.0615369 0)
(-0.161903 0.09644 0)
(-0.164226 0.129198 0)
(-0.157787 0.156443 0)
(-0.144518 0.174264 0)
(-0.122195 0.178063 0)
(-0.093079 0.164435 0)
(-0.0610704 0.134023 0)
(-0.0317154 0.0919042 0)
(-0.0108134 0.0472737 0)
(-0.000506709 0.0106473 0)
(0.418283 -1.0785 0)
(0.38428 -0.951501 0)
(0.325832 -0.77978 0)
(0.251258 -0.59143 0)
(0.173676 -0.418649 0)
(0.105372 -0.285088 0)
(0.0527143 -0.19797 0)
(0.0148124 -0.148835 0)
(-0.01348 -0.121814 0)
(-0.0371392 -0.102547 0)
(-0.0587695 -0.0828232 0)
(-0.0793816 -0.0587756 0)
(-0.099004 -0.0292348 0)
(-0.117228 0.00555295 0)
(-0.133343 0.0445036 0)
(-0.146248 0.0859973 0)
(-0.154541 0.127845 0)
(-0.157143 0.165341 0)
(-0.149321 0.194865 0)
(-0.132994 0.210668 0)
(-0.106872 0.20575 0)
(-0.074094 0.177608 0)
(-0.0406819 0.129323 0)
(-0.0147755 0.0713471 0)
(-0.000765822 0.0185467 0)
(0.458831 -1.0996 0)
(0.436877 -1.00595 0)
(0.389427 -0.86383 0)
(0.321124 -0.692498 0)
(0.242708 -0.519719 0)
(0.167066 -0.371763 0)
(0.104106 -0.263905 0)
(0.0572785 -0.196321 0)
(0.023835 -0.157559 0)
(-0.00158992 -0.132814 0)
(-0.0233449 -0.110829 0)
(-0.0436586 -0.0856613 0)
(-0.0632984 -0.0550748 0)
(-0.0822747 -0.0187371 0)
(-0.100292 0.0227258 0)
(-0.116661 0.0681073 0)
(-0.130267 0.115898 0)
(-0.1392 0.163403 0)
(-0.140922 0.20543 0)
(-0.13288 0.234839 0)
(-0.113412 0.242995 0)
(-0.083653 0.222553 0)
(-0.0488468 0.172191 0)
(-0.0188955 0.101289 0)
(-0.00108115 0.0290794 0)
(0.495255 -1.10453 0)
(0.486099 -1.04414 0)
(0.452101 -0.934143 0)
(0.39428 -0.78696 0)
(0.320058 -0.62371 0)
(0.241079 -0.469235 0)
(0.169054 -0.343521 0)
(0.111515 -0.255055 0)
(0.0696762 -0.199584 0)
(0.0397703 -0.164983 0)
(0.016638 -0.13862 0)
(-0.00352918 -0.11195 0)
(-0.0227368 -0.0808109 0)
(-0.0416871 -0.0439995 0)
(-0.0604284 -0.00160014 0)
(-0.0787545 0.0457671 0)
(-0.0959843 0.0971681 0)
(-0.110646 0.150954 0)
(-0.120255 0.203407 0)
(-0.121441 0.24725 0)
(-0.110828 0.271395 0)
(-0.087523 0.26408 0)
(-0.0547478 0.217375 0)
(-0.0225753 0.136064 0)
(-0.00145205 0.0422414 0)
(0.525506 -1.09527 0)
(0.529908 -1.06374 0)
(0.511112 -0.986402 0)
(0.467171 -0.868433 0)
(0.402201 -0.723705 0)
(0.325292 -0.572604 0)
(0.247843 -0.435926 0)
(0.179955 -0.328006 0)
(0.127069 -0.252475 0)
(0.088874 -0.202946 0)
(0.0612338 -0.168214 0)
(0.0393878 -0.138066 0)
(0.0199072 -0.106062 0)
(0.00100902 -0.0693506 0)
(-0.0179402 -0.0271464 0)
(-0.0371218 0.0205576 0)
(-0.0563649 0.0733793 0)
(-0.0747928 0.130743 0)
(-0.0904857 0.190604 0)
(-0.100217 0.247068 0)
(-0.0993865 0.287369 0)
(-0.0843975 0.297764 0)
(-0.0572605 0.261061 0)
(-0.0252441 0.173699 0)
(-0.00217201 0.0577142 0)
(0.547438 -1.06849 0)
(0.565722 -1.06098 0)
(0.56287 -1.01847 0)
(0.535507 -0.932157 0)
(0.48451 -0.812551 0)
(0.415679 -0.674653 0)
(0.338483 -0.536718 0)
(0.263544 -0.415309 0)
(0.19935 -0.320209 0)
(0.149695 -0.252046 0)
(0.113411 -0.204041 0)
(0.0864587 -0.166659 0)
(0.0645429 -0.131851 0)
(0.0445788 -0.0947348 0)
(0.0249252 -0.0530824 0)
(0.00507437 -0.0060446 0)
(-0.0152025 0.0467515 0)
(-0.0357752 0.105364 0)
(-0.0554768 0.169257 0)
(-0.0718056 0.234927 0)
(-0.0802873 0.291947 0)
(-0.0748444 0.320282 0)
(-0.055854 0.299609 0)
(-0.0265734 0.211752 0)
(-0.00289439 0.0749894 0)
(0.557716 -1.02181 0)
(0.590815 -1.04285 0)
(0.603973 -1.02657 0)
(0.594771 -0.973038 0)
(0.561508 -0.883275 0)
(0.506525 -0.766994 0)
(0.436388 -0.638299 0)
(0.360384 -0.512833 0)
(0.28807 -0.403453 0)
(0.226482 -0.316708 0)
(0.178301 -0.2518 0)
(0.142071 -0.202602 0)
(0.114133 -0.16138 0)
(0.0907147 -0.121792 0)
(0.0690693 -0.0798899 0)
(0.0477192 -0.0335781 0)
(0.0261219 0.0184158 0)
(0.00402841 0.0769032 0)
(-0.0182445 0.142304 0)
(-0.0392944 0.213384 0)
(-0.0558558 0.283051 0)
(-0.06169 0.328531 0)
(-0.0503358 0.328798 0)
(-0.0267325 0.247443 0)
(-0.00305523 0.0926762 0)
(0.552488 -0.953949 0)
(0.602142 -1.00136 0)
(0.632153 -1.01252 0)
(0.641447 -0.988817 0)
(0.627919 -0.930097 0)
(0.591194 -0.841205 0)
(0.534723 -0.731268 0)
(0.465182 -0.612604 0)
(0.391156 -0.498061 0)
(0.321061 -0.3976 0)
(0.260782 -0.315799 0)
(0.212368 -0.251503 0)
(0.174484 -0.19967 0)
(0.144041 -0.154166 0)
(0.117823 -0.109837 0)
(0.0934052 -0.0631511 0)
(0.0694426 -0.0117853 0)
(0.0452587 0.0459906 0)
(0.0205663 0.111334 0)
(-0.00410108 0.184388 0)
(-0.0270189 0.261486 0)
(-0.0435895 0.327083 0)
(-0.0420382 0.346533 0)
(-0.0274873 0.278578 0)
(-0.0027576 0.107755 0)
(0.529854 -0.865257 0)
(0.596008 -0.936814 0)
(0.643818 -0.974566 0)
(0.67186 -0.978481 0)
(0.678159 -0.950749 0)
(0.662753 -0.890667 0)
(0.625418 -0.805716 0)
(0.569649 -0.703853 0)
(0.502021 -0.595079 0)
(0.430426 -0.48982 0)
(0.362138 -0.395949 0)
(0.302102 -0.316932 0)
(0.252115 -0.251813 0)
(0.21125 -0.196699 0)
(0.177078 -0.146737 0)
(0.146915 -0.09753 0)
(0.118615 -0.0456416 0)
(0.0908746 0.0116162 0)
(0.0627526 0.0763443 0)
(0.0340108 0.149645 0)
(0.00523668 0.230305 0)
(-0.0205216 0.30933 0)
(-0.033269 0.353449 0)
(-0.0307224 0.305603 0)
(-0.00245615 0.122934 0)
(0.489813 -0.758188 0)
(0.57033 -0.849709 0)
(0.636211 -0.911542 0)
(0.682189 -0.942534 0)
(0.715311 -0.941476 0)
(0.716211 -0.913157 0)
(0.700941 -0.855759 0)
(0.664791 -0.776723 0)
(0.611176 -0.683194 0)
(0.546596 -0.583566 0)
(0.477915 -0.486253 0)
(0.411214 -0.3975 0)
(0.350761 -0.320125 0)
(0.298367 -0.253586 0)
(0.253611 -0.195017 0)
(0.214694 -0.14052 0)
(0.179367 -0.0862402 0)
(0.145618 -0.028737 0)
(0.11199 0.0349573 0)
(0.0771195 0.106987 0)
(0.0404475 0.187839 0)
(0.00353239 0.273804 0)
(-0.0267884 0.343088 0)
(-0.0415517 0.329231 0)
(-0.0178774 0.161109 0)
(0.43439 -0.638006 0)
(0.524827 -0.742901 0)
(0.605399 -0.824455 0)
(0.670677 -0.878666 0)
(0.717331 -0.905413 0)
(0.749184 -0.903384 0)
(0.754186 -0.876444 0)
(0.740913 -0.823915 0)
(0.707671 -0.751856 0)
(0.658224 -0.666856 0)
(0.598114 -0.576017 0)
(0.533017 -0.485981 0)
(0.468076 -0.401697 0)
(0.407113 -0.325637 0)
(0.352055 -0.257749 0)
(0.30289 -0.195972 0)
(0.258282 -0.137282 0)
(0.216268 -0.0783823 0)
(0.17465 -0.0160155 0)
(0.131227 0.0525652 0)
(0.083848 0.128859 0)
(0.031955 0.212325 0)
(-0.0213191 0.295093 0)
(-0.0770404 0.33885 0)
(-0.0879592 0.222523 0)
(0.368897 -0.513836 0)
(0.463292 -0.623921 0)
(0.553564 -0.718743 0)
(0.634218 -0.792105 0)
(0.699534 -0.84122 0)
(0.748994 -0.865847 0)
(0.779576 -0.864352 0)
(0.790221 -0.83997 0)
(0.780161 -0.793142 0)
(0.751886 -0.728148 0)
(0.708414 -0.651693 0)
(0.653873 -0.569547 0)
(0.593048 -0.486599 0)
(0.530478 -0.40681 0)
(0.469639 -0.332529 0)
(0.412356 -0.264132 0)
(0.35879 -0.200304 0)
(0.307991 -0.138982 0)
(0.258025 -0.0777533 0)
(0.206104 -0.0143157 0)
(0.148828 0.0530774 0)
(0.0831254 0.12451 0)
(0.00272547 0.197663 0)
(-0.107357 0.246615 0)
(-0.191597 0.206369 0)
(0.299767 -0.394324 0)
(0.391494 -0.501197 0)
(0.485301 -0.601222 0)
(0.575403 -0.687297 0)
(0.655998 -0.754179 0)