/*--------------------------------*- C++ -*----------------------------------*\
| =========                 |                                                 |
| \\      /  F ield         | OpenFOAM: The Open Source CFD Toolbox           |
|  \\    /   O peration     | Version:  v2012                                 |
|   \\  /    A nd           | Website:  www.openfoam.com                      |
|    \\/     M anipulation  |                                                 |
\*---------------------------------------------------------------------------*/
FoamFile
{
    version     2.0;
    format      ascii;
    class       volScalarField;
    location    "643";
    object      age;
}
// * * * * * * * * * * * * * * * * * * * * * * * * * * * * * * * * * * * * * //

dimensions      [0 0 1 0 0 0 0];


internalField   nonuniform List<scalar> 
6532
(
0.0125017
0.0124996
0.0124998
0.0124998
0.0124999
0.0124999
0.0124998
0.0124998
0.0124996
0.0125017
0.0375091
0.0374975
0.0374976
0.0374979
0.0374981
0.0374981
0.0374979
0.0374976
0.0374975
0.0375091
0.0625268
0.0624943
0.0624926
0.062493
0.0624933
0.0624933
0.062493
0.0624926
0.0624943
0.0625268
0.0875553
0.0874912
0.0874848
0.0874843
0.0874846
0.0874846
0.0874843
0.0874847
0.0874911
0.0875553
0.112594
0.112488
0.112474
0.112472
0.112472
0.112471
0.112472
0.112474
0.112488
0.112594
0.137644
0.137486
0.137461
0.137455
0.137454
0.137454
0.137455
0.137461
0.137486
0.137644
0.162703
0.162485
0.162446
0.162435
0.162432
0.162432
0.162435
0.162446
0.162485
0.162703
0.187771
0.187484
0.187428
0.187412
0.187406
0.187406
0.187411
0.187428
0.187484
0.187771
0.212848
0.212484
0.212409
0.212385
0.212377
0.212377
0.212384
0.212408
0.212483
0.212848
0.237933
0.237484
0.237387
0.237355
0.237344
0.237343
0.237354
0.237387
0.237484
0.237932
0.263027
0.262485
0.262364
0.262322
0.262307
0.262307
0.262321
0.262363
0.262484
0.263025
0.288128
0.287487
0.287339
0.287286
0.287267
0.287267
0.287285
0.287338
0.287485
0.288125
0.313236
0.312489
0.312313
0.312248
0.312224
0.312223
0.312246
0.31231
0.312486
0.313233
0.338352
0.337492
0.337285
0.337207
0.337178
0.337177
0.337205
0.337281
0.337487
0.338346
0.363476
0.362496
0.362255
0.362164
0.362129
0.362127
0.36216
0.362249
0.362488
0.363471
0.388608
0.387501
0.387225
0.387119
0.387077
0.387075
0.387113
0.387216
0.387489
0.388579
0.413748
0.412507
0.412194
0.412071
0.412022
0.412019
0.412062
0.41218
0.412489
0.41379
0.438896
0.437515
0.437162
0.437022
0.436965
0.43696
0.437007
0.43714
0.437488
0.438598
0.464055
0.462527
0.462131
0.461972
0.461905
0.461897
0.461948
0.462096
0.462487
0.465148
0.489225
0.487542
0.487101
0.486921
0.486843
0.486829
0.486882
0.487043
0.48747
0.484351
0.514689
0.512843
0.512353
0.512149
0.512056
0.512034
0.512084
0.512253
0.512723
0.535358
0.540452
0.538432
0.537889
0.537659
0.537549
0.537516
0.537561
0.537739
0.538259
0.570342
0.566238
0.564036
0.563436
0.563177
0.563048
0.563002
0.563043
0.563238
0.563807
0.604614
0.592053
0.589661
0.589
0.58871
0.588561
0.588501
0.588539
0.588768
0.589382
0.638203
0.617905
0.615315
0.614587
0.614265
0.614093
0.614019
0.61406
0.614343
0.615011
0.671118
0.643803
0.641005
0.640207
0.63985
0.639654
0.639567
0.639618
0.639983
0.64071
0.703203
0.669758
0.666743
0.665869
0.665474
0.665253
0.665154
0.665224
0.665703
0.666498
0.734425
0.695782
0.692541
0.691583
0.691148
0.690901
0.690793
0.690892
0.691519
0.692389
0.764638
0.72189
0.718412
0.717364
0.716886
0.716612
0.716496
0.716635
0.717446
0.718382
0.793662
0.7481
0.744374
0.743227
0.742704
0.7424
0.742279
0.742469
0.743502
0.744488
0.821432
0.774435
0.770448
0.769192
0.768619
0.768284
0.768161
0.768413
0.769706
0.770722
0.84794
0.800919
0.796658
0.795281
0.794653
0.794287
0.794162
0.794487
0.796073
0.797097
0.873176
0.827583
0.823035
0.821521
0.820834
0.820433
0.820308
0.820711
0.82262
0.823629
0.897172
0.854465
0.849614
0.847946
0.847194
0.846753
0.846628
0.84711
0.849362
0.850332
0.920003
0.881608
0.876439
0.874595
0.873769
0.873285
0.873155
0.873712
0.876313
0.877224
0.941784
0.909069
0.903562
0.901518
0.900607
0.900074
0.899932
0.90055
0.903491
0.904332
0.962692
0.93691
0.931046
0.928772
0.927764
0.927172
0.927009
0.927666
0.930915
0.931698
0.983018
0.965213
0.958971
0.956431
0.955309
0.954651
0.954452
0.955115
0.958619
0.959382
1.00317
0.993487
0.986853
0.984013
0.982759
0.982024
0.981776
0.982405
0.986084
0.986909
1.02291
1.02181
1.01477
1.01159
1.01018
1.00936
1.00905
1.0096
1.01335
1.01434
1.04335
1.05088
1.0434
1.03983
1.03824
1.03731
1.03692
1.03734
1.04106
1.04229
1.06493
1.08084
1.07288
1.06887
1.06705
1.066
1.06551
1.06577
1.0693
1.07091
1.08675
1.11188
1.1034
1.09886
1.09677
1.09558
1.09497
1.09503
1.09824
1.1004
1.10888
1.14423
1.13515
1.13002
1.12759
1.12623
1.12548
1.12531
1.12803
1.13098
1.13152
1.17818
1.16841
1.16259
1.15974
1.15815
1.15726
1.15686
1.15893
1.16295
1.15438
1.2141
1.20351
1.19687
1.19349
1.19162
1.19055
1.18994
1.19118
1.19666
1.17959
1.25248
1.24089
1.23325
1.22921
1.22697
1.22566
1.22487
1.22518
1.23146
1.21712
1.29397
1.2811
1.27225
1.26735
1.26459
1.26297
1.26201
1.26147
1.2672
1.26014
1.33953
1.32494
1.31452
1.30849
1.30502
1.30295
1.30179
1.30065
1.30464
1.30411
1.39054
1.37354
1.36101
1.35343
1.34895
1.34623
1.34473
1.34328
1.34514
1.34778
1.44922
1.42861
1.41302
1.40328
1.39733
1.39364
1.39154
1.38992
1.39005
1.39274
1.51952
1.49306
1.4727
1.45967
1.45152
1.44636
1.44328
1.44131
1.44039
1.44173
1.60891
1.57156
1.54313
1.52492
1.51337
1.50595
1.5013
1.49852
1.49695
1.497
1.73888
1.67689
1.63161
1.60378
1.58657
1.57551
1.56835
1.56391
1.56136
1.56039
1.95571
1.82898
1.74816
1.70091
1.67325
1.65643
1.64587
1.6393
1.63547
1.63366
2.85548
2.18035
1.9386
1.84948
1.79748
1.76601
1.74601
1.73317
1.72526
1.72091
13.3044
7.09236
3.35143
2.10314
1.93348
1.88814
1.86529
1.85106
1.84131
1.83484
12.0544
11.5812
7.91659
4.37368
2.68927
2.14741
2.02863
1.98983
1.97113
1.96239
11.4861
11.6932
11.049
8.12389
5.44725
3.7558
2.89466
2.47613
2.31629
2.24726
10.9443
10.0498
9.62204
8.69693
7.30279
6.16941
5.36642
4.75075
4.30383
3.99209
141.036
165.956
165.903
166.385
167.146
168.321
169.936
172.009
174.841
178.126
181.479
185.34
189.012
192.032
194.251
195.646
196.202
196.394
196.576
196.76
196.952
197.165
197.423
197.796
199.941
138.631
163.603
161.484
161.564
161.68
162.193
163.73
166.966
173.43
182.956
194.157
206.36
218.698
230.22
240.004
247.188
251.225
251.078
246.176
237.057
225.296
213.406
204.246
199.479
199.569
132.082
162.45
161.091
160.937
160.836
160.922
161.45
163.461
170.642
184.956
203.823
225.903
249.834
273.722
295.232
311.909
321.594
322.873
315.209
298.801
275.041
247.417
222.086
205.198
199.903
124.739
162.103
161.186
160.958
160.625
160.562
160.735
161.515
166.802
183.229
208.37
240.073
276.78
315.776
352.903
382.978
401.203
404.462
392.266
366.296
329.621
286.554
244.559
213.576
200.769
116.757
162.322
162.201
162.004
160.971
160.4
160.344
160.755
163.309
178.299
207.163
246.8
295.717
350.892
406.282
452.924
482.303
488.743
471.311
433.664
382.284
323.913
266.682
222.34
201.822
107.78
162.808
164.365
164.775
162.858
160.918
160.233
160.194
160.974
171.373
200.321
244.7
303.113
372.896
446.642
511.208
553.751
565.069
543.368
494.364
428.429
355.789
285.562
230.02
202.788
98.4949
162.247
167.317
169.365
166.878
162.999
160.531
160.021
160.215
165.096
189.221
233.997
297.336
377.318
466.239
547.693
604.378
622.861
599.422
541.874
464.194
380.077
299.907
235.984
203.569
89.118
160.456
170.425
175.346
173.242
167.553
162.297
160.054
159.823
161.046
176.633
216.656
279.159
363.116
461.06
555.781
625.655
654.891
632.136
571.012
486.848
395.714
309.327
240.068
204.146
79.6908
157.334
172.976
181.661
181.32
174.671
166.622
161.163
159.705
159.701
166.476
196.233
251.841
332.263
432.299
534.587
614.355
649.614
639.571
579.805
495.204
402.408
313.864
242.292
204.524
70.3264
152.71
174.774
187.588
190.367
184.12
174.025
164.845
160.127
159.444
160.727
177.208
220.644
290.423
384.283
487.53
574.908
622.886
620.025
568.576
490.017
400.662
313.863
242.797
204.745
61.1708
146.514
175.979
192.592
199.601
195.257
184.435
172.308
163.077
159.455
159.319
164.578
191.46
245.107
325.277
422.159
512.159
568.274
577.374
540.401
472.902
391.366
309.773
241.693
204.959
52.3273
138.313
176.093
196.36
208.492
207.577
197.565
183.616
170.482
161.822
159.16
159.242
170.048
204.123
264.695
347.743
435.656
499.819
520.622
499.495
446.075
375.685
302.141
239.174
205.173
43.8778
128.567
174.696
198.84
216.58
220.573
213.167
199.074
183.022
169.233
161.112
159.038
160.299
174.413
212.199
274.446
352.296
422.323
456.833
450.293
412.469
355.203
291.723
235.584
205.389
35.8914
117.487
171.409
200.022
223.43
233.577
230.534
218.407
201.405
183.668
169.026
160.9
158.959
160.932
175.899
213.571
272.126
339.348
387.961
397.486
375.121
331.776
279.477
231.34
205.611
28.443
105.277
165.905
199.703
228.528
245.686
248.671
240.601
225.082
205.764
186.25
170.182
161.211
158.886
160.606
174.111
207.924
259.888
314.027
343.37
336.246
307.126
266.367
226.888
205.842
21.5541
91.7525
157.79
197.584
231.2
256.03
266.415
264.181
252.57
234.511
213.048
191.381
173.083
162.156
158.705
159.713
169.693
197.725
241.075
282.621
297.759
282.256
253.485
222.735
206.088
15.6297
76.9148
146.568
193.066
230.839
263.41
282.033
287.267
281.6
267.54
247.463
223.902
199.727
178.411
164.183
158.431
158.302
164.592
185.128
219.47
250.866
258.404
240.875
218.972
206.354
10.9677
61.3409
131.773
185.192
227.009
266.145
293.728
307.562
309.402
301.519
285.775
264.085
238.581
211.862
187.186
168.417
158.944
156.769
159.403
172.179
197.394
223.907
232.126
218.341
206.678
7.56992
46.2276
113.772
173.188
219.412
263.046
299.399
322.268
332.654
332.176
322.811
305.893
282.943
255.767
226.707
198.743
175.486
161.175
155.706
155.615
161.093
176
197.244
209.19
207.475
5.17312
32.5207
93.1792
156.215
207.33
253.915
296.943
329.178
348.322
356.149
354.177
343.929
326.394
302.839
274.757
244.306
214.032
187.074
167.12
156.468
153.118
153.065
158.313
166.308
169.455
3.53731
20.8244
71.1007
133.751
189.431
238.539
285.314
325.663
354.286
370.689
376.93
374.151
363.546
346.275
322.905
295.012
264.484
233.504
204.518
180.194
163.484
153.4
148.13
146.089
145.757
2.48851
11.8842
48.6617
106.266
164.582
216.448
264.805
309.798
346.936
372.918
387.652
392.382
389.14
379.389
363.291
341.147
314.813
285.981
256.819
229.172
205.117
186.442
173.482
165.894
163.177
1.8526
6.5453
29.105
76.0833
132.589
186.59
236.039
282.371
324.211
358.265
382.474
395.504
399.244
395.975
388.849
374.192
354.52
330.528
304.886
279.523
255.403
234.554
218.663
208.36
203.592
1.49836
3.74943
14.9198
47.5784
95.9723
148.671
198.794
245.21
288.029
325.913
356.879
379.27
392.079
395.751
396.625
387.902
376.238
358.54
337.202
316.584
296.688
277.372
260.797
248.142
240.346
1.32573
2.36295
6.64655
24.4065
59.6185
105.236
153.219
199.024
241.319
279.608
313.025
340.376
361.146
374.514
380.587
380.94
375.512
364.14
347.864
331.053
316.31
301.146
287.44
275.559
265.821
1.25691
1.68366
3.24778
10.122
30.2508
62.9914
103.172
145.248
185.703
222.925
256.163
284.787
308.365
326.407
338.34
344.29
344.822
340.588
332.743
322.62
311.29
299.307
288.036
278.39
270.91
1.24569
1.38976
1.98384
3.71659
11.5528
29.7502
57.1105
90.1142
124.973
158.894
190.231
218.081
241.939
261.482
276.379
286.474
291.983
293.466
291.579
287.014
280.564
273.046
265.203
257.648
250.881
1.26199
1.30715
1.47705
1.91748
3.53335
9.96386
23.7534
44.084
68.7441
95.2461
121.517
146.112
168.126
187.033
202.499
214.351
222.65
227.649
229.757
229.518
227.389
223.883
219.518
214.768
210.041
1.29946
1.30869
1.33692
1.44466
1.59068
2.3326
5.94572
14.0469
27.0376
43.3132
61.2687
79.4763
96.8448
112.616
126.285
137.562
146.36
152.752
156.931
159.161
159.81
159.227
157.707
155.559
153.059
1.34587
1.34482
1.34565
1.36267
1.40911
1.51773
1.63642
2.41455
5.35248
10.8981
19.0933
29.1515
39.8568
50.3948
60.177
68.8006
76.0376
81.8136
86.1606
89.1863
91.0482
91.9346
92.0705
91.6367
90.7841
1.39431
1.39436
1.39011
1.38596
1.39304
1.42042
1.46258
1.54106
1.62462
1.69917
2.40698
4.2219
7.0426
10.643
14.7324
19.0035
23.1721
26.84
29.8716
32.2398
33.9728
35.1366
35.8136
36.1028
36.1057
1.44434
1.44695
1.44729
1.44434
1.44084
1.44145
1.45126
1.47334
1.50776
1.54436
1.60145
1.64976
1.69593
1.74239
1.78851
1.88157
2.1755
2.58097
3.0221
3.44259
3.8056
4.09285
4.29946
4.43035
4.49515
1.49884
1.50203
1.50561
1.50803
1.50856
1.50733
1.50736
1.50966
1.52165
1.53477
1.55583
1.58249
1.61108
1.64069
1.67021
1.70344
1.73957
1.77119
1.80085
1.82998
1.85875
1.88722
1.91543
1.94341
1.97122
1.56105
1.56336
1.5672
1.57199
1.57689
1.58095
1.58427
1.58721
1.59007
1.59604
1.60449
1.6157
1.63189
1.6496
1.66749
1.68801
1.71051
1.73424
1.75839
1.78274
1.80721
1.83177
1.85639
1.88106
1.90577
1.6335
1.63487
1.63781
1.64229
1.64811
1.65481
1.66189
1.66921
1.67618
1.68354
1.69161
1.7007
1.71081
1.72262
1.73615
1.75109
1.76729
1.78469
1.80315
1.82252
1.84263
1.86337
1.88459
1.9067
1.92925
1.71919
1.71948
1.72145
1.725
1.73008
1.7366
1.74435
1.75317
1.76279
1.77304
1.78385
1.79527
1.80728
1.81997
1.8335
1.84789
1.86312
1.87917
1.89601
1.91358
1.93183
1.95068
1.97007
1.98992
2.01017
1.8311
1.82964
1.83008
1.83224
1.83597
1.84119
1.84782
1.85578
1.86496
1.87525
1.88653
1.8987
1.91167
1.92539
1.93981
1.95489
1.97062
1.98695
2.00385
2.02129
2.03922
2.0576
2.07639
2.09554
2.11502
1.95912
1.95895
1.96078
1.96414
1.96879
1.97462
1.98157
1.98961
1.99868
2.00877
2.01981
2.03177
2.04457
2.05817
2.07251
2.08753
2.10317
2.11939
2.13613
2.15336
2.17102
2.18907
2.20747
2.22618
2.24515
2.21256
2.19343
2.18283
2.17775
2.17652
2.17815
2.18202
2.18773
2.195
2.20362
2.21346
2.22438
2.2363
2.24912
2.26277
2.27717
2.29227
2.30798
2.32426
2.34105
2.3583
2.37595
2.39396
2.41228
2.43094
3.78651
3.64995
3.55394
3.48341
3.4302
3.38965
3.3588
3.33565
3.31875
3.30703
3.29966
3.29601
3.29554
3.2978
3.30244
3.30917
3.31775
3.32794
3.33956
3.35243
3.3664
3.38132
3.39708
3.41353
3.43071
207.812
208.129
138.324
161.58
150.932
139.173
145.693
145.6
154.448
165.097
172.165
186.004
204.056
209.518
218.738
237.688
239.09
243.422
259.097
255.562
255.288
265.864
262.87
261.247
245.508
241.572
238.759
205.895
202.47
199.584
150.605
148.359
146.261
89.7484
88.659
87.5313
35.9097
35.5886
35.1826
4.52725
4.54531
4.5547
1.99565
2.01975
2.04366
1.929
1.95073
1.97249
1.95053
1.97065
1.99056
2.02949
2.04778
2.06627
2.13353
2.15104
2.1687
2.26317
2.28017
2.29731
2.44819
2.46481
2.48152
3.44618
3.46189
3.47777
218.243
138.231
134.112
133.59
133.366
133.22
133.093
132.983
132.884
132.794
132.711
132.633
132.56
132.49
132.424
132.36
132.298
132.238
132.18
132.123
132.068
132.014
131.96
131.908
131.856
131.806
131.756
131.706
131.657
131.609
131.561
131.514
131.467
131.42
131.374
131.328
131.283
131.237
131.192
131.147
131.102
131.058
131.013
130.969
130.925
130.88
130.836
130.775
130.696
130.597
130.476
130.332
130.164
129.97
129.75
129.503
129.228
128.928
128.601
128.252
127.885
127.505
127.123
126.752
126.413
126.134
125.949
125.863
125.765
125.647
125.52
125.764
126.269
127.341
129.238
131.738
133.735
134.656
135.085
135.983
156.25
135.351
134.125
133.974
134.211
134.761
135.667
136.931
138.503
140.264
142.131
144.055
145.997
147.93
149.837
151.703
153.52
155.283
156.989
158.636
160.224
161.753
163.223
164.637
165.995
167.298
168.548
169.746
170.894
171.993
173.043
174.047
175.004
175.915
176.779
177.596
178.364
179.079
179.74
180.34
180.876
181.34
181.725
182.024
182.224
182.319
182.303
182.175
181.912
181.501
180.929
180.182
179.248
178.114
176.765
175.186
173.364
171.283
168.93
166.29
163.354
160.116
156.576
152.748
148.66
144.38
140.065
135.968
132.185
128.936
126.331
124.733
124.309
124.725
127.096
132.347
137.855
140.458
137.898
136.669
141.121
134.837
134.48
135.4
137.426
140.651
144.955
150.027
155.536
161.222
166.974
172.677
178.252
183.654
188.853
193.837
198.599
203.143
207.472
211.595
215.52
219.256
222.814
226.203
229.431
232.507
235.438
238.234
240.899
243.441
245.865
248.177
250.381
252.48
254.477
256.372
258.162
259.846
261.417
262.868
264.189
265.37
266.396
267.251
267.918
268.377
268.606
268.587
268.306
267.73
266.836
265.596
263.98
261.961
259.508
256.588
253.165
249.203
244.663
239.505
233.689
227.18
219.949
211.98
203.274
193.863
183.825
173.306
162.548
151.918
141.951
133.405
127.477
124.136
123.389
126.514
133.148
139.163
140.015
137.308
137.356
134.923
135.701
138.786
144.033
151.325
160.109
169.774
179.844
189.994
200.006
209.727
219.068
227.984
236.458
244.489
252.089
259.277
266.074
272.503
278.587
284.35
289.812
294.994
299.914
304.589
309.035
313.266
317.294
321.132
324.789
328.277
331.605
334.779
337.805
340.684
343.417
346
348.427
350.688
352.77
354.66
356.338
357.783
358.971
359.873
360.46
360.698
360.553
359.991
358.972
357.457
355.405
352.775
349.521
345.597
340.953
335.53
329.27
322.107
313.975
304.806
294.538
283.113
270.492
256.661
241.651
225.565
208.607
191.14
173.728
157.188
142.608
131.318
124.66
122.487
125.508
132.846
139.242
137.781
136.369
135.242
137.86
143.879
153.126
164.984
178.485
192.806
207.359
221.743
235.697
249.07
261.787
273.824
285.186
295.895
305.985
315.494
324.461
332.926
340.925
348.494
355.665
362.468
368.929
375.072
380.917
386.485
391.793
396.855
401.687
406.301
410.712
414.931
418.964
422.817
426.488
429.973
433.264
436.35
439.215
441.839
444.201
446.272
448.024
449.419
450.419
450.979
451.053
450.59
449.545
447.863
445.495
442.388
438.49
433.748
428.1
421.482
413.82
405.038
395.053
383.781
371.136
357.036
341.406
324.19
305.358
284.933
263.025
239.886
215.989
192.119
169.452
149.534
134.101
124.706
121.734
123.898
131.855
139.142
136.13
135.952
140.688
150.078
163.578
180.003
198.04
216.703
235.317
253.449
270.846
287.386
303.025
317.768
331.646
344.706
357.003
368.592
379.527
389.862
399.643
408.916
417.721
426.093
434.066
441.667
448.922
455.852
462.477
468.813
474.877
480.685
486.253
491.596
496.726
501.648
506.357
510.848
515.109
519.124
522.873
526.329
529.465
532.247
534.636
536.589
538.057
538.983
539.307
538.963
537.891
536.025
533.301
529.66
525.044
519.401
512.671
504.789
495.682
485.274
473.482
460.221
445.404
428.944
410.759
390.779
368.946
345.236
319.674
292.376
263.617
233.952
204.369
176.431
152.244
134.102
123.831
120.899
122.31
130.479
136.194
136.825
143.894
156.798
174.486
195.226
217.421
239.961
262.126
283.496
303.86
323.135
341.315
358.437
374.557
389.746
404.074
417.611
430.424
442.574
454.117
465.106
475.585
485.596
495.174
504.351
513.153
521.604
529.723
537.527
545.031
552.251
559.205
565.915
572.394
578.647
584.666
590.436
595.942
601.156
606.05
610.588
614.731
618.435
621.649
624.313
626.365
627.733
628.338
628.097
626.927
624.749
621.482
617.057
611.421
604.529
596.337
586.794
575.845
563.429
549.482
533.936
516.722
497.764
476.99
454.327
429.717
403.12
374.532
344
311.662
277.824
243.109
208.714
176.657
149.758
130.941
121.907
119.753
119.488
136.329
137.704
147.252
163.606
185.243
209.923
235.821
261.741
286.965
311.118
334.041
355.698
376.122
395.38
413.553
430.728
446.992
462.425
477.104
491.098
504.47
517.276
529.566
541.384
552.769
563.753
574.365
584.627
594.557
604.169
613.475
622.487
631.225
639.717
647.982
656.017
663.803
671.318
678.531
685.405
691.895
697.95
703.514
708.521
712.899
716.566
719.432
721.399
722.359
722.201
720.814
718.096
713.95
708.297
701.091
692.313
681.954
670
656.434
641.239
624.398
605.889
585.685
563.749
540.03
514.467
486.992
457.543
426.084
392.628
357.257
320.153
281.676
242.559
204.29
169.544
142.117
125.557
120.14
118.993
136.468
138.606
150.603
170.225
195.477
223.671
252.8
281.624
309.463
336.001
361.137
384.883
407.309
428.51
448.589
467.652
485.797
503.115
519.693
535.604
550.919
565.699
579.996
593.859
607.327
620.434
633.209
645.672
657.839
669.719
681.314
692.63
703.69
714.532
725.176
735.607
745.794
755.698
765.271
774.457
783.188
791.39
798.976
805.85
811.906
817.023
821.07
823.903
825.371
825.318
823.59
820.049
814.578
807.093
797.559
786.003
772.483
757.048
739.752
720.651
699.809
677.289
653.143
627.404
600.075
571.125
540.485
508.06
473.75
437.49
399.29
359.267
317.671
274.966
232.099
191.106
155.753
131.16
120.931
118.812
136.595
139.533
153.85
176.491
204.985
236.253
268.151
299.439
329.489
358.055
385.095
410.666
434.874
457.84
479.69
500.545
520.517
539.709
558.214
576.117
593.491
610.404
626.912
643.066
658.908
674.474
689.789
704.874
719.739
734.384
748.803
762.986
776.964
790.788
804.471
817.989
831.296
844.331
857.022
869.285
881.022
892.122
902.458
911.888
920.256
927.388
933.091
937.158
939.37
939.504
937.344
932.697
925.418
915.418
902.689
887.33
869.499
849.348
827.033
802.725
776.603
748.85
719.63
689.078
657.282
624.264
589.976
554.299
517.061
478.082
437.236
394.522
350.11
304.353
257.896
212.153
170.315
138.109
122.14
118.661
136.71
140.463
156.937
182.321
213.675
247.583
281.814
315.151
347.037
377.297
405.943
433.077
458.839
483.377
506.838
529.358
551.065
572.073
592.486
612.397
631.887
651.028
669.882
688.504
706.937
725.218
743.373
761.417
779.356
797.179
814.867
832.399
849.808
867.157
884.458
901.679
918.754
935.601
952.118
968.188
983.672
998.413
1012.23
1024.93
1036.28
1046.04
1053.93
1059.67
1062.93
1063.39
1060.76
1054.75
1045.19
1032
1015.21
995.044
971.786
945.732
917.184
886.463
853.899
819.821
784.529
748.28
711.254
673.545
635.135
595.898
555.603
513.955
470.662
425.539
378.609
330.146
280.673
231.197
184.234
145.437
123.602
118.533
136.818
141.385
159.852
187.702
221.54
257.671
293.816
328.807
362.165
393.783
423.729
452.146
479.205
505.081
529.94
553.936
577.212
599.894
622.097
643.921
665.458
686.785
707.97
729.07
750.134
771.198
792.285
813.41
834.57
855.746
876.907
898.021
919.118
940.268
961.494
982.759
1003.98
1025.06
1045.87
1066.24
1086.01
1104.95
1122.84
1139.4
1154.32
1167.27
1177.87
1185.71
1190.35
1191.32
1188.2
1180.61
1168.35
1151.37
1129.81
1104.05
1074.53
1041.72
1006.12
968.22
928.519
887.504
845.617
803.231
760.622
717.947
675.221
632.312
588.944
544.725
499.212
452.014
402.948
352.156
300.108
247.608
196.609
152.363
125.098
118.416
136.921
142.306
162.625
192.685
228.651
266.601
304.25
340.501
374.96
407.587
438.502
467.886
495.941
522.862
548.838
574.036
598.614
622.709
646.447
669.936
693.276
716.549
739.829
763.178
786.646
810.268
834.07
858.061
882.234
906.564
931.011
955.534
980.152
1004.94
1029.95
1055.13
1080.41
1105.67
1130.75
1155.47
1179.61
1202.92
1225.09
1245.77
1264.57
1281.03
1294.65
1304.87
1311.09
1312.69
1309.06
1299.64
1284.37
1263.39
1236.77
1205.14
1169.15
1129.47
1086.79
1041.77
995.09
947.364
899.156
850.938
803.06
755.728
708.981
662.679
616.508
570.002
522.598
473.731
422.994
370.345
316.187
261.253
207.085
158.431
126.456
118.306
137.019
143.253
165.338
197.397
235.156
274.526
313.262
350.364
385.529
418.785
450.301
480.292
508.985
536.596
563.327
589.361
614.864
639.983
664.851
689.584
714.286
739.044
763.936
789.026
814.364
839.987
865.919
892.166
918.718
945.547
972.608
999.853
1027.29
1054.98
1083
1111.33
1139.87
1168.52
1197.1
1225.41
1253.21
1280.2
1306.02
1330.26
1352.4
1371.87
1387.97
1399.95
1407.21
1409.22
1405.5
1395.46
1377.57
1353.32
1322.39
1285.67
1244.1
1198.58
1149.98
1099.13
1046.78
993.681
940.455
887.639
835.631
784.664
734.792
685.869
637.555
589.332
540.554
490.532
438.679
384.748
329.038
272.265
215.696
163.539
127.605
118.199
137.113
144.325
168.189
202.089
241.309
281.673
321.043
358.548
393.985
427.449
459.152
489.341
518.259
546.139
573.192
599.608
625.56
651.198
676.658
702.061
727.509
753.094
778.894
804.97
831.373
858.137
885.284
912.818
940.724
968.973
997.516
1026.3
1055.31
1084.61
1114.27
1144.27
1174.56
1204.99
1235.4
1265.6
1295.32
1324.25
1352.01
1378.06
1401.7
1421.67
1435.34
1442.99
1445.76
1445.61
1444.28
1441.88
1429.46
1404.21
1371.29
1331.77
1287.02
1238.19
1186.28
1132.19
1076.76
1020.75
964.836
909.568
855.364
802.474
750.956
700.666
651.259
602.194
552.784
502.273
449.959
395.42
338.828
280.881
222.672
167.849
128.614
118.095
137.202
145.602
171.466
207.13
247.465
288.34
327.822
365.216
400.43
433.628
465.057
494.986
523.672
551.352
578.24
604.528
630.386
655.964
681.396
706.799
732.274
757.906
783.77
809.925
836.416
863.274
890.516
918.14
946.129
974.45
1003.05
1031.87
1060.88
1090.13
1119.65
1149.46
1179.47
1209.57
1239.59
1269.34
1298.55
1326.93
1354.1
1379.6
1402.77
1423.17
1436.92
1441.96
1443.97
1445.17
1444.77
1440.11
1427.65
1404.27
1372.13
1333.17
1288.87
1240.45
1188.94
1135.22
1080.16
1024.49
968.888
913.914
859.98
807.338
756.054
705.998
656.837
608.049
558.949
508.769
456.764
402.401
345.72
287.374
228.34
171.689
129.683
117.993
137.35
147.707
175.833
213.072
254.034
294.818
333.8
370.492
404.927
437.332
467.986
497.165
525.127
552.107
578.316
603.938
629.134
654.048
678.804
703.511
728.262
753.136
778.198
803.5
829.081
854.963
881.156
907.654
934.435
961.462
988.681
1016.03
1043.47
1071.01
1098.68
1126.46
1154.27
1182
1209.5
1236.59
1263.01
1288.5
1312.73
1335.32
1355.83
1373.67
1389.11
1400.26
1406.72
1408.57
1404.89
1394.89
1378.07
1354.46
1324.54
1289.01
1248.67
1204.36
1156.93
1107.19
1055.93
1003.85
951.604
899.704
848.552
798.391
749.299
701.165
653.694
606.406
558.67
509.761
458.954
405.687
349.899
292.159
233.354
175.87
131.385
117.895
137.654
150.682
181.941
220.568
261.412
301.263
338.987
374.326
407.393
438.452
467.801
495.72
522.462
548.25
573.282
597.727
621.73
645.42
668.908
692.289
715.645
739.045
762.542
786.179
809.983
833.97
858.141
882.487
906.983
931.592
956.258
980.918
1005.53
1030.09
1054.59
1078.99
1103.22
1127.18
1150.73
1173.71
1195.91
1217.09
1237
1255.32
1271.74
1285.86
1297.44
1306.06
1311.13
1311.91
1307.89
1298.63
1283.96
1263.91
1238.7
1208.72
1174.48
1136.57
1095.65
1052.38
1007.42
961.374
914.806
868.176
821.837
776.009
730.766
686.024
641.532
596.882
551.531
504.852
456.209
405.098
351.447
295.768
239.001
182.632
135.714
117.805
139.756
158.624
192.263
230.731
269.953
307.653
343.17
376.426
407.563
436.808
464.416
490.652
515.765
539.966
563.432
586.308
608.721
630.777
652.57
674.181
695.677
717.114
738.535
759.972
781.442
802.953
824.5
846.073
867.649
889.193
910.654
931.973
953.104
974.023
994.71
1015.13
1035.21
1054.88
1074
1092.45
1110.06
1126.65
1142.02
1155.93
1168.15
1178.43
1186.49
1192.08
1194.88
1194.45
1190.37
1182.31
1170.09
1153.69
1133.21
1108.85
1080.94
1049.87
1016.1
980.1
942.374
903.39
863.576
823.297
782.832
742.355
701.925
661.471
620.793
579.562
537.348
493.66
448.004
400.014
349.746
297.822
245.562
194.215
146.939
119.35
149.714
175.724
208.608
244.158
279.726
313.85
346.125
376.512
405.114
432.08
457.584
481.828
505.021
527.353
548.976
570.013
590.565
610.719
630.548
650.117
669.479
688.677
707.744
726.704
745.566
764.33
782.991
801.536
819.949
838.198
856.241
874.029
891.517
908.676
925.479
941.893
957.869
973.336
988.207
1002.37
1015.72
1028.1
1039.38
1049.39
1057.96
1064.93
1070.1
1073.32
1074.35
1072.97
1068.89
1061.86
1051.73
1038.44
1022.03
1002.6
980.335
955.485
928.339
899.218
868.451
836.361
803.242
769.346
734.864
699.909
664.512
628.607
592.036
554.552
515.84
475.555
433.364
389.081
342.966
295.888
249.399
205.905
166.739
132.331
173.404
199.895
228.804
259.303
289.711
319.148
347.317
374.131
399.61
423.818
446.848
468.819
489.871
510.137
529.727
548.737
567.245
585.32
603.017
620.386
637.467
654.294
670.89
687.273
703.446
719.406
735.145
750.655
765.92
780.919
795.621
809.989
823.987
837.587
850.762
863.487
875.724
887.425
898.526
908.954
918.624
927.443
935.308
942.111
947.738
952.074
955.004
956.413
956.17
954.134
950.13
943.99
935.593
924.876
911.829
896.497
878.974
859.396
837.932
814.769
790.105
764.129
737.017
708.914
679.924
650.102
619.446
587.893
555.322
521.559
486.401
449.633
411.061
370.683
328.96
286.818
245.544
206.572
171.884
144.142
203.522
225.465
248.585
273.083
297.75
322.032
345.659
368.474
390.434
411.538
431.814
451.297
470.036
488.095
505.533
522.413
538.788
554.708
570.215
585.347
600.134
614.602
628.769
642.649
656.24
669.535
682.528
695.212
707.58
719.617
731.304
742.616
753.527
764.016
774.062
783.645
792.74
801.315
809.328
816.731
823.469
829.48
834.697
839.049
842.462
844.861
846.172
846.32
845.232
842.817
838.971
833.587
826.576
817.876
807.454
795.31
781.479
766.027
749.033
730.59
710.796
689.74
667.502
644.145
619.704
594.187
567.568
539.791
510.772
480.408
448.592
415.223
380.235
343.809
306.518
269.234
233.002
199.002
168.384
142.145
231.218
246.875
263.944
282.446
301.492
320.679
339.725
358.453
376.77
394.634
412.009
428.852
445.134
460.859
476.049
490.733
504.94
518.702
532.044
544.993
557.571
569.798
581.691
593.257
604.493
615.389
625.941
636.146
646
655.499
664.63
673.38
681.731
689.67
697.183
704.254
710.87
717.008
722.645
727.749
732.285
736.215
739.495
742.081
743.925
744.977
745.193
744.524
742.92
740.324
736.67
731.89
725.918
718.701
710.192
700.361
689.204
676.735
662.982
647.971
631.731
614.285
595.651
575.833
554.826
532.612
509.158
484.427
458.377
430.973
402.197
372.039
340.552
308.047
275.113
242.51
211.069
181.634
155.006
131.944
250.661
260.555
272.162
285.264
299.157
313.57
328.259
343.034
357.77
372.379
386.774
400.856
414.557
427.841
440.7
453.136
465.16
476.783
488.019
498.883
509.387
519.545
529.369
538.866
548.029
556.846
565.313
573.432
581.203
588.624
595.69
602.393
608.723
614.672
620.23
625.389
630.137
634.464
638.352
641.784
644.737
647.188
649.107
650.466
651.232
651.378
650.87
649.671
647.748
645.058
641.558
637.197
631.923
625.687
618.441
610.134
600.734
590.225
578.601
565.851
551.965
536.931
520.73
503.345
484.752
464.932
443.867
421.549
397.989
373.216
347.287
320.269
292.315
263.787
235.228
207.264
180.533
155.638
133.093
113.314
258.097
263.187
270.126
278.597
288.129
298.419
309.25
320.435
331.825
343.301
354.75
366.065
377.165
387.994
398.519
408.724
418.6
428.147
437.365
446.26
454.839
463.108
471.075
478.743
486.105
493.149
499.87
506.269
512.348
518.106
523.539
528.644
533.415
537.844
541.927
545.656
549.025
552.025
554.646
556.875
558.699
560.099
561.058
561.553
561.567
561.072
560.04
558.443
556.253
553.437
549.959
545.779
540.851