/*--------------------------------*- C++ -*----------------------------------*\
| =========                 |                                                 |
| \\      /  F ield         | OpenFOAM: The Open Source CFD Toolbox           |
|  \\    /   O peration     | Version:  v2012                                 |
|   \\  /    A nd           | Website:  www.openfoam.com                      |
|    \\/     M anipulation  |                                                 |
\*---------------------------------------------------------------------------*/
FoamFile
{
    version     2.0;
    format      ascii;
    class       volScalarField;
    location    "643";
    object      k;
}
// * * * * * * * * * * * * * * * * * * * * * * * * * * * * * * * * * * * * * //

dimensions      [0 2 -2 0 0 0 0];


internalField   nonuniform List<scalar> 
6532
(
2.01242
2.54331
2.64223
2.66858
2.681
2.681
2.66858
2.64223
2.54331
2.01242
1.10879
1.78596
1.97545
2.03717
2.05711
2.05711
2.03717
1.97545
1.78596
1.10879
0.699421
1.308
1.52219
1.60434
1.63238
1.63238
1.60434
1.52219
1.308
0.699421
0.484981
0.99699
1.20484
1.29464
1.328
1.328
1.29464
1.20484
0.996991
0.484982
0.359554
0.786077
0.976231
1.06573
1.10135
1.10135
1.06573
0.976232
0.786078
0.359555
0.279747
0.637192
0.807023
0.892036
0.927619
0.92762
0.892037
0.807024
0.637193
0.279747
0.22556
0.528275
0.67862
0.757289
0.791425
0.791426
0.75729
0.678622
0.528277
0.22556
0.186855
0.446108
0.578974
0.650748
0.6827
0.6827
0.650749
0.578977
0.44611
0.186856
0.158077
0.382473
0.500096
0.565105
0.594577
0.594578
0.565107
0.500099
0.382476
0.158078
0.135979
0.332077
0.436558
0.495259
0.522217
0.522218
0.495262
0.436563
0.332082
0.13598
0.118559
0.291399
0.384591
0.437566
0.462119
0.46212
0.43757
0.384597
0.291405
0.118562
0.104528
0.258025
0.341514
0.38937
0.411695
0.411698
0.389376
0.341522
0.258034
0.104531
0.0930209
0.230257
0.305384
0.348701
0.369002
0.369005
0.348709
0.305395
0.230269
0.0930249
0.0834388
0.20687
0.274765
0.314072
0.332554
0.332558
0.314083
0.27478
0.206886
0.0834442
0.0753559
0.186963
0.248575
0.284345
0.301203
0.301209
0.28436
0.248596
0.186985
0.0753633
0.0684613
0.169858
0.22599
0.258639
0.27405
0.274058
0.258659
0.226018
0.169889
0.0684711
0.062523
0.15504
0.206368
0.236258
0.250383
0.250395
0.236287
0.206406
0.15508
0.062536
0.0573646
0.142108
0.189205
0.216653
0.229635
0.22965
0.216694
0.189257
0.142158
0.0573812
0.0528496
0.130744
0.174102
0.199381
0.211345
0.211365
0.199437
0.174173
0.130804
0.0528701
0.0488702
0.120693
0.160726
0.184073
0.195128
0.195157
0.18415
0.160819
0.120729
0.0488932
0.045274
0.111594
0.148618
0.170215
0.180449
0.18049
0.170325
0.148758
0.111709
0.0455838
0.0420738
0.103473
0.137802
0.157829
0.167329
0.167385
0.157984
0.138011
0.1037
0.0437836
0.039211
0.0961938
0.128107
0.146729
0.155574
0.155648
0.146938
0.128402
0.0966533
0.0431974
0.0366371
0.0896382
0.119379
0.136739
0.144996
0.145091
0.136999
0.119729
0.0905175
0.0438611
0.0343118
0.083708
0.111488
0.12771
0.13544
0.135552
0.127998
0.111896
0.085323
0.0458131
0.0322016
0.0783204
0.104325
0.119519
0.126775
0.126905
0.119833
0.104894
0.0810534
0.0488263
0.0302785
0.0734057
0.0977968
0.112061
0.118891
0.119049
0.11247
0.0987021
0.0775715
0.0525474
0.0285186
0.0689045
0.0918256
0.105246
0.111697
0.111898
0.105824
0.0932505
0.0748336
0.0565968
0.0269013
0.0647652
0.0863437
0.0989991
0.105113
0.105376
0.099822
0.0884633
0.0727218
0.060046
0.0254089
0.0609442
0.0812927
0.093253
0.0990704
0.0994179
0.094398
0.0842653
0.0710987
0.0626664
0.0240263
0.0574029
0.0766219
0.0879512
0.0935111
0.0939636
0.0894907
0.0805801
0.0698202
0.0645506
0.0227399
0.0541073
0.0722873
0.083044
0.0883828
0.0889608
0.0850421
0.0773234
0.0686867
0.0657715
0.0215378
0.0510277
0.0682502
0.0784878
0.0836396
0.0843619
0.0809975
0.0744119
0.0676131
0.0664049
0.0204096
0.0481379
0.0644762
0.0742444
0.0792409
0.0801236
0.0773057
0.0717764
0.0665306
0.0665154
0.0193456
0.045415
0.0609354
0.0702797
0.0751507
0.0762068
0.0739198
0.0693558
0.065387
0.0661565
0.0183375
0.0428386
0.0576011
0.0665638
0.0713366
0.0725763
0.0707978
0.0670983
0.0641473
0.0653759
0.0173777
0.0403912
0.0544501
0.0630709
0.0677707
0.069201
0.0679031
0.0649628
0.0627943
0.0642232
0.0164595
0.0380594
0.0514648
0.0597811
0.0644317
0.0660571
0.0652079
0.0629223
0.0613307
0.0627577
0.0156091
0.0359053
0.0487205
0.0567734
0.0613957
0.0632118
0.0627656
0.0610215
0.059825
0.0611025
0.0147863
0.0338338
0.0460995
0.0539209
0.0585349
0.0605433
0.06047
0.059187
0.0582614
0.0592928
0.0139866
0.0318339
0.0435832
0.051201
0.0558243
0.0580265
0.0583006
0.0574151
0.0566737
0.0574042
0.0132058
0.0298981
0.0411592
0.0485985
0.0532474
0.0556453
0.0562463
0.0557114
0.0551039
0.0555203
0.0124404
0.0280197
0.0388154
0.0460978
0.0507869
0.0533827
0.0542956
0.054082
0.0535916
0.0537206
0.0116872
0.0261925
0.0365389
0.0436813
0.0484229
0.0512189
0.0524341
0.052528
0.0521665
0.0520703
0.0109433
0.0244103
0.0343158
0.0413292
0.0461315
0.0491292
0.0506412
0.051041
0.0508413
0.0506099
0.0102058
0.0226674
0.0321311
0.039018
0.0438836
0.047082
0.048887
0.0495988
0.0496059
0.049346
0.00947213
0.0209577
0.0299678
0.0367203
0.0416441
0.0450372
0.0471304
0.0481624
0.0484242
0.0482462
0.00873939
0.0192752
0.0278077
0.0344045
0.0393708
0.0429455
0.0453178
0.0466752
0.0472341
0.0472393
0.00800442
0.0176136
0.0256312
0.0320354
0.0370154
0.040749
0.0433839
0.0450648
0.0459513
0.046222
0.00726332
0.0159667
0.0234185
0.0295757
0.0345253
0.0383831
0.0412547
0.0432468
0.0444753
0.0450683
0.00651089
0.0143277
0.0211509
0.0269895
0.0318483
0.0357822
0.038853
0.041132
0.0426991
0.043644
0.00573935
0.0126869
0.0188169
0.0242515
0.0289426
0.0328895
0.0361093
0.0386372
0.0405221
0.0418225
0.00493548
0.0110201
0.0164033
0.0213541
0.0257935
0.0296768
0.0329803
0.0357041
0.037868
0.039502
0.00406357
0.00945199
0.0139902
0.0183487
0.022437
0.0261673
0.0294746
0.0323244
0.0347061
0.036625
0.00313809
0.00811685
0.0118491
0.0154883
0.0190744
0.0225162
0.0257106
0.0285826
0.0310913
0.0332122
0.00216837
0.0068812
0.0101173
0.0130979
0.0160887
0.0190844
0.0219968
0.0247353
0.0272277
0.0294243
0.0011453
0.00545729
0.00857116
0.0112122
0.0137471
0.016285
0.0188077
0.0212516
0.0235506
0.0256472
0.000883584
0.00368184
0.00683883
0.00949782
0.0118962
0.0141664
0.0163468
0.0184266
0.0203837
0.0221897
0.000854386
0.00214983
0.00507477
0.00764782
0.0100611
0.012178
0.0140773
0.0157647
0.0172734
0.0186237
0.000957365
0.0016935
0.0026115
0.00389714
0.00533246
0.00645122
0.00734997
0.00813254
0.00880161
0.00936512
0.00963931
0.00332059
0.00339942
0.00360132
0.00376867
0.00387881
0.00392232
0.00389977
0.00381202
0.00367421
0.00350289
0.00329839
0.00306403
0.00281276
0.00255328
0.00229009
0.00202479
0.00177905
0.00155772
0.00135035
0.00115119
0.000955615
0.000758033
0.000549413
0.000297228
0.018859
0.0082512
0.00729229
0.00743989
0.00769821
0.00789766
0.00798972
0.00795462
0.0077823
0.00746854
0.00706866
0.00661321
0.00612501
0.00562385
0.00512383
0.00463425
0.00415822
0.00367791
0.00319437
0.0027142
0.00224814
0.00181073
0.00142407
0.00108004
0.000548566
0.028185
0.0137227
0.0104136
0.0097559
0.00969874
0.00972207
0.00968397
0.0095371
0.00926428
0.0088573
0.00834534
0.0077773
0.00718073
0.00657759
0.00598575
0.0054184
0.00488101
0.00436496
0.00385805
0.00335066
0.00283565
0.00231745
0.00182136
0.00136013
0.000666258
0.038401
0.0208448
0.014162
0.0121451
0.0114195
0.0110462
0.0107323
0.0103832
0.00996369
0.00946119
0.00887076
0.00823607
0.00758602
0.00693916
0.00631254
0.00571946
0.00516606
0.00464735
0.00414952
0.00365599
0.00314832
0.00261548
0.00206667
0.00151377
0.000722378
0.0483752
0.0300022
0.0193065
0.0150899
0.0133275
0.0123467
0.0116426
0.011023
0.0104179
0.00979806
0.00915026
0.00846753
0.00778449
0.00711458
0.00647027
0.00586395
0.0053022
0.0047822
0.00429125
0.00381024
0.00331602
0.00278773
0.00221814
0.00160249
0.000741791
0.0556693
0.0393019
0.0255946
0.0187539
0.0156371
0.0138714
0.0126528
0.011695
0.0108643
0.0101013
0.00937551
0.00866685
0.00796073
0.00726998
0.00660584
0.00598048
0.00540159
0.00486977
0.00437478
0.00389602
0.00340837
0.00288565
0.00230871
0.00165272
0.000740923
0.0607413
0.0481185
0.0326661
0.0232794
0.0184852
0.015753
0.0139268
0.0125439
0.0114293
0.0104854
0.00965575
0.00890042
0.00818575
0.00748729
0.00679314
0.00613539
0.00552116
0.00495956
0.00444465
0.00395475
0.00346335
0.00294103
0.00235987
0.0016777
0.000728379
0.0645042
0.0551472
0.039625
0.0286149
0.0219809
0.0180712
0.0155123
0.0136512
0.0121906
0.0110125
0.0100437
0.00921858
0.00847842
0.00777206
0.00706784
0.00636821
0.00569318
0.00507999
0.00452517
0.00400858
0.00350163
0.00297231
0.00238535
0.0016846
0.000707947
0.0673057
0.0607441
0.0461043
0.0341207
0.0259524
0.0208237
0.017421
0.015011
0.0131757
0.0117199
0.0105682
0.00964387
0.00886146
0.00814012
0.00741676
0.00667252
0.00593708
0.00525202
0.0046342
0.00407247
0.00353528
0.00299041
0.00239392
0.0016779
0.000681248
0.0693275
0.0650121
0.052013
0.0395757
0.0302464
0.0239697
0.0196868
0.0166456
0.014386
0.0126255
0.0112506
0.0101912
0.00934356
0.00859804
0.00785608
0.00706628
0.0062501
0.0054702
0.00476887
0.0041475
0.00357303
0.00300554
0.00239539
0.00166485
0.000651428
0.07069
0.0681634
0.0571424
0.0447709
0.03474
0.0273994
0.0222513
0.0185658
0.015838
0.0137424
0.0121176
0.0108817
0.00993388
0.00915055
0.00839789
0.00757373
0.00666682
0.00576087
0.00494228
0.00423828
0.0036116
0.0030137
0.00238603
0.00164136
0.000626163
0.0715026
0.0704028
0.0613404
0.0494733
0.0391021
0.0309371
0.0250262
0.0207371
0.0175508
0.0151092
0.0131954
0.0117483
0.0106591
0.00981052
0.00904822
0.00821523
0.00722961
0.00616866
0.00518499
0.00435807
0.00365655
0.0030165
0.00236554
0.00160547
0.000601729
0.0718216
0.0718377
0.0645348
0.0536035
0.0431174
0.0344447
0.0279214
0.0231058
0.0195064
0.0167363
0.0145475
0.0128416
0.011564
0.0105992
0.0098047
0.00899066
0.00797639
0.00675653
0.00555267
0.00453112
0.00371575
0.00301613
0.00233442
0.0015579
0.000576146
0.0716612
0.0725349
0.0667969
0.0570656
0.04675
0.0379087
0.0308675
0.0256122
0.021665
0.0186115
0.0161723
0.0142263
0.0127146
0.0115648
0.0106722
0.00986522
0.0089017
0.00759764
0.0061385
0.00483755
0.00383154
0.00303065
0.00229892
0.00150149
0.000548683
0.071029
0.0725507
0.0682084
0.0597724
0.0498763
0.0410239
0.0337413
0.0281851
0.0239799
0.0207117
0.0180807
0.0159328
0.0141905
0.0128027
0.0117079
0.0108109
0.00991416
0.00870047
0.00708506
0.00542987
0.0040919
0.00310216
0.00227822
0.00144534
0.000519988
0.0699398
0.07193
0.0688161
0.0616522
0.0525622
0.043858
0.0365746
0.0307869
0.0264028
0.022997
0.020257
0.0179903
0.0160745
0.0144403
0.0130675
0.0119203
0.0109269
0.00985129
0.00836717
0.00647016
0.00463051
0.00330771
0.00231742
0.00141531
0.000493269
0.0684213
0.0707188
0.0686739
0.0627657
0.05472
0.0463423
0.0391534
0.0333528
0.0288775
0.025415
0.0226555
0.0203774
0.0183992
0.0166092
0.0149638
0.0134662
0.0121346
0.0109359
0.00962497
0.00790495
0.00581647
0.00381843
0.00250096
0.00147186
0.000477829
0.0665231
0.0689763
0.0678392
0.0631477
0.0562174
0.0485459
0.0415343
0.0358365
0.0313543
0.0279053
0.0252077
0.023024
0.0211237
0.0193397
0.0175692
0.0157791
0.0140126
0.0123199
0.0107614
0.00912485
0.00725855
0.00519526
0.0031478
0.00178416
0.000507094
0.0643793
0.0668391
0.0664227
0.0628472
0.057033
0.0502712
0.0436625
0.0381113
0.0337663
0.0303626
0.0277809
0.0257743
0.0240855
0.0225022
0.0208585
0.0190443
0.0170154
0.0148052
0.0125576
0.0103606
0.00823505
0.00620998
0.00443349
0.00280441
0.00084894
0.0620285
0.0643619
0.0644968
0.0619266
0.057224
0.051419
0.0455139
0.0402013
0.0359699
0.0327187
0.0302442
0.0284318
0.0270153
0.0257607
0.0244629
0.0229483
0.0210809
0.0187778
0.016039
0.0130148
0.00991633
0.00709778
0.00479775
0.00310627
0.00215266
0.0595607
0.0616407
0.062146
0.0604437
0.0568083
0.0519964
0.0468581
0.0420769
0.0380364
0.0348942
0.0325866
0.0309332
0.0297812
0.0288954
0.0280636
0.0270924
0.0257993
0.0240083
0.0215711
0.0184252
0.014674
0.0107729
0.00732571
0.00487865
0.00364099
0.0570854
0.0588012
0.0594875
0.0584779
0.0558098
0.0519881
0.0476797
0.0434907
0.03983
0.0368973
0.0346993
0.0332097
0.0322425
0.0316599
0.0312606
0.0308669
0.0303115
0.0294125
0.0279644
0.0257547
0.0226389
0.0187218
0.0144271
0.0106178
0.00780793
0.0547163
0.0559863
0.0566685
0.0561457
0.0542938
0.0513948
0.0479305
0.0443993
0.0411908
0.0385402
0.0365418
0.0351878
0.0343607
0.0339497
0.0338393
0.0338702
0.0339096
0.0338185
0.0334442
0.0326039
0.0311387
0.0289184
0.0259919
0.0225419
0.0188372
0.0525578
0.0533439
0.0538613
0.0536057
0.0523729
0.0502714
0.0476099
0.044763
0.0420671
0.0397614
0.0379804
0.0367644
0.036068
0.0357876
0.0358048
0.0360621
0.0364496
0.0368559
0.0371664
0.0372532
0.036979
0.0362348
0.0349351
0.0330406
0.0305642
0.0506888
0.0510074
0.0512475
0.0510528
0.0502142
0.04873
0.0467662
0.0445744
0.0424154
0.0405022
0.0389792
0.0379191
0.0373209
0.0371227
0.0372316
0.0375557
0.0380858
0.0387451
0.0394347
0.0400316
0.040406
0.0404684
0.0401328
0.0393294
0.0380172
0.049147
0.0490712
0.0489891
0.0486957
0.0480315
0.0469495
0.0455187
0.043887
0.0422323
0.0407213
0.0394845
0.0386039
0.0381046
0.037958
0.0380957
0.0384651
0.0390372
0.0397788
0.0406205
0.0414694
0.0422243
0.0427906
0.0430806
0.043021
0.0425619
0.0479172
0.0475682
0.0471942
0.0467176
0.0460538
0.0451623
0.0440658
0.0428406
0.0415935
0.0404385
0.0394762
0.038781
0.0383878
0.0382889
0.0384341
0.0387827
0.0393307
0.0400549
0.0409155
0.0418515
0.0427908
0.0436543
0.0443622
0.0448422
0.0450387
0.0469282
0.0464563
0.0458863
0.045229
0.0444719
0.0436092
0.0426568
0.0416567
0.0406707
0.0397691
0.0390193
0.0384759
0.0381722
0.0381114
0.0382608
0.0385664
0.0390352
0.0396607
0.0404302
0.041317
0.0422684
0.0432335
0.0441537
0.0449675
0.0456174
0.0460596
0.0456196
0.0449907
0.0442311
0.0433799
0.0424678
0.0415266
0.0405944
0.0397142
0.038931
0.0382873
0.0378184
0.0375483
0.0374838
0.0376077
0.0378635
0.0382423
0.0387435
0.0393611
0.0400859
0.0409085
0.0417993
0.0427132
0.0436133
0.0444557
0.0451567
0.0448855
0.044344
0.0436061
0.0427349
0.0417866
0.040813
0.0398615
0.0389748
0.0381905
0.0375399
0.0370473
0.0367284
0.03659
0.0366253
0.036806
0.0370802
0.037444
0.0378969
0.0384331
0.0390464
0.0397322
0.0404837
0.0412712
0.0420624
0.0440507
0.0440521
0.0437252
0.0431392
0.0423619
0.0414595
0.0404944
0.0395235
0.0385959
0.037752
0.037023
0.0364315
0.0359913
0.0357088
0.0355832
0.0356041
0.0357457
0.035974
0.0362594
0.036605
0.0370095
0.0374681
0.0379767
0.0385331
0.0391262
0.0425807
0.0429175
0.0428936
0.0425667
0.0419975
0.0412491
0.040384
0.0394618
0.0385356
0.0376504
0.0368417
0.0361356
0.0355495
0.0350928
0.0347688
0.0345754
0.0345042
0.0345394
0.03466
0.0348421
0.0350578
0.0353093
0.0355948
0.0359147
0.0362629
0.0406104
0.0413033
0.041627
0.0416257
0.0413485
0.0408487
0.0401818
0.0394032
0.0385649
0.0377127
0.0368854
0.0361131
0.0354179
0.0348145
0.0343114
0.0339118
0.0336152
0.0334168
0.0333082
0.0332769
0.0333073
0.0333887
0.0335089
0.0336446
0.0337961
0.0380477
0.0390785
0.0397507
0.0400954
0.0401495
0.0399547
0.0395568
0.0390031
0.0383399
0.0376105
0.0368528
0.036099
0.0353742
0.0346976
0.0340824
0.0335369
0.0330657
0.0326702
0.0323489
0.0320978
0.0319107
0.0317808
0.0316995
0.0316546
0.0316387
0.0348811
0.0361956
0.0371761
0.037842
0.038219
0.0383382
0.038235
0.0379479
0.0375158
0.0369766
0.036365
0.0357119
0.0350434
0.0343806
0.0337398
0.033133
0.0325688
0.0320525
0.0315871
0.0311734
0.0308105
0.0304962
0.0302267
0.0299975
0.0298044
0.0312311
0.0327339
0.0339403
0.0348587
0.0355043
0.0358981
0.0360664
0.036039
0.0358474
0.0355232
0.0350965
0.0345952
0.0340437
0.0334632
0.032871
0.032281
0.031704
0.0311481
0.030619
0.0301205
0.0296547
0.0292225
0.0288237
0.0284575
0.0281236
0.0274304
0.0289712
0.030264
0.0313065
0.0321062
0.032677
0.0330366
0.0332067
0.0332115
0.0330757
0.032824
0.0324799
0.0320649
0.0315981
0.0310963
0.0305733
0.0300407
0.0295078
0.0289815
0.0284675
0.0279695
0.0274904
0.0270318
0.0265949
0.0261817
0.0237529
0.0251388
0.0263404
0.0273504
0.028155
0.0287571
0.0291747
0.0294249
0.0295262
0.0294975
0.0293581
0.0291262
0.0288194
0.0284536
0.0280429
0.0275999
0.027135
0.026657
0.0261732
0.0256894
0.02521
0.0247385
0.0242775
0.023829
0.0233961
0.0197699
0.0207754
0.0216333
0.0223389
0.0229008
0.0233235
0.0236167
0.0237914
0.0238594
0.0238326
0.0237233
0.0235433
0.0233042
0.0230166
0.0226902
0.0223339
0.0219552
0.0215607
0.021156
0.0207459
0.0203342
0.019924
0.019518
0.019118
0.0187271
0.00982708
0.0102337
0.0105864
0.0108791
0.0111169
0.0113029
0.0114401
0.0115318
0.0115813
0.0115923
0.0115684
0.0115133
0.011431
0.0113249
0.0111987
0.0110557
0.010899
0.0107314
0.0105556
0.0103739
0.0101884
0.0100007
0.00981255
0.00962514
0.00943972
0.00072722
0.000660622
0.00173289
0.00225981
0.00236889
0.00247478
0.00339326
0.00349192
0.00385249
0.00639741
0.00605995
0.00615074
0.0152818
0.0131566
0.0119689
0.0276205
0.0247288
0.0223269
0.0362788
0.0342842
0.0321052
0.0417384
0.0406527
0.0392996
0.0449293
0.0445739
0.0439771
0.0460307
0.0462491
0.0462751
0.0451454
0.0457222
0.0461831
0.0427706
0.0434404
0.0440707
0.0396813
0.0402378
0.0407988
0.0366044
0.0369631
0.0373383
0.033947
0.0341105
0.0342919
0.0316456
0.0316695
0.031709
0.0296578
0.0295343
0.0294293
0.0278491
0.0275981
0.0273649
0.0258308
0.0254993
0.0251816
0.0230228
0.0226634
0.0223138
0.0183879
0.0180577
0.0177343
0.00927889
0.00912118
0.00896653
0.000118418
0.000337698
0.000504787
0.000646154
0.000769694
0.00087901
0.000978794
0.00107106
0.00115715
0.00123797
0.00131415
0.00138617
0.00145444
0.00151928
0.00158099
0.00163983
0.00169604
0.00174985
0.00180145
0.00185104
0.0018988
0.00194491
0.00198954
0.00203285
0.00207502
0.0021162
0.00215655
0.00219624
0.00223544
0.0022743
0.002313
0.0023517
0.00239059
0.00242985
0.00246967
0.00251025
0.00255179
0.00259453
0.00263871
0.00268461
0.00273254
0.00278285
0.00283595
0.00289232
0.00295256
0.00301735
0.00308758
0.00316051
0.00323595
0.00331377
0.00339386
0.00347621
0.0035608
0.00364758
0.00373647
0.00382729
0.00391977
0.00401357
0.00410815
0.00420282
0.00429664
0.00438836
0.00447637
0.00455855
0.00463216
0.00469361
0.00473822
0.00475987
0.00475027
0.00469745
0.00458489
0.00439248
0.00412427
0.0037793
0.00328249
0.00266961
0.00202402
0.00141817
0.000978257
0.00058605
0.000527198
0.000953423
0.00119369
0.00140225
0.00162339
0.00185601
0.00209125
0.00232691
0.00256001
0.00278788
0.0030084
0.00322018
0.00342247
0.00361503
0.00379797
0.00397156
0.00413623
0.00429244
0.00444067
0.0045814
0.00471511
0.00484226
0.00496328
0.00507862
0.0051887
0.00529391
0.00539466
0.00549133
0.00558429
0.00567393
0.0057606
0.00584468
0.00592653
0.00600655
0.00608512
0.00616263
0.00623949
0.00631609
0.00639283
0.00647012
0.00654838
0.00662805
0.00670957
0.00679341
0.00687989
0.00696951
0.00706289
0.0071641
0.00727037
0.00738099
0.00749593
0.00761532
0.00773925
0.00786779
0.00800092
0.00813852
0.00828029
0.0084257
0.00857389
0.00872359
0.00887296
0.00901947
0.0091597
0.0092891
0.00940168
0.00948961
0.00954274
0.00954786
0.00948814
0.00934367
0.00909144
0.00870057
0.00814441
0.00740097
0.00645454
0.0052981
0.00396407
0.00245059
0.00135128
0.000594476
0.00073252
0.00138473
0.00168057
0.00197069
0.00230695
0.00266974
0.0030419
0.00341288
0.00377453
0.00412168
0.00445153
0.00476316
0.00505679
0.00533326
0.00559371
0.00583929
0.00607109
0.0062901
0.0064972
0.00669315
0.00687866
0.00705434
0.00722076
0.00737847
0.00752797
0.00766975
0.00780426
0.00793195
0.00805323
0.0081685
0.00827812
0.00838247
0.00848189
0.00857677
0.0086675
0.0087545
0.0088382
0.008919
0.00899731
0.00907354
0.00914811
0.00922146
0.00929409
0.00936653
0.00943932
0.00951301
0.00958822
0.00966553
0.00974881
0.00983601
0.00992686
0.0100215
0.01012
0.0102226
0.0103292
0.01044
0.0105545
0.0106721
0.0107919
0.0109121
0.0110303
0.011143
0.0112456
0.0113319
0.0113941
0.0114225
0.0114051
0.0113276
0.0111734
0.0109248
0.0105608
0.0100614
0.009414
0.00860452
0.00762225
0.0064382
0.00505016
0.00347043
0.00177261
0.000547139
0.000867905
0.00169276
0.00206543
0.00244707
0.00288737
0.0033574
0.00383368
0.00430019
0.00474743
0.0051709
0.00556938
0.00594365
0.00629544
0.00662675
0.00693948
0.00723531
0.00751559
0.00778143
0.00803371
0.00827314
0.00850033
0.00871579
0.00891999
0.00911336
0.00929635
0.00946936
0.00963283
0.00978717
0.00993278
0.0100701
0.0101993
0.0103209
0.0104351
0.0105423
0.0106429
0.0107373
0.0108262
0.0109099
0.0109889
0.0110635
0.0111342
0.0112013
0.0112651
0.011326
0.0113845
0.0114411
0.0114964
0.0115512
0.0116071
0.011666
0.011727
0.0117904
0.0118564
0.0119254
0.0119974
0.0120728
0.0121514
0.012233
0.0123166
0.0124009
0.0124833
0.0125603
0.012627
0.0126769
0.0127018
0.0126915
0.0126336
0.012514
0.012317
0.0120261
0.0116252
0.0110993
0.010436
0.0096251
0.00865716
0.00751845
0.00617102
0.00453154
0.00249291
0.000613696
0.000957273
0.00190118
0.00237056
0.00284609
0.0033766
0.00392993
0.00447916
0.00500829
0.00550953
0.00598077
0.00642311
0.00683911
0.00723169
0.00760356
0.007957
0.00829375
0.00861509
0.00892194
0.00921494
0.00949453
0.00976103
0.0100147
0.0102557
0.0104842
0.0107006
0.010905
0.0110978
0.0112792
0.0114496
0.0116094
0.0117588
0.0118981
0.0120275
0.0121474
0.0122581
0.0123601
0.0124544
0.0125415
0.0126221
0.0126968
0.0127658
0.0128294
0.012888
0.0129418
0.0129911
0.0130361
0.0130773
0.0131152
0.0131504
0.0131856
0.0132206
0.0132559
0.0132923
0.0133304
0.0133707
0.013414
0.0134609
0.0135119
0.0135668
0.0136251
0.0136849
0.0137436
0.0137967
0.0138383
0.0138606
0.0138534
0.0138042
0.0136983
0.0135185
0.0132463
0.0128622
0.0123482
0.0116888
0.0108725
0.00989327
0.0087441
0.00739345
0.00573574
0.00356939
0.000812043
0.00101172
0.00204708
0.00261651
0.00317867
0.00378264
0.00439591
0.00499265
0.00555969
0.00609277
0.00659278
0.00706303
0.00750751
0.00792997
0.00833348
0.00872037
0.00909222
0.00945006
0.00979446
0.0101257
0.0104437
0.0107486
0.0110402
0.0113183
0.0115828
0.0118336
0.0120709
0.0122945
0.0125046
0.0127015
0.0128854
0.0130565
0.0132149
0.0133607
0.013494
0.0136154
0.0137255
0.013825
0.0139155
0.0139981
0.0140733
0.0141414
0.014203
0.0142583
0.0143075
0.014351
0.0143889
0.0144216
0.0144491
0.0144715
0.0144895
0.0145039
0.014516
0.0145268
0.0145376
0.0145496
0.0145641
0.0145829
0.0146074
0.0146389
0.014678
0.0147243
0.014776
0.0148302
0.0148819
0.0149243
0.014948
0.0149408
0.0148875
0.0147697
0.0145658
0.0142512
0.0137995
0.0131841
0.0123803
0.0113698
0.0101421
0.00867817
0.00690004
0.00459555
0.00120913
0.00104516
0.00215371
0.00281505
0.00345103
0.00411044
0.00476299
0.00538702
0.00597389
0.00652322
0.00703877
0.00752573
0.0079892
0.00843346
0.00886174
0.00927627
0.00967836
0.0100687
0.0104474
0.0108143
0.0111691
0.0115111
0.01184
0.0121552
0.0124561
0.0127425
0.0130139
0.0132701
0.013511
0.0137365
0.0139467
0.0141416
0.014321
0.0144844
0.0146319
0.0147653
0.0148859
0.0149943
0.0150922
0.0151801
0.0152588
0.0153287
0.01539
0.0154432
0.0154886
0.0155266
0.0155574
0.0155814
0.015599
0.0156104
0.0156156
0.0156156
0.015611
0.0156015
0.0155887
0.0155751
0.0155633
0.015556
0.0155561
0.0155663
0.0155887
0.0156242
0.0156727
0.0157325
0.0158002
0.0158703
0.0159346
0.0159819
0.0159975
0.0159624
0.0158531
0.0156413
0.0152933
0.0147708
0.0140318
0.0130344
0.0117418
0.0101226
0.00812294
0.00558048
0.00173769
0.00106654
0.00223389
0.0029737
0.00366841
0.00436601
0.00504059
0.00567637
0.00626965
0.00682377
0.00734499
0.00784005
0.0083149
0.0087742
0.00922122
0.00965801
0.0100856
0.0105042
0.0109136
0.0113132
0.011702
0.0120793
0.0124439
0.0127951
0.013132
0.0134538
0.0137599
0.0140497
0.0143228
0.0145787
0.0148173
0.0150382
0.0152406
0.0154245
0.0155914
0.0157431
0.0158804
0.0160048
0.0161165
0.016216
0.0163037
0.0163799
0.0164447
0.0164985
0.0165414
0.016574
0.0165965
0.0166098
0.0166145
0.0166116
0.0166023
0.0165879
0.0165681
0.0165425
0.0165113
0.0164756
0.0164398
0.0164083
0.0163853
0.016375
0.0163809
0.0164053
0.0164497
0.0165139
0.016596
0.0166922
0.0167959
0.0168973
0.016983
0.0170345
0.0170281
0.0169334
0.0167125
0.0163186
0.0156954
0.0147773
0.0134922
0.0117667
0.00952177
0.00663017
0.00228846
0.00108066
0.00229529
0.00309855
0.00383675
0.00455721
0.00523991
0.00587543
0.00646486
0.00701488
0.00753391
0.00802998
0.00850972
0.00897804
0.00943819
0.00989202
0.0103402
0.0107826
0.0112186
0.0116469
0.0120665
0.0124758
0.0128736
0.0132585
0.0136294
0.0139852
0.014325
0.0146478
0.014953
0.01524
0.015508
0.0157568
0.0159856
0.0161966
0.016391
0.0165679
0.0167281
0.0168726
0.0170021
0.017117
0.0172175
0.0173037
0.0173758
0.0174339
0.0174782
0.0175089
0.0175267
0.0175322
0.0175265
0.0175107
0.0174861
0.0174543
0.0174165
0.0173741
0.0173271
0.0172737
0.0172179
0.0171652
0.0171214
0.017092
0.0170817
0.0170944
0.0171326
0.0171979
0.0172901
0.0174069
0.0175439
0.017693
0.0178425
0.0179754
0.0180687
0.0180919
0.018005
0.0177562
0.0172795
0.0164909
0.0152874
0.0135454
0.0111196
0.00782932
0.00288367
0.00109021
0.00234278
0.0031952
0.00396288
0.00469323
0.00537295
0.00599879
0.0065763
0.0071151
0.00762547
0.00811653
0.00859545
0.00906732
0.00953533
0.0100011
0.0104649
0.0109264
0.0113842
0.011837
0.012283
0.0127204
0.0131475
0.0135627
0.0139644
0.0143513
0.0147221
0.0150759
0.0154115
0.0157283
0.0160257
0.0163033
0.0165616
0.016803
0.0170258
0.0172291
0.0174138
0.0175807
0.0177306
0.0178637
0.0179804
0.0180806
0.0181643
0.0182315
0.0182822
0.0183167
0.0183354
0.0183389
0.0183284
0.0183052
0.0182707
0.0182272
0.0181761
0.0181188
0.0180565
0.017989
0.0179179
0.0178488
0.0177884
0.017743
0.0177184
0.0177194
0.0177502
0.0178136
0.0179111
0.0180426
0.0182053
0.0183937
0.018598
0.0188033
0.0189884
0.0191235
0.0191682
0.0190681
0.0187506
0.0181187
0.0170439
0.0153586
0.0128433
0.00920166
0.00351792
0.00109698
0.00238012
0.00326931
0.00405444
0.00478409
0.00545202
0.00606075
0.00661986
0.00714163
0.00763795
0.00811885
0.00859193
0.00906238
0.00953329
0.010006
0.0104806
0.010956
0.0114309
0.0119032
0.0123708
0.0128317
0.0132836
0.0137247
0.014153
0.0145671
0.0149654
0.0153466
0.0157098
0.016054
0.0163789
0.0166842
0.0169711
0.017241
0.0174914
0.0177211
0.0179306
0.0181209
0.0182927
0.0184463
0.0185821
0.0186999
0.0187995
0.0188809
0.018944
0.0189887
0.0190152
0.0190241
0.0190163
0.0189933
0.0189568
0.0189089
0.0188518
0.0187869
0.0187156
0.0186379
0.0185572
0.0184782
0.018407
0.0183505
0.018315
0.0183063
0.0183296
0.0183893
0.0184886
0.0186292
0.0188106
0.0190298
0.0192796
0.0195477
0.0198151
0.0200539
0.0202245
0.0202714
0.0201177
0.0196564
0.0187381
0.0171542
0.0146099
0.0106714
0.0041915
0.00110268
0.00241112
0.00332718
0.00412003
0.00484062
0.00548977
0.00607542
0.00661092
0.00711092
0.00758872
0.0080551
0.00851797
0.00898255
0.00945177
0.00992672
0.0104071
0.0108916
0.0113784
0.0118652
0.0123494
0.0128286
0.0133004
0.0137625
0.0142129
0.0146497
0.0150712
0.0154761
0.0158632
0.0162317
0.0165813
0.0169118
0.0172245
0.0175202
0.0177966
0.0180518
0.0182859
0.0184999
0.0186946
0.0188705
0.0190278
0.0191663
0.019286
0.0193865
0.0194675
0.0195287
0.0195702
0.0195921
0.0195952
0.0195807
0.0195504
0.0195067
0.0194517
0.0193869
0.0193138
0.019234
0.0191513
0.0190696
0.0189948
0.0189333
0.0188918
0.0188767
0.0188942
0.0189499
0.0190487
0.0191942
0.0193884
0.0196309
0.0199174
0.0202389
0.0205794
0.0209136
0.0212038
0.021395
0.0214077
0.0211273
0.0203865
0.0189389
0.016413
0.0121869
0.00493814
0.0011095
0.00244083
0.0033767
0.00416992
0.00487488
0.00549961
0.00605737
0.00656503
0.00703943
0.00749507
0.00794331
0.00839223
0.00884699
0.00931033
0.00978305
0.0102646
0.0107532
0.0112469
0.0117429
0.0122385
0.0127309
0.0132175
0.0136957
0.0141634
0.0146183
0.0150588
0.0154834
0.0158909
0.0162805
0.0166517
0.0170046
0.01734
0.0176588
0.0179593
0.018239
0.0184974
0.0187354
0.0189539
0.0191535
0.0193343
0.0194963
0.0196393
0.019763
0.0198669
0.0199506
0.0200135
0.0200556
0.0200771
0.020079
0.020063
0.0200315
0.0199865
0.0199296
0.0198627
0.01979
0.0197136
0.0196373
0.0195663
0.0195066
0.0194649
0.019448
0.0194627
0.0195156
0.0196131
0.0197608
0.0199631
0.0202223
0.0205377
0.0209039
0.0213086
0.0217302
0.0221341
0.0224672
0.0226496
0.0225614
0.0220199
0.0207435
0.0182869
0.0138262
0.00581866
0.00112085
0.0024773
0.00342921
0.00421745
0.00490139
0.00549686
0.00602258
0.00649891
0.00694462
0.0073752
0.00780234
0.00823417
0.00867566
0.0091293
0.00959562
0.0100737
0.0105618
0.0110573
0.0115574
0.0120592
0.0125597
0.0130561
0.0135456
0.0140258
0.0144945
0.01495
0.0153905
0.0158149
0.0162224
0.0166125
0.0169851
0.0173406
0.0176802
0.0180031
0.0183062
0.0185887
0.018851
0.019094
0.0193184
0.0195244
0.0197121
0.0198812
0.0200315
0.0201623
0.0202731
0.0203629
0.0204313
0.0204779
0.0205033
0.0205089
0.0204968
0.020469
0.0204277
0.0203768
0.0203191
0.020257
0.0201937
0.0201338
0.0200829
0.0200473
0.0200338
0.0200497
0.0201022
0.0201991
0.0203476
0.0205544
0.0208248
0.0211618
0.0215641
0.0220241
0.0225249
0.0230366
0.0235097
0.0238666
0.0239852
0.0236708
0.0226076
0.0202749
0.015666
0.00692915
0.00114375
0.00253556
0.00350208
0.00428078
0.00493846
0.00549994
0.00598974
0.0064317
0.00684623
0.00724946
0.00765318
0.00806534
0.0084906
0.00893109
0.00938706
0.00985742
0.0103401
0.0108326
0.0113319
0.0118348
0.0123384
0.0128398
0.0133359
0.0138242
0.0143027
0.0147692
0.0152223
0.0156605
0.016083
0.0164893
0.016879
0.0172525
0.017611
0.0179546
0.0182802
0.0185863
0.0188731
0.0191413
0.0193915
0.019624
0.0198391
0.0200364
0.0202157
0.0203765
0.0205178
0.0206388
0.0207384
0.0208157
0.0208706
0.020904
0.0209177
0.0209137
0.0208963
0.0208691
0.020834
0.0207934
0.0207501
0.0207082
0.0206726
0.0206493
0.0206448
0.0206664
0.020722
0.0208199
0.0209689
0.0211777
0.0214546
0.0218062
0.0222357
0.022741
0.0233113
0.0239232
0.0245337
0.0250705
0.0254143
0.0253638
0.0245694
0.0224282
0.017768
0.00842849
0.00118948
0.00264418
0.00362151
0.00438299
0.00500822
0.005531
0.0059809
0.00638584
0.00676735
0.00714173
0.00752047
0.00791109
0.00831779
0.00874202
0.0091839
0.00964228
0.0101151
0.0105997
0.0110932
0.0115925
0.0120945
0.0125964
0.0130947
0.013587
0.0140712
0.0145453
0.0150076
0.0154567