/*--------------------------------*- C++ -*----------------------------------*\
| =========                 |                                                 |
| \\      /  F ield         | OpenFOAM: The Open Source CFD Toolbox           |
|  \\    /   O peration     | Version:  v2012                                 |
|   \\  /    A nd           | Website:  www.openfoam.com                      |
|    \\/     M anipulation  |                                                 |
\*---------------------------------------------------------------------------*/
FoamFile
{
    version     2.0;
    format      ascii;
    class       volScalarField;
    location    "643";
    object      nut;
}
// * * * * * * * * * * * * * * * * * * * * * * * * * * * * * * * * * * * * * //

dimensions      [0 2 -1 0 0 0 0];


internalField   nonuniform List<scalar> 
6532
(
0.00318569
0.0112424
0.0135072
0.0138984
0.0138127
0.0138127
0.0138984
0.0135072
0.0112424
0.00318569
0.00236467
0.00917399
0.0123451
0.0132427
0.0133507
0.0133507
0.0132427
0.0123451
0.00917399
0.00236467
0.00187808
0.0078655
0.0112993
0.0125669
0.0128788
0.0128788
0.0125669
0.0112993
0.00786551
0.00187808
0.00156389
0.00694968
0.0104044
0.0119074
0.0123861
0.0123861
0.0119074
0.0104044
0.00694968
0.00156389
0.00134656
0.00626495
0.00964562
0.0112836
0.0118825
0.0118825
0.0112836
0.00964563
0.00626497
0.00134656
0.00118776
0.00572811
0.00899861
0.010703
0.0113811
0.0113811
0.010703
0.00899863
0.00572813
0.00118776
0.00106654
0.00529186
0.00844068
0.0101668
0.0108922
0.0108922
0.0101668
0.00844071
0.00529188
0.00106654
0.000970726
0.00492741
0.00795359
0.00967301
0.0104227
0.0104227
0.00967304
0.00795364
0.00492745
0.000970729
0.00089285
0.00461629
0.00752338
0.0092184
0.00997646
0.00997648
0.00921845
0.00752345
0.00461635
0.000892854
0.000828095
0.00434609
0.00713948
0.00879949
0.00955529
0.00955532
0.00879957
0.00713958
0.00434619
0.0008281
0.000773237
0.00410821
0.00679387
0.00841287
0.00915951
0.00915955
0.00841298
0.00679402
0.00410835
0.000773244
0.000726042
0.00389643
0.00648044
0.00805538
0.00878853
0.0087886
0.00805555
0.00648067
0.00389664
0.000726052
0.000684912
0.00370617
0.00619442
0.00772416
0.00844127
0.00844137
0.00772441
0.00619476
0.00370648
0.000684927
0.000648677
0.00353395
0.00593204
0.00741666
0.00811633
0.00811648
0.00741703
0.00593255
0.00353441
0.000648698
0.000616458
0.00337707
0.00569027
0.00713059
0.00781222
0.00781245
0.00713114
0.00569102
0.00337774
0.000616488
0.00058758
0.00323338
0.00546661
0.00686392
0.00752744
0.00752777
0.00686475
0.00546771
0.00323433
0.000587622
0.000561519
0.00310111
0.00525899
0.00661484
0.00726049
0.00726096
0.00661608
0.00526056
0.00310243
0.000561577
0.000537856
0.00297883
0.00506563
0.00638171
0.00700995
0.00701064
0.00638354
0.00506783
0.00298049
0.000537934
0.000516256
0.00286529
0.00488496
0.00616302
0.00677447
0.00677545
0.00616566
0.00488813
0.00286726
0.000516356
0.00049644
0.00275936
0.0047155
0.00595725
0.00655261
0.00655404
0.00596111
0.00471988
0.00276011
0.000496556
0.000477825
0.00265843
0.0045535
0.00576022
0.0063401
0.00634232
0.00576674
0.00456535
0.00269021
0.000552192
0.000460628
0.00256352
0.00440054
0.00557384
0.00613908
0.00614258
0.0055851
0.00442578
0.00263588
0.000627268
0.000444681
0.00247403
0.00425595
0.00539756
0.00594911
0.00595452
0.00541589
0.00430017
0.00260041
0.000721401
0.000429838
0.0023893
0.00411881
0.00523039
0.00576925
0.00577711
0.00525763
0.00418507
0.00259824
0.000841786
0.000415974
0.00230877
0.00398833
0.00507144
0.00559854
0.00560911
0.00510753
0.00408615
0.00262389
0.000994945
0.00040298
0.00223192
0.00386376
0.0049199
0.00543621
0.00545005
0.00496571
0.00400516
0.00266379
0.00118013
0.000390762
0.00215828
0.0037444
0.00477503
0.0052816
0.00529996
0.00483739
0.00393447
0.00270693
0.0013917
0.000379235
0.00208739
0.00362961
0.00463613
0.00513416
0.00515859
0.00472111
0.00387534
0.00275269
0.0016205
0.000368325
0.00201877
0.00351873
0.00450252
0.00499333
0.00502554
0.0046157
0.00382673
0.00280474
0.00184747
0.000357963
0.00195203
0.00341112
0.00437356
0.00485855
0.00490031
0.00452021
0.00378806
0.00286428
0.00206405
0.000348087
0.00188676
0.00330617
0.00424859
0.00472924
0.00478234
0.00443384
0.00375882
0.00293071
0.00226775
0.00033864
0.00182254
0.00320325
0.00412695
0.00460481
0.00467106
0.00435581
0.00373816
0.00300099
0.00245653
0.000329568
0.00175895
0.00310173
0.00400798
0.00448461
0.0045658
0.00428529
0.00372502
0.00307353
0.00262924
0.00032082
0.00169561
0.00300097
0.00389096
0.00436797
0.00446586
0.00422145
0.0037183
0.00314647
0.00278528
0.000312346
0.00163216
0.00290031
0.00377514
0.00425412
0.00437045
0.00416334
0.00371673
0.00321799
0.00292436
0.000304099
0.00156827
0.0027991
0.00365974
0.00414223
0.00427868
0.00410991
0.00371893
0.00328642
0.00304647
0.000296033
0.00150369
0.00269672
0.00354394
0.00403143
0.0041896
0.00406003
0.00372347
0.00335041
0.00315195
0.000288106
0.00143833
0.00259271
0.00342707
0.00392091
0.00410225
0.00401252
0.00372893
0.00340894
0.00324156
0.000280565
0.00137424
0.00249007
0.00331209
0.00381308
0.00401803
0.00396731
0.00373353
0.00345962
0.00331421
0.000273071
0.00130908
0.00238504
0.00319467
0.00370368
0.00393326
0.00392177
0.00373638
0.00350428
0.00337483
0.000265583
0.0012429
0.0022771
0.00307374
0.00359124
0.00384626
0.00387422
0.00373606
0.00354286
0.00342554
0.000258064
0.00117586
0.00216608
0.00294856
0.0034746
0.00375554
0.003823
0.0037312
0.00357527
0.0034685
0.000250474
0.00110821
0.00205191
0.00281846
0.00335248
0.00365939
0.00376625
0.00372019
0.00360117
0.00350563
0.000242773
0.00104019
0.00193467
0.0026828
0.00322353
0.00355593
0.0037018
0.00370108
0.00361969
0.00353815
0.000234919
0.00097209
0.00181451
0.00254101
0.00308633
0.003443
0.00362711
0.00367137
0.00362908
0.00356605
0.000226865
0.000904177
0.00169169
0.00239264
0.00293941
0.00331824
0.00353918
0.00362789
0.00362648
0.00358751
0.000218559
0.000836691
0.0015665
0.00223731
0.00278132
0.00317908
0.00343459
0.00356673
0.00360777
0.00359866
0.000209935
0.000769822
0.00143929
0.00207481
0.0026107
0.0030229
0.00330963
0.00348327
0.00356759
0.0035935
0.000200914
0.000703704
0.00131044
0.00190511
0.00242649
0.00284729
0.00316051
0.00337253
0.00349966
0.00356429
0.000191387
0.000638421
0.0011804
0.00172854
0.00222814
0.00265036
0.00298386
0.00322961
0.00339739
0.00350234
0.000181203
0.000574023
0.00104976
0.00154595
0.00201605
0.00243141
0.0027775
0.0030506
0.00325481
0.00339911
0.000170128
0.000510483
0.00091957
0.0013592
0.00179218
0.00219176
0.00254146
0.00283375
0.0030679
0.00324769
0.000155753
0.000447798
0.000791503
0.00117187
0.00156121
0.00193609
0.00227946
0.00258102
0.00283608
0.00304323
0.000103893
0.00039171
0.000671104
0.000990666
0.00133137
0.00167338
0.00200006
0.00229921
0.00256202
0.0027849
0.000109888
0.000349412
0.00057177
0.000830403
0.00111767
0.00141854
0.00171717
0.00199877
0.0022554
0.00248237
0.000104571
0.00031904
0.000504721
0.000709769
0.000942225
0.00119382
0.00144977
0.00170044
0.00193772
0.00215561
7.59984e-05
0.000308753
0.000469718
0.000636756
0.000820975
0.00101907
0.00122645
0.00143619
0.00164121
0.00183531
6.67526e-05
0.000293222
0.000456069
0.000599745
0.000723767
0.000845428
0.000978595
0.00112099
0.00126541
0.00140737
6.56404e-05
0.000218164
0.000427801
0.000554093
0.000671417
0.000699013
0.000758427
0.000849986
0.00095497
0.00106272
6.94838e-05
0.000113417
0.000140842
0.000172052
0.000201256
0.000221364
0.000236281
0.000248541
0.000258563
0.000266712
0.000142899
0.000165351
0.000167302
0.000172199
0.000176155
0.00017871
0.00017971
0.000179192
0.000177165
0.000173933
0.000169829
0.000164798
0.000158835
0.000152183
0.000144994
0.000137318
0.000129119
0.00012103
0.000113252
0.000105444
9.73584e-05
8.87036e-05
7.90031e-05
6.72588e-05
4.21917e-05
0.000255655
0.000517215
0.000804579
0.000966561
0.00105418
0.00110791
0.00113898
0.00115144
0.00114727
0.001127
0.00109361
0.00105036
0.000999382
0.000942534
0.000881094
0.000815494
0.000743658
0.000649126
0.00054128
0.000435455
0.000341063
0.000262843
0.000202826
0.000154893
4.99669e-05
0.00041317
0.000662765
0.00102859
0.00136684
0.00158214
0.00171541
0.00179602
0.00183753
0.00184697
0.00182889
0.00178722
0.00172841
0.00165749
0.00157737
0.00148911
0.0013919
0.00128153
0.0011442
0.000976685
0.00079389
0.000614179
0.000454904
0.000327166
0.000222409
5.50667e-05
0.000687164
0.000704596
0.00105327
0.00142405
0.00172597
0.00191863
0.00203663
0.00210045
0.00212171
0.00210852
0.00206844
0.00200977
0.00194067
0.00186533
0.00178406
0.00169364
0.00158713
0.00145149
0.00127686
0.00106975
0.00084612
0.000629315
0.000440485
0.000274118
5.7339e-05
0.00104886
0.000901222
0.00119412
0.00142536
0.00172515
0.00195939
0.00210196
0.00217815
0.00220315
0.00218827
0.00214455
0.00208343
0.00201611
0.00194917
0.00188292
0.00181186
0.00172595
0.00161059
0.00145213
0.00125011
0.00101464
0.000767553
0.000533761
0.000311666
5.81044e-05
0.00130317
0.00123867
0.00139069
0.00152796
0.00173333
0.00195143
0.00211215
0.00219662
0.00222106
0.00219923
0.00214611
0.00207712
0.00200575
0.0019418
0.00188724
0.00183501
0.00177194
0.00168058
0.00154416
0.00135762
0.00112603
0.000866898
0.000603409
0.000336616
5.80704e-05
0.00152498
0.00162469
0.00162123
0.00168047
0.00182199
0.00197366
0.0021142
0.00220432
0.00222825
0.00219731
0.00213091
0.00204962
0.00196994
0.00190276
0.00185308
0.00181467
0.00177175
0.00170263
0.00158686
0.00141678
0.00119423
0.000932482
0.000650591
0.000351307
5.75767e-05
0.00174015
0.00186824
0.00186487
0.00188132
0.00195937
0.00206655
0.00215914
0.00222471
0.00224374
0.00220379
0.00212175
0.00202475
0.00193293
0.00185808
0.00180601
0.00177421
0.00174723
0.00169744
0.00160012
0.00144467
0.0012315
0.000971155
0.000678575
0.000357997
5.67634e-05
0.00194935
0.0020956
0.00210913
0.00210333
0.00213205
0.00219792
0.00225835
0.00228883
0.00228226
0.00222763
0.00212802
0.00201253
0.00190518
0.00181811
0.00175716
0.00172399
0.00170446
0.00167059
0.00159176
0.00145057
0.00124594
0.000988738
0.000690936
0.000358544
5.56827e-05
0.00215147
0.00231114
0.00234799
0.00233429
0.00233009
0.00235987
0.0023911
0.00239513
0.00235703
0.0022773
0.00215522
0.00201752
0.0018905
0.00178642
0.00171088
0.00166735
0.00164732
0.00162343
0.00156066
0.00143331
0.00123996
0.00098889
0.000690881
0.000354704
5.44504e-05
0.00234518
0.00251577
0.00257718
0.00256829
0.00254829
0.00254517
0.00254955
0.00253051
0.00246701
0.00235691
0.00220761
0.00204281
0.00189063
0.00176535
0.00167078
0.00160854
0.00157701
0.0015556
0.00150847
0.00139553
0.0012136
0.000970212
0.000675779
0.000342586
5.33841e-05
0.0025291
0.00270803
0.00279271
0.00279695
0.00277184
0.00274451
0.00272713
0.0026892
0.00260523
0.00246835
0.00228919
0.00209316
0.00191102
0.00176034
0.00164302
0.00155609
0.0014999
0.00146581
0.00142952
0.00133658
0.00116871
0.000935091
0.00064818
0.000324859
5.23321e-05
0.00270106
0.0028853
0.00299132
0.003013
0.00298791
0.00294928
0.00291679
0.00286535
0.0027669
0.00261077
0.00240508
0.00217551
0.00196031
0.0017792
0.00163487
0.00152051
0.00139719
0.00130999
0.00127762
0.00121377
0.00108669
0.000886389
0.000611782
0.000304363
5.12076e-05
0.00285848
0.00304576
0.00317085
0.00321102
0.00319424
0.00315809
0.00311264
0.00305317
0.00294764
0.00278045
0.00255514
0.00229777
0.00204877
0.00183259
0.00165543
0.00151099
0.00130859
0.00114814
0.0011164
0.00108948
0.000992753
0.000830433
0.000571627
0.000283392
4.99722e-05
0.00299903
0.00318696
0.00332788
0.00338635
0.00338233
0.00335132
0.00330589
0.00324624
0.00314223
0.00297487
0.00274094
0.00246482
0.00218697
0.00193459
0.00171811
0.00153706
0.0013478
0.00104053
0.000944115
0.000950641
0.000907822
0.000770984
0.000533899
0.000264652
4.8648e-05
0.00312092
0.00330661
0.00345932
0.00353657
0.0035491
0.00352851
0.00349491
0.00343872
0.00334446
0.00318947
0.00296112
0.00267995
0.00238404
0.00210015
0.0018424
0.0016157
0.0014195
0.00107683
0.000825898
0.000766892
0.000778973
0.000712061
0.000505716
0.000252597
4.73816e-05
0.00322319
0.00340317
0.00356366
0.00365853
0.00368923
0.00368223
0.0036621
0.00362275
0.00354653
0.00341698
0.00321023
0.0029407
0.00264272
0.00234108
0.00204906
0.00177467
0.00152455
0.00130204
0.000876046
0.0006496
0.000590934
0.000594492
0.000492144
0.000256615
4.66342e-05
0.00330579
0.00347614
0.00364046
0.00375001
0.00379984
0.00380917
0.00380492
0.00378874
0.00373947
0.00364611
0.00347735
0.00323775
0.00295694
0.00265752
0.00235039
0.00204124
0.00173781
0.00144967
0.00118814
0.00074123
0.000497659
0.0004038
0.000348472
0.000283421
4.8041e-05
0.00336775
0.0035245
0.00368792
0.00380773
0.00387615
0.00390439
0.00391575
0.00392218
0.00390963
0.00385928
0.00374205
0.00355019
0.00330663
0.00303214
0.00273637
0.00242168
0.00208971
0.00174645
0.00140781
0.0010907
0.000685516
0.000386106
0.00025535
0.000189603
6.00732e-05
0.00341435
0.0035533
0.00371077
0.00383725
0.00392023
0.00396707
0.00399383
0.00401845
0.00403807
0.00403816
0.00397939
0.00384831
0.00365822
0.00342721
0.00316531
0.00287405
0.00255136
0.00219628
0.00181302
0.00141738
0.00103435
0.000702249
0.000410369
0.000219862
0.000189525
0.00344862
0.00356572
0.00371176
0.00384001
0.00393329
0.0039957
0.00403954
0.00407755
0.00412053
0.00416303
0.00416905
0.00410936
0.00398843
0.00381868
0.00361031
0.00336625
0.00308407
0.00275927
0.00238835
0.00197313
0.00152702
0.0010892
0.000714404
0.000457438
0.000330446
0.00347413
0.00356607
0.00369506
0.00381925
0.00391855
0.0039918
0.00404837
0.00409985
0.00415739
0.00422264
0.0042806
0.0042976
0.00425778
0.00416529
0.00402822
0.00385157
0.00363556
0.00337687
0.00307029
0.00271123
0.00222743
0.00185515
0.00140291
0.00100611
0.000685399
0.00349482
0.00355968
0.00366647
0.00378016
0.00387987
0.00396009
0.00402593
0.00408664
0.00415198
0.00422761
0.00430862
0.00437955
0.00442245
0.00441645
0.00436281
0.00426637
0.00413072
0.0039566
0.00370083
0.00324989
0.0027765
0.00232869
0.00194779
0.00159607
0.00124233
0.00351428
0.00355237
0.00363311
0.00373
0.00382353
0.0039054
0.00397663
0.00404334
0.00411304
0.00419221
0.00428189
0.00437573
0.00446279
0.00452904
0.00456
0.004546
0.00449127
0.00432335
0.00409318
0.00383506
0.00354904
0.00322591
0.0028979
0.00260018
0.00234423
0.00353489
0.00354941
0.00360269
0.0036776
0.0037582
0.0038353
0.00390686
0.00397587
0.0040473
0.00412644
0.00421686
0.00431692
0.0044206
0.00451862
0.00460009
0.00449322
0.00437048
0.00425266
0.00414347
0.00403835
0.0039198
0.00378212
0.00363039
0.00347513
0.0033301
0.00355692
0.0035542
0.00358201
0.00363228
0.00369429
0.00375995
0.00382572
0.00389203
0.00396172
0.0040384
0.00412524
0.00422303
0.00432859
0.00443503
0.00441117
0.00425573
0.00411868
0.00401435
0.00394006
0.00389125
0.00385984
0.00383703
0.00381723
0.00379812
0.00377865
0.0035777
0.00356687
0.00357506
0.00360184
0.00364226
0.00369101
0.00374465
0.0038022
0.00386494
0.00393523
0.0040154
0.00410647
0.00420666
0.00431095
0.0042534
0.00405112
0.00388887
0.00376669
0.00368083
0.00362974
0.00360911
0.00361281
0.00363581
0.00367406
0.00372302
0.00359133
0.0035832
0.00358111
0.00358992
0.00360988
0.00363913
0.00367581
0.00371924
0.00376975
0.00382852
0.00389701
0.00397622
0.00406565
0.00416226
0.00419366
0.00394565
0.00374151
0.00359147
0.00348192
0.00340839
0.00336683
0.00335349
0.00336516
0.00339934
0.00345272
0.00358893
0.00359445
0.00359345
0.00359358
0.00359867
0.00361024
0.00362902
0.00365531
0.00368955
0.00373245
0.00378486
0.00384743
0.00392015
0.0040016
0.00408752
0.00391587
0.00368814
0.00351553
0.00338624
0.00328919
0.0032175
0.00317551
0.00315927
0.00316649
0.00319484
0.00355962
0.0035882
0.00359957
0.00360193
0.00360132
0.00360199
0.00360658
0.00361684
0.00363402
0.0036591
0.00369288
0.00373588
0.00378823
0.00384942
0.00391762
0.00398837
0.00377984
0.0035583
0.00339213
0.00326682
0.00317257
0.00310422
0.00306081
0.00303972
0.0030384
0.00349192
0.00354991
0.00358219
0.00359724
0.00360188
0.00360136
0.0035996
0.00359953
0.00360333
0.00361264
0.00362864
0.0036521
0.0036834
0.00372253
0.0037689
0.003821
0.00387568
0.00380737
0.00358492
0.00341056
0.00327855
0.00317846
0.00310393
0.00305274
0.00302169
0.00337511
0.00346378
0.00352258
0.00355861
0.00357815
0.00358651
0.00358808
0.0035864
0.0035843
0.003584
0.00358718
0.00359504
0.00360839
0.00362763
0.00365284
0.0036837
0.00371937
0.00375836
0.0037988
0.00377179
0.00358866
0.0034411
0.00332904
0.0032449
0.00318378
0.0031991
0.00331749
0.00340465
0.00346608
0.00350699
0.00353216
0.00354578
0.00355148
0.00355229
0.00355075
0.0035489
0.0035483
0.00355016
0.0035553
0.00356425
0.00357727
0.00359439
0.00361534
0.00363962
0.00366637
0.00369442
0.00372327
0.00374563
0.00362436
0.00352787
0.00296206
0.00310524
0.00321849
0.00330554
0.00337027
0.00341653
0.00344791
0.0034677
0.00347882
0.00348382
0.00348485
0.0034837
0.00348181
0.00348032
0.00348007
0.0034817
0.00348562
0.00349208
0.00350118
0.00351281
0.00352677
0.00354277
0.00356042
0.00357885
0.00359772
0.00267084
0.00283066
0.00296389
0.00307254
0.00315911
0.00322632
0.00327696
0.00331375
0.00333922
0.00335572
0.00336531
0.00336978
0.00337067
0.00336927
0.0033666
0.0033635
0.00336063
0.00335848
0.00335743
0.00335773
0.00335951
0.00336285
0.00336769
0.0033739
0.00338133
0.00234315
0.00250831
0.0026515
0.00277333
0.00287503
0.00295826
0.00302491
0.003077
0.00311655
0.00314548
0.00316561
0.00317857
0.00318582
0.00318863
0.00318809
0.00318512
0.00318049
0.00317482
0.00316862
0.00316231
0.00315621
0.00315055
0.00314551
0.00314122
0.00313778
0.00200712
0.00216286
0.0023018
0.00242351
0.00252838
0.0026173
0.00269127
0.00275158
0.00279959
0.00283673
0.0028644
0.00288395
0.0028966
0.0029035
0.00290566
0.00290397
0.0028992
0.00289202
0.00288301
0.00287263
0.00286131
0.00284936
0.00283709
0.00282473
0.00281256
0.00154362
0.00168313
0.00183043
0.00198903
0.00211266
0.00219106
0.00225692
0.00231109
0.00235449
0.0023881
0.00241293
0.00242997
0.0024402
0.00244452
0.00244381
0.00243883
0.00243028
0.00241881
0.00240496
0.00238924
0.00237206
0.00235381
0.00233481
0.00231536
0.00229579
0.00117055
0.00128729
0.00138569
0.00144013
0.00148638
0.00152439
0.0015546
0.00157753
0.00159375
0.00160389
0.00160857
0.00160843
0.00160409
0.00159614
0.00158514
0.0015716
0.00155601
0.00153879
0.00152033
0.00150096
0.00148098
0.00146064
0.00144016
0.00141975
0.00139961
0.000273211
0.000278806
0.000283569
0.000287463
0.000290587
0.000293008
0.000294782
0.000295961
0.000296596
0.000296736
0.00029643
0.000295724
0.000294664
0.000293294
0.000291655
0.000289787
0.000287725
0.000285505
0.000283157
0.00028071
0.000278188
0.000275614
0.000273009
0.000270389
0.000267772
6.98486e-05
7.03706e-05
3.76362e-05
0.000165015
0.000113972
0.000198569
0.000300697
0.000305926
0.000203216
0.00042517
0.000320392
0.000324325
0.000944303
0.000808103
0.000801632
0.00211666
0.00195552
0.00188705
0.0032088
0.00311881
0.00305468
0.00375919
0.00374715
0.00374548
0.00377306
0.00382279
0.00387832
0.00351479
0.00358198
0.00365685
0.00323598
0.00328802
0.00335055
0.00305052
0.00307621
0.00311354
0.00300525
0.00300356
0.00301358
0.00314109
0.00311458
0.00309941
0.00345795
0.00340831
0.00337223
0.00361492
0.00363232
0.00365019
0.00338876
0.00339701
0.00340602
0.00313522
0.00313344
0.00313227
0.00280172
0.00279132
0.00278116
0.00227824
0.00226096
0.00224376
0.00138199
0.0013648
0.00134794
0.000265481
0.000263215
0.000260974
2.69301e-05
5.27308e-05
6.1329e-05
6.29086e-05
7.94463e-05
8.50739e-05
8.97729e-05
9.39086e-05
9.761e-05
0.000100961
0.000104021
0.000106834
0.000109433
0.000111845
0.000114094
0.000116198
0.000118173
0.000120033
0.00012179
0.000123455
0.000125037
0.000126546
0.00012799
0.000129376
0.000130711
0.000132001
0.000133254
0.000134474
0.000135669
0.000136843
0.000138003
0.000139152
0.000140298
0.000141446
0.0001426
0.000143767
0.000144951
0.00014616
0.000147399
0.000148676
0.000149997
0.000151371
0.000152809
0.00015432
0.000155919
0.00015762
0.000159444
0.000161316
0.00016323
0.000165181
0.000167165
0.000169181
0.000171227
0.000173301
0.0001754
0.000177519
0.000179651
0.000181788
0.000183917
0.000186024
0.000188089
0.000190086
0.000191983
0.000193737
0.000195295
0.000196586
0.000197518
0.000197969
0.000197769
0.000196666
0.000194296
0.000190175
0.000184278
0.000176402
0.0001644
0.00014826
0.000129094
0.000108059
8.97481e-05
5.99096e-05
4.99509e-05
0.000136913
0.00015576
0.000177492
0.000202256
0.000230913
0.000261887
0.000294306
0.000327393
0.0003605
0.000393121
0.000424897
0.000455593
0.000485071
0.000513269
0.00054017
0.000565791
0.00059017
0.000613356
0.000635406
0.000656379
0.00067634
0.00069535
0.000713475
0.000730776
0.000747315
0.000763155
0.000778355
0.000792976
0.000807077
0.000820718
0.000833959
0.00084686
0.00085948
0.000871874
0.000884094
0.000896181
0.000908165
0.000920066
0.000931888
0.00094362
0.000955232
0.000966671
0.000977867
0.000988627
0.000998797
0.00100824
0.00101889
0.00103002
0.00104141
0.00105298
0.0010647
0.00107652
0.00108837
0.00110018
0.00111186
0.00112328
0.00113428
0.00114464
0.00115411
0.00116236
0.00116897
0.00117346
0.00117523
0.00117357
0.00116768
0.00115658
0.00113917
0.00111418
0.00108031
0.00103629
0.0009454
0.000855348
0.000802492
0.000744008
0.000641167
0.000522821
0.000356488
0.000189441
5.30423e-05
5.88797e-05
0.000189338
0.000239509
0.000282488
0.000336513
0.000399865
0.000469527
0.000542844
0.000617586
0.000692047
0.000765023
0.000835741
0.000903758
0.00096886
0.00103098
0.00109014
0.00114643
0.00119994
0.00125079
0.00129912
0.00134504
0.00138868
0.00143018
0.00146965
0.00150721
0.00154299
0.00157709
0.00160962
0.0016407
0.00167041
0.00169887
0.00172616
0.00175238
0.00177761
0.00180193
0.00182539
0.00184806
0.00186995
0.00189107
0.0019114
0.0019309
0.00194952
0.00196718
0.0019838
0.00199928
0.0020135
0.00202637
0.00203775
0.00204962
0.00206093
0.00207136
0.00208067
0.00208869
0.0020952
0.00209995
0.00210264
0.00210293
0.0021004
0.00209454
0.00208475
0.0020703
0.00205039
0.00202408
0.00199036
0.00194812
0.00189622
0.00183354
0.00175904
0.00167192
0.00157175
0.00143881
0.00127188
0.00112727
0.00100759
0.000908052
0.000765209
0.000617293
0.00046223
0.000261406
5.08867e-05
6.22607e-05
0.000241183
0.000318896
0.000390905
0.00047933
0.000580544
0.000690678
0.000805238
0.000920764
0.00103483
0.00114587
0.00125297
0.00135566
0.00145377
0.00154728
0.00163631
0.00172098
0.00180147
0.00187795
0.0019506
0.00201959
0.00208508
0.00214725
0.00220624
0.00226223
0.00231534
0.00236575
0.00241357
0.00245897
0.00250205
0.00254297
0.00258182
0.00261872
0.00265378
0.00268709
0.00271875
0.00274881
0.0027773
0.00280424
0.00282958
0.00285324
0.00287514
0.00289514
0.00291311
0.00292888
0.0029423
0.00295317
0.00296133
0.00296709
0.0029714
0.00297339
0.00297268
0.002969
0.00296207
0.00295159
0.00293719
0.00291847
0.00289493
0.00286595
0.00283083
0.00278868
0.00273854
0.00267929
0.00260972
0.00252859
0.00243465
0.00232677
0.00220408
0.00206613
0.00191316
0.00174636
0.00156789
0.00138115
0.00119091
0.00100236
0.000820172
0.000645968
0.000475507
0.000282097
5.38931e-05
6.7309e-05
0.000288601
0.000394384
0.000498749
0.000622219
0.000760906
0.000908752
0.0010604
0.0012118
0.00136024
0.00150409
0.00164248
0.00177501
0.00190157
0.00202225
0.00213718
0.00224656
0.00235059
0.0024495
0.00254347
0.0026327
0.00271738
0.00279768
0.00287379
0.00294585
0.00301405
0.00307854
0.00313948
0.00319703
0.00325135
0.00330258
0.00335087
0.00339637
0.00343919
0.00347949
0.00351737
0.00355296
0.00358637
0.00361764
0.00364673
0.00367357
0.00369802
0.00371993
0.00373909
0.00375526
0.00376817
0.00377752
0.00378299
0.00378425
0.00378244
0.00377683
0.00376711
0.00375302
0.00373432
0.00371075
0.003682
0.00364773
0.00360747
0.00356065
0.00350651
0.00344414
0.00337244
0.00329012
0.00319577
0.00308786
0.00296482
0.0028252
0.00266777
0.0024918
0.00229732
0.00208549
0.00185895
0.00162207
0.001381
0.00114307
0.0009152
0.00070294
0.000504907
0.000304522
6.19936e-05
6.91967e-05
0.000322263
0.000465112
0.000602555
0.000759659
0.000932217
0.00111317
0.00129654
0.00147814
0.00165533
0.00182657
0.00199111
0.00214865
0.00229917
0.00244279
0.00257973
0.00271019
0.00283442
0.00295264
0.00306505
0.00317185
0.00327323
0.00336937
0.00346044
0.0035466
0.003628
0.00370481
0.00377718
0.00384526
0.00390923
0.00396925
0.00402549
0.00407812
0.00412733
0.00417336
0.00421632
0.00425622
0.0042936
0.0043286
0.00436122
0.00439138
0.00441898
0.00444386
0.00446583
0.00448461
0.00449988
0.00451123
0.00451814
0.00451995
0.00451649
0.00450759
0.00449319
0.00447302
0.00444693
0.00441483
0.0043766
0.00433202
0.00428079
0.00422241
0.00415619
0.0040812
0.00399624
0.0038999
0.00379048
0.00366612
0.0035248
0.00336448
0.00318328
0.00297974
0.00275313
0.00250389
0.00223411
0.001948
0.00165209
0.00135529
0.00106827
0.000800951
0.000557897
0.000330935
7.56474e-05
7.0331e-05
0.000350155
0.000530175
0.00069961
0.000887294
0.00108927
0.00129812
0.00150782
0.00171428
0.00191505
0.00210878
0.00229484
0.00247304
0.00264345
0.00280625
0.00296167
0.00310997
0.00325137
0.00338611
0.00351438
0.00363639
0.0037523
0.00386228
0.00396648
0.00406505
0.00415813
0.00424584
0.00432832
0.00440571
0.00447812
0.00454571
0.0046086
0.00466694
0.00472104
0.00477185
0.00481901
0.00481921
0.00482264
0.00483002
0.00483866
0.00484892
0.00486182
0.0048784
0.00489978
0.00492724
0.00496221
0.0050065
0.00506264
0.00513076
0.0051776
0.0051708
0.00515729
0.00513602
0.00510685
0.00507025
0.00502652
0.00497574
0.00491785
0.00485252
0.00477919
0.00469699
0.00460472
0.00450087
0.00438354
0.00425051
0.00409929
0.00392718
0.00373147
0.00350969
0.00325996
0.00298153
0.0026753
0.00234451
0.00199526
0.00163692
0.00128199
0.000944838
0.000637838
0.000363873
9.06867e-05
7.10466e-05
0.000373314
0.000589032
0.000788237
0.0010027
0.0012294
0.00146116
0.00169219
0.0019187
0.00213847
0.00235034
0.00255385
0.00274891
0.00293565
0.00311431
0.00328514
0.0034484
0.00360433
0.00375314
0.00389503
0.00403016
0.0041587
0.00428078
0.00439654
0.0045061
0.00460958
0.00470707
0.00479866
0.00488443
0.00496446
0.00503878
0.00510739
0.00514887
0.0051137
0.00509365
0.00508533
0.00508012
0.00507719
0.00507636
0.00507743
0.00508129
0.00508908
0.00510198
0.00512139
0.00514893
0.0051864
0.00523534
0.00529657
0.00537036
0.00545815
0.00556486
0.00568727
0.00573631
0.00570788
0.00566977
0.00562323
0.00556893
0.00550711
0.00543775
0.00536049
0.0052746
0.005179
0.00507215
0.00495207
0.00481629
0.00466189
0.00448551
0.00428353
0.00405231
0.00378856
0.00348989
0.00315558
0.00278733
0.00239014
0.00197294
0.00154892
0.00113512
0.0007505
0.000411099
0.000104071
7.15155e-05
0.000392555
0.000641537
0.000867686
0.00110495
0.00135185
0.00160189
0.00184976
0.00209202
0.00232673
0.00255294
0.00277032
0.00297889
0.00317886
0.00337048
0.00355403
0.00372977
0.00389792
0.00405868
0.0042122
0.00435865
0.00449815
0.00463083
0.00475678
0.00487612
0.00498893
0.00509529
0.00519526
0.00528888
0.00537616
0.00545709
0.00547042
0.00540799
0.00536423
0.00534198
0.00532808
0.00531708
0.00530841
0.00530308
0.00530095
0.00530236
0.00530817
0.00531949
0.00533778
0.00536501
0.00540366
0.0054564
0.00552501
0.00560926
0.00570847
0.00582432
0.00595965
0.00611437
0.00624207
0.00620408
0.00615627
0.00609997
0.00603585
0.00596418
0.00588488
0.00579747
0.00570104
0.00559421
0.00547503
0.00534094
0.0051887
0.0050144
0.00481354
0.0045812
0.00431242
0.00400282
0.00364943
0.00325186
0.00281344
0.00234229
0.00185198
0.00136135
0.000893508
0.000474542
0.000112637
7.18306e-05
0.000408516
0.000687846
0.000937913
0.00119415
0.00145707
0.0017212
0.00198186
0.00223603
0.00248205
0.00271921
0.00294731
0.00316647
0.00337694
0.003579
0.00377293
0.00395897
0.00413732
0.00430814
0.00447157
0.00462773
0.00477672
0.00491865
0.00505359
0.00518164
0.00530286
0.00541734
0.00552511
0.00562624
0.00572073
0.00580863
0.00574582
0.00567438
0.00562982
0.0056057
0.00559145
0.0055809
0.00557298
0.00556817
0.00556669
0.00556896
0.00557572
0.00558799
0.00560726
0.00563565
0.00567597
0.00573137
0.00580437
0.005896
0.00600622
0.00613497
0.00628142
0.00644602
0.00661597
0.00666727
0.00661849
0.00656086
0.00649526
0.00642223
0.00634192
0.00625417
0.00615836
0.00605336
0.00593744
0.00580811
0.00566205
0.00549496
0.00530157
0.00507573
0.00481065
0.00449955
0.00413663
0.00371849
0.00324593
0.00272575
0.002172
0.00160602
0.00105505
0.000551617
0.000129033
7.20536e-05
0.000421789
0.000728409
0.00099943
0.00127113
0.00154629
0.00182074
0.00209053
0.00235314
0.00260724
0.00285232
0.00308834
0.00331549
0.00353405
0.00374432
0.00394655
0.00414096
0.0043277
0.0045069
0.00467866
0.00484308
0.00500022
0.00515016
0.00529296
0.00542871
0.00555745
0.00567928
0.00579425
0.00590242
0.00600388
0.00609809
0.00602392
0.00594983
0.00590478
0.00588364
0.00587467
0.00587003
0.00586757
0.00586751
0.00587035
0.00587663
0.00588701
0.00590247
0.00592443
0.00595515
0.00599786
0.00605649
0.00613455
0.00623393
0.00635453
0.00649516
0.00665345
0.00682729
0.00700623
0.00705725
0.00700717
0.00694838
0.00688169
0.00680773
0.00672692
0.00663936
0.00654481
0.00644252
0.00633109
0.00620835
0.00607109
0.00591493
0.00573408
0.00552132
0.00526809
0.00496494
0.00460258
0.00417359
0.00367491
0.00311084
0.00249561
0.00185428
0.00122044
0.000633234
0.000140845
7.22405e-05
0.000433051
0.000764045
0.00105329
0.00133732
0.00162136
0.00190272
0.00217833
0.00244624
0.00270547
0.00295574
0.00319715
0.00342995
0.00365444
0.00387091
0.00407956
0.00428056
0.00447403
0.00466005
0.00483868
0.00500997
0.00517395
0.00533068
0.00548021
0.00562261
0.00575792
0.00588624
0.00600762
0.00612215
0.00622993
0.00633105
0.00628552
0.0062119
0.00616913
0.00615525
0.00615576
0.00616092
0.0061676
0.00617579
0.00618612
0.00619917
0.00621561
0.0062363
0.00626258
0.00629677
0.00634257
0.00640496
0.0064891
0.0065981
0.00673095
0.00688267
0.00704903
0.00723416
0.00741626
0.00737421
0.00732299
0.00726325
0.00719571
0.00712109
0.00703999
0.00695282
0.00685969
0.0067603
0.00665374
0.00653829
0.00641116
0.00626817
0.0061034
0.00590895
0.00567471
0.00538859
0.00503736
0.00460846
0.00409326
0.00349163
0.00281681
0.0020985
0.00138033
0.000710682
0.000152876
7.24635e-05
0.000443229
0.000796106
0.00110117
0.00139481