/*--------------------------------*- C++ -*----------------------------------*\
| =========                 |                                                 |
| \\      /  F ield         | OpenFOAM: The Open Source CFD Toolbox           |
|  \\    /   O peration     | Version:  v2012                                 |
|   \\  /    A nd           | Website:  www.openfoam.com                      |
|    \\/     M anipulation  |                                                 |
\*---------------------------------------------------------------------------*/
FoamFile
{
    version     2.0;
    format      ascii;
    class       volScalarField;
    location    "643";
    object      omega;
}
// * * * * * * * * * * * * * * * * * * * * * * * * * * * * * * * * * * * * * //

dimensions      [0 0 -1 0 0 0 0];


internalField   nonuniform List<scalar> 
6532
(
631.705
226.225
195.616
192.006
194.096
194.096
192.006
195.616
226.225
631.705
468.901
194.677
160.02
153.833
154.082
154.082
153.833
160.02
194.677
468.901
372.413
166.296
134.716
127.664
126.749
126.749
127.664
134.716
166.296
372.413
310.112
143.458
115.802
108.726
107.217
107.217
108.726
115.802
143.458
310.112
267.016
125.472
101.21
94.4499
92.6862
92.6862
94.4498
101.21
125.472
267.016
235.526
111.239
89.683
83.3445
81.5051
81.5051
83.3444
89.683
111.239
235.526
211.488
99.8279
80.3988
74.4863
72.6598
72.6597
74.4863
80.3987
99.8277
211.489
192.49
90.536
72.7941
67.2746
65.5013
65.5013
67.2745
72.794
90.5357
192.49
177.047
82.8529
66.4722
61.3018
59.598
59.598
61.3018
66.472
82.8525
177.048
164.207
76.4081
61.1471
56.2827
54.6521
54.6521
56.2825
61.1468
76.4075
164.208
153.329
70.9309
56.6085
52.0115
50.4524
50.4523
52.0113
56.6081
70.93
153.33
143.97
66.2209
52.6992
48.3366
46.8446
46.8445
48.3363
52.6985
66.2196
143.972
135.814
62.128
49.2999
45.1442
43.7141
43.7139
45.1437
49.2989
62.126
135.817
128.629
58.5378
46.3188
42.3468
40.9735
40.9732
42.3461
46.3173
58.5348
128.633
122.24
55.3623
43.6843
39.8769
38.5553
38.555
39.8758
43.6821
55.358
122.246
116.514
52.5328
41.34
37.6809
36.4068
36.4063
37.6794
41.3369
52.5266
116.522
111.346
49.9951
39.2409
35.7164
34.4858
34.485
35.7141
39.2365
49.9867
111.358
106.654
47.7059
37.3508
33.9491
32.7584
32.7574
33.9458
37.3448
47.6961
106.67
102.371
45.6303
35.6403
32.3512
31.1972
31.1957
32.3464
35.6319
45.6199
102.391
98.4414
43.7395
34.0847
30.8989
29.7787
29.7766
30.8919
34.0726
43.7405
98.4645
94.7502
41.9775
32.6383
29.55
28.4616
28.458
29.5357
32.5842
41.5245
82.5508
91.3401
40.3636
31.3148
28.316
27.2564
27.25
28.2867
31.1835
39.3419
69.8005
88.1779
38.8814
30.1008
27.1844
26.1507
26.1395
27.1309
29.8598
37.1684
59.8799
85.2346
37.5165
28.9839
26.1431
25.1326
25.1148
26.0571
28.6086
34.838
52.1048
82.4854
36.2565
27.9536
25.1822
24.1921
24.1664
25.0606
27.3841
32.5178
46.0459
79.9088
35.091
27.0009
24.293
23.3205
23.2851
24.1321
26.1898
30.4278
41.3736
77.486
34.0112
26.1181
23.4681
22.5105
22.4622
23.2501
25.0865
28.6567
37.7577
75.2003
33.0099
25.299
22.7014
21.7556
21.6916
22.415
24.0626
27.1856
34.9256
73.0368
32.0815
24.5383
21.9875
21.0506
20.9682
21.6267
23.1172
25.9282
32.5017
70.9821
31.221
23.8316
21.322
20.391
20.2881
20.8835
22.245
24.8225
30.3609
69.0238
30.4241
23.1754
20.7013
19.773
19.648
20.1835
21.4376
23.8236
28.4646
67.1506
29.6879
22.5669
20.1224
19.1936
19.0451
19.5239
20.6849
22.888
26.7742
65.3517
29.0103
22.0039
19.5829
18.6503
18.4769
18.9013
19.9762
21.9986
25.2563
63.6169
28.3897
21.4851
19.0812
18.1414
17.9414
18.3126
19.3036
21.1445
23.8811
61.9365
27.8251
21.0099
18.6164
17.6654
17.4368
17.755
18.6605
20.3192
22.6226
60.3011
27.3159
20.5784
18.1882
17.2218
16.9623
17.2261
18.0424
19.5189
21.4596
58.7018
26.8614
20.1913
17.7968
16.8106
16.5174
16.7248
17.4468
18.7422
20.3757
57.13
26.4607
19.8498
17.4438
16.4329
16.1027
16.2511
16.8741
17.9911
19.3604
55.6345
26.1274
19.566
17.1413
16.1014
15.732
15.8207
16.3442
17.2923
18.4366
54.1484
25.8455
19.3286
16.8784
15.8045
15.3926
15.419
15.8408
16.6258
17.5692
52.6637
25.6127
19.1398
16.6576
15.5446
15.0864
15.0484
15.3678
15.9966
16.7577
51.1727
25.4265
19.0018
16.4821
15.3248
14.8169
14.7126
14.9313
15.4125
16.007
49.6676
25.2838
18.9167
16.3557
15.1491
14.5879
14.4164
14.5374
14.8817
15.3241
48.1406
25.1804
18.8863
16.282
15.0217
14.4038
14.1645
14.1926
14.4119
14.7168
46.5832
25.1112
18.9119
16.2648
14.947
14.2693
13.9619
13.9024
14.0094
14.1922
44.9862
25.0696
18.9935
16.3075
14.9294
14.1888
13.8131
13.6715
13.6788
13.7549
43.339
25.0483
19.1305
16.4127
14.9728
14.1667
13.7223
13.5032
13.4222
13.4067
41.629
25.0385
19.3204
16.582
15.0806
14.2067
13.6927
13.3998
13.2398
13.1458
39.8401
25.0299
19.5592
16.8155
15.2547
14.3115
13.7269
13.3623
13.1302
12.9681
37.951
25.0096
19.8394
17.1102
15.4951
14.4822
13.826
13.3907
13.091
12.8681
35.9315
24.9602
20.1483
17.4582
15.7974
14.7166
13.9885
13.4832
13.1188
12.8398
33.7355
24.8527
20.4627
17.8425
16.1494
15.006
14.2081
13.6347
13.2084
12.8776
31.2839
24.6096
20.7243
18.2222
16.5215
15.3282
14.4684
13.8333
13.3522
12.9803
28.3864
24.1301
20.8466
18.5216
16.8525
15.6374
14.7369
14.0589
13.5463
13.1513
24.9453
23.23
20.7236
18.6515
17.0662
15.8728
14.9727
14.3001
13.7853
13.3792
20.7359
21.3425
20.0453
18.4537
17.0752
15.986
15.1726
14.5464
14.0514
13.6501
15.0701
17.6753
18.2475
17.6084
16.7449
15.9802
15.3351
14.7972
14.3496
13.9743
13.2367
12.5565
14.9952
15.8364
15.9376
15.7377
15.4273
15.0902
14.7654
14.4678
13.0162
9.8542
11.8624
13.8024
14.9718
15.6075
15.9065
15.9844
15.9523
15.8776
13.7783
14.9316
18.5421
22.651
26.4959
29.1431
31.1069
32.7211
34.0405
35.1133
34.2155
20.082
20.319
20.9137
21.3941
21.7045
21.8259
21.7631
21.5168
21.1243
20.6259
20.0148
19.2906
18.4828
17.6096
16.6773
15.6816
14.6992
13.7545
12.8063
11.8243
10.7731
9.59499
8.16864
7.04472
43.9744
15.9531
9.06348
7.69728
7.30259
7.12844
7.01478
6.90839
6.78332
6.6269
6.46358
6.29613
6.12879
5.96674
5.81531
5.68275
5.59158
5.66594
5.90151
6.23303
6.59158
6.88903
7.02116
6.97279
10.9786
47.3953
20.7052
10.1242
7.13755
6.13014
5.6675
5.39191
5.19018
5.01594
4.843
4.66946
4.49969
4.33228
4.16997
4.01968
3.8928
3.80872
3.81485
3.95015
4.22056
4.61698
5.09437
5.56708
6.11546
12.0991
47.1956
24.761
13.4458
8.52859
6.61631
5.75734
5.26966
4.94329
4.69607
4.48712
4.28863
4.09801
3.90898
3.72007
3.53829
3.37701
3.25496
3.20177
3.24979
3.4176
3.72089
4.15608
4.6918
5.52233
12.5984
45.2908
27.743
16.168
10.5868
7.72537
6.30129
5.53892
5.06073
4.72863
4.47754
4.26675
4.06422
3.86115
3.65005
3.4363
3.23642
3.07204
2.96922
2.95515
3.04792
3.26818
3.63197
4.15569
5.14168
12.7665
42.7184
29.0782
18.4043
12.2738
9.02141
7.10834
5.99049
5.3241
4.8915
4.59311
4.3686
4.17253
3.96896
3.74394
3.50027
3.2591
3.04841
2.89767
2.83311
2.86974
3.0269
3.3287
3.8261
4.9098
12.7591
39.8308
29.617
20.1489
13.8529
10.1456
7.98159
6.58727
5.69062
5.12929
4.77191
4.53127
4.34248
4.15532
3.93496
3.66587
3.381
3.11622
2.91289
2.80091
2.79137
2.90008
3.15398
3.62727
4.77559
12.6506
37.0682
29.5182
21.2481
15.2101
11.2183
8.7446
7.1845
6.13617
5.43315
4.99707
4.73368
4.55295
4.3863
4.18285
3.9135
3.58933
3.2584
2.99274
2.82801
2.77473
2.84339
3.06059
3.51524
4.70563
12.4719
34.5272
28.9865
21.8594
16.2222
12.1725
9.47427
7.71402
6.55837
5.77311
5.26115
4.96622
4.7919
4.65123
4.47725
4.22089
3.8704
3.48325
3.14382
2.91137
2.80749
2.83744
3.02447
3.46475
4.67975
12.2344
32.2233
28.1299
22.1521
16.954
12.9808
10.1572
8.23339
6.94976
6.10343
5.54404
5.22015
5.05135
4.94236
4.813
4.59183
4.23803
3.79409
3.36952
3.05567
2.89365
2.88156
3.0393
3.46715
4.69362
11.9637
30.1426
27.0945
22.1724
17.4322
13.6326
10.7653
8.72754
7.33677
6.41993
5.83067
5.489
5.32681
5.25428
5.18343
5.02634
4.70846
4.22751
3.70332
3.27636
3.03705
2.97593
3.10623
3.53079
4.79108
11.7294
28.2719
25.9978
21.9645
17.6883
14.1069
11.2724
9.17678
7.71125
6.73674
6.12116
5.76421
5.61269
5.5777
5.57309
5.50708
5.27941
4.82007
4.20836
3.62623
3.26062
3.12872
3.22589
3.64951
4.94206
11.4983
26.5902
24.8979
21.574
17.7907
14.4306
11.679
9.57266
8.06387
7.04989
6.41049
6.04866
5.90282
5.89906
5.95729
5.99724
5.91291
5.57712
4.95251
4.21449
3.61652
3.36032
3.40271
3.81578
5.11857
11.2512
25.0697
23.8151
21.0659
17.7718
14.6357
12.0037
9.91684
8.38872
7.34997
6.69371
6.32933
6.19135
6.20599
6.31065
6.44679
6.52899
6.41991
5.9326
5.11984
4.2231
3.72167
3.64948
4.02172
5.29827
10.9798
23.684
22.7648
20.4961
17.651
14.7461
12.2411
10.2064
8.68238
7.63151
6.96221
6.59653
6.46411
6.48864
6.61777
6.81441
7.03349
7.17728
7.04732
6.372
5.33311
4.35286
4.00789
4.26714
5.46131
10.6888
22.41
21.7534
19.893
17.4327
14.81
12.4296
10.4651
8.953
7.89449
7.21029
6.84098
6.71292
6.74253
6.87584
7.09264
7.37778
7.69766
7.9413
7.80038
6.9027
5.49743
4.59459
4.58246
5.60302
10.4106
21.2278
20.7803
19.2706
17.156
14.8324
12.5854
10.6915
9.20649
8.14247
7.43787
7.05728
6.92945
6.96222
7.0947
7.30276
7.588
7.95943
8.39906
8.79428
8.73129
7.65082
5.75342
5.08176
5.73567
10.2463
20.1232
19.8428
18.6348
16.8393
14.7947
12.7445
10.916
9.45869
8.38468
7.65343
7.24912
7.11111
7.14377
7.27736
7.47503
7.73016
8.06337
8.49841
9.05733
9.65285
9.90138
9.01076
6.66317
6.13193
10.5554
19.1164
18.9641
18.0109
16.5052
14.7138
12.8756
11.1505
9.71688
8.63669
7.86743
7.42397
7.25998
7.28402
7.42125
7.62269
7.86406
8.14249
8.47727
8.91999
9.49898
10.2323
10.9478
11.0848
9.59419
10.9389
18.167
18.1133
17.381
16.1383
14.5971
12.9614
11.3961
10.0042
8.90769
8.10236
7.60021
7.38811
7.38483
7.51651
7.72843
7.98464
8.26262
8.54984
8.84656
9.1823
9.587
10.1072
10.7072
11.1729
11.3582
17.2709
17.287
16.743
15.7405
14.443
13.0131
11.5999
10.3192
9.23094
8.38192
7.8163
7.52751
7.46688
7.56685
7.77317
8.04825
8.36534
8.70099
9.0318
9.33806
9.60952
9.89066
10.2543
10.6652
11.0184
16.4316
16.4891
16.0992
15.3114
14.2425
13.0237
11.7775
10.6079
9.58054
8.73798
8.10618
7.72749
7.57262
7.6009
7.7604
8.01411
8.33751
8.71001
9.10809
9.49926
9.84057
10.0918
10.2837
10.5533
10.8487
15.6564
15.7279
15.4559
14.8527
13.9937
12.9782
11.9055
10.8645
9.92078
9.11631
8.4811
8.03457
7.7696
7.6871
7.75631
7.93888
8.20914
8.54736
8.93537
9.35344
9.77203
10.152
10.4536
10.658
10.7328
14.9555
15.0164
14.8251
14.3715
13.6975
12.8723
11.9724
11.0708
10.2277
9.4846
8.87
8.40189
8.08194
7.9018
7.85193
7.93271
8.11566
8.37526
8.68669
9.02002
9.34387
9.63092
9.84665
9.95101
9.90795
14.3396
14.3707
14.2248
13.8821
13.3612
12.7057
11.9703
11.2112
10.4799
9.8153
9.24366
8.78384
8.44251
8.21549
8.09365
8.07196
8.1553
8.32487
8.55802
8.82432
9.0817
9.30742
9.4759
9.56131
9.54068
13.8173
13.8065
13.6764
13.4064
13.0016
12.4867
11.8981
11.2761
10.6601
10.0835
9.57145
9.14127
8.80302
8.55868
8.40412
8.33515
8.34566
8.43679
8.59306
8.79104
9.00311
9.20358
9.36825
9.47534
9.50763
13.3933
13.3361
13.2009
12.9705
12.6443
12.2357
11.7677
11.2673
10.7618
10.276
9.83121
9.44387
9.12548
8.88178
8.71376
8.61854
8.59305
8.63097
8.72786
8.87191
9.04396
9.22316
9.38847
9.52046
9.60362
13.0671
12.965
12.8134
12.5989
12.3195
11.9834
11.6047
11.2003
10.7887
10.3876
10.0126
9.6765
9.38895
9.15641
8.98347
8.87133
8.81822
8.82077
8.87361
8.96967
9.10021
9.25155
9.40795
9.5531
9.67211
12.8338
12.6917
12.5202
12.3084
12.0544
11.7632
11.4429
11.1056
10.764
10.4304
10.1159
9.82952
9.57827
9.36719
9.20062
9.08159
9.00869
8.97963
8.99133
9.04014
9.12384
9.23478
9.3628
9.49637
9.62341
12.6858
12.5092
12.3192
12.1063
11.8665
11.601
11.3163
11.0211
10.725
10.4371
10.1655
9.91662
9.6954
9.50532
9.34887
9.22834
9.14448
9.09579
9.07997
9.09459
9.13699
9.20358
9.28986
9.38961
9.49524
12.615
12.4094
12.2063
11.9923
11.761
11.5122
11.2497
10.9802
10.7112
10.45
10.203
9.9755
9.77122
9.59261
9.44127
9.31801
9.22307
9.15578
9.115
9.09881
9.10503
9.13129
9.17502
9.23343
9.30293
12.6161
12.3904
12.1768
11.9616
11.7372
11.5012
11.255
11.0032
10.7512
10.5051
10.2704
10.0515
9.8519
9.67375
9.5183
9.38606
9.27688
9.19003
9.12395
9.07692
9.04765
9.0345
9.03538
9.04844
9.07158
12.6943
12.4502
12.2265
12.0095
11.7903
11.5648
11.3323
11.0949
10.8563
10.6211
10.3935
10.1776
9.97643
9.7923
9.62654
9.4798
9.35213
9.24305
9.15155
9.07626
9.01556
8.96757
8.93054
8.90327
8.88449
12.845
12.5847
12.3507
12.1298
11.9128
11.6945
11.4727
11.2476
11.021
10.7958
10.5752
10.3623
10.1597
9.96967
9.79358
9.63233
9.48633
9.35551
9.23945
9.13735
9.04814
8.97059
8.90332
8.8449
8.79412
13.06
12.787
12.543
12.3162
12.098
11.8829
11.6678
11.4517
11.2349
11.019
10.8059
10.5977
10.3966
10.2042
10.0219
9.85076
9.69129
9.54375
9.40811
9.28407
9.17113
9.06856
8.97551
8.89103
8.8144
13.3286
13.0502
12.8004
12.5692
12.3492
12.1349
11.9231
11.7124
11.5023
11.2934
11.0868
10.8839
10.686
10.4945
10.3105
10.1349
9.96829
9.81099
9.66319
9.52482
9.39567
9.27536
9.16344
9.05938
8.96289
13.6665
13.3948
13.148
12.9179
12.6983
12.485
12.2755
12.0683
11.863
11.6598
11.4593
11.2623
11.0698
10.8828
10.702
10.5281
10.3617
10.2032
10.0525
9.90989
9.7751
9.64791
9.52801
9.41503
9.30885
14.2094
13.9714
13.7479
13.5339
13.3268
13.1248
12.9268
12.732
12.5403
12.3519
12.167
11.9862
11.8103
11.6397
11.4751
11.3169
11.1654
11.0207
10.883
10.7521
10.6279
10.51
10.398
10.2917
10.1909
15.7928
15.7039
15.6119
15.5117
15.4071
15.3002
15.1915
15.0815
14.9706
14.8592
14.748
14.6374
14.528
14.4202
14.3144
14.2109
14.1099
14.0114
13.9154
13.8218
13.7303
13.6406
13.5526
13.4658
13.3802
35.9689
36.7055
37.3326
37.8452
38.2565
38.5753
38.8088
38.964
39.0476
39.066
39.0257
38.9327
38.7932
38.6129
38.3971
38.1511
37.8798
37.5875
37.2784
36.9561
36.6241
36.2853
35.9423
35.5974
35.2528
9.78475
9.32594
15.1043
12.195
12.7022
12.4631
11.2847
11.4143
11.275
11.0576
10.9656
10.2441
10.5795
10.1176
9.2743
9.70046
9.3414
8.78024
9.40314
9.17014
8.82856
9.45695
9.33672
9.14237
9.62671
9.59891
9.51917
9.74838
9.78892
9.79266
9.72505
9.80655
9.86563
9.59093
9.68096
9.76269
9.3718
9.44313
9.5153
9.10007
9.13416
9.17249
8.87381
8.86812
8.86686
8.75418
8.7188
8.68695
8.75182
8.69423
8.64036
8.88268
8.80761
8.73643
9.21963
9.13519
9.05436
10.1055
10.0238
9.94484
13.3054
13.2311
13.1566
34.9512
34.6529
34.3579
4.39724
6.4042
7.82987
8.85867
9.66851
10.3323
10.903
11.4053
11.8548
12.2618
12.6335
12.9751
13.2907
13.5837
13.8568
14.1124
14.3522
14.5781
14.7915
14.9937
15.1859
15.3692
15.5445
15.7128
15.8749
16.0317
16.1838
16.3321
16.4771
16.6197
16.7605
16.9002
17.0394
17.1787
17.3189
17.4606
17.6045
17.7513
17.9018
18.0568
18.2173
18.3842
18.5588
18.7424
18.9365
19.1432
19.3646
19.592
19.8245
20.0614
20.3024
20.5473
20.7957
21.0476
21.3026
21.5599
21.8188
22.0783
22.337
22.5929
22.8436
23.0862
23.3165
23.5296
23.7188
23.8756
23.9888
24.0436
24.0193
23.8854
23.5975
23.097
22.3808
21.4243
19.9665
18.0063
15.6786
13.124
10.9
9.78225
10.5543
6.9637
7.58193
7.90037
8.0264
8.03768
7.98532
7.90643
7.8194
7.73339
7.6526
7.57872
7.51213
7.45259
7.39957
7.35244
7.31053
7.27322
7.23995
7.2102
7.18352
7.1595
7.13781
7.11815
7.10026
7.0839
7.06889
7.05504
7.0422
7.03022
7.01897
7.00835
6.99824
6.98859
6.97935
6.97056
6.96232
6.95478
6.94823
6.94302
6.93964
6.93868
6.9409
6.94717
6.95903
6.97791
7.0052
7.03127
7.05846
7.08751
7.11875
7.15252
7.18914
7.22897
7.27236
7.31973
7.37152
7.42825
7.49044
7.55869
7.63358
7.71574
7.80575
7.9041
8.01114
8.1269
8.25083
8.38145
8.51577
8.64906
8.77305
8.86851
8.91537
8.87152
8.67535
8.26321
7.58208
6.87424
7.133
11.2076
12.441
7.00427
7.01674
6.97621
6.85545
6.67661
6.47864
6.28704
6.11176
5.95577
5.81882
5.69932
5.59529
5.50468
5.42562
5.35643
5.29565
5.24202
5.19447
5.15209
5.11411
5.07987
5.04885
5.02056
4.99463
4.97071
4.94853
4.92783
4.90843
4.89011
4.87273
4.85613
4.84021
4.82489
4.81013
4.79595
4.78242
4.76965
4.75779
4.74707
4.73775
4.73013
4.72458
4.7215
4.72135
4.7246
4.73173
4.74324
4.7564
4.7726
4.79245
4.81645
4.84512
4.87903
4.91881
4.96518
5.01893
5.081
5.1524
5.23428
5.32787
5.43458
5.55588
5.69338
5.84879
6.02385
6.22028
6.43963
6.683
6.95071
7.24122
7.54876
7.86013
8.14593
8.35699
8.41364
8.18114
7.508
6.78105
10.7521
13.5419
6.83206
6.47681
6.26
6.02376
5.78319
5.55061
5.34027
5.15598
4.99686
4.86039
4.74365
4.64382
4.55833
4.48495
4.42173
4.36704
4.31948
4.27791
4.24133
4.20894
4.18007
4.15415
4.13071
4.10938
4.08983
4.0718
4.05505
4.03942
4.02471
4.0108
3.99754
3.98483
3.97257
3.96075
3.94937
3.9385
3.92823
3.91866
3.90996
3.9023
3.89591
3.89103
3.88794
3.88697
3.88849
3.89291
3.90069
3.91193
3.92607
3.944
3.96626
3.99341
4.02602
4.06474
4.11031
4.16362
4.22565
4.29757
4.38066
4.47642
4.5865
4.71282
4.85758
5.02328
5.21284
5.42966
5.67768
5.96142
6.286
6.65682
7.07916
7.556
8.08213
8.63674
9.16692
9.55314
9.52992
8.83704
11.3873
14.2221
6.58758
6.0108
5.70646
5.4267
5.1648
4.92892
4.72301
4.54655
4.39684
4.27042
4.16389
4.07417
3.99856
3.93474
3.8807
3.8348
3.79561
3.76197
3.73291
3.70761
3.68542
3.66577
3.64824
3.63243
3.61806
3.60488
3.59269
3.58132
3.57063
3.56048
3.55074
3.5413
3.53205
3.52295
3.51403
3.50535
3.49699
3.48905
3.48168
3.47503
3.46926
3.46459
3.46122
3.45943
3.45953
3.46188
3.46689
3.47503
3.48602
3.50046
3.51886
3.54176
3.56969
3.60324
3.64314
3.69023
3.74552
3.81021
3.88564
3.97339
4.07526
4.19337
4.3302
4.48874
4.67258
4.8861
5.13474
5.42522
5.76597
6.16746
6.64255
7.20605
7.87293
8.655
9.5543
10.5179
11.36
11.7213
13.0988
14.6209
6.35222
5.62554
5.27532
4.97939
4.71554
4.48508
4.28808
4.12191
3.98277
3.86682
3.77051
3.69068
3.62457
3.56984
3.52449
3.48686
3.45554
3.42936
3.40737
3.38875
3.37286
3.35916
3.3472
3.33662
3.32714
3.31852
3.31058
3.30317
3.29615
3.28941
3.28281
3.2762
3.26943
3.26246
3.25533
3.24818
3.24099
3.23386
3.22691
3.22028
3.2141
3.20853
3.20378
3.20005
3.19762
3.19681
3.19801
3.20169
3.20814
3.21766
3.23066
3.24766
3.26913
3.29562
3.32773
3.36629
3.41231
3.46696
3.5316
3.60783
3.69748
3.80271
3.92613
4.07087
4.2408
4.44074
4.67678
4.95671
5.29062
5.69161
6.17675
6.76802
7.49371
8.38919
9.49391
10.8348
12.3679
13.8865
15.9837
14.8606
6.15073
5.30965
4.93279
4.63255
4.37262
4.14985
3.96194
3.80522
3.6755
3.56877
3.48138
3.41016
3.35234
3.30557
3.26787
3.23755
3.21323
3.19373
3.1781
3.16554
3.1554
3.14715
3.14035
3.13464
3.12975
3.12544
3.12153
3.1179
3.11442
3.11098
3.10745
3.10362
3.09929
3.09426
3.08859
3.08241
3.07579
3.06885
3.06171
3.05448
3.04728
3.04026
3.03358
3.02748
3.02219
3.01802
3.01532
3.01449
3.01599
3.01997
3.02697
3.03766
3.05251
3.07186
3.09624
3.12636
3.16319
3.20789
3.26179
3.32644
3.40361
3.49544
3.60444
3.73373
3.88715
4.06956
4.28717
4.54809
4.86299
5.24607
5.71649
6.30018
7.03259
7.96276
9.15905
10.7135
12.7351
15.3363
19.1614
15.0118
5.98395
5.04845
4.65394
4.35424
4.10003
3.88485
3.70506
3.55645
3.43469
3.3357
3.25583
3.19188
3.14112
3.10117
3.07006
3.04611
3.02792
3.01432
3.00435
2.99721
2.99226
2.98897
2.98689
2.98569
2.98507
2.98481
2.98475
2.98474
2.98468
2.98449
2.98403
2.98294
2.98082
2.9775
2.97306
2.96767
2.9615
2.95467
2.94726
2.93937
2.93113
2.92266
2.91414
2.90578
2.89785
2.89067
2.88459
2.88
2.87728
2.87665
2.87865
2.88382
2.89272
2.90587
2.92355
2.9464
2.97529
3.01135
3.05585
3.11025
3.17623
3.25579
3.35133
3.46577
3.6028
3.7671
3.96472
4.20365
4.49461
4.85213
5.29617
5.85456
6.56674
7.48997
8.71071
10.366
12.6872
16.1279
21.9895
15.1109
5.84706
4.82989
4.42182
4.12434
3.8761
3.66781
3.49497
3.35315
3.23798
3.14539
3.07175
3.01389
2.96905
2.9349
2.90943
2.89096
2.87809
2.86964
2.86464
2.86231
2.86197
2.8631
2.86526
2.86811
2.87135
2.87478
2.87821
2.88151
2.88459
2.8874
2.8898
2.89118
2.89101
2.88929
2.88619
2.88189
2.87651
2.87014
2.86285
2.85474
2.84591
2.8365
2.82666
2.81662
2.80665
2.79707
2.78829
2.78077
2.77498
2.77123
2.76986
2.77124
2.77586
2.78426
2.79681
2.81398
2.83662
2.86577
2.90264
2.94859
3.00517
3.07423
3.15798
3.25916
3.38118
3.52844
3.70673
3.92373
4.18993
4.5198
4.93364
5.46032
6.14176
7.04052
8.25461
9.95001
12.4449
16.4987
24.684
15.1775
5.73485
4.64523
4.22521
3.93017
3.68751
3.48524
3.31825
3.18203
3.07224
2.98489
2.91637
2.86354
2.82366
2.79438
2.77369
2.7599
2.75159
2.74759
2.7469
2.74873
2.75241
2.7574
2.76326
2.76964
2.77626
2.78289
2.78936
2.79553
2.80133
2.80673
2.81159
2.81521
2.81711
2.81725
2.81576
2.81284
2.8086
2.80313
2.79651
2.7888
2.78012
2.77057
2.76031
2.74956
2.73858
2.72771
2.71738
2.70809
2.70037
2.69461
2.69117
2.69041
2.69262
2.6981
2.70724
2.72051
2.73867
2.76275
2.79385
2.83322
2.88229
2.94276
3.01664
3.10644
3.21533
3.34738
3.50801
3.70456
3.94717
4.2501
4.63377
5.12793
5.77665
6.64722
7.84711
9.56314
12.1731
16.6812
27.2638
15.2246
5.64292
4.48829
4.05675
3.76365
3.52587
3.32873
3.16659
3.03494
2.92952
2.8464
2.78206
2.73335
2.69755
2.67232
2.65562
2.64577
2.64133
2.6411
2.64409
2.64948
2.6566
2.6649
2.67394
2.68335
2.69284
2.70221
2.71127
2.7199
2.72805
2.7357
2.74271
2.74854
2.7526
2.75474
2.75508
2.75382
2.7511
2.74702
2.74165
2.73505
2.72732
2.71857
2.70893
2.69858
2.68777
2.67684
2.66621
2.65642
2.64803
2.64153
2.63729
2.63561
2.63678
2.64096
2.64832
2.65935
2.67479
2.69554
2.72264
2.75724
2.80064
2.85437
2.92029
3.00066
3.09839
3.21725
3.36228
3.5404
3.76135
4.03911
4.39416
4.85707
5.47435
6.31869
7.5084
9.25113
11.971
16.8523
29.7596
15.264
5.56776
4.35468
3.91159
3.61963
3.3859
3.19303
3.03485
2.90688
2.80495
2.72524
2.66424
2.61886
2.58638
2.56445
2.55104
2.54444
2.54321
2.54614
2.55222
2.56061
2.57065
2.58176
2.5935
2.6055
2.61747
2.6292
2.64051
2.65131
2.66156
2.67125
2.6803
2.68829
2.69456
2.69884
2.70124
2.70195
2.70114
2.69891
2.69536
2.69054
2.68454
2.67745
2.66939
2.6605
2.651
2.64117
2.63143
2.62231
2.61443
2.60834
2.60443
2.60299
2.60425
2.60827
2.61523
2.62549
2.63973
2.65876
2.68349
2.71497
2.75438
2.80312
2.86285
2.93566
3.02416
3.13183
3.26333
3.42513
3.62651
3.8811
4.20932
4.64254
5.22998
6.05083
7.23742
9.02499
11.8906
17.1482
32.3017
15.3112
5.50692
4.24152
3.7868
3.49502
3.26443
3.07498
2.92
2.79495
2.6958
2.61876
2.56039
2.51763
2.48778
2.46847
2.45769
2.45372
2.4551
2.46061
2.46924
2.48015
2.49264
2.50616
2.52023
2.53449
2.54866
2.5625
2.57587
2.58868
2.6009
2.61257
2.6236
2.63374
2.6423
2.64892
2.65363
2.65663
2.6581
2.65817
2.65693
2.65447
2.65085
2.64616
2.64049
2.63396
2.62671
2.619
2.61116
2.60373
2.59735
2.59265
2.59002
2.58975
2.59204
2.59693
2.60458
2.61532
2.62968
2.64834
2.67212
2.70195
2.73889
2.7842
2.83937
2.9063
2.98736
3.0857
3.20562
3.3531
3.53689
3.77012
4.07302
4.47759
5.03574
5.83412
7.02259
8.87481
11.9476
17.7129
35.0635
15.3893
5.45953
4.1476
3.68121
3.38851
3.16001
2.97316
2.82066
2.6979
2.60089
2.52589
2.46953
2.42876
2.40088
2.38358
2.37481
2.37288
2.37631
2.38389
2.39461
2.40761
2.42221
2.43782
2.45397
2.47029
2.48649
2.50234
2.5177
2.53248
2.54667
2.5603
2.57337
2.58567
2.59663
2.60577
2.61306
2.61866
2.62276
2.6255
2.62701
2.62736
2.62664
2.62492
2.62227
2.61878
2.61456
2.60976
2.60468
2.59979
2.59572
2.59319
2.5926
2.59428
2.59841
2.60506
2.61436
2.62656
2.64209
2.66151
2.68552
2.71494
2.75071
2.79395
2.84599
2.90853
2.98372
3.07441
3.18451
3.31947
3.48742
3.70081
3.9794
4.35544
4.88323
5.65711
6.84742
8.77767
12.1227
18.6206
38.2634
15.5457
5.42775
4.07389
3.59559
3.30052
3.07289
2.88774
2.73703
2.61597
2.52051
2.44699
2.39204
2.35265
2.32617
2.31028
2.30297
2.30254
2.30754
2.31676
2.32918
2.34396
2.36041
2.37793
2.39604
2.41436
2.43256
2.45044
2.46781
2.48462
2.50084
2.51651
2.53167
2.5462
2.55961
2.57143
2.58151
2.58998
2.59701
2.60275
2.60732
2.61084
2.61338
2.61502
2.61583
2.61588
2.61524
2.61399
2.61234
2.61068
2.60963
2.60992
2.61202
2.61634
2.62304
2.63217
2.64385
2.65826
2.67575
2.69678
2.72195
2.75195
2.7876
2.82988
2.87998
2.93938
3.01003
3.09449
3.19631
3.32033
3.47392
3.66866
3.9234
4.27007
4.76447
5.50803
6.69312
8.7027
12.3695
19.8341
42.2006
15.8534
5.42537
4.02758
3.53402
3.23364
3.00503
2.82054
2.67089
2.55091
2.45646
2.38386
2.32977
2.29122
2.26562
2.25066
2.24434
2.24499
2.25119
2.26173
2.27562
2.29201
2.31021
2.32961
2.3497
2.37007
2.39038
2.41038
2.4299
2.44883
2.46717
2.48495
2.50224
2.519
2.53488
2.54942
2.56242
2.57393
2.58408
2.59302
2.60088
2.60777
2.61379
2.61903
2.62356
2.62745
2.63072
2.63345
2.63573
2.63788
2.64045
2.64415
2.64959
2.65716
2.66698
2.67913
2.6937
2.71083
2.73081
2.75402
2.78096
2.81223
2.84852
2.89067
2.93971
2.99694
3.06407
3.1434
3.23826
3.35266
3.49311
3.67007
3.90094
4.21642
4.67229
5.37516
6.53953
8.61545
12.6333
21.2929
47.3013
16.5056
5.47709
4.01914
3.50196
3.19082
2.9591
2.77462
2.62532
2.50595
2.41204
2.34001
2.28642
2.24835
2.22348
2.20925
2.20372
2.20523
2.21244
2.22417
2.23945
2.25745
2.27744
2.29882
2.32106
2.34368
2.36629
2.38856
2.41032
2.43143
2.45188
2.47173
2.4911
2.51002
2.52826
2.54541
2.56127
2.57581
2.5891
2.60127
2.61246
2.62277
2.63232
2.6412
2.6495
2.65729
2.66461
2.67149
2.67799
2.68432
2.691
2.69866
2.70796
2.71922
2.73255
2.74805
2.76578
2.78585
2.80852
2.83416
2.86319
2.89613
2.93353
2.97611
3.02476
3.0806
3.14512
3.22027
3.30875
3.41429
3.54248
3.70223
3.90866
4.19008
4.59944
5.24389
6.35673
8.46128
12.8415
22.9256
54.1763
17.5907
5.77708
4.09676
3.52817
3.19022
2.94391
2.75383
2.60417
2.48531
2.39177
2.32113
2.26909
2.23225
2.20815
2.19462
2.18983
2.19225
2.20055
2.21362
2.2305
2.25038
2.27255
2.29635
2.32116
2.34639
2.37147
2.39602
2.41986
2.44289
2.46512
2.48669
2.50783
2.5286
2.54884
2.56823
2.58657
2.60378
2.6199
2.63503
2.64928
2.66277
2.67561
2.68791
2.69977
2.71127
2.72248
2.73341
2.74412
2.75475
2.7658
2.77778
2.79118
2.80631
2.8233
2.84221
2.86304
2.88586
2.91106
2.93902
2.9701
3.00466
3.04319
3.08627
3.13466
3.18932
3.25153
3.32297
3.40594
3.50365
3.62078
3.7646
3.94716
4.19045
4.53867
5.09363
6.08543
8.07234
12.6157
24.0972
63.5419
14.0037
6.06486
4.33907
3.65571
3.25924
2.98189
2.77469
2.61604
2.49541
2.4066
2.34034
2.29159
2.25713
2.23477
2.22272
2.21939
2.22335
2.23334
2.24826
2.26719
2.28932
2.31402
2.34061
2.3683
2.39621
2.42354
2.44961
2.47448
2.49824
2.52113
2.54347
2.56548
2.58721
2.60853
2.62922
2.64908
2.66802
2.68607
2.7033
2.71982
2.73574
2.75116
2.76622
2.781
2.7956
2.81011
2.82457
2.83904
2.85365
2.86885
2.88497
2.90234
2.92117
2.9416
2.96362
2.98701
3.01223
3.03969
3.06967
3.10241
3.13823
3.17753
3.22079
3.26866
3.32195
3.38175
3.44947
3.52705
3.61713
3.72346
3.85163
4.01051
4.21561
4.49742
4.92408
5.67072
7.14432
10.4017
17.8103
31.9597
11.4024
6.27802
4.68032
3.87637
3.41466
3.09374
2.86051
2.68581
2.56513
2.48174
2.42368
2.38228
2.35281
2.33413
2.32509
2.32446
2.33094
2.34328
2.36035
2.3812
2.40509
2.43151
2.45998
2.48919
2.51781
2.54451
2.56923
2.59246
2.61455
2.63593
2.657
2.67802
2.69896
2.71965
2.73989
2.75952
2.7785
2.79688
2.81472
2.8321
2.84914
2.86593
2.88258
2.89918
2.91585
2.93265
2.94969
2.96704
2.98492
3.00334
3.02257
3.04311
3.06494
3.08809
3.11258
3.13857
3.16609
3.19542
3.22676
3.26041
3.29668
3.33591
3.37855
3.42514
3.47637
3.53314
3.59663
3.66842
3.75059
3.84602
3.95873
4.09473
4.26369
4.48281
4.79277
5.27037
6.05215
7.32596
9.24949
11.6011
9.85294
6.44411
4.99073
4.16174
3.66086
3.30649
3.05192
2.88371
2.77547
2.70399
2.65675
2.62411
2.6005
2.58577
2.57926
2.58005
2.587
2.599
2.61504
2.63426
2.65593
2.67947
2.70407
2.72803
2.75016
2.76991
2.78817
2.80516
2.82115
2.8366
2.85255
2.86947
2.88666
2.90372
2.92045
2.93683
2.95304
2.96917
2.98524
3.00132
3.01748
3.03381
3.05038
3.06727
3.08454
3.1023
3.12064
3.1397
3.15969
3.17994
3.20079
3.22284
3.24627
3.27101
3.29701
3.32467
3.35386
3.38445
3.41633
3.44989
3.48549
3.52351
3.56437
3.60856
3.65666
3.70942
3.7678
3.83301
3.90665
3.99079
4.08821
4.2028
4.34055
4.51461
4.74872
5.06845
5.50331
6.09067
6.86029
7.60125
8.76449
6.53173
5.3098
4.55422
4.06791
3.72292
3.4886
3.35741
3.26904
3.20159
3.14763
3.10402
3.07135
3.04767
3.03164
3.02212
3.0182
3.01908
3.02406
3.03241
3.04337
3.05592
3.06886
3.08155
3.0937
3.10556
3.1172
3.12849
3.13923
3.14941
3.15928
3.16884
3.17777
3.18608
3.19394
3.20184
3.21087
3.22099
3.23185
3.24346
3.25595
3.26933
3.28359
3.29872
3.31474
3.33174
3.34988
3.36944
3.38943
3.40968
3.43036
3.4518
3.47452
3.49867
3.52415
3.55087
3.57934
3.60929
3.64059
3.67291
3.70659
3.74202
3.7797
3.8201
3.86376
3.91128
3.96343
4.02113
4.08554
4.15808
4.24063
4.33588
4.44841
4.58897
4.76943
4.99671
5.27757
5.61754
6.00544
6.36864
8.11849
6.73119
5.80167
5.18361
4.79598
4.52792
4.32913
4.17242
4.04416
3.93457
3.84221
3.7673
3.70817
3.66128
3.6242
3.59513
3.57269
3.55579
3.54357
3.53523
3.53002
3.52721
3.52614
3.52672
3.52867
3.53166
3.53587
3.54092
3.54636
3.55162
3.55564
3.55795
3.55917
3.55963
3.55957
3.55929
3.55936
3.56009
3.56186
3.56538
3.57129
3.57924
3.58898
3.60032
3.61321
3.62774
3.64422
3.66168
3.67954
3.69766
3.71606
3.73494
3.75458
3.77537
3.79759
3.82106
3.84573
3.87196
3.89985
3.92914
3.95977
3.99132
4.02446
4.05965
4.09744
4.1384
4.18312
4.2323
4.28675
4.3474
4.41548
4.49304
4.58434
4.69706
4.83588
5.00218
5.19643
5.41678
5.65147
5.86785
8.0482
7.1926
6.52551
6.06038
5.72972
5.47175
5.26145
5.08444
4.93026
4.79554
4.67922
4.58141
4.49862
4.42821
4.36799
4.31624
4.27156
4.23284
4.19915
4.16974
4.14394
4.12122
4.10115
4.08343
4.06794
4.05442
4.04256
4.03215
4.023
4.01487
4.00748
4.00062
3.99425
3.98833
3.98276
3.97731
3.97138
3.9654
3.96023
3.95669
3.95568
3.95765
3.96209
3.9687
3.97744
3.98862
4.00111
4.01426
4.02785
4.0417
4.05576
4.0701
4.08488
4.10029
4.11666
4.13439
4.15313
4.17305
4.19431
4.21741
4.2421
4.26831
4.29604
4.32489
4.35563
4.38881
4.42497
4.46467
4.50846
4.55694
4.61091
4.67203
4.74435
4.83234
4.93748
5.05933
5.19655
5.34592
5.49903
5.63925
8.36675
7.79334
7.29622
6.91078
6.61272
6.36892
6.16255
5.98419
5.82675
5.68743
5.56341
5.45264
5.35355
5.26467
5.18467
5.11236
5.04667
4.98678
4.9319
4.88141
4.8348
4.79154
4.75125
4.71362
4.6787
4.64652
4.61659
4.58873
4.56284
4.53884
4.51665
4.49619
4.47746
4.46044
4.44514
4.43157
4.41977
4.40975
4.40156
4.39555
4.39157
4.3898
4.39015
4.39265
4.3976
4.40364
4.41039
4.41767
4.42532
4.4332
4.44122
4.44939
4.45776
4.46643
4.47554
4.48548
4.49642
4.50843
4.52155
4.53593
4.55175
4.56965
4.58922
4.61056
4.63366
4.65832
4.6851
4.71456
4.74711
4.78317
4.82332
4.86903
4.92365
4.98941
5.06658
5.1542
5.25056
5.35266
5.45488
5.54806
8.85587
8.4956
8.12128
7.77376
7.47951
7.23296
7.02636
6.84782
6.69118
6.55016
6.42099
6.30161
6.19116
6.08845
5.99288
5.90397
5.82104
5.74354
5.67093
5.60266
5.53825
5.47726
5.41935
5.36426
5.31191
5.2627
5.21658
5.17332
5.13284
5.09515