/*--------------------------------*- C++ -*----------------------------------*\
| =========                 |                                                 |
| \\      /  F ield         | OpenFOAM: The Open Source CFD Toolbox           |
|  \\    /   O peration     | Version:  v2012                                 |
|   \\  /    A nd           | Website:  www.openfoam.com                      |
|    \\/     M anipulation  |                                                 |
\*---------------------------------------------------------------------------*/
FoamFile
{
    version     2.0;
    format      ascii;
    class       surfaceScalarField;
    location    "643";
    object      phi;
}
// * * * * * * * * * * * * * * * * * * * * * * * * * * * * * * * * * * * * * //

dimensions      [0 3 -1 0 0 0 0];
oriented        oriented;


internalField   nonuniform List<scalar> 
12792
(
5.34397e-08
0.000199947
3.61846e-08
0.000200017
2.18261e-08
0.000200014
1.02935e-08
0.000200012
1.87682e-11
0.00020001
-1.02592e-08
0.00020001
-2.18006e-08
0.000200012
-3.61728e-08
0.000200014
-5.34368e-08
0.000200017
0.000199947
8.57927e-08
0.000199861
7.56839e-08
0.000200027
5.12604e-08
0.000200039
2.54258e-08
0.000200037
5.67493e-11
0.000200036
-2.5321e-08
0.000200036
-5.1181e-08
0.000200037
-7.56432e-08
0.000200039
-8.57842e-08
0.000200027
0.000199861
8.84838e-08
0.000199772
8.89511e-08
0.000200027
6.46261e-08
0.000200063
3.32761e-08
0.000200069
1.08887e-10
0.000200069
-3.307e-08
0.000200069
-6.4451e-08
0.000200069
-8.88127e-08
0.000200063
-8.84034e-08
0.000200027
0.000199772
8.55814e-08
0.000199687
8.95381e-08
0.000200023
6.77399e-08
0.000200085
3.58443e-08
0.000200101
1.82904e-10
0.000200104
-3.54961e-08
0.000200105
-6.74417e-08
0.000200101
-8.93201e-08
0.000200085
-8.54617e-08
0.000200023
0.000199687
8.18793e-08
0.000199605
8.69784e-08
0.000200018
6.69665e-08
0.000200105
3.58791e-08
0.000200132
2.89914e-10
0.00020014
-3.53259e-08
0.00020014
-6.64909e-08
0.000200132
-8.66297e-08
0.000200105
-8.16911e-08
0.000200018
0.000199605
7.73829e-08
0.000199527
8.29369e-08
0.000200012
6.46512e-08
0.000200123
3.49088e-08
0.000200161
4.45083e-10
0.000200175
-3.40617e-08
0.000200175
-6.39289e-08
0.000200162
-8.24034e-08
0.000200124
-7.70924e-08
0.000200013
0.000199528
7.29713e-08
0.000199454
7.83288e-08
0.000200007
6.12126e-08
0.00020014
3.33052e-08
0.000200189
6.78987e-10
0.000200207
-3.20137e-08
0.000200207
-6.01126e-08
0.00020019
-7.75184e-08
0.000200141
-7.25278e-08
0.000200008
0.000199456
6.9091e-08
0.000199385
7.40479e-08
0.000200002
5.79495e-08
0.000200156
3.17366e-08
0.000200216
1.03799e-09
0.000200238
-2.976e-08
0.000200238
-5.62597e-08
0.000200216
-7.28035e-08
0.000200158
-6.84093e-08
0.000200004
0.000199387
6.58775e-08
0.00019932
7.04581e-08
0.000199997
5.52506e-08
0.000200172
3.05349e-08
0.00020024
1.58424e-09
0.000200267
-2.75168e-08
0.000200267
-5.26682e-08
0.000200242
-6.85542e-08
0.000200174
-6.48321e-08
0.0002
0.000199322
6.33356e-08
0.000199256
6.76648e-08
0.000199993
5.32514e-08
0.000200186
2.9847e-08
0.000200264
2.41171e-09
0.000200294
-2.52519e-08
0.000200295
-4.93189e-08
0.000200266
-6.47707e-08
0.000200189
-6.17466e-08
0.000199997
0.000199261
6.1436e-08
0.000199195
6.5702e-08
0.000199989
5.20539e-08
0.0002002
2.98104e-08
0.000200286
3.6619e-09
0.00020032
-2.28341e-08
0.000200321
-4.60875e-08
0.000200289
-6.13217e-08
0.000200204
-5.90343e-08
0.000199994
0.000199202
6.01863e-08
0.000199135
6.46455e-08
0.000199984
5.17879e-08
0.000200213
3.06073e-08
0.000200307
5.5455e-09
0.000200345
-2.00501e-08
0.000200347
-4.2772e-08
0.000200312
-5.80215e-08
0.000200219
-5.65583e-08
0.000199993
0.000199145
5.96652e-08
0.000199075
6.46817e-08
0.000199979
5.27044e-08
0.000200225
3.25411e-08
0.000200327
8.39086e-09
0.00020037
-1.65839e-08
0.000200372
-3.90999e-08
0.000200334
-5.46579e-08
0.000200235
-5.41862e-08
0.000199993
0.000199091
6.00154e-08
0.000199015
6.60761e-08
0.000199973
5.52375e-08
0.000200235
3.61227e-08
0.000200346
1.27181e-08
0.000200393
-1.19731e-08
0.000200397
-3.47239e-08
0.000200357
-5.10191e-08
0.000200251
-5.18121e-08
0.000199993
0.000199039
6.13763e-08
0.000198953
6.91e-08
0.000199966
5.99448e-08
0.000200245
4.21259e-08
0.000200364
1.93289e-08
0.000200416
-5.5373e-09
0.000200422
-2.92015e-08
0.00020038
-4.69361e-08
0.000200269
-4.94487e-08
0.000199996
0.00019899
6.42684e-08
0.000198889
7.47913e-08
0.000199955
6.80592e-08
0.000200251
5.18465e-08
0.00020038
2.95113e-08
0.000200438
3.78036e-09
0.000200447
-2.19413e-08
0.000200406
-4.2378e-08
0.000200289
-4.73518e-08
0.000200001
0.000198942
6.93511e-08
0.00019882
8.43076e-08
0.00019994
8.11436e-08
0.000200254
6.7118e-08
0.000200394
4.51218e-08
0.00020046
1.768e-08
0.000200475
-1.21188e-08
0.000200436
-3.79528e-08
0.000200315
-4.70723e-08
0.00020001
0.000198895
7.75826e-08
0.000198742
9.94897e-08
0.000199918
1.01975e-07
0.000200252
9.15309e-08
0.000200405
7.02542e-08
0.000200481
3.93413e-08
0.000200506
1.21865e-09
0.000200474
-3.69454e-08
0.000200353
-5.43438e-08
0.000200027
0.000198841
9.02779e-08
0.000198652
1.22917e-07
0.000199886
1.34476e-07
0.00020024
1.30617e-07
0.000200409
1.11911e-07
0.0002005
7.72528e-08
0.00020054
2.72967e-08
0.000200524
-2.82455e-08
0.000200409
-6.53557e-08
0.000200064
0.000198775
1.08993e-07
0.000198543
1.57782e-07
0.000199837
1.83686e-07
0.000200214
1.91235e-07
0.000200401
1.78493e-07
0.000200513
1.39947e-07
0.000200579
6.23671e-08
0.000200602
-6.32136e-08
0.000200535
-2.41216e-07
0.000200242
0.000198534
1.3869e-07
0.000198404
2.13439e-07
0.000199762
2.63773e-07
0.000200164
2.94666e-07
0.00020037
3.05231e-07
0.000200502
2.9357e-07
0.00020059
2.59745e-07
0.000200635
2.08979e-07
0.000200585
4.9112e-07
0.00019996
0.000193774
5.25157e-06
1.75641e-07
0.000198229
2.85111e-07
0.000199653
3.70055e-07
0.000200079
4.3656e-07
0.000200304
4.85552e-07
0.000200453
5.22029e-07
0.000200554
5.71641e-07
0.000200586
7.02393e-07
0.000200455
1.06045e-06
0.000199602
0.000191456
3.37787e-06
2.22322e-07
0.000198006
3.76019e-07
0.000199499
5.05058e-07
0.00019995
6.16754e-07
0.000200192
7.1375e-07
0.000200356
8.02462e-07
0.000200465
9.07022e-07
0.000200481
1.13702e-06
0.000200225
1.86749e-06
0.000198872
0.000188072
5.25165e-06
2.78803e-07
0.000197728
4.86221e-07
0.000199291
6.68467e-07
0.000199768
8.34095e-07
0.000200026
9.88137e-07
0.000200202
1.14249e-06
0.000200311
1.33689e-06
0.000200287
1.71559e-06
0.000199846
2.77804e-06
0.000197809
0.000184351
6.49879e-06
3.45744e-07
0.000197382
6.16839e-07
0.00019902
8.61846e-07
0.000199523
1.09055e-06
0.000199798
1.31048e-06
0.000199982
1.53973e-06
0.000200082
1.83043e-06
0.000199996
2.34499e-06
0.000199331
3.62471e-06
0.00019653
0.000180656
7.3202e-06
4.24335e-07
0.000196957
7.69892e-07
0.000198675
1.0878e-06
0.000199205
1.3888e-06
0.000199497
1.68229e-06
0.000199689
1.99108e-06
0.000199773
2.37776e-06
0.00019961
3.02833e-06
0.000198681
4.54298e-06
0.000195015
0.000177134
8.06465e-06
5.16364e-07
0.000196441
9.48613e-07
0.000198242
1.35104e-06
0.000198803
1.73506e-06
0.000199113
2.11153e-06
0.000199312
2.50728e-06
0.000199377
2.99309e-06
0.000199124
3.76336e-06
0.000197911
5.41039e-06
0.000193368
0.000173929
8.61556e-06
6.2424e-07
0.000195817
1.15782e-06
0.000197709
1.65923e-06
0.000198301
2.14022e-06
0.000198632
2.6132e-06
0.000198839
3.10889e-06
0.000198881
3.70612e-06
0.000198526
4.60423e-06
0.000197012
6.35012e-06
0.000191622
0.000171016
9.26317e-06
7.53118e-07
0.000195064
1.40388e-06
0.000197058
2.02194e-06
0.000197683
2.61768e-06
0.000198036
3.20548e-06
0.000198252
3.82031e-06
0.000198267
4.55019e-06
0.000197797
5.60602e-06
0.000195957
7.47672e-06
0.000189751
0.000168409
1.00835e-05
9.03566e-07
0.00019416
1.69479e-06
0.000196267
2.44934e-06
0.000196929
3.18033e-06
0.000197305
3.90333e-06
0.000197529
4.65652e-06
0.000197513
5.53245e-06
0.000196921
6.74111e-06
0.000194748
8.70068e-06
0.000187792
0.000166152
1.09579e-05
1.07791e-06
0.000193082
2.03748e-06
0.000195307
2.9523e-06
0.000196014
3.84116e-06
0.000196416
4.72066e-06
0.000196649
5.6304e-06
0.000196604
6.66265e-06
0.000195888
8.01519e-06
0.000193395
1.00164e-05
0.000185791
0.000164285
1.18835e-05
1.28407e-06
0.000191798
2.43831e-06
0.000194153
3.54177e-06
0.00019491
4.61517e-06
0.000195343
5.67599e-06
0.000195588
6.76383e-06
0.000195516
7.96747e-06
0.000194685
9.46763e-06
0.000191895
1.14657e-05
0.000183792
0.000162787
1.29633e-05
1.52574e-06
0.000190272
2.90671e-06
0.000192772
4.23098e-06
0.000193586
5.52036e-06
0.000194053
6.79227e-06
0.000194316
8.08448e-06
0.000194224
9.47825e-06
0.000193291
1.11215e-05
0.000190252
1.30722e-05
0.000181842
0.000161608
1.42518e-05
1.80731e-06
0.000188465
3.4529e-06
0.000191127
5.03497e-06
0.000192004
6.57687e-06
0.000192511
8.09512e-06
0.000192798
9.62341e-06
0.000192695
1.12297e-05
0.000191685
1.30139e-05
0.000188468
1.49073e-05
0.000179948
0.000160697
1.58182e-05
2.13366e-06
0.000186332
4.08696e-06
0.000189173
5.96902e-06
0.000190122
7.80544e-06
0.000190675
9.61124e-06
0.000190992
1.14138e-05
0.000190893
1.32625e-05
0.000189836
1.5203e-05
0.000186527
1.70584e-05
0.000178093
0.000159994
1.77613e-05
2.50904e-06
0.000183822
4.81801e-06
0.000186864
7.04742e-06
0.000187892
9.22583e-06
0.000188497
1.13665e-05
0.000188852
1.34891e-05
0.00018877
1.56207e-05
0.000187704
1.77517e-05
0.000184396
1.9615e-05
0.00017623
0.000159422
2.01874e-05
2.93639e-06
0.000180886
5.65397e-06
0.000184147
8.28242e-06
0.000185264
1.08549e-05
0.000185924
1.33833e-05
0.000186323
1.58785e-05
0.000186275
1.83442e-05
0.000185239
2.07181e-05
0.000182022
2.26601e-05
0.000174288
0.000158882
2.31996e-05
3.41135e-06
0.000177475
6.59859e-06
0.000180959
9.68219e-06
0.00018218
1.27043e-05
0.000182902
1.5677e-05
0.000183351
1.86031e-05
0.000183349
2.1463e-05
0.000182379
2.41476e-05
0.000179338
2.6262e-05
0.000172173
0.000158255
2.6889e-05
3.78724e-06
0.000173688
7.33313e-06
0.000177414
1.0773e-05
0.000178741
1.41504e-05
0.000179525
1.74773e-05
0.000180024
2.07493e-05
0.000180077
2.39286e-05
0.0001792
2.68732e-05
0.000176393
2.91698e-05
0.000169877
0.000157439
2.99859e-05
4.35117e-06
0.000169336
8.41563e-06
0.000173349
1.2369e-05
0.000174787
1.62583e-05
0.000175635
2.00965e-05
0.000176185
2.38742e-05
0.000176299
2.75381e-05
0.000175536
3.09197e-05
0.000173012
3.35878e-05
0.000167208
0.000156271
3.47557e-05
4.96259e-06
0.000164374
9.59526e-06
0.000168716
1.41059e-05
0.000170276
1.855e-05
0.000171191
2.29436e-05
0.000171792
2.72748e-05
0.000171968
3.14799e-05
0.000171331
3.53745e-05
0.000169117
3.85265e-05
0.000164056
0.000154603
4.0195e-05
5.61926e-06
0.000158754
1.08618e-05
0.000163474
1.59685e-05
0.00016517
2.10039e-05
0.000166156
2.59893e-05
0.000166806
3.09131e-05
0.000167044
3.57074e-05
0.000166536
4.01837e-05
0.000164641
4.39241e-05
0.000160316
0.000152289
4.62382e-05
6.31895e-06
0.000152436
1.22069e-05
0.000157586
1.794e-05
0.000159437
2.35939e-05
0.000160502
2.91963e-05
0.000161204
3.47395e-05
0.000161501
4.01575e-05
0.000161118
4.52684e-05
0.00015953
4.96836e-05
0.000155901
0.000149201
5.27709e-05
7.0586e-06
0.000145377
1.36215e-05
0.000151023
2.00025e-05
0.000153056
2.62904e-05
0.000154214
3.25215e-05
0.000154973
3.86949e-05
0.000155328
4.47525e-05
0.000155061
5.05288e-05
0.000153753
5.56765e-05
0.000150753
0.000145246
5.96317e-05
7.83573e-06
0.000137541
1.50967e-05
0.000143762
2.21375e-05
0.000146015
2.90627e-05
0.000147289
3.59188e-05
0.000148117
4.27153e-05
0.000148531
4.94065e-05
0.000148369
5.58514e-05
0.000147309
6.17526e-05
0.000144852
0.000140375
6.66238e-05
8.64955e-06
0.000128892
1.66264e-05
0.000135785
2.43288e-05
0.000138313
3.18813e-05
0.000139736
3.93432e-05
0.000140655
4.67367e-05
0.000141138
5.40329e-05
0.000141073
6.11196e-05
0.000140222
6.77548e-05
0.000138217
0.000134594
7.35353e-05
9.50213e-06
0.00011939
1.82085e-05
0.000127079
2.65645e-05
0.000129957
3.4721e-05
0.00013158
4.27536e-05
0.000132622
5.06999e-05
0.000133191
5.85505e-05
0.000133223
6.62246e-05
0.000132548
7.35355e-05
0.000130906
0.000127966
8.01639e-05
1.03996e-05
0.00010899
1.98467e-05
0.000117632
2.88383e-05
0.000120965
3.75616e-05
0.000122857
4.61145e-05
0.000124069
5.45531e-05
0.000124753
6.28891e-05
0.000124887
7.10732e-05
0.000124364
7.89705e-05
0.000123009
0.000120596
8.63401e-05
1.13527e-05
9.76373e-05
2.15505e-05
0.000107434
3.11477e-05
0.000111368
4.03855e-05
0.000113619
4.93934e-05
0.000115061
5.82501e-05
0.000115896
6.69893e-05
0.000116148
7.55911e-05
0.000115762
8.39663e-05
0.000114633
0.000112621
9.1942e-05
1.23783e-05
8.52589e-05
2.3332e-05
9.64801e-05
3.34892e-05
0.000101211
4.31716e-05
0.000103936
5.25546e-05
0.000105678
6.17442e-05
0.000106706
7.07968e-05
0.000107095
7.97187e-05
0.00010684
8.84579e-05
0.000105894
0.000104182
9.68967e-05
1.34986e-05
7.17603e-05
2.51972e-05
8.47814e-05
3.58443e-05
9.05636e-05
4.5881e-05
9.38998e-05
5.55446e-05
9.60149e-05
6.49745e-05
9.72764e-05
7.425e-05
9.78194e-05
8.33986e-05
9.76915e-05
9.23967e-05
9.6896e-05
9.54116e-05
0.000101167
1.47559e-05
5.70044e-05
2.71041e-05
7.24332e-05
3.81468e-05
7.95209e-05
4.84339e-05
8.36126e-05
5.82733e-05
8.61756e-05
6.78484e-05
8.77013e-05
7.7262e-05
8.84058e-05
8.65575e-05
8.8396e-05
9.57292e-05
8.77243e-05
8.64144e-05
0.000104726
1.61633e-05
4.08412e-05
2.89494e-05
5.96471e-05
4.02282e-05
6.82421e-05
5.06453e-05
7.31955e-05
6.0564e-05
7.62569e-05
7.02056e-05
7.80596e-05
7.9693e-05
7.89184e-05
8.908e-05
7.90091e-05
9.83704e-05
7.84338e-05
7.72566e-05
0.000107528
1.66354e-05
2.42057e-05
3.03553e-05
4.59273e-05
4.18638e-05
5.67336e-05
5.22721e-05
6.27871e-05
6.21586e-05
6.63705e-05
7.17987e-05
6.84195e-05
8.13218e-05
6.93954e-05
9.07792e-05
6.95516e-05
0.000100174
6.90389e-05
6.79563e-05
0.000109474
1.44357e-05
9.76998e-06
2.94872e-05
3.08758e-05
4.19061e-05
4.43147e-05
5.26334e-05
5.20598e-05
6.25845e-05
5.64194e-05
7.22421e-05
5.87619e-05
8.18141e-05
5.98234e-05
9.13686e-05
5.99971e-05
0.000100904
5.95034e-05
5.84784e-05
0.000110382
9.88145e-06
-1.11473e-07
2.46983e-05
1.6059e-05
3.83089e-05
3.07041e-05
5.01007e-05
4.0268e-05
6.07096e-05
4.58105e-05
7.07467e-05
4.87249e-05
8.05836e-05
4.99864e-05
9.03829e-05
5.01978e-05
0.000100177
4.97092e-05
4.87213e-05
0.000109934
5.84441e-06
-5.95588e-06
1.72524e-05
4.651e-06
3.03666e-05
1.75899e-05
4.30239e-05
2.76107e-05
5.47855e-05
3.40489e-05
6.58339e-05
3.76765e-05
7.64777e-05
3.93425e-05
8.69297e-05
3.97459e-05
9.72841e-05
3.93548e-05
3.84521e-05
0.000107553
2.72293e-06
-8.67881e-06
9.24877e-06
-1.87484e-06
1.93871e-05
7.4516e-06
3.11983e-05
1.57994e-05
4.34915e-05
2.17557e-05
5.57154e-05
2.54526e-05
6.7688e-05
2.737e-05
7.9374e-05
2.80599e-05
9.08152e-05
2.79136e-05
2.72142e-05
0.000102053
-1.66854e-06
-7.01027e-06
4.19497e-07
-3.96288e-06
6.628e-06
1.24311e-06
1.60026e-05
6.42483e-06
2.75106e-05
1.02477e-05
4.02622e-05
1.27011e-05
5.35034e-05
1.41288e-05
6.66692e-05
1.48941e-05
7.96218e-05
1.4961e-05
1.45013e-05
9.23347e-05
-7.01027e-06
-1.09731e-05
-9.73004e-06
-3.3052e-06
6.94246e-06
1.96435e-05
3.37723e-05
4.86664e-05
6.36274e-05
7.81287e-05
-2.8969e-05
3.42206e-05
-2.82979e-05
-6.71101e-07
-2.50784e-05
-3.21947e-06
-2.10858e-05
-3.99258e-06
-1.64962e-05
-4.58967e-06
-1.15301e-05
-4.96606e-06
-6.44353e-06
-5.08657e-06
-1.4405e-06
-5.00303e-06
3.42699e-06
-4.86749e-06
8.14037e-06
-4.71337e-06
1.26081e-05
-4.46769e-06
1.66679e-05
-4.05982e-06
2.01136e-05
-3.44569e-06
2.28517e-05
-2.73817e-06
2.48332e-05
-1.9815e-06
2.60203e-05
-1.18702e-06
2.6369e-05
-3.48703e-07
2.5776e-05
5.93e-07
2.41614e-05
1.61454e-06
2.14623e-05
2.69915e-06
1.76568e-05
3.80545e-06
1.2843e-05
4.8138e-06
7.50424e-06
5.33879e-06
2.70922e-06
4.79502e-06
2.70922e-06
-1.41979e-05
5.17963e-05
-2.01496e-05
5.2806e-06
-2.01176e-05
-3.25149e-06
-1.81882e-05
-5.92192e-06
-1.52794e-05
-7.49849e-06
-1.17301e-05
-8.51538e-06
-7.7411e-06
-9.07556e-06
-3.47943e-06
-9.2647e-06
8.09531e-07
-9.15645e-06
4.88207e-06
-8.78591e-06
8.59531e-06
-8.18092e-06
1.18802e-05
-7.34467e-06
1.47178e-05
-6.28328e-06
1.70437e-05
-5.06409e-06
1.8803e-05
-3.74084e-06
1.99585e-05
-2.34253e-06
2.04871e-05
-8.77333e-07
2.04122e-05
6.67897e-07
1.97211e-05
2.3057e-06
1.83773e-05
4.0429e-06
1.6323e-05
5.85981e-06
1.34796e-05
7.65717e-06
9.71319e-06
9.10522e-06
5.09013e-06
9.41809e-06
7.79935e-06
-8.43296e-06
6.54809e-05
-1.56421e-05
1.24898e-05
-1.74247e-05
-1.46888e-06
-1.67461e-05
-6.60055e-06
-1.47774e-05
-9.46718e-06
-1.20073e-05
-1.12855e-05
-8.72169e-06
-1.23612e-05
-5.14909e-06
-1.28373e-05
-1.49867e-06
-1.28069e-05
2.04924e-06
-1.23338e-05
5.34461e-06
-1.14763e-05
8.28511e-06
-1.02852e-05
1.08143e-05
-8.81248e-06
1.28782e-05
-7.12801e-06
1.4435e-05
-5.29757e-06
1.54615e-05
-3.36911e-06
1.59542e-05
-1.36995e-06
1.59293e-05
6.92741e-07
1.54083e-05
2.82666e-06
1.44087e-05
5.04253e-06
1.29321e-05
7.33643e-06
1.09404e-05
9.64888e-06
8.29741e-06
1.17482e-05
4.74643e-06
1.29691e-05
1.25458e-05
-5.81143e-06
7.77912e-05
-1.40676e-05
2.07459e-05
-1.68992e-05
1.36269e-06
-1.69096e-05
-6.5901e-06
-1.54364e-05
-1.09404e-05
-1.31077e-05
-1.36142e-05
-1.02496e-05
-1.52193e-05
-7.09312e-06
-1.59938e-05
-3.82511e-06
-1.60749e-05
-6.03268e-07
-1.55557e-05
2.43293e-06
-1.45125e-05
5.16877e-06
-1.3021e-05
7.52115e-06
-1.11649e-05
9.43023e-06
-9.03709e-06
1.08612e-05
-6.7285e-06
1.18046e-05
-4.31259e-06
1.22723e-05
-1.83764e-06
1.22904e-05
6.74631e-07
1.18919e-05
3.22519e-06
1.11078e-05
5.82669e-06
9.95979e-06
8.4844e-06
8.4454e-06
1.11633e-05
6.4938e-06
1.36998e-05
3.85359e-06
1.56093e-05
1.63994e-05
-2.95413e-06
8.80655e-05
-1.25675e-05
3.03593e-05
-1.67052e-05
5.50042e-06
-1.7523e-05
-5.77224e-06
-1.6572e-05
-1.18914e-05
-1.46438e-05
-1.55424e-05
-1.21437e-05
-1.77193e-05
-9.3148e-06
-1.88227e-05
-6.32976e-06
-1.90599e-05
-3.33679e-06
-1.85486e-05
-4.71532e-07
-1.73778e-05
2.14324e-06
-1.56358e-05
4.4063e-06
-1.34279e-05
6.24672e-06
-1.08775e-05
7.62902e-06
-8.1108e-06
8.55241e-06
-5.23598e-06
9.04162e-06
-2.32685e-06
9.13504e-06
5.8121e-07
8.87454e-06
3.48569e-06
8.29834e-06
6.40289e-06
7.43502e-06
9.34773e-06
6.29361e-06
1.23047e-05
4.82988e-06
1.51635e-05
2.8254e-06
1.76138e-05
1.92248e-05
-5.89115e-08
9.61891e-05
-9.96806e-06
4.02684e-05
-1.55204e-05
1.10527e-05
-1.74962e-05
-3.79642e-06
-1.73691e-05
-1.20185e-05
-1.60408e-05
-1.68707e-05
-1.40227e-05
-1.97374e-05
-1.15915e-05
-2.12539e-05
-8.92169e-06
-2.17297e-05
-6.15914e-06
-2.13112e-05
-3.44267e-06
-2.00942e-05
-9.06857e-07
-1.81716e-05
1.32746e-06
-1.56622e-05
3.1698e-06
-1.27198e-05
4.5738e-06
-9.51479e-06
5.53916e-06
-6.20134e-06
6.09917e-06
-2.88687e-06
6.30339e-06
3.76993e-07
6.20308e-06
3.58601e-06
5.84255e-06
6.76341e-06
5.25414e-06
9.93615e-06
4.45115e-06
1.31077e-05
3.40474e-06
1.62099e-05
1.96899e-06
1.90495e-05
2.11938e-05
2.36622e-06
0.000102438
-6.7608e-06
4.93954e-05
-1.32126e-05
1.75045e-05
-1.64331e-05
-5.75866e-07
-1.7399e-05
-1.10526e-05
-1.69532e-05
-1.73165e-05
-1.56329e-05
-2.10578e-05
-1.3744e-05
-2.31428e-05
-1.149e-05
-2.39837e-05
-9.02182e-06
-2.37794e-05
-6.48103e-06
-2.2635e-05
-4.01634e-06
-2.06363e-05
-1.77319e-06
-1.79054e-05
1.29536e-07
-1.46226e-05
1.62153e-06
-1.10068e-05
2.69073e-06
-7.27053e-06
3.37197e-06
-3.56812e-06
3.72373e-06
2.52342e-08
3.80692e-06
3.50282e-06
3.67315e-06
6.89718e-06
3.35972e-06
1.02496e-05
2.88494e-06
1.35824e-05
2.23208e-06
1.68628e-05
1.30673e-06
1.99749e-05
2.25005e-05
4.40695e-06
0.000107295
-3.69228e-06
5.74947e-05
-1.04497e-05
2.4262e-05
-1.47023e-05
3.67666e-06
-1.67956e-05
-8.95925e-06
-1.7375e-05
-1.67372e-05
-1.69002e-05
-2.15326e-05
-1.5693e-05
-2.43501e-05
-1.39784e-05
-2.56982e-05
-1.19025e-05
-2.58553e-05
-9.59917e-06
-2.49383e-05
-7.22382e-06
-2.30116e-05
-4.94884e-06
-2.01804e-05
-2.93222e-06
-1.66392e-05
-1.28348e-06
-1.26555e-05
-4.36228e-08
-8.51038e-06
8.12319e-07
-4.42406e-06
1.34852e-06
-5.10965e-07
1.63725e-06
3.21409e-06
1.73978e-06
6.79464e-06
1.69991e-06
1.02895e-05
1.54128e-06
1.37411e-05
1.25596e-06
1.71481e-05
7.7691e-07
2.04539e-05
2.32774e-05
6.18968e-06
0.000111188
-9.86547e-07
6.46709e-05
-7.71989e-06
3.09953e-05
-1.2665e-05
8.62181e-06
-1.57465e-05
-5.87779e-06
-1.73233e-05
-1.51604e-05
-1.77824e-05
-2.10734e-05
-1.74065e-05
-2.4726e-05
-1.63696e-05
-2.67351e-05
-1.48076e-05
-2.74174e-05
-1.28337e-05
-2.69122e-05
-1.0594e-05
-2.52513e-05
-8.28e-06
-2.24943e-05
-6.09637e-06
-1.88228e-05
-4.21225e-06
-1.45397e-05
-2.7212e-06
-1.00014e-05
-1.627e-06
-5.51826e-06
-8.66237e-07
-1.27173e-06
-3.5129e-07
2.69914e-06
-5.84393e-09
6.4492e-06
2.23273e-07
1.00603e-05
3.65047e-07
1.35993e-05
4.17105e-07
1.70961e-05
3.28597e-07
2.05424e-05
2.3606e-05
7.78876e-06
0.000114358
1.40923e-06
7.10504e-05
-5.16991e-06
3.75744e-05
-1.05749e-05
1.40268e-05
-1.44759e-05
-1.97679e-06
-1.69998e-05
-1.26365e-05
-1.84176e-05
-1.96555e-05
-1.89351e-05
-2.42085e-05
-1.8677e-05
-2.69933e-05
-1.7751e-05
-2.83433e-05
-1.62301e-05
-2.84331e-05
-1.42101e-05
-2.72714e-05
-1.18806e-05
-2.48238e-05
-9.48742e-06
-2.1216e-05
-7.2761e-06
-1.6751e-05
-5.42732e-06
-1.18502e-05
-4.00838e-06
-6.9372e-06
-2.97016e-06
-2.30995e-06
-2.20364e-06
1.93263e-06
-1.60792e-06
5.85348e-06
-1.1145e-06
9.56692e-06
-6.87357e-07
1.31722e-05
-3.26043e-07
1.67348e-05
-7.58854e-08
2.02923e-05
2.35301e-05
9.24329e-06
0.000116998
3.53951e-06
7.67542e-05
-2.82999e-06
4.39439e-05
-8.53591e-06
1.97327e-05
-1.31075e-05
2.59478e-06
-1.65014e-05
-9.24255e-06
-1.88537e-05
-1.73032e-05
-2.03046e-05
-2.27576e-05
-2.09221e-05
-2.63758e-05
-2.07266e-05
-2.85389e-05
-1.98009e-05
-2.93587e-05
-1.81412e-05
-2.89311e-05
-1.58815e-05
-2.70836e-05
-1.32791e-05
-2.38184e-05
-1.06536e-05
-1.93765e-05
-8.3066e-06
-1.41972e-05
-6.43001e-06
-8.81379e-06
-5.02976e-06
-3.7102e-06
-3.97051e-06
8.73372e-07
-3.10933e-06
4.9923e-06
-2.35072e-06
8.80831e-06
-1.64672e-06
1.24682e-05
-9.9584e-07
1.60839e-05
-4.44745e-07
1.97412e-05
2.30854e-05
1.06694e-05
0.000119292
5.48891e-06
8.19347e-05
-6.73852e-07
5.01067e-05
-6.58252e-06
2.56414e-05
-1.16941e-05
7.70639e-06
-1.58499e-05
-5.08674e-06
-1.90793e-05
-1.40739e-05
-2.14568e-05
-2.03801e-05
-2.30161e-05
-2.48164e-05
-2.37076e-05
-2.78474e-05
-2.349e-05
-2.95763e-05
-2.23818e-05
-3.00393e-05
-2.03743e-05
-2.90911e-05
-1.76659e-05
-2.65268e-05
-1.46014e-05
-2.2441e-05
-1.16058e-05
-1.71928e-05
-9.06458e-06
-1.1355e-05
-7.1447e-06
-5.63008e-06
-5.70875e-06
-5.62576e-07
-4.54462e-06
3.82817e-06
-3.51052e-06
7.77421e-06
-2.53364e-06
1.14913e-05
-1.61061e-06
1.51609e-05
-7.91474e-07
1.8922e-05
2.22939e-05
1.21613e-05
0.000121382
7.36659e-06
8.67294e-05
1.38195e-06
5.60913e-05
-4.66947e-06
3.16928e-05
-1.02128e-05
1.32498e-05
-1.50153e-05
-2.84304e-07
-1.90236e-05
-1.00655e-05
-2.22595e-05
-1.71442e-05
-2.47327e-05
-2.23433e-05
-2.63955e-05
-2.61846e-05
-2.7084e-05
-2.88878e-05
-2.67401e-05
-3.03831e-05
-2.53013e-05
-3.05299e-05
-2.27607e-05
-2.90674e-05
-1.93968e-05
-2.58049e-05
-1.56787e-05
-2.09109e-05
-1.21822e-05
-1.48515e-05
-9.41537e-06
-8.39688e-06
-7.41311e-06
-2.56483e-06
-5.87016e-06
2.28521e-06
-4.54838e-06
6.45243e-06
-3.3189e-06
1.02618e-05
-2.15204e-06
1.3994e-05
-1.08722e-06
1.78572e-05
2.12067e-05
1.38344e-05
0.000123366
9.31475e-06
9.1249e-05
3.47217e-06
6.19339e-05
-2.68431e-06
3.78493e-05
-8.5693e-06
1.91347e-05
-1.39023e-05
5.04868e-06
-1.85785e-05
-5.38928e-06
-2.25801e-05
-1.31427e-05
-2.58982e-05
-1.90251e-05
-2.84813e-05
-2.36015e-05
-3.02082e-05
-2.71609e-05
-3.08693e-05
-2.97221e-05
-3.03314e-05
-3.10677e-05
-2.844e-05
-3.09588e-05
-2.51893e-05
-2.90555e-05
-2.09416e-05
-2.51587e-05
-1.63189e-05
-1.94742e-05
-1.21956e-05
-1.25202e-05
-9.1986e-06
-5.5618e-06
-7.09856e-06
1.8517e-07
-5.43951e-06
4.79339e-06
-3.97153e-06
8.79381e-06
-2.59895e-06
1.26214e-05
-1.32714e-06
1.65854e-05
1.98795e-05
1.58325e-05
0.000125295
1.15074e-05
9.5574e-05
5.77528e-06
6.76661e-05
-4.58264e-07
4.40828e-05
-6.60999e-06
2.52865e-05
-1.23678e-05
1.08065e-05
-1.75969e-05
-1.6018e-07
-2.22524e-05
-8.4871e-06
-2.6323e-05
-1.49545e-05
-2.97722e-05
-2.01524e-05
-3.24973e-05
-2.44357e-05
-3.43112e-05
-2.79082e-05
-3.49475e-05
-3.04315e-05
-3.4182e-05
-3.17244e-05
-3.17623e-05
-3.14752e-05
-2.76619e-05
-2.9259e-05
-2.22994e-05
-2.48367e-05
-1.65073e-05
-1.83123e-05
-1.16907e-05
-1.03784e-05
-8.46237e-06
-3.04318e-06
-6.26454e-06
2.59557e-06
-4.5099e-06
7.03917e-06
-2.93762e-06
1.10491e-05
-1.48e-06
1.51278e-05
1.83995e-05
1.83044e-05
0.000127178
1.41298e-05
9.97486e-05
8.49007e-06
7.33058e-05
2.20722e-06
5.03656e-05
-4.14413e-06
3.16378e-05
-1.02308e-05
1.68931e-05
-1.5892e-05
5.50101e-06
-2.10725e-05
-3.30654e-06
-2.5764e-05
-1.02631e-05
-2.99548e-05
-1.59616e-05
-3.35842e-05
-2.08062e-05
-3.6508e-05
-2.49844e-05
-3.84727e-05
-2.84668e-05
-3.9158e-05
-3.10391e-05
-3.82332e-05
-3.23999e-05
-3.53448e-05
-3.21475e-05
-3.03754e-05
-2.98061e-05
-2.36467e-05
-2.5041e-05
-1.64829e-05
-1.75422e-05
-1.08404e-05
-8.68565e-06
-7.29917e-06
-9.45688e-07
-4.98999e-06
4.72999e-06
-3.16162e-06
9.22078e-06
-1.48473e-06
1.34509e-05
1.69148e-05
2.13948e-05
0.000128983
1.73681e-05
0.000103775
1.18266e-05
7.88473e-05
5.52939e-06
5.66629e-05
-9.59296e-07
3.81265e-05
-7.28756e-06
2.32214e-05
-1.32712e-05
1.14846e-05
-1.88462e-05
2.26852e-06
-2.40086e-05
-5.10067e-06
-2.87714e-05
-1.11989e-05
-3.31213e-05
-1.64564e-05
-3.69803e-05
-2.11253e-05
-4.01761e-05
-2.5271e-05
-4.24191e-05
-2.87962e-05
-4.33422e-05
-3.14768e-05
-4.24938e-05
-3.29959e-05
-3.94181e-05
-3.28819e-05
-3.37295e-05
-3.07295e-05
-2.55458e-05
-2.57259e-05
-1.67259e-05
-1.75055e-05
-9.8262e-06
-7.84542e-06
-5.68721e-06
5.90996e-07
-3.15482e-06
6.68838e-06
-1.15083e-06
1.14469e-05
1.5764e-05
2.52355e-05
0.000130636
2.13962e-05
0.000107615
1.59874e-05
8.42562e-05
9.72105e-06
6.29292e-05
3.15699e-06
4.46906e-05
-3.33503e-06
2.97134e-05
-9.54817e-06
1.76977e-05
-1.54007e-05
8.12108e-06
-2.08926e-05
3.91216e-07
-2.6055e-05
-6.03646e-06
-3.09159e-05
-1.15954e-05
-3.5463e-05
-1.65782e-05
-3.96131e-05
-2.11209e-05
-4.31871e-05
-2.52222e-05
-4.5898e-05
-2.87659e-05
-4.7361e-05
-3.15328e-05
-4.70424e-05
-3.32005e-05
-4.42907e-05
-3.34812e-05
-3.82965e-05
-3.172e-05
-2.90108e-05
-2.67912e-05
-1.8235e-05
-1.86213e-05
-9.1212e-06
-8.52277e-06
-3.19462e-06
7.61813e-07
1.03197e-07
8.14909e-06
1.58672e-05
2.86455e-05
0.000131977
2.52145e-05
0.000111046
2.02112e-05
8.92594e-05
1.42846e-05
6.88558e-05
7.97479e-06
5.10004e-05
1.65461e-06
3.60336e-05
-4.45342e-06
2.38058e-05
-1.02498e-05
1.39175e-05
-1.57265e-05
5.86789e-06
-2.09246e-05
-8.38367e-07
-2.58971e-05
-6.62288e-06
-3.06801e-05
-1.17952e-05
-3.52659e-05
-1.65352e-05
-3.95852e-05
-2.09029e-05
-4.34895e-05
-2.48615e-05
-4.67247e-05
-2.82977e-05
-4.89013e-05
-3.1024e-05
-4.96458e-05
-3.27367e-05
-4.8176e-05
-3.31898e-05
-4.31555e-05
-3.18117e-05
-3.44375e-05
-2.73393e-05
-2.28083e-05
-2.0152e-05
-1.08058e-05
-1.12407e-05
2.03361e-07
-2.86003e-06
3.7395e-06
1.2331e-05
3.37874e-05
0.000132945
3.07209e-05
0.000114112
2.60025e-05
9.39778e-05
2.02484e-05
7.46099e-05
1.40046e-05
5.72442e-05
7.66605e-06
4.23721e-05
1.4804e-06
2.99914e-05
-4.42744e-06
1.98253e-05
-1.00295e-05
1.147e-05
-1.53634e-05
4.49546e-06
-2.04972e-05
-1.48902e-06
-2.54984e-05
-6.79405e-06
-3.04091e-05
-1.16245e-05
-3.52322e-05
-1.60798e-05
-3.99254e-05
-2.01683e-05
-4.43949e-05
-2.38282e-05
-4.84732e-05
-2.69458e-05
-5.18468e-05
-2.9363e-05
-5.41799e-05
-3.08567e-05
-5.48036e-05
-3.11881e-05
-5.2877e-05
-2.92659e-05
-4.79056e-05
-2.51233e-05
-4.02359e-05
-1.89104e-05
-3.23921e-05
-1.07038e-05
-4.88322e-08
-2.86038e-05
3.97509e-05
0.000133389
3.71973e-05
0.000116666
3.28992e-05
9.82759e-05
2.74334e-05
8.00757e-05
2.13501e-05
6.33275e-05
1.50707e-05
4.86515e-05
8.87226e-06
3.61898e-05
2.90818e-06
2.57894e-05
-2.76737e-06
1.71455e-05
-8.17297e-06
9.90106e-06
-1.33749e-05
3.71291e-06
-1.84552e-05
-1.7137e-06
-2.34843e-05
-6.59544e-06
-2.85053e-05
-1.10588e-05
-3.35353e-05
-1.51383e-05
-3.85766e-05
-1.87869e-05
-4.3623e-05
-2.18994e-05
-4.86412e-05
-2.43448e-05
-5.35325e-05
-2.59654e-05
-5.819e-05
-2.65306e-05
-6.18744e-05
-2.55815e-05
-6.43426e-05
-2.26551e-05
-6.59993e-05
-1.72537e-05
-6.7241e-05
-9.46213e-06
6.19505e-08
-6.73518e-05
4.64818e-05
0.000133145
4.46185e-05
0.000118529
4.09154e-05
0.000101979
3.58942e-05
8.50969e-05
3.01009e-05
6.91207e-05
2.39824e-05
5.47701e-05
1.78508e-05
4.23214e-05
1.18926e-05
3.17476e-05
6.19223e-06
2.28459e-05
7.57143e-07
1.53361e-05
-4.45861e-06
8.92866e-06
-9.53106e-06
3.35875e-06
-1.45375e-05
-1.58904e-06
-1.95321e-05
-6.06417e-06
-2.45411e-05
-1.01293e-05
-2.95781e-05
-1.37498e-05
-3.467e-05
-1.68076e-05
-3.98582e-05
-1.91566e-05
-4.51873e-05
-2.06362e-05
-5.06629e-05
-2.1055e-05
-5.60336e-05
-2.02108e-05
-6.07486e-05
-1.79401e-05
-6.40824e-05
-1.392e-05
-6.53207e-05
-8.22378e-06
-1.26392e-06
-6.39948e-05
5.38612e-05
0.000132055
5.28804e-05
0.00011951
4.99808e-05
0.000104879
4.56043e-05
8.94734e-05
4.02749e-05
7.44501e-05
3.44579e-05
6.05871e-05
2.85022e-05
4.82771e-05
2.26335e-05
3.76163e-05
1.69709e-05
2.85085e-05
1.15511e-05
2.0756e-05
6.35456e-06
1.41252e-05
1.3271e-06
8.38622e-06
-3.5967e-06
3.33476e-06
-8.46639e-06
-1.19447e-06
-1.32919e-05
-5.30374e-06
-1.80568e-05
-8.98487e-06
-2.27558e-05
-1.21086e-05
-2.73863e-05
-1.45261e-05
-3.19513e-05
-1.60712e-05
-3.64139e-05
-1.65925e-05
-4.06073e-05
-1.60174e-05
-4.42138e-05
-1.43335e-05
-4.6624e-05
-1.15099e-05
-4.71345e-05
-7.71329e-06
-3.19398e-06
-4.52044e-05
6.17026e-05
0.000129984
6.17897e-05
0.000119423
5.99201e-05
0.000106748
5.64275e-05
9.2966e-05
5.17856e-05
7.9092e-05
4.64614e-05
6.59113e-05
4.0835e-05
5.39035e-05
3.51746e-05
4.32768e-05
2.96407e-05
3.40424e-05
2.4306e-05
2.60907e-05
1.91787e-05
1.92525e-05
1.42261e-05
1.33388e-05
9.3988e-06
8.16204e-06
4.6598e-06
3.54453e-06
1.86963e-08
-6.6264e-07
-4.50068e-06
-4.46549e-06
-8.89213e-06
-7.71714e-06
-1.31389e-05
-1.02794e-05
-1.71726e-05
-1.20375e-05
-2.08577e-05
-1.29073e-05
-2.4009e-05
-1.2866e-05
-2.6416e-05
-1.19266e-05
-2.77856e-05
-1.01402e-05
-2.78475e-05
-7.65142e-06
-4.6749e-06
-2.63665e-05
6.97625e-05
0.000126845
7.10666e-05
0.000118119
7.04425e-05
0.000107372
6.80928e-05
9.53156e-05
6.4406e-05
8.27789e-05
5.98217e-05
7.04956e-05
5.47357e-05
5.89894e-05
4.94544e-05
4.85581e-05
4.41841e-05
3.93127e-05
3.90411e-05
3.12337e-05
3.40699e-05
2.42236e-05
2.9264e-05
1.81447e-05
2.45891e-05
1.2837e-05
2.00233e-05
8.11033e-06
1.55697e-05
3.79091e-06