/*--------------------------------*- C++ -*----------------------------------*\
| =========                 |                                                 |
| \\      /  F ield         | OpenFOAM: The Open Source CFD Toolbox           |
|  \\    /   O peration     | Version:  v2012                                 |
|   \\  /    A nd           | Website:  www.openfoam.com                      |
|    \\/     M anipulation  |                                                 |
\*---------------------------------------------------------------------------*/
FoamFile
{
    version     2.0;
    format      ascii;
    class       volVectorField;
    location    "643";
    object      U;
}
// * * * * * * * * * * * * * * * * * * * * * * * * * * * * * * * * * * * * * //

dimensions      [0 1 -1 0 0 0 0];


internalField   nonuniform List<vector> 
6532
(
(6.98082e-05 -0.999778 0)
(0.000181803 -1.00003 0)
(0.000125104 -1.00002 0)
(6.49455e-05 -1.00001 0)
(2.01492e-05 -1.00001 0)
(-2.00024e-05 -1.00001 0)
(-6.48222e-05 -1.00001 0)
(-0.000125025 -1.00002 0)
(-0.000181787 -1.00003 0)
(-6.9803e-05 -0.999778 0)
(0.000282385 -0.999506 0)
(0.000337674 -1.00012 0)
(0.00025805 -1.00012 0)
(0.000153909 -1.00011 0)
(5.07922e-05 -1.0001 0)
(-5.03426e-05 -1.0001 0)
(-0.00015353 -1.00011 0)
(-0.000257781 -1.00013 0)
(-0.000337632 -1.00012 0)
(-0.00028237 -0.999506 0)
(0.000348386 -0.999106 0)
(0.000383612 -1.00014 0)
(0.000310573 -1.00025 0)
(0.000199041 -1.00026 0)
(6.78583e-05 -1.00025 0)
(-6.69896e-05 -1.00025 0)
(-0.000198273 -1.00026 0)
(-0.000309969 -1.00025 0)
(-0.000383089 -1.00014 0)
(-0.000348221 -0.999106 0)
(0.000352094 -0.998657 0)
(0.000377824 -1.00013 0)
(0.000319813 -1.00037 0)
(0.000213589 -1.00042 0)
(7.42145e-05 -1.00043 0)
(-7.27564e-05 -1.00043 0)
(-0.000212284 -1.00042 0)
(-0.000318757 -1.00037 0)
(-0.000377126 -1.00013 0)
(-0.000351758 -0.998658 0)
(0.000339245 -0.998225 0)
(0.0003635 -1.0001 0)
(0.000314677 -1.00048 0)
(0.00021286 -1.00058 0)
(7.50179e-05 -1.00061 0)
(-7.27093e-05 -1.00061 0)
(-0.000210774 -1.00058 0)
(-0.000312976 -1.00048 0)
(-0.000362426 -1.0001 0)
(-0.000338699 -0.998227 0)
(0.000321363 -0.997825 0)
(0.000342737 -1.00007 0)
(0.000304156 -1.00057 0)
(0.000206223 -1.00073 0)
(7.33628e-05 -1.00079 0)
(-6.98189e-05 -1.00079 0)
(-0.000203021 -1.00074 0)
(-0.000301623 -1.00057 0)
(-0.000341056 -1.00008 0)
(-0.00032052 -0.997827 0)
(0.000303119 -0.99745 0)
(0.000322166 -1.00005 0)
(0.000287843 -1.00066 0)
(0.000196294 -1.00088 0)
(7.05651e-05 -1.00096 0)
(-6.51561e-05 -1.00096 0)
(-0.000191414 -1.00088 0)
(-0.000284014 -1.00066 0)
(-0.000319569 -1.00005 0)
(-0.000301886 -0.997454 0)
(0.000286465 -0.997096 0)
(0.000303807 -1.00002 0)
(0.000272326 -1.00074 0)
(0.0001864 -1.00101 0)
(6.80109e-05 -1.00111 0)
(-5.97412e-05 -1.00112 0)
(-0.000178935 -1.00102 0)
(-0.000266409 -1.00075 0)
(-0.000299826 -1.00003 0)
(-0.000284618 -0.997103 0)
(0.000272144 -0.996759 0)
(0.00028848 -0.999998 0)
(0.000259482 -1.00082 0)
(0.00017821 -1.00114 0)
(6.65446e-05 -1.00126 0)
(-5.3924e-05 -1.00127 0)
(-0.000166813 -1.00115 0)
(-0.000250418 -1.00083 0)
(-0.000282409 -1.00001 0)
(-0.000269301 -0.99677 0)
(0.000260326 -0.996436 0)
(0.000276435 -0.999976 0)
(0.000249717 -1.0009 0)
(0.000172456 -1.00126 0)
(6.67049e-05 -1.0014 0)
(-4.7494e-05 -1.00141 0)
(-0.000155104 -1.00127 0)
(-0.000235912 -1.00091 0)
(-0.000267238 -0.999991 0)
(-0.000255996 -0.996454 0)
(0.000250939 -0.996125 0)
(0.000267676 -0.999955 0)
(0.000243264 -1.00097 0)
(0.000169677 -1.00138 0)
(6.90743e-05 -1.00154 0)
(-3.99074e-05 -1.00154 0)
(-0.000143338 -1.00139 0)
(-0.00022233 -1.00098 0)
(-0.000253793 -0.999977 0)
(-0.000244425 -0.996152 0)
(0.000243911 -0.995822 0)
(0.000262359 -0.999933 0)
(0.000240534 -1.00103 0)
(0.000170503 -1.00148 0)
(7.44666e-05 -1.00167 0)
(-3.02998e-05 -1.00167 0)
(-0.000130695 -1.0015 0)
(-0.000208887 -1.00106 0)
(-0.00024136 -0.999968 0)
(-0.000234176 -0.995864 0)
(0.00023932 -0.995523 0)
(0.000260982 -0.99991 0)
(0.000242474 -1.00109 0)
(0.000176037 -1.00159 0)
(8.41678e-05 -1.00179 0)
(-1.73533e-05 -1.0018 0)
(-0.000115985 -1.00161 0)
(-0.000194614 -1.00114 0)
(-0.000229181 -0.999963 0)
(-0.000224829 -0.995587 0)
(0.000237451 -0.995225 0)
(0.000264301 -0.999883 0)
(0.000250526 -1.00115 0)
(0.000188233 -1.00169 0)
(0.000100279 -1.00191 0)
(9.43967e-07 -1.00192 0)
(-9.75612e-05 -1.00173 0)
(-0.000178398 -1.00121 0)
(-0.000216592 -0.999963 0)
(-0.000216049 -0.995322 0)
(0.000238726 -0.994922 0)
(0.000273166 -0.999849 0)
(0.000265867 -1.0012 0)
(0.000210183 -1.00178 0)
(0.000126032 -1.00202 0)
(2.76421e-05 -1.00205 0)
(-7.3132e-05 -1.00184 0)
(-0.000159025 -1.0013 0)
(-0.00020329 -0.999971 0)
(-0.000207877 -0.995069 0)
(0.000244135 -0.99461 0)
(0.000290519 -0.999805 0)
(0.000293941 -1.00124 0)
(0.000246549 -1.00186 0)
(0.000166751 -1.00214 0)
(6.76184e-05 -1.00217 0)
(-3.93296e-05 -1.00196 0)
(-0.000135365 -1.00139 0)
(-0.000189506 -0.999989 0)
(-0.000201454 -0.994827 0)
(0.000255128 -0.994278 0)
(0.000320351 -0.999743 0)
(0.000339921 -1.00127 0)
(0.000304764 -1.00194 0)
(0.000229349 -1.00225 0)
(0.000128626 -1.0023 0)
(9.20937e-06 -1.0021 0)
(-0.000106905 -1.0015 0)
(-0.000179847 -1.00002 0)
(-0.000201288 -0.994592 0)
(0.000273792 -0.993914 0)
(0.000368421 -0.999653 0)
(0.000412824 -1.00127 0)
(0.000397209 -1.002 0)
(0.000331586 -1.00236 0)
(0.000225018 -1.00245 0)
(8.17958e-05 -1.00227 0)
(-7.75666e-05 -1.00166 0)
(-0.000194984 -1.00009 0)
(-0.00022369 -0.994333 0)
(0.000302957 -0.993499 0)
(0.00044261 -0.999521 0)
(0.000525999 -1.00124 0)
(0.000542306 -1.00204 0)
(0.000498404 -1.00246 0)
(0.000389493 -1.00261 0)
(0.000212776 -1.00248 0)
(-1.80532e-05 -1.00188 0)
(-0.000207963 -1.00018 0)
(-0.000164072 -0.99402 0)
(0.000345969 -0.993009 0)
(0.000552347 -0.999324 0)
(0.000695645 -1.00115 0)
(0.000765267 -1.00204 0)
(0.000759272 -1.00254 0)
(0.000660585 -1.00279 0)
(0.000424553 -1.00278 0)
(1.55799e-05 -1.00231 0)
(-0.000600637 -1.00088 0)
(-0.000831494 -0.996431 0)
(0.000409039 -0.992397 0)
(0.000710165 -0.999026 0)
(0.000946617 -1.00098 0)
(0.00110909 -1.00196 0)
(0.001194 -1.00257 0)
(0.00119772 -1.00296 0)
(0.00108038 -1.00317 0)
(0.000981175 -1.00292 0)
(0.00188104 -1.00083 0)
(0.00926843 -0.981542 0)
(0.000496738 -0.991625 0)
(0.000923914 -0.998578 0)
(0.00129353 -1.00065 0)
(0.00159235 -1.00173 0)
(0.0018216 -1.00244 0)
(0.00199776 -1.00292 0)
(0.00212541 -1.00313 0)
(0.00208384 -1.00276 0)
(0.00260101 -0.999227 0)
(0.0168148 -0.963538 0)
(0.000608072 -0.990642 0)
(0.00119377 -0.997932 0)
(0.0017342 -1.00013 0)
(0.00220602 -1.0013 0)
(0.00261178 -1.00209 0)
(0.00298442 -1.00262 0)
(0.00338615 -1.00278 0)
(0.00368783 -1.00189 0)
(0.0037719 -0.996465 0)
(0.0208913 -0.948441 0)
(0.000743134 -0.989402 0)
(0.00152051 -0.997041 0)
(0.00226846 -0.999362 0)
(0.00294916 -1.00061 0)
(0.00356715 -1.00147 0)
(0.00416489 -1.00202 0)
(0.00487536 -1.00203 0)
(0.0058135 -1.00036 0)
(0.00602935 -0.99211 0)
(0.0244783 -0.931564 0)
(0.000903217 -0.987853 0)
(0.00190774 -0.995857 0)
(0.00290134 -0.998305 0)
(0.00382762 -0.99964 0)
(0.00469557 -1.00054 0)
(0.00555179 -1.00108 0)
(0.00655806 -1.00083 0)
(0.00809362 -0.998125 0)
(0.00883338 -0.986201 0)
(0.0269366 -0.91247 0)
(0.00109086 -0.985942 0)
(0.00236192 -0.994328 0)
(0.0036422 -0.99691 0)
(0.00485172 -0.998327 0)
(0.00600437 -0.999271 0)
(0.00715063 -0.999739 0)
(0.00845763 -0.999139 0)
(0.0105216 -0.995199 0)
(0.0120593 -0.979107 0)
(0.0290396 -0.894111 0)
(0.00131018 -0.983606 0)
(0.00289294 -0.992398 0)
(0.00450684 -0.995123 0)
(0.00604339 -0.996628 0)
(0.00752066 -0.997608 0)
(0.00899419 -0.997985 0)
(0.0106251 -0.996958 0)
(0.0131491 -0.991628 0)
(0.0156505 -0.971116 0)
(0.0305574 -0.877168 0)
(0.0015664 -0.980774 0)
(0.00351457 -0.990003 0)
(0.00551968 -0.992882 0)
(0.00743862 -0.994482 0)
(0.00929413 -0.9955 0)
(0.0111501 -0.995772 0)
(0.0131645 -0.994263 0)
(0.016124 -0.987458 0)
(0.0196239 -0.962576 0)
(0.032759 -0.862023 0)
(0.00186901 -0.977353 0)
(0.00425335 -0.987049 0)
(0.00670905 -0.990103 0)
(0.00908164 -0.991812 0)
(0.0113851 -0.992871 0)
(0.0136976 -0.993019 0)
(0.0161918 -0.99097 0)
(0.0196311 -0.982599 0)
(0.0240182 -0.953525 0)
(0.0365297 -0.848163 0)
(0.00222761 -0.97324 0)
(0.00512109 -0.983498 0)
(0.0081107 -0.986699 0)
(0.0110187 -0.988521 0)
(0.0138484 -0.98962 0)
(0.0166926 -0.989624 0)
(0.0197464 -0.986976 0)
(0.0237113 -0.976948 0)
(0.0288134 -0.943934 0)
(0.0407588 -0.83594 0)
(0.00264343 -0.968316 0)
(0.0061311 -0.979138 0)
(0.00976594 -0.982554 0)
(0.013296 -0.984501 0)
(0.016739 -0.985641 0)
(0.0201918 -0.985489 0)
(0.0238648 -0.982218 0)
(0.0283688 -0.970535 0)
(0.0342084 -0.934028 0)
(0.0451167 -0.825629 0)
(0.0031288 -0.962447 0)
(0.00731708 -0.973885 0)
(0.0117067 -0.977543 0)
(0.0159644 -0.979628 0)
(0.0201234 -0.980821 0)
(0.0242774 -0.980521 0)
(0.0286396 -0.976644 0)
(0.0337332 -0.963403 0)
(0.0403023 -0.9239 0)
(0.0499124 -0.817247 0)
(0.00369541 -0.955466 0)
(0.00870596 -0.967589 0)
(0.0139745 -0.971514 0)
(0.019085 -0.97376 0)
(0.0240815 -0.975026 0)
(0.0290502 -0.974603 0)
(0.0341897 -0.970171 0)
(0.0399607 -0.95552 0)
(0.0470342 -0.913988 0)
(0.0554399 -0.810604 0)
(0.00435391 -0.947183 0)
(0.0103257 -0.960071 0)
(0.0166183 -0.964295 0)
(0.0227269 -0.966728 0)
(0.0287022 -0.968095 0)
(0.0346206 -0.967592 0)
(0.0406533 -0.962699 0)
(0.0471672 -0.946957 0)
(0.0546181 -0.904385 0)
(0.062005 -0.80544 0)
(0.00511491 -0.937387 0)
(0.0122047 -0.951128 0)
(0.0196882 -0.955688 0)
(0.0269601 -0.958336 0)
(0.0340778 -0.959838 0)
(0.0411044 -0.959313 0)
(0.048173 -0.9541 0)
(0.0555305 -0.937671 0)
(0.0633491 -0.895045 0)
(0.0699601 -0.801476 0)
(0.00598721 -0.925843 0)
(0.0143684 -0.940533 0)
(0.0232301 -0.94547 0)
(0.031851 -0.948359 0)
(0.0402972 -0.950032 0)
(0.0486161 -0.949559 0)
(0.0568944 -0.944202 0)
(0.0652456 -0.927539 0)
(0.0735364 -0.885812 0)
(0.0796765 -0.798383 0)
(0.00697957 -0.912299 0)
(0.0168378 -0.928038 0)
(0.0272827 -0.933394 0)
(0.0374559 -0.936551 0)
(0.047436 -0.938429 0)
(0.0572553 -0.938085 0)
(0.0669482 -0.932778 0)
(0.0764928 -0.916349 0)
(0.0854613 -0.876397 0)
(0.0915091 -0.795732 0)
(0.00807416 -0.896431 0)
(0.0196091 -0.913345 0)
(0.031871 -0.919182 0)
(0.043814 -0.922633 0)
(0.0555464 -0.924746 0)
(0.067091 -0.924604 0)
(0.0784292 -0.919541 0)
(0.0894103 -0.903795 0)
(0.0993495 -0.866386 0)
(0.105763 -0.79298 0)
(0.00927866 -0.878643 0)
(0.0226545 -0.896558 0)
(0.0369068 -0.902916 0)
(0.0507867 -0.906677 0)
(0.0644475 -0.909041 0)
(0.0779052 -0.909157 0)
(0.0910923 -0.904502 0)
(0.103747 -0.889806 0)
(0.114984 -0.85549 0)
(0.122266 -0.789544 0)
(0.0106307 -0.858262 0)
(0.025991 -0.877573 0)
(0.0423653 -0.884479 0)
(0.0583301 -0.888558 0)
(0.0740752 -0.89118 0)
(0.089615 -0.89159 0)
(0.104842 -0.887464 0)
(0.119406 -0.874085 0)
(0.132286 -0.843219 0)
(0.140957 -0.784769 0)
(0.0121127 -0.835041 0)
(0.0296273 -0.855886 0)
(0.048305 -0.863373 0)
(0.0665338 -0.867779 0)
(0.0845386 -0.870656 0)
(0.102345 -0.87138 0)
(0.119818 -0.867866 0)
(0.136549 -0.855996 0)
(0.151443 -0.828817 0)
(0.162051 -0.777876 0)
(0.0137035 -0.808675 0)
(0.0335302 -0.831268 0)
(0.0546775 -0.839389 0)
(0.0753262 -0.844135 0)
(0.0957357 -0.847263 0)
(0.115958 -0.8483 0)
(0.135848 -0.845436 0)
(0.15497 -0.835164 0)
(0.172218 -0.811728 0)
(0.18528 -0.768114 0)
(0.0153944 -0.778907 0)
(0.0376785 -0.803504 0)
(0.0614331 -0.81234 0)
(0.0846213 -0.817455 0)
(0.107539 -0.820833 0)
(0.130279 -0.822172 0)
(0.152703 -0.819955 0)
(0.17438 -0.811269 0)
(0.194256 -0.791452 0)
(0.210208 -0.754777 0)
(0.0171792 -0.745533 0)
(0.0420511 -0.772428 0)
(0.0685171 -0.782093 0)
(0.094324 -0.787628 0)
(0.119802 -0.791269 0)
(0.145101 -0.792898 0)
(0.170107 -0.791289 0)
(0.194424 -0.78409 0)
(0.217096 -0.767616 0)
(0.236242 -0.737287 0)
(0.0190539 -0.708368 0)
(0.0466279 -0.737914 0)
(0.0758751 -0.748564 0)
(0.104336 -0.754607 0)
(0.132371 -0.758552 0)
(0.160203 -0.760468 0)
(0.187758 -0.75941 0)
(0.214701 -0.753539 0)
(0.240211 -0.740014 0)
(0.262682 -0.715271 0)
(0.021019 -0.667233 0)
(0.0513975 -0.699864 0)
(0.0834619 -0.711723 0)
(0.114568 -0.71841 0)
(0.145098 -0.722738 0)
(0.175367 -0.724962 0)
(0.205355 -0.724405 0)
(0.234806 -0.719672 0)
(0.263054 -0.708637 0)
(0.28879 -0.688615 0)
(0.0230814 -0.621946 0)
(0.0563635 -0.658201 0)
(0.0912506 -0.671585 0)
(0.124945 -0.679119 0)
(0.157851 -0.683964 0)
(0.190392 -0.686559 0)
(0.222617 -0.686472 0)
(0.254359 -0.682694 0)
(0.285117 -0.673685 0)
(0.313869 -0.657493 0)
(0.0252575 -0.572308 0)
(0.0615493 -0.612868 0)
(0.0992368 -0.628216 0)
(0.135417 -0.636885 0)
(0.170518 -0.642442 0)
(0.205101 -0.645521 0)
(0.239298 -0.645916 0)
(0.273034 -0.642944 0)
(0.305965 -0.635539 0)
(0.337339 -0.622342 0)
(0.0275736 -0.518087 0)
(0.0669997 -0.563821 0)
(0.107437 -0.581736 0)
(0.145945 -0.591931 0)
(0.182997 -0.598464 0)
(0.219334 -0.60219 0)
(0.255184 -0.603121 0)
(0.290561 -0.600857 0)
(0.325265 -0.59471 0)
(0.358772 -0.583793 0)
(0.03007 -0.458996 0)
(0.0727754 -0.511025 0)
(0.115872 -0.532331 0)
(0.156479 -0.54456 0)
(0.195173 -0.552392 0)
(0.232921 -0.556968 0)
(0.270067 -0.558526 0)
(0.306708 -0.55692 0)
(0.342764 -0.551775 0)
(0.377894 -0.542568 0)
(0.032779 -0.394689 0)
(0.0789347 -0.4545 0)
(0.124522 -0.480271 0)
(0.166902 -0.495157 0)
(0.206851 -0.504657 0)
(0.245623 -0.510301 0)
(0.283693 -0.512589 0)
(0.321229 -0.511625 0)
(0.358241 -0.507298 0)
(0.394526 -0.49938 0)
(0.035857 -0.324723 0)
(0.0854369 -0.394331 0)
(0.133171 -0.426007 0)
(0.176912 -0.444263 0)
(0.21768 -0.455781 0)
(0.25706 -0.462669 0)
(0.295688 -0.465759 0)
(0.333789 -0.465415 0)
(0.371432 -0.461771 0)
(0.408501 -0.454838 0)
(0.0392381 -0.249244 0)
(0.092156 -0.331046 0)
(0.141232 -0.369717 0)
(0.185746 -0.39225 0)
(0.22691 -0.406248 0)
(0.266541 -0.41453 0)
(0.305435 -0.418433 0)
(0.343863 -0.418648 0)
(0.381922 -0.415559 0)
(0.41954 -0.409386 0)
(0.0397679 -0.165505 0)
(0.0965379 -0.267842 0)
(0.147465 -0.313722 0)
(0.192487 -0.340143 0)
(0.233522 -0.356553 0)
(0.273017 -0.366211 0)
(0.311965 -0.370853 0)
(0.350612 -0.37152 0)
(0.389025 -0.368847 0)
(0.427136 -0.363243 0)
(0.0327437 -0.0778478 0)
(0.090719 -0.192502 0)
(0.145955 -0.254499 0)
(0.19362 -0.288134 0)
(0.235308 -0.307337 0)
(0.274791 -0.318096 0)
(0.313818 -0.323183 0)
(0.352766 -0.324068 0)
(0.391671 -0.321618 0)
(0.43043 -0.316402 0)
(0.0199571 -0.0144812 0)
(0.0707637 -0.113634 0)
(0.128714 -0.188086 0)
(0.181424 -0.232476 0)
(0.226708 -0.256933 0)
(0.268111 -0.26959 0)
(0.308297 -0.275099 0)
(0.348231 -0.27594 0)
(0.388151 -0.273455 0)
(0.428004 -0.268426 0)
(0.00797219 0.024063 0)
(0.0447177 -0.0438461 0)
(0.0963648 -0.117476 0)
(0.15039 -0.169788 0)
(0.200268 -0.201167 0)
(0.246254 -0.217776 0)
(0.290095 -0.224914 0)
(0.332921 -0.226186 0)
(0.375263 -0.223774 0)
(0.417273 -0.218918 0)
(-0.00557812 0.0424742 0)
(0.0203832 0.00304217 0)
(0.0571882 -0.0551737 0)
(0.102914 -0.104928 0)
(0.152319 -0.138725 0)
(0.202332 -0.158769 0)
(0.251587 -0.168614 0)
(0.299722 -0.1716 0)
(0.346791 -0.170181 0)
(0.392951 -0.166034 0)
(-0.0209436 0.042872 0)
(-0.00943266 0.0205637 0)
(0.0138606 -0.0136411 0)
(0.0460931 -0.0495839 0)
(0.088037 -0.077345 0)
(0.137286 -0.0950641 0)
(0.190614 -0.104415 0)
(0.244758 -0.108211 0)
(0.298107 -0.107892 0)
(0.350356 -0.104704 0)
(-0.0258485 0.0120517 0)
(-0.0442956 0.00100241 0)
(-0.0496189 -0.0151704 0)
(-0.0248602 -0.0293587 0)
(0.00844138 -0.040754 0)
(0.0534151 -0.0464971 0)
(0.105614 -0.0500067 0)
(0.166643 -0.0527156 0)
(0.229078 -0.0533658 0)
(0.289078 -0.051803 0)
(-0.0402521 -0.156229 0)
(-0.11954 0.012112 0)
(-0.105227 0.0175758 0)
(-0.0905033 0.0193213 0)
(-0.0739368 0.0215158 0)
(-0.0548768 0.0229147 0)
(-0.0344728 0.023415 0)
(-0.0153059 0.0236029 0)
(0.00383598 0.0234061 0)
(0.022538 0.0219332 0)
(0.03997 0.0205391 0)
(0.057813 0.0188612 0)
(0.0724632 0.0162886 0)
(0.0844814 0.013281 0)
(0.0938257 0.0101168 0)
(0.100153 0.00702657 0)
(0.103273 0.0040704 0)
(0.102884 0.000477005 0)
(0.0987588 -0.00348186 0)
(0.0905537 -0.00759252 0)
(0.0780914 -0.0116841 0)
(0.0614612 -0.0153737 0)
(0.0410496 -0.0170947 0)
(0.0186292 -0.0144983 0)
(0.00404531 -0.00752134 0)
(-0.0235689 -0.230626 0)
(-0.0725369 -0.0113882 0)
(-0.0793376 0.0187199 0)
(-0.0756047 0.027565 0)
(-0.0661237 0.0331759 0)
(-0.053255 0.0369745 0)
(-0.0382935 0.0390716 0)
(-0.0220161 0.0398032 0)
(-0.00517149 0.0392555 0)
(0.0112849 0.0373923 0)
(0.0265796 0.0345659 0)
(0.0403956 0.0308089 0)
(0.0524358 0.0260383 0)
(0.0625784 0.0206723 0)
(0.070623 0.0149549 0)
(0.0763636 0.00893872 0)
(0.0796444 0.00257948 0)
(0.080543 -0.00414182 0)
(0.0791244 -0.0112289 0)
(0.0752739 -0.0186991 0)
(0.0688293 -0.0263945 0)
(0.0595124 -0.0337115 0)
(0.0472372 -0.0387671 0)
(0.0298061 -0.0378914 0)
(0.0119972 -0.0277157 0)
(-0.00347091 -0.306408 0)
(-0.0527542 -0.0444943 0)
(-0.0665781 0.0134812 0)
(-0.0679064 0.033486 0)
(-0.0624928 0.0450003 0)
(-0.0529504 0.0523752 0)
(-0.0408804 0.0566549 0)
(-0.0272839 0.0583954 0)
(-0.0130013 0.0580067 0)
(0.0012059 0.0557554 0)
(0.0146927 0.0518731 0)
(0.0269786 0.0465214 0)
(0.0377447 0.0398852 0)
(0.0467784 0.032285 0)
(0.0538974 0.0240091 0)
(0.0589707 0.0152497 0)
(0.0619411 0.00610103 0)
(0.0628428 -0.00346068 0)
(0.0617725 -0.0135148 0)
(0.058818 -0.0240947 0)
(0.054045 -0.0351093 0)
(0.0473952 -0.0460797 0)
(0.0387115 -0.0554312 0)
(0.0270474 -0.0591301 0)
(0.0139099 -0.0514566 0)
(0.00729167 -0.379639 0)
(-0.0449879 -0.0840577 0)
(-0.0632953 0.00258195 0)
(-0.0674211 0.035878 0)
(-0.0641772 0.0542959 0)
(-0.0564325 0.0659287 0)
(-0.0460599 0.0729124 0)
(-0.0341153 0.0761521 0)
(-0.021401 0.0762292 0)
(-0.00858119 0.0735675 0)
(0.00376904 0.0685253 0)
(0.0151542 0.0614388 0)
(0.0251847 0.0526692 0)
(0.0335753 0.0426369 0)
(0.0401387 0.0317399 0)
(0.0447892 0.0202879 0)
(0.0475361 0.00847637 0)
(0.0484659 -0.00361462 0)
(0.0477036 -0.0160068 0)
(0.0453833 -0.0287699 0)
(0.0416275 -0.0419196 0)
(0.0364786 -0.0552187 0)
(0.0297771 -0.0676181 0)
(0.0212892 -0.075942 0)
(0.0129154 -0.0774359 0)
(0.0165266 -0.440135 0)
(-0.0363551 -0.133602 0)
(-0.060541 -0.0157586 0)
(-0.0682826 0.0341972 0)
(-0.0678251 0.0611218 0)
(-0.0616973 0.0774468 0)
(-0.052808 0.0872301 0)
(-0.0422153 0.0920747 0)
(-0.0307022 0.0928204 0)
(-0.0188848 0.0900149 0)
(-0.00731159 0.0841021 0)
(0.00351396 0.0755242 0)
(0.0131459 0.0647847 0)
(0.0212366 0.0524488 0)
(0.0275699 0.0390754 0)
(0.032077 0.025129 0)
(0.0348148 0.0109225 0)
(0.0359232 -0.00339523 0)
(0.0355672 -0.0178189 0)
(0.0339108 -0.0324166 0)
(0.0311019 -0.0472402 0)
(0.0272202 -0.062167 0)
(0.0221468 -0.0765082 0)
(0.0155269 -0.0882011 0)
(0.0103036 -0.094851 0)
(0.0250399 -0.487775 0)
(-0.0250407 -0.186599 0)
(-0.0526844 -0.0418074 0)
(-0.066385 0.0269118 0)
(-0.0695132 0.0643332 0)
(-0.0661307 0.0863266 0)
(-0.0592846 0.0993859 0)
(-0.0504287 0.106108 0)
(-0.0403122 0.107834 0)
(-0.0295615 0.105245 0)
(-0.0187211 0.0988272 0)
(-0.00832657 0.0890714 0)
(0.00111358 0.0765761 0)
(0.00916879 0.0620715 0)
(0.0155571 0.0463295 0)
(0.0201865 0.0300229 0)
(0.0231361 0.0136156 0)
(0.0245899 -0.0026685 0)
(0.0247546 -0.0188126 0)
(0.0238227 -0.0349143 0)
(0.0219609 -0.0510795 0)
(0.0192697 -0.0672742 0)
(0.0157067 -0.0830395 0)
(0.0107202 -0.0971005 0)
(0.00760948 -0.107094 0)
(0.0304067 -0.524512 0)
(-0.0118137 -0.237384 0)
(-0.0414074 -0.0747714 0)
(-0.0601137 0.0130029 0)
(-0.0676063 0.0622596 0)
(-0.0681551 0.0913687 0)
(-0.0643622 0.108487 0)
(-0.0579096 0.117695 0)
(-0.0496638 0.120957 0)
(-0.040305 0.119129 0)
(-0.030378 0.11273 0)
(-0.020447 0.102243 0)
(-0.0111033 0.088324 0)
(-0.002886 0.0718579 0)
(0.0038141 0.0538636 0)
(0.00882714 0.0352935 0)
(0.012213 0.0168127 0)
(0.0141834 -0.00125872 0)
(0.0149866 -0.0188959 0)
(0.0148475 -0.03624 0)
(0.013956 -0.0534664 0)
(0.0124341 -0.0706412 0)
(0.0103013 -0.0875008 0)
(0.00692314 -0.103265 0)
(0.00547488 -0.115672 0)
(0.0344775 -0.55336 0)
(0.000539112 -0.282582 0)
(-0.0296855 -0.10986 0)
(-0.0511741 -0.0070733 0)
(-0.0631182 0.0541152 0)
(-0.0678816 0.0910084 0)
(-0.0678672 0.113271 0)
(-0.0643166 0.126013 0)
(-0.0584737 0.131573 0)
(-0.0509538 0.131231 0)
(-0.0422668 0.125578 0)
(-0.032959 0.11502 0)
(-0.0236937 0.100189 0)
(-0.0151507 0.0820966 0)
(-0.00788588 0.0620296 0)
(-0.00221024 0.04127 0)
(0.00185449 0.020776 0)
(0.00451951 0.00102181 0)
(0.0060749 -0.0179505 0)
(0.00678977 -0.0363398 0)
(0.00688516 -0.0544019 0)
(0.00650677 -0.0723048 0)
(0.00571025 -0.0899606 0)
(0.00386075 -0.106936 0)
(0.00383625 -0.121117 0)
(0.0382465 -0.576122 0)
(0.0106828 -0.32267 0)
(-0.0184994 -0.145615 0)
(-0.0415224 -0.0317222 0)
(-0.0569766 0.0401385 0)
(-0.0658199 0.0851392 0)
(-0.069517 0.113378 0)
(-0.0695514 0.130304 0)
(-0.0666492 0.138958 0)
(-0.0614682 0.140954 0)
(-0.054465 0.136957 0)
(-0.0460705 0.127239 0)
(-0.0369582 0.112265 0)
(-0.0279565 0.0930768 0)
(-0.0198425 0.0712075 0)
(-0.0131714 0.0483314 0)
(-0.00813686 0.0258076 0)
(-0.00457677 0.0043672 0)
(-0.00215477 -0.0158729 0)
(-0.000535159 -0.0351759 0)
(0.00055229 -0.0539028 0)
(0.0012798 -0.0723354 0)
(0.00172074 -0.0905468 0)
(0.00129291 -0.10838 0)
(0.0024527 -0.123954 0)
(0.0419831 -0.594418 0)
(0.0192241 -0.358203 0)
(-0.00821012 -0.180778 0)
(-0.0320637 -0.0592126 0)
(-0.0502363 0.0215818 0)
(-0.0626452 0.0743285 0)
(-0.0701872 0.10839 0)
(-0.0738546 0.129952 0)
(-0.0742954 0.142463 0)
(-0.0718785 0.147653 0)
(-0.0670562 0.146312 0)
(-0.0600389 0.138566 0)
(-0.0513017 0.124533 0)
(-0.0417953 0.105075 0)
(-0.0325413 0.0818562 0)
(-0.0244472 0.0569602 0)
(-0.0180396 0.0322877 0)
(-0.0133107 0.00901772 0)
(-0.00987803 -0.0125442 0)
(-0.00729826 -0.0327193 0)
(-0.00521718 -0.0520058 0)
(-0.00342093 -0.0708276 0)
(-0.00183324 -0.0894286 0)
(-0.000940839 -0.107883 0)
(0.00113753 -0.124564 0)
(0.045759 -0.609424 0)
(0.0266535 -0.389787 0)
(0.00109246 -0.214869 0)
(-0.0231256 -0.088609 0)
(-0.0433541 -0.000928488 0)
(-0.0588876 0.058578 0)
(-0.0700472 0.0984092 0)
(-0.0774118 0.12479 0)
(-0.0814462 0.141622 0)
(-0.0823014 0.150685 0)
(-0.0799561 0.152996 0)
(-0.0749887 0.148449 0)
(-0.0671299 0.136751 0)
(-0.0572983 0.118259 0)
(-0.0467152 0.0944877 0)
(-0.0366976 0.0678042 0)
(-0.0283288 0.0407646 0)
(-0.0219906 0.0153139 0)
(-0.017311 -0.00779407 0)
(-0.0136733 -0.0289035 0)
(-0.0105765 -0.0487142 0)
(-0.00772951 -0.0678451 0)
(-0.00505519 -0.0867442 0)
(-0.00294082 -0.105738 0)
(-5.44361e-05 -0.123164 0)
(0.050043 -0.622161 0)
(0.0334563 -0.418215 0)
(0.00957182 -0.2478 0)
(-0.0147443 -0.11925 0)
(-0.0365292 -0.0265547 0)
(-0.0547136 0.038554 0)
(-0.0691518 0.0835969 0)
(-0.0800817 0.114646 0)
(-0.0877821 0.135904 0)
(-0.092321 0.149626 0)
(-0.0932758 0.156003 0)
(-0.0906163 0.156106 0)
(-0.0845602 0.148288 0)
(-0.0750547 0.132442 0)
(-0.0633139 0.109483 0)
(-0.0509842 0.0816474 0)
(-0.0398615 0.0520217 0)
(-0.0311314 0.0237607 0)
(-0.0247305 -0.00137733 0)
(-0.0198234 -0.0236295 0)
(-0.0156341 -0.0439968 0)
(-0.0117301 -0.0634065 0)
(-0.00801389 -0.0825855 0)
(-0.00476634 -0.102117 0)
(-0.00121313 -0.119896 0)
(0.0550267 -0.63353 0)
(0.040131 -0.44428 0)
(0.017602 -0.279694 0)
(-0.00667576 -0.150755 0)
(-0.0296639 -0.0546973 0)
(-0.0500431 0.0148441 0)
(-0.0673177 0.0644185 0)
(-0.0814894 0.0997633 0)
(-0.0926723 0.125212 0)
(-0.100834 0.143375 0)
(-0.105724 0.155183 0)
(-0.106374 0.160049 0)
(-0.102946 0.157932 0)
(-0.0951112 0.146722 0)
(-0.0831471 0.126695 0)
(-0.0687062 0.0993014 0)
(-0.0540199 0.0674746 0)
(-0.0414418 0.0355166 0)
(-0.0322351 0.00732092 0)
(-0.0255983 -0.0166784 0)
(-0.0201904 -0.0378719 0)
(-0.0152745 -0.0576016 0)
(-0.0106289 -0.0770614 0)
(-0.00639537 -0.0971372 0)
(-0.00207904 -0.114917 0)
(0.0609981 -0.644145 0)
(0.0472431 -0.468642 0)
(0.0257483 -0.310743 0)
(0.00155392 -0.182887 0)
(-0.0223729 -0.0848413 0)
(-0.0445078 -0.0119472 0)
(-0.0641615 0.0414268 0)
(-0.0811667 0.0805941 0)
(-0.095512 0.109879 0)
(-0.107134 0.132165 0)
(-0.115718 0.148787 0)
(-0.120707 0.159597 0)
(-0.121039 0.163358 0)
(-0.116397 0.159202 0)
(-0.106184 0.144833 0)
(-0.0910494 0.12079 0)
(-0.0729455 0.0888738 0)
(-0.0548678 0.0528519 0)
(-0.0406553 0.0196875 0)
(-0.0311642 -0.00736793 0)
(-0.0241606 -0.0301087 0)
(-0.0182378 -0.0505169 0)
(-0.0127822 -0.0703521 0)
(-0.00773038 -0.0909657 0)
(-0.00281883 -0.1085 0)
(0.0684228 -0.654385 0)
(0.0554386 -0.491814 0)
(0.0347227 -0.341144 0)
(0.0106188 -0.215498 0)
(-0.0140191 -0.116578 0)
(-0.0375366 -0.0412279 0)
(-0.0591388 0.0152369 0)
(-0.078512 0.0576767 0)
(-0.0956023 0.090303 0)
(-0.110374 0.116184 0)
(-0.12259 0.137031 0)
(-0.131699 0.153155 0)
(-0.136857 0.163492 0)
(-0.136829 0.166616 0)
(-0.130712 0.160986 0)
(-0.117793 0.143935 0)
(-0.0989051 0.116115 0)
(-0.075785 0.0789582 0)
(-0.0534685 0.0388275 0)
(-0.0379465 0.00546633 0)
(-0.0280615 -0.0202881 0)
(-0.0207338 -0.0420774 0)
(-0.0144373 -0.0626018 0)
(-0.00867489 -0.0837541 0)
(-0.00335026 -0.101015 0)
(0.0777921 -0.664417 0)
(0.0653892 -0.514134 0)
(0.0452969 -0.37104 0)
(0.0213028 -0.24845 0)
(-0.00384012 -0.149533 0)
(-0.0284209 -0.0724858 0)
(-0.051532 -0.0135436 0)
(-0.0727776 0.0316419 0)
(-0.0921007 0.0670776 0)
(-0.109502 0.0958967 0)
(-0.124891 0.120125 0)
(-0.137905 0.14055 0)
(-0.147775 0.156739 0)
(-0.153383 0.167168 0)
(-0.153228 0.170284 0)
(-0.145909 0.164039 0)
(-0.130717 0.145257 0)
(-0.107354 0.113874 0)
(-0.0778803 0.0704858 0)
(-0.0509748 0.0264728 0)
(-0.0337461 -0.00694451 0)
(-0.0232376 -0.0318387 0)
(-0.0155661 -0.0536989 0)
(-0.00904983 -0.0756987 0)
(-0.00358039 -0.0930784 0)
(0.0895783 -0.674183 0)
(0.0777552 -0.535728 0)
(0.0582604 -0.400473 0)
(0.034455 -0.281587 0)
(0.00900661 -0.183378 0)
(-0.0163388 -0.105239 0)
(-0.0405682 -0.0442871 0)
(-0.0632256 0.00320551 0)
(-0.0842292 0.0409786 0)
(-0.103637 0.0721301 0)
(-0.121494 0.0988843 0)
(-0.137677 0.122428 0)
(-0.151702 0.142889 0)
(-0.162691 0.159472 0)
(-0.169345 0.17062 0)
(-0.169911 0.174368 0)
(-0.16253 0.168553 0)
(-0.146153 0.14981 0)
(-0.118229 0.114631 0)
(-0.0818779 0.0654518 0)
(-0.0485745 0.0166766 0)
(-0.0282199 -0.0180754 0)
(-0.0162614 -0.0428095 0)
(-0.00794631 -0.0654572 0)
(-0.00300208 -0.0856885 0)
(0.104204 -0.683403 0)
(0.0931433 -0.556503 0)
(0.0743664 -0.429348 0)
(0.050905 -0.31471 0)
(0.0253589 -0.2178 0)
(-0.000473321 -0.139053 0)
(-0.0254905 -0.0764759 0)
(-0.0491502 -0.0269791 0)
(-0.0713366 0.0127941 0)
(-0.0921447 0.0458196 0)
(-0.111729 0.074394 0)
(-0.130178 0.0999819 0)
(-0.14732 0.123148 0)
(-0.162667 0.143674 0)
(-0.175342 0.160685 0)
(-0.183759 0.172743 0)
(-0.186818 0.177416 0)
(-0.18144 0.173678 0)
(-0.1652 0.156249 0)
(-0.135131 0.119662 0)
(-0.0924564 0.0673104 0)
(-0.0497201 0.0112528 0)
(-0.020064 -0.0311231 0)
(-0.00425117 -0.0578057 0)
(-0.0011601 -0.0831229 0)
(0.121586 -0.691432 0)
(0.111628 -0.575752 0)
(0.093839 -0.456846 0)
(0.0709749 -0.346884 0)
(0.0455921 -0.251766 0)
(0.0195596 -0.172861 0)
(-0.00593388 -0.108994 0)
(-0.0302526 -0.0577364 0)
(-0.053212 -0.0162009 0)
(-0.0749041 0.0183802 0)
(-0.09556 0.0482797 0)
(-0.115412 0.0751041 0)
(-0.134537 0.0997135 0)
(-0.152784 0.122299 0)
(-0.169728 0.142509 0)
(-0.184587 0.159526 0)
(-0.196066 0.172163 0)
(-0.202179 0.178403 0)
(-0.202209 0.176954 0)
(-0.190345 0.161611 0)
(-0.162206 0.129599 0)
(-0.119519 0.0829946 0)
(-0.0659364 0.0308292 0)
(-0.014924 -0.015615 0)
(0.0193854 -0.0531936 0)
(0.141722 -0.697696 0)
(0.133337 -0.593023 0)
(0.116942 -0.482579 0)
(0.0950277 -0.377748 0)
(0.0701184 -0.284905 0)
(0.0441611 -0.206261 0)
(0.0184509 -0.141416 0)
(-0.00627336 -0.0885967 0)
(-0.0297326 -0.0454151 0)
(-0.0519584 -0.00942228 0)
(-0.0731955 0.021549 0)
(-0.0937789 0.0491521 0)
(-0.11395 0.0744179 0)
(-0.1338 0.0977885 0)
(-0.153246 0.119224 0)
(-0.172022 0.138319 0)
(-0.189617 0.154355 0)
(-0.205158 0.166267 0)
(-0.217304 0.172618 0)
(-0.223599 0.173071 0)
(-0.222662 0.15785 0)
(-0.209296 0.131124 0)
(-0.184364 0.0966263 0)
(-0.144974 0.0585047 0)
(-0.10802 0.0112559 0)
(0.164898 -0.701634 0)
(0.158703 -0.608039 0)
(0.144283 -0.506516 0)
(0.123836 -0.407453 0)
(0.0998292 -0.317487 0)
(0.0742941 -0.239575 0)
(0.048653 -0.174094 0)
(0.0237632 -0.119903 0)
(1.59645e-05 -0.0751427 0)
(-0.0225219 -0.0377337 0)
(-0.0440435 -0.00572848 0)
(-0.0649022 0.0224871 0)
(-0.0854415 0.0480404 0)
(-0.10589 0.0715339 0)
(-0.126359 0.0930894 0)
(-0.146873 0.11244 0)
(-0.16742 0.129058 0)
(-0.187942 0.142239 0)
(-0.208265 0.150951 0)
(-0.227821 0.153351 0)
(-0.24575 0.146344 0)
(-0.258923 0.125505 0)
(-0.266129 0.0880206 0)
(-0.272679 0.0346254 0)
(-0.276287 -0.027542 0)
(0.190854 -0.7024 0)
(0.187551 -0.619931 0)
(0.175836 -0.527844 0)
(0.157542 -0.435297 0)
(0.135025 -0.348946 0)
(0.110383 -0.272361 0)
(0.0851755 -0.20666 0)
(0.0604034 -0.15137 0)
(0.0365939 -0.105146 0)
(0.0139171 -0.0663046 0)
(-0.00771581 -0.0331819 0)
(-0.028586 -0.00428834 0)
(-0.0490472 0.0215246 0)
(-0.0693858 0.0449891 0)
(-0.0897522 0.0663563 0)
(-0.110203 0.0853925 0)
(-0.130808 0.1015 0)
(-0.1517 0.11395 0)
(-0.173041 0.122001 0)
(-0.195017 0.124782 0)
(-0.217654 0.120907 0)
(-0.239252 0.108975 0)
(-0.255866 0.0858292 0)
(-0.265731 0.0504955 0)
(-0.26694 0.00508216 0)
(0.219098 -0.699115 0)
(0.219411 -0.627699 0)
(0.211233 -0.545538 0)
(0.195946 -0.460342 0)
(0.175691 -0.378494 0)
(0.152585 -0.303998 0)
(0.128317 -0.238646 0)
(0.104052 -0.182627 0)
(0.0804744 -0.13515 0)
(0.0578796 -0.094947 0)
(0.0362839 -0.0606304 0)
(0.0155146 -0.0308961 0)
(-0.00469222 -0.00463105 0)
(-0.0246062 0.0190009 0)
(-0.0443551 0.0404179 0)
(-0.0639042 0.0594808 0)
(-0.0831858 0.0755663 0)
(-0.102213 0.0879428 0)
(-0.120924 0.0957611 0)
(-0.139381 0.0979635 0)
(-0.157279 0.0937361 0)
(-0.173776 0.0829746 0)
(-0.18658 0.0656122 0)
(-0.192971 0.0431134 0)
(-0.190385 0.0165273 0)
(0.248911 -0.690976 0)
(0.253487 -0.630312 0)
(0.249703 -0.558424 0)
(0.238397 -0.481419 0)
(0.22137 -0.40509 0)
(0.200655 -0.333628 0)
(0.178028 -0.269379 0)
(0.154821 -0.213165 0)
(0.131896 -0.164766 0)
(0.109708 -0.123365 0)
(0.0884011 -0.0878917 0)
(0.0679023 -0.0572298 0)
(0.0480139 -0.0303343 0)
(0.0285426 -0.00630575 0)
(0.0094676 0.0154887 0)
(-0.00922251 0.035138 0)
(-0.0273828 0.0519357 0)
(-0.0450218 0.0650418 0)
(-0.0620356 0.0735927 0)
(-0.0778964 0.0770288 0)
(-0.0920006 0.075351 0)
(-0.103563 0.0686144 0)