/*--------------------------------*- C++ -*----------------------------------*\
| =========                 |                                                 |
| \\      /  F ield         | OpenFOAM: The Open Source CFD Toolbox           |
|  \\    /   O peration     | Version:  v2012                                 |
|   \\  /    A nd           | Website:  www.openfoam.com                      |
|    \\/     M anipulation  |                                                 |
\*---------------------------------------------------------------------------*/
FoamFile
{
    version     2.0;
    format      ascii;
    class       volScalarField;
    location    "618";
    object      age;
}
// * * * * * * * * * * * * * * * * * * * * * * * * * * * * * * * * * * * * * //

dimensions      [0 0 1 0 0 0 0];


internalField   nonuniform List<scalar> 
6057
(
0.490769
0.465475
0.44019
0.414916
0.389653
0.364402
0.339163
0.313938
0.288726
0.263529
0.238347
0.21318
0.18803
0.162897
0.137782
0.112686
0.0876097
0.0625538
0.0375187
0.0125035
0.487443
0.462447
0.437449
0.412449
0.387449
0.362448
0.337447
0.312446
0.287446
0.262446
0.237448
0.21245
0.187453
0.162458
0.137464
0.11247
0.0874781
0.0624863
0.0374939
0.0124991
0.486633
0.461717
0.436796
0.411869
0.386938
0.362004
0.337065
0.312123
0.287177
0.262227
0.237274
0.212317
0.187356
0.162391
0.137422
0.112448
0.087469
0.0624848
0.037495
0.0124995
0.486339
0.461454
0.436563
0.411665
0.386762
0.361853
0.336938
0.312018
0.287093
0.262162
0.237225
0.212283
0.187334
0.162379
0.137417
0.112447
0.0874708
0.062487
0.0374962
0.0124997
0.486235
0.461362
0.436481
0.411594
0.3867
0.361801
0.336895
0.311984
0.287066
0.262142
0.237212
0.212274
0.18733
0.162377
0.137417
0.112449
0.0874726
0.0624882
0.0374967
0.0124998
0.486245
0.461369
0.436486
0.411597
0.386703
0.361803
0.336897
0.311985
0.287067
0.262143
0.237212
0.212274
0.18733
0.162377
0.137417
0.112449
0.0874726
0.0624882
0.0374967
0.0124998
0.486368
0.461476
0.436578
0.411676
0.386769
0.361858
0.336941
0.31202
0.287094
0.262163
0.237226
0.212283
0.187334
0.162379
0.137417
0.112447
0.0874709
0.062487
0.0374962
0.0124997
0.486683
0.461752
0.43682
0.411886
0.38695
0.362011
0.33707
0.312126
0.287179
0.262229
0.237275
0.212318
0.187356
0.162391
0.137422
0.112448
0.0874691
0.0624849
0.037495
0.0124995
0.487513
0.462503
0.437484
0.412473
0.387464
0.362458
0.337453
0.31245
0.287449
0.262448
0.237449
0.212451
0.187454
0.162458
0.137464
0.112471
0.0874782
0.0624863
0.0374939
0.0124991
0.486833
0.466498
0.44001
0.414998
0.389659
0.364417
0.339171
0.313943
0.28873
0.263531
0.238348
0.213181
0.188031
0.162897
0.137782
0.112686
0.0876098
0.0625539
0.0375187
0.0125035
1.03379
1.00489
0.97677
0.949294
0.922346
0.895827
0.869657
0.843765
0.818094
0.792593
0.767223
0.741949
0.716743
0.691585
0.666459
0.641353
0.616259
0.591173
0.566094
0.541019
0.515951
1.021
0.992749
0.965243
0.938354
0.91197
0.885996
0.860351
0.834966
0.809783
0.784755
0.759839
0.735004
0.710222
0.685472
0.660739
0.636012
0.611284
0.586551
0.561812
0.537067
0.512317
1.01515
0.987549
0.960614
0.934222
0.90827
0.882671
0.857352
0.832251
0.807317
0.782505
0.757781
0.733115
0.708484
0.68387
0.65926
0.634647
0.610024
0.58539
0.560744
0.536088
0.511424
1.01262
0.985316
0.958625
0.93244
0.906667
0.881225
0.856045
0.83107
0.80625
0.781543
0.756913
0.732332
0.707777
0.683231
0.658682
0.634121
0.609546
0.584954
0.560347
0.535727
0.511097
1.01101
0.983873
0.957333
0.931288
0.905645
0.880324
0.855257
0.830386
0.805659
0.781037
0.756482
0.731967
0.707468
0.682968
0.658457
0.633927
0.609375
0.584801
0.560209
0.535601
0.510982
1.00986
0.982876
0.956483
0.930573
0.905051
0.879838
0.854866
0.830078
0.805425
0.780865
0.756364
0.731893
0.707431
0.682959
0.658467
0.633948
0.609401
0.584827
0.560231
0.535618
0.510995
1.00938
0.982609
0.956389
0.930613
0.90519
0.880048
0.855124
0.830367
0.805731
0.781179
0.756677
0.732201
0.70773
0.683247
0.658741
0.634204
0.609636
0.585038
0.560417
0.53578
0.511136
1.01136
0.984635
0.958407
0.932585
0.907088
0.881845
0.856801
0.831908
0.807124
0.782417
0.757761
0.733137
0.708526
0.683917
0.659323
0.634738
0.610137
0.585509
0.560852
0.536174
0.511486
1.00919
0.983118
0.95785
0.933181
0.908897
0.884798
0.86074
0.836703
0.812221
0.787435
0.762626
0.737667
0.712594
0.687459
0.662299
0.637166
0.612097
0.587091
0.562147
0.537259
0.512422
1.04298
1.02756
1.01353
0.999904
0.985702
0.970014
0.952122
0.931561
0.90817
0.882071
0.853628
0.823255
0.791472
0.758822
0.725843
0.692924
0.660232
0.627912
0.596046
0.564516
0.533215
11.541
11.925
12.3309
12.8157
14.0229
2.90212
1.8774
1.66687
1.54223
1.45708
1.39009
1.334
1.28504
1.24113
1.20098
1.16374
1.12877
1.09562
1.06395
10.8218
12.1566
13.3783
12.5819
7.07597
2.0943
1.7413
1.60022
1.50039
1.426
1.36452
1.31176
1.26503
1.22277
1.18392
1.14775
1.11371
1.08139
1.05047
10.557
13.3321
12.4782
8.10702
3.06216
1.83424
1.65603
1.54995
1.46682
1.4005
1.34396
1.29457
1.25036
1.21008
1.17286
1.13806
1.10519
1.07389
1.04386
10.0593
11.9784
8.89247
4.13896
1.96109
1.73962
1.60565
1.51758
1.44432
1.38362
1.33092
1.28426
1.24207
1.20333
1.1673
1.13342
1.10128
1.07055
1.04097
9.05274
8.8567
5.23561
2.36614
1.80738
1.68401
1.57507
1.49674
1.42979
1.37305
1.32309
1.2783
1.23742
1.19959
1.1642
1.13079
1.09899
1.06853
1.03917
7.81358
6.18703
3.17797
1.94554
1.75801
1.65002
1.55549
1.48302
1.4204
1.36638
1.31823
1.27459
1.23444
1.1971
1.16204
1.12887
1.09729
1.06702
1.03785
6.7062
4.31719
2.29483
1.85446
1.73089
1.62795
1.54263
1.47412
1.41451
1.36222
1.31503
1.27189
1.23203
1.19492
1.16012
1.12724
1.09596
1.066
1.03711
5.85091
3.2403
2.03764
1.8211
1.71259
1.61338
1.53414
1.46801
1.40988
1.35815
1.3114
1.26895
1.23008
1.19403
1.16014
1.12797
1.09722
1.06762
1.03897
5.19641
2.66277
1.96157
1.80568
1.69908
1.60381
1.52828
1.46373
1.40737
1.35796
1.31397
1.27352
1.23476
1.197
1.16089
1.12726
1.09545
1.06528
1.03652
4.67742
2.38644
1.92981
1.79679
1.68919
1.59773
1.52479
1.46216
1.40741
1.35708
1.30733
1.25669
1.20875
1.17114
1.14764
1.12387
1.10164
1.0808
1.06092
12.1552
19.3303
27.6884
36.7513
45.9849
54.8986
63.0908
70.2731
76.2817
81.0774
84.7325
87.3081
89.1418
90.3778
91.2538
91.972
92.5664
93.1733
94.0974
94.8957
93.7233
56.6361
71.9332
84.9076
95.6471
103.713
109.208
112.499
114.192
114.72
114.706
114.401
113.924
113.328
112.718
112.162
111.705
111.377
111.188
111.074
110.993
110.968
102.649
113.504
120.408
124.325
126.165
126.794
126.807
126.454
125.662
124.253
122.433
120.336
118.141
116.027
114.15
112.64
111.582
110.972
110.691
110.574
110.566
131.499
137.323
141.198
143.934
145.81
146.761
146.641
145.4
143.153
140.031
136.196
131.863
127.293
122.787
118.663
115.237
112.76
111.307
110.67
110.439
110.388
153.309
159.413
164.474
168.266
170.565
171.293
170.495
168.257
164.664
159.835
153.94
147.215
139.971
132.608
125.613
119.534
114.901
112.025
110.748
110.326
110.194
177.241
185.058
191.185
195.436
197.793
198.285
196.942
193.814
188.969
182.519
174.628
165.53
155.555
145.158
134.95
125.7
118.261
113.32
110.996
110.275
110.05
203.526
212.441
219.232
223.888
226.393
226.721
224.871
220.884
214.828
206.816
197.012
185.647
173.048
159.679
146.211
133.567
122.892
115.312
111.436
110.276
109.937
230.593
240.466
248.039
253.229
255.94
256.113
253.738
248.856
241.552
231.961
220.267
206.71
191.614
175.43
158.826
142.791
128.686
118.065
112.126
110.319
109.855
257.981
269.04
277.577
283.4
286.36
286.368
283.409
277.539
268.878
257.605
243.95
228.192
210.665
191.807
172.249
152.964
135.418
121.53
113.125
110.402
109.778
285.79
298.285
307.958
314.529
317.788
317.609
313.976
306.974
296.779
283.644
267.876
249.817
229.84
208.383
186.032
163.691
142.818
125.577
114.438
110.523
109.709
314.181
328.363
339.376
346.838
350.456
350.056
345.626
337.297
325.33
310.087
291.983
271.454
248.934
224.88
199.843
174.636
150.628
130.077
116.032
110.679
109.645
343.3
359.458
372.062
380.589
384.634
383.966
378.58
368.678
354.641
336.98
316.259
293.036
267.83
241.128
213.454
185.534
158.607
134.895
117.867
110.865
109.586
373.282
391.759
406.249
416.042
420.589
419.589
413.052
401.279
384.817
364.37
340.697
314.516
286.447
257.013
226.714
196.195
166.55
139.881
119.896
111.075
109.531
404.241
425.429
442.137
453.42
458.548
457.132
449.212
435.223
415.925
392.277
365.28
335.845
304.714
272.449
239.521
206.485
174.301
144.9
122.064
111.305
109.48
436.252
460.576
479.863
492.877
498.663
496.728
487.156
470.559
447.975
420.676
389.957
356.959
322.56
287.363
251.794
216.314
181.745
149.838
124.316
111.547
109.432
469.326
497.233
519.481
534.477
540.993
538.411
526.881
507.246
480.893
449.476
414.636
377.77
339.904
301.682
263.471
225.613
188.797
154.599
126.595
111.796
109.386
503.4
535.345
560.945
578.179
585.486
582.102
568.271
545.135
514.513
478.515
439.171
398.158
356.653
315.332
274.491
234.333
195.398
159.111
128.85
112.045
109.342
538.329
574.759
604.1
623.821
631.962
627.592
611.085
583.963
548.57
507.55
463.363
417.971
372.697
328.236
284.799
242.431
201.506
163.315
131.032
112.289
109.3
573.881
615.218
648.668
671.106
680.1
674.528
654.941
623.339
582.699
536.265
486.959
437.025
387.91
340.311
294.342
249.87
207.09
167.169
133.099
112.522
109.259
609.738
656.348
694.237
719.589
729.422
722.397
699.305
662.744
616.429
564.269
509.659
455.107
402.155
351.472
303.065
256.618
212.125
170.64
135.012
112.739
109.219
645.482
697.656
740.25
768.667
779.284
770.521
743.489
701.523
649.195
591.109
531.125
471.984
415.279
361.629
310.915
262.64
216.59
173.706
136.737
112.934
109.181
680.586
738.51
785.991
817.559
828.852
818.032
786.638
738.899
680.344
616.281
550.994
487.407
427.128
370.689
317.842
267.907
220.466
176.346
138.246
113.104
109.143
714.394
778.121
830.557
865.265
877.058
863.849
827.735
773.976
709.157
639.246
568.885
501.124
437.542
378.56
323.791
272.387
223.733
178.547
139.511
113.244
109.105
746.172
815.556
872.834
910.522
922.548
906.646
865.605
805.776
734.876
659.455
584.422
512.889
446.367
385.152
328.713
276.049
226.37
180.292
140.509
113.35
109.069
775.174
849.803
911.542
951.831
963.714
944.876
898.952
833.28
756.743
676.375
597.245
522.467
453.458
390.375
332.555
278.86
228.354
181.567
141.217
113.417
109.032
800.691
879.903
945.405
987.569
998.767
976.908
926.457
855.498
774.05
689.517
607.03
529.649
458.681
394.148
335.266
280.786
229.659
182.356
141.619
113.443
108.995
822.046
904.798
972.929
1016.05
1025.45
1001.24
946.915
871.558
786.193
698.473
613.503
534.257
461.919
396.395
336.797
281.792
230.258
182.64
141.7
113.421
108.959
838.66
923.994
994.338
1034.64
1040.73
1016.7
959.397
880.792
792.719
702.935
616.46
536.15
463.078
397.048
337.096
281.836
230.118
182.394
141.457
113.329
108.922
850.116
936.681
1006.64
1040.2
1044.88
1022.7
963.355
882.804
793.361
702.722
615.77
535.234
462.083
396.047
336.116
280.881
229.205
181.594
140.882
113.136
108.885
856.048
942.172
1010.71
1041.2
1043.26
1019.52
958.664
877.501
788.058
697.782
611.384
531.461
458.887
393.346
333.81
278.882
227.479
180.203
139.959
112.85
108.848
856.359
940.464
1006.4
1037.33
1038.23
1007.85
945.442
865.006
776.921
688.187
603.338
524.834
453.471
388.907
330.131
275.788
224.892
178.184
138.664
112.465
108.809
851.077
931.642
993.476
1024.55
1022.67
986.704
924.312
845.874
760.3
674.159
591.758
515.412
445.843
382.708
325.036
271.546
221.391
175.5
136.976
111.984
108.77
840.413
916.097
972.497
999.961
994.127
957.121
896.329
820.827
738.696
656.031
576.851
503.302
436.039
374.736
318.483
266.099
216.924
172.116
134.886
111.419
108.729
824.748
894.481
944.552
966.877
958.106
921.062
862.562
790.699
712.736
634.236
558.892
488.658
424.125
364.996
310.434
259.388
211.432
167.993
132.384
110.785
108.686
804.592
867.628
910.922
927.903
916.588
879.978
824.22
756.451
683.133
609.277
538.21
471.673
410.19
353.502
300.856
251.355
204.863
163.106
129.476
110.106
108.64
780.548
836.458
872.89
884.772
871.241
835.323
782.507
719.047
650.632
581.699
515.173
452.566
394.344
340.283
289.72
241.948
197.175
157.446
126.188
109.419
108.589
753.257
801.895
831.649
838.83
823.396
788.329
738.518
679.414
615.977
552.058
490.161
431.576
376.714
325.378
277.005
231.123
188.349
151.038
122.584
108.747
108.539
723.374
764.83
788.27
791.203
774.169
740.06
693.226
638.406
579.87
520.887
463.55
408.944
357.43
308.831
262.697
218.861
178.406
143.957
118.787
108.166
108.523
691.542
726.087
743.696
742.846
724.494
691.416
647.478
596.78
542.941
488.672
435.688
384.903
336.626
290.689
246.801
205.182
167.439
136.36
115.032
107.78
108.558
658.359
686.398
698.716
694.547
675.14
643.143
601.984
555.174
505.719
455.82
406.878
359.664
314.423
271.002
229.352
190.189
155.654
128.526
111.82
107.675
108.653
624.364
646.386
653.962
646.924
626.717
595.839
557.31
514.085
468.608
422.653
377.37
333.407
290.922
249.834
210.46
174.129
143.442
120.927
109.321
107.557
108.844
590.017
606.558
609.937
600.463
579.692
549.951
513.856
473.843
431.877
389.399
347.357
306.265
266.21
227.294
190.382
157.488
131.455
114.27
107.755
107.485
109.17
555.697
567.305
567.022
555.511
534.38
505.75
471.836
434.615
395.676
356.208
316.964
278.329
240.379
203.618
169.638
141.099
120.65
109.663
107.271
107.646
109.758
521.693
528.906
525.456
512.267
490.932
463.326
431.289
396.434
360.068
323.156
286.255
249.659
213.613
179.315
149.204
126.242
112.308
107.273
107.144
108.55
110.627
488.196
491.516
485.351
470.785
449.327
422.597
392.124
359.254
325.051
290.25
255.239
220.367
186.359
155.387
130.646
114.644
107.873
106.9
108.489
110.659
111.689
455.293
455.187
446.691
430.963
409.386
383.364
354.194
322.992
290.563
257.432
223.962
190.813
159.618
133.648
116.188
108.303
106.753
108.86
112.106
113.663
112.846
422.967
419.832
409.302
392.549
370.845
345.415
317.353
287.527
256.471
224.666
192.708
161.927
135.295
116.815
108.414
106.683
109.425
114.566
118.006
117.58
114.073
391.106
385.261
372.929
355.282
333.483
308.577
281.444
252.67
222.664
192.185
162.378
135.681
116.556
108.167
106.639
110.082
117.548
124.299
126.101
122.232
115.452
359.557
351.275
337.371
318.986
297.132
272.669
246.247
218.241
189.336
160.923
134.978
115.521
107.525
106.569
110.738
120.614
131.471
137.641
135.776
127.224
116.862
328.202
317.768
302.53
283.523
261.597
237.462
211.557
184.39
157.499
133.009
114.061
106.332
106.349
111.322
123.345
138.135
149.864
153.168
146.024
132.072
118.048
297.065
284.73
268.283
248.676
226.646
202.801
177.532
152.232
129.576
112.13
104.976
105.799
111.963
125.57
143.22
160.047
170.004
168.55
155.475
136.243
118.904
266.177
252.004
234.382
214.241
192.242
168.979
145.398
124.65
109.578
103.44
104.991
112.345
126.9
145.971
166.069
182.257
188.632
181.597
162.883
139.269
119.412
235.313
219.306
200.762
180.361
158.962
137.427
118.514
106.493
102.098
104.417
112.921
127.591
146.33
167.044
187.008
200.641
202.544
190.294
167.237
140.862
119.554
204.185
186.854
167.936
147.846
128.699
111.905
103.07
101.066
104.214
113.771
127.878
144.429
163.224
183.258
201.65
210.694
209.205
192.823
167.736
140.452
119.636
173.46
155.782
136.913
119.03
105.852
99.7497
100.146
104.682
115.205
128.09
140.997
155.552
173.028
191.071
205.997
212.151
205.31
188.459
164.011
137.923
119.717
144.879
127.325
110.023
100.107
97.3222
99.5975
106.515
117.864
128.481
136.601
145.872
158.773
173.699
187.489
197.062
199.514
192.763
177.522
156.043
133.614
119.799
119.524
103.283
95.013
95.93
101.091
110.97
121.475
129.075
131.561
136.147
144.114
153.663
163.771
172.796
178.565
179.101
173.3
161.228
144.783
128.446
119.889
97.9515
90.6427
94.9246
105.772
117.146
125.354
126.746
126.918
128.943
132.008
136.335
141.687
147.257
152.015
154.786
154.508
150.525
142.876
132.973
123.901
119.995
84.7595
96.8361
112.746
124.969
125.548
124.875
124.695
124.704
125.037
125.859
127.201
128.954
130.847
132.468
133.34
133.044
131.306
128.189
124.354
121.191
120.127
82.0789
125.008
124.689
124.211
124.023
123.735
123.49
123.268
123.071
122.904
122.762
122.638
122.525
122.419
122.315
122.204
121.978
121.586
121.125
120.842
120.889
4.29048
2.26227
1.91327
1.79079
1.68242
1.59451
1.52355
1.46162
1.40469
1.3494
1.29916
1.26828
1.25965
1.31842
1.50042
1.911
2.7367
4.32845
7.23947
4.01549
2.19863
1.90565
1.78683
1.67865
1.59379
1.52366
1.45994
1.39884
1.34413
1.31475
1.34448
1.55128
2.10091
3.44876
6.83883
14.2743
25.7427
40.4789
3.8264
2.16361
1.90364
1.78494
1.67779
1.59489
1.52314
1.45407
1.38917
1.34965
1.38546
1.66732
2.55733
5.61957
13.6585
27.9565
47.2996
67.8279
87.1691
3.6944
2.14379
1.90494
1.78513
1.67925
1.59638
1.52013
1.44617
1.39093
1.37996
1.49352
2.55728
7.34362
19.1024
38.7685
62.9925
87.302
107.482
122.133
3.59901
2.1331
1.90845
1.78729
1.6823
1.59725
1.51496
1.43998
1.40644
1.47881
2.0364
7.27504
20.8926
43.5024
71.6164
98.7807
120.497
135.622
145.846
3.52788
2.12835
1.91362
1.79119
1.68602
1.59639
1.50897
1.44663
1.43792
1.57938
5.19667
18.4874
42.1156
72.8205
103.367
127.808
145.112
157.652
168.049
3.47386
2.12777
1.92019
1.79651
1.68986
1.59478
1.50617
1.46183
1.5299
2.75478
12.7206
35.3305
67.1076
101.127
129.665
150.447
166.139
179.843
192.506
3.4326
2.13028
1.928
1.80288
1.69343
1.59314
1.51042
1.48865
1.60499
6.29356
24.6338
55.3983
91.9243
125.425
150.922
170.325
187.459
203.668
218.299
3.40125
2.13521
1.93689
1.81003
1.69687
1.59287
1.52089
1.54901
2.22063
12.7663
39.3764
76.1418
114.22
145.611
169.488
190.075
209.834
228.233
244.392
3.3778
2.14208
1.94672
1.8177
1.70057
1.59675
1.54392
1.60184
4.20327
21.9319
55.3293
95.751
133.377
162.985
187.29
210.391
232.63
252.828
270.598
3.36079
2.15056
1.95739
1.82594
1.70538
1.60438
1.57087
1.65079
7.6819
32.5869
71.2017
113.358
149.833
178.91
205.131
230.946
255.296
277.333
297.063
3.34908
2.1604
1.96878
1.83455
1.71059
1.61894
1.60205
1.77401
12.5718
43.8318
86.1667
128.817
164.37
194.229
223.027
251.309
277.675
301.87
323.939
3.34182
2.17138
1.98082
1.84373
1.71786
1.63384
1.64648
2.52052
18.7344
54.9928
99.8252
142.374
177.672
209.26
240.724
271.254
299.819
326.56
351.328
3.3383
2.18335
1.99345
1.85366
1.72743
1.65248
1.67977
3.84342
25.3887
65.6402
112.075
154.397
190.177
224.003
257.991
290.735
321.809
351.466
379.299
3.33796
2.19619
2.00663
1.86442
1.73907
1.67436
1.71016
5.6582
32.1187
75.532
122.976
165.22
202.095
238.34
274.695
309.77
343.681
376.599
407.886
3.34031
2.20977
2.02034
1.87607
1.75249
1.69717
1.74048
7.85697
38.6649
84.5622
132.664
175.094
213.487
252.142
290.777
328.374
365.424
401.933
437.08
3.34496
2.22402
2.03457
1.88861
1.76734
1.72023
1.77088
10.3255
44.8629
92.7116
141.293
184.188
224.337
265.315
306.213
346.536
386.985
427.402
466.816
3.35162
2.23886
2.04931
1.90204
1.78331
1.74366
1.8011
12.9567
50.6187
100.013
149.003
192.602
234.61
277.798
320.988
364.215
408.281
452.897
496.964
3.36004
2.25424
2.06452
1.9162
1.80037
1.76602
1.85662
15.6565
55.8847
106.522
155.915
200.396
244.268
289.557
335.078
381.344
429.199
478.27
527.332
3.36998
2.2701
2.08019
1.93087
1.81928
1.7945
2.01138
18.3482
60.6426
112.302
162.118
207.599
253.283
300.571
348.45
397.84
449.603
503.325
557.662
3.38129
2.28639
2.09627
1.94615
1.83884
1.82293
2.23533
20.876
64.8967
117.412
167.682
214.223
261.632
310.823
361.06
413.603
469.333
527.826
587.627
3.39379
2.30309
2.11275
1.96211
1.8579
1.84829
2.50155
23.1858
68.6634
121.907
172.656
220.273
269.298
320.29
372.846
428.505
488.179
551.466
616.81
3.40735
2.32015
2.12963
1.97872
1.8771
1.87214
2.78735
25.2563
71.9641
125.835
177.076
225.747
276.264
328.943
383.728
442.393
505.898
573.882
644.704
3.42188
2.33754
2.14688
1.9959
1.89651
1.8954
3.07416
27.0787
74.8216
129.238
180.971
230.642
282.516
336.752
393.632
455.128
522.258
594.709
670.774
3.43726
2.35525
2.16447
2.01359
1.91614
1.91834
3.34717
28.6514
77.2586
132.15
184.359
234.957
288.046
343.696
402.496
466.587
537.042
613.6
694.497
3.45344
2.37326
2.1824
2.03173
1.93595
1.94107
3.59498
29.9768
79.2966
134.6
187.259
238.695
292.853
349.757
410.268
476.66
550.056
630.233
715.377
3.47035
2.39154
2.20064
2.05026
1.95591
1.96363
3.80912
31.0596
80.9554
136.613
189.685
241.859
296.937
354.923
416.905
485.255
561.13
644.325
732.974
3.48794
2.41009
2.21918
2.06916
1.976
1.98606
3.98363
31.9058
82.2526
138.209
191.648
244.454
300.301
359.185
422.371
492.295
570.123
655.64
746.898
3.50613
2.42889
2.23801
2.08838
1.99624
2.00837
4.1148
32.5228
83.2045
139.406
193.162
246.489
302.952
362.541
426.645
497.727
576.931
663.993
756.856
3.52487
2.44793
2.25711
2.10792
2.0169
2.0306
4.20094
32.9177
83.8248
140.22
194.235
247.97
304.896
364.99
429.711
501.514
581.482
669.26
762.641
3.54414
2.46722
2.27648
2.12775
2.03771
2.05275
4.24043
33.1004
84.1283
140.662
194.877
248.906
306.143
366.537
431.567
503.638
583.737
671.37
764.174
3.56398
2.48668
2.29613
2.14787
2.05864
2.07476
4.25536
33.0705
84.1168
140.741
195.099
249.306
306.703
367.191
432.216
504.101
583.7
670.343
761.46
3.58389
2.50685
2.31597
2.16824
2.07969
2.09662
4.25383
32.8344
83.797
140.455
194.905
249.182
306.583
366.959
431.675
502.925
581.403
666.232
754.611
3.60382
2.52783
2.33596
2.18887
2.10089
2.11833
4.23749
32.4019
83.1771
139.81
194.303
248.546
305.792
365.856
429.968
500.149
576.913
659.152
743.835
3.62379
2.5496
2.35611
2.20975
2.12222
2.13991
4.20762
31.7847
82.2649
138.812
193.296
247.406
304.341
363.898
427.124
495.826
570.324
649.273
729.433
3.64381
2.57214
2.37643
2.23087
2.14371
2.16138
4.16563
30.9954
81.0677
137.464
191.888
245.771
302.243
361.105
423.18
490.024
561.756
636.807
711.769
3.66388
2.59543
2.39692
2.25223
2.16534
2.18275
4.11297
30.0481
79.5924
135.769
190.083
243.648
299.512
357.496
418.177
482.823
551.352
622.003
691.256
3.68402
2.61944
2.4176
2.27384
2.18714
2.20404
4.05119
28.9578
77.8464
133.732
187.882
241.045
296.161
353.096
412.161
474.313
539.276
605.132
668.333
3.70423
2.64419
2.43846
2.29569
2.20912
2.22525
3.98185
27.7405
75.8372
131.353
185.285
237.968
292.207
347.928
405.182
464.593
525.7
586.485
643.451
3.72452
2.66969
2.45953
2.31779
2.23129
2.24641
3.90652
26.4133
73.574
128.633
182.293
234.424
287.666
342.018
397.289
453.763
510.806
566.358
617.05
3.74491
2.69593
2.48082
2.34013
2.25365
2.26754
3.8268
24.9942
71.0677
125.575
178.905
230.419
282.554
335.394
388.534
441.927
494.776
545.035
589.544
3.76541
2.72293
2.50233
2.3627
2.27624
2.28865
3.74424
23.5024
68.3315
122.181
175.119
225.958
276.89
328.086
378.969
429.182
477.784
522.785
561.304
3.78603
2.75068
2.52409
2.38552
2.29904
2.30976
3.66036
21.9575
65.3817
118.456
170.934
221.047
270.691
320.122
368.642
415.619
459.982
499.842
532.647
3.80677
2.77919
2.5461
2.40857
2.3221
2.33089
3.57657
20.38
62.2381
114.407
166.349
215.689
263.974
311.533
357.6
401.316
441.502
476.403
503.831
3.82764
2.80847
2.56838
2.43186
2.3454
2.35208
3.49423
18.7908
58.9243
110.043
161.366
209.887
256.758
302.351
345.886
386.335
422.444
452.615
475.038
3.84867
2.83849
2.59093
2.45539
2.36898
2.37333
3.41455
17.2105
55.4671
105.38
155.986
203.643
249.058
292.609
333.543
370.727
402.878
428.572
446.374
3.86985
2.86926
2.61378
2.47914
2.39284
2.39468
3.33864
15.6599
51.904
100.44
150.217
196.962
240.889
282.339
320.609
354.533
382.847
404.317
417.866
3.8912
2.90075
2.63693
2.50312
2.41698
2.41616
3.26744
14.1571
48.2481
95.2486
144.071
189.848
232.269
271.574
307.127
337.793
362.378
379.851
389.473
3.91272
2.93293
2.66039
2.52732
2.44143
2.43778
3.20174
12.7427
44.5268
89.84
137.569
182.312
223.211
260.348
293.146
320.553
341.495
355.157
361.114
3.93442
2.96578
2.68417
2.55173
2.46617
2.45958
3.14215
11.4456
40.791
84.2556
130.743
174.373
213.735
248.695
278.718
302.87
320.234
330.231
332.714
3.95632
2.99924
2.70827
2.57634
2.49122
2.48159
3.08911
10.2756
37.0994
78.5484
123.636
166.062
203.866
236.654
263.906
284.816
298.657
305.102
304.273
3.97841
3.03326
2.73269
2.60114
2.51657
2.50383
3.04291
9.23447
33.512
72.7839
116.31
157.423
193.64
224.272
248.776
266.474
276.852
279.825
275.865
4.0007
3.06768
2.75739
2.62612
2.5422
2.52632
3.00367
8.31971
30.0863
67.0392
108.841
148.526
183.116
211.607
233.401
247.933
254.902
254.508
247.522
4.0232
3.10283
2.78252
2.65127
2.56811
2.54908
2.97139
7.52586
26.8735
61.4002
101.326
139.463
172.377
198.739
217.864
229.277
232.89
229.169
218.952
4.0459
3.13825
2.80811
2.67658
2.59426
2.57213
2.94588
6.84531
23.9157
55.9575
93.8806
130.358
161.543
185.785
202.281
210.596
210.94
203.537
190.005
4.06881
3.17367
2.83414
2.70203
2.62073
2.59549
2.92689
6.26896
21.2438
50.8007
86.6325
121.361
150.776
172.909
186.802
192.115
188.93
177.642
161.915
4.09192
3.20895
2.86055
2.72762
2.64726
2.61914
2.91402
5.78678
18.8756
46.011
79.7172
112.648
140.282
160.34
171.681
174.009
167.045
153.322
136.896
4.11524
3.24395
2.88729
2.75333
2.674
2.64309
2.90685
5.38834
16.8164
41.6563
73.2678
104.411
130.304
148.362
157.46
156.272
147.487
133.136
115.415
4.13871
3.27854
2.91428
2.77913
2.70088
2.66734
2.90486
5.06338
15.0577
37.7798
67.3953
96.8297
121.104
137.327
144.477
140.623
133.617
116.762
96.8011
4.16271
3.31257
2.94144
2.80503
2.72785
2.69192
2.90767
4.80158
13.5905
34.4239
62.2155
90.102
112.968
127.815
132.423
130.782
125.255
102.178
84.0822
4.18163
3.34245
2.96576
2.82817
2.75197
2.71365
2.91294
4.61813
12.4858
31.8232
58.1537
84.8276
106.65
120.874
122.534
129.187
119.556
92.2011
80.0654
4.20038
3.36832
2.98716
2.84855
2.7732
2.73397
2.92036
4.48327
11.6768
29.8718
55.0848
80.8718
102.016
116.03
117.857
132.701
115.589
89.2076
79.5797
4.219
3.39379
3.00855
2.86894
2.79443
2.75426
2.92985
4.37324
10.9982
28.206
52.462
77.5392
98.2546
112.294
115.118
137.272
115.801
91.8811
79.5138
79.4583
78.883
78.568
78.4202
78.3128
78.2197
78.1247
78.0211
77.9058
77.7791
77.6435
77.5042
77.3702
77.2536
77.1493
77.0253
76.8987
77.3362
78.747
84.0818
104.116
97.2565
95.1264
93.7135
93.181
92.7676
92.3844
91.8799
91.1986
90.3034
89.1797
87.8265
86.2577
84.5084
82.6598
80.825
79.0982
77.5447
76.4159
76.0562
76.533
78.9813
130.223
127.679
126.325
125.729
125.213
124.531
123.452
121.858
119.674
116.86
113.409
109.334
104.685
99.5486
94.0811
88.5447
83.3597
79.1032
76.3762
75.4516
75.2881
168.264
167.756
167.768
167.902
167.715
166.95
165.356
162.782
159.132
154.352
148.426
141.372
133.25
124.174
114.347
104.126
94.1177
85.2601
78.7698
75.6899
74.9377
207.965
210.859
213.204
214.792
215.389
214.809
212.833
209.308
204.141
197.287
188.741
178.544
166.778
153.585
139.2
124.024
108.745
94.5118
83.0516
76.484
74.8051
248.073
255.047
260.362
263.945
265.735
265.605
263.377
258.923
252.173
243.109
231.767
218.236
202.659
185.238
166.261
146.16
125.648
105.949
89.0884
77.9894
74.6934
288.179
299.612
308.338
314.348
317.687
318.252
315.904
310.551
302.156
290.745
276.411
259.314
239.688
217.838
194.15
169.123
143.483
118.444
96.1744
80.1865
74.6002
327.966
344.057
356.496
365.272
370.448
371.923
369.585
363.381
353.315
339.463
321.986
301.131
277.235
250.735
222.157
192.129
161.432
131.24
103.697
82.8099
74.5191
367.154
387.988
404.332
416.138
423.39
425.959
423.746
416.735
404.975
388.612
367.887
343.142
314.828
283.513
249.887
214.748
179.012
143.863
111.343
85.6643
74.4465
405.499
431.121
451.537
466.6
476.147
479.982
477.992
470.183
456.671
437.694
413.605
384.864
352.041
315.829
277.068
236.745
195.967
156.011
118.826
88.6196
74.3801
442.816
473.29
497.976
516.542
528.623
533.905
532.215
523.577
508.191
486.428
458.801
425.928
388.516
347.377
303.477
257.968
212.171
167.538
125.984
91.5758
74.3185
478.987
514.419
543.623
565.989
580.89
587.821
586.506
576.97
559.521
534.716
503.295
466.091
423.986
377.912
328.924
278.298
227.556
178.379
132.73
94.4653
74.2605
513.934
554.48
588.495
615.012
633.07
641.887
641.023
630.491
610.736
582.563
547.014
505.217
458.275
407.249
353.259
297.645
242.087
188.514
139.022
97.2438
74.2054
547.596
593.445
632.594
663.658
685.251
696.221
695.897
684.255
661.91
629.989
589.927
543.225
491.266
435.263
376.371
315.939
255.742
197.946
144.849
99.8837
74.1526
579.904
631.254
675.871
711.9
737.437
750.856
751.17
738.294
713.052
676.973
631.987
580.051
522.883
461.867
398.182
333.131
268.51
206.689
150.213
102.368
74.1016
610.767
667.795
718.198
759.612
789.521
805.706
806.77
792.533
764.07
723.417
673.1
615.614
553.056
487.002
418.642
349.186
280.386
214.761
155.128
104.688
74.0521
640.05
702.892
759.364
806.565
841.276
860.564
862.502
846.772
814.762
769.125
713.104
649.797
581.712
510.621
437.717
364.086
291.371
222.181
159.61
106.839
74.0039
667.585
736.313
799.074
852.42
892.355
915.094
918.045
900.693
864.808
813.807
751.765
682.441
608.758
532.677
455.386
377.821
301.471
228.972
163.679
108.821
73.9569
693.164
767.772
836.951
896.733
942.286
968.831
972.947
953.849
913.774
857.074
788.78
713.343
634.083
553.122
471.631
390.39
310.694
235.152
167.356
110.635
73.9108
716.544
796.925
872.542
938.952
990.467
1021.17
1026.63
1005.67
961.113
898.455
823.79
742.266
657.554
571.898
486.44
401.8
319.055
240.743
170.66
112.284
73.8654
737.454
823.377
905.317
978.419
1036.16
1071.37
1078.36
1055.44
1006.16
937.405
856.398
768.954
679.031
588.948
499.807
412.066
326.578
245.77
173.612
113.773
73.8208
755.611
846.7
934.68
1014.37
1078.48
1118.51
1127.25
1102.32
1048.16
973.33
886.203
793.174
698.409
604.255
511.757
421.228
333.294
250.259
176.235
115.108
73.7768
770.742
866.464
959.998
1045.95
1116.38
1161.47
1172.21
1145.29
1086.25
1005.62
912.828
814.735
715.629
617.839
522.346
429.338
339.242
254.236
178.549
116.295
73.7334
782.605
882.277
980.663
1072.29
1148.74
1198.97
1211.99
1183.23
1119.58
1033.71
935.969
833.494
730.642
629.707
531.612
436.44
344.455
257.725
180.57
117.34
73.6904
791.015
893.834
996.193
1092.64
1174.51
1229.82
1245.48
1215.06
1147.42
1057.19
955.389
849.325
743.388
639.846
539.57
442.563
348.96
260.744
182.313
118.246
73.6479
795.86
900.948
1006.26
1106.48
1193.07
1253.27
1272.29
1239.87
1169.19
1075.71
970.868
862.091
753.791
648.22
546.214
447.717
352.773
263.307
183.787
119.018
73.6058
797.096
903.542
1010.72
1113.48
1203.46
1268.15
1292.41
1256.74
1184.3
1088.9
982.171
871.64
761.76
654.781
551.524
451.898
355.895
265.416
184.998
119.654
73.564
794.753
901.637
1009.55
1113.47
1205.24
1272.73
1302.67
1264.61
1192.16
1096.41
989.075
877.828
767.2