/*--------------------------------*- C++ -*----------------------------------*\
| =========                 |                                                 |
| \\      /  F ield         | OpenFOAM: The Open Source CFD Toolbox           |
|  \\    /   O peration     | Version:  v2012                                 |
|   \\  /    A nd           | Website:  www.openfoam.com                      |
|    \\/     M anipulation  |                                                 |
\*---------------------------------------------------------------------------*/
FoamFile
{
    version     2.0;
    format      ascii;
    class       volScalarField;
    location    "618";
    object      k;
}
// * * * * * * * * * * * * * * * * * * * * * * * * * * * * * * * * * * * * * //

dimensions      [0 2 -2 0 0 0 0];


internalField   nonuniform List<scalar> 
6057
(
0.036015
0.0385711
0.04146
0.0447462
0.0485117
0.052862
0.0579353
0.0639153
0.0710511
0.0796876
0.0903149
0.103648
0.120768
0.143366
0.174213
0.218095
0.283809
0.388803
0.57104
0.923126
0.0842643
0.0904964
0.0974949
0.105395
0.114368
0.124626
0.136442
0.150167
0.166262
0.185337
0.208218
0.236043
0.270411
0.313622
0.369058
0.441816
0.539745
0.675104
0.866867
1.14203
0.111724
0.119908
0.129068
0.139367
0.151005
0.164235
0.179369
0.196805
0.21705
0.240764
0.26881
0.302339
0.342907
0.392648
0.454531
0.532757
0.63334
0.764994
0.940485
1.17885
0.127715
0.137001
0.147367
0.158985
0.172068
0.186874
0.203725
0.223018
0.245257
0.271079
0.301306
0.33701
0.379609
0.431007
0.493812
0.571664
0.669779
0.795873
0.961891
1.18752
0.13524
0.145037
0.155957
0.168173
0.181901
0.197399
0.214985
0.235052
0.258086
0.284704
0.315686
0.352046
0.39511
0.446659
0.509132
0.585979
0.682238
0.805592
0.968306
1.19105
0.135217
0.14502
0.155943
0.168163
0.181894
0.197394
0.214981
0.235049
0.258084
0.284702
0.315685
0.352045
0.395109
0.446658
0.509132
0.585979
0.682238
0.805591
0.968306
1.19105
0.127648
0.136953
0.147332
0.15896
0.17205
0.186861
0.203715
0.223012
0.245252
0.271075
0.301304
0.337008
0.379607
0.431006
0.493811
0.571663
0.669778
0.795873
0.961891
1.18752
0.11162
0.119839
0.129019
0.139332
0.15098
0.164216
0.179356
0.196795
0.217043
0.240759
0.268806
0.302337
0.342906
0.392646
0.45453
0.532756
0.633339
0.764994
0.940485
1.17885
0.0841201
0.0904136
0.0974377
0.105356
0.11434
0.124605
0.136427
0.150157
0.166255
0.185331
0.208214
0.23604
0.270409
0.31362
0.369056
0.441815
0.539744
0.675103
0.866867
1.14203
0.0359733
0.0385457
0.0414424
0.0447338
0.0485028
0.0528556
0.0579306
0.0639119
0.0710486
0.0796858
0.0903135
0.103647
0.120767
0.143365
0.174212
0.218094
0.283809
0.388803
0.57104
0.923126
0.0128984
0.013541
0.0141892
0.0148466
0.0155171
0.0162049
0.0169149
0.0176524
0.0184235
0.0192347
0.0200936
0.0210085
0.0219886
0.0230442
0.0241871
0.0254303
0.0267887
0.0282792
0.0299216
0.031739
0.0337591
0.0264868
0.0280137
0.029583
0.0312006
0.0328725
0.0346057
0.0364083
0.03829
0.0402624
0.0423391
0.0445356
0.0468699
0.049363
0.0520387
0.0549244
0.0580512
0.0614538
0.0651731
0.0692545
0.0737527
0.0787308
0.0358879
0.0377922
0.0397622
0.0418071
0.0439356
0.0461576
0.0484838
0.0509271
0.0535022
0.0562261
0.0591187
0.0622029
0.0655051
0.0690555
0.0728887
0.0770438
0.0815648
0.0865
0.0919098
0.0978618
0.104434
0.0419624
0.0439981
0.0461222
0.0483454
0.0506781
0.0531309
0.0557163
0.0584481
0.0613426
0.0644184
0.0676971
0.0712037
0.0749671
0.0790201
0.0834005
0.0881509
0.0933179
0.09896
0.105141
0.111934
0.119423
0.0454981
0.0474964
0.0496006
0.0518227
0.0541737
0.0566652
0.0593105
0.0621245
0.0651243
0.0683293
0.0717617
0.0754469
0.0794142
0.0836966
0.088332
0.0933634
0.098842
0.104823
0.111372
0.118562
0.126482
0.0468499
0.0486561
0.0505772
0.0526257
0.0548136
0.0571541
0.0596622
0.0623544
0.0652493
0.0683674
0.0717314
0.0753665
0.0793016
0.0835678
0.0882004
0.0932464
0.0987487
0.104755
0.111321
0.118524
0.126452
0.0462631
0.0477309
0.049307
0.051003
0.0528317
0.0548085
0.0569509
0.0592797
0.061818
0.0645908
0.0676242
0.0709441
0.0745793
0.0785614
0.0829314
0.0877318
0.0929999
0.0987389
0.104986
0.111822
0.119337
0.044191
0.0452394
0.046365
0.0475701
0.0488611
0.0502553
0.0517696
0.053429
0.0552661
0.0573202
0.0596317
0.0622384
0.0651761
0.0684791
0.0721878
0.0763403
0.0809709
0.0860752
0.0916391
0.0976822
0.1043
0.041631
0.0423894
0.043182
0.0439853
0.0447781
0.0455464
0.0462815
0.0469852
0.04767
0.0484029
0.0492645
0.0503321
0.0516864
0.0534118
0.0555615
0.0581382
0.0611871
0.0647844
0.0689154
0.0735184
0.0785707
0.0397465
0.0405725
0.0414214
0.0422446
0.0429917
0.0436108
0.0440455
0.0442331
0.0441018
0.0435762
0.042576
0.0410305
0.0388727
0.0362242
0.0338815
0.032022
0.0307633
0.0302347
0.0305261
0.0315848
0.0333611
0.0010317
0.000949512
0.000814845
0.000909824
0.00122613
0.00224216
0.00328151
0.00427844
0.00518639
0.00601197
0.00678182
0.00751903
0.00823208
0.00892683
0.00960735
0.0102768
0.0109381
0.0115936
0.0122462
0.00176442
0.00199246
0.00245672
0.00408086
0.00603793
0.00731493
0.00840782
0.00957599
0.0109037
0.0123318
0.0137301
0.015108
0.0164766
0.0178473
0.0192281
0.0206256
0.0220454
0.0234925
0.0249717
0.0025411
0.00363837
0.00554266
0.0075567
0.00923373
0.0105411
0.0119484
0.0137424
0.0157995
0.017839
0.0197742
0.0216254
0.0234151
0.0251675
0.0269036
0.0286412
0.0303959
0.0321814
0.0340092
0.00361106
0.00668639
0.00845197
0.0102449
0.011782
0.0133111
0.0152933
0.0177188
0.0202537
0.0226452
0.0248568
0.0269148
0.028856
0.03072
0.0325425
0.0343547
0.0361831
0.0380495
0.0399718
0.00485455
0.0092102
0.0109066
0.0124864
0.0140691
0.0160284
0.018558
0.0213924
0.0241611
0.0266893
0.028969
0.0310356
0.0329401
0.0347359
0.036472
0.038191
0.039928
0.0417113
0.043563
0.00611293
0.0114581
0.0130246
0.0145436
0.0163385
0.0187383
0.0216416
0.0246603
0.0274731
0.0299681
0.0321537
0.0340768
0.035801
0.0373915
0.0389083
0.0404024
0.0419154
0.0434794
0.0451188
0.00719857
0.0133736
0.0149397
0.0165408
0.0186142
0.0213522
0.024437
0.02746
0.0301686
0.0324927
0.0344537
0.0361103
0.0375375
0.0388108
0.0399991
0.0411599
0.0423382
0.0435673
0.0448707
0.00802377
0.0150259
0.0167103
0.0184882
0.0208339
0.0237716
0.026874
0.0297627
0.0322477
0.0342876
0.0359173
0.0372082
0.0382473
0.0391211
0.0399076
0.0406699
0.0414549
0.0422935
0.0432034
0.00872886
0.0164452
0.018356
0.0203558
0.0229236
0.0259286
0.0289172
0.0315639
0.0337272
0.0353915
0.0366078
0.0374644
0.0380647
0.0385118
0.0388968
0.0392921
0.0397468
0.0402871
0.0409189
0.00933162
0.0176731
0.019882
0.022108
0.0248253
0.027783
0.0305564
0.0328733
0.0346363
0.0358567
0.036608
0.037003
0.0371714
0.0372413
0.0373248
0.0375062
0.0378362
0.0383315
0.0389797
0.0382648
0.0391596
0.0400268
0.0408299
0.0415478
0.0421736
0.0427052
0.0431382
0.0434529
0.043596
0.043425
0.042977
0.0422433
0.041086
0.039219
0.0361273
0.0310085
0.0233594
0.0159595
0.0105969
0.00616859
0.0349589
0.0349246
0.0345738
0.0338811
0.032846
0.0314844
0.0298167
0.0278616
0.0256187
0.023467
0.0215152
0.0196017
0.0174885
0.015429
0.0134923
0.0117438
0.00972314
0.00731398
0.00495674
0.00264072
0.00121313
0.0287839
0.0271485
0.0250882
0.0227105
0.0201611
0.017602
0.0152032
0.0131887
0.0118274
0.0107739
0.00994724
0.009156
0.00838826
0.00765213
0.00692036
0.00615925
0.00532067
0.00438004
0.00335128
0.00217131
0.000958681
0.0211804
0.018527
0.0158461
0.0133815
0.011333
0.00981463
0.00884143
0.00832395
0.00800458
0.00777081
0.00756425
0.0073388
0.0070663
0.00672138
0.00627881
0.0057283
0.00507026
0.00428682
0.00334848
0.00226119
0.00109229
0.014635
0.0122233
0.0102896
0.00892144
0.00808232
0.00765617
0.00751302
0.00748778
0.00749928
0.00750686
0.00748397
0.00740616
0.00724893
0.00698509
0.00659291
0.00607489
0.0054209
0.00461157
0.00362642
0.00250278
0.00125789
0.0105131
0.00900111
0.00805121
0.00755031
0.00735864
0.00735717
0.00745197
0.0075708
0.00768151
0.00776311
0.00779681
0.00776266
0.00763875
0.00740111
0.00702772
0.00651424
0.00584775
0.00500276
0.00397353
0.00278287
0.00142986
0.00848116
0.00772932
0.00737603
0.00728438
0.00734685
0.00748956
0.00766091
0.00782876
0.0079753
0.00808516
0.00814208
0.00812791
0.00802223
0.00780334
0.0074469
0.00694228
0.00627218
0.00540691
0.0043382
0.00307123
0.00160164
0.00763127
0.00732401
0.00726506
0.00735174
0.0075153
0.00771225
0.00791318
0.00810111
0.00826322
0.00838627
0.00845573
0.0084547
0.00836372
0.00816163
0.00782541
0.00733632
0.00667162
0.00580032
0.0047007
0.00335821
0.00177093
0.00732968
0.00726144
0.00734658
0.00751489
0.00772271
0.00794302
0.0081576
0.00835511
0.00852465
0.00865463
0.00873176
0.00874028
0.0086618
0.00847576
0.00815998
0.00769086
0.0070405
0.00617376
0.00505329
0.00364166
0.00193708
0.00727061
0.00733287
0.00749274
0.00770225
0.00793224
0.00816489
0.00838719
0.00858969
0.00876287
0.00889623
0.00897751
0.00899214
0.00892303
0.00875066
0.00845335
0.00800592
0.00737614
0.00652302
0.00539288
0.00392201
0.00210006
0.00732015
0.00745776
0.00766027
0.00789361
0.0081373
0.00837843
0.00860595
0.0088114
0.0089861
0.0091203
0.00920269
0.0092199
0.00915633
0.00899404
0.00871232
0.00828574
0.0076801
0.00684768
0.00571882
0.00420024
0.00226015
0.00742059
0.00760551
0.00783552
0.00808539
0.00833978
0.00858792
0.00881965
0.00902704
0.00920187
0.00933496
0.0094158
0.00943222
0.0093702
0.00921371
0.00894383
0.0085362
0.00795583
0.0071494
0.0060318
0.00447731
0.00241777
0.00754735
0.00776507
0.00801541
0.00827895
0.00854288
0.00879739
0.00903283
0.00924148
0.00941538
0.00954579
0.00962287
0.00963553
0.00957133
0.00941633
0.00915407
0.00876249
0.00820729
0.00743082
0.00633329
0.00475424
0.00257343
0.00769029
0.00793307
0.00820046
0.00847632
0.00874901
0.00900942
0.00924802
0.00945721
0.00962922
0.00975565
0.00982724
0.00983377
0.00976424
0.00960684
0.00934811
0.00896939
0.00843853
0.00769504
0.00662519
0.00503209
0.00272772
0.00784557
0.00810927
0.00839178
0.00867878
0.00895943
0.00922494
0.0094658
0.00967456
0.00984367
0.00996504
0.0100298
0.0100285
0.00995131
0.00978841
0.00952969
0.00916085
0.0086533
0.00794518
0.00690958
0.00531191
0.00288123
0.0080121
0.008294
0.00858993
0.00888677
0.00917417
0.00944344
0.00968519
0.00989222
0.0100573
0.0101726
0.0102297
0.0102195
0.0101331
0.00996254
0.00970121
0.00933984
0.00885476
0.00818417
0.00718858
0.00559476
0.00303464
0.00818946
0.00848728
0.00879484
0.00909983
0.00939218
0.00966331
0.00990407
0.0101077
0.0102674
0.0103758
0.0104246
0.010405
0.0103087
0.0101294
0.00986386
0.00950842
0.00904548
0.00841463
0.0074643
0.00588174
0.00318865
0.00837716
0.00868865
0.00900573
0.00931665
0.0096116
0.00988213
0.0101196
0.010318
0.0104709
0.0105714
0.0106115
0.0105825
0.0104764
0.0102882
0.0100179
0.00966781
0.00922741
0.00863883
0.00773873
0.00617396
0.00334405
0.00857415
0.00889689
0.00922102
0.00953521
0.00982994
0.0100971
0.0103287
0.0105197
0.0106643
0.0107561
0.0107873
0.0107492
0.010634
0.0104375
0.0101629
0.00981864
0.00940202
0.00885872
0.0080138
0.00647264
0.00350168
0.00877839
0.00910989
0.00943836
0.0097529
0.0100443
0.0103051
0.0105283
0.0107097
0.0108446
0.0109268
0.010949
0.0109024
0.010779
0.0105756
0.0102981
0.00996114
0.0095704
0.00907599
0.00829127
0.00677902
0.00366251
0.00898652
0.00932451
0.00965475
0.00996672
0.0102519
0.0105032
0.0107155
0.0108855
0.0110092
0.0110812
0.0110942
0.0110397
0.0109097
0.0107012
0.0104229
0.0100954
0.00973346
0.00929216
0.00857285
0.00709432
0.00382761
0.00919399
0.00953688
0.00986682
0.0101737
0.0104499
0.010689
0.010888
0.0110449
0.0111562
0.0112173
0.0112213
0.0111597
0.0110245
0.0108132
0.0105366
0.0102215
0.00989208
0.00950865
0.0088602
0.00741972
0.00399825
0.0093965
0.00974297
0.0100712
0.010371
0.0106359
0.0108605
0.0110444
0.0111866
0.0112846
0.0113343
0.0113294
0.0112616
0.0111228
0.010911
0.010639
0.0103398
0.0100472
0.00972692
0.00915497
0.00775639
0.00417595
0.00959015
0.00993962
0.0102654
0.0105566
0.0108081
0.0110166
0.0111839
0.0113102
0.0113942
0.0114322
0.0114186
0.0113455
0.011205
0.0109951
0.0107307
0.0104511
0.0101999
0.00994844
0.00945875
0.00810551
0.00436253
0.00977556
0.010125
0.0104464
0.0107288
0.0109657
0.0111568
0.0113062
0.0114159
0.0114852
0.0115116
0.01149
0.0114128
0.0112722
0.0110665
0.0108128
0.0105566
0.0103518
0.0101748
0.00977303
0.00846836
0.00456028
0.00995264
0.0102996
0.0106142
0.0108853
0.0111077
0.0112805
0.0114114
0.0115041
0.011559
0.0115742
0.0115455
0.0114656
0.0113266
0.0111272
0.0108871
0.0106581
0.0105047
0.0104077
0.0100993
0.00884578
0.0047721
0.010121
0.0104631
0.0107685
0.0110264
0.0112321
0.0113874
0.0114999
0.0115761
0.0116173
0.0116227
0.0115883
0.0115073
0.0113715
0.0111803
0.0109563
0.0107584
0.010661
0.0106496
0.0104398
0.00923958
0.00500185
0.0102802
0.010615
0.010909
0.0111516
0.0113396
0.0114769
0.0115722
0.0116335
0.011663
0.0116605
0.0116226
0.0115422
0.011411
0.0112295
0.0110239
0.0108606
0.0108239
0.0109027
0.0107975
0.00965565
0.00524506
0.0104297
0.010755
0.0110357
0.0112615
0.011431
0.0115507
0.0116307
0.0116797
0.0117003
0.0116929
0.0116538
0.0115756
0.0114503
0.01128
0.0110945
0.0109684
0.010996
0.0111709
0.0111772
0.010098
0.0054986
0.0105698
0.0108835
0.0111497
0.0113578
0.0115089
0.0116123
0.0116794
0.0117196
0.0117355
0.0117268
0.0116894
0.0116151
0.0114961
0.0113365
0.0111712
0.0110839
0.0111798
0.0114564
0.0115811
0.0105659
0.00576378
0.010702
0.0110017
0.0112512
0.0114417
0.0115766
0.0116665
0.0117251
0.0117611
0.0117764
0.0117702
0.0117369
0.0116676
0.0115545
0.0114043
0.0112585
0.0112112
0.0113788
0.0117626
0.0120123
0.0110617
0.00603991
0.010825
0.0111097
0.0113432
0.0115183
0.0116404
0.0117209
0.0117758
0.0118124
0.0118318
0.0118315
0.0118043
0.0117401
0.0116317
0.0114889
0.0113612
0.0113543
0.0115965
0.0120926
0.0124741
0.0115887
0.00632707
0.0109417
0.0112112
0.0114306
0.0115936
0.0117071
0.0117833
0.0118401
0.0118826
0.0119104
0.0119191
0.0118993
0.0118395
0.0117335
0.0115955
0.011484
0.0115179
0.0118368
0.0124489
0.0129677
0.0121483
0.00662518
0.0110557
0.0113111
0.0115189
0.0116737
0.0117833
0.0118621
0.0119269
0.0119807
0.0120212
0.0120413
0.0120292
0.0119722
0.0118653
0.0117285
0.0116312
0.0117062
0.0121031
0.0128334
0.0134936
0.0127402
0.00693301
0.0111716
0.0114144
0.011614
0.011766
0.0118776
0.0119661
0.0120453
0.0121158
0.0121727
0.0122057
0.0122005
0.0121431
0.0120311
0.0118917
0.0118066
0.011923
0.0123986
0.0132471
0.0140499
0.0133615
0.0072481
0.0112944
0.0115269
0.0117229
0.0118786
0.0119988
0.0121044
0.0122045
0.0122967
0.0123728
0.0124189
0.0124179
0.0123556
0.0122333
0.0120869
0.0120126
0.0121712
0.0127248
0.0136886
0.0146309
0.0140055
0.00756618
0.0114298
0.0116552
0.0118529
0.0120191
0.0121561
0.0122864
0.0124135
0.0125316
0.0126282
0.0126856
0.0126842
0.0126107
0.0124717
0.0123144
0.0122502
0.0124522
0.0130818
0.0141532
0.0152247
0.01466
0.00788071
0.0115845
0.0118069
0.0120123
0.0121962
0.0123597
0.0125222
0.0126816
0.0128278
0.0129438
0.0130078
0.0129988
0.0129059
0.0127432
0.0125713
0.0125182
0.0127654
0.0134666
0.0146304
0.0158094
0.0153064
0.00818266
0.0117667
0.011991
0.012211
0.0124216
0.0126209
0.0128218
0.0130168
0.0131907
0.0133212
0.0133838
0.0133571
0.0132346
0.0130408
0.0128523
0.0128131
0.0131074
0.0138727
0.015102
0.0163478
0.0159185
0.00846038
0.0119863
0.0122182
0.0124615
0.0127083
0.0129511
0.0131947
0.0134255
0.0136222
0.0137584
0.0138071
0.0137491
0.0135851
0.0133534
0.0131486
0.0131287
0.0134725
0.01429
0.0155467
0.0168398
0.0164693
0.00869714
0.0122543
0.0125018
0.01278
0.0130705
0.0133618
0.013649
0.0139109
0.0141204
0.0142474
0.0142652
0.0141592
0.013941
0.0136661
0.0134496
0.0134572
0.0138524
0.014709
0.0159645
0.01728
0.0169254
0.00887119
0.0125837
0.0128563
0.0131824
0.013523
0.013864
0.0141901
0.0144719
0.0146771
0.014774
0.0147387
0.0145656
0.0142812
0.0139625
0.0137452
0.0137888
0.0142366
0.0151079
0.0163591
0.017661
0.017293
0.00898978
0.0129897
0.0132989
0.0136825
0.0140795
0.0144671
0.0148193
0.0151011
0.0152766
0.0153155
0.0152009
0.0149412
0.0145828
0.0142276
0.014031
0.0141206
0.0146197
0.0154827
0.0167149
0.0179671
0.0175455
0.00902853
0.0134907
0.0138523
0.0143019
0.0147536
0.0151755
0.0155316
0.0157824
0.0158937
0.0158406
0.0156188
0.0152571
0.0148258
0.0144567
0.0142851
0.0144485
0.0149928
0.0158305
0.0170098
0.0181684
0.0176253
0.00899391
0.0141089
0.0145508
0.0150613
0.0155534
0.0159846
0.0163097
0.0164883
0.0164922
0.0163097
0.0159563
0.0154886
0.0150034
0.0146667
0.0145545
0.0147906
0.0153346
0.0161274
0.0172096
0.0182277
0.017514
0.00889598
0.0148667
0.0153967
0.0159665
0.0164749
0.016876
0.0171212
0.0171758
0.017025
0.0166786
0.0161826
0.0156274
0.0151354
0.014847
0.014849
0.0151524
0.0156479
0.0163369
0.0172676
0.0180984
0.0171757
0.00873937
0.0158003
0.0164173
0.0170199
0.0175008
0.0178139
0.0179153
0.0177866
0.0174364
0.0169075
0.0162856
0.0156983
0.0152783
0.0151105
0.0152144
0.0155114
0.015877
0.0163877
0.0171144
0.0177147
0.0165458
0.00849144
0.0169497
0.0176255
0.0182058
0.0185921
0.0187391
0.0186218
0.0182513
0.0176737
0.016979
0.0162958
0.0157789
0.0154973
0.0154783
0.0156183
0.0157669
0.0159057
0.0161678
0.0166598
0.0169715
0.0157102
0.00813283
0.0183001
0.0189979
0.019479
0.0196768
0.0195638
0.0191524
0.0185011
0.0177111
0.0169283
0.0163072
0.0159578
0.0158825
0.015942
0.0159373
0.015767
0.0155643
0.0155484
0.0158348
0.0159756
0.0147169
0.00765996
0.0198722
0.0204884
0.0207543
0.0206445
0.0201721
0.0194128
0.0184938
0.0175849
0.0168676
0.0164591
0.0163732
0.0164056
0.0163062
0.0158768
0.0152421
0.0146723
0.0144533
0.014585
0.0147777
0.0136323
0.00711671
0.021596
0.0219851
0.021891
0.0213405
0.0204323
0.0193358
0.0182622
0.0174275
0.016969
0.0169071
0.0169511
0.0167696
0.0161233
0.0150915
0.0139965
0.0132133
0.0129482
0.0131251
0.013449
0.0124931
0.00652719
0.0233582
0.0233191
0.0226841
0.0215804
0.0202415
0.0189457
0.0179665
0.0174483
0.0174304
0.0175393
0.0172749
0.0163779
0.0149559
0.0134051
0.012113
0.0113486
0.0111939
0.0116121
0.0121126
0.0113458
0.00590986
0.0249264
0.0242139
0.0228703
0.0212075
0.0196111
0.0184326
0.0178549
0.0178896
0.0180856
0.0177731
0.0166127
0.0147397
0.0127321
0.0110873
0.00997866
0.00946311
0.0095364
0.0102149
0.0108454
0.0102161
0.0052674
0.025925
0.0242931
0.0222116
0.0202197
0.018757
0.0181063
0.0182197
0.0184857
0.0181698
0.0167361
0.0143624
0.0118801
0.00998378
0.00874831
0.00806691
0.00788826
0.00822358
0.00902306
0.00963172
0.00899576
0.0046899
0.0258511
0.0231964
0.0206862
0.0188838
0.018089
0.0182939
0.0186235
0.0183239
0.0166209
0.0136989
0.0107592
0.00865067
0.00747963
0.0069078
0.00667405
0.00677578
0.00724827
0.00795925
0.00841882
0.00772929
0.00415382
0.024183
0.0208771
0.0187041
0.0177468
0.0179504
0.0183144
0.0179665
0.0160265
0.0125872
0.00925059
0.00707204
0.00601565
0.00574322
0.00573129
0.00578585
0.0059949
0.00643801
0.00696739
0.00721462
0.00648217
0.00363493
0.0208
0.0179124
0.0170198
0.0170505
0.01728
0.0167261
0.0144484
0.0108904
0.00726885
0.00525364
0.00460053
0.00457175
0.00474306
0.00493343
0.00509745
0.00532692
0.00566095
0.00598644
0.00603693
0.00532503
0.00311519
0.0164946
0.0150418
0.0149888
0.0149455
0.0140034
0.0115285
0.00798661
0.00532472
0.00370176
0.00324629
0.00336096
0.00362212
0.00388921
0.00412313
0.00433656
0.00456041
0.00480491
0.00499366
0.00495313
0.00434429
0.00257066
0.0120044
0.0112401
0.011055
0.00928669
0.00712741
0.00500795
0.00321667
0.00217051
0.00190829
0.00203419
0.00227949
0.0025517
0.00282006
0.00307646
0.00332605
0.00357774
0.00382385
0.00401223
0.00401589
0.00353443
0.00196233
0.00645402
0.00221723
0.00208514
0.00188631
0.00154044
0.00113467
0.000845323
0.00080467
0.00089385
0.00102624
0.00116924
0.00131313
0.00145634
0.00160159
0.00175573
0.00193131
0.00209671
0.00220886
0.00220244
0.00196528
0.00118621
0.00985796
0.0188092
0.0213573
0.0237883
0.0265717
0.0293786
0.0318411
0.0337418
0.0350257
0.0357378
0.0359862
0.0359192
0.0357033
0.0354971
0.035429
0.0355797
0.0359758
0.0365955
0.0373825
0.0102919
0.0197931
0.0226751
0.0252606
0.02802
0.030604
0.0326919
0.0341262
0.0348951
0.0350848
0.0348483
0.034378
0.0338744
0.0335084
0.0333858
0.0335291
0.0338804
0.0343257
0.0347279
0.0106571
0.020631
0.0238209
0.026503
0.0291606
0.0314602
0.0331297
0.0340697
0.0343153
0.034003
0.0333349
0.032544
0.0318418
0.0313641
0.0311332
0.0310563
0.0309604
0.0306487
0.0299547
0.0109705
0.0213292
0.0247894
0.0275113
0.0300029
0.0319679
0.0331936
0.0336317
0.0333718
0.0326059
0.0315832
0.0305553
0.0297016
0.0290673
0.028549
0.027938
0.027003
0.0255759
0.0236068
0.0112404
0.0218895
0.0255798
0.0282869
0.0305592
0.0321593
0.032933
0.0328834
0.0321613
0.0310141
0.0297241
0.0285251
0.0275159
0.0266178
0.0256152
0.0242616
0.0223997
0.0200373
0.0173523
0.0114549
0.0222984
0.0261934
0.0288297
0.0308469
0.0320748
0.0324058
0.0319049
0.0307863
0.0293457
0.0278712
0.0265382
0.0253312
0.0240585
0.0224672
0.0203988
0.0178951
0.0151944
0.0126337
0.0116202
0.0225741
0.0266192
0.0291445
0.0309002
0.0317597
0.0316756
0.0307792
0.0293463
0.0277034
0.0261111
0.0246514
0.0231925
0.0214853
0.0193478
0.0168162
0.0141527
0.0117171
0.0097918
0.0117405
0.0227244
0.0268588
0.0292625
0.0307547
0.0312634
0.0308076
0.0295863
0.0279282
0.0261665
0.0245002
0.0229003
0.021149
0.0190249
0.0165128
0.013864
0.0114567
0.00958383
0.00833469
0.0118196
0.0227635
0.0269401
0.0292128
0.0304485
0.030636
0.0298641
0.0283965
0.0266005
0.0247875
0.0230678
0.0213054
0.0192521
0.0168
0.0141408
0.0116661
0.00971554
0.0084064
0.00766228
0.0118617
0.0227065
0.0268878
0.0290251
0.0300196
0.0299252
0.0289
0.0272664
0.0254105
0.0235942
0.0218231
0.0198779
0.017547
0.0148952
0.0122922
0.0101506
0.0086682
0.00779888
0.00738515
0.011871
0.0225678
0.0267251
0.0287279
0.0295037
0.0291729
0.0279604
0.0262368
0.0243855
0.0225944
0.0207613
0.0186219
0.0160633
0.0133415
0.0109281
0.00915659
0.00806509
0.00750597
0.0073038
0.0118517
0.0223615
0.0264734
0.0283479
0.0289326
0.028414
0.027079
0.0253335
0.0235359
0.0217821
0.0198702
0.0175358
0.0148116
0.012123
0.00995845
0.00852406
0.00773095
0.0073862
0.00732189
0.0118076
0.0221005
0.0261521
0.0279083
0.0283328
0.0276756
0.0262788
0.0245688
0.022859
0.0211417
0.0191325
0.0166124
0.0137838
0.0111949
0.00928563
0.00813122
0.00755899
0.00736418
0.00739318
0.0117426
0.0217962
0.0257782
0.0274292
0.0277256
0.0269771
0.0255728
0.0239444
0.022343
0.0206509
0.0185273
0.0158387
0.0129584
0.0105029
0.00882767
0.00789591
0.00748779
0.00740053
0.00749583
0.01166
0.0214586
0.0253662
0.026927
0.0271271
0.0263312
0.024966
0.023454
0.0219688
0.0202707
0.0180077
0.0151901
0.0123073
0.00999669
0.00852378
0.00776633
0.00748203
0.0074746
0.00761968
0.0115631
0.0210966
0.0249285
0.0264148
0.0265491
0.025745
0.0244572
0.0230851
0.0217115
0.019961
0.0175546
0.0146517
0.011804
0.00963483
0.00833129
0.00771107
0.00752181
0.00757569
0.00776016
0.0114545
0.0207174
0.024475
0.0259027
0.0259991
0.0252209
0.024041
0.022822
0.0215235
0.0197065
0.0171672
0.0142041
0.0114184
0.00938484
0.00822168
0.00771021
0.00759547
0.00769818
0.00791519
0.0113367
0.0203271
0.0240136
0.025398
0.0254818
0.0247584
0.0237084
0.0226457
0.021389
0.0195003
0.0168416
0.0138362
0.0111291
0.00922247
0.00817543
0.0077511
0.00769612
0.00783891
0.00808356
0.0112117
0.0199306
0.0235504
0.024906
0.0249994
0.0243541
0.0234491
0.0225382
0.0213003
0.0193378
0.0165733
0.0135409
0.0109201
0.00912983
0.00817896
0.00782537
0.00781921
0.00799558
0.00826398
0.0110813
0.0195318
0.0230902
0.0244299
0.024552
0.024003
0.0232512
0.0224712
0.0212481
0.019215
0.016358
0.0133111
0.0107784
0.00909291
0.00822279
0.00792687
0.00796072
0.00816545
0.00845427
0.010947
0.019134
0.0226364
0.023972
0.0241387
0.023699
0.0231029
0.0224343
0.0212267
0.0191285
0.0161919
0.0131404
0.0106926
0.00910049
0.00829856
0.00804928
0.00811545
0.00834409
0.00865064
0.0108099
0.0187393
0.0221913
0.0235332
0.0237573
0.0234362
0.022994
0.0224228
0.021232
0.0190751
0.0160722
0.0130254
0.0106493
0.00914126
0.00839774
0.00818517
0.0082765
0.00852548
0.00884778
0.0106711
0.0183497
0.0217566
0.0231136
0.0234054
0.0232083
0.0229162
0.0224324
0.0212606
0.0190524
0.0159958
0.0129596
0.0106443
0.00920775
0.00851136
0.00832579
0.00843763
0.00870387
0.0090406
0.0105314
0.0179664
0.0213328
0.0227129
0.0230801
0.0230098
0.0228624
0.0224593
0.0213097
0.0190588
0.0159602
0.0129378
0.0106743
0.00929367
0.0086341
0.00847073
0.00859938
0.0088797
0.00922742
0.0103915
0.0175905
0.0209216
0.0223302
0.0227785
0.0228353
0.0228268
0.0225003
0.0213772
0.0190929
0.0159629
0.0129555
0.010735
0.00939718
0.00876554
0.00861947
0.00876136
0.00905273
0.00940864
0.0102517
0.0172224
0.0205226
0.0219647
0.0224978
0.0226805
0.0228047
0.0225526
0.0214608
0.0191532
0.0160015
0.0130092
0.0108229
0.00951671
0.00890512
0.00877158
0.00892324
0.00922269
0.0095841
0.0101125
0.0168627
0.0201357
0.0216152
0.0222353
0.0225412
0.0227916
0.0226138
0.0215588
0.0192384
0.0160738
0.0130959
0.0109356
0.00965113
0.00905245
0.00892678
0.00908469
0.00938921
0.00975339
0.00997412
0.016511
0.0197606
0.0212804
0.0219883
0.0224137
0.0227827
0.0226813
0.0216695
0.0193473
0.0161779
0.0132131
0.0110713
0.00979973
0.00920734
0.0090849
0.00924541
0.00955187
0.00991601
0.00983694
0.0161671
0.0193971
0.0209591
0.0217546
0.022295
0.0227749
0.0227531
0.0217913
0.0194785
0.0163118
0.0133588
0.0112286
0.00996211
0.00936979
0.00924592
0.00940526
0.00971038
0.0100716
0.00970125
0.0158315
0.0190444
0.0206502
0.0215322
0.0221825
0.0227671
0.0228272
0.0219227
0.0196307
0.0164742
0.0135316
0.0114068
0.0101382
0.00954005
0.00941008
0.00956439
0.00986486
0.0102203
0.00956702
0.0155043
0.0187021
0.0203527
0.0213191
0.0220743
0.0227579
0.0229019
0.0220619
0.019803
0.0166638
0.0137304
0.0116054
0.0103284
0.00971881
0.00957824
0.00972376
0.0100163
0.0103638
0.0094341
0.0151854
0.0183699
0.0200656
0.0211145
0.021969
0.0227453
0.0229726
0.0222045
0.0199957
0.0168823
0.0139555
0.0118255
0.0105342
0.00990788
0.00975284
0.00988635
0.0101671
0.010501
0.00930516
0.0148749
0.0180465
0.0197874
0.0209163
0.0218648
0.0227279
0.023037
0.022345
0.0201993
0.0171274
0.0142121
0.0120719
0.0107604
0.0101129
0.009938
0.0100533
0.0103169
0.0106339
0.00917988
0.0145722
0.0177315
0.0195171
0.0207234
0.0217606
0.022705
0.0230942
0.0224823
0.0204124
0.0173945
0.0144966
0.0123466
0.0110108
0.0103362
0.0101351
0.0102264
0.0104681
0.0107651
0.00905768
0.0142771
0.0174247
0.0192542
0.0205347
0.0216553
0.022676
0.0231433
0.0226154
0.0206334
0.017682
0.0148081
0.0126493
0.0112861
0.0105792
0.0103462
0.010408
0.0106236
0.0108984
0.00893809
0.0139895
0.0171255
0.0189978
0.0203495
0.0215482
0.0226406
0.0231837
0.0227432
0.0208598
0.0179882
0.0151464
0.0129801
0.0115874
0.010844
0.0105739
0.0106014
0.0107874
0.0110383
0.00882072
0.0137092
0.0168337
0.0187474
0.0201667
0.0214386
0.0225984
0.0232148
0.0228648
0.0210899
0.0183109
0.0155104
0.0133391
0.0119159
0.0111328
0.0108213
0.0108106
0.0109642
0.01119
0.00870523
0.0134359
0.0165486
0.0185025
0.0199859
0.0213262
0.0225489
0.0232363
0.0229792
0.0213219
0.0186484
0.0158986
0.0137264
0.0122731
0.0114483
0.0110924
0.0110404
0.0111595
0.0113595
0.00859131
0.0131688
0.01627
0.0182626
0.0198064
0.0212102
0.022491
0.0232478
0.0230855
0.0215542
0.0189985
0.0163097
0.014142
0.0126605
0.0117934
0.0113915
0.0112963
0.0113794
0.0115537
0.00847868
0.0129078
0.0159975
0.0180272
0.0196279
0.0210905
0.0224245
0.0232491
0.0231829
0.021785
0.0193592
0.0167423
0.0145856
0.0130799
0.0121716
0.0117235
0.0115842
0.0116307
0.0117811
0.0083671
0.0126526
0.0157308
0.0177959
0.01945
0.0209669
0.0223497
0.0232402
0.0232707
0.0220125
0.0197273
0.0171954
0.0150577
0.0135333
0.0125868
0.0120934
0.0119102
0.0119212
0.0120518
0.00825634
0.0124028
0.0154696
0.0175685
0.0192726
0.0208396
0.0222672
0.0232212
0.0233486
0.022235
0.0200998
0.0176667
0.015559
0.0140222
0.0130425
0.0125064
0.0122805
0.0122607
0.0123768
0.0081462
0.0121584
0.0152136
0.0173445
0.0190955
0.0207086
0.0221776
0.0231924
0.023416
0.0224508
0.0204743
0.0181525
0.0160889
0.0145491
0.0135423
0.0129668
0.0127036
0.0126593
0.0127686
0.00803651
0.011919
0.0149626
0.0171239
0.0189187
0.0205744
0.0220817
0.0231543
0.0234729
0.0226584
0.0208486
0.0186506
0.0166457
0.0151148
0.0140885
0.0134794
0.0131877
0.0131283
0.0132419
0.00792713
0.0116844
0.0147162
0.0169064
0.0187423
0.0204374
0.0219803
0.0231076
0.0235195
0.022857
0.0212204
0.0191588
0.0172279
0.0157201
0.0146818
0.0140508
0.0137423
0.0136808
0.013814
0.00781793
0.0114546
0.0144743
0.0166919
0.0185666
0.0202984
0.0218746
0.0230533
0.0235565
0.0230457
0.021588
0.019675
0.017834
0.0163634
0.015326
0.0146876
0.014378
0.0143321
0.0145049
0.00770882
0.0112292
0.0142367
0.0164805
0.0183917
0.0201581
0.0217656
0.0229925
0.0235847
0.0232246
0.0219501
0.0201974
0.0184635
0.0170414
0.016024
0.0153976
0.0151077
0.0151007
0.0153401
0.00759972
0.0110081
0.0140033
0.0162721
0.0182183
0.0200174
0.0216548
0.0229269
0.0236055
0.0233942
0.022306
0.0207246
0.0191133
0.0177581
0.0167815
0.0161909
0.0159474
0.01601
0.0163505
0.00749058
0.0107912
0.0137739
0.0160668
0.0180465
0.0198772
0.0215436
0.0228581
0.0236209
0.0235558
0.0226561
0.0212568
0.0197791
0.0185146
0.0176057
0.0170806
0.0169181
0.01709
0.0175718
0.00738138
0.0105784
0.0135485
0.0158647
0.0178771
0.0197386
0.0214334
0.022788
0.023633
0.0237116
0.0230016
0.0217935
0.0204647
0.0193164
0.0185066
0.0180845
0.018048
0.0183818
0.0190783
0.00727215
0.0103697
0.0133272
0.015666
0.0177104
0.0196024
0.0213251
0.0227187
0.0236446
0.0238644
0.0233452
0.0223335
0.021174
0.020171
0.0194983
0.019227
0.0193733
0.0199254
0.0208169
0.00716293
0.0101648
0.0131097
0.0154709
0.017547
0.0194689
0.0212179
0.0226525
0.0236585
0.0240177
0.0236902
0.0228803
0.021913
0.0210895
0.020601
0.0205415
0.0209439
0.0218094
0.022776
0.00705379
0.00996385
0.0128963
0.0152795
0.0173873
0.0193389
0.0211133
0.0225914
0.0236778
0.0241754
0.0240407
0.0234423
0.0226912
0.0220876
0.021842
0.0220707
0.0228058
0.0239587
0.0248126
0.00694485
0.00976677
0.0126869
0.0150921
0.0172318
0.0192131
0.021013
0.0225372
0.0237056
0.0243418
0.0244005
0.0240268
0.0235207
0.0231867
0.0232583
0.0238693
0.0250479
0.0262595
0.0266532
0.00683626
0.00957361
0.0124817
0.0149089
0.0170807
0.0190922
0.0209182
0.0224918
0.0237447
0.0245209
0.0247752
0.0246429