/*--------------------------------*- C++ -*----------------------------------*\
| =========                 |                                                 |
| \\      /  F ield         | OpenFOAM: The Open Source CFD Toolbox           |
|  \\    /   O peration     | Version:  v2012                                 |
|   \\  /    A nd           | Website:  www.openfoam.com                      |
|    \\/     M anipulation  |                                                 |
\*---------------------------------------------------------------------------*/
FoamFile
{
    version     2.0;
    format      ascii;
    class       volScalarField;
    location    "618";
    object      nut;
}
// * * * * * * * * * * * * * * * * * * * * * * * * * * * * * * * * * * * * * //

dimensions      [0 2 -1 0 0 0 0];


internalField   nonuniform List<scalar> 
6057
(
0.000426173
0.000441037
0.000457256
0.000475032
0.000494615
0.000516317
0.000540525
0.000567737
0.00059859
0.000633928
0.000674876
0.000722979
0.000780406
0.00085029
0.000937313
0.00104874
0.00119635
0.00140026
0.00169698
0.00215762
0.00221087
0.00228295
0.00236016
0.00244312
0.00253257
0.0026294
0.00273473
0.00284996
0.00297685
0.00311769
0.00327548
0.00345426
0.00365954
0.00389912
0.00418435
0.00453246
0.00497078
0.00554567
0.00634321
0.00754763
0.0037091
0.00381846
0.00393476
0.00405865
0.00419098
0.00433273
0.00448512
0.00464962
0.00482803
0.0050226
0.00523611
0.00547207
0.00573489
0.00603011
0.00636453
0.00674629
0.00718422
0.00768572
0.00825044
0.00885384
0.00463591
0.00476472
0.00490077
0.00504464
0.00519697
0.00535848
0.00552997
0.00571237
0.00590668
0.00611404
0.00633567
0.00657288
0.00682698
0.00709917
0.00739024
0.00770016
0.00802728
0.00836723
0.00871184
0.00904937
0.00507203
0.00520908
0.00535319
0.00550476
0.00566424
0.00583212
0.00600884
0.00619481
0.00639035
0.0065957
0.00681087
0.00703564
0.00726938
0.00751103
0.00775892
0.00801086
0.00826436
0.00851743
0.00877045
0.00902952
0.0050707
0.00520813
0.00535251
0.00550428
0.00566392
0.0058319
0.00600869
0.00619471
0.00639029
0.00659566
0.00681084
0.00703562
0.00726937
0.00751102
0.00775892
0.00801086
0.00826435
0.00851743
0.00877045
0.00902952
0.00463201
0.00476207
0.00489898
0.00504345
0.00519617
0.00535793
0.00552961
0.00571212
0.00590651
0.00611393
0.0063356
0.00657283
0.00682695
0.00709915
0.00739023
0.00770015
0.00802727
0.00836723
0.00871184
0.00904937
0.00370299
0.00381457
0.00393216
0.00405694
0.00418983
0.00433196
0.0044846
0.00464927
0.0048278
0.00502244
0.005236
0.005472
0.00573485
0.00603007
0.00636451
0.00674627
0.00718421
0.00768571
0.00825044
0.00885384
0.00220325
0.00227884
0.00235752
0.00244144
0.00253145
0.00262865
0.00273423
0.00284962
0.00297662
0.00311753
0.00327538
0.00345419
0.00365949
0.00389908
0.00418433
0.00453244
0.00497077
0.00554566
0.00634321
0.00754763
0.000425926
0.000440892
0.000457159
0.000474966
0.00049457
0.000516285
0.000540504
0.000567721
0.00059858
0.00063392
0.000674871
0.000722976
0.000780403
0.000850288
0.000937312
0.00104874
0.00119635
0.00140026
0.00169698
0.00215762
0.000255042
0.000261318
0.0002675
0.000273626
0.000279737
0.000285869
0.000292065
0.000298364
0.000304811
0.000311449
0.000318327
0.000325493
0.000332999
0.000340899
0.00034925
0.000358113
0.000367553
0.00037764
0.000388451
0.000400075
0.00041261
0.00109037
0.00114961
0.00120776
0.00126465
0.00132013
0.0013741
0.00142654
0.0014775
0.00152712
0.00157559
0.00162319
0.00167024
0.00171715
0.00176435
0.00181233
0.0018616
0.0019126
0.00196588
0.00202187
0.00208106
0.00214392
0.00199251
0.00208694
0.00217771
0.00226496
0.0023489
0.00242978
0.00250795
0.00258379
0.00265776
0.00273036
0.00280212
0.00287361
0.00294544
0.00301826
0.00309271
0.00316944
0.00324901
0.00333186
0.00341876
0.00351025
0.00360682
0.00267294
0.00277392
0.00287045
0.00296319
0.00305276
0.00313973
0.00322469
0.0033082
0.00339081
0.00347306
0.00355552
0.00363872
0.00372324
0.00380967
0.00389858
0.00399053
0.00408594
0.00418556
0.00428992
0.00439945
0.00451459
0.00309075
0.00317986
0.00326543
0.00334846
0.00342978
0.00351014
0.00359017
0.00367046
0.00375153
0.00383386
0.00391791
0.00400409
0.00409282
0.00418451
0.00427954
0.0043783
0.00448133
0.00458893
0.0047014
0.00481911
0.00494248
0.00326184
0.0033258
0.00338785
0.00344919
0.00351078
0.00357345
0.00363787
0.00370466
0.0037743
0.00384724
0.00392382
0.00400435
0.00408913
0.00417838
0.00427228
0.00437149
0.00447587
0.00458499
0.00469848
0.00481687
0.00494073
0.00321282
0.00324031
0.00326745
0.00329552
0.00332558
0.00335856
0.00339523
0.00343623
0.00348213
0.00353336
0.00359028
0.00365314
0.0037222
0.00379776
0.00388075
0.00397209
0.00407192
0.00417564
0.00428242
0.00439351
0.00450966
0.00298959
0.00297417
0.00295944
0.00294648
0.00293622
0.00292965
0.00292751
0.00293053
0.00293936
0.00295457
0.00297651
0.00300523
0.00304064
0.00308259
0.00313164
0.00318851
0.0032525
0.00332868
0.00341563
0.00350623
0.0036011
0.0026782
0.00262436
0.00257082
0.00251771
0.00246518
0.00241345
0.00236281
0.00231379
0.00226698
0.00222405
0.0021865
0.00215515
0.00213013
0.00211071
0.002094
0.0020772
0.00206295
0.00205831
0.00207142
0.00210754
0.00215251
0.00238886
0.00231623
0.0022428
0.00216715
0.00208782
0.00200343
0.00191269
0.00181445
0.00170778
0.0015921
0.00146723
0.00133374
0.0011927
0.00104871
0.000917117
0.000800688
0.000700873
0.000618812
0.000554054
0.000502439
0.000459235
7.213e-05
6.91971e-05
6.41023e-05
6.77354e-05
7.86333e-05
0.000106335
0.000105787
9.46594e-05
0.000137562
0.000174121
0.000184934
0.000194726
0.00020375
0.000212174
0.000220113
0.000227653
0.000234863
0.000241799
0.00024851
0.000119152
0.000199162
0.000260314
0.000300859
0.000313931
0.000297509
0.000320471
0.000382589
0.000432075
0.000488645
0.000546511
0.000604889
0.000663824
0.000723468
0.000783831
0.000844813
0.000906224
0.000967814
0.0010293
0.000142992
0.000352146
0.000448999
0.000441285
0.000431918
0.000486544
0.000554605
0.000643991
0.000754383
0.0008723
0.000991622
0.00111068
0.00122871
0.00134532
0.00146008
0.00157259
0.00168243
0.00178923
0.00189269
0.000170459
0.000538681
0.000582607
0.000563715
0.000616943
0.00069116
0.000800444
0.000947903
0.00111501
0.00128669
0.0014562
0.00162036
0.00177765
0.00192743
0.00206949
0.00220392
0.00233102
0.00245121
0.00256503
0.00019764
0.00065319
0.000668956
0.00071578
0.000802747
0.000913495
0.00107596
0.001273
0.00148269
0.0016904
0.00188848
0.00207297
0.00224252
0.00239729
0.00253828
0.00266695
0.00278494
0.00289389
0.00299539
0.000221782
0.00069821
0.000735083
0.000876999
0.000998516
0.00115712
0.00136438
0.00159616
0.00183018
0.00205253
0.00225544
0.00243556
0.00259278
0.0027289
0.00284665
0.0029491
0.00303927
0.00311992
0.00319346
0.000240672
0.000704378
0.000817713
0.00104545
0.00120638
0.00140901
0.00164807
0.00189786
0.00213735
0.00235361
0.00254005
0.00269506
0.00282055
0.00292025
0.00299869
0.00306036
0.00310937
0.00314928
0.00318299
0.000254092
0.000742078
0.00091552
0.00120953
0.00141733
0.00165447
0.00191236
0.00216416
0.00239192
0.00258457
0.0027377
0.0028522
0.00293227
0.0029837
0.00301261
0.00302471
0.0030249
0.00301717
0.00300461
0.000265021
0.000807553
0.00102482
0.00136304
0.00162253
0.00188229
0.00214631
0.00238679
0.00258865
0.0027445
0.00285288
0.00291756
0.00294533
0.00294405
0.00292147
0.00288435
0.00283811
0.00278674
0.0027329
0.000274019
0.000891724
0.00113994
0.00150458
0.00181523
0.00208566
0.00234335
0.00256214
0.00272782
0.00283828
0.00289596
0.002908
0.00288405
0.0028344
0.00276849
0.00269403
0.00261649
0.00253913
0.00246326
0.00218233
0.00211365
0.00204517
0.00197602
0.00190594
0.00183503
0.00176361
0.0016919
0.00161965
0.00154583
0.00146775
0.00138545
0.00129752
0.00120056
0.00108911
0.000955226
0.000764777
0.000487746
0.000296597
0.000189765
0.000111756
0.00200277
0.00191906
0.00182962
0.00173452
0.00163467
0.00153126
0.00142613
0.00132104
0.00121709
0.00111985
0.00103118
0.000944752
0.000852805
0.000762971
0.000677916
0.000600248
0.000515785
0.000406171
0.000302491
0.000209044
9.68389e-05
0.00178725
0.00166777
0.00154057
0.00141033
0.00128303
0.0011654
0.00106461
0.000987938
0.000938955
0.000901479
0.000870773
0.000836844
0.000798225
0.000754136
0.00070148
0.000638164
0.000563575
0.00046004
0.000359413
0.000233879
8.60858e-05
0.00155529
0.0014176
0.00128958
0.00118302
0.00110886
0.00107403
0.00107692
0.00109493
0.00111199
0.00111969
0.00111317
0.00108952
0.00104589
0.00097839
0.000879341
0.000741255
0.000616676
0.000500427
0.000378559
0.000232493
9.1889e-05
0.00138377
0.00128515
0.00122909
0.0012229
0.00126036
0.00132138
0.00137455
0.00140724
0.00141749
0.00140685
0.0013752
0.00132192
0.00124633
0.00112827
0.00096307
0.000826242
0.000699892
0.000573631
0.000406589
0.000245429
9.8609e-05
0.00134315
0.00133493
0.0013816
0.00146422
0.00155279
0.00161874
0.00165289
0.00166426
0.00165415
0.00162433
0.00157444
0.00150349
0.00141047
0.00127751
0.00110216
0.000951695
0.000808261
0.000636386
0.000445899
0.00026483
0.000105134
0.00144006
0.00151873
0.00162673
0.00172947
0.0018062
0.0018503
0.00186731
0.0018649
0.00184447
0.00180575
0.00174745
0.00166809
0.00156606
0.00143999
0.0012495
0.00108051
0.000919278
0.000708369
0.000492368
0.000287537
0.00011127
0.0016188
0.00174373
0.00186142
0.00195033
0.00200754
0.00203799
0.00204711
0.00203912
0.00201423
0.0019712
0.00190848
0.00182426
0.00171653
0.00158326
0.00139883
0.00121219
0.00102088
0.000786627
0.000543852
0.000312388
0.000117003
0.00181987
0.0019542
0.00206015
0.00213359
0.00217955
0.00220378
0.00220959
0.00219906
0.00217142
0.00212538
0.00205937
0.00197153
0.00185963
0.00172116
0.00154753
0.00134556
0.00112501
0.000868906
0.000599055
0.000338924
0.000122369
0.00201036
0.00213745
0.00223103
0.002295
0.00233564
0.00235723
0.0023614
0.00234874
0.00231842
0.00226924
0.00219985
0.00210852
0.00199306
0.00185062
0.00167779
0.00147111
0.00122865
0.000953197
0.000657007
0.00036695
0.000127413
0.00218116
0.00229911
0.00238454
0.00244381
0.00248228
0.00250275
0.00250539
0.00249028
0.00245666
0.00240362
0.00233012
0.00223482
0.00211575
0.00196999
0.00179348
0.00158138
0.0013295
0.00103782
0.000716907
0.000396341
0.00013218
0.002335
0.0024463
0.00252755
0.00258513
0.00262313
0.00264282
0.00264363
0.00262545
0.00258769
0.00252979
0.00245117
0.00235099
0.00222775
0.0020787
0.00189947
0.00168405
0.00142587
0.00112139
0.000778057
0.000426989
0.000136711
0.00247652
0.00258429
0.00266429
0.00272213
0.00276041
0.00277931
0.00277789
0.00275598
0.00271317
0.00264931
0.00256438
0.00245817
0.0023298
0.002177
0.00199542
0.00177821
0.0015165
0.00120273
0.000839834
0.000458804
0.000141044
0.0026097
0.00271662
0.00279755
0.00285685
0.0028957
0.0029137
0.00290964
0.00288331
0.00283456
0.00276364
0.00267115
0.00255762
0.00242294
0.00226555
0.0020815
0.00186348
0.00160057
0.00128094
0.000901684
0.000491701
0.00014521
0.00273747
0.00284579
0.00292915
0.00299046
0.00303004
0.00304699
0.00303988
0.00300849
0.00295291
0.00287388
0.00277261
0.00265044
0.00250818
0.00234519
0.00215822
0.0019399
0.00167765
0.00135531
0.000963117
0.000525599
0.00014924
0.00286206
0.00297337
0.00305995
0.00312363
0.00316399
0.00317968
0.00316909
0.00313201
0.0030688
0.00298066
0.00286948
0.00273744
0.00258636
0.00241672
0.00222619
0.00200774
0.00174757
0.00142537
0.0010237
0.000560414
0.000153162
0.00298467
0.0031
0.0031903
0.00325651
0.00329759
0.00331176
0.00329723
0.00325386
0.00318228
0.00308415
0.00296205
0.00281905
0.00265808
0.0024808
0.00228605
0.00206744
0.00181038
0.00149079
0.00108306
0.000596057
0.000157
0.00310583
0.00322581
0.00332004
0.00338879
0.0034304
0.00344271
0.00342379
0.00337358
0.00329296
0.00318408
0.00305022
0.00289539
0.00272364
0.00253792
0.00233835
0.00211946
0.00186628
0.00155141
0.00114087
0.000632434
0.000160781
0.00322552
0.00335043
0.00344861
0.00351971
0.00356158
0.00357162
0.00354785
0.00349027
0.00340006
0.00327982
0.00313356
0.00296626
0.00278311
0.00258839
0.00238357
0.00216427
0.00191555
0.00160718
0.00119686
0.000669448
0.000164527
0.00334316
0.00347305
0.003575
0.00364817
0.00368992
0.00369726
0.00366818
0.00360279
0.00350252
0.00337048
0.00321141
0.00303125
0.00283638
0.00263237
0.00242208
0.00220234
0.00195855
0.00165813
0.00125077
0.000706986
0.000168263
0.00345759
0.00359241
0.00369789
0.00377277
0.00381401
0.00381816
0.00378334
0.00370975
0.00359911
0.003455
0.00328293
0.00308981
0.00288318
0.00266989
0.00245415
0.00223407
0.00199563
0.00170437
0.0013024
0.000744889
0.000172013
0.00356711
0.00370684
0.00381562
0.0038919
0.00393232
0.00393272
0.00389177
0.00380969
0.00368846
0.0035322
0.00334717
0.00314129
0.00292319
0.00270093
0.00248002
0.00225984
0.00202718
0.00174607
0.00135154
0.000782938
0.000175806
0.0036316
0.00381431
0.00392632
0.00400371
0.00404292
0.00403923
0.00399184
0.00390107
0.00376919
0.00360087
0.00340318
0.00318501
0.00295604
0.00272543
0.00249987
0.00228002
0.00205356
0.00178341
0.00139805
0.000820846
0.00017967
0.00355671
0.00380755
0.00402791
0.00410626
0.0041439
0.00413598
0.00408197
0.0039824
0.00383991
0.00365982
0.00345001
0.00322032
0.0029814
0.00274334
0.0025139
0.00229494
0.00207515
0.00181661
0.00144175
0.000858255
0.00018364
0.00348407
0.00373
0.00397495
0.00419763
0.0042336
0.00422138
0.00416063
0.00405223
0.00389932
0.00370791
0.00348678
0.00324665
0.00299898
0.00275463
0.0025223
0.00230492
0.0020923
0.00184586
0.00148248
0.000894763
0.000187756
0.00342036
0.00366146
0.00389969
0.00413475
0.00431045
0.00429395
0.00422643
0.00410922
0.00394617
0.00374413
0.00351272
0.00326351
0.00300858
0.00275936
0.0025253
0.00231033
0.00210537
0.00187139
0.00152003
0.000929648
0.000192067
0.00336692
0.00360515
0.00384176
0.00407407
0.00427823
0.00435244
0.00427805
0.00415211
0.00397937
0.00376758
0.00352725
0.0032706
0.00301015
0.00275763
0.00252318
0.00231152
0.00211471
0.0018934
0.00155432
0.000961811
0.000196636
0.00332681
0.00356321
0.00380102
0.00403844
0.00424905
0.00437726
0.00431437
0.00417978
0.00399798
0.00377762
0.00352998
0.0032678
0.00300374
0.00274966
0.00251624
0.00230887
0.00212065
0.00191227
0.00158666
0.000993303
0.00020136
0.00330013
0.00353621
0.0037768
0.00402489
0.00424879
0.00438755
0.00433443
0.0041913
0.00400131
0.00377385
0.00352079
0.00325518
0.00298982
0.00273649
0.00250548
0.00230335
0.0021244
0.00192965
0.00161827
0.00102539
0.000206169
0.00328475
0.0035216
0.00376633
0.00402765
0.00427046
0.00442436
0.00433833
0.00418788
0.00399124
0.00375852
0.00350198
0.00323477
0.00296956
0.00271799
0.00249052
0.00229459
0.0021257
0.00194524
0.00164916
0.00105817
0.000211082
0.00327761
0.00351545
0.00376534
0.00404335
0.00430742
0.00443226
0.00432803
0.00417099
0.00396891
0.0037324
0.00347399
0.00320673
0.00294305
0.00269441
0.00247154
0.00228272
0.00212462
0.00195906
0.00167922
0.00109159
0.00021608
0.00327456
0.00351349
0.00377085
0.00406953
0.00436074
0.00441572
0.00430457
0.00414164
0.0039352
0.00369625
0.00343743
0.00317155
0.00291066
0.00266606
0.00244878
0.00226794
0.00212125
0.00197107
0.00170834
0.00112554
0.000221156
0.00327296
0.00351246
0.00377934
0.00410196
0.00442342
0.00438654
0.00426876
0.00410064
0.00389089
0.00365082
0.00339297
0.00312977
0.00287281
0.00263325
0.00242248
0.00225041
0.00211567
0.00198112
0.0017362
0.00115995
0.000226307
0.00327112
0.00351065
0.00379004
0.0041361
0.00441437
0.00434514
0.00422125
0.00404872
0.00383676
0.00359683
0.00334124
0.00308187
0.00282984
0.00259621
0.0023928
0.00223027
0.00210786
0.00198897
0.00176236
0.0011945
0.000231504
0.00326892
0.00350911
0.00380332
0.00417186
0.00436833
0.00429214
0.00416269
0.0039866
0.00377353
0.00353495
0.00328276
0.0030282
0.00278193
0.00255504
0.00235983
0.00220757
0.00209776
0.00199426
0.00178611
0.00122872
0.000236707
0.00326642
0.00350866
0.00381898
0.0042097
0.0043111
0.00422825
0.0040938
0.00391502
0.0037019
0.00346577
0.00321792
0.00296894
0.00272912
0.0025097
0.00232355
0.00218228
0.00208517
0.00199642
0.00180645
0.00126189
0.000241845
0.0032616
0.0035071
0.00383202
0.00423971
0.00424361
0.0041543
0.00401539
0.00383478
0.00362257
0.00338975
0.00314692
0.00290404
0.00267123
0.00246002
0.00228384
0.00215429
0.00206977
0.00199463
0.00182194
0.00129301
0.00024682
0.00324538
0.00350016
0.00383708
0.00420929
0.00416672
0.00407123
0.00392845
0.00374673
0.00353617
0.0033072
0.00306972
0.00283324
0.00260788
0.00240566
0.00224046
0.00212337
0.0020511
0.0019877
0.00183049
0.00132077
0.000251504
0.00322273
0.0034825
0.0038316
0.00413171
0.00408159
0.00398028
0.00383411
0.0036518
0.00344322
0.00321821
0.00298604
0.00275601
0.00253852
0.0023462
0.00219317
0.00208923
0.00202854
0.00197399
0.00165682
0.00134374
0.000255737
0.00319978
0.00346163
0.00380727
0.00404735
0.00398981
0.00388289
0.00373355
0.00355073
0.00334396
0.00312251
0.00289527
0.00267161
0.00246249
0.00228123
0.00214171
0.00205159
0.00200138
0.00180167
0.00148494
0.00134274
0.000259291
0.00317741
0.00343761
0.0037721
0.00395737
0.00389315
0.00378048
0.00362766
0.00344379
0.00323808
0.00301936
0.00279643
0.00257911
0.00237916
0.00221051
0.00208604
0.00201029
0.00196901
0.00158796
0.0013596
0.00126003
0.000261872
0.00315553
0.00340917
0.00372602
0.00386374
0.00379295
0.00367389
0.00351654
0.00333041
0.00312446
0.00290738
0.00268822
0.00247757
0.00228815
0.00213424
0.00202633
0.00196536
0.00179255
0.00142422
0.00126652
0.00119569
0.000263617
0.0031348
0.00337665
0.00367018
0.00376886
0.00368942
0.00356275
0.00339905
0.00320888
0.00300116
0.0027847
0.00256921
0.00236633
0.0021897
0.00205349
0.0019636
0.00191743
0.00158499
0.00130139
0.0011978
0.0011455
0.000264184
0.00311562
0.00334308
0.00361101
0.00367274
0.00358173
0.00344469
0.00327271
0.00307648
0.00286561
0.00264934
0.00243837
0.00224554
0.00208528
0.00196862
0.00189924
0.00184643
0.00143168
0.00121668
0.00115617
0.00113462
0.000263677
0.00309655
0.003312
0.00355518
0.00357393
0.00346739
0.00331652
0.00313365
0.00292995
0.00271524
0.00249993
0.00229591
0.00211705
0.00197844
0.00188456
0.00183626
0.00164066
0.00132407
0.00117062
0.00114514
0.00115526
0.000262238
0.00307487
0.00327742
0.00350576
0.00346935
0.00334231
0.00317411
0.00297811
0.00276605
0.00254853
0.00233678
0.00214426
0.0019853
0.00187126
0.00180453
0.00177713
0.00149011
0.00126023
0.00116274
0.00116745
0.00119556
0.000259919
0.00305348
0.00324534
0.00345351
0.00335255
0.00320064
0.00301275
0.00280292
0.00258331
0.00236568
0.00216287
0.00198909
0.0018576
0.00177365
0.00173371
0.00168967
0.00138319
0.00123805
0.0011956
0.00122836
0.00126078
0.000256206
0.00303473
0.00322174
0.00334945
0.00321544
0.00303608
0.00282818
0.00260613
0.00238259
0.00217081
0.0019852
0.00183983
0.0017413
0.00168959
0.00167254
0.00149051
0.00131669
0.00126099
0.00127562
0.00132438
0.00127505
0.000250737
0.00300818
0.00320697
0.00322075
0.00304999
0.0028432
0.00261783
0.00238825
0.00216814
0.00197231
0.00181494
0.00170547
0.00164419
0.00162066
0.00154994
0.00135851
0.00130753
0.00133929
0.00140972
0.00146075
0.00123232
0.000243339
0.00298078
0.00318956
0.00305605
0.00284907
0.0026187
0.00238203
0.00215375
0.00194896
0.00178246
0.00166421
0.0015959
0.00156584
0.00155811
0.00136302
0.00131304
0.00137457
0.00148094
0.00158263
0.00159644
0.00118168
0.000234551
0.00295107
0.00305544
0.00284663
0.00260892
0.00236305
0.00212576
0.00191272
0.00173898
0.00161487
0.00154274
0.0015073
0.0014546
0.00134069
0.00129861
0.00136133
0.0015078
0.00156136
0.00160879
0.00154108
0.00112026
0.000224627
0.00291081
0.00283706
0.00258873
0.00233073
0.00208223
0.0018606
0.00168134
0.00155375
0.00148065
0.00144393
0.00126619
0.00118603
0.00121275
0.00131963
0.0013878
0.00143363
0.00150409
0.00155355
0.0014711
0.00104986
0.000213741
0.00282149
0.00256038
0.00228501
0.00202216
0.00178979
0.00160519
0.00147719
0.00140568
0.00128275
0.00108777
0.00104285
0.00108493
0.00118495
0.001258
0.0012965
0.00136897
0.00145246
0.00148813
0.00138352
0.000968165
0.000201788
0.0025285
0.00222887
0.00194488
0.00169908
0.00150698
0.00138019
0.00131398
0.00106398
0.000932998
0.000921916
0.000971865
0.00104158
0.00111655
0.00115308
0.00122858
0.00132086
0.00138926
0.00138912
0.00125009
0.000836743
0.000190406
0.00217196
0.00185493
0.00158713
0.00138631
0.0012588
0.00114206
0.000876368
0.000807368
0.000827272
0.000874099
0.000898709
0.000899041
0.00093952
0.00106545
0.00116498
0.00123891
0.001264
0.00122875
0.00106454
0.000686226
0.000179193
0.00176717
0.00145902
0.00124255
0.0011147
0.000865294
0.000718097
0.000710573
0.000762318
0.000791414
0.000750577
0.000688073
0.000671912
0.000750114
0.000927296
0.00102578
0.00106805
0.00107175
0.00101447
0.000849505
0.00054115
0.000167628
0.00133111
0.00107757
0.000948288
0.000655434
0.000597224
0.000646604
0.000723171
0.000731965
0.000604656
0.000499126
0.000484593
0.000534029
0.000632211
0.000783059
0.000831532
0.00085058
0.000839022
0.000776818
0.000639381
0.000417243
0.000155181
0.00090053
0.000685518
0.000475785
0.000497887
0.00059808
0.000689812
0.000651331
0.000516307
0.000385546
0.00035689
0.000392231
0.000455078
0.000528985
0.000579897
0.000612001
0.000620843
0.000606951
0.000559197
0.000466396
0.000323554
0.000132079
0.000518946
0.000302177
0.000387516
0.000508884
0.000604682
0.000524655
0.000370954
0.000249298
0.00021022
0.000217569
0.000242482
0.000275562
0.000312708
0.000349845
0.000380958
0.00039763
0.000398883
0.000381432
0.000337453
0.000256507
0.00011192
0.000142704
0.000112351
0.000108953
0.000103628
9.36465e-05
8.03717e-05
6.9371e-05
6.76823e-05
7.13344e-05
7.64352e-05
8.1587e-05
8.64617e-05
9.10544e-05
9.54872e-05
9.99767e-05
0.000104857
0.000109255
0.000112139
0.000102652
0.000105775
8.84495e-05
0.000281641
0.000984529
0.00126072
0.001642
0.00199879
0.00226873
0.00250853
0.00269461
0.00281681
0.0028757
0.0028798
0.00284039
0.00277063
0.00268344
0.0025897
0.00249712
0.0024099
0.00232915
0.00225391
0.000287772
0.00108127
0.00138171
0.00177217
0.0021352
0.00241889
0.00263234
0.00277957
0.0028549
0.00286371
0.00281893
0.00273718
0.002635
0.00252683
0.00242282
0.00232778
0.00224177
0.0021617
0.00208329
0.000292834
0.0011844
0.00150463
0.00190001
0.00225342
0.00253643
0.00271801
0.00282364
0.00285265
0.00281593
0.00273125
0.00261928
0.00249875
0.00238292
0.0022778
0.00218255
0.00209183
0.00199896
0.00189838
0.000297109
0.00129523
0.00163237
0.00203196
0.00237658
0.00262403
0.0027709
0.00283501
0.00282112
0.00274573
0.00263144
0.00250126
0.00237321
0.00225623
0.00214999
0.00204784
0.00194133
0.00182408
0.00169423
0.000300741
0.00140597
0.00176799
0.00217388
0.00249107
0.00268542
0.00279696
0.00282183
0.00277043
0.00266461
0.00253069
0.00239196
0.00226253
0.00214495
0.00203285
0.00191678
0.00179011
0.00165271
0.00151244
0.000303598
0.00144525
0.00191658
0.00230872
0.00255761
0.00272476
0.00280211
0.00279161
0.00270921
0.00258147
0.00243666
0.00229575
0.00216684
0.00204595
0.00192353
0.00179251
0.00165408
0.00151991
0.00140927
0.00030578
0.00147673
0.00204125
0.00237369
0.00260605
0.00274617
0.00279184
0.00275086
0.00264444
0.00250274
0.00235384
0.00221404
0.00208469
0.00195742
0.00182421
0.00168609
0.0015569
0.0014595
0.00141669
0.000307358
0.00150045
0.00209323
0.00242404
0.00263922
0.00275359
0.00277102
0.00270502
0.00258151
0.00243274
0.00228438
0.00214654
0.0020147
0.0018799
0.00174101
0.00161163
0.00151725
0.00148324
0.00152104
0.000308392
0.00151709
0.00213371
0.0024617
0.00265988
0.00275061
0.00274384
0.00265845
0.00252429
0.00237401
0.00222886
0.00209228
0.00195625
0.00181588
0.00168133
0.00157915
0.0015389
0.0015759
0.0016801
0.000308941
0.00152738
0.00216408
0.00248856
0.00267061
0.00274036
0.0027137
0.00261446
0.00247541
0.00232773
0.00218683
0.00205013
0.00190947
0.00176838
0.00165039
0.00159004
0.00161077
0.00170926
0.00185651
0.000309062
0.00153208
0.00218567
0.00250642
0.00267371
0.0027255
0.00268331
0.00257544
0.00243637
0.00229408
0.00215733
0.00201913
0.00187489
0.00173965
0.00164896
0.0016377
0.0017152
0.00185951
0.00202829
0.000308811
0.00153194
0.00219972
0.00251692
0.00267119
0.00270815
0.00265469
0.00254294
0.00240779
0.00227254
0.00213914
0.00199841
0.00185283
0.00173005
0.00167371
0.00171171
0.00183635
0.00201056
0.00218705
0.000308236
0.00152764
0.00220739
0.00252151
0.0026647
0.00268999
0.00262928
0.00251781
0.00238959
0.00226206
0.00213082
0.00198711
0.00184289
0.00173805
0.00171894
0.00180174
0.00196313
0.00215511
0.00233299
0.000307386
0.00151986
0.00220969
0.00252144
0.00265561
0.00267229
0.00260797
0.00250029
0.0023811
0.002261
0.00213055
0.00198413
0.00184418
0.00176089
0.00177861
0.00190018
0.00208899
0.00229098
0.00246855
0.000306304
0.00150918
0.00220756
0.00251777
0.00264499
0.00265591
0.00259122
0.00249011
0.00238098
0.00217799
0.00201675
0.00198773
0.0018553
0.00179539
0.00184747
0.00200213
0.00221097
0.00241891
0.00259657
0.000305028
0.00149614
0.00220178
0.00251139
0.00263365
0.00264145
0.00257915
0.00248657
0.00238723
0.00201652
0.00191082
0.00199665
0.00187446
0.00183856
0.00192197
0.00210406
0.00232772
0.00254029
0.00271933
0.000303592
0.0014812
0.00219303
0.00250299
0.0026222
0.00262922
0.00257154
0.00248858
0.00223868
0.00190269
0.00183812
0.00195886
0.00189978
0.00188778
0.0019993
0.00220406
0.0024395
0.00265662
0.0028385
0.000302027
0.00146476
0.00218191
0.00249316
0.00261106
0.00261936
0.002568
0.00249488
0.00210111
0.00182332
0.00178747
0.00191469
0.00192981
0.00194089
0.00207766
0.00230167
0.00254695
0.00276904
0.00295508
0.000300357
0.00144718
0.00216888
0.00248232
0.00260052
0.00261183
0.002568
0.00250427
0.00200219
0.00176739
0.00175207
0.00188309
0.00196343
0.00199622
0.00215614
0.00239693
0.00265064
0.00287823
0.00306946
0.000298605
0.00142875
0.00215437
0.00247082
0.00259075
0.00260649
0.00257085
0.00241067
0.00193117
0.00172873
0.00172805
0.00186142
0.0019997
0.00205286
0.00223363
0.00248907
0.00275066
0.00298425
0.00318137
0.00029679
0.0014097
0.00213869
0.00245892
0.00258183
0.00260311
0.00257586
0.00231518
0.00188033
0.00170252
0.00171252
0.00184707
0.00203763
0.0021099
0.0023089
0.00257712
0.00284628
0.00308631
0.00328986
0.000294926
0.00139025
0.00212212
0.0024468
0.00257377
0.00260144
0.00258248
0.00224448
0.00184448
0.00168568
0.0017038
0.00183837
0.00202468
0.0021661
0.00238059
0.00265958
0.00290441
0.00315868
0.00339318
0.000293026
0.00137056
0.00210488
0.0024346
0.00256653
0.00260121
0.00259029
0.00219302
0.00181998
0.00167623
0.0017001
0.00183357
0.00201321
0.00219835
0.00239974
0.0026223
0.00285502
0.00310021
0.00336139
0.000291102
0.00135076
0.00208712
0.0024224
0.00256006
0.00260216
0.00259896
0.0021562
0.00180431
0.00167267
0.00170006
0.00183101
0.00200385
0.00218158
0.00236893
0.00257723
0.00280132
0.00303875
0.00329246
0.000289162
0.00133097
0.00206902
0.00241025
0.00255427
0.00260408
0.00260822
0.00213088
0.0017957
0.00167375
0.00170273
0.00182946
0.00199482
0.00216265
0.00233744
0.00253417
0.00274909
0.0029797
0.00322751
0.000287211
0.00131125
0.00205067
0.0023982
0.00254908
0.00260674
0.00261788
0.00211489
0.00179294
0.00167854
0.00170759
0.00182888
0.00198626
0.00214483
0.00230902
0.00249508
0.00270139
0.00292593
0.00316869
0.000285254
0.00129169
0.00203216
0.00238625
0.00254437
0.00260996
0.00262776
0.00210663
0.00179512
0.00168639
0.00171435
0.00182958
0.00197887
0.00212895
0.002284
0.00246093
0.00266044
0.00288049
0.00311933
0.000283295
0.00127231
0.00201354
0.00237439
0.00254007
0.00261357
0.00262437
0.00210492
0.00180157
0.0016968
0.00172281
0.0018317
0.00197318
0.0021155
0.00226273
0.00243239
0.00262712
0.00284461
0.00308157
0.00028134
0.00125312
0.00199487
0.00236263
0.00253606
0.0026174
0.00261489
0.00210879
0.00181173
0.00170946
0.00173287
0.00183535
0.00196949
0.00210492
0.00224561
0.00240975
0.00260148
0.0028182
0.00305523
0.000279393
0.00123416
0.00197618
0.00235093
0.00253227
0.00262134
0.00261169
0.0021175
0.00182513
0.00172419
0.00174447
0.00184061
0.00196801
0.00209742
0.00223277
0.00239287
0.00258303
0.00280035
0.0030389
0.000277453
0.00121545
0.00195747
0.00233927
0.00252862
0.00262529
0.00261396
0.0021304
0.0018415
0.00174093
0.00175766
0.00184756
0.00196883
0.00209305
0.00222409
0.00238134
0.00257098
0.0027897
0.00303053
0.000275519
0.001197
0.0019388
0.00232767
0.00252504
0.00262912
0.0026205
0.00214671
0.00186049
0.00175977
0.00177275
0.00185643
0.00197214
0.00209191
0.00221943
0.00237469
0.00256451
0.00278471
0.00302682
0.00027363
0.00117814
0.00191964
0.00231575
0.00252127
0.00263267
0.00263055
0.00216594
0.0018815
0.00177998
0.00178966
0.00186799
0.00197871
0.00209463
0.00221938
0.00237288
0.00256227
0.00278302
0.0030255
0.000271782
0.00115882
0.00190002
0.00230351
0.00251727
0.00263588
0.00264362
0.00218778
0.00190439
0.00180149
0.00180804
0.00188179
0.00198866
0.00210155
0.0022238
0.00237518
0.00256326
0.00278339
0.00302505
0.000269967
0.00113921
0.00187998
0.00229093
0.00251299
0.00263871
0.00265921
0.00221199
0.00192905
0.0018243
0.00182787
0.00189768
0.00200169
0.0021123
0.0022322
0.00238094
0.00256675
0.00278506
0.00302477
0.000268179
0.00111942
0.00185954
0.00227798
0.00250836
0.00264112
0.00267676
0.0022383
0.0019554
0.00184829
0.00184909
0.00191571
0.00201751
0.00212647
0.00224412
0.00238969
0.00257218
0.00278745
0.00302404
0.000266412
0.00109956
0.00183869
0.00226464
0.00250336
0.00264308
0.00269593
0.00226643
0.00198338
0.00187347
0.00187164
0.00193568
0.00203585
0.00214367
0.0022592
0.00240102
0.00257899
0.00278962
0.00302169
0.000264662
0.00107971
0.00181744
0.00225088
0.00249792
0.00264456
0.00271633
0.00229609
0.00201286
0.00189978
0.00189545
0.00195743
0.00205643
0.00216361
0.00227714
0.00241469
0.00258681
0.00279103
0.00301672
0.000262925
0.00105988
0.00179582
0.00223668
0.002492
0.00264551
0.0027261
0.00232695
0.00204374
0.00192716
0.00192044
0.00198077
0.002079
0.00218603
0.00229784
0.00243077
0.00259585
0.00279229
0.00300459
0.000261196
0.0010401
0.00177385
0.00222201
0.00248559
0.00264589
0.00273171
0.00235859
0.00207578
0.0019555
0.00194651
0.00200557
0.00210334
0.00221083
0.00232138
0.0024496
0.00260739
0.00279222
0.002986
0.000259471
0.0010204
0.00175154
0.00220686
0.00247864
0.0026457
0.00273678
0.00239048
0.00210868
0.00198468
0.00197339
0.00203169
0.00212931
0.00223793
0.00234796
0.00247204
0.00262218
0.00278298
0.0029683
0.000257748