/*--------------------------------*- C++ -*----------------------------------*\
| =========                 |                                                 |
| \\      /  F ield         | OpenFOAM: The Open Source CFD Toolbox           |
|  \\    /   O peration     | Version:  v2012                                 |
|   \\  /    A nd           | Website:  www.openfoam.com                      |
|    \\/     M anipulation  |                                                 |
\*---------------------------------------------------------------------------*/
FoamFile
{
    version     2.0;
    format      ascii;
    class       volScalarField;
    location    "618";
    object      p;
}
// * * * * * * * * * * * * * * * * * * * * * * * * * * * * * * * * * * * * * //

dimensions      [0 2 -2 0 0 0 0];


internalField   nonuniform List<scalar> 
6057
(
0.315167
0.315665
0.316132
0.316574
0.316996
0.317403
0.3178
0.318189
0.318572
0.31895
0.319325
0.319698
0.32007
0.320446
0.320827
0.321213
0.321611
0.322103
0.322931
0.324163
0.315186
0.315687
0.316157
0.3166
0.317025
0.317435
0.317835
0.318228
0.318616
0.319001
0.319384
0.319765
0.320147
0.320532
0.320922
0.321307
0.321689
0.322108
0.322616
0.323107
0.315186
0.315685
0.31615
0.316589
0.317009
0.317415
0.317812
0.318203
0.318591
0.318975
0.319358
0.31974
0.320125
0.320513
0.320895
0.321269
0.321637
0.322011
0.322363
0.322546
0.315228
0.315716
0.31617
0.316598
0.317008
0.317407
0.317798
0.318184
0.318568
0.31895
0.319331
0.319712
0.320095
0.320476
0.320848
0.321212
0.321568
0.321913
0.322199
0.322307
0.315319
0.315788
0.316223
0.316634
0.317031
0.317419
0.317802
0.318183
0.318563
0.318942
0.319321
0.319701
0.320081
0.32046
0.32083
0.32119
0.321538
0.321865
0.322119
0.322204
0.315463
0.315897
0.316307
0.316694
0.317074
0.317449
0.317823
0.318197
0.318572
0.318948
0.319325
0.319703
0.320083
0.320461
0.320831
0.321191
0.321538
0.321865
0.32212
0.322204
0.315661
0.316043
0.316418
0.316775
0.317133
0.317493
0.317856
0.318224
0.318595
0.318968
0.319343
0.31972
0.3201
0.320479
0.320851
0.321214
0.321569
0.321914
0.3222
0.322307
0.315926
0.316223
0.316553
0.316871
0.317204
0.317548
0.317903
0.318264
0.318632
0.319003
0.319377
0.319753
0.320133
0.320518
0.320899
0.321271
0.321639
0.322012
0.322364
0.322547
0.316304
0.316433
0.31669
0.31696
0.317268
0.317598
0.317945
0.318302
0.318666
0.319035
0.319406
0.31978
0.320157
0.320539
0.320926
0.32131
0.321691
0.322109
0.322617
0.323108
0.31678
0.316629
0.316731
0.316965
0.317254
0.317574
0.317914
0.318265
0.318622
0.318984
0.319348
0.319713
0.32008
0.320452
0.320832
0.321216
0.321613
0.322104
0.322933
0.324164
0.418072
0.398373
0.380985
0.365888
0.353017
0.342259
0.33347
0.326476
0.321093
0.317123
0.314359
0.312594
0.311627
0.311266
0.311339
0.31171
0.312243
0.312851
0.313471
0.314071
0.314636
0.417732
0.398035
0.380627
0.365501
0.352599
0.341815
0.333006
0.326001
0.320616
0.316658
0.313923
0.312201
0.311284
0.310986
0.311132
0.311561
0.312154
0.312807
0.313456
0.314073
0.314649
0.414567
0.395075
0.377867
0.362937
0.350228
0.339638
0.331026
0.324221
0.319036
0.315277
0.312743
0.311224
0.3105
0.310381
0.310691
0.311266
0.311978
0.31272
0.313421
0.314061
0.314647
0.408799
0.389659
0.372815
0.358259
0.345934
0.335733
0.327515
0.321105
0.316312
0.312938
0.310786
0.309644
0.309274
0.309474
0.310067
0.310884
0.311788
0.312666
0.313439
0.314102
0.314692
0.400368
0.381743
0.365447
0.351463
0.339727
0.330125
0.32251
0.316704
0.312503
0.309702
0.308102
0.307522
0.307674
0.308313
0.309307
0.310463
0.31163
0.312691
0.31355
0.314218
0.314794
0.389283
0.371348
0.355796
0.342591
0.331653
0.32286
0.316063
0.311075
0.307656
0.30559
0.30471
0.304887
0.305716
0.30692
0.308457
0.310056
0.31156
0.312861
0.313814
0.314428
0.314951
0.375607
0.358547
0.343944
0.331709
0.321746
0.31395
0.308166
0.304173
0.301666
0.300495
0.300619
0.30177
0.303506
0.305511
0.307657
0.309783
0.311699
0.313291
0.314311
0.314724
0.315142
0.359489
0.343487
0.330008
0.318877
0.310066
0.303505
0.298941
0.296147
0.294828
0.294811
0.296043
0.29829
0.301147
0.304179
0.30704
0.309726
0.312068
0.313896
0.314948
0.315077
0.315335
0.341322
0.32657
0.314415
0.304682
0.297252
0.291985
0.288668
0.287069
0.286929
0.288061
0.290424
0.293802
0.297748
0.301715
0.305445
0.308905
0.311785
0.313979
0.315727
0.316236
0.315304
0.321952
0.308696
0.298068
0.289868
0.283907
0.279999
0.277977
0.277658
0.278786
0.281095
0.284676
0.289322
0.294599
0.30014
0.305671
0.310811
0.315016
0.317955
0.320417
0.319996
0.312371
0.746305
0.744912
0.743829
0.743959
0.744244
0.743944
0.742154
0.734976
0.719144
0.696485
0.669783
0.640724
0.610401
0.579666
0.549202
0.519576
0.491262
0.46468
0.44018
0.745448
0.743388
0.742879
0.743892
0.744892
0.744766
0.742027
0.732562
0.715578
0.693508
0.667564
0.639113
0.609242
0.57883
0.548591
0.519117
0.490902
0.464371
0.439856
0.745079
0.742756
0.742576
0.743801
0.744462
0.742726
0.736888
0.725044
0.707613
0.685912
0.66066
0.632942
0.603721
0.573853
0.54406
0.514954
0.48705
0.460785
0.43649
0.74636
0.743747
0.743323
0.743377
0.741873
0.737255
0.728565
0.715197
0.697419
0.675782
0.650951
0.623801
0.595163
0.565826
0.536497
0.507797
0.480261
0.45434
0.430381
0.749571
0.746439
0.744654
0.742366
0.737893
0.730284
0.719188
0.704342
0.68581
0.663894
0.639145
0.612262
0.583969
0.554995
0.526025
0.497683
0.470518
0.444994
0.421472
0.753491
0.749468
0.745381
0.740165
0.732521
0.72209
0.70872
0.692247
0.672666
0.650179
0.625205
0.598307
0.570126
0.541337
0.512612
0.484578
0.457794
0.432734
0.40976
0.756415
0.750816
0.744287
0.73603
0.725356
0.712343
0.696831
0.678708
0.657935
0.634655
0.609195
0.582025
0.553724
0.52494
0.496336
0.46855
0.44215
0.417616
0.395305
0.756748
0.749259
0.740569
0.729519
0.716194
0.700896
0.683416
0.663672
0.64162
0.61737
0.591192
0.563506
0.534861
0.505897
0.47729
0.449694
0.423692
0.399761
0.378243
0.753244
0.744189
0.733769
0.720426
0.704924
0.687649
0.668379
0.647065
0.623679
0.59832
0.571231
0.542817
0.51363
0.484332
0.455632
0.428215
0.402675
0.379478
0.358931
0.746175
0.73558
0.723768
0.708684
0.691458
0.67249
0.651618
0.628814
0.60408
0.577515
0.54937
0.520067
0.490202
0.460492
0.431705
0.404563
0.379664
0.357444
0.338145
0.302401
0.291063
0.282295
0.275835
0.271435
0.268877
0.267995
0.268624
0.270492
0.273363
0.277221
0.281984
0.287329
0.292866
0.298016
0.302317
0.305827
0.308917
0.310996
0.308083
0.297167
0.285149
0.276195
0.269609
0.265084
0.26237
0.261274
0.261674
0.26347
0.266416
0.270255
0.274856
0.280238
0.28608
0.291867
0.296873
0.300779
0.303897
0.3065
0.307523
0.305346
0.300953
0.271914
0.265209
0.26052
0.25758
0.256193
0.256204
0.25749
0.25996
0.263389
0.267433
0.272109
0.277456
0.283175
0.28892
0.294171
0.298503
0.301824
0.304129
0.304797
0.303293
0.300926
0.26236
0.257477
0.25424
0.252427
0.251861
0.2524
0.25394
0.256457
0.259882
0.264032
0.268773
0.274014
0.279555
0.285085
0.290236
0.29471
0.298293
0.300769
0.301751
0.301076
0.299719
0.255465
0.251801
0.249387
0.248064
0.247742
0.248373
0.249933
0.252409
0.255736
0.259813
0.264527
0.269733
0.275222
0.280696
0.285844
0.290407
0.294154
0.296832
0.29824
0.298342
0.297635
0.249936
0.246881
0.244794
0.243623
0.243361
0.244007
0.245555
0.247993
0.251255
0.255252
0.259878
0.264989
0.27038
0.275775
0.280899
0.285526
0.289427
0.292356
0.294196
0.294932
0.294661
0.244845
0.242049
0.240088
0.238976
0.238736
0.239376
0.240892
0.243266
0.246444
0.250342
0.254856
0.259845
0.26512
0.270426
0.275523
0.28021
0.284253
0.287417
0.289623
0.290826
0.290833
0.239801
0.237127
0.235231
0.234152
0.233917
0.234537
0.236003
0.238299
0.241376
0.245159
0.249546
0.254403
0.259555
0.264776
0.269843
0.274567
0.278717
0.282066
0.28455
0.286071
0.286252
0.234706
0.23211
0.230264
0.229209
0.228972
0.229559
0.230965
0.233174
0.23614
0.239795
0.244046
0.248766
0.253792
0.258924
0.263949
0.268683
0.272901
0.276378
0.279045
0.280762
0.281051
0.229575
0.227049
0.225251
0.224216
0.223971
0.224521
0.22586
0.227974
0.230822
0.234343
0.23845
0.243027
0.247923
0.252956
0.257928
0.262646
0.266889
0.27044
0.273206
0.275023
0.275376
0.224461
0.222007
0.220257
0.219242
0.218987
0.219495
0.220764
0.222778
0.225504
0.228884
0.232842
0.23727
0.242031
0.246956
0.251856
0.256533
0.260767
0.264342
0.267141
0.268993
0.269377
0.219423
0.217045
0.215343
0.214348
0.214083
0.214548
0.215744
0.217656
0.220255
0.223492
0.227294
0.231568
0.236186
0.240992
0.245802
0.250417
0.254614
0.258175
0.260962
0.262804
0.263197
0.214513
0.212213
0.210563
0.209589
0.209313
0.209736
0.210858
0.212669
0.215139
0.218228
0.221873
0.225987
0.230455
0.23513
0.239836
0.24437
0.24851
0.25203
0.254775
0.256576
0.256965
0.209776
0.207557
0.205959
0.205009
0.204725
0.205107
0.206157
0.207866
0.210209
0.21315
0.216634
0.220585
0.224897
0.229433
0.234022
0.238462
0.242529
0.24599
0.248675
0.25042
0.2508
0.205248
0.203112
0.20157
0.200645
0.200356
0.2007
0.20168
0.203289
0.205507
0.208302
0.211626
0.215412
0.219565
0.223955
0.228419
0.232756
0.236739
0.240132
0.24275
0.244432
0.244802
0.200957
0.198908
0.197424
0.196527
0.196235
0.196544
0.197459
0.198973
0.20107
0.203722
0.206889
0.210513
0.214505
0.218747
0.22308
0.227309
0.231204
0.234524
0.237076
0.238696
0.239059
0.196926
0.194965
0.193542
0.192677
0.192385
0.192664
0.193518
0.194943
0.196924
0.199441
0.202457
0.205921
0.209756
0.21385
0.218053
0.222172
0.225979
0.229228
0.23172
0.233282
0.233647
0.193171
0.191301
0.189941
0.18911
0.188822
0.189075
0.189875
0.191217
0.193092
0.19548
0.198354
0.201667
0.20535
0.209302
0.213377
0.21739
0.221112
0.224296
0.22674
0.228253
0.228634
0.189704
0.187926
0.186632
0.185837
0.185557
0.185789
0.18654
0.187809
0.189586
0.191857
0.194599
0.197772
0.201314
0.205131
0.209087
0.213001
0.216647
0.219775
0.222182
0.223659
0.224071
0.186533
0.184849
0.183621
0.182865
0.182597
0.182812
0.183523
0.184725
0.186416
0.188582
0.191206
0.194252
0.197666
0.201362
0.205211
0.209037
0.212619
0.215702
0.218089
0.219542
0.220006
0.183666
0.182075
0.180914
0.1802
0.179945
0.18015
0.180825
0.181972
0.183587
0.185662
0.188182
0.191119
0.194422
0.198012
0.20177
0.205525
0.209058
0.212113
0.214498
0.215946
0.216479
0.181113
0.179614
0.178519
0.177844
0.177606
0.177803
0.17845
0.179549
0.181101
0.183099
0.185533
0.188377
0.191589
0.195095
0.198781
0.202485
0.20599
0.209037
0.211446
0.212912
0.213526
0.17885
0.177463
0.176442
0.175805
0.17558
0.175771
0.176395
0.177456
0.178956
0.180892
0.183257
0.18603
0.189173
0.192618
0.196257
0.199934
0.203436
0.2065
0.20896
0.210463
0.211169
0.176857
0.175584
0.174663
0.174083
0.17387
0.174054
0.174658
0.175688
0.177148
0.179039
0.181354
0.184078
0.187175
0.190586
0.194207
0.197885
0.201412
0.204517
0.207048
0.208594
0.209428
0.175168
0.173973
0.173142
0.172649
0.172472
0.172648
0.173232
0.174238
0.175671
0.177532
0.179818
0.182515
0.185595
0.189001
0.192636
0.196351
0.199936
0.20311
0.205719
0.20732
0.208364
0.173804
0.172669
0.17189
0.171465
0.171351
0.171542
0.172108
0.173099
0.174516
0.176364
0.178641
0.181338
0.184429
0.187863
0.191549
0.19534
0.199025
0.202312
0.205058
0.206838
0.208054
0.172752
0.171672
0.170933
0.170543
0.170477
0.170702
0.171271
0.172256
0.173673
0.175526
0.177816
0.180538
0.183672
0.187171
0.190948
0.194859
0.198689
0.202147
0.205124
0.207158
0.20851
0.171995
0.170963
0.170262
0.169896
0.169851
0.170106
0.170698
0.171698
0.173131
0.175007
0.177333
0.180109
0.183319
0.18692
0.190831
0.194908
0.198932
0.202627
0.205871
0.208031
0.209665
0.171523
0.170529
0.169859
0.169515
0.169482
0.169754
0.170381
0.171413
0.172879
0.174798
0.177182
0.180039
0.183358
0.187104
0.191197
0.195493
0.199769
0.203743
0.207164
0.209512
0.211568
0.17133
0.170365
0.169718
0.169392
0.169365
0.169655
0.170322
0.171397
0.17291
0.174889
0.177355
0.180322
0.183786
0.187719
0.192046
0.196621
0.201212
0.205492
0.209177
0.211857
0.214323
0.171414
0.170467
0.169837
0.169524
0.1695
0.169813
0.170527
0.171648
0.173218
0.175274
0.177843
0.180948
0.184595
0.188761
0.193376
0.198292
0.20326
0.207916
0.212037
0.215059
0.217945
0.171774
0.170839
0.170219
0.169912
0.169894
0.170236
0.170993
0.172164
0.1738
0.175947
0.178641
0.181912
0.185778
0.190224
0.195185
0.200507
0.205922
0.211035
0.215612
0.219048
0.22244
0.172417
0.171484
0.170865
0.170556
0.170553
0.170931
0.17172
0.172941
0.174652
0.176903
0.17974
0.183206
0.187327
0.1921
0.197465
0.203261
0.209194
0.214837
0.219926
0.223833
0.227805
0.173347
0.172408
0.171783
0.171466
0.171483
0.171895
0.172708
0.17398
0.17577
0.178136
0.181135
0.18482
0.189233
0.194379
0.200204
0.206541
0.213061
0.219302
0.224954
0.229386
0.234009
0.174571
0.173617
0.172983
0.172657
0.172684
0.173116
0.173955
0.175278
0.177151
0.17964
0.182816
0.186745
0.19148
0.197044
0.203385
0.210324
0.217492
0.22439
0.23065
0.235645
0.240976
0.176096
0.175117
0.174466
0.174133
0.17416
0.174596
0.175458
0.176831
0.178789
0.181409
0.184773
0.188965
0.194053
0.200073
0.206979
0.214572
0.222436
0.23005
0.236945
0.242499
0.248564
0.177929
0.176916
0.176237
0.175895
0.175918
0.176341
0.17722
0.178639
0.180681
0.183434
0.186996
0.191464
0.196927
0.203434
0.210941
0.219224
0.227823
0.236215
0.243722
0.249759
0.256539
0.180083
0.179026
0.178309
0.177954
0.177961
0.178356
0.17924
0.1807
0.182821
0.185707
0.189469
0.194222
0.200071
0.207081
0.215205
0.224184
0.233539
0.242744
0.250727
0.257156
0.264576
0.182572
0.181459
0.180697
0.180311
0.180279
0.180639
0.181519
0.183009
0.185204
0.188217
0.192175
0.197211
0.203443
0.210952
0.219677
0.229308
0.239393
0.249298
0.2576
0.264378
0.272236
0.185402
0.184219
0.183403
0.182963
0.18287
0.183187
0.184053
0.185564
0.187822
0.190953
0.195097
0.200398
0.206992
0.214971
0.224232
0.234412
0.245107
0.255441
0.263982
0.270988
0.278964
0.188579
0.187311
0.186426
0.185909
0.185739
0.186001
0.186842
0.188361
0.19067
0.193902
0.198211
0.203746
0.210659
0.219057
0.228674
0.239279
0.25033
0.260808
0.26949
0.276511
0.284212
0.192112
0.190743
0.189766
0.189152
0.188887
0.189082
0.189884
0.1914
0.193743
0.197054
0.201496
0.207209
0.214388
0.223071
0.232824
0.243623
0.25471
0.265124
0.273728
0.280645
0.287814
0.196012
0.194521
0.19343
0.192694
0.192317
0.192431
0.193183
0.194679
0.197038
0.200396
0.204919
0.210738
0.218104
0.226672
0.236488
0.24713
0.257888
0.268036
0.276351
0.283196
0.289801
0.200291
0.198653
0.197419
0.196537
0.19603
0.196051
0.196742
0.198205
0.200557
0.203923
0.208458
0.214282
0.22162
0.229826
0.239368
0.249446
0.25952
0.269119
0.276972
0.283722
0.289621
0.204962
0.203148
0.201739
0.200682
0.200029
0.199947
0.200569
0.201987
0.20431
0.207636
0.21212
0.217828
0.224605
0.232541
0.241233
0.250281
0.259367
0.268075
0.275296
0.28176
0.287319
0.210045
0.208014
0.206389
0.205134
0.204319
0.204128
0.204675
0.206039
0.208303
0.211517
0.215891
0.221254
0.22722
0.234381
0.241851
0.249507
0.257331
0.264893
0.271373
0.277419
0.283235
0.215562
0.213265
0.211379
0.209896
0.208906
0.208604
0.209082
0.210386
0.212536
0.215539
0.219638
0.224153
0.229449
0.23523
0.241139
0.247196
0.253565
0.259911
0.265687
0.271286
0.277216
0.221533
0.218909
0.216708
0.21496
0.213793
0.21339
0.21381
0.215049
0.217049
0.21983
0.223185
0.226883
0.231007
0.23514
0.239263
0.243694
0.248595
0.253818
0.258998
0.264074
0.26995
0.227968
0.224925
0.222351
0.220304
0.21897
0.218487
0.218869
0.220057
0.221984
0.224524
0.226719
0.229421
0.231928
0.2342
0.236639
0.239599
0.243213
0.247468
0.252072
0.256635
0.262477
0.234863
0.231287
0.228264
0.225893
0.224409
0.223878
0.224279
0.225531
0.227414
0.228857
0.230194
0.231453
0.232199
0.232813
0.233833
0.235535
0.238091
0.241497
0.24547
0.249513
0.255063
0.24217
0.237929
0.23436
0.231654
0.230052
0.229551
0.230138
0.231487
0.232397
0.232953
0.233327
0.232968
0.232126
0.231354
0.231152
0.231837
0.233555
0.236244
0.23965
0.243192
0.248156
0.249756
0.244677
0.240468
0.237454
0.235876
0.235508
0.236215
0.236935
0.237159
0.237029
0.235951
0.234094
0.23189
0.229987
0.228877
0.228806
0.229891
0.232047
0.235077
0.238201
0.242581
0.257418
0.251266
0.246391
0.243198
0.241757
0.241256
0.241789
0.242119
0.241832
0.240477
0.238053
0.234941
0.231766
0.229082
0.227323
0.226715
0.22739
0.229279
0.232117
0.234934
0.238923
0.264719
0.25728
0.251856
0.248508
0.246493
0.246456
0.246992
0.246854
0.245617
0.243076
0.239578
0.235729
0.232021
0.228822
0.226607
0.225713
0.226206
0.228053
0.23088
0.233662
0.237509
0.270903
0.26198
0.255759
0.251675
0.250054
0.2508
0.251117
0.250231
0.248038
0.244764
0.240816
0.236636
0.232583
0.229087
0.226681
0.225729
0.226274
0.228328
0.231424
0.23464
0.238614
0.275125
0.26404
0.256689
0.253082
0.252825
0.253389
0.253089
0.251689
0.249311
0.246027
0.241988
0.237605
0.233339
0.229764
0.227449
0.226709
0.227596
0.230123
0.233826
0.237951
0.242217
0.27565
0.262828
0.255701
0.253552
0.253377
0.253421
0.253111
0.252128
0.250147
0.247015
0.242973
0.238553
0.234322
0.230936
0.228945
0.228614
0.230064
0.233316
0.23799
0.243288
0.247608
0.268824
0.257014
0.253159
0.252312
0.2522
0.252435
0.252713
0.252273
0.250546
0.247533
0.243663
0.239479
0.235549
0.23253
0.230986
0.231214
0.233402
0.23761
0.243547
0.249754
0.253188
0.254576
0.250718
0.250525
0.250209
0.250845
0.251784
0.252228
0.251799
0.25024
0.247567
0.244077
0.240235
0.236644
0.233995
0.232969
0.233951
0.237117
0.242419
0.249363
0.255199
0.256822
0.245743
0.247629
0.248318
0.249147
0.250261
0.251195
0.251487
0.251003
0.249628
0.247325
0.244249
0.240791
0.237574
0.235406
0.235038
0.236894
0.240896
0.246637
0.253376
0.257768
0.258095
0.735403
0.72319
0.710245
0.693864
0.675257
0.65483
0.632512
0.608283
0.582178
0.554322
0.525001
0.494702
0.464109
0.43404
0.405347
0.378796
0.354968
0.334223
0.316691
0.720011
0.706603
0.693039
0.675793
0.656133
0.634513
0.610926
0.585374
0.557925
0.528757
0.498237
0.466977
0.435812
0.405713
0.377636
0.352366
0.330404
0.311947
0.296922
0.700398
0.686518
0.672814
0.655115
0.634762
0.612247
0.587611
0.560906
0.532244
0.501892
0.470357
0.43844
0.407193
0.377757
0.351148
0.328065
0.308794
0.29325
0.281086
0.67756
0.66366
0.650052
0.632221
0.611496
0.588342
0.562882
0.535226
0.505559
0.474284
0.442112
0.4101
0.379532
0.351667
0.327447
0.307318
0.291221
0.278734
0.269278
0.652485
0.638742
0.625319
0.607587
0.586722
0.563169
0.537131
0.508774
0.478409
0.44662
0.414383
0.383031
0.35403
0.328611
0.307464
0.290642
0.277699
0.267949
0.260702
0.625846
0.61234
0.59917
0.581648
0.560844
0.537144
0.510793
0.482057
0.451397
0.419634
0.388029
0.358154
0.33152
0.309154
0.291344
0.277709
0.267489
0.259865
0.254155
0.598134
0.584973
0.572116
0.554868
0.534326
0.51072
0.484353
0.455607
0.425129
0.393999
0.36374
0.336052
0.31233
0.293237
0.278606
0.267686
0.259541
0.253354
0.248552
0.569843
0.55715
0.544642
0.527775
0.507667
0.484378
0.458298
0.429935
0.400138
0.370235
0.341935
0.316925
0.296326
0.280366
0.268462
0.259628
0.252903
0.247584
0.243265
0.541462
0.529333
0.51724
0.500878
0.481331
0.458565
0.433069
0.405474
0.376828
0.34866
0.322754
0.30064
0.283076
0.269862
0.260111
0.252754
0.246928
0.242103
0.238038
0.51343
0.501937
0.490343
0.474577
0.455705
0.433661
0.409023
0.382544
0.355447
0.329384
0.306097
0.286857
0.272028
0.261062
0.252905
0.246539
0.241264
0.236724
0.23281
0.486117
0.475305
0.464275
0.449181
0.431099
0.409959
0.386421
0.361346
0.336087
0.312343
0.291714
0.275145
0.262646
0.253428
0.246406
0.240689
0.235757
0.231399
0.227604
0.459818
0.449716
0.439294
0.424941
0.407754
0.387671
0.365424
0.34196
0.318709
0.297354
0.279282
0.265083
0.254483
0.246579
0.240349
0.235065
0.230363
0.226149
0.222469
0.434757
0.425385
0.415602
0.402048
0.385838
0.366927
0.346104
0.324371
0.303181
0.284166
0.268475
0.256314
0.247209
0.240274
0.234599
0.229617
0.225093
0.221015
0.217457
0.4111
0.402468
0.393346
0.38063
0.365454
0.347788
0.328461
0.308492
0.28929
0.272496
0.259041
0.248587
0.240602
0.234372
0.229096
0.224344
0.21998
0.216044
0.212612
0.388973
0.381071
0.372615
0.360762
0.346648
0.33026
0.312448
0.294206
0.276876
0.262182
0.250738
0.24165
0.234509
0.228799
0.223825
0.219266
0.215061
0.211272
0.207974
0.368453
0.361253
0.353457
0.34247
0.329421
0.314312
0.297984
0.28137
0.265897
0.253155
0.243254
0.23526
0.228828
0.223515
0.218787
0.214408
0.210366
0.206731
0.20357
0.349564
0.343031
0.335879
0.325745
0.313744
0.299886
0.284991
0.269907
0.256248
0.245182
0.236381
0.22931
0.223494
0.218502
0.213994
0.209795
0.205921
0.202445
0.199424
0.332295
0.326391
0.319857
0.310551
0.29956
0.286903
0.27338
0.259771
0.247719
0.237989
0.230077
0.223772
0.218463
0.213758
0.209461
0.205444
0.201745
0.19843
0.195552
0.316607
0.311291
0.305343
0.296828
0.286797
0.275265
0.262991
0.250812
0.240164
0.231461
0.224321
0.218632
0.213733
0.209294
0.205204
0.201371
0.19785
0.1947
0.191966
0.302443
0.297672
0.292274
0.284503
0.275371
0.26488
0.253717
0.242868
0.233441
0.225549
0.219072
0.213874
0.209321
0.205129
0.201236
0.197587
0.194245
0.191263
0.188676
0.289737
0.285466
0.280577
0.273498
0.265198
0.255673
0.245529
0.235821
0.2274
0.220199
0.214288
0.20948
0.205238
0.201283
0.197568
0.194097
0.190936
0.188127
0.185688
0.278409
0.274594
0.270173
0.263733
0.256191
0.247553
0.238345
0.229588
0.221975
0.215381
0.209951
0.205458
0.201485
0.197749
0.194202
0.190912
0.187931
0.185291
0.183009
0.268379
0.264977
0.260974
0.255125
0.248267
0.240423
0.232056
0.224102
0.217151
0.211081
0.206059
0.201835
0.198074
0.194535
0.191173
0.188066
0.185251
0.182755
0.180613
0.259566
0.256541
0.252935
0.247595
0.241345
0.234202
0.226579
0.219309
0.212911
0.207288
0.20261
0.198624
0.195044
0.19169
0.188519
0.185583
0.182912
0.180541
0.178508
0.251892
0.249199
0.245945
0.241062
0.235353
0.228824
0.221852
0.215166
0.209231
0.203989
0.199604
0.195832
0.192425
0.18924
0.186241
0.183457
0.18092
0.178668
0.176736
0.245278
0.242868
0.239905
0.235456
0.230229
0.224233
0.217829
0.21164
0.206093
0.201175
0.197039
0.193457
0.190213
0.187182
0.184332
0.181685
0.179274
0.177132
0.175295
0.239659
0.23748
0.2348
0.230728
0.225916
0.220376
0.214468
0.208708
0.203478
0.198834
0.19491
0.191495
0.188398
0.185506
0.182789
0.180266
0.177966
0.175924
0.174173
0.234985
0.233017
0.230579
0.226823
0.222368
0.217214
0.211735
0.206343
0.201371
0.196957
0.193212
0.189942
0.186975
0.184206
0.181606
0.179192
0.176991
0.175035
0.173356
0.231199
0.2295
0.227193
0.223695
0.219546
0.214724
0.209605
0.204515
0.199756
0.195535
0.191939
0.188794
0.185939
0.183277
0.180779
0.178458
0.17634
0.174456
0.172837
0.228209
0.226795
0.224565
0.221296
0.217411
0.212877
0.208051
0.203202
0.198621
0.19456
0.191087
0.188046
0.185287
0.182715
0.180302
0.178057
0.176007
0.17418
0.172608
0.225928
0.224727
0.222618
0.219579
0.215921
0.211638
0.207054
0.202397
0.197961
0.194027
0.190652
0.187695
0.185014
0.182516
0.180171
0.177988
0.175989
0.174205
0.172666
0.224316
0.223242
0.221325
0.218506
0.215045
0.210978
0.206595
0.202092
0.19777
0.193931
0.19063
0.187739
0.18512
0.182679
0.180386
0.178247
0.176285
0.17453
0.173012
0.223383
0.222378
0.220683
0.218051
0.214758
0.210877
0.20666
0.202278
0.198042
0.194273
0.191023
0.188178
0.185603
0.183204
0.180947
0.178837
0.176898
0.175158
0.17365
0.223132
0.222202
0.220687
0.218198
0.215047
0.211322
0.207238
0.202948
0.198775
0.195052
0.191833
0.189016
0.186467
0.184093
0.181857
0.179762
0.177832
0.176096
0.174586
0.223564
0.222698
0.221315
0.218932
0.215899
0.212302
0.208323
0.204099
0.199966
0.196268
0.193062
0.190253
0.187715
0.185352
0.183122
0.181028
0.179094
0.177349
0.175826
0.22463
0.223841
0.22254
0.220235
0.217299
0.213805
0.209909
0.205731
0.201617
0.197924
0.194712
0.191896
0.189353
0.186985
0.184749
0.182644
0.180693
0.178926
0.177377
0.226289
0.225616
0.224333
0.222091
0.219234
0.215821
0.211992
0.207846
0.203732
0.200024
0.196789
0.19395
0.191388
0.189003
0.186748
0.184618
0.182637
0.180835
0.179247
0.228499
0.227949
0.226659
0.224482
0.221691
0.218339
0.214568
0.210448
0.206316
0.202575
0.199303
0.196426
0.193831
0.191417
0.189129
0.186963
0.184939
0.183089
0.18145
0.23122
0.230752
0.22949
0.227391
0.224659
0.221356
0.217637
0.213538
0.209375
0.205588
0.202263
0.199335
0.196694
0.194238
0.191906
0.189691
0.187611
0.1857
0.184
0.234444
0.234034
0.232825
0.230806
0.22813
0.224873
0.221198
0.217115
0.212914
0.209073
0.205684
0.202691
0.199992
0.197481
0.195094
0.192815
0.190666
0.188683
0.186909
0.238167
0.237816
0.236661
0.234717
0.232098
0.228889
0.225253
0.22118
0.216945
0.213043
0.20958
0.206513
0.203743
0.201165
0.198707
0.196351
0.19412
0.192054
0.190185
0.242375
0.242087
0.240984
0.239113
0.236555
0.233401
0.229803
0.225742
0.221479
0.217514
0.213971
0.21082
0.207967
0.205308
0.202766
0.200318
0.197995
0.195824
0.193836
0.247048
0.246822
0.245774
0.243981
0.241492
0.238401
0.234848
0.230808
0.226529
0.222504
0.218878
0.215635
0.212689
0.209935
0.207291
0.204744
0.202311
0.200005
0.197873
0.25216
0.251997
0.25101
0.249304
0.246897
0.243883
0.240389
0.236386
0.232108
0.228033
0.224325
0.220986
0.217937
0.215073
0.212319
0.20966
0.207085
0.204614
0.202313
0.257687
0.257589
0.256671
0.255065
0.252756
0.249841
0.246424
0.24248
0.238229
0.234123
0.230342
0.226906
0.223748
0.220761
0.217891
0.215095
0.212341
0.209676
0.207176
0.263601
0.263571
0.262732
0.261242
0.259054
0.256262
0.252949
0.249095
0.244906
0.240795
0.236958
0.233432
0.230157
0.227053
0.224057
0.221082
0.218117
0.215224
0.212487
0.269869
0.269912
0.269164
0.267809
0.265768
0.263131
0.259957
0.256231
0.252148
0.248073
0.244207
0.240608
0.237223
0.234007
0.23086
0.227672
0.224463
0.221299
0.218279
0.276456
0.276575
0.275933
0.274735
0.272872
0.270427
0.267433
0.263885
0.259963
0.255975
0.252124
0.248476
0.245013
0.241687
0.238356
0.23493
0.231438
0.22795
0.224586
0.283318
0.283519
0.282998
0.281982
0.28033
0.278121
0.275358
0.272047
0.268354
0.264519
0.260741
0.257088
0.253587
0.250156
0.246623
0.242937
0.239116
0.235236
0.231444
0.290408
0.290696
0.290314
0.289507
0.288102
0.286171
0.283701
0.280703
0.277311
0.273712
0.270082
0.266501
0.263006
0.259476
0.255751
0.251782
0.247572
0.24321
0.23888
0.297674
0.298055
0.297827
0.297256
0.296138
0.294528
0.292421
0.289826
0.286815
0.283547
0.28016
0.27675
0.273323
0.269728
0.265831
0.261557
0.256885
0.25192
0.2469
0.305058
0.305535
0.30548
0.305171
0.304382
0.30314
0.301467
0.29936
0.296824
0.293999
0.290975
0.287844
0.28457
0.280984
0.27695
0.272347
0.267117
0.261384
0.255463
0.312496
0.313073
0.313205
0.313184
0.312766
0.311947
0.310767
0.309223
0.307267
0.305009
0.302492
0.299768
0.296761
0.293288
0.289172
0.284216
0.278302
0.271589
0.264453
0.31992
0.3206
0.320931
0.321219
0.321205
0.320861
0.320229
0.31932
0.318051
0.316483
0.314623
0.312461
0.309869
0.306642
0.302517
0.297185
0.290429
0.282479
0.27362
0.327261
0.328042
0.32858
0.329191
0.329607
0.329776
0.329741
0.329534
0.329047
0.328288
0.32723
0.325795
0.323798
0.320977
0.316947
0.311213
0.303443
0.293941
0.282488
0.334446
0.335325
0.336073
0.33701
0.337867
0.338578
0.339176
0.339717
0.340085
0.340241
0.340113
0.339567
0.338359
0.33613
0.33232
0.326187
0.317287
0.305838
0.290214
0.341402
0.342373
0.343327
0.344586
0.345881
0.347141
0.348387
0.349697
0.350962
0.352102
0.353004
0.35349
0.353253
0.351809
0.348359
0.341929
0.331835
0.317397
0.294831
0.348058
0.349117
0.350264
0.351827
0.353541
0.355337
0.35722
0.359286
0.361443
0.363587
0.36557
0.36718
0.368052
0.367575
0.364683
0.358229
0.346708
0.326849
0.29392
0.354345
0.355494
0.356811
0.358646
0.360741
0.363038
0.365517
0.368285
0.371283
0.374384
0.377421
0.380158
0.382183
0.382781
0.380749
0.374784
0.361954
0.335216
0.287018
0.360191
0.361458
0.362901
0.36497
0.367391
0.370129
0.373132
0.376511
0.380242
0.384182
0.388151
0.3919
0.39497
0.396607
0.395751
0.390918
0.37873
0.348423
0.285626
0.365208
0.366399
0.367872
0.370108
0.372756
0.375818
0.379202
0.383014
0.387266
0.391796
0.396415
0.400858
0.404633
0.407052
0.407416
0.404265
0.394201
0.35814
0.290099
0.36936
0.370361
0.371869
0.374207
0.377002
0.380288
0.383932
0.388028
0.392611
0.397508
0.402514
0.407338
0.411464
0.41437
0.415812
0.415406
0.40761
0.36121
0.274335
0.373003
0.373943
0.375525
0.37793
0.380832
0.38428
0.388109
0.392389
0.397176
0.402281
0.40747
0.412413
0.416595
0.419689
0.42196
0.424319
0.419426
0.37208
0.264564
0.372261
0.382479
0.387007
0.389181
0.390693
0.392254
0.394195
0.396689
0.399822
0.403627
0.408101
0.413205
0.418877
0.424994
0.431261
0.437142
0.442159
0.446053
0.447821
0.4476
0.447349
0.388107
0.388053
0.389056
0.389797
0.390654
0.39182
0.393475
0.395728
0.398641
0.402228
0.40647
0.411319
0.416702
0.422502
0.428497
0.434333
0.439636
0.44397
0.446586
0.447298
0.447241
0.396232
0.392664
0.391047
0.390467
0.390581
0.391282
0.392622
0.394635
0.397338
0.400723
0.404754
0.409368
0.414475
0.419946
0.425594
0.431178
0.436432
0.441045
0.444641
0.446664
0.446877
0.399659
0.394959
0.392066
0.390549
0.390023
0.390274
0.391277
0.393016
0.395477
0.398627
0.402418
0.406775
0.411602
0.416766
0.422106
0.427431
0.432526
0.437216
0.441413
0.444549
0.445502
0.400291
0.39541
0.392036
0.389998
0.389014
0.388905
0.389607
0.391084
0.393297
0.396201
0.399735
0.403818
0.408348
0.413196
0.41822
0.423262
0.428145
0.432763
0.43713
0.440782
0.442345
0.399219
0.394544
0.391076
0.388797
0.387544
0.387172
0.387628
0.388867
0.390843
0.393503
0.396779
0.400588
0.404826
0.409369
0.414083
0.418825
0.423447
0.427869
0.432136
0.435867
0.437626
0.397113
0.392774
0.389403
0.387065
0.385679
0.385135
0.385399
0.386434
0.388192
0.390618
0.393644
0.397185
0.40114
0.405387
0.409798
0.414236
0.418562
0.422696
0.426669
0.430182
0.431919
0.394398
0.390416
0.387234
0.384954
0.383513
0.382864
0.382984
0.383846
0.385408
0.387615
0.390402
0.393686
0.397367
0.401329
0.405443
0.409577
0.413593
0.417393
0.420977
0.424117
0.425707
0.391329
0.387694
0.384748
0.382578
0.381135
0.380427
0.380442
0.381161
0.382547
0.384553
0.387115
0.390153
0.393573
0.397259
0.401087
0.40492
0.408621
0.412075
0.415246
0.417963
0.419347
0.388076
0.384769
0.382073
0.380028
0.378622
0.377889
0.377828
0.378429
0.379662
0.381483
0.383834
0.386641
0.389811
0.393234
0.396785
0.400329
0.403723
0.406839
0.409613
0.411919
0.413084
0.384777
0.381773
0.379313
0.377394
0.376045
0.37531
0.375195
0.375698
0.376795
0.378448