/*--------------------------------*- C++ -*----------------------------------*\
| =========                 |                                                 |
| \\      /  F ield         | OpenFOAM: The Open Source CFD Toolbox           |
|  \\    /   O peration     | Version:  v2012                                 |
|   \\  /    A nd           | Website:  www.openfoam.com                      |
|    \\/     M anipulation  |                                                 |
\*---------------------------------------------------------------------------*/
FoamFile
{
    version     2.0;
    format      ascii;
    class       surfaceScalarField;
    location    "618";
    object      phi;
}
// * * * * * * * * * * * * * * * * * * * * * * * * * * * * * * * * * * * * * //

dimensions      [0 3 -1 0 0 0 0];
oriented        oriented;


internalField   nonuniform List<scalar> 
11870
(
-0.000197674
6.48266e-08
0.000197609
-0.000197747
7.34625e-08
-0.000197828
8.12142e-08
-0.000197916
8.80086e-08
-0.00019801
9.39157e-08
-0.000198109
9.91403e-08
-0.000198213
1.03916e-07
-0.000198322
1.08484e-07
-0.000198435
1.13072e-07
-0.000198553
1.17881e-07
-0.000198676
1.231e-07
-0.000198805
1.28881e-07
-0.00019894
1.35332e-07
-0.000199082
1.42486e-07
-0.000199233
1.5023e-07
-0.000199391
1.57821e-07
-0.000199554
1.63502e-07
-0.000199722
1.67705e-07
-0.000199889
1.67635e-07
1.10635e-07
-0.00020004
3.94351e-08
0.000200066
-0.000200022
5.55163e-08
-0.000200011
6.93751e-08
-0.000200004
8.10316e-08
-0.0002
9.06796e-08
-0.0002
9.87547e-08
-0.000200002
1.05708e-07
-0.000200005
1.11972e-07
-0.00020001
1.1793e-07
-0.000200016
1.23907e-07
-0.000200023
1.30165e-07
-0.000200031
1.3687e-07
-0.00020004
1.44029e-07
-0.000200049
1.51296e-07
-0.000200057
1.58431e-07
-0.000200064
1.65062e-07
-0.000200069
1.68146e-07
-0.000200066
1.64749e-07
-0.000200042
1.43659e-07
6.88407e-08
-0.000200673
-1.27753e-08
0.000200726
-0.000200629
1.08472e-08
-0.00020059
3.02942e-08
-0.000200555
4.60296e-08
-0.000200522
5.84419e-08
-0.000200492
6.82743e-08
-0.000200462
7.62168e-08
-0.000200433
8.2892e-08
-0.000200404
8.88145e-08
-0.000200375
9.43872e-08
-0.000200344
9.9904e-08
-0.000200313
1.05585e-07
-0.000200281
1.11591e-07
-0.000200247
1.17281e-07
-0.00020021
1.21507e-07
-0.00020017
1.25076e-07
-0.000200127
1.25243e-07
-0.00020008
1.17493e-07
-0.00020003
9.3834e-08
3.89751e-08
-0.000200927
-7.6307e-08
0.00020099
-0.000200871
-4.45253e-08
-0.000200821
-1.97621e-08
-0.000200775
-4.7336e-10
-0.00020073
1.39673e-08
-0.000200687
2.47429e-08
-0.000200643
3.28274e-08
-0.0002006
3.90451e-08
-0.000200555
4.4039e-08
-0.000200509
4.82808e-08
-0.000200461
5.2102e-08
-0.000200411
5.57385e-08
-0.000200359
5.92809e-08
-0.000200304
6.23779e-08
-0.000200247
6.46105e-08
-0.000200188
6.60776e-08
-0.000200128
6.51115e-08
-0.00020007
5.94625e-08
-0.000200021
4.52976e-08
1.77609e-08
-0.000201016
-1.43208e-07
0.000201083
-0.000200958
-1.02093e-07
-0.000200906
-7.23748e-08
-0.000200856
-5.00315e-08
-0.000200808
-3.42764e-08
-0.00020076
-2.32844e-08
-0.000200711
-1.5744e-08
-0.000200662
-1.06213e-08
-0.00020061
-7.15204e-09
-0.000200557
-4.80698e-09
-0.000200502
-3.22512e-09
-0.000200444
-2.16046e-09
-0.000200383
-1.45111e-09
-0.00020032
-9.82973e-10
-0.000200255
-6.55473e-10
-0.000200188
-4.17573e-10
-0.000200123
-2.68439e-10
-0.000200063
-1.69253e-10
-0.000200018
-9.05964e-11
-3.02797e-11
-0.000200994
-2.08081e-07
0.000201059
-0.000200942
-1.54822e-07
-0.000200893
-1.20917e-07
-0.000200847
-9.61094e-08
-0.000200802
-7.98571e-08
-0.000200755
-6.93755e-08
-0.000200708
-6.29412e-08
-0.00020066
-5.93337e-08
-0.000200609
-5.76903e-08
-0.000200556
-5.74509e-08
-0.000200501
-5.82512e-08
-0.000200444
-5.98535e-08
-0.000200383
-6.204e-08
-0.00020032
-6.42533e-08
-0.000200255
-6.58685e-08
-0.000200188
-6.68682e-08
-0.000200123
-6.56165e-08
-0.000200063
-5.97854e-08
-0.000200018
-4.54666e-08
-1.78175e-08
-0.000200862
-2.68351e-07
0.000200922
-0.000200822
-1.94739e-07
-0.000200784
-1.58542e-07
-0.000200748
-1.32022e-07
-0.000200712
-1.16333e-07
-0.000200674
-1.07196e-07
-0.000200635
-1.0232e-07
-0.000200594
-1.00391e-07
-0.000200551
-1.00557e-07
-0.000200506
-1.02261e-07
-0.000200459
-1.05177e-07
-0.00020041
-1.09106e-07
-0.000200358
-1.13935e-07
-0.000200303
-1.18882e-07
-0.000200247
-1.22608e-07
-0.000200188
-1.25746e-07
-0.000200128
-1.25654e-07
-0.00020007
-1.17776e-07
-0.000200021
-9.39654e-08
-3.90199e-08
-0.00020056
-3.22165e-07
0.000200614
-0.000200546
-2.09307e-07
-0.000200529
-1.75554e-07
-0.000200512
-1.48733e-07
-0.000200493
-1.35249e-07
-0.000200472
-1.28378e-07
-0.000200449
-1.25412e-07
-0.000200424
-1.25046e-07
-0.000200398
-1.26643e-07
-0.000200371
-1.2973e-07
-0.000200342
-1.3406e-07
-0.000200311
-1.39474e-07
-0.00020028
-1.45768e-07
-0.000200246
-1.52476e-07
-0.000200209
-1.59212e-07
-0.00020017
-1.65544e-07
-0.000200127
-1.68458e-07
-0.00020008
-1.6498e-07
-0.00020003
-1.43726e-07
-6.88658e-08
-0.000199867
-3.63593e-07
0.000199909
-0.000199899
-1.7721e-07
-0.000199925
-1.49539e-07
-0.000199946
-1.28314e-07
-0.000199961
-1.19599e-07
-0.000199974
-1.15896e-07
-0.000199984
-1.14937e-07
-0.000199994
-1.15752e-07
-0.000200002
-1.17898e-07
-0.000200011
-1.21099e-07
-0.00020002
-1.25249e-07
-0.000200029
-1.30317e-07
-0.000200038
-1.3629e-07
-0.000200048
-1.43123e-07
-0.000200056
-1.50649e-07
-0.000200064
-1.58094e-07
-0.000200069
-1.63679e-07
-0.000200066
-1.67834e-07
-0.000200042
-1.67652e-07
-1.10645e-07
-0.000197386
0.000197023
-0.000197563
-0.000197713
-0.000197841
-0.000197961
-0.000198077
-0.000198192
-0.000198307
-0.000198425
-0.000198546
-0.000198672
-0.000198802
-0.000198938
-0.000199081
-0.000199232
-0.00019939
-0.000199554
-0.000199722
-0.000199889
-0.000172079
5.35269e-06
0.000166726
-0.000176745
4.66588e-06
-0.000180775
4.03035e-06
-0.000184218
3.44319e-06
-0.000187124
2.9051e-06
-0.00018954
2.41667e-06
-0.000191519
1.97842e-06
-0.000193109
1.59023e-06
-0.00019436
1.2507e-06
-0.000195318
9.58458e-07
-0.00019603
7.12449e-07
-0.000196542
5.11212e-07
-0.000196894
3.52258e-07
-0.000197126
2.31765e-07
-0.000197273
1.47375e-07
-0.000197362
8.88316e-08
-0.000197419
5.75648e-08
-0.000197463
4.37535e-08
-0.000197506
4.24005e-08
-0.000197553
4.76251e-08
5.54846e-08
-0.000178632
1.0242e-05
0.000173743
-0.000182884
8.91804e-06
-0.000186537
7.68272e-06
-0.000189633
6.53928e-06
-0.000192219
5.49097e-06
-0.000194342
4.53963e-06
-0.000196049
3.68614e-06
-0.00019739
2.93046e-06
-0.00019841
2.27149e-06
-0.000199159
1.7068e-06
-0.00019968
1.23341e-06
-0.000200017
8.48624e-07
-0.000200213
5.47767e-07
-0.000200303
3.2253e-07
-0.000200321
1.64614e-07
-0.000200295
6.3017e-08
-0.000200246
8.76076e-09
-0.000200192
-1.07901e-08
-0.000200141
-7.89637e-09
-0.000200099
5.5285e-09
2.20523e-08
-0.000180959
1.49344e-05
0.000176266
-0.000185036
1.29953e-05
-0.000188534
1.11801e-05
-0.000191491
9.49698e-06
-0.000193952
7.95176e-06
-0.000195961
6.54831e-06
-0.000197563
5.28891e-06
-0.000198807
4.17426e-06
-0.000199739
3.20284e-06
-0.000200403
2.37092e-06
-0.000200844
1.67425e-06
-0.000201105
1.10963e-06
-0.000201229
6.72014e-07
-0.000201254
3.472e-07
-0.000201211
1.22173e-07
-0.000201131
-1.70788e-08
-0.000201035
-8.69291e-08
-0.000200941
-1.05368e-07
-0.000200857
-9.16397e-08
-0.000200786
-6.53689e-08
-3.8386e-08
-0.000182382
1.95356e-05
0.000177781
-0.000186376
1.69894e-05
-0.000189796
1.46003e-05
-0.000192681
1.23813e-05
-0.00019507
1.03414e-05
-0.000197009
8.48697e-06
-0.000198542
6.82198e-06
-0.000199716
5.3483e-06
-0.000200578
4.06413e-06
-0.000201171
2.9644e-06
-0.000201541
2.0441e-06
-0.00020173
1.2988e-06
-0.000201785
7.27357e-07
-0.000201746
3.08168e-07
-0.000201646
2.2307e-08
-0.000201516
-1.4752e-07
-0.000201379
-2.2391e-07
-0.000201253
-2.31584e-07
-0.000201147
-1.97016e-07
-0.000201062
-1.50464e-07
-1.10503e-07
-0.000183537
2.40797e-05
0.000178993
-0.000187475
2.09269e-05
-0.000190838
1.79637e-05
-0.000193665
1.52083e-05
-0.000195996
1.26724e-05
-0.000197874
1.03651e-05
-0.000199344
8.29215e-06
-0.000200453
6.45684e-06
-0.000201246
4.85785e-06
-0.00020177
3.488e-06
-0.000202069
2.34358e-06
-0.000202184
1.41321e-06
-0.000202162
7.05221e-07
-0.000202054
2.00261e-07
-0.000201891
-1.40747e-07
-0.000201705
-3.3301e-07
-0.000201525
-4.04145e-07
-0.000201368
-3.88347e-07
-0.000201247
-3.18717e-07
-0.000201157
-2.40151e-07
-1.84665e-07
-0.000184421
2.85662e-05
0.000179935
-0.0001883
2.48056e-05
-0.000191606
2.12694e-05
-0.000194378
1.79809e-05
-0.000196658
1.49521e-05
-0.000198487
1.21943e-05
-0.000199908
9.71305e-06
-0.000200965
7.51322e-06
-0.000201705
5.59781e-06
-0.000202174
3.95733e-06
-0.000202413
2.58268e-06
-0.000202474
1.47442e-06
-0.00020239
6.20848e-07
-0.00020221
1.99692e-08
-0.000201984
-3.66339e-07
-0.000201744
-5.73407e-07
-0.000201522
-6.2618e-07
-0.000201336
-5.73482e-07
-0.000201204
-4.51074e-07
-0.000201124
-3.20363e-07
-2.49196e-07
-0.000184704
3.29463e-05
0.000180324
-0.00018848
2.85821e-05
-0.000191694
2.44825e-05
-0.000194392
2.06792e-05
-0.000196622
1.71825e-05
-0.000198424
1.39957e-05
-0.000199834
1.11234e-05
-0.000200889
8.56863e-06
-0.000201622
6.33066e-06
-0.000202083
4.41789e-06
-0.000202328
2.82817e-06
-0.000202389
1.53565e-06
-0.000202295
5.26299e-07
-0.000202088
-1.87119e-07
-0.000201831
-6.23299e-07
-0.000201567
-8.37076e-07
-0.000201325
-8.68746e-07
-0.000201127
-7.71138e-07
-0.000200999
-5.79251e-07
-0.000200959
-3.6015e-07
-2.86008e-07
-0.000183583
3.70568e-05
0.000179473
-0.00018711
3.21094e-05
-0.000190108
2.74798e-05
-0.000192622
2.31937e-05
-0.000194723
1.92835e-05
-0.000196472
1.57443e-05
-0.000197897
1.25489e-05
-0.000199027
9.69864e-06
-0.0001999
7.20322e-06
-0.000200543
5.06101e-06
-0.000200957
3.24252e-06
-0.00020116
1.73791e-06
-0.000201196
5.63222e-07
-0.000201125
-2.58639e-07
-0.000201013
-7.34875e-07
-0.000200864
-9.86511e-07
-0.000200707
-1.02557e-06
-0.000200584
-8.94368e-07
-0.000200519
-6.43668e-07
-0.000200578
-3.01418e-07
-2.50021e-07
-0.000179365
4.04355e-05
0.000175987
-0.000182175
3.49189e-05
-0.000184512
2.98171e-05
-0.000186478
2.516e-05
-0.000188154
2.09588e-05
-0.000189602
1.71929e-05
-0.000190887
1.38333e-05
-0.000192048
1.08599e-05
-0.000193118
8.27312e-06
-0.000194118
6.06102e-06
-0.00019502
4.1444e-06
-0.000195807
2.52505e-06
-0.000196486
1.24243e-06
-0.000197099
3.53918e-07
-0.000197665
-1.68138e-07
-0.000198139
-5.12635e-07
-0.000198528
-6.36705e-07
-0.000198884
-5.38151e-07
-0.00019916
-3.68171e-07
-0.000199407
-5.41438e-08
2.51352e-07
-0.00016937
0.000167672
4.21338e-05
-0.000170438
3.59871e-05
-0.000171014
3.03932e-05
-0.000171231
2.53766e-05
-0.000171207
2.09349e-05
-0.000171057
1.70427e-05
-0.000170892
1.36686e-05
-0.000170821
1.07889e-05
-0.000170942
8.39451e-06
-0.000171383
6.50113e-06
-0.00017218
4.94163e-06
-0.000173376
3.72101e-06
-0.000174985
2.85139e-06
-0.000177007
2.3765e-06
-0.000179405
2.22928e-06
-0.000182097
2.17945e-06
-0.000184951
2.21715e-06
-0.000187866
2.37672e-06
-0.000190549
2.31492e-06
-0.000192575
1.97177e-06
4.6994e-06
8.14009e-06
-8.1401e-06
1.16183e-05
-3.47823e-06
1.01498e-05
1.46848e-06
6.20627e-06
3.94354e-06
2.21266e-07
5.98499e-06
-1.01839e-05
1.04051e-05
-2.58561e-05
1.56722e-05
-4.42132e-05
1.8357e-05
-6.19475e-05
1.77343e-05
-7.78597e-05
1.59122e-05
-9.21377e-05
1.42779e-05
-0.00010503
1.28923e-05
-0.000116728
1.16978e-05
-0.000127353
1.06253e-05
-0.000136989
9.63594e-06
-0.000145696
8.70734e-06
-0.000153525
7.82829e-06
-0.00016052
6.9949e-06
6.20675e-06
6.20272e-06
-1.43428e-05
6.62293e-06
-3.89845e-06
2.81758e-06
5.27382e-06
-5.20747e-06
1.19686e-05
-1.86123e-05
1.93898e-05
-3.55273e-05
2.73202e-05
-5.24023e-05
3.25472e-05
-6.73e-05
3.32548e-05
-8.08268e-05
3.1261e-05
-9.37426e-05
2.88281e-05
-0.000105946
2.64809e-05
-0.000117334
2.42803e-05
-0.000127868
2.22321e-05
-0.000137548
2.03051e-05
-0.000146386
1.84739e-05
-0.0001544
1.67219e-05
-0.000161614
1.50419e-05
-0.000168052
1.34335e-05
1.18974e-05
2.20498e-06
-1.65478e-05
-1.52021e-06
-1.73268e-07
-9.05717e-06
1.28108e-05
-2.12842e-05
2.41956e-05
-3.67972e-05
3.49028e-05
-5.23219e-05
4.28449e-05
-6.59047e-05
4.613e-05
-7.80735e-05
4.54236e-05
-8.98698e-05
4.30573e-05
-0.000101391
4.03489e-05
-0.000112445
3.75355e-05
-0.000122912
3.47472e-05
-0.00013271
3.20299e-05
-0.000141796
2.93918e-05
-0.000150152
2.68292e-05
-0.000157769
2.43394e-05
-0.000164652
2.19247e-05
-0.000170811
1.95927e-05
1.73525e-05
-3.21071e-06
-1.33371e-05
-1.03024e-05
6.91847e-06
-2.10118e-05
2.35202e-05
-3.49177e-05
3.81014e-05
-4.93775e-05
4.93626e-05
-6.23123e-05
5.57796e-05
-7.36822e-05
5.74999e-05
-8.45369e-05
5.62784e-05
-9.53565e-05
5.38769e-05
-0.000105997
5.09896e-05
-0.000116304
4.78418e-05
-0.000126161
4.46048e-05
-0.000135482
4.13506e-05
-0.000144203
3.81128e-05
-0.000152281
3.49068e-05
-0.000159686
3.1745e-05
-0.000166405
2.86432e-05
-0.000172433
2.56211e-05
2.27003e-05
-7.89813e-06
-5.43899e-06
-1.80382e-05
1.70585e-05
-3.06828e-05
3.61648e-05
-4.44051e-05
5.18236e-05
-5.71243e-05
6.20819e-05
-6.82768e-05
6.69321e-05
-7.85762e-05
6.77993e-05
-8.87693e-05
6.64715e-05
-9.8969e-05
6.40766e-05
-0.000109038
6.10587e-05
-0.000118865
5.76691e-05
-0.000128343
5.40821e-05
-0.000137376
5.03842e-05
-0.000145888
4.66244e-05
-0.000153815
4.28337e-05
-0.000161111
3.90409e-05
-0.000167746
3.52782e-05
-0.000173706
3.15812e-05
2.79874e-05
-1.12612e-05
5.82217e-06
-2.38673e-05
2.96646e-05
-3.7333e-05
4.96306e-05
-5.02128e-05
6.47034e-05
-6.16017e-05
7.34708e-05
-7.18403e-05
7.71707e-05
-8.1682e-05
7.7641e-05
-9.15173e-05
7.63068e-05
-0.000101342
7.39013e-05
-0.00011107
7.07871e-05
-0.000120615
6.72138e-05
-0.000129874
6.3341e-05
-0.000138748
5.92579e-05
-0.000147145
5.5022e-05
-0.00015499
5.06781e-05
-0.000162221
4.62725e-05
-0.0001688
4.18565e-05
-0.000174704
3.74861e-05
3.32178e-05
-1.37342e-05
1.95563e-05
-2.7749e-05
4.36794e-05
-4.12647e-05
6.31463e-05
-5.33345e-05
7.67732e-05
-6.39809e-05
8.41172e-05
-7.38561e-05
8.70459e-05
-8.35231e-05
8.7308e-05
-9.31724e-05
8.59561e-05
-0.000102795
8.35238e-05
-0.000112341
8.03332e-05
-0.000121734
7.66066e-05
-0.000130874
7.24809e-05
-0.000139655
6.80395e-05
-0.000147977
6.33433e-05
-0.000155749
5.84505e-05
-0.000162903
5.34267e-05
-0.000169394
4.8347e-05
-0.0001752
4.32922e-05
3.83417e-05
-1.52729e-05
3.48292e-05
-2.99025e-05
5.8309e-05
-4.31435e-05
7.63874e-05
-5.46685e-05
8.82982e-05
-6.49977e-05
9.44464e-05
-7.47804e-05
9.68286e-05
-8.43978e-05
9.69253e-05
-9.39657e-05
9.5524e-05
-0.000103494
9.3052e-05
-0.000112949
8.97884e-05
-0.000122257
8.59142e-05
-0.000131314
8.15378e-05
-0.000140004
7.67298e-05
-0.000148213
7.15526e-05
-0.000155841
6.60779e-05
-0.00016281
6.0396e-05
-0.000169075
5.46126e-05
-0.000174624
4.8841e-05
4.31901e-05
-1.61794e-05
5.10086e-05
-3.07646e-05
7.28942e-05
-4.36347e-05
8.92575e-05
-5.4849e-05
9.95125e-05
-6.50822e-05
0.00010468
-7.48744e-05
0.000106621
-8.44916e-05
0.000106543
-9.4031e-05
0.000105063
-0.000103514
0.000102535
-0.000112907
9.91819e-05
-0.000122129
9.51363e-05
-0.000131063
9.04708e-05
-0.00013957
8.52377e-05
-0.000147517
7.94986e-05
-0.000154782
7.33435e-05
-0.000161282
6.68957e-05
-0.000166973
6.03042e-05
-0.00017186
5.37279e-05
4.73165e-05
-1.64719e-05
6.74805e-05
-3.0728e-05
8.71503e-05
-4.32343e-05
0.000101764
-5.42731e-05
0.000110551
-6.44849e-05
0.000114891
-7.43018e-05
0.000116438
-8.39234e-05
0.000116164
-9.34398e-05
0.00011458
-0.00010287
0.000111965
-0.000112167
0.000108479
-0.000121225
0.000104194
-0.000129893
9.91383e-05
-0.000137993
9.3338e-05
-0.000145349
8.68547e-05
-0.000151811
7.98051e-05
-0.000157278
7.23628e-05
-0.000161715
6.47412e-05
-0.000165151
5.71645e-05
4.9837e-05
-0.000160758
4.09999e-05
0.000161891
-0.000158848
3.40779e-05
-0.000156317
2.78619e-05
-0.000153281
2.23402e-05
-0.000149816
1.74705e-05
-0.000145967
1.31937e-05
-0.000141744
9.4454e-06
-0.000137123
6.16773e-06
-0.000132055
3.32679e-06
-0.000126489
9.34702e-07
-0.000120368
-1.17867e-06
-0.00011364
-3.0073e-06
-0.000106282
-4.50627e-06
-9.82238e-05
-5.68214e-06
-8.93578e-05
-6.63674e-06
-7.95499e-05
-7.62844e-06
-6.8721e-05
-8.61176e-06
-5.7301e-05
-9.04333e-06
-4.55586e-05
-9.42744e-06
-3.01957e-05
-1.33912e-05
-2.54963e-05
-0.000134977
3.69167e-05
0.00013906
-0.000130308
2.94089e-05
-0.000125229
2.27832e-05
-0.000119859
1.697e-05
-0.000114265
1.18767e-05
-0.000108479
7.40742e-06
-0.000102507
3.4738e-06
-9.63358e-05
-3.56253e-09
-8.99606e-05
-3.0484e-06
-8.33402e-05
-5.68573e-06
-7.64092e-05
-8.10962e-06
-6.91038e-05
-1.03128e-05
-6.13959e-05
-1.22141e-05
-5.3134e-05
-1.39441e-05
-4.40823e-05
-1.56884e-05
-3.43027e-05
-1.74081e-05
-2.4164e-05
-1.87505e-05
-1.38884e-05
-1.93189e-05
-3.58195e-06
-1.97339e-05
3.91512e-06
-2.08882e-05
-2.15812e-05
-0.000108698
3.12835e-05
0.000114331
-0.000103028
2.37391e-05
-9.75029e-05
1.72576e-05
-9.22296e-05
1.16967e-05
-8.72582e-05
6.90523e-06
-8.25894e-05
2.73864e-06
-7.81795e-05
-9.36151e-07
-7.39255e-05
-4.25759e-06
-6.96343e-05
-7.33959e-06
-6.50514e-05
-1.02686e-05
-6.01126e-05
-1.30484e-05
-5.47935e-05
-1.56318e-05
-4.89755e-05
-1.80322e-05
-4.26145e-05
-2.03051e-05
-3.58213e-05
-2.24816e-05
-2.87691e-05
-2.44602e-05
-2.15302e-05
-2.59894e-05
-1.39708e-05
-2.68782e-05
-6.49223e-06
-2.72126e-05
-7.85835e-07
-2.65946e-05
-2.2367e-05
-8.72253e-05
2.61386e-05
9.23703e-05
-8.27655e-05
1.92793e-05
-7.90606e-05
1.35527e-05
-7.60469e-05
8.68303e-06
-7.35489e-05
4.40719e-06
-7.13174e-05
5.07133e-07
-6.90802e-05
-3.17334e-06
-6.66175e-05
-6.7203e-06
-6.37889e-05
-1.01682e-05
-6.05266e-05
-1.35309e-05
-5.67916e-05
-1.67834e-05
-5.25149e-05
-1.99086e-05
-4.76557e-05
-2.28913e-05
-4.22382e-05
-2.57226e-05
-3.63354e-05
-2.83844e-05
-3.00192e-05
-3.07765e-05
-2.33604e-05
-3.26482e-05
-1.64443e-05
-3.37942e-05
-9.64437e-06
-3.40125e-05
-3.80813e-06
-3.24309e-05
-2.61751e-05
-7.32077e-05
2.30644e-05
7.6282e-05
-7.11473e-05
1.72189e-05
-6.9833e-05
1.22384e-05
-6.891e-05
7.76e-06
-6.80433e-05
3.5405e-06
-6.69853e-05
-5.50911e-07
-6.55882e-05
-4.57044e-06
-6.37741e-05
-8.5344e-06
-6.14901e-05
-1.24521e-05
-5.87041e-05
-1.63169e-05
-5.53845e-05
-2.0103e-05
-5.15062e-05
-2.37869e-05
-4.70554e-05
-2.7342e-05
-4.20474e-05
-3.07307e-05
-3.65492e-05
-3.38826e-05
-3.06552e-05
-3.66704e-05
-2.44268e-05
-3.88767e-05
-1.79559e-05
-4.02651e-05
-1.14794e-05
-4.0489e-05
-5.40994e-06
-3.85004e-05
-3.15851e-05
-6.54677e-05
2.21966e-05
6.63355e-05
-6.52587e-05
1.70099e-05
-6.52802e-05
1.22599e-05
-6.52153e-05
7.69507e-06
-6.48773e-05
3.20252e-06
-6.41703e-05
-1.2579e-06
-6.30428e-05
-5.69798e-06
-6.14592e-05
-1.0118e-05
-5.93942e-05
-1.45172e-05
-5.68292e-05
-1.88819e-05
-5.37461e-05
-2.31861e-05
-5.01334e-05
-2.73996e-05
-4.59894e-05
-3.1486e-05
-4.13309e-05
-3.53892e-05
-3.62081e-05
-3.90054e-05
-3.06986e-05
-4.218e-05
-2.48459e-05
-4.47294e-05
-1.8708e-05
-4.64031e-05
-1.24416e-05
-4.67553e-05
-6.21223e-06
-4.47298e-05
-3.77973e-05
-6.10279e-05
2.26644e-05
6.05601e-05
-6.16331e-05
1.76151e-05
-6.20882e-05
1.2715e-05
-6.22495e-05
7.85633e-06
-6.20513e-05
3.00431e-06
-6.14582e-05
-1.85095e-06
-6.04439e-05
-6.71229e-06
-5.89852e-05
-1.15766e-05
-5.70649e-05
-1.64375e-05
-5.46689e-05
-2.12779e-05
-5.17849e-05
-2.60701e-05
-4.84073e-05
-3.07773e-05
-4.45413e-05
-3.5352e-05
-4.02047e-05
-3.97258e-05
-3.54249e-05
-4.37852e-05
-3.02529e-05
-4.73519e-05
-2.47287e-05
-5.02536e-05
-1.88857e-05
-5.2246e-05
-1.28098e-05
-5.28313e-05
-6.5382e-06
-5.10014e-05
-4.43355e-05
-5.77453e-05
2.36536e-05
5.6756e-05
-5.85702e-05
1.844e-05
-5.91076e-05
1.32524e-05
-5.9308e-05
8.05672e-06
-5.91462e-05
2.84248e-06
-5.86027e-05
-2.39439e-06
-5.76598e-05
-7.6552e-06
-5.63006e-05
-1.29359e-05
-5.45103e-05
-1.82278e-05
-5.22754e-05
-2.35128e-05
-4.95843e-05
-2.87611e-05
-4.64317e-05
-3.39299e-05
-4.28222e-05
-3.89614e-05
-3.87724e-05
-4.37756e-05
-3.43029e-05
-4.82547e-05
-2.94381e-05
-5.22168e-05
-2.42078e-05
-5.54839e-05
-1.86432e-05
-5.78107e-05
-1.27748e-05
-5.86997e-05
-6.582e-06
-5.71941e-05
-5.09175e-05
-5.47242e-05
2.47533e-05
5.36245e-05
-5.55545e-05
1.92703e-05
-5.60731e-05
1.3771e-05
-5.62613e-05
8.24492e-06
-5.61057e-05
2.68692e-06
-5.55937e-05
-2.90644e-06
-5.47121e-05
-8.53674e-06
-5.34472e-05
-1.42008e-05
-5.17847e-05
-1.98904e-05
-4.97098e-05
-2.55877e-05
-4.72095e-05
-3.12615e-05
-4.42752e-05
-3.68642e-05
-4.09077e-05
-4.23289e-05
-3.71195e-05
-4.75638e-05
-3.29301e-05
-5.24441e-05
-2.83496e-05
-5.67973e-05
-2.33977e-05
-6.04357e-05
-1.81026e-05
-6.31059e-05
-1.24675e-05
-6.43348e-05
-6.4542e-06
-6.32074e-05
-5.73717e-05
-5.17076e-05
2.58139e-05
5.06471e-05
-5.24804e-05
2.00431e-05
-5.2951e-05
1.42416e-05
-5.31107e-05
8.40468e-06
-5.2952e-05
2.52815e-06
-5.24663e-05
-3.39211e-06
-5.16438e-05
-9.35928e-06
-5.04719e-05
-1.53726e-05
-4.89361e-05
-2.14262e-05
-4.70203e-05
-2.75035e-05
-4.47084e-05
-3.35733e-05
-4.19881e-05
-3.95846e-05
-3.88543e-05
-4.54627e-05
-3.5313e-05
-5.11051e-05
-3.13794e-05
-5.63777e-05
-2.70641e-05
-6.11126e-05
-2.2383e-05
-6.51168e-05
-1.7357e-05
-6.81319e-05
-1.19801e-05
-6.97117e-05
-6.21607e-06
-6.89714e-05
-6.35878e-05
-4.86512e-05
2.67895e-05
4.76755e-05
-4.93481e-05
2.074e-05
-4.97613e-05
1.46547e-05
-4.98872e-05
8.53057e-06
-4.97222e-05
2.36318e-06
-4.92612e-05
-3.85314e-06
-4.84961e-05
-1.01243e-05
-4.74154e-05
-1.64533e-05
-4.60042e-05
-2.28374e-05
-4.42446e-05
-2.92631e-05
-4.21179e-05
-3.57001e-05
-3.9607e-05
-4.20954e-05
-3.67013e-05
-4.83684e-05
-3.33993e-05
-5.44071e-05
-2.971e-05
-6.00669e-05
-2.56474e-05
-6.51752e-05
-2.12304e-05
-6.95338e-05
-1.64762e-05
-7.28861e-05
-1.1378e-05
-7.48099e-05
-5.90674e-06
-7.44426e-05
-6.94945e-05
-4.55671e-05
2.76675e-05
4.46891e-05
-4.61827e-05
2.13556e-05
-4.65357e-05
1.50076e-05
-4.66262e-05
8.6211e-06
-4.64539e-05
2.19091e-06
-4.6016e-05
-4.29105e-06
-4.53061e-05
-1.08343e-05
-4.43133e-05
-1.7446e-05
-4.30226e-05
-2.41281e-05
-4.14148e-05
-3.08709e-05
-3.94683e-05
-3.76466e-05
-3.7162e-05
-4.44018e-05
-3.44789e-05
-5.10515e-05
-3.14111e-05
-5.74748e-05
-2.79625e-05
-6.35156e-05
-2.41478e-05
-6.89898e-05
-1.99907e-05
-7.36909e-05
-1.55107e-05
-7.73661e-05
-1.07056e-05
-7.9615e-05
-5.55424e-06
-7.9594e-05
-7.50488e-05
-4.24798e-05
2.84452e-05
4.17021e-05
-4.30135e-05
2.18893e-05
-4.33062e-05
1.53004e-05
-4.33614e-05
8.67633e-06
-4.31811e-05
2.01063e-06
-4.27644e-05
-4.70778e-06
-4.21063e-05
-1.14924e-05
-4.11968e-05
-1.83555e-05
-4.0021e-05
-2.53039e-05
-3.85589e-05
-3.23331e-05
-3.67865e-05
-3.94189e-05
-3.46789e-05
-4.65095e-05
-3.22135e-05
-5.35169e-05
-2.93763e-05
-6.0312e-05
-2.61662e-05
-6.67257e-05
-2.25979e-05
-7.25581e-05
-1.8699e-05
-7.75899e-05
-1.44956e-05
-8.15695e-05
-9.99308e-06
-8.41175e-05
-5.17709e-06
-8.441e-05
-8.02258e-05
-3.94147e-05
2.91237e-05
3.87362e-05
-3.9868e-05
2.23425e-05
-4.0102e-05
1.55344e-05
-4.01224e-05
8.6968e-06
-3.99333e-05
1.82154e-06
-3.95354e-05
-5.10575e-06
-3.89249e-05
-1.21029e-05
-3.80931e-05
-1.91873e-05
-3.70253e-05
-2.63717e-05
-3.57013e-05
-3.36571e-05
-3.40957e-05
-4.10246e-05
-3.218e-05
-4.84252e-05
-2.9927e-05
-5.57698e-05
-2.73169e-05
-6.29221e-05
-2.43438e-05
-6.96988e-05
-2.10211e-05
-7.58807e-05
-1.73801e-05
-8.12309e-05
-1.34551e-05
-8.54945e-05
-9.26045e-06
-8.83121e-05
-4.7876e-06
-8.88829e-05
-8.50134e-05
-3.63948e-05
2.9706e-05
3.58125e-05
-3.67704e-05
2.27181e-05
-3.69476e-05
1.57115e-05
-3.6934e-05
8.68318e-06
-3.67351e-05
1.62268e-06
-3.63531e-05
-5.48773e-06
-3.57857e-05
-1.26703e-05
-3.50252e-05
-1.99478e-05
-3.40578e-05
-2.73391e-05
-3.28634e-05
-3.48515e-05
-3.14156e-05
-4.24723e-05
-2.96839e-05
-5.01569e-05
-2.76371e-05
-5.78166e-05
-2.525e-05
-6.53092e-05
-2.25119e-05
-7.24369e-05
-1.94342e-05
-7.89584e-05
-1.6051e-05
-8.46141e-05
-1.24052e-05
-8.91403e-05
-8.52086e-06
-9.21964e-05
-4.39379e-06
-9.30099e-05
-8.94072e-05
-3.34395e-05
3.01957e-05
3.29498e-05
-3.37405e-05
2.30191e-05
-3.38627e-05
1.58338e-05
-3.38155e-05
8.63598e-06
-3.36058e-05
1.41291e-06
-3.32369e-05
-5.85664e-06
-3.27077e-05
-1.31994e-05
-3.20119e-05
-2.06437e-05
-3.11366e-05
-2.82143e-05
-3.00624e-05
-3.59257e-05
-2.87629e-05
-4.37718e-05
-2.7206e-05
-5.17137e-05
-2.53577e-05
-5.96649e-05
-2.31883e-05
-6.74786e-05
-2.06824e-05
-7.49428e-05
-1.78486e-05
-8.17922e-05
-1.47229e-05
-8.77399e-05
-1.13561e-05
-9.25071e-05
-7.78258e-06
-9.57699e-05
-4.00075e-06
-9.67918e-05
-9.3408e-05
-3.05639e-05
3.05966e-05
3.0163e-05
-3.07931e-05
2.32482e-05
-3.08621e-05
1.59028e-05
-3.07815e-05
8.55539e-06
-3.05594e-05
1.19086e-06
-3.02005e-05
-6.21555e-06
-2.97048e-05
-1.36951e-05
-2.90671e-05
-2.12814e-05
-2.82757e-05
-2.90057e-05
-2.73122e-05
-3.68892e-05
-2.61506e-05
-4.49334e-05
-2.47585e-05
-5.31058e-05
-2.30999e-05
-6.13236e-05
-2.11416e-05
-6.94369e-05
-1.88638e-05
-7.72206e-05
-1.62719e-05
-8.43842e-05
-1.34025e-05
-9.06092e-05
-1.03138e-05
-9.55958e-05
-7.0502e-06
-9.90336e-05
-3.61182e-06
-0.00010023
-9.70198e-05
-2.77789e-05
3.09119e-05
2.74636e-05
-2.79384e-05
2.34078e-05
-2.79552e-05
1.59196e-05
-2.78409e-05
8.44115e-06
-2.7605e-05
9.54935e-07
-2.72531e-05
-6.56748e-06
-2.67863e-05
-1.41619e-05
-2.62003e-05
-2.18674e-05
-2.54849e-05
-2.97211e-05
-2.46225e-05
-3.77516e-05
-2.35883e-05
-4.59676e-05
-2.23503e-05
-5.43439e-05
-2.08715e-05
-6.28024e-05
-1.91164e-05
-7.11921e-05
-1.70612e-05
-7.92757e-05
-1.4708e-05
-8.67374e-05
-1.20933e-05
-9.32239e-05
-9.28092e-06
-9.84081e-05
-6.32531e-06
-0.000101989
-3.22923e-06
-0.000103326
-0.000100249
-2.50907e-05
3.11442e-05
2.48584e-05
-2.51821e-05
2.34992e-05
-2.51469e-05
1.58844e-05
-2.49984e-05
8.29258e-06
-2.47468e-05
7.03372e-07
-2.43989e-05
-6.91537e-06
-2.39567e-05
-1.46041e-05
-2.34167e-05
-2.24074e-05
-2.27695e-05
-3.03683e-05
-2.19992e-05
-3.8522e-05
-2.1082e-05
-4.68847e-05
-1.9987e-05
-5.54389e-05
-1.86775e-05
-6.41119e-05
-1.71164e-05
-7.27531e-05
-1.52773e-05
-8.11148e-05
-1.31586e-05
-8.88561e-05
-1.0796e-05
-9.55865e-05
-8.25772e-06
-0.000100946
-5.60754e-06
-0.000104639
-2.85331e-06
-0.00010608
-0.000103102
-2.25003e-05
3.12953e-05
2.23492e-05
-2.25245e-05
2.35234e-05
-2.24375e-05
1.57975e-05
-2.22537e-05
8.1088e-06
-2.19848e-05
4.34433e-07
-2.16383e-05
-7.2619e-06
-2.12167e-05
-1.50257e-05
-2.07174e-05
-2.29067e-05
-2.01316e-05
-3.0954e-05
-1.94445e-05
-3.9209e-05
-1.86342e-05
-4.76951e-05
-1.76712e-05
-5.64019e-05
-1.65199e-05
-6.52632e-05
-1.51431e-05
-7.41299e-05
-1.35122e-05
-8.27457e-05
-1.16229e-05
-9.07453e-05
-9.50936e-06
-9.77001e-05
-7.2428e-06
-0.000103213
-4.89559e-06
-0.000106987
-2.48187e-06
-0.000108494
-0.000105584
-2.00017e-05
3.13683e-05
1.99287e-05
-1.99607e-05
2.34824e-05
-1.98225e-05
1.56593e-05
-1.9603e-05
7.88934e-06
-1.93154e-05
1.46789e-07
-1.8968e-05
-7.60927e-06
-1.85639e-05
-1.54298e-05
-1.81004e-05
-2.33702e-05
-1.75696e-05
-3.14849e-05
-1.69576e-05
-3.9821e-05
-1.62443e-05
-4.84084e-05
-1.54023e-05
-5.72438e-05
-1.4398e-05
-6.62675e-05
-1.3195e-05
-7.5333e-05
-1.17638e-05
-8.41769e-05
-1.00979e-05
-9.24112e-05
-8.23003e-06
-9.9568e-05
-6.23313e-06
-0.00010521
-4.18719e-06
-0.000109032
-2.11227e-06
-0.000110569
-0.000107696
-1.75788e-05
3.13734e-05
1.75736e-05
-1.74794e-05
2.3383e-05
-1.7293e-05
1.54729e-05
-1.70389e-05
7.63522e-06
-1.67322e-05
-1.59941e-07
-1.63825e-05
-7.95892e-06
-1.59932e-05
-1.58192e-05
-1.55614e-05
-2.3802e-05
-1.50794e-05
-3.19669e-05
-1.45346e-05
-4.03658e-05
-1.39087e-05
-4.90343e-05
-1.31769e-05
-5.79756e-05
-1.23083e-05
-6.71362e-05
-1.12682e-05
-7.63731e-05
-1.00275e-05
-8.54176e-05
-8.57862e-06
-9.38601e-05
-6.95275e-06
-0.000101194
-5.2239e-06
-0.000106939
-3.47894e-06
-0.000110777
-1.74272e-06
-0.000112305
-0.000109439
-1.52129e-05
3.13163e-05
1.52701e-05
-1.50643e-05
2.32344e-05
-1.48377e-05
1.52464e-05
-1.45524e-05
7.34985e-06
-1.42275e-05
-4.84842e-07
-1.38749e-05
-8.31151e-06
-1.34981e-05
-1.61959e-05
-1.30939e-05
-2.42062e-05
-1.26548e-05
-3.2406e-05
-1.21693e-05
-4.08514e-05
-1.16212e-05
-4.95824e-05
-1.09889e-05
-5.86079e-05
-1.02445e-05
-6.78806e-05
-9.35626e-06
-7.72613e-05
-8.29662e-06
-8.64772e-05
-7.05772e-06
-9.5099e-05
-5.67013e-06
-0.000102581
-4.20823e-06
-0.000108401
-2.76571e-06
-0.00011222
-1.37209e-06
-0.000113699
-0.000110811
-1.29084e-05
3.1191e-05
1.30336e-05
-1.27088e-05
2.30348e-05
-1.24467e-05
1.49843e-05
-1.21355e-05
7.03863e-06
-1.17941e-05
-8.26235e-07
-1.14381e-05
-8.66752e-06
-1.10716e-05
-1.65624e-05
-1.06907e-05
-2.45871e-05
-1.0288e-05
-3.28088e-05
-9.85333e-06
-4.1286e-05
-9.37329e-06
-5.00624e-05
-8.82947e-06
-5.91517e-05
-8.19789e-06
-6.85122e-05
-7.45047e-06
-7.80087e-05
-6.56221e-06
-8.73655e-05
-5.52638e-06
-9.61348e-05
-4.37371e-06
-0.000103734
-3.17801e-06
-0.000109596
-2.03977e-06
-0.000113358
-1.00186e-06
-0.000114737
-0.000111813
-1.06861e-05
3.09966e-05
1.08805e-05
-1.04284e-05
2.27771e-05
-1.01233e-05
1.46793e-05
-9.78499e-06
6.70029e-06
-9.42787e-06
-1.18336e-06
-9.06683e-06
-9.02856e-06
-8.70707e-06
-1.69221e-05
-8.34366e-06
-2.49505e-05
-7.96953e-06
-3.31829e-05
-7.57653e-06
-4.1679e-05
-7.15408e-06
-5.04849e-05
-6.68755e-06
-5.96182e-05
-6.15722e-06
-6.90425e-05
-5.53943e-06
-7.86265e-05
-4.81302e-06
-8.80919e-05
-3.97411e-06
-9.69737e-05
-3.05494e-06
-0.000104653
-2.1272e-06
-0.000110524
-1.29391e-06
-0.000114191
-6.14976e-07
-0.000115416
-0.000112428
-8.55348e-06
3.07374e-05
8.81274e-06
-8.23921e-06
2.24628e-05
-7.88518e-06
1.43252e-05
-7.50901e-06
6.32413e-06
-7.12891e-06
-1.56345e-06
-6.7577e-06
-9.39977e-06
-6.39829e-06
-1.72816e-05
-6.04397e-06
-2.53048e-05
-5.68869e-06
-3.35382e-05
-5.32663e-06
-4.20411e-05
-4.95044e-06
-5.08611e-05
-4.54944e-06
-6.00192e-05
-4.10848e-06
-6.94835e-05
-3.60894e-06
-7.9126e-05
-3.03482e-06
-8.8666e-05
-2.38693e-06
-9.76216e-05
-1.70125e-06
-0.000105339
-1.05001e-06
-0.000111175
-5.33293e-07
-0.000114708
-1.93581e-07
-0.000115755
-0.000112622
-6.50636e-06
3.04167e-05
6.82705e-06
-6.13862e-06
2.2095e-05
-5.73674e-06
1.39234e-05
-5.31708e-06
5.90447e-06
-4.9018e-06
-1.97873e-06
-4.50866e-06
-9.7929e-06
-4.13824e-06
-1.7652e-05
-3.78117e-06
-2.56619e-05
-3.43252e-06
-3.38868e-05
-3.0891e-06
-4.23845e-05
-2.74683e-06
-5.12033e-05
-2.39895e-06
-6.03671e-05
-2.03505e-06
-6.98474e-05
-1.64208e-06
-7.9519e-05
-1.21029e-06
-8.90978e-05
-7.4671e-07
-9.80852e-05
-2.92197e-07
-0.000105793
7.57163e-08
-0.000111543
2.6901e-07
-0.000114901
2.60382e-07
-0.000115747
-0.000112361
-4.53357e-06
3.00358e-05
4.91446e-06
-4.1124e-06