/*--------------------------------*- C++ -*----------------------------------*\
| =========                 |                                                 |
| \\      /  F ield         | OpenFOAM: The Open Source CFD Toolbox           |
|  \\    /   O peration     | Version:  v2012                                 |
|   \\  /    A nd           | Website:  www.openfoam.com                      |
|    \\/     M anipulation  |                                                 |
\*---------------------------------------------------------------------------*/
FoamFile
{
    version     2.0;
    format      ascii;
    class       volVectorField;
    location    "618";
    object      U;
}
// * * * * * * * * * * * * * * * * * * * * * * * * * * * * * * * * * * * * * //

dimensions      [0 1 -1 0 0 0 0];


internalField   nonuniform List<vector> 
6057
(
(0.000307955 -0.988195 0)
(0.000331336 -0.988542 0)
(0.000353259 -0.98893 0)
(0.00037349 -0.989354 0)
(0.000392216 -0.98981 0)
(0.000409951 -0.990293 0)
(0.000427334 -0.990801 0)
(0.00044509 -0.991332 0)
(0.00046387 -0.991886 0)
(0.000484241 -0.992463 0)
(0.000506766 -0.993064 0)
(0.000531795 -0.993694 0)
(0.000559381 -0.994354 0)
(0.0005894 -0.995047 0)
(0.000621029 -0.995777 0)
(0.000650033 -0.996552 0)
(0.000667096 -0.997382 0)
(0.000653504 -0.998239 0)
(0.000529581 -0.998994 0)
(0.000145535 -0.999508 0)
(0.000227303 -1.00026 0)
(0.00027708 -1.00015 0)
(0.000320931 -1.00008 0)
(0.000358595 -1.00003 0)
(0.000390546 -1.00001 0)
(0.000418044 -0.999998 0)
(0.000442457 -1 0)
(0.000465162 -1.00002 0)
(0.000487436 -1.00004 0)
(0.000510405 -1.00006 0)
(0.000534939 -1.0001 0)
(0.000561603 -1.00014 0)
(0.00059099 -1.00018 0)
(0.000624437 -1.00022 0)
(0.000661395 -1.00026 0)
(0.000693482 -1.00031 0)
(0.00071213 -1.00034 0)
(0.000717837 -1.00035 0)
(0.000668318 -1.00028 0)
(0.00036077 -1.00006 0)
(6.78655e-05 -1.00349 0)
(0.000146958 -1.00325 0)
(0.000213666 -1.00304 0)
(0.000268702 -1.00286 0)
(0.000313189 -1.00269 0)
(0.000349419 -1.00253 0)
(0.000379651 -1.00239 0)
(0.000405983 -1.00224 0)
(0.000430211 -1.00209 0)
(0.00045382 -1.00195 0)
(0.000478021 -1.0018 0)
(0.000503837 -1.00165 0)
(0.00053163 -1.00149 0)
(0.000556559 -1.00132 0)
(0.000573665 -1.00115 0)
(0.000592322 -1.00095 0)
(0.000599784 -1.00075 0)
(0.000572574 -1.00052 0)
(0.000477741 -1.00026 0)
(0.000231279 -1.00005 0)
(-0.000171302 -1.00478 0)
(-6.09573e-05 -1.00449 0)
(2.77886e-05 -1.00423 0)
(9.83603e-05 -1.00399 0)
(0.00015275 -1.00376 0)
(0.000194692 -1.00354 0)
(0.000227486 -1.00333 0)
(0.000254019 -1.00311 0)
(0.000276605 -1.00289 0)
(0.00029698 -1.00266 0)
(0.000316359 -1.00243 0)
(0.00033555 -1.00218 0)
(0.000354748 -1.00193 0)
(0.0003725 -1.00166 0)
(0.000386745 -1.00138 0)
(0.000396155 -1.00109 0)
(0.000390141 -1.00079 0)
(0.000357012 -1.00048 0)
(0.000274796 -1.0002 0)
(0.000113756 -1.00003 0)
(-0.000439048 -1.00524 0)
(-0.00029424 -1.00493 0)
(-0.000184744 -1.00466 0)
(-0.000100875 -1.0044 0)
(-3.97572e-05 -1.00416 0)
(4.43502e-06 -1.00392 0)
(3.62596e-05 -1.00368 0)
(5.94454e-05 -1.00343 0)
(7.68207e-05 -1.00318 0)
(9.04117e-05 -1.00292 0)
(0.000101619 -1.00265 0)
(0.00011138 -1.00237 0)
(0.000120112 -1.00207 0)
(0.000127426 -1.00176 0)
(0.000132689 -1.00144 0)
(0.000135404 -1.00111 0)
(0.000132401 -1.00077 0)
(0.000119071 -1.00045 0)
(8.85916e-05 -1.00017 0)
(3.43532e-05 -1.00002 0)
(-0.000707585 -1.00512 0)
(-0.000521832 -1.00483 0)
(-0.000393528 -1.00459 0)
(-0.000298465 -1.00435 0)
(-0.000233644 -1.00412 0)
(-0.000190114 -1.00389 0)
(-0.000161791 -1.00366 0)
(-0.000144113 -1.00342 0)
(-0.000133829 -1.00317 0)
(-0.000128726 -1.00292 0)
(-0.000127325 -1.00265 0)
(-0.000128603 -1.00237 0)
(-0.000131679 -1.00207 0)
(-0.000135254 -1.00176 0)
(-0.00013792 -1.00144 0)
(-0.000138746 -1.00111 0)
(-0.000134536 -1.00077 0)
(-0.000120423 -1.00045 0)
(-8.93092e-05 -1.00017 0)
(-3.45903e-05 -1.00002 0)
(-0.000961025 -1.00445 0)
(-0.000717009 -1.0042 0)
(-0.000573116 -1.00402 0)
(-0.000469327 -1.00383 0)
(-0.000404308 -1.00365 0)
(-0.000364175 -1.00347 0)
(-0.000341447 -1.00327 0)
(-0.000330715 -1.00307 0)
(-0.000328179 -1.00286 0)
(-0.000331605 -1.00264 0)
(-0.000339565 -1.00242 0)
(-0.000351069 -1.00218 0)
(-0.000365154 -1.00192 0)
(-0.000379573 -1.00166 0)
(-0.000391462 -1.00138 0)
(-0.000399088 -1.00109 0)
(-0.000392049 -1.00079 0)
(-0.000358233 -1.00048 0)
(-0.000275416 -1.0002 0)
(-0.000113963 -1.00003 0)
(-0.00120285 -1.00293 0)
(-0.00084031 -1.00276 0)
(-0.000688856 -1.00269 0)
(-0.000580342 -1.0026 0)
(-0.000520569 -1.00252 0)
(-0.000488584 -1.00242 0)
(-0.000472679 -1.0023 0)
(-0.000467949 -1.00218 0)
(-0.000471625 -1.00206 0)
(-0.00048153 -1.00192 0)
(-0.000496553 -1.00178 0)
(-0.00051617 -1.00164 0)
(-0.000539782 -1.00148 0)
(-0.000562247 -1.00132 0)
(-0.00057768 -1.00114 0)
(-0.000594636 -1.00095 0)
(-0.000601103 -1.00075 0)
(-0.000573554 -1.00052 0)
(-0.000478205 -1.00026 0)
(-0.000231426 -1.00005 0)
(-0.00137591 -0.999605 0)
(-0.000819379 -0.999379 0)
(-0.000678742 -0.999578 0)
(-0.000579733 -0.999681 0)
(-0.000534734 -0.999771 0)
(-0.000513026 -0.99984 0)
(-0.000505344 -0.999897 0)
(-0.000506747 -0.999945 0)
(-0.000515112 -0.99999 0)
(-0.000528889 -1.00003 0)
(-0.00054731 -1.00008 0)
(-0.00056991 -1.00012 0)
(-0.000596554 -1.00017 0)
(-0.000628059 -1.00022 0)
(-0.000663712 -1.00026 0)
(-0.000695086 -1.0003 0)
(-0.000713259 -1.00034 0)
(-0.000718736 -1.00035 0)
(-0.000668325 -1.00028 0)
(-0.000360819 -1.00006 0)
(-0.0012534 -0.988445 0)
(-0.000504209 -0.987382 0)
(-0.000533348 -0.988204 0)
(-0.000476529 -0.988895 0)
(-0.000458156 -0.989509 0)
(-0.000453118 -0.990095 0)
(-0.000455901 -0.99067 0)
(-0.000464115 -0.991245 0)
(-0.000476587 -0.991828 0)
(-0.000492775 -0.992425 0)
(-0.000512503 -0.99304 0)
(-0.00053566 -0.993678 0)
(-0.000561994 -0.994344 0)
(-0.000591157 -0.995041 0)
(-0.000622164 -0.995773 0)
(-0.000650747 -0.99655 0)
(-0.000667537 -0.997381 0)
(-0.000653697 -0.998239 0)
(-0.00052971 -0.998994 0)
(-0.000145559 -0.999508 0)
(0.0128865 -0.847948 0)
(0.0112607 -0.872871 0)
(0.00975547 -0.894543 0)
(0.00836036 -0.913158 0)
(0.00707897 -0.92896 0)
(0.00591316 -0.942197 0)
(0.00486443 -0.95312 0)
(0.00393265 -0.961979 0)
(0.00311627 -0.96902 0)
(0.00241385 -0.974484 0)
(0.00182305 -0.978606 0)
(0.00134059 -0.981612 0)
(0.000961205 -0.983724 0)
(0.000679627 -0.985143 0)
(0.000502673 -0.986056 0)
(0.000350277 -0.986619 0)
(0.00028746 -0.986964 0)
(0.000255039 -0.987205 0)
(0.000251173 -0.987414 0)
(0.000264221 -0.987637 0)
(0.000284759 -0.987895 0)
(0.0315175 -0.881773 0)
(0.0274707 -0.904561 0)
(0.0237063 -0.924262 0)
(0.0202228 -0.941068 0)
(0.0170284 -0.955209 0)
(0.0141282 -0.966917 0)
(0.0115254 -0.976432 0)
(0.00921921 -0.983992 0)
(0.00720359 -0.989832 0)
(0.00547129 -0.994198 0)
(0.00401529 -0.997316 0)
(0.00282635 -0.99941 0)
(0.00188954 -1.0007 0)
(0.00118098 -1.00137 0)
(0.000676855 -1.00161 0)
(0.000349742 -1.00156 0)
(0.000166556 -1.00135 0)
(9.303e-05 -1.00109 0)
(9.16602e-05 -1.00082 0)
(0.00012676 -1.00059 0)
(0.000175284 -1.0004 0)
(0.0509001 -0.893864 0)
(0.0443011 -0.915731 0)
(0.038133 -0.934613 0)
(0.0324195 -0.950692 0)
(0.0271784 -0.964178 0)
(0.022421 -0.97529 0)
(0.0181534 -0.984258 0)
(0.014377 -0.991315 0)
(0.0110867 -0.996696 0)
(0.00826965 -1.00063 0)
(0.00591134 -1.00334 0)
(0.00399731 -1.00504 0)
(0.0025064 -1.00595 0)
(0.00139578 -1.00628 0)
(0.000619834 -1.0062 0)
(0.000130077 -1.00587 0)
(-0.00012575 -1.00541 0)
(-0.000208595 -1.00492 0)
(-0.000181064 -1.00448 0)
(-0.000104624 -1.00409 0)
(-1.79112e-05 -1.00377 0)
(0.0696279 -0.901196 0)
(0.0605705 -0.922632 0)
(0.0520824 -0.941116 0)
(0.044206 -0.956822 0)
(0.036971 -0.969949 0)
(0.0303979 -0.98071 0)
(0.0244979 -0.989329 0)
(0.0192752 -0.996037 0)
(0.0147241 -1.00107 0)
(0.0108289 -1.00465 0)
(0.00756921 -1.007 0)
(0.00492638 -1.00834 0)
(0.00288538 -1.0089 0)
(0.00138348 -1.0089 0)
(0.000346148 -1.00852 0)
(-0.000285868 -1.00791 0)
(-0.000590791 -1.00722 0)
(-0.000655009 -1.00655 0)
(-0.000569052 -1.00598 0)
(-0.000428199 -1.00551 0)
(-0.000293649 -1.00512 0)
(0.0880885 -0.907112 0)
(0.0765866 -0.928266 0)
(0.0657824 -0.946467 0)
(0.0557407 -0.961887 0)
(0.0465048 -0.974725 0)
(0.0381055 -0.985189 0)
(0.0305613 -0.993499 0)
(0.023884 -0.999886 0)
(0.0180707 -1.00458 0)
(0.0130947 -1.00783 0)
(0.00892506 -1.00983 0)
(0.00554747 -1.01079 0)
(0.00297936 -1.01098 0)
(0.0010954 -1.0106 0)
(-0.000180607 -1.00989 0)
(-0.000921755 -1.00898 0)
(-0.0012337 -1.00804 0)
(-0.0012335 -1.00719 0)
(-0.00103841 -1.0065 0)
(-0.000791637 -1.00599 0)
(-0.000597437 -1.00559 0)
(0.106347 -0.91168 0)
(0.0923879 -0.932539 0)
(0.079262 -0.950447 0)
(0.0670594 -0.965587 0)
(0.0558277 -0.978162 0)
(0.0456012 -0.988379 0)
(0.0364108 -0.996444 0)
(0.028278 -1.00258 0)
(0.0211959 -1.00701 0)
(0.0151089 -1.00999 0)
(0.01 -1.01172 0)
(0.00585675 -1.01231 0)
(0.00268517 -1.01236 0)
(0.000457433 -1.01153 0)
(-0.000998654 -1.0105 0)
(-0.00180323 -1.0093 0)
(-0.00206582 -1.00811 0)
(-0.00193622 -1.00707 0)
(-0.00155832 -1.0063 0)
(-0.00114565 -1.0058 0)
(-0.000888554 -1.00545 0)
(0.124324 -0.913357 0)
(0.107916 -0.933684 0)
(0.0924943 -0.951095 0)
(0.0781573 -0.965814 0)
(0.0649278 -0.978076 0)
(0.0528664 -0.988105 0)
(0.0420124 -0.996073 0)
(0.0323693 -1.00219 0)
(0.0239339 -1.00667 0)
(0.0167393 -1.00954 0)
(0.0108004 -1.01121 0)
(0.006021 -1.01195 0)
(0.00229938 -1.01186 0)
(-0.000324991 -1.01106 0)
(-0.00200158 -1.00978 0)
(-0.00285493 -1.00848 0)
(-0.00300072 -1.00716 0)
(-0.00267374 -1.00602 0)
(-0.00206072 -1.00524 0)
(-0.00143434 -1.0049 0)
(-0.00111466 -1.00472 0)
(0.141664 -0.90841 0)
(0.122824 -0.927412 0)
(0.105128 -0.94365 0)
(0.0886952 -0.957422 0)
(0.0736653 -0.968784 0)
(0.0600451 -0.978381 0)
(0.0477595 -0.986276 0)
(0.0368366 -0.992618 0)
(0.0272901 -0.997608 0)
(0.0191211 -1.00138 0)
(0.0122464 -1.00399 0)
(0.00661283 -1.00547 0)
(0.00226195 -1.006 0)
(-0.00077573 -1.00587 0)
(-0.0026444 -1.00538 0)
(-0.00358215 -1.00471 0)
(-0.00372772 -1.00389 0)
(-0.00332807 -1.00312 0)
(-0.00262219 -1.00269 0)
(-0.00172131 -1.00279 0)
(-0.00112314 -1.00304 0)
(0.157377 -0.889153 0)
(0.136238 -0.904485 0)
(0.116538 -0.917224 0)
(0.0984024 -0.927873 0)
(0.081896 -0.936881 0)
(0.0669279 -0.944603 0)
(0.0533962 -0.951358 0)
(0.041265 -0.957438 0)
(0.0306192 -0.96299 0)
(0.0214733 -0.968181 0)
(0.0136344 -0.972935 0)
(0.00707506 -0.977125 0)
(0.00183167 -0.980773 0)
(-0.0020497 -0.984007 0)
(-0.00434051 -0.986971 0)
(-0.00571857 -0.989586 0)
(-0.00616056 -0.991774 0)
(-0.00560446 -0.993584 0)
(-0.00406908 -0.995008 0)
(-0.001469 -0.996529 0)
(0.000160683 -0.998605 0)
(0.168658 -0.843474 0)
(0.145179 -0.850202 0)
(0.123626 -0.854139 0)
(0.104121 -0.855964 0)
(0.0866945 -0.856304 0)
(0.0712745 -0.855729 0)
(0.0577523 -0.854794 0)
(0.0460436 -0.854052 0)
(0.036065 -0.854077 0)
(0.0276396 -0.855391 0)
(0.0204772 -0.858367 0)
(0.0145703 -0.863274 0)
(0.0101834 -0.870345 0)
(0.00794261 -0.879395 0)
(0.00748916 -0.890526 0)
(0.00771142 -0.903302 0)
(0.00849244 -0.91753 0)
(0.00921178 -0.932296 0)
(0.00960629 -0.94538 0)
(0.00976809 -0.958348 0)
(0.00660567 -0.975149 0)
(-0.0250856 0.016082 0)
(-0.020286 0.0507681 0)
(-0.00818503 0.0599492 0)
(0.00397697 0.0479211 0)
(0.0108967 0.0204195 0)
(0.019368 -0.0142309 0)
(0.0335501 -0.0808009 0)
(0.0422528 -0.17791 0)
(0.0413756 -0.27105 0)
(0.037375 -0.353196 0)
(0.033528 -0.427565 0)
(0.0302126 -0.494932 0)
(0.027397 -0.556075 0)
(0.0248842 -0.611677 0)
(0.0225796 -0.662188 0)
(0.0204256 -0.707945 0)
(0.0183924 -0.749209 0)
(0.0164654 -0.786179 0)
(0.0146311 -0.819021 0)
(-0.0521523 0.00922168 0)
(-0.0247845 0.0351725 0)
(0.00854801 0.0313247 0)
(0.0267924 0.00423884 0)
(0.0471793 -0.0535993 0)
(0.0750162 -0.131252 0)
(0.0970346 -0.220631 0)
(0.103209 -0.304128 0)
(0.0973375 -0.371631 0)
(0.0886436 -0.437888 0)
(0.0806997 -0.500641 0)
(0.0735651 -0.55957 0)
(0.0671215 -0.614296 0)
(0.0611733 -0.664761 0)
(0.0555909 -0.710992 0)
(0.050295 -0.75307 0)
(0.0452474 -0.791091 0)
(0.0404361 -0.825158 0)
(0.0358515 -0.8554 0)
(-0.0668594 -0.00712027 0)
(-0.0107101 0.00911912 0)
(0.0334167 -0.0176465 0)
(0.0685868 -0.067983 0)
(0.106272 -0.142959 0)
(0.139596 -0.224205 0)
(0.156623 -0.298261 0)
(0.156241 -0.361598 0)
(0.147515 -0.420256 0)
(0.137277 -0.479041 0)
(0.126995 -0.535552 0)
(0.117075 -0.589432 0)
(0.107605 -0.640104 0)
(0.0985368 -0.687308 0)
(0.0898123 -0.730895 0)
(0.0813919 -0.770806 0)
(0.0732661 -0.807028 0)
(0.0654485 -0.839589 0)
(0.0579614 -0.868565 0)
(-0.0649484 -0.0223446 0)
(0.0132015 -0.0261054 0)
(0.0705734 -0.0712524 0)
(0.123029 -0.136421 0)
(0.168192 -0.211897 0)
(0.196959 -0.281693 0)
(0.206372 -0.341419 0)
(0.202123 -0.395807 0)
(0.192567 -0.450024 0)
(0.181422 -0.503983 0)
(0.169504 -0.556455 0)
(0.157458 -0.606969 0)
(0.145532 -0.654972 0)
(0.133816 -0.700113 0)
(0.122332 -0.742129 0)
(0.111098 -0.780845 0)
(0.100146 -0.816149 0)
(0.0895264 -0.847991 0)
(0.0792996 -0.876385 0)
(-0.0350917 -0.0349607 0)
(0.0470937 -0.0594576 0)
(0.117625 -0.117927 0)
(0.179007 -0.187702 0)
(0.222288 -0.25608 0)
(0.244212 -0.315247 0)
(0.248741 -0.367588 0)
(0.243451 -0.418364 0)
(0.233903 -0.469583 0)
(0.222149 -0.52042 0)
(0.209122 -0.570286 0)
(0.195528 -0.618663 0)
(0.181694 -0.66503 0)
(0.167787 -0.708963 0)
(0.153902 -0.750109 0)
(0.140116 -0.788197 0)
(0.126521 -0.823036 0)
(0.113221 -0.854511 0)
(0.100332 -0.882592 0)
(0.00127918 -0.0445168 0)
(0.0915544 -0.0856887 0)
(0.169825 -0.152096 0)
(0.231651 -0.220624 0)
(0.269295 -0.281567 0)
(0.285756 -0.334552 0)
(0.288101 -0.383911 0)
(0.282803 -0.433016 0)
(0.273304 -0.482321 0)
(0.261129 -0.531313 0)
(0.247301 -0.579624 0)
(0.23249 -0.626759 0)
(0.217052 -0.672203 0)
(0.201202 -0.715477 0)
(0.185091 -0.756155 0)
(0.168864 -0.793894 0)
(0.152683 -0.828442 0)
(0.136726 -0.859644 0)
(0.121173 -0.887447 0)
(0.0493162 -0.0500049 0)
(0.144341 -0.103515 0)
(0.223483 -0.173714 0)
(0.280672 -0.238823 0)
(0.312326 -0.294752 0)
(0.325156 -0.345106 0)
(0.326529 -0.393503 0)
(0.321246 -0.44179 0)
(0.31168 -0.490044 0)
(0.299183 -0.538056 0)
(0.284712 -0.58553 0)
(0.268861 -0.631998 0)
(0.251978 -0.676934 0)
(0.234301 -0.719808 0)
(0.216031 -0.760132 0)
(0.197387 -0.797508 0)
(0.178614 -0.831648 0)
(0.159977 -0.862381 0)
(0.141741 -0.889665 0)
(0.105119 -0.0529635 0)
(0.201453 -0.113621 0)
(0.276465 -0.184982 0)
(0.327059 -0.246791 0)
(0.353544 -0.300171 0)
(0.363924 -0.349807 0)
(0.364639 -0.398037 0)
(0.359217 -0.445982 0)
(0.349518 -0.493754 0)
(0.336742 -0.541299 0)
(0.321699 -0.588336 0)
(0.304881 -0.634398 0)
(0.286597 -0.678919 0)
(0.267094 -0.721304 0)
(0.246624 -0.761001 0)
(0.225489 -0.797557 0)
(0.20404 -0.830666 0)
(0.18265 -0.860178 0)
(0.161684 -0.886107 0)
(0.1675 -0.0556803 0)
(0.259606 -0.118241 0)
(0.328079 -0.188803 0)
(0.371859 -0.248184 0)
(0.394105 -0.300577 0)
(0.402617 -0.35023 0)
(0.402676 -0.398552 0)
(0.396999 -0.446398 0)
(0.387119 -0.493974 0)
(0.374045 -0.541257 0)
(0.358404 -0.587943 0)
(0.340562 -0.633509 0)
(0.320768 -0.677296 0)
(0.299266 -0.718596 0)
(0.276372 -0.756749 0)
(0.252495 -0.79123 0)
(0.228128 -0.821715 0)
(0.203794 -0.848107 0)
(0.179993 -0.870533 0)
(0.234645 -0.0572143 0)
(0.316945 -0.118787 0)
(0.37828 -0.187641 0)
(0.415825 -0.245448 0)
(0.434555 -0.297535 0)
(0.441434 -0.347314 0)
(0.440762 -0.39574 0)
(0.434726 -0.443527 0)
(0.424581 -0.490925 0)
(0.411099 -0.537862 0)
(0.394695 -0.583935 0)
(0.37558 -0.628478 0)
(0.353915 -0.670638 0)
(0.329942 -0.709493 0)
(0.304056 -0.74419 0)
(0.276822 -0.774082 0)
(0.248934 -0.798824 0)
(0.221129 -0.818405 0)
(0.194097 -0.833131 0)
(0.170803 -0.760169 0)
(0.144495 -0.752797 0)
(0.120758 -0.742188 0)
(0.0996471 -0.728975 0)
(0.0810933 -0.713615 0)
(0.0649378 -0.696386 0)
(0.0509908 -0.677386 0)
(0.0390942 -0.656587 0)
(0.0292174 -0.633899 0)
(0.0217347 -0.608992 0)
(0.0154513 -0.581475 0)
(0.0104647 -0.551253 0)
(0.00667396 -0.518093 0)
(0.00373356 -0.481856 0)
(0.0011836 -0.442264 0)
(-0.00184054 -0.39873 0)
(-0.00476132 -0.35021 0)
(-0.00541082 -0.295865 0)
(-0.0080606 -0.237835 0)
(-0.0213084 -0.183842 0)
(-0.0339772 -0.142983 0)
(0.159709 -0.645569 0)
(0.130268 -0.62473 0)
(0.103982 -0.601629 0)
(0.0806798 -0.576944 0)
(0.0600843 -0.551105 0)
(0.0418977 -0.524328 0)
(0.0258465 -0.496653 0)
(0.0116964 -0.468037 0)
(-0.00071477 -0.438532 0)
(-0.0116268 -0.408105 0)
(-0.0214171 -0.376324 0)
(-0.0300674 -0.342606 0)
(-0.0371435 -0.307367 0)
(-0.0426975 -0.269781 0)
(-0.0474512 -0.229876 0)
(-0.0522964 -0.185224 0)
(-0.0568155 -0.137836 0)
(-0.0591328 -0.0873469 0)
(-0.0606727 -0.0378376 0)
(-0.0703015 0.00282779 0)
(-0.0974975 0.0123781 0)
(0.138324 -0.524901 0)
(0.10724 -0.498061 0)
(0.0800924 -0.471569 0)
(0.056523 -0.446081 0)
(0.0361216 -0.421951 0)
(0.0184566 -0.399302 0)
(0.00306199 -0.378018 0)
(-0.0105573 -0.357661 0)
(-0.0226532 -0.337851 0)
(-0.0334984 -0.317557 0)
(-0.0438231 -0.294742 0)
(-0.0535015 -0.27078 0)
(-0.0623899 -0.244612 0)
(-0.0710438 -0.215811 0)
(-0.0796284 -0.18476 0)
(-0.0872287 -0.152167 0)
(-0.0925601 -0.118437 0)
(-0.0949481 -0.0829478 0)
(-0.0956574 -0.0468458 0)
(-0.0953057 -0.0163325 0)
(-0.0863245 -0.00206661 0)
(0.114605 -0.421802 0)
(0.0849209 -0.399063 0)
(0.059947 -0.379859 0)
(0.0388791 -0.3642 0)
(0.0208162 -0.351495 0)
(0.00488651 -0.3407 0)
(-0.00963736 -0.330518 0)
(-0.0233153 -0.319584 0)
(-0.0364874 -0.307252 0)
(-0.0492427 -0.293007 0)
(-0.061306 -0.276586 0)
(-0.0726439 -0.257769 0)
(-0.0833367 -0.23623 0)
(-0.0934269 -0.211967 0)
(-0.103013 -0.185257 0)
(-0.111839 -0.156437 0)
(-0.118832 -0.12573 0)
(-0.123091 -0.093415 0)
(-0.124001 -0.0606898 0)
(-0.118741 -0.0313421 0)
(-0.0961238 -0.0102859 0)
(0.0971712 -0.350369 0)
(0.071602 -0.338546 0)
(0.0503626 -0.33102 0)
(0.031962 -0.326202 0)
(0.015201 -0.322351 0)
(-0.000688219 -0.318053 0)
(-0.0160974 -0.312364 0)
(-0.0311563 -0.304871 0)
(-0.04595 -0.295272 0)
(-0.060519 -0.283375 0)
(-0.0747635 -0.26903 0)
(-0.0885563 -0.252086 0)
(-0.101806 -0.232457 0)
(-0.114407 -0.210164 0)
(-0.126196 -0.185331 0)
(-0.136728 -0.158399 0)
(-0.144987 -0.12978 0)
(-0.150032 -0.0997357 0)
(-0.150727 -0.0689363 0)
(-0.14306 -0.0394913 0)
(-0.115771 -0.0147706 0)
(0.0897523 -0.30902 0)
(0.0679883 -0.307075 0)
(0.0487944 -0.307106 0)
(0.030821 -0.307299 0)
(0.0133686 -0.306501 0)
(-0.00384545 -0.304107 0)
(-0.020911 -0.299816 0)
(-0.0378435 -0.293468 0)
(-0.0546487 -0.284903 0)
(-0.0712842 -0.274026 0)
(-0.0876539 -0.260742 0)
(-0.103649 -0.244968 0)
(-0.119141 -0.226684 0)
(-0.133933 -0.205953 0)
(-0.147634 -0.18285 0)
(-0.159659 -0.157705 0)
(-0.169244 -0.130938 0)
(-0.17536 -0.102668 0)
(-0.176403 -0.0731871 0)
(-0.168048 -0.0437181 0)
(-0.139872 -0.0169273 0)
(0.0898304 -0.285684 0)
(0.0695434 -0.288676 0)
(0.0502551 -0.291411 0)
(0.0312996 -0.292967 0)
(0.0124463 -0.292925 0)
(-0.00637144 -0.291083 0)
(-0.0251706 -0.287317 0)
(-0.0439447 -0.281516 0)
(-0.0626744 -0.273578 0)
(-0.0812948 -0.263432 0)
(-0.0996983 -0.25101 0)
(-0.117751 -0.236257 0)
(-0.13528 -0.219176 0)
(-0.152031 -0.19987 0)
(-0.167549 -0.178371 0)
(-0.18116 -0.154835 0)
(-0.192157 -0.129654 0)
(-0.199542 -0.102921 0)
(-0.201349 -0.074624 0)
(-0.193443 -0.0454095 0)
(-0.16596 -0.0177613 0)
(0.0933048 -0.269506 0)
(0.0727322 -0.273993 0)
(0.0524065 -0.27728 0)
(0.0321045 -0.279051 0)
(0.0117625 -0.279158 0)
(-0.00864005 -0.277506 0)
(-0.0291081 -0.27402 0)
(-0.0496263 -0.268617 0)
(-0.0701615 -0.261217 0)
(-0.0906412 -0.251755 0)
(-0.110948 -0.240166 0)
(-0.130921 -0.226403 0)
(-0.150345 -0.210462 0)
(-0.16892 -0.192426 0)
(-0.186189 -0.172355 0)
(-0.201394 -0.150312 0)
(-0.21384 -0.126537 0)
(-0.222558 -0.101172 0)
(-0.225501 -0.0740724 0)
(-0.218728 -0.0454721 0)
(-0.192615 -0.0178368 0)
(0.097731 -0.255233 0)
(0.0761661 -0.259846 0)
(0.0545824 -0.263046 0)
(0.0329148 -0.264725 0)
(0.0111379 -0.264809 0)
(-0.0107609 -0.263239 0)
(-0.0327853 -0.259968 0)
(-0.0549197 -0.25493 0)
(-0.0771285 -0.248054 0)
(-0.0993376 -0.239271 0)
(-0.121423 -0.228511 0)
(-0.1432 -0.215718 0)
(-0.164415 -0.200871 0)
(-0.184723 -0.184013 0)
(-0.203635 -0.165224 0)
(-0.220439 -0.144541 0)
(-0.234388 -0.122085 0)
(-0.24448 -0.09801 0)
(-0.248757 -0.0721353 0)
(-0.243459 -0.0444715 0)
(-0.219036 -0.017462 0)
(0.102161 -0.241178 0)
(0.0794331 -0.245511 0)
(0.056597 -0.248447 0)
(0.0336288 -0.249939 0)
(0.010511 -0.249942 0)
(-0.0127694 -0.248423 0)
(-0.0362207 -0.245351 0)
(-0.0598345 -0.240671 0)
(-0.0835807 -0.234314 0)
(-0.107389 -0.226206 0)
(-0.131132 -0.216269 0)
(-0.154608 -0.204431 0)
(-0.17753 -0.190647 0)
(-0.199505 -0.174924 0)
(-0.220011 -0.157314 0)
(-0.238375 -0.137869 0)
(-0.253824 -0.116676 0)
(-0.265318 -0.0938646 0)
(-0.271008 -0.0692636 0)
(-0.267274 -0.0427751 0)
(-0.244673 -0.0167902 0)
(0.106296 -0.22699 0)
(0.082413 -0.23093 0)
(0.0583897 -0.233547 0)
(0.0342116 -0.234819 0)
(0.00986239 -0.234723 0)
(-0.0146756 -0.233244 0)
(-0.0394205 -0.230365 0)
(-0.0643761 -0.226035 0)
(-0.089524 -0.220187 0)
(-0.114803 -0.212744 0)
(-0.140086 -0.203615 0)
(-0.165162 -0.192712 0)
(-0.189716 -0.179967 0)
(-0.213314 -0.16535 0)
(-0.235396 -0.148879 0)
(-0.255281 -0.130602 0)
(-0.272186 -0.110622 0)
(-0.285063 -0.0890648 0)
(-0.292168 -0.0657843 0)
(-0.289978 -0.0406357 0)
(-0.269176 -0.0159204 0)
(0.110047 -0.212689 0)
(0.0850687 -0.216202 0)
(0.0599406 -0.218482 0)
(0.0346524 -0.219524 0)
(0.00918589 -0.219324 0)
(-0.0164852 -0.217882 0)
(-0.042392 -0.215187 0)
(-0.0685548 -0.211193 0)
(-0.0949712 -0.205837 0)
(-0.121593 -0.199037 0)
(-0.148301 -0.190694 0)
(-0.17488 -0.180704 0)
(-0.200993 -0.168972 0)
(-0.226169 -0.155436 0)
(-0.249805 -0.140084 0)
(-0.271183 -0.122956 0)
(-0.289492 -0.104163 0)
(-0.303707 -0.0838508 0)
(-0.312168 -0.0619258 0)
(-0.311433 -0.0382272 0)
(-0.292326 -0.0149311 0)
(0.113394 -0.198376 0)
(0.0873914 -0.201457 0)
(0.0612465 -0.203398 0)
(0.0349497 -0.204213 0)
(0.00847831 -0.203908 0)
(-0.0182049 -0.202495 0)
(-0.045147 -0.199971 0)
(-0.072387 -0.196296 0)
(-0.0999419 -0.191407 0)
(-0.127782 -0.185222 0)
(-0.155801 -0.177636 0)
(-0.183784 -0.168528 0)
(-0.211381 -0.157783 0)
(-0.238087 -0.145309 0)
(-0.263246 -0.131063 0)
(-0.286087 -0.115075 0)
(-0.305755 -0.0974611 0)
(-0.321237 -0.0783927 0)
(-0.330961 -0.0578455 0)
(-0.331557 -0.0356664 0)
(-0.313992 -0.0138724 0)
(0.116334 -0.184164 0)
(0.0893847 -0.186819 0)
(0.0623112 -0.18843 0)
(0.035105 -0.189022 0)
(0.00773665 -0.188613 0)
(-0.019844 -0.187223 0)
(-0.0477009 -0.184855 0)
(-0.0758937 -0.181473 0)
(-0.104461 -0.177022 0)
(-0.133396 -0.171418 0)
(-0.16261 -0.164552 0)
(-0.191898 -0.156293 0)
(-0.2209 -0.146506 0)
(-0.24908 -0.135072 0)
(-0.275727 -0.121922 0)
(-0.299998 -0.107068 0)
(-0.320976 -0.0906305 0)
(-0.337647 -0.0728084 0)
(-0.348519 -0.0536498 0)
(-0.350307 -0.0330315 0)
(-0.334105 -0.0127771 0)
(0.118879 -0.170158 0)
(0.0910579 -0.172401 0)
(0.063142 -0.173693 0)
(0.035121 -0.174069 0)
(0.0069573 -0.173556 0)
(-0.021413 -0.172179 0)
(-0.0500716 -0.169949 0)
(-0.0790995 -0.166836 0)
(-0.10856 -0.162788 0)
(-0.13847 -0.157726 0)
(-0.168764 -0.151538 0)
(-0.199252 -0.144088 0)
(-0.229573 -0.135224 0)
(-0.259164 -0.124805 0)
(-0.287255 -0.112737 0)
(-0.312918 -0.099014 0)
(-0.335157 -0.0837517 0)
(-0.35293 -0.0671778 0)
(-0.364827 -0.049409 0)
(-0.367664 -0.0303739 0)
(-0.352634 -0.011666 0)
(0.121042 -0.156447 0)
(0.0924232 -0.158295 0)
(0.0637471 -0.15928 0)
(0.0350002 -0.159447 0)
(0.00613598 -0.158827 0)
(-0.0229236 -0.157455 0)
(-0.0522783 -0.155345 0)
(-0.0820311 -0.152474 0)
(-0.11227 -0.148794 0)
(-0.143039 -0.144231 0)
(-0.174299 -0.138676 0)
(-0.20588 -0.131989 0)
(-0.237428 -0.124008 0)
(-0.268356 -0.114574 0)
(-0.297838 -0.103569 0)
(-0.324851 -0.0909669 0)
(-0.348296 -0.0768783 0)
(-0.367086 -0.0615526 0)
(-0.379881 -0.0451673 0)
(-0.383626 -0.0277263 0)
(-0.369574 -0.0105521 0)
(0.122839 -0.143104 0)
(0.0934927 -0.144573 0)
(0.0641338 -0.145261 0)
(0.0347441 -0.145222 0)
(0.0052676 -0.144495 0)
(-0.0243881 -0.143117 0)
(-0.0543408 -0.141108 0)
(-0.0847153 -0.138451 0)
(-0.115625 -0.135104 0)
(-0.147142 -0.130999 0)
(-0.179256 -0.126029 0)
(-0.211822 -0.120055 0)
(-0.244498 -0.112911 0)
(-0.276682 -0.104425 0)
(-0.30749 -0.0944581 0)
(-0.335802 -0.082964 0)
(-0.360398 -0.0700436 0)
(-0.380116 -0.055963 0)
(-0.39368 -0.0409493 0)
(-0.398197 -0.0251077 0)
(-0.384932 -0.00944358 0)
(0.124283 -0.130181 0)
(0.094277 -0.131282 0)
(0.0643076 -0.131683 0)
(0.0343526 -0.131441 0)
(0.00434613 -0.1306 0)
(-0.0258187 -0.129206 0)
(-0.0562781 -0.127281 0)
(-0.0871784 -0.124812 0)
(-0.118658 -0.121765 0)
(-0.150817 -0.118075 0)
(-0.183677 -0.113642 0)
(-0.21712 -0.108331 0)
(-0.250821 -0.101974 0)
(-0.28417 -0.0943928 0)
(-0.316232 -0.0854326 0)
(-0.345782 -0.0750269 0)
(-0.371467 -0.0632647 0)
(-0.392027 -0.0504237 0)
(-0.406233 -0.0367654 0)
(-0.411386 -0.022525 0)
(-0.398731 -0.00834859 0)
(0.125388 -0.117709 0)
(0.0947834 -0.118453 0)
(0.0642714 -0.118569 0)
(0.0338238 -0.118123 0)
(0.00336473 -0.117164 0)
(-0.0272278 -0.115742 0)
(-0.0581083 -0.113884 0)
(-0.0894449 -0.11158 0)
(-0.121401 -0.1088 0)
(-0.154104 -0.105486 0)
(-0.187605 -0.101544 0)
(-0.221819 -0.096844 0)
(-0.256439 -0.0912231 0)
(-0.290855 -0.0844989 0)
(-0.324086 -0.0765074 0)
(-0.354805 -0.067165 0)
(-0.381513 -0.0565463 0)
(-0.402827 -0.0449371 0)
(-0.417547 -0.0326163 0)
(-0.423197 -0.0199759 0)
(-0.411006 -0.00726951 0)
(0.126159 -0.105693 0)
(0.0950157 -0.106087 0)
(0.0640251 -0.105922 0)
(0.0331542 -0.105269 0)
(0.00231609 -0.104186 0)
(-0.0286267 -0.102726 0)
(-0.059848 -0.100919 0)
(-0.0915377 -0.0987588 0)
(-0.123882 -0.0962184 0)
(-0.157037 -0.0932431 0)
(-0.191082 -0.0897464 0)
(-0.225962 -0.085607 0)
(-0.261395 -0.0806684 0)
(-0.296775 -0.0747511 0)
(-0.331083 -0.0676861 0)
(-0.362891 -0.0593764 0)
(-0.390547 -0.0498824 0)
(-0.412526 -0.0394967 0)
(-0.427635 -0.0284962 0)
(-0.43363 -0.017453 0)
(-0.421773 -0.00619297 0)
(0.126607 -0.0941045 0)
(0.0949777 -0.0941595 0)
(0.0635681 -0.0937184 0)
(0.0323397 -0.0928598 0)
(0.00119357 -0.0916476 0)
(-0.0300254 -0.090141 0)
(-0.0615115 -0.0883735 0)
(-0.0934767 -0.0863385 0)
(-0.12613 -0.0840109 0)
(-0.159651 -0.08134 0)
(-0.194148 -0.078246 0)
(-0.229594 -0.0746173 0)
(-0.265735 -0.0703076 0)
(-0.301973 -0.0651449 0)
(-0.337256 -0.0589604 0)
(-0.370062 -0.0516489 0)
(-0.398581 -0.0432578 0)
(-0.421132 -0.0340877 0)
(-0.436505 -0.0243918 0)
(-0.442691 -0.0149453 0)
(-0.431044 -0.00510826 0)
(0.126768 -0.0828529 0)
(0.0946916 -0.0826097 0)
(0.0629085 -0.0819143 0)
(0.0313805 -0.0808575 0)
(-6.9838e-06 -0.0795173 0)
(-0.0314315 -0.0779601 0)
(-0.0631109 -0.0762224 0)
(-0.0952798 -0.0742967 0)
(-0.128169 -0.0721579 0)
(-0.161978 -0.0697582 0)
(-0.196842 -0.0670255 0)
(-0.23276 -0.0638586 0)
(-0.269505 -0.0601247 0)
(-0.30649 -0.055663 0)
(-0.342641 -0.0503107 0)
(-0.376344 -0.0439597 0)
(-0.405631 -0.0366475 0)
(-0.428651 -0.0286857 0)
(-0.444154 -0.0202799 0)
(-0.450377 -0.0124393 0)
(-0.438823 -0.00402345 0)
(0.126643 -0.0718417 0)
(0.0941938 -0.0713423 0)
(0.0620787 -0.0704513 0)
(0.0302893 -0.0692174 0)
(-0.00128409 -0.0677562 0)
(-0.0328491 -0.0661486 0)
(-0.0646554 -0.064434 0)
(-0.0969633 -0.0626036 0)
(-0.130022 -0.06063 0)
(-0.16405 -0.0584687 0)
(-0.199202 -0.0560555 0)
(-0.235503 -0.0533021 0)
(-0.27275 -0.0500908 0)
(-0.310372 -0.0462761 0)
(-0.347275 -0.0417059 0)
(-0.381764 -0.0362758 0)
(-0.411712 -0.0300169 0)
(-0.435092 -0.0232551 0)
(-0.450585 -0.0161281 0)
(-0.456691 -0.00992333 0)
(-0.445121 -0.00294099 0)
(0.126272 -0.0611334 0)
(0.0934684 -0.0603508 0)
(0.0610889 -0.0592564 0)
(0.0290944 -0.0579056 0)
(-0.00262712 -0.0563329 0)
(-0.0342789 -0.054674 0)
(-0.0661531 -0.0529759 0)
(-0.0985431 -0.0512254 0)
(-0.131714 -0.0493913 0)
(-0.165899 -0.047433 0)
(-0.201268 -0.0452963 0)
(-0.237866 -0.042907 0)
(-0.275516 -0.0401649 0)
(-0.313663 -0.0369429 0)
(-0.351198 -0.0331045 0)
(-0.38635 -0.0285547 0)
(-0.41684 -0.0233235 0)
(-0.440461 -0.0177546 0)
(-0.45581 -0.0119069 0)
(-0.461653 -0.00738264 0)
(-0.449943 -0.00183925 0)
(0.125638 -0.0508319 0)
(0.0925549 -0.0497449 0)
(0.0599297 -0.0483898 0)
(0.0277778 -0.0468787 0)
(-0.00402324 -0.0452371 0)
(-0.0357197 -0.0435171 0)
(-0.0676137 -0.0418197 0)
(-0.100039 -0.0401272 0)
(-0.133274 -0.0384006 0)
(-0.16756 -0.0366049 0)
(-0.203079 -0.0346979 0)
(-0.239895 -0.0326212 0)
(-0.27785 -0.030294 0)
(-0.316408 -0.0276099 0)
(-0.354449 -0.0244527 0)
(-0.390129 -0.0207436 0)
(-0.421022 -0.0165192 0)
(-0.444757 -0.0121481 0)
(-0.459825 -0.00760921 0)
(-0.465207 -0.0047708 0)
(-0.45323 -0.000547129 0)
(0.124722 -0.0409388 0)
(0.0914078 -0.0395712 0)
(0.0586127 -0.0379712 0)
(0.0263304 -0.0362195 0)
(-0.00551534 -0.034449 0)
(-0.0371826 -0.0326762 0)
(-0.0690548 -0.0309447 0)
(-0.101477 -0.0292731 0)
(-0.134736 -0.0276111 0)
(-0.169073 -0.0259295 0)
(-0.20468 -0.0241999 0)
(-0.241634 -0.0223814 0)
(-0.279799 -0.0204129 0)
(-0.318653 -0.018211 0)
(-0.357065 -0.0156837 0)
(-0.393124 -0.0127752 0)
(-0.42426 -0.00954368 0)
(-0.447951 -0.00639119 0)
(-0.462526 -0.00324092 0)
(-0.466999 -0.00195131 0)
(-0.454851 0.000729077 0)
(0.123547 -0.0314393 0)
(0.0900289 -0.029804 0)
(0.0570923 -0.027973 0)
(0.0247357 -0.0260068 0)
(-0.00711676 -0.0240157 0)
(-0.0387245 -0.0221362 0)
(-0.0705151 -0.0203307 0)
(-0.1029 -0.0186217 0)
(-0.136144 -0.0169665 0)
(-0.170485 -0.0153412 0)
(-0.206117 -0.0137313 0)
(-0.243134 -0.0121126 0)
(-0.281412 -0.0104442 0)
(-0.320442 -0.00866707 0)
(-0.359085 -0.00671651 0)
(-0.39536 -0.00456749 0)
(-0.426559 -0.0023152 0)
(-0.450009 -0.000375314 0)
(-0.463931 0.00135284 0)
(-0.467764 0.00109214 0)
(-0.454724 0.00199205 0)
(0.122129 -0.0222887 0)
(0.0884353 -0.0203878 0)
(0.0553716 -0.0183181 0)
(0.0229559 -0.0161351 0)
(-0.00887178 -0.0139312 0)
(-0.0403746 -0.0118599 0)
(-0.0720529 -0.00992635 0)
(-0.104363 -0.00811246 0)
(-0.137553 -0.00639545 0)
(-0.171847 -0.00476172 0)
(-0.207443 -0.00320869 0)
(-0.244443 -0.00172794 0)
(-0.282737 -0.000298579 0)
(-0.321824 0.00111287 0)
(-0.360551 0.00254021 0)
(-0.396868 0.00396929 0)
(-0.427933 0.00526109 0)
(-0.450907 0.00602212 0)
(-0.46403 0.00625692 0)
(-0.467149 0.00419519 0)
(-0.452856 0.0032221 0)
(0.120468 -0.0134159 0)
(0.0866232 -0.0112376 0)
(0.0534464 -0.00890707 0)
(0.02098 -0.00647818 0)