/*--------------------------------*- C++ -*----------------------------------*\
| =========                 |                                                 |
| \\      /  F ield         | OpenFOAM: The Open Source CFD Toolbox           |
|  \\    /   O peration     | Version:  v2012                                 |
|   \\  /    A nd           | Website:  www.openfoam.com                      |
|    \\/     M anipulation  |                                                 |
\*---------------------------------------------------------------------------*/
FoamFile
{
    version     2.0;
    format      ascii;
    class       volScalarField;
    location    "503";
    object      k;
}
// * * * * * * * * * * * * * * * * * * * * * * * * * * * * * * * * * * * * * //

dimensions      [0 2 -2 0 0 0 0];


internalField   nonuniform List<scalar> 
6556
(
2.13313
2.69947
2.80567
2.83427
2.84863
2.84863
2.83427
2.80567
2.69947
2.13313
1.16481
1.88427
2.08715
2.15373
2.17551
2.17551
2.15373
2.08715
1.88427
1.16481
0.730582
1.37358
1.6016
1.68966
1.71987
1.71987
1.68966
1.6016
1.37359
0.730582
0.504731
1.04325
1.26337
1.35907
1.39479
1.39479
1.35907
1.26337
1.04325
0.504731
0.373272
0.820273
1.02076
1.11566
1.15359
1.15359
1.11566
1.02076
0.820274
0.373272
0.289904
0.663439
0.84183
0.931576
0.969283
0.969283
0.931577
0.841831
0.66344
0.289904
0.233428
0.549031
0.706452
0.789179
0.825194
0.825194
0.78918
0.706454
0.549033
0.233429
0.193153
0.462916
0.601656
0.676875
0.710453
0.710454
0.676876
0.601659
0.462918
0.193154
0.163242
0.396344
0.518877
0.586802
0.617667
0.617667
0.586804
0.51888
0.396348
0.163243
0.140293
0.343703
0.452319
0.513491
0.541636
0.541637
0.513494
0.452323
0.343708
0.140295
0.122215
0.301268
0.397969
0.453045
0.47861
0.478612
0.453049
0.397975
0.301274
0.122218
0.107662
0.266492
0.352982
0.402633
0.425824
0.425826
0.402639
0.35299
0.266501
0.107665
0.0957331
0.237587
0.315299
0.360158
0.381201
0.381205
0.360166
0.31531
0.237598
0.0957369
0.0858043
0.213265
0.283402
0.324042
0.343164
0.343168
0.324052
0.283417
0.213281
0.0858096
0.077433
0.19258
0.25615
0.293078
0.31049
0.310496
0.293093
0.25617
0.192602
0.07744
0.0702955
0.174822
0.232673
0.266334
0.282228
0.282236
0.266354
0.2327
0.174851
0.070305
0.0641508
0.15945
0.212295
0.243076
0.257625
0.257636
0.243104
0.212332
0.159488
0.0641634
0.0588157
0.146044
0.194489
0.222724
0.236079
0.236094
0.222763
0.194539
0.146091
0.0588315
0.0541484
0.134274
0.178834
0.204812
0.217107
0.217128
0.204867
0.178902
0.134328
0.0541673
0.0500373
0.123875
0.164991
0.188965
0.200317
0.200346
0.18904
0.165077
0.123899
0.0500572
0.046394
0.114637
0.152685
0.174872
0.185386
0.185426
0.174981
0.152818
0.114736
0.0467053
0.0431466
0.106385
0.141692
0.162282
0.172048
0.172104
0.162436
0.141895
0.106596
0.0448601
0.0402369
0.0989774
0.131825
0.150984
0.160082
0.160158
0.151194
0.132117
0.0994201
0.0442267
0.0376168
0.0922971
0.12293
0.140802
0.149302
0.1494
0.141069
0.123288
0.0931572
0.0448119
0.0352465
0.0862459
0.114878
0.13159
0.139553
0.13967
0.131893
0.115299
0.0878264
0.0466536
0.0330927
0.0807414
0.10756
0.123223
0.130703
0.130839
0.123555
0.10814
0.08343
0.0495513
0.0311274
0.0757139
0.100883
0.115596
0.122643
0.122809
0.116026
0.101797
0.0798158
0.0531556
0.0293266
0.0711038
0.0947689
0.108621
0.11528
0.115491
0.109222
0.0961981
0.0769407
0.0571
0.0276699
0.0668601
0.0891502
0.102219
0.108534
0.108811
0.10307
0.0912711
0.0747045
0.0606236
0.0261397
0.062939
0.0839683
0.0963256
0.102338
0.102701
0.0975022
0.0869406
0.0729699
0.0633211
0.0247207
0.0593021
0.079173
0.0908836
0.0966326
0.0971016
0.0924581
0.0831317
0.0716037
0.0652941
0.0233997
0.0559158
0.0747201
0.0858432
0.0913649
0.0919608
0.0878797
0.0797625
0.0704121
0.066621
0.0221648
0.052751
0.0705713
0.0811608
0.0864894
0.0872304
0.0837124
0.0767504
0.0693019
0.067377
0.0210057
0.0497817
0.0666927
0.0767984
0.0819652
0.0828672
0.079905
0.074026
0.0682039
0.0676254
0.0199131
0.0469854
0.0630542
0.0727218
0.0777561
0.0788318
0.0764107
0.0715281
0.0670646
0.0674161
0.0188787
0.0443418
0.0596293
0.0689012
0.0738298
0.0750886
0.073187
0.0692042
0.0658454
0.0667913
0.0178951
0.041833
0.0563945
0.0653098
0.0701572
0.0716058
0.0701963
0.0670111
0.0645233
0.0657926
0.0169556
0.0394434
0.0533288
0.0619239
0.0667127
0.0683549
0.0674062
0.0649158
0.0630906
0.0644655
0.0160541
0.0371589
0.0504137
0.0587224
0.0634734
0.065311
0.06479
0.0628963
0.0615556
0.0628662
0.015185
0.0349674
0.0476324
0.0556864
0.0604186
0.0624522
0.0623262
0.0609409
0.0599412
0.0610632
0.0143435
0.0328584
0.0449699
0.0527981
0.0575295
0.0597592
0.0599983
0.0590472
0.0582817
0.0591365
0.0135252
0.0308228
0.0424121
0.050041
0.054788
0.057214
0.057793
0.0572189
0.056619
0.0571728
0.0127259
0.0288527
0.0399453
0.047398
0.0521754
0.0547986
0.0556982
0.0554622
0.0549952
0.055258
0.0119422
0.026941
0.0375559
0.0448509
0.0496713
0.052493
0.0536998
0.0537801
0.0534453
0.0534667
0.0111708
0.0250808
0.0352294
0.0423795
0.0472519
0.0502727
0.0517785
0.0521676
0.0519893
0.0518509
0.0104087
0.0232658
0.0329501
0.0399602
0.0448883
0.048107
0.0499062
0.0506064
0.0506248
0.0504295
0.00965287
0.0214894
0.0307009
0.0375654
0.0425457
0.0459569
0.0480439
0.0490617
0.0493232
0.0491816
0.00890037
0.0197453
0.0284628
0.0351634
0.0401821
0.0437738
0.0461396
0.0474805
0.0480286
0.0480457
0.00814784
0.0180267
0.0262156
0.0327183
0.0377489
0.0414998
0.0441292
0.0457922
0.0466602
0.0469238
0.00739133
0.0163272
0.0239388
0.0301919
0.0351926
0.0390696
0.0419379
0.0439127
0.0451184
0.0456919
0.00662566
0.01464
0.0216127
0.0275463
0.0324585
0.0364151
0.0394864
0.0417505
0.0432943
0.0442133
0.00584328
0.0129572
0.0192247
0.0247534
0.029501
0.0334752
0.0367003
0.0392178
0.0410816
0.0423549
0.00503253
0.011257
0.0167641
0.0218037
0.0263005
0.0302153
0.0335297
0.0362488
0.0383965
0.0400067
0.00415964
0.00963891
0.0142954
0.0187406
0.0228867
0.0266515
0.0299749
0.0328264
0.0351986
0.0371004
0.00323205
0.00824265
0.01207
0.0157954
0.019444
0.0229262
0.0261435
0.0290247
0.0315323
0.0336449
0.00226623
0.00698157
0.010259
0.013303
0.0163513
0.0193916
0.0223343
0.0250909
0.0275918
0.0297901
0.0012134
0.00555484
0.0086685
0.011335
0.0139046
0.0164759
0.0190277
0.0214942
0.0238094
0.025917
0.000892159
0.00378741
0.00692139
0.00957491
0.0119853
0.0142725
0.0164724
0.0185714
0.0205461
0.0223676
0.000844086
0.00218947
0.00510195
0.00768011
0.0100956
0.0122201
0.0141307
0.0158324
0.017357
0.0187233
0.000950145
0.00169312
0.00261687
0.00390707
0.00536495
0.00647591
0.0073785
0.00816634
0.00884113
0.00941089
0.0097677
0.00339996
0.0035008
0.00372179
0.00390518
0.00401941
0.0040547
0.00400417
0.00385078
0.00366929
0.00345916
0.00322273
0.00296594
0.00270189
0.00243831
0.00217984
0.00192494
0.00170247
0.00150065
0.00131105
0.00112815
0.000946819
0.000760669
0.000559624
0.00030919
0.0188499
0.00841765
0.00745976
0.00762196
0.00789096
0.00808232
0.00813423
0.00801889
0.0077045
0.00725674
0.00675152
0.00621806
0.00567871
0.00515571
0.0046626
0.00420459
0.0037784
0.00335189
0.00292835
0.00251158
0.00210878
0.00173034
0.00139581
0.00109472
0.000572268
0.0280519
0.0137986
0.0105855
0.0099486
0.00987458
0.00984134
0.00970332
0.00942003
0.00895934
0.00833207
0.00765796
0.00698264
0.00632768
0.00571203
0.00515091
0.00464986
0.004203
0.00378541
0.00338135
0.00297745
0.00256364
0.0021413
0.00173319
0.00134854
0.00068561
0.0380716
0.0206968
0.0142887
0.0123554
0.0115885
0.0110951
0.0106007
0.0100314
0.00935637
0.00857441
0.00776521
0.00700203
0.00629033
0.00564334
0.00507428
0.00458504
0.00416588
0.00379314
0.00344436
0.00309761
0.00273075
0.00232996
0.00190241
0.00145714
0.00072952
0.0479317
0.0295939
0.0193648
0.0153341
0.0135182
0.0123525
0.0113757
0.0104378
0.00950074
0.00856821
0.0076503
0.0067998
0.00603716
0.00537052
0.00480667
0.00434143
0.00395972
0.00363623
0.00334371
0.00305577
0.00274439
0.00238524
0.00196907
0.00149083
0.000732041
0.0553968
0.0388071
0.0256062
0.019056
0.0158891
0.0138738
0.0122904
0.0109173
0.00967512
0.00854624
0.00752198
0.00658899
0.00576886
0.00507279
0.00450492
0.00405558
0.00370485
0.0034242
0.00318043
0.00294307
0.00268102
0.00236414
0.00197156
0.00148155
0.000711382
0.0606334
0.0478094
0.0327567
0.0236655
0.0188258
0.0157803
0.0135037
0.0116192
0.0100143
0.00864604
0.00747391
0.00646387
0.00559211
0.0048428
0.00425024
0.00379707
0.00346152
0.0032112
0.00300501
0.00280738
0.0025846
0.00230336
0.00193535
0.00144581
0.000677761
0.0645344
0.0550886
0.0398861
0.0291031
0.0224651
0.0181738
0.0150466
0.0125855
0.0105775
0.00892697
0.00756739
0.00644445
0.00550695
0.00472115
0.004084
0.00360034
0.00325722
0.00302142
0.00284078
0.00267212
0.00247854
0.00222463
0.00187717
0.00139344
0.000635572
0.0674903
0.0609715
0.0466572
0.0349338
0.0266732
0.0210763
0.0169871
0.0138387
0.0113502
0.00938435
0.00781818
0.00655583
0.00552989
0.00468415
0.00399173
0.00346267
0.00309871
0.00286321
0.00269529
0.00254532
0.00237243
0.0021391
0.00180806
0.00133172
0.000589673
0.0696727
0.0655291
0.0529234
0.0407104
0.0312136
0.0243869
0.0193089
0.0154125
0.0123783
0.0100389
0.00821983
0.00679371
0.00566196
0.00473956
0.00397657
0.00338085
0.00297168
0.00272147
0.00255833
0.00242121
0.00226385
0.00204654
0.00172926
0.00126189
0.000548981
0.0712129
0.0689757
0.0584162
0.0462285
0.035897
0.0279788
0.0219378
0.0172937
0.0137016
0.0109355
0.00881203
0.00717429
0.00590821
0.00489799
0.0040546
0.00336997
0.00288285
0.00259022
0.00242188
0.00229322
0.00214906
0.00194599
0.00164168
0.00118437
0.000510265
0.0722328
0.0715121
0.0629629
0.0513202
0.0406383
0.0317238
0.0247899
0.0194365
0.0153
0.0120956
0.00964836
0.00774206
0.00629967
0.0051876
0.00426291
0.00347144
0.0028655
0.00248639
0.00228641
0.0021567
0.00202345
0.00183544
0.00154662
0.00110302
0.000472071
0.0727717
0.0732309
0.0664521
0.0558306
0.0449558
0.0354032
0.0277535
0.0217843
0.0171615
0.0135648
0.0107545
0.00856564
0.00689568
0.00564262
0.00464111
0.00374529
0.00298922
0.00246072
0.00216946
0.00201489
0.0018861
0.00171507
0.00144962
0.00103045
0.000434765
0.0728374
0.0741964
0.0689872
0.0595562
0.0487943
0.0389298
0.0307486
0.0242841
0.0192576
0.0153287
0.0122189
0.00973269
0.00778605
0.00632169
0.00520768
0.00424971
0.00335403
0.00262422
0.00214314
0.00189571
0.00175073
0.00159784
0.00136742
0.000993889
0.000402472
0.0724311
0.0744518
0.070618
0.0624188
0.0521403
0.0422779
0.0337101
0.0268809
0.0215579
0.0173846
0.0140472
0.0113151
0.0090911
0.00733939
0.00600833
0.00496463
0.00402371
0.00314033
0.00242491
0.0019417
0.00169555
0.00154198
0.00136358
0.00107043
0.000513491
0.0715602
0.0740442
0.0713833
0.0643873
0.0549347
0.0451963
0.0365448
0.0295149
0.0240182
0.0197008
0.0162347
0.0133534
0.0109217
0.00888429
0.00722206
0.0059129
0.00487049
0.00396295
0.00315729
0.00248078
0.00196655
0.00167302
0.00147766
0.00125689
0.00104726
0.0702482
0.0730256
0.0713777
0.0655688
0.0571393
0.0477662
0.0392828
0.0321602
0.026602
0.0222347
0.0187267
0.0158333
0.0133511
0.0111541
0.00917535
0.00746606
0.0060335
0.00489462
0.00401392
0.00333431
0.00286354
0.00257034
0.00247009
0.00254748
0.00275401
0.0685292
0.071438
0.0706445
0.0659885
0.0586459
0.0500414
0.0417806
0.0347849
0.0292225
0.0249292
0.021515
0.0187041
0.0163234
0.0141914
0.0121541
0.0101652
0.00827783
0.00660158
0.00521455
0.00419194
0.00354466
0.00323568
0.00318954
0.00329183
0.00352293
0.0664591
0.0693504
0.0692489
0.0656935
0.0594917
0.0518977
0.0440709
0.0372909
0.0318269
0.0276332
0.0244124
0.0218328
0.019682
0.0177892
0.0159853
0.0141416
0.0122213
0.010278
0.00844448
0.00687578
0.00571459
0.00502347
0.00475582
0.00476332
0.00496172
0.0641161
0.0668497
0.0672722
0.0647209
0.0596757
0.0531474
0.046188
0.0396602
0.0343735
0.0302812
0.0271898
0.0248584
0.0230273
0.021496
0.0200942
0.0186918
0.0171823
0.0155254
0.0137482
0.0119495
0.0102847
0.00892288
0.00798963
0.00750514
0.00735298
0.0615988
0.0640454
0.0648147
0.0631399
0.0592205
0.0537943
0.0477652
0.0419278
0.0368006
0.0328549
0.029885
0.0276692
0.0260642
0.0248508
0.0238531
0.022939
0.0219935
0.0209245
0.0196705
0.018235
0.0166741
0.0150884
0.0135941
0.012431
0.011634
0.0590218
0.0610697
0.0620016
0.0610368
0.0581496
0.0538303
0.0487799
0.0436957
0.0391062
0.0353216
0.0324464
0.0303734
0.0288735
0.0278293
0.0270836
0.0265022
0.0259833
0.0254307
0.0247488
0.0238793
0.0228103
0.0215612
0.0201696
0.0187852
0.0175714
0.0565068
0.0580733
0.058986
0.0585312
0.0565298
0.0532517
0.049204
0.0449405
0.0409436
0.0375391
0.0348556
0.0328699
0.0314878
0.0305611
0.0299419
0.0295479
0.0292698
0.0290216
0.0287137
0.0282681
0.0276433
0.0268272
0.02583
0.0246733
0.0235107
0.0541693
0.0552133
0.0559461
0.0557825
0.0544693
0.0521018
0.0490055
0.0455945
0.0422624
0.0393125
0.0369148
0.0351099
0.0338536
0.0330402
0.0325418
0.0322427
0.0320955
0.0320276
0.0319538
0.0318036
0.0315187
0.0310713
0.0304555
0.0296761
0.0287665
0.0521018
0.0526355
0.0530713
0.0529875
0.0521307
0.0504834
0.0482204
0.04562
0.0429798
0.040555
0.0385201
0.0369551
0.0358578
0.035162
0.0347702
0.0345887
0.0345457
0.0345925
0.0346912
0.0347642
0.034751
0.0346135
0.0343345
0.0339077
0.033337
0.0503572
0.0504499
0.0505362
0.0503612
0.0497272
0.048569
0.0469571
0.0450554
0.043067
0.041185
0.0395606
0.0382872
0.0373907
0.0368355
0.0365521
0.0364615
0.0365307
0.0367161
0.0369532
0.0371967
0.0374037
0.0375287
0.0375437
0.0374445
0.0372177
0.0489355
0.048707
0.048466
0.0481005
0.0474958
0.0465928
0.0454099
0.0440315
0.0425797
0.0411854
0.0399646
0.0390002
0.0383284
0.0379351
0.0377684
0.0377721
0.0379319
0.0382164
0.0385827
0.038984
0.0393733
0.0397184
0.039994
0.0401808
0.0402634
0.0477786
0.0473813
0.046904
0.0463366
0.0456456
0.0448095
0.0438375
0.042773
0.0416852
0.0406551
0.0397606
0.0390632
0.0385965
0.0383578
0.0383068
0.0383962
0.0386205
0.0389628
0.0393987
0.0398974
0.0404247
0.040947
0.041432
0.0418579
0.0422081
0.0467745
0.0463696
0.0457932
0.0450933
0.0442969
0.0434238
0.042499
0.0415587
0.0406487
0.0398192
0.0391191
0.0385885
0.0382523
0.0381126
0.0381459
0.0382893
0.0385442
0.0389002
0.0393443
0.0398597
0.0404259
0.04102
0.0416183
0.0421982
0.0427375
0.0457715
0.045505
0.0449815
0.0442719
0.0434335
0.0425164
0.0415681
0.0406337
0.0397562
0.0389755
0.0383257
0.0378337
0.0375162
0.0373769
0.0374031
0.0375576
0.0377916
0.0381093
0.038502
0.0389597
0.0394717
0.0400253
0.0406063
0.0411993
0.0417866
0.0445981
0.0445842
0.0442503
0.0436661
0.0428974
0.0420085
0.04106
0.0401076
0.0392005
0.0383796
0.0376777
0.0371182
0.0367152
0.0364734
0.036389
0.0364449
0.0366112
0.0368433
0.0371319
0.0374754
0.037867
0.0382988
0.0387629
0.0392506
0.0397507
0.0430859
0.0433973
0.0433521
0.0430091
0.0424296
0.0416767
0.0408132
0.0398987
0.0389867
0.0381229
0.0373435
0.036675
0.0361345
0.0357306
0.0354646
0.0353312
0.0353182
0.0354034
0.0355658
0.0357715
0.0360103
0.0362804
0.0365789
0.0369022
0.0372422
0.0410885
0.041754
0.0420513
0.0420258
0.0417279
0.0412118
0.0405342
0.0397511
0.0389154
0.0380739
0.0372658
0.0365216
0.0358635
0.0353054
0.0348545
0.0345125
0.0342763
0.0341384
0.0340876
0.0341068
0.0341821
0.0343015
0.0344471
0.0346061
0.0347767
0.0385021
0.0395094
0.040157
0.0404776
0.0405091
0.0402946
0.0398806
0.0393156
0.0386468
0.0379182
0.0371687
0.0364304
0.0357289
0.0350829
0.0345048
0.0340021
0.033578
0.0332323
0.0329618
0.0327603
0.0326208
0.0325347
0.0324911
0.0324796
0.0324931
0.0353011
0.0365996
0.0375625
0.0382104
0.0385697
0.0386726
0.0385554
0.0382573
0.037818
0.0372759
0.0366665
0.036021
0.0353654
0.0347208
0.0341031
0.0335239
0.0329909
0.0325086
0.0320791
0.0317023
0.0313762
0.0310977
0.0308622
0.0306648
0.0305011
0.031594
0.033091
0.0342896
0.0351994
0.0358363
0.036222
0.0363834
0.0363509
0.0361563
0.0358318
0.0354078
0.0349122
0.0343698
0.0338014
0.0332243
0.0326521
0.0320952
0.0315612
0.0310553
0.0305808
0.0301395
0.0297317
0.0293569
0.0290139
0.0287021
0.0277076
0.0292533
0.0305495
0.0315945
0.0323965
0.0329695
0.0333319
0.0335055
0.0335149
0.033385
0.0331406
0.0328052
0.0324004
0.0319454
0.0314565
0.0309476
0.0304299
0.0299125
0.0294022
0.0289043
0.0284224
0.0279591
0.027516
0.0270941
0.0266953
0.0239442
0.0253421
0.0265546
0.0275746
0.028388
0.0290002
0.0294283
0.0296896
0.0298025
0.029786
0.029659
0.0294401
0.0291467
0.0287944
0.0283976
0.0279683
0.0275171
0.0270525
0.0265818
0.0261105
0.0256431
0.0251831
0.0247328
0.0242944
0.0238709
0.0198844
0.0209043
0.0217761
0.0224957
0.023071
0.0235072
0.0238141
0.0240027
0.0240846
0.0240718
0.0239765
0.0238105
0.0235852
0.0233112
0.0229981
0.0226547
0.0222885
0.0219061
0.0215129
0.0211136
0.020712
0.0203112
0.0199137
0.0195217
0.0191377
0.00987888
0.0102911
0.0106486
0.0109463
0.011189
0.0113801
0.0115226
0.0116196
0.0116748
0.0116916
0.0116738
0.0116251
0.0115493
0.01145
0.0113307
0.0111947
0.011045
0.0108843
0.0107153
0.0105402
0.0103609
0.0101791
0.00999633
0.00981376
0.00963254
0.000478807
0.000510532
0.00182785
0.002266
0.00257541
0.00259741
0.00302742
0.00311942
0.00347645
0.00381338
0.00417496
0.00472082
0.00526451
0.00563758
0.00610163
0.00743275
0.00761969
0.00787104
0.0111627
0.0109263
0.0108244
0.0166116
0.0159119
0.0153847
0.0224617
0.0215779
0.0208076
0.0278698
0.0270368
0.0262334
0.0326883
0.0320284
0.0313312
0.0368868
0.0364776
0.0359919
0.0402376
0.0401248
0.0399217
0.042454
0.0426134
0.0426935
0.0431841
0.0435684
0.0439013
0.0423087
0.0428024
0.0432711
0.0402108
0.0406663
0.0411224
0.0375619
0.0378873
0.0382225
0.0349404
0.0351109
0.0352911
0.0325232
0.032567
0.0326229
0.0303787
0.0302772
0.0301923
0.0284464
0.0282131
0.0279967
0.0263566
0.0260367
0.0257302
0.0235053
0.0231531
0.0228101
0.018804
0.0184787
0.0181594
0.00947491
0.0093199
0.00916745
0.000114274
0.000239957
0.000384646
0.000509505
0.000621931
0.000722862
0.000816187
0.000903554
0.000986084
0.00106452
0.00113936
0.00121102
0.00127981
0.00134601
0.00140985
0.00147157
0.00153138
0.00158949
0.0016461
0.0017014
0.00175561
0.00180891
0.0018615
0.00191361
0.00196542
0.00201716
0.00206905
0.00212132
0.00217421
0.00222797
0.00228289
0.00233925
0.00239738
0.00245766
0.00252048
0.00258632
0.00265574
0.00272939
0.00280808
0.00289282
0.00298432
0.00308019
0.00318054
0.0032855
0.00339522
0.00351
0.00363007
0.00375571
0.00388706
0.00402428
0.00416743
0.0043165
0.00447136
0.00463168
0.00479693
0.00496626
0.00513838
0.00531141
0.00548268
0.00564839
0.00580333
0.00594034
0.00604987
0.00611993
0.00613916
0.0060998
0.00600133
0.00584264
0.00562063
0.00532687
0.00496066
0.0045135
0.004003
0.0034599
0.00291628
0.00244676
0.00201848
0.0016117
0.00120146
0.000719394
0.000391144
0.000746837
0.000954881
0.00114133
0.00134466
0.00156132
0.00177974
0.00199855
0.00221534
0.0024282
0.00263561
0.00283656
0.00303049
0.00321719
0.0033967
0.00356922
0.00373504
0.00389453
0.0040481
0.00419616
0.00433918
0.00447761
0.00461194
0.00474265
0.00487023
0.0049952
0.00511807
0.00523938
0.00535967
0.00547948
0.00559937
0.00571993
0.00584174
0.00596539
0.0060915
0.00622069
0.0063536
0.00649089
0.00663307
0.00678086
0.00693553
0.00710053
0.00727382
0.00745541
0.00764577
0.00784544
0.00805502
0.00827505
0.00850604
0.00874843
0.00900254
0.00926854
0.00954637
0.00983562
0.0101354
0.0104444
0.0107601
0.0110791
0.0113964
0.0117047
0.0119941
0.0122504
0.0124555
0.0125886
0.01263
0.0125762
0.0123938
0.0120614
0.0115627
0.0108406
0.00997757
0.00897815
0.00791291
0.00683279
0.00574899
0.00465681
0.00363295
0.00274569
0.00201548
0.00104533
0.000584298
0.0011265
0.00138489
0.00164865
0.00195614
0.00228781
0.00262624
0.00296284
0.00329113
0.0036074
0.00390982
0.00419792
0.00447202
0.00473285
0.00498128
0.00521819
0.00544441
0.00566068
0.00586768
0.00606603
0.0062563
0.00643904
0.00661478
0.00678405
0.00694738
0.0071053
0.00725836
0.00740713
0.0075522
0.00769418
0.00783368
0.00797138
0.00810794
0.00824408
0.00838053
0.00851805
0.00865742
0.00879946
0.00894496
0.00909471
0.00924953
0.00941102
0.0095818
0.00976089
0.00994853
0.0101453
0.010352
0.0105692
0.0107976
0.0110378
0.0112903
0.0115551
0.0118322
0.0121211
0.0124207
0.0127289
0.0130431
0.0133589
0.0136705
0.01397
0.0142471
0.0144882
0.0146763
0.0147904
0.0148018
0.0146971
0.0144544
0.0140509
0.0134637
0.0126759
0.0116842
0.0104653
0.00917462
0.00785638
0.00659437
0.00538444
0.00424634
0.00320052
0.00228297
0.00112914
0.00071599
0.00142078
0.00175489
0.00210393
0.00250518
0.0029313
0.00336044
0.00377938
0.00418094
0.00456223
0.00492297
0.00526429
0.00558789
0.00589551
0.00618873
0.00646884
0.00673689
0.00699368
0.00723985
0.00747593
0.00770237
0.00791956
0.0081279
0.00832777
0.00851955
0.00870367
0.00888055
0.00905067
0.00921452
0.00937263
0.00952557
0.00967395
0.00981842
0.00995967
0.0100984
0.0102355
0.0103716
0.0105077
0.0106446
0.0107832
0.0109245
0.0110694
0.0112205
0.011379
0.0115445
0.0117174
0.0118986
0.0120886
0.0122882
0.0124978
0.0127178
0.0129483
0.013189
0.0134391
0.0136973
0.0139613
0.014228
0.0144927
0.0147497
0.0149913
0.015208
0.0153882
0.015518
0.0155804
0.0155519
0.0154101
0.0151412
0.0147274
0.0141486
0.0133883
0.0124383
0.0112723
0.00992544
0.0084324
0.00701304
0.00569735
0.00450596
0.00339428
0.00235427
0.00110856
0.000812575
0.00164602
0.00207681
0.00251376
0.00299632
0.00349537
0.0039871
0.00445873
0.00490504
0.00532552
0.00572209
0.00609753
0.00645466
0.0067959
0.0071231
0.00743763
0.00774043
0.0080321
0.00831304
0.00858351
0.00884367
0.00909366
0.00933361
0.00956369
0.00978406
0.00999495
0.0101966
0.0103894
0.0105735
0.0107495
0.0109178
0.0110789
0.0112333
0.0113817
0.0115247
0.0116631
0.0117976
0.0119291
0.0120585
0.0121868
0.0123149
0.0124439
0.012575
0.0127115
0.0128532
0.0130003
0.0131536
0.0133137
0.0134813
0.0136568
0.0138406
0.0140326
0.0142325
0.0144393
0.0146516
0.014867
0.0150821
0.0152926
0.0154925
0.0156746
0.0158301
0.0159483
0.016017
0.0160217
0.0159474
0.0157796
0.015506
0.0151144
0.0145881
0.0139129
0.0130588
0.0119975
0.0107176
0.00924464
0.00767981
0.00613832
0.00477598
0.00354695
0.00237287
0.00104299
0.00088381
0.00183035
0.00236325
0.00288261
0.00343137
0.00398193
0.00451281
0.00501448
0.00548532
0.00592778
0.00634589
0.00674379
0.00712503
0.00749229
0.00784744
0.00819165
0.00852555
0.0088494
0.00916321
0.00946686
0.00976019
0.010043
0.0103151
0.0105764
0.0108268
0.0110664
0.0112951
0.0115131
0.0117206
0.0119178
0.012105
0.0122827
0.0124512
0.012611
0.0127628
0.0129072
0.0130449
0.0131768
0.0133037
0.0134267
0.0135469
0.0136652
0.013783
0.0139018
0.0140246
0.0141511
0.014282
0.0144179
0.0145597
0.0147079
0.0148629
0.0150249
0.0151935
0.015368
0.0155469
0.0157279
0.0159078
0.0160822
0.0162455
0.0163905
0.0165085
0.0165891
0.0166205
0.0165895
0.0164825
0.0162885
0.0160001
0.0156132
0.0151242
0.0145253
0.013795
0.0128907
0.0117566
0.0103472
0.00869068
0.00693567
0.00528775
0.00382213
0.00243281
0.000960636
0.000941125
0.00199108
0.00262166
0.00321259
0.00381094
0.00439371
0.00494476
0.00545963
0.00594075
0.00639344
0.00682353
0.00723611
0.00763513
0.0080233
0.00840226
0.00877283
0.00913521
0.00948923
0.00983445
0.0101704
0.0104964
0.0108119
0.0111166
0.0114099
0.0116915
0.0119613
0.012219
0.0124646
0.0126981
0.0129196
0.0131292
0.0133272
0.0135139
0.0136896
0.0138549
0.0140103
0.0141566
0.0142944
0.0144247
0.0145485
0.0146669
0.014781
0.0148921
0.0150015
0.0151126
0.0152259
0.0153423
0.0154626
0.0155879
0.0157189
0.0158563
0.0160006
0.0161519
0.0163095
0.0164725
0.0166389
0.0168056
0.0169687
0.0171227
0.0172603
0.0173728
0.0174495
0.0174782
0.0174452
0.0173363
0.017139
0.0168448
0.0164517
0.0159636
0.0153872
0.0147229
0.0139465
0.0129891
0.0117331
0.0100847
0.0081036
0.00604876
0.00423813
0.00256525
0.000912694
0.000992992
0.00213946
0.00285795
0.00350695
0.00413841
0.0047366
0.00529275
0.0058081
0.00628909
0.00674357
0.00717875
0.00760037
0.00801248
0.00841761
0.00881703
0.00921111
0.00959956
0.00998172
0.0103567
0.0107235
0.0110813
0.011429
0.0117659
0.0120912
0.0124045
0.0127053
0.0129931
0.0132678
0.0135292
0.0137771
0.0140118
0.0142331
0.0144413
0.0146367
0.0148197
0.0149906
0.0151501
0.015299
0.0154381
0.0155684
0.015691
0.0158073
0.0159186
0.0160264
0.0161324
0.0162399
0.0163495
0.0164624
0.0165798
0.016703
0.016833
0.0169706
0.0171166
0.0172708
0.0174327
0.0176009
0.0177732
0.0179457
0.0181136
0.0182698
0.0184056
0.0185101
0.0185702
0.0185707
0.0184952
0.0183271
0.0180521
0.0176612
0.0171582
0.0165548
0.0158739
0.0151275
0.0142854
0.0132272
0.0117481
0.00969015
0.00719306
0.00484202
0.00277834
0.00089561
0.00104549
0.00228511
0.0030795
0.00377181
0.00442058
0.00501962
0.00556853
0.00607438
0.00654727
0.00699714
0.00743221
0.00785851
0.00827995
0.00869872
0.00911561
0.00953046
0.00994248
0.0103505
0.0107532
0.0111491
0.0115369
0.0119155
0.0122836
0.0126402
0.0129847
0.0133163
0.0136345
0.0139388
0.014229
0.0145048
0.0147661
0.0150128
0.0152451
0.015463
0.0156668
0.0158568
0.0160336
0.0161977
0.0163502
0.0164918
0.0166239
0.0167478
0.0168649
0.0169767
0.0170849
0.017193
0.0173024
0.0174146
0.0175312
0.0176537
0.0177838
0.0179228
0.0180718
0.0182316
0.0184021
0.0185829
0.0187722
0.0189674
0.0191639
0.0193556
0.0195343
0.0196892
0.0198069
0.0198713
0.0198637
0.0197635
0.0195509
0.0192003
0.0187088
0.0180771
0.0173293
0.0165048
0.0156355
0.0146795
0.0134475
0.0115786
0.00891258
0.00583358
0.00318133
0.000921402
0.00110432
0.00243905
0.00329669
0.00401683
0.00466752
0.00525422
0.00578537
0.00627353
0.006732
0.00717229
0.00760317
0.00803063
0.00845825
0.00888768
0.00931917
0.00975201
0.0101849
0.0106161
0.0110439
0.0114665
0.0118823
0.0122896
0.0126871
0.0130735
0.0134479
0.0138094
0.0141573
0.014491
0.01481
0.0151141
0.0154028
0.0156761
0.015934
0.0161763
0.0164033
0.0166152
0.0168123
0.0169952
0.0171647
0.0173218
0.0174676
0.0176037
0.0177314
0.0178525
0.0179686
0.0180826
0.0181971
0.0183139
0.0184349
0.0185621
0.0186974
0.0188428
0.019
0.0191703
0.0193546
0.019553
0.0197649
0.0199884
0.0202203
0.0204552
0.0206862
0.0209032
0.0210937
0.0212416
0.0213274
0.0213279
0.0212171
0.0209674
0.0205546
0.0199559
0.0191758
0.0182399
0.0172094
0.0161441
0.0149956
0.0134552
0.0110024
0.00744661
0.00394859
0.00102388
0.00117914
0.00261753
0.00352381
0.00425544
0.00489279
0.00545461
0.00595845
0.00642192
0.00686079
0.00728749
0.00771089
0.00813657
0.00856754
0.0090048
0.00944798
0.00989581
0.0103464
0.0107978
0.0112477
0.0116941
0.0121349
0.0125683
0.0129927
0.0134068
0.0138092
0.0141989
0.0145751
0.0149371
0.0152843
0.0156162
0.0159324
0.0162327
0.0165169
0.0167848
0.0170365
0.0172722
0.017492
0.0176963
0.017886
0.0180618
0.018225
0.0183771
0.0185196
0.0186542
0.0187828
0.0189073
0.0190314
0.0191571
0.0192866
0.0194222
0.0195664
0.0197214
0.0198895
0.0200727
0.0202726
0.0204901
0.0207257
0.0209783
0.0212461
0.0215251
0.0218095
0.0220912
0.0223589
0.0225982
0.0227905
0.0229133
0.0229391
0.0228361
0.0225687
0.0220999
0.0213993
0.0204455
0.0192671
0.0179465
0.0165724
0.0151087
0.0131119
0.0098771
0.0052777
0.00124661
0.00128065
0.00284203
0.00377788
0.00450625
0.00511456
0.00563876
0.00610596
0.00653836
0.00695314
0.0073629
0.00777595
0.00819715
0.00862867
0.00907081
0.00952253
0.00998201
0.010447
0.0109149
0.0113834
0.01185
0.0123125
0.0127688
0.0132171
0.0136559
0.0140838
0.0144996
0.0149022
0.0152909
0.0156649
0.0160237
0.0163667
0.0166936
0.0170041
0.017298
0.0175753
0.0178359
0.0180799
0.0183078
0.01852
0.0187173
0.0189009
0.0190723
0.0192331
0.0193848
0.0195294
0.0196687
0.0198063
0.0199446
0.020086
0.0202331
0.0203886
0.0205553
0.0207358
0.0209327
0.0211482
0.0213842
0.0216418
0.0219213
0.0222218
0.0225411
0.022875
0.023217
0.0235582
0.0238864
0.0241856
0.0244357
0.0246117
0.0246826
0.0246109
0.0243514
0.023852
0.0230592
0.0219315
0.0204607
0.0187259
0.0168868
0.0149092
0.0121873
0.00750271
0.00161311
0.0014366
0.00312917
0.00407209
0.00478294
0.00535352
0.00582886
0.00624986
0.00664513
0.00703176
0.00742145
0.00782137
0.00823523
0.00866426
0.00910792
0.00956457
0.0100319
0.0105072
0.0109877
0.0114706
0.0119535
0.0124337
0.0129093
0.0133781
0.0138384
0.0142887
0.0147278
0.0151544
0.0155677
0.0159667
0.0163509
0.0167195
0.0170721
0.0174084
0.017728
0.0180308
0.0183167
0.0185859
0.0188385
0.0190749
0.019296
0.0195027
0.0196963
0.0198784
0.0200505
0.0202145
0.0203722
0.0205266
0.0206806
0.0208367
0.0209978
0.0211668
0.0213465
0.0215403
0.0217509
0.0219812
0.0222338
0.0225105
0.0228129
0.0231411
0.0234943
0.0238701
0.0242641
0.0246696
0.025077
0.0254737
0.0258431
0.0261644
0.0264113
0.0265508
0.0265409
0.0263286
0.0258466
0.0250125
0.0237399
0.0219632
0.019711
0.0171632
0.0143478
0.010678
0.00234232
0.00165935
0.00358104
0.00445619
0.00510738
0.00562434
0.00604692
0.00641475
0.0067682
0.00712312
0.0074897
0.00787343
0.00827664
0.0086995
0.00914068
0.00959796
0.0100686
0.0105496
0.0110381
0.011531
0.0120256
0.0125194
0.01301
0.0134954
0.0139737
0.0144432
0.0149025
0.0153503
0.0157856
0.0162075
0.016615
0.0170075
0.0173844
0.0177452
0.0180895
0.0184172
0.0187281
0.0190223
0.0193001
0.019562
0.0198087
0.0200407
0.020259
0.0204649
0.0206602
0.0208464
0.0210256
0.0211997
0.0213722
0.0215457
0.021723
0.0219071
0.0221012
0.0223087
0.0225327
0.0227767
0.0230435
0.0233361
0.0236565
0.0240062
0.0243858
0.0247943
0.0252294
0.0256866
0.0261591
0.0266375
0.0271093
0.0275582
0.027964
0.0283012
0.0285371
0.0286299
0.0285233
0.0281405
0.0273752
0.0260834
0.0241011
0.0213248
0.0178367
0.0139286
0.00936944
0.00227274
0.00411861
0.0049175
0.00548555
0.00593102
0.00629903
0.00662323
0.00693405
0.00725612
0.00759738
0.00796185
0.00835061
0.00876292
0.00919683
0.0096497
0.0101185
0.0106001
0.0110913
0.0115891
0.0120907
0.0125933
0.0130947
0.0135925
0.0140848
0.0145698
0.015046
0.015512
0.0159665
0.0164084
0.016837
0.0172511
0.0176502
0.0180337
0.0184012
0.0187523
0.0190869
0.0194053
0.0197084
0.0199966
0.0202699
0.0205286
0.0207733
0.0210053
0.0212258
0.0214366
0.0216393
0.0218359
0.0220295
0.0222226
0.0224181
0.022619
0.0228285
0.0230501
0.0232873
0.0235436
0.0238225
0.0241273
0.0244608
0.0248256
0.0252233
0.0256545
0.0261186
0.0266132
0.0271341
0.0276749
0.0282265
0.0287772
0.0293125
0.0298141
0.0302595
0.0306207
0.0308612
0.0309323
0.0307661
0.0302625
0.0292718
0.0275821
0.0249445
0.0212907
0.0170832
0.00323759
0.00474319
0.00543977
0.00590736
0.00627813
0.00659464