/*--------------------------------*- C++ -*----------------------------------*\
| =========                 |                                                 |
| \\      /  F ield         | OpenFOAM: The Open Source CFD Toolbox           |
|  \\    /   O peration     | Version:  v2012                                 |
|   \\  /    A nd           | Website:  www.openfoam.com                      |
|    \\/     M anipulation  |                                                 |
\*---------------------------------------------------------------------------*/
FoamFile
{
    version     2.0;
    format      ascii;
    class       volScalarField;
    location    "503";
    object      nut;
}
// * * * * * * * * * * * * * * * * * * * * * * * * * * * * * * * * * * * * * //

dimensions      [0 2 -1 0 0 0 0];


internalField   nonuniform List<scalar> 
6556
(
0.00327985
0.0115826
0.0139393
0.0143486
0.0142459
0.0142459
0.0143486
0.0139393
0.0115826
0.00327985
0.00242367
0.00943141
0.0127217
0.0136605
0.0137672
0.0137672
0.0136605
0.0127217
0.00943141
0.00242367
0.00191946
0.00807459
0.0116287
0.0129511
0.0132755
0.0132755
0.0129511
0.0116287
0.00807459
0.00191946
0.00159542
0.00712668
0.0106955
0.0122595
0.0127596
0.0127596
0.0122596
0.0106955
0.00712668
0.00159542
0.00137201
0.00641877
0.00990577
0.0116062
0.0122312
0.0122312
0.0116062
0.00990578
0.00641878
0.00137201
0.00120913
0.00586413
0.00923319
0.0109989
0.0117048
0.0117048
0.0109989
0.0092332
0.00586415
0.00120913
0.00108498
0.0054136
0.00865371
0.0104386
0.0111919
0.0111919
0.0104386
0.00865374
0.00541363
0.00108498
0.00098695
0.00503733
0.00814812
0.00992311
0.0106998
0.0106999
0.00992314
0.00814817
0.00503737
0.000986952
0.000907319
0.00471619
0.00770178
0.00944898
0.0102328
0.0102328
0.00944903
0.00770184
0.00471625
0.000907322
0.000841129
0.00443735
0.00730363
0.00901248
0.00979252
0.00979254
0.00901255
0.00730373
0.00443744
0.000841133
0.000785068
0.00419191
0.00694535
0.00860998
0.00937933
0.00937937
0.00861009
0.0069455
0.00419205
0.000785075
0.000736846
0.00397348
0.00662058
0.00823814
0.00899254
0.0089926
0.00823831
0.0066208
0.00397368
0.000736855
0.000694825
0.00377731
0.00632435
0.00789394
0.0086309
0.008631
0.00789418
0.00632468
0.00377761
0.000694839
0.000657808
0.00359983
0.00605276
0.00757465
0.00829291
0.00829306
0.00757501
0.00605325
0.00360027
0.000657828
0.000624895
0.00343822
0.00580265
0.00727789
0.00797694
0.00797716
0.00727842
0.00580337
0.00343886
0.000624924
0.000595399
0.00329028
0.00557143
0.00700149
0.00768135
0.00768167
0.00700229
0.00557248
0.00329118
0.000595439
0.000568782
0.00315418
0.00535693
0.00674354
0.00740455
0.00740501
0.00674473
0.00535842
0.00315541
0.000568837
0.000544617
0.00302842
0.0051573
0.00650231
0.00714502
0.00714569
0.00650407
0.00515936
0.00302992
0.00054469
0.000522561
0.00291173
0.00497093
0.00627625
0.00690135
0.00690231
0.0062788
0.00497384
0.0029134
0.000522652
0.000502333
0.00280299
0.00479638
0.00606392
0.00667221
0.00667361
0.00606765
0.00480033
0.00280309
0.000502433
0.000483699
0.00270124
0.00463238
0.00586401
0.00645636
0.00645854
0.00587037
0.00464379
0.00273244
0.000558316
0.000466464
0.0026056
0.00447777
0.00567531
0.00625267
0.00625614
0.0056864
0.0045026
0.00267765
0.000633241
0.00045046
0.00251533
0.00433151
0.00549673
0.00606012
0.00606552
0.00551499
0.00437553
0.00264114
0.000726963
0.000435547
0.00242979
0.0041927
0.0053273
0.00587772
0.00588567
0.00535476
0.0042592
0.00263661
0.000845922
0.000421602
0.0023484
0.00406051
0.0051661
0.00570455
0.00571534
0.00520307
0.00415831
0.0026608
0.000996671
0.000408518
0.00227063
0.00393419
0.0050123
0.00553978
0.00555398
0.00505907
0.00407617
0.00270099
0.00117905
0.000396201
0.00219601
0.00381304
0.00486515
0.00538275
0.00540162
0.00492876
0.00400432
0.0027447
0.00138776
0.00038457
0.00212408
0.00369641
0.00472395
0.00523291
0.00525803
0.00481064
0.00394414
0.00279092
0.00161418
0.000373549
0.00205443
0.00358366
0.00458804
0.00508967
0.00512279
0.00470354
0.0038947
0.00284309
0.00184228
0.000363074
0.00198667
0.0034742
0.00445678
0.00495251
0.0049954
0.00460646
0.00385531
0.00290256
0.00206067
0.000353082
0.00192043
0.00336745
0.00432957
0.00482086
0.00487533
0.00451856
0.00382537
0.00296903
0.00226699
0.000343518
0.00185533
0.00326285
0.00420578
0.00469416
0.00476198
0.00443901
0.00380405
0.00303969
0.00245927
0.000334331
0.00179102
0.00315984
0.00408483
0.00457181
0.00465471
0.00436698
0.00379024
0.00311286
0.00263629
0.000325472
0.00172718
0.00305786
0.00396606
0.00445317
0.00455282
0.0043016
0.00378281
0.00318674
0.00279735
0.000316894
0.00166348
0.00295633
0.0038488
0.00433754
0.00445556
0.00424194
0.00378052
0.0032595
0.00294204
0.000308554
0.00159963
0.00285468
0.00373236
0.00422416
0.0043621
0.00418698
0.003782
0.00332946
0.00307016
0.000300408
0.00153537
0.00275233
0.00361598
0.00411222
0.00427151
0.00413561
0.00378584
0.00339515
0.00318184
0.000292416
0.00147047
0.00264873
0.00349889
0.00400081
0.00418277
0.00408662
0.00379057
0.00345544
0.00327752
0.000284536
0.00140478
0.00254335
0.00338029
0.00388895
0.00409476
0.0040387
0.00379477
0.00350948
0.00335812
0.000276728
0.0013382
0.00243575
0.00325938
0.0037756
0.00400624
0.00399045
0.00379702
0.00355681
0.00342505
0.000268951
0.00127072
0.00232555
0.00313536
0.00365962
0.00391583
0.00394036
0.00379593
0.00359718
0.00348018
0.000261165
0.00120244
0.00221249
0.00300743
0.00353981
0.00382201
0.00388675
0.00379007
0.00363045
0.00352565
0.000253331
0.00113354
0.00209643
0.00287486
0.00341488
0.00372309
0.00382777
0.00377785
0.00365634
0.00356354
0.000245407
0.00106423
0.00197736
0.00273697
0.00328344
0.00361718
0.00376127
0.00375739
0.00367414
0.00359536
0.000237349
0.000994783
0.00185537
0.00259313
0.00314405
0.00350213
0.00368477
0.00372632
0.00368237
0.00362153
0.000229109
0.000925451
0.00173065
0.00244279
0.0029952
0.00337558
0.00359534
0.00368163
0.00367847
0.00364077
0.000220634
0.000856475
0.00160347
0.00228553
0.00283538
0.00323497
0.00348961
0.00361953
0.00365863
0.00364973
0.00021186
0.000788053
0.00147414
0.00212105
0.00266315
0.00307761
0.00336387
0.00353554
0.00361774
0.00364289
0.000202706
0.000720331
0.001343
0.00194922
0.00247732
0.00290097
0.00321424
0.00342465
0.00354964
0.00361279
0.000193066
0.00065341
0.00121047
0.00177026
0.00227717
0.00270295
0.00303719
0.00328184
0.00344767
0.00355077
0.000182793
0.000587361
0.00107712
0.00158487
0.00206282
0.00248253
0.00283017
0.00310288
0.00330558
0.00344806
0.000171662
0.000522244
0.000943993
0.00139478
0.00183594
0.0022406
0.00259273
0.00288549
0.00311886
0.00329724
0.000159308
0.000458076
0.00081281
0.00120341
0.00160086
0.00198134
0.00232801
0.00263103
0.00288634
0.00309328
0.000110591
0.000399783
0.000688678
0.0010173
0.00136563
0.00171344
0.00204411
0.0023458
0.00261029
0.00283381
0.000108557
0.000354613
0.00058438
0.000850796
0.00114507
0.00145173
0.00175489
0.00204015
0.00229925
0.00252779
0.000106905
0.000323257
0.000512259
0.000723224
0.000961658
0.00121869
0.00147962
0.00173427
0.00197463
0.00219486
7.82251e-05
0.000309947
0.000473447
0.000644408
0.000833345
0.00103591
0.00124753
0.00146106
0.00166937
0.00186627
6.70758e-05
0.000294523
0.000457597
0.000603943
0.00073686
0.000864548
0.00100241
0.00114849
0.00129575
0.00143992
6.52436e-05
0.000224326
0.000429374
0.000557797
0.000677956
0.000709352
0.000771709
0.000865882
0.000972932
0.0010826
6.92213e-05
0.000115504
0.000143597
0.000175461
0.000205607
0.000225894
0.000241123
0.000253669
0.000263942
0.000272314
0.000144605
0.000163678
0.000166088
0.00017125
0.000175418
0.000177965
0.000178745
0.000177628
0.000174192
0.000170038
0.000165097
0.000159355
0.000152875
0.000145911
0.000138611
0.000131059
0.000123158
0.000115823
0.000108741
0.00010164
9.4284e-05
8.63749e-05
7.74198e-05
6.64052e-05
4.26282e-05
0.000258158
0.000531072
0.0008033
0.000950848
0.00102979
0.00107689
0.0011013
0.00110567
0.00108887
0.00105764
0.00101838
0.000971305
0.000917164
0.000858836
0.000798199
0.000735921
0.00066967
0.000579127
0.000481636
0.000388753
0.00030713
0.000239928
0.000188678
0.00014824
5.10349e-05
0.000406599
0.000667985
0.00103863
0.00134092
0.00151896
0.0016218
0.00167682
0.00169649
0.00156248
0.00149667
0.00152966
0.00153117
0.00145802
0.00137902
0.0012959
0.00120821
0.00111141
0.000987666
0.000840832
0.000683727
0.000531612
0.0003983
0.000292491
0.000207072
5.51219e-05
0.000669594
0.000701111
0.00106037
0.00140313
0.00165231
0.00179133
0.00186254
0.00188858
0.00177863
0.00168921
0.00169012
0.00171842
0.00164659
0.0015732
0.00149896
0.00142094
0.00133198
0.00121623
0.00106882
0.000895378
0.000709977
0.00053249
0.000380351
0.000248751
5.76217e-05
0.00101899
0.000880026
0.00119954
0.00142153
0.00166667
0.00182778
0.00190327
0.00192569
0.00190995
0.0018654
0.00180079
0.00172642
0.00165282
0.00158636
0.00152699
0.00146889
0.00140148
0.00130856
0.0011804
0.00101652
0.000826297
0.000629125
0.000446334
0.000275865
5.77212e-05
0.001285
0.00120156
0.0013942
0.00152705
0.00169139
0.00183271
0.00190678
0.00192182
0.00189451
0.00183694
0.00175899
0.0016715
0.00158882
0.00152261
0.00147403
0.00143484
0.00139003
0.00132137
0.00121601
0.00106997
0.000888715
0.000688343
0.000489219
0.000290459
5.69009e-05
0.00150627
0.0016071
0.00162492
0.00168297
0.00178663
0.00186877
0.00191368
0.00191748
0.00187778
0.00180574
0.001712
0.00160855
0.00151131
0.00143644
0.00139106
0.00136603
0.00134074
0.00129275
0.00120702
0.00107873
0.000911101
0.000716436
0.000511418
0.000295059
5.554e-05
0.0017213
0.00185796
0.00186994
0.00188482
0.00193072
0.00196834
0.00197224
0.00194011
0.00187659
0.00178837
0.00167801
0.00155652
0.00144188
0.00135283
0.00130108
0.00128253
0.00127239
0.00124102
0.00117057
0.00105781
0.000904856
0.000720448
0.00051664
0.000291993
5.37836e-05
0.00193153
0.00208777
0.00211872
0.00211434
0.00211099
0.00210696
0.00207635
0.00201327
0.00191929
0.00180099
0.001666
0.00152324
0.00138796
0.00128015
0.00121354
0.0011908
0.00118664
0.0011672
0.00111035
0.00101302
0.000876283
0.000705527
0.000508061
0.000282375
5.18052e-05
0.00213577
0.00230692
0.00236205
0.00235083
0.00231489
0.00227527
0.00221336
0.00212181
0.00199941
0.00185183
0.00168531
0.00151389
0.00135315
0.00122209
0.00113325
0.0010939
0.00108806
0.00107583
0.00102991
0.000947157
0.000827257
0.000672176
0.000484711
0.000264347
4.99858e-05
0.00233289
0.00251603
0.00259581
0.00258911
0.00253409
0.00246515
0.0023758
0.00226003
0.00211301
0.00193574
0.00173617
0.00153069
0.00133919
0.00118034
0.00106527
0.000998308
0.000978652
0.000968661
0.000934072
0.000865228
0.00076199
0.000623627
0.00044964
0.000241722
4.8191e-05
0.00252176
0.00271381
0.00281706
0.00282486
0.00276654
0.00266961
0.00255727
0.00242244
0.0022557
0.0020519
0.001821
0.00157786
0.0013502
0.00116025
0.00101622
0.000917028
0.000868214
0.000853148
0.000827908
0.000771376
0.000684166
0.000563616
0.000407187
0.000218243
4.63523e-05
0.0026999
0.00289773
0.00302236
0.00304713
0.0029886
0.00287813
0.00275108
0.00260412
0.00242505
0.00220303
0.0019418
0.00166307
0.00139584
0.00117067
0.000996231
0.000828995
0.000775286
0.000736017
0.000716334
0.000670388
0.000598498
0.000495684
0.000363219
0.000198634
4.44832e-05
0.00286455
0.00306575
0.00320873
0.00325055
0.0031988
0.00308631
0.00295173
0.00280007
0.00261736
0.00238704
0.00210744
0.00179761
0.00149004
0.00122395
0.00101477
0.000791087
0.000660989
0.000641212
0.00060137
0.00056857
0.000511411
0.000423463
0.000309315
0.000186997
4.27993e-05
0.00301307
0.00320915
0.00337228
0.00343194
0.00339474
0.00329206
0.00315398
0.00300503
0.00282869
0.0026026
0.00231883
0.0019912
0.0016499
0.00133955
0.00108561
0.000887184
0.000618257
0.000503355
0.000493815
0.00047888
0.000433759
0.000359093
0.000240116
0.000147634
5.78735e-05
0.00314343
0.00333366
0.00348848
0.00358772
0.00356903
0.00347773
0.00335043
0.0032128
0.00305331
0.00284516
0.00257496
0.00224948
0.00189132
0.00154474
0.00123907
0.000987756
0.000788751
0.000520002
0.000390547
0.00033654
0.00033161
0.000292756
0.000247382
0.000197571
0.000126862
0.00325454
0.00344812
0.00361267
0.00371657
0.00371777
0.00364507
0.00353944
0.0034178
0.00328443
0.00299594
0.00275036
0.00256988
0.00222374
0.00186517
0.00151961
0.00120841
0.000943117
0.000730964
0.000564094
0.000396931
0.000322967
0.000291489
0.000279997
0.000256763
0.000203058
0.0033459
0.00353025
0.00370727
0.00381593
0.00383895
0.00378941
0.00370553
0.00361293
0.00351149
0.00326321
0.00296918
0.00273874
0.00256211
0.00230289
0.00195637
0.00161186
0.0012854
0.000995402
0.000757112
0.00058114
0.000466874
0.000404395
0.000379282
0.000372613
0.000381288
0.00341806
0.00358901
0.00376477
0.00388432
0.00392986
0.00390723
0.0038469
0.00378382
0.003721
0.00364402
0.00341201
0.00315363
0.00292952
0.0027229
0.00251207
0.00219458
0.00185977
0.00153058
0.00122706
0.000970895
0.000780041
0.000660391
0.000603279
0.000586407
0.000590077
0.00347269
0.00362592
0.00379559
0.00392314
0.00398823
0.00399308
0.00395861
0.00392079
0.00389456
0.0038674
0.00382384
0.00374007
0.00353084
0.00330512
0.00306506
0.00279381
0.00249342
0.00217739
0.00186117
0.00155962
0.00129038
0.00105296
0.000858386
0.000739989
0.00067227
0.00351249
0.00364382
0.00380212
0.0039331
0.00401332
0.00404377
0.0040381
0.00402153
0.00402112
0.00403503
0.00405035
0.00404478
0.00399432
0.00389292
0.0037518
0.00358124
0.00329542
0.00295171
0.00258438
0.00222957
0.00191394
0.00164199
0.00141442
0.00125586
0.00117633
0.003541
0.00364693
0.00378836
0.00391714
0.00400827
0.00405835
0.00407859
0.00408636
0.00410219
0.00413926
0.00419574
0.00425255
0.00428192
0.00427134
0.00422452
0.00414856
0.0040502
0.00387474
0.00354314
0.00320833
0.00290803
0.00264714
0.00242204
0.0022478
0.0021424
0.00356228
0.00364061
0.00375996
0.00388012
0.00397621
0.00404088
0.0040803
0.00410905
0.00414215
0.00419086
0.00426315
0.0043525
0.00443755
0.00449876
0.00453067
0.0045348
0.0045147
0.00447484
0.00433502
0.00409202
0.00387098
0.00367894
0.00350862
0.00335882
0.00324724
0.00358021
0.00363084
0.00372402
0.00382899
0.00392296
0.00399601
0.00404969
0.00409342
0.00413953
0.00419833
0.00427648
0.00437376
0.00447989
0.00458176
0.00466956
0.00473585
0.0047761
0.00479381
0.00469009
0.00456225
0.00445385
0.00435806
0.0042673
0.00417954
0.00409821
0.00359771
0.0036233
0.00368844
0.00377251
0.00385685
0.00393078
0.0039924
0.00404661
0.00410192
0.00416705
0.00424806
0.00434682
0.00445908
0.00457557
0.00468663
0.00478441
0.00476438
0.00469383
0.00463537
0.00459797
0.00457551
0.00456051
0.00454795
0.00453306
0.00451417
0.00361571
0.0036221
0.00366052
0.00372026
0.00378828
0.00385517
0.00391716
0.00397574
0.00403573
0.00410336
0.00418446
0.00428167
0.00439327
0.0045127
0.00463076
0.00457379
0.00447604
0.00440615
0.00436911
0.00435856
0.00436847
0.00439478
0.00444977
0.00446624
0.00449915
0.00363235
0.00362829
0.00364521
0.00368079
0.00372831
0.00378121
0.00383567
0.00389112
0.0039498
0.00401572
0.00409296
0.00418418
0.0042891
0.00440326
0.00444004
0.00429583
0.00418001
0.00410268
0.00405921
0.00403896
0.0040431
0.00406885
0.00410993
0.00416172
0.00421833
0.00364243
0.00363864
0.00364292
0.00365901
0.00368588
0.00372068
0.00376102
0.00380618
0.00385705
0.00391569
0.00398455
0.00406557
0.00415894
0.00426166
0.00425394
0.00406276
0.00391733
0.0038153
0.00374846
0.00371313
0.00370475
0.00371831
0.00374873
0.00379236
0.0038442
0.00363759
0.00364523
0.00364816
0.00365349
0.00366429
0.0036813
0.00370478
0.00373488
0.00377223
0.00381799
0.00387352
0.00394
0.0040177
0.00410502
0.00419706
0.00396659
0.00377483
0.00364118
0.00354694
0.00348356
0.00344725
0.00343441
0.00344107
0.00346289
0.0034971
0.00360715
0.00363612
0.0036493
0.0036548
0.00365804
0.00366293
0.00367182
0.00368629
0.00370761
0.00373695
0.00377534
0.00382357
0.00388191
0.00394968
0.00402444
0.0040531
0.00380882
0.00362211
0.00348947
0.00339473
0.00332773
0.00328419
0.00326131
0.00325568
0.00326438
0.00353945
0.00359677
0.00362952
0.00364581
0.00365245
0.00365451
0.00365578
0.00365911
0.00366667
0.00368016
0.00370087
0.00372968
0.00376705
0.00381285
0.00386621
0.00392501
0.00398556
0.00381274
0.00362117
0.00347919
0.00337506
0.00329906
0.0032456
0.00321052
0.00319083
0.00342339
0.0035112
0.00356952
0.00360557
0.00362568
0.00363514
0.00363831
0.00363873
0.00363924
0.0036421
0.00364904
0.00366135
0.00367982
0.00370485
0.00373635
0.00377377
0.0038159
0.00386062
0.00390613
0.00378488
0.00362803
0.00350787
0.00341843
0.00335219
0.00330458
0.00324833
0.00336587
0.00345227
0.00351316
0.00355386
0.00357916
0.00359331
0.00359995
0.00360218
0.00360256
0.00360318
0.00360566
0.00361121
0.00362065
0.00363444
0.00365275
0.00367543
0.00370198
0.00373167
0.00376318
0.00379561
0.00382833
0.0037915
0.00368779
0.00360736
0.00301095
0.00315376
0.00326651
0.00335305
0.00341738
0.00346342
0.00349481
0.0035149
0.00352666
0.00353268
0.00353515
0.00353589
0.00353638
0.00353774
0.00354082
0.00354619
0.0035542
0.00356501
0.00357857
0.00359465
0.00361292
0.00363301
0.00365422
0.00367592
0.00369775
0.00271712
0.00287735
0.0030107
0.00311932
0.00320582
0.00327299
0.00332369
0.00336068
0.00338655
0.00340369
0.00341418
0.00341986
0.00342229
0.00342275
0.00342227
0.00342169
0.00342161
0.0034225
0.00342467
0.00342832
0.00343351
0.00344023
0.00344835
0.00345772
0.00346812
0.0023841
0.00255052
0.00269464
0.00281719
0.00291946
0.00300319
0.00307033
0.00312294
0.00316309
0.00319274
0.00321373
0.00322771
0.00323618
0.0032404
0.00324147
0.0032403
0.00323765
0.00323413
0.00323023
0.00322631
0.00322268
0.00321954
0.00321703
0.00321524
0.00321423
0.0020404
0.00219809
0.00233872
0.00246189
0.00256808
0.00265818
0.00273325
0.00279461
0.00284368
0.0028819
0.0029107
0.00293144
0.00294538
0.00295366
0.00295729
0.00295717
0.00295407
0.00294864
0.00294144
0.00293294
0.00292352
0.0029135
0.00290315
0.00289269
0.00288238
0.00157782
0.00171863
0.00186708
0.00202657
0.00214639
0.00222636
0.00229376
0.00234941
0.00239425
0.0024293
0.00245556
0.00247404
0.00248573
0.00249155
0.00249235
0.00248891
0.00248193
0.00247203
0.00245977
0.00244561
0.00242999
0.00241326
0.00239572
0.00237767
0.00235943
0.00119221
0.00131056
0.00140909
0.00146517
0.0015129
0.00155232
0.00158387
0.00160807
0.00162552
0.00163683
0.00164265
0.00164362
0.00164035
0.00163345
0.00162348
0.00161094
0.00159633
0.00158005
0.00156248
0.00154396
0.00152477
0.00150516
0.00148534
0.00146549
0.00144585
0.000279003
0.000284764
0.000289668
0.000293689
0.000296927
0.000299452
0.000301321
0.000302588
0.000303305
0.000303523
0.000303292
0.000302659
0.00030167
0.00030037
0.000298801
0.000297002
0.00029501
0.000292857
0.000290575
0.00028819
0.000285728
0.000283211
0.000280656
0.000278082
0.000275502
4.43157e-05
6.34261e-05
4.27368e-05
0.000132381
9.55218e-05
0.000210996
0.000201299
0.000288593
0.000352727
0.000408249
0.000462941
0.000385049
0.000484051
0.000459858
0.000516854
0.000657087
0.000699616
0.00080814
0.00117663
0.00123685
0.00133598
0.00210216
0.00211203
0.0021543
0.0031731
0.00313508
0.00312969
0.00403557
0.00399592
0.00397835
0.00449386
0.0044804
0.00447572
0.00452769
0.00455042
0.00457413
0.0042717
0.00432025
0.00436736
0.00388802
0.00395236
0.00401657
0.00353718
0.00358183
0.00360803
0.00328102
0.00330609
0.00333813
0.00318203
0.00318406
0.00319416
0.00327092
0.00324973
0.00323735
0.00354858
0.0035062
0.00347425
0.00371737
0.0037369
0.0037566
0.00347805
0.00348861
0.00349978
0.00321376
0.00321398
0.00321475
0.00287314
0.00286428
0.00285559
0.00234297
0.0023267
0.00231043
0.00142858
0.00141167
0.00139501
0.000273239
0.000270994
0.000268769
2.62038e-05
4.34834e-05
5.50538e-05
5.49366e-05
7.00048e-05
7.54718e-05
8.01958e-05
8.4379e-05
8.81484e-05
9.15869e-05
9.4752e-05
9.76863e-05
0.000100422
0.000102987
0.000105401
0.000107683
0.00010985
0.000111914
0.00011389
0.000115787
0.000117617
0.000119389
0.000121112
0.000122796
0.000124447
0.000126074
0.000127686
0.000129288
0.00013089
0.000132499
0.000134122
0.000135767
0.000137444
0.000139161
0.000140928
0.000142757
0.00014466
0.000146652
0.000148751
0.000150979
0.000153348
0.000155792
0.000158309
0.0001609
0.000163565
0.000166306
0.000169127
0.000172029
0.000175011
0.000178074
0.000181213
0.000184426
0.000187705
0.00019104
0.000194418
0.00019782
0.000201219
0.000204579
0.000207851
0.000210969
0.000213842
0.000216352
0.000218337
0.000219598
0.000219943
0.000219237
0.00021746
0.000214565
0.000210449
0.000204876
0.000197708
0.000188587
0.000177602
0.000165115
0.00015159
0.000138852
0.000126115
0.000112693
9.72994e-05
6.57465e-05
4.30256e-05
0.000123827
0.000142099
0.000160226
0.000183551
0.00021091
0.000240468
0.000271501
0.000303334
0.000335415
0.000367301
0.00039866
0.000429256
0.000458933
0.000487598
0.000515202
0.000541731
0.000567195
0.000591624
0.000615061
0.000637556
0.000659169
0.000679965
0.00070001
0.000719376
0.00073813
0.000756344
0.000774085
0.000791418
0.000808405
0.000825099
0.000841552
0.000857805
0.000873885
0.000889808
0.000905574
0.00092116
0.000936527
0.000951519
0.000966016
0.00098018
0.000995709
0.00101195
0.00102881
0.00104632
0.00106448
0.00108332
0.00110283
0.00112303
0.00114388
0.00116535
0.00118738
0.00120989
0.00123275
0.00125578
0.00127876
0.00130138
0.00132324
0.00134383
0.00136247
0.00137826
0.00139
0.00139613
0.00139464
0.00138406
0.00136673
0.00134231
0.00131009
0.00126898
0.00121534
0.00115082
0.00107164
0.000981842
0.000879676
0.000744981
0.000572106
0.000415168
0.000295349
0.000209107
7.03371e-05
5.25867e-05
0.000183469
0.000221806
0.000261576
0.000312538
0.000372563
0.000438768
0.000508828
0.00058079
0.000653132
0.000724729
0.000794801
0.000862843
0.000928549
0.000991756
0.0010524
0.00111046
0.001166
0.00121907
0.00126977
0.0013182
0.00136447
0.0014087
0.001451
0.00149149
0.00153029
0.00156752
0.00160328
0.00163769
0.00167084
0.00170283
0.00173375
0.00176367
0.00179266
0.00182078
0.00184809
0.00187461
0.00190037
0.00192537
0.0019496
0.00197308
0.00199629
0.00202074
0.00204565
0.00207085
0.00209624
0.00212175
0.00214728
0.0021727
0.00219785
0.00222251
0.00224641
0.00226922
0.00229054
0.00230988
0.00232666
0.0023402
0.00234971
0.00235428
0.00235287
0.00234435
0.00232743
0.00230075
0.00223545
0.0020461
0.00188645
0.00176823
0.00169152
0.00166219
0.00169
0.00170564
0.00158793
0.00146566
0.00133233
0.00116948
0.000936254
0.000679892
0.000455744
0.000284031
7.31024e-05
5.82119e-05
0.000232665
0.000303034
0.000371191
0.000455217
0.000551724
0.000657219
0.000767645
0.000879926
0.000991807
0.00110173
0.00120869
0.00131206
0.00141153
0.00150694
0.00159825
0.0016855
0.00176877
0.00184817
0.00192384
0.0019959
0.00206452
0.00212983
0.00219198
0.00225111
0.00230737
0.00236089
0.00241179
0.0024602
0.00250623
0.00255
0.0025916
0.00263112
0.00266865
0.00270427
0.00273804
0.00277002
0.00280025
0.00282877
0.00285557
0.00288066
0.00290399
0.0029267
0.00294917
0.00297077
0.00299123
0.00301033
0.00302784
0.00304352
0.00305705
0.00306806
0.00307613
0.00308075
0.00308134
0.00307723
0.00306768
0.00305187
0.00302892
0.00299789
0.00295783
0.00290786
0.00284718
0.00277519
0.00269155
0.00250556
0.00226627
0.00207853
0.00194186
0.00185738
0.00183463
0.00185746
0.00172876
0.00160213
0.00147504
0.00133223
0.00112456
0.000851443
0.000571341
0.000329707
7.24331e-05
6.20141e-05
0.000279226
0.000384554
0.000485461
0.000604223
0.000737773
0.000880785
0.00102844
0.001177
0.00132388
0.00146737
0.00160643
0.00174047
0.00186919
0.00199249
0.00211038
0.00222294
0.00233029
0.00243257
0.00252993
0.00262253
0.00271054
0.00279411
0.0028734
0.00294857
0.00301975
0.00308709
0.00315071
0.00321073
0.00326727
0.00332042
0.00337027
0.00341692
0.00346042
0.00350086
0.00353827
0.00357271
0.00360421
0.00363277
0.0036584
0.00368107
0.00370074
0.00371733
0.00373255
0.00374565
0.00375621
0.00376391
0.00376843
0.00376946
0.00376661
0.00375944
0.00374745
0.00373004
0.00370656
0.00367626
0.00363833
0.00359189
0.00353602
0.00346981
0.0033924
0.00330305
0.00320124
0.00308676
0.0029598
0.00282115
0.00267195
0.00251474
0.00235314
0.00217218
0.00202956
0.00188036
0.0017371
0.0016051
0.00148487
0.00136606
0.00120615
0.000949897
0.000647017
0.00035454
7.02581e-05
6.46753e-05
0.000318969
0.000465302
0.000600993
0.000754189
0.000922221
0.00109902
0.00127924
0.00145897
0.00163559
0.00180746
0.00197361
0.00213352
0.00228697
0.00243393
0.00257443
0.00270861
0.00283659
0.00295853
0.00307461
0.00318499
0.00328984
0.00338931
0.00348356
0.00357275
0.00365701
0.00373648
0.00381126
0.00388149
0.00394724
0.00400862
0.00406569
0.00411852
0.00416717
0.00421167
0.00425207
0.00428837
0.0043206
0.00434875
0.00437281
0.00439276
0.00440854
0.00442011
0.00442772
0.00443254
0.00443378
0.00443099
0.00442385
0.00441199
0.00439501
0.00437245
0.00434377
0.00430836
0.00426549
0.00421435
0.00415406
0.00408363
0.00400205
0.00390829
0.00380137
0.00368046
0.00354498
0.00339471
0.00322999
0.00305194
0.00286271
0.00266581
0.00246591
0.0022683
0.00207829
0.00190027
0.00173705
0.0015904
0.00146137
0.00134586
0.00121565
0.00100586
0.000704262
0.000372548
6.74274e-05
6.67394e-05
0.000354954
0.000544226
0.00071498
0.000900626
0.00109957
0.00130565
0.00151352
0.0017194
0.00192082
0.00211628
0.00230495
0.00248645
0.00266062
0.00282747
0.00298712
0.00313968
0.00328531
0.00342419
0.00355647
0.00368233
0.00380192
0.0039154
0.00402292
0.00412462
0.00422064
0.00431111
0.00439613
0.0044758
0.00455021
0.00461944
0.00468355
0.00474258
0.00479657
0.00484554
0.00488951
0.00492849
0.00496247
0.00499144
0.00501537
0.00503424
0.00504799
0.00505654
0.0050598
0.00505915
0.00505412
0.00504428
0.00502931
0.00500884
0.00498249
0.00494981
0.00491026
0.00486321
0.0048079
0.00474347
0.00466892
0.00458314
0.00448493
0.004373
0.0042461
0.00410302
0.00394281
0.00376491
0.00356936
0.00335717
0.00313055
0.00289338
0.00265125
0.00241109
0.0021804
0.0019659
0.00177187
0.00159843
0.00144733
0.00131786
0.00119397
0.00102209
0.000735187
0.000380144
6.57233e-05
6.85539e-05
0.00038823
0.000620837
0.000825773
0.00104104
0.00126688
0.00149773
0.00172859
0.00195599
0.00217773
0.00239254
0.00259976
0.0027991
0.00299051
0.00317404
0.00334983
0.00351802
0.00367877
0.00383224
0.00397859
0.00411799
0.00425057
0.0043765
0.00449591
0.00460894
0.00471573
0.00481637
0.00491099
0.00499968
0.00508251
0.00515955
0.00523086
0.00529647
0.0053564
0.00541068
0.00545929
0.00550224
0.00553951
0.00557108
0.00559692
0.00561701
0.00563131
0.00563977
0.00564232
0.00563913
0.00563125
0.00561811
0.00559937
0.0055747
0.00554375
0.0055061
0.00546124
0.00540855
0.00534729
0.00527656
0.00519528
0.00510223
0.00499599
0.00487501
0.00473764
0.0045822
0.00440709
0.00421105
0.00399336
0.00375423
0.00349519
0.00321958
0.00293311
0.002644
0.00236192
0.0020964
0.00185361
0.00163953
0.00145593
0.00129989
0.00115291
0.00095359
0.000706621
0.000385892
6.51052e-05
7.03428e-05
0.000420018
0.000695492
0.000933034
0.00117473
0.00142343
0.00167469
0.00192418
0.0021689
0.00240698
0.0026374
0.00285967
0.00307362
0.00327926
0.00347669
0.00366603
0.00384746
0.00402111
0.00418713
0.00434569
0.00449691
0.00464095
0.00477794
0.00490803
0.00503133
0.00514798
0.00525808
0.00536174
0.00545906
0.0055501
0.00563494
0.00571362
0.00578617
0.00585262
0.00591296
0.0059672
0.00601532
0.00605728
0.00609308
0.00612266
0.00614601
0.00616307
0.00617378
0.00617807
0.00617582
0.00616821
0.00615496
0.00613579
0.00611046
0.00607867
0.00604007
0.00599422
0.00594055
0.00587837
0.00580679
0.00572475
0.00563096
0.00552389
0.00540178
0.00526262
0.00510426
0.00492443
0.00472097
0.00449204
0.00423652
0.0039545
0.00364803
0.00332128
0.00298255
0.00264202
0.00231105
0.00200321
0.00173042
0.00149802
0.00130325
0.00108898
0.000920664
0.000701632
0.000405587
6.6036e-05
7.22948e-05
0.00045192
0.000769524
0.00103775
0.00130258
0.00157016
0.00183769
0.00210177
0.00235995
0.00261078
0.00285348
0.00308772
0.00331343
0.00353065
0.0037395
0.0039401
0.00413261
0.00431715
0.00449386
0.00466288
0.00482433
0.00497835
0.00512507
0.00526463
0.00539714
0.00552273
0.00564151
0.00575358
0.00585904
0.00595795
0.00605039
0.00613641
0.00621603
0.00628927
0.00635615
0.00641664
0.00647073
0.00651838
0.00655956
0.00659422
0.00662231
0.00664379
0.00665859
0.00666662
0.00666777
0.00666257
0.00665147
0.00663424
0.00661072
0.00658069
0.00654388
0.00649995
0.00644844
0.00638875
0.00632009
0.00624148
0.00615168
0.00604917
0.0059321
0.00579832
0.00564533
0.00547035
0.00527041
0.00504256
0.00478411
0.00449319
0.00416942
0.00381502
0.00343521
0.00303872
0.00263926
0.00225388
0.00190102
0.00159542
0.001342
0.00110038
0.000883045
0.000704873
0.000445716
6.96114e-05
7.47036e-05
0.000486348
0.000845337
0.00114228
0.00142699
0.00170955
0.00198935
0.00226417
0.00253224
0.00279251
0.00304445
0.00328787
0.00352273
0.00374911
0.00396709
0.0041768
0.00437835
0.00457185
0.00475742
0.00493517
0.00510524
0.00526773
0.00542278
0.00557052
0.00571108
0.00584456
0.00597108
0.00609075
0.00620366
0.00630988
0.00640948
0.0065025
0.00658899
0.00666896
0.00674243
0.00680937
0.00686977
0.00692358
0.00697076
0.00701125
0.00704498
0.0070719
0.00709191
0.00710495
0.0071109
0.00710967
0.00710222
0.00708845
0.00706826
0.00704155
0.00700817
0.00696789
0.00692039
0.0068652
0.0068017
0.00672907
0.00664622
0.00655176
0.00644396
0.00632069
0.00617938
0.00601703
0.00583019
0.00561509
0.00536778
0.00508448
0.00476226
0.00439956
0.00399776
0.00356231
0.00310411
0.00264005
0.00219273
0.00178724
0.00144262
0.00116385
0.000885157
0.000697445
0.000488922
7.68107e-05
7.78528e-05
0.00052555
0.000878637
0.00123107
0.00155216
0.00184569
0.00213371
0.0024155
0.00269001
0.00295659
0.00321491
0.00346483
0.00370636
0.00393953
0.00416441
0.00438106
0.00458958
0.00479003
0.00498253
0.00516719
0.0053441
0.00551341
0.00567524
0.00582971
0.00597695
0.00611708
0.00625022
0.00637646
0.0064959
0.0066086
0.00671464
0.00681406
0.0069069
0.00699317
0.00707289
0.00714606
0.00721265
0.00727263
0.00732594
0.0073725
0.00741223
0.00744502
0.00747078
0.00748939
0.0075007
0.00750457
0.0075017
0.00749223
0.0074762
0.00745363
0.00742448
0.00738868
0.00734604
0.00729628
0.00723899
0.00717354
0.00709909
0.00701449
0.00691825
0.00680847
0.00668276
0.00653822
0.00637136
0.00617809
0.00595379
0.00569341
0.00539181
0.00504437
0.0046478