/*--------------------------------*- C++ -*----------------------------------*\
| =========                 |                                                 |
| \\      /  F ield         | OpenFOAM: The Open Source CFD Toolbox           |
|  \\    /   O peration     | Version:  v2012                                 |
|   \\  /    A nd           | Website:  www.openfoam.com                      |
|    \\/     M anipulation  |                                                 |
\*---------------------------------------------------------------------------*/
FoamFile
{
    version     2.0;
    format      ascii;
    class       volScalarField;
    location    "503";
    object      omega;
}
// * * * * * * * * * * * * * * * * * * * * * * * * * * * * * * * * * * * * * //

dimensions      [0 0 -1 0 0 0 0];


internalField   nonuniform List<scalar> 
6556
(
650.376
233.062
201.277
197.53
199.962
199.962
197.53
201.277
233.062
650.376
480.6
199.787
164.062
157.662
158.021
158.021
157.662
164.062
199.787
480.6
380.619
170.112
137.729
130.464
129.552
129.552
130.464
137.729
170.112
380.619
316.363
146.387
118.122
110.858
109.313
109.313
110.858
118.122
146.387
316.363
272.062
127.793
103.047
96.126
94.3156
94.3156
96.126
103.047
127.793
272.062
239.763
113.135
91.1743
84.697
82.8106
82.8106
84.697
91.1743
113.135
239.763
215.145
101.417
81.6358
75.6019
73.7313
73.7313
75.6018
81.6357
101.417
215.146
195.707
91.897
73.8399
68.2119
66.3985
66.3985
68.2119
73.8398
91.8967
195.707
179.916
84.0392
67.3711
62.1022
60.3616
60.3616
62.1021
67.3709
84.0388
179.917
166.791
77.4569
61.9307
56.9755
55.3112
55.3112
56.9754
61.9304
77.4564
166.792
155.675
71.8689
57.3
52.6186
51.0282
51.0281
52.6184
57.2996
71.8681
155.676
146.113
67.0677
53.3159
48.8743
47.353
47.3529
48.874
53.3153
67.0665
146.114
137.78
62.8983
49.8548
45.6247
44.167
44.1669
45.6242
49.8539
62.8964
137.783
130.44
59.2431
46.8219
42.7797
41.3804
41.3801
42.7791
46.8206
59.2403
130.444
123.913
56.0115
44.1436
40.2697
38.9235
38.9231
40.2687
44.1416
56.0074
123.919
118.064
53.133
41.7617
38.0396
36.742
36.7415
38.0381
41.7588
53.1272
118.072
112.786
50.5521
39.63
36.0457
34.7928
34.7921
36.0436
39.6259
50.5445
112.797
107.995
48.2246
37.7115
34.253
33.0411
33.0401
34.2499
37.706
48.2161
108.009
103.621
46.1148
35.976
32.6329
31.4587
31.4573
32.6285
35.9685
46.107
103.639
99.6099
44.194
34.399
31.1621
30.0226
30.0206
31.1555
34.3887
44.2006
99.6297
95.9149
42.4386
32.9604
29.8213
28.7137
28.7103
29.8075
32.9081
41.9904
83.6537
92.4972
40.8293
31.6434
28.5944
27.5159
27.5096
28.5657
31.5139
39.8096
70.8421
89.3239
39.3496
30.4339
27.468
26.4156
26.4046
27.4151
30.1945
37.6429
60.8377
86.3667
37.9856
29.32
26.4304
25.4014
25.3836
26.3446
28.9463
35.3322
52.974
83.6014
36.7255
28.2915
25.4719
24.4635
24.4376
25.3491
27.7275
33.0076
46.8095
81.0069
35.5591
27.3397
24.5842
23.5936
23.5578
24.4224
26.5299
30.8887
42.0264
78.5646
34.478
26.4573
23.7601
22.7844
22.7356
23.5406
25.4218
29.08
38.3033
76.2581
33.475
25.6381
22.9936
22.0297
21.9648
22.7043
24.3902
27.5682
35.3741
74.0728
32.5444
24.8768
22.2794
21.3244
21.2406
21.9133
23.4347
26.2758
32.9068
71.9955
31.6807
24.1691
21.6133
20.6639
20.559
21.1664
22.5509
25.1399
30.7284
70.0142
30.8797
23.5113
20.9914
20.0447
19.9169
20.4618
21.7316
24.1169
28.8021
68.1178
30.138
22.9003
20.4107
19.4635
19.3115
19.7971
20.9678
23.1642
27.0898
66.2961
29.453
22.3338
19.8689
18.918
18.7403
19.1694
20.2495
22.2631
25.5575
64.5393
28.8226
21.8103
19.3639
18.406
18.2013
18.5756
19.569
21.4024
24.1748
62.8384
28.2452
21.3285
18.8947
17.9263
17.6929
18.0131
18.9202
20.5751
22.9148
61.1846
27.72
20.8882
18.4605
17.478
17.2139
17.4797
18.2983
19.7766
21.755
59.5694
27.2463
20.4897
18.0614
17.0607
16.7636
16.9736
17.7005
19.0045
20.6775
57.9845
26.8236
20.1337
17.6981
16.6748
16.342
16.4944
17.1256
18.2584
19.669
56.422
26.4518
19.8217
17.372
16.3215
15.9499
16.0423
16.5745
17.5398
18.7207
54.8736
26.1303
19.5555
17.0849
16.0024
15.5887
15.6188
16.0497
16.8525
17.8284
53.3315
25.8581
19.3373
16.8396
15.7201
15.2609
15.2266
15.5554
16.202
16.9924
51.7877
25.6335
19.1694
16.6391
15.4777
14.9696
14.8692
15.0971
15.5956
16.2162
50.2342
25.4537
19.0539
16.487
15.2788
14.7186
14.5511
14.6809
15.041
15.5065
48.6629
25.3149
18.9929
16.3871
15.1278
14.5121
14.277
14.3131
14.5463
14.871
47.065
25.2123
18.9878
16.343
15.029
14.3549
14.052
13.9997
14.1184
14.3174
45.4311
25.14
19.0391
16.3584
14.9867
14.2515
13.8808
13.7457
13.7624
13.8513
43.7506
25.0906
19.1465
16.4362
15.0053
14.2063
13.7677
13.5547
13.4813
13.4754
42.0107
25.0558
19.3081
16.5783
15.0882
14.2233
13.7163
13.4295
13.2759
13.1889
40.1954
25.0256
19.5202
16.7853
15.2378
14.3055
13.7293
13.3714
13.1451
12.9883
38.284
24.9877
19.7765
17.0551
15.4545
14.4544
13.8081
13.3805
13.0867
12.8682
36.2468
24.925
20.0652
17.3808
15.735
14.6685
13.9519
13.4554
13.0973
12.8227
34.0396
24.8106
20.3653
17.7472
16.0686
14.9403
14.1551
13.5914
13.172
12.8456
31.5899
24.5746
20.6249
18.1183
16.429
15.2499
14.4027
13.7774
13.3028
12.9334
28.7199
24.1104
20.7577
18.4219
16.7591
15.5544
14.6641
13.9937
13.4845
13.0921
25.316
23.2441
20.6544
18.5655
16.9806
15.7924
14.8975
14.2267
13.7142
13.31
21.1986
21.4604
20.027
18.394
17.0032
15.9118
15.0946
14.4677
13.9732
13.5727
15.5116
17.9219
18.3093
17.5897
16.6853
15.9048
15.2523
14.7113
14.2625
13.8871
13.3008
12.8595
15.1255
15.854
15.8946
15.6625
15.3354
14.9899
14.6613
14.3624
12.9375
9.76018
11.8823
13.7686
14.8913
15.4945
15.7731
15.8397
15.8019
15.724
13.7262
14.6585
18.2237
22.2675
26.0933
28.6679
30.6006
32.1928
33.4965
34.559
35.208
20.7722
21.078
21.7331
22.2621
22.5854
22.6843
22.5425
22.1065
21.5793
20.9523
20.2236
19.4011
18.5174
17.591
16.6325
15.6298
14.6989
13.8002
12.899
11.9655
10.9617
9.82526
8.42741
7.25317
44.0277
15.8503
9.28639
8.01596
7.6627
7.50525
7.38601
7.25252
7.0757
6.86124
6.62969
6.40175
6.19159
6.00314
5.8414
5.71337
5.64218
5.78783
6.08001
6.4606
6.8661
7.21192
7.3978
7.38475
11.2133
47.5291
20.657
10.1918
7.41922
6.5009
6.06817
5.78675
5.55265
5.31686
5.05363
4.79937
4.56034
4.33992
4.14208
3.97478
3.84855
3.7817
3.83268
4.02143
4.35473
4.82239
5.37609
5.92563
6.51242
12.2736
47.4312
24.6355
13.4753
8.80557
7.01349
6.1938
5.69155
5.31162
4.97907
4.6557
4.35002
4.07469
3.82022
3.58717
3.3852
3.22676
3.1276
3.11878
3.22259
3.45956
3.84625
4.37559
5.00171
5.8578
12.6605
45.6242
27.6333
16.1436
10.787
8.11088
6.75824
5.97694
5.42029
4.97435
4.59324
4.24831
3.93867
3.65265
3.38544
3.14781
2.95558
2.82538
2.77879
2.83269
3.00612
3.32131
3.79136
4.41166
5.40421
12.6824
43.1102
29.0476
18.3662
12.479
9.39409
7.5701
6.44564
5.68068
5.10694
4.65244
4.27632
3.94197
3.63091
3.33165
3.05619
2.8265
2.6653
2.59141
2.61547
2.75062
3.01674
3.43454
4.03002
5.10074
12.5021
40.254
29.6581
20.1589
14.0617
10.537
8.44419
7.05642
6.0596
5.33307
4.78809
4.36561
4.01843
3.70017
3.37139
3.0554
2.77963
2.5818
2.484
2.48961
2.60248
2.83679
3.21503
3.78427
4.90008
12.2031
37.4916
29.65
21.3301
15.4408
11.6356
9.23307
7.6292
6.48704
5.63657
4.99169
4.50973
4.1403
3.81928
3.48983
3.13893
2.80721
2.55993
2.43463
2.42683
2.52609
2.73915
3.08785
3.63342
4.77217
11.8172
34.9414
29.2042
22.0214
16.5223
12.6354
10.0032
8.1812
6.87374
5.91377
5.21065
4.69279
4.30386
3.98419
3.65907
3.28933
2.90786
2.61134
2.45307
2.42742
2.51261
2.70738
3.03192
3.55875
4.71613
11.3825
32.6217
28.4055
22.4057
17.3175
13.4839
10.7182
8.72376
7.26384
6.19095
5.42109
4.87733
4.48758
4.18429
3.87825
3.50899
3.09063
2.73116
2.52964
2.48403
2.55629
2.73658
3.04464
3.56762
4.77363
10.9827
30.5255
27.4145
22.504
17.855
14.1656
11.3497
9.23384
7.65196
6.48441
5.64926
5.07556
4.68696
4.41177
4.14966
3.80616
3.37569
2.94573
2.67402
2.59282
2.65043
2.82032
3.12044
3.65109
4.89974
10.5884
28.6438
26.3512
22.3506
18.1673
14.6892
11.8833
9.69388
8.02351
6.78282
5.89482
5.29839
4.90668
4.66575
4.47111
4.19488
3.78553
3.30045
2.91437
2.76167
2.79592
2.95755
3.25654
3.7983
5.05411
10.1844
26.9535
25.2719
21.9868
18.3223
15.0424
12.3008
10.0882
8.36535
7.07675
6.15731
5.5384
5.15051
4.94017
4.81998
4.65867
4.33631
3.85564
3.3433
3.02855
3.00556
3.1514
3.44888
3.99102
5.18769
9.7737
25.4272
24.2017
21.4999
18.3219
15.2539
12.6137
10.4172
8.67266
7.35765
6.42164
5.79799
5.41425
5.22539
5.16498
5.13188
4.99529
4.63399
4.09259
3.56377
3.33417
3.42333
3.70939
4.23932
5.31501
9.40371
24.039
23.1595
20.9407
18.1876
15.3592
12.8424
10.6881
8.9453
7.62117
6.6797
6.0579
5.68255
5.51009
5.47901
5.53451
5.59594
5.53724
5.21188
4.64939
4.05466
3.90897
4.12267
4.62804
5.55372
8.63227
22.765
22.1527
20.3405
17.9466
15.392
12.9959
10.9075
9.18668
7.86626
6.92432
6.30484
5.93619
5.77467
5.75133
5.82859
5.98619
6.17494
6.30268
6.22285
5.86459
5.31182
5.14313
5.44716
6.1864
8.25512
21.5847
21.1784
19.7074
17.6423
15.3692
13.1043
11.0986
9.4096
8.09945
7.15463
6.52696
6.16111
6.0039
5.98019
6.03797
6.17841
6.39741
6.69612
7.04226
7.38335
7.6852
7.98596
8.50397
9.42562
10.5698
20.4816
20.236
19.0557
17.2929
15.2766
13.2056
11.2752
9.62787
8.32195
7.37074
6.7284
6.3492
6.18651
6.16244
6.21259
6.30649
6.43991
6.63207
6.88743
7.2133
7.59232
8.00129
8.40943
8.83443
9.23956
19.4435
19.323
18.3939
16.9125
15.1384
13.2825
11.4562
9.85536
8.55331
7.58316
6.91288
6.50318
6.31776
6.28616
6.34145
6.44388
6.57142
6.71511
6.88189
7.08191
7.32602
7.6068
7.88327
8.1229
8.27566
18.4629
18.4366
17.7238
16.4972
14.9629
13.3099
11.6677
10.1154
8.82602
7.82985
7.11061
6.6465
6.40936
6.3394
6.37461
6.4729
6.60753
6.76125
6.92262
7.08401
7.24079
7.38897
7.51129
7.56305
7.48635
17.5371
17.5764
17.047
16.0535
14.756
13.303
11.8286
10.4258
9.15184
8.14241
7.37837
6.84072
6.52531
6.38359
6.35778
6.40533
6.49745
6.61379
6.73721
6.85049
6.93746
6.98521
6.98095
6.89305
6.68457
16.6681
16.7455
16.3663
15.582
14.5074
13.2641
11.96
10.6931
9.53301
8.5333
7.73317
7.14239
6.74311
6.51536
6.41105
6.3883
6.41532
6.46796
6.52613
6.57079
6.5852
6.55865
6.48588
6.35603
6.14904
15.8626
15.9515
15.6879
15.0849
14.217
13.1783
12.0589
10.937
9.8846
8.9574
8.17602
7.55196
7.09577
6.79323
6.60871
6.51582
6.48322
6.48551
6.5
6.50687
6.48991
6.43921
6.35043
6.22226
6.05136
15.1302
15.2068
15.023
14.5685
13.8847
13.0385
12.101
11.1385
10.2095
9.36385
8.63204
8.02738
7.5568
7.21125
6.96892
6.80822
6.72003
6.68102
6.66775
6.65889
6.63745
6.59317
6.52071
6.41719
6.28174
14.4819
14.527
14.3886
14.0457
13.5164
12.8431
12.078
11.2736
10.478
9.73229
9.0677
8.50165
8.04152
7.68471
7.41903
7.22946
7.10279
7.02646
6.9894
6.97024
6.95222
6.92341
6.87654
6.80728
6.7125
13.9273
13.9284
13.8057
13.537
13.1266
12.5984
11.9875
11.3326
10.6714
10.0369
9.45417
8.94213
8.5109
8.16264
7.89333
7.69382
7.55566
7.4676
7.41403
7.38448
7.3685
7.35308
7.32935
7.29466
7.24295
13.4721
13.4242
13.2958
13.068
12.7392
12.3222
11.8388
11.3159
10.7802
10.256
9.76422
9.32085
8.93623
8.61521
8.35852
8.16264
8.02173
7.92796
7.87144
7.84216
7.82835
7.82235
7.818
7.80876
7.78985
13.1172
13.0217
12.8754
12.6637
12.3839
12.0434
11.6557
11.2378
10.8075
10.3826
9.9787
9.60829
9.28037
9.00069
8.77269
8.59507
8.46396
8.37482
8.32135
8.29626
8.29098
8.2972
8.30675
8.31541
8.32046
12.8586
12.7206
12.5524
12.3425
12.0888
11.7958
11.4714
11.1272
10.7758
10.4294
10.0991
9.79403
9.52095
9.28439
9.08872
8.93572
8.82187
8.74406
8.69845
8.68013
8.68315
8.70119
8.72803
8.7582
8.78629
12.6891
12.5147
12.3261
12.1133
11.8734
11.6072
11.3208
11.0229
10.7229
10.4298
10.1516
9.89486
9.66435
9.46329
9.29399
9.15897
9.05799
8.98812
8.94633
8.92933
8.93343
8.9544
8.9877
9.02885
9.07344
12.6003
12.3956
12.1918
11.977
11.7448
11.495
11.2315
10.961
10.691
10.4288
10.1808
9.95209
9.7464
9.56593
9.41205
9.2853
9.18595
9.11313
9.0648
9.03828
9.03083
9.03965
9.06177
9.0942
9.13375
12.5858
12.3597
12.1451
11.9285
11.7025
11.4649
11.2176
10.965
10.7129
10.4673
10.2338
10.0168
9.81963
9.6443
9.49178
9.36232
9.25553
9.1704
9.10513
9.05811
9.02761
9.01145
9.00746
9.01363
9.02788
12.6491
12.4051
12.1807
11.9624
11.7416
11.5144
11.2805
11.0421
10.8033
10.5686
10.3425
10.129
9.93116
9.75114
9.59007
9.44835
9.3258
9.22165
9.13467
9.0633
9.00569
8.95992
8.92441
8.89789
8.87895
12.7874
12.5277
12.2936
12.0719
11.8538
11.6343
11.4114
11.1854
10.9585
10.7336
10.514
10.303
10.1033
9.91675
9.74487
9.58836
9.44742
9.32181
9.21088
9.11365
9.02891
8.95531
8.8914
8.83577
8.78727
12.9921
12.7199
12.4764
12.2496
12.0312
11.8157
11.6002
11.3838
11.1671
10.9516
10.7395
10.5329
10.3338
10.1441
9.96503
9.79747
9.64192
9.4985
9.36706
9.24718
9.13825
9.03945
8.94985
8.86851
8.79471
13.252
12.9742
12.7251
12.4945
12.275
12.0612
11.85
11.6399
11.4307
11.2229
11.0177
10.8164
10.6205
10.4313
10.2498
10.0769
9.9131
9.75877
9.61396
9.47855
9.35228
9.23475
9.12545
9.02387
8.92971
13.5795
13.3085
13.0625
12.8334
12.615
12.4031
12.1949
11.9893
11.7857
11.5844
11.3858
11.1908
11.0004
10.8155
10.6369
10.4653
10.301
10.1445
9.99586
9.85507
9.722
9.59641
9.47799
9.36639
9.26154
14.1038
13.8664
13.6439
13.4314
13.2259
13.0258
12.8298
12.6371
12.4475
12.2611
12.0783
11.8996
11.7256
11.5568
11.3939
11.2372
11.087
10.9434
10.8066
10.6765
10.5528
10.4353
10.3237
10.2178
10.1172
15.6373
15.5471
15.454
15.3536
15.2495
15.1433
15.0355
14.9264
14.8166
14.7064
14.5962
14.4866
14.3781
14.2711
14.166
14.063
13.9624
13.8642
13.7684
13.675
13.5837
13.4944
13.4069
13.3209
13.2363
35.4078
36.139
36.7613
37.2716
37.6826
38.003
38.2402
38.401
38.492
38.5197
38.4903
38.41
38.2845
38.1196
37.9204
37.6921
37.4393
37.1661
36.8764
36.5738
36.2614
35.9419
35.6177
35.2909
34.9636
7.79514
8.04925
15.2305
12.7093
13.8554
12.3103
11.2277
10.8091
9.85591
9.34083
9.01834
8.22961
8.19273
7.76503
6.92051
7.18742
6.66859
5.92967
6.32575
5.87822
5.35398
5.86498
5.55022
5.20663
5.84401
5.62518
5.39354
6.12726
5.96658
5.79858
6.59959
6.47948
6.34849
7.17644
7.09641
7.002
7.76051
7.72072
7.66766
8.31885
8.30824
8.28794
8.80781
8.82412
8.83562
9.11409
9.15191
9.18608
9.17351
9.21485
9.25676
9.04629
9.06862
9.09408
8.86737
8.86001
8.85606
8.74899
8.71497
8.68416
8.7344
8.67888
8.62693
8.85144
8.77822
8.70884
9.17346
9.09015
9.01048
10.0323
9.95105
9.87268
13.1628
13.09
13.0174
34.6763
34.3915
34.1091
4.36098
5.51836
6.98673
8.04114
8.88411
9.5779
10.1774
10.7083
11.1866
11.623
12.0247
12.3971
12.7443
13.0697
13.3761
13.6658
13.9407
14.2027
14.4534
14.6942
14.9265
15.1513
15.37
15.5837
15.7932
15.9998
16.2042
16.4076
16.6109
16.8151
17.021
17.2299
17.4426
17.6605
17.8848
18.1169
18.3585
18.6113
18.8777
19.1604
19.461
19.7712
20.0907
20.4195
20.7576
21.1056
21.4636
21.8318
22.2103
22.599
22.9974
23.4051
23.8212
24.2445
24.6732
25.1049
25.5363
25.9627
26.3779
26.7736
27.1383
27.4568
27.7088
27.8688
27.9125
27.8229
27.5974
27.2301
26.7077
26.0005
25.0908
23.9332
22.5392
20.9545
19.238
17.6214
16.005
14.3016
12.3481
10.9419
9.09097
6.0313
6.71985
7.12323
7.32584
7.40281
7.40116
7.36111
7.30332
7.2394
7.17561
7.11523
7.05986
7.01015
6.96619
6.92781
6.89465
6.8663
6.84234
6.82236
6.80596
6.79282
6.78262
6.77511
6.77008
6.76737
6.76686
6.76849
6.77223
6.77814
6.7863
6.79688
6.8101
6.82629
6.84586
6.86934
6.89739
6.9308
6.97104
7.01941
7.07577
7.13113
7.18796
7.2466
7.30728
7.37018
7.4355
7.50344
7.57422
7.64806
7.72519
7.80586
7.89027
7.97862
8.07104
8.1676
8.26824
8.37271
8.48051
8.59083
8.70234
8.81319
8.92146
9.02643
9.12534
9.20171
9.2332
9.20653
9.11186
8.91978
8.66995
8.37792
8.05925
7.7674
7.71696
8.13977
8.75055
9.29642
9.63854
14.8617
11.1111
6.14
6.2437
6.30275
6.25888
6.14073
5.98549
5.82286
5.66664
5.52323
5.39488
5.28173
5.18289
5.09704
5.02269
4.9584
4.90283
4.85479
4.81324
4.77726
4.74609
4.71907
4.69567
4.67544
4.65801
4.6431
4.63047
4.61998
4.61149
4.60497
4.60038
4.59777
4.59721
4.5988
4.60271
4.60912
4.61826
4.6304
4.64585
4.6649
4.68787
4.71424
4.74174
4.77153
4.80408
4.83976
4.87897
4.92212
4.96967
5.02211
5.07997
5.14382
5.21424
5.29183
5.3772
5.47092
5.5735
5.68534
5.80666
5.93743
6.07722
6.22497
6.37889
6.53638
6.69381
6.84418
6.96942
7.05107
7.06907
7.00458
6.85035
6.59054
6.25974
5.89674
5.6387
5.75104
6.24561
7.02264
8.03775
15.446
12.2997
6.0551
5.79107
5.66806
5.50327
5.31299
5.11312
4.92334
4.75147
4.59992
4.4684
4.35539
4.25885
4.17667
4.10681
4.04745
3.99697
3.95398
3.91731
3.88595
3.85909
3.83603
3.81622
3.7992
3.78459
3.77211
3.76153
3.75268
3.74544
3.73973
3.73552
3.73282
3.73165
3.7321
3.73425
3.73824
3.74423
3.7524
3.76298
3.7762
3.79236
3.81179
3.83385
3.85836
3.88601
3.91726
3.95259
3.99248
4.03748
4.08818
4.14522
4.20928
4.2811
4.36147
4.45119
4.5511
4.66204
4.78478
4.92004
5.06834
5.22996
5.40473
5.59168
5.78865
5.9927
6.20031
6.39953
6.57271
6.69759
6.74712
6.69639
6.52044
6.19515
5.71674
5.26414
5.0663
5.29214
5.9409
7.14051
15.3046
13.1031
5.89496
5.40058
5.17809
4.95897
4.73773
4.52675
4.33544
4.16739
4.02266
3.89955
3.79571
3.70859
3.63575
3.57497
3.52431
3.48206
3.44683
3.4174
3.39279
3.37219
3.35493
3.34046
3.32835
3.31824
3.30985
3.30298
3.29746
3.29318
3.29007
3.28809
3.28724
3.28756
3.28911
3.29196
3.29626
3.30213
3.30976
3.31936
3.33117
3.34547
3.36256
3.3828
3.40558
3.43149
3.46103
3.49468
3.53297
3.57645
3.62575
3.68155
3.74457
3.81563
3.89562
3.98547
4.08622
4.19895
4.3248
4.46494
4.62051
4.79257
4.98192
5.18893
5.41311
5.6528
5.90565
6.16606
6.42307
6.65898
6.84587
6.9448
6.90658
6.67719
6.22591
5.62185
5.08917
5.02789
5.48201
6.69282
14.8451
13.6653
5.73834
5.07896
4.79642
4.54975
4.31776
4.10621
3.9199
3.75973
3.62424
3.51094
3.41699
3.33957
3.27607
3.22419
3.18192
3.14758
3.11973
3.09721
3.07904
3.06443
3.05273
3.04342
3.03608
3.03039
3.02606
3.02292
3.0208
3.01961
3.01927
3.01975
3.02106
3.02322
3.02628
3.03034
3.03551
3.04192
3.04976
3.05921
3.0705
3.08391
3.09971
3.11824
3.13973
3.164
3.19166
3.2232
3.25913
3.30003
3.3465
3.39922
3.45895
3.52653
3.60288
3.68904
3.78616
3.89551
4.0185
4.15668
4.31173
4.48543
4.67962
4.89602
5.13607
5.40066
5.68987
6.00195
6.33162
6.66762
6.98904
7.25948
7.42105
7.39222
7.08046
6.45735
5.7053
5.25693
5.42715
6.5302
14.247
14.1015
5.6094
4.81723
4.49326
4.23143
3.99585
3.78721
3.60723
3.45513
3.3285
3.22431
3.13938
3.0707
3.01558
2.97165
2.93689
2.9096
2.88838
2.87205
2.85967
2.85047
2.84381
2.83919
2.83622
2.83457
2.83399
2.8343
2.83536
2.83705
2.83933
2.84216
2.84553
2.84948
2.85405
2.85931
2.86539
2.8724
2.8805
2.88989
2.90079
2.91343
2.9281
2.94512
2.96484
2.98717
3.01258
3.04152
3.07451
3.11208
3.15483
3.20342
3.25861
3.32124
3.39224
3.47267
3.56375
3.66684
3.78351
3.91554
4.06497
4.23414
4.42566
4.64241
4.88748
5.16397
5.47475
5.82184
6.20528
6.62091
7.05706
7.48915
7.87107
8.12612
8.10671
7.65229
6.78713
5.91804
5.76469
6.7481
13.8869
14.4849
5.51082
4.60338
4.24687
3.97527
3.73878
3.53385
3.36003
3.2153
3.09661
3.00047
2.92349
2.86252
2.81478
2.77786
2.74972
2.72868
2.71333
2.70252
2.69531
2.69094
2.68881
2.68842
2.68939
2.6914
2.69423
2.69769
2.70165
2.70601
2.7107
2.71569
2.72099
2.7266
2.73257
2.73897
2.74589
2.75345
2.7618
2.77111
2.78159
2.79348
2.80704
2.82257
2.84038
2.8608
2.88389
2.91014
2.94004
2.97411
3.01294
3.05715
3.10747
3.16472
3.22981
3.3038
3.38787
3.48341
3.59203
3.71559
3.8563
4.01677
4.20008
4.40988
4.6504
4.9265
5.24352
5.60698
6.02134
6.48946
7.00904
7.57198
8.16108
8.71312
9.08507
9.03776
8.34036
7.1336
6.46942
7.19978
13.7563
14.8628
5.4405
4.4278
4.04253
3.76305
3.52642
3.32511
3.15686
3.01871
2.90702
2.81801
2.74805
2.69387
2.65265
2.62192
2.59966
2.58417
2.57404
2.56814
2.56555
2.56553
2.56746
2.57089
2.57542
2.58077
2.58671
2.59306
2.59968
2.60649
2.61343
2.62045
2.62755
2.63474
2.64206
2.64956
2.65732
2.66546
2.67409
2.6834
2.69357
2.70483
2.71744
2.73169
2.7479
2.76642
2.78736
2.81114
2.8382
2.86904
2.90421
2.94431
2.99002
3.04212
3.10147
3.16907
3.24606
3.33375
3.43369
3.54769
3.67794
3.82706
3.99827
4.19552
4.42368
4.68868
4.99772
5.35932
5.78098
6.27277
6.84216
7.49843
8.23915
9.03563
9.79923
10.3184
10.2085
9.13113
7.64553
7.84377
13.953
15.2753
5.39708
4.28407
3.8707
3.58329
3.3463
3.14817
2.98488
2.8526
2.74718
2.66452
2.60083
2.55272
2.51729
2.49209
2.47506
2.46451
2.45905
2.45755
2.45911
2.46299
2.4686
2.47549
2.48327
2.49168
2.50047
2.50949
2.51861
2.52773
2.53679
2.54575
2.55461
2.56337
2.57205
2.5807
2.58939
2.5982
2.60728
2.61675
2.62682
2.6377
2.64964
2.66294
2.67789
2.69484
2.71406
2.73581
2.76051
2.78864
2.82069
2.85724
2.89892
2.94645
3.00064
3.06239
3.13275
3.21293
3.30433
3.40861
3.52779
3.6643
3.82119
4.00229
4.21247
4.45796
4.74672
5.08875
5.49601
5.9835
6.5672
7.2656
8.09269
9.05273
10.1191
11.174
11.8869
11.5853
9.69731
8.85898
14.7085
15.7842
5.38201
4.16853
3.72538
3.42875
3.19068
2.99517
2.83633
2.70938
2.60966
2.53277
2.47473
2.43207
2.40185
2.38159
2.36923
2.36309
2.3618
2.36425
2.36954
2.37695
2.38591
2.39595
2.40673
2.41796
2.42942
2.44095
2.45243
2.46376
2.47488
2.48576
2.49638
2.50674
2.51685
2.52676
2.53653
2.54622
2.55595
2.56586
2.57612
2.58695
2.59861
2.61137
2.62552
2.6414
2.65937
2.67964
2.70258
2.72861
2.75823
2.79193
2.83032
2.87404
2.92383
2.98051
3.04502
3.11841
3.20194
3.29705
3.40549
3.52941
3.67145
3.83503
4.02454
4.2458
4.50652
4.81686
5.19054
5.64532
6.20381
6.89386
7.74433
8.78681
10.0415
11.4877
12.9816
14.0129
13.41
10.7946
16.2297
16.4496
5.40772
4.0811
3.60316
3.29513
3.0551
2.86166
2.70683
2.5848
2.49033
2.41872
2.36581
2.32807
2.30251
2.28665
2.27845
2.27624
2.27868
2.28466
2.29332
2.30394
2.31595
2.32892
2.34248
2.35635
2.37034
2.38427
2.39802
2.41151
2.42467
2.43747
2.44988
2.46191
2.47356
2.48488
2.4959
2.5067
2.51736
2.528
2.5388
2.54996
2.56175
2.57444
2.5883
2.60367
2.6209
2.64025
2.66204
2.68666
2.71453
2.74613
2.782
2.82272
2.86895
2.92143
2.98098
3.04853
3.12514
3.21206
3.31075
3.42298
3.55097
3.69752
3.8663
4.06222
4.29193
4.56464
4.8931
5.29518
5.79556
6.42779
7.23607
8.27507
9.60255
11.272
13.3018
15.5143
17.0821
15.4679
18.4619
17.4224
5.45105
4.01604
3.50004
3.17865
2.93663
2.74556
2.59454
2.4771
2.38748
2.32067
2.27239
2.23902
2.21758
2.20559
2.20106
2.20233
2.20808
2.21724
2.22894
2.2425
2.25734
2.27302
2.2892
2.3056
2.322
2.33825
2.35422
2.36984
2.38503
2.39977
2.41402
2.42779
2.44109
2.45395
2.46641
2.47852
2.49037
2.50205
2.51374
2.52563
2.53797
2.55104
2.56511
2.58049
2.59751
2.61651
2.63775
2.66159
2.68839
2.71859
2.75268
2.79117
2.83467
2.88381
2.93932
3.002
3.07276
3.15264
3.24284
3.3448
3.46028
3.59148
3.74126
3.91343
4.11324
4.34801
4.6282
4.96894
5.39237
5.93108
6.63305
7.56763
8.83206
10.5518
12.8653
15.9068
19.6574
23.2893
22.2468
18.7245
5.65311
3.99067
3.42321
3.08031
2.83451
2.64661
2.49962
2.38653
2.30134
2.23881
2.19457
2.16499
2.1471
2.13846
2.1371
2.14142
2.15012
2.16214
2.17662
2.19289
2.21038
2.22864
2.24731
2.26613
2.28487
2.30337
2.32152
2.33923
2.35644
2.37311
2.38923
2.40478
2.41979
2.43428
2.4483
2.4619
2.47515
2.48814
2.50102
2.51399
2.52728
2.54115
2.55587
2.57174
2.58907
2.60822
2.62946
2.65309
2.67943
2.70888
2.74186
2.77884
2.82034
2.86693
2.91924
2.97797
3.04387
3.11783
3.20083
3.29404
3.3988
3.51681
3.65017
3.80167
3.9751
4.17574
4.41115
4.69237
5.03582
5.4665
6.02336
6.76834
7.8015
9.28376
11.4711
14.7573
19.7788
27.877
44.4939
14.3446
5.60513
3.98665
3.37088
3.00341
2.74985
2.56449
2.42325
2.31485
2.23378
2.17501
2.1342
2.10779
2.09286
2.08706
2.08843
2.09542
2.10675
2.12138
2.13845
2.15727
2.17727
2.198
2.21908
2.24022
2.2612
2.28187
2.3021
2.32181
2.34095
2.35948
2.37739
2.39468
2.41136
2.42748
2.44307
2.45823
2.47302
2.48751
2.50182
2.51613
2.53068
2.5457
2.56146
2.57822
2.59631
2.61605
2.63776
2.66168
2.68809
2.71734
2.74979
2.78586
2.82601
2.87073
2.92057
2.97611
3.03801
3.10702
3.18396
3.26976
3.36549
3.47241
3.59204
3.72632
3.87779
4.04999
4.24784
4.47837
4.75183
5.08347
5.49662
6.02801
6.73763
7.72692
9.17282
11.3839
14.8667
20.4328
29.2432
10.6554
5.35272
3.95335
3.32363
2.9447
2.68577
2.50233
2.36712
2.26475
2.18814
2.1329
2.09508
2.07135
2.05893
2.05555
2.05933
2.06872
2.08247
2.09953
2.11904
2.14029
2.1627
2.18578
2.20912
2.23243
2.25548
2.27809
2.30017
2.32164
2.34246
2.3626
2.38206
2.40085
2.419
2.43655
2.45361
2.47027
2.48658
2.5026
2.51843
2.53424
2.55023
2.56664
2.58371
2.60169
2.62087
2.64157
2.66414
2.68875
2.71566
2.74515
2.77754
2.8132
2.85251
2.89592
2.94387
2.99685
3.05541
3.12021
3.19195
3.27142
3.35947
3.45705
3.56525
3.68537
3.81905
3.96851
4.13677
4.32788
4.54743
4.80315
5.10583
5.47047
5.91767
6.4749
7.17624
8.05686
9.13965
10.4006
11.6992
8.3619
5.02412
3.8733
3.27626
2.90462
2.64761
2.46608
2.33608
2.24073
2.16992
2.11884
2.08417
2.06306
2.05302
2.05193
2.05799
2.06969
2.08575
2.10512
2.12693
2.15045
2.17507
2.20025
2.22555
2.25063
2.27526
2.29929
2.32265
2.34529
2.3672
2.38836
2.40879
2.42853
2.44763
2.46622
2.48444
2.50234
2.51996
2.53734
2.55457
2.57181
2.58923
2.60708
2.62558
2.64497
2.66548
2.68741
2.71111
2.73671
2.76442
2.79447
2.82714
2.86273
2.90157
2.94408
2.9906
3.04144
3.09711
3.15818
3.2253
3.29917
3.38047
3.46996
3.56848
3.6768
3.79591
3.92722
4.07255
4.23418
4.41487
4.61817
4.84838
5.11043
5.40929
5.74904
6.13165
6.55191
6.99132
7.41121
7.73628
6.79835
4.70438
3.77708
3.24363
2.89277
2.6453
2.46854
2.34232
2.25344
2.19038
2.14527
2.11481
2.09695
2.08971
2.09118
2.09968
2.11373
2.13196
2.15338
2.1771
2.20241
2.22865
2.25525
2.28166
2.30752
2.33259
2.35677
2.38007
2.40257
2.4243
2.44529
2.46553
2.48517
2.50439
2.52334
2.54208
2.56064
2.57905
2.59735
2.6156
2.63394
2.65254
2.6716
2.69138
2.71209
2.734
2.75733
2.78231
2.80906
2.83776
2.86858
2.90175
2.93752
2.97615
3.01792
3.06311
3.11199
3.16492
3.22249
3.28535
3.35405
3.42914
3.51125
3.60128
3.69941
3.80607
3.92231
4.04932
4.18849
4.341
4.50829
4.69198
4.89327
5.11211
5.34546
5.58819
5.83162
6.05797
6.24068
6.35495
5.74311
4.43229
3.70716
3.24799
2.92879
2.69879
2.53245
2.41355
2.33136
2.27675
2.23948
2.21464
2.20113
2.19755
2.20207
2.21298
2.22883
2.24842
2.2708
2.29513
2.32068
2.34677
2.37277
2.3981
2.42253
2.44549
2.46712
2.48767
2.50743
2.5266
2.54519
2.56339
2.58138
2.59937
2.61738
2.63544
2.65359
2.67183
2.69019
2.7087
2.72747
2.74664
2.76639
2.78694
2.80853
2.83146
2.85597
2.88216
2.91002
2.93963
2.97117
3.00479
3.04071
3.07912
3.12022
3.1642
3.21116
3.26147
3.31587
3.37489
3.4389
3.50832
3.5836
3.66517
3.75338
3.84863
3.9515
4.06282
4.18395
4.31472
4.45557
4.60735
4.77002
4.94256
5.12084
5.2984
5.4668
5.61448
5.72597
5.78562
5.09892
4.26666
3.71425
3.332
3.05541
2.85505
2.71193
2.61052
2.54036
2.49361
2.46218
2.442
2.43163
2.42954
2.43427
2.44429
2.45839
2.47551
2.49507
2.51627
2.53838
2.56071
2.58254
2.60317
2.62125
2.63696
2.65082
2.66348
2.6759
2.68903
2.70235
2.71591
2.72981
2.74425
2.75924
2.77477
2.79082
2.80738
2.82446
2.84205
2.8602
2.879
2.89859
2.91913
2.94085
2.96401
2.989
3.01567
3.04403
3.07416
3.10605
3.13972
3.1754
3.21322
3.25334
3.29587
3.34098
3.38891
3.44038
3.49567
3.55512
3.61906
3.68783
3.76172
3.84102
3.92598
4.01691
4.11419
4.21835
4.3297
4.44902
4.57707
4.71353
4.85681
5.00114
5.14255
5.27486
5.38958
5.47602
5.52372
4.81241
4.2749
3.87089
3.57711
3.35904
3.20092
3.08802
3.00367
2.93853
2.88894
2.85132
2.82489
2.80719
2.79679
2.79237
2.79295
2.79764
2.80558
2.81623
2.82884
2.8427
2.85704
2.87097
2.88383
2.89457
2.90368
2.91108
2.91689
2.92169
2.9264
2.93118
2.93633
2.94241
2.95027
2.95958
2.97009
2.9818
2.99472
3.00878
3.02392
3.04011
3.05735
3.07569
3.09525
3.11621
3.13879
3.16325
3.18926
3.21697
3.2464
3.27753
3.31044
3.34521
3.38177
3.42028
3.46094
3.50397
3.54977
3.59855
3.65012
3.70493
3.76331
3.82554
3.89187
3.96249
4.03754
4.11718
4.20156
4.29121
4.38695
4.48935
4.59817
4.71255
4.83086
4.95026
5.06726
5.17707
5.27323
5.34801
5.39384
4.85416
4.50681
4.23425
4.03616
3.88039
3.74908
3.63541
3.54051
3.46063
3.39351
3.34045
3.29937
3.26785
3.24413
3.22683
3.21483
3.20726
3.20337
3.20231
3.20344
3.20607
3.20962
3.21348
3.21751
3.22217
3.22665
3.23033
3.23291
3.23411
3.23353
3.23207
3.23031
3.22884
3.22839
3.22926
3.23177
3.23645
3.24354
3.25268
3.26374
3.27654
3.29096
3.30695
3.32454
3.34387
3.36522
3.38808
3.41237
3.43812
3.46538
3.49428
3.52495
3.55729
3.59136
3.62729
3.66518
3.7052
3.74778
3.7927
3.84014
3.89032
3.94299
3.99852
4.05713
4.11894
4.18408
4.25272
4.32532
4.40245
4.4845
4.57148
4.66309
4.7586
4.85669
4.95537
5.05194
5.14279
5.22326
5.2879
5.33139
5.15622
4.9347
4.75481
4.60079
4.46399
4.34387
4.23643
4.14033
4.05466
3.97988
3.91717
3.86455
3.82046
3.78356
3.7527
3.72693
3.70544
3.6875
3.67245
3.65973
3.64881
3.63936
3.63126
3.62414
3.61781
3.61191
3.60636
3.60131
3.59667
3.59204
3.58731
3.58242
3.57729
3.57163
3.56632
3.56215
3.55984
3.5599
3.56266
3.56851
3.57694
3.58764
3.60042
3.61524
3.63223
3.65122
3.67146
3.69296
3.71571
3.73976
3.76514
3.79193
3.82018
3.85012
3.88179
3.91516
3.9503
3.9874
4.02667
4.0685
4.11257
4.15891
4.20761
4.25841
4.31138
4.36692
4.42524
4.48676
4.55173
4.62032
4.69252
4.76804
4.84624
4.92605
5.00599
5.08403
5.15756
5.22325
5.2773
5.31595
5.62844
5.46428
5.32045
5.19371
5.07877
4.97279
4.87394
4.78206
4.6979
4.62215
4.55432
4.49371
4.4396
4.39132
4.34811
4.30925
4.27422
4.24243
4.21339
4.18672
4.16212
4.13922
4.11773
4.09749
4.07833
4.06029
4.04381
4.0289
4.01531
4.00285
3.99137
3.98079
3.97104
3.96212
3.95419
3.94743
3.94186
3.93773
3.93598
3.9375
3.94196
3.94898
3.95839
3.97021
3.98425
3.99947
4.01582
4.03325
4.05176
4.07138
4.09211
4.114
4.13711
4.16151
4.18727
4.21443
4.2431
4.27347
4.30561
4.33958
4.37548
4.41367
4.45385
4.49593
4.54009
4.58626
4.63416
4.68417
4.73661
4.79163
4.84918
4.90901
4.97059
5.0331
5.09541
5.15603
5.21305
5.26413
5.30662
5.33786
6.20621
6.0676
5.94414
5.83154
5.7277
5.63075
5.53865
5.45063
5.36801
5.29145
5.22033
5.15376
5.09156
5.03382
4.98023
4.9303
4.88367
4.83998
4.79887
4.75997
4.72301
4.68771
4.65369
4.62111
4.59023
4.5614
4.5348
4.5103
4.4878
4.46724
4.44853
4.43161
4.41643
4.40301
4.39152
4.38207
4.37473
4.36977
4.36752
4.36737
4.3694
4.37355
4.38012
4.38846
4.39775
4.40793
4.419
4.43094
4.44377
4.45751
4.47218
4.48783
4.50449
4.52222
4.54105
4.56103
4.58219
4.60462
4.62837
4.6535
4.68006
4.70813
4.73773
4.76911
4.80228
4.83692
4.87325
4.91134
4.95114
4.99251
5.0354
5.07976
5.1252
5.17111
5.2166
5.2606
5.30173
5.33834
5.36858
5.39056
6.8856
6.7584
6.63743
6.52489
6.4226
6.32774
6.23646
6.14704
6.06026
5.9777
5.89949
5.82557
5.75585
5.69017
5.62824
5.56968
5.51404
5.46095
5.41013
5.36134
5.31442