/*--------------------------------*- C++ -*----------------------------------*\
| =========                 |                                                 |
| \\      /  F ield         | OpenFOAM: The Open Source CFD Toolbox           |
|  \\    /   O peration     | Version:  v2012                                 |
|   \\  /    A nd           | Website:  www.openfoam.com                      |
|    \\/     M anipulation  |                                                 |
\*---------------------------------------------------------------------------*/
FoamFile
{
    version     2.0;
    format      ascii;
    class       volScalarField;
    location    "503";
    object      p;
}
// * * * * * * * * * * * * * * * * * * * * * * * * * * * * * * * * * * * * * //

dimensions      [0 2 -2 0 0 0 0];


internalField   nonuniform List<scalar> 
6556
(
0.392697
0.392083
0.39175
0.39161
0.39155
0.39155
0.39161
0.39175
0.392082
0.392696
0.392013
0.391839
0.391668
0.391561
0.391512
0.391512
0.391561
0.391667
0.391839
0.392012
0.391541
0.391556
0.391488
0.391414
0.391378
0.391378
0.391413
0.391487
0.391555
0.39154
0.391254
0.39131
0.391274
0.39122
0.391195
0.391195
0.391219
0.391273
0.391308
0.391253
0.391023
0.391083
0.39106
0.391016
0.390995
0.390995
0.391015
0.391058
0.391082
0.391021
0.390803
0.390859
0.39084
0.390804
0.390786
0.390786
0.390802
0.390838
0.390856
0.3908
0.390587
0.390636
0.390616
0.390585
0.39057
0.390569
0.390582
0.390613
0.390631
0.390582
0.390374
0.390416
0.390395
0.390365
0.390351
0.39035
0.390362
0.390389
0.390409
0.390368
0.390164
0.390198
0.390176
0.390147
0.390133
0.390131
0.390141
0.390167
0.390188
0.390154
0.389954
0.389983
0.389959
0.38993
0.389915
0.389912
0.389921
0.389945
0.389967
0.389939
0.389745
0.389769
0.389744
0.389715
0.389698
0.389693
0.389701
0.389723
0.389745
0.389722
0.389538
0.389557
0.389531
0.389501
0.389482
0.389475
0.38948
0.3895
0.389522
0.389502
0.389334
0.38935
0.389321
0.389289
0.389267
0.389256
0.389258
0.389275
0.389296
0.38928
0.389135
0.389148
0.389116
0.38908
0.389052
0.389036
0.389033
0.389046
0.389067
0.389053
0.388944
0.388954
0.388918
0.388875
0.388838
0.388813
0.388803
0.388812
0.388832
0.388822
0.388766
0.388772
0.38873
0.388675
0.388625
0.388585
0.388563
0.388567
0.388589
0.388585
0.388608
0.38861
0.388557
0.388485
0.388411
0.388347
0.388307
0.388304
0.388336
0.388345
0.38848
0.388476
0.388407
0.388308
0.388199
0.388095
0.38802
0.388007
0.388066
0.388112
0.3884
0.388388
0.388296
0.388155
0.387988
0.387815
0.387669
0.387614
0.387725
0.38796
0.38839
0.388369
0.388246
0.388046
0.387793
0.38751
0.387231
0.387104
0.387328
0.388038
0.388482
0.388453
0.388292
0.388013
0.387637
0.387175
0.386619
0.386052
0.385427
0.38148
0.388719
0.388685
0.388485
0.388122
0.387618
0.38698
0.38614
0.38496
0.384355
0.386577
0.389151
0.389119
0.388883
0.388441
0.387815
0.387031
0.386056
0.384571
0.38267
0.384462
0.389829
0.389806
0.389537
0.389017
0.388268
0.38732
0.386181
0.384509
0.381565
0.381961
0.390805
0.390795
0.390495
0.389895
0.389017
0.387891
0.386547
0.384797
0.381576
0.381108
0.392135
0.392141
0.391806
0.39112
0.390108
0.3888
0.38723
0.385339
0.381925
0.380389
0.393878
0.393902
0.393528
0.392742
0.391576
0.390059
0.38822
0.386096
0.382533
0.379671
0.396099
0.39614
0.395722
0.394819
0.393469
0.391703
0.38953
0.387033
0.383273
0.379276
0.398875
0.398935
0.398463
0.397424
0.39586
0.393805
0.39125
0.388245
0.384146
0.379653
0.402294
0.402379
0.401837
0.400643
0.398841
0.39647
0.39353
0.390039
0.385529
0.380743
0.406444
0.406553
0.405932
0.404568
0.402504
0.399787
0.396441
0.392486
0.387654
0.382492
0.411421
0.411551
0.410843
0.409289
0.406931
0.403822
0.400012
0.395552
0.39039
0.384788
0.417338
0.417487
0.416679
0.414906
0.412212
0.408657
0.404306
0.399262
0.393616
0.387546
0.424319
0.424485
0.423558
0.421534
0.418454
0.414387
0.409414
0.403672
0.397376
0.390727
0.432494
0.432675
0.43161
0.429299
0.425781
0.421131
0.415444
0.408886
0.401759
0.394354
0.442004
0.442196
0.440975
0.438344
0.434336
0.429029
0.422531
0.415033
0.406898
0.398538
0.452992
0.453195
0.451801
0.448821
0.444276
0.438247
0.430848
0.422291
0.412984
0.403466
0.465602
0.465816
0.464236
0.460885
0.455772
0.448971
0.440601
0.430888
0.420272
0.409398
0.479967
0.480193
0.478419
0.474686
0.468989
0.461392
0.452013
0.441086
0.429069
0.416689
0.496203
0.496437
0.494465
0.490351
0.484074
0.475687
0.465302
0.453152
0.439702
0.425729
0.514385
0.514623
0.512451
0.507967
0.501136
0.491994
0.480648
0.467323
0.452475
0.436894
0.534536
0.53477
0.532398
0.527565
0.520222
0.510389
0.498168
0.483769
0.467627
0.450508
0.556615
0.556834
0.554262
0.5491
0.5413
0.530864
0.517887
0.502566
0.485299
0.4668
0.580512
0.580696
0.577914
0.572444
0.564245
0.553305
0.539718
0.523661
0.505492
0.485852
0.606034
0.606155
0.603144
0.597375
0.58883
0.57749
0.563444
0.54686
0.528049
0.507566
0.632905
0.632924
0.62965
0.623574
0.614727
0.603079
0.588726
0.571824
0.552642
0.531645
0.660763
0.660632
0.657043
0.650635
0.64151
0.629635
0.615111
0.598086
0.578792
0.557611
0.689163
0.688822
0.684851
0.678068
0.668675
0.656638
0.642059
0.625084
0.60591
0.584842
0.717571
0.716953
0.71252
0.70531
0.695653
0.683513
0.668986
0.652209
0.633348
0.612643
0.745356
0.744388
0.739413
0.731735
0.721835
0.709664
0.695295
0.678853
0.660467
0.640321
0.771762
0.770369
0.764799
0.75666
0.746589
0.734499
0.720423
0.704456
0.68669
0.667253
0.795846
0.79397
0.787863
0.779386
0.769301
0.757475
0.743873
0.728548
0.711544
0.692938
0.816404
0.814048
0.807672
0.799181
0.789392
0.778121
0.765248
0.750769
0.734682
0.717015
0.831527
0.829694
0.823632
0.815498
0.806416
0.796099
0.78428
0.770889
0.755884
0.739256
0.839355
0.839135
0.834759
0.827877
0.820128
0.811257
0.800858
0.788808
0.775048
0.759542
0.841644
0.842306
0.840453
0.836048
0.830472
0.823596
0.814988
0.80451
0.79211
0.777759
0.841932
0.842289
0.842068
0.840488
0.837681
0.833265
0.826796
0.8181
0.807145
0.793942
0.841913
0.841536
0.841739
0.842324
0.842231
0.840432
0.836298
0.829528
0.820073
0.807986
0.842534
0.841686
0.841773
0.843349
0.84533
0.845866
0.843763
0.838615
0.830477
0.819328
0.843644
0.843169
0.843577
0.84561
0.848559
0.85079
0.85054
0.846995
0.84053
0.830888
0.360065
0.363039
0.364916
0.366741
0.368332
0.369575
0.370347
0.370516
0.370175
0.369364
0.368123
0.366644
0.365042
0.363403
0.361913
0.360751
0.36001
0.359748
0.360007
0.360766
0.361901
0.363175
0.36425
0.364838
0.365032
0.368287
0.364575
0.364069
0.365007
0.366186
0.367259
0.368035
0.36831
0.367968
0.367098
0.365877
0.364462
0.36299
0.361586
0.36038
0.359463
0.358914
0.358784
0.359109
0.359875
0.361006
0.36235
0.363678
0.36462
0.36505
0.368598
0.365038
0.363848
0.364072
0.364779
0.365507
0.366036
0.366162
0.365796
0.365025
0.36398
0.362744
0.361439
0.36022
0.359208
0.35847
0.358056
0.357987
0.358276
0.358912
0.35985
0.361004
0.362248
0.363378
0.364161
0.366998
0.363925
0.362792
0.362901
0.363576
0.364262
0.364729
0.364803
0.364397
0.363609
0.362586
0.3614
0.360153
0.358997
0.358057
0.357391
0.357029
0.356979
0.357238
0.357786
0.358581
0.359547
0.360586
0.361604
0.362495
0.367249
0.362877
0.361224
0.361293
0.36213
0.362925
0.36347
0.363584
0.363214
0.362448
0.361422
0.360239
0.35902
0.357908
0.357011
0.356383
0.356045
0.35599
0.356207
0.356673
0.35735
0.358172
0.359049
0.359908
0.360784
0.368369
0.362608
0.359994
0.359895
0.360712
0.361593
0.362245
0.362452
0.362163
0.361453
0.360445
0.35927
0.358069
0.356984
0.35612
0.355526
0.355209
0.355152
0.355333
0.355728
0.356299
0.356993
0.357731
0.358424
0.35916
0.36889
0.362805
0.359652
0.359178
0.359729
0.360565
0.361234
0.361522
0.361321
0.360674
0.359692
0.358526
0.357343
0.356287
0.355457
0.354897
0.354604
0.35455
0.354706
0.355041
0.35552
0.356097
0.356702
0.357233
0.357807
0.369172
0.363521
0.360278
0.35926
0.3594
0.360051
0.360665
0.36095
0.360792
0.360197
0.359237
0.35808
0.356909
0.355877
0.355081
0.354555
0.354287
0.35424
0.354378
0.354667
0.355072
0.35555
0.356041
0.356439
0.356871
0.370299
0.364883
0.361587
0.360134
0.359904
0.360285
0.360745
0.360933
0.360724
0.360152
0.359188
0.35801
0.356831
0.355803
0.355025
0.354522
0.354274
0.354236
0.354363
0.35462
0.35497
0.355373
0.355774
0.356073
0.35638
0.37228
0.366954
0.363577
0.361823
0.361273
0.361372
0.361613
0.361639
0.361303
0.360613
0.359616
0.358375
0.357151
0.356088
0.355298
0.3548
0.354562
0.354532
0.354656
0.354894
0.355208
0.355556
0.355886
0.356108
0.356317
0.374799
0.369579
0.366165
0.364214
0.363391
0.363211
0.363228
0.36309
0.362619
0.361759
0.360615
0.359241
0.357907
0.356749
0.355895
0.355365
0.35512
0.355096
0.355223
0.355456
0.355751
0.356066
0.356342
0.356508
0.356634
0.377648
0.372578
0.369164
0.367097
0.366073
0.365667
0.365463
0.36513
0.364522
0.36356
0.362228
0.360701
0.359153
0.357812
0.356816
0.356193
0.355906
0.355879
0.356014
0.356252
0.356547
0.35685
0.357097
0.357213
0.357254
0.380706
0.375734
0.37233
0.370209
0.369068
0.368508
0.368137
0.367653
0.366896
0.365815
0.364437
0.362826
0.360974
0.35934
0.358094
0.357293
0.356901
0.356834
0.356971
0.357221
0.35753
0.357845
0.35809
0.358151
0.358053
0.383901
0.378892
0.375464
0.3733
0.372084
0.371424
0.370954
0.370396
0.369587
0.368476
0.367083
0.365442
0.363513
0.361492
0.359861
0.358729
0.358127
0.357947
0.358046
0.358295
0.358625
0.358984
0.3593
0.359325
0.358785
0.387234
0.381971
0.378411
0.376166
0.374864
0.374135
0.373624
0.373061
0.372295
0.37128
0.369961
0.368356
0.366551
0.364475
0.362383
0.360746
0.359682
0.359235
0.35924
0.359463
0.359784
0.360157
0.360542
0.360613
0.359299
0.390829
0.385063
0.381129
0.378656
0.377221
0.376426
0.375891
0.375355
0.374691
0.373881
0.372827
0.371428
0.369747
0.3679
0.365771
0.363758
0.362104
0.360943
0.36043
0.360513
0.360825
0.361174
0.361566
0.362015
0.362617
0.394865
0.388327
0.383741
0.380825
0.379147
0.378215
0.377624
0.377104
0.376565
0.375974
0.375211
0.374183
0.37289
0.371343
0.369747
0.367963
0.366123
0.364326
0.362898
0.362027
0.361732
0.361984
0.362743
0.363992
0.365611
0.399592
0.391979
0.386505
0.382923
0.380792
0.379587
0.378872
0.378344
0.377885
0.377442
0.376931
0.376283
0.3755
0.374623
0.373691
0.372689
0.371552
0.370546
0.369614
0.368634
0.367941
0.36781
0.368442
0.370172
0.373302
0.405423
0.396428
0.389764
0.385236
0.382399
0.380731
0.379767
0.379164
0.378721
0.378362
0.378032
0.377707
0.377389
0.3771
0.37691
0.376853
0.37692
0.377221
0.377637
0.378205
0.379042
0.380266
0.381808
0.384201
0.387864
0.412816
0.402172
0.393982
0.38817
0.384328
0.381943
0.380526
0.379688
0.379177
0.37886
0.378643
0.378521
0.378529
0.378683
0.379011
0.379594
0.380498
0.381745
0.383286
0.385092
0.387155
0.389428
0.39183
0.394399
0.397154
0.422223
0.409725
0.399709
0.392268
0.387085
0.383674
0.381534
0.380243
0.379488
0.379078
0.37891
0.378935
0.379157
0.379589
0.380245
0.381189
0.382509
0.384247
0.386322
0.388626
0.391116
0.393754
0.396444
0.399054
0.401469
0.434066
0.4196
0.407528
0.398145
0.391274
0.386496
0.383322
0.381307
0.380093
0.379425
0.379145
0.379183
0.379521
0.380146
0.381046
0.382217
0.383704
0.385589
0.387844
0.390317
0.392896
0.395541
0.398188
0.400732
0.403058
0.448687
0.432254
0.418001
0.406431
0.397553
0.391058
0.386506
0.383449
0.381497
0.380348
0.379786
0.379683
0.37998
0.380651
0.381685
0.383066
0.384755
0.386723
0.388953
0.391364
0.393853
0.396361
0.398838
0.40122
0.403425
0.466279
0.448018
0.431598
0.41771
0.406572
0.398036
0.391752
0.387303
0.384285
0.382361
0.381266
0.380818
0.380908
0.381482
0.382526
0.384016
0.38584
0.387855
0.390004
0.39228
0.394632
0.396985
0.399286
0.401489
0.403539
0.48684
0.467022
0.448609
0.432428
0.418904
0.408079
0.399738
0.393538
0.389096
0.386056
0.384118
0.38305
0.382696
0.382973
0.383867
0.385286
0.38703
0.388951
0.391007
0.393191
0.39543
0.39765
0.399808
0.40186
0.403765
0.510138
0.489142
0.469067
0.450802
0.434936
0.421709
0.411076
0.402808
0.396585
0.392063
0.388926
0.386904
0.385795
0.385485
0.385945
0.387007
0.388444
0.390162
0.392105
0.39419
0.396321
0.398433
0.400473
0.402395
0.404179
0.535716
0.513982
0.492697
0.472728
0.454762
0.439207
0.426197
0.41565
0.407347
0.400995
0.39629
0.392944
0.390711
0.389449
0.389106
0.389536
0.390519
0.391903
0.393582
0.39545
0.39741
0.399379
0.401288
0.403096
0.404787
0.56293
0.540905
0.518914
0.497743
0.478097
0.460493
0.44522
0.432352
0.421798
0.413355
0.406763
0.401743
0.398023
0.395406
0.393904
0.39347
0.393795
0.394617
0.395816
0.397292
0.398941
0.400663
0.402378
0.404028
0.405596
0.591029
0.569107
0.546895
0.52506
0.504262
0.485055
0.467834
0.452808
0.44002
0.42938
0.420706
0.413767
0.408303
0.404058
0.400989
0.399272
0.398682
0.398739
0.399248
0.400129
0.401284
0.402602
0.40399
0.405378
0.406717
0.619247
0.597737
0.575703
0.553689
0.532272
0.511988
0.493276
0.476437
0.461628
0.448874
0.438094
0.429132
0.421786
0.415823
0.41104
0.407556
0.405516
0.40455
0.40421
0.404314
0.404772
0.405489
0.406376
0.407353
0.408354
0.646888
0.626001
0.604428
0.582606
0.561019
0.540152
0.520441
0.502231
0.485757
0.471141
0.4584
0.447467
0.438214
0.430477
0.424068
0.41887
0.414954
0.412325
0.410747
0.409917
0.409557
0.409529
0.409761
0.41017
0.410679
0.673393
0.653254
0.632308
0.610909
0.589462
0.568392
0.548105
0.528956
0.511222
0.495089
0.480654
0.467932
0.456873
0.447381
0.439335
0.432608
0.427074
0.422689
0.419428
0.417119
0.415553
0.414577
0.414055
0.413818
0.413741
0.698364
0.67903
0.658781
0.637912
0.616769
0.595725
0.575156
0.555406
0.536767
0.519463
0.503646
0.489392
0.476717
0.465587
0.455931
0.447663
0.44068
0.434883
0.430123
0.426286
0.423325
0.42111
0.419472
0.418275
0.417412
0.721542
0.703026
0.683473
0.663145
0.64235
0.621429
0.600733
0.580593
0.561303
0.543107
0.526189
0.510669
0.496612
0.484029
0.472896
0.463158
0.454738
0.447548
0.441477
0.43642
0.432264
0.428852
0.426049
0.423807
0.422062
0.742783
0.725056
0.706148
0.686304
0.665816
0.645013
0.624232
0.603798
0.584005
0.565105
0.547302
0.530744
0.515528
0.501702
0.489275
0.478219
0.468484
0.459998
0.452672
0.446407
0.441094
0.436619
0.432875
0.429772
0.427216
0.761927
0.744921
0.726567
0.707118
0.686862
0.666121
0.645238
0.624538
0.604316
0.58483
0.566294
0.548877
0.532695
0.517824
0.504295
0.492106
0.481226
0.4716
0.463157
0.455808
0.44946
0.444012
0.439361
0.435411
0.432067
0.778966
0.762564
0.744613
0.725385
0.705193
0.68439
0.663333
0.642347
0.621724
0.601722
0.582562
0.564423
0.547438
0.531697
0.51725
0.504114
0.492273
0.481688
0.472299
0.464032
0.456801
0.450515
0.445077
0.440395
0.436374
0.793753
0.777787
0.760068
0.740944
0.720747
0.69983
0.678567
0.657296
0.63631
0.615865
0.596183
0.577451
0.55981
0.543363
0.528171
0.514263
0.501638
0.490266
0.480099
0.471073
0.46311
0.456126
0.450031
0.444735
0.440149
0.805546
0.78978
0.772138
0.752984
0.732689
0.71163
0.69016
0.668609
0.647275
0.626422
0.606281
0.587042
0.568856
0.551834
0.536048
0.521536
0.508306
0.496336
0.485585
0.475994
0.467493
0.46
0.453428
0.447686
0.442679
0.817988
0.802498
0.784956
0.76578
0.745339
0.724014
0.702185
0.680197
0.658364
0.636963
0.616235
0.596379
0.577556
0.559885
0.54345
0.528296
0.514437
0.501858
0.490526
0.48039
0.471382
0.463422
0.456426
0.450307
0.444981
0.356543
0.356422
0.356409
0.362976
0.362944
0.367173
0.367802
0.37285
0.380745
0.377388
0.383534
0.390497
0.391697
0.395132
0.398408
0.399722
0.401872
0.403719
0.403495
0.405165
0.406581
0.404963
0.406494
0.40777
0.405261
0.406751
0.408003
0.405271
0.406704
0.407936
0.40539
0.406749
0.407935
0.405707
0.406983
0.408102
0.406222
0.407408
0.408452
0.406943
0.408046
0.409001
0.407883
0.408881
0.409771
0.409259
0.41004
0.410753
0.411195
0.411679
0.412142
0.413771
0.413859
0.413979
0.416829
0.416436
0.416147
0.420781
0.419816
0.419013
0.425237
0.423672
0.422317
0.429418
0.427295
0.425442
0.433146
0.430538
0.428247
0.436441
0.433416
0.430746
0.438579
0.43524
0.432285
0.440555
0.436885
0.433706
0.432331
0.432286
0.432187
0.431849
0.431003
0.429653
0.427927
0.42595
0.423832
0.421657
0.419484
0.417356
0.4153
0.413331
0.411461
0.409694
0.408031
0.406473
0.405016
0.403658
0.402397
0.401227
0.400146
0.399151
0.398237
0.397404
0.396648
0.395967
0.39536
0.394826
0.394365
0.393977
0.393662
0.393422
0.393259
0.393175
0.393172
0.393259
0.393437
0.39371
0.394081
0.394556
0.395146
0.39586
0.396704
0.397683
0.398805
0.400078
0.40151
0.403107
0.404874
0.406814
0.408926
0.411207
0.413646
0.416229
0.41893
0.421711
0.424521
0.427293
0.429942
0.432349
0.434344
0.435765
0.436561
0.43685
0.436551
0.435613
0.434139
0.432111
0.4296
0.42699
0.424618
0.422687
0.421492
0.421297
0.42216
0.423692
0.42506
0.425699
0.432445
0.432327
0.432179
0.431646
0.430613
0.429187
0.427448
0.425502
0.423439
0.42133
0.419227
0.417164
0.415167
0.41325
0.411425
0.409695
0.408063
0.406529
0.405092
0.403751
0.402501
0.40134
0.400264
0.399272
0.398359
0.397524
0.396764
0.396077
0.395462
0.394917
0.394444
0.39404
0.393708
0.393448
0.393263
0.393154
0.393124
0.393173
0.393307
0.393533
0.393856
0.394281
0.394812
0.395453
0.396214
0.397101
0.398123
0.399285
0.400592
0.40205
0.403662
0.40543
0.407352
0.409423
0.411633
0.413967
0.416402
0.418902
0.421424
0.423909
0.426286
0.428465
0.430324
0.431749
0.43272
0.433278
0.433316
0.43266
0.43126
0.429256
0.426841
0.424357
0.422169
0.420462
0.419472
0.419392
0.42033
0.422097
0.424042
0.425236
0.432575
0.432157
0.431603
0.430715
0.429483
0.427986
0.426276
0.424421
0.422481
0.420503
0.418528
0.416584
0.414692
0.412867
0.411121
0.409458
0.407884
0.406399
0.405003
0.403695
0.402473
0.401335
0.400279
0.399301
0.398399
0.397572
0.396816
0.396131
0.395514
0.394966
0.394485
0.394071
0.393726
0.393449
0.393243
0.393109
0.393051
0.39307
0.39317
0.393355
0.39363
0.394001
0.394472
0.395048
0.395736
0.396541
0.39747
0.398529
0.399722
0.401054
0.402526
0.404141
0.405895
0.407784
0.409799
0.411923
0.414137
0.416409
0.418703
0.420968
0.42315
0.425188
0.426996
0.428446
0.429462
0.430042
0.430122
0.429599
0.428472
0.426831
0.424795
0.422642
0.420714
0.41925
0.418392
0.418226
0.418806
0.420067
0.421736
0.423191
0.432036
0.431323
0.430458
0.429363
0.428037
0.426527
0.424874
0.42312
0.421303
0.419456
0.417609
0.415785
0.414004
0.412279
0.410621
0.409037
0.407531
0.406105
0.404761
0.403497
0.402314
0.401208
0.400178
0.399222
0.398338
0.397523
0.396777
0.396096
0.395481
0.394931
0.394444
0.39402
0.393661
0.393367
0.393139
0.392979
0.392889
0.392872
0.39293
0.393069
0.393292
0.393603
0.394007
0.39451
0.395116
0.395831
0.396662
0.397612
0.398688
0.399892
0.401227
0.402694
0.404293
0.406018
0.407863
0.409815
0.411855
0.413961
0.4161
0.418232
0.420311
0.42229
0.424117
0.42569
0.426854
0.427527
0.42768
0.427278
0.426355
0.425016
0.423345
0.421488
0.419734
0.418361
0.417516
0.417268
0.417602
0.418423
0.419566
0.420819
0.430724
0.429846
0.42888
0.427739
0.426407
0.424929
0.423342
0.42168
0.419969
0.418237
0.416506
0.414795
0.413121
0.411496
0.40993
0.40843
0.406999
0.405641
0.404356
0.403145
0.402007
0.400941
0.399945
0.399017
0.398156
0.39736
0.396628
0.395957
0.395348
0.394798
0.394308
0.393878
0.393507
0.393197
0.392949
0.392764
0.392644
0.392592
0.392611
0.392704
0.392875
0.393128
0.393468
0.393899
0.394426
0.395054
0.395789
0.396636
0.397599
0.398682
0.399887
0.401216
0.402668
0.404241
0.405928
0.407719
0.409601
0.411552
0.413547
0.415553
0.417527
0.419424
0.42119
0.42275
0.423989
0.424817
0.425192
0.42509
0.424524
0.42356
0.422259
0.420716
0.419175
0.417905
0.417077
0.416754
0.416898
0.417415
0.418127
0.419073
0.428942
0.427955
0.426972
0.425849
0.424559
0.423145
0.421641
0.420075
0.418471
0.416852
0.415235
0.413637
0.412072
0.41055
0.409081
0.407669
0.406319
0.405034
0.403815
0.402663
0.401577
0.400556
0.399599
0.398705
0.397872
0.397098
0.396383
0.395726
0.395124
0.394578
0.394088
0.393652
0.393272
0.392947
0.39268
0.392471
0.392322
0.392236
0.392215
0.392262
0.392382
0.392577
0.392853
0.393213
0.393662
0.394205
0.394847
0.395592
0.396445
0.397409
0.398487
0.399682
0.400992
0.402416
0.403949
0.405584
0.407309
0.409107
0.410959
0.412835
0.414702
0.416519
0.418235
0.419787
0.421095
0.422099
0.422756
0.423032
0.422898
0.422369
0.42147
0.420282
0.419016
0.417911
0.417137
0.416763
0.416761
0.417041
0.417417
0.417999
0.426725
0.425729
0.42479
0.423722
0.422509
0.421186
0.419785
0.418329
0.416841
0.41534
0.413841
0.412359
0.410906
0.409491
0.40812
0.406801
0.405536
0.404328
0.403179
0.402089
0.401058
0.400086
0.399171
0.398313
0.397511
0.396762
0.396067
0.395425
0.394833
0.394293
0.393803
0.393363
0.392974
0.392636
0.392351
0.392119
0.391942
0.391822
0.391763
0.391766
0.391835
0.391975
0.392188
0.39248
0.392854
0.393315
0.393866
0.394514
0.395261
0.396112
0.39707
0.398135
0.399309
0.400592
0.401978
0.403463
0.405038
0.40669
0.408401
0.41015
0.41191
0.413647
0.415322
0.416885
0.418283
0.419465
0.420385
0.421004
0.421283
0.421205
0.420774
0.420042
0.419155
0.418308
0.41766
0.417271
0.417134
0.417184
0.417299
0.417577
0.42416
0.423226
0.422372
0.421397
0.420295
0.419091
0.417813
0.416484
0.415124
0.413749
0.412375
0.411013
0.409675
0.408368
0.407099
0.405873
0.404694
0.403565
0.402487
0.401461
0.400487
0.399564
0.398693
0.397873
0.397102
0.39638
0.395706
0.395079
0.394498
0.393964
0.393476
0.393033
0.392636
0.392286
0.391984
0.39173
0.391526
0.391375
0.391278
0.391239
0.391261
0.391347
0.391501
0.391728
0.392032
0.392415
0.392883
0.39344
0.394089
0.394835
0.395681
0.396628
0.397678
0.39883
0.400082
0.401431
0.40287
0.404388
0.405973
0.407607
0.409269
0.410934
0.412569
0.41414
0.415607
0.416934
0.41807
0.418984
0.419652
0.420033
0.420113
0.4199
0.419478
0.418972
0.418512
0.418125
0.417853
0.417718
0.417645
0.417683
0.42134
0.420495
0.419748
0.418903
0.417948
0.416894
0.415766
0.414584
0.413367
0.41213
0.410888
0.409651
0.40843
0.407233
0.406065
0.404933
0.40384
0.402789
0.401781
0.400818
0.399899
0.399026
0.398198
0.397414
0.396675
0.395978
0.395325
0.394714
0.394144
0.393616
0.39313
0.392684
0.392281
0.39192
0.391601
0.391327
0.391098
0.390917
0.390785
0.390706
0.390683
0.390719
0.390819
0.390986
0.391224
0.391537
0.391929
0.392403
0.392965
0.393618
0.394364
0.395206
0.396146
0.397185
0.398321
0.399552
0.400873
0.402278
0.403756
0.405295
0.406879
0.408486
0.410095
0.411677
0.413211
0.41467
0.415974
0.417125
0.418135
0.418926
0.419483
0.419781
0.41985
0.419723
0.419463
0.419106
0.418737
0.418436
0.418206
0.418042
0.418254
0.41752
0.416919
0.416256
0.415497
0.414635
0.413689
0.412679
0.411623
0.410537
0.409433
0.408325
0.407223
0.406135
0.405067
0.404026
0.403016
0.402039
0.401098
0.400195
0.399329
0.398503
0.397715
0.396966
0.396255
0.395583
0.394949
0.394352
0.393793
0.393271
0.392786
0.392338
0.391928
0.391556
0.391223
0.390929
0.390677
0.390468
0.390303
0.390187
0.390123
0.390113
0.390163
0.390276
0.390456
0.390706
0.391031
0.391434
0.391919
0.39249
0.393151
0.393904
0.394752
0.395695
0.396735
0.397869
0.399096
0.400411
0.401806
0.403273
0.404799
0.406369
0.407965
0.409566
0.411148
0.412693
0.414195
0.415604
0.416863
0.417963
0.418919
0.41965
0.420134
0.420411
0.42039
0.420081
0.41963
0.419129
0.418697
0.418339
0.41474
0.414174
0.413827
0.413461
0.412978
0.412363
0.41164
0.41083
0.409953
0.409026
0.408067
0.407088
0.406103
0.40512
0.404148
0.403193
0.402259
0.401352
0.400472
0.399623
0.398806
0.398021
0.397269
0.396551
0.395867
0.395216
0.394598
0.394014
0.393463
0.392946
0.392462
0.392012
0.391595
0.391213
0.390866
0.390555
0.390281
0.390045
0.38985
0.3897
0.389598
0.389547
0.389553
0.389617
0.389746
0.389942
0.390209
0.39055
0.390971
0.391475
0.392065
0.392745
0.393518
0.394385
0.395348
0.396408
0.397564
0.398812
0.400149
0.401568
0.403061
0.404616
0.406221
0.407858
0.40951
0.411156
0.41278
0.414362
0.415891
0.417323
0.418599
0.419642
0.420481
0.421052
0.421263
0.421058
0.420491
0.419798
0.418988
0.418356
0.410445
0.410261
0.410384
0.410513
0.410441
0.410148
0.409689
0.409105
0.408421
0.407661
0.406845
0.405993
0.405118
0.404233
0.403347
0.402469
0.401604
0.400757
0.399931
0.399129
0.398353
0.397604
0.396883
0.396191
0.395528
0.394894
0.39429
0.393716
0.393171
0.392657
0.392173
0.39172
0.391297
0.390905
0.390545
0.390218
0.389923
0.389663
0.38944
0.389257
0.389121
0.389034
0.389
0.389024
0.389108
0.389258
0.389476
0.389767
0.390136
0.390585
0.391118
0.391741
0.392456
0.393265
0.394172
0.395178
0.396284
0.397488
0.39879
0.400185
0.401667
0.40323
0.404863
0.406554
0.408289
0.410051
0.411821
0.413578
0.415301
0.416965
0.418573
0.42001
0.421222
0.422102
0.422551
0.422421
0.421634
0.420631
0.419362
0.418136
0.404285
0.405183
0.406422
0.407362
0.407912
0.408069
0.407923
0.407586
0.407101
0.406504
0.405824
0.405086
0.40431
0.40351
0.402699
0.401885
0.401077
0.40028
0.399498
0.398734
0.397991
0.39727
0.396573
0.3959
0.395253
0.394632
0.394038
0.39347
0.39293
0.392417
0.391932
0.391474
0.391045
0.390644
0.390272
0.38993
0.389617
0.389333
0.389081
0.388868
0.3887
0.388582
0.388515
0.388504
0.388552
0.388663
0.388842
0.389093
0.389419
0.389826
0.390317
0.390896
0.391569
0.392337
0.393206
0.394177
0.395252
0.396433
0.39772
0.399112
0.400605
0.402196
0.403876
0.405638
0.407471
0.40936
0.41129
0.413241
0.41519
0.417111
0.418974
0.420732
0.422376
0.423712
0.424566
0.424754
0.424169
0.422619
0.41987
0.417413
0.394922
0.399294
0.402213
0.40418
0.405484
0.406223
0.406467
0.406372
0.406069
0.405617
0.405054
0.404411
0.403714
0.402981
0.402227
0.401463
0.400698
0.399938
0.399188
0.398451
0.397731
0.39703
0.396349
0.39569
0.395053
0.39444
0.393851
0.393287
0.392748
0.392234
0.391746
0.391284
0.390848
0.390438
0.390057
0.389702
0.389373
0.389064
0.388781
0.388534
0.388338
0.388194
0.388102
0.388062
0.388081
0.388163
0.388311
0.38853
0.388825
0.3892
0.38966
0.39021
0.390854
0.391596
0.392442
0.393394
0.394457
0.395632
0.396922
0.398328
0.399849
0.401484
0.403228
0.405077
0.407023
0.409055
0.41116
0.413323
0.415522
0.417733
0.419927
0.422067
0.424124
0.425988
0.427485
0.42851
0.429526
0.428792
0.422892
0.415037
0.376139
0.391356
0.397647
0.401283
0.403435
0.404747
0.405413
0.405562
0.405402
0.405055
0.404575
0.403998
0.403354
0.402665
0.401948
0.401215
0.400476
0.399739
0.399008
0.398288
0.397581
0.396891
0.396218
0.395565
0.394933
0.394322
0.393735
0.393171
0.39263
0.392114
0.391622
0.391155
0.390712
0.390294
0.389903
0.389535
0.389184
0.388852
0.388548
0.388277
0.38805
0.387878
0.387763
0.387703
0.3877
0.387759
0.387884
0.38808
0.388353
0.388706
0.389146
0.389677
0.390304
0.391034
0.391869
0.392816
0.39388
0.395063
0.39637
0.397804
0.399367
0.401059
0.402879
0.404826
0.406895
0.409081
0.411376
0.413766
0.41624
0.418778
0.421358
0.42396
0.426564
0.429138
0.431654
0.434177
0.43692
0.439379
0.440052
0.443898
0.380138
0.390399
0.396203
0.400198
0.402578
0.404052
0.404909
0.405231
0.405158
0.404857
0.404411
0.403862
0.403239
0.402566
0.401863
0.401142
0.400413
0.399684
0.398959
0.398244
0.397541
0.396852
0.396181
0.395528
0.394895
0.394283
0.393693
0.393126
0.392582
0.392062
0.391565
0.391091
0.390642
0.390216
0.38981
0.389418
0.389044
0.388698
0.388385
0.388105
0.387855
0.387651
0.387507
0.387428
0.387409
0.387452
0.387561
0.387742
0.388
0.38834
0.388769
0.389291
0.389912
0.390638
0.391475
0.392428
0.393503
0.394705
0.39604
0.397512
0.399124
0.40088
0.402783
0.404832
0.407029
0.409372
0.411857
0.41448
0.417233
0.420108
0.423094
0.42618
0.429361
0.432636
0.436036
0.439675
0.443673
0.448009
0.453501
0.462865
0.388898
0.394839
0.398732
0.40154
0.403311
0.404443
0.405131
0.405422
0.405351
0.405032
0.404563
0.403995
0.403358
0.402675
0.401963
0.401234
0.400499
0.399764
0.399035
0.398315
0.397606
0.396913
0.396236
0.395578
0.394939
0.394321
0.393726
0.393154
0.392606
0.392081
0.391579
0.3911
0.390643
0.390201
0.389769
0.389354
0.388967
0.388615
0.388295
0.388007
0.38775
0.387528
0.387352
0.387242
0.387206
0.387239
0.38734
0.387513
0.387764
0.388099
0.388524
0.389045
0.389668
0.390399
0.391246
0.392213
0.393308
0.394536
0.395905
0.39742
0.399087
0.40091
0.402895
0.405046
0.407365
0.409855
0.41252
0.415359
0.418374
0.421565
0.424932
0.428478
0.432208
0.436126
0.44027
0.44469
0.449362
0.454263
0.459754
0.466464
0.395985
0.399653
0.402189
0.403904
0.404991
0.405656
0.406007
0.406097
0.405935
0.40555
0.405009
0.404375
0.403688
0.402968
0.402228
0.401476
0.400722
0.399971
0.399227
0.398493
0.397774
0.397069
0.396382
0.395714
0.395066
0.39444
0.393838
0.393261
0.392708
0.39218
0.391675
0.391186
0.390705
0.390234
0.389781
0.389357
0.388966
0.388608
0.388283
0.387989
0.38773
0.387504
0.387317
0.387179
0.38711
0.387121
0.387215
0.387388
0.38764
0.387977
0.388405
0.388932
0.389564
0.390307
0.391169
0.392156
0.393277
0.394537
0.395944
0.397505
0.399226
0.401115
0.403177
0.405419
0.407847
0.410468
0.413287
0.416312
0.419551
0.423013
0.426704
0.430626
0.434771
0.439092
0.443574
0.448258
0.453115
0.458159
0.463717
0.469869
0.401334
0.4036
0.40521
0.406248
0.406867
0.407175
0.407239
0.40711
0.406806
0.406329
0.405695
0.404962
0.404196
0.40342
0.402636
0.401851
0.401069
0.400294
0.39953
0.398779
0.398043
0.397324
0.396623
0.395943
0.395284
0.394648
0.394038
0.393455
0.3929
0.392368
0.391844
0.391325
0.390814
0.390325
0.389868
0.389442
0.389049
0.388688
0.38836
0.388064
0.387804
0.387579
0.387395
0.387254
0.387165
0.387143
0.387207
0.387366
0.387622
0.387969
0.388408
0.388948
0.389594
0.390354
0.391237
0.392249
0.393398
0.394692
0.396138
0.397744
0.399517
0.401465
0.403595
0.405916
0.408435
0.411161
0.414103
0.417274
0.420687
0.424355
0.428255
0.432342
0.436606
0.441042
0.445609
0.450307
0.455195
0.460314
0.4657
0.471254
0.40537
0.406722
0.407669
0.408258
0.408557
0.40862
0.408492
0.408213
0.407802
0.40724
0.406511
0.405679
0.404829
0.403992
0.403163
0.402341
0.401528
0.400726
0.399939
0.399167
0.398413
0.397679
0.396965
0.396272
0.395603
0.394958
0.394339
0.393749
0.393182
0.392621
0.392061
0.391514
0.390995
0.390505
0.390046
0.389618
0.389223
0.388861
0.388532
0.388239
0.38798
0.38776
0.387581
0.387449
0.387368
0.387341
0.387382
0.387509
0.387736
0.388072
0.388524
0.389083
0.38975
0.390534
0.391443
0.392482
0.393662
0.394991
0.396475
0.398123
0.399942
0.401942
0.404129
0.406512
0.409101
0.411904
0.414936
0.418207
0.421718
0.425445
0.429365
0.433463
0.437724
0.442173
0.446811
0.451614
0.456571
0.461663
0.466848
0.472014
0.407798
0.408748
0.409374