/*--------------------------------*- C++ -*----------------------------------*\
| =========                 |                                                 |
| \\      /  F ield         | OpenFOAM: The Open Source CFD Toolbox           |
|  \\    /   O peration     | Version:  v2012                                 |
|   \\  /    A nd           | Website:  www.openfoam.com                      |
|    \\/     M anipulation  |                                                 |
\*---------------------------------------------------------------------------*/
FoamFile
{
    version     2.0;
    format      ascii;
    class       surfaceScalarField;
    location    "503";
    object      phi;
}
// * * * * * * * * * * * * * * * * * * * * * * * * * * * * * * * * * * * * * //

dimensions      [0 3 -1 0 0 0 0];
oriented        oriented;


internalField   nonuniform List<scalar> 
12848
(
5.0799e-08
0.000199949
3.46077e-08
0.000200016
2.09718e-08
0.000200014
9.91499e-09
0.000200011
1.734e-11
0.00020001
-9.88326e-09
0.00020001
-2.09484e-08
0.000200011
-3.4597e-08
0.000200014
-5.07966e-08
0.000200016
0.000199949
8.19391e-08
0.000199867
7.24284e-08
0.000200026
4.91713e-08
0.000200037
2.44309e-08
0.000200036
5.25013e-11
0.000200034
-2.4334e-08
0.000200034
-4.90979e-08
0.000200036
-7.23907e-08
0.000200037
-8.19311e-08
0.000200026
0.000199867
8.46898e-08
0.000199783
8.52379e-08
0.000200025
6.19921e-08
0.00020006
3.19487e-08
0.000200066
1.00928e-10
0.000200066
-3.17577e-08
0.000200066
-6.18299e-08
0.000200066
-8.51099e-08
0.00020006
-8.46155e-08
0.000200025
0.000199783
8.18677e-08
0.000199701
8.5748e-08
0.000200021
6.49372e-08
0.000200081
3.43773e-08
0.000200096
1.69875e-10
0.0002001
-3.4054e-08
0.0002001
-6.46604e-08
0.000200097
-8.55458e-08
0.000200081
-8.17568e-08
0.000200021
0.000199701
7.82604e-08
0.000199622
8.32219e-08
0.000200016
6.41225e-08
0.0002001
3.43626e-08
0.000200126
2.69834e-10
0.000200134
-3.38478e-08
0.000200134
-6.36799e-08
0.000200126
-8.28974e-08
0.0002001
-7.80856e-08
0.000200017
0.000199623
7.39054e-08
0.000199549
7.92518e-08
0.000200011
6.17833e-08
0.000200118
3.33636e-08
0.000200155
4.15123e-10
0.000200167
-3.25736e-08
0.000200167
-6.11099e-08
0.000200155
-7.87549e-08
0.000200118
-7.36349e-08
0.000200012
0.000199549
6.96426e-08
0.000199479
7.47514e-08
0.000200006
5.84067e-08
0.000200134
3.17741e-08
0.000200181
6.34564e-10
0.000200199
-3.05672e-08
0.000200199
-5.73789e-08
0.000200182
-7.39948e-08
0.000200135
-6.92292e-08
0.000200007
0.00019948
6.59124e-08
0.000199413
7.06183e-08
0.000200001
5.52548e-08
0.000200149
3.02485e-08
0.000200206
9.71926e-10
0.000200228
-2.83978e-08
0.000200228
-5.36728e-08
0.000200207
-6.94532e-08
0.00020015
-6.52741e-08
0.000200003
0.000199415
6.28386e-08
0.00019935
6.71732e-08
0.000199997
5.26558e-08
0.000200164
2.9084e-08
0.00020023
1.48597e-09
0.000200255
-2.62533e-08
0.000200256
-5.02339e-08
0.000200231
-6.53871e-08
0.000200166
-6.18577e-08
0.000199999
0.000199353
6.04198e-08
0.00019929
6.45069e-08
0.000199993
5.07389e-08
0.000200178
2.8417e-08
0.000200252
2.26577e-09
0.000200282
-2.41004e-08
0.000200282
-4.70453e-08
0.000200254
-6.17879e-08
0.00020018
-5.89268e-08
0.000199996
0.000199294
5.86235e-08
0.000199231
6.26462e-08
0.000199989
4.96008e-08
0.000200191
2.83782e-08
0.000200273
3.44606e-09
0.000200306
-2.18139e-08
0.000200307
-4.39882e-08
0.000200276
-5.8527e-08
0.000200195
-5.63656e-08
0.000199994
0.000199238
5.74574e-08
0.000199174
6.16641e-08
0.000199984
4.93625e-08
0.000200203
2.914e-08
0.000200294
5.22678e-09
0.00020033
-1.91919e-08
0.000200332
-4.08721e-08
0.000200298
-5.54298e-08
0.000200209
-5.40451e-08
0.000199993
0.000199183
5.69994e-08
0.000199117
6.17415e-08
0.00019998
5.02699e-08
0.000200214
3.09957e-08
0.000200313
7.92167e-09
0.000200353
-1.59371e-08
0.000200356
-3.74456e-08
0.000200319
-5.23048e-08
0.000200224
-5.18464e-08
0.000199992
0.000199132
5.73837e-08
0.000199059
6.31315e-08
0.000199974
5.27455e-08
0.000200225
3.44435e-08
0.000200331
1.20298e-08
0.000200376
-1.16171e-08
0.000200379
-3.33991e-08
0.000200341
-4.89795e-08
0.00020024
-4.96892e-08
0.000199993
0.000199082
5.878e-08
0.000199
6.61591e-08
0.000199967
5.73707e-08
0.000200234
4.02476e-08
0.000200348
1.83259e-08
0.000200398
-5.59503e-09
0.000200403
-2.83488e-08
0.000200364
-4.53469e-08
0.000200257
-4.76475e-08
0.000199995
0.000199034
6.17064e-08
0.000198939
7.18375e-08
0.000199956
6.53667e-08
0.00020024
4.96993e-08
0.000200364
2.80715e-08
0.000200419
3.12835e-09
0.000200428
-2.17949e-08
0.000200389
-4.14865e-08
0.000200276
-4.60805e-08
0.0002
0.000198988
6.68494e-08
0.000198872
8.13816e-08
0.000199942
7.8389e-08
0.000200243
6.4761e-08
0.000200378
4.32408e-08
0.000200441
1.62041e-08
0.000200455
-1.3118e-08
0.000200418
-3.83295e-08
0.000200302
-4.6691e-08
0.000200008
0.000198942
7.52083e-08
0.000198797
9.66961e-08
0.00019992
9.92426e-08
0.00020024
8.89594e-08
0.000200388
6.77031e-08
0.000200462
3.66487e-08
0.000200486
-1.67629e-09
0.000200456
-3.97143e-08
0.00020034
-5.6033e-08
0.000200024
0.000198885
8.81766e-08
0.000198709
1.20536e-07
0.000199888
1.32102e-07
0.000200229
1.28032e-07
0.000200392
1.08632e-07
0.000200482
7.29043e-08
0.000200522
2.13586e-08
0.000200508
-3.55167e-08
0.000200397
-7.07688e-08
0.00020006
0.000198815
1.07362e-07
0.000198601
1.56369e-07
0.000199839
1.82443e-07
0.000200203
1.8952e-07
0.000200385
1.75326e-07
0.000200496
1.34171e-07
0.000200563
5.23366e-08
0.00020059
-7.93517e-08
0.000200528
-2.60792e-07
0.000200241
0.000198554
1.34922e-07
0.000198466
2.08738e-07
0.000199765
2.58366e-07
0.000200153
2.87835e-07
0.000200355
2.95599e-07
0.000200488
2.78882e-07
0.00020058
2.37598e-07
0.000200631
1.73384e-07
0.000200593
4.2257e-07
0.000199992
0.000193857
5.11966e-06
1.72349e-07
0.000198294
2.80753e-07
0.000199657
3.6455e-07
0.000200069
4.28602e-07
0.000200291
4.72776e-07
0.000200444
5.00816e-07
0.000200552
5.3701e-07
0.000200595
6.47418e-07
0.000200482
9.70826e-07
0.000199669
0.000191622
3.20613e-06
2.20049e-07
0.000198074
3.7325e-07
0.000199504
5.01491e-07
0.000199941
6.10802e-07
0.000200182
7.02714e-07
0.000200352
7.82407e-07
0.000200472
8.71783e-07
0.000200505
1.07945e-06
0.000200274
1.76929e-06
0.000198979
0.000188341
5.04959e-06
2.78349e-07
0.000197796
4.86762e-07
0.000199295
6.69661e-07
0.000199758
8.34346e-07
0.000200017
9.84678e-07
0.000200202
1.13116e-06
0.000200326
1.31146e-06
0.000200325
1.66683e-06
0.000199919
2.68828e-06
0.000197957
0.000184721
6.30888e-06
3.47941e-07
0.000197448
6.22501e-07
0.000199021
8.70736e-07
0.00019951
1.10127e-06
0.000199787
1.32047e-06
0.000199982
1.54495e-06
0.000200101
1.82451e-06
0.000200046
2.31622e-06
0.000199427
3.54895e-06
0.000196725
0.000181124
7.1453e-06
4.29866e-07
0.000197018
7.82239e-07
0.000198668
1.10702e-06
0.000199185
1.41396e-06
0.00019948
1.71131e-06
0.000199685
2.02018e-06
0.000199792
2.39999e-06
0.000199666
3.02865e-06
0.000198799
4.48814e-06
0.000195265
0.000177691
7.92093e-06
5.25532e-07
0.000196492
9.68615e-07
0.000198225
1.38253e-06
0.000198771
1.77784e-06
0.000199085
2.1645e-06
0.000199298
2.56768e-06
0.000199389
3.05457e-06
0.000199179
3.81121e-06
0.000198042
5.41553e-06
0.000193661
0.000174557
8.55026e-06
6.37586e-07
0.000195855
1.18557e-06
0.000197677
1.70339e-06
0.000198253
2.20179e-06
0.000198586
2.69269e-06
0.000198808
3.20539e-06
0.000198876
3.81505e-06
0.000198569
4.71147e-06
0.000197146
6.42874e-06
0.000191943
0.000171694
9.29126e-06
7.68229e-07
0.000195086
1.43815e-06
0.000197007
2.07681e-06
0.000197615
2.69594e-06
0.000197967
3.30968e-06
0.000198194
3.95213e-06
0.000198234
4.70858e-06
0.000197813
5.78161e-06
0.000196073
7.63997e-06
0.000190085
0.00016911
1.02242e-05
9.1806e-07
0.000194168
1.73149e-06
0.000196194
2.50982e-06
0.000196836
3.26875e-06
0.000197208
4.02452e-06
0.000197438
4.81505e-06
0.000197443
5.73071e-06
0.000196897
6.97403e-06
0.000194829
8.94873e-06
0.00018811
0.00016682
1.12383e-05
1.09029e-06
0.000193078
2.06972e-06
0.000195214
3.00899e-06
0.000195897
3.9278e-06
0.000196289
4.84428e-06
0.000196522
5.79848e-06
0.000196489
6.88118e-06
0.000195814
8.2841e-06
0.000193426
1.03318e-05
0.000186063
0.000164861
1.22909e-05
1.28916e-06
0.000191789
2.45764e-06
0.000194046
3.58165e-06
0.000194773
4.68271e-06
0.000195188
5.78027e-06
0.000195424
6.91518e-06
0.000195354
8.17569e-06
0.000194554
9.74012e-06
0.000191862
1.18197e-05
0.000183983
0.000163216
1.34652e-05
1.51752e-06
0.000190271
2.90216e-06
0.000192661
4.23743e-06
0.000193438
5.54621e-06
0.000193879
6.84825e-06
0.000194122
8.18337e-06
0.000194019
9.63393e-06
0.000193103
1.13508e-05
0.000190145
1.34096e-05
0.000181924
0.000161853
1.4773e-05
1.77906e-06
0.000188492
3.41119e-06
0.000191029
4.9879e-06
0.000191861
6.53361e-06
0.000192334
8.06743e-06
0.000192588
9.62586e-06
0.000192461
1.12801e-05
0.000191449
1.31378e-05
0.000188287
1.51539e-05
0.000179908
0.000160734
1.62728e-05
2.07804e-06
0.000186414
3.99319e-06
0.000189114
5.84572e-06
0.000190009
7.66198e-06
0.000190517
9.4597e-06
0.00019079
1.12698e-05
0.000190651
1.3147e-05
0.000189572
1.5149e-05
0.000186285
1.71283e-05
0.000177929
0.000159813
1.80494e-05
2.41873e-06
0.000183995
4.65667e-06
0.000186876
6.82383e-06
0.000187842
8.94905e-06
0.000188392
1.10482e-05
0.000188691
1.3145e-05
0.000188554
1.52738e-05
0.000187443
1.74409e-05
0.000184118
1.94123e-05
0.000175957
0.000159033
2.01923e-05
2.80499e-06
0.00018119
5.40955e-06
0.000184272
7.93428e-06
0.000185317
1.04114e-05
0.000185915
1.28551e-05
0.000186247
1.52805e-05
0.000186128
1.76997e-05
0.000185024
2.00692e-05
0.000181749
2.20837e-05
0.000173943
0.00015832
2.27963e-05
3.23996e-06
0.000177951
6.25821e-06
0.000181253
9.18679e-06
0.000182388
1.20625e-05
0.000183039
1.48981e-05
0.000183412
1.77002e-05
0.000183326
2.04586e-05
0.000182266
2.3084e-05
0.000179123
2.52163e-05
0.000171811
0.000157576
2.59602e-05
3.72724e-06
0.000174223
7.20673e-06
0.000177774
1.05873e-05
0.000179008
1.39103e-05
0.000179716
1.7188e-05
0.000180134
2.04192e-05
0.000180095
2.35731e-05
0.000179112
2.65214e-05
0.000176175
2.88655e-05
0.000169466
0.000156682
2.97594e-05
4.26868e-06
0.000169955
8.25649e-06
0.000173786
1.21368e-05
0.000175127
1.59556e-05
0.000175898
1.97256e-05
0.000176364
2.34394e-05
0.000176381
2.7049e-05
0.000175502
3.0396e-05
0.000172828
3.30592e-05
0.000166803
0.000155501
3.42399e-05
4.86286e-06
0.000165092
9.40568e-06
0.000169243
1.38311e-05
0.000170702
1.81912e-05
0.000171537
2.25006e-05
0.000172055
2.67479e-05
0.000172134
3.08727e-05
0.000171377
3.46969e-05
0.000169004
3.7793e-05
0.000163707
0.000153885
3.94093e-05
5.50737e-06
0.000159584
1.06491e-05
0.000164102
1.56606e-05
0.00016569
2.06018e-05
0.000166596
2.54912e-05
0.000167165
3.03161e-05
0.000167309
3.50096e-05
0.000166684
3.93852e-05
0.000164628
4.30249e-05
0.000160067
0.000151683
4.52273e-05
6.1991e-06
0.000153385
1.19789e-05
0.000158322
1.76108e-05
0.000160059
2.31647e-05
0.000161042
2.86646e-05
0.000161666
3.41003e-05
0.000161874
3.94042e-05
0.00016138
4.4393e-05
0.00015964
4.86731e-05
0.000155787
0.000148756
5.16e-05
6.93473e-06
0.000146451
1.3386e-05
0.00015187
1.96642e-05
0.000153781
2.58518e-05
0.000154855
3.19802e-05
0.000155537
3.80448e-05
0.000155809
4.39838e-05
0.000155441
4.96272e-05
0.000153996
5.46189e-05
0.000150796
0.000144994
5.83807e-05
7.71158e-06
0.000138739
1.48614e-05
0.000144721
2.18023e-05
0.00014684
2.86323e-05
0.000148025
3.53921e-05
0.000148777
4.20861e-05
0.000149115
4.86636e-05
0.000148863
5.49764e-05
0.000147684
6.07159e-05
0.000145056
0.00014033
6.53796e-05
8.52859e-06
0.00013021
1.63983e-05
0.000136851
2.40083e-05
0.00013923
3.14759e-05
0.000140557
3.88539e-05
0.000141399
4.61586e-05
0.00014181
5.33545e-05
0.000141667
6.03214e-05
0.000140717
6.68043e-05
0.000138573
0.000134752
7.2383e-05
9.38749e-06
0.000120823
1.79941e-05
0.000128244
2.6269e-05
0.000130955
3.43556e-05
0.00013247
4.2322e-05
0.000133433
5.01991e-05
0.000133933
5.79705e-05
0.000133896
6.55464e-05
0.000133141
7.27276e-05
0.000131392
0.000128302
7.91775e-05
1.0294e-05
0.000110529
1.96515e-05
0.000118887
2.85767e-05
0.00012203
3.7249e-05
0.000123798
4.57576e-05
0.000124924
5.41513e-05
0.000125539
6.24344e-05
0.000125613
7.05489e-05
0.000125026
7.83484e-05
0.000123592
0.000121074
8.55762e-05
1.12585e-05
9.92704e-05
2.13793e-05
0.000108766
3.09282e-05
0.000112481
4.01371e-05
0.000114589
4.91257e-05
0.000115936
5.79645e-05
0.000116701
6.668e-05
0.000116897
7.52445e-05
0.000116462
8.35585e-05
0.000115278
0.000113196
9.14364e-05
1.22972e-05
8.69733e-05
2.31901e-05
9.78729e-05
3.33205e-05
0.00010235
4.29988e-05
0.000104911
5.2389e-05
0.000106545
6.15887e-05
0.000107501
7.06473e-05
0.000107839
7.95642e-05
0.000107545
8.82796e-05
0.000106563
0.00010481
9.66655e-05
1.3431e-05
7.35423e-05
2.50918e-05
8.62122e-05
3.5738e-05
9.1704e-05
4.57973e-05
9.48517e-05
5.5495e-05
9.68477e-05
6.49619e-05
9.80339e-05
7.4271e-05
9.85297e-05
8.34444e-05
9.83717e-05
9.24524e-05
9.7555e-05
9.60516e-05
0.000101211
1.46899e-05
5.88523e-05
2.70504e-05
7.38517e-05
3.81234e-05
8.06309e-05
4.84586e-05
8.45165e-05
5.83565e-05
8.69498e-05
6.79923e-05
8.83981e-05
7.74631e-05
8.9059e-05
8.68079e-05
8.90268e-05
9.60176e-05
8.83453e-05
8.70323e-05
0.000105037
1.60883e-05
4.2764e-05
2.89562e-05
6.09838e-05
4.03132e-05
6.92739e-05
5.0807e-05
7.40227e-05
6.0804e-05
7.69529e-05
7.05233e-05
7.86788e-05
8.00844e-05
7.94979e-05
8.95385e-05
7.95728e-05
9.88872e-05
7.89966e-05
7.78274e-05
0.000108092
1.67288e-05
2.60352e-05
3.04748e-05
4.72379e-05
4.20781e-05
5.76706e-05
5.25917e-05
6.35091e-05
6.25765e-05
6.69681e-05
7.23071e-05
6.89482e-05
8.19139e-05
6.98911e-05
9.14487e-05
7.0038e-05
0.000100914
6.95313e-05
6.84643e-05
0.000110277
1.48755e-05
1.11597e-05
2.99271e-05
3.21862e-05
4.23683e-05
4.52294e-05
5.31663e-05
5.27112e-05
6.32069e-05
5.69274e-05
7.29554e-05
5.91997e-05
8.26136e-05
6.0233e-05
9.22484e-05
6.04032e-05
0.000101859
5.99208e-05
5.89156e-05
0.000111408
1.04429e-05
7.16803e-07
2.54638e-05
1.71653e-05
3.91084e-05
3.15848e-05
5.0922e-05
4.08976e-05
6.15782e-05
4.62712e-05
7.16817e-05
4.90962e-05
8.15924e-05
5.03223e-05
9.14661e-05
5.05294e-05
0.000101334
5.00529e-05
4.90857e-05
0.000111164
6.18985e-06
-5.47305e-06
1.80276e-05
5.32751e-06
3.13407e-05
1.82718e-05
4.4077e-05
2.81613e-05
5.58846e-05
3.44636e-05
6.69799e-05
3.80009e-05
7.76785e-05
3.96236e-05
8.81923e-05
4.00157e-05
9.86137e-05
3.96315e-05
3.87452e-05
0.000108954
2.97035e-06
-8.44339e-06
9.83332e-06
-1.53546e-06
2.02733e-05
7.83181e-06
3.22814e-05
1.61531e-05
4.46848e-05
2.20601e-05
5.69755e-05
2.57102e-05
6.90031e-05
2.7596e-05
8.07462e-05
2.82726e-05
9.22514e-05
2.81263e-05
2.74358e-05
0.000103561
-1.47725e-06
-6.96615e-06
8.44647e-07
-3.85736e-06
7.28943e-06
1.38703e-06
1.68788e-05
6.56376e-06
2.85428e-05
1.03961e-05
4.14094e-05
1.28437e-05
5.47433e-05
1.42621e-05
6.7993e-05
1.50228e-05
8.10319e-05
1.50873e-05
1.46331e-05
9.38346e-05
-6.96615e-06
-1.08235e-05
-9.43647e-06
-2.87271e-06
7.52342e-06
2.03671e-05
3.46293e-05
4.96521e-05
6.47394e-05
7.93725e-05
-2.87611e-05
3.38808e-05
-2.81099e-05
-6.51178e-07
-2.48161e-05
-3.29382e-06
-2.06055e-05
-4.21064e-06
-1.56414e-05
-4.96407e-06
-1.02201e-05
-5.42131e-06
-4.62648e-06
-5.59362e-06
8.8936e-07
-5.51582e-06
6.22734e-06
-5.33799e-06
1.13806e-05
-5.15327e-06
1.62181e-05
-4.8375e-06
2.053e-05
-4.31185e-06
2.40988e-05
-3.5688e-06
2.68371e-05
-2.73831e-06
2.87006e-05
-1.86355e-06
2.96944e-05
-9.93787e-07
2.97592e-05
-6.48094e-08
2.88198e-05
9.39341e-07
2.68056e-05
2.0142e-06
2.36554e-05
3.15021e-06
1.93444e-05
4.31098e-06
1.39791e-05
5.3653e-06
8.10124e-06
5.87789e-06
2.89721e-06
5.20405e-06
2.89722e-06
-1.4216e-05
5.13029e-05
-2.0043e-05
5.17578e-06
-1.99203e-05
-3.41654e-06
-1.78271e-05
-6.30382e-06
-1.46475e-05
-8.14367e-06
-1.06872e-05
-9.38163e-06
-6.17946e-06
-1.01013e-05
-1.3517e-06
-1.03436e-05
3.45617e-06
-1.01458e-05
7.95512e-06
-9.65223e-06
1.20212e-05
-8.90356e-06
1.55708e-05
-7.86148e-06
1.85492e-05
-6.54723e-06
2.08913e-05
-5.0804e-06
2.25715e-05
-3.54377e-06
2.35573e-05
-1.97952e-06
2.38755e-05
-3.83083e-07
2.3549e-05
1.26591e-06
2.25666e-05
2.99654e-06
2.0887e-05
4.82979e-06
1.84447e-05
6.75328e-06
1.51499e-05
8.66015e-06
1.08497e-05
1.01781e-05
5.63203e-06
1.04217e-05
8.52926e-06
-8.52148e-06
6.4874e-05
-1.55485e-05
1.22028e-05
-1.72836e-05
-1.68143e-06
-1.64987e-05
-7.0887e-06
-1.43038e-05
-1.03386e-05
-1.11778e-05
-1.25076e-05
-7.44836e-06
-1.38307e-05
-3.36618e-06
-1.44258e-05
8.78651e-07
-1.43907e-05
4.98149e-06
-1.37551e-05
8.65929e-06
-1.25814e-05
1.18019e-05
-1.10041e-05
1.43966e-05
-9.14196e-06
1.64199e-05
-7.10371e-06
1.7855e-05
-4.9789e-06
1.86989e-05
-2.82342e-06
1.89714e-05
-6.5558e-07
1.87011e-05
1.5362e-06
1.79161e-05
3.78155e-06
1.66339e-05
6.11196e-06
1.48482e-05
8.53904e-06
1.25017e-05
1.10067e-05
9.42451e-06
1.32552e-05
5.34181e-06
1.45044e-05
1.38711e-05
-5.99396e-06
7.71768e-05
-1.40413e-05
2.02502e-05
-1.68096e-05
1.08684e-06
-1.67367e-05
-7.16159e-06
-1.50587e-05
-1.20166e-05
-1.23878e-05
-1.51785e-05
-9.09035e-06
-1.71282e-05
-5.43872e-06
-1.80774e-05
-1.64992e-06
-1.81795e-05
2.04388e-06
-1.74489e-05
5.41307e-06
-1.59506e-05
8.30711e-06
-1.38981e-05
1.06759e-05
-1.15108e-05
1.2495e-05
-8.9228e-06
1.37621e-05
-6.24593e-06
1.44977e-05
-3.55911e-06
1.4737e-05
-8.94798e-07
1.45195e-05
1.75362e-06
1.38822e-05
4.41889e-06
1.28539e-05
7.14024e-06
1.14501e-05
9.94283e-06
9.65557e-06
1.28012e-05
7.37743e-06
1.55334e-05
4.34394e-06
1.75379e-05
1.8215e-05
-3.23766e-06
8.75598e-05
-1.26829e-05
2.96954e-05
-1.66921e-05
5.09605e-06
-1.73956e-05
-6.45809e-06
-1.62305e-05
-1.31818e-05
-1.39636e-05
-1.74454e-05
-1.10176e-05
-2.00741e-05
-7.70381e-06
-2.13912e-05
-4.29339e-06
-2.15899e-05
-9.76135e-07
-2.07661e-05
2.11085e-06
-1.90375e-05
4.82459e-06
-1.66119e-05
7.04767e-06
-1.37339e-05
8.73238e-06
-1.06075e-05
9.89131e-06
-7.40486e-06
1.05696e-05
-4.23735e-06
1.0822e-05
-1.14723e-06
1.06986e-05
1.87699e-06
1.02395e-05
4.878e-06
9.47408e-06
7.90565e-06
8.42042e-06
1.09965e-05
7.07738e-06
1.41442e-05
5.39022e-06
1.72205e-05
3.11862e-06
1.98095e-05
2.13336e-05
-3.76424e-07
9.58571e-05
-1.02483e-05
3.95673e-05
-1.56247e-05
1.04725e-05
-1.74208e-05
-4.66201e-06
-1.70433e-05
-1.35593e-05
-1.53764e-05
-1.91123e-05
-1.29367e-05
-2.25138e-05
-1.00597e-05
-2.42683e-05
-7.00717e-06
-2.46424e-05
-3.97344e-06
-2.37998e-05
-1.11468e-06
-2.18963e-05
1.41835e-06
-1.91449e-05
3.49769e-06
-1.58132e-05
5.06962e-06
-1.21794e-05
6.15331e-06
-8.48856e-06
6.81107e-06
-4.89511e-06
7.11391e-06
-1.45007e-06
7.11984e-06
1.87106e-06
6.86932e-06
5.12852e-06
6.38811e-06
8.38686e-06
5.6906e-06
1.1694e-05
4.77746e-06
1.50574e-05
3.61416e-06
1.83838e-05
2.04365e-06
2.138e-05
2.33773e-05
2.11522e-06
0.000102292
-7.04325e-06
4.87258e-05
-1.3329e-05
1.67582e-05
-1.63239e-05
-1.66704e-06
-1.7026e-05
-1.28572e-05
-1.62364e-05
-1.99019e-05
-1.45113e-05
-2.4239e-05
-1.22219e-05
-2.65577e-05
-9.62749e-06
-2.72368e-05
-6.92879e-06
-2.64986e-05
-4.31147e-06
-2.45136e-05
-1.95345e-06
-2.15029e-05
5.59983e-09
-1.77723e-05
1.49822e-06
-1.36721e-05
2.54282e-06
-9.53316e-06
3.21509e-06
-5.56738e-06
3.60046e-06
-1.83545e-06
3.76309e-06
1.70842e-06
3.74237e-06
5.14923e-06
3.56024e-06
8.569e-06
3.2283e-06
1.20259e-05
2.74865e-06
1.5537e-05
2.1011e-06
1.90314e-05
1.1958e-06
2.22853e-05
2.45731e-05
4.292e-06
0.000107291
-3.83899e-06
5.68568e-05
-1.04392e-05
2.33584e-05
-1.44378e-05
2.33153e-06
-1.62421e-05
-1.10528e-05
-1.64741e-05
-1.967e-05
-1.56329e-05
-2.50801e-05
-1.40779e-05
-2.81126e-05
-1.20833e-05
-2.92314e-05
-9.82436e-06
-2.87575e-05
-7.49298e-06
-2.6845e-05
-5.30155e-06
-2.36943e-05
-3.42453e-06
-1.96493e-05
-1.96218e-06
-1.51344e-05
-9.11642e-07
-1.05837e-05
-1.90847e-07
-6.28818e-06
3.00733e-07
-2.32703e-06
6.35827e-07
1.37332e-06
8.54044e-07
4.93101e-06
9.74503e-07
8.44853e-06
1.00678e-06
1.19937e-05
9.53578e-07
1.55902e-05
7.99799e-07
1.91851e-05
4.89408e-07
2.25957e-05
2.50625e-05
6.24598e-06
0.00011127
-9.38891e-07
6.40416e-05
-7.50952e-06
2.9929e-05
-1.21902e-05
7.01221e-06
-1.49623e-05
-8.28076e-06
-1.62102e-05
-1.84221e-05
-1.63319e-05
-2.49584e-05
-1.56295e-05
-2.8815e-05
-1.43791e-05
-3.04817e-05
-1.26828e-05
-3.04539e-05
-1.06967e-05
-2.88311e-05
-8.66632e-06
-2.57247e-05
-6.81455e-06
-2.15011e-05
-5.30766e-06
-1.66413e-05
-4.18771e-06
-1.17037e-05
-3.37956e-06
-7.09633e-06
-2.76447e-06
-2.94212e-06
-2.25289e-06
8.61737e-07
-1.79941e-06
4.47753e-06
-1.38517e-06
8.0343e-06
-1.0025e-06
1.1611e-05
-6.50577e-07
1.52383e-05
-3.46112e-07
1.88807e-05
-1.32407e-07
2.2382e-05
2.49301e-05
8.04275e-06
0.000114465
1.68784e-06
7.03965e-05
-4.71756e-06
3.63344e-05
-9.85137e-06
1.2146e-05
-1.34474e-05
-4.68474e-06
-1.56697e-05
-1.61997e-05
-1.67928e-05
-2.38354e-05
-1.70405e-05
-2.85673e-05
-1.65809e-05
-3.09413e-05
-1.55607e-05
-3.14741e-05
-1.40032e-05
-3.03886e-05
-1.21507e-05
-2.75772e-05
-1.02641e-05
-2.33877e-05
-8.60284e-06
-1.83026e-05
-7.30907e-06
-1.29974e-05
-6.35202e-06
-8.05338e-06
-5.59114e-06
-3.703e-06
-4.90268e-06
1.73274e-07
-4.22413e-06
3.79899e-06
-3.53177e-06
7.34193e-06
-2.81851e-06
1.08977e-05
-2.08685e-06
1.45066e-05
-1.35874e-06
1.81526e-05
-6.79929e-07
2.17031e-05
2.42501e-05
9.69013e-06
0.000117066
4.05177e-06
7.60349e-05
-2.13378e-06
4.25199e-05
-7.56968e-06
1.75819e-05
-1.18454e-05
-4.08997e-07
-1.49544e-05
-1.30907e-05
-1.70523e-05
-2.17375e-05
-1.83005e-05
-2.73191e-05
-1.87227e-05
-3.05191e-05
-1.84639e-05
-3.17328e-05
-1.74833e-05
-3.13692e-05
-1.59029e-05
-2.91576e-05
-1.39709e-05
-2.53197e-05
-1.20325e-05
-2.02409e-05
-1.0395e-05
-1.4635e-05
-9.16433e-06
-9.28403e-06
-8.20397e-06
-4.66336e-06
-7.32851e-06
-7.02185e-07
-6.43392e-06
2.90439e-06
-5.48059e-06
6.3886e-06
-4.45728e-06
9.8744e-06
-3.369e-06
1.34183e-05
-2.24876e-06
1.70323e-05
-1.1634e-06
2.06178e-05
2.30867e-05
1.12726e-05
0.000119259
6.19937e-06
8.11081e-05
2.30464e-07
4.84888e-05
-5.41353e-06
2.32259e-05
-1.02463e-05
4.42378e-06
-1.41427e-05
-9.19424e-06
-1.71512e-05
-1.8729e-05
-1.9358e-05
-2.51124e-05
-2.07909e-05
-2.90862e-05
-2.14042e-05
-3.11195e-05
-2.1187e-05
-3.15865e-05
-2.0085e-05
-3.02595e-05
-1.82266e-05
-2.71781e-05
-1.59579e-05
-2.25096e-05
-1.37557e-05
-1.68373e-05
-1.19928e-05
-1.10469e-05
-1.06847e-05
-5.97149e-06
-9.57174e-06
-1.81511e-06
-8.45638e-06
1.78903e-06
-7.25423e-06
5.18645e-06
-5.93755e-06
8.55773e-06
-4.50647e-06
1.19873e-05
-3.00137e-06
1.55272e-05
-1.52374e-06
1.91402e-05
2.1563e-05
1.28376e-05
0.000121194
8.19604e-06
8.57497e-05
2.41794e-06
5.42669e-05
-3.38355e-06
2.90274e-05
-8.68317e-06
9.7234e-06
-1.32785e-05
-4.59893e-06
-1.71333e-05
-1.48742e-05
-2.02743e-05
-2.19714e-05
-2.27057e-05
-2.66548e-05
-2.43313e-05
-2.94939e-05
-2.51112e-05
-3.08066e-05
-2.47584e-05
-3.06123e-05
-2.32849e-05
-2.86516e-05
-2.08714e-05
-2.49231e-05
-1.79935e-05
-1.97152e-05
-1.53056e-05
-1.37348e-05
-1.32663e-05
-8.01079e-06
-1.17373e-05
-3.34408e-06
-1.03468e-05
3.98544e-07
-8.88622e-06
3.72583e-06
-7.27832e-06
6.94983e-06
-5.49364e-06
1.02026e-05
-3.53909e-06
1.35727e-05
-1.56085e-06
1.71619e-05
2.00022e-05
1.44859e-05
0.000122981
1.01537e-05
9.00818e-05
4.52545e-06
5.98952e-05
-1.40568e-06
3.49585e-05
-7.09655e-06
1.54143e-05
-1.22949e-05
5.99461e-07
-1.69019e-05
-1.02673e-05
-2.08986e-05
-1.79747e-05
-2.42686e-05
-2.32847e-05
-2.6952e-05
-2.68105e-05
-2.88469e-05
-2.89117e-05
-2.96805e-05
-2.97787e-05
-2.90873e-05
-2.92448e-05
-2.71051e-05
-2.69054e-05
-2.39191e-05
-2.29012e-05
-2.01651e-05
-1.74887e-05
-1.67445e-05
-1.14314e-05
-1.42041e-05
-5.88456e-06
-1.22701e-05
-1.53546e-06
-1.04745e-05
1.93022e-06
-8.55409e-06
5.02947e-06
-6.40251e-06
8.05101e-06
-3.9507e-06
1.11209e-05
-1.234e-06
1.44452e-05
1.87681e-05
1.63446e-05
0.000124686
1.22266e-05
9.41998e-05
6.70543e-06
6.54164e-05
6.6699e-07
4.0997e-05
-5.34464e-06
2.14259e-05
-1.10406e-05
6.29545e-06
-1.62865e-05
-5.02136e-06
-2.10357e-05
-1.32256e-05
-2.52643e-05
-1.90561e-05
-2.89108e-05
-2.3164e-05
-3.18842e-05
-2.59383e-05
-3.4068e-05
-2.7595e-05
-3.5029e-05
-2.82837e-05
-3.43128e-05
-2.76217e-05
-3.18999e-05
-2.53141e-05
-2.79305e-05
-2.14581e-05
-2.30978e-05
-1.62641e-05
-1.8566e-05
-1.04164e-05
-1.5092e-05
-5.00951e-06
-1.24205e-05
-7.41223e-07
-9.8956e-06
2.50454e-06
-7.0478e-06
5.20321e-06
-3.49432e-06
7.5674e-06
1.78467e-06
9.16625e-06
8.47195e-06
1.20809e-05
1.85393e-05
0.000126339
1.45754e-05
9.81637e-05
9.1255e-06
7.08663e-05
3.00537e-06
4.71171e-05
-3.24759e-06
2.76789e-05
-9.32483e-06
1.23727e-05
-1.50694e-05
7.23184e-07
-2.04177e-05
-7.87729e-06
-2.53586e-05
-1.41152e-05
-2.98559e-05
-1.86667e-05
-3.3844e-05
-2.19501e-05
-3.722e-05
-2.4219e-05
-3.98491e-05
-2.56546e-05
-4.11798e-05
-2.6291e-05
-4.07706e-05
-2.57233e-05
-3.83783e-05
-2.38504e-05
-3.40799e-05
-2.05625e-05
-2.84102e-05
-1.60861e-05
-2.2544e-05
-1.08756e-05
-1.7489e-05
-5.79622e-06
-1.33583e-05
-1.62618e-06
-9.64348e-06
1.48835e-06
-5.87681e-06
3.80073e-06
-2.47552e-06
5.76496e-06
8.59345e-06
-2.59702e-06
2.12004e-05
0.000127935
1.73739e-05
0.00010199
1.19983e-05
7.6242e-05
5.82812e-06
5.32873e-05
-5.95698e-07
3.41027e-05
-6.945e-06
1.8722e-05
-1.30354e-05
6.81356e-06
-1.87931e-05
-2.11959e-06
-2.42347e-05
-8.67361e-06
-2.93952e-05
-1.35062e-05
-3.42034e-05
-1.71418e-05
-3.85795e-05
-1.9843e-05
-4.24572e-05
-2.1777e-05
-4.56918e-05
-2.30563e-05
-4.78032e-05
-2.36119e-05
-4.84171e-05
-2.32365e-05
-4.71519e-05
-2.18277e-05
-4.40029e-05
-1.92352e-05
-3.92895e-05
-1.55889e-05
-3.39598e-05
-1.1126e-05
-2.91252e-05
-6.46075e-06
-2.59347e-05
-1.70211e-06
-2.54819e-05
3.34792e-06
-2.8845e-05
9.12802e-06
1.65516e-05
-3.68031e-05
2.4472e-05
0.000129423
2.08028e-05
0.000105659
1.55324e-05
8.15124e-05
9.35719e-06
5.94625e-05
2.82392e-06
4.0636e-05
-3.71453e-06
2.52605e-05
-1.00435e-05
1.31426e-05
-1.60605e-05
3.89739e-06
-2.17635e-05
-2.97069e-06
-2.72349e-05
-8.03472e-06
-3.25034e-05
-1.18733e-05
-3.75125e-05
-1.48339e-05
-4.22092e-05
-1.70803e-05
-4.65757e-05
-1.86898e-05
-5.05e-05
-1.96876e-05
-5.37014e-05
-2.0035e-05
-5.5906e-05
-1.96231e-05
-5.70468e-05
-1.80943e-05
-5.71508e-05
-1.5485e-05
-5.65432e-05
-1.17337e-05
-5.5919e-05
-7.08491e-06
-5.58932e-05
-1.7279e-06
-5.69448e-05
4.39954e-06
-5.89462e-05
1.11294e-05
1.81446e-05
-6.05392e-05
2.84651e-05
0.000130717
2.50112e-05
0.000109113
1.99e-05
8.66236e-05
1.37827e-05
6.55798e-05
7.20746e-06
4.72112e-05
5.51932e-07
3.1916e-05
-5.93974e-06
1.96342e-05
-1.2126e-05
1.00837e-05
-1.79495e-05
2.85283e-06
-2.34446e-05
-2.53964e-06
-2.8725e-05
-6.59291e-06
-3.38439e-05
-9.715e-06
-3.87865e-05
-1.21377e-05
-4.35416e-05
-1.39347e-05
-4.81004e-05
-1.51288e-05
-5.24299e-05
-1.57056e-05
-5.64553e-05
-1.55978e-05
-5.98803e-05
-1.46692e-05
-6.2541e-05
-1.28243e-05
-6.43042e-05
-9.97044e-06
-6.52625e-05
-6.12664e-06
-6.5561e-05
-1.42937e-06
-6.50303e-05
3.86884e-06
-6.33641e-05
9.46324e-06
1.47571e-05
-5.99766e-05
3.3259e-05
0.000131698
3.01217e-05
0.000112251
2.52586e-05
9.14867e-05
1.92839e-05
7.15545e-05
1.2749e-05
5.37461e-05
6.05915e-06
3.86058e-05
-5.11523e-07
2.62049e-05
-6.78684e-06
1.6359e-05
-1.26763e-05
8.74233e-06
-1.81604e-05
2.94442e-06
-2.32944e-05
-1.45895e-06
-2.81679e-05
-4.84143e-06
-3.28596e-05
-7.44607e-06
-3.73867e-05
-9.40753e-06
-4.17408e-05
-1.07747e-05
-4.58996e-05
-1.15467e-05
-4.97979e-05
-1.16995e-05
-5.3302e-05
-1.11651e-05
-5.62605e-05
-9.86582e-06
-5.84804e-05
-7.7505e-06
-5.97283e-05
-4.87879e-06
-5.97564e-05
-1.40124e-06
-5.83538e-05
2.4662e-06
-5.53147e-05
6.42411e-06
1.00188e-05
-5.05764e-05
3.88896e-05
0.000132218
3.62109e-05
0.000114929
3.1726e-05
9.59715e-05
2.60095e-05
7.7271e-05
1.96165e-05
6.01391e-05
1.2982e-05
4.52404e-05
6.41276e-06
3.27741e-05
1.14609e-07
2.26571e-05
-5.79055e-06
1.46475e-05
-1.12581e-05
8.41198e-06
-1.6306e-05
3.58895e-06
-2.0995e-05
-1.52458e-07
-2.5383e-05
-3.05801e-06
-2.94975e-05
-5.29305e-06
-3.33357e-05
-6.93653e-06
-3.68745e-05
-8.00793e-06
-4.00813e-05
-8.49275e-06
-4.28729e-05
-8.37347e-06
-4.51276e-05
-7.61109e-06
-4.6696e-05
-6.18215e-06
-4.73988e-05
-4.17602e-06
-4.70542e-05
-1.74577e-06
-4.55258e-05
9.37816e-07
-4.27818e-05
3.6801e-06
6.26031e-06
-3.90234e-05
4.53337e-05
0.000132111
4.32883e-05
0.000116975
3.93525e-05
9.99073e-05
3.40485e-05
8.25751e-05
2.79278e-05
6.62598e-05
2.14519e-05
5.17163e-05
1.49631e-05
3.92629e-05
8.69657e-06
2.89237e-05
2.80028e-06
2.05438e-05
-2.65497e-06
1.38672e-05
-7.66133e-06
8.59531e-06
-1.22516e-05
4.43778e-06
-1.64625e-05
1.15296e-06
-2.03176e-05
-1.43803e-06
-2.38104e-05
-3.44369e-06
-2.69099e-05
-4.90846e-06
-2.9576e-05
-5.8266e-06
-3.17655e-05
-6.18399e-06
-3.34225e-05
-5.95414e-06
-3.44695e-05
-5.13509e-06
-3.4822e-05
-3.82354e-06
-3.44031e-05
-2.16469e-06
-3.31744e-05
-2.90835e-07
-3.11698e-05
1.67551e-06
3.61522e-06
-2.85247e-05
5.24989e-05
0.000131212
5.12814e-05
0.000118192
4.81017e-05
0.000103087
4.34068e-05
8.727e-05
3.77285e-05
7.19382e-05
3.15461e-05
5.78987e-05
2.52354e-05
4.55735e-05
1.90654e-05
3.50938e-05
1.32108e-05
2.63984e-05
7.76779e-06
1.93102e-05
2.76958e-06
1.35935e-05
-1.79337e-06
9.00074e-06
-5.94601e-06
5.3056e-06
-9.706e-06
2.32196e-06
-1.30664e-05
-8.33273e-08
-1.59964e-05
-1.97839e-06
-1.84607e-05
-3.36233e-06
-2.04366e-05
-4.2081e-06
-2.19033e-05
-4.48744e-06
-2.28286e-05
-4.20974e-06
-2.31758e-05
-3.47636e-06
-2.29214e-05
-2.41907e-06
-2.20667e-05
-1.14559e-06
-2.06473e-05
2.56081e-07
1.7045e-06
-1.87365e-05
6.02194e-05
0.000129374
6.00243e-05
0.000118387
5.78298e-05
0.000105281
5.39811e-05
9.11187e-05
4.89631e-05
7.69562e-05
4.32568e-05
6.36049e-05
3.72652e-05
5.15652e-05
3.12912e-05
4.10677e-05
2.55428e-05
3.21468e-05
2.01446e-05
2.47085e-05
1.51536e-05
1.85845e-05
1.05797e-05
1.35746e-05
6.40914e-06
9.47617e-06
2.63015e-06
6.10095e-06
-7.44981e-07
3.2918e-06
-3.68268e-06
9.59306e-07
-6.16671e-06
-8.78302e-07
-8.19796e-06
-2.17685e-06
-9.7674e-06
-2.918e-06
-1.08412e-05
-3.13589e-06
-1.13934e-05
-2.92425e-06
-1.14241e-05
-2.38829e-06
-1.09493e-05
-1.6204e-06
-1.00009e-05
-6.92383e-07
3.31406e-07
-8.62777e-06
6.82644e-05
0.000126489
6.92569e-05
0.000117395
6.82732e-05
0.000106265
6.55324e-05
9.38595e-05
6.1439e-05
8.10496e-05
5.64485e-05
6.85954e-05
5.0976e-05
5.70377e-05
4.53548e-05
4.66889e-05
3.98283e-05
3.76733e-05
3.4555e-05
2.99817e-05
2.96214e-05
2.35181e-05
2.50587e-05
1.81374e-05
2.08648e-05
1.36701e-05
1.70333e-05