/*--------------------------------*- C++ -*----------------------------------*\
| =========                 |                                                 |
| \\      /  F ield         | OpenFOAM: The Open Source CFD Toolbox           |
|  \\    /   O peration     | Version:  v2012                                 |
|   \\  /    A nd           | Website:  www.openfoam.com                      |
|    \\/     M anipulation  |                                                 |
\*---------------------------------------------------------------------------*/
FoamFile
{
    version     2.0;
    format      ascii;
    class       volVectorField;
    location    "503";
    object      U;
}
// * * * * * * * * * * * * * * * * * * * * * * * * * * * * * * * * * * * * * //

dimensions      [0 1 -1 0 0 0 0];


internalField   nonuniform List<vector> 
6556
(
(6.63754e-05 -0.99979 0)
(0.000173357 -1.00003 0)
(0.000119899 -1.00002 0)
(6.24973e-05 -1.00001 0)
(1.94229e-05 -1.00001 0)
(-1.92872e-05 -1.00001 0)
(-6.23837e-05 -1.00001 0)
(-0.000119826 -1.00002 0)
(-0.000173342 -1.00003 0)
(-6.63711e-05 -0.99979 0)
(0.000270409 -0.99953 0)
(0.000322343 -1.00011 0)
(0.000247291 -1.00012 0)
(0.000147871 -1.0001 0)
(4.88633e-05 -1.00009 0)
(-4.84473e-05 -1.00009 0)
(-0.00014752 -1.0001 0)
(-0.000247043 -1.00012 0)
(-0.000322303 -1.00011 0)
(-0.000270396 -0.99953 0)
(0.000333862 -0.999147 0)
(0.00036738 -1.00013 0)
(0.000297658 -1.00024 0)
(0.000191077 -1.00025 0)
(6.51992e-05 -1.00024 0)
(-6.4394e-05 -1.00024 0)
(-0.000190365 -1.00025 0)
(-0.000297099 -1.00024 0)
(-0.000366897 -1.00013 0)
(-0.000333708 -0.999147 0)
(0.000337089 -0.998717 0)
(0.00036166 -1.00012 0)
(0.000306438 -1.00035 0)
(0.00020479 -1.00041 0)
(7.11965e-05 -1.00041 0)
(-6.98422e-05 -1.00041 0)
(-0.000203579 -1.00041 0)
(-0.000305458 -1.00036 0)
(-0.000361013 -1.00012 0)
(-0.000336776 -0.998718 0)
(0.000324492 -0.998305 0)
(0.000347574 -1.0001 0)
(0.00030127 -1.00046 0)
(0.000203827 -1.00056 0)
(7.1836e-05 -1.00059 0)
(-6.96871e-05 -1.00059 0)
(-0.000201887 -1.00056 0)
(-0.000299688 -1.00046 0)
(-0.000346575 -1.0001 0)
(-0.000323983 -0.998306 0)
(0.000307141 -0.997922 0)
(0.000327459 -1.00007 0)
(0.000290557 -1.00054 0)
(0.000197125 -1.0007 0)
(7.00986e-05 -1.00076 0)
(-6.6793e-05 -1.00076 0)
(-0.000194139 -1.0007 0)
(-0.000288196 -1.00055 0)
(-0.000325892 -1.00007 0)
(-0.000306355 -0.997924 0)
(0.000289498 -0.997564 0)
(0.000307544 -1.00004 0)
(0.000274489 -1.00063 0)
(0.000187332 -1.00084 0)
(6.73e-05 -1.00092 0)
(-6.22448e-05 -1.00092 0)
(-0.000182771 -1.00084 0)
(-0.000270913 -1.00063 0)
(-0.000305115 -1.00005 0)
(-0.000288361 -0.997568 0)
(0.000273465 -0.997226 0)
(0.000289801 -1.00002 0)
(0.000259572 -1.00071 0)
(0.00017771 -1.00097 0)
(6.47853e-05 -1.00107 0)
(-5.70417e-05 -1.00107 0)
(-0.000170721 -1.00097 0)
(-0.000254034 -1.00071 0)
(-0.000286066 -1.00002 0)
(-0.000271746 -0.997232 0)
(0.000259748 -0.996904 0)
(0.000275071 -0.999995 0)
(0.000247264 -1.00078 0)
(0.000169793 -1.00109 0)
(6.33323e-05 -1.00121 0)
(-5.14946e-05 -1.00121 0)
(-0.000159104 -1.0011 0)
(-0.000238763 -1.00079 0)
(-0.000269368 -1 0)
(-0.000257084 -0.996915 0)
(0.000248482 -0.996597 0)
(0.000263571 -0.999974 0)
(0.000237936 -1.00085 0)
(0.000164256 -1.00121 0)
(6.34434e-05 -1.00134 0)
(-4.53952e-05 -1.00135 0)
(-0.000147956 -1.00121 0)
(-0.000224971 -1.00086 0)
(-0.000254921 -0.999987 0)
(-0.000244411 -0.996613 0)
(0.000239581 -0.9963 0)
(0.000255262 -0.999954 0)
(0.000231819 -1.00092 0)
(0.000161606 -1.00131 0)
(6.56708e-05 -1.00147 0)
(-3.82242e-05 -1.00148 0)
(-0.000136825 -1.00133 0)
(-0.000212129 -1.00094 0)
(-0.000242203 -0.999975 0)
(-0.000233446 -0.996326 0)
(0.000232968 -0.99601 0)
(0.000250295 -0.999933 0)
(0.000229302 -1.00098 0)
(0.000162435 -1.00142 0)
(7.07868e-05 -1.00159 0)
(-2.91614e-05 -1.0016 0)
(-0.000124931 -1.00144 0)
(-0.000199508 -1.00101 0)
(-0.000230534 -0.999966 0)
(-0.000223794 -0.99605 0)
(0.000228723 -0.995725 0)
(0.000249159 -0.999911 0)
(0.000231311 -1.00104 0)
(0.000167812 -1.00152 0)
(8.00286e-05 -1.00171 0)
(-1.69563e-05 -1.00172 0)
(-0.000111166 -1.00154 0)
(-0.000186226 -1.00108 0)
(-0.000219227 -0.999961 0)
(-0.00021507 -0.995785 0)
(0.000227126 -0.99544 0)
(0.000252558 -0.999886 0)
(0.000239218 -1.0011 0)
(0.000179669 -1.00161 0)
(9.54274e-05 -1.00182 0)
(2.99149e-07 -1.00184 0)
(-9.40202e-05 -1.00165 0)
(-0.000171324 -1.00116 0)
(-0.000207762 -0.999961 0)
(-0.000207009 -0.995531 0)
(0.000228635 -0.995151 0)
(0.000261513 -0.999854 0)
(0.000254479 -1.00115 0)
(0.000201038 -1.0017 0)
(0.000120152 -1.00193 0)
(2.55162e-05 -1.00196 0)
(-7.14118e-05 -1.00176 0)
(-0.000153841 -1.00124 0)
(-0.000196085 -0.999968 0)
(-0.000199824 -0.995288 0)
(0.000234265 -0.994851 0)
(0.00027897 -0.999811 0)
(0.000282309 -1.00119 0)
(0.00023665 -1.00178 0)
(0.000159473 -1.00204 0)
(6.33995e-05 -1.00208 0)
(-4.0291e-05 -1.00188 0)
(-0.000133053 -1.00133 0)
(-0.000184814 -0.999985 0)
(-0.000195075 -0.995054 0)
(0.000245529 -0.994532 0)
(0.00030906 -0.999751 0)
(0.000328234 -1.00121 0)
(0.000294217 -1.00186 0)
(0.000221169 -1.00215 0)
(0.000121723 -1.00221 0)
(4.21913e-06 -1.00201 0)
(-0.00010959 -1.00144 0)
(-0.000179857 -1.00001 0)
(-0.000197 -0.994824 0)
(0.000264598 -0.994181 0)
(0.000357765 -0.999664 0)
(0.000401589 -1.00122 0)
(0.000386352 -1.00192 0)
(0.00032158 -1.00226 0)
(0.000214614 -1.00235 0)
(7.04828e-05 -1.00218 0)
(-8.91969e-05 -1.00159 0)
(-0.00020395 -1.00008 0)
(-0.00022603 -0.994562 0)
(0.000294512 -0.993777 0)
(0.000433502 -0.999534 0)
(0.000516418 -1.00118 0)
(0.000532677 -1.00196 0)
(0.000486697 -1.00236 0)
(0.000374688 -1.00251 0)
(0.000192135 -1.00239 0)
(-4.52803e-05 -1.00181 0)
(-0.000236251 -1.00016 0)
(-0.000170104 -0.994234 0)
(0.000338496 -0.993295 0)
(0.000546446 -0.999337 0)
(0.000690409 -1.0011 0)
(0.000760006 -1.00196 0)
(0.000750212 -1.00245 0)
(0.000644073 -1.00271 0)
(0.000391923 -1.00271 0)
(-3.50832e-05 -1.00225 0)
(-0.00067419 -1.00085 0)
(-0.000886975 -0.996622 0)
(0.000403588 -0.992699 0)
(0.000708845 -0.99904 0)
(0.000947596 -1.00092 0)
(0.00111006 -1.00188 0)
(0.0011884 -1.00249 0)
(0.0011785 -1.00289 0)
(0.00103228 -1.00313 0)
(0.000882791 -1.00291 0)
(0.00168965 -1.00089 0)
(0.00918855 -0.981797 0)
(0.000494172 -0.991943 0)
(0.00092925 -0.998597 0)
(0.0013031 -1.0006 0)
(0.00160242 -1.00166 0)
(0.00182272 -1.00238 0)
(0.00197634 -1.00289 0)
(0.00206871 -1.00313 0)
(0.00196931 -1.00284 0)
(0.00235076 -0.999451 0)
(0.0166451 -0.964078 0)
(0.0006104 -0.990975 0)
(0.0012107 -0.997956 0)
(0.00176077 -1.00008 0)
(0.00223817 -1.00124 0)
(0.00263904 -1.00205 0)
(0.00299111 -1.00263 0)
(0.00335548 -1.00286 0)
(0.00360716 -1.00207 0)
(0.00355623 -0.996887 0)
(0.0206528 -0.949481 0)
(0.000752832 -0.989742 0)
(0.00155518 -0.997065 0)
(0.00232294 -0.999317 0)
(0.0030198 -1.00057 0)
(0.00364363 -1.00146 0)
(0.00423183 -1.00208 0)
(0.00491195 -1.00219 0)
(0.00582018 -1.00066 0)
(0.0059096 -0.992743 0)
(0.0243178 -0.933155 0)
(0.000922882 -0.98819 0)
(0.0019666 -0.995871 0)
(0.00299528 -0.998252 0)
(0.00395394 -0.999593 0)
(0.00484491 -1.00055 0)
(0.00571065 -1.00117 0)
(0.00670324 -1.00105 0)
(0.00822971 -0.998548 0)
(0.00884775 -0.987058 0)
(0.0269884 -0.914629 0)
(0.00112286 -0.986261 0)
(0.00245074 -0.994317 0)
(0.00378626 -0.996833 0)
(0.00504998 -0.998262 0)
(0.00624936 -0.999268 0)
(0.00743162 -0.999842 0)
(0.00875006 -0.999408 0)
(0.0108281 -0.995735 0)
(0.0122511 -0.980212 0)
(0.0292993 -0.896664 0)
(0.00135593 -0.983889 0)
(0.00301564 -0.992345 0)
(0.0047095 -0.995002 0)
(0.00632719 -0.996522 0)
(0.00788166 -0.997571 0)
(0.00942671 -0.998073 0)
(0.0111082 -0.997246 0)
(0.0136935 -0.99226 0)
(0.0160974 -0.972476 0)
(0.0311722 -0.880135 0)
(0.00162714 -0.981 0)
(0.00367587 -0.989881 0)
(0.00578404 -0.99269 0)
(0.00781524 -0.994306 0)
(0.00978375 -0.995396 0)
(0.0117546 -0.995801 0)
(0.0138701 -0.994522 0)
(0.0169513 -0.988137 0)
(0.0204331 -0.964132 0)
(0.0337116 -0.865277 0)
(0.00194357 -0.977508 0)
(0.00444566 -0.98686 0)
(0.00703312 -0.98982 0)
(0.00954841 -0.991534 0)
(0.0120019 -0.992657 0)
(0.0144768 -0.992939 0)
(0.0171322 -0.991135 0)
(0.0207495 -0.983243 0)
(0.0253022 -0.955194 0)
(0.037865 -0.851692 0)
(0.00230901 -0.973317 0)
(0.00533239 -0.983184 0)
(0.00848343 -0.986302 0)
(0.0115581 -0.988113 0)
(0.0145717 -0.989258 0)
(0.0176229 -0.98938 0)
(0.020899 -0.986975 0)
(0.0251062 -0.977464 0)
(0.0304654 -0.945592 0)
(0.0426547 -0.839432 0)
(0.00272686 -0.968323 0)
(0.00635095 -0.978722 0)
(0.0101587 -0.982034 0)
(0.0138729 -0.983944 0)
(0.0175253 -0.985101 0)
(0.0212202 -0.985038 0)
(0.0251682 -0.981988 0)
(0.0299799 -0.970837 0)
(0.0361331 -0.93555 0)
(0.0475189 -0.828815 0)
(0.00320551 -0.962406 0)
(0.0075225 -0.973381 0)
(0.0120816 -0.976905 0)
(0.0165272 -0.978922 0)
(0.0209057 -0.980091 0)
(0.0253203 -0.979835 0)
(0.0299921 -0.976141 0)
(0.0354442 -0.96342 0)
(0.0424086 -0.925112 0)
(0.0526811 -0.81983 0)
(0.00375325 -0.955426 0)
(0.00886696 -0.967034 0)
(0.014284 -0.97079 0)
(0.0195658 -0.972929 0)
(0.02477 -0.974121 0)
(0.029994 -0.973684 0)
(0.0354494 -0.969376 0)
(0.0416066 -0.955185 0)
(0.0491571 -0.914709 0)
(0.0583411 -0.812344 0)
(0.00437874 -0.947226 0)
(0.0104071 -0.959531 0)
(0.0168049 -0.963548 0)
(0.0230427 -0.96583 0)
(0.0291866 -0.967066 0)
(0.0353254 -0.966479 0)
(0.0416466 -0.961631 0)
(0.0485402 -0.94624 0)
(0.0565076 -0.904511 0)
(0.0647368 -0.806178 0)
(0.00509142 -0.93763 0)
(0.0121679 -0.950707 0)
(0.0196869 -0.955019 0)
(0.0270172 -0.957467 0)
(0.0342331 -0.958778 0)
(0.041411 -0.958093 0)
(0.0487035 -0.952827 0)
(0.0563913 -0.936601 0)
(0.0647158 -0.894537 0)
(0.0721777 -0.801129 0)
(0.00590085 -0.926441 0)
(0.0141746 -0.940375 0)
(0.0229728 -0.945019 0)
(0.0315502 -0.947663 0)
(0.0399908 -0.949083 0)
(0.0483554 -0.948371 0)
(0.0567524 -0.94285 0)
(0.0653376 -0.926208 0)
(0.0740645 -0.884701 0)
(0.0809927 -0.796946 0)
(0.00681557 -0.91344 0)
(0.0164502 -0.928326 0)
(0.0267021 -0.933345 0)
(0.0366986 -0.936212 0)
(0.0465361 -0.937782 0)
(0.056259 -0.93712 0)
(0.0659246 -0.931531 0)
(0.0755584 -0.914918 0)
(0.0848294 -0.874807 0)
(0.0915205 -0.793309 0)
(0.00784297 -0.898392 0)
(0.0190132 -0.914331 0)
(0.0309068 -0.919772 0)
(0.0425078 -0.922891 0)
(0.0539304 -0.924646 0)
(0.0652036 -0.924115 0)
(0.0763314 -0.918653 0)
(0.0872125 -0.902505 0)
(0.0972604 -0.864543 0)
(0.104098 -0.789797 0)
(0.00900063 -0.881044 0)
(0.0218754 -0.898148 0)
(0.0356066 -0.904063 0)
(0.0490056 -0.907459 0)
(0.0622099 -0.909429 0)
(0.0752381 -0.909101 0)
(0.0880433 -0.903948 0)
(0.100409 -0.888664 0)
(0.111538 -0.853481 0)
(0.118982 -0.785864 0)
(0.0102939 -0.861132 0)
(0.0250426 -0.879547 0)
(0.040806 -0.885976 0)
(0.0561958 -0.88967 0)
(0.0713774 -0.891877 0)
(0.0863667 -0.891811 0)
(0.101073 -0.887121 0)
(0.115183 -0.87303 0)
(0.127747 -0.84111 0)
(0.13631 -0.780864 0)
(0.0117101 -0.838379 0)
(0.0285123 -0.858287 0)
(0.0464932 -0.865275 0)
(0.0640561 -0.869285 0)
(0.0813977 -0.871743 0)
(0.0985414 -0.871978 0)
(0.115363 -0.867867 0)
(0.131482 -0.85521 0)
(0.145853 -0.826866 0)
(0.156078 -0.774073 0)
(0.0132423 -0.812529 0)
(0.0322709 -0.834141 0)
(0.0526386 -0.841742 0)
(0.0725371 -0.846088 0)
(0.0921967 -0.848802 0)
(0.111661 -0.849358 0)
(0.130787 -0.845895 0)
(0.149156 -0.834812 0)
(0.165692 -0.810175 0)
(0.178112 -0.764729 0)
(0.0148839 -0.783339 0)
(0.0362973 -0.806898 0)
(0.0591982 -0.815186 0)
(0.0815663 -0.819897 0)
(0.103665 -0.822874 0)
(0.125573 -0.823754 0)
(0.147146 -0.82096 0)
(0.167959 -0.811484 0)
(0.186965 -0.790503 0)
(0.202054 -0.752087 0)
(0.0166282 -0.75058 0)
(0.0405679 -0.776377 0)
(0.0661195 -0.785454 0)
(0.0910544 -0.790577 0)
(0.115668 -0.793832 0)
(0.140087 -0.795031 0)
(0.164186 -0.792887 0)
(0.187562 -0.784959 0)
(0.209254 -0.767414 0)
(0.22737 -0.735505 0)
(0.0184704 -0.714041 0)
(0.0450613 -0.742426 0)
(0.0733488 -0.75244 0)
(0.100906 -0.758053 0)
(0.128054 -0.761621 0)
(0.154986 -0.763139 0)
(0.181612 -0.761602 0)
(0.207581 -0.755087 0)
(0.232051 -0.740626 0)
(0.253393 -0.714517 0)
(0.0204097 -0.673523 0)
(0.0497647 -0.704926 0)
(0.0808396 -0.716085 0)
(0.111028 -0.722313 0)
(0.140673 -0.726266 0)
(0.170051 -0.728121 0)
(0.199121 -0.727143 0)
(0.227605 -0.721864 0)
(0.254809 -0.710055 0)
(0.279386 -0.688911 0)
(0.022452 -0.628828 0)
(0.0546792 -0.663784 0)
(0.0885616 -0.676385 0)
(0.121344 -0.683415 0)
(0.153386 -0.687873 0)
(0.185071 -0.690121 0)
(0.21642 -0.689669 0)
(0.247239 -0.685444 0)
(0.276995 -0.675824 0)
(0.304626 -0.658763 0)
(0.0246126 -0.579742 0)
(0.0598254 -0.618928 0)
(0.0965063 -0.633389 0)
(0.131795 -0.641488 0)
(0.166075 -0.646633 0)
(0.199858 -0.649375 0)
(0.233244 -0.64945 0)
(0.266131 -0.646122 0)
(0.298141 -0.638258 0)
(0.328481 -0.624428 0)
(0.0269169 -0.526022 0)
(0.065246 -0.570299 0)
(0.104687 -0.587199 0)
(0.14234 -0.596738 0)
(0.178631 -0.602818 0)
(0.214241 -0.606204 0)
(0.249362 -0.60685 0)
(0.283982 -0.604306 0)
(0.317869 -0.597832 0)
(0.350462 -0.586485 0)
(0.0294029 -0.467366 0)
(0.071 -0.517851 0)
(0.113126 -0.537987 0)
(0.152932 -0.549454 0)
(0.190939 -0.556779 0)
(0.228044 -0.561003 0)
(0.264552 -0.562299 0)
(0.300536 -0.560474 0)
(0.335886 -0.555108 0)
(0.370235 -0.545636 0)
(0.0321049 -0.40342 0)
(0.0771475 -0.461572 0)
(0.121812 -0.486001 0)
(0.163467 -0.500008 0)
(0.202814 -0.508942 0)
(0.241031 -0.514217 0)
(0.278556 -0.516261 0)
(0.315531 -0.515125 0)
(0.351946 -0.510661 0)
(0.387576 -0.502603 0)
(0.0351338 -0.333729 0)
(0.083648 -0.401555 0)
(0.130569 -0.431679 0)
(0.173678 -0.448933 0)
(0.213929 -0.459829 0)
(0.252839 -0.466335 0)
(0.291005 -0.469198 0)
(0.328631 -0.468724 0)
(0.365768 -0.465005 0)
(0.402288 -0.458024 0)
(0.0384454 -0.258368 0)
(0.0903412 -0.338037 0)
(0.138826 -0.375192 0)
(0.182855 -0.396642 0)
(0.223584 -0.409956 0)
(0.26281 -0.417843 0)
(0.301303 -0.421534 0)
(0.339317 -0.421656 0)
(0.376938 -0.418542 0)
(0.414084 -0.412385 0)
(0.0394484 -0.175459 0)
(0.095133 -0.274075 0)
(0.14543 -0.318516 0)
(0.190053 -0.344031 0)
(0.230754 -0.35982 0)
(0.26991 -0.369102 0)
(0.308498 -0.373555 0)
(0.346766 -0.374157 0)
(0.384777 -0.371497 0)
(0.422462 -0.365956 0)
(0.0335213 -0.0874433 0)
(0.0907771 -0.199739 0)
(0.145058 -0.25917 0)
(0.192061 -0.291501 0)
(0.23333 -0.310066 0)
(0.272469 -0.320502 0)
(0.311143 -0.325444 0)
(0.349716 -0.326299 0)
(0.388224 -0.323893 0)
(0.42657 -0.318769 0)
(0.0211649 -0.0195592 0)
(0.0722714 -0.1199 0)
(0.129487 -0.192745 0)
(0.181341 -0.235682 0)
(0.225944 -0.259308 0)
(0.266831 -0.271576 0)
(0.306576 -0.276945 0)
(0.346085 -0.27778 0)
(0.385576 -0.275361 0)
(0.424997 -0.27044 0)
(0.00894171 0.0212543 0)
(0.0464365 -0.0484682 0)
(0.098172 -0.121643 0)
(0.151737 -0.172907 0)
(0.200936 -0.203412 0)
(0.246256 -0.219507 0)
(0.289504 -0.226426 0)
(0.331789 -0.227658 0)
(0.373622 -0.225301 0)
(0.415144 -0.220545 0)
(-0.00458793 0.0411237 0)
(0.0216988 0.000867057 0)
(0.0591132 -0.0578452 0)
(0.105036 -0.107335 0)
(0.154149 -0.140649 0)
(0.203573 -0.160293 0)
(0.252163 -0.16991 0)
(0.299643 -0.172812 0)
(0.346098 -0.171404 0)
(0.391689 -0.167323 0)
(-0.0204269 0.0423356 0)
(-0.00778455 0.0197754 0)
(0.0157566 -0.0147411 0)
(0.0483046 -0.0507201 0)
(0.0902632 -0.0784285 0)
(0.139168 -0.0960492 0)
(0.191935 -0.105341 0)
(0.245441 -0.109108 0)
(0.298154 -0.108786 0)
(0.349802 -0.105631 0)
(-0.0254451 0.0119091 0)
(-0.0430775 0.000776479 0)
(-0.0478064 -0.0152576 0)
(-0.0229033 -0.0295468 0)
(0.0103117 -0.0409973 0)
(0.0550194 -0.0467346 0)
(0.106818 -0.0502997 0)
(0.16736 -0.0530465 0)
(0.229108 -0.0537077 0)
(0.288527 -0.0521708 0)
(-0.0411038 -0.15517 0)
(-0.121476 0.0124654 0)
(-0.106709 0.0182537 0)
(-0.091193 0.0206471 0)
(-0.0731251 0.0234541 0)
(-0.0512111 0.0250895 0)
(-0.0292252 0.0259315 0)
(-0.00740174 0.0264373 0)
(0.014078 0.0254306 0)
(0.0347234 0.0236523 0)
(0.0550286 0.0220265 0)
(0.0741257 0.0198638 0)
(0.0897666 0.0168167 0)
(0.102405 0.0133892 0)
(0.111755 0.00979211 0)
(0.117574 0.00664512 0)
(0.119786 0.00328928 0)
(0.11813 -0.000543399 0)
(0.112423 -0.00466353 0)
(0.102332 -0.00889403 0)
(0.0876937 -0.0131229 0)
(0.0686064 -0.0169277 0)
(0.0454668 -0.0185691 0)
(0.0203133 -0.0154881 0)
(0.00416128 -0.00796423 0)
(-0.0244683 -0.228475 0)
(-0.0740435 -0.0115215 0)
(-0.0805316 0.0194007 0)
(-0.0762827 0.0291958 0)
(-0.0657084 0.0359441 0)
(-0.0511305 0.0406307 0)
(-0.0339623 0.043384 0)
(-0.01517 0.0442452 0)
(0.00423185 0.0428991 0)
(0.0230198 0.0403359 0)
(0.0402881 0.0370729 0)
(0.0556083 0.0326243 0)
(0.0687221 0.0269219 0)
(0.0794224 0.0205931 0)
(0.0875164 0.0140143 0)
(0.0928669 0.00730038 0)
(0.0954291 0.000391862 0)
(0.0954439 -0.0067278 0)
(0.0929131 -0.0141582 0)
(0.0877295 -0.0219853 0)
(0.079714 -0.0300749 0)
(0.0685274 -0.0377763 0)
(0.0541195 -0.0429655 0)
(0.0338309 -0.0415603 0)
(0.0131247 -0.0302204 0)
(-0.00410792 -0.303242 0)
(-0.0539268 -0.0434989 0)
(-0.0676091 0.0144063 0)
(-0.0687514 0.035792 0)
(-0.0625593 0.0489922 0)
(-0.0515935 0.0578453 0)
(-0.0375722 0.0631675 0)
(-0.0218751 0.0653316 0)
(-0.00512358 0.0646854 0)
(0.0119786 0.0617002 0)
(0.0277411 0.0566719 0)
(0.0413558 0.0498499 0)
(0.0528453 0.0415547 0)
(0.0621487 0.0323845 0)
(0.0690913 0.0227724 0)
(0.0736468 0.0129669 0)
(0.0758619 0.00301796 0)
(0.0758467 -0.0071914 0)
(0.0737323 -0.0178189 0)
(0.0696241 -0.0289819 0)
(0.0635817 -0.0406441 0)
(0.0554853 -0.0523085 0)
(0.04515 -0.0622055 0)
(0.0312719 -0.0657407 0)
(0.0154241 -0.0562969 0)
(0.00681464 -0.376249 0)
(-0.0463591 -0.0820921 0)
(-0.0644931 0.00374932 0)
(-0.0684861 0.0386279 0)
(-0.0646355 0.0594132 0)
(-0.0555779 0.0732517 0)
(-0.0433375 0.081795 0)
(-0.0292802 0.0858521 0)
(-0.0143052 0.0861519 0)
(0.000945904 0.0826031 0)
(0.0153117 0.0754467 0)
(0.0278628 0.0657639 0)
(0.0383983 0.0545453 0)
(0.0468405 0.042369 0)
(0.053023 0.0297216 0)
(0.0570057 0.0169392 0)
(0.0589265 0.00415867 0)
(0.0589436 -0.00865399 0)
(0.0572145 -0.0216624 0)
(0.0538812 -0.0350606 0)
(0.0490548 -0.0489593 0)
(0.0427453 -0.0631569 0)
(0.0347454 -0.0764786 0)
(0.0246584 -0.0851011 0)
(0.0143912 -0.0858542 0)
(0.0159604 -0.437047 0)
(-0.0380344 -0.130253 0)
(-0.0621256 -0.0140421 0)
(-0.0695622 0.0374311 0)
(-0.0685179 0.0673225 0)
(-0.0611089 0.0866031 0)
(-0.050422 0.0984884 0)
(-0.0376613 0.104386 0)
(-0.0240425 0.105122 0)
(-0.0104332 0.100966 0)
(0.00251465 0.0924022 0)
(0.0142281 0.0805395 0)
(0.0241857 0.0666484 0)
(0.0320436 0.0515895 0)
(0.0377223 0.0360834 0)
(0.0413568 0.0206175 0)
(0.0431749 0.00539155 0)
(0.0433992 -0.00963593 0)
(0.0422089 -0.0246508 0)
(0.0397503 -0.0398772 0)
(0.0361341 -0.0554798 0)
(0.0314052 -0.0713951 0)
(0.0253963 -0.0868502 0)
(0.0176143 -0.0991846 0)
(0.0114302 -0.105403 0)
(0.0246926 -0.485562 0)
(-0.027012 -0.182809 0)
(-0.0547356 -0.0390634 0)
(-0.0678527 0.0310124 0)
(-0.0703824 0.0717757 0)
(-0.0656604 0.097266 0)
(-0.0571469 0.112953 0)
(-0.0462927 0.120868 0)
(-0.0342457 0.122194 0)
(-0.0219193 0.117659 0)
(-0.00999488 0.10802 0)
(0.000915751 0.0943567 0)
(0.0102391 0.0779721 0)
(0.0175856 0.0601446 0)
(0.0228802 0.0419546 0)
(0.0263097 0.0240912 0)
(0.0281766 0.00680245 0)
(0.028756 -0.00999747 0)
(0.0282399 -0.0265697 0)
(0.0267641 -0.0432064 0)
(0.0244212 -0.060129 0)
(0.0212558 -0.0773441 0)
(0.0171903 -0.0942891 0)
(0.0114654 -0.109161 0)
(0.0081333 -0.118584 0)
(0.0305816 -0.523235 0)
(-0.0135548 -0.233734 0)
(-0.0431983 -0.0712363 0)
(-0.0614461 0.018156 0)
(-0.0681494 0.0711242 0)
(-0.0675847 0.104066 0)
(-0.0621088 0.124193 0)
(-0.05388 0.134696 0)
(-0.0439231 0.137271 0)
(-0.0331853 0.132926 0)
(-0.0223874 0.122524 0)
(-0.0122879 0.107233 0)
(-0.00354037 0.0885606 0)
(0.00341734 0.0681479 0)
(0.00847397 0.0474943 0)
(0.0118443 0.0275383 0)
(0.0138963 0.00856765 0)
(0.0149515 -0.00959334 0)
(0.0152086 -0.0273175 0)
(0.0147896 -0.0449806 0)
(0.0137709 -0.0628639 0)
(0.0121948 -0.081034 0)
(0.0100621 -0.0990657 0)
(0.00640871 -0.115646 0)
(0.00562331 -0.127091 0)
(0.0352031 -0.553008 0)
(-0.000320415 -0.279142 0)
(-0.0307416 -0.105514 0)
(-0.051788 -0.000652502 0)
(-0.0628455 0.0643376 0)
(-0.0665231 0.105585 0)
(-0.065001 0.131087 0)
(-0.0599596 0.144986 0)
(-0.0526568 0.149529 0)
(-0.0440579 0.146096 0)
(-0.0346887 0.135593 0)
(-0.0254515 0.119176 0)
(-0.0171648 0.0985725 0)
(-0.010405 0.075825 0)
(-0.00539355 0.052914 0)
(-0.00192315 0.0311275 0)
(0.000429392 0.0108174 0)
(0.00203967 -0.0083226 0)
(0.00311994 -0.0268244 0)
(0.00378326 -0.045162 0)
(0.00409417 -0.0636673 0)
(0.00409265 -0.0824505 0)
(0.00382212 -0.10119 0)
(0.00221278 -0.118848 0)
(0.00353461 -0.1315 0)
(0.0395909 -0.5764 0)
(0.0108925 -0.319361 0)
(-0.0185601 -0.140429 0)
(-0.0411115 -0.0239386 0)
(-0.0556871 0.0520145 0)
(-0.0634637 0.101522 0)
(-0.0659055 0.132992 0)
(-0.0646399 0.151031 0)
(-0.0604173 0.158283 0)
(-0.0545701 0.156654 0)
(-0.0470446 0.147026 0)
(-0.0387483 0.130272 0)
(-0.0307806 0.10829 0)
(-0.023912 0.0835019 0)
(-0.0186417 0.0585017 0)
(-0.0148716 0.0350662 0)
(-0.0121199 0.0136768 0)
(-0.00992227 -0.00612744 0)
(-0.0080206 -0.0250772 0)
(-0.0062992 -0.0437678 0)
(-0.00470146 -0.0625826 0)
(-0.00319071 -0.0816642 0)
(-0.00173364 -0.100777 0)
(-0.00135217 -0.119045 0)
(0.00155581 -0.132368 0)
(0.0440335 -0.595012 0)
(0.020551 -0.354882 0)
(-0.00709771 -0.174722 0)
(-0.0304651 -0.0500294 0)
(-0.0477997 0.0350438 0)
(-0.059267 0.0923042 0)
(-0.0657817 0.12968 0)
(-0.0684391 0.15228 0)
(-0.0678832 0.162616 0)
(-0.0647925 0.16402 0)
(-0.0597303 0.156511 0)
(-0.0525545 0.140552 0)
(-0.0448354 0.118059 0)
(-0.0374671 0.0916734 0)
(-0.0314472 0.0646782 0)
(-0.0270299 0.0395971 0)
(-0.0237286 0.0172467 0)
(-0.0209132 -0.00298454 0)
(-0.0182164 -0.0220967 0)
(-0.0154922 -0.0408492 0)
(-0.0126771 -0.0596891 0)
(-0.00973894 -0.0787972 0)
(-0.0067059 -0.0980298 0)
(-0.00441959 -0.116636 0)
(-0.000218469 -0.130184 0)
(0.0485237 -0.609977 0)
(0.0290359 -0.386243 0)
(0.00338528 -0.207892 0)
(-0.0203575 -0.0780167 0)
(-0.0398135 0.0141195 0)
(-0.0545059 0.0781156 0)
(-0.0648327 0.121124 0)
(-0.0714418 0.148312 0)
(-0.0749121 0.162966 0)
(-0.0749436 0.167243 0)
(-0.0727997 0.163378 0)
(-0.0673213 0.149783 0)
(-0.0600677 0.128151 0)
(-0.0519115 0.100995 0)
(-0.0444525 0.0721278 0)
(-0.0387188 0.0451409 0)
(-0.0345238 0.0216703 0)
(-0.0309984 0.00109334 0)
(-0.0275205 -0.0179581 0)
(-0.0238528 -0.0365052 0)
(-0.0198946 -0.0551 0)
(-0.0156164 -0.0739836 0)
(-0.011114 -0.0931312 0)
(-0.00705837 -0.111947 0)
(-0.00186352 -0.125288 0)
(0.0534271 -0.622347 0)
(0.0367215 -0.414231 0)
(0.0128902 -0.239835 0)
(-0.0109674 -0.107248 0)
(-0.0320577 -0.0100105 0)
(-0.0495274 0.0595216 0)
(-0.0633412 0.10757 0)
(-0.0737583 0.139182 0)
(-0.0810401 0.158201 0)
(-0.0852637 0.166641 0)
(-0.0860998 0.166786 0)
(-0.083548 0.157162 0)
(-0.0773814 0.138416 0)
(-0.0686475 0.112102 0)
(-0.059144 0.0819437 0)
(-0.0509436 0.0525901 0)
(-0.0449355 0.0273924 0)
(-0.0403793 0.00622362 0)
(-0.0360588 -0.0126958 0)
(-0.0314774 -0.030835 0)
(-0.0264399 -0.0489409 0)
(-0.0208822 -0.067364 0)
(-0.0149259 -0.0862541 0)
(-0.00921363 -0.105234 0)
(-0.0030663 -0.118095 0)
(0.0586817 -0.633035 0)
(0.0439673 -0.439605 0)
(0.0216315 -0.270676 0)
(-0.00220515 -0.137387 0)
(-0.024629 -0.0367561 0)
(-0.0445141 0.0370609 0)
(-0.06147 0.0893968 0)
(-0.0754802 0.124999 0)
(-0.0866746 0.14787 0)
(-0.0949845 0.16089 0)
(-0.0997042 0.165582 0)
(-0.101161 0.161207 0)
(-0.0973461 0.147743 0)
(-0.0891723 0.124947 0)
(-0.0779685 0.0954 0)
(-0.0660629 0.0637597 0)
(-0.056353 0.0354986 0)
(-0.0495936 0.0128649 0)
(-0.0441062 -0.00620596 0)
(-0.0385249 -0.0238665 0)
(-0.0324259 -0.0412661 0)
(-0.0255708 -0.0589333 0)
(-0.0179756 -0.0772032 0)
(-0.0103378 -0.0961823 0)
(-0.00322054 -0.109724 0)
(0.0645793 -0.642693 0)
(0.0512451 -0.463054 0)
(0.0300452 -0.30062 0)
(0.00625127 -0.168267 0)
(-0.0172865 -0.0657442 0)
(-0.0392193 0.0111774 0)
(-0.0589201 0.0670066 0)
(-0.0761809 0.106111 0)
(-0.0909708 0.132535 0)
(-0.103188 0.149413 0)
(-0.112443 0.15856 0)
(-0.118283 0.16088 0)
(-0.119316 0.153649 0)
(-0.113887 0.137514 0)
(-0.103164 0.112326 0)
(-0.0883949 0.0810664 0)
(-0.0729301 0.0489507 0)
(-0.0608633 0.0223607 0)
(-0.0525243 0.00202813 0)
(-0.0454474 -0.0153548 0)
(-0.0381967 -0.0319774 0)
(-0.0300052 -0.0486991 0)
(-0.0202725 -0.0661197 0)
(-0.0099654 -0.0847899 0)
(-0.00508505 -0.101425 0)
(0.0715438 -0.651803 0)
(0.0591223 -0.485141 0)
(0.03879 -0.329868 0)
(0.0149765 -0.19978 0)
(-0.0094618 -0.0965992 0)
(-0.0330618 -0.0176052 0)
(-0.0550599 0.0409283 0)
(-0.075127 0.0829395 0)
(-0.0931278 0.112392 0)
(-0.108947 0.132614 0)
(-0.122344 0.145631 0)
(-0.132783 0.152485 0)
(-0.139687 0.153941 0)
(-0.140759 0.145345 0)
(-0.134256 0.128734 0)
(-0.121197 0.103322 0)
(-0.102536 0.0719935 0)
(-0.0821994 0.0399624 0)
(-0.0659425 0.0138675 0)
(-0.0545031 -0.00547025 0)
(-0.0447234 -0.0214242 0)
(-0.0343119 -0.0365846 0)
(-0.0206064 -0.0517808 0)
(-0.00132194 -0.0671717 0)
(0.0158573 -0.0851742 0)
(0.0800004 -0.660625 0)
(0.0682061 -0.506382 0)
(0.0484865 -0.358674 0)
(0.0246603 -0.23173 0)
(-0.000438443 -0.128924 0)
(-0.0253144 -0.0486897 0)
(-0.0491006 0.0118573 0)
(-0.0713667 0.0561888 0)
(-0.0919642 0.0880952 0)
(-0.110838 0.111064 0)
(-0.127936 0.127157 0)
(-0.142852 0.13772 0)
(-0.154983 0.143647 0)
(-0.163701 0.145103 0)
(-0.166084 0.137434 0)
(-0.16036 0.122542 0)
(-0.146916 0.0996699 0)
(-0.126163 0.0710979 0)
(-0.101352 0.041008 0)
(-0.0783589 0.0145991 0)
(-0.0610137 -0.00499514 0)
(-0.0459044 -0.0183842 0)
(-0.0313317 -0.0265753 0)
(-0.0162817 -0.0272968 0)
(-0.0012029 -0.0157552 0)
(0.0903725 -0.669184 0)
(0.0791235 -0.526853 0)
(0.0599151 -0.387192 0)
(0.0362068 -0.26413 0)
(0.0106264 -0.162349 0)
(-0.0151706 -0.0814888 0)
(-0.040213 -0.0194316 0)
(-0.0640081 0.0267508 0)
(-0.086315 0.0604736 0)
(-0.107481 0.0853704 0)
(-0.127617 0.103808 0)
(-0.146008 0.117049 0)
(-0.162628 0.126142 0)
(-0.177174 0.131536 0)
(-0.188241 0.132895 0)
(-0.194291 0.127897 0)
(-0.19314 0.116309 0)
(-0.184472 0.0986911 0)
(-0.167909 0.0759698 0)
(-0.146643 0.0523318 0)
(-0.125233 0.0315706 0)
(-0.1079 0.0136248 0)
(-0.0995516 -0.00457868 0)
(-0.103887 -0.027938 0)
(-0.127418 -0.0657347 0)
(0.103121 -0.677381 0)
(0.0925192 -0.546605 0)
(0.073936 -0.415241 0)
(0.0504524 -0.29668 0)
(0.0246107 -0.196516 0)
(-0.00180775 -0.115483 0)
(-0.0277276 -0.0522087 0)
(-0.0525457 -0.00438825 0)
(-0.0759013 0.0308643 0)
(-0.0981519 0.0568446 0)
(-0.119681 0.0766605 0)
(-0.140347 0.0918207 0)
(-0.15978 0.103006 0)
(-0.17792 0.11083 0)
(-0.19467 0.115263 0)
(-0.209276 0.115995 0)
(-0.220553 0.112312 0)
(-0.226653 0.101538 0)
(-0.229601 0.0845514 0)
(-0.227999 0.06054 0)
(-0.224761 0.0323625 0)
(-0.222972 0.00157034 0)
(-0.224644 -0.031516 0)
(-0.231179 -0.0680942 0)
(-0.239986 -0.109547 0)
(0.118619 -0.684842 0)
(0.108917 -0.565457 0)
(0.0911837 -0.44264 0)
(0.0681395 -0.3291 0)
(0.0423084 -0.231087 0)
(0.0155492 -0.15028 0)
(-0.0109511 -0.0860224 0)
(-0.036446 -0.0365664 0)
(-0.0605126 0.000462452 0)
(-0.0830477 0.0277997 0)
(-0.104493 0.0483971 0)
(-0.125308 0.0643732 0)
(-0.145458 0.0767922 0)
(-0.164879 0.0858867 0)
(-0.183477 0.0918108 0)
(-0.201325 0.0944755 0)
(-0.218203 0.0932647 0)
(-0.233357 0.0872712 0)
(-0.245726 0.0757918 0)
(-0.25473 0.058283 0)
(-0.259857 0.034766 0)
(-0.262203 0.00612733 0)
(-0.262917 -0.0263632 0)
(-0.257764 -0.0603625 0)
(-0.248167 -0.0921564 0)
(0.137105 -0.691013 0)
(0.128732 -0.582967 0)
(0.112209 -0.469029 0)
(0.0899609 -0.361042 0)
(0.064479 -0.265694 0)
(0.0377012 -0.185497 0)
(0.010949 -0.120477 0)
(-0.0149041 -0.069417 0)
(-0.0393086 -0.0303744 0)
(-0.0620427 -0.000995169 0)
(-0.083235 0.0210785 0)
(-0.10314 0.0380047 0)
(-0.122213 0.0511073 0)
(-0.140682 0.0609254 0)
(-0.158465 0.0676002 0)
(-0.17551 0.0710473 0)
(-0.191712 0.0711368 0)
(-0.206652 0.0673555 0)
(-0.219759 0.0592445 0)
(-0.230337 0.0464706 0)
(-0.237485 0.0291684 0)
(-0.240281 0.0079671 0)
(-0.23782 -0.0159954 0)
(-0.229039 -0.0408084 0)
(-0.213239 -0.0631992 0)
(0.158648 -0.695181 0)
(0.152185 -0.59849 0)
(0.13741 -0.493832 0)
(0.116459 -0.391986 0)
(0.0917619 -0.299862 0)
(0.0653463 -0.220678 0)
(0.0386809 -0.155153 0)
(0.012766 -0.102569 0)
(-0.0117453 -0.0614413 0)
(-0.0345156 -0.029804 0)
(-0.055517 -0.00557505 0)
(-0.0749305 0.0130648 0)
(-0.0930343 0.0273905 0)
(-0.110037 0.038264 0)
(-0.125981 0.0460398 0)
(-0.140758 0.0508073 0)
(-0.154273 0.0524479 0)
(-0.16634 0.0507146 0)
(-0.176586 0.0453544 0)
(-0.184417 0.0362205 0)
(-0.189136 0.0237716 0)
(-0.189976 0.00885973 0)
(-0.186327 -0.0075712 0)
(-0.17775 -0.0243954 0)
(-0.164432 -0.0401226 0)
(0.183107 -0.696509 0)
(0.179239 -0.611186 0)
(0.166911 -0.516256 0)
(0.147917 -0.421226 0)
(0.12458 -0.332993 0)
(0.0989981 -0.255333 0)
(0.0727818 -0.189627 0)
(0.0470707 -0.135711 0)
(0.022621 -0.0925284 0)
(-0.000137418 -0.0585385 0)
(-0.0210598 -0.0320011 0)
(-0.0402175 -0.0112695 0)
(-0.0577824 0.00495758 0)
(-0.0739064 0.0175817 0)
(-0.08863 0.0270974 0)
(-0.101877 0.0336646 0)
(-0.113447 0.0372654 0)
(-0.123152 0.0379067 0)
(-0.130892 0.0353769 0)
(-0.136424 0.0296088 0)
(-0.13931 0.0211493 0)
(-0.139222 0.0107812 0)
(-0.135915 -0.000736398 0)
(-0.129375 -0.0126742 0)
(-0.119911 -0.0242968 0)
(0.210092 -0.694101 0)
(0.209548 -0.620061 0)
(0.200485 -0.535296 0)
(0.184273 -0.447846 0)
(0.163043 -0.364311 0)
(0.13891 -0.28886 0)
(0.113609 -0.223466 0)
(0.0884215 -0.168543 0)
(0.064228 -0.123515 0)
(0.041556 -0.087234 0)
(0.0206482 -0.0582923 0)
(0.00153811 -0.0352721 0)
(-0.0158685 -0.0169252 0)
(-0.0316873 -0.00227885 0)
(-0.0459462 0.00930621 0)
(-0.0585598 0.0181211 0)
(-0.0693933 0.0241431 0)
(-0.0782826 0.0272773 0)
(-0.0851687 0.0274637 0)
(-0.0900034 0.0247072 0)
(-0.0925914 0.0194581 0)
(-0.092785 0.0124733 0)
(-0.0905419 0.00438474 0)
(-0.0859324 -0.00429097 0)
(-0.0791925 -0.0130695 0)
(0.238966 -0.687098 0)
(0.242431 -0.624055 0)
(0.237495 -0.54978 0)
(0.225022 -0.470695 0)
(0.20683 -0.392806 0)
(0.184959 -0.320443 0)
(0.161222 -0.256077 0)
(0.137038 -0.200675 0)
(0.113422 -0.154168 0)
(0.0910298 -0.115838 0)
(0.0702077 -0.0846128 0)
(0.0510717 -0.0593029 0)
(0.0335903 -0.0387696 0)
(0.0176868 -0.0220214 0)
(0.00336455 -0.00829675 0)
(-0.00925624 0.00279836 0)
(-0.0201227 0.011279 0)
(-0.0291786 0.0170044 0)
(-0.0364017 0.0197771 0)
(-0.04171 0.0196599 0)