/*--------------------------------*- C++ -*----------------------------------*\
| =========                 |                                                 |
| \\      /  F ield         | OpenFOAM: The Open Source CFD Toolbox           |
|  \\    /   O peration     | Version:  v2012                                 |
|   \\  /    A nd           | Website:  www.openfoam.com                      |
|    \\/     M anipulation  |                                                 |
\*---------------------------------------------------------------------------*/
FoamFile
{
    version     2.0;
    format      ascii;
    class       volScalarField;
    location    "2000";
    object      age;
}
// * * * * * * * * * * * * * * * * * * * * * * * * * * * * * * * * * * * * * //

dimensions      [0 0 1 0 0 0 0];


internalField   nonuniform List<scalar> 
6502
(
0.0131737
0.0122983
0.0124171
0.0124631
0.0124705
0.0124705
0.012463
0.0124169
0.0122984
0.0131728
0.0413126
0.0365037
0.0365381
0.0369551
0.037066
0.0370657
0.0369543
0.0365372
0.0365016
0.0413066
0.0745831
0.0610141
0.0596761
0.0606279
0.0609785
0.0609776
0.0606265
0.0596732
0.0609997
0.0745527
0.114291
0.0866029
0.0819657
0.0833716
0.0840782
0.0840764
0.0833697
0.0819579
0.0865511
0.11419
0.161158
0.11369
0.103653
0.105239
0.106375
0.106372
0.105238
0.103632
0.113552
0.16089
0.214937
0.142066
0.124946
0.126368
0.127946
0.127943
0.126372
0.124896
0.14176
0.214336
0.274589
0.172204
0.146155
0.146905
0.148888
0.148888
0.146917
0.146046
0.171587
0.273406
0.338826
0.203918
0.167574
0.166987
0.169296
0.169301
0.167017
0.167358
0.202861
0.336691
0.406604
0.235226
0.189106
0.186739
0.189259
0.189274
0.186792
0.188718
0.233361
0.403001
0.477183
0.267052
0.210748
0.206248
0.208853
0.208887
0.206328
0.210097
0.263916
0.471368
0.550092
0.299541
0.232572
0.22559
0.228134
0.228198
0.225692
0.231502
0.294469
0.541252
0.625101
0.332797
0.25443
0.244792
0.247148
0.247253
0.244928
0.252804
0.324762
0.611243
0.702304
0.367103
0.277449
0.263963
0.265929
0.266093
0.264071
0.274415
0.354726
0.68437
0.78444
0.402851
0.300992
0.283173
0.284501
0.284739
0.283159
0.296398
0.384106
0.759035
0.869431
0.440357
0.324856
0.302499
0.302888
0.303208
0.302136
0.318307
0.412792
0.832113
0.956564
0.480035
0.348339
0.321939
0.321124
0.321517
0.320971
0.339866
0.440436
0.90085
1.0465
0.522637
0.371904
0.3415
0.339244
0.339676
0.339636
0.360906
0.466562
0.964007
1.13973
0.569175
0.396157
0.361254
0.357284
0.357693
0.358105
0.380677
0.490376
1.01714
1.23791
0.620849
0.421374
0.381312
0.375291
0.375581
0.376351
0.399598
0.511162
1.0586
1.34162
0.679631
0.448134
0.401816
0.393335
0.393366
0.394361
0.417426
0.526
1.05868
1.45418
0.74762
0.477591
0.423089
0.411592
0.411166
0.412246
0.434021
0.532229
0.977704
1.57683
0.825731
0.510802
0.445347
0.430175
0.429043
0.4301
0.449935
0.535925
0.914056
1.7136
0.915103
0.549022
0.469145
0.449172
0.446972
0.447936
0.465572
0.539506
0.855401
1.86449
1.01684
0.593908
0.495418
0.469219
0.465061
0.465785
0.481165
0.54367
0.80262
2.03939
1.13372
0.647393
0.522779
0.49024
0.483479
0.483717
0.49605
0.548814
0.757769
2.23505
1.26745
0.712392
0.552843
0.512444
0.502401
0.501817
0.510989
0.555007
0.721185
2.47309
1.42307
0.792304
0.586256
0.536152
0.522043
0.52016
0.526908
0.562424
0.692564
2.76029
1.60677
0.893214
0.626683
0.561984
0.542675
0.538896
0.543461
0.571284
0.671499
3.11002
1.82651
1.01801
0.678176
0.590618
0.564321
0.558147
0.560649
0.58174
0.657459
3.54606
2.09396
1.17196
0.745905
0.624532
0.588161
0.578206
0.578491
0.594082
0.649984
4.10972
2.42534
1.36195
0.836132
0.663324
0.614525
0.59954
0.597222
0.60681
0.648163
4.87049
2.85661
1.60487
0.960892
0.714098
0.644456
0.622598
0.617129
0.621919
0.651121
5.99439
3.39788
1.89721
1.12476
0.786935
0.680134
0.647431
0.638204
0.639056
0.65851
7.78637
4.38476
2.34423
1.3375
0.885605
0.725554
0.676594
0.661369
0.658169
0.670149
11.9695
4.74764
2.80886
1.6545
1.04721
0.792464
0.710582
0.686406
0.67968
0.681914
96.7187
18.3394
3.72031
1.96008
1.23808
0.897067
0.760379
0.715507
0.703215
0.697965
104.58
40.9038
6.88967
2.61155
1.47633
1.02723
0.831748
0.75466
0.730047
0.719634
101.72
79.9486
21.411
3.33565
1.8184
1.21467
0.937585
0.812313
0.764161
0.745856
98.7571
91.0211
50.1124
11.4514
2.25529
1.43864
1.08399
0.902141
0.815497
0.779433
97.5772
71.9544
67.273
31.5882
7.08563
1.74949
1.25043
1.02197
0.894807
0.829048
96.0576
67.0744
66.4213
53.8379
21.8212
4.67277
1.47031
1.15327
0.998571
0.903812
94.7361
64.8917
60.0389
60.9558
43.5975
16.5103
3.52968
1.31511
1.10521
0.996589
93.4296
63.2454
58.4669
59.6804
56.7291
36.9442
13.6991
3.04737
1.24474
1.09226
92.1676
61.9957
57.5134
57.9296
59.3135
53.7627
32.556
12.0444
2.78531
1.20778
91.6577
61.2774
56.7637
57.7815
59.5298
61.6044
51.6196
30.4688
11.5654
2.84191
91.6817
60.7158
56.1462
57.5437
61.2722
63.696
63.3696
50.9351
30.2428
12.1381
91.1214
60.1033
55.575
57.3537
62.316
66.916
69.1778
66.0665
52.1295
31.7687
90.4926
59.5225
55.044
57.0764
63.0164
69.8123
74.4956
75.6464
70.1999
55.2751
89.7875
58.9483
54.5375
56.7146
63.3158
71.619
79.3728
83.8388
83.5508
76.1364
88.8308
58.3514
54.0477
56.248
63.1513
72.4614
82.2965
90.5495
94.6877
92.9576
88.0253
57.8223
53.5788
55.5903
62.382
72.077
83.1908
94.0265
102.609
106.397
87.6263
57.4169
53.12
54.7008
60.8916
70.3101
81.728
93.9117
105.373
114.212
88.0202
57.2057
52.6649
53.5312
58.6966
67.1038
77.8129
89.9738
102.545
114.183
90.2511
57.371
52.2649
52.2119
55.9362
62.6735
71.7112
82.4802
94.3485
106.482
95.3434
58.2531
51.9885
51.0945
53.0123
57.5892
64.2618
72.6222
82.2482
92.6809
104.039
60.3816
52.3036
50.5174
50.6004
52.8097
56.7841
62.2416
68.8495
76.3092
120.31
65.3977
53.9774
50.4405
49.4977
49.4646
50.8316
53.3616
56.8712
61.1056
152.288
78.7515
57.8345
52.216
49.5313
48.3973
48.0451
48.0295
48.7671
50.069
216.699
114.628
65.741
56.8442
52.1562
49.4309
47.7691
46.7455
46.1776
45.8292
358.053
199.134
83.1838
65.0269
57.9451
53.5004
50.5539
48.4219
46.8168
45.571
77.6415
144.396
144.586
148.872
154.89
161.472
167.916
173.994
179.693
185.187
190.799
196.985
204.365
213.735
226.103
242.545
263.743
290.169
325.809
371.037
422.166
467.271
499.94
543.992
645.601
68.7168
125.792
110.495
112.224
113.618
115.747
118.064
120.395
122.664
124.899
127.195
129.746
132.774
136.568
141.664
149.13
161.016
181.013
216.844
278.843
367.79
482.383
562.52
576.82
651.044
54.1251
116.478
105.921
105.948
105.957
106.278
106.815
107.544
108.426
109.471
110.702
112.166
113.894
116.037
118.68
121.879
125.638
130.586
139.754
167.205
233.028
371.151
547.206
636.365
677.995
39.636
107.48
105.313
104.796
104.578
104.419
104.293
104.24
104.295
104.451
104.746
105.34
106.313
107.786
109.903
112.727
116.249
120.422
125.115
130.483
143.008
204.245
368.512
630.953
720.4
27.2444
95.9842
105.249
104.815
104.673
104.404
104.074
103.777
103.515
103.324
103.2
103.088
103.069
103.308
104.018
105.629
108.368
112.325
117.46
123.37
129.698
138.471
188.961
366.064
708.775
16.8659
82.7146
105.383
105.739
106.854
107.052
106.441
105.569
104.698
103.951
103.345
102.928
102.623
102.409
102.334
102.481
103.402
105.724
109.855
115.847
123.375
131.789
143.757
184.166
352.282
9.86035
64.4962
102.297
106.946
111.039
113.306
113.538
112.7
111.26
109.478
107.53
105.648
104.064
102.879
102.216
101.93
101.87
102.374
104.422
108.824
115.912
125.211
135.798
148.21
178.358
5.81183
45.9267
94.7024
108.09
114.882
120.292
122.662
123.122
122.339
120.641
118.173
115.059
111.505
107.874
104.774
102.691
101.746
101.535
101.886
103.982
109.27
118.056
129.207
141.338
156.809
3.5246
29.756
81.1413
107.414
117.233
126.51
132.182
135.134
136.114
135.546
133.562
130.189
125.544
119.916
113.832
108.111
103.869
101.705
101.323
101.678
104.375
111.644
122.852
134.83
145.798
2.23006
17.2588
63.2064
101.273
117.997
130.59
140.784
147.477
151.479
153.234
152.856
150.297
145.474
138.556
130.019
120.713
111.899
105.097
101.739
101.182
101.739
106.226
116.976
129.91
139.747
1.50675
8.7242
43.1802
87.7772
115.221
131.809
146.913
158.524
166.827
172.225
174.773
174.278
170.517
163.352
153.09
140.525
127.062
114.628
105.416
101.423
100.96
102.601
111.34
125.522
135.895
1.10302
4.51285
25.7358
68.3567
105.848
129.545
148.94
166.393
180.097
190.391
197.212
200.206
198.892
192.913
182.185
167.313
149.643
131.302
115.111
104.309
100.905
100.751
106.314
121.276
133.26
0.8875
2.55026
13.2293
46.9311
88.8113
121.57
146.177
168.948
189.005
205.17
217.454
225.298
227.943
224.688
215.091
199.344
178.627
155.019
131.586
112.359
102.043
100.213
102.665
116.932
131.45
0.782578
1.60039
5.94233
27.0852
65.8597
105.484
137.322
164.936
191.06
213.918
232.519
246.389
254.408
255.44
248.734
233.877
211.675
184.134
154.379
126.76
106.891
100.121
100.118
112.45
130.112
0.739382
1.1201
2.92708
13.0441
42.1453
81.9393
120.269
153.584
184.643
213.869
239.38
259.899
274.309
281.252
278.998
267.077
245.373
215.714
181.151
146.098
116.683
101.189
98.5878
107.983
129.134
0.72661
0.89117
1.70336
5.28895
21.8624
54.7867
94.7385
133.429
169.252
203.423
235.238
262.659
285.066
298.757
301.439
294.313
275.564
246.122
208.912
168.608
130.769
104.928
98.0036
104.011
128.4
0.73165
0.799707
1.14303
2.44037
9.12248
30.3331
64.5955
104.443
144.183
182.372
218.873
252.208
281.338
300.967
313.192
310.404
297.626
271.282
233.847
190.969
147.363
111.805
97.9503
100.728
127.874
0.743395
0.772702
0.898591
1.43185
3.33215
12.9769
36.4287
70.78
110.385
150.955
190.654
228.14
262.345
289.176
307.348
314.324
307.143
286.905
252.207
209.652
163.496
121.148
97.9377
97.5825
127.472
0.765346
0.77487
0.818669
1.00575
1.63333
4.3684
15.7188
39.3781
72.7209
111.436
151.918
191.67
229.064
261.37
285.772
300.169
302.402
288.771
260.302
221.382
176.217
131.391
99.006
94.381
127.15
0.798353
0.790227
0.804675
0.85614
1.07742
1.72234
5.03931
16.8379
39.1304
70.1786
106.757
145.549
183.856
219.13
248.441
269.07
278.311
273.776
254.961
223.198
182.482
139.302
101.812
91.1783
126.896
0.848991
0.822151
0.81662
0.830132
0.877885
1.09777
1.48531
4.875
15.7754
35.6214
63.2396
96.1855
131.568
166.536
198.13
223.367
239.336
243.725
234.794
212.655
179.998
141.884
104.532
87.979
126.691
0.922606
0.87458
0.849122
0.842163
0.85079
0.893431
1.01283
1.11342
3.7957
12.4261
28.9801
52.2721
80.3641
110.81
140.862
167.598
188.086
199.636
200.429
189.271
167.139
137.448
105.107
84.7299
126.519
1.01154
0.950518
0.905331
0.878626
0.867534
0.870877
0.899862
0.951222
1.04115
2.43075
8.16335
20.6218
38.8651
61.2752
85.7839
109.986
131.29
147.126
155.253
154.423
144.018
125.329
101.338
80.828
126.281
1.09224
1.03331
0.982839
0.940548
0.911532
0.89406
0.894443
0.909132
0.933884
1.04336
1.15193
4.10491
11.5805
24.532
41.2135
59.7643
78.1847
94.3916
106.39
112.575
112.244
105.146
92.0571
74.7911
109.312
1.2404
1.10929
1.05756
1.01578
0.978403
0.947753
0.925092
0.920216
0.926141
0.946921
0.983509
1.06986
1.60861
4.88523
11.8239
22.6971
35.5981
48.8294
60.7592
69.9669
75.3987
76.7722
74.0631
69.697
58.4667
3.31846
1.39476
1.16411
1.0939
1.0513
1.01791
0.987366
0.964063
0.952718
0.951956
0.959996
0.980458
1.04467
1.12994
1.44056
3.76078
8.45293
15.4802
23.8924
32.1582
39.1829
44.2705
47.1359
48.0613
47.8645
14.0123
4.53476
1.70686
1.27285
1.15085
1.09245
1.05741
1.02975
1.00852
0.991085
0.983236
0.985648
0.99547
1.02112
1.07162
1.14352
1.20685
1.94513
3.95805
7.14422
11.2051
15.6762
19.7149
22.9683
25.5095
35.4274
17.6369
6.62135
2.28958
1.4656
1.24842
1.15349
1.10361
1.07497
1.05358
1.03749
1.02513
1.01786
1.02221
1.03257
1.05824
1.08768
1.14381
1.19808
1.25375
1.40185
2.11556
3.28026
4.75905
6.44889
60.928
41.3675
22.9955
9.93445
3.57043
1.86472
1.43271
1.25815
1.17179
1.12734
1.10305
1.08667
1.07413
1.06431
1.05939
1.06565
1.07436
1.09296
1.11915
1.14849
1.187
1.23317
1.27676
1.32167
1.36824
84.3998
68.9782
49.2908
30.1557
14.9192
6.18223
2.73131
1.78641
1.44992
1.28772
1.20503
1.16295
1.14125
1.1278
1.11847
1.11149
1.11039
1.11315
1.12314
1.13561
1.15424
1.17779
1.20416
1.23253
1.26248
103.827
94.576
78.8053
59.0848
39.0019
22.0765
10.6408
4.64799
2.52109
1.81926
1.50719
1.34237
1.25617
1.21206
1.19015
1.17798
1.17155
1.16859
1.16868
1.17255
1.17968
1.19162
1.20515
1.22203
1.24146
117.963
115.079
105.442
89.7139
70.056
49.477
31.3709
17.3299
8.62048
4.15599
2.53989
1.91684
1.60569
1.42996
1.3325
1.28058
1.2541
1.2413
1.23568
1.23457
1.23666
1.24124
1.24858
1.25836
1.27045
123.038
127.531
124.26
115.16
100.094
81.0436
60.8138
41.8276
26.4103
14.9547
7.9544
4.25607
2.74899
2.1016
1.76471
1.5661
1.44796
1.38071
1.34383
1.32486
1.31651
1.3145
1.31672
1.32197
1.32969
117.407
125.603
129.414
127.606
119.944
106.631
89.5001
70.6154
52.3162
36.1601
23.4558
14.1141
8.20099
4.85468
3.19908
2.42635
2.01973
1.77986
1.62962
1.53599
1.47952
1.44671
1.42902
1.42115
1.41991
102.988
112.275
119.738
123.988
125.493
117.189
106.154
92.0522
76.0972
59.8602
44.8744
31.9925
21.8344
14.3245
9.19293
5.9922
4.0988
3.04493
2.47528
2.14268
1.93434
1.79844
1.70824
1.64875
1.61087
84.0537
91.5604
98.4545
104.087
107.563
107.966
104.876
96.6669
86.5827
74.6285
62.0015
49.6814
38.4813
28.8894
21.1264
15.2096
10.8708
7.79988
5.72977
4.3726
3.48819
2.92059
2.56203
2.32759
2.16855
65.7886
70.6136
75.4094
79.8868
83.5743
85.8679
86.2779
84.191
79.9929
73.8139
66.2515
57.8151
49.1987
40.8936
33.2944
26.6786
21.1461
16.6629
13.1354
10.4308
8.37962
6.82861
5.67422
4.82256
4.19741
51.837
53.8921
56.1448
58.4783
60.6995
62.5324
63.7213
63.9949
63.0915
60.9765
57.8962
53.9742
49.4068
44.4411
39.3357
34.4042
29.8321
25.7202
22.1113
19.0183
16.4171
14.2532
12.4687
11.0073
9.82144
45.4997
45.4179
45.5078
45.7311
46.0608
46.4485
46.8018
46.9832
46.8582
46.3597
45.5047
44.3003
42.7106
40.7522
38.4909
36.0748
33.6455
31.258
28.9508
26.7968
24.8421
23.0874
21.527
20.1544
18.9635
44.6027
43.8375
43.2339
42.7333
42.2632
41.8286
41.4208
41.0284
40.6368
40.2327
39.8012
39.3151
38.7358
38.0543
37.3797
36.6025
35.7816
34.9067
33.9224
32.966
32.0921
31.2851
30.5411
29.8691
29.2723
217.7
299.468
380.527
52.41
51.1674
51.0409
47.6154
47.588
47.6964
27.5127
29.1472
30.74
8.15554
9.849
11.5145
1.43419
1.62598
1.9214
1.29328
1.32486
1.35647
1.26231
1.28314
1.30486
1.28355
1.29809
1.31282
1.33871
1.34852
1.35965
1.42279
1.42822
1.43566
1.58862
1.57682
1.57129
2.06322
1.99189
1.93974
3.75462
3.44194
3.20749
8.90505
8.19261
7.59584
17.989
17.1996
16.513
28.8014
28.4009
28.0555
3810.86
3768.4
3698.94
3522.39
3037.71
2153.6
1298.68
905.061
765.257
692.924
641.588
601.317
567.941
541.098
519.352
500.604
483.794
467.662
452.629
438.856
425.844
413.274
401.863
394.311
392.62
375.425
360.397
348.792
338.92
330.847
323.154
315.61
308.849
302.525
296.609
291.107
286.016
281.314
276.973
272.984
269.324
265.974
262.92
260.147
257.629
255.34
253.257
251.366
249.651
248.085
246.651
245.334
244.162
243.102
242.116
241.184
240.321
239.524
238.764
238.044
237.366
236.694
236.066
235.406
234.906
234.545
234.423
234.6
235.368
236.964
239.742
244.051
250.792
262.667
281.357
311.745
353.179
413.795
473.449
557.176
3375.22
3311.2
3192.05
2811.49
2032.8
1271.58
843.612
681.161
604.359
551.334
510.818
478.238
451.161
429.377
411.61
395.996
381.932
369.299
358.212
348.45
339.875
332.671
327.067
323.063
320.24
313.501
304.061
296.789
290.841
285.601
280.739
276.222
272.035
268.094
264.384
260.9
257.638
254.638
251.968
249.573
247.463
245.623
244.003
242.473
241.05
239.717
238.452
237.236
236.046
234.947
234.139
233.564
232.977
232.404
231.852
231.328
230.831
230.387
229.942
229.537
229.159
228.814
228.492
227.982
227.149
226.006
224.552
222.854
221.057
219.321
218.626
218.13
217.534
218.384
223.078
239.072
274.517
352.838
489.268
602.691
2883.68
2765.86
2448.26
1837.88
1172.93
768.087
605.265
531.489
480.029
441.051
410.807
386.617
366.939
351.295
338.7
327.958
318.644
310.616
303.715
297.687
292.365
287.655
283.458
279.655
276.027
272.145
268.239
264.823
261.82
259.136
256.737
254.606
252.719
251.063
249.612
248.282
247.086
246.004
245.002
244.101
243.457
243.022
242.586
242.172
241.832
241.689
241.897
242.513
243.609
245.254
247.463
250.204
253.511
257.289
261.348
265.547
269.714
273.642
277.082
279.793
281.519
282.037
281.187
278.955
275.312
270.274
263.956
256.566
248.412
239.915
231.7
224.817
218.643
214.551
213.041
213.041
216.165
237.971
322.829
513.101
2493.89
2255.65
1742.84
1141.57
729.044
554.822
484.139
435.307
397.604
369.365
347.707
330.794
317.425
306.949
298.577
291.573
285.635
280.592
276.282
272.557
269.364
266.607
264.185
262.035
260.109
258.371
256.83
255.464
254.158
252.886
251.701
250.672
249.783
249.021
248.438
247.955
247.513
247.14
247.072
247.358
248.036
249.136
250.852
253.456
257.1
261.699
267.237
273.75
281.203
289.518
298.571
308.208
318.224
328.355
338.392
348.088
357.095
365.053
371.579
376.312
378.924
379.13
376.698
371.479
363.42
352.603
339.273
323.834
306.837
288.957
270.972
253.738
238.199
225.274
215.998
211.453
210.626
213.173
223.617
253.861
2182.52
1811.31
1222.36
755.227
536.083
457.157
410.288
372.802
345.451
325.482
310.563
299.263
290.585
283.902
278.644
274.37
270.872
268.024
265.703
263.754
262.096
260.627
259.19
257.895
256.758
255.72
254.782
253.949
253.257
252.75
252.257
251.847
251.681
251.766
252.162
252.985
254.458
256.74
259.813
263.773
268.745
274.867
282.252
290.91
300.778
311.841
324.196
337.765
352.449
368.112
384.573
401.608
418.944
436.257
453.164
469.215
483.902
496.67
506.901
513.995
517.419
516.723
511.547
501.68
487.096
467.969
444.762
418.18
389.156
358.794
328.302
298.92
271.854
248.251
229.217
215.904
209.621
208.604
212.428
223.317
1925.13
1457.04
886.607
563.052
448.749
399.382
361.021
332.858
313.503
299.768
289.863
282.607
277.202
273.133
269.999
267.519
265.547
263.881
262.48
261.238
260.145
259.176
258.348
257.756
257.219
256.677
256.328
256.199
256.335
256.805
257.75
259.243
261.292
264.009
267.518
271.949
277.395
283.899
291.556
300.559
310.992
322.936
336.441
351.538
368.256
386.625
406.633
428.202
451.222
475.524
500.876
526.963
553.382
579.631
605.108
629.12
650.893
669.583
684.272
694.078
698.243
696.121
687.197
671.218
648.179
618.372
582.499
541.625
497.149
450.732
404.187
359.334
317.869
281.272
250.802
227.585
212.774
207.543
207.349
213.648
1713.06
1189.48
681.028
467.506
399.891
359.294
328.33
308.026
294.597
285.391
278.986
274.421
271.087
268.597
266.685
265.175
263.964
262.971
262.216
261.683
261.122
260.787
260.712
260.922
261.481
262.458
263.838
265.682
268.057
271.037
274.691
279.06
284.281
290.476
297.754
306.227
316.005
327.216
340
354.488
370.787
389.002
409.23
431.561
456.062
482.763
511.646
542.637
575.592
610.273
646.336
683.31
720.593
757.446
792.998
826.26
856.141
881.478
901.075
913.847
918.818
915.076
901.865
878.84
846.016
803.811
753.124
695.355
632.388
566.511
500.276
436.286
376.961
324.334
279.962
245.018
220.558
207.869
204.936
207.508
1536.99
992.532
558.667
416.097
366.126
330.905
307.307
293.004
283.797
277.702
273.567
270.671
268.595
267.1
266.047
265.37
264.85
264.588
264.721
265.254
266.231
267.623
269.431
271.675
274.385
277.567
281.304
285.653
290.686
296.483
303.134
310.749
319.457
329.383
340.66
353.434
367.862
384.107
402.331
422.697
445.368
470.506
498.26
528.76
562.097
598.311
637.376
679.179
723.497
769.974
818.107
867.231
916.515
964.966
1011.43
1054.64
1093.19
1125.63
1150.53
1166.55
1172.45
1167.07
1149.46
1119.15
1076.09
1020.77
954.191
878.011
794.513
706.576
617.534
530.93
450.174
378.166
317.037
268.156
232.472
211
204.118
203.728
1390.24
843.444
482.935
382.838
340.857
311.415
294.152
284.12
277.816
273.772
271.113
269.37
268.3
267.781
267.57
268.01
269.057
270.705
272.89
275.568
278.719
282.34
286.433
291.016
296.123
301.806
308.137
315.191
323.058
331.846
341.674
352.677
365
378.802
394.257
411.55
430.88
452.453
476.482
503.187
532.789
565.498
601.504
640.96
683.967
730.551
780.644
834.055
890.451
949.334
1010.03
1071.68
1133.22
1193.45
1250.95
1304.19
1351.52
1391.25
1421.67
1441.16
1448.16
1441.32
1419.57
1382.3
1329.37
1261.22
1178.91
1084.21
979.661
868.549
754.876
643.125
537.871
443.231
362.324
297.018
248.233
216.751
203.586
201.225
1263.06
733.389
436.328
358.661
321.99
298.475
286.06
278.967
274.651
272.051
270.594
269.994
270.012
271.019
272.925
275.652
279.074
283.144
287.765
292.891
298.495
304.573
311.139
318.227
325.888
334.192
343.222
353.076
363.872
375.741
388.831
403.305
419.345
437.147
456.927
478.916
503.358
530.512
560.643
594.021
630.908
671.548
716.151
764.873
817.798
874.91
936.072
1001
1069.25
1140.19
1212.98
1286.61
1359.84
1431.26
1499.26
1562.09
1617.88
1664.67
1700.49
1723.43
1731.7
1723.75
1698.36
1654.8
1592.85
1512.93
1416.1
1304.17
1179.73
1046.24
908.062
770.387
638.907
519.18
415.788
331.618
267.841
224.949
204.247
199.6
1153.9
651.904
404.592
340.03
308.248
290.063
281.111
276.069
273.278
272.081
271.804
272.872
275.264
278.813
283.402
288.837
294.979
301.722
308.982
316.715
324.904
333.556
342.698
352.382
362.675
373.664
385.453
398.166
411.943
426.943
443.344
461.342
481.156
503.021
527.193
553.945
583.567
616.358
652.622
692.662
736.763
785.179
838.118
895.718
958.024
1024.97
1096.33
1171.75
1250.69
1332.39
1415.93
1500.15
1583.7
1665.01
1742.33
1813.73
1877.13
1930.32
1971.09
1997.25
2006.79
1997.95
1969.39
1920.33
1850.58
1760.48
1651.16
1524.41
1382.76
1229.59
1069.25
907.201
749.886
604.231
476.6
371.545
291.085
235.504
205.914
198.562
1057.34
589.304
380.75
325.424
298.448
284.633
278.144
274.757
273.555
273.672
275.715
279.503
284.816
291.376
298.949
307.316
316.325
325.864
335.864
346.293
357.144
368.44
380.223
392.559
405.533
419.251
433.836
449.433
466.207
484.342
504.045
525.543
549.085
574.94
603.397
634.761
669.351
707.492
749.51
795.717
846.4
901.805
962.119
1027.44
1097.78
1173.01
1252.85
1336.86
1424.44
1514.76
1606.83
1699.43
1791.15
1880.33
1965.13
2043.46
2113.05
2171.5
2216.33
2245.09
2255.57
2245.86
2214.44
2160.7
2084.62
1986.49
1867.4
1729.15
1574.16
1405.59
1227.46
1044.99
864.793
694.693
542.79
415.803
317.409
248.229
208.693
197.653
1026.86
546.26
361.957
313.913
291.537
281.142
276.559
274.955
275.205
278.001
283.067
290.085
298.658
308.433
319.123
330.513
342.455
354.853
367.651
380.829
394.395
408.383
422.85
437.874
453.554
470.012
487.387
505.844
525.564
546.754
569.641
594.474
621.524
651.083
683.458
718.973
757.957
800.745
847.661
899.011
955.067
1016.05
1082.11
1153.31
1229.6
1310.8
1396.6
1486.5
1579.91
1675.95
1773.62
1871.67
1968.69
2062.99
2152.64
2235.41
2308.81
2370.18
2416.88
2446.48
2456.92
2446.43
2413.5
2356.7
2276.01
2172.61
2047.29
1901.77
1738.31
1559.78
1369.77
1172.85
975.19
784.772
610.927
462.613
345.889
262.599
212.685
196.884
955.533
506.801
346.257
304.852
286.624
278.919
276.448
276.279
279.347
285.394
293.928
304.429
316.398
329.447
343.29
357.728
372.63
387.914
403.538
419.494
435.801
452.502
469.663
487.371
505.735
524.885
544.974
566.173
588.678
612.706
638.495
666.306
696.418
729.131
764.757
803.618
846.041
892.349
942.849
997.824
1057.51
1122.1
1191.7
1266.33
1345.9
1430.2
1518.87
1611.42
1707.21
1805.4
1904.99
2004.74
2103.2
2198.61
2288.83
2371.34
2443.34
2502.02
2545.09
2571.1
2579.41
2570.25
2542.18
2489.13
2406.43
2301.12
2173.86
2026.18
1860
1677.85
1482.84
1278.8
1071
866.814
675.978
509.181
375.154
277.87
217.68
196.226
880.267
469.365
333.149
297.809
283.108
278.083
277.174
279.692
286.151
295.837
308.035
322.083
337.447
353.747
370.718
388.183
406.027
424.183
442.621
461.339
480.364
499.742
519.544
539.858
560.797
582.493
605.102
628.796
653.772
680.247
708.46
738.669
771.151
806.195
844.104
885.185
929.745
978.08
1030.47
1087.16
1148.34
1214.17
1284.7
1359.93
1439.72
1523.83
1611.89
1703.39
1797.7
1893.98
1991.24
2088.28
2183.63
2275.48
2361.65
2439.62
2506.71
2560.51
2598.98
2619.56
2623.36
2606.5
2583.11
2540.63
2460.6
2357.31
2232.9
2088.61
1925.94
1746.99
1554.35
1351.15
1141.63
932.029
731.476
551.507
403.174
293.163
223.242
195.654
821.837
439.851
322.587
292.267
281.064
278.301
279.421
285.346
295.561
309.042
324.906
342.429
361.093
380.548
400.555
420.96
441.662
462.607
483.768
505.15
526.778
548.699
570.978
593.703
616.978
640.932
665.714
691.486
718.436
746.773
776.721
808.526
842.446
878.752
917.72
959.631
1004.76
1053.36
1105.68
1161.91
1222.22
1286.69
1355.36
1428.17
1504.96
1585.45
1669.27
1755.89
1844.7
1934.87
2025.44
2115.29
2202.97
2286.83
2364.92
2435.04
2494.97
2542.58
2577.49
2593.1
2595.4
2583.35
2555.21
2505.41
2429.61
2332.35
2215.37
2079.68
1926.43
1757.24
1574.17
1379.65
1176.99
971.15
769.875
584.344
426.937
307.103
228.861
195.147
761.837
415.231
313.771
288.007
280.251
279.222
283.475
293.2
307.299
324.519
343.891
364.7
386.47
408.886
431.739
454.893
478.259
501.788
525.457
549.268
573.241
597.415
621.85
646.619
671.818
697.56
723.973
751.208
779.435
808.84
839.629
872.019
906.243
942.539
981.151
1022.32
1066.28
1113.25
1163.42
1216.94
1273.93
1334.44
1398.45
1465.88
1536.52
1610.11
1686.24
1764.41
1843.98
1924.19
2004.13
2082.76
2158.82
2230.89
2297.35
2356.48
2406.6
2445.61
2474.23
2488.54
2487.73
2470.87
2436.75
2384.44
2313.89
2225.33
2119.16
1996
1856.79
1702.77
1535.42
1356.56
1168.65
975.497
783.311
601.659
442.623
317.775
233.865
194.686
717.609
394.626
306.235
285.188
280.385
281.465
289.358
303.013
320.881
341.586
364.152
387.918
412.46
437.502
462.858
488.408
514.073
539.804
565.576
591.384
617.24
643.171
669.22
695.446
721.926
748.755
776.038
803.903
832.494
861.972
892.51
924.296
957.524
992.398
1029.12
1067.89
1108.9
1152.31
1198.27
1246.9
1298.25
1352.35
1409.14
1468.51
1530.24
1594.05
1659.56
1726.26
1793.57
1860.78
1927.07
1991.52
2053.08
2110.59
2162.78
2208.33
2245.93
2274.19
2292.05
2298.2
2291.54
2271.25
2236.63
2187.23
2122.8
2043.33
1949.03
1840.34
1717.92
1582.59
1435.35
1277.49
1110.8
938.138
764.288
596.719
445.698
322.908
237.324
194.256
676.717
376.44
300.05
283.661
280.863
285.154
296.899
314.322
335.586
359.302
384.552
410.753
437.535
464.656
491.955
519.321
546.68
573.983
601.198
628.311
655.32
682.238
709.09
735.917
762.777
789.736
816.879
844.305
872.131
900.485
929.507
959.347
990.164
1022.12
1055.37
1090.08
1126.39
1164.42
1204.28
1246.03
1289.72
1335.31
1382.75
1431.89
1482.53
1534.39
1587.1
1640.22
1693.23
1745.51
1796.35
1845
1890.59
1932.22
1968.93
1999.73
2023.63
2039.69
2046.96
2044.55
2031.81
2008.12
1973.02
1926.18
1867.44
1796.79
1714.4
1620.57
1515.74
1400.49
1275.56
1141.93
1001.04
855.074
707.453
563.461
430.753
319
237.569
193.815
634.157
359.584
295.019
283.12
282.395
290.221
305.652
326.324
350.302
376.278
403.44
431.287
459.504
487.879
516.271
544.576
572.724
600.659
628.344
655.754
682.873
709.698
736.239
762.517
788.566
814.433
840.174
865.866
891.593
917.453
943.548
969.997
996.922
1024.44
1052.69
1081.76
1111.78
1142.83
1174.97
1208.24
1242.65
1278.17
1314.71
1352.13
1390.26
1428.83
1467.54
1506.01
1543.79
1580.4
1615.27
1647.8
1677.34
1703.2
1724.69
1741.1
1751.73
1755.91
1752.96
1742.4
1723.77
1696.68
1660.85
1616.12
1562.42
1499.79
1428.39
1348.48
1260.47
1164.89
1062.48
954.236
841.512
726.126
610.511
497.956
392.957
301.92
232.302
192.843
591.593
343.805
291.439
283.359
284.922
296.257
314.714
337.661
363.268
390.39
418.344
446.708
475.213
503.677
531.969
559.995
587.681
614.969
641.814
668.18
694.042
719.382
744.195
768.488
792.276
815.586
838.455
860.934
883.083
904.973
926.678
948.282
969.876
991.55
1013.39
1035.49
1057.91
1080.71
1103.94
1127.62
1151.74
1176.25
1201.08
1226.12
1251.21
1276.13
1300.66
1324.48
1347.26
1368.64
1388.18
1405.46
1420
1431.33
1438.98
1442.41
1441.15
1434.8
1423.01
1405.43
1381.8
1351.92
1315.63
1272.87
1223.66
1168.11
1106.47
1039.09
966.505
889.421
808.758
725.666
641.53
557.939
476.648
399.524
328.661
267.004
218.187
188.57
548.489
330.005
289.277
283.721
288.154
302.155
322.107
345.726
371.382
398.109
425.335
452.711
479.996
507.03
533.693
559.891
585.549
610.605
635.009
658.719
681.702
703.934
725.399
746.092
766.018
785.192
803.638
821.39
838.49
854.989
870.942
886.412
901.464
916.164
930.578
944.765
958.78
972.663
986.444
1000.13
1013.72
1027.17
1040.42
1053.39
1065.96
1077.98
1089.27
1099.63
1108.81
1116.55
1122.58
1126.58
1128.23
1127.22
1123.24
1116.01
1105.25
1090.7
1072.11
1049.31
1022.12
990.486
954.372
913.852
869.1
820.399
768.156
712.923
655.406
596.469
537.125
478.516
421.865
368.42
319.4
275.92
239.118
210.283
190.092
180.983
496.184
313.513
286.986
284.184
289.777
304.878
324.285
346.457
370.133
394.527
419.159
443.717
467.982
491.798
515.047
537.638
559.493
580.552
600.764
620.085
638.48
655.925
672.402
687.904
702.434
716.002
728.628
740.34
751.173
761.17
770.376
778.843
786.624
793.775
800.347
806.391
811.948
817.055
821.735
825.998
829.834
833.221
836.122
838.477
840.207
841.213
841.374
840.551
838.589
835.317
830.554
824.121
815.83
805.49
792.913
777.929
760.385
740.16
717.17
691.381
662.82
631.583
597.853
561.883
523.993
484.593
444.19
403.392
362.882
323.4
285.705
250.542
218.608
190.543
166.954
148.484
136.289
131.906
140.006
166.088
421.679
319.231
301.422
292.227
292.145
300.767
314.748
331.898
350.794
370.519
390.475
410.309
429.781
448.711
466.961
484.421
501.008
516.654
531.31
544.936
557.5
568.986
579.383
588.692
596.921
604.09
610.223
615.351
619.513
622.753
625.119
626.655
627.402
627.403
626.696
625.319
623.305
620.683
617.472
613.689
609.34
604.419
598.912
592.788
586.01
578.528
570.281
561.202
551.212
540.227
528.161
514.933
500.471
484.717
467.63
449.194
429.425
408.372
386.124
362.81
338.606
313.718
288.443
262.89
237.307
212.11
187.742
164.625
143.124
123.538
106.084
90.906
78.0744
67.6175
59.5419
53.9832
51.0008
52.3848
58.7911
85.0726
96.6352
154.392
213.18
255.164
275.385
285.668
295.286
306.021
318.015
331.002
344.601
357.94
370.768
382.971
394.458
405.151
414.982
423.893
431.839
438.787
444.714
449.608
453.466
456.288
458.06
458.777
458.444
457.074
454.689
451.32
447.005
441.798
435.76
428.956
421.455
413.33
404.647
395.472
385.865
375.88
365.56
354.943
344.059
332.927
321.564
309.974
298.17
286.12
273.728
260.995
247.947
234.62
221.058
207.311
193.438
179.51
165.604
151.812
138.231
124.966
112.126
99.8164
88.1454
77.188
67.1881
58.2728
50.4271
43.5918
37.693
32.6533
28.3954
24.8458