/*--------------------------------*- C++ -*----------------------------------*\
| =========                 |                                                 |
| \\      /  F ield         | OpenFOAM: The Open Source CFD Toolbox           |
|  \\    /   O peration     | Version:  v2012                                 |
|   \\  /    A nd           | Website:  www.openfoam.com                      |
|    \\/     M anipulation  |                                                 |
\*---------------------------------------------------------------------------*/
FoamFile
{
    version     2.0;
    format      ascii;
    class       volScalarField;
    location    "2000";
    object      k;
}
// * * * * * * * * * * * * * * * * * * * * * * * * * * * * * * * * * * * * * //

dimensions      [0 2 -2 0 0 0 0];


internalField   nonuniform List<scalar> 
6502
(
0.0602532
0.0817774
0.101985
0.107545
0.108821
0.108821
0.107548
0.101992
0.0817857
0.0602563
0.0350783
0.0479838
0.0794483
0.0943312
0.09881
0.0988169
0.0943523
0.0794824
0.0480046
0.0350907
0.0225326
0.0284677
0.0598147
0.0811046
0.0891528
0.0891733
0.0811598
0.0598828
0.0284976
0.0225617
0.0147814
0.0175739
0.0448186
0.0689236
0.0798686
0.0799104
0.0690228
0.0449191
0.0176113
0.0148305
0.0101769
0.0114374
0.0340539
0.0583819
0.0711455
0.0712161
0.0585346
0.0341853
0.0114809
0.0102463
0.00761935
0.00789729
0.026468
0.0495762
0.0631553
0.063262
0.0497897
0.0266276
0.00794692
0.00771002
0.00615321
0.00577066
0.0210888
0.0423289
0.0559738
0.0561223
0.0426064
0.0212789
0.00582791
0.00626805
0.00527153
0.00443019
0.017196
0.0363928
0.0496033
0.0497969
0.0367391
0.017419
0.00449644
0.00541859
0.00471356
0.00354672
0.0143126
0.0315005
0.0439923
0.04424
0.0319296
0.0145701
0.00362383
0.00490489
0.00433291
0.00293785
0.0121219
0.0274364
0.0390636
0.0393741
0.0279463
0.0124213
0.00302829
0.00458135
0.00405078
0.00249877
0.0104037
0.0240353
0.0347416
0.0351204
0.0246406
0.0107573
0.00260615
0.00437319
0.00382285
0.00216738
0.0090138
0.021156
0.0309508
0.0314067
0.0218717
0.0094315
0.00229628
0.00424296
0.00362241
0.00190643
0.0078642
0.0186956
0.0276174
0.0281545
0.0195422
0.0083573
0.00206238
0.00417061
0.0034318
0.00169278
0.00689332
0.0165719
0.0246706
0.0252837
0.0175874
0.00747838
0.00188306
0.00414622
0.00324032
0.00151177
0.0060601
0.0147146
0.0220519
0.0227424
0.0159035
0.00677432
0.00175807
0.00416974
0.0030413
0.00135373
0.00533411
0.0130709
0.0197166
0.0204848
0.0144434
0.00620708
0.00167888
0.00425159
0.00282966
0.00121199
0.00469298
0.0116027
0.0176247
0.0184711
0.0131727
0.00575316
0.00163884
0.00441278
0.00260139
0.00108174
0.00412003
0.0102795
0.0157395
0.0166667
0.0120626
0.00539741
0.0016388
0.00468589
0.00235466
0.000959614
0.00360327
0.00907834
0.0140339
0.015042
0.0110915
0.00513032
0.00168693
0.00516119
0.00209111
0.00084353
0.00313459
0.00798233
0.0124807
0.0135701
0.0102375
0.00494839
0.00177297
0.00551416
0.00181493
0.000731934
0.00270594
0.00697301
0.0110526
0.0122175
0.00948176
0.00485701
0.00175622
0.0015783
0.00153596
0.000625871
0.0023181
0.00605252
0.0097485
0.0109786
0.00880628
0.00483079
0.00188092
0.000930142
0.00126708
0.00052669
0.00197005
0.00521834
0.00855437
0.00983924
0.00818359
0.0048258
0.0020864
0.000891212
0.00101892
0.000435978
0.00166076
0.00446906
0.00746753
0.00878995
0.00759598
0.00481408
0.00232562
0.00103604
0.000797901
0.000354916
0.00138858
0.00380186
0.00648443
0.00782369
0.00703371
0.00477878
0.0025676
0.00125597
0.000606817
0.000284075
0.00115126
0.0032124
0.00560013
0.0069333
0.00648905
0.00470966
0.00278845
0.00150624
0.000446345
0.000223502
0.000946224
0.00269538
0.00480906
0.00611334
0.00595718
0.00460004
0.00297085
0.00176009
0.000315806
0.000172852
0.00077076
0.00224516
0.00410652
0.00537177
0.00543913
0.00444558
0.00310297
0.00199766
0.000213356
0.000131482
0.000622154
0.00185599
0.00348553
0.00469698
0.00493694
0.00425257
0.00317799
0.00220254
0.000136231
9.85121e-05
0.000497682
0.00152215
0.00293964
0.00408524
0.0044539
0.00402851
0.00319563
0.00236193
8.09482e-05
7.2888e-05
0.000394597
0.00123793
0.00246214
0.00353293
0.00399364
0.00377856
0.00316017
0.00247001
4.36839e-05
5.34695e-05
0.00031022
0.000997924
0.00204663
0.0030364
0.00355854
0.00351057
0.00307631
0.00252468
2.05444e-05
3.911e-05
0.000241974
0.000797121
0.0016872
0.00259194
0.00315058
0.00323309
0.00295608
0.00253032
7.77189e-06
2.87054e-05
0.000187384
0.000630785
0.0013783
0.00219569
0.00277053
0.00295363
0.00280733
0.00249382
2.12451e-06
2.12856e-05
0.000144165
0.000494475
0.00111482
0.00184389
0.00241817
0.00267748
0.00263901
0.00242397
1.22976e-06
1.6111e-05
0.000110357
0.000384137
0.000892156
0.00153317
0.00209274
0.00240819
0.00245914
0.0023299
2.8623e-06
1.25157e-05
8.41906e-05
0.000295995
0.0007061
0.00126058
0.00179323
0.00214741
0.00227273
0.00221924
5.10242e-06
9.92229e-06
6.40212e-05
0.00022639
0.000552598
0.00102356
0.00151879
0.00189586
0.00208274
0.00209744
7.34703e-06
7.97368e-06
4.83874e-05
0.000171802
0.000427554
0.000819766
0.00126899
0.00165389
0.00189013
0.00196718
9.32895e-06
6.55071e-06
3.6491e-05
0.000129626
0.000327358
0.000647194
0.00104399
0.00142217
0.00169488
0.00182852
1.05449e-05
5.43338e-06
2.74373e-05
9.74271e-05
0.00024846
0.000503824
0.000844499
0.0012024
0.00149726
0.00168002
1.0798e-05
4.49655e-06
2.05958e-05
7.28322e-05
0.000187063
0.000387002
0.000671171
0.000997244
0.00129878
0.00152016
1.0844e-05
3.75764e-06
1.54018e-05
5.3869e-05
0.000139727
0.000293618
0.000524119
0.000810106
0.00110291
0.00134907
1.05682e-05
3.16772e-06
1.1592e-05
4.00909e-05
0.000103953
0.000221051
0.000403839
0.00064624
0.000917366
0.00117236
9.72528e-06
2.65307e-06
8.72342e-06
2.97486e-05
7.64584e-05
0.000164797
0.00030687
0.000505934
0.000746295
0.000994474
8.90567e-06
2.27337e-06
6.58605e-06
2.20561e-05
5.63529e-05
0.000121039
0.000229707
0.000388592
0.00059329
0.000822571
8.33332e-06
1.96188e-06
4.96308e-06
1.63138e-05
4.14304e-05
8.84855e-05
0.000169307
0.000292857
0.000460663
0.000662283
7.84138e-06
1.71443e-06
3.75839e-06
1.20909e-05
3.05073e-05
6.4746e-05
0.000123041
0.000216792
0.00034962
0.000518871
7.44836e-06
1.52776e-06
2.89112e-06
9.04813e-06
2.26544e-05
4.77298e-05
8.99805e-05
0.000157453
0.000259769
0.000396224
7.10276e-06
1.38433e-06
2.28546e-06
6.92005e-06
1.70884e-05
3.56398e-05
6.64627e-05
0.000115172
0.000189399
0.000295816
6.6157e-06
1.24657e-06
1.8562e-06
5.45678e-06
1.32274e-05
2.70197e-05
4.95814e-05
8.48072e-05
0.000137988
0.000216116
5.8909e-06
1.08882e-06
1.52385e-06
4.38263e-06
1.04527e-05
2.09371e-05
3.74816e-05
6.25931e-05
0.000100429
0.000156064
4.88511e-06
8.97627e-07
1.23355e-06
3.50005e-06
8.22415e-06
1.61916e-05
2.84427e-05
4.65441e-05
7.29225e-05
0.000111118
3.63468e-06
6.74439e-07
9.5094e-07
2.68316e-06
6.21696e-06
1.20537e-05
2.08641e-05
3.36732e-05
5.2038e-05
7.82175e-05
2.31857e-06
4.43548e-07
6.70231e-07
1.8907e-06
4.31809e-06
8.25417e-06
1.41273e-05
2.26123e-05
3.47229e-05
5.18958e-05
1.18719e-06
2.42154e-07
4.1125e-07
1.16176e-06
2.60971e-06
4.91891e-06
8.34428e-06
1.32962e-05
2.03849e-05
3.04599e-05
4.3308e-07
1.01045e-07
2.05178e-07
5.78561e-07
1.27358e-06
2.36715e-06
3.98809e-06
6.34234e-06
9.73002e-06
1.45639e-05
8.38074e-08
2.75911e-08
7.5064e-08
2.11326e-07
4.58729e-07
8.49496e-07
1.43389e-06
2.28819e-06
3.51907e-06
5.26897e-06
3.68047e-09
5.05767e-09
2.25151e-08
7.30001e-08
1.78582e-07
3.64002e-07
6.56529e-07
1.09105e-06
1.70859e-06
2.55455e-06
9.88413e-10
2.63836e-09
4.00076e-08
2.04999e-07
6.07462e-07
1.37103e-06
2.62302e-06
4.50424e-06
7.16752e-06
1.07645e-05
0.000580612
0.000196555
0.000163141
0.000110107
7.20838e-05
4.74825e-05
3.27278e-05
2.36156e-05
1.75767e-05
1.33164e-05
1.01131e-05
7.57185e-06
5.49324e-06
3.79095e-06
2.43671e-06
1.42081e-06
7.23169e-07
3.00106e-07
8.81213e-08
1.34821e-08
6.82667e-09
1.432e-08
1.3746e-08
6.58959e-09
1.65292e-09
0.000277393
7.61989e-05
3.432e-05
1.97702e-05
1.23627e-05
8.04856e-06
5.48871e-06
3.91735e-06
2.89457e-06
2.18657e-06
1.66469e-06
1.25824e-06
9.30188e-07
6.62833e-07
4.48709e-07
2.84365e-07
1.66068e-07
8.77898e-08
4.24675e-08
1.99679e-08
1.03203e-08
5.99628e-09
3.29403e-09
1.932e-09
7.53182e-09
0.000324277
0.000106496
4.22884e-05
1.97063e-05
1.07067e-05
6.39428e-06
4.08625e-06
2.77043e-06
1.98707e-06
1.50169e-06
1.18532e-06
9.6459e-07
7.9734e-07
6.59609e-07
5.38488e-07
4.28065e-07
3.2693e-07
2.36517e-07
1.59913e-07
9.91266e-08
5.44577e-08
2.49084e-08
8.59813e-09
3.42498e-09
1.46002e-08
0.000446906
0.000184619
8.07362e-05
3.97461e-05
2.14608e-05
1.26826e-05
7.99478e-06
5.34935e-06
3.81758e-06
2.91812e-06
2.37629e-06
2.02873e-06
1.7775e-06
1.5644e-06
1.35702e-06
1.14112e-06
9.16144e-07
6.91421e-07
4.81871e-07
3.026e-07
1.64592e-07
7.22575e-08
2.2491e-08
5.28111e-09
1.38759e-08
0.000615619
0.000299565
0.000142987
7.51903e-05
4.20538e-05
2.49635e-05
1.57175e-05
1.04713e-05
7.45337e-06
5.71336e-06
4.69734e-06
4.07036e-06
3.62889e-06
3.25075e-06
2.86713e-06
2.44743e-06
1.9905e-06
1.5176e-06
1.06393e-06
6.67992e-07
3.60554e-07
1.55798e-07
4.69395e-08
7.86205e-09
5.61469e-09
0.000818988
0.000447283
0.000237996
0.000129972
7.49235e-05
4.45586e-05
2.7716e-05
1.81982e-05
1.27794e-05
9.71615e-06
7.98336e-06
6.96059e-06
6.27114e-06
5.68874e-06
5.08432e-06
4.3975e-06
3.62145e-06
2.7921e-06
1.9751e-06
1.24746e-06
6.75077e-07
2.91788e-07
8.79931e-08
1.43097e-08
3.88683e-09
0.00104597
0.000625443
0.000368443
0.000208958
0.000123383
7.43929e-05
4.56485e-05
2.92813e-05
2.00936e-05
1.50148e-05
1.22444e-05
1.06998e-05
9.7296e-06
8.94394e-06
8.1171e-06
7.1357e-06
5.97427e-06
4.68102e-06
3.36145e-06
2.15139e-06
1.17751e-06
5.14767e-07
1.59328e-07
3.3874e-08
5.09849e-08
0.00128323
0.000827855
0.00052762
0.000323144
0.00019356
0.000117667
7.23029e-05
4.54444e-05
3.02687e-05
2.20658e-05
1.77519e-05
1.54965e-05
1.42123e-05
1.32538e-05
1.22419e-05
1.09715e-05
9.373e-06
7.49584e-06
5.49166e-06
3.58165e-06
1.99479e-06
8.88543e-07
2.88085e-07
9.26043e-08
2.9876e-07
0.0015156
0.00104461
0.00071226
0.000469823
0.00029249
0.000179475
0.000110575
6.91578e-05
4.5081e-05
3.18465e-05
2.51064e-05
2.17954e-05
2.01227e-05
1.90367e-05
1.79142e-05
1.63959e-05
1.43232e-05
1.17227e-05
8.7907e-06
5.86459e-06
3.33643e-06
1.51681e-06
5.07023e-07
1.84112e-07
6.44737e-07
0.00172725
0.0012624
0.00091373
0.000642076
0.00042807
0.000266876
0.000165746
0.000103571
6.6845e-05
4.62428e-05
3.5394e-05
3.0329e-05
2.80661e-05
2.68836e-05
2.57606e-05
2.40863e-05
2.15317e-05
1.80558e-05
1.38835e-05
9.50014e-06
5.54365e-06
2.59111e-06
9.12611e-07
4.10935e-07
1.63257e-06
0.00190488
0.00146629
0.00111967
0.000833097
0.000591163
0.000392012
0.000246058
0.000154405
9.91125e-05
6.75342e-05
5.06444e-05
4.2307e-05
3.89258e-05
3.75941e-05
3.66016e-05
3.49369e-05
3.19512e-05
2.74531e-05
2.16563e-05
1.52189e-05
9.12882e-06
4.40041e-06
1.63907e-06
8.83037e-07
3.79232e-06
0.00203931
0.00164256
0.0013155
0.00103133
0.000775517
0.000549445
0.000362929
0.000230098
0.00014784
9.95996e-05
7.32132e-05
5.99242e-05
5.40779e-05
5.22792e-05
5.15742e-05
5.01387e-05
4.68579e-05
4.12267e-05
3.33548e-05
2.40807e-05
1.48676e-05
7.41062e-06
2.92528e-06
1.81276e-06
8.11882e-06
0.00212584
0.00178015
0.00148637
0.00122167
0.000969547
0.000730154
0.000516414
0.000343113
0.000222245
0.00014895
0.000107456
8.58964e-05
7.58729e-05
7.25069e-05
7.20381e-05
7.12092e-05
6.79687e-05
6.11605e-05
5.07043e-05
3.7588e-05
2.38919e-05
1.23294e-05
5.15823e-06
3.56976e-06
1.63465e-05
0.00216628
0.00187385
0.00162066
0.00138828
0.00115737
0.00092272
0.000695555
0.000494867
0.000336196
0.000225696
0.000160627
0.000125194
0.000107962
0.000100804
9.99589e-05
9.99642e-05
9.72313e-05
8.95335e-05
7.60287e-05
5.78276e-05
3.78123e-05
2.019e-05
8.92495e-06
6.74115e-06
3.12157e-05
0.00216607
0.00192387
0.00171198
0.00151809
0.00132159
0.00111019
0.000888391
0.000674229
0.000488412
0.000344449
0.000244385
0.000186123
0.000155905
0.000142778
0.000138514
0.00013899
0.000137336
0.000129145
0.000112335
8.76276e-05
5.88778e-05
3.24565e-05
1.50588e-05
1.21719e-05
5.66605e-05
0.00213441
0.00193606
0.00176051
0.00160391
0.00144739
0.00127317
0.00107635
0.000868169
0.000669452
0.000499756
0.000369926
0.000281828
0.000228218
0.000202791
0.000192388
0.000191449
0.000191128
0.000183301
0.000163284
0.000130673
9.01715e-05
5.11708e-05
2.46792e-05
2.09432e-05
9.76959e-05
0.00207989
0.00191965
0.00177324
0.00164679
0.00152722
0.00139529
0.00123795
0.00105611
0.00086444
0.000683588
0.000530886
0.000415393
0.000337285
0.000291954
0.000270058
0.000261919
0.000261573
0.000254987
0.000232694
0.000191367
0.000135786
7.91772e-05
3.92512e-05
3.42909e-05
0.00016013
0.00201018
0.00188424
0.00176031
0.00165459
0.00156261
0.00146847
0.0013553
0.00121447
0.00105041
0.000878469
0.000717539
0.00058265
0.000481321
0.000414092
0.000376063
0.000357752
0.000351555
0.000346063
0.000323472
0.000274263
0.000200823
0.000120465
6.07404e-05
5.34147e-05
0.000249794
0.00193051
0.00183817
0.0017331
0.00163969
0.00156337
0.0014954
0.00142035
0.00132431
0.00120187
0.00105884
0.000909472
0.000770169
0.000653817
0.000567171
0.000510856
0.000480031
0.00046285
0.000455997
0.000435625
0.000382439
0.00029073
0.000180601
9.20506e-05
7.91024e-05
0.000369306
0.0018427
0.00178609
0.00170026
0.00161487
0.0015444
0.00148867
0.001438
0.00137882
0.00130002
0.00119808
0.00107874
0.000954049
0.000837655
0.000740544
0.000668859
0.000623486
0.000598254
0.000581498
0.000563288
0.000514899
0.000410348
0.000267195
0.000137995
0.000112104
0.000516998
0.00174547
0.00172893
0.00166672
0.00158946
0.00151992
0.00146552
0.00142398
0.0013863
0.00134111
0.00127967
0.00119949
0.00110508
0.00100602
0.00091317
0.000835788
0.00077959
0.000744391
0.000720047
0.0006991
0.000657136
0.000558664
0.000389514
0.000207028
0.000154464
0.000694515
0.00163526
0.00166375
0.00163191
0.00156971
0.00150047
0.00144203
0.00139793
0.00136565
0.0013375
0.00130445
0.0012597
0.00120099
0.00113131
0.00105765
0.000988536
0.000931687
0.000891659
0.000866795
0.000842
0.000806477
0.000719615
0.00054623
0.00031535
0.000211706
0.000921349
0.00150828
0.00158457
0.00159132
0.00155238
0.00149188
0.00142962
0.00137752
0.00133895
0.00131178
0.00128994
0.00126667
0.00123658
0.00119741
0.00115082
0.00110157
0.00105599
0.00102005
0.000997099
0.000983175
0.000955751
0.000889417
0.000733316
0.000477
0.000287964
0.00105702
0.00136515
0.001487
0.00153799
0.00153204
0.00148997
0.00143197
0.0013739
0.00132499
0.0012882
0.00126272
0.00124424
0.00122761
0.00120856
0.00118513
0.00115804
0.00112999
0.00110528
0.00108805
0.00107962
0.00107336
0.00104291
0.000944876
0.000721936
0.000402726
0.000201134
0.00120671
0.00136654
0.00146298
0.00149834
0.00148598
0.00144359
0.00138765
0.001332
0.00128397
0.00124614
0.00121941
0.00120122
0.00118778
0.00117588
0.00116381
0.00115159
0.00114035
0.00113197
0.00112894
0.00113119
0.00113185
0.00110437
0.000998457
0.000765967
0.000462894
0.0010392
0.00122437
0.00136092
0.00144082
0.00146766
0.00145318
0.00141181
0.00135794
0.00130304
0.00125373
0.00121503
0.00118437
0.00116326
0.00114931
0.00114016
0.00113436
0.00113141
0.00113171
0.00113443
0.00114083
0.00114998
0.0011557
0.00114178
0.00107206
0.000907274
0.000870026
0.00106598
0.00123149
0.00135219
0.00142258
0.00144623
0.00143264
0.00139384
0.00134244
0.00128776
0.00123733
0.00119361
0.00116017
0.00113358
0.00111561
0.00110475
0.0010998
0.00110007
0.00110508
0.00111404
0.00112532
0.00113779
0.00114689
0.0011423
0.00110871
0.000706857
0.000899308
0.00107961
0.00123094
0.00134195
0.00140839
0.00143296
0.00142303
0.00138898
0.00134077
0.00128746
0.001235
0.00118821
0.00114822
0.0011175
0.0010925
0.00107568
0.00106624
0.00106352
0.0010668
0.00107528
0.00108753
0.00110001
0.00110977
0.0011117
0.000557567
0.000734355
0.000914552
0.0010824
0.00122401
0.00132999
0.0013966
0.00142539
0.00142216
0.00139485
0.00135208
0.00130133
0.0012489
0.00119877
0.00115416
0.00111524
0.0010847
0.00106024
0.00104213
0.00103138
0.00102706
0.00102838
0.00103404
0.00104228
0.00105066
0.00042813
0.000581304
0.000748546
0.000917656
0.00107541
0.00121008
0.00131404
0.00138365
0.00141947
0.00142545
0.00140763
0.00137279
0.00132749
0.00127728
0.00122652
0.0011781
0.00113233
0.00109337
0.0010617
0.00103571
0.00101498
0.000999646
0.00098999
0.000984717
0.000982733
0.000320734
0.000447179
0.000593117
0.000750654
0.000909415
0.00105822
0.00118733
0.00129045
0.00136428
0.00140854
0.00142557
0.00141958
0.00139571
0.00135932
0.0013152
0.00126763
0.00121891
0.0011716
0.00112705
0.0010862
0.00105136
0.00102237
0.000997724
0.000977039
0.000959822
0.000233566
0.000333929
0.000455037
0.000592805
0.000740249
0.000888297
0.00102627
0.0011476
0.00124759
0.00132354
0.00137489
0.00140302
0.00141076
0.00140183
0.00138013
0.0013494
0.00131175
0.00126941
0.00122505
0.00118064
0.00113785
0.00109731
0.0010593
0.00102533
0.000996388
0.00016539
0.000239258
0.00033524
0.000449509
0.00057789
0.000714357
0.000851157
0.000980958
0.00109615
0.00119364
0.00127127
0.00132854
0.00136632
0.00138654
0.00139176
0.00138473
0.00136791
0.00134354
0.00131377
0.0012803
0.00124299
0.00120383
0.00116434
0.00112571
0.00108911
0.000114629
0.000163679
0.000231143
0.000321872
0.000426883
0.000544269
0.000668963
0.000794996
0.000916446
0.00102828
0.00112481
0.00120482
0.00126798
0.00131469
0.00134624
0.00136436
0.00137096
0.00136796
0.00135719
0.00134027
0.00131826
0.00129237
0.00126371
0.00123207
0.00119869
7.56556e-05
0.000107466
0.000150808
0.000209239
0.000286027
0.000379195
0.000483748
0.000594345
0.000707915
0.00081954
0.000924675
0.0010202
0.0011034
0.00117154
0.00122568
0.00126682
0.00129613
0.00131491
0.00132452
0.00132627
0.00132133
0.00131077
0.00129556
0.00127637
0.00125405
4.4433e-05
6.31446e-05
8.85958e-05
0.000122923
0.000168714
0.000229037
0.000301162
0.000383188
0.000476064
0.000570899
0.00066528
0.000757045
0.000842899
0.000920422
0.000988504
0.00104656
0.00109438
0.00113209
0.00116014
0.00117918
0.0011899
0.00119318
0.00118978
0.00118049
0.00116622
2.12885e-05
3.031e-05
4.26102e-05
5.92606e-05
8.16105e-05
0.000111226
0.000149925
0.000197331
0.000251797
0.00031153
0.000375548
0.000444506
0.000510541
0.000573391
0.000631918
0.000684744
0.000730949
0.000769941
0.000801462
0.0008255
0.000842201
0.0008519
0.00085507
0.000852299
0.000844319
7.68447e-06
1.08963e-05
1.52333e-05
2.10341e-05
2.87191e-05
3.88096e-05
5.19859e-05
6.91814e-05
9.05648e-05
0.000115013
0.000142513
0.000172842
0.000204334
0.000236467
0.00026855
0.000297685
0.000323852
0.000346669
0.00036579
0.000380932
0.000391964
0.000398965
0.000402141
0.000401787
0.0003983
3.65593e-06
5.02855e-06
6.74742e-06
8.86007e-06
1.13966e-05
1.43224e-05
1.75164e-05
2.09981e-05
2.48775e-05
2.91975e-05
3.39374e-05
3.91382e-05
4.4564e-05
5.00991e-05
5.5619e-05
6.07678e-05
6.57904e-05
7.06804e-05
7.5593e-05
8.04932e-05
8.52914e-05
9.0074e-05
9.4868e-05
9.966e-05
0.000104418
1.53122e-05
2.08071e-05
2.74125e-05
3.51786e-05
4.41206e-05
5.39765e-05
6.37399e-05
7.1124e-05
7.49293e-05
7.54183e-05
7.3429e-05
6.9115e-05
6.14413e-05
5.03226e-05
3.71008e-05
2.36498e-05
1.26476e-05
5.86666e-06
6.14497e-06
1.51272e-05
3.22783e-05
5.79938e-05
9.20664e-05
0.000133759
0.000181704
0.000223779
8.42705e-05
3.36107e-05
0.000239674
0.000132689
8.61316e-05
0.000703959
0.000530228
0.000406509
0.00104147
0.000944462
0.000837076
0.00110135
0.0010768
0.00103859
0.00105541
0.0010551
0.00104869
0.000982649
0.000982824
0.000982168
0.000947283
0.000937419
0.000929043
0.000973525
0.000953146
0.000934688
0.0010576
0.00102772
0.000999652
0.00116803
0.00113748
0.00110706
0.00123161
0.00120688
0.00118017
0.0011496
0.00113
0.00110746
0.000833079
0.000818712
0.000801299
0.000392687
0.000385254
0.00037608
0.000108767
0.000112836
0.000116718
0.000230755
0.000279325
0.000328708
1.29661e-11
4.90179e-11
1.02808e-10
1.16291e-10
6.87379e-11
3.78287e-11
2.06791e-10
7.74607e-10
1.9152e-09
3.75529e-09
6.37375e-09
9.78798e-09
1.39666e-08
1.88409e-08
2.43221e-08
3.03105e-08
3.66929e-08
4.33386e-08
5.00912e-08
5.66707e-08
6.25627e-08
6.77912e-08
7.59737e-08
1.17131e-07
2.33673e-07
1.42393e-07
1.52902e-07
1.45046e-07
1.65313e-07
1.90615e-07
2.20351e-07
2.54639e-07
2.94855e-07
3.42792e-07
4.00548e-07
4.70677e-07
5.56314e-07
6.61299e-07
7.90329e-07
9.49119e-07
1.14459e-06
1.38504e-06
1.68031e-06
2.04185e-06
2.48289e-06
3.01897e-06
3.66738e-06
4.44651e-06
5.37528e-06
6.47133e-06
7.7499e-06
9.22226e-06
1.08923e-05
1.27532e-05
1.47832e-05
1.6942e-05
1.91671e-05
2.13708e-05
2.34426e-05
2.5256e-05
2.66721e-05
2.75331e-05
2.77548e-05
2.72308e-05
2.58557e-05
2.36789e-05
2.08295e-05
1.75042e-05
1.39491e-05
1.04458e-05
7.26166e-06
4.60601e-06
2.59904e-06
1.25742e-06
5.03212e-07
1.96555e-07
2.54339e-08
4.98994e-09
5.8284e-09
2.8997e-09
5.79106e-11
1.60602e-11
3.3592e-11
7.09696e-11
1.26567e-10
2.12983e-10
3.54452e-10
5.77099e-10
9.03224e-10
1.34882e-09
1.92499e-09
2.64347e-09
3.51846e-09
4.47928e-09
5.51724e-09
6.62101e-09
7.77374e-09
8.95458e-09
1.01383e-08
1.12907e-08
1.23948e-08
1.36705e-08
1.63788e-08
2.4682e-08
3.73211e-08
2.80655e-08
2.69524e-08
2.67991e-08
2.96686e-08
3.37304e-08
3.86388e-08
4.43917e-08
5.11897e-08
5.93249e-08
6.91541e-08
8.1113e-08
9.57365e-08
1.1368e-07
1.35744e-07
1.62904e-07
1.96341e-07
2.3747e-07
2.87968e-07
3.49793e-07
4.25218e-07
5.16866e-07
6.2765e-07
7.60644e-07
9.18949e-07
1.10544e-06
1.32252e-06
1.57176e-06
1.85336e-06
2.16556e-06
2.50401e-06
2.86115e-06
3.22577e-06
3.58293e-06
3.91445e-06
4.20014e-06
4.41888e-06
4.55021e-06
4.58161e-06
4.50282e-06
4.29647e-06
3.968e-06
3.53539e-06
3.02619e-06
2.4752e-06
1.92196e-06
1.40514e-06
9.57001e-07
5.98895e-07
3.38597e-07
1.71028e-07
8.09412e-08
2.9362e-08
8.96695e-09
2.56299e-09
6.39883e-09
9.73077e-11
3.19076e-11
1.19297e-10
3.55529e-10
7.64066e-10
1.35393e-09
2.1246e-09
3.06756e-09
4.16773e-09
5.40622e-09
6.76417e-09
8.2254e-09
9.7662e-09
1.13173e-08
1.28472e-08
1.43375e-08
1.5774e-08
1.71451e-08
1.84446e-08
1.96783e-08
2.08896e-08
2.22408e-08
2.41736e-08
2.73003e-08
3.00602e-08
2.95166e-08
2.97769e-08
3.08057e-08
3.27478e-08
3.53975e-08
3.87139e-08
4.27696e-08
4.77153e-08
5.3755e-08
6.11401e-08
7.01736e-08
8.12212e-08
9.47232e-08
1.1121e-07
1.31317e-07
1.55806e-07
1.85575e-07
2.2168e-07
2.65344e-07
3.17967e-07
3.81119e-07
4.56514e-07
5.45949e-07
6.5122e-07
7.74003e-07
9.15708e-07
1.07729e-06
1.25902e-06
1.46026e-06
1.67922e-06
1.91279e-06
2.15654e-06
2.40476e-06
2.65099e-06
2.8886e-06
3.11187e-06
3.31745e-06
3.50051e-06
3.63142e-06
3.69029e-06
3.6632e-06
3.54109e-06
3.32106e-06
3.00823e-06
2.61724e-06
2.17239e-06
1.7058e-06
1.25341e-06
8.49435e-07
5.20455e-07
2.80037e-07
1.23325e-07
3.88027e-08
6.60729e-09
1.973e-09
5.33439e-11
6.00283e-11
3.4275e-10
1.10499e-09
2.49058e-09
4.54289e-09
7.23713e-09
1.05084e-08
1.42688e-08
1.842e-08
2.28616e-08
2.74946e-08
3.22133e-08
3.68938e-08
4.14416e-08
4.57903e-08
4.98938e-08
5.3723e-08
5.72671e-08
6.05378e-08
6.35809e-08
6.64962e-08
6.94504e-08
7.25638e-08
7.54501e-08
7.785e-08
8.05946e-08
8.40451e-08
8.84448e-08
9.39829e-08
1.00895e-07
1.09481e-07
1.20114e-07
1.33234e-07
1.49365e-07
1.6912e-07
1.93224e-07
2.22535e-07
2.58067e-07
3.01015e-07
3.52787e-07
4.15026e-07
4.89639e-07
5.7881e-07
6.85013e-07
8.11004e-07
9.59789e-07
1.13457e-06
1.33867e-06
1.57536e-06
1.84776e-06
2.15858e-06
2.50994e-06
2.90306e-06
3.33801e-06
3.8135e-06
4.32665e-06
4.87288e-06
5.44607e-06
6.03911e-06
6.64522e-06
7.25979e-06
7.83296e-06
8.3032e-06
8.62112e-06
8.7421e-06
8.62972e-06
8.26153e-06
7.63542e-06
6.77502e-06
5.73212e-06
4.58435e-06
3.42658e-06
2.35656e-06
1.45733e-06
7.80833e-07
3.38441e-07
1.04008e-07
1.99069e-08
2.14037e-08
4.21524e-11
1.25771e-10
7.58393e-10
2.50649e-09
5.80641e-09
1.08442e-08
1.75881e-08
2.58625e-08
3.54126e-08
4.59493e-08
5.71774e-08
6.88097e-08
8.05696e-08
9.21951e-08
1.03467e-07
1.14216e-07
1.24319e-07
1.33698e-07
1.42319e-07
1.5019e-07
1.57371e-07
1.63978e-07
1.7018e-07
1.76168e-07
1.82086e-07
1.88208e-07
1.95057e-07
2.03156e-07
2.13037e-07
2.25272e-07
2.40507e-07
2.59484e-07
2.83059e-07
3.12224e-07
3.48125e-07
3.92101e-07
4.45715e-07
5.10802e-07
5.89513e-07
6.84376e-07
7.98342e-07
9.34848e-07
1.09786e-06
1.29191e-06
1.52214e-06
1.79425e-06
2.11452e-06
2.48967e-06
2.92676e-06
3.43293e-06
4.01513e-06
4.6797e-06
5.43186e-06
6.27516e-06
7.21072e-06
8.23654e-06
9.34671e-06
1.05306e-05
1.17723e-05
1.3051e-05
1.43425e-05
1.56214e-05
1.6762e-05
1.76645e-05
1.82407e-05
1.8408e-05
1.81004e-05
1.72781e-05
1.59397e-05
1.41325e-05
1.19577e-05
9.56812e-06
7.15406e-06
4.91624e-06
3.0305e-06
1.61221e-06
6.92332e-07
2.14132e-07
5.4152e-08
1.36008e-07
5.82934e-10
3.17481e-10
1.45735e-09
4.79513e-09
1.12629e-08
2.13706e-08
3.5159e-08
5.2303e-08
7.22518e-08
9.43484e-08
1.17914e-07
1.42295e-07
1.66891e-07
1.91169e-07
2.14683e-07
2.37078e-07
2.58094e-07
2.77559e-07
2.95388e-07
3.11583e-07
3.26241e-07
3.39557e-07
3.51828e-07
3.63458e-07
3.74947e-07
3.86943e-07
4.00249e-07
4.15777e-07
4.34546e-07
4.57699e-07
4.86525e-07
5.22485e-07
5.67242e-07
6.227e-07
6.91047e-07
7.74815e-07
8.76948e-07
1.00088e-06
1.15063e-06
1.33089e-06
1.54712e-06
1.80567e-06
2.11385e-06
2.47997e-06
2.91344e-06
3.4247e-06
4.02517e-06
4.72708e-06
5.54311e-06
6.48604e-06
7.568e-06
8.79968e-06
1.01892e-05
1.17409e-05
1.34536e-05
1.53191e-05
1.73207e-05
1.94319e-05
2.16172e-05
2.38278e-05
2.60069e-05
2.80927e-05
2.98967e-05
3.1269e-05
3.20819e-05
3.22134e-05
3.15639e-05
3.00717e-05
2.77315e-05
2.46124e-05
2.08709e-05
1.67509e-05
1.25665e-05
8.6617e-06
5.35049e-06
2.84965e-06
1.22716e-06
3.88833e-07
1.26823e-07
4.37404e-07
2.60512e-09
7.92602e-10
2.57747e-09
8.28982e-09
1.95654e-08
3.74717e-08
6.22623e-08
9.34629e-08
1.30091e-07
1.70895e-07
2.14544e-07
2.59756e-07
3.05372e-07
3.50388e-07
3.93971e-07
4.35466e-07
4.74382e-07
5.1039e-07
5.43313e-07
5.73136e-07
6.00001e-07
6.24225e-07
6.46311e-07
6.66953e-07
6.8705e-07
7.07717e-07
7.30284e-07
7.56284e-07
7.87463e-07
8.25787e-07
8.73476e-07
9.33032e-07
1.00728e-06
1.09945e-06
1.21319e-06
1.35275e-06
1.52299e-06
1.72959e-06
1.97913e-06
2.27929e-06
2.63898e-06
3.06846e-06
3.57953e-06
4.18559e-06
4.90166e-06
5.74434e-06
6.73163e-06
7.88254e-06
9.21653e-06
1.07527e-05
1.25084e-05
1.4498e-05
1.67307e-05
1.92087e-05
2.19243e-05
2.48582e-05
2.79772e-05
3.12331e-05
3.45606e-05
3.78741e-05
4.10726e-05
4.40515e-05
4.65934e-05
4.85165e-05
4.96378e-05
4.97866e-05
4.88142e-05
4.66162e-05
4.31604e-05
3.85168e-05
3.28828e-05
2.65952e-05
2.01156e-05
1.39786e-05
8.70127e-06
4.66839e-06
2.03053e-06
6.6585e-07
2.69231e-07
1.06091e-06
7.49007e-09
1.8141e-09
4.32528e-09
1.34161e-08
3.16258e-08
6.08613e-08
1.01774e-07
1.5377e-07
2.15304e-07
2.84264e-07
3.58335e-07
4.35259e-07
5.12992e-07
5.89783e-07
6.64194e-07
7.35095e-07
8.0164e-07
8.63247e-07
9.19586e-07
9.7058e-07
1.01641e-06
1.05752e-06
1.09466e-06
1.12888e-06
1.16156e-06
1.19441e-06
1.22945e-06
1.26906e-06
1.31595e-06
1.37319e-06
1.44421e-06
1.53291e-06
1.64363e-06
1.7813e-06
1.95151e-06
2.16062e-06
2.41597e-06
2.72599e-06
3.10045e-06
3.55063e-06
4.08957e-06
4.73226e-06
5.49575e-06
6.39933e-06
7.46447e-06
8.71469e-06
1.01752e-05
1.18722e-05
1.3832e-05
1.60797e-05
1.86372e-05
2.15211e-05
2.47397e-05
2.82906e-05
3.21573e-05
3.63068e-05
4.06864e-05
4.52226e-05
4.98193e-05
5.43644e-05
5.87348e-05
6.27958e-05
6.62961e-05
6.90112e-05
7.07063e-05
7.11425e-05
7.00945e-05
6.73783e-05
6.28916e-05
5.66617e-05
4.88939e-05
4.00052e-05
3.06248e-05
2.15378e-05
1.35595e-05
7.35154e-06
3.23456e-06
1.09276e-06
5.15291e-07
2.20881e-06
1.69851e-08
3.63009e-09
6.88302e-09
2.06423e-08
4.85475e-08
9.36746e-08
1.5729e-07
2.38726e-07
3.35733e-07
4.45052e-07
5.62991e-07
6.85889e-07
8.10417e-07
9.33722e-07
1.05348e-06
1.16785e-06
1.27546e-06
1.37536e-06
1.46694e-06
1.54999e-06
1.62467e-06
1.69152e-06
1.75152e-06
1.80611e-06
1.85717e-06
1.90709e-06
1.95875e-06
2.01551e-06
2.08126e-06
2.16041e-06
2.25791e-06
2.37933e-06
2.53088e-06
2.71955e-06
2.95322e-06
3.24078e-06
3.5924e-06
4.01968e-06
4.53594e-06
5.15647e-06
5.8988e-06
6.78294e-06
7.83154e-06
9.06999e-06
1.05263e-05
1.2231e-05
1.42162e-05
1.65151e-05
1.91604e-05
2.21822e-05
2.56062e-05
2.94504e-05
3.37223e-05
3.84152e-05
4.35052e-05
4.89487e-05
5.46797e-05
6.06092e-05
6.66257e-05
7.25986e-05
7.83791e-05
8.37995e-05
8.86071e-05
9.25311e-05
9.52697e-05
9.64932e-05
9.58615e-05
9.30592e-05
8.78502e-05
8.01513e-05
7.01147e-05
5.82026e-05
4.52209e-05
3.22737e-05
2.06034e-05
1.13131e-05
5.04113e-06
1.75004e-06
9.25549e-07
4.17544e-06
3.26696e-08
6.57987e-09
1.05656e-08
3.06224e-08
7.17492e-08
1.38597e-07
2.33299e-07
3.55158e-07
5.01062e-07
6.66273e-07
8.45285e-07
1.03255e-06
1.22299e-06
1.41224e-06
1.59673e-06
1.77366e-06
1.9409e-06
2.09693e-06
2.24074e-06
2.37184e-06
2.49022e-06
2.59644e-06
2.6916e-06
2.77743e-06
2.85631e-06
2.93129e-06
3.00613e-06
3.08529e-06
3.17394e-06
3.27801e-06
3.40419e-06
3.55996e-06
3.75368e-06
3.9947e-06
4.29346e-06
4.6617e-06
5.11265e-06
5.66129e-06
6.32469e-06
7.12221e-06
8.0759e-06
9.21068e-06
1.05546e-05
1.21387e-05
1.39972e-05
1.61668e-05
1.86859e-05
2.15938e-05
2.49284e-05
2.87246e-05
3.30116e-05
3.78095e-05
4.31266e-05
4.89555e-05
5.52711e-05
6.20276e-05
6.91572e-05
7.65692e-05
8.4149e-05
9.17584e-05
9.92328e-05
0.000106378
0.000112947
0.000118629
0.000123052
0.000125774
0.000126303
0.000124133
0.000118811
0.000110042
9.78228e-05
8.25796e-05
6.52705e-05
4.738e-05
3.07386e-05
1.71267e-05
7.7375e-06
2.75229e-06
1.58249e-06
7.36406e-06
5.61311e-08
1.16053e-08
1.60648e-08
4.43076e-08
1.03064e-07
1.98999e-07
3.35375e-07
5.11489e-07
7.23173e-07
9.63841e-07
1.2257e-06
1.50079e-06
1.78179e-06
2.06237e-06
2.33734e-06
2.60264e-06
2.85514e-06
3.09252e-06
3.31315e-06
3.51605e-06
3.70087e-06
3.86791e-06
4.0182e-06
4.15357e-06
4.27669e-06
4.39112e-06
4.50138e-06
4.61296e-06
4.73231e-06
4.86693e-06
5.0253e-06
5.21699e-06
5.4527e-06
5.74431e-06
6.10506e-06
6.5497e-06
7.09468e-06
7.75848e-06
8.56184e-06
9.52813e-06
1.06836e-05
1.20577e-05
1.36831e-05
1.55959e-05
1.78354e-05
2.04435e-05
2.34636e-05
2.69402e-05
3.09148e-05
3.5427e-05
4.05096e-05
4.61864e-05
5.24692e-05
5.93555e-05
6.68259e-05
7.48429e-05
8.33495e-05
9.22672e-05
0.000101494
0.000110901
0.000120322
0.000129548
0.000138343
0.000146376
0.000153209
0.000158292
0.000160956
0.000160452
0.000156017
0.00014701
0.000133108
0.000114541
9.23175e-05