/*--------------------------------*- C++ -*----------------------------------*\
| =========                 |                                                 |
| \\      /  F ield         | OpenFOAM: The Open Source CFD Toolbox           |
|  \\    /   O peration     | Version:  v2012                                 |
|   \\  /    A nd           | Website:  www.openfoam.com                      |
|    \\/     M anipulation  |                                                 |
\*---------------------------------------------------------------------------*/
FoamFile
{
    version     2.0;
    format      ascii;
    class       volScalarField;
    location    "2000";
    object      nut;
}
// * * * * * * * * * * * * * * * * * * * * * * * * * * * * * * * * * * * * * //

dimensions      [0 2 -1 0 0 0 0];


internalField   nonuniform List<scalar> 
6502
(
3.35289e-05
0.000336785
0.00149984
0.00234961
0.00255236
0.00255249
0.00235009
0.00150053
0.000336926
3.35307e-05
1.95351e-05
0.000134821
0.000767189
0.0018235
0.00235686
0.00235764
0.0018255
0.000768455
0.00013496
1.95419e-05
1.25532e-05
7.28463e-05
0.000466458
0.00137662
0.00209601
0.00209801
0.00138018
0.000467899
7.29857e-05
1.25694e-05
8.23686e-06
4.46141e-05
0.000316741
0.00106069
0.00182486
0.00182836
0.00106543
0.000318317
4.47637e-05
8.26424e-06
5.67187e-06
2.98396e-05
0.000233157
0.000845847
0.00157842
0.00158358
0.000851786
0.000234895
3.00045e-05
5.7105e-06
4.24679e-06
2.1423e-05
0.000182352
0.000697028
0.00136842
0.00137538
0.000704303
0.000184325
2.16077e-05
4.29732e-06
3.42976e-06
1.62655e-05
0.000148913
0.000589628
0.00119355
0.00120238
0.000598327
0.000151227
1.64794e-05
3.49376e-06
2.9384e-06
1.28924e-05
0.000125251
0.000509008
0.00104872
0.00105939
0.000519379
0.000128001
1.31447e-05
3.02036e-06
2.62743e-06
1.05642e-05
0.000107464
0.000445813
0.000927915
0.000940806
0.000458208
0.000110743
1.08625e-05
2.73406e-06
2.41528e-06
8.89087e-06
9.34625e-05
0.000394363
0.00082572
0.00084131
0.00040916
9.73721e-05
9.24343e-06
2.55374e-06
2.25803e-06
7.641e-06
8.19879e-05
0.000351102
0.000738181
0.000756787
0.000368912
8.66944e-05
8.06212e-06
2.43773e-06
2.13099e-06
6.66821e-06
7.22427e-05
0.000313677
0.000662278
0.000684435
0.000335164
7.79284e-05
7.17628e-06
2.36514e-06
2.01927e-06
5.88326e-06
6.37768e-05
0.000280629
0.000595533
0.000621592
0.00030667
7.06194e-05
6.49779e-06
2.32482e-06
1.91303e-06
5.22779e-06
5.62876e-05
0.000250935
0.000535979
0.000565717
0.00028288
6.45072e-05
5.9672e-06
2.31122e-06
1.8063e-06
4.66476e-06
4.96051e-05
0.000223928
0.000482226
0.000515603
0.000261602
5.94747e-05
5.59231e-06
2.32433e-06
1.69536e-06
4.16828e-06
4.35925e-05
0.000199094
0.00043315
0.000470265
0.000242515
5.53223e-05
5.36049e-06
2.36995e-06
1.5774e-06
3.71969e-06
3.81445e-05
0.000176066
0.000387822
0.000428913
0.000225529
5.20181e-05
5.25543e-06
2.45979e-06
1.45016e-06
3.30578e-06
3.31838e-05
0.000154605
0.000345535
0.00039087
0.000210555
4.95576e-05
5.28525e-06
2.61201e-06
1.31263e-06
2.91788e-06
2.86653e-05
0.00013461
0.000305882
0.000355561
0.000197533
4.79806e-05
5.48637e-06
2.87691e-06
1.16572e-06
2.55133e-06
2.45693e-05
0.0001161
0.000268643
0.000322502
0.000186439
4.75303e-05
5.88757e-06
3.07362e-06
1.01177e-06
2.20253e-06
2.08654e-05
9.9045e-05
0.000233596
0.000291183
0.00017803
5.05674e-05
7.82176e-06
2.69628e-06
8.56257e-07
1.87569e-06
1.75861e-05
8.37245e-05
0.000201281
0.000261662
0.000171744
5.6027e-05
1.1258e-05
3.29244e-06
7.06368e-07
1.57471e-06
1.47291e-05
7.02449e-05
0.000171976
0.000233818
0.000166466
6.29206e-05
1.61913e-05
5.11339e-06
5.68028e-07
1.30247e-06
1.22699e-05
5.85946e-05
0.000145867
0.000207594
0.000161263
7.05512e-05
2.25734e-05
8.35632e-06
4.44819e-07
1.06083e-06
1.01691e-05
4.86523e-05
0.00012295
0.000182987
0.000155449
7.83571e-05
3.03194e-05
1.30979e-05
3.38294e-07
8.50461e-07
8.38437e-06
4.0243e-05
0.00010308
0.000160043
0.000148544
8.58099e-05
3.90783e-05
1.92159e-05
2.48834e-07
6.70838e-07
6.87553e-06
3.31756e-05
8.60266e-05
0.000138839
0.000140277
9.19622e-05
4.829e-05
2.64405e-05
1.7606e-07
5.206e-07
5.60666e-06
2.72668e-05
7.15343e-05
0.000119601
0.000130661
9.62575e-05
5.72624e-05
3.43965e-05
1.18945e-07
3.97687e-07
4.54627e-06
2.23497e-05
5.93162e-05
0.000102338
0.00011994
9.83307e-05
6.5343e-05
4.25902e-05
7.59485e-08
2.99445e-07
3.66595e-06
1.82736e-05
4.9081e-05
8.70507e-05
0.000108515
9.80037e-05
7.19535e-05
5.05036e-05
4.51285e-08
2.2278e-07
2.9399e-06
1.49042e-05
4.05486e-05
7.36904e-05
9.68694e-05
9.53115e-05
7.66518e-05
5.76426e-05
2.43537e-08
1.64401e-07
2.34531e-06
1.21272e-05
3.34659e-05
6.21605e-05
8.54702e-05
9.05708e-05
7.9125e-05
6.35248e-05
1.14535e-08
1.21008e-07
1.86189e-06
9.84492e-06
2.76067e-05
5.23201e-05
7.47076e-05
8.4299e-05
7.93408e-05
6.77807e-05
4.33283e-09
8.93628e-08
1.47094e-06
7.97298e-06
2.277e-05
4.39949e-05
6.48504e-05
7.7101e-05
7.74605e-05
7.01799e-05
1.18441e-09
6.66181e-08
1.15614e-06
6.43955e-06
1.87807e-05
3.69969e-05
5.60441e-05
6.95555e-05
7.38875e-05
7.06825e-05
6.8559e-10
5.0726e-08
9.05617e-07
5.18789e-06
1.54922e-05
3.11404e-05
4.83272e-05
6.21356e-05
6.91587e-05
6.94608e-05
1.59573e-09
3.96751e-08
7.07945e-07
4.16994e-06
1.27814e-05
2.62495e-05
4.16581e-05
5.51654e-05
6.38155e-05
6.68686e-05
2.8446e-09
3.16445e-08
5.51347e-07
3.3402e-06
1.05401e-05
2.21618e-05
3.59438e-05
4.88263e-05
5.83195e-05
6.33559e-05
4.09597e-09
2.54939e-08
4.24807e-07
2.6557e-06
8.67106e-06
1.87289e-05
3.1063e-05
4.31812e-05
5.29949e-05
5.93621e-05
5.20089e-09
2.101e-08
3.26287e-07
2.0994e-06
7.11116e-06
1.58322e-05
2.68916e-05
3.82142e-05
4.80273e-05
5.52362e-05
5.87878e-09
1.75118e-08
2.50008e-07
1.65201e-06
5.80959e-06
1.33754e-05
2.33141e-05
3.3866e-05
4.3494e-05
5.12056e-05
6.01991e-09
1.45144e-08
1.90129e-07
1.28579e-06
4.71003e-06
1.12675e-05
2.02214e-05
3.00552e-05
3.94018e-05
4.73844e-05
6.04553e-09
1.21329e-08
1.43503e-07
9.84469e-07
3.77623e-06
9.43562e-06
1.75162e-05
2.66973e-05
3.57261e-05
4.38137e-05
5.89174e-09
1.02389e-08
1.09033e-07
7.5456e-07
2.9967e-06
7.84524e-06
1.51461e-05
2.37672e-05
3.25034e-05
4.05756e-05
5.42184e-09
8.59952e-09
8.28023e-08
5.73785e-07
2.33257e-06
6.43294e-06
1.30127e-05
2.12046e-05
2.98674e-05
3.78282e-05
4.96491e-09
7.60199e-09
6.36252e-08
4.34705e-07
1.79826e-06
5.15111e-06
1.10163e-05
1.87733e-05
2.74112e-05
3.56085e-05
4.64582e-09
6.60149e-09
4.82302e-08
3.25714e-07
1.36634e-06
4.04089e-06
9.10783e-06
1.63478e-05
2.4903e-05
3.33553e-05
4.37157e-09
5.77404e-09
3.65879e-08
2.43306e-07
1.03041e-06
3.12346e-06
7.32029e-06
1.39219e-05
2.22314e-05
3.08795e-05
4.15246e-09
5.14623e-09
2.81773e-08
1.83016e-07
7.78941e-07
2.40084e-06
5.78998e-06
1.14508e-05
1.92665e-05
2.79839e-05
3.95979e-09
4.66463e-09
2.23175e-08
1.40716e-07
5.95814e-07
1.84843e-06
4.52054e-06
9.1581e-06
1.59332e-05
2.44084e-05
3.68825e-09
4.20257e-09
1.81738e-08
1.11712e-07
4.66586e-07
1.42548e-06
3.46868e-06
7.06505e-06
1.2509e-05
1.98576e-05
3.28417e-09
3.67309e-09
1.49646e-08
9.03199e-08
3.7172e-07
1.10886e-06
2.60973e-06
5.1725e-06
9.12618e-06
1.47376e-05
2.72345e-09
3.03043e-09
1.21527e-08
7.24907e-08
2.92322e-07
8.42041e-07
1.8943e-06
3.59431e-06
6.12505e-06
9.7696e-06
2.02634e-09
2.27863e-09
9.39077e-09
5.55437e-08
2.16972e-07
5.93561e-07
1.25915e-06
2.27067e-06
3.73048e-06
5.82552e-06
1.2926e-09
1.49925e-09
6.61602e-09
3.86e-08
1.42877e-07
3.63087e-07
7.18925e-07
1.23287e-06
1.96107e-06
3.00275e-06
6.6186e-10
8.18245e-10
4.02629e-09
2.2644e-08
7.63877e-08
1.76028e-07
3.24702e-07
5.34005e-07
8.29717e-07
1.25239e-06
2.41442e-10
3.39897e-10
1.93769e-09
9.8621e-09
2.86582e-08
5.91856e-08
1.0299e-07
1.64915e-07
2.5302e-07
3.78838e-07
4.67226e-11
8.81984e-11
6.05268e-10
2.47877e-09
6.06442e-09
1.16112e-08
1.97035e-08
3.13708e-08
4.80683e-08
7.17505e-08
2.05186e-12
1.38427e-11
9.95246e-11
3.51012e-10
8.86796e-10
1.83224e-09
3.30717e-09
5.4883e-09
8.57988e-09
1.28069e-08
5.5104e-13
2.2445e-12
3.40352e-11
1.74396e-10
5.16779e-10
1.16636e-09
2.23145e-09
3.83184e-09
6.09754e-09
9.15751e-09
5.14587e-07
1.74207e-07
1.44592e-07
9.75886e-08
6.38883e-08
4.20841e-08
2.90069e-08
2.09307e-08
1.55784e-08
1.18025e-08
8.96331e-09
6.71099e-09
4.86871e-09
3.35996e-09
2.15967e-09
1.25928e-09
6.40951e-10
2.65987e-10
7.81027e-11
1.19493e-11
6.05054e-12
1.26919e-11
1.21832e-11
5.84041e-12
1.061e-12
9.59936e-07
3.57123e-07
1.80496e-07
1.06634e-07
6.71158e-08
4.37022e-08
2.97549e-08
2.11991e-08
1.56429e-08
1.18062e-08
8.98378e-09
6.78868e-09
5.01814e-09
3.57542e-09
2.41974e-09
1.53222e-09
8.91749e-10
4.62128e-10
2.19718e-10
1.02864e-10
5.289e-11
3.02058e-11
1.52596e-11
5.16747e-12
3.78959e-12
2.17983e-06
1.09134e-06
5.71519e-07
2.97935e-07
1.69316e-07
1.02696e-07
6.58389e-08
4.45877e-08
3.19149e-08
2.40801e-08
1.89892e-08
1.54463e-08
1.27639e-08
1.05516e-08
8.59933e-09
6.81063e-09
5.16078e-09
3.67291e-09
2.4332e-09
1.46793e-09
7.59768e-10
2.95789e-10
6.64114e-11
1.02747e-11
7.34598e-12
4.40829e-06
2.76299e-06
1.78301e-06
1.11604e-06
6.7684e-07
4.22978e-07
2.73015e-07
1.84218e-07
1.31718e-07
1.00656e-07
8.18961e-08
6.98259e-08
6.10356e-08
5.34862e-08
4.60423e-08
3.8221e-08
3.0041e-08
2.19022e-08
1.44417e-08
8.23351e-09
3.72163e-09
1.14329e-09
1.87869e-10
1.54092e-11
6.98157e-12
7.72764e-06
5.43384e-06
4.00152e-06
2.94445e-06
2.0309e-06
1.35378e-06
9.04818e-07
6.19406e-07
4.45297e-07
3.41756e-07
2.79951e-07
2.4079e-07
2.12216e-07
1.86934e-07
1.60949e-07
1.32732e-07
1.02691e-07
7.27008e-08
4.54988e-08
2.38597e-08
9.63899e-09
2.63768e-09
3.9613e-10
2.28974e-11
2.82499e-12
1.21569e-05
9.06369e-06
7.27485e-06
5.87624e-06
4.53571e-06
3.23201e-06
2.22462e-06
1.5338e-06
1.09529e-06
8.30932e-07
6.73206e-07
5.73696e-07
5.0118e-07
4.37089e-07
3.71738e-07
3.01848e-07
2.28922e-07
1.57891e-07
9.55103e-08
4.80968e-08
1.8679e-08
4.97687e-09
7.41593e-10
4.16394e-11
1.95564e-12
1.76274e-05
1.36073e-05
1.14532e-05
9.77297e-06
8.08737e-06
6.19985e-06
4.37048e-06
2.99745e-06
2.0962e-06
1.54881e-06
1.22532e-06
1.0253e-06
8.83628e-07
7.62607e-07
6.43194e-07
5.18831e-07
3.91561e-07
2.69253e-07
1.62771e-07
8.2213e-08
3.2201e-08
8.71632e-09
1.34247e-09
9.87888e-11
2.56527e-11
2.39721e-05
1.89663e-05
1.63462e-05
1.45305e-05
1.25317e-05
1.00662e-05
7.37889e-06
5.03397e-06
3.41769e-06
2.43999e-06
1.87568e-06
1.54046e-06
1.31493e-06
1.13132e-06
9.55656e-07
7.75059e-07
5.9039e-07
4.11578e-07
2.53546e-07
1.31243e-07
5.29906e-08
1.49071e-08
2.4698e-09
2.83243e-10
1.50319e-10
3.09164e-05
2.49755e-05
2.18422e-05
1.98631e-05
1.7715e-05
1.47431e-05
1.11566e-05
7.73701e-06
5.15397e-06
3.54807e-06
2.64731e-06
2.13774e-06
1.8158e-06
1.56743e-06
1.33543e-06
1.09645e-06
8.48425e-07
6.0328e-07
3.80953e-07
2.03196e-07
8.48103e-08
2.46168e-08
4.21336e-09
5.4247e-10
3.24395e-10
3.81253e-05
3.14026e-05
2.77711e-05
2.55815e-05
2.3489e-05
2.02112e-05
1.5831e-05
1.12306e-05
7.49466e-06
5.06441e-06
3.65856e-06
2.90012e-06
2.45314e-06
2.12961e-06
1.83494e-06
1.52867e-06
1.2031e-06
8.72837e-07
5.64948e-07
3.10907e-07
1.34973e-07
4.11216e-08
7.5809e-09
1.23296e-09
8.21418e-10
4.52117e-05
3.79455e-05
3.39081e-05
3.15271e-05
2.94931e-05
2.64555e-05
2.15752e-05
1.58715e-05
1.08006e-05
7.24246e-06
5.13842e-06
3.96802e-06
3.32789e-06
2.90127e-06
2.52737e-06
2.13601e-06
1.70824e-06
1.26158e-06
8.33947e-07
4.71392e-07
2.11953e-07
6.76221e-08
1.34204e-08
2.64287e-09
1.90808e-09
5.17719e-05
4.42915e-05
3.9988e-05
3.74858e-05
3.55493e-05
3.29264e-05
2.83711e-05
2.1917e-05
1.54603e-05
1.04683e-05
7.35755e-06
5.58772e-06
4.59702e-06
4.00388e-06
3.5208e-06
3.01506e-06
2.44658e-06
1.83452e-06
1.2335e-06
7.12408e-07
3.30048e-07
1.0999e-07
2.35158e-08
5.39982e-09
4.08493e-09
5.74084e-05
5.0126e-05
4.57049e-05
4.3194e-05
4.14251e-05
3.92654e-05
3.55377e-05
2.94279e-05
2.1917e-05
1.5334e-05
1.07835e-05
8.08598e-06
6.5387e-06
5.63115e-06
4.97718e-06
4.31391e-06
3.54958e-06
2.69685e-06
1.83736e-06
1.07817e-06
5.11269e-07
1.77027e-07
4.06451e-08
1.05725e-08
8.22462e-09
6.17974e-05
5.51461e-05
5.08368e-05
4.83868e-05
4.68609e-05
4.5212e-05
4.23896e-05
3.74669e-05
3.03031e-05
2.237e-05
1.60699e-05
1.20144e-05
9.60557e-06
8.11957e-06
7.16916e-06
6.27122e-06
5.22504e-06
4.0192e-06
2.76695e-06
1.64089e-06
7.90467e-07
2.82008e-07
6.89441e-08
1.98355e-08
1.5706e-08
6.46998e-05
5.90918e-05
5.51345e-05
5.28413e-05
5.15976e-05
5.04938e-05
4.85876e-05
4.50053e-05
3.92259e-05
3.17037e-05
2.39979e-05
1.81435e-05
1.44408e-05
1.21583e-05
1.05537e-05
9.2712e-06
7.81563e-06
6.08167e-06
4.22373e-06
2.5205e-06
1.22413e-06
4.4525e-07
1.14301e-07
3.55667e-08
2.85083e-08
6.60383e-05
6.17961e-05
5.84162e-05
5.63877e-05
5.54218e-05
5.48529e-05
5.38341e-05
5.15733e-05
4.74642e-05
4.13991e-05
3.41428e-05
2.71897e-05
2.17579e-05
1.82952e-05
1.58117e-05
1.38815e-05
1.18363e-05
9.33297e-06
6.5417e-06
3.91884e-06
1.90613e-06
6.9871e-07
1.84918e-07
6.0785e-08
4.9155e-08
6.58863e-05
6.32104e-05
6.06038e-05
5.89253e-05
5.82365e-05
5.81082e-05
5.78884e-05
5.6843e-05
5.4377e-05
5.01731e-05
4.44229e-05
3.79633e-05
3.1902e-05
2.73358e-05
2.38763e-05
2.08683e-05
1.79999e-05
1.44423e-05
1.02605e-05
6.17627e-06
2.99606e-06
1.09457e-06
2.92338e-07
9.89301e-08
8.05682e-08
6.44833e-05
6.34101e-05
6.17131e-05
6.04536e-05
6.00096e-05
6.02227e-05
6.06191e-05
6.06068e-05
5.96054e-05
5.72294e-05
5.34015e-05
4.84671e-05
4.31502e-05
3.82702e-05
3.44179e-05
3.09341e-05
2.70015e-05
2.2232e-05
1.61839e-05
9.86186e-06
4.76977e-06
1.7224e-06
4.53866e-07
1.53377e-07
1.25681e-07
6.21777e-05
6.25999e-05
6.1876e-05
6.1084e-05
6.0837e-05
6.12489e-05
6.20603e-05
6.28055e-05
6.29831e-05
6.21955e-05
6.02283e-05
5.71538e-05
5.33348e-05
4.92933e-05
4.56055e-05
4.23852e-05
3.83588e-05
3.31092e-05
2.52047e-05
1.58583e-05
7.70255e-06
2.74419e-06
6.99498e-07
2.2667e-07
1.85812e-07
5.93354e-05
6.10577e-05
6.12971e-05
6.10126e-05
6.09338e-05
6.13976e-05
6.23781e-05
6.35806e-05
6.45691e-05
6.4937e-05
6.45477e-05
6.32176e-05
6.10703e-05
5.83701e-05
5.54615e-05
5.28905e-05
4.99491e-05
4.49791e-05
3.69433e-05
2.52382e-05
1.26259e-05
4.47568e-06
1.08599e-06
3.21417e-07
2.60121e-07
5.62626e-05
5.90772e-05
6.0229e-05
6.04699e-05
6.05661e-05
6.09857e-05
6.1909e-05
6.32394e-05
6.46731e-05
6.58366e-05
6.6429e-05
6.63466e-05
6.56649e-05
6.43371e-05
6.25911e-05
6.09291e-05
5.9103e-05
5.56651e-05
4.87236e-05
3.64538e-05
2.0482e-05
7.54727e-06
1.73513e-06
4.45777e-07
3.49434e-07
5.31596e-05
5.68971e-05
5.88955e-05
5.97272e-05
6.00145e-05
6.03648e-05
6.10774e-05
6.2246e-05
6.37361e-05
6.52747e-05
6.65432e-05
6.72899e-05
6.74922e-05
6.72633e-05
6.67146e-05
6.60591e-05
6.52961e-05
6.37308e-05
5.89865e-05
4.82907e-05
3.04745e-05
1.25404e-05
2.97243e-06
6.2116e-07
4.63559e-07
5.0129e-05
5.46601e-05
5.74692e-05
5.89252e-05
5.95438e-05
5.98657e-05
6.03205e-05
6.11377e-05
6.23573e-05
6.38467e-05
6.53642e-05
6.66359e-05
6.75225e-05
6.80979e-05
6.84286e-05
6.86101e-05
6.86974e-05
6.84316e-05
6.65386e-05
5.92615e-05
4.28979e-05
2.06565e-05
5.46928e-06
9.09108e-07
5.31817e-07
4.72708e-05
5.24753e-05
5.60601e-05
5.81924e-05
5.92552e-05
5.97073e-05
5.99882e-05
6.04246e-05
6.11837e-05
6.23013e-05
6.36545e-05
6.50306e-05
6.62507e-05
6.73061e-05
6.82189e-05
6.83442e-05
6.80889e-05
6.73653e-05
6.52841e-05
6.09301e-05
5.33317e-05
3.68114e-05
1.47312e-05
3.18467e-06
5.31126e-07
4.46679e-05
5.03828e-05
5.46829e-05
5.75381e-05
5.91709e-05
5.99371e-05
6.02206e-05
6.03959e-05
6.07064e-05
6.12788e-05
6.21617e-05
6.32584e-05
6.44214e-05
6.55893e-05
6.67516e-05
6.78815e-05
6.79016e-05
6.60583e-05
6.38416e-05
6.06469e-05
5.58991e-05
4.88185e-05
3.61086e-05
1.5756e-05
4.77877e-06
4.2555e-05
4.85176e-05
5.3394e-05
5.69591e-05
5.9257e-05
6.05127e-05
6.10285e-05
6.11372e-05
6.11347e-05
6.1226e-05
6.15734e-05
6.2112e-05
6.28646e-05
6.37765e-05
6.48233e-05
6.5966e-05
6.71647e-05
6.83698e-05
6.50346e-05
6.17173e-05
5.80811e-05
5.37739e-05
4.84317e-05
4.15374e-05
2.56979e-05
4.07276e-05
4.70117e-05
5.22581e-05
5.64478e-05
5.94467e-05
6.13302e-05
6.22964e-05
6.25997e-05
6.25272e-05
6.23106e-05
6.21569e-05
6.21396e-05
6.23543e-05
6.27219e-05
6.33224e-05
6.41335e-05
6.5116e-05
6.62273e-05
6.7393e-05
6.64013e-05
6.2173e-05
5.8319e-05
5.45823e-05
5.07733e-05
4.71678e-05
3.87079e-05
4.55321e-05
5.12926e-05
5.5973e-05
5.96445e-05
6.22317e-05
6.38079e-05
6.45495e-05
6.46889e-05
6.44487e-05
6.40392e-05
6.36011e-05
6.32622e-05
6.30639e-05
6.31009e-05
6.33157e-05
6.37757e-05
6.44536e-05
6.53114e-05
6.62856e-05
6.72642e-05
6.67378e-05
6.23432e-05
5.88756e-05
5.61877e-05
3.62501e-05
4.36589e-05
5.00875e-05
5.54387e-05
5.96962e-05
6.29481e-05
6.52119e-05
6.65754e-05
6.71884e-05
6.72287e-05
6.68839e-05
6.63174e-05
6.56688e-05
6.5021e-05
6.44839e-05
6.41036e-05
6.39746e-05
6.40401e-05
6.42993e-05
6.47671e-05
6.53902e-05
6.60918e-05
6.67303e-05
6.7108e-05
6.69849e-05
3.29916e-05
4.0996e-05
4.81651e-05
5.43109e-05
5.93267e-05
6.3086e-05
6.6005e-05
6.8067e-05
6.93361e-05
6.99218e-05
6.99609e-05
6.95985e-05
6.89727e-05
6.82008e-05
6.73883e-05
6.65964e-05
6.58741e-05
6.53578e-05
6.50633e-05
6.4943e-05
6.49762e-05
6.51509e-05
6.54453e-05
6.5775e-05
6.60462e-05
2.83707e-05
3.6845e-05
4.48077e-05
5.18803e-05
5.78522e-05
6.25537e-05
6.59177e-05
6.84885e-05
7.03907e-05
7.16322e-05
7.22742e-05
7.2411e-05
7.2151e-05
7.1605e-05
7.08741e-05
7.00505e-05
6.91933e-05
6.83728e-05
6.7625e-05
6.69807e-05
6.6503e-05
6.61871e-05
6.59839e-05
6.58692e-05
6.58086e-05
2.19585e-05
3.03137e-05
3.88356e-05
4.68748e-05
5.39916e-05
5.9868e-05
6.19102e-05
6.31641e-05
6.41594e-05
6.49528e-05
6.56202e-05
6.62641e-05
6.7044e-05
6.81129e-05
6.97032e-05
7.19646e-05
7.27211e-05
7.20377e-05
7.12931e-05
7.05392e-05
6.98163e-05
6.91394e-05
6.85143e-05
6.79815e-05
6.75673e-05
1.48391e-05
2.14683e-05
2.94163e-05
3.77549e-05
4.58285e-05
5.306e-05
5.8991e-05
6.35422e-05
6.39685e-05
6.39985e-05
6.38506e-05
6.36897e-05
6.3648e-05
6.38288e-05
6.43243e-05
6.52431e-05
6.65863e-05
6.84368e-05
7.09228e-05
7.40606e-05
7.35496e-05
7.29601e-05
7.23345e-05
7.1702e-05
7.10915e-05
8.77533e-06
1.27988e-05
1.83491e-05
2.56436e-05
3.34503e-05
4.12732e-05
4.8527e-05
5.48497e-05
6.01436e-05
6.44401e-05
6.47996e-05
6.45801e-05
6.42698e-05
6.39977e-05
6.38652e-05
6.39671e-05
6.43517e-05
6.5037e-05
6.60724e-05
6.74943e-05
6.93524e-05
7.17003e-05
7.45218e-05
7.47103e-05
7.42378e-05
4.47851e-06
6.51992e-06
9.40445e-06
1.3445e-05
1.89289e-05
2.54278e-05
3.23413e-05
3.91201e-05
4.54979e-05
5.12106e-05
5.6126e-05
6.02454e-05
6.31525e-05
6.30961e-05
6.29423e-05
6.28206e-05
6.28208e-05
6.29927e-05
6.33683e-05
6.39631e-05
6.47835e-05
6.58547e-05
6.71856e-05
6.87508e-05
7.05806e-05
1.85047e-06
2.67564e-06
3.8405e-06
5.48778e-06
7.81468e-06
1.1075e-05
1.50708e-05
1.96073e-05
2.46497e-05
2.9647e-05
3.44545e-05
3.89743e-05
4.30578e-05
4.66252e-05
4.96712e-05
5.2215e-05
5.429e-05
5.59364e-05
5.7195e-05
5.81041e-05
5.86484e-05
5.90009e-05
5.90431e-05
5.88422e-05
5.84208e-05
5.55569e-07
7.96559e-07
1.13241e-06
1.60131e-06
2.25785e-06
3.17244e-06
4.4422e-06
6.07124e-06
7.97206e-06
1.00786e-05
1.23608e-05
1.48489e-05
1.72549e-05
1.95591e-05
2.1709e-05
2.36432e-05
2.53261e-05
2.67371e-05
2.78673e-05
2.87152e-05
2.92863e-05
2.9594e-05
2.96556e-05
2.94924e-05
2.91308e-05
1.04478e-07
1.48163e-07
2.07517e-07
2.87657e-07
3.95305e-07
5.39077e-07
7.31052e-07
9.95069e-07
1.3354e-06
1.72462e-06
2.16689e-06
2.66345e-06
3.18901e-06
3.73485e-06
4.28748e-06
4.79394e-06
5.25137e-06
5.65126e-06
5.98537e-06
6.24624e-06
6.4304e-06
6.53932e-06
6.57696e-06
6.54904e-06
6.46361e-06
1.83029e-08
2.51473e-08
3.37106e-08
4.42169e-08
5.67713e-08
7.10384e-08
8.567e-08
1.02527e-07
1.22563e-07
1.4482e-07
1.6899e-07
1.95661e-07
2.23716e-07
2.52567e-07
2.81502e-07
3.08564e-07
3.34972e-07
3.60683e-07
3.86429e-07
4.119e-07
4.36596e-07
4.60984e-07
4.85179e-07
5.09083e-07
5.32531e-07
1.30264e-08
1.7701e-08
2.33203e-08
2.9927e-08
3.75341e-08
4.59186e-08
5.42246e-08
6.05062e-08
6.37435e-08
6.41595e-08
6.24671e-08
5.87972e-08
5.22691e-08
4.28103e-08
3.15623e-08
2.01193e-08
1.07595e-08
4.99087e-09
5.22763e-09
1.28689e-08
2.74597e-08
4.93362e-08
7.83222e-08
1.1379e-07
1.54577e-07
1.90371e-07
7.16901e-08
2.85932e-08
1.35359e-06
6.85046e-07
4.57308e-07
1.41513e-05
9.04074e-06
6.66325e-06
4.29626e-05
3.44154e-05
2.81483e-05
5.43012e-05
5.28152e-05
5.12845e-05
6.53927e-05
6.33431e-05
6.1659e-05
6.6156e-05
6.60642e-05
6.57388e-05
6.57831e-05
6.57655e-05
6.57122e-05
6.72595e-05
6.69935e-05
6.6753e-05
7.05505e-05
7.00246e-05
6.95238e-05
7.37501e-05
7.32213e-05
7.26562e-05
7.21347e-05
7.16482e-05
7.10348e-05
5.78599e-05
5.71438e-05
5.62674e-05
2.86487e-05
2.80486e-05
2.73335e-05
6.34151e-06
6.18819e-06
6.00578e-06
5.53702e-07
5.73297e-07
5.91821e-07
1.96305e-07
2.37624e-07
2.79634e-07
8.53148e-15
4.3445e-14
9.11196e-14
1.0307e-13
6.0923e-14
3.35279e-14
1.83281e-13
6.86542e-13
1.69746e-12
3.32835e-12
5.64911e-12
8.67517e-12
1.23787e-11
1.66988e-11
2.15569e-11
2.68645e-11
3.25213e-11
3.84114e-11
4.43963e-11
5.02278e-11
5.54499e-11
6.00839e-11
6.73362e-11
1.03814e-10
2.07106e-10
1.26204e-10
1.35518e-10
1.28556e-10
1.46518e-10
1.68944e-10
1.95299e-10
2.25688e-10
2.61333e-10
3.03819e-10
3.5501e-10
4.17165e-10
4.93066e-10
5.86116e-10
7.00476e-10
8.41212e-10
1.01446e-09
1.22757e-09
1.48927e-09
1.80971e-09
2.20061e-09
2.67574e-09
3.25043e-09
3.94098e-09
4.76416e-09
5.7356e-09
6.8688e-09
8.17377e-09
9.65396e-09
1.13032e-08
1.31024e-08
1.50159e-08
1.69879e-08
1.89411e-08
2.07774e-08
2.23846e-08
2.36397e-08
2.44028e-08
2.45993e-08
2.41349e-08
2.29161e-08
2.09868e-08
1.84614e-08
1.55141e-08
1.23632e-08
9.2582e-09
6.43607e-09
4.08235e-09
2.30355e-09
1.11446e-09
4.46001e-10
1.74209e-10
2.25423e-11
4.42263e-12
5.16576e-12
1.90796e-12
3.02989e-14
4.40783e-14
1.52877e-13
3.56511e-13
6.47028e-13
1.09257e-12
1.81969e-12
2.96326e-12
4.63801e-12
6.92688e-12
9.89446e-12
1.3681e-11
1.86968e-11
2.3926e-11
2.95007e-11
3.54123e-11
4.15825e-11
4.79023e-11
5.42374e-11
6.04051e-11
6.63103e-11
7.31252e-11
8.75921e-11
1.31976e-10
1.99798e-10
1.50395e-10
1.44261e-10
1.43304e-10
1.58614e-10
1.80316e-10
2.06541e-10
2.37266e-10
2.73557e-10
3.16967e-10
3.69395e-10
4.33155e-10
5.11085e-10
6.06659e-10
7.24118e-10
8.68622e-10
1.04641e-09
1.26495e-09
1.53308e-09
1.86111e-09
2.26099e-09
2.7465e-09
3.33289e-09
4.03632e-09
4.87311e-09
5.85839e-09
7.00484e-09
8.32101e-09
9.80844e-09
1.14587e-08
1.32501e-08
1.51445e-08
1.70852e-08
1.89954e-08
2.07814e-08
2.23376e-08
2.35519e-08
2.43134e-08
2.45514e-08
2.41683e-08
2.30956e-08
2.13616e-08
1.90594e-08
1.63346e-08
1.3374e-08
1.03917e-08
7.59926e-09
5.17369e-09
3.23196e-09
1.81325e-09
8.87724e-10
4.16186e-10
1.4776e-10
4.0529e-11
6.78017e-12
3.34787e-12
5.09115e-14
9.58745e-14
9.30653e-13
4.25451e-12
1.06466e-11
1.98219e-11
3.16162e-11
4.5909e-11
6.25111e-11
8.11894e-11
1.01789e-10
1.24474e-10
1.49565e-10
1.74171e-10
1.98039e-10
2.2114e-10
2.43358e-10
2.64554e-10
2.84643e-10
3.03716e-10
3.22428e-10
3.43257e-10
3.72983e-10
4.21022e-10
4.63567e-10
4.55228e-10
4.58883e-10
4.74325e-10
5.03936e-10
5.4443e-10
5.9509e-10
6.56967e-10
7.32312e-10
8.24186e-10
9.36343e-10
1.0733e-09
1.24047e-09
1.44437e-09
1.69277e-09
1.99502e-09
2.36217e-09
2.80731e-09
3.34572e-09
3.99506e-09
4.77549e-09
5.70966e-09
6.82228e-09
8.13954e-09
9.68797e-09
1.14929e-08
1.35769e-08
1.59572e-08
1.86434e-08
2.16339e-08
2.49134e-08
2.84503e-08
3.21955e-08
3.60827e-08
4.00314e-08
4.39541e-08
4.7767e-08
5.14044e-08
5.46945e-08
5.71239e-08
5.84183e-08
5.83364e-08
5.66955e-08
5.34097e-08
4.85315e-08
4.22845e-08
3.50683e-08
2.74259e-08
1.99684e-08
1.32749e-08
7.82217e-09
3.93897e-09
1.47032e-09
3.00167e-10
1.97704e-11
1.03228e-12
2.79095e-14
1.8189e-13
2.97492e-12
1.81368e-11
5.77838e-11
1.24391e-10
2.13351e-10
3.20005e-10
4.40945e-10
5.73431e-10
7.15272e-10
8.64912e-10
1.02011e-09
1.17309e-09
1.32036e-09
1.46033e-09
1.592e-09
1.7147e-09
1.82818e-09
1.93283e-09
2.03002e-09
2.1227e-09
2.21581e-09
2.31288e-09
2.40226e-09
2.47622e-09
2.56051e-09
2.66665e-09
2.80243e-09
2.97342e-09
3.18655e-09
3.45075e-09
3.77706e-09
4.17854e-09
4.67047e-09
5.27066e-09
5.99994e-09
6.88267e-09
7.94742e-09
9.22769e-09
1.07626e-08
1.25977e-08
1.47857e-08
1.73872e-08
2.04712e-08
2.41155e-08
2.84066e-08
3.34401e-08
3.93193e-08
4.61545e-08
5.40608e-08
6.31565e-08
7.35599e-08
8.53855e-08
9.87388e-08
1.1371e-07
1.30366e-07
1.4873e-07
1.68769e-07
1.90369e-07
2.13332e-07
2.3735e-07
2.59949e-07
2.79227e-07
2.9339e-07
3.00564e-07
2.99053e-07
2.87666e-07
2.66054e-07
2.35005e-07
1.96566e-07
1.53922e-07
1.10997e-07
7.18447e-08
3.99882e-08
1.77339e-08
5.40593e-09
8.8827e-10
6.00799e-11
1.11984e-11
2.20542e-14
3.81522e-13
6.71624e-12
4.51166e-11
1.66652e-10
4.14326e-10
7.90035e-10
1.26684e-09
1.81528e-09
2.4132e-09
3.04497e-09
3.69837e-09
4.36033e-09
5.0123e-09
5.64053e-09
6.23631e-09
6.79401e-09
7.31013e-09
7.78308e-09
8.21336e-09
8.60378e-09
8.95969e-09
9.28902e-09
9.60106e-09
9.90449e-09
1.02159e-08
1.05632e-08
1.09735e-08
1.14743e-08
1.2094e-08
1.28644e-08
1.38215e-08
1.50064e-08
1.6466e-08
1.82534e-08
2.04298e-08
2.30653e-08
2.62413e-08
3.00524e-08
3.46087e-08
4.00388e-08
4.6493e-08
5.4146e-08
6.32012e-08
7.38943e-08
8.64975e-08
1.01324e-07
1.18734e-07
1.39134e-07
1.62988e-07
1.90813e-07
2.2318e-07
2.60711e-07
3.04065e-07
3.53907e-07
4.10867e-07
4.75453e-07
5.47917e-07
6.28005e-07
7.14714e-07
8.06048e-07
8.98732e-07
9.82377e-07
1.05071e-06
1.09685e-06
1.11367e-06
1.09526e-06
1.0382e-06
9.42877e-07
8.14306e-07
6.62245e-07
5.00349e-07
3.44339e-07
2.09434e-07
1.07322e-07
4.29037e-08
1.18224e-08
1.8521e-09
1.63407e-10
7.11593e-11
3.04991e-13
9.63429e-13
1.29722e-11
8.8762e-11
3.50837e-10
9.57806e-10
2.00616e-09
3.4718e-09
5.25144e-09
7.23281e-09
9.32816e-09
1.14743e-08
1.36209e-08
1.57213e-08
1.7738e-08
1.96436e-08
2.14195e-08
2.30535e-08
2.45397e-08
2.58782e-08
2.70754e-08
2.81453e-08
2.91094e-08
2.99982e-08
3.0853e-08
3.17283e-08
3.26887e-08
3.38047e-08
3.51527e-08
3.68161e-08
3.88867e-08
4.14664e-08
4.46683e-08
4.86183e-08
5.34579e-08
5.93472e-08
6.64691e-08
7.50343e-08
8.5288e-08
9.75173e-08
1.1206e-07
1.29314e-07
1.4975e-07
1.73927e-07
2.02503e-07
2.36259e-07
2.76111e-07
3.23138e-07
3.78599e-07
4.43948e-07
5.20849e-07
6.11166e-07
7.16932e-07
8.40268e-07
9.83229e-07
1.14753e-06
1.33414e-06
1.54269e-06
1.77044e-06
2.01102e-06
2.25388e-06
2.4841e-06
2.67692e-06
2.81505e-06
2.88141e-06
2.86099e-06
2.74458e-06
2.53172e-06
2.23259e-06
1.8683e-06
1.46905e-06
1.07053e-06
7.08678e-07
4.13596e-07
2.03266e-07
7.83287e-08
2.11347e-08
3.36619e-09
3.8306e-10
2.2885e-10
1.363e-12
2.41018e-12
2.30499e-11
1.55411e-10
6.31142e-10
1.81191e-09
4.04592e-09
7.46943e-09
1.19398e-08
1.71485e-08
2.27739e-08
2.85603e-08
3.43227e-08
3.99268e-08
4.52758e-08
5.03015e-08
5.49571e-08
5.92126e-08
6.30525e-08
6.64756e-08
6.94967e-08
7.2148e-08
7.44822e-08
7.65741e-08
7.85238e-08
8.04565e-08
8.25176e-08
8.48692e-08
8.7689e-08
9.11711e-08
9.5527e-08
1.00987e-07
1.07804e-07
1.16253e-07
1.26643e-07
1.39317e-07
1.54668e-07
1.73148e-07
1.95287e-07
2.21707e-07
2.5315e-07
2.90503e-07
3.3483e-07
3.87405e-07
4.49764e-07
5.23741e-07
6.1153e-07
7.15733e-07
8.39411e-07
9.86117e-07
1.1599e-06
1.36522e-06
1.60681e-06
1.8893e-06
2.21658e-06
2.59088e-06
3.01129e-06
3.47192e-06
3.95941e-06
4.45122e-06
4.91616e-06
5.31691e-06
5.61232e-06
5.77165e-06
5.76863e-06
5.58717e-06
5.22571e-06
4.70003e-06
4.04354e-06
3.30464e-06
2.54155e-06
1.81518e-06
1.18088e-06
6.79888e-07
3.31503e-07
1.27803e-07
3.49491e-08
5.83591e-09
8.41129e-10
5.55069e-10
3.91881e-12
5.72027e-12
3.94596e-11
2.5524e-10
1.04148e-09
3.06287e-09
7.10786e-09
1.37473e-08
2.30246e-08
3.44425e-08
4.72284e-08
6.06276e-08
7.40519e-08
8.70937e-08
9.94879e-08
1.11066e-07
1.21723e-07
1.31396e-07
1.40054e-07
1.47694e-07
1.54346e-07
1.60077e-07
1.64992e-07
1.69244e-07
1.73033e-07
1.76607e-07
1.80254e-07
1.84298e-07
1.89098e-07
1.95042e-07
2.0255e-07
2.12074e-07
2.24101e-07
2.39162e-07
2.57836e-07
2.80774e-07
3.08711e-07
3.42497e-07
3.83129e-07
4.31792e-07
4.89906e-07
5.59186e-07
6.41706e-07
7.39978e-07
8.57045e-07
9.96572e-07
1.16295e-06
1.36141e-06
1.59806e-06
1.87992e-06
2.21485e-06
2.61121e-06
3.07728e-06
3.62018e-06
4.24415e-06
4.94814e-06
5.72258e-06
6.54598e-06
7.38224e-06
8.18209e-06
8.88755e-06
9.43799e-06
9.7794e-06
9.87276e-06
9.69099e-06
9.2254e-06
8.49007e-06
7.52348e-06
6.3869e-06
5.1594e-06
3.92973e-06
2.78605e-06
1.80454e-06
1.0384e-06
5.08501e-07
1.9801e-07
5.50595e-08
9.54153e-09
1.61146e-09
1.15565e-09
8.88663e-12
1.14753e-11
6.305e-11
3.95094e-10
1.61652e-09
4.82099e-09
1.14571e-08
2.28745e-08
3.97066e-08
6.15111e-08
8.69576e-08
1.14381e-07
1.42279e-07
1.69544e-07
1.95452e-07
2.19573e-07
2.41664e-07
2.61595e-07
2.79309e-07
2.94807e-07
3.08142e-07
3.19433e-07
3.28871e-07
3.36727e-07
3.43355e-07
3.49196e-07
3.54763e-07
3.60641e-07
3.67476e-07
3.75968e-07
3.86869e-07
4.00983e-07
4.19165e-07
4.42338e-07
4.71503e-07
5.07771e-07
5.52393e-07
6.06813e-07
6.72727e-07
7.52153e-07
8.47518e-07
9.61765e-07
1.09847e-06
1.26198e-06
1.45755e-06
1.69154e-06
1.97155e-06
2.30652e-06
2.70683e-06
3.18417e-06
3.75119e-06
4.42065e-06
5.20403e-06
6.10915e-06
7.13692e-06
8.27712e-06
9.50394e-06
1.07726e-05
1.20189e-05
1.31645e-05
1.41247e-05
1.48195e-05
1.51902e-05
1.51896e-05
1.47881e-05
1.39804e-05
1.27918e-05
1.12807e-05
9.5377e-06
7.6787e-06
5.83336e-06
4.12935e-06
2.67507e-06
1.5436e-06
7.60759e-07
2.99485e-07
8.46537e-08
1.51731e-08
2.88937e-09
2.18459e-09
1.70927e-11
2.0805e-11
9.68798e-11
5.87721e-10
2.4045e-09
7.23202e-09
1.74502e-08
3.56007e-08
6.34455e-08
1.01085e-07
1.46767e-07
1.97554e-07
2.50326e-07
3.02517e-07
3.52361e-07
3.98789e-07
4.41224e-07
4.79382e-07
5.13156e-07
5.42544e-07
5.67642e-07
5.88642e-07
6.05849e-07
6.19699e-07
6.30765e-07
6.39759e-07
6.47524e-07
6.55025e-07
6.63333e-07
6.73612e-07
6.8711e-07
7.05153e-07
7.29145e-07
7.60581e-07
8.01072e-07
8.52384e-07
9.16491e-07
9.95658e-07
1.09252e-06
1.21022e-06
1.35253e-06
1.52398e-06
1.73013e-06
1.97767e-06
2.27472e-06
2.63101e-06
3.05808e-06
3.56942e-06
4.18035e-06
4.90776e-06
5.76922e-06
6.78143e-06
7.95774e-06
9.3045e-06
1.08163e-05
1.2471e-05
1.42249e-05
1.60108e-05
1.77402e-05
1.93097e-05
2.06112e-05
2.15435e-05
2.20366e-05
2.20249e-05
2.14606e-05
2.03251e-05
1.86408e-05
1.6479e-05
1.39627e-05
1.1259e-05
8.56169e-06
6.06478e-06
3.9328e-06
2.27468e-06
1.12668e-06
4.47516e-07
1.28325e-07
2.36859e-08
4.92949e-09
3.85288e-09
2.93678e-11
3.6693e-11
1.47366e-10