/*--------------------------------*- C++ -*----------------------------------*\
| =========                 |                                                 |
| \\      /  F ield         | OpenFOAM: The Open Source CFD Toolbox           |
|  \\    /   O peration     | Version:  v2012                                 |
|   \\  /    A nd           | Website:  www.openfoam.com                      |
|    \\/     M anipulation  |                                                 |
\*---------------------------------------------------------------------------*/
FoamFile
{
    version     2.0;
    format      ascii;
    class       volScalarField;
    location    "2000";
    object      omega;
}
// * * * * * * * * * * * * * * * * * * * * * * * * * * * * * * * * * * * * * //

dimensions      [0 0 -1 0 0 0 0];


internalField   nonuniform List<scalar> 
6502
(
1797.05
242.818
67.9972
45.7714
42.6353
42.6335
45.7633
67.9703
242.741
1797.05
1795.66
355.909
103.558
51.7309
41.9244
41.9135
51.6856
103.431
355.694
1795.66
1794.97
390.792
128.232
58.9156
42.5345
42.5037
58.8037
127.982
390.455
1794.97
1794.54
393.91
141.499
64.9798
43.7671
43.7061
64.7837
141.115
393.429
1794.54
1794.28
383.298
146.056
69.0218
45.074
44.9715
68.7198
145.534
382.641
1794.29
1794.14
368.635
145.148
71.125
46.1521
45.996
70.6935
144.46
367.781
1794.15
1794.06
354.778
141.618
71.7892
46.8969
46.6762
71.2092
140.708
353.647
1794.07
1794.01
343.627
137.292
71.4976
47.299
47.0052
70.7367
136.086
342.073
1794.02
1793.98
335.732
133.185
70.6585
47.4099
47.0235
69.6837
131.567
333.608
1793.99
1793.96
330.435
129.698
69.5716
47.3085
46.8009
68.3018
127.566
327.615
1793.98
1793.95
327.022
126.893
68.4567
47.0638
46.4073
66.7926
124.082
323.258
1793.96
1793.93
325.031
124.771
67.4454
46.7338
45.8871
65.2566
121.028
319.982
1793.96
1793.92
324.043
123.308
66.6203
46.3742
45.2942
63.7239
118.343
317.396
1793.95
1793.91
323.804
122.466
66.0405
46.0291
44.6932
62.1728
115.931
315.569
1793.95
1793.9
324.082
122.167
65.7112
45.7294
44.1084
60.7929
113.903
314.372
1793.95
1793.89
324.77
122.363
65.6521
45.519
43.56
59.5568
112.199
313.196
1793.96
1793.88
325.83
123.032
65.8996
45.4455
43.0649
58.4081
110.599
311.838
1793.97
1793.87
327.227
124.158
66.4889
45.5512
42.6401
57.2895
108.912
310.071
1793.98
1793.85
328.873
125.701
67.4416
45.88
42.305
56.15
106.925
307.477
1794.01
1793.84
330.624
127.581
68.754
46.4584
42.0777
54.9108
104.11
301.137
1794.03
1793.82
332.315
129.686
70.4024
47.3151
41.9582
53.2595
96.0502
224.53
585.363
1793.81
333.675
131.814
72.2908
48.4322
41.9571
51.2757
86.2226
167.074
282.509
1793.79
334.469
133.751
74.2878
49.7417
42.0807
49.1606
76.6966
128.859
174.29
1793.78
334.731
135.352
76.271
51.194
42.3421
47.1031
68.2352
103.025
123.983
1793.77
334.563
136.549
78.1435
52.7404
42.7554
45.2478
60.9871
84.6852
95.8908
1793.76
334.025
137.31
79.8251
54.3283
43.3214
43.6842
54.8848
71.3556
78.3849
1793.75
333.168
137.622
81.246
55.902
44.0317
42.4674
50.021
61.521
66.568
1793.74
332.024
137.472
82.3405
57.4062
44.9141
41.6277
46.1843
54.1886
58.0776
1793.73
330.616
136.849
83.043
58.7618
45.8967
41.1619
43.2477
48.6356
51.7148
1793.73
328.982
135.758
83.2979
59.8936
46.9294
41.0441
41.1057
44.4124
46.7675
1793.73
327.175
134.221
83.0588
60.7206
47.943
41.227
39.6443
41.2277
42.8505
1793.72
325.238
132.272
82.2881
61.1557
48.8476
41.6349
38.7605
38.8791
39.7432
1793.72
323.203
129.961
80.9678
61.1156
49.54
42.1722
38.3526
37.2581
37.331
1793.72
321.223
127.391
79.1153
60.5317
49.9079
42.7219
38.3086
36.2421
35.5347
1793.72
319.517
124.695
76.7872
59.3601
49.8391
43.1476
38.4941
35.7166
34.2937
1793.72
317.608
121.858
74.0449
57.5873
49.2343
43.3036
38.757
35.5579
33.5426
1793.72
315.455
118.922
70.9829
55.2441
48.0232
43.0463
38.9268
35.6141
33.188
1793.72
313.555
116.118
67.7773
52.4282
46.1859
42.2547
38.8288
35.7125
33.1056
1793.72
312.768
113.904
64.6917
49.3081
43.7701
40.8521
38.3011
35.6663
33.1386
1793.72
311.79
111.837
61.7444
46.0345
40.8783
38.8221
37.2158
35.29
33.1036
1793.72
310.27
109.746
58.9748
42.7671
37.668
36.2226
35.5045
34.4244
32.8094
1793.72
309.798
108.325
56.6439
39.7158
34.3468
33.1912
33.1804
32.9623
32.0815
1793.72
309.708
107.327
54.7188
37.0016
31.1181
29.9219
30.3441
30.8713
30.7911
1793.72
309.382
106.316
53.1314
34.6894
28.1765
26.663
27.1905
28.2237
28.8931
1793.72
308.514
105.352
51.8463
32.7786
25.6177
23.5823
23.8596
24.9869
26.2892
1793.72
299.049
103.513
50.738
31.3374
23.4975
20.8515
20.6992
21.6441
23.1004
1793.72
297.187
102.904
50.0862
30.3221
21.8975
18.5892
17.9142
18.4983
19.8554
1793.72
296.92
102.722
49.6942
29.6069
20.7289
16.8082
15.5721
15.7264
16.8031
1793.72
296.869
102.605
49.4389
29.0836
19.8805
15.5407
13.7504
13.4829
14.159
1793.72
296.772
102.407
49.1775
28.6808
19.2811
14.7024
12.576
11.8871
12.1194
1793.72
296.62
102.136
48.8469
28.3494
18.9548
14.294
12.0038
11.0311
10.8833
1793.72
296.432
101.83
48.5235
28.1198
18.8816
14.3623
12.1011
11.0045
10.5895
1793.72
296.205
101.504
48.2828
28.1339
19.2289
15.0149
12.9494
11.9056
11.3738
1793.72
295.984
101.263
48.3072
28.6533
20.3074
16.5699
14.8296
13.9494
13.4267
1793.72
295.846
101.304
48.9818
30.2224
22.7334
19.6506
18.3411
17.7061
17.2828
1793.72
295.944
102.141
51.3054
34.164
27.9438
25.6983
24.8991
24.5684
24.3213
1793.72
297.281
105.888
58.6651
44.4403
39.9954
38.7229
38.4583
38.4555
38.4438
1793.72
312.83
124.018
85.2543
75.6428
73.1618
72.7734
72.94
73.2097
73.4346
1793.72
365.367
226.226
207.97
201.378
198.665
198.517
198.795
199.139
199.467
1793.72
1175.48
1175.48
1175.48
1175.48
1175.48
1175.48
1175.48
1175.48
1175.48
1128.31
1128.29
1128.28
1128.28
1128.28
1128.28
1128.28
1128.28
1128.28
1128.28
1128.28
1128.28
1128.27
1128.27
1128.27
1128.27
1128.27
1128.27
1128.27
1128.27
1128.27
1128.27
1128.27
1128.27
1557.89
288.971
213.369
190.143
185.402
184.2
184.168
184.464
184.788
185.04
185.205
185.299
185.344
185.365
185.386
185.437
185.59
186.228
189.969
193.282
194.12
195.128
198.514
215.867
373.877
1987.5
148.762
97.5824
73.993
66.143
63.2352
62.2641
62.0644
62.1344
62.2617
62.3625
62.4207
62.4479
62.4684
62.5128
62.6198
62.8525
63.349
64.395
65.7211
67.5283
71.6768
84.21
129.468
333.341
1987.5
101.379
66.8185
45.2808
35.6134
31.7073
29.984
29.2833
29.0381
28.9831
28.991
29.0159
29.0541
29.1223
29.2487
29.4733
29.8559
30.4964
31.5685
33.3666
36.7522
44.2258
63.2016
119.716
342.725
1987.5
79.6645
55.1295
35.7332
25.5363
20.707
18.4398
17.3709
16.9053
16.738
16.7177
16.7791
16.9042
17.1
17.3899
17.8139
18.4388
19.3834
20.8747
23.3836
27.9967
37.4058
59.0662
118.495
343.359
1987.5
67.3681
49.3489
32.7148
22.1182
16.5186
13.7867
12.4588
11.8648
11.6676
11.6931
11.8587
12.1329
12.5128
13.0151
13.6772
14.5686
15.8196
17.6838
20.6794
25.9365
36.141
58.6289
118.654
343.659
1987.5
59.3376
45.9638
32.1695
21.3812
15.2562
11.9991
10.4447
9.76875
9.58577
9.69437
9.99281
10.4359
11.011
11.7281
12.62
13.7534
15.2575
17.3852
20.6514
26.1685
36.5676
59.0578
118.683
342.893
1987.5
53.5303
43.6487
32.2778
22.2391
15.4456
11.6893
9.79862
9.02754
8.85649
9.04341
9.46427
10.0596
10.8084
11.7153
12.81
14.1557
15.8759
18.2124
21.6594
27.2902
37.6442
59.6052
116.643
326.943
1987.5
49.0224
41.8253
32.6093
23.653
16.5109
12.1735
9.9112
8.93857
8.74685
8.9757
9.48371
10.1956
11.082
12.1452
13.4145
14.9536
16.8822
19.4317
23.0756
28.8618
39.3399
61.6168
120.337
339.395
1987.5
45.3045
40.2005
32.9022
25.0993
18.2242
13.2043
10.4697
9.22227
8.91902
9.13094
9.67429
10.4578
11.4409
12.6237
14.039
15.7564
17.8969
20.6863
24.5748
30.5562
41.0723
63.0109
120.383
333.291
1987.5
42.1326
38.642
33.0208
26.4248
20.0441
14.8177
11.4047
9.72843
9.17654
9.32476
9.85603
10.662
11.6968
12.9578
14.4821
16.3562
18.7042
21.7609
25.9684
32.285
43.0699
65.0735
122.132
334.12
1987.5
39.3904
37.0851
32.8975
27.5126
21.8152
16.6871
12.7922
10.4986
9.56254
9.51442
9.95077
10.7243
11.7637
13.0571
14.6484
16.6294
19.1524
22.4727
27.0407
33.8018
45.0469
67.3752
124.396
335.707
1987.5
37.0301
35.5136
32.521
28.2833
23.4048
18.5954
14.5314
11.6595
10.1403
9.71375
9.96487
10.6229
11.6037
12.876
14.4737
16.5069
19.1484
22.6785
27.5963
34.8629
46.7306
69.6471
126.909
337.645
1987.5
35.0545
33.9797
31.8797
28.6912
24.698
20.4087
16.4086
13.2081
11.0944
10.0893
9.99556
10.4204
11.2396
12.4149
13.9429
15.9402
18.6087
22.2765
27.4775
35.2416
47.8354
71.5938
129.452
339.853
1987.51
33.4788
32.5573
31.051
28.7292
25.6134
21.9867
18.2843
14.9811
12.4513
10.8646
10.1836
10.2584
10.7961
11.7433
13.1246
14.9916
17.572
21.2351
26.5961
34.766
48.0976
72.895
131.747
342.227
1987.51
32.3209
31.3298
30.1374
28.4443
26.1159
23.2107
19.9938
16.8337
14.1044
12.0717
10.8347
10.3652
10.489
11.0844
12.1674
13.7916
16.1476
19.6402
24.9605
33.3448
47.306
73.2361
133.46
344.546
1987.51
31.5678
30.3692
29.2596
27.9471
26.2245
24.0119
21.3851
18.5795
15.8972
13.6246
11.9507
10.9419
10.5725
10.6803
11.3107
12.5511
14.5319
17.6556
22.6786
30.9842
45.3213
72.336
134.267
346.617
1987.51
31.1737
29.7151
28.5241
27.3696
26.0393
24.384
22.3576
20.0386
17.6227
15.35
13.4367
12.0216
11.1545
10.8202
10.9264
11.565
13.0198
15.566
19.9874
27.8104
42.1033
69.94
133.829
348.257
1987.52
31.0483
29.3637
28.0093
26.8432
25.6976
24.4152
22.8866
21.0859
19.0825
17.0244
15.1004
13.4754
12.2587
11.506
11.2016
11.3255
12.0663
13.7725
17.2835
24.1159
37.7446
65.8121
131.595
348.975
1987.52
31.0557
29.2525
27.7379
26.4678
25.3455
24.2464
23.0529
21.6862
20.1338
18.4498
16.7124
15.0915
13.7162
12.687
12.0599
11.7882
11.9773
12.9282
15.2474
20.4015
32.5006
59.6992
127.069
348.78
1987.53
31.0237
29.2656
27.6731
26.2851
25.0952
24.0305
23.0011
21.9214
20.7367
19.4371
18.0567
16.6562
15.3205
14.1935
13.3531
12.795
12.5948
12.9353
14.3483
18.0265
27.2759
51.61
119.316
346.504
1987.54
30.7613
29.2414
27.7085
26.2812
25.0018
23.8887
22.8878
21.9395
20.985
19.984
18.9305
17.848
16.762
15.724
14.8174
14.1039
13.6556
13.6009
14.2744
16.7005
23.6137
43.5575
106.092
340.823
1987.55
30.0879
28.9896
27.6899
26.3449
25.0553
23.8805
22.8367
21.9006
21.0365
20.2037
19.3786
18.5572
17.7334
16.8994
16.0982
15.3911
14.8484
14.5707
14.776
16.1277
20.7334
35.5004
87.2144
316.755
1987.56
28.8795
28.337
27.4346
26.3271
25.1449
23.9832
22.9029
21.9281
21.0547
20.2679
19.5467
18.8774
18.2422
17.608
16.9753
16.3781
15.8666
15.5133
15.4498
16.0088
18.2912
25.668
49.0073
126.458
378.693
27.0151
27.1231
26.7538
26.0409
25.1134
24.085
23.0428
22.0545
21.1504
20.3356
19.6167
18.9891
18.4377
17.9279
17.435
16.9648
16.5409
16.2052
16.0296
16.1596
16.9709
19.6834
27.6515
48.6142
96.8647
24.4201
25.2357
25.4883
25.2957
24.7677
24.0144
23.1337
22.2113
21.3142
20.477
19.733
19.0682
18.5043
18.0209
17.5888
17.1961
16.8453
16.5527
16.3519
16.305
16.5394
17.3518
19.4597
24.678
35.3054
21.3621
22.6747
23.5655
23.9546
23.9303
23.581
22.9971
22.2659
21.4696
20.6668
19.9066
19.2085
18.6061
18.073
17.6179
17.2258
16.8899
16.6105
16.3976
16.274
16.2847
16.5179
17.148
18.5066
20.9717
18.2613
19.7511
21.0481
21.9917
22.4992
22.6314
22.4574
22.0455
21.4716
20.8036
20.1043
19.4179
18.7823
18.2073
17.7097
17.2548
16.8665
16.5428
16.2838
16.094
15.9859
15.9855
16.1395
16.5247
17.2219
15.3811
16.8203
18.2591
19.5243
20.504
21.1284
21.4163
21.4101
21.1667
20.7479
20.2153
19.6227
19.0182
18.4367
17.8984
17.3975
16.9552
16.556
16.2075
15.9245
15.7066
15.5599
15.4958
15.5314
15.6851
12.977
14.1796
15.5412
16.8963
18.1269
19.1814
19.9082
20.3277
20.4723
20.3864
20.1202
19.7244
19.2466
18.7283
18.2009
17.6901
17.1893
16.7289
16.3179
15.948
15.6207
15.3435
15.127
14.971
14.8795
11.3051
12.1368
13.2369
14.4689
15.7196
16.917
18.0124
18.8419
19.3815
19.6635
19.7244
19.6044
19.3442
18.9836
18.5569
18.096
17.6161
17.1355
16.6662
16.2167
15.8093
15.4467
15.1207
14.833
14.585
10.6367
11.0158
11.717
12.6466
13.7105
14.8376
15.9803
17.05
17.8907
18.4999
18.89
19.0809
19.0988
18.9739
18.7363
18.4161
18.0381
17.6215
17.1833
16.7374
16.2978
15.871
15.461
15.0824
14.7466
11.1456
11.1447
11.3964
11.906
12.6098
13.4632
14.4286
15.4212
16.3257
17.0953
17.7067
18.1519
18.4343
18.5661
18.5653
18.4523
18.2492
17.9759
17.65
17.2872
16.9
16.4998
16.0966
15.6999
15.3198
13.0626
12.7886
12.5969
12.5517
12.7617
13.187
13.7854
14.4941
15.2376
15.9572
16.6093
17.1647
17.6063
17.9275
18.13
18.2212
18.2128
18.1186
17.9529
17.7293
17.4602
17.1572
16.8311
16.4913
16.1466
16.893
16.4827
16.0358
15.5626
15.1106
14.9126
14.9576
15.1928
15.5593
16.0033
16.475
16.9341
17.3519
17.7088
17.9927
18.1981
18.3245
18.3757
18.3583
18.2806
18.1515
17.9802
17.7755
17.5462
17.3015
24.0117
23.5998
23.0688
22.3993
21.5893
20.6806
19.9831
19.5431
19.3132
19.2565
19.309
19.4242
19.576
19.7408
19.9009
20.0433
20.158
20.2389
20.284
20.2942
20.2726
20.2232
20.151
20.0619
19.9625
38.3184
38.0512
37.6281
37.0077
36.1452
35.0601
33.7502
32.5026
31.585
30.9101
30.3822
29.9352
29.5882
29.3159
29.1086
28.9615
28.8615
28.7967
28.7599
28.7478
28.7575
28.7863
28.8333
28.899
28.9837
73.5511
73.5424
73.4074
73.1222
72.6505
71.9926
71.111
69.5242
67.8183
66.689
65.7683
64.8941
64.0743
63.3138
62.636
62.0961
61.6701
61.3436
61.1141
60.9858
60.9548
61.0101
61.144
61.3505
61.6219
199.746
199.964
200.157
200.377
200.746
201.614
204.463
204.806
202.977
201.613
200.825
200.03
199.199
198.36
197.58
196.937
196.405
195.962
195.62
195.419
195.355
195.395
195.532
195.764
196.079
1175.48
1175.48
1175.48
1175.48
1175.48
1175.48
1175.48
1175.48
1175.48
1175.48
1175.48
1175.48
1175.48
1175.48
1175.48
1175.48
1175.48
1175.48
1175.48
1175.48
1175.48
1175.48
1175.48
1175.49
1175.49
1175.49
1175.48
1175.48
177.065
193.693
188.345
49.745
58.6488
61.0077
24.2413
27.443
29.7381
18.1475
19.2188
20.2515
15.9318
16.2621
16.6405
14.8535
14.8768
14.9405
14.4001
14.254
14.1381
14.4742
14.2274
14.0022
14.9906
14.6765
14.3785
15.8377
15.5348
15.237
17.0738
16.8446
16.6139
19.8686
19.7747
19.6821
29.0791
29.189
29.3156
61.9232
62.2563
62.6196
196.435
196.819
197.218
1175.49
1175.49
1175.5
1519.79
1128.27
1128.27
1128.27
1128.27
1128.27
1128.27
1128.27
1128.27
1128.27
1128.27
1128.27
1128.27
1128.27
1128.27
1128.27
1128.27
1128.27
1128.27
1128.27
1128.27
1128.27
1128.27
1128.27
1128.27
1128.27
1128.27
1128.27
1128.27
1128.27
1128.27
1128.27
1128.27
1128.27
1128.27
1128.27
1128.27
1128.27
1128.27
1128.27
1128.27
1128.27
1128.27
1128.27
1128.27
1128.27
1128.27
1128.27
1128.27
1128.27
1128.28
1128.28
1128.28
1128.28
1128.28
1128.28
1128.28
1128.28
1128.28
1128.28
1128.28
1128.28
1128.28
1128.28
1128.28
1128.28
1128.28
1128.28
1128.28
1128.28
1128.27
1128.27
1128.27
1128.27
1128.27
1128.27
1128.27
1128.27
1128.27
1519.79
1911.31
364.356
219.732
199.067
195.612
194.937
194.787
194.751
194.744
194.723
194.553
193.222
188.186
187.214
187.021
186.969
186.948
186.934
186.924
186.917
186.921
186.947
186.99
187.019
186.794
186.612
186.83
187.009
187.049
187.062
187.076
187.097
187.127
187.164
187.209
187.261
187.32
187.386
187.461
187.543
187.633
187.731
187.836
187.949
188.067
188.191
188.32
188.45
188.576
188.694
188.801
188.891
188.956
188.989
188.981
188.923
188.805
188.621
188.363
188.03
187.623
187.148
186.613
186.311
186.03
185.754
185.493
185.262
185.076
184.95
184.905
184.974
185.304
186.735
192.659
194.483
198.713
221.248
378.013
1911.31
1911.31
332.806
128.187
83.5651
71.7659
68.3046
67.1999
66.8183
66.6719
66.5877
66.4528
66.0812
65.2974
64.9783
64.8719
64.8346
64.8181
64.8077
64.7991
64.7919
64.7883
64.7932
64.8116
64.8429
64.8453
64.8391
64.8899
64.9464
64.9841
65.0176
65.0556
65.1017
65.1571
65.222
65.2967
65.3813
65.4761
65.5812
65.6968
65.8228
65.9588
66.1042
66.2578
66.4182
66.5831
66.7499
66.9151
67.0737
67.2194
67.346
67.4461
67.5111
67.5319
67.4989
67.4023
67.2329
66.9824
66.6459
66.2227
65.7185
65.1469
64.5362
64.0011
63.571
63.17
62.7943
62.4581
62.1809
61.985
61.8959
61.9475
62.1966
62.7698
63.9879
66.5359
71.0941
83.8762
129.271
334.202
1911.31
1911.31
330.025
115.213
60.9252
43.1017
36.521
33.9213
32.8381
32.3596
32.1224
31.962
31.7889
31.5783
31.45
31.3866
31.3562
31.3403
31.3309
31.3246
31.3208
31.3204
31.3263
31.3431
31.3737
31.408
31.439
31.476
31.5171
31.56
31.6076
31.6627
31.7268
31.8009
31.8854
31.9807
32.087
32.2044
32.3327
32.4717
32.6208
32.7789
32.9446
33.1156
33.2893
33.4622
33.63
33.7876
33.9286
34.046
34.1323
34.1793
34.1784
34.1211
33.9995
33.8065
33.537
33.1886
32.7632
32.2694
31.7232
31.1496
30.5869
30.1327
29.7363
29.3845
29.0857
28.8568
28.7192
28.6987
28.8292
29.1613
29.7836
30.8708
32.8007
36.444
44.0304
62.6054
117.09
331.34
1911.31
1911.31
329.656
112.919
55.5558
34.8416
26.1732
22.2625
20.4149
19.508
19.0408
18.7777
18.6054
18.4779
18.3938
18.3435
18.3146
18.2983
18.2895
18.2856
18.286
18.2909
18.3017
18.3205
18.3488
18.3842
18.4231
18.4658
18.5133
18.5665
18.6268
18.6956
18.774
18.8626
18.9618
19.0718
19.1926
19.3241
19.4655
19.6162
19.7747
19.9392
20.1073
20.2759
20.4413
20.5988
20.7433
20.8688
20.9685
21.0355
21.0625
21.0423
20.9683
20.8348
20.6376
20.3746
20.0467
19.6585
19.2194
18.7456
18.2605
17.7935
17.3816
17.0627
16.812
16.6301
16.5291
16.5262
16.6424
16.9054
17.3553
18.0562
19.1229
20.7762
23.4739
28.2375
37.5774
58.5612
115.616
331.393
1911.31
1911.31
329.532
112.344
54.0224
32.103
22.3121
17.5255
15.0651
13.7585
13.0445
12.6406
12.4012
12.2526
12.1599
12.103
12.069
12.0495
12.0398
12.0371
12.0404
12.0493
12.0644
12.0864
12.116
12.1527
12.1955
12.2443
12.2994
12.3617
12.432
12.5113
12.6002
12.699
12.8079
12.9269
13.0556
13.1933
13.339
13.4911
13.6477
13.8062
13.9635
14.1158
14.2587
14.3871
14.4956
14.5781
14.6286
14.6411
14.6099
14.5301
14.3982
14.2123
13.9728
13.6831
13.3496
12.9826
12.5961
12.2101
11.8486
11.5387
11.309
11.1683
11.1078
11.1341
11.2596
11.5005
11.878
12.4212
13.1737
14.207
15.6472
17.7323
20.9424
26.3226
36.3807
58.0636
115.511
331.08
1911.31
1911.31
328.856
111.821
53.3411
31
20.6808
15.3889
12.5127
10.8956
9.96561
9.42058
9.095
8.8971
8.77576
8.70159
8.65713
8.63187
8.61961
8.61684
8.62174
8.63352
8.65201
8.67739
8.70989
8.74957
8.79627
8.85004
8.91118
8.98018
9.05755
9.14376
9.2391
9.34368
9.45734
9.57965
9.70985
9.84683
9.98904
10.1345
10.2807
10.4245
10.5626
10.6906
10.8042
10.8983
10.9679
11.0078
11.0132
10.9798
10.904
10.784
10.6195
10.4124
10.1671
9.89101
9.59448
9.29077
8.99591
8.72873
8.50871
8.35461
8.28518
8.30199
8.40599
8.60479
8.91088
9.34116
9.91827
10.6739
11.6554
12.9381
14.6516
17.0344
20.5602
26.248
36.5279
58.0997
114.095
320.083
1911.31
1911.31
317.135
109.613
52.5628
30.366
19.8707
14.3185
11.1855
9.35102
8.25328
7.58729
7.17922
6.92747
6.77182
6.67613
6.61853
6.58575
6.56979
6.56595
6.57156
6.58523
6.60632
6.63463
6.67016
6.71295
6.76308
6.82067
6.88592
6.95911
7.04047
7.13016
7.22818
7.33432
7.4481
7.56877
7.69523
7.82599
7.95917
8.09244
8.22301
8.34767
8.46275
8.56428
8.64799
8.70954
8.74467
8.74942
8.72051
8.65553
8.55341
8.41467
8.24179
8.03946
7.8147
7.57686
7.33746
7.1098
6.90845
6.74853
6.64432
6.60866
6.65352
6.77916
6.99006
7.29608
7.71159
8.25605
8.95573
9.84696
10.9822
12.4421
14.3591
16.9709
20.7414
26.6656
37.1271
58.7466
114.527
319.767
1911.31
1911.31
316.338
109.168
52.2466
30.0321
19.4306
13.7286
10.4363
8.45535
7.23531
6.47432
5.99656
5.69596
5.50727
5.38996
5.31873
5.27785
5.25759
5.25202
5.25765
5.27246
5.29537
5.32587
5.36372
5.40888
5.46138
5.52128
5.58868
5.66366
5.74626
5.83637
5.93374
6.0379
6.14813
6.2634
6.38238
6.50335
6.62425
6.74261
6.85562
6.96009
7.0526
7.1295
7.18714
7.22193
7.23067
7.2107
7.16021
7.07853
6.96638
6.82615
6.66201
6.48005
6.28814
6.0958
5.91373
5.75337
5.62626
5.54341
5.51472
5.54906
5.65466
5.83319
6.09173
6.44232
6.90203
7.49401
8.24942
9.21083
10.4381
12.0196
14.0949
16.9046
20.9081
27.0827
37.7753
59.55
115.339
320.329
1911.31
1911.31
316.264
109.059
52.1037
29.8396
19.1643
13.3694
9.97617
7.89752
6.59123
5.75935
5.22669
4.88561
4.6683
4.53152
4.44761
4.39891
4.37424
4.36659
4.37169
4.38696
4.4109
4.44269
4.4819
4.52833
4.58187
4.6425
4.71018
4.78484
4.86633
4.95436
5.04849
5.14806
5.25217
5.35965
5.46902
5.5785
5.68598
5.78906
5.88503
5.97097
6.04382
6.10046
6.13789
6.15339
6.14472
6.11034
6.04967
5.96322
5.85289
5.72202
5.57545
5.41945
5.26149
5.10997
4.97374
4.86171
4.78235
4.74342
4.75194
4.81451
4.93781
5.12541
5.38614
5.73385
6.1881
6.77566
7.53282
8.50919
9.77371
11.4256
13.6163
16.5964
20.8293
27.2825
38.2707
60.2963
116.2
321.026
1911.31
1911.31
316.28
109.012
52.012
29.7053
18.9801
13.126
9.66791
7.5245
6.15856
5.27551
4.7015
4.32867
4.08808
3.93492
3.83999
3.78423
3.75535
3.74546
3.74961
3.76472
3.78892
3.82112
3.86067
3.90721
3.96052
4.02043
4.08679
4.1594
4.23797
4.32209
4.4112
4.50452
4.60106
4.6996
4.79864
4.89643
4.99096
5.07997
5.16102
5.23153
5.28887
5.33048
5.35401
5.35746
5.33941
5.29915
5.23692
5.15385
5.05239
4.93611
4.80972
4.67889
4.55
4.42984
4.32521
4.24266
4.18824
4.16748
4.18566
4.24825
4.36163
4.53051
4.76437
5.07788
5.49203
6.03607
6.75056
7.69174
8.93838
10.6032
12.8544
15.961
20.4013
27.1456
38.4857
60.8602
116.997
321.759
1911.31
1911.31
316.591
109.021
51.9418
29.5957
18.8358
12.9436
9.44401
7.25803
5.85159
4.93252
4.32833
3.93153
3.67276
3.50642
3.40231
3.34045
3.30771
3.29553
3.2984
3.31282
3.33661
3.36842
3.40741
3.45306
3.50503
3.56305
3.62686
3.69617
3.7706
3.84966
3.93272
4.01897
4.10742
4.19685
4.28585
4.37276
4.45575
4.53279
4.60175
4.6604
4.70656
4.73817
4.75343
4.75091
4.72973
4.6897
4.63182
4.55692
4.46775
4.36763
4.26067
4.15161
4.04556
3.94772
3.86315
3.79654
3.75224
3.73434
3.74705
3.79528
3.88534
4.02213
4.21463
4.47695
4.82982
5.30302
5.93919
6.79936
7.9712
9.58196
11.8208
14.9836
19.5774
26.5935
38.3179
61.1322
117.636
322.462
1911.31
1911.31
316.158
108.866
51.8332
29.4852
18.7096
12.7956
9.27044
7.05729
5.62404
4.68027
4.05467
3.64027
3.36771
3.19103
3.07948
3.01246
2.97626
2.96181
2.96317
2.9765
2.99935
3.03013
3.06786
3.11188
3.16172
3.21704
3.27749
3.34272
3.41231
3.48574
3.56237
3.6414
3.72188
3.80269
3.88252
3.95988
4.03316
4.10058
4.16031
4.21048
4.24932
4.27516
4.28662
4.2827
4.26285
4.22718
4.17697
4.1128
4.03706
3.95283
3.86345
3.77267
3.68444
3.60268
3.5311
3.47314
3.43201
3.41087
3.41324
3.44354
3.50786
3.61051
3.75905
3.96574
4.24915
4.63708
5.17103
5.91311
6.95641
8.44078
10.5779
13.6976
18.3507
25.5736
37.6749
61.0002
118.019
323.09
1911.31
1911.31
315.994
108.74
51.7262
29.379
18.5961
12.6704
9.13071
6.90121
5.45104
4.49098
3.85065
3.42367
3.14087
2.95621
2.83868
2.76733
2.72806
2.71141
2.71115
2.72314
2.7447
2.77408
2.81011
2.85204
2.89931
2.95149
3.00819
3.06902
3.13354
3.20125
3.27152
3.34362
3.41668
3.48969
3.56149
3.63078
3.69617
3.75614
3.80916
3.85368
3.88823
3.9115
3.92242
3.92024
3.90466
3.87585
3.83466
3.78215
3.72014
3.65101
3.57746
3.50243
3.42896
3.36002
3.29842
3.24677
3.20757
3.18338
3.17719
3.1929
3.23632
3.31049
3.42118
3.57796
3.79584
4.09821
4.52177
5.12452
5.99857
7.28997
9.22945
12.1825
16.757
24.0616
36.4706
60.3335
118.008
323.551
1911.31
1911.31
315.977
108.672
51.6386
29.2833
18.4952
12.5642
9.01774
6.77988
5.32019
4.35018
3.70021
3.26448
2.9742
2.78343
2.66111
2.58611
2.54412
2.52543
2.52354
2.53413
2.5543
2.58214
2.61636
2.65609
2.70069
2.74968
2.80263
2.85914
2.91876
2.98103
3.04536
3.1111
3.17749
3.24364
3.30857
3.37117
3.43026
3.48458
3.53285
3.5738
3.60623
3.62909
3.64152
3.64295
3.63318
3.61238
3.58118
3.54052
3.49183
3.43694
3.37795
3.3172
3.2571
3.19996
3.14801
3.10337
3.06812
3.04445
3.03495
3.04305
3.07367
3.12886
3.21265
3.33179
3.49716
3.72637
4.04842
4.51199
5.19977
6.25292
7.91061
10.5638
14.8824
22.0766
34.6343
58.9722
117.401
323.673
1911.32
1911.31
315.961
108.613
51.558
29.1955
18.4065
12.4764
8.92999
6.69044
5.22722
4.25226
3.59662
3.15511
2.85944
2.66397
2.53776
2.45968
2.41528
2.39474
2.39138
2.40068
2.4196
2.44607
2.47868
2.51644
2.55865
2.60477
2.65434
2.70695
2.76218
2.81958
2.87863
2.93878
2.99935
3.05963
3.11876
3.17586
3.22992
3.27994
3.32485
3.36363
3.39531
3.41903
3.4341
3.44006
3.43675
3.42428
3.40313
3.37406
3.33819
3.29683
3.25142
3.2042
3.15711
3.11202
3.07081
3.03534
3.00743
2.98908
2.98261
2.99106
3.01766
3.06406
3.13302
3.22895
3.35902
3.53516
3.77783
4.12323
4.63709
5.44174
6.77208
9.01329
12.8805
19.7103
32.1643
56.7965
116.031
323.33
1911.32
1911.31
315.923
108.543
51.4748
29.1128
18.3309
12.4095
8.87064
6.6359
5.17453
4.1989
3.54079
3.09582
2.79632
2.59718
2.46772
2.38693
2.34038
2.31818
2.31355
2.32185
2.33988
2.36541
2.3969
2.43326
2.47369
2.5176
2.56451
2.61399
2.66562
2.71899
2.77365
2.8291
2.8848
2.94016
2.99449
3.04707
3.09711
3.14377
3.18623
3.22368
3.25534
3.28052
3.29862
3.3093
3.3124
3.30794
3.29635
3.2783
3.25467
3.22646
3.19481
3.16107
3.12683
3.09397
3.06437
3.03979
3.02196
3.01275
3.01429
3.02929
3.05914
3.1053
3.16975
3.25528
3.36632
3.5106
3.70188
3.9658
4.3514
4.95412
5.96065
7.7314
10.9786
17.1466
29.1396
53.7502
113.755
322.411
1911.32
1911.31
315.862
108.455
51.3857
29.0366
18.2735
12.3714
8.84877
6.62586
5.1717
4.1993
3.54143
3.09475
2.79252
2.5903
2.45787
2.37451
2.32583
2.30195
2.2962
2.30383
2.32144
2.34663
2.37771
2.41346
2.453
2.49563
2.54085
2.5882
2.63728
2.68769
2.739
2.7908
2.84263
2.89403
2.94447
2.99341
3.04023
3.08422
3.12475
3.16125
3.19321
3.21997
3.2409
3.2559
3.26493
3.26809
3.26573
3.25835
3.2466
3.23122
3.21279
3.19153
3.16873
3.1472
3.12933
3.11683
3.11132
3.1146
3.12867
3.15482
3.19351
3.24614
3.31418
3.39889
3.50245
3.62968
3.78927
3.9983
4.29154
4.74081
5.49632
6.87361
9.5362
14.8747
25.8651
49.7545
110.244
320.49
1911.32
1911.31
315.774
108.346
51.2914
28.9732
18.2459
12.3772
8.88202
6.67909
5.23777
4.27223
3.61675
3.16949
2.86495
2.65964
2.52394
2.43769
2.38638
2.35999
2.3528
2.35987
2.37744
2.40284
2.43418
2.4701
2.50961
2.55193
2.59648
2.64278
2.6904
2.73896
2.78804
2.83722
2.88615
2.93446
2.98179
3.02781
3.07218
3.11388
3.15263
3.18808
3.21988
3.24764
3.27105
3.28999
3.30448
3.31466
3.32085
3.32347
3.32306
3.32026
3.3157
3.31006
3.3044
3.30024
3.29924
3.30299
3.31326
3.33192
3.3604
3.39734
3.44389
3.50147
3.57196
3.6576
3.76033
3.88052
4.02163
4.1945
4.42255
4.7571
5.31302
6.35103
8.46514
13.0021
23.0352
46.1392
106.04
318.307
1911.32
1911.31
315.65
108.21
51.1944
28.9346
18.2685
12.4539
9.00105
6.82797
5.40537
4.44972
3.79774
3.34987
3.04224
2.83279
2.69189
2.60191
2.54898
2.52263
2.5159
2.52372
2.54238
2.56915
2.60203
2.63957
2.68067
2.72447
2.77032
2.81768
2.86613
2.91535
2.96475
3.0138
3.06227
3.10985
3.15625
3.20119
3.24435
3.28531
3.3238
3.35958
3.39246
3.42223
3.44877
3.47205
3.49214
3.50923
3.5236
3.53564
3.54585
3.55482
3.56321
3.57172
3.58123
3.59287
3.60804
3.62804
3.65525
3.68934
3.7286
3.77395
3.82647
3.88754
3.95909
4.04373
4.14419
4.26038
4.38964
4.53758
4.71938
4.96965
5.3705
6.12264
7.72437
11.4158
20.2835
42.3484
102.826
323.927
1911.32
1911.31
315.459
108.005
51.0686
28.9231
18.3677
12.6434
9.25586
7.12528
5.72703
4.78248
4.13247
3.68169
3.3672
3.15193
3.00813
2.91572
2.8607
2.83307
2.82578
2.83379
2.85336
2.88161
2.91644
2.95626
2.99988
3.04635
3.09491
3.14494
3.19592
3.24741
3.29891
3.34998
3.40027
3.44947
3.49729
3.5435
3.58785
3.63016
3.67026
3.70804
3.74339
3.77626
3.80663
3.83454
3.86014
3.88365
3.90536
3.92568
3.94511
3.96433
3.98404
4.00484
4.0274
4.05288
4.08369
4.11899
4.15705
4.19796
4.24252
4.29164
4.34636
4.40811
4.47893
4.56158
4.6587
4.76866
4.88532
5.01191
5.15824
5.34655
5.6314
6.1549
7.30077
10.1231
17.5288
37.6946
96.824
318.798
1911.32
1911.31
314.789
107.292
50.6605
28.8512
18.5534
13.0034
9.72394
7.65329
6.28274
5.34586
4.68872
4.23013
3.91116
3.69019
3.53966
3.44054
3.37944
3.34678
3.33561
3.34085
3.35871
3.38629
3.42139
3.4623
3.50767
3.55641
3.6076
3.66052
3.7146
3.76929
3.82407
3.87844
3.93196
3.98425
4.03503
4.08405
4.13114
4.1762
4.21921
4.26016
4.29896
4.33561
4.37012
4.40262
4.43327
4.46233
4.49016
4.51716
4.54394
4.57167
4.60151
4.63326
4.66691
4.70217
4.73759
4.77433
4.81286
4.85369
4.89738
4.94493
4.99749
5.05674
5.12506
5.20486
5.29614
5.39119
5.48824
5.59074
5.70522
5.84564
6.04586
6.39726
7.16562
9.15706
14.8683
32.1762
88.0575
309.295
1911.31
1911.31
306.021
102.284
48.5475
28.2952
18.7603
13.6064
10.5226
8.5337
7.18382
6.24349
5.58268
5.11253
4.77658
4.53708
4.36829
4.25219
4.17591
4.13011
4.10791
4.10414
4.11481
4.13687
4.16802
4.20639
4.25038
4.29865
4.3501
4.40389
4.45944
4.51615
4.57329
4.6302
4.68633
4.7412
4.79447
4.84589
4.89533
4.94278
4.98857
5.03273
5.07495
5.11512
5.15324
5.18946
5.22401
5.25722
5.2895
5.32129
5.35293
5.38412
5.41434
5.44417
5.474
5.50408
5.53452
5.56568
5.5981
5.63255
5.67019
5.71228
5.75973
5.81454
5.87896
5.94747
6.01478
6.08195
6.15057
6.22331
6.30476
6.40379
6.54038
6.76714
7.2418
8.48296
12.2957
25.2344
72.7284
283.843
1911.33
364.13
140.292
68.7244
40.0481
26.44
19.0665
14.67
11.8395
9.90059
8.56161
7.61048
6.92151
6.41585
6.04213
5.76557
5.56194
5.41396
5.3091
5.23813
5.19408
5.17141
5.16589
5.17425
5.19411
5.22339
5.26
5.30218
5.34851
5.39804
5.45082
5.50612
5.56243
5.61874
5.67431
5.72859
5.78119
5.8319
5.88068
5.9275
5.97208
6.01417
6.05372
6.09062
6.12486
6.1566
6.18611
6.21381
6.24024
6.26601
6.29164
6.31711
6.3416
6.36465
6.3863
6.40687
6.42681
6.44676
6.46764
6.49093
6.52005
6.55664
6.59276
6.62607
6.65856
6.69081
6.72292
6.75566
6.79033
6.82898
6.87494
6.93396
7.0173
7.15099
7.40704
8.0141
9.76127
15.4921
35.8204
110.051
389.082
118.168
73.0841
48.1292
33.9013
25.3517
19.9203
16.2718
13.6675
11.821
10.4833
9.49364
8.74941
8.18291
7.74818
7.41317
7.15509
6.95725
6.80729
6.69601
6.61637
6.56235
6.52915
6.51315
6.51259
6.52524
6.54729
6.57611
6.60982
6.6469
6.68557
6.72504
6.76542
6.80626
6.84689
6.88672
6.92543
6.96302
6.99974
7.03602
7.0719
7.1064
7.13801
7.16616
7.1909
7.21262
7.23199
7.24993
7.26762
7.28639
7.30722
7.32887
7.34416
7.35321
7.35762
7.35848
7.35662
7.35267
7.34726
7.34105
7.33503
7.3304
7.32981
7.32907
7.32723
7.32462
7.3219
7.31996
7.32001
7.32375
7.33359
7.35319
7.38852
7.45092
7.56666
7.80954
8.41778
10.2212
16.2594
36.1868
91.0057
53.9013
44.5048
36.1706
29.6093
24.6534
20.9334
18.0879
15.8388
14.1244
12.8077
11.7858
10.9838
10.348
9.84027
9.433
9.10616
8.84439
8.63569
8.47178
8.34688
8.25259
8.18279
8.13261
8.09703
8.07212
8.05631
8.04801
8.04592
8.04913
8.05715
8.06982
8.08676
8.10607
8.12565
8.14468
8.16327
8.18236
8.20356
8.22882
8.25843
8.28553
8.30204