/*--------------------------------*- C++ -*----------------------------------*\
| =========                 |                                                 |
| \\      /  F ield         | OpenFOAM: The Open Source CFD Toolbox           |
|  \\    /   O peration     | Version:  v2012                                 |
|   \\  /    A nd           | Website:  www.openfoam.com                      |
|    \\/     M anipulation  |                                                 |
\*---------------------------------------------------------------------------*/
FoamFile
{
    version     2.0;
    format      ascii;
    class       volScalarField;
    location    "2000";
    object      p;
}
// * * * * * * * * * * * * * * * * * * * * * * * * * * * * * * * * * * * * * //

dimensions      [0 2 -2 0 0 0 0];


internalField   nonuniform List<scalar> 
6502
(
1.77472
1.62611
1.54842
1.51546
1.50132
1.50118
1.51503
1.54774
1.62519
1.77363
1.57849
1.53718
1.51595
1.49849
1.48758
1.48742
1.49802
1.51517
1.53616
1.57734
1.46195
1.45843
1.45758
1.45409
1.44972
1.44953
1.45353
1.45667
1.4572
1.46053
1.39558
1.39889
1.40287
1.40469
1.40371
1.40347
1.404
1.4018
1.39734
1.39378
1.34053
1.34698
1.35533
1.3594
1.35983
1.3595
1.35838
1.35365
1.34486
1.3382
1.2942
1.3028
1.31404
1.31817
1.3191
1.31864
1.31679
1.3118
1.29998
1.29115
1.2578
1.26581
1.27608
1.2799
1.28102
1.28043
1.27817
1.27335
1.26211
1.25377
1.22777
1.23353
1.24069
1.24427
1.2455
1.24477
1.24205
1.23686
1.22857
1.22244
1.20111
1.20489
1.20994
1.21287
1.21321
1.21197
1.2092
1.20453
1.19824
1.19407
1.17667
1.17915
1.18278
1.18524
1.18433
1.18265
1.18041
1.17564
1.17028
1.16739
1.15383
1.15545
1.15754
1.15897
1.15755
1.15558
1.15336
1.14822
1.14373
1.14165
1.13219
1.1332
1.13387
1.13379
1.13193
1.12922
1.12607
1.12132
1.11778
1.1162
1.11166
1.1123
1.11199
1.11053
1.1076
1.10392
1.09981
1.09511
1.09196
1.09064
1.09232
1.0927
1.09174
1.08924
1.08485
1.07988
1.07465
1.06938
1.06602
1.06476
1.07433
1.07457
1.07301
1.06945
1.06377
1.05696
1.05011
1.04366
1.03962
1.03827
1.05789
1.05802
1.05584
1.05093
1.04384
1.03487
1.02583
1.01751
1.01229
1.01067
1.04317
1.04325
1.04044
1.03386
1.02473
1.01347
1.0017
0.990659
0.98351
0.981285
1.03044
1.03051
1.02715
1.01887
1.00723
0.993199
0.978072
0.963044
0.952606
0.94907
1.01995
1.0201
1.01635
1.00663
0.992612
0.975657
0.956139
0.935456
0.919112
0.912848
1.01197
1.01228
1.0084
0.997666
0.981602
0.961655
0.937721
0.91037
0.883463
0.868447
1.00665
1.00721
1.00347
0.992263
0.974875
0.952631
0.926422
0.895889
0.863165
0.8388
1.0042
1.00498
1.00172
0.990849
0.97355
0.951301
0.92642
0.900498
0.878471
0.866471
1.00458
1.00557
1.00305
0.993089
0.976742
0.955703
0.933007
0.910658
0.893543
0.884116
1.00747
1.00876
1.00699
0.997944
0.982391
0.961997
0.939746
0.917402
0.899193
0.888076
1.01252
1.01416
1.01302
1.00476
0.98973
0.969403
0.946134
0.923474
0.904036
0.89159
1.01941
1.02134
1.02077
1.0133
0.998796
0.978567
0.954398
0.931625
0.911118
0.89699
1.02779
1.02996
1.02994
1.02332
1.00937
0.98925
0.965287
0.94168
0.919193
0.902734
1.03731
1.03967
1.04016
1.0345
1.02143
1.00183
0.977781
0.95293
0.927958
0.908888
1.04762
1.0501
1.05107
1.04646
1.0346
1.01581
0.991152
0.964604
0.938072
0.916347
1.05837
1.06092
1.0623
1.05873
1.04813
1.03015
1.0055
0.977044
0.949848
0.925487
1.06925
1.07182
1.07353
1.07098
1.06183
1.04505
1.02124
0.992268
0.963942
0.936397
1.08
1.08252
1.08448
1.08293
1.07545
1.0604
1.03797
1.00964
0.979561
0.949569
1.09037
1.09282
1.09493
1.09428
1.08853
1.07555
1.05484
1.02742
0.995948
0.96503
1.10011
1.10253
1.10469
1.10477
1.10069
1.09003
1.07157
1.04585
1.01468
0.983133
1.10909
1.11152
1.11361
1.11427
1.1117
1.10347
1.0878
1.0646
1.03496
1.00218
1.11748
1.11967
1.12162
1.12269
1.12142
1.11552
1.10291
1.08274
1.05552
1.02295
1.12525
1.12696
1.12872
1.13005
1.12979
1.12597
1.11645
1.0998
1.07598
1.04603
1.13215
1.13346
1.13498
1.13642
1.13686
1.13473
1.12808
1.11515
1.09518
1.06856
1.13792
1.13913
1.14049
1.14188
1.14272
1.14187
1.13766
1.12827
1.11243
1.08983
1.14306
1.14395
1.14515
1.14642
1.14747
1.14751
1.14523
1.13898
1.12726
1.10919
1.1477
1.14811
1.14908
1.15024
1.15136
1.15193
1.15102
1.1473
1.13929
1.12579
1.1514
1.15172
1.15252
1.1535
1.15456
1.15538
1.15535
1.15347
1.1485
1.13915
1.15444
1.1548
1.15546
1.15626
1.15719
1.15808
1.15854
1.15788
1.15516
1.14925
1.15721
1.1574
1.15784
1.15852
1.15933
1.16018
1.16084
1.16088
1.15965
1.15628
1.15953
1.15956
1.15983
1.1604
1.16109
1.16184
1.16252
1.1629
1.16254
1.16087
1.16131
1.16134
1.16157
1.16202
1.16256
1.16317
1.16379
1.16427
1.16437
1.16371
1.16287
1.1629
1.16305
1.16336
1.16377
1.16424
1.16473
1.16518
1.16546
1.16535
1.16425
1.16427
1.16433
1.1645
1.16479
1.1651
1.16545
1.1658
1.16609
1.16621
1.16546
1.16545
1.16545
1.16554
1.1657
1.16586
1.16604
1.16625
1.16646
1.16664
1.16661
1.16657
1.16653
1.16652
1.16654
1.16656
1.16658
1.16665
1.16676
1.16689
1.16773
1.16764
1.16756
1.16747
1.16737
1.16728
1.16718
1.16712
1.1671
1.16716
1.16879
1.16866
1.16852
1.16838
1.16824
1.16807
1.16789
1.16772
1.1676
1.16757
1.16979
1.16961
1.16943
1.16927
1.16909
1.16891
1.16871
1.16849
1.16832
1.16823
1.17067
1.17046
1.17026
1.1701
1.16994
1.16977
1.16958
1.16939
1.16923
1.16914
1.17138
1.17115
1.17093
1.1708
1.17068
1.17056
1.17044
1.17032
1.17024
1.17023
1.17185
1.17161
1.17141
1.1713
1.17124
1.17119
1.17116
1.17116
1.1712
1.17132
1.17206
1.17184
1.17166
1.17158
1.17156
1.17158
1.17165
1.17176
1.17194
1.17222
1.17203
1.17185
1.17169
1.17163
1.17163
1.17168
1.17181
1.172
1.1723
1.17273
1.17183
1.17168
1.17153
1.17144
1.17142
1.17146
1.17159
1.17181
1.17215
1.17264
1.17159
1.17145
1.1713
1.17118
1.17111
1.17111
1.1712
1.1714
1.17174
1.17223
0.826344
0.850845
0.866757
0.874289
0.878599
0.881235
0.883116
0.884538
0.885628
0.886487
0.887177
0.88773
0.888163
0.888483
0.888692
0.888793
0.888794
0.888719
0.888592
0.888423
0.888224
0.888027
0.887859
0.887759
0.887738
0.86433
0.869233
0.872923
0.876141
0.879035
0.881367
0.883093
0.884365
0.885372
0.886194
0.886869
0.887417
0.887851
0.888176
0.888396
0.888516
0.888545
0.888492
0.888374
0.888219
0.888053
0.887895
0.887769
0.887687
0.887661
0.880217
0.878882
0.878652
0.879554
0.880801
0.882139
0.883389
0.884453
0.885297
0.88602
0.886638
0.887157
0.887579
0.887904
0.888131
0.888262
0.888305
0.888269
0.888171
0.888035
0.887884
0.887736
0.887607
0.887515
0.887469
0.88378
0.882646
0.882174
0.882297
0.882784
0.883417
0.884102
0.884796
0.885454
0.886028
0.886541
0.886999
0.887392
0.887709
0.887942
0.888086
0.88814
0.888112
0.888017
0.887876
0.88771
0.887541
0.887386
0.887263
0.887166
0.886758
0.88531
0.884611
0.884337
0.884403
0.884632
0.884914
0.885257
0.885658
0.886045
0.886433
0.886811
0.887163
0.887471
0.887714
0.887879
0.887955
0.887943
0.887853
0.887702
0.887513
0.88731
0.887115
0.886935
0.886774
0.890425
0.887744
0.886527
0.885925
0.885692
0.885634
0.885644
0.885707
0.885833
0.88602
0.886256
0.886532
0.886829
0.887122
0.887383
0.887582
0.887699
0.887722
0.88765
0.887496
0.887283
0.887038
0.886788
0.886536
0.886289
0.893926
0.889839
0.888017
0.887146
0.886677
0.886388
0.88617
0.886002
0.885893
0.885866
0.885928
0.88608
0.886306
0.88658
0.886864
0.88712
0.887306
0.887395
0.887371
0.887234
0.887005
0.886715
0.886396
0.886053
0.885704
0.897609
0.89189
0.889241
0.888019
0.887324
0.886836
0.886418
0.886035
0.885706
0.885463
0.885336
0.885342
0.885477
0.885723
0.886041
0.886378
0.886676
0.886882
0.886956
0.886879
0.886661
0.886338
0.885951
0.885519
0.885134
0.902184
0.894337
0.890432
0.8886
0.88761
0.886908
0.886296
0.885708
0.885157
0.884687
0.884348
0.884177
0.884194
0.884395
0.884752
0.885198
0.885659
0.886056
0.88631
0.886366
0.886214
0.885886
0.885432
0.884893
0.884438
0.908074
0.897564
0.891867
0.889038
0.887558
0.886571
0.885733
0.884926
0.88414
0.88342
0.882834
0.882445
0.882296
0.88241
0.882796
0.883385
0.884063
0.884745
0.885293
0.885597
0.885604
0.885327
0.884823
0.884143
0.883521
0.915581
0.901985
0.893905
0.88958
0.887283
0.885856
0.884713
0.883643
0.882592
0.881591
0.880716
0.880056
0.879685
0.87965
0.880026
0.88077
0.881712
0.882759
0.883738
0.884445
0.884756
0.884638
0.884133
0.883314
0.88253
0.92535
0.908182
0.897062
0.890621
0.887046
0.884895
0.88331
0.881898
0.880532
0.87921
0.878002
0.877017
0.876369
0.876146
0.876396
0.877204
0.878453
0.879926
0.88147
0.882763
0.883577
0.883783
0.883377
0.882443
0.881494
0.937672
0.916678
0.901973
0.892731
0.887282
0.88399
0.881721
0.879843
0.878089
0.876397
0.874814
0.873451
0.87245
0.871946
0.872044
0.872838
0.874248
0.876151
0.878365
0.880432
0.881984
0.882744
0.882595
0.881607
0.880502
0.952718
0.927985
0.909354
0.896646
0.888621
0.883634
0.88031
0.87776
0.875519
0.873407
0.871419
0.86965
0.868252
0.867389
0.867219
0.867907
0.869487
0.871766
0.874548
0.87749
0.879988
0.881559
0.881886
0.880955
0.879711
0.970448
0.942677
0.919961
0.903226
0.891897
0.884533
0.879644
0.876098
0.873199
0.870604
0.868203
0.866044
0.864265
0.863055
0.862592
0.863058
0.86456
0.867106
0.870473
0.87423
0.877773
0.88039
0.881453
0.880741
0.879381
0.991032
0.960862
0.934298
0.913325
0.898092
0.887609
0.880502
0.875494
0.871656
0.868437
0.865592
0.863076
0.860975
0.859456
0.858728
0.858972
0.860367
0.862981
0.866705
0.871165
0.875728
0.879575
0.881648
0.881338
0.879947
1.01392
0.982431
0.952664
0.927657
0.908203
0.893935
0.883871
0.876783
0.871577
0.867487
0.864082
0.86119
0.85882
0.857095
0.856195
0.856287
0.857571
0.860199
0.864149
0.869144
0.8746
0.879645
0.882944
0.883223
0.881962
1.03788
1.00622
0.974943
0.946698
0.923086
0.904616
0.890909
0.881017
0.873847
0.868477
0.864278
0.860914
0.85827
0.856383
0.855401
0.855506
0.856816
0.859503
0.863643
0.869079
0.875318
0.881446
0.885866
0.887026
0.886127
1.06222
1.03175
1.00049
0.970214
0.943138
0.920562
0.902792
0.889412
0.879573
0.872337
0.866934
0.862854
0.859833
0.857794
0.856794
0.856979
0.858497
0.861459
0.865957
0.871904
0.878961
0.886067
0.891605
0.893969
0.8935
1.08567
1.05821
1.0281
0.997509
0.968147
0.942106
0.920392
0.903161
0.890019
0.880237
0.873044
0.867819
0.864152
0.861833
0.860812
0.861158
0.863002
0.866421
0.871518
0.878243
0.88622
0.894549
0.901999
0.905347
0.905157
1.10685
1.08335
1.0556
1.0267
0.997899
0.969188
0.943904
0.923018
0.906342
0.893452
0.883818
0.876865
0.872104
0.869204
0.868005
0.868485
0.870716
0.874794
0.880728
0.888477
0.897641
0.907445
0.916453
0.921304
0.921849
1.12492
1.10612
1.08275
1.05532
1.02827
1.00106
0.973172
0.949153
0.929251
0.913101
0.900525
0.891227
0.884792
0.880838
0.879117
0.879525
0.882072
0.886841
0.893865
0.90304
0.91398
0.925541
0.935675
0.942297
0.943061
1.13936
1.12534
1.10704
1.08462
1.05906
1.03249
1.00582
0.980786
0.9585
0.9395
0.923984
0.911993
0.90336
0.897781
0.89501
0.89491
0.897446
0.902668
0.910674
0.921448
0.93477
0.949763
0.964193
0.974661
0.976464
1.14995
1.14024
1.1267
1.1093
1.08818
1.06441
1.03972
1.0156
0.993046
0.972018
0.953749
0.9392
0.928266
0.920645
0.916244
0.915004
0.916881
0.921903
0.930166
0.941779
0.956732
0.974832
0.995265
1.01656
1.03963
1.15717
1.15098
1.14171
1.12905
1.11301
1.09398
1.07281
1.04957
1.02884
1.00938
0.989049
0.972205
0.959085
0.949326
0.942986
0.940042
0.940483
0.944342
0.951648
0.962427
0.976643
0.994053
1.01412
1.03586
1.05868
1.16179
1.15821
1.15243
1.144
1.1327
1.11858
1.10214
1.08379
1.06413
1.04368
1.02565
1.01031
0.995683
0.983685
0.975253
0.970225
0.968637
0.97051
0.975798
0.984456
0.996337
1.0111
1.02814
1.04641
1.06423
1.16452
1.16269
1.15946
1.15439
1.14714
1.13754
1.12569
1.11191
1.09638
1.08012
1.06319
1.04698
1.03336
1.02198
1.01239
1.00509
1.0012
1.00061
1.00316
1.00885
1.01743
1.02845
1.04125
1.05489
1.06804
1.16598
1.16522
1.16367
1.16099
1.15688
1.15106
1.14342
1.134
1.12297
1.11087
1.09776
1.08463
1.07123
1.05968
1.05039
1.0425
1.03746
1.03456
1.03416
1.03656
1.04146
1.04842
1.05697
1.06633
1.07556
1.16669
1.16651
1.16598
1.16486
1.16294
1.15997
1.15576
1.15021
1.1433
1.1352
1.1261
1.11651
1.10655
1.09722
1.08798
1.07975
1.07366
1.06909
1.06719
1.06756
1.06932
1.07243
1.07696
1.08236
1.08792
1.16703
1.16714
1.16716
1.16697
1.16644
1.1654
1.16369
1.16116
1.15768
1.15325
1.1479
1.14183
1.13521
1.12844
1.12161
1.11545
1.11037
1.10522
1.10063
1.09821
1.09782
1.09881
1.10084
1.10317
1.10541
1.16729
1.16751
1.1678
1.16812
1.16841
1.16857
1.1685
1.16808
1.16717
1.16568
1.16354
1.16073
1.15731
1.1534
1.14915
1.14469
1.14066
1.13721
1.13397
1.13111
1.12837
1.12631
1.1256
1.12556
1.12564
1.16767
1.1679
1.1683
1.16888
1.16961
1.17048
1.17141
1.17234
1.17316
1.17377
1.17406
1.17392
1.17329
1.17215
1.17053
1.16844
1.1661
1.16365
1.16104
1.15863
1.1565
1.15449
1.15266
1.15063
1.14825
1.16829
1.16851
1.16895
1.16963
1.17059
1.17183
1.17333
1.17507
1.17697
1.17895
1.18089
1.18267
1.18418
1.1853
1.18596
1.18612
1.18576
1.18493
1.18364
1.18202
1.18015
1.17796
1.17565
1.17336
1.17088
1.16919
1.16942
1.16988
1.17062
1.17168
1.1731
1.17491
1.17709
1.17962
1.18242
1.1854
1.18843
1.19137
1.1941
1.19649
1.19842
1.1998
1.20058
1.20073
1.20026
1.1992
1.19759
1.19552
1.19309
1.19026
1.17033
1.1706
1.17112
1.17191
1.17304
1.17457
1.17653
1.17895
1.18181
1.18507
1.18864
1.19241
1.19624
1.19999
1.20353
1.20669
1.20935
1.21139
1.21274
1.21336
1.21323
1.21237
1.21083
1.20866
1.20591
1.17154
1.17191
1.17255
1.17346
1.17467
1.17628
1.17834
1.18089
1.18393
1.18744
1.19132
1.19547
1.19977
1.2041
1.20831
1.21224
1.21572
1.21862
1.22082
1.22225
1.22287
1.22266
1.22164
1.21986
1.21739
1.17262
1.17316
1.17394
1.17499
1.17635
1.17811
1.18031
1.18297
1.18611
1.18975
1.19377
1.19807
1.20258
1.20717
1.21171
1.21604
1.21997
1.22335
1.22605
1.22801
1.22913
1.22938
1.22876
1.22732
1.2251
1.17331
1.17406
1.175
1.17621
1.17785
1.17988
1.18225
1.18494
1.18803
1.19162
1.19574
1.20023
1.20485
1.20952
1.21415
1.21864
1.22278
1.22635
1.22927
1.23148
1.23287
1.23336
1.23296
1.23171
1.22966
1.17331
1.17416
1.17525
1.17663
1.1784
1.18056
1.1831
1.1861
1.18951
1.19326
1.19746
1.20205
1.20675
1.21143
1.21605
1.22058
1.22481
1.22846
1.23145
1.23379
1.23532
1.23588
1.23554
1.23435
1.23235
1.17291
1.17379
1.17492
1.17634
1.17812
1.18035
1.18311
1.18644
1.19024
1.19424
1.19838
1.20279
1.20764
1.21286
1.21801
1.22259
1.22662
1.23027
1.23331
1.23543
1.2367
1.23726
1.23703
1.2359
1.23392
1.0732
1.0829
1.08765
1.07684
1.08505
1.09006
1.07751
1.08538
1.09058
1.07847
1.08567
1.09086
1.08319
1.08889
1.09329
1.09274
1.09659
1.09972
1.10751
1.10938
1.11091
1.1262
1.12687
1.12692
1.14657
1.14545
1.14409
1.16852
1.16632
1.16387
1.18732
1.18443
1.18138
1.20293
1.19985
1.19649
1.21454
1.21147
1.20803
1.2224
1.21939
1.21596
1.22707
1.22412
1.22073
1.22978
1.22685
1.22346
1.23135
1.2284
1.22497
1.10524
1.10524
1.10523
1.10522
1.1052
1.10518
1.10516
1.10514
1.10512
1.1051
1.10509
1.10507
1.10506
1.10504
1.10503
1.10501
1.105
1.10498
1.10496
1.10494
1.10492
1.10489
1.10485
1.1048
1.10483
1.10486
1.10483
1.10478
1.10473
1.10468
1.10464
1.10459
1.10454
1.10449
1.10444
1.10438
1.10432
1.10426
1.1042
1.10413
1.10407
1.10401
1.10396
1.10391
1.10387
1.10384
1.10383
1.10383
1.10386
1.10393
1.10403
1.10418
1.10439
1.10465
1.10499
1.1054
1.1059
1.1065
1.10718
1.10796
1.10883
1.10979
1.11082
1.1119
1.113
1.1141
1.11516
1.11616
1.11706
1.11782
1.11842
1.11885
1.11911
1.11919
1.11913
1.11904
1.11891
1.11871
1.11853
1.11844
1.10525
1.10525
1.10524
1.10523
1.10521
1.10519
1.10518
1.10516
1.10514
1.10513
1.10511
1.10509
1.10508
1.10506
1.10505
1.10504
1.10502
1.10501
1.10499
1.10497
1.10495
1.10493
1.1049
1.10488
1.10487
1.10485
1.10483
1.10479
1.10476
1.10472
1.10468
1.10464
1.1046
1.10455
1.10451
1.10446
1.10441
1.10435
1.1043
1.10425
1.1042
1.10415
1.1041
1.10407
1.10404
1.10402
1.10402
1.10404
1.10408
1.10415
1.10426
1.10441
1.1046
1.10486
1.10518
1.10557
1.10605
1.1066
1.10725
1.10798
1.1088
1.1097
1.11067
1.11169
1.11274
1.1138
1.11483
1.11579
1.11667
1.11742
1.11802
1.11846
1.11874
1.11888
1.11888
1.1188
1.11865
1.11848
1.11834
1.11824
1.10527
1.10526
1.10525
1.10524
1.10523
1.10521
1.1052
1.10518
1.10516
1.10515
1.10513
1.10512
1.1051
1.10509
1.10508
1.10506
1.10505
1.10503
1.10502
1.105
1.10498
1.10496
1.10494
1.10492
1.1049
1.10488
1.10486
1.10483
1.1048
1.10477
1.10474
1.1047
1.10467
1.10463
1.10459
1.10454
1.1045
1.10446
1.10441
1.10437
1.10433
1.10429
1.10426
1.10423
1.10421
1.1042
1.1042
1.10422
1.10426
1.10433
1.10443
1.10456
1.10474
1.10497
1.10525
1.10561
1.10603
1.10654
1.10713
1.10781
1.10857
1.10942
1.11034
1.11132
1.11234
1.11336
1.11438
1.11534
1.11622
1.11699
1.11762
1.11809
1.11841
1.11857
1.1186
1.11854
1.11841
1.11826
1.11809
1.11793
1.10529
1.10528
1.10527
1.10526
1.10524
1.10523
1.10521
1.1052
1.10518
1.10517
1.10515
1.10514
1.10513
1.10511
1.1051
1.10509
1.10507
1.10506
1.10504
1.10503
1.10501
1.10499
1.10497
1.10495
1.10494
1.10492
1.1049
1.10487
1.10485
1.10482
1.10479
1.10476
1.10473
1.10469
1.10466
1.10462
1.10459
1.10455
1.10451
1.10447
1.10444
1.1044
1.10437
1.10434
1.10432
1.1043
1.1043
1.1043
1.10432
1.10437
1.10443
1.10453
1.10467
1.10485
1.10509
1.10538
1.10575
1.10619
1.10672
1.10734
1.10805
1.10886
1.10974
1.1107
1.1117
1.11274
1.11378
1.11478
1.11571
1.11654
1.11724
1.11777
1.11814
1.11835
1.11841
1.11835
1.11822
1.11804
1.11782
1.1176
1.10532
1.10531
1.10529
1.10527
1.10526
1.10524
1.10523
1.10521
1.1052
1.10518
1.10517
1.10516
1.10515
1.10513
1.10512
1.10511
1.1051
1.10508
1.10507
1.10505
1.10504
1.10502
1.10501
1.10499
1.10497
1.10495
1.10493
1.10491
1.10489
1.10487
1.10484
1.10482
1.10479
1.10476
1.10473
1.1047
1.10467
1.10463
1.1046
1.10456
1.10452
1.10449
1.10445
1.10441
1.10438
1.10434
1.10432
1.10429
1.10428
1.10428
1.1043
1.10434
1.10442
1.10453
1.10469
1.1049
1.10518
1.10554
1.106
1.10657
1.10724
1.10799
1.10883
1.10975
1.11075
1.1118
1.11288
1.11395
1.11497
1.11589
1.11669
1.11733
1.1178
1.11808
1.11819
1.11816
1.11802
1.1178
1.11752
1.11726
1.10536
1.10533
1.10531
1.10529
1.10527
1.10526
1.10524
1.10523
1.10521
1.1052
1.10519
1.10518
1.10516
1.10515
1.10514
1.10513
1.10512
1.10511
1.10509
1.10508
1.10507
1.10505
1.10504
1.10502
1.10501
1.10499
1.10497
1.10496
1.10494
1.10492
1.1049
1.10487
1.10485
1.10483
1.1048
1.10477
1.10474
1.10471
1.10467
1.10463
1.10459
1.10454
1.10449
1.10444
1.10438
1.10432
1.10426
1.10419
1.10413
1.10407
1.10402
1.10399
1.10399
1.10402
1.10409
1.10422
1.10441
1.10468
1.10505
1.10552
1.10608
1.10674
1.10753
1.10845
1.10945
1.11053
1.11165
1.1128
1.11392
1.11497
1.11592
1.11671
1.11731
1.11772
1.11791
1.11793
1.1178
1.11756
1.11722
1.1169
1.10539
1.10536
1.10533
1.10531
1.10529
1.10527
1.10525
1.10524
1.10522
1.10521
1.1052
1.10519
1.10518
1.10517
1.10516
1.10515
1.10513
1.10512
1.10511
1.1051
1.10509
1.10508
1.10506
1.10505
1.10504
1.10503
1.10501
1.105
1.10498
1.10497
1.10495
1.10493
1.10491
1.10489
1.10486
1.10484
1.10481
1.10477
1.10473
1.10469
1.10463
1.10457
1.1045
1.10442
1.10433
1.10423
1.10412
1.104
1.10387
1.10374
1.10361
1.1035
1.1034
1.10333
1.1033
1.10333
1.10343
1.10359
1.10385
1.10422
1.1047
1.10527
1.10599
1.10687
1.10785
1.10893
1.1101
1.11132
1.11256
1.11376
1.11487
1.11585
1.11665
1.11722
1.11755
1.11766
1.11757
1.11731
1.11692
1.11655
1.10541
1.10538
1.10534
1.10532
1.10529
1.10527
1.10525
1.10524
1.10523
1.10521
1.1052
1.10519
1.10518
1.10517
1.10516
1.10515
1.10515
1.10514
1.10513
1.10512
1.10511
1.1051
1.10509
1.10508
1.10507
1.10506
1.10505
1.10504
1.10503
1.10501
1.105
1.10498
1.10497
1.10495
1.10493
1.1049
1.10487
1.10483
1.10478
1.10472
1.10465
1.10457
1.10448
1.10436
1.10423
1.10408
1.10391
1.10373
1.10353
1.10332
1.10311
1.1029
1.1027
1.10253
1.10239
1.10231
1.10228
1.10233
1.10248
1.10276
1.10316
1.10368
1.10432
1.10511
1.10604
1.10711
1.10829
1.10957
1.11091
1.11226
1.11356
1.11475
1.11578
1.11657
1.11709
1.11733
1.11732
1.11708
1.11665
1.11622
1.10543
1.10539
1.10535
1.10532
1.10529
1.10527
1.10525
1.10523
1.10522
1.10521
1.1052
1.10519
1.10518
1.10517
1.10516
1.10516
1.10515
1.10514
1.10513
1.10513
1.10512
1.10511
1.10511
1.1051
1.10509
1.10509
1.10508
1.10507
1.10507
1.10506
1.10505
1.10504
1.10502
1.10501
1.10498
1.10495
1.10492
1.10487
1.10482
1.10475
1.10466
1.10455
1.10442
1.10427
1.1041
1.1039
1.10367
1.10342
1.10314
1.10285
1.10255
1.10225
1.10195
1.10168
1.10144
1.10125
1.10112
1.10107
1.10112
1.10127
1.10155
1.10197
1.10253
1.10325
1.10413
1.10516
1.10634
1.10765
1.10907
1.11054
1.11202
1.11344
1.11472
1.11577
1.11653
1.11697
1.11708
1.11689
1.11642
1.11595
1.10544
1.1054
1.10535
1.10531
1.10528
1.10525
1.10523
1.10522
1.1052
1.10519
1.10518
1.10517
1.10517
1.10516
1.10515
1.10515
1.10514
1.10513
1.10513
1.10512
1.10512
1.10512
1.10511
1.10511
1.10511
1.10511
1.10511
1.1051
1.1051
1.1051
1.10509
1.10509
1.10508
1.10506
1.10504
1.10501
1.10497
1.10492
1.10485
1.10476
1.10465
1.10452
1.10436
1.10417
1.10395
1.10369
1.10341
1.10309
1.10274
1.10237
1.10199
1.1016
1.10122
1.10085
1.10051
1.10022
1.1
1.09985
1.09979
1.09985
1.10003
1.10035
1.10082
1.10146
1.10226
1.10324
1.10439
1.10571
1.10717
1.10874
1.11037
1.112
1.11353
1.11486
1.11591
1.11659
1.11688
1.11678
1.11631
1.11578
1.10546
1.10539
1.10533
1.10528
1.10525
1.10522
1.1052
1.10518
1.10517
1.10516
1.10515
1.10514
1.10514
1.10513
1.10513
1.10512
1.10512
1.10512
1.10511
1.10511
1.10511
1.10511
1.10511
1.10512
1.10512
1.10512
1.10513
1.10513
1.10514
1.10514
1.10514
1.10514
1.10513
1.10512
1.10509
1.10506
1.10502
1.10496
1.10488
1.10478
1.10465
1.10449
1.1043
1.10407
1.1038
1.1035
1.10315
1.10277
1.10236
1.10193
1.10147
1.101
1.10054
1.10009
1.09968
1.0993
1.09899
1.09876
1.09861
1.09858
1.09868
1.09891
1.0993
1.09985
1.10058
1.1015
1.10261
1.10391
1.10538
1.10701
1.10875
1.11055
1.11232
1.11394
1.11529
1.11627
1.11679
1.11683
1.11639
1.11581
1.10551
1.10537
1.10529
1.10523
1.10519
1.10517
1.10514
1.10513
1.10512
1.10511
1.1051
1.1051
1.10509
1.10509
1.10508
1.10508
1.10508
1.10508
1.10508
1.10509
1.10509
1.1051
1.1051
1.10511
1.10512
1.10513
1.10514
1.10515
1.10516
1.10517
1.10518
1.10518
1.10518
1.10517
1.10515
1.10512
1.10507
1.10501
1.10492
1.1048
1.10465
1.10447
1.10425
1.10398
1.10368
1.10333
1.10294
1.10251
1.10204
1.10154
1.10103
1.1005
1.09997
1.09946
1.09898
1.09854
1.09816
1.09785
1.09764
1.09754
1.09756
1.09773
1.09804
1.09853
1.0992
1.10006
1.10112
1.10239
1.10386
1.10552
1.10734
1.10927
1.11124
1.11312
1.11479
1.11609
1.1169
1.11712
1.11676
1.11616
1.10533
1.10526
1.10519
1.10515
1.10511
1.10509
1.10507
1.10505
1.10504
1.10504
1.10503
1.10503
1.10503
1.10503
1.10503
1.10503
1.10503
1.10503
1.10504
1.10505
1.10506
1.10507
1.10508
1.1051
1.10511
1.10513
1.10515
1.10517
1.10519
1.10521
1.10522
1.10523
1.10524
1.10523
1.10521
1.10518
1.10513
1.10506
1.10496
1.10483
1.10467
1.10447
1.10422
1.10393
1.1036
1.10321
1.10277
1.10231
1.1018
1.10125
1.10069
1.10011
1.09954
1.09897
1.09844
1.09795
1.09752
1.09717
1.09691
1.09676
1.09673
1.09684
1.09711
1.09755
1.09817
1.09899
1.10001
1.10126
1.10272
1.1044
1.10628
1.10832
1.11045
1.11257
1.11453
1.11619
1.11732
1.11779
1.11754
1.11697
1.10511
1.10512
1.10507
1.10503
1.105
1.10498
1.10496
1.10495
1.10495
1.10494
1.10494
1.10494
1.10494
1.10494
1.10495
1.10495
1.10496
1.10497
1.10498
1.10499
1.10501
1.10503
1.10505
1.10507
1.1051
1.10512
1.10515
1.10518
1.10521
1.10524
1.10526
1.10528
1.10529
1.10529
1.10528
1.10525
1.1052
1.10512
1.10502
1.10488
1.10471
1.10449
1.10422
1.10391
1.10355
1.10314
1.10268
1.10217
1.10163
1.10106
1.10046
1.09985
1.09924
1.09865
1.09808
1.09756
1.0971
1.09672
1.09643
1.09624
1.09618
1.09627
1.09651
1.09692
1.09751
1.09831
1.09933
1.10057
1.10204
1.10376
1.1057
1.10784
1.11013
1.11246
1.1147
1.1167
1.11818
1.11894
1.11891
1.11842
1.10508
1.10501
1.10494
1.10489
1.10486
1.10484
1.10483
1.10482
1.10482
1.10482
1.10483
1.10483
1.10483
1.10484
1.10485
1.10486
1.10487
1.10489
1.1049
1.10492
1.10495
1.10497
1.105
1.10504
1.10507
1.10511
1.10515
1.10519
1.10523
1.10526
1.1053
1.10533
1.10535
1.10535
1.10535
1.10532
1.10527
1.1052
1.10509
1.10495
1.10476
1.10453
1.10426
1.10393
1.10355
1.10312
1.10265
1.10212
1.10156
1.10097
1.10035
1.09972
1.09909
1.09848
1.0979
1.09736
1.09689
1.09649
1.09618
1.09599
1.09592
1.09599
1.09622
1.09663
1.09722
1.09803
1.09906
1.10033
1.10185
1.10362
1.10565
1.10792
1.11038
1.11295
1.11551
1.11788
1.11969
1.12081
1.12108
1.12072
1.10495
1.10485
1.10477
1.10471
1.10469
1.10467
1.10467
1.10467
1.10467
1.10468
1.10469
1.1047
1.10471
1.10472
1.10474
1.10475
1.10477
1.10479
1.10482
1.10484
1.10487
1.10491
1.10495
1.10499
1.10504
1.10508
1.10513
1.10519
1.10524
1.10529
1.10533
1.10537
1.1054
1.10542
1.10542
1.1054
1.10535
1.10528
1.10517
1.10503
1.10484
1.1046
1.10432
1.10398
1.1036
1.10316
1.10267
1.10214
1.10157
1.10096
1.10034
1.0997
1.09907
1.09845
1.09787
1.09733
1.09685
1.09645
1.09615
1.09595
1.09589
1.09597
1.09621
1.09664
1.09726
1.0981
1.09918
1.10051
1.10211
1.10399
1.10616
1.1086
1.11127
1.11412
1.11705
1.11983
1.12215
1.12371
1.12426
1.12411
1.10474
1.10463
1.10454
1.10449
1.10447
1.10446
1.10447
1.10448
1.10449
1.10451
1.10453
1.10455
1.10456
1.10458
1.10461
1.10463
1.10466
1.10468
1.10472
1.10475
1.10479
1.10484
1.10488
1.10494
1.10499
1.10505
1.10511
1.10518
1.10524
1.1053
1.10536
1.10541
1.10545
1.10548
1.10548
1.10547
1.10543
1.10536
1.10526
1.10511
1.10493
1.10469
1.1044
1.10406
1.10367
1.10323
1.10274
1.10221
1.10164
1.10104
1.10041
1.09978
1.09915
1.09854
1.09797
1.09743
1.09697
1.09658
1.09629
1.09611
1.09607
1.09618
1.09645
1.09691
1.09759
1.09849
1.09964
1.10107
1.10279
1.10483
1.10718
1.10985
1.11282
1.11602
1.11933
1.12255
1.12557
1.12774
1.12865
1.12881
1.10446
1.10435
1.10425
1.1042
1.1042
1.10421
1.10423
1.10426
1.10429
1.10432
1.10435
1.10438
1.10441
1.10444
1.10447
1.1045
1.10453
1.10457
1.10461
1.10466
1.1047
1.10476
1.10482
1.10488
1.10495
1.10502
1.10509
1.10517
1.10524
1.10531
1.10538
1.10544
1.10549
1.10553
1.10555
1.10554
1.10551
1.10544
1.10534
1.1052
1.10501
1.10478
1.1045
1.10416
1.10377
1.10334
1.10285
1.10232
1.10176
1.10117
1.10055
1.09994
1.09932
1.09873
1.09817
1.09766
1.09721
1.09684
1.09658
1.09643
1.09642
1.09657
1.09689
1.09741
1.09814
1.09913
1.10039
1.10194
1.10382
1.10605
1.10865
1.11162
1.11496
1.11861
1.12245
1.12629
1.12991
1.1329
1.13457
1.13517
1.10409
1.10397
1.10387
1.10385
1.10387
1.10391
1.10396
1.10402
1.10407
1.10412
1.10417
1.10421
1.10425
1.10429
1.10433
1.10437
1.10441
1.10446
1.10451
1.10456
1.10462
1.10468
1.10475
1.10482
1.1049
1.10498
1.10506
1.10515
1.10524
1.10532
1.1054
1.10547
1.10553
1.10557
1.1056
1.1056
1.10557
1.10551
1.10542
1.10528
1.1051
1.10487
1.10459
1.10426
1.10388
1.10345
1.10298
1.10246
1.10191
1.10133
1.10074
1.10014
1.09955
1.09898
1.09845
1.09796
1.09755
1.09721
1.09699
1.09688
1.09691
1.0971
1.09748
1.09807
1.09889
1.09997
1.10135
1.10305
1.10511
1.10757
1.11045
1.11377
1.11756
1.12177
1.1263
1.13096
1.13544
1.13935
1.14205
1.14335
1.10358
1.10346
1.10339
1.10341
1.10348
1.10357
1.10367
1.10376
1.10385
1.10392
1.10399
1.10405
1.10411
1.10416
1.10421
1.10426
1.10431
1.10436
1.10442
1.10448
1.10454
1.10461
1.10469
1.10477
1.10486
1.10495
1.10504
1.10513
1.10523
1.10532
1.10541
1.10549
1.10555
1.10561
1.10564
1.10565
1.10562
1.10557
1.10548
1.10535
1.10517
1.10495
1.10468
1.10436
1.10399
1.10357
1.10311
1.10261
1.10208
1.10152
1.10095
1.10038
1.09982
1.09928
1.09878
1.09834
1.09796
1.09767
1.09748
1.09742
1.0975
1.09776
1.0982
1.09886
1.09977
1.10096
1.10246
1.10431
1.10656
1.10924
1.11241
1.11611
1.12036
1.12518
1.1305
1.13615
1.14179
1.14688
1.15085
1.15308
1.10287
1.10278
1.10277
1.10287
1.10302
1.10321
1.10338
1.10352
1.10364
1.10375
1.10384
1.10392
1.10399
1.10405
1.10411
1.10417
1.10423
1.10429
1.10435
1.10442
1.10449
1.10457
1.10465
1.10474
1.10483
1.10493
1.10503
1.10513
1.10523
1.10533
1.10542
1.1055
1.10558
1.10563
1.10567
1.10568
1.10567
1.10562
1.10553
1.1054
1.10523
1.10502
1.10476
1.10444
1.10409
1.10368
1.10324
1.10276
1.10226
1.10173
1.10119
1.10065
1.10012
1.09962
1.09916
1.09876
1.09843
1.09819
1.09805
1.09805
1.09819
1.09851
1.09902
1.09976
1.10075
1.10204
1.10365
1.10564
1.10804
1.11092
1.11432
1.11832
1.12298
1.12834
1.13443
1.14115
1.14817
1.1549
1.16078
1.16421
1.1019
1.10185
1.10197
1.10223
1.10255
1.10286
1.10312
1.10332
1.10349
1.10362
1.10373
1.10383
1.10391
1.10399
1.10406
1.10412
1.10419
1.10425
1.10432
1.10439
1.10447
1.10455
1.10464
1.10473
1.10483
1.10493
1.10503
1.10514
1.10524
1.10534
1.10544
1.10553
1.1056
1.10566
1.1057
1.10571
1.1057
1.10565
1.10557
1.10545
1.10529
1.10508
1.10482
1.10453
1.10418
1.1038
1.10338
1.10292
1.10244
1.10194
1.10144
1.10094
1.10045
1.1
1.09958
1.09922
1.09894
1.09876
1.09868
1.09874
1.09895
1.09933
1.09992
1.10073
1.1018
1.10316
1.10485
1.10692
1.10942
1.11239
1.11591
1.12004
1.12488
1.13052
1.13705
1.14455
1.15287
1.16159
1.1703
1.1766
1.09978
1.10023
1.1009
1.10154
1.10214
1.10261
1.10295
1.10321
1.10341
1.10357
1.10371
1.10382
1.10391
1.10399
1.10406
1.10413
1.1042
1.10427
1.10434
1.10442
1.1045
1.10458
1.10467
1.10477
1.10486
1.10497
1.10507
1.10518
1.10528
1.10538
1.10548
1.10557
1.10564
1.1057
1.10574
1.10575
1.10574
1.10569
1.10561
1.10549
1.10534
1.10513
1.10489
1.10461
1.10428
1.10391
1.10352
1.10309
1.10264
1.10218
1.10171
1.10126
1.10082
1.10041
1.10005
1.09974
1.09952
1.09939
1.09937
1.0995
1.09977
1.10022
1.10087
1.10174
1.10286
1.10427
1.106
1.10808
1.11056
1.11348
1.11689
1.12086
1.12544
1.13072
1.1368
1.14379
1.15179
1.16061
1.16959
1.17678
1.09381
1.09746
1.09962
1.10098
1.10188
1.10248
1.1029
1.10321
1.10345
1.10363
1.10378
1.10389
1.10399
1.10408
1.10415
1.10423
1.1043
1.10436
1.10444
1.10451
1.10459
1.10467
1.10476
1.10485
1.10495
1.10505
1.10516
1.10526
1.10536
1.10546
1.10555
1.10564
1.10571
1.10576
1.10579
1.10581
1.10579
1.10574
1.10566
1.10555
1.10539
1.1052
1.10497
1.10469
1.10439
1.10404
1.10367
1.10328
1.10286
1.10244
1.10202
1.10161
1.10122
1.10087
1.10056
1.10032
1.10016
1.10009
1.10013
1.10031
1.10065
1.10116
1.10186
1.10277
1.10392
1.10533
1.10703
1.10904
1.11139
1.11409
1.11716
1.1206
1.12438
1.12843
1.13255
1.13636
1.13893
1.13797
1.12654
1.08527
1.09444
1.09766
1.09972
1.1011
1.102
1.10262
1.10306
1.10339
1.10364
1.10383
1.10397
1.10409
1.10419
1.10427
1.10435
1.10442
1.10448
1.10455
1.10462
1.10469
1.10477
1.10484
1.10493
1.10502
1.10511
1.10521
1.1053
1.1054
1.1055
1.10559
1.10567
1.10575
1.10581
1.10586
1.10588