/*--------------------------------*- C++ -*----------------------------------*\
| =========                 |                                                 |
| \\      /  F ield         | OpenFOAM: The Open Source CFD Toolbox           |
|  \\    /   O peration     | Version:  v2012                                 |
|   \\  /    A nd           | Website:  www.openfoam.com                      |
|    \\/     M anipulation  |                                                 |
\*---------------------------------------------------------------------------*/
FoamFile
{
    version     2.0;
    format      ascii;
    class       surfaceScalarField;
    location    "2000";
    object      phi;
}
// * * * * * * * * * * * * * * * * * * * * * * * * * * * * * * * * * * * * * //

dimensions      [0 3 -1 0 0 0 0];
oriented        oriented;


internalField   nonuniform List<scalar> 
12722
(
2.01317e-05
0.000179868
1.06552e-05
0.000209477
5.31789e-06
0.000205337
2.37005e-06
0.000202948
2.21478e-08
0.000202348
-2.3275e-06
0.00020235
-5.28026e-06
0.000202953
-1.06267e-05
0.000205346
-2.01081e-05
0.000209481
0.000179892
2.73755e-05
0.000152493
2.24754e-05
0.000214377
1.35884e-05
0.000214224
6.2789e-06
0.000210257
6.89421e-08
0.000208558
-6.14451e-06
0.000208563
-1.34621e-05
0.00021027
-2.23625e-05
0.000214247
-2.73058e-05
0.000214425
0.000152586
2.37871e-05
0.000128706
2.36457e-05
0.000214518
1.60343e-05
0.000221836
7.83521e-06
0.000218456
1.23597e-07
0.000216269
-7.5928e-06
0.000216279
-1.58055e-05
0.000218483
-2.34542e-05
0.000221896
-2.36857e-05
0.000214656
0.0001289
1.91995e-05
0.000109506
2.26472e-05
0.00021107
1.61914e-05
0.000228292
8.12732e-06
0.000226521
1.87284e-07
0.00022421
-7.7635e-06
0.00022423
-1.5869e-05
0.000226588
-2.23663e-05
0.000228393
-1.90602e-05
0.00021135
0.00010984
1.39886e-05
9.55175e-05
1.98208e-05
0.000205238
1.50033e-05
0.000233109
7.82715e-06
0.000233697
2.71917e-07
0.000231765
-7.29646e-06
0.000231799
-1.45185e-05
0.000233811
-1.94444e-05
0.000233319
-1.38119e-05
0.000205718
9.60283e-05
9.51028e-06
8.60072e-05
1.61388e-05
0.00019861
1.33206e-05
0.000235927
7.2466e-06
0.000239771
3.88607e-07
0.000238623
-6.48197e-06
0.000238669
-1.26124e-05
0.000239941
-1.56344e-05
0.000236341
-9.29647e-06
0.00019938
8.67318e-05
6.30501e-06
7.97022e-05
1.27468e-05
0.000192168
1.17115e-05
0.000236963
6.6523e-06
0.00024483
5.36995e-07
0.000244738
-5.59913e-06
0.000244805
-1.07694e-05
0.000245111
-1.20589e-05
0.00023763
-6.02732e-06
0.000193348
8.07045e-05
4.24661e-06
7.54556e-05
1.00844e-05
0.00018633
1.01339e-05
0.000236913
6.0162e-06
0.000248948
7.05965e-07
0.000250048
-4.66614e-06
0.000250177
-8.87307e-06
0.000249318
-9.17287e-06
0.00023793
-3.87368e-06
0.000188049
7.68308e-05
3.04759e-06
7.2408e-05
8.12618e-06
0.000181251
8.80292e-06
0.000236236
5.4912e-06
0.000252259
9.6226e-07
0.000254577
-3.61677e-06
0.000254756
-7.15189e-06
0.000252853
-6.93047e-06
0.000237709
-2.55515e-06
0.000183673
7.42757e-05
2.32962e-06
7.00784e-05
6.69683e-06
0.000176884
7.74839e-06
0.000235185
5.27002e-06
0.000254738
1.34423e-06
0.000258503
-2.65185e-06
0.000258753
-5.55568e-06
0.000255757
-5.1641e-06
0.000237317
-1.70039e-06
0.00018021
7.25753e-05
1.90784e-06
6.81706e-05
5.70323e-06
0.000173089
7.03598e-06
0.000233852
5.22555e-06
0.000256548
1.78004e-06
0.000261949
-1.8074e-06
0.00026234
-4.07718e-06
0.000258027
-3.68318e-06
0.000236923
-1.08033e-06
0.000177607
7.1495e-05
1.71193e-06
6.64586e-05
5.12611e-06
0.000169675
6.68373e-06
0.000232294
5.33511e-06
0.000257897
2.3488e-06
0.000264935
-8.1411e-07
0.000265503
-2.75565e-06
0.000259968
-2.44536e-06
0.000236613
-6.10044e-07
0.000175772
7.08849e-05
1.65692e-06
6.48017e-05
4.86143e-06
0.00016647
6.62661e-06
0.000230529
5.70611e-06
0.000258817
3.09485e-06
0.000267546
2.86819e-07
0.000268311
-1.48122e-06
0.000261737
-1.37225e-06
0.000236504
-2.25011e-07
0.000174624
7.06599e-05
1.71315e-06
6.30886e-05
4.89557e-06
0.000163288
6.88538e-06
0.00022854
6.34717e-06
0.000259355
4.04186e-06
0.000269851
1.5383e-06
0.000270815
-1.33089e-07
0.000263408
-3.17539e-07
0.000236688
1.58385e-07
0.000174148
7.08183e-05
1.83554e-06
6.1253e-05
5.12369e-06
0.00016
7.37213e-06
0.000226291
7.20919e-06
0.000259518
5.31183e-06
0.000271749
3.06404e-06
0.000273062
1.41284e-06
0.000265059
8.47877e-07
0.000237253
6.10429e-07
0.000174386
7.14287e-05
2.01922e-06
5.92338e-05
5.55644e-06
0.000156462
8.15912e-06
0.000223688
8.43458e-06
0.000259243
7.03192e-06
0.000273151
5.00536e-06
0.000275089
3.30542e-06
0.000266759
2.25845e-06
0.0002383
1.1975e-06
0.000175447
7.26262e-05
2.26683e-06
5.6967e-05
6.2035e-06
0.000152526
9.30574e-06
0.000220586
1.01494e-05
0.000258399
9.23292e-06
0.000274068
7.47418e-06
0.000276848
5.71612e-06
0.000268517
4.0926e-06
0.000239924
2.02567e-06
0.000177514
7.46519e-05
2.57383e-06
5.43931e-05
7.06545e-06
0.000148034
1.08371e-05
0.000216815
1.23985e-05
0.000256838
1.20439e-05
0.000274423
1.06156e-05
0.000278276
8.87331e-06
0.000270259
6.64878e-06
0.000242148
3.29436e-06
0.000180868
7.79463e-05
2.92025e-06
5.14729e-05
8.10523e-06
0.000142849
1.27179e-05
0.000212202
1.51542e-05
0.000254401
1.54964e-05
0.00027408
1.46309e-05
0.000279141
1.30778e-05
0.000271813
1.03722e-05
0.000244854
5.371e-06
0.000185869
8.33173e-05
3.27328e-06
4.81996e-05
9.25031e-06
0.000136872
1.48576e-05
0.000206595
1.8333e-05
0.000250926
1.95826e-05
0.000272831
1.95787e-05
0.000279145
1.8745e-05
0.000272646
1.65181e-05
0.000247081
1.17574e-05
0.00019063
9.50747e-05
3.63333e-06
4.45663e-05
1.05071e-05
0.000129998
1.72981e-05
0.000199804
2.20395e-05
0.000246185
2.44712e-05
0.000270399
2.54934e-05
0.000278123
2.59207e-05
0.000272219
2.52559e-05
0.000247746
2.3039e-05
0.000192847
0.000105065
1.30492e-05
3.88015e-06
4.06861e-05
1.15747e-05
0.000122304
1.95446e-05
0.000191834
2.55789e-05
0.00024015
2.92114e-05
0.000266767
3.11513e-05
0.000276183
3.22602e-05
0.00027111
3.15612e-05
0.000248445
2.70614e-05
0.000197347
0.000119722
1.24039e-05
3.99863e-06
3.66875e-05
1.24079e-05
0.000113894
2.14992e-05
0.000182742
2.87792e-05
0.00023287
3.35147e-05
0.000262031
3.61691e-05
0.000273529
3.74723e-05
0.000269807
3.62988e-05
0.000249618
3.06256e-05
0.00020302
0.000133422
1.69257e-05
4.02536e-06
3.26621e-05
1.2983e-05
0.000104937
2.31021e-05
0.000172623
3.16105e-05
0.000224362
3.74416e-05
0.0002562
4.08369e-05
0.000270134
4.24082e-05
0.000268235
4.11127e-05
0.000250914
3.50611e-05
0.000209072
0.000146456
2.20273e-05
3.98815e-06
2.8674e-05
1.33297e-05
9.55953e-05
2.438e-05
0.000161573
3.41241e-05
0.000214618
4.1126e-05
0.000249198
4.53986e-05
0.000265861
4.72509e-05
0.000266383
4.6137e-05
0.000252028
3.99691e-05
0.00021524
0.00015907
2.73546e-05
3.89437e-06
2.47796e-05
1.34698e-05
8.60198e-05
2.53406e-05
0.000149702
3.63157e-05
0.000203643
4.4571e-05
0.000240943
4.98211e-05
0.000260611
5.20468e-05
0.000264157
5.13129e-05
0.000252762
4.5375e-05
0.000221177
0.000171116
3.33293e-05
3.75275e-06
2.10269e-05
1.34149e-05
7.63577e-05
2.59742e-05
0.000137143
3.81632e-05
0.000191454
4.78092e-05
0.000231297
5.41027e-05
0.000254317
5.70611e-05
0.000261199
5.68592e-05
0.000252964
5.13848e-05
0.000226652
0.000182476
4.00248e-05
3.56722e-06
1.74596e-05
1.31692e-05
6.67557e-05
2.62573e-05
0.000124055
3.95979e-05
0.000178113
5.069e-05
0.000220205
5.82817e-05
0.000246726
6.22857e-05
0.000257195
6.29023e-05
0.000252347
5.80412e-05
0.000231513
0.000193085
4.74323e-05
3.33973e-06
1.41199e-05
1.27308e-05
5.73646e-05
2.61493e-05
0.000110636
4.05109e-05
0.000163752
5.30499e-05
0.000207666
6.22382e-05
0.000237537
6.75408e-05
0.000251892
6.9084e-05
0.000250804
6.52625e-05
0.000235334
0.000202766
5.55813e-05
3.0769e-06
1.1043e-05
1.21135e-05
4.83279e-05
2.56474e-05
9.71022e-05
4.08765e-05
0.000148522
5.48942e-05
0.000193648
6.57968e-05
0.000226635
7.26898e-05
0.000244999
7.5178e-05
0.000248316
7.28135e-05
0.000237699
0.000211183
6.43959e-05
2.78791e-06
8.25501e-06
1.134e-05
3.97757e-05
2.47596e-05
8.36825e-05
4.06438e-05
0.000132638
5.60694e-05
0.000178222
6.8775e-05
0.000213929
7.74774e-05
0.000236297
8.14168e-05
0.000244376
8.07343e-05
0.000238381
0.000218132
7.3786e-05
2.47892e-06
5.77604e-06
1.04278e-05
3.18268e-05
2.34865e-05
7.06237e-05
3.97421e-05
0.000116383
5.63965e-05
0.000161568
7.09171e-05
0.000199408
8.16135e-05
0.000225601
8.75872e-05
0.000238403
8.86912e-05
0.000237277
0.000223203
8.36203e-05
2.15168e-06
3.62428e-06
9.40151e-06
2.45768e-05
2.1853e-05
5.81722e-05
3.81451e-05
0.00010009
5.57601e-05
0.000143953
7.20298e-05
0.000183139
8.49067e-05
0.000212724
9.32037e-05
0.000230106
9.62281e-05
0.000234253
0.000225884
9.35471e-05
1.83646e-06
1.78777e-06
8.30994e-06
1.81033e-05
1.99197e-05
4.65624e-05
3.58811e-05
8.4129e-05
5.40957e-05
0.000125738
7.19204e-05
0.000165314
8.70258e-05
0.000197618
9.78338e-05
0.000219298
0.000103265
0.000228822
0.000225853
0.000103296
1.57415e-06
2.13602e-07
7.19998e-06
1.24774e-05
1.77626e-05
3.59997e-05
3.30171e-05
6.88744e-05
5.13806e-05
0.000107375
7.04079e-05
0.000146287
8.76101e-05
0.000180416
0.000101039
0.000205869
0.000109422
0.000220438
0.000223075
0.0001122
1.27877e-06
-1.06516e-06
6.06716e-06
7.68894e-06
1.54577e-05
2.66092e-05
2.9664e-05
5.46681e-05
4.76764e-05
8.93622e-05
6.74222e-05
0.000126541
8.64288e-05
0.000161409
0.000102487
0.00018981
0.000114005
0.000208921
0.000217295
0.000119785
9.27935e-07
-1.99308e-06
4.92735e-06
3.68954e-06
1.30932e-05
1.84433e-05
2.59781e-05
4.17831e-05
4.3138e-05
7.22023e-05
6.30093e-05
0.000106669
8.33235e-05
0.000141095
0.000101746
0.000171388
0.000116341
0.000194326
0.000207921
0.000125715
6.02875e-07
-2.59593e-06
3.83728e-06
4.55177e-07
1.07822e-05
1.14983e-05
2.2152e-05
3.04133e-05
3.80011e-05
5.63531e-05
5.73467e-05
8.73238e-05
7.8303e-05
0.000120139
9.85964e-05
0.000151095
0.000116091
0.000176831
0.000194892
0.00012912
5.13326e-07
-3.10922e-06
3.06136e-06
-2.0928e-06
8.71593e-06
5.84378e-06
1.84068e-05
2.07224e-05
3.25638e-05
4.21961e-05
5.07481e-05
6.91394e-05
7.15786e-05
9.9308e-05
9.30369e-05
0.000129636
0.000112949
0.000156918
0.000178442
0.000129399
3.6641e-07
-3.4756e-06
2.30032e-06
-4.02666e-06
6.7904e-06
1.35372e-06
1.48429e-05
1.26699e-05
2.71028e-05
2.99361e-05
4.36025e-05
5.26397e-05
6.35242e-05
7.93863e-05
8.52747e-05
0.000107886
0.000106836
0.000135357
0.000159093
0.000126185
8.62611e-08
-3.56184e-06
1.48723e-06
-5.42758e-06
5.0276e-06
-2.18662e-06
1.15676e-05
6.12994e-06
2.18736e-05
1.96301e-05
3.63304e-05
3.81829e-05
5.46492e-05
6.10675e-05
7.57644e-05
8.67707e-05
9.80025e-05
0.000113119
0.00013767
0.000119425
2.7805e-08
-3.58962e-06
9.70081e-07
-6.36981e-06
3.60624e-06
-4.82275e-06
8.72618e-06
1.01002e-06
1.71126e-05
1.12437e-05
2.93422e-05
2.59533e-05
4.55366e-05
4.48731e-05
6.51602e-05
6.71471e-05
8.70127e-05
9.12661e-05
0.000115253
0.00010943
3.77784e-08
-3.62738e-06
6.31579e-07
-6.96358e-06
2.48274e-06
-6.67388e-06
6.35084e-06
-2.85807e-06
1.29641e-05
4.63039e-06
2.29659e-05
1.59515e-05
3.67431e-05
3.1096e-05
5.42083e-05
4.96819e-05
7.46723e-05
7.08021e-05
9.30354e-05
9.68897e-05
-9.86493e-08
-3.52872e-06
2.1515e-07
-7.27735e-06
1.50168e-06
-7.96039e-06
4.33502e-06
-5.69139e-06
9.33354e-06
-3.68103e-07
1.71258e-05
8.15926e-06
2.82235e-05
1.99983e-05
4.28523e-05
3.50531e-05
6.07843e-05
5.28701e-05
7.25518e-05
8.1268e-05
-1.78543e-07
-3.35017e-06
-5.3582e-08
-7.40229e-06
8.3723e-07
-8.85119e-06
2.91488e-06
-7.76903e-06
6.6896e-06
-4.1428e-06
1.27285e-05
2.12037e-06
2.15752e-05
1.11517e-05
3.36272e-05
2.30011e-05
4.89877e-05
3.75096e-05
5.4199e-05
6.73405e-05
-1.06173e-07
-3.24399e-06
-5.77928e-08
-7.45066e-06
4.95215e-07
-9.40418e-06
1.94432e-06
-9.21812e-06
4.71569e-06
-6.91415e-06
9.2722e-06
-2.43611e-06
1.61143e-05
4.30967e-06
2.56982e-05
1.34173e-05
3.8324e-05
2.48839e-05
3.85129e-05
5.40102e-05
-9.78805e-08
-3.1461e-06
-1.15048e-07
-7.43348e-06
2.45988e-07
-9.76521e-06
1.26574e-06
-1.02379e-05
3.27272e-06
-8.92111e-06
6.64634e-06
-5.80969e-06
1.18092e-05
-8.53133e-07
1.92019e-05
6.02456e-06
2.92046e-05
1.48813e-05
2.56757e-05
4.20418e-05
-9.19227e-08
-3.05417e-06
-1.5644e-07
-7.36896e-06
5.53257e-08
-9.97696e-06
7.5494e-07
-1.09375e-05
2.1837e-06
-1.03499e-05
4.63912e-06
-8.26508e-06
8.463e-06
-4.67696e-06
1.40317e-05
4.55895e-07
2.17217e-05
7.19143e-06
1.55547e-05
3.18428e-05
-6.61853e-08
-2.98798e-06
-1.42383e-07
-7.29276e-06
-7.20902e-08
-1.00473e-05
3.20993e-07
-1.13305e-05
1.25314e-06
-1.1282e-05
2.97395e-06
-9.98587e-06
5.74813e-06
-7.45109e-06
9.86994e-06
-3.66586e-06
1.56557e-05
1.40576e-06
7.79686e-06
2.34136e-05
-8.22772e-08
-2.9057e-06
-2.46141e-07
-7.12889e-06
-3.66351e-07
-9.92704e-06
-2.62964e-07
-1.14339e-05
2.4504e-07
-1.179e-05
1.35819e-06
-1.1099e-05
3.29299e-06
-9.38584e-06
6.2803e-06
-6.65311e-06
1.05642e-05
-2.87808e-06
1.96068e-06
1.64005e-05
-1.29863e-07
-2.77584e-06
-4.35801e-07
-6.82296e-06
-7.93244e-07
-9.56959e-06
-1.01877e-06
-1.12084e-05
-9.43326e-07
-1.18654e-05
-3.926e-07
-1.16497e-05
8.17926e-07
-1.05963e-05
2.86754e-06
-8.70267e-06
5.9512e-06
-5.96166e-06
-2.35316e-06
1.02651e-05
-1.96843e-07
-2.579e-06
-6.74571e-07
-6.34524e-06
-1.28777e-06
-8.95639e-06
-1.87934e-06
-1.06168e-05
-2.27666e-06
-1.14681e-05
-2.3084e-06
-1.16179e-05
-1.80897e-06
-1.10957e-05
-6.12775e-07
-9.89881e-06
1.43934e-06
-8.0137e-06
-5.41498e-06
4.50126e-06
-2.88422e-07
-2.29058e-06
-9.80629e-07
-5.65304e-06
-1.90322e-06
-8.0338e-06
-2.88521e-06
-9.63481e-06
-3.75656e-06
-1.05967e-05
-4.37369e-06
-1.10008e-05
-4.58066e-06
-1.08887e-05
-4.21056e-06
-1.02689e-05
-3.1198e-06
-9.10439e-06
-7.35681e-06
-1.17789e-06
-3.85244e-07
-1.90534e-06
-1.29239e-06
-4.74589e-06
-2.51608e-06
-6.81012e-06
-3.88203e-06
-8.26885e-06
-5.23437e-06
-9.24436e-06
-6.42324e-06
-9.81188e-06
-7.30488e-06
-1.00071e-05
-7.74264e-06
-9.83105e-06
-7.5909e-06
-9.25608e-06
-8.21911e-06
-6.72854e-06
-4.61221e-07
-1.44412e-06
-1.53238e-06
-3.67474e-06
-2.98727e-06
-5.35523e-06
-4.65685e-06
-6.59928e-06
-6.39944e-06
-7.50176e-06
-8.0841e-06
-8.12719e-06
-9.5854e-06
-8.50573e-06
-1.07832e-05
-8.63319e-06
-1.15512e-05
-8.48806e-06
-8.01473e-06
-1.17555e-05
-4.91519e-07
-9.52604e-07
-1.62716e-06
-2.53911e-06
-3.18481e-06
-3.79758e-06
-5.01401e-06
-4.77008e-06
-6.99701e-06
-5.51875e-06
-9.02943e-06
-6.09476e-06
-1.10097e-05
-6.52539e-06
-1.28321e-05
-6.81075e-06
-1.43926e-05
-6.92752e-06
-6.83873e-06
-1.55686e-05
-4.55325e-07
-4.97281e-07
-1.5204e-06
-1.47404e-06
-3.00775e-06
-2.31023e-06
-4.79865e-06
-2.97918e-06
-6.80427e-06
-3.51312e-06
-8.94897e-06
-3.95005e-06
-1.11603e-05
-4.31406e-06
-1.33606e-05
-4.61038e-06
-1.54617e-05
-4.82635e-06
-4.9366e-06
-1.73638e-05
-3.46591e-07
-1.50693e-07
-1.19184e-06
-6.28797e-07
-2.41746e-06
-1.08461e-06
-3.94442e-06
-1.45222e-06
-5.70915e-06
-1.74838e-06
-7.66039e-06
-1.99878e-06
-9.75405e-06
-2.22039e-06
-1.19439e-05
-2.42049e-06
-1.41749e-05
-2.59532e-06
-2.73268e-06
-1.63788e-05
-1.71081e-07
2.03865e-08
-6.69089e-07
-1.30797e-07
-1.46934e-06
-2.84358e-07
-2.52057e-06
-4.00998e-07
-3.7743e-06
-4.94638e-07
-5.19739e-06
-5.75681e-07
-6.7686e-06
-6.49159e-07
-8.46856e-06
-7.20501e-07
-1.02742e-05
-7.89682e-07
-8.53192e-07
-1.21536e-05
2.03859e-08
-1.10412e-07
-3.9477e-07
-7.95768e-07
-1.2904e-06
-1.86608e-06
-2.51524e-06
-3.23573e-06
-4.02541e-06
-4.87859e-06
-1.39632e-05
2.70124e-05
-1.75649e-05
3.60164e-06
-1.56939e-05
-1.87098e-06
-1.29562e-05
-2.7377e-06
-1.05585e-05
-2.39774e-06
-8.72025e-06
-1.83823e-06
-7.34362e-06
-1.37663e-06
-6.29467e-06
-1.04898e-06
-5.46246e-06
-8.32211e-07
-4.76355e-06
-6.98939e-07
-4.14035e-06
-6.23207e-07
-3.55612e-06
-5.84265e-07
-2.99096e-06
-5.65166e-07
-2.43871e-06
-5.52307e-07
-1.90369e-06
-5.35027e-07
-1.39848e-06
-5.05288e-07
-9.41131e-07
-4.57371e-07
-5.47102e-07
-3.94126e-07
-2.25915e-07
-3.2124e-07
5.83049e-09
-2.31871e-07
1.35637e-07
-1.29915e-07
1.72029e-07
-3.65473e-08
1.30259e-07
4.15894e-08
5.34452e-08
7.66268e-08
5.34184e-08
-7.97788e-06
4.73942e-05
-1.83926e-05
1.40164e-05
-2.14558e-05
1.19223e-06
-2.11793e-05
-3.01427e-06
-1.9598e-05
-3.97898e-06
-1.77231e-05
-3.7132e-06
-1.59391e-05
-3.16062e-06
-1.43397e-05
-2.64848e-06
-1.28963e-05
-2.27563e-06
-1.15577e-05
-2.03754e-06
-1.02758e-05
-1.90516e-06
-9.01582e-06
-1.8443e-06
-7.76055e-06
-1.82051e-06
-6.51051e-06
-1.80241e-06
-5.28214e-06
-1.76351e-06
-4.10384e-06
-1.68369e-06
-3.01046e-06
-1.55091e-06
-2.04125e-06
-1.3635e-06
-1.23613e-06
-1.1266e-06
-6.20124e-07
-8.48166e-07
-2.01139e-07
-5.49274e-07
2.60856e-08
-2.64239e-07
9.27246e-08
-2.55612e-08
5.42619e-08
1.14621e-07
1.0764e-07
-1.78629e-07
6.44985e-05
-1.2553e-05
2.63908e-05
-1.8997e-05
7.63621e-06
-2.1521e-05
-4.90284e-07
-2.20007e-05
-3.4993e-06
-2.1388e-05
-4.32595e-06
-2.02772e-05
-4.27144e-06
-1.89695e-05
-3.95619e-06
-1.75958e-05
-3.64936e-06
-1.61763e-05
-3.457e-06
-1.47056e-05
-3.37593e-06
-1.31742e-05
-3.37577e-06
-1.15822e-05
-3.41256e-06
-9.94421e-06
-3.44044e-06
-8.2903e-06
-3.41751e-06
-6.66378e-06
-3.3103e-06
-5.11736e-06
-3.09745e-06
-3.70869e-06
-2.77234e-06
-2.49234e-06
-2.34312e-06
-1.50815e-06
-1.83264e-06
-7.77566e-07
-1.28023e-06
-3.02397e-07
-7.39822e-07
-5.36975e-08
-2.74901e-07
1.98989e-08
4.04114e-08
1.27489e-07
6.11568e-06
8.04101e-05
-6.78377e-06
3.92902e-05
-1.49943e-05
1.58467e-05
-1.94836e-05
3.99907e-06
-2.1532e-05
-1.45093e-06
-2.22006e-05
-3.65737e-06
-2.20607e-05
-4.41137e-06
-2.14122e-05
-4.60467e-06
-2.04781e-05
-4.58354e-06
-1.93413e-05
-4.59378e-06
-1.80151e-05
-4.70215e-06
-1.65103e-05
-4.88061e-06
-1.48414e-05
-5.08151e-06
-1.30347e-05
-5.24719e-06
-1.11323e-05
-5.31994e-06
-9.19226e-06
-5.25041e-06
-7.28525e-06
-5.00455e-06
-5.48876e-06
-4.56892e-06
-3.87834e-06
-3.95367e-06
-2.51742e-06
-3.19378e-06
-1.44946e-06
-2.34848e-06
-6.92267e-07
-1.49754e-06
-2.33092e-07
-7.34889e-07
-2.8553e-08
-1.64713e-07
9.88997e-08
1.21443e-05
9.56205e-05
-1.16987e-06
5.26044e-05
-1.05256e-05
2.52024e-05
-1.63961e-05
9.86956e-06
-1.98011e-05
1.95405e-06
-2.16026e-05
-1.8559e-06
-2.24069e-05
-3.60706e-06
-2.25978e-05
-4.41375e-06
-2.23222e-05
-4.85922e-06
-2.16824e-05
-5.23356e-06
-2.0721e-05
-5.66355e-06
-1.94543e-05
-6.14731e-06
-1.78983e-05
-6.63757e-06
-1.60815e-05
-7.06406e-06
-1.40519e-05
-7.34961e-06
-1.1879e-05
-7.42327e-06
-9.65196e-06
-7.23166e-06
-7.47269e-06
-6.74824e-06
-5.44653e-06
-5.97985e-06
-3.67003e-06
-4.97042e-06
-2.21892e-06
-3.79984e-06
-1.13855e-06
-2.57844e-06
-4.36419e-07
-1.43741e-06
-7.99722e-08
-5.21729e-07
1.88931e-08
1.86227e-05
0.000110327
4.84384e-06
6.63832e-05
-5.60198e-06
3.56483e-05
-1.27306e-05
1.69982e-05
-1.73339e-05
6.55736e-06
-2.02212e-05
1.03139e-06
-2.20036e-05
-1.82473e-06
-2.30471e-05
-3.37023e-06
-2.35319e-05
-4.37447e-06
-2.35409e-05
-5.22459e-06
-2.31132e-05
-6.09127e-06
-2.22558e-05
-7.00468e-06
-2.09732e-05
-7.92025e-06
-1.92839e-05
-8.75332e-06
-1.7232e-05
-9.4016e-06
-1.48917e-05
-9.76353e-06
-1.2368e-05
-9.75548e-06
-9.78995e-06
-9.3262e-06
-7.30097e-06
-8.46881e-06
-5.04206e-06
-7.22943e-06
-3.13453e-06
-5.7076e-06
-1.66391e-06
-4.04909e-06
-6.69706e-07
-2.43247e-06
-1.37428e-07
-1.05421e-06
-1.18532e-07
2.57014e-05
0.000124651
1.14492e-05
8.06354e-05
-1.28526e-07
4.7226e-05
-8.51635e-06
2.5386e-05
-1.4317e-05
1.2358e-05
-1.82864e-05
5.0008e-06
-2.1037e-05
9.25851e-07
-2.29582e-05
-1.44904e-06
-2.4258e-05
-3.07467e-06
-2.50189e-05
-4.46372e-06
-2.52588e-05
-5.85139e-06
-2.49626e-05
-7.30088e-06
-2.41097e-05
-8.77318e-06
-2.26944e-05
-1.01687e-05
-2.0742e-05
-1.1354e-05
-1.83198e-05
-1.21857e-05
-1.55399e-05
-1.25354e-05
-1.25561e-05
-1.231e-05
-9.55436e-06
-1.14707e-05
-6.732e-06
-1.00518e-05
-4.27261e-06
-8.16708e-06
-2.32103e-06
-6.00122e-06
-9.64295e-07
-3.78888e-06
-2.28973e-07
-1.7894e-06
-3.47478e-07
3.34816e-05
0.000138601
1.87974e-05
9.53196e-05
6.08275e-06
5.99406e-05
-3.62283e-06
3.50916e-05
-1.06599e-05
1.93951e-05
-1.57285e-05
1.00694e-05
-1.94576e-05
4.6549e-06
-2.22802e-05
1.37358e-06
-2.4435e-05
-9.19912e-07
-2.60152e-05
-2.88346e-06
-2.70265e-05
-4.8402e-06
-2.74279e-05
-6.89942e-06
-2.71649e-05
-9.0363e-06
-2.61924e-05
-1.11412e-05
-2.44988e-05
-1.30477e-05
-2.21278e-05
-1.45567e-05
-1.91823e-05
-1.54809e-05
-1.58276e-05
-1.56648e-05
-1.22894e-05
-1.5009e-05
-8.83095e-06
-1.35102e-05
-5.71735e-06
-1.12807e-05
-3.1739e-06
-8.54413e-06
-1.35332e-06
-5.60914e-06
-3.0714e-07
-2.83507e-06
-6.54572e-07
4.21033e-05
0.000152079
2.70978e-05
0.000110325
1.32972e-05
7.37412e-05
2.18741e-06
4.62013e-05
-6.16656e-06
2.7749e-05
-1.2384e-05
1.62868e-05
-1.71106e-05
9.38155e-06
-2.08375e-05
5.1004e-06
-2.38547e-05
2.09725e-06
-2.62838e-05
-4.54332e-07
-2.81316e-05
-2.99248e-06
-2.93394e-05
-5.69156e-06
-2.9819e-05
-8.55677e-06
-2.9478e-05
-1.14821e-05
-2.82435e-05
-1.42822e-05
-2.61166e-05
-1.66836e-05
-2.31713e-05
-1.84262e-05
-1.95544e-05
-1.92818e-05
-1.55152e-05
-1.90482e-05
-1.13814e-05
-1.7644e-05
-7.51515e-06
-1.51467e-05
-4.25319e-06
-1.18057e-05
-1.84556e-06
-8.016e-06
-4.13282e-07
-4.26672e-06
-1.0678e-06
5.16401e-05
0.000164835
3.65313e-05
0.000125434
2.17682e-05
8.85043e-05
9.2182e-06
5.87514e-05
-5.76707e-07
3.75439e-05
-8.0223e-06
2.37324e-05
-1.37803e-05
1.51396e-05
-1.8404e-05
9.72402e-06
-2.22572e-05
5.95052e-06
-2.55155e-05
2.80394e-06
-2.82098e-05
-2.98223e-07
-3.02783e-05
-3.62306e-06
-3.16124e-05
-7.2227e-06
-3.20856e-05
-1.1009e-05
-3.15396e-05
-1.48282e-05
-2.99007e-05
-1.83224e-05
-2.72072e-05
-2.11197e-05
-2.35385e-05
-2.29505e-05
-1.91338e-05
-2.34529e-05
-1.4363e-05
-2.24146e-05
-9.69028e-06
-1.98192e-05
-5.59589e-06
-1.58996e-05
-2.48235e-06
-1.11288e-05
-5.98696e-07
-6.14977e-06
-1.66645e-06
6.20662e-05
0.000176555
4.71858e-05
0.000140314
3.16991e-05
0.000103991
1.77664e-05
7.26841e-05
6.41911e-06
4.88912e-05
-2.38235e-06
3.25338e-05
-9.23246e-06
2.19897e-05
-1.47526e-05
1.52441e-05
-1.93959e-05
1.05939e-05
-2.34197e-05
6.82768e-06
-2.69092e-05
3.19122e-06
-2.98227e-05
-7.09514e-07
-3.20382e-05
-5.00727e-06
-3.33958e-05
-9.65141e-06
-3.37497e-05
-1.44743e-05
-3.29227e-05
-1.91494e-05
-3.07994e-05
-2.32429e-05
-2.74011e-05
-2.63488e-05
-2.28992e-05
-2.79546e-05
-1.76561e-05
-2.76575e-05
-1.22174e-05
-2.52575e-05
-7.22389e-06
-2.08927e-05
-3.27899e-06
-1.50731e-05
-8.13747e-07
-8.61447e-06
-2.48016e-06
7.3316e-05
0.000186859
5.90792e-05
0.000154551
4.32309e-05
0.000119839
2.8093e-05
8.78221e-05
1.51566e-05
6.18276e-05
4.8377e-06
4.28527e-05
-3.22599e-06
3.00534e-05
-9.67694e-06
2.16951e-05
-1.50727e-05
1.59896e-05
-1.97767e-05
1.15317e-05
-2.39622e-05
7.37667e-06
-2.76463e-05
2.97463e-06
-3.07296e-05
-1.92404e-06
-3.30361e-05
-7.34487e-06
-3.43664e-05
-1.3144e-05
-3.4519e-05
-1.89968e-05
-3.33035e-05
-2.44584e-05
-3.05977e-05
-2.90545e-05
-2.63957e-05
-3.21565e-05
-2.09958e-05
-3.30573e-05
-1.49702e-05
-3.12828e-05
-9.10425e-06
-2.67584e-05
-4.24462e-06
-1.99322e-05
-1.0855e-06
-1.17732e-05
-3.56564e-06
8.5139e-05
0.000195267
7.20829e-05
0.000167607
5.63864e-05
0.000135536
4.0384e-05
0.000103824
2.59426e-05
7.62691e-05
1.39811e-05
5.48141e-05
4.51212e-06
3.95223e-05
-2.98444e-06
2.91916e-05
-9.14099e-06
2.21461e-05
-1.44507e-05
1.68414e-05
-1.92044e-05
1.21303e-05
-2.3517e-05
7.28719e-06
-2.73618e-05
1.92086e-06
-3.06016e-05
-4.10515e-06
-3.30205e-05
-1.07251e-05
-3.43421e-05
-1.76752e-05
-3.42304e-05
-2.457e-05
-3.25098e-05
-3.07751e-05
-2.90641e-05
-3.56021e-05
-2.39634e-05
-3.81578e-05
-1.76999e-05
-3.75461e-05
-1.11313e-05
-3.33267e-05
-5.35557e-06
-2.57077e-05
-1.41591e-06
-1.57126e-05
-4.98153e-06
9.72047e-05
0.000201359
8.59209e-05
0.000178891
7.10207e-05
0.000150436
5.46851e-05
0.00012016
3.90081e-05
9.1946e-05
2.53873e-05
6.84349e-05
1.43111e-05
5.05986e-05
5.54605e-06
3.79566e-05
-1.49192e-06
2.91841e-05
-7.40315e-06
2.27526e-05
-1.26243e-05
1.73515e-05
-1.73944e-05
1.20572e-05
-2.17901e-05
6.31656e-06
-2.57549e-05
-1.40298e-07
-2.91237e-05
-7.35628e-06
-3.16174e-05
-1.51814e-05
-3.28829e-05
-2.33045e-05
-3.25305e-05
-3.11275e-05
-3.02746e-05
-3.78579e-05
-2.60235e-05
-4.24088e-05
-2.00379e-05
-4.35315e-05
-1.31155e-05
-4.02489e-05
-6.54967e-06
-3.22732e-05
-1.79878e-06
-2.04633e-05
-6.7803e-06
0.000108988
0.000204571
0.000100142
0.000187736
8.6795e-05
0.000163783
7.08482e-05
0.000136107
5.44398e-05
0.000108354
3.93354e-05
8.35393e-05
2.65337e-05
6.34003e-05
1.6225e-05
4.82653e-05
8.03563e-06
3.73734e-05
1.36832e-06
2.94199e-05
-4.34007e-06
2.30599e-05
-9.48325e-06
1.72003e-05
-1.42713e-05
1.11046e-05
-1.87556e-05
4.34396e-06
-2.28538e-05
-3.25804e-06
-2.63499e-05
-1.16853e-05
-2.89261e-05
-2.07281e-05
-3.01254e-05
-2.99282e-05
-2.94809e-05
-3.85023e-05
-2.66347e-05
-4.5255e-05
-2.15502e-05
-4.86159e-05
-1.47975e-05
-4.70015e-05
-7.72568e-06
-3.93449e-05
-2.22371e-06
-2.59651e-05
-9.004e-06
0.000119846
0.00020451
0.000114081
0.000193502
0.000103116
0.000174747
8.84534e-05
0.00015077
7.20798e-05
0.000124728
5.59494e-05
9.96697e-05
4.15066e-05
7.78431e-05
2.94448e-05
6.03271e-05
1.976e-05
4.70582e-05
1.20082e-05
3.71717e-05
5.60287e-06
2.94652e-05
2.09443e-08
2.27823e-05
-5.10292e-06
1.62285e-05
-9.96275e-06
9.20378e-06
-1.45961e-05
1.37531e-06
-1.88944e-05
-7.38698e-06
-2.2603e-05
-1.70195e-05
-2.53042e-05
-2.72269e-05
-2.64319e-05
-3.73746e-05
-2.53819e-05
-4.63049e-05
-2.18085e-05
-5.21892e-05
-1.58766e-05
-5.29334e-05
-8.74041e-06
-4.64809e-05
-2.65357e-06
-3.20519e-05
-1.16576e-05
0.000129215
0.000201009
0.000127075
0.000195642
0.000119232
0.000182591
0.000106805
0.000163196
9.14457e-05
0.000140088
7.50679e-05
0.000116048
5.93943e-05
9.35166e-05
4.55908e-05
7.41306e-05
3.41294e-05
5.85197e-05
2.48898e-05
4.64112e-05
1.7405e-05
3.695e-05
1.11114e-05
2.90758e-05
5.52403e-06
2.18159e-05
3.02199e-07
1.44256e-05
-4.73647e-06
6.41399e-06
-9.6271e-06
-2.49632e-06
-1.42334e-05
-1.24132e-05
-1.82349e-05
-2.32254e-05
-2.10968e-05
-3.45127e-05
-2.20808e-05
-4.53208e-05
-2.04595e-05
-5.38105e-05
-1.60443e-05
-5.73484e-05
-9.44701e-06
-5.30782e-05
-3.05823e-06
-3.84406e-05
-1.47158e-05
0.000136369
0.00019376
0.000138135
0.000193876
0.000134149
0.000186577
0.000124929
0.000172416
0.000111698
0.000153319
9.6137e-05
0.000131608
8.00282e-05
0.000109625
6.48677e-05
8.92911e-05
5.1601e-05
7.17864e-05
4.05524e-05
5.74599e-05
3.15439e-05
4.59585e-05
2.41163e-05
3.65034e-05
1.77437e-05
2.81885e-05
1.19719e-05
2.01974e-05
6.48209e-06
1.19038e-05
1.10428e-06
2.8815e-06
-4.19112e-06
-7.11774e-06
-9.23554e-06
-1.81809e-05
-1.36247e-05
-3.01235e-05
-1.66466e-05
-4.22989e-05
-1.72832e-05
-5.31738e-05
-1.49969e-05
-5.96347e-05
-9.73515e-06
-5.83399e-05
-3.42101e-06
-4.47546e-05
-1.81368e-05
0.00014053
0.00018263
0.000146392
0.000188014
0.000146766
0.000186203
0.0001416
0.000177582
0.000131623
0.000163296
0.000118134
0.000145097
0.000102743
0.000125016
8.70636e-05
0.000104971
7.23948e-05
8.64551e-05
5.95184e-05
7.03362e-05
4.86697e-05
5.68072e-05
3.96573e-05
4.55157e-05
3.20553e-05
3.57905e-05
2.53811e-05
2.68716e-05
1.92139e-05
1.8071e-05
1.3251e-05
8.8444e-06
7.32397e-06
-1.19072e-06
1.41995e-06
-1.22769e-05
-4.25023e-06
-2.44533e-05
-9.17445e-06
-3.73746e-05
-1.2397e-05
-4.99512e-05
-1.26224e-05
-5.94092e-05
-9.29373e-06
-6.16685e-05
-3.63365e-06
-5.04147e-05
-2.17704e-05
0.000140974
0.00016784
0.000151122
0.000177866
0.000156032
0.000181293
0.000155532
0.000178082
0.000149775
0.000169053
0.000139599
0.000155274
0.000126286
0.000138329
0.000111334
0.000119922
9.61838e-05
0.000101606
8.19588e-05
8.45612e-05
6.93219e-05
6.94442e-05
5.84659e-05
5.63717e-05
4.92204e-05
4.5036e-05
4.12092e-05
3.48828e-05
3.3998e-05
2.52823e-05
2.71946e-05
1.56478e-05
2.05098e-05
5.49411e-06
1.37665e-05
-5.53359e-06
6.97004e-06
-1.76568e-05
3.95781e-07
-3.08003e-05
-5.24689e-06
-4.43085e-05
-8.41783e-06
-5.62382e-05
-7.87217e-06
-6.22141e-05
-3.76024e-06
-5.45265e-05
-2.55307e-05
0.000137353
0.000149913
0.000151573
0.000163646
0.000161221
0.000171645
0.000165586
0.000173718
0.000164663
0.000169975
0.000158847
0.00016109
0.000148939
0.000148237
0.000136159
0.000132703
0.000121869
0.000115896
0.000107328
9.91014e-05
9.35097e-05
8.32628e-05
8.09922e-05
6.88892e-05
6.99597e-05
5.60685e-05
6.02819e-05
4.45605e-05
5.16389e-05
3.39252e-05
4.36417e-05
2.3645e-05
3.59198e-05
1.3216e-05
2.81795e-05
2.20674e-06
2.0235e-05
-9.7123e-06
1.21338e-05
-2.26991e-05
4.30604e-06
-3.64806e-05
-2.17379e-06
-4.97583e-05
-5.44756e-06
-5.89402e-05
-3.5851e-06
-5.63889e-05
-2.91158e-05
0.000129615
0.000129729
0.000147237
0.000146024
0.000161127
0.000157755
0.000170577
0.000164268
0.000174987
0.000165565
0.000174154
0.000161923
0.000168709
0.000153682
0.000159507
0.000141905
0.000147608
0.000127795
0.000134197
0.000112512
0.000120364
9.7096e-05
0.000106954
8.22995e-05
9.44922e-05
6.85301e-05
8.31701e-05
5.58826e-05
7.28999e-05
4.41955e-05
6.34106e-05
3.31343e-05
5.43407e-05
2.22859e-05
4.53167e-05
1.12307e-05
3.60033e-05
-3.98856e-07
2.61794e-05
-1.28751e-05
1.59309e-05
-2.62322e-05
6.05001e-06
-3.98773e-05
-1.43602e-06
-5.14541e-05
-3.42963e-06
-5.43952e-05
-3.25454e-05
0.000118184
0.000108435
0.000138205
0.000126003
0.000155607
0.000140352
0.000169324
0.000150552
0.000178713
0.000156175
0.000183496
0.00015714
0.000183439
0.000153739
0.000179003
0.00014634
0.000170952
0.000135846
0.000160271
0.000123194
0.00014797
0.000109397
0.000134984
9.52858e-05
0.000122061
8.14524e-05
0.000109679
6.82652e-05
9.80289e-05
5.58453e-05
8.70578e-05
4.41053e-05
7.65229e-05
3.28208e-05
6.60555e-05
2.16981e-05
5.52197e-05
1.0437e-05
4.35575e-05
-1.21283e-06
3.07077e-05
-1.33822e-05
1.67489e-05
-2.59185e-05
3.18044e-06
-3.78855e-05
-5.44321e-06
-4.57715e-05
-3.79886e-05
0.000102009
8.76935e-05
0.000122746
0.000105266
0.000142184
0.000120914
0.000159144
0.000133592
0.000172732
0.000142587
0.00018232
0.000147552
0.000187675
0.000148384
0.0001886
0.000145416
0.000185477
0.000138969
0.000179029
0.000129641
0.00016995
0.000118476
0.000159133
0.000106102
0.000147394
9.3192e-05
0.000135346
8.03131e-05
0.0001234
6.77916e-05
0.000111736
5.57692e-05
0.000100313
4.42434e-05
8.89013e-05
3.31099e-05
7.71082e-05
2.22302e-05
6.43961e-05
1.14993e-05
5.01174e-05
8.96534e-07
3.35814e-05
-9.38244e-06
1.44088e-05
-1.87127e-05
-6.02561e-06
-2.5337e-05
-2.28008e-05
-2.12133e-05
8.68531e-05
6.8181e-05
0.000107425
8.46938e-05
0.000127922
0.000100418
0.00014717
0.000114345
0.000164131
0.000125626
0.000177995
0.000133688
0.0001882
0.000138179
0.000194674
0.000138942
0.00019702
0.000136622
0.000195211
0.000131451