/*--------------------------------*- C++ -*----------------------------------*\
| =========                 |                                                 |
| \\      /  F ield         | OpenFOAM: The Open Source CFD Toolbox           |
|  \\    /   O peration     | Version:  v2012                                 |
|   \\  /    A nd           | Website:  www.openfoam.com                      |
|    \\/     M anipulation  |                                                 |
\*---------------------------------------------------------------------------*/
FoamFile
{
    version     2.0;
    format      ascii;
    class       volVectorField;
    location    "2000";
    object      U;
}
// * * * * * * * * * * * * * * * * * * * * * * * * * * * * * * * * * * * * * //

dimensions      [0 1 -1 0 0 0 0];


internalField   nonuniform List<vector> 
6502
(
(0.0366361 -0.9041 0)
(0.0590891 -1.01001 0)
(0.0343771 -1.00807 0)
(0.0155769 -1.00444 0)
(0.00471913 -1.00351 0)
(-0.00454448 -1.00351 0)
(-0.0154151 -1.00445 0)
(-0.0342396 -1.00808 0)
(-0.0590054 -1.01003 0)
(-0.0365723 -0.904136 0)
(0.0825841 -0.823494 0)
(0.114306 -1.06141 0)
(0.070982 -1.04468 0)
(0.0369853 -1.02797 0)
(0.0121088 -1.02265 0)
(-0.0115593 -1.02267 0)
(-0.0364605 -1.02801 0)
(-0.0705112 -1.04475 0)
(-0.113895 -1.06144 0)
(-0.0824478 -0.823744 0)
(0.0789506 -0.70872 0)
(0.109008 -1.07992 0)
(0.0818903 -1.09008 0)
(0.0458111 -1.06932 0)
(0.0153949 -1.05929 0)
(-0.014411 -1.05933 0)
(-0.0448573 -1.06941 0)
(-0.0810137 -1.09024 0)
(-0.108395 -1.08037 0)
(-0.0787802 -0.709387 0)
(0.0547097 -0.59078 0)
(0.10015 -1.06832 0)
(0.0819484 -1.12738 0)
(0.0477424 -1.11304 0)
(0.0162117 -1.10103 0)
(-0.0147233 -1.1011 0)
(-0.0463267 -1.11326 0)
(-0.0807415 -1.12792 0)
(-0.0992113 -1.0693 0)
(-0.0545707 -0.592069 0)
(0.0277731 -0.504948 0)
(0.0866277 -1.04229 0)
(0.0739759 -1.15578 0)
(0.0457906 -1.15218 0)
(0.015942 -1.14083 0)
(-0.0137628 -1.14096 0)
(-0.0437337 -1.15259 0)
(-0.0722206 -1.15612 0)
(-0.0853835 -1.04408 0)
(-0.0276154 -0.507031 0)
(0.0103908 -0.449508 0)
(0.0692129 -1.01017 0)
(0.0631387 -1.17605 0)
(0.0421245 -1.18505 0)
(0.0152778 -1.17693 0)
(-0.0121683 -1.17713 0)
(-0.0391329 -1.18577 0)
(-0.0605401 -1.1778 0)
(-0.0678135 -1.01319 0)
(-0.010061 -0.45256 0)
(0.00314006 -0.411922 0)
(0.0508119 -0.976595 0)
(0.0540985 -1.18341 0)
(0.0383379 -1.21274 0)
(0.014558 -1.20932 0)
(-0.010272 -1.20959 0)
(-0.0342326 -1.21376 0)
(-0.0506289 -1.18598 0)
(-0.0490148 -0.98134 0)
(-0.00263728 -0.416156 0)
(0.000714806 -0.386364 0)
(0.0359553 -0.945376 0)
(0.0464299 -1.18568 0)
(0.0341911 -1.23517 0)
(0.0138037 -1.2379 0)
(-0.00815481 -1.23839 0)
(-0.0289975 -1.23717 0)
(-0.041738 -1.18974 0)
(-0.0334896 -0.95245 0)
(-9.54995e-05 -0.392189 0)
(0.000156703 -0.368691 0)
(0.0258928 -0.918132 0)
(0.0403159 -1.18372 0)
(0.0302057 -1.25443 0)
(0.0133972 -1.26254 0)
(-0.00571786 -1.26324 0)
(-0.0230773 -1.25582 0)
(-0.0341963 -1.18974 0)
(-0.0226142 -0.928282 0)
(0.00063196 -0.37668 0)
(0.000185973 -0.355657 0)
(0.0194303 -0.89464 0)
(0.0350022 -1.17908 0)
(0.0276239 -1.26875 0)
(0.0137346 -1.28354 0)
(-0.00304223 -1.28461 0)
(-0.0175661 -1.27327 0)
(-0.02745 -1.18787 0)
(-0.0150659 -0.908742 0)
(0.00079466 -0.366409 0)
(0.000419159 -0.345314 0)
(0.0155995 -0.874383 0)
(0.0304432 -1.17285 0)
(0.0264951 -1.27869 0)
(0.0146014 -1.30172 0)
(-0.00044705 -1.30328 0)
(-0.0131962 -1.28479 0)
(-0.0205301 -1.18555 0)
(-0.00970457 -0.89362 0)
(0.000832762 -0.359644 0)
(0.000750717 -0.336421 0)
(0.0136976 -0.856538 0)
(0.0274134 -1.16561 0)
(0.0263534 -1.28659 0)
(0.0160285 -1.31773 0)
(0.00264703 -1.32003 0)
(-0.00880476 -1.29517 0)
(-0.014131 -1.18364 0)
(-0.00584602 -0.882597 0)
(0.000858911 -0.355497 0)
(0.0010834 -0.32813 0)
(0.0129671 -0.840217 0)
(0.0258994 -1.15737 0)
(0.027181 -1.29236 0)
(0.0182344 -1.33155 0)
(0.0064347 -1.33495 0)
(-0.00408953 -1.3045 0)
(-0.00846159 -1.18254 0)
(-0.00276043 -0.875205 0)
(0.000951021 -0.35345 0)
(0.00141583 -0.319795 0)
(0.0131045 -0.824421 0)
(0.0260025 -1.14796 0)
(0.0291371 -1.29593 0)
(0.021227 -1.34389 0)
(0.0110142 -1.34819 0)
(0.00123542 -1.31299 0)
(-0.00296494 -1.18263 0)
(0.000190261 -0.871156 0)
(0.00121678 -0.353287 0)
(0.00173349 -0.310997 0)
(0.0138844 -0.80841 0)
(0.0270008 -1.13742 0)
(0.0319408 -1.29768 0)
(0.025413 -1.35474 0)
(0.0167635 -1.36002 0)
(0.0076201 -1.32117 0)
(0.00298497 -1.18437 0)
(0.00348414 -0.870481 0)
(0.00173667 -0.355128 0)
(0.00206367 -0.301427 0)
(0.0152026 -0.791512 0)
(0.029161 -1.12543 0)
(0.0358381 -1.29746 0)
(0.0315186 -1.36282 0)
(0.0242103 -1.37063 0)
(0.0155955 -1.32945 0)
(0.0100265 -1.18824 0)
(0.0075782 -0.873556 0)
(0.00255495 -0.359471 0)
(0.00242418 -0.29078 0)
(0.0170502 -0.773011 0)
(0.0325942 -1.11136 0)
(0.0413231 -1.29481 0)
(0.0397047 -1.36851 0)
(0.0336911 -1.38016 0)
(0.0257401 -1.33806 0)
(0.0189123 -1.19477 0)
(0.0130848 -0.881127 0)
(0.00387147 -0.367268 0)
(0.00280417 -0.27874 0)
(0.0193891 -0.752128 0)
(0.0372967 -1.09439 0)
(0.0487051 -1.28901 0)
(0.0501421 -1.37188 0)
(0.0458355 -1.38796 0)
(0.0387478 -1.34682 0)
(0.0307641 -1.20426 0)
(0.0211227 -0.894152 0)
(0.00603017 -0.379764 0)
(0.00316416 -0.265044 0)
(0.0220881 -0.728099 0)
(0.0430672 -1.07365 0)
(0.0578815 -1.27924 0)
(0.062874 -1.37218 0)
(0.0609809 -1.39462 0)
(0.0556832 -1.35535 0)
(0.0472039 -1.21659 0)
(0.0331699 -0.91437 0)
(0.010332 -0.401497 0)
(0.00345267 -0.249559 0)
(0.0249241 -0.70031 0)
(0.0495452 -1.0483 0)
(0.0685024 -1.26469 0)
(0.0776319 -1.36846 0)
(0.0790358 -1.39647 0)
(0.077464 -1.36195 0)
(0.0713728 -1.22991 0)
(0.0563723 -0.938926 0)
(0.0343708 -0.421829 0)
(0.00363134 -0.232254 0)
(0.0276564 -0.668221 0)
(0.0563065 -1.01746 0)
(0.0800817 -1.24438 0)
(0.0941824 -1.35956 0)
(0.099615 -1.3944 0)
(0.102702 -1.36362 0)
(0.102318 -1.23896 0)
(0.0942389 -0.961845 0)
(0.0853293 -0.511181 0)
(0.00337991 -0.2134 0)
(0.0299558 -0.631744 0)
(0.0626556 -0.980596 0)
(0.0915338 -1.21755 0)
(0.110734 -1.34463 0)
(0.120254 -1.38728 0)
(0.126371 -1.35966 0)
(0.128012 -1.24185 0)
(0.119893 -0.977099 0)
(0.0933756 -0.567957 0)
(0.00271961 -0.193604 0)
(0.0315136 -0.591346 0)
(0.0679159 -0.937863 0)
(0.101781 -1.18421 0)
(0.125788 -1.3235 0)
(0.139126 -1.3754 0)
(0.147177 -1.35288 0)
(0.148556 -1.24474 0)
(0.138219 -0.998899 0)
(0.104815 -0.630315 0)
(0.00224686 -0.17344 0)
(0.032271 -0.54773 0)
(0.071898 -0.889696 0)
(0.110574 -1.14466 0)
(0.139426 -1.29698 0)
(0.156635 -1.36006 0)
(0.166757 -1.3453 0)
(0.168347 -1.25079 0)
(0.156545 -1.02892 0)
(0.121 -0.698997 0)
(0.00205628 -0.153337 0)
(0.0323554 -0.501778 0)
(0.0746925 -0.83663 0)
(0.118008 -1.09901 0)
(0.151944 -1.265 0)
(0.173489 -1.34113 0)
(0.185587 -1.33657 0)
(0.188401 -1.25772 0)
(0.176167 -1.061 0)
(0.140068 -0.7648 0)
(0.00193465 -0.133581 0)
(0.031906 -0.454303 0)
(0.0763692 -0.779184 0)
(0.12407 -1.04722 0)
(0.163263 -1.22702 0)
(0.189625 -1.31753 0)
(0.204031 -1.3271 0)
(0.208493 -1.26261 0)
(0.197106 -1.09172 0)
(0.161958 -0.826405 0)
(0.00182396 -0.114413 0)
(0.0310078 -0.406036 0)
(0.076945 -0.717939 0)
(0.128701 -0.989281 0)
(0.173269 -1.1824 0)
(0.205115 -1.28849 0)
(0.222804 -1.31469 0)
(0.229533 -1.26517 0)
(0.219895 -1.12013 0)
(0.186816 -0.88474 0)
(0.00170742 -0.0960607 0)
(0.029703 -0.357694 0)
(0.0763933 -0.653602 0)
(0.131673 -0.925352 0)
(0.181713 -1.13065 0)
(0.219534 -1.25478 0)
(0.241668 -1.29745 0)
(0.252136 -1.26464 0)
(0.244967 -1.14624 0)
(0.214562 -0.939784 0)
(0.00157687 -0.0787431 0)
(0.0280114 -0.310029 0)
(0.0746688 -0.587076 0)
(0.132717 -0.855914 0)
(0.188028 -1.07157 0)
(0.232178 -1.21271 0)
(0.260269 -1.27447 0)
(0.274879 -1.25876 0)
(0.271654 -1.16883 0)
(0.24501 -0.990985 0)
(0.00143576 -0.0626569 0)
(0.0259903 -0.263787 0)
(0.07183 -0.519412 0)
(0.131787 -0.781701 0)
(0.19203 -1.00513 0)
(0.242839 -1.16262 0)
(0.278095 -1.24436 0)
(0.297025 -1.24885 0)
(0.298762 -1.18438 0)
(0.277526 -1.03667 0)
(0.00129032 -0.0479565 0)
(0.0237097 -0.219656 0)
(0.0679617 -0.451728 0)
(0.128814 -0.703618 0)
(0.193359 -0.931411 0)
(0.250801 -1.10376 0)
(0.293973 -1.20572 0)
(0.3189 -1.23445 0)
(0.326779 -1.19279 0)
(0.311925 -1.07507 0)
(0.00114175 -0.034767 0)
(0.0212216 -0.178257 0)
(0.0631385 -0.385218 0)
(0.123704 -0.622881 0)
(0.191546 -0.850943 0)
(0.255269 -1.03568 0)
(0.306548 -1.15744 0)
(0.33954 -1.20969 0)
(0.354623 -1.19119 0)
(0.34736 -1.10626 0)
(0.000999949 -0.0231774 0)
(0.018577 -0.140151 0)
(0.0574962 -0.321136 0)
(0.11651 -0.541059 0)
(0.18631 -0.76486 0)
(0.255641 -0.958531 0)
(0.315058 -1.09864 0)
(0.357496 -1.17429 0)
(0.380463 -1.18126 0)
(0.382091 -1.1257 0)
(0.00117468 -0.0131595 0)
(0.0158664 -0.105758 0)
(0.0512619 -0.260701 0)
(0.107472 -0.459941 0)
(0.177604 -0.674765 0)
(0.251371 -0.87296 0)
(0.318531 -1.02868 0)
(0.371003 -1.12684 0)
(0.403521 -1.16144 0)
(0.415284 -1.13351 0)
(0.00187073 -0.00462174 0)
(0.0131982 -0.0754257 0)
(0.0446951 -0.20503 0)
(0.0969375 -0.381425 0)
(0.165595 -0.582705 0)
(0.242072 -0.780302 0)
(0.315977 -0.947663 0)
(0.378318 -1.06634 0)
(0.422048 -1.12704 0)
(0.444879 -1.12486 0)
(0.00188177 0.0024809 0)
(0.0105863 -0.0493739 0)
(0.0380096 -0.155003 0)
(0.0853287 -0.307361 0)
(0.150718 -0.491106 0)
(0.227774 -0.682666 0)
(0.306812 -0.856632 0)
(0.378214 -0.992464 0)
(0.434003 -1.07742 0)
(0.468761 -1.10577 0)
(0.000782781 0.00798495 0)
(0.00811751 -0.0274614 0)
(0.0314128 -0.111073 0)
(0.0731584 -0.239334 0)
(0.133684 -0.40255 0)
(0.208965 -0.582811 0)
(0.290842 -0.757582 0)
(0.369674 -0.905808 0)
(0.436776 -1.01205 0)
(0.485 -1.06778 0)
(0.000226318 0.0117625 0)
(0.00555034 -0.00953865 0)
(0.0251852 -0.0733452 0)
(0.0610396 -0.178504 0)
(0.115414 -0.319489 0)
(0.186584 -0.483926 0)
(0.268512 -0.653465 0)
(0.352393 -0.808236 0)
(0.429205 -0.931381 0)
(0.490878 -1.01158 0)
(0.000529772 0.0145523 0)
(0.00447163 0.00497393 0)
(0.019957 -0.0417674 0)
(0.0496827 -0.125695 0)
(0.0969635 -0.244053 0)
(0.161951 -0.389321 0)
(0.240962 -0.547967 0)
(0.326824 -0.702817 0)
(0.410848 -0.837076 0)
(0.484458 -0.937494 0)
(-0.000146642 0.0166496 0)
(0.00352497 0.0161257 0)
(0.0149815 -0.0166084 0)
(0.0391704 -0.081445 0)
(0.0791087 -0.177841 0)
(0.136473 -0.302028 0)
(0.209848 -0.445107 0)
(0.294223 -0.593606 0)
(0.382074 -0.732254 0)
(0.464907 -0.847146 0)
(-0.00134924 0.0177759 0)
(0.00175885 0.0242633 0)
(0.0104653 0.00327047 0)
(0.0296661 -0.0451566 0)
(0.0625041 -0.12145 0)
(0.11152 -0.224302 0)
(0.17714 -0.34871 0)
(0.256653 -0.485258 0)
(0.344386 -0.6214 0)
(0.432734 -0.743956 0)
(-0.000977017 0.0180482 0)
(0.000955678 0.0300205 0)
(0.0070542 0.0185942 0)
(0.0216875 -0.0161444 0)
(0.0478232 -0.0748211 0)
(0.0883354 -0.157467 0)
(0.144862 -0.261895 0)
(0.216707 -0.3824 0)
(0.300347 -0.509794 0)
(0.389793 -0.632842 0)
(-0.000394583 0.0181586 0)
(0.000689411 0.0337629 0)
(0.00449681 0.0296045 0)
(0.0152011 0.00605646 0)
(0.0353637 -0.0375791 0)
(0.0677907 -0.102006 0)
(0.114759 -0.186759 0)
(0.177055 -0.288994 0)
(0.253196 -0.402822 0)
(0.339207 -0.519709 0)
(-0.000378346 0.017971 0)
(-0.000526903 0.0358774 0)
(0.00228863 0.0371969 0)
(0.00997321 0.022466 0)
(0.0252309 -0.00895165 0)
(0.0505531 -0.0578901 0)
(0.0883908 -0.124742 0)
(0.140427 -0.208537 0)
(0.206791 -0.306084 0)
(0.285522 -0.411686 0)
(-0.000319449 0.0172363 0)
(-0.00134308 0.0369169 0)
(0.000817581 0.0425239 0)
(0.0061751 0.0345345 0)
(0.0174818 0.0126879 0)
(0.0368039 -0.0236522 0)
(0.0664502 -0.0751623 0)
(0.10847 -0.14188 0)
(0.164028 -0.22248 0)
(0.232811 -0.313699 0)
(-0.000185385 0.0164944 0)
(-0.00086622 0.0372623 0)
(0.000365019 0.0459797 0)
(0.00380892 0.0431348 0)
(0.0119395 0.0287645 0)
(0.0263074 0.00247937 0)
(0.0488938 -0.0363089 0)
(0.0817423 -0.0880525 0)
(0.126508 -0.1525 0)
(0.183981 -0.228147 0)
(-0.000157893 0.0159729 0)
(-0.000746041 0.0372682 0)
(-0.000222956 0.0481077 0)
(0.00228497 0.0491208 0)
(0.00800557 0.0404391 0)
(0.0185165 0.0219438 0)
(0.0353633 -0.00672494 0)
(0.0603549 -0.0460367 0)
(0.0952409 -0.0962207 0)
(0.14137 -0.156827 0)
(-0.000126889 0.0155018 0)
(-0.000641835 0.037065 0)
(-0.000698174 0.0495847 0)
(0.00113831 0.0533528 0)
(0.00506595 0.048858 0)
(0.0126119 0.0362319 0)
(0.0249725 0.0153357 0)
(0.0436001 -0.0141183 0)
(0.0700831 -0.0524743 0)
(0.10589 -0.0997766 0)
(-6.74594e-05 0.015117 0)
(-0.000493773 0.0367433 0)
(-0.000740934 0.0502877 0)
(0.00018271 0.056047 0)
(0.00249065 0.0546589 0)
(0.00762141 0.0464722 0)
(0.0164517 0.0315107 0)
(0.0301062 0.00965434 0)
(0.0498384 -0.0193238 0)
(0.0769714 -0.0556238 0)
(-5.63919e-05 0.0147774 0)
(-0.000654876 0.036199 0)
(-0.00136703 0.0501857 0)
(-0.00159414 0.0572932 0)
(-0.000508946 0.0582326 0)
(0.00248849 0.0534513 0)
(0.00847155 0.0430762 0)
(0.0181889 0.027099 0)
(0.0326565 0.00538244 0)
(0.0528881 -0.0222047 0)
(-7.54259e-05 0.0142726 0)
(-0.0010501 0.035075 0)
(-0.00246523 0.049055 0)
(-0.00397134 0.0570445 0)
(-0.00427206 0.059685 0)
(-0.00335575 0.0575749 0)
(0.000120246 0.05085 0)
(0.00649778 0.0395069 0)
(0.0166892 0.0234942 0)
(0.0314713 0.00272248 0)
(-0.000107588 0.0134765 0)
(-0.00159314 0.0331563 0)
(-0.00388897 0.0466721 0)
(-0.00650594 0.0550375 0)
(-0.00870747 0.0589427 0)
(-0.0097328 0.0589106 0)
(-0.00897778 0.0551016 0)
(-0.00570647 0.0475381 0)
(0.000703333 0.0361684 0)
(0.0109041 0.0208888 0)
(-0.000171761 0.012276 0)
(-0.00231514 0.0302527 0)
(-0.00565576 0.042849 0)
(-0.00969874 0.051105 0)
(-0.0136818 0.0557404 0)
(-0.0167213 0.0572452 0)
(-0.0186733 0.0558022 0)
(-0.0184732 0.051411 0)
(-0.0156635 0.0439505 0)
(-0.00965335 0.0332676 0)
(-0.000249019 0.0105813 0)
(-0.00306989 0.0262223 0)
(-0.00744012 0.0374356 0)
(-0.0128689 0.0451814 0)
(-0.0185452 0.0501336 0)
(-0.0238301 0.0526822 0)
(-0.0281792 0.0530298 0)
(-0.0309867 0.0511995 0)
(-0.0317365 0.0470083 0)
(-0.0297866 0.0402285 0)
(-0.000315205 0.00842855 0)
(-0.00365828 0.0211876 0)
(-0.00880833 0.030618 0)
(-0.0153078 0.037454 0)
(-0.0223661 0.042251 0)
(-0.0294379 0.0453612 0)
(-0.0360225 0.0469479 0)
(-0.0415931 0.0470008 0)
(-0.0457297 0.0454186 0)
(-0.047841 0.0418173 0)
(-0.000345351 0.00599053 0)
(-0.00389034 0.0155354 0)
(-0.00935472 0.0229074 0)
(-0.0163612 0.0285028 0)
(-0.0242021 0.0327171 0)
(-0.0324369 0.0358405 0)
(-0.0406681 0.0380149 0)
(-0.0484804 0.0392254 0)
(-0.055429 0.039341 0)
(-0.0611106 0.0381751 0)
(-0.000303397 0.00355682 0)
(-0.00361891 0.00986838 0)
(-0.00877091 0.0150722 0)
(-0.0155233 0.0191896 0)
(-0.0233018 0.0224461 0)
(-0.0317793 0.0250627 0)
(-0.0406737 0.0271692 0)
(-0.0496898 0.0287788 0)
(-0.0584936 0.0297983 0)
(-0.0667021 0.0300541 0)
(-0.000218466 0.00146747 0)
(-0.00278311 0.0049139 0)
(-0.00694202 0.00804781 0)
(-0.0125969 0.0105997 0)
(-0.0193253 0.0126653 0)
(-0.0268958 0.0144 0)
(-0.0351292 0.0159126 0)
(-0.043852 0.0172397 0)
(-0.0528661 0.0183457 0)
(-0.0619211 0.0191445 0)
(-0.000108793 0.000125686 0)
(-0.00143212 0.0014912 0)
(-0.00404596 0.00292462 0)
(-0.00785177 0.00407136 0)
(-0.012559 0.00498036 0)
(-0.0180046 0.00575639 0)
(-0.0240869 0.00646938 0)
(-0.0307305 0.00715253 0)
(-0.0378555 0.00780009 0)
(-0.0453517 0.00837765 0)
(0.000102253 -0.000129267 0)
(-3.86561e-05 5.67407e-05 0)
(-0.000894425 0.000162557 0)
(-0.00231724 0.000210932 0)
(-0.0041484 0.000297495 0)
(-0.00632034 0.000400973 0)
(-0.00880314 0.000482588 0)
(-0.0115802 0.000565198 0)
(-0.0146426 0.000657237 0)
(-0.0179749 0.00075474 0)
(-0.00470359 -0.120563 0)
(-0.0679465 -0.0140632 0)
(-0.0715477 0.00941908 0)
(-0.057458 0.0108599 0)
(-0.0466626 0.00625503 0)
(-0.0379074 0.00342317 0)
(-0.0315254 0.00218207 0)
(-0.0268355 0.0014535 0)
(-0.0231829 0.00100183 0)
(-0.0201988 0.000735892 0)
(-0.0176126 0.000587585 0)
(-0.0152398 0.000510888 0)
(-0.0129702 0.000473833 0)
(-0.0107537 0.000453355 0)
(-0.00858961 0.000431173 0)
(-0.00651683 0.000385175 0)
(-0.00459745 0.000295872 0)
(-0.00289217 0.000226833 0)
(-0.00145503 0.000249905 0)
(-0.000351156 0.000233019 0)
(0.00036653 0.000105186 0)
(0.000680436 -2.2208e-05 0)
(0.000643117 -0.000179068 0)
(0.000380718 -0.000219818 0)
(0.000105835 -0.000134002 0)
(0.0062402 -0.201074 0)
(-0.0626561 -0.0426315 0)
(-0.08394 0.00582328 0)
(-0.0863833 0.0178376 0)
(-0.0813575 0.0196546 0)
(-0.0740197 0.0163093 0)
(-0.0666847 0.0125674 0)
(-0.0599146 0.00991581 0)
(-0.0538943 0.00808965 0)
(-0.0484223 0.00693331 0)
(-0.0432634 0.00626423 0)
(-0.0382454 0.0059165 0)
(-0.0332642 0.00574327 0)
(-0.0282878 0.00562133 0)
(-0.0233522 0.00545226 0)
(-0.018549 0.00516531 0)
(-0.0140085 0.00471784 0)
(-0.00988474 0.00409866 0)
(-0.00633731 0.00331349 0)
(-0.00349832 0.00238414 0)
(-0.0014408 0.00139667 0)
(-0.000183158 0.000483314 0)
(0.000375748 -0.000255336 0)
(0.000343901 -0.000618652 0)
(0.000130464 -0.000460669 0)
(0.0319324 -0.291019 0)
(-0.0326163 -0.102626 0)
(-0.0670256 -0.0197101 0)
(-0.0828502 0.0122579 0)
(-0.0875809 0.0214128 0)
(-0.0867365 0.0226651 0)
(-0.0827964 0.0207631 0)
(-0.0779869 0.0179487 0)
(-0.0725554 0.0158928 0)
(-0.0670114 0.0145561 0)
(-0.0612895 0.0138302 0)
(-0.0553417 0.0135337 0)
(-0.0491413 0.0134538 0)
(-0.0427155 0.0133845 0)
(-0.0361533 0.0131461 0)
(-0.0296026 0.0126001 0)
(-0.0232583 0.0116614 0)
(-0.0173455 0.0103079 0)
(-0.0120943 0.00857423 0)
(-0.00769827 0.00654624 0)
(-0.00428379 0.00437876 0)
(-0.00190253 0.00229205 0)
(-0.000517241 0.000538853 0)
(7.98851e-05 -0.000569762 0)
(9.14978e-05 -0.00067007 0)
(0.0562152 -0.381487 0)
(-0.00634767 -0.171684 0)
(-0.0474695 -0.0598075 0)
(-0.0712348 -0.0071327 0)
(-0.0830671 0.0149981 0)
(-0.0876111 0.0224617 0)
(-0.088421 0.0239668 0)
(-0.0865001 0.0235916 0)
(-0.0832766 0.0223842 0)
(-0.0791555 0.0217032 0)
(-0.0742466 0.0215949 0)
(-0.0686218 0.0218986 0)
(-0.0623106 0.0223692 0)
(-0.0553869 0.022734 0)
(-0.047985 0.0227344 0)
(-0.0403048 0.0221578 0)
(-0.0326057 0.0208644 0)
(-0.0251882 0.0188069 0)
(-0.0183646 0.0160373 0)
(-0.0124188 0.0127092 0)
(-0.00757018 0.00907956 0)
(-0.00394664 0.0054943 0)
(-0.00156421 0.00236144 0)
(-0.000277635 0.000147121 0)
(-6.64951e-06 -0.000656675 0)
(0.0795046 -0.464362 0)
(0.0180736 -0.241323 0)
(-0.0271725 -0.106572 0)
(-0.0562429 -0.0347697 0)
(-0.0736198 0.000292857 0)
(-0.0833107 0.0159255 0)
(-0.088026 0.0223392 0)
(-0.0896821 0.0247876 0)
(-0.0894738 0.0258086 0)
(-0.0875769 0.0266154 0)
(-0.0843777 0.0278607 0)
(-0.0799459 0.0294329 0)
(-0.0743285 0.031075 0)
(-0.0676047 0.0324528 0)
(-0.059922 0.0332184 0)
(-0.0515137 0.0330653 0)
(-0.0426978 0.0317753 0)
(-0.0338604 0.0292542 0)
(-0.025423 0.025556 0)
(-0.0177975 0.0208927 0)
(-0.0113363 0.0156292 0)
(-0.00628558 0.0102588 0)
(-0.00275225 0.0053634 0)
(-0.000709699 0.00158656 0)
(-5.41162e-05 -0.00038665 0)
(0.104642 -0.542527 0)
(0.0439471 -0.312449 0)
(-0.00506275 -0.158627 0)
(-0.0391881 -0.0690507 0)
(-0.0615937 -0.0208429 0)
(-0.0757738 0.00357992 0)
(-0.0845849 0.0155406 0)
(-0.0899349 0.0215695 0)
(-0.0928495 0.0252804 0)
(-0.093771 0.0284146 0)
(-0.0929234 0.0316994 0)
(-0.090371 0.035221 0)
(-0.0861172 0.0387389 0)
(-0.0801948 0.0418498 0)
(-0.0727202 0.0440907 0)
(-0.0639255 0.0450221 0)
(-0.0541683 0.044301 0)
(-0.0439204 0.0417416 0)
(-0.0337347 0.037361 0)
(-0.0241917 0.0314072 0)
(-0.0158279 0.0243539 0)
(-0.00906062 0.016867 0)
(-0.00413726 0.00974668 0)
(-0.00117414 0.00387967 0)
(-0.000143175 0.000183986 0)
(0.132462 -0.618682 0)
(0.0720878 -0.386165 0)
(0.019334 -0.216497 0)
(-0.0199716 -0.109857 0)
(-0.0473672 -0.0482035 0)
(-0.0660751 -0.014481 0)
(-0.0789313 0.00360769 0)
(-0.0879222 0.0138272 0)
(-0.0941788 0.0206721 0)
(-0.0982192 0.0264986 0)
(-0.100204 0.032343 0)
(-0.10011 0.0384381 0)
(-0.0978447 0.0445572 0)
(-0.0933376 0.0502149 0)
(-0.0866151 0.0547988 0)
(-0.0778547 0.0576801 0)
(-0.0674117 0.0583233 0)
(-0.0558185 0.0563751 0)
(-0.0437632 0.0517447 0)
(-0.0320291 0.0446672 0)
(-0.021396 0.0357142 0)
(-0.0125272 0.0257505 0)
(-0.00588637 0.0158456 0)
(-0.00181541 0.00717313 0)
(-0.000279483 0.00112469 0)
(0.163112 -0.693206 0)
(0.10301 -0.462446 0)
(0.0467326 -0.280473 0)
(0.00205973 -0.157308 0)
(-0.0305308 -0.0818926 0)
(-0.0538817 -0.0382095 0)
(-0.0708271 -0.013423 0)
(-0.0835085 0.00134974 0)
(-0.0932276 0.0116083 0)
(-0.100591 0.0203998 0)
(-0.105749 0.0291618 0)
(-0.108596 0.0383232 0)
(-0.108917 0.0476993 0)
(-0.106494 0.056728 0)
(-0.101192 0.0646209 0)
(-0.09306 0.0704955 0)
(-0.0823891 0.0735386 0)
(-0.0697072 0.0731262 0)
(-0.0558008 0.0689396 0)
(-0.0416699 0.061102 0)
(-0.0283979 0.0502367 0)
(-0.016984 0.0374228 0)
(-0.00819871 0.0240671 0)
(-0.00261429 0.0117354 0)
(-0.000160225 0.00245761 0)
(0.196891 -0.765653 0)
(0.137446 -0.540792 0)
(0.0780999 -0.350349 0)
(0.0279867 -0.211968 0)
(-0.0102348 -0.122239 0)
(-0.0384936 -0.067802 0)
(-0.0596578 -0.0356255 0)
(-0.0760601 -0.0158783 0)
(-0.0892464 -0.00200561 0)
(-0.0999896 0.00986418 0)
(-0.108498 0.0216972 0)
(-0.114627 0.0342093 0)
(-0.118059 0.0473209 0)
(-0.118409 0.0604384 0)
(-0.115325 0.0726089 0)
(-0.108613 0.0826247 0)
(-0.098453 0.0893111 0)
(-0.0852484 0.0916678 0)
(-0.0697871 0.088969 0)
(-0.053245 0.0810536 0)
(-0.0370389 0.0684782 0)
(-0.0226023 0.0525158 0)
(-0.0111574 0.0350072 0)
(-0.003633 0.0181558 0)
(-2.87221e-05 0.0043777 0)
(0.233841 -0.835128 0)
(0.175949 -0.620414 0)
(0.114322 -0.425738 0)
(0.0589689 -0.274222 0)
(0.0146599 -0.169764 0)
(-0.018952 -0.103611 0)
(-0.0445607 -0.0631341 0)
(-0.0647207 -0.0378398 0)
(-0.0812863 -0.0201147 0)
(-0.0953002 -0.00513588 0)
(-0.10712 0.00974036 0)
(-0.116644 0.0256393 0)
(-0.123506 0.0426882 0)
(-0.127213 0.0603586 0)
(-0.127198 0.077651 0)
(-0.122849 0.0929048 0)
(-0.114226 0.104559 0)
(-0.101443 0.1112 0)
(-0.0851464 0.111448 0)
(-0.066548 0.104599 0)
(-0.0473621 0.0909137 0)
(-0.029528 0.0717305 0)
(-0.0148931 0.0493513 0)
(-0.00505044 0.0267166 0)
(-0.000199753 0.00694646 0)
(0.273687 -0.899843 0)
(0.218623 -0.699802 0)
(0.155977 -0.505723 0)
(0.0960359 -0.344038 0)
(0.0454542 -0.225268 0)
(0.00586096 -0.146095 0)
(-0.0245704 -0.0961726 0)
(-0.0486016 -0.0644858 0)
(-0.0684309 -0.0425052 0)
(-0.08547 -0.0243699 0)
(-0.100356 -0.00660061 0)
(-0.113123 0.0124904 0)
(-0.123431 0.0333393 0)
(-0.130715 0.0555458 0)
(-0.134101 0.0784152 0)
(-0.133428 0.0998887 0)
(-0.127611 0.117684 0)
(-0.116525 0.130304 0)
(-0.100634 0.13534 0)
(-0.0808691 0.131266 0)
(-0.0591137 0.117652 0)
(-0.0377963 0.0956058 0)
(-0.0195397 0.067792 0)
(-0.00682805 0.038032 0)
(-0.000291158 0.0106158 0)
(0.315948 -0.958595 0)
(0.265356 -0.777091 0)
(0.203369 -0.588753 0)
(0.140011 -0.420855 0)
(0.0833993 -0.289163 0)
(0.0372962 -0.196167 0)
(0.00136668 -0.13515 0)
(-0.0268381 -0.0958684 0)
(-0.049909 -0.0689145 0)
(-0.0696981 -0.047413 0)
(-0.0872521 -0.026904 0)
(-0.1029 -0.00494447 0)
(-0.116431 0.0194229 0)
(-0.127304 0.0460691 0)
(-0.134754 0.0740264 0)
(-0.137699 0.101776 0)
(-0.1359 0.126969 0)
(-0.128117 0.147017 0)
(-0.114315 0.15887 0)
(-0.0948489 0.159815 0)
(-0.0715444 0.148178 0)
(-0.0471412 0.124308 0)
(-0.0250946 0.0909022 0)
(-0.00906411 0.0527122 0)
(-0.000409665 0.0155533 0)
(0.359421 -1.00834 0)
(0.315403 -0.849682 0)
(0.256259 -0.672557 0)
(0.191304 -0.503377 0)
(0.12954 -0.361411 0)
(0.0767438 -0.254662 0)
(0.034529 -0.180963 0)
(0.00146388 -0.132297 0)
(-0.0250783 -0.0992156 0)
(-0.0474649 -0.0737926 0)
(-0.0672474 -0.0505566 0)
(-0.0851976 -0.0261638 0)
(-0.10144 0.00104005 0)
(-0.115634 0.0314515 0)
(-0.127111 0.0644755 0)
(-0.13468 0.0983239 0)
(-0.137575 0.130711 0)
(-0.133766 0.159012 0)
(-0.12374 0.179704 0)
(-0.106497 0.188195 0)
(-0.0833297 0.181135 0)
(-0.0569049 0.15739 0)
(-0.0313609 0.118979 0)
(-0.0117605 0.0713313 0)
(-0.000567312 0.0220835 0)
(0.402919 -1.04715 0)
(0.367506 -0.914517 0)
(0.313736 -0.754 0)
(0.249686 -0.589312 0)
(0.184465 -0.441166 0)
(0.125436 -0.322048 0)
(0.0763601 -0.234773 0)
(0.0374391 -0.174704 0)
(0.00668014 -0.133636 0)
(-0.0185123 -0.103224 0)
(-0.0402934 -0.0768539 0)
(-0.0599749 -0.0502354 0)
(-0.0781434 -0.020908 0)
(-0.0948141 0.0121581 0)
(-0.109541 0.0488445 0)
(-0.121412 0.088112 0)
(-0.129156 0.128138 0)
(-0.131472 0.165119 0)
(-0.126278 0.195304 0)
(-0.113406 0.213633 0)
(-0.0926274 0.214197 0)
(-0.0660028 0.193517 0)
(-0.0378983 0.151757 0)
(-0.0148206 0.0942465 0)
(-0.000840188 0.030524 0)
(0.444165 -1.0724 0)
(0.419597 -0.96857 0)
(0.374167 -0.829485 0)
(0.31414 -0.675379 0)
(0.248045 -0.526452 0)
(0.184175 -0.398036 0)
(0.128259 -0.297539 0)
(0.0825435 -0.224532 0)
(0.0463522 -0.173266 0)
(0.017447 -0.135978 0)
(-0.00665099 -0.105483 0)
(-0.0279095 -0.0763516 0)
(-0.0474947 -0.0452155 0)
(-0.0658795 -0.0102828 0)
(-0.0829981 0.0290029 0)
(-0.0982695 0.0721371 0)
(-0.110646 0.117703 0)
(-0.118549 0.162986 0)
(-0.120042 0.203499 0)
(-0.113352 0.233045 0)
(-0.0973934 0.244239 0)
(-0.0730262 0.230341 0)
(-0.0440371 0.188167 0)
(-0.0180649 0.121405 0)
(-0.0013439 0.0411236 0)
(0.480655 -1.0811 0)
(0.469084 -1.00766 0)
(0.43501 -0.894544 0)
(0.382561 -0.75724 0)
(0.319068 -0.613943 0)
(0.252918 -0.481072 0)
(0.191235 -0.369536 0)
(0.138349 -0.283216 0)
(0.0954619 -0.219839 0)
(0.0613957 -0.173418 0)
(0.0338477 -0.136966 0)
(0.0104752 -0.104387 0)
(-0.0105058 -0.0713169 0)
(-0.0301952 -0.0350245 0)
(-0.0490071 0.00579613 0)
(-0.0668264 0.0513679 0)
(-0.0829761 0.100946 0)
(-0.0961136 0.152535 0)
(-0.104245 0.202285 0)
(-0.104927 0.243762 0)
(-0.0958224 0.267886 0)
(-0.0763856 0.264684 0)
(-0.0489536 0.226241 0)
(-0.0212291 0.152201 0)
(-0.00194566 0.0539955 0)
(0.510679 -1.07189 0)
(0.513613 -1.02946 0)
(0.493334 -0.944982 0)
(0.451934 -0.82979 0)
(0.395066 -0.698882 0)
(0.330328 -0.567891 0)
(0.265343 -0.449603 0)
(0.206083 -0.351511 0)
(0.155818 -0.275217 0)
(0.11507 -0.217589 0)
(0.0824098 -0.172944 0)
(0.0555797 -0.135197 0)
(0.0323841 -0.0992639 0)
(0.0111703 -0.0615428 0)
(-0.00903438 -0.0198445 0)
(-0.0286862 0.0269254 0)
(-0.0476569 0.0787568 0)
(-0.0650725 0.134596 0)
(-0.0792372 0.191647 0)
(-0.0876116 0.244156 0)
(-0.0869099 0.281947 0)
(-0.0744441 0.29293 0)
(-0.0517942 0.263291 0)
(-0.0240331 0.185543 0)
(-0.00255553 0.0691299 0)
(0.531346 -1.04413 0)
(0.549631 -1.03003 0)
(0.545197 -0.977196 0)
(0.51823 -0.888194 0)
(0.472307 -0.775747 0)
(0.413517 -0.653569 0)
(0.349102 -0.534592 0)
(0.285885 -0.428557 0)
(0.228887 -0.340499 0)
(0.180606 -0.270678 0)
(0.141156 -0.215763 0)
(0.109044 -0.170668 0)
(0.0821363 -0.13022 0)
(0.0583928 -0.0901688 0)
(0.0362719 -0.0474939 0)
(0.0148772 -0.00027411 0)
(-0.00622935 0.0524114 0)
(-0.0269028 0.110429 0)
(-0.0460584 0.172221 0)
(-0.0615279 0.233486 0)
(-0.0698224 0.285062 0)
(-0.066176 0.311285 0)
(-0.0516252 0.296026 0)
(-0.0262276 0.219776 0)
(-0.00327585 0.0863812 0)
(0.539823 -0.99571 0)
(0.573962 -1.01093 0)
(0.586613 -0.98703 0)
(0.576781 -0.926906 0)
(0.545819 -0.83828 0)
(0.497879 -0.731838 0)
(0.439026 -0.6193 0)
(0.375977 -0.511183 0)
(0.314764 -0.414911 0)
(0.25964 -0.333901 0)
(0.212579 -0.267758 0)
(0.173505 -0.213363 0)
(0.141001 -0.166341 0)
(0.113114 -0.122341 0)
(0.0879686 -0.0777691 0)
(0.0641415 -0.0299896 0)
(0.0407432 0.0227716 0)
(0.0173188 0.081334 0)
(-0.00585376 0.145348 0)
(-0.0274309 0.212285 0)
(-0.0444703 0.275119 0)
(-0.0527407 0.31701 0)
(-0.0462505 0.319008 0)
(-0.0274699 0.252 0)
(-0.00389718 0.105119 0)
(0.533666 -0.927006 0)
(0.583828 -0.968618 0)
(0.614148 -0.973435 0)
(0.622894 -0.942785 0)
(0.610052 -0.880728 0)
(0.577473 -0.795624 0)
(0.529534 -0.69677 0)
(0.47204 -0.593764 0)
(0.411078 -0.495017 0)
(0.351937 -0.406279 0)
(0.298249 -0.329981 0)
(0.251658 -0.265524 0)
(0.212071 -0.210208 0)
(0.178245 -0.160382 0)
(0.148444 -0.112394 0)
(0.120966 -0.0631374 0)
(0.0944865 -0.0102073 0)
(0.0680668 0.0480533 0)
(0.0412223 0.112298 0)
(0.0144454 0.181515 0)
(-0.0105091 0.251176 0)
(-0.0301945 0.308741 0)
(-0.0343519 0.329836 0)
(-0.0282825 0.278691 0)
(-0.00433242 0.124411 0)
(0.512079 -0.83995 0)
(0.576936 -0.903885 0)
(0.624339 -0.934966 0)
(0.653974 -0.932251 0)
(0.659296 -0.899625 0)
(0.645743 -0.839064 0)
(0.613744 -0.759471 0)
(0.567455 -0.668702 0)
(0.512445 -0.574541 0)
(0.454165 -0.483751 0)
(0.397166 -0.40085 0)
(0.344567 -0.32767 0)
(0.297844 -0.263665 0)
(0.256998 -0.206648 0)
(0.221011 -0.153641 0)
(0.18837 -0.101576 0)
(0.157525 -0.0477146 0)
(0.127201 0.0101784 0)
(0.0963478 0.0736115 0)
(0.0645159 0.142865 0)
(0.032376 0.215698 0)
(0.00288676 0.28382 0)
(-0.0177411 0.325509 0)
(-0.0252659 0.295499 0)
(-0.00594804 0.143975 0)
(0.475711 -0.738261 0)
(0.552011 -0.818986 0)
(0.615508 -0.872343 0)
(0.661184 -0.896119 0)
(0.691807 -0.889625 0)
(0.696161 -0.857699 0)
(0.68383 -0.801477 0)
(0.654084 -0.728457 0)
(0.611001 -0.645641 0)
(0.559645 -0.559556 0)
(0.504677 -0.475619 0)
(0.449983 -0.397408 0)
(0.398324 -0.326414 0)
(0.351106 -0.262296 0)
(0.308462 -0.203394 0)
(0.269582 -0.147335 0)
(0.23313 -0.0915621 0)
(0.19763 -0.0336774 0)
(0.161729 0.0283238 0)
(0.124154 0.0956654 0)
(0.0843836 0.167954 0)
(0.0435264 0.240485 0)
(0.00599099 0.297545 0)
(-0.0155986 0.301692 0)
(-0.0154419 0.166665 0)
(0.426926 -0.627421 0)
(0.510193 -0.718315 0)
(0.585755 -0.788612 0)
(0.648039 -0.834049 0)
(0.694278 -0.853513 0)
(0.722867 -0.846502 0)
(0.731988 -0.816601 0)
(0.722561 -0.765746 0)
(0.696934 -0.699827 0)
(0.65878 -0.625009 0)
(0.612242 -0.546687 0)
(0.561278 -0.469062 0)
(0.509294 -0.395014 0)
(0.458773 -0.325953 0)
(0.411043 -0.26184 0)
(0.366325 -0.20153 0)
(0.323966 -0.143244 0)
(0.282706 -0.0849842 0)
(0.240963 -0.0248265 0)
(0.197024 0.0387785 0)
(0.149084 0.10637 0)
(0.0961278 0.176402 0)
(0.0393162 0.240516 0)
(-0.0104743 0.270217 0)
(-0.0380752 0.185347 0)
(0.370248 -0.515155 0)
(0.455472 -0.60924 0)
(0.538062 -0.689912 0)
(0.61282 -0.751706 0)
(0.675139 -0.791645 0)
(0.722692 -0.808559 0)
(0.752836 -0.802257 0)
(0.766182 -0.775393 0)
(0.760573 -0.730667 0)
(0.740551 -0.67162 0)
(0.708414 -0.604531 0)
(0.66733 -0.533571 0)
(0.620912 -0.461969 0)
(0.572221 -0.392168 0)
(0.52336 -0.325507 0)
(0.475497 -0.26225 0)
(0.428891 -0.201821 0)
(0.382967 -0.143128 0)
(0.336455 -0.0849525 0)
(0.287511 -0.0262663 0)
(0.233749 0.0334743 0)
(0.172473 0.09351 0)
(0.100406 0.150507 0)
(0.0154723 0.192864 0)
(-0.0730147 0.171618 0)
(0.310458 -0.407844 0)
(0.392674 -0.498804 0)
(0.476932 -0.582943 0)
(0.558518 -0.654649 0)
(0.632664 -0.70958 0)
(0.695729 -0.745261 0)
(0.745145 -0.760354 0)
(0.777181 -0.755147 0)
(0.799073 -0.73259 0)