/*--------------------------------*- C++ -*----------------------------------*\
| =========                 |                                                 |
| \\      /  F ield         | OpenFOAM: The Open Source CFD Toolbox           |
|  \\    /   O peration     | Version:  v2012                                 |
|   \\  /    A nd           | Website:  www.openfoam.com                      |
|    \\/     M anipulation  |                                                 |
\*---------------------------------------------------------------------------*/
FoamFile
{
    version     2.0;
    format      ascii;
    class       volScalarField;
    location    "660";
    object      age;
}
// * * * * * * * * * * * * * * * * * * * * * * * * * * * * * * * * * * * * * //

dimensions      [0 0 1 0 0 0 0];


internalField   nonuniform List<scalar> 
6532
(
0.0125016
0.0124997
0.0124998
0.0124998
0.0124999
0.0124999
0.0124998
0.0124998
0.0124997
0.0125016
0.0375088
0.0374976
0.0374977
0.037498
0.0374982
0.0374982
0.037498
0.0374977
0.0374976
0.0375088
0.0625258
0.0624946
0.0624929
0.0624932
0.0624935
0.0624935
0.0624932
0.0624929
0.0624946
0.0625258
0.0875533
0.0874916
0.0874853
0.0874849
0.0874851
0.0874851
0.0874848
0.0874853
0.0874916
0.0875532
0.112591
0.112489
0.112475
0.112473
0.112472
0.112472
0.112473
0.112475
0.112489
0.112591
0.137639
0.137487
0.137463
0.137457
0.137455
0.137455
0.137457
0.137463
0.137487
0.137638
0.162696
0.162486
0.162448
0.162437
0.162434
0.162434
0.162437
0.162448
0.162486
0.162695
0.187761
0.187485
0.187431
0.187415
0.18741
0.187409
0.187414
0.187431
0.187485
0.187761
0.212836
0.212485
0.212412
0.212389
0.212381
0.212381
0.212388
0.212412
0.212485
0.212835
0.237918
0.237486
0.237392
0.23736
0.237349
0.237349
0.237359
0.237391
0.237485
0.237917
0.263008
0.262487
0.262369
0.262328
0.262313
0.262313
0.262327
0.262368
0.262485
0.263006
0.288105
0.287488
0.287345
0.287294
0.287275
0.287274
0.287293
0.287344
0.287486
0.288103
0.31321
0.31249
0.31232
0.312257
0.312233
0.312233
0.312255
0.312317
0.312487
0.313206
0.338321
0.337493
0.337293
0.337217
0.337189
0.337188
0.337215
0.337289
0.337489
0.338315
0.363441
0.362497
0.362264
0.362176
0.362141
0.36214
0.362172
0.362259
0.36249
0.363436
0.388567
0.387501
0.387235
0.387132
0.387091
0.387089
0.387126
0.387226
0.387491
0.38854
0.413702
0.412507
0.412205
0.412086
0.412039
0.412036
0.412077
0.412192
0.412491
0.413746
0.438845
0.437515
0.437174
0.437039
0.436983
0.436978
0.437025
0.437153
0.437489
0.438549
0.463998
0.462526
0.462144
0.46199
0.461925
0.461917
0.461967
0.462111
0.462489
0.465095
0.489162
0.487541
0.487116
0.486941
0.486865
0.486852
0.486903
0.487059
0.487473
0.48429
0.51462
0.512841
0.512368
0.512171
0.512081
0.512059
0.512107
0.512272
0.512726
0.535312
0.540375
0.538429
0.537904
0.537682
0.537575
0.537543
0.537586
0.537759
0.538264
0.570319
0.566153
0.564032
0.563452
0.563201
0.563076
0.563031
0.56307
0.56326
0.563813
0.604617
0.59196
0.589655
0.589016
0.588735
0.58859
0.588531
0.588568
0.588792
0.589392
0.638231
0.617803
0.615306
0.614604
0.614291
0.614123
0.614051
0.614091
0.61437
0.615026
0.671169
0.643692
0.640994
0.640223
0.639876
0.639686
0.639601
0.639652
0.640014
0.640731
0.703276
0.669636
0.666729
0.665884
0.665501
0.665286
0.66519
0.665261
0.665739
0.666528
0.734521
0.695649
0.692523
0.691598
0.691175
0.690935
0.69083
0.690931
0.691561
0.692429
0.764754
0.721745
0.718389
0.717377
0.716913
0.716646
0.716535
0.716678
0.717495
0.718434
0.793794
0.747942
0.744346
0.743238
0.742729
0.742435
0.74232
0.742517
0.743559
0.744554
0.821581
0.774262
0.770413
0.769199
0.768643
0.768319
0.768204
0.768466
0.769772
0.770803
0.848105
0.80073
0.796616
0.795285
0.794676
0.794321
0.794208
0.794545
0.79615
0.797196
0.873356
0.827377
0.822984
0.821521
0.820855
0.820467
0.820355
0.820775
0.822709
0.823746
0.89737
0.85424
0.849553
0.84794
0.847211
0.846786
0.846677
0.84718
0.849464
0.850468
0.92022
0.881362
0.876366
0.874583
0.873783
0.873317
0.873206
0.873788
0.876428
0.87738
0.942021
0.908799
0.903474
0.901498
0.900616
0.900104
0.899984
0.900633
0.903618
0.904508
0.962949
0.936614
0.930941
0.928742
0.927766
0.927199
0.927062
0.927754
0.931054
0.931894
0.983294
0.964889
0.958847
0.95639
0.955305
0.954674
0.954506
0.955208
0.95877
0.959596
1.00346
0.99313
0.986706
0.983959
0.982746
0.982042
0.981828
0.982501
0.986244
0.987139
1.02322
1.02142
1.0146
1.01152
1.01016
1.00937
1.0091
1.0097
1.01352
1.01458
1.04367
1.05045
1.04319
1.03974
1.0382
1.03731
1.03696
1.03744
1.04123
1.04254
1.06527
1.08036
1.07264
1.06875
1.067
1.06599
1.06554
1.06586
1.06948
1.07118
1.08711
1.11135
1.10311
1.09872
1.0967
1.09556
1.095
1.09511
1.09841
1.10067
1.10926
1.14363
1.1348
1.12984
1.12749
1.12618
1.12549
1.12539
1.12819
1.13124
1.13191
1.1775
1.168
1.16235
1.1596
1.15808
1.15725
1.15692
1.15907
1.16319
1.1548
1.21333
1.20301
1.19657
1.19331
1.19152
1.19051
1.18997
1.1913
1.19688
1.17992
1.25159
1.24028
1.23288
1.22898
1.22682
1.22558
1.22487
1.22528
1.23166
1.21739
1.29295
1.28037
1.27177
1.26704
1.26438
1.26285
1.26197
1.26153
1.26736
1.26038
1.33832
1.32404
1.31391
1.30808
1.30474
1.30277
1.3017
1.30065
1.30476
1.30432
1.38908
1.37242
1.36022
1.35289
1.34857
1.34597
1.34457
1.34322
1.34519
1.34794
1.44739
1.42719
1.41199
1.40256
1.39682
1.39327
1.3913
1.38978
1.39002
1.39283
1.51712
1.49117
1.4713
1.45866
1.4508
1.44584
1.44291
1.44107
1.44027
1.44173
1.60548
1.56904
1.54136
1.52365
1.51244
1.50526
1.50079
1.49816
1.49673
1.4969
1.73309
1.67243
1.62837
1.60152
1.58503
1.57446
1.56761
1.56339
1.561
1.56016
1.94303
1.82503
1.74616
1.69908
1.67154
1.655
1.64477
1.6385
1.6349
1.63327
2.64745
2.12781
1.92468
1.84364
1.79446
1.76399
1.74447
1.73198
1.72436
1.72025
12.8444
6.76106
3.20216
2.08725
1.92985
1.88577
1.8635
1.84959
1.8401
1.83384
12.1111
11.4769
7.64052
4.22337
2.63138
2.13625
2.02524
1.98773
1.96971
1.96143
11.4189
11.6692
10.8882
7.92576
5.29952
3.67701
2.85647
2.45873
2.30779
2.2422
10.8967
9.98363
9.54477
8.5811
7.19074
6.08063
5.29942
4.70025
4.26458
3.9618
141.429
166.474
166.421
166.902
167.664
168.841
170.459
172.528
175.352
178.645
182.001
185.855
189.525
192.545
194.766
196.165
196.725
196.918
197.101
197.286
197.478
197.692
197.95
198.322
200.459
139.013
164.123
162.01
162.086
162.197
162.703
164.234
167.464
173.896
183.424
194.59
206.751
219.052
230.548
240.319
247.502
251.549
251.43
246.565
237.489
225.769
213.91
204.768
200.006
200.09
132.445
162.979
161.625
161.467
161.369
161.447
161.962
163.955
171.069
185.346
204.118
226.1
249.944
273.764
295.234
311.902
321.609
322.938
315.348
299.031
275.369
247.835
222.57
205.719
200.428
125.078
162.658
161.79
161.539
161.172
161.097
161.26
162.025
167.221
183.553
208.534
240.07
276.611
315.469
352.501
382.54
400.797
404.146
392.081
366.267
329.757
286.847
244.979
214.077
201.295
117.051
162.937
162.939
162.736
161.61
160.961
160.882
161.275
163.749
178.588
207.227
246.609
295.257
350.186
405.383
451.94
481.357
487.941
470.725
433.327
382.199
324.062
267.024
222.814
202.346
108.031
163.478
165.31
165.779
163.716
161.583
160.784
160.728
161.451
171.673
200.332
244.368
302.392
371.791
445.204
509.618
552.202
563.727
542.338
493.693
428.113
355.792
285.827
230.465
203.311
98.7162
162.945
168.485
170.724
168.09
163.918
161.173
160.564
160.734
165.462
189.244
233.595
296.435
375.886
464.313
545.527
602.23
621.007
597.969
540.882
463.66
379.947
300.101
236.404
204.091
89.3118
161.162
171.782
177.065
174.878
168.86
163.185
160.636
160.355
161.495
176.74
216.281
278.188
361.501
458.789
553.152
623.002
652.826
630.343
569.742
486.127
395.474
309.464
240.468
204.667
79.8571
158.026
174.455
183.684
183.378
176.446
167.931
161.962
160.256
160.226
166.744
195.989
250.933
330.642
429.883
531.69
611.403
647.054
637.565
578.339
494.357
402.09
313.963
242.678
205.044
70.4676
153.374
176.342
189.843
192.798
186.354
175.806
166.04
160.814
159.974
161.148
177.192
219.922
288.996
381.961
484.588
571.854
620.166
617.884
567.002
489.106
400.305
313.942
243.178
205.266
61.2909
147.071
177.554
195.014
202.353
197.942
186.767
174.066
164.147
160.013
159.848
164.859
191.033
244.037
323.288
419.404
509.135
565.516
575.147
538.831
471.99
391.007
309.851
242.074
205.481
52.4291
138.799
177.614
198.883
211.485
210.645
200.41
186.008
172.249
162.809
159.697
159.769
170.073
203.509
263.235
345.428
432.88
497.221
518.531
498.02
445.217
375.357
302.236
239.563
205.695
43.9643
128.992
176.122
201.407
219.77
223.993
216.493
202.039
185.43
170.95
162.053
159.574
160.657
174.286
211.37
272.781
349.965
419.944
454.966
448.971
411.713
354.935
291.849
235.986
205.911
35.9646
117.858
172.712
202.571
226.775
237.328
234.343
222
204.547
186.167
170.758
161.843
159.499
161.248
175.689
212.671
270.483
337.3
386.223
396.366
374.488
331.592
279.648
231.76
206.134
28.5044
105.596
167.068
202.171
231.97
249.691
252.896
244.781
228.979
209.159
188.945
172.034
162.208
159.429
160.921
173.918
207.125
258.464
312.46
342.323
335.753
307.03
266.588
227.327
206.366
21.604
92.0199
158.802
199.905
234.665
260.213
270.977
268.857
257.138
238.764
216.784
194.391
175.186
163.284
159.262
160.059
169.692
197.122
240.004
281.57
297.322
282.236
253.754
223.191
206.611
15.6709
77.1339
147.419
195.174
234.236
267.685
286.839
292.346
286.726
272.519
252.117
228.051
203.169
180.93
165.582
159.033
158.674
164.722
184.797
218.749
250.22
258.419
241.157
219.431
206.878
11.0003
61.5151
132.462
187.027
230.223
270.405
298.673
312.945
314.994
307.106
291.18
269.151
243.156
215.772
190.216
170.288
159.875
157.191
159.685
172.122
196.91
223.604
232.424
218.856
207.205
7.59427
46.3611
114.307
174.709
222.321
267.164
304.351
327.832
338.607
338.285
328.865
311.721
288.408
260.74
231.037
202.241
177.923
162.428
156.173
156.076
161.244
175.741
196.625
209.24
207.855
5.19037
32.6184
93.5751
157.407
209.821
257.731
301.751
334.752
354.493
362.674
360.801
350.434
332.619
308.68
280.115
249.095
218.14
190.306
169.053
157.548
153.679
153.62
158.367
166.111
169.217
3.54884
20.8912
71.3769
134.621
191.414
241.867
289.791
331.032
360.43
377.46
384.041
381.303
370.47
352.853
329.045
300.621
269.508
237.873
208.138
182.938
165.24
154.652
149.061
146.799
146.412
2.49578
11.9266
48.84
106.852
166.029
219.124
268.719
314.732
352.737
379.508
394.983
400.14
396.799
386.675
370.197
347.557
320.697
291.327
261.584
233.303
208.536
189.156
175.621
167.647
164.746
1.85693
6.57107
29.2113
76.4423
133.54
188.528
239.16
286.603
329.385
364.267
389.292
403.194
407.743
403.973
396.36
381.188
360.946
336.479
310.322
284.548
260.009
238.692
222.336
211.624
206.592
1.50084
3.76372
14.9775
47.7775
96.5276
149.908
200.999
248.48
292.29
331.03
362.775
385.799
399.48
403.64
404.409
395.215
382.928
364.863
342.914
321.797
301.626
282.01
265.212
252.334
244.316
1.32716
2.37026
6.67449
24.504
59.902
105.917
154.558
201.216
244.424
283.565
317.742
345.717
366.955
380.87
387.221
387.543
381.964
370.355
353.671
336.245
321.241
305.685
291.701
279.673
269.898
1.2578
1.68716
3.26014
10.1633
30.3741
63.3056
103.848
146.473
187.611
225.559
259.491
288.732
312.783
331.224
343.462
349.577
350.142
345.822
337.792
327.452
315.899
303.624
292.047
282.099
274.345
1.24626
1.39137
1.98898
3.73133
11.5969
29.8664
57.3808
90.6558
125.908
160.314
192.171
220.529
244.838
264.752
279.942
290.244
295.868
297.381
295.452
290.786
284.189
276.497
268.469
260.732
253.797
1.2624
1.30795
1.47911
1.92183
3.54491
9.99415
23.8294
44.2549
69.0776
95.8134
122.373
147.285
169.616
188.813
204.525
216.571
225.004
230.08
232.213
231.956
229.773
226.186
221.724
216.866
212.031
1.29978
1.30913
1.33777
1.4462
1.5933
2.33579
5.95265
14.0653
27.0938
43.4393
61.4998
79.8409
97.3602
113.286
127.102
138.505
147.402
153.862
158.081
160.322
160.961
160.349
158.788
156.59
154.033
1.34613
1.34518
1.34621
1.36342
1.41024
1.51893
1.63833
2.40712
5.33512
10.8728
19.0618
29.1409
39.8823
50.4658
60.2975
68.9691
76.2477
82.0555
86.4229
89.4574
91.3175
92.1935
92.3125
91.8557
90.9764
1.39451
1.39467
1.39046
1.38643
1.39364
1.42128
1.46369
1.54205
1.62575
1.70086
2.38569
4.17659
6.97289
10.5492
14.6156
18.8613
23.0232
26.6883
29.7165
32.0797
33.8054
34.9599
35.6257
35.9034
35.8948
1.44446
1.44718
1.4476
1.44473
1.44132
1.44212
1.45195
1.47425
1.50873
1.54547
1.60232
1.65075
1.69697
1.74346
1.78979
1.86202
2.13672
2.52478
2.95035
3.35723
3.70859
3.98612
4.18488
4.3097
4.36992
1.49886
1.50217
1.50585
1.50837
1.50899
1.50784
1.50799
1.51041
1.52253
1.53571
1.55683
1.58352
1.61214
1.64172
1.67145
1.70361
1.74002
1.77205
1.80179
1.83095
1.85974
1.88823
1.91644
1.94442
1.97223
1.56095
1.56337
1.56733
1.57223
1.57723
1.58138
1.5848
1.58785
1.5908
1.59686
1.60542
1.6167
1.63294
1.65068
1.66861
1.68917
1.71161
1.73534
1.7595
1.78387
1.80836
1.83293
1.85757
1.88226
1.90699
1.63326
1.63475
1.63781
1.6424
1.64831
1.65511
1.66229
1.6697
1.67676
1.68422
1.69238
1.70155
1.71175
1.72363
1.73722
1.75223
1.76849
1.78593
1.80443
1.82383
1.84397
1.86475
1.88594
1.90806
1.93063
1.71873
1.71918
1.72129
1.72496
1.73014
1.73676
1.7446
1.7535
1.76321
1.77353
1.78442
1.79592
1.808
1.82077
1.83436
1.84881
1.8641
1.88021
1.8971
1.91472
1.93301
1.9519
1.97133
1.99121
2.0115
1.8303
1.82901
1.8296
1.83189
1.83575
1.84108
1.84781
1.85585
1.86512
1.87548
1.88683
1.89906
1.9121
1.92588
1.94035
1.95548
1.97125
1.98763
2.00457
2.02205
2.04002
2.05843
2.07726
2.09644
2.11594
1.95843
1.95843
1.96038
1.96383
1.96856
1.97447
1.98149
1.98958
1.99872
2.00886
2.01995
2.03195
2.0448
2.05845
2.07282
2.08787
2.10355
2.1198
2.13657
2.15382
2.17151
2.18958
2.208
2.22673
2.24573
2.20911
2.1909
2.1809
2.17623
2.17529
2.17714
2.18119
2.18703
2.19441
2.20313
2.21304
2.22404
2.23601
2.24888
2.26258
2.27702
2.29214
2.30789
2.3242
2.34101
2.35828
2.37595
2.39397
2.4123
2.43098
3.76257
3.63019
3.53697
3.4684
3.41666
3.37724
3.34731
3.3249
3.30861
3.2974
3.29045
3.28715
3.28699
3.2895
3.29435
3.30126
3.30999
3.32031
3.33204
3.345
3.35905
3.37404
3.38984
3.40634
3.42356
208.223
208.545
138.431
161.533
151.062
139.463
146.35
146.305
155.549
166.675
173.967
188.245
206.974
212.525
221.953
241.499
242.854
247.232
263.174
259.667
259.407
269.097
265.937
264.283
248.282
244.231
241.321
207.786
204.275
201.312
151.527
149.231
147.086
89.9142
88.7994
87.6468
35.6861
35.3532
34.9357
4.40055
4.41809
4.42749
1.99667
2.02076
2.04465
1.93023
1.95199
1.97376
1.95194
1.97212
1.99207
2.03085
2.04917
2.06769
2.13448
2.15201
2.16969
2.26376
2.28078
2.29793
2.44824
2.46487
2.4816
3.43905
3.45478
3.47069
226.013
138.349
134.34
133.824
133.605
133.459
133.332
133.221
133.123
133.032
132.949
132.872
132.798
132.728
132.662
132.597
132.535
132.475
132.417
132.36
132.304
132.249
132.196
132.143
132.091
132.04
131.989
131.94
131.89
131.842
131.794
131.746
131.699
131.652
131.605
131.559
131.513
131.467
131.422
131.376
131.331
131.286
131.241
131.196
131.152
131.107
131.062
131.001
130.921
130.82
130.697
130.549
130.376
130.176
129.949
129.694
129.41
129.097
128.757
128.393
128.007
127.606
127.199
126.8
126.427
126.109
125.88
125.782
125.684
125.568
125.442
125.513
125.894
126.835
129.232
131.693
133.736
134.714
135.153
136.015
158.233
135.559
134.37
134.228
134.487
135.071
136.028
137.357
139.004
140.838
142.777
144.772
146.784
148.786
150.757
152.686
154.563
156.384
158.145
159.845
161.483
163.06
164.577
166.035
167.436
168.78
170.069
171.305
172.489
173.623
174.707
175.742
176.73
177.67
178.563
179.406
180.199
180.939
181.622
182.244
182.799
183.28
183.681
183.993
184.205
184.308
184.296
184.171
183.908
183.495
182.917
182.161
181.215
180.064
178.694
177.092
175.24
173.125
170.732
168.048
165.06
161.764
158.158
154.253
150.076
145.682
141.194
136.923
132.952
129.506
126.758
124.985
124.418
124.335
126.862
131.843
137.448
141.538
138.384
136.755
141.747
135.081
134.746
135.728
137.857
141.229
145.711
150.972
156.665
162.528
168.46
174.331
180.066
185.618
190.959
196.075
200.962
205.623
210.063
214.29
218.314
222.145
225.791
229.264
232.573
235.726
238.731
241.596
244.328
246.934
249.42
251.79
254.05
256.203
258.252
260.196
262.034
263.763
265.377
266.869
268.228
269.444
270.502
271.386
272.078
272.557
272.803
272.794
272.518
271.941
271.039
269.783
268.145
266.095
263.602
260.634
257.154
253.126
248.509
243.264
237.351
230.734
223.383
215.28
206.424
196.844
186.612
175.865
164.836
153.878
143.519
134.521
128.101
124.295
123.229
126.104
132.403
139.085
140.543
137.428
137.68
135.177
136.03
139.264
144.736
152.308
161.395
171.368
181.739
192.178
202.468
212.448
222.033
231.178
239.866
248.1
255.892
263.26
270.229
276.821
283.061
288.972
294.577
299.895
304.946
309.747
314.314
318.661
322.801
326.747
330.509
334.098
337.522
340.79
343.906
346.873
349.69
352.354
354.858
357.192
359.343
361.297
363.034
364.533
365.767
366.71
367.328
367.588
367.454
366.892
365.861
364.321
362.23
359.544
356.221
352.212
347.465
341.923
335.527
328.211
319.909
310.554
300.082
288.439
275.584
261.503
246.226
229.847
212.565
194.723
176.867
159.79
144.562
132.523
125.079
122.417
124.98
131.696
139.123
137.92
136.626
135.522
138.283
144.558
154.156
166.42
180.343
195.084
210.044
224.818
239.141
252.862
265.909
278.259
289.918
300.911
311.272
321.041
330.257
338.96
347.189
354.98
362.364
369.373
376.032
382.366
388.397
394.144
399.625
404.854
409.848
414.618
419.18
423.544
427.719
431.708
435.51
439.121
442.533
445.734
448.707
451.433
453.888
456.044
457.87
459.329
460.38
460.978
461.072
460.614
459.553
457.836
455.41
452.221
448.218
443.344
437.538
430.734
422.859
413.835
403.579
392.007
379.035
364.583
348.58
330.971
311.733
290.89
268.551
244.961
220.572
196.139
172.799
152.077
135.72
125.339
121.847
123.23
130.521
139.352
136.376
136.263
141.221
150.976
164.947
181.892
200.459
219.646
238.765
257.381
275.24
292.223
308.287
323.438
337.709
351.148
363.811
375.752
387.028
397.69
407.789
417.368
426.468
435.127
443.376
451.244
458.756
465.935
472.8
479.368
485.656
491.68
497.457
503.001
508.325
513.434
518.324
522.989
527.417
531.59
535.488
539.084
542.349
545.248
547.741
549.783
551.323
552.303
552.66
552.328
551.241
549.333
546.539
542.794
538.043
532.228
525.291
517.163
507.77
497.035
484.873
471.199
455.926
438.968
420.248
399.698
377.27
352.95
326.774
298.866
269.499
239.206
208.932
180.178
155.014
135.769
124.399
120.96
121.463
128.086
136.447
137.169
144.542
157.915
176.182
197.545
220.369
243.527
266.291
288.24
309.164
328.982
347.691
365.325
381.944
397.615
412.411
426.401
439.651
452.223
464.174
475.556
486.414
496.791
506.722
516.239
525.369
534.136
542.559
550.656
558.442
565.934
573.15
580.11
586.832
593.319
599.562
605.549
611.261
616.672
621.752
626.463
630.767
634.617
637.96
640.737
642.881
644.319
644.97
644.748
643.567
641.346
638
633.458
627.664
620.57
612.131
602.294
591
578.186
563.787
547.733
529.952
510.369
488.913
465.517
440.127
412.714
383.29
351.924
318.774
284.155
248.675
213.47
180.466
152.422
132.34
122.204
119.642
119.252
136.584
138.075
148.012
164.931
187.243
212.638
239.255
265.882
291.797
316.625
340.209
362.516
383.575
403.452
422.23
439.992
456.825
472.808
488.018
502.524
516.388
529.668
542.413
554.67
566.476
577.865
588.866
599.503
609.793
619.752
629.39
638.721
647.765
656.551
665.099
673.407
681.456
689.223
696.677
703.781
710.487
716.746
722.497
727.676
732.207
736.008
738.985
741.039
742.058
741.929
740.538
737.779
733.551
727.773
720.393
711.391
700.755
688.468
674.509
658.859
641.496
622.397
601.533
578.865
554.342
527.907
499.495
469.054
436.56
402.046
365.623
327.506
288.08
248.066
208.874
173.046
144.306
126.365
120.137
118.827
136.723
139.013
151.47
171.741
197.754
226.747
256.676
286.292
314.911
342.22
368.118
392.617
415.782
437.707
458.492
478.239
497.046
515.003
532.194
548.696
564.578
579.9
594.719
609.081
623.027
636.594
649.81
662.696
675.269
687.538
699.507
711.181
722.583
733.753
744.712
755.447
765.928
776.113
785.956
795.398
804.372
812.801
820.598
827.666
833.896
839.166
843.343
846.28
847.822
847.811
846.089
842.513
836.964
829.352
819.637
807.844
794.027
778.232
760.506
740.904
719.484
696.306
671.418
644.853
616.615
586.673
554.964
521.398
485.889
448.385
408.921
367.65
324.868
281.075
237.202
195.169
158.561
132.486
121.058
118.65
136.849
139.976
154.815
178.18
207.512
239.652
272.426
304.585
335.501
364.931
392.828
419.249
444.292
468.075
490.721
512.345
533.059
552.965
572.155
590.713
608.715
626.227
643.309
660.012
676.379
692.447
708.244
723.79
739.096
754.165
768.988
783.559
797.906
812.082
826.104
839.95
853.571
866.908
879.888
892.427
904.425
915.77
926.334
935.976
944.535
951.836
957.686
961.873
964.175
964.366
962.226
957.555
950.207
940.087
927.18
911.58
893.442
872.914
850.147
825.304
798.563
770.098
740.072
708.618
675.822
641.71
606.237
569.292
530.715
490.34
448.059
403.901
358.08
311.011
263.379
216.554
173.542
139.873
122.427
118.504
136.965
140.94
157.993
184.168
216.426
251.271
286.446
320.727
353.559
384.765
414.355
442.425
469.105
494.541
518.871
542.232
564.746
586.529
607.683
628.3
648.465
668.25
687.718
706.926
725.92
744.735
763.401
781.934
800.34
818.611
836.726
854.665
872.461
890.178
907.831
925.391
942.793
959.953
976.77
993.125
1008.88
1023.88
1037.94
1050.86
1062.41
1072.35
1080.41
1086.27
1089.64
1090.18
1087.58
1081.56
1071.95
1058.64
1041.69
1021.28
997.719
971.281
942.267
910.992
877.78
842.954
806.81
769.601
731.507
692.623
652.936
612.327
570.576
527.404
482.536
435.812
387.293
337.315
286.471
235.795
187.681
147.504
124.045
118.378
137.073
141.894
160.991
189.692
224.492
261.617
298.765
334.765
369.138
401.775
432.738
462.161
490.207
517.044
542.832
567.723
591.856
615.358
638.342
660.912
683.158
705.161
726.989
748.703
770.351
791.971
813.59
835.221
856.864
878.502
900.103
921.635
943.127
964.651
986.234
1007.84
1029.4
1050.79
1071.9
1092.56
1112.6
1131.81
1149.94
1166.72
1181.86
1195
1205.77
1213.76
1218.51
1219.57
1216.5
1208.91
1196.61
1179.53
1157.82
1131.82
1102
1068.81
1032.74
994.268
953.903
912.118
869.35
825.969
782.247
738.342
694.274
649.915
605.003
559.159
511.96
463.038
412.243
359.773
306.176
252.334
200.153
154.61
125.675
118.263
137.175
142.848
163.842
194.807
231.784
270.777
309.48
346.794
382.325
416.029
448.017
478.462
507.553
535.482
562.428
588.559
614.028
638.974
663.522
687.782
711.853
735.823
759.765
783.744
807.81
832.003
856.347
880.854
905.517
930.315
955.207
980.151
1005.17
1030.33
1055.69
1081.21
1106.82
1132.39
1157.76
1182.77
1207.18
1230.75
1253.16
1274.07
1293.08
1309.73
1323.52
1333.89
1340.24
1341.93
1338.36
1328.96
1313.66
1292.58
1265.81
1233.96
1197.67
1157.61
1114.46
1068.87
1021.52
973.017
923.918
874.688
825.677
777.087
728.96
681.162
633.39
585.192
536.021
485.338
432.769
378.318
322.47
266.057
210.648
160.762
127.136
118.154
137.274
143.827
166.633
199.644
238.456
278.908
318.738
356.945
393.224
427.599
460.227
491.313
521.074
549.719
577.446
604.434
630.847
656.833
682.526
708.043
733.489
758.954
784.517
810.244
836.188
862.386
888.864
915.63
942.674
969.971
997.475
1025.14
1052.97
1081.03
1109.4
1138.06
1166.92
1195.87
1224.73
1253.31
1281.37
1308.6
1334.65
1359.09
1381.43
1401.06
1417.32
1429.43
1436.8
1438.9
1435.24
1425.25
1407.39
1383.07
1351.97
1315.03
1273.17
1227.28
1178.22
1126.8
1073.79
1019.91
965.801
911.978
858.837
806.611
755.351
704.917
654.977
605.027
554.437
502.542
448.787
392.97
335.468
277.105
219.229
165.883
128.359
118.048
137.368
144.937
169.567
204.463
244.772
286.248
326.738
365.374
401.949
436.554
469.387
500.685
530.683
559.607
587.662
615.037
641.903
668.412
694.7
720.888
747.083
773.377
799.849
826.563
853.571
880.909
908.601
936.65
965.046
993.758
1022.74
1051.94
1081.33
1110.99
1140.99
1171.32
1201.91
1232.63
1263.32
1293.77
1323.73
1352.88
1380.83
1407.07
1430.88
1451.01
1464.82
1472.57
1475.36
1475.2
1473.86
1471.47
1459.2
1434.03
1400.94
1361.19
1316.15
1266.95
1214.59
1159.95
1103.88
1047.11
990.326
934.071
878.756
824.625
771.737
719.95
668.923
618.13
566.898
514.492
460.243
403.774
345.329
285.715
226.14
170.156
129.42
117.944
137.457
146.258
172.943
209.646
251.096
293.1
333.714
372.246
408.603
442.94
475.496
506.528
536.284
564.998
592.878
620.115
646.878
673.318
699.569
725.75
751.963
778.298
804.827
831.613
858.704
886.13
913.91
942.043
970.515
999.292
1028.32
1057.55
1086.94
1116.54
1146.4
1176.51
1206.82
1237.19
1267.48
1297.46
1326.89
1355.47
1382.82
1408.49
1431.81
1452.32
1466.25
1471.39
1473.43
1474.63
1474.21
1469.53
1457.07
1433.7
1401.41
1362.21
1317.62
1268.84
1216.88
1162.64
1106.94
1050.54
994.105
938.175
883.164
829.318
776.702
725.184
674.44
623.952
573.054
520.996
467.061
410.761
352.208
292.157
231.714
173.922
130.536
117.843
137.617
148.445
177.444
215.76
257.85
299.763
339.869
377.687
413.246
446.767
478.519
508.772
537.776
565.762
592.936
619.481
645.56
671.314
696.869
722.336
747.811
773.372
799.087
825.008
851.177
877.617
904.338
931.335
958.589
986.063
1013.7
1041.44
1069.26
1097.15
1125.14
1153.21
1181.31
1209.3
1237.05
1264.36
1290.99
1316.67
1341.07
1363.81
1384.44
1402.38
1417.92
1429.17
1435.68
1437.55
1433.85
1423.81
1406.9
1383.17
1353.07
1317.31
1276.67
1232
1184.14
1133.88
1082.01
1029.23
976.17
923.35
871.161
819.843
769.468
719.927
670.927
621.998
572.518
521.782
469.091
413.923
356.286
296.843
236.613
178.007
132.3
117.744
137.943
151.526
183.745
223.478
265.443
306.398
345.215
381.641
415.789
447.916
478.313
507.255
534.989
561.737
587.691
613.02
637.869
662.367
686.625
710.74
734.795
758.86
782.99
807.228
831.603
856.132
880.817
905.648
930.603
955.646
980.722
1005.77
1030.74
1055.64
1080.45
1105.13
1129.64
1153.85
1177.63
1200.82
1223.22
1244.58
1264.64
1283.09
1299.62
1313.83
1325.47
1334.14
1339.24
1340.01
1335.94
1326.62
1311.84
1291.63
1266.22
1235.99
1201.44
1163.17
1121.81
1078.02
1032.46
985.729
938.377
890.86
843.526
796.589
750.121
704.036
658.088
611.876
564.864
516.443
465.999
413.07
357.641
300.314
242.138
184.661
136.689
117.654
140.165
159.756
194.402
233.952
274.239
312.982
349.528
383.805
415.955
446.199
474.785
501.975
528.015
553.115
577.447
601.156
624.368
647.189
669.714
692.024
714.188
736.261
758.289
780.302
802.321
824.352
846.394
868.434
890.453
912.415
934.27
955.959
977.436
998.677
1019.66
1040.36
1060.7
1080.61
1099.95
1118.6
1136.39
1153.14
1168.65
1182.68
1195
1205.35
1213.46
1219.07
1221.87
1221.41
1217.27
1209.11
1196.76
1180.18
1159.48
1134.85
1106.61
1075.16
1040.93
1004.42
966.095
926.435
885.857
844.72
803.296
761.759
720.161
678.435
636.382
593.681
549.909
504.59
457.253
407.566
355.642
302.181
248.585
196.212
148.155
119.549
150.597
177.461
211.272
247.79
284.309
319.37
352.575
383.887
413.409
441.284
467.679
492.794
516.837
539.994
562.417
584.226
605.521
626.389
646.903
667.128
687.118
706.916
726.556
746.062
765.443
784.702
803.831
822.821
841.654
860.3
878.718
896.857
914.675
932.14
949.228
965.906
982.125
997.817
1012.89
1027.24
1040.75
1053.28
1064.68
1074.8
1083.45
1090.47
1095.68
1098.9
1099.91
1098.49
1094.33
1087.18
1076.89
1063.41
1046.75
1027.03
1004.43
979.182
951.578
921.934
890.574
857.815
823.948
789.218
753.813
717.843
681.338
644.234
606.376
567.523
527.368
485.582
441.851
396.024
348.411
299.951
252.264
207.8
167.987
133.256
175.168
202.416
232.089
263.387
294.593
324.828
353.798
381.415
407.697
432.703
456.522
479.27
501.083
522.091
542.404
562.113
581.298
600.026
618.351
636.324
653.984
671.366
688.494
705.384
722.041
738.461
754.637
770.561
786.219
801.588
816.64
831.336
845.641
859.526
872.967
885.937
898.4
910.306
921.594
932.19
942.008
950.955
958.927
965.815
971.505
975.881
978.826
980.225
979.945
977.843
973.743
967.471
958.905
947.977
934.675
919.04
901.164
881.179
859.25
835.562
810.307
783.672
755.828
726.916
697.04
666.253
634.553
601.879
568.114
533.092
496.617
458.49
418.538
376.79
333.752
290.408
248.098
208.294
172.959
144.754
206.241
228.738
252.437
277.552
302.852
327.779
352.063
375.545
398.179
419.96
440.911
461.065
480.467
499.174
517.247
534.744
551.719
568.22
584.289
599.962
615.269
630.238
644.886
659.225
673.256
686.97
700.361
713.423
726.149
738.524
750.529
762.14
773.331
784.08
794.367
804.172
813.47
822.229
830.408
837.959
844.825
850.944
856.248
860.667
864.125
866.545
867.854
867.975
866.833
864.336
860.378
854.849
847.655
838.733
828.044
815.587
801.396
785.53
768.069
749.103
728.725
707.023
684.076
659.943
634.661
608.235
580.644
551.832
521.722
490.217
457.222
422.65
386.458
348.854
310.45
272.163
235.073
200.379
169.238
142.632
234.707
250.718
268.19
287.14
306.658
326.339
345.899
365.157
384.017
402.431
420.364
437.764
454.599
470.869
486.595
501.803
516.523
530.783
544.608
558.025
571.056
583.72
596.032
608.003
619.625
630.891
641.794
652.332
662.503
672.301
681.714
690.727
699.326
707.494
715.218
722.483
729.275
735.572
741.35
746.577
751.218
755.234
758.581
761.212
763.08
764.135
764.33
763.615
761.94
759.245
755.464
750.524
744.357
736.907
728.123
717.974
706.452
693.571
679.355
663.831
647.024
628.959
609.649
589.102
567.31
544.257
519.913
494.245
467.219
438.807
409.005
377.819
345.322
311.849
278.02
244.626
212.517
182.546
155.508
132.149
254.592
264.682
276.542
289.944
304.167
318.938
334.009
349.185
364.337
379.375
394.205
408.727
422.866
436.585
449.873
462.733
475.172
487.201
498.833
510.082
520.96
531.48
541.655
551.489
560.977
570.104
578.868
587.268
595.307
602.98
610.284
617.21
623.748
629.889
635.624
640.943
645.837
650.291
654.292
657.82
660.851
663.362
665.323
666.704
667.473
667.601
667.051
665.788
663.775
660.971
657.327
652.793
647.314
640.839
633.316
624.691
614.931
604.022
591.953
578.714
564.296
548.683
531.858
513.804
494.499
473.925
452.07
428.933
404.531
378.906
352.129
324.282
295.534
266.267
237.043
208.505
181.299
156.031
133.205
113.228
262.216
267.372
274.428
283.054
292.776
303.289
314.369
325.827
337.509
349.29
361.053
372.688
384.111
395.262
406.109
416.632
426.822
436.677
446.198
455.389
464.256
472.806
481.045
488.977
496.594
503.881
510.836
517.458
523.747
529.704
535.325
540.604
545.537
550.117
554.335
558.187
561.664
564.757
567.458
569.751
571.623
573.056
574.03
574.524
574.518
573.982
572.889
571.211
568.916
565.973
562.343
557.983
552.85