/*--------------------------------*- C++ -*----------------------------------*\
| =========                 |                                                 |
| \\      /  F ield         | OpenFOAM: The Open Source CFD Toolbox           |
|  \\    /   O peration     | Version:  v2012                                 |
|   \\  /    A nd           | Website:  www.openfoam.com                      |
|    \\/     M anipulation  |                                                 |
\*---------------------------------------------------------------------------*/
FoamFile
{
    version     2.0;
    format      ascii;
    class       volScalarField;
    location    "660";
    object      k;
}
// * * * * * * * * * * * * * * * * * * * * * * * * * * * * * * * * * * * * * //

dimensions      [0 2 -2 0 0 0 0];


internalField   nonuniform List<scalar> 
6532
(
2.10826
2.66729
2.77198
2.80012
2.81407
2.81407
2.80012
2.77198
2.66729
2.10826
1.15332
1.86407
2.06417
2.12976
2.15115
2.15115
2.12976
2.06417
1.86407
1.15332
0.724201
1.36013
1.5853
1.67213
1.7019
1.7019
1.67213
1.5853
1.36013
0.724201
0.500692
1.03377
1.25137
1.34585
1.38109
1.38109
1.34585
1.25137
1.03377
0.500692
0.370468
0.813274
1.01164
1.10543
1.14288
1.14288
1.10543
1.01164
0.813275
0.370469
0.287829
0.658071
0.834708
0.923483
0.960754
0.960754
0.923484
0.834709
0.658073
0.287829
0.231821
0.54479
0.700763
0.782658
0.818288
0.818288
0.782659
0.700764
0.544791
0.231822
0.191867
0.459483
0.597023
0.671536
0.704782
0.704783
0.671538
0.597025
0.459486
0.191868
0.162187
0.393513
0.515043
0.582372
0.612952
0.612953
0.582374
0.515046
0.393516
0.162189
0.139413
0.341331
0.449104
0.509771
0.537674
0.537675
0.509774
0.449108
0.341336
0.139414
0.12147
0.299256
0.395241
0.449889
0.475248
0.475249
0.449893
0.395247
0.299262
0.121472
0.107023
0.264767
0.350645
0.399931
0.422945
0.422947
0.399936
0.350653
0.264775
0.107026
0.0951803
0.236094
0.31328
0.357825
0.378717
0.37872
0.357832
0.31329
0.236105
0.0951841
0.0853224
0.211963
0.281644
0.322012
0.341004
0.341008
0.322023
0.281658
0.211979
0.0853276
0.07701
0.191437
0.254609
0.291302
0.308601
0.308607
0.291316
0.254629
0.191459
0.077017
0.0699221
0.173813
0.231314
0.264769
0.280565
0.280573
0.264789
0.231341
0.173842
0.0699316
0.0638197
0.158554
0.211091
0.24169
0.256153
0.256164
0.241718
0.211128
0.158592
0.0638321
0.0585207
0.145245
0.193416
0.221491
0.23477
0.234784
0.22153
0.193465
0.145292
0.0585365
0.0538845
0.133557
0.177873
0.203708
0.215935
0.215955
0.203762
0.17794
0.133613
0.0539036
0.0497998
0.123226
0.164117
0.187959
0.19925
0.199277
0.188034
0.164204
0.123253
0.0498209
0.04611
0.113879
0.151673
0.173714
0.184157
0.184197
0.173821
0.151807
0.113987
0.0464521
0.0428279
0.10554
0.140564
0.16099
0.170677
0.170732
0.161141
0.140767
0.105764
0.0446304
0.039893
0.0980703
0.130613
0.149594
0.158607
0.158681
0.1498
0.130902
0.0985332
0.0440464
0.0372554
0.0913468
0.121659
0.139344
0.147753
0.147847
0.139601
0.122004
0.0922413
0.0447302
0.0348736
0.0852678
0.113568
0.130086
0.137954
0.138065
0.130371
0.113973
0.0869159
0.0467156
0.0327131
0.079748
0.106227
0.121692
0.129073
0.129202
0.122004
0.106798
0.0825401
0.049766
0.0307451
0.0747152
0.0995417
0.114053
0.120998
0.121155
0.114461
0.100456
0.0789716
0.0535192
0.0289447
0.0701081
0.0934294
0.107077
0.113633
0.113834
0.107658
0.094876
0.0761634
0.0575872
0.0272911
0.0658736
0.0878208
0.100685
0.106896
0.107161
0.101517
0.0899778
0.0739909
0.0610099
0.0257659
0.0619667
0.0826556
0.0948084
0.100716
0.101068
0.09597
0.0856834
0.0723135
0.0635995
0.0243536
0.0583474
0.0778817
0.0893892
0.0950338
0.0954923
0.0909535
0.0819132
0.0709776
0.0654499
0.0230402
0.0549809
0.0734535
0.0843759
0.0897943
0.0903809
0.0864075
0.0785793
0.06979
0.0666368
0.0218135
0.0518365
0.0693311
0.0797233
0.0849506
0.085684
0.0822753
0.0755979
0.0686654
0.0672376
0.0206628
0.0488874
0.0654793
0.075392
0.0804607
0.0813572
0.0785043
0.0728985
0.0675343
0.0673175
0.0195782
0.0461099
0.0618671
0.0713471
0.0762873
0.07736
0.0750464
0.0704189
0.0663448
0.0669303
0.0185512
0.0434831
0.0584671
0.0675578
0.0723972
0.0736561
0.0718585
0.0681066
0.0650619
0.066124
0.0175739
0.0409889
0.0552555
0.0639971
0.0687616
0.0702134
0.0689029
0.0659198
0.0636683
0.064948
0.0166398
0.0386136
0.0522142
0.060645
0.0653583
0.0670074
0.0661512
0.0638311
0.0621668
0.0634616
0.015775
0.03642
0.0494193
0.0575811
0.0622646
0.0641064
0.0636579
0.0618862
0.0606266
0.0617882
0.014939
0.0343115
0.046751
0.0546764
0.0593502
0.0613858
0.0613144
0.06001
0.0590306
0.059962
0.014127
0.0322766
0.0441902
0.0519075
0.0565894
0.0588202
0.0590997
0.0581982
0.0574121
0.0580579
0.0133347
0.0303077
0.0417243
0.0492589
0.0539653
0.0563929
0.0570023
0.0564564
0.0558127
0.056159
0.0125587
0.0283979
0.0393408
0.0467146
0.0514602
0.0540868
0.0550107
0.0547903
0.0542716
0.054344
0.0117957
0.0265408
0.0370265
0.044257
0.0490539
0.0518816
0.0531101
0.0532011
0.0528183
0.0526776
0.0110427
0.0247302
0.0347676
0.0418657
0.0467224
0.0497526
0.0512799
0.0516802
0.0514651
0.0511999
0.0102968
0.0229601
0.0325486
0.0395172
0.0444366
0.047668
0.0494901
0.0502053
0.0502022
0.0499173
0.00955547
0.0212244
0.0303526
0.037184
0.0421608
0.0455877
0.0476996
0.0487376
0.0489935
0.0487975
0.00881574
0.019517
0.0281611
0.0348342
0.039853
0.0434622
0.0458547
0.0472205
0.0477773
0.0477701
0.00807443
0.0178316
0.0259543
0.0324326
0.0374646
0.0412335
0.0438902
0.0455817
0.0464692
0.0467319
0.00732768
0.0161619
0.0237124
0.0299415
0.0349429
0.0388369
0.0417318
0.0437367
0.0449689
0.0455577
0.00657031
0.0145013
0.0214166
0.0273249
0.0322352
0.0362061
0.039302
0.0415958
0.0431693
0.044113
0.00579463
0.0128407
0.0190554
0.0245569
0.0292991
0.0332838
0.0365302
0.0390751
0.0409688
0.042271
0.00498859
0.0111568
0.016617
0.0216302
0.026119
0.0300404
0.0333718
0.0361146
0.0382898
0.0399283
0.00411636
0.00956435
0.0141754
0.0185936
0.0227297
0.0264977
0.0298338
0.0327043
0.0350995
0.0370257
0.00318982
0.00819867
0.011992
0.0156899
0.019325
0.0228059
0.0260308
0.0289255
0.03145
0.0335809
0.00222358
0.00694936
0.0102189
0.013247
0.0162845
0.0193208
0.022266
0.0250301
0.0275414
0.029751
0.00117846
0.00552439
0.00864938
0.0113178
0.0138874
0.0164605
0.0190148
0.0214853
0.0238055
0.025918
0.000892723
0.00376152
0.00691472
0.00958254
0.0120006
0.014294
0.0164979
0.0185993
0.0205754
0.0223972
0.00085355
0.00218182
0.00512503
0.00771265
0.0101361
0.0122652
0.0141765
0.0158753
0.017396
0.0187574
0.00095573
0.00169589
0.00262552
0.00392076
0.00538012
0.00648961
0.00739119
0.00817747
0.00884871
0.0094145
0.00981545
0.00334529
0.0034182
0.00362039
0.00378828
0.00389882
0.00394242
0.00391976
0.00383174
0.0036931
0.00352096
0.00331548
0.00307998
0.00282744
0.00256659
0.00230198
0.00203527
0.001788
0.00156539
0.00135688
0.00115669
0.000960165
0.000761678
0.000552141
0.000298818
0.0191848
0.0083236
0.00733738
0.00748108
0.00773895
0.00793846
0.00803055
0.00799528
0.00782255
0.00750751
0.00710594
0.00664842
0.00615786
0.00565415
0.00515148
0.00465921
0.00418053
0.0036976
0.00321138
0.00272852
0.00225982
0.00181995
0.00143114
0.00108528
0.000551184
0.0285673
0.0138567
0.0104834
0.00981142
0.00975029
0.00977216
0.00973328
0.0095857
0.00931199
0.00890388
0.00838985
0.00781928
0.00721982
0.00661355
0.00601846
0.00544784
0.00490727
0.00438821
0.00387837
0.00336809
0.0028502
0.00232912
0.00183029
0.00136657
0.000669248
0.0388169
0.0210466
0.0142654
0.0122175
0.0114812
0.0111035
0.0107872
0.0104363
0.0100153
0.00951113
0.00891886
0.00828139
0.0076282
0.00697794
0.00634776
0.00575112
0.00519427
0.00467231
0.00417141
0.00367494
0.00316436
0.00262855
0.00207672
0.00152083
0.00072543
0.0488067
0.0302537
0.0194497
0.0151841
0.0134021
0.0124123
0.0117033
0.0110805
0.0104728
0.00985058
0.00920048
0.00851539
0.00782908
0.00715564
0.0065076
0.0058975
0.00533204
0.00480853
0.00431433
0.00383025
0.00333304
0.00280171
0.00222895
0.00160996
0.000744757
0.0561032
0.0395893
0.025778
0.0188739
0.0157288
0.0139483
0.0127212
0.0117579
0.0109231
0.0101569
0.00942819
0.00871684
0.0080081
0.00731375
0.00664576
0.00601639
0.00543347
0.00489777
0.00439921
0.00391712
0.00342628
0.00290037
0.00232011
0.0016605
0.00074374
0.0611869
0.0484381
0.0328895
0.0234311
0.0185976
0.0158442
0.0140053
0.0126141
0.0114935
0.010545
0.00971168
0.00895329
0.00823586
0.00753465
0.00683652
0.00617461
0.00555598
0.00498993
0.0044709
0.00397722
0.00348229
0.00295652
0.00237183
0.00168577
0.000731034
0.0649733
0.0554924
0.0398854
0.0288056
0.0221188
0.0181794
0.0156029
0.0137305
0.0122616
0.0110774
0.0101039
0.00927518
0.00853213
0.00782307
0.00711563
0.00641199
0.0057323
0.00511374
0.00455393
0.00403288
0.00352187
0.0029887
0.0023979
0.00169297
0.000710443
0.0677973
0.0611101
0.0463947
0.0343402
0.0261161
0.0209515
0.0175258
0.0151013
0.0132555
0.0117916
0.0106339
0.00970511
0.00891958
0.0081958
0.00746976
0.00672174
0.00598116
0.0052901
0.00466631
0.00409921
0.00355727
0.0030079
0.00240714
0.00168658
0.000683597
0.0698386
0.0653927
0.0523299
0.039824
0.0304371
0.024119
0.0198085
0.0167486
0.014476
0.0127055
0.011323
0.0102581
0.00940679
0.008659
0.00791504
0.0071221
0.00630069
0.00551385
0.00480518
0.00417723
0.00359699
0.00302435
0.00240943
0.00167395
0.000653688
0.0712163
0.0685561
0.0574773
0.045044
0.0349594
0.0275709
0.0223904
0.0186827
0.0159395
0.0138324
0.012198
0.0109552
0.010003
0.00921727
0.0084633
0.00763721
0.00672565
0.00581184
0.00498404
0.00427175
0.003638
0.00303405
0.00240098
0.00165088
0.000628395
0.07204
0.0708047
0.0616862
0.0497633
0.0393387
0.0311275
0.025182
0.0208682
0.0176643
0.0152095
0.0132852
0.0118298
0.0107353
0.00988357
0.00912021
0.00828681
0.00729838
0.00622937
0.00523438
0.00439639
0.00368598
0.00303868
0.00238151
0.00161543
0.000603979
0.0723657
0.0722455
0.064885
0.053906
0.0433695
0.0346522
0.028093
0.0232509
0.0196323
0.0168479
0.0146476
0.0129324
0.0116487
0.0106796
0.00988323
0.00906977
0.00805598
0.00682938
0.00561209
0.004576
0.00374902
0.00304051
0.00235158
0.00156832
0.000578449
0.0722079
0.0729459
0.0671482
0.0573744
0.0470137
0.0381326
0.0310535
0.0257703
0.021803
0.0187346
0.0162841
0.0143291
0.0128098
0.0116543
0.0107578
0.00995039
0.00899042
0.00768477
0.00621219
0.00489247
0.00387078
0.00305828
0.00231766
0.00151245
0.000551074
0.0715755
0.0729628
0.0685578
0.0600822
0.0501455
0.0412546
0.0339378
0.0283542
0.0241288
0.0208457
0.0182042
0.0160487
0.0142999
0.012904
0.0118028
0.0109021
0.010008
0.00879887
0.00717737
0.00550255
0.00414145
0.00313499
0.00229934
0.00145711
0.000522521
0.0704844
0.0723422
0.069162
0.0619586
0.0528346
0.0440949
0.0367814
0.0309658
0.0265613
0.0231408
0.020391
0.018118
0.016197
0.0145571
0.0131761
0.0120221
0.0110248
0.00995306
0.0084718
0.00656352
0.00469754
0.00334908
0.00234244
0.00142859
0.000496059
0.0689637
0.0711313
0.0690158
0.0630674
0.0549914
0.0465817
0.039364
0.0335397
0.0290439
0.0255669
0.0227984
0.0205159
0.0185349
0.0167417
0.0150911
0.0135863
0.0122463
0.0110426
0.00973271
0.00801008
0.00590673
0.00387342
0.00253253
0.00148829
0.000481149
0.0670635
0.0693903
0.0681783
0.063444
0.0564839
0.0487865
0.0417473
0.0360261
0.0315263
0.0280628
0.025357
0.0231702
0.02127
0.0194872
0.0177172
0.0159252
0.0141489
0.0124474
0.0108791
0.00923412
0.00735998
0.00528217
0.00319869
0.00180933
0.000510617
0.0649189
0.0672565
0.0667612
0.0631391
0.0572943
0.0505081
0.0438775
0.038303
0.0339395
0.0305226
0.027933
0.025924
0.0242372
0.0226588
0.0210208
0.0192108
0.0171823
0.0149665
0.0127092
0.0104884
0.00834547
0.00629687
0.0045005
0.00285533
0.000837574
0.0625685
0.0647852
0.0648379
0.0622166
0.0574812
0.051652
0.0457264
0.0403956
0.0361455
0.0328813
0.0303977
0.028582
0.0271677
0.0259196
0.0246318
0.0231289
0.0212726
0.0189765
0.0162364
0.013192
0.0100661
0.00720874
0.0048712
0.00314387
0.00217079
0.0601019
0.0620726
0.0624938
0.0607353
0.0570636
0.0522262
0.0470679
0.0422694
0.0382141
0.0350569
0.0327405
0.031082
0.0299306
0.0290507
0.0282293
0.0272728
0.0259978
0.0242271
0.0218078
0.0186695
0.0149077
0.010968
0.00747684
0.00497487
0.00369172
0.057628
0.0592438
0.0598463
0.0587759
0.0560667
0.0522168
0.0478876
0.0436813
0.0400058
0.03706
0.034853
0.0333567
0.0323876
0.0318082
0.0314168
0.0310356
0.0304976
0.0296221
0.0282045
0.0260301
0.0229521
0.0190519
0.0147237
0.0108682
0.00798594
0.0552596
0.0564408
0.057042
0.0564554
0.0545575
0.0516261
0.0481385
0.0445893
0.0413659
0.0387025
0.0366939
0.0353326
0.0345028
0.0340917
0.0339857
0.0340245
0.0340753
0.0339997
0.0336466
0.0328326
0.0313997
0.0292156
0.0262958
0.022853
0.0191417
0.0531002
0.05381
0.0542522
0.0539322
0.0526493
0.0505109
0.0478223
0.0449551
0.0422432
0.0399242
0.0381323
0.0369082
0.0362069
0.0359253
0.0359442
0.0362056
0.0365996
0.037015
0.037337
0.0374386
0.0371806
0.0364545
0.0351735
0.0332978
0.0308381
0.0512277
0.0514831
0.0516564
0.0513999
0.0505092
0.0489841
0.0469889
0.0447734
0.0425959
0.0406681
0.0391331
0.0380636
0.037459
0.0372577
0.0373666
0.0376922
0.0382251
0.0388891
0.0395854
0.0401925
0.0405775
0.0406513
0.0403289
0.0395404
0.0382434
0.0496792
0.0495529
0.0494144
0.0490648
0.0483496
0.0472245
0.0457588
0.0440995
0.0424231
0.0408949
0.0396441
0.0387523
0.0382449
0.0380932
0.0382292
0.0385977
0.0391699
0.0399134
0.0407586
0.0416131
0.042375
0.0429493
0.0432489
0.0432003
0.0427532
0.0484394
0.0480515
0.0476319
0.0471071
0.0463966
0.0454627
0.0443296
0.0430739
0.0418019
0.0406264
0.0396475
0.0389386
0.0385349
0.0384287
0.0385701
0.0389157
0.0394615
0.0401847
0.0410456
0.0419835
0.0429261
0.0437943
0.0445085
0.0449963
0.0452015
0.0474376
0.0469364
0.046331
0.0456345
0.0448374
0.043936
0.0429483
0.0419168
0.0409038
0.0399792
0.0392099
0.0386503
0.0383333
0.0382622
0.0384057
0.0387063
0.039171
0.0397933
0.0405603
0.0414457
0.0423967
0.0433626
0.044285
0.0451024
0.0457572
0.0465542
0.0460925
0.0454367
0.0446466
0.0437629
0.0428181
0.0418452
0.0408835
0.0399765
0.0391695
0.0385048
0.0380175
0.0377317
0.037654
0.0377679
0.0380178
0.0383909
0.0388875
0.0395009
0.0402221
0.0410419
0.0419301
0.0428425
0.0437421
0.044585
0.0456354
0.0453481
0.0447864
0.0440252
0.0431286
0.042154
0.0411541
0.040177
0.0392661
0.0384593
0.0377881
0.0372767
0.0369411
0.0367878
0.0368104
0.0369813
0.0372496
0.0376077
0.0380556
0.0385872
0.0391964
0.0398787
0.0406268
0.0414109
0.0421993
0.0445127
0.0445025
0.0441603
0.0435564
0.0427594
0.0418363
0.0408503
0.0398586
0.0389106
0.0380473
0.0373
0.0366913
0.0362352
0.035938
0.035799
0.0358083
0.0359409
0.0361635
0.0364435
0.036784
0.037184
0.0376384
0.0381431
0.0386961
0.0392857
0.0430253
0.043354
0.0433186
0.0429777
0.0423931
0.0416283
0.0407465
0.0398077
0.0388652
0.0379641
0.0371402
0.0364197
0.0358198
0.0353503
0.0350142
0.0348097
0.0347285
0.0347556
0.0348693
0.035047
0.0352585
0.035506
0.0357877
0.036104
0.0364489
0.0410359
0.0417236
0.0420389
0.0420267
0.0417371
0.041224
0.0405436
0.0397515
0.0388999
0.038035
0.0371953
0.0364113
0.0357049
0.035091
0.0345778
0.0341689
0.0338635
0.0336571
0.0335414
0.0335041
0.0335292
0.033606
0.0337229
0.0338557
0.0340044
0.0384503
0.0394788
0.0401454
0.0404819
0.0405261
0.0403205
0.0399113
0.0393462
0.0386719
0.0379317
0.0371639
0.0364003
0.0356664
0.0349811
0.0343577
0.0338045
0.0333261
0.0329239
0.0325964
0.0323396
0.0321472
0.0320126
0.0319274
0.0318789
0.0318598
0.0352545
0.0365695
0.0375472
0.0382077
0.0385773
0.0386879
0.0385754
0.0382787
0.037837
0.0372885
0.036668
0.0360065
0.03533
0.0346597
0.0340118
0.0333985
0.0328281
0.0323061
0.0318353
0.0314166
0.0310491
0.0307304
0.0304571
0.0302243
0.0300279
0.0315654
0.0330719
0.0342785
0.0351943
0.0358353
0.0362229
0.036384
0.0363488
0.0361491
0.0358169
0.0353824
0.0348736
0.0343149
0.0337276
0.033129
0.0325331
0.0319505
0.0313894
0.0308554
0.0303522
0.0298822
0.029446
0.0290435
0.0286738
0.0283367
0.0277121
0.0292596
0.0305558
0.0315986
0.0323967
0.0329641
0.033319
0.0334836
0.0334822
0.0333401
0.0330819
0.0327314
0.0323102
0.0318374
0.0313298
0.0308014
0.0302637
0.0297258
0.029195
0.0286766
0.0281746
0.0276917
0.0272295
0.0267892
0.0263728
0.0239724
0.0253671
0.0265747
0.0275876
0.0283908
0.0289911
0.0294059
0.0296527
0.02975
0.0297169
0.0295728
0.0293362
0.0290246
0.028654
0.0282387
0.0277912
0.0273219
0.0268398
0.026352
0.0258643
0.0253812
0.0249063
0.0244419
0.0239903
0.0235545
0.0199125
0.0209248
0.0217857
0.0224943
0.0230574
0.0234804
0.0237733
0.0239471
0.0240135
0.0239848
0.0238731
0.0236906
0.0234487
0.0231582
0.0228289
0.0224695
0.0220877
0.0216902
0.0212826
0.0208695
0.0204549
0.0200419
0.0196331
0.0192306
0.0188371
0.00987885
0.010288
0.0106409
0.010934
0.0111717
0.0113572
0.0114937
0.0115842
0.0116323
0.0116416
0.0116158
0.0115587
0.0114741
0.0113657
0.0112372
0.0110917
0.0109325
0.0107624
0.0105842
0.0104
0.0102121
0.0100221
0.00983162
0.00964201
0.00945447
0.000719279
0.000655899
0.00174163
0.00227477
0.00238258
0.00249015
0.00343159
0.00352796
0.0038806
0.00650827
0.00613646
0.00621797
0.015549
0.0133745
0.0121526
0.0279082
0.0250072
0.0225873
0.0365181
0.034534
0.0323546
0.0419405
0.040864
0.0395197
0.0451004
0.0447527
0.044163
0.0461759
0.0463999
0.0464313
0.0452761
0.0458549
0.0463181
0.0429056
0.043574
0.0442033
0.0398375
0.0403909
0.0409489
0.0367877
0.0371434
0.0375157
0.034153
0.0343145
0.0344938
0.031864
0.0318853
0.0319224
0.0298785
0.0297525
0.0296449
0.0280595
0.027806
0.0275704
0.0260193
0.0256852
0.0253651
0.0231786
0.0228169
0.022465
0.0184957
0.0181635
0.0178379
0.00929184
0.00913233
0.00897595
0.000117946
0.000340035
0.000507178
0.000648579
0.00077205
0.000881304
0.000981038
0.00107327
0.00115934
0.00124015
0.00131632
0.00138835
0.00145662
0.00152146
0.00158317
0.00164202
0.00169824
0.00175204
0.00180364
0.00185322
0.00190097
0.00194706
0.00199166
0.00203494
0.00207706
0.00211819
0.00215848
0.00219809
0.00223719
0.00227594
0.00231452
0.00235309
0.00239182
0.00243091
0.00247053
0.00251089
0.0025522
0.00259468
0.00263858
0.00268417
0.00273175
0.00278169
0.00283438
0.00289032
0.00295006
0.00301432
0.00308396
0.00315638
0.00323128
0.00330852
0.00338797
0.00346963
0.00355346
0.00363941
0.0037274
0.00381723
0.00390865
0.00400129
0.00409463
0.00418798
0.0042804
0.00437067
0.0044572
0.00453793
0.00461017
0.00467045
0.00471423
0.0047356
0.00472657
0.00467567
0.00456666
0.00437941
0.00411361
0.00377241
0.00329178
0.00267102
0.0020284
0.00141409
0.000972874
0.000582648
0.000530351
0.000957788
0.00119885
0.00140831
0.00163051
0.00186435
0.00210095
0.00233803
0.00257254
0.00280175
0.00302351
0.00323644
0.00343978
0.00363331
0.00381713
0.00399155
0.00415699
0.00431391
0.0044628
0.00460416
0.00473845
0.00486614
0.00498767
0.00510348
0.00521398
0.00531958
0.00542068
0.00551765
0.00561088
0.00570073
0.00578757
0.00587176
0.00595368
0.0060337
0.00611222
0.00618962
0.0062663
0.00634265
0.00641907
0.00649596
0.00657374
0.00665285
0.00673372
0.00681681
0.00690245
0.00699112
0.00708343
0.00718332
0.00728833
0.00739759
0.00751104
0.0076288
0.00775096
0.00787755
0.00800856
0.00814384
0.00828308
0.00842575
0.00857097
0.00871747
0.00886342
0.0090063
0.00914272
0.00926821
0.00937688
0.00946108
0.00951093
0.0095136
0.00945277
0.0093089
0.00905974
0.00867449
0.00812604
0.00739164
0.00645737
0.00531433
0.0039957
0.00247343
0.00134987
0.000588012
0.000735547
0.00139009
0.00168728
0.00197899
0.00231714
0.00268198
0.00305621
0.00342916
0.00379262
0.00414138
0.00447267
0.00478557
0.00508035
0.00535789
0.00561932
0.00586582
0.00609851
0.00631836
0.00652628
0.00672302
0.00690929
0.0070857
0.00725282
0.00741121
0.00756135
0.00770373
0.00783882
0.00796705
0.00808883
0.00820457
0.00831462
0.00841935
0.00851911
0.00861428
0.00870525
0.00879245
0.00887628
0.00895716
0.00903549
0.00911168
0.00918614
0.00925932
0.00933169
0.0094038
0.00947616
0.00954934
0.00962391
0.00970049
0.00978292
0.00986919
0.00995899
0.0100524
0.0101496
0.0102508
0.0103558
0.0104648
0.0105773
0.0106928
0.0108102
0.0109278
0.0110432
0.011153
0.0112524
0.0113354
0.0113944
0.0114195
0.0113989
0.0113185
0.011162
0.0109119
0.0105492
0.0100507
0.00940539
0.00859977
0.007624
0.00645075
0.00507392
0.00349866
0.00178574
0.000544705
0.000870719
0.0016983
0.00207276
0.00245662
0.00289936
0.00337184
0.00385042
0.00431897
0.00476802
0.00519305
0.00559291
0.00596842
0.00632135
0.00665373
0.0069675
0.00726432
0.00754557
0.00781237
0.00806559
0.00830595
0.00853404
0.00875039
0.00895546
0.00914969
0.00933349
0.00950731
0.00967154
0.00982662
0.00997294
0.0101109
0.0102408
0.010363
0.0104778
0.0105855
0.0106866
0.0107814
0.0108707
0.0109547
0.011034
0.0111089
0.0111798
0.0112471
0.011311
0.0113721
0.0114306
0.0114872
0.0115425
0.0115972
0.0116526
0.0117111
0.0117718
0.0118347
0.0119001
0.0119684
0.0120396
0.0121141
0.0121917
0.0122721
0.0123545
0.0124374
0.0125183
0.0125938
0.0126589
0.0127071
0.0127304
0.0127183
0.0126587
0.0125374
0.0123385
0.0120455
0.011642
0.0111135
0.010447
0.00963338
0.00866451
0.00752899
0.00619192
0.00457068
0.00254722
0.000618933
0.000959575
0.00190634
0.00237808
0.0028563
0.00338957
0.00394549
0.00449701
0.0050281
0.00553103
0.00600373
0.00644738
0.00686458
0.00725829
0.00763127
0.00798578
0.00832359
0.00864598
0.00895388
0.00924793
0.00952855
0.00979608
0.0100507
0.0102927
0.0105223
0.0107397
0.010945
0.0111387
0.011321
0.0114923
0.0116529
0.0118031
0.0119433
0.0120735
0.0121941
0.0123054
0.0124081
0.0125029
0.0125906
0.0126717
0.0127468
0.0128163
0.0128803
0.0129393
0.0129935
0.0130431
0.0130885
0.01313
0.0131681
0.0132035
0.0132389
0.0132739
0.0133093
0.0133456
0.0133836
0.0134238
0.0134668
0.0135134
0.0135639
0.0136184
0.0136761
0.0137354
0.0137936
0.0138462
0.0138875
0.0139094
0.0139021
0.0138529
0.0137471
0.0135673
0.0132949
0.0129099
0.0123936
0.01173
0.0109073
0.0099194
0.00876155
0.00740763
0.00575987
0.00361645
0.000823859
0.00101349
0.00205186
0.00262406
0.00318922
0.00379608
0.00441191
0.00501084
0.0055797
0.00611435
0.00661574
0.00708723
0.00753289
0.00795648
0.00836111
0.00874911
0.00912207
0.00948102
0.00982653
0.0101589
0.010478
0.010784
0.0110767
0.0113559
0.0116215
0.0118735
0.0121118
0.0123365
0.0125477
0.0127456
0.0129305
0.0131025
0.0132619
0.0134087
0.0135429
0.0136652
0.0137761
0.0138763
0.0139676
0.0140508
0.0141265
0.0141953
0.0142574
0.0143132
0.014363
0.0144069
0.0144454
0.0144785
0.0145066
0.0145295
0.0145479
0.0145627
0.0145751
0.0145862
0.0145972
0.0146093
0.014624
0.0146427
0.0146671
0.0146984
0.0147373
0.0147834
0.0148349
0.014889
0.0149409
0.0149835
0.0150078
0.0150015
0.0149495
0.0148334
0.0146312
0.0143181
0.0138673
0.0132509
0.0124431
0.011424
0.0101825
0.00870251
0.00691613
0.00462488
0.0012466
0.00104644
0.00215821
0.0028226
0.00346174
0.00412405
0.00477905
0.00540511
0.00599366
0.00654444
0.00706128
0.00754944
0.00801406
0.00845945
0.00888886
0.00930452
0.00970775
0.0100992
0.0104791
0.0108472
0.0112031
0.0115464
0.0118764
0.0121927
0.0124949
0.0127824
0.013055
0.0133124
0.0135545
0.0137812
0.0139925
0.0141886
0.0143691
0.0145337
0.0146822
0.0148166
0.0149381
0.0150474
0.0151461
0.0152348
0.0153142
0.0153848
0.0154468
0.0155007
0.0155467
0.0155853
0.0156167
0.0156414
0.0156596
0.0156715
0.0156773
0.0156778
0.0156737
0.0156647
0.0156523
0.0156389
0.0156272
0.0156199
0.0156199
0.0156299
0.015652
0.0156872
0.0157353
0.0157949
0.0158625
0.0159328
0.0159976
0.016046
0.0160631
0.0160303
0.0159239
0.0157154
0.015371
0.0148516
0.014114
0.013114
0.0118123
0.0101752
0.00815328
0.00560161
0.00177839
0.00106738
0.00223824
0.00298129
0.00367921
0.00437962
0.0050565
0.00569414
0.00628896
0.00684442
0.00736684
0.00786305
0.00833902
0.00879943
0.00924758
0.00968551
0.0101142
0.0105341
0.0109446
0.0113454
0.0117355
0.0121139
0.0124798
0.0128322
0.0131704
0.0134934
0.0138008
0.0140918
0.0143661
0.0146234
0.0148632
0.0150854
0.0152891
0.0154744
0.0156424
0.0157951
0.0159335
0.0160588
0.0161715
0.0162719
0.0163605
0.0164375
0.0165032
0.0165577
0.0166015
0.0166348
0.0166581
0.0166721
0.0166775
0.0166752
0.0166664
0.0166526
0.0166333
0.0166081
0.0165774
0.0165419
0.0165062
0.0164746
0.0164513
0.0164406
0.0164458
0.0164696
0.0165133
0.0165768
0.0166583
0.0167542
0.0168579
0.0169599
0.0170467
0.0171002
0.0170968
0.017006
0.0167899
0.0164017
0.0157841
0.0148701
0.0135848
0.0118502
0.00958348
0.00666421
0.00233783
0.00108112
0.00229961
0.00310624
0.00384762
0.00457075
0.00525557
0.00589278
0.00648362
0.00703486
0.00755502
0.00805218
0.008533
0.00900241
0.00946369
0.00991866
0.010368
0.0108116
0.0112488
0.0116784
0.0120992
0.0125097
0.0129088
0.013295
0.0136672
0.0140243
0.0143654
0.0146896
0.0149961
0.0152844
0.0155538
0.0158039
0.0160341
0.0162464
0.016442
0.0166201
0.0167815
0.0169271
0.0170577
0.0171736
0.0172751
0.0173624
0.0174355
0.0174946
0.0175397
0.0175714
0.01759
0.0175964
0.0175915
0.0175764
0.0175524
0.0175211
0.0174838
0.0174418
0.017395
0.0173419
0.017286
0.017233
0.0171887
0.0171586
0.0171474
0.0171589
0.017196
0.01726
0.017351
0.0174669
0.0176031
0.0177521
0.0179019
0.0180361
0.0181318
0.0181585
0.0180764
0.0178338
0.0173645
0.0165838
0.0153867
0.013646
0.0112091
0.00788868
0.00293747
0.00109033
0.00234717
0.00320304
0.00397382
0.00470667
0.00538833
0.00601572
0.00659449
0.00713441
0.00764583
0.00813791
0.00861786
0.0090908
0.00955992
0.0100268
0.0104918
0.0109545
0.0114136
0.0118676
0.0123148
0.0127536
0.013182
0.0135985
0.0140016
0.0143898
0.0147621
0.0151172
0.0154542
0.0157724
0.0160712
0.0163502
0.0166099
0.0168527
0.0170768
0.0172816
0.0174675
0.0176357
0.0177868
0.0179212
0.018039
0.0181403
0.0182252
0.0182934
0.0183452
0.0183808
0.0184004
0.0184049
0.0183952
0.0183728
0.018339
0.018296
0.0182453
0.0181883
0.0181262
0.0180587
0.0179874
0.017918
0.0178568
0.0178105
0.0177846
0.0177842
0.0178133
0.0178749
0.0179707
0.0181004
0.0182617
0.018449
0.0186528
0.0188584
0.0190449
0.0191825
0.0192313
0.0191369
0.0188268
0.0182037
0.0171384
0.0154604
0.0129446
0.00928158
0.00357339
0.00109683
0.00238467
0.00327735
0.00406547
0.00479746
0.00546717
0.00607728
0.00663752
0.0071603
0.00765758
0.00813944
0.00861351
0.009085
0.009557
0.0100309
0.0105066
0.0109833
0.0114594
0.011933
0.012402
0.0128641
0.0133175
0.0137599
0.0141897
0.0146052
0.0150049
0.0153876
0.0157523
0.016098
0.0164243
0.0167311
0.0170195
0.0172908
0.0175427
0.017774
0.0179849
0.0181766
0.0183497
0.0185047
0.0186418
0.0187608
0.0188617
0.0189443
0.0190085
0.0190543
0.0190818
0.0190917
0.0190849
0.0190628
0.0190269
0.0189797
0.018923
0.0188583
0.0187871
0.0187093
0.0186283
0.0185487
0.0184767
0.018419
0.0183821
0.0183716
0.0183929
0.0184504
0.0185473
0.0186856
0.0188649
0.0190821
0.0193305
0.0195979
0.0198656
0.0201059
0.0202793
0.0203309
0.0201838
0.0197311
0.018823
0.0172491
0.0147102
0.010761
0.0042466
0.00110231
0.00241591
0.00333549
0.00413123
0.004854
0.00550475
0.00609164
0.00662814
0.00712904
0.00760771
0.00807499
0.0085388
0.00900439
0.00947469
0.00995077
0.0104324
0.0109181
0.0114062
0.0118943
0.0123799
0.0128605
0.0133338
0.0137973
0.0142492
0.0146875
0.0151106
0.015517
0.0159057
0.0162758
0.016627
0.016959
0.0172732
0.0175705
0.0178484
0.0181053
0.018341
0.0185566
0.0187528
0.0189301
0.0190888
0.0192287
0.0193497
0.0194514
0.0195337
0.0195961
0.0196387
0.0196617
0.0196658
0.0196522
0.0196226
0.0195795
0.0195249
0.0194604
0.0193872
0.0193072
0.0192242
0.0191419
0.0190661
0.0190033
0.0189602
0.0189432
0.0189584
0.0190116
0.0191076
0.0192502
0.0194416
0.0196814
0.0199657
0.0202856
0.0206252
0.0209598
0.0212516
0.0214461
0.0214643
0.0211918
0.0204613
0.0190253
0.0165081
0.0122804
0.00499249
0.00110896
0.00244595
0.0033854
0.0041814
0.00488838
0.00551455
0.00607338
0.00658192
0.00705711
0.00751354
0.00796261
0.00841243
0.00886818
0.00933258
0.00980645
0.0102892
0.0107791
0.0112741
0.0117715
0.0122685
0.0127624
0.0132505
0.0137303
0.0141995
0.0146561
0.0150983
0.0155245
0.0159337
0.0163249
0.0166979
0.0170524
0.0173894
0.0177098
0.0180121
0.0182935
0.0185537
0.0187934
0.0190135
0.0192146
0.0193969
0.0195603
0.0197048
0.0198299
0.0199351
0.02002
0.0200841
0.0201273
0.0201498
0.0201527
0.0201375
0.0201066
0.020062
0.0200053
0.0199385
0.0198655
0.0197887
0.0197118
0.0196397
0.0195787
0.0195354
0.0195164
0.0195286
0.0195787
0.0196732
0.0198176
0.0200166
0.0202725
0.0205849
0.0209485
0.0213514
0.0217722
0.0221765
0.0225115
0.0226981
0.0226166
0.0220851
0.0208213
0.0183762
0.0139131
0.00587174
0.00112022
0.00248293
0.00343848
0.00422939
0.00491519
0.00551193
0.00603857
0.00651565
0.00696204
0.00739332
0.00782124
0.00825393
0.0086964
0.00915111
0.00961859
0.0100979
0.0105873
0.0110842
0.0115858
0.0120891
0.0125912
0.0130891
0.0135803
0.0140622
0.0145326
0.0149898
0.0154321
0.0158584
0.0162677
0.0166596
0.0170339
0.0173911
0.0177324
0.0180571
0.0183622
0.0186465
0.0189106
0.0191553
0.0193813
0.0195889
0.0197782
0.0199489
0.0201006
0.0202328
0.0203449
0.020436
0.0205055
0.0205532
0.0205795
0.020586
0.0205745
0.0205472
0.0205061
0.0204552
0.0203974
0.0203348
0.0202709
0.02021
0.0201577
0.0201204
0.0201047
0.0201181
0.0201678
0.0202614
0.0204063
0.0206094
0.0208761
0.0212094
0.0216084
0.0220655
0.0225644
0.0230751
0.0235489
0.0239084
0.0240324
0.0237271
0.022677
0.020359
0.0157532
0.00698072
0.00114317
0.00254196
0.0035122
0.00429347
0.00495283
0.00551541
0.00600596
0.00644853
0.00686364
0.0072675
0.00767196
0.00808496
0.0085112
0.00895277
0.00940994
0.00988159
0.0103657
0.0108596
0.0113604
0.011865
0.0123702
0.0128733
0.0133711
0.0138613
0.0143416
0.01481
0.0152649
0.0157051
0.0161295
0.0165377
0.0169294
0.0173047
0.0176649
0.0180104
0.018338
0.0186461
0.0189348
0.0192048
0.0194567
0.019691
0.0199077
0.0201066
0.0202874
0.0204496
0.0205924
0.0207147
0.0208155
0.0208939
0.0209498
0.020984
0.0209984
0.0209949
0.0209778
0.0209507
0.0209154
0.0208744
0.0208304
0.0207875
0.0207506
0.0207255
0.0207189
0.020738
0.0207907
0.0208853
0.0210306
0.0212354
0.0215081
0.0218555
0.0222811
0.0227827
0.02335
0.0239597
0.0245693
0.0251071
0.0254545
0.0254115
0.0246301
0.0225058
0.0178545
0.00847681
0.00118912
0.00265181
0.00363288
0.00439675
0.00502347
0.00554718
0.00599767
0.0064031
0.00678512
0.00716009
0.00753955
0.00793103
0.00833872
0.00876407
0.0092072
0.00966694
0.0101412
0.0106274
0.0111225
0.0116235
0.0121272
0.0126309
0.0131311
0.0136254
0.0141116
0.0145876