/*--------------------------------*- C++ -*----------------------------------*\
| =========                 |                                                 |
| \\      /  F ield         | OpenFOAM: The Open Source CFD Toolbox           |
|  \\    /   O peration     | Version:  v2012                                 |
|   \\  /    A nd           | Website:  www.openfoam.com                      |
|    \\/     M anipulation  |                                                 |
\*---------------------------------------------------------------------------*/
FoamFile
{
    version     2.0;
    format      ascii;
    class       volScalarField;
    location    "660";
    object      nut;
}
// * * * * * * * * * * * * * * * * * * * * * * * * * * * * * * * * * * * * * //

dimensions      [0 2 -1 0 0 0 0];


internalField   nonuniform List<scalar> 
6532
(
0.00326067
0.0115133
0.0138513
0.0142568
0.0141576
0.0141576
0.0142568
0.0138513
0.0115133
0.00326067
0.00241167
0.009379
0.012645
0.0135753
0.0136824
0.0136824
0.0135753
0.012645
0.009379
0.00241167
0.00191106
0.00803204
0.0115616
0.0128728
0.0131947
0.0131947
0.0128728
0.0115616
0.00803204
0.00191106
0.00158902
0.00709067
0.0106362
0.0121878
0.0126835
0.0126835
0.0121878
0.0106362
0.00709068
0.00158902
0.00136685
0.00638749
0.00985283
0.0115405
0.0121602
0.0121602
0.0115405
0.00985284
0.0063875
0.00136685
0.00120479
0.00583648
0.00918548
0.0109387
0.0116389
0.0116389
0.0109387
0.00918549
0.0058365
0.00120479
0.00108124
0.00538887
0.0086104
0.0103833
0.0111309
0.0111309
0.0103834
0.00861043
0.0053889
0.00108124
0.00098366
0.00501501
0.00810859
0.00987227
0.0106435
0.0106435
0.0098723
0.00810863
0.00501505
0.000983662
0.000904385
0.00469591
0.00766554
0.00940213
0.0101807
0.0101807
0.00940218
0.0076656
0.00469597
0.000904388
0.000838486
0.00441884
0.0072703
0.00896923
0.00974434
0.00974436
0.0089693
0.0072704
0.00441893
0.00083849
0.00078267
0.00417494
0.00691462
0.00856997
0.00933471
0.00933475
0.00857008
0.00691476
0.00417507
0.000782676
0.000734656
0.00395786
0.00659216
0.00820107
0.00895114
0.00895121
0.00820123
0.00659238
0.00395806
0.000734665
0.000692816
0.00376291
0.00629801
0.00785951
0.00859244
0.00859254
0.00785975
0.00629834
0.0037632
0.00069283
0.000655958
0.0035865
0.0060283
0.00754263
0.00825712
0.00825726
0.00754299
0.00602879
0.00358693
0.000655978
0.000623186
0.00342586
0.0057799
0.00724805
0.00794357
0.00794379
0.00724858
0.00578061
0.00342649
0.000623215
0.000593816
0.00327878
0.00555023
0.00697364
0.00765018
0.0076505
0.00697443
0.00555127
0.00327968
0.000593856
0.000567312
0.00314347
0.00533714
0.0067175
0.00737539
0.00737585
0.00671868
0.00533862
0.0031447
0.000567367
0.000543249
0.00301843
0.00513879
0.00647793
0.00711769
0.00711835
0.00647967
0.00514085
0.00301995
0.000543323
0.000521286
0.00290239
0.00495358
0.00625334
0.00687565
0.0068766
0.00625587
0.00495652
0.00290414
0.000521379
0.000501139
0.00279419
0.00477995
0.00604217
0.00664777
0.00664916
0.00604588
0.00478401
0.00279457
0.000501245
0.000482216
0.00269115
0.00461408
0.00584011
0.00642966
0.00643182
0.00584649
0.00462577
0.00272338
0.00055821
0.000464737
0.00259431
0.00445757
0.0056491
0.00622347
0.00622693
0.00566028
0.00448299
0.00266823
0.000635017
0.000448531
0.00250306
0.00430971
0.00546854
0.00602875
0.00603415
0.00548694
0.00435461
0.00263227
0.000731258
0.00043345
0.00241672
0.00416957
0.00529744
0.00584451
0.00585241
0.00532496
0.0042371
0.00262997
0.00085414
0.000419366
0.0023347
0.00403632
0.00513486
0.00566977
0.00568043
0.00517148
0.00413604
0.002656
0.00101021
0.000406168
0.00225649
0.00390918
0.00497996
0.0055037
0.00551772
0.00502657
0.00405332
0.00269661
0.00119854
0.00039376
0.00218158
0.00378745
0.00483197
0.00534565
0.00536429
0.00489552
0.00398116
0.00274051
0.00141325
0.000382058
0.00210952
0.00367045
0.00469017
0.00519501
0.00521986
0.00477682
0.00392085
0.00278703
0.00164489
0.000370984
0.00203981
0.00355752
0.00455387
0.00505123
0.00508401
0.00466928
0.0038713
0.00283984
0.00187378
0.000360469
0.00197206
0.00344801
0.0044224
0.00491371
0.00495622
0.00457191
0.00383189
0.00290012
0.00209197
0.00035045
0.00190584
0.00334126
0.00429509
0.00478186
0.00483592
0.00448386
0.00380205
0.00296709
0.00229695
0.000340869
0.00184073
0.00323667
0.00417127
0.00465508
0.0047225
0.00440431
0.00378088
0.00303783
0.00248674
0.000331671
0.0017763
0.00313358
0.00405024
0.00453269
0.00461527
0.00433244
0.00376729
0.00311073
0.00266026
0.000322804
0.00171217
0.00303133
0.0039313
0.004414
0.0045135
0.00426735
0.00376016
0.00318394
0.00281694
0.000314218
0.00164796
0.00292926
0.00381366
0.00429822
0.00441639
0.00420807
0.00375819
0.00325563
0.00295655
0.000305865
0.00158335
0.00282671
0.00369653
0.00418453
0.00432303
0.00415355
0.00375999
0.00332415
0.00307912
0.0002977
0.00151808
0.00272306
0.0035791
0.00407201
0.00423243
0.00410262
0.0037641
0.00338816
0.00318502
0.00028968
0.00145205
0.00261783
0.00346066
0.00395985
0.00414364
0.00405409
0.00376908
0.00344664
0.003275
0.000282052
0.00138732
0.00251406
0.00334423
0.00385049
0.00405807
0.00400788
0.00377317
0.00349721
0.003348
0.000274477
0.00132153
0.00240793
0.00322542
0.00373962
0.00397198
0.00396135
0.00377544
0.0035417
0.00340894
0.000266912
0.00125472
0.00229892
0.00310314
0.00362575
0.00388368
0.00391277
0.00377449
0.00358003
0.00345994
0.00025932
0.00118708
0.00218685
0.00297664
0.00350771
0.00379165
0.0038605
0.00376891
0.00361212
0.00350311
0.000251662
0.00111881
0.00207166
0.00284525
0.00338421
0.00369421
0.00380267
0.00375711
0.0036376
0.00354035
0.000243897
0.00105018
0.00195341
0.00270832
0.00325391
0.00358945
0.0037371
0.00373713
0.00365558
0.00357286
0.000235983
0.000981478
0.00183224
0.00256531
0.00311538
0.00347523
0.00366125
0.00370647
0.00366432
0.00360057
0.000227875
0.00091296
0.00170842
0.00241571
0.00296714
0.00334917
0.00357214
0.00366198
0.00366096
0.00362167
0.000219518
0.000844869
0.00158223
0.00225918
0.00280775
0.00320872
0.00346636
0.00359975
0.00364139
0.00363228
0.00021085
0.000777394
0.00145402
0.00209547
0.00263585
0.00305128
0.00334019
0.0035152
0.00360027
0.00362643
0.00020179
0.000710672
0.00132416
0.00192456
0.00245036
0.00287439
0.00318985
0.00340334
0.00353135
0.00359641
0.000192233
0.00064479
0.00119308
0.00174676
0.00225072
0.00267618
0.00301197
0.00325927
0.00342803
0.00353355
0.000182028
0.000579804
0.00106139
0.00156288
0.00203727
0.00245589
0.00280432
0.00307905
0.00328434
0.00342933
0.000170945
0.000515714
0.000930133
0.00137477
0.00181193
0.00221476
0.00256686
0.00286086
0.0030962
0.00327678
0.000158611
0.000452505
0.000800986
0.00118595
0.00157927
0.00195736
0.00230319
0.00260656
0.00286291
0.00307096
0.00010698
0.000395596
0.000679284
0.00100302
0.00134744
0.00169256
0.00202173
0.0023228
0.00258702
0.0028109
0.000109667
0.000352093
0.000578012
0.000840438
0.00113123
0.00143515
0.00173629
0.00201986
0.00227801
0.00250613
0.000105894
0.000321612
0.000508766
0.000716935
0.000952614
0.00120717
0.00146561
0.00171834
0.00195727
0.00217645
7.70907e-05
0.000309682
0.000471996
0.00064124
0.000828007
0.00102866
0.00123839
0.00145019
0.00165692
0.0018524
6.70969e-05
0.000294421
0.000457204
0.000602336
0.000730105
0.00085451
0.000990109
0.00113457
0.00128047
0.00142369
6.56083e-05
0.000220963
0.000428316
0.000555711
0.000672527
0.000702709
0.000764541
0.000858692
0.000964961
0.00107397
6.94244e-05
0.000113497
0.000141219
0.000172572
0.000202154
0.000222021
0.000236942
0.000249227
0.000259254
0.000267414
0.00014497
0.000165965
0.000167764
0.000172654
0.000176612
0.00017917
0.00018017
0.000179651
0.000177623
0.000174379
0.000170267
0.000165224
0.000159248
0.00015258
0.000145371
0.000137674
0.000129453
0.000121334
0.00011353
0.000105699
9.75909e-05
8.89145e-05
7.91928e-05
6.74256e-05
4.23044e-05
0.000258978
0.000516904
0.000805769
0.000968935
0.00105702
0.00111094
0.00114209
0.00115457
0.00115039
0.00113009
0.00109663
0.00105328
0.00100219
0.000945206
0.000883616
0.000817852
0.000745843
0.000651161
0.00054302
0.00043685
0.000342125
0.000263622
0.000203386
0.000155287
5.0086e-05
0.000418377
0.000664988
0.00102893
0.00136942
0.00158635
0.00172029
0.00180121
0.00184283
0.00185226
0.00183409
0.00179226
0.00173326
0.00166212
0.00158177
0.00149327
0.00139582
0.0012852
0.00114763
0.000979706
0.000796388
0.0006161
0.000456278
0.000328086
0.000222972
5.51902e-05
0.000693567
0.000707552
0.00105571
0.00142741
0.00173065
0.00192421
0.00204269
0.00210672
0.00212798
0.00211465
0.00207433
0.00201538
0.00194597
0.00187037
0.00178885
0.00169821
0.00159147
0.00145561
0.0012806
0.00107297
0.000848687
0.00063119
0.000441721
0.000274807
5.746e-05
0.00105687
0.00090609
0.0011979
0.00142892
0.00172978
0.00196508
0.00210831
0.00218479
0.00220981
0.00219473
0.00215071
0.00208923
0.00202153
0.00195428
0.00188778
0.00181654
0.00173048
0.00161496
0.00145621
0.00125373
0.00101763
0.000769799
0.00053525
0.000312451
5.82204e-05
0.00131117
0.00124452
0.00139565
0.00153246
0.00173819
0.00195711
0.00211859
0.00220348
0.00222795
0.00220588
0.00215238
0.00208296
0.00201116
0.00194683
0.00189199
0.0018396
0.00177644
0.00168501
0.00154839
0.00136147
0.00112929
0.000869411
0.000605092
0.000337472
5.81807e-05
0.00153434
0.0016315
0.00162734
0.00168601
0.00182763
0.00197976
0.00212081
0.00221139
0.00223541
0.00220418
0.00213731
0.00205551
0.00197537
0.00190776
0.00185773
0.00181912
0.00177615
0.00170705
0.00159118
0.00142079
0.0011977
0.0009352
0.000652425
0.000352222
5.76815e-05
0.00175135
0.00187628
0.00187222
0.00188824
0.00196594
0.00207333
0.00216628
0.00223214
0.00225124
0.00221098
0.00212838
0.0020308
0.00193845
0.00186314
0.00181067
0.00177857
0.00175149
0.00170178
0.00160451
0.00144884
0.00123517
0.000974054
0.000680538
0.000358965
5.68634e-05
0.0019626
0.00210507
0.00211769
0.00211134
0.00213965
0.00220554
0.00226616
0.00229682
0.00229023
0.00223525
0.002135
0.00201885
0.00191091
0.00182333
0.00176191
0.00172835
0.00170865
0.00167486
0.00159618
0.00145489
0.00124984
0.00099182
0.00069302
0.000359567
5.57787e-05
0.00216683
0.00232217
0.00235782
0.00234349
0.00233883
0.00236846
0.00239975
0.00240383
0.0023656
0.00228547
0.00216268
0.00202423
0.00189655
0.00179191
0.00171585
0.00167182
0.0016515
0.00162764
0.00156511
0.00143775
0.001244
0.000992137
0.000693087
0.000355788
5.45448e-05
0.0023626
0.00252842
0.00258832
0.00257875
0.00255839
0.0025548
0.00255908
0.00253999
0.00247629
0.00236578
0.00221569
0.00205003
0.00189709
0.00177119
0.00167609
0.00161329
0.00158128
0.00155973
0.00151287
0.00140003
0.00121778
0.000973609
0.000678098
0.000343725
5.34792e-05
0.00254846
0.00272227
0.00280511
0.0028085
0.00278285
0.00275509
0.00273752
0.00269948
0.00261527
0.00247792
0.00229799
0.00210104
0.00191806
0.00176668
0.00164878
0.00156132
0.00150452
0.00146998
0.00143281
0.00134103
0.00117299
0.000938629
0.000650608
0.000326048
5.24299e-05
0.00272216
0.00290106
0.00300493
0.0030256
0.00299989
0.0029608
0.00292803
0.00287641
0.00277772
0.00262116
0.00241471
0.00218419
0.00196813
0.00178621
0.00164121
0.00152633
0.00140283
0.00131321
0.00128032
0.001217
0.00109022
0.000890056
0.000614328
0.000305606
5.13098e-05
0.00288113
0.00306296
0.0031856
0.0032246
0.00320714
0.00317062
0.00312468
0.00306496
0.0029592
0.00279169
0.00256573
0.00230753
0.00205761
0.00184053
0.00166253
0.00151744
0.00131675
0.00115175
0.00111827
0.00109208
0.000996199
0.000834285
0.000574336
0.000284701
5.0081e-05
0.00302303
0.0032055
0.00334368
0.00340079
0.00339596
0.00336441
0.00331856
0.00325866
0.00315448
0.00298694
0.00275254
0.00247577
0.00219716
0.00194378
0.00172629
0.00154434
0.0013612
0.00104663
0.000946348
0.000952394
0.000911052
0.000774643
0.000536823
0.000266056
4.87663e-05
0.00314613
0.00332638
0.0034761
0.0035518
0.0035634
0.00354219
0.00350827
0.00345173
0.00335732
0.00320231
0.00297371
0.00269208
0.00239555
0.00211088
0.00185208
0.0016243
0.00142716
0.00108778
0.000830853
0.000768516
0.000780281
0.000715483
0.000508871
0.000254165
4.75154e-05
0.00324949
0.00342412
0.00358139
0.00367449
0.00370412
0.00369638
0.00367581
0.00363625
0.00355988
0.00343048
0.00322373
0.00295397
0.0026556
0.00235339
0.00206059
0.00178521
0.00153391
0.00131038
0.000885825
0.00065419
0.000591983
0.000593949
0.00049532
0.000258494
4.67959e-05
0.00333311
0.00349823
0.00365915
0.00376669
0.0038153
0.00382377
0.00381891
0.00380243
0.00375322
0.00366007
0.00349157
0.00325203
0.0029711
0.0026714
0.00236387
0.00205417
0.00174966
0.00146037
0.00119753
0.000752201
0.000502369
0.00040553
0.000348095
0.000283703
4.82076e-05
0.00339601
0.00354772
0.00370758
0.00382515
0.00389218
0.00391945
0.00393004
0.003936
0.0039234
0.00387346
0.00375677
0.00356528
0.00332189
0.00304742
0.00275158
0.00243666
0.00210424
0.00176022
0.00142051
0.0011014
0.00069937
0.0003917
0.000258021
0.000191233
5.89779e-05
0.00344355
0.00357769
0.00373149
0.0038555
0.00393686
0.00398262
0.00400854
0.00403249
0.00405192
0.00405243
0.00399432
0.0038639
0.00367428
0.00344358
0.00318187
0.00289069
0.00256797
0.00221271
0.00182899
0.00143197
0.00104694
0.000711822
0.00042163
0.000224509
0.000190852
0.00347872
0.00359133
0.00373366
0.00385923
0.00395068
0.00401181
0.0040547
0.00409197
0.00413446
0.00417714
0.00418383
0.00412499
0.00400488
0.00383579
0.00362794
0.00338425
0.00310231
0.00277762
0.00240665
0.00199103
0.00154394
0.0011037
0.000726325
0.00046494
0.00033413
0.00350511
0.00359295
0.00371829
0.00383963
0.00393688
0.00400864
0.0040641
0.00411473
0.00417166
0.00423665
0.00429481
0.00431273
0.00427396
0.0041825
0.00404636
0.00387054
0.00365525
0.00339719
0.00309124
0.00273265
0.0022449
0.00182019
0.00142301
0.00102375
0.000686233
0.00352658
0.00358784
0.00369114
0.00380191
0.00389937
0.0039779
0.00404245
0.00410216
0.00416672
0.00424184
0.00432269
0.00439394
0.00443767
0.0044329
0.00438047
0.00428522
0.00415066
0.00397763
0.0037302
0.00327981
0.0028075
0.00235433
0.00196881
0.0016162
0.00126193
0.00354669
0.00358176
0.00365931
0.00375331
0.00384445
0.00392444
0.0039942
0.00405975
0.00412852
0.00420697
0.00429619
0.00438992
0.00447729
0.00454427
0.00457633
0.00456371
0.00451012
0.00434418
0.00411455
0.00385706
0.00357332
0.00325315
0.00292361
0.00262454
0.00236764
0.00356775
0.00357988
0.0036304
0.0037026
0.00378079
0.00385588
0.0039258
0.00399348
0.00406381
0.00414207
0.00423181
0.00433144
0.00443501
0.00453329
0.00461538
0.00451097
0.00438744
0.00426845
0.00415823
0.00405322
0.00393582
0.00380027
0.0036501
0.00349546
0.00335038
0.00358999
0.00358552
0.0036111
0.00365899
0.00371871
0.00378233
0.00384635
0.00391119
0.00397964
0.00405527
0.00414125
0.00423839
0.00434354
0.00444992
0.00443259
0.00427509
0.00413578
0.00402947
0.00395357
0.00390377
0.0038721
0.00384972
0.00383063
0.00381215
0.00379335
0.00361071
0.00359872
0.00360526
0.00363011
0.00366852
0.00371535
0.00376723
0.00382324
0.00388462
0.00395375
0.00403292
0.00412316
0.00422274
0.00432671
0.00427913
0.0040738
0.00390849
0.00378395
0.00369612
0.00364348
0.00362179
0.00362489
0.00364755
0.00368564
0.00373466
0.00362403
0.00361523
0.00361203
0.00361943
0.00363779
0.00366539
0.00370045
0.00374236
0.0037915
0.00384904
0.00391644
0.0039947
0.00408336
0.00417947
0.00422454
0.00397279
0.00376473
0.00361214
0.00350054
0.00342518
0.00338216
0.00336768
0.00337848
0.00341196
0.00346486
0.00362109
0.00362632
0.00362469
0.00362389
0.00362782
0.00363811
0.00365555
0.00368051
0.00371348
0.00375519
0.0038065
0.00386807
0.00393992
0.00402066
0.00410615
0.00394838
0.00371684
0.00354059
0.00340887
0.00330981
0.00323651
0.00319313
0.00317575
0.00318204
0.00320964
0.00359108
0.00361963
0.00363071
0.00363253
0.00363118
0.00363096
0.00363457
0.00364379
0.00365992
0.00368397
0.00371675
0.00375881
0.00381029
0.00387069
0.00393824
0.00400861
0.0038148
0.00358968
0.00342025
0.00329251
0.00319645
0.00312656
0.00308179
0.00305957
0.00305733
0.00352252
0.00358066
0.00361287
0.00362765
0.00363188
0.00363081
0.0036284
0.00362761
0.00363065
0.00363918
0.00365439
0.00367707
0.00370762
0.00374602
0.00379172
0.00384327
0.00389762
0.00384556
0.00361988
0.00344235
0.00330802
0.00320616
0.00313015
0.0030778
0.00304579
0.00340468
0.00349361
0.00355248
0.00358843
0.00360776
0.00361582
0.003617
0.00361488
0.00361229
0.00361147
0.0036141
0.00362141
0.00363419
0.00365288
0.00367754
0.00370789
0.00374313
0.00378182
0.00382206
0.00380905
0.00362386
0.00347404
0.00336024
0.00327479
0.00321266
0.0032274
0.00334613
0.00343346
0.00349493
0.00353578
0.00356081
0.00357423
0.00357967
0.0035802
0.00357834
0.00357614
0.0035752
0.00357669
0.00358146
0.00359003
0.00360269
0.00361946
0.0036401
0.00366412
0.00369068
0.00371859
0.00374735
0.00377627
0.00365746
0.00355998
0.00298873
0.00313236
0.00324588
0.00333307
0.00339785
0.00344408
0.00347536
0.00349502
0.00350598
0.00351079
0.00351162
0.00351025
0.00350814
0.00350641
0.00350593
0.00350732
0.003511
0.00351724
0.00352612
0.00353756
0.00355134
0.0035672
0.00358473
0.00360308
0.00362189
0.0026954
0.0028558
0.00298942
0.00309832
0.00318502
0.00325228
0.00330291
0.00333963
0.00336502
0.0033814
0.00339085
0.00339518
0.00339592
0.00339435
0.00339152
0.00338825
0.00338522
0.00338291
0.0033817
0.00338183
0.00338347
0.00338666
0.00339137
0.00339747
0.00340479
0.00236495
0.00253081
0.00267451
0.00279669
0.00289862
0.00298197
0.00304867
0.00310076
0.00314026
0.00316912
0.00318916
0.003202
0.00320912
0.0032118
0.00321112
0.00320801
0.00320323
0.00319741
0.00319106
0.0031846
0.00317835
0.00317255
0.00316737
0.00316294
0.00315937
0.00202527
0.00218182
0.00232137
0.0024435
0.00254871
0.00263783
0.00271193
0.00277228
0.00282028
0.00285738
0.00288497
0.0029044
0.00291692
0.00292368
0.00292568
0.00292382
0.00291888
0.00291153
0.00290233
0.00289178
0.00288027
0.00286815
0.00285569
0.00284316
0.00283082
0.00156122
0.00170218
0.00185143
0.0020122
0.00212862
0.00220715
0.00227308
0.00232725
0.0023706
0.00240413
0.00242883
0.00244572
0.00245577
0.00245991
0.002459
0.0024538
0.00244505
0.00243335
0.00241929
0.00240334
0.00238595
0.00236749
0.00234828
0.00232862
0.00230887
0.00118323
0.00130141
0.00139404
0.00144867
0.00149496
0.00153297
0.00156314
0.00158599
0.00160212
0.00161214
0.00161669
0.0016164
0.0016119
0.00160379
0.00159263
0.00157894
0.0015632
0.00154583
0.00152723
0.00150772
0.0014876
0.00146714
0.00144655
0.00142602
0.00140579
0.00027393
0.000279544
0.000284299
0.000288187
0.000291303
0.000293712
0.000295471
0.000296633
0.000297248
0.000297367
0.000297037
0.000296306
0.000295219
0.000293822
0.000292155
0.000290258
0.000288167
0.000285918
0.00028354
0.000281063
0.000278511
0.000275908
0.000273274
0.000270626
0.000267981
6.88897e-05
6.93956e-05
3.77695e-05
0.000165709
0.00011499
0.000199421
0.000303288
0.000308369
0.000205204
0.000421006
0.000325039
0.000326945
0.000961244
0.000820648
0.000813515
0.00214078
0.00197842
0.00191083
0.00322953
0.00314121
0.00307845
0.00377478
0.003764
0.00376388
0.00378505
0.00383541
0.00389179
0.0035267
0.0035939
0.003669
0.00325021
0.00330188
0.00336493
0.00306875
0.0030939
0.00313084
0.00302852
0.00302618
0.0030357
0.00316925
0.00314212
0.00312644
0.00348924
0.00343904
0.00340256
0.00363904
0.00365639
0.00367422
0.00341212
0.00342028
0.00342921
0.00315669
0.0031548
0.00315353
0.00281983
0.00280929
0.00279898
0.00229115
0.00227371
0.00225636
0.00138808
0.00137082
0.00135388
0.000265666
0.000263376
0.000261111
2.68763e-05
5.29129e-05
6.12387e-05
6.2986e-05
7.95418e-05
8.51849e-05
8.98757e-05
9.40055e-05
9.77023e-05
0.00010105
0.000104107
0.000106918
0.000109515
0.000111926
0.000114173
0.000116276
0.000118249
0.000120108
0.000121864
0.000123527
0.000125109
0.000126616
0.000128058
0.000129442
0.000130775
0.000132063
0.000133313
0.000134531
0.000135722
0.000136893
0.000138048
0.000139193
0.000140334
0.000141476
0.000142625
0.000143785
0.000144963
0.000146164
0.000147396
0.000148663
0.000149975
0.00015134
0.000152767
0.000154267
0.000155853
0.000157541
0.000159351
0.000161211
0.000163112
0.00016505
0.00016702
0.000169021
0.000171051
0.000173107
0.000175187
0.000177286
0.000179396
0.000181509
0.000183614
0.000185696
0.000187733
0.000189703
0.000191571
0.000193298
0.000194831
0.0001961
0.000197017
0.000197463
0.000197275
0.00019621
0.000193909
0.000189892
0.000184039
0.000176242
0.000164632
0.000148299
0.000129234
0.000107904
8.95007e-05
5.97353e-05
5.01e-05
0.000137204
0.00015604
0.000178056
0.000202988
0.000231832
0.000263004
0.000295622
0.000328899
0.000362182
0.000394962
0.000426878
0.000457696
0.000487283
0.000515575
0.000542561
0.000568259
0.000592707
0.000615956
0.000638064
0.000659093
0.000679105
0.000698164
0.000716334
0.000733678
0.000750259
0.000766138
0.000781375
0.00079603
0.000810163
0.000823833
0.0008371
0.000850023
0.000862663
0.000875072
0.000887304
0.000899398
0.000911386
0.000923287
0.000935105
0.000946829
0.000958428
0.00096985
0.000981025
0.000991764
0.00100191
0.00101132
0.00102185
0.0010329
0.00104419
0.00105567
0.00106728
0.00107897
0.00109069
0.00110235
0.00111387
0.00112511
0.00113592
0.00114608
0.00115532
0.00116332
0.00116967
0.00117388
0.00117537
0.00117342
0.00116723
0.00115584
0.00113816
0.00111297
0.00107895
0.00103487
0.000949836
0.000855181
0.000798311
0.000741972
0.000639573
0.00052288
0.000361539
0.000190298
5.2753e-05
5.90012e-05
0.000189672
0.000240184
0.000283477
0.000337876
0.000401632
0.000471698
0.000545395
0.00062048
0.000695239
0.00076847
0.000839406
0.00090761
0.000972876
0.00103514
0.00109444
0.00115085
0.00120448
0.00125545
0.00130389
0.00134992
0.00139368
0.00143529
0.00147488
0.00151256
0.00154845
0.00158267
0.00161532
0.00164652
0.00167635
0.00170493
0.00173234
0.00175868
0.00178403
0.00180847
0.00183205
0.00185484
0.00187684
0.00189808
0.00191852
0.00193814
0.00195686
0.00197463
0.00199136
0.00200694
0.00202125
0.00203419
0.00204563
0.00205753
0.00206886
0.00207929
0.0020886
0.0020966
0.00210307
0.00210776
0.00211038
0.00211058
0.00210793
0.00210193
0.00209197
0.00207733
0.0020572
0.00203063
0.0019966
0.00195401
0.00190171
0.00183857
0.00176354
0.00167581
0.00157494
0.00145521
0.00128426
0.00113488
0.00101041
0.000905635
0.000761886
0.000613463
0.0004589
0.00026105
5.07733e-05
6.23971e-05
0.000241918
0.000319775
0.000392268
0.000481242
0.000583034
0.000693719
0.000808771
0.000924723
0.00103915
0.0011505
0.00125787
0.0013608
0.00145911
0.00155283
0.00164205
0.00172691
0.00180759
0.00188426
0.0019571
0.00202628
0.00209197
0.00215434
0.00221354
0.00226974
0.00232307
0.00237369
0.00242174
0.00246735
0.00251067
0.00255181
0.00259089
0.00262803
0.00266332
0.00269687
0.00272876
0.00275905
0.00278779
0.00281497
0.00284055
0.00286446
0.00288661
0.00290687
0.00292509
0.00294113
0.0029548
0.00296593
0.00297435
0.00298024
0.00298472
0.00298688
0.00298634
0.00298281
0.00297603
0.00296567
0.00295138
0.00293275
0.00290928
0.00288036
0.00284527
0.00280314
0.00275297
0.00269366
0.00262399
0.00254269
0.00244849
0.00234023
0.00221699
0.00207828
0.00192428
0.0017561
0.00157598
0.00138719
0.0011946
0.0010036
0.000819162
0.000643267
0.000472288
0.000281103
5.41226e-05
6.73899e-05
0.000289106
0.000395419
0.000500419
0.000624582
0.00076396
0.000912444
0.00106465
0.00121653
0.00136538
0.00150959
0.0016483
0.00178112
0.00190796
0.0020289
0.00214409
0.00225374
0.00235804
0.00245722
0.00255146
0.00264098
0.00272594
0.00280654
0.00288294
0.00295532
0.00302383
0.00308863
0.0031499
0.00320777
0.00326241
0.00331397
0.0033626
0.00340842
0.00345157
0.0034922
0.00353042
0.00356633
0.00360007
0.00363167
0.0036611
0.00368828
0.00371307
0.00373533
0.00375485
0.00377138
0.00378465
0.00379437
0.0038002
0.00380181
0.00380031
0.00379502
0.00378562
0.00377184
0.00375343
0.00373015
0.00370167
0.00366766
0.00362766
0.00358108
0.00352719
0.00346505
0.00339357
0.00331146
0.00321728
0.00310949
0.00298651
0.00284682
0.00268915
0.00251268
0.00231736
0.00210423
0.0018758
0.00163636
0.00139206
0.00115042
0.000918753
0.000703208
0.000503304
0.000303783
6.2443e-05
6.92573e-05
0.00032277
0.000466268
0.000604467
0.000762366
0.000935688
0.00111733
0.00130131
0.00148342
0.00166107
0.00183272
0.00199763
0.00215553
0.00230639
0.00245036
0.00258763
0.00271844
0.00284301
0.00296158
0.00307435
0.00318151
0.00328327
0.00337979
0.00347124
0.00355778
0.00363958
0.00371679
0.00378957
0.00385806
0.00392245
0.00398288
0.00403953
0.00409256
0.00414218
0.00418861
0.00423198
0.00427228
0.00431004
0.00434542
0.00437841
0.00440895
0.00443694
0.00446222
0.00448458
0.00450377
0.00451946
0.00453123
0.00453859
0.00454087
0.00453778
0.00452929
0.0045153
0.00449554
0.00446985
0.00443815
0.0044003
0.00435611
0.00430526
0.00424726
0.00418143
0.00410683
0.00402228
0.00392635
0.00381736
0.00369342
0.00355247
0.00339246
0.00321144
0.00300784
0.00278083
0.0025307
0.00225934
0.00197079
0.00167147
0.00137026
0.00107809
0.000805522
0.000558262
0.000329733
7.6811e-05
7.03742e-05
0.000350664
0.000531429
0.000701712
0.000890257
0.00109304
0.00130262
0.00151294
0.00171996
0.00192123
0.00211542
0.00230192
0.00248054
0.00265137
0.00281458
0.00297041
0.00311912
0.00326095
0.00339611
0.00352481
0.00364726
0.00376361
0.00387404
0.00397869
0.00407772
0.00417126
0.00425945
0.00434241
0.00442027
0.00449317
0.00456125
0.00462463
0.00468345
0.00473799
0.00478922
0.00483741
0.00484022
0.00484371
0.00485112
0.00485995
0.00487038
0.00488343
0.00490013
0.0049216
0.00494914
0.00498415
0.0050284
0.00508438
0.00515238
0.0052012
0.00519485
0.0051818
0.00516103
0.00513233
0.00509619
0.0050529
0.00500256
0.00494511
0.00488022
0.00480735
0.00472563
0.00463388
0.00453057
0.00441382
0.00428141
0.00413082
0.00395932
0.00376416
0.00354278
0.00329318
0.00301443
0.00270725
0.0023746
0.00202237
0.00165971
0.00129914
0.000955376
0.000641918
0.000363763
9.17427e-05
7.10747e-05
0.000373831
0.000590371
0.00079049
0.00100586
0.00123339
0.00146588
0.00169757
0.00192468
0.00214499
0.00235738
0.00256138
0.00275692
0.00294414
0.00312328
0.00329459
0.00345833
0.00361475
0.00376405
0.00390643
0.00404206
0.00417109
0.00429368
0.00440995
0.00452002
0.00462402
0.00472203
0.00481414
0.00490045
0.00498102
0.00505588
0.00512505
0.00517276
0.005137
0.00511629
0.00510801
0.00510298
0.00510018
0.00509949
0.00510074
0.00510474
0.00511265
0.00512565
0.00514512
0.00517272
0.00521023
0.00525919
0.00532042
0.00539413
0.00548162
0.0055877
0.00570965
0.00576284
0.00573491
0.00569727
0.00565119
0.00559733
0.00553597
0.00546706
0.00539025
0.00530486
0.00520978
0.00510351
0.00498407
0.004849
0.00469536
0.00451979
0.00431864
0.00408819
0.00382502
0.00352662
0.003192
0.00282263
0.00242317
0.00200226
0.00157288
0.0011521
0.000759549
0.000413263
0.000105188
7.15306e-05
0.00039309
0.000642953
0.000870063
0.00110825
0.00135599
0.00160679
0.00185534
0.00209823
0.00233352
0.00256029
0.00277821
0.00298732
0.00318783
0.00337999
0.00356408
0.00374036
0.00390905
0.00407034
0.00422441
0.0043714
0.00451145
0.00464467
0.00477118
0.00489107
0.00500444
0.00511136
0.00521189
0.00530607
0.00539392
0.00547541
0.00549588
0.00543339
0.00538851
0.00536579
0.00535201
0.00534118
0.00533264
0.0053274
0.00532539
0.00532693
0.00533286
0.00534427
0.00536265
0.00538995
0.00542866
0.00548143
0.00555007
0.00563433
0.00573338
0.00584885
0.00598347
0.00613774
0.00626991
0.00623237
0.006185
0.00612911
0.0060654
0.00599414
0.00591526
0.00582828
0.00573233
0.00562603
0.00550746
0.00537406
0.00522261
0.00504921
0.00484933
0.004618
0.00435016
0.00404128
0.00368819
0.00329016
0.00285018
0.002376
0.00188089
0.00138353
0.000907281
0.00047954
0.0001129
7.18348e-05
0.000409079
0.000689336
0.000940395
0.00119757
0.00146133
0.00172623
0.00198759
0.00224241
0.00248905
0.00272681
0.0029555
0.00317525
0.0033863
0.00358895
0.00378347
0.0039701
0.00414903
0.00432043
0.00448445
0.00464119
0.00479077
0.00493328
0.0050688
0.00519743
0.00531924
0.00543429
0.00554264
0.00564434
0.00573941
0.00582787
0.00577218
0.00570044
0.00565467
0.00563003
0.00561587
0.00560555
0.00559781
0.00559314
0.0055918
0.00559421
0.0056011
0.0056135
0.00563287
0.00566136
0.00570179
0.0057573
0.0058304
0.00592209
0.00603221
0.00616069
0.00630674
0.00647068
0.00664016
0.00669585
0.00664744
0.00659016
0.00652491
0.00645221
0.00637224
0.00628484
0.0061894
0.00608484
0.00596942
0.0058407
0.00569536
0.00552914
0.00533676
0.00511204
0.00484812
0.00453811
0.00417595
0.00375796
0.00328449
0.0027619
0.00220382
0.00163137
0.00107195
0.000558919
0.000130046
7.20486e-05
0.00042239
0.000729974
0.00100201
0.00127465
0.00155066
0.00182587
0.00209638
0.00235966
0.00261441
0.00286013
0.00309678
0.00332455
0.00354375
0.00375465
0.00395751
0.00415253
0.0043399
0.00451972
0.0046921
0.00485713
0.00501488
0.00516542
0.00530883
0.00544517
0.00557451
0.00569693
0.00581248
0.00592124
0.00602326
0.00611864
0.00605072
0.00597636
0.00592993
0.00590816
0.00589925
0.00589489
0.00589268
0.00589282
0.00589586
0.00590232
0.00591288
0.0059285
0.00595061
0.00598148
0.00602436
0.00608317
0.00616144
0.00626097
0.00638156
0.00652199
0.00667994
0.00685336
0.00703198
0.00708581
0.007036
0.00697748
0.00691105
0.00683733
0.00675676
0.00666944
0.00657515
0.00647316
0.0063621
0.00623982
0.00610316
0.00594775
0.00576785
0.00555621
0.00530425
0.00500242
0.00464122
0.0042129
0.00371394
0.00314807
0.00252897
0.00188134
0.00123892
0.000641807
0.000141768
7.22282e-05
0.000433702
0.000765691
0.00105596
0.00134094
0.00162582
0.00190795
0.00218429
0.00245289
0.00271279
0.00296373
0.0032058
0.00343926
0.00366441
0.00388154
0.00409085
0.00429251
0.00448663
0.0046733
0.00485257
0.00502449
0.0051891
0.00534645
0.0054966
0.00563959
0.00577551
0.00590442
0.00602639
0.0061415
0.00624985
0.00635153
0.00631262
0.0062388
0.0061945
0.00617988
0.00618039
0.00618585
0.00619284
0.0062013
0.00621188
0.00622517
0.00624184
0.00626273
0.00628922
0.00632362
0.00636964
0.00643229
0.00651673
0.00662601
0.006759
0.00691061
0.00707662
0.00726153
0.00744438
0.00740253
0.00735151
0.00729195
0.00722458
0.00715011
0.00706915
0.0069821
0.00688911
0.00678988
0.00668353
0.00656839
0.00644169
0.00629929
0.00613532
0.00594189
0.00570892
0.00542424
0.00507446
0.0046467
0.00413186
0.00352911
0.00285098
0.0021266
0.00139967
0.000719738
0.000153715
7.24459e-05
0.000443943
0.000797848
0.00110396
0.00139854
0.00168928
0.00197523