/*--------------------------------*- C++ -*----------------------------------*\
| =========                 |                                                 |
| \\      /  F ield         | OpenFOAM: The Open Source CFD Toolbox           |
|  \\    /   O peration     | Version:  v2012                                 |
|   \\  /    A nd           | Website:  www.openfoam.com                      |
|    \\/     M anipulation  |                                                 |
\*---------------------------------------------------------------------------*/
FoamFile
{
    version     2.0;
    format      ascii;
    class       volScalarField;
    location    "660";
    object      omega;
}
// * * * * * * * * * * * * * * * * * * * * * * * * * * * * * * * * * * * * * //

dimensions      [0 0 -1 0 0 0 0];


internalField   nonuniform List<scalar> 
6532
(
646.574
231.67
200.125
196.406
198.767
198.767
196.406
200.125
231.67
646.574
478.222
198.749
163.241
156.884
157.221
157.221
156.884
163.241
198.749
478.222
378.953
169.338
137.117
129.896
128.984
128.984
129.896
137.117
169.338
378.953
315.095
145.793
117.652
110.426
108.888
108.888
110.426
117.652
145.793
315.095
271.039
127.323
102.675
95.7867
93.9858
93.9858
95.7867
102.675
127.323
271.039
238.904
112.751
90.8726
84.4234
82.5466
82.5466
84.4234
90.8726
112.751
238.904
214.404
101.095
81.3856
75.3763
73.5147
73.5147
75.3763
81.3855
101.095
214.404
195.054
91.6215
73.6284
68.0225
66.2172
66.2172
68.0224
73.6283
91.6213
195.055
179.335
83.7991
67.1894
61.9405
60.2074
60.2073
61.9404
67.1892
83.7987
179.335
166.267
77.2446
61.7723
56.8356
55.1781
55.1781
56.8355
61.7721
77.2441
166.268
155.199
71.679
57.1603
52.496
50.9119
50.9119
52.4958
57.1599
71.6782
155.201
145.678
66.8963
53.1912
48.7657
47.2504
47.2503
48.7654
53.1906
66.8951
145.68
137.382
62.7424
49.7426
45.5276
44.0756
44.0755
45.5272
49.7417
62.7405
137.385
130.073
59.1003
46.7202
42.6923
41.2982
41.298
42.6917
46.7189
59.0975
130.077
123.575
55.8801
44.0508
40.1904
38.8492
38.8488
40.1894
44.0487
55.876
123.58
117.751
53.0115
41.6764
37.9671
36.6744
36.6739
37.9657
41.6735
53.0057
117.758
112.495
50.4393
39.5513
35.9792
34.7308
34.7301
35.977
39.5472
50.4316
112.506
107.723
48.1194
37.6385
34.1916
32.984
32.983
34.1884
37.633
48.1107
107.738
103.368
46.0164
35.9079
32.5759
31.4058
31.4044
32.5714
35.9003
46.0077
103.387
99.3732
44.1008
34.3344
31.1079
29.9724
29.9703
31.1013
34.3235
44.1046
99.3942
95.6209
42.316
32.8718
29.7449
28.6419
28.6384
29.7308
32.8177
41.8548
83.2161
92.155
40.6813
31.5337
28.4983
27.4248
27.4184
28.4688
31.4002
39.6381
70.2822
88.9414
39.1802
30.3066
27.3554
26.3084
26.2971
27.3011
30.0605
37.4328
60.2337
85.9508
37.7979
29.1778
26.304
25.2807
25.2626
26.2163
28.7943
35.0732
52.3687
83.158
36.5219
28.1365
25.3339
24.3315
24.3054
25.2097
27.556
32.7243
46.2436
80.5409
35.3416
27.1738
24.4363
23.4521
23.4159
24.2717
26.3483
30.6088
41.5222
78.0806
34.2482
26.282
23.6038
22.6349
22.5855
23.3808
25.2329
28.8164
37.8697
75.76
33.2342
25.4545
22.83
21.8734
21.8079
22.5376
24.1978
27.3278
35.0098
73.5641
32.294
24.686
22.1097
21.1623
21.0781
21.7415
23.2423
26.0546
32.5598
71.479
31.4224
23.972
21.4382
20.497
20.3921
20.9912
22.3606
24.9346
30.4018
69.4924
30.615
23.309
20.812
19.8738
19.7465
20.2846
21.5445
23.9216
28.4943
67.5925
29.8691
22.6942
20.2279
19.2895
19.1384
19.6188
20.7834
22.9737
26.7968
65.7686
29.1823
22.1252
19.6836
18.7417
18.5653
18.9905
20.0669
22.0737
25.2748
64.0103
28.5529
21.6009
19.1774
18.2285
18.0253
18.3965
19.3871
21.211
23.8974
62.3077
27.98
21.1204
18.7083
17.7486
17.5166
17.8339
18.7375
20.3785
22.638
60.6515
27.4627
20.6838
18.276
17.3012
17.0381
17.3005
18.1135
19.5725
21.4749
59.0324
27.0005
20.2917
17.8808
16.8864
16.5894
16.7948
17.5128
18.7914
20.3917
57.4419
26.5924
19.9456
17.5241
16.5053
16.1711
16.3172
16.9354
18.0369
19.3776
55.9295
26.2522
19.6572
17.218
16.1706
15.7972
15.8832
16.4016
17.3357
18.4553
54.4273
25.9635
19.4154
16.9517
15.8707
15.4547
15.4782
15.8948
16.6673
17.5896
52.9273
25.7241
19.2222
16.7274
15.6076
15.1455
15.1043
15.4188
16.0368
16.7801
51.4218
25.5314
19.0796
16.5485
15.3848
14.8729
14.7655
14.9795
15.4515
16.0312
49.9032
25.3823
18.99
16.4185
15.206
14.641
14.4663
14.5831
14.9196
15.3499
48.3634
25.2725
18.9548
16.3411
15.0754
14.4539
14.2116
14.2358
14.4487
14.7438
46.7942
25.1969
18.9754
16.32
14.9974
14.3164
14.0061
13.9432
14.0449
14.22
45.1863
25.1491
19.0519
16.3584
14.9762
14.2328
13.8545
13.7099
13.7128
13.7829
43.5293
25.1216
19.1834
16.4591
15.0159
14.2074
13.7607
13.5391
13.4546
13.4344
41.8104
25.1057
19.3677
16.6236
15.1196
14.2439
13.7282
13.4332
13.2705
13.1728
40.014
25.0912
19.6006
16.8519
15.2894
14.3451
13.7593
13.3932
13.159
12.9941
38.1188
25.0654
19.8749
17.1412
15.5252
14.512
13.8553
13.4192
13.118
12.8929
36.0951
25.0108
20.1778
17.4836
15.8227
14.7426
14.0148
13.5093
13.144
12.8635
33.8976
24.8989
20.4867
17.8626
16.1701
15.0282
14.2315
13.6585
13.232
12.9002
31.4517
24.6555
20.7457
18.2388
16.5387
15.3474
14.4894
13.8553
13.3744
13.0019
28.5701
24.1771
20.8681
18.5376
16.8688
15.6553
14.7566
14.0797
13.5676
13.1722
25.1501
23.2855
20.747
18.6687
17.0832
15.891
14.9922
14.3205
13.8059
13.3995
20.9982
21.4432
20.0857
18.4772
17.0945
16.005
15.1924
14.5665
14.0713
13.6695
15.2867
17.8389
18.3251
17.6498
16.7721
16.0019
15.3544
14.8155
14.3673
13.9916
13.305
12.776
15.1239
15.909
15.9807
15.7654
15.4471
15.106
14.7794
14.4811
13.0098
9.87411
11.9655
13.8789
15.0258
15.6445
15.9316
16.0019
15.9672
15.892
13.7665
14.9421
18.5918
22.7195
26.614
29.2297
31.194
32.8113
34.1314
35.2057
34.5267
20.1566
20.3751
20.969
21.4497
21.7604
21.8817
21.8188
21.5724
21.1785
20.6791
20.0666
19.3408
18.5309
17.6554
16.7206
15.7221
14.7362
13.7883
12.8372
11.8525
10.7987
9.61802
8.18889
7.06353
44.2719
16.1028
9.10607
7.72093
7.32148
7.14573
7.03147
6.9249
6.7999
6.64327
6.47979
6.3121
6.14442
5.98193
5.82999
5.69688
5.6051
5.67847
5.91392
6.24589
6.60525
6.90363
7.03659
6.98888
11.0048
47.5858
20.8376
10.1887
7.16466
6.14638
5.68052
5.40375
5.20163
5.02737
4.85466
4.68115
4.51133
4.34375
4.18112
4.03038
3.90296
3.81831
3.82373
3.95871
4.22921
4.62619
5.10461
5.57868
6.12887
12.1262
47.3311
24.8886
13.5126
8.55919
6.63404
5.77041
5.28089
4.95383
4.70649
4.49773
4.29963
4.10911
3.91999
3.73079
3.54851
3.38658
3.26381
3.20987
3.25739
3.42502
3.72853
4.16444
4.70142
5.53417
12.6249
45.389
27.8482
16.2365
10.6263
7.74785
6.31646
5.55106
5.07164
4.73922
4.48828
4.27787
4.07584
3.87284
3.66152
3.44722
3.24656
3.08125
2.97749
2.96272
3.05508
3.27531
3.63953
4.16432
5.15268
12.792
42.7888
29.1649
18.4702
12.3161
9.04894
7.12701
6.00457
5.33607
4.90278
4.60445
4.38036
4.18484
3.98182
3.75676
3.51257
3.27049
3.05864
2.90667
2.84114
2.87713
3.03401
3.33602
3.83431
4.92041
12.7833
39.8783
29.6894
20.2106
13.8974
10.1758
8.00312
6.60373
5.70415
5.14156
4.78408
4.54388
4.35574
4.16928
3.94948
3.68004
3.39428
3.12811
2.92313
2.8098
2.7993
2.90748
3.16138
3.6354
4.7861
12.6736
37.099
29.5757
21.3038
15.2553
11.251
8.76821
7.20265
6.15127
5.44662
5.01019
4.74722
4.56726
4.40152
4.19887
3.92984
3.60514
3.27282
3.00494
2.8382
2.78352
2.85133
3.06831
3.52354
4.71624
12.4939
34.5447
29.03
21.9081
16.2647
12.2058
9.49949
7.73368
6.57485
5.78782
5.27531
4.98073
4.80724
4.6677
4.49495
4.23958
3.88911
3.50051
3.15854
2.92342
2.81754
2.84618
3.0327
3.4734
4.69059
12.2555
32.2308
28.1601
22.1942
16.9935
13.0138
10.1834
8.25441
6.96749
6.11935
5.55926
5.2356
5.06765
4.95996
4.83228
4.61289
4.26009
3.81514
3.38763
3.07018
2.9054
2.89147
3.04832
3.47637
4.7049
11.9844
30.1432
27.1142
22.2064
17.4674
13.6646
10.7918
8.74939
7.35543
6.43685
5.84687
5.5053
5.34393
5.27282
5.20399
5.04944
4.73393
4.25329
3.72618
3.29444
3.05118
2.9874
3.11629
3.54076
4.80291
11.7503
28.2681
26.0094
21.9907
17.7188
14.1361
11.2981
9.19883
7.73048
6.75428
6.13798
5.78123
5.63045
5.59693
5.59445
5.53149
5.30759
4.85097
4.23771
3.65057
3.27837
3.14238
3.23736
3.66044
4.95455
11.5197
26.5839
24.9031
21.5928
17.8166
14.4571
11.7036
9.59453
8.08331
7.06778
6.42764
6.06601
5.92092
5.91865
5.9789
6.02191
5.9422
5.61193
4.98854
4.24644
3.63964
3.37716
3.41609
3.82789
5.13182
11.2736
25.0624
23.8155
21.0786
17.7927
14.6591
12.0268
9.93815
8.40802
7.36785
6.71086
6.34679
6.20974
6.2256
6.33202
6.47072
6.55734
6.45545
5.97543
5.1612
4.25525
3.74392
3.66575
4.03537
5.31242
11.0037
23.6767
22.7618
20.5037
17.6672
14.7662
12.2621
10.2266
8.70116
7.64905
6.97895
6.61358
6.48231
6.50835
6.63862
6.83709
7.05939
7.20937
7.09069
6.42354
5.38284
4.38637
4.02945
4.28324
5.47671
10.7148
22.4035
21.748
19.8964
17.4443
14.827
12.4485
10.4842
8.97111
7.91147
7.22627
6.85709
6.73013
6.76129
6.89621
7.11425
7.40141
7.72499
7.97679
7.85051
6.96196
5.55351
4.62735
4.60321
5.62071
10.44
21.223
20.7736
19.2707
17.1636
14.846
12.602
10.7089
9.22369
8.15866
7.45287
7.07208
6.94519
6.97954
7.11386
7.32365
7.6105
7.98366
8.42705
8.8307
8.78446
7.7182
5.80799
5.11293
5.75753
10.2819
20.1204
19.8358
18.6323
16.8434
14.8046
12.7587
10.9318
9.47451
8.3998
7.66728
7.26234
7.12483
7.15897
7.29475
7.49498
7.75263
8.08666
8.52346
9.0846
9.68608
9.95523
9.09975
6.73317
6.16941
10.5921
19.1162
18.9576
18.0067
16.5063
14.7204
12.8865
11.1647
9.73147
8.65054
7.87995
7.43539
7.27125
7.29622
7.43539
7.63957
7.88406
8.16553
8.50267
8.94697
9.52285
10.2566
10.9809
11.1469
9.68874
10.9934
18.1698
18.1081
17.3759
16.1371
14.6008
12.9694
11.4072
10.0175
8.92059
8.11398
7.61021
7.39719
7.39401
7.52694
7.7413
8.00116
8.28383
8.57614
8.87723
9.21248
9.61477
10.1272
10.7168
11.1789
11.3742
17.277
17.284
16.7379
15.7376
14.444
13.0181
11.6082
10.3299
9.24282
8.39256
7.82548
7.53504
7.47353
7.57358
7.7811
8.05873
8.38014
8.72223
9.06147
9.37681
9.65565
9.93751
10.2941
10.7
11.0487
16.4412
16.4889
16.0951
15.3077
14.2414
13.0261
11.7831
10.6158
9.5899
8.74749
8.11514
7.73448
7.57791
7.60509
7.76421
8.0184
8.34351
8.71959
9.12401
9.52557
9.88303
10.1558
10.3468
10.6161
10.9097
15.6694
15.7311
15.4538
14.8492
13.9914
12.9782
11.9083
10.8697
9.92768
9.12398
8.48866
8.04121
7.77498
7.69061
7.75846
7.93997
8.2096
8.54773
8.93621
9.35555
9.77636
10.1602
10.4647
10.6712
10.7477
14.9718
15.0234
14.8258
14.3693
13.6949
12.8708
11.9729
11.0734
10.232
9.49003
8.87584
8.40747
8.08679
7.90563
7.85437
7.93337
8.11501
8.37349
8.68418
9.01731
9.34109
9.62837
9.84555
9.95225
9.91186
14.3585
14.3812
14.2288
13.8821
13.3594
12.7037
11.9692
11.2116
10.4818
9.81831
9.24738
8.78776
8.4462
8.21868
8.0961
8.07319
8.15515
8.32335
8.5551
8.82133
9.07866
9.30458
9.47399
9.56121
9.54302
13.8383
13.8203
13.684
13.4094
13.0017
12.4855
11.8967
11.2752
10.66
10.0844
9.57298
9.14318
8.805
8.56042
8.40542
8.33572
8.34526
8.4353
8.59058
8.78792
8.99963
9.20008
9.36525
9.4735
9.50747
13.4155
13.3524
13.2118
12.9768
12.6472
12.2364
11.7672
11.2663
10.7609
10.2754
9.83097
9.44388
9.12558
8.88172
8.71332
8.61753
8.59127
8.62834
8.72435
8.86763
9.0391
9.218
9.38342
9.51601
9.60021
13.0897
12.983
12.8269
12.6082
12.3254
11.9867
11.6062
11.2006
10.7883
10.3868
10.0116
9.67539
9.38768
9.15481
8.98137
8.86869
8.81489
8.81659
8.86851
8.96367
9.0934
9.24411
9.40016
9.54534
9.66475
12.8564
12.7105
12.5353
12.3201
12.0631
11.7693
11.447
11.1081
10.7653
10.4308
10.1155
9.82855
9.57677
9.36514
9.19788
9.07807
9.00439
8.97445
8.98517
9.03295
9.11563
9.22561
9.35282
9.48581
9.61253
12.708
12.5284
12.3354
12.1197
11.8773
11.6096
11.323
11.0262
10.7287
10.4396
10.167
9.91717
9.6951
9.5042
9.34691
9.22547
9.14063
9.09092
9.07403
9.08754
9.12877
9.19417
9.27931
9.378
9.48271
12.6366
12.4286
12.2231
12.0068
11.7734
11.5226
11.2585
10.9876
10.7173
10.4549
10.2069
9.97841
9.77318
9.59365
9.44137
9.31716
9.22123
9.15289
9.11101
9.09371
9.09875
9.12379
9.16629
9.22347
9.29176
12.6371
12.4095
12.1939
11.9768
11.7505
11.5128
11.2653
11.0122
10.7591
10.5121
10.2765
10.0568
9.85634
9.67737
9.52108
9.38799
9.27793
9.19017
9.12317
9.07518
9.04491
9.03074
9.03057
9.04254
9.06457
12.7149
12.4692
12.2439
12.0251
11.8042
11.5772
11.3433
11.1048
10.8653
10.6292
10.401
10.1844
9.98268
9.79797
9.63162
9.48426
9.35595
9.24621
9.15402
9.07802
9.01663
8.96794
8.93019
8.90219
8.88266
12.8651
12.6036
12.3681
12.1455
11.927
11.7072
11.4841
11.2578
11.0303
10.8043
10.5831
10.3697
10.1668
9.97633
9.79988
9.63828
9.49191
9.36072
9.24427
9.14177
9.05214
8.97417
8.90649
8.84766
8.79647
13.0795
12.8053
12.56
12.3318
12.1121
11.8956
11.6792
11.462
11.2442
11.0275
10.8138
10.6052
10.4037
10.211
10.0285
9.85713
9.69749
9.54979
9.41399
9.2898
9.17669
9.07396
8.98075
8.8961
8.81932
13.3472
13.0677
12.8167
12.5843
12.3629
12.1473
11.9344
11.7225
11.5115
11.3018
11.0946
10.8912
10.6929
10.5012
10.317
10.1412
9.97448
9.81714
9.66931
9.53093
9.40178
9.28149
9.16959
9.06556
8.9691
13.6831
13.4107
13.1629
12.9317
12.711
12.4967
12.2861
12.078
11.8719
11.6681
11.467
11.2696
11.0768
10.8895
10.7086
10.5346
10.3682
10.2097
10.0592
9.91661
9.78194
9.6549
9.53516
9.42234
9.31634
14.2223
13.984
13.7599
13.5453
13.3376
13.1351
12.9366
12.7415
12.5495
12.3608
12.1757
11.9949
11.8189
11.6484
11.4838
11.3258
11.1744
11.03
10.8925
10.7618
10.6378
10.5201
10.4085
10.3024
10.2017
15.8078
15.72
15.6277
15.5276
15.4234
15.317
15.2087
15.0991
14.9886
14.8776
14.7667
14.6564
14.5472
14.4396
14.334
14.2307
14.1298
14.0314
13.9354
13.8418
13.7502
13.6605
13.5724
13.4855
13.3996
36.0635
36.8026
37.4287
37.9405
38.3507
38.6679
38.8995
39.0525
39.1335
39.149
39.1056
39.0094
38.8664
38.6824
38.463
38.2132
37.9379
37.6418
37.3287
37.0026
36.6667
36.324
35.9772
35.6286
35.2804
9.73117
9.29254
15.1423
12.2039
12.706
12.4869
11.3146
11.4407
11.2892
11.109
10.9841
10.2638
10.5968
10.1342
9.28854
9.70644
9.3502
8.79072
9.40785
9.17678
8.83693
9.4586
9.34009
9.14759
9.62452
9.59798
9.51953
9.74168
9.78302
9.78767
9.71415
9.79583
9.85518
9.57773
9.66725
9.74863
9.35956
9.4299
9.50115
9.09209
9.12516
9.16247
8.87131
8.86498
8.86305
8.75617
8.72043
8.68821
8.75658
8.69884
8.64482
8.88891
8.81387
8.74271
9.22727
9.14297
9.06229
10.1166
10.0351
9.95629
13.3247
13.2501
13.1753
34.9756
34.6741
34.3759
4.38846
6.42632
7.84839
8.87527
9.6833
10.3458
10.9155
11.4171
11.866
12.2726
12.6439
12.9852
13.3006
13.5935
13.8664
14.1218
14.3615
14.5872
14.8005
15.0025
15.1946
15.3777
15.5528
15.7209
15.8827
16.0392
16.191
16.3389
16.4836
16.6257
16.7661
16.9052
17.0437
17.1824
17.3219
17.4628
17.6059
17.7518
17.9013
18.0553
18.2147
18.3804
18.5537
18.7358
18.9285
19.1336
19.3533
19.5792
19.8102
20.0455
20.2848
20.5278
20.7743
21.024
21.2767
21.5315
21.7878
22.0445
22.3002
22.5529
22.8004
23.0396
23.2666
23.4763
23.6624
23.8166
23.928
23.9822
23.9593
23.83
23.5505
23.0626
22.3518
21.4048
19.9947
18.0111
15.6956
13.1051
10.87
9.75382
10.5859
6.98078
7.59486
7.90938
8.03252
8.04181
7.98828
7.90884
7.82165
7.73574
7.6552
7.58165
7.51543
7.45628
7.40364
7.35687
7.31531
7.27832
7.24533
7.21582
7.18936
7.16552
7.14399
7.12444
7.10663
7.09033
7.07533
7.06146
7.04858
7.03652
7.02517
7.01441
7.00414
6.99428
6.98482
6.97576
6.96722
6.95934
6.95241
6.94677
6.94291
6.94142
6.94305
6.94866
6.95977
6.97781
7.00416
7.0297
7.0562
7.08451
7.11497
7.1479
7.18365
7.22255
7.26496
7.3113
7.362
7.41757
7.47854
7.5455
7.61906
7.69984
7.78844
7.88539
7.99108
8.10562
8.22861
8.35873
8.49327
8.62772
8.75449
8.85663
8.91209
8.88098
8.70299
8.30919
7.64172
6.84141
7.09349
11.1465
12.4666
7.01657
7.02495
6.98113
6.85798
6.67772
6.47915
6.28747
6.1124
5.95677
5.82022
5.70114
5.59751
5.50727
5.42855
5.35966
5.29914
5.24573
5.19837
5.15614
5.11829
5.08416
5.0532
5.02496
4.99904
4.97512
4.95291
4.93217
4.9127
4.89429
4.8768
4.86009
4.84403
4.82855
4.81361
4.79923
4.78548
4.77246
4.76034
4.74932
4.73968
4.73171
4.72578
4.72229
4.72171
4.72448
4.73109
4.74205
4.7547
4.77035
4.78962
4.813
4.841
4.87419
4.91319
4.95871
5.01156
5.07264
5.14298
5.2237
5.31606
5.42144
5.54133
5.67737
5.83127
6.00484
6.19987
6.41805
6.6607
6.92846
7.22036
7.53155
7.85025
8.14897
8.38067
8.46683
8.27095
7.62401
6.8406
10.7282
13.5639
6.84085
6.48195
6.2626
6.02476
5.78326
5.5504
5.34017
5.15616
4.99738
4.86127
4.74486
4.64533
4.56011
4.48696
4.42393
4.36941
4.32199
4.28051
4.24402
4.21169
4.18285
4.15694
4.1335
4.11215
4.09256
4.07448
4.05767
4.04196
4.02716
4.01315
3.99978
3.98694
3.97455
3.96258
3.95104
3.94
3.92953
3.91976
3.91084
3.90295
3.8963
3.89114
3.88776
3.88648
3.88765
3.8917
3.89906
3.90996
3.9237
3.94117
3.96295
3.98956
4.02159
4.05967
4.10455
4.15708
4.21825
4.28922
4.37126
4.46583
4.57462
4.69951
4.84268
5.00665
5.19434
5.40917
5.65513
5.93688
6.25974
6.62949
7.05181
7.53104
8.0641
8.63342
9.19109
9.62574
9.67774
9.06154
11.4358
14.2391
6.59391
6.01409
5.70782
5.42694
5.16452
4.92853
4.72276
4.54655
4.39711
4.27094
4.16465
4.07514
3.9997
3.93602
3.88211
3.83629
3.79717
3.76358
3.73455
3.70926
3.68707
3.66742
3.64985
3.63401
3.61959
3.60635
3.59409
3.58265
3.57187
3.56163
3.5518
3.54225
3.5329
3.52368
3.51464
3.50582
3.49732
3.48923
3.4817
3.47487
3.46892
3.46404
3.46046
3.45845
3.4583
3.46039
3.46512
3.47295
3.48363
3.49772
3.51575
3.53823
3.56569
3.59873
3.63804
3.68447
3.73902
3.80286
3.87734
3.964
4.06462
4.18131
4.31652
4.47321
4.65495
4.86609
5.11204
5.39955
5.73707
6.13521
6.60711
7.16835
7.83531
8.6224
9.53635
10.534
11.4441
11.9047
13.1938
14.6337
6.35704
5.62778
5.27608
4.97934
4.71515
4.48465
4.28777
4.12178
3.98282
3.86706
3.7709
3.6912
3.62519
3.57055
3.52526
3.48767
3.45638
3.43022
3.40822
3.38959
3.37368
3.35995
3.34795
3.33733
3.32779
3.31912
3.31111
3.30363
3.29653
3.28972
3.28304
3.27635
3.26951
3.26246
3.25524
3.24799
3.2407
3.23347
3.2264
3.21965
3.21334
3.20764
3.20274
3.19886
3.19626
3.19527
3.19627
3.19972
3.20596
3.21522
3.22794
3.2446
3.26571
3.29177
3.3234
3.36141
3.40678
3.46069
3.52448
3.59971
3.68819
3.79208
3.91392
4.05682
4.2246
4.42202
4.65509
4.93156
5.26144
5.65779
6.13775
6.72363
7.44442
8.3371
9.4449
10.8036
12.3887
14.0261
16.2295
14.8697
6.15463
5.31133
4.93328
4.63243
4.37224
4.14943
3.9616
3.80499
3.67539
3.56877
3.48147
3.41032
3.35256
3.30583
3.26815
3.23784
3.21351
3.194
3.17835
3.16576
3.15559
3.1473
3.14045
3.13469
3.12974
3.12538
3.12142
3.11772
3.11417
3.11068
3.10708
3.10319
3.09882
3.09375
3.08803
3.08179
3.07512
3.06812
3.06091
3.05361
3.04633
3.03923
3.03248
3.02628
3.0209
3.01662
3.01379
3.01282
3.01416
3.01796
3.02475
3.03518
3.04974
3.06875
3.09273
3.12238
3.15866
3.20271
3.25585
3.3196
3.39572
3.48629
3.59383
3.72139
3.87275
4.05271
4.26738
4.52478
4.83542
5.2134
5.67774
6.25436
6.97894
7.90139
9.09243
10.6505
12.7014
15.3991
19.3845
15.0177
5.98731
5.04986
4.65434
4.35412
4.09969
3.88445
3.70468
3.55614
3.43444
3.3355
3.25567
3.19176
3.14101
3.10107
3.06996
3.04599
3.02778
3.01415
3.00414
2.99697
2.99198
2.98864
2.98651
2.98525
2.98458
2.98427
2.98415
2.98409
2.98398
2.98374
2.98322
2.9821
2.97997
2.97664
2.97219
2.96678
2.96059
2.95373
2.9463
2.9384
2.93012
2.92163
2.91308
2.90469
2.89672
2.88948
2.88334
2.87866
2.87585
2.8751
2.87696
2.88194
2.89061
2.90348
2.92084
2.94329
2.97171
3.00721
3.05103
3.10463
3.16967
3.24811
3.34231
3.45518
3.59033
3.75236
3.94724
4.18285
4.46971
4.82218
5.26
5.81079
6.51384
7.42666
8.63692
10.2858
12.6173
16.1258
22.2253
15.114
5.85009
4.83121
4.42223
4.12428
3.87582
3.66743
3.49457
3.35277
3.23761
3.14503
3.0714
3.01354
2.9687
2.93453
2.90903
2.89054
2.87763
2.86914
2.8641
2.86172
2.86134
2.86242
2.86453
2.86733
2.87053
2.8739
2.87729
2.88054
2.88358
2.88634
2.88871
2.89009
2.88994
2.88823
2.88514
2.88085
2.87548
2.86912
2.86185
2.85375
2.84494
2.83554
2.82572
2.81569
2.80573
2.79614
2.78735
2.7798
2.77396
2.77013
2.76867
2.76992
2.77436
2.78254
2.79483
2.81167
2.8339
2.86256
2.89884
2.94408
2.99982
3.06789
3.15046
3.25022
3.37056
3.51581
3.69163
3.90562
4.16807
4.49325
4.90116
5.42036
6.09241
6.97969
8.18054
9.8632
12.3546
16.4505
24.9132
15.1783
5.73769
4.64656
4.22569
3.93019
3.68728
3.48489
3.31784
3.18159
3.07178
2.98441
2.91587
2.86302
2.82311
2.7938
2.77307
2.75925
2.7509
2.74685
2.74612
2.7479
2.75154
2.75648
2.7623
2.76864
2.77522
2.78181
2.78824
2.79438
2.80015
2.80552
2.81036
2.81399
2.81593
2.8161
2.81465
2.81176
2.80756
2.80213
2.79555
2.78789
2.77925
2.76975
2.75955
2.74885
2.73791
2.72707
2.71677
2.70748
2.69975
2.69395
2.69046
2.6896
2.69169
2.69699
2.70591
2.7189
2.73672
2.76037
2.79095
2.8297
2.87803
2.93762
3.01046
3.09902
3.20642
3.33668
3.49515
3.68903
3.9283
4.22699
4.60524
5.09237
5.73202
6.591
7.77666
9.47694
12.0757
16.6063
27.4779
15.2235
5.64565
4.48968
4.05732
3.76375
3.52572
3.32842
3.16618
3.03446
2.92899
2.84583
2.78144
2.7327
2.69686
2.67159
2.65485
2.64496
2.64048
2.64021
2.64316
2.64851
2.65559
2.66385
2.67285
2.68223
2.6917
2.70104
2.71008
2.71869
2.72682
2.73445
2.74146
2.74732
2.75143
2.75362
2.75402
2.75281
2.75015
2.74613
2.74082
2.73429
2.72663
2.71795
2.70839
2.69811
2.68738
2.67651
2.66593
2.65617
2.6478
2.64129
2.63701
2.63528
2.63635
2.64038
2.64757
2.65837
2.67351
2.69389
2.72054
2.75459
2.79734
2.85029
2.91529
2.99457
3.091
3.20829
3.35142
3.5272
3.74522
4.01923
4.3694
4.82587
5.43461
6.26768
7.44293
9.16855
11.8735
16.7668
29.9546
15.2614
5.57044
4.35619
3.91229
3.61984
3.38582
3.19276
3.03446
2.90639
2.80439
2.72461
2.66355
2.61812
2.58559
2.56362
2.55017
2.54353
2.54227
2.54516
2.5512
2.55956
2.56957
2.58066
2.59237
2.60435
2.61632
2.62803
2.63934
2.65014
2.66038
2.67007
2.67912
2.68714
2.69348
2.69784
2.70031
2.70109
2.70035
2.6982
2.69472
2.68999
2.68408
2.67708
2.66911
2.66031
2.65089
2.64115
2.63147
2.62241
2.61456
2.6085
2.60458
2.6031
2.60428
2.60819
2.615
2.62507
2.63906
2.65777
2.68211
2.7131
2.75194
2.79999
2.8589
2.93074
3.01809
3.12439
3.25423
3.41399
3.61281
3.86409
4.18796
4.61534
5.19483
6.00485
7.17694
8.94633
11.7943
17.0623
32.4789
15.3074
5.50961
4.24317
3.78764
3.49535
3.26444
3.07478
2.91963
2.79447
2.69522
2.61809
2.55966
2.51685
2.48694
2.46759
2.45678
2.45277
2.45411
2.4596
2.46821
2.4791
2.49158
2.50508
2.51915
2.53341
2.54758
2.56143
2.57481
2.58763
2.59987
2.61154
2.6226
2.63277
2.64141
2.64811
2.65291
2.65599
2.65755
2.6577
2.65655
2.65418
2.65066
2.64607
2.6405
2.63406
2.62691
2.61929
2.61154
2.60417
2.59784
2.59318
2.59056
2.59027
2.5925
2.59731
2.60484
2.61541
2.62955
2.64794
2.67138
2.70078
2.73721
2.7819
2.83635
2.90241
2.98245
3.07958
3.19804
3.34374
3.5253
3.75563
4.05466
4.45395
5.00474
5.79274
6.96669
8.7995
11.8507
17.6148
35.223
15.385
5.4623
4.14945
3.68224
3.38899
3.16013
2.97303
2.82034
2.69744
2.60031
2.52523
2.46879
2.42796
2.40004
2.3827
2.3739
2.37194
2.37535
2.38292
2.39363
2.40663
2.42123
2.43685
2.45302
2.46936
2.48558
2.50146
2.51684
2.53165
2.54587
2.55953
2.57262
2.58498
2.59601
2.60524
2.61262
2.61832
2.62251
2.62535
2.62694
2.62739
2.62677
2.62514
2.6226
2.61921
2.61508
2.61039
2.60539
2.60058
2.59658
2.59409
2.59353
2.5952
2.59929
2.60587
2.61507
2.62713
2.64246
2.66164
2.68535
2.7144
2.74971
2.79239
2.84378
2.90555
2.97983
3.06944
3.17824
3.31165
3.47765
3.6885
3.96366
4.33494
4.85595
5.61991
6.79572
8.70535
12.0249
18.5131
38.4055
15.5417
5.43073
4.07599
3.59684
3.30118
3.07315
2.88771
2.73679
2.61556
2.51998
2.44636
2.39134
2.35189
2.32537
2.30945
2.30212
2.30168
2.30668
2.31591
2.32834
2.34315
2.35962
2.37717
2.39532
2.41367
2.43193
2.44985
2.46727
2.48413
2.50039
2.5161
2.5313
2.54587
2.55936
2.57127
2.58145
2.59001
2.59713
2.60296
2.60763
2.61124
2.61388
2.61562
2.61653
2.61668
2.61613
2.61497
2.61341
2.61183
2.61085
2.6112
2.61333
2.61766
2.62433
2.6334
2.64499
2.65928
2.6766
2.69742
2.72231
2.75197
2.7872
2.82898
2.87849
2.9372
3.00702
3.09051
3.19115
3.31382
3.46572
3.65824
3.90996
4.25236
4.74055
5.47469
6.64539
8.63331
12.2709
19.7188
42.3214
15.851
5.42886
4.03007
3.53556
3.23453
3.00545
2.82064
2.67075
2.5506
2.45602
2.38332
2.32916
2.29057
2.26494
2.24997
2.24366
2.24432
2.25054
2.26112
2.27505
2.29149
2.30974
2.32919
2.34934
2.36978
2.39016
2.41023
2.42981
2.44881
2.4672
2.48503
2.50237
2.51917
2.53512
2.54974
2.56283
2.57443
2.58466
2.59369
2.60164
2.60862
2.61473
2.62006
2.62468
2.62865
2.63202
2.63483
2.6372
2.63943
2.64207
2.64582
2.65129
2.65888
2.66868
2.68078
2.69526
2.71228
2.7321
2.75511
2.7818
2.81275
2.84866
2.89035
2.93886
2.99546
3.06184
3.14028
3.23403
3.34728
3.48626
3.6613
3.88953
4.20117
4.65149
5.3455
6.49578
8.54931
12.5347
21.1729
47.3962
16.5057
5.48089
4.02206
3.50388
3.19193
2.95969
2.77488
2.62534
2.50579
2.41175
2.33964
2.286
2.24792
2.22304
2.20884
2.20334
2.20491
2.21218
2.22398
2.23934
2.25742
2.2775
2.29896
2.32128
2.34399
2.36668
2.38904
2.41087
2.43207
2.45258
2.47248
2.49189
2.51085
2.52913
2.54635
2.56228
2.57689
2.59025
2.6025
2.61376
2.62415
2.63377
2.64273
2.65111
2.65897
2.66637
2.67332
2.6799
2.6863
2.69304
2.70075
2.71008
2.72133
2.73465
2.75009
2.76773
2.78769
2.81021
2.83565
2.86444
2.89708
2.93412
2.97627
3.02442
3.07967
3.1435
3.21785
3.30541
3.40988
3.5368
3.69492
3.89911
4.17701
4.58169
5.21791
6.31736
8.39936
12.7444
22.8014
54.2417
17.5975
5.78499
4.101
3.53082
3.1918
2.94481
2.7543
2.60439
2.4854
2.39178
2.32111
2.26905
2.23223
2.20818
2.19472
2.19003
2.19256
2.20099
2.21419
2.23119
2.25118
2.27345
2.29735
2.32226
2.34759
2.37277
2.39741
2.42133
2.44444
2.46672
2.48832
2.50948
2.53027
2.55052
2.56995
2.58833
2.60558
2.62175
2.63692
2.65122
2.66476
2.67765
2.69001
2.70193
2.71349
2.72475
2.73574
2.7465
2.75719
2.76829
2.7803
2.79371
2.80883
2.82578
2.84463
2.86536
2.88806
2.9131
2.94087
2.9717
3.00596
3.04414
3.0868
3.1347
3.18881
3.25038
3.32109
3.40322
3.49996
3.61596
3.75838
3.93915
4.17989
4.52418
5.07158
6.05168
8.01821
12.5286
23.986
63.5872
14.0084
6.07753
4.34587
3.65963
3.26159
2.98334
2.77562
2.61671
2.49601
2.40723
2.34102
2.29233
2.25795
2.23571
2.22382
2.22068
2.22486
2.23506
2.25018
2.26926
2.29152
2.31628
2.34293
2.37071
2.39871
2.42613
2.45228
2.47722
2.50101
2.52392
2.54624
2.56821
2.5899
2.6112
2.63187
2.65171
2.67065
2.6887
2.70594
2.72248
2.73841
2.75386
2.76894
2.78375
2.79839
2.81293
2.82743
2.84193
2.85657
2.87179
2.88792
2.90527
2.92407
2.94444
2.96637
2.98965
3.01473
3.04202
3.07178
3.10426
3.13978
3.17872
3.22157
3.26897
3.32172
3.38091
3.44795
3.52475
3.61395
3.71927
3.84624
4.00365
4.20679
4.48574
4.90744
5.64422
7.10378
10.341
17.739
31.9249
11.4182
6.29317
4.68965
3.88178
3.41816
3.09616
2.86243
2.68762
2.56704
2.48384
2.42598
2.38467
2.35533
2.33687
2.32814
2.32787
2.33472
2.34738
2.3647
2.38573
2.40966
2.4359
2.46425
2.49345
2.52211
2.54886
2.57362
2.59685
2.61891
2.64022
2.66116
2.68204
2.70285
2.72343
2.74357
2.76313
2.78205
2.80037
2.81816
2.83552
2.85253
2.86931
2.88595
2.90255
2.91922
2.93603
2.95308
2.97044
2.98833
3.00673
3.02593
3.04642
3.06819
3.09124
3.11561
3.14146
3.1688
3.19792
3.22903
3.2624
3.29834
3.33721
3.37944
3.42556
3.47626
3.53245
3.59529
3.66635
3.74772
3.84224
3.95392
4.08871
4.25617
4.47326
4.78013
5.25282
6.02676
7.29514
9.216
11.5763
9.87305
6.45727
5.00104
4.16872
3.66611
3.31087
3.05649
2.88891
2.78107
2.70988
2.6628
2.63008
2.60649
2.59191
2.58565
2.58673
2.59394
2.60613
2.62227
2.64151
2.66308
2.68637
2.7108
2.73469
2.75679
2.77652
2.79474
2.81163
2.82749
2.8427
2.85824
2.87486
2.89179
2.90864
2.92518
2.9414
2.95747
2.97347
2.98943
3.00542
3.02152
3.0378
3.05433
3.07119
3.08844
3.10617
3.1245
3.14354
3.1635
3.18371
3.20449
3.22644
3.24976
3.27437
3.3002
3.32767
3.35665
3.38699
3.41859
3.45184
3.48709
3.52473
3.56517
3.60889
3.65648
3.70868
3.76644
3.83098
3.90388
3.98722
4.08375
4.19733
4.33389
4.50638
4.73836
5.05546
5.48711
6.07107
6.83651
7.57965
8.7786
6.54435
5.32164
4.56391
4.0766
3.7313
3.49889
3.36906
3.28079
3.213
3.15857
3.11466
3.08174
3.05783
3.04156
3.0318
3.02765
3.02834
3.03312
3.04129
3.0521
3.06466
3.07754
3.0901
3.10207
3.11375
3.12515
3.13619
3.14666
3.15653
3.16602
3.17524
3.18386
3.19187
3.19946
3.20711
3.21589
3.2258
3.2365
3.248
3.2604
3.27371
3.28791
3.30299
3.31896
3.33592
3.35402
3.37355
3.39346
3.41363
3.43419
3.4555
3.47806
3.50203
3.5273
3.55379
3.58199
3.61165
3.64263
3.6746
3.7079
3.74293
3.78018
3.82011
3.86327
3.91025
3.96182
4.0189
4.08264
4.15447
4.23624
4.33064
4.44216
4.58144
4.7604
4.98599
5.26491
5.60274
5.98847
6.35069
8.13004
6.74549
5.81541
5.19621
4.8085
4.54075
4.34201
4.1853
4.05696
3.94715
3.85461
3.77966
3.7204
3.67333
3.63602
3.60669
3.58396
3.56677
3.55424
3.54559
3.54009
3.53701
3.53566
3.53591
3.53749
3.54008
3.54388
3.54852
3.55358
3.5585
3.56235
3.56438
3.56527
3.5654
3.56502
3.56443
3.56423
3.56476
3.56637
3.56983
3.57568
3.58358
3.59328
3.60457
3.61741
3.63189
3.64833
3.6657
3.68345
3.70143
3.71968
3.73839
3.75784
3.77842
3.8004
3.8236
3.84797
3.87387
3.9014
3.9303
3.96053
3.99165
4.02435
4.05907
4.09637
4.13681
4.18099
4.2296
4.28344
4.34346
4.41086
4.48769
4.57812
4.68983
4.82753
4.99263
5.18556
5.40447
5.63771
5.85296
8.06043
7.20715
6.53801
6.07069
5.73987
5.48209
5.27205
5.0953
4.94142
4.80698
4.691
4.59334
4.51058
4.44008
4.3797
4.32773
4.28278
4.24375
4.20973
4.17998
4.15382
4.13073
4.1103
4.09218
4.07626
4.06231
4.05001
4.03917
4.02961
4.02109
4.01334
4.00613
3.99942
3.99316
3.98727
3.98156
3.97543
3.9693
3.96401
3.96044
3.95948
3.96147
3.96589
3.97248
3.98119
3.99233
4.00471
4.01774
4.03119
4.04488
4.05876
4.0729
4.08746
4.10261
4.11872
4.13616
4.15457
4.17414
4.19503
4.21773
4.24199
4.26776
4.29503
4.32341
4.35368
4.38637
4.42203
4.4612
4.50445
4.55237
4.60577
4.66627
4.73786
4.82504
4.92933
5.0503
5.18657
5.33495
5.48707
5.62642
8.37653
7.80589
7.30741
6.91954
6.6203
6.37611
6.16978
5.99171
5.83472
5.6959
5.57225
5.46174
5.36278
5.27393
5.19387
5.12143
5.05554
4.9954
4.94025
4.88946
4.84253
4.79894
4.75829
4.72031
4.68501
4.65243
4.62211
4.59389
4.56766
4.54335
4.52087
4.50015
4.48116
4.46391
4.4484
4.43467
4.42276
4.41266
4.40443
4.39847
4.39454
4.39278
4.39312
4.39562
4.40051
4.40643
4.41303
4.42015
4.42763
4.43532
4.44314
4.45107
4.45919
4.46758
4.47639
4.48602
4.4966
4.50826
4.52101
4.535
4.55041
4.56789
4.58703
4.60791
4.63055
4.65475
4.68106
4.71005
4.74213
4.77771
4.81737
4.86255
4.91658
4.9817
5.05822
5.14518
5.24087
5.34229
5.44383
5.53641
8.86298
8.50432
8.131
7.7825
7.48677
7.23889
7.0316
6.85285
6.69626
6.5554
6.42639
6.30711
6.19671
6.094
5.99837
5.90935
5.82627
5.74858
5.67577
5.60727
5.54261
5.48137
5.4232
5.36785
5.31521
5.26574