/*--------------------------------*- C++ -*----------------------------------*\
| =========                 |                                                 |
| \\      /  F ield         | OpenFOAM: The Open Source CFD Toolbox           |
|  \\    /   O peration     | Version:  v2012                                 |
|   \\  /    A nd           | Website:  www.openfoam.com                      |
|    \\/     M anipulation  |                                                 |
\*---------------------------------------------------------------------------*/
FoamFile
{
    version     2.0;
    format      ascii;
    class       volScalarField;
    location    "660";
    object      p;
}
// * * * * * * * * * * * * * * * * * * * * * * * * * * * * * * * * * * * * * //

dimensions      [0 2 -2 0 0 0 0];


internalField   nonuniform List<scalar> 
6532
(
0.403481
0.402864
0.402529
0.402388
0.402327
0.402327
0.402387
0.402528
0.402863
0.403481
0.402793
0.402618
0.402446
0.402339
0.402289
0.402289
0.402338
0.402445
0.402617
0.402792
0.402318
0.402332
0.402264
0.402189
0.402154
0.402154
0.402189
0.402263
0.402331
0.402317
0.402028
0.402084
0.402049
0.401994
0.401969
0.401969
0.401993
0.402048
0.402083
0.402027
0.401796
0.401857
0.401833
0.401789
0.401768
0.401768
0.401788
0.401832
0.401855
0.401794
0.401574
0.40163
0.401612
0.401576
0.401558
0.401558
0.401574
0.401609
0.401628
0.401571
0.401357
0.401406
0.401387
0.401355
0.40134
0.401339
0.401353
0.401383
0.401402
0.401352
0.401143
0.401185
0.401164
0.401134
0.40112
0.401118
0.40113
0.401158
0.401178
0.401136
0.400931
0.400966
0.400943
0.400915
0.4009
0.400898
0.400909
0.400935
0.400956
0.400921
0.40072
0.400749
0.400725
0.400696
0.400681
0.400678
0.400687
0.400711
0.400733
0.400704
0.400509
0.400533
0.400508
0.400479
0.400463
0.400458
0.400466
0.400488
0.40051
0.400486
0.400301
0.40032
0.400294
0.400264
0.400245
0.400238
0.400243
0.400263
0.400285
0.400265
0.400095
0.400111
0.400082
0.40005
0.400028
0.400018
0.40002
0.400036
0.400058
0.400041
0.399894
0.399907
0.399876
0.39984
0.399812
0.399796
0.399793
0.399806
0.399827
0.399813
0.399702
0.399712
0.399676
0.399633
0.399597
0.399572
0.399562
0.39957
0.39959
0.39958
0.399522
0.399528
0.399486
0.399433
0.399383
0.399343
0.399321
0.399325
0.399346
0.399341
0.399361
0.399363
0.399311
0.399241
0.399168
0.399105
0.399065
0.39906
0.39909
0.399098
0.39923
0.399227
0.399159
0.399063
0.398956
0.398854
0.39878
0.398764
0.398817
0.398859
0.399144
0.399133
0.399045
0.398908
0.398746
0.398578
0.398433
0.398373
0.398473
0.398697
0.399126
0.399107
0.398989
0.398797
0.398554
0.39828
0.398008
0.397876
0.398075
0.398751
0.399205
0.399178
0.399025
0.39876
0.398401
0.397953
0.397406
0.39684
0.396161
0.392044
0.399425
0.399396
0.399208
0.398867
0.398391
0.397781
0.396961
0.395799
0.395211
0.397265
0.399838
0.399814
0.399596
0.399186
0.398604
0.397874
0.396955
0.39552
0.393709
0.395432
0.400492
0.400478
0.400234
0.399759
0.399071
0.398202
0.397156
0.395577
0.392791
0.393216
0.401433
0.401432
0.401163
0.400619
0.399822
0.398801
0.397587
0.39597
0.392948
0.392521
0.402712
0.402726
0.402427
0.401806
0.400892
0.399713
0.39831
0.396596
0.393431
0.391988
0.404385
0.404414
0.404077
0.403365
0.402309
0.400945
0.399307
0.397412
0.394194
0.391541
0.406515
0.406558
0.406173
0.405346
0.404114
0.402514
0.400568
0.398338
0.394971
0.391355
0.409178
0.409229
0.408789
0.407821
0.406372
0.404482
0.402164
0.399456
0.39573
0.391716
0.412471
0.412537
0.412019
0.41088
0.409176
0.406952
0.404229
0.40103
0.396904
0.392574
0.416498
0.416581
0.415961
0.414627
0.412629
0.41002
0.406843
0.403139
0.398672
0.393914
0.421364
0.421456
0.420726
0.419168
0.416831
0.413774
0.410057
0.405762
0.400869
0.395588
0.427203
0.427301
0.426446
0.424629
0.421897
0.418318
0.413965
0.408959
0.403428
0.397529
0.434168
0.434272
0.433272
0.431156
0.427971
0.42379
0.418699
0.412851
0.406485
0.399817
0.442422
0.442532
0.441367
0.438915
0.435217
0.430353
0.424421
0.417597
0.410205
0.402569
0.452134
0.452252
0.450907
0.448086
0.443824
0.438201
0.431324
0.423393
0.414789
0.405972
0.463478
0.463613
0.462076
0.45886
0.453993
0.447549
0.439643
0.430491
0.420519
0.410316
0.476613
0.476787
0.47505
0.471424
0.465927
0.458626
0.449637
0.439188
0.427733
0.415973
0.491495
0.491671
0.48971
0.485678
0.47956
0.471412
0.461346
0.449594
0.436626
0.423216
0.508068
0.508213
0.506035
0.501611
0.494902
0.485948
0.474854
0.461849
0.447405
0.432334
0.526525
0.526682
0.524312
0.519522
0.512261
0.502556
0.490508
0.476334
0.460492
0.443794
0.54694
0.547109
0.544553
0.539425
0.53167
0.521298
0.508404
0.493193
0.476094
0.457884
0.5693
0.569461
0.566713
0.561273
0.553085
0.542145
0.528543
0.512466
0.494309
0.474784
0.593469
0.593598
0.590644
0.58491
0.57635
0.564948
0.550792
0.534053
0.515081
0.494509
0.619221
0.619287
0.616105
0.610084
0.601206
0.589446
0.574892
0.557706
0.53819
0.516889
0.646257
0.646218
0.642772
0.636454
0.627297
0.615271
0.600469
0.583044
0.563258
0.541564
0.674199
0.674004
0.67024
0.663595
0.654181
0.641964
0.627045
0.609571
0.589768
0.568006
0.702591
0.70218
0.698027
0.69101
0.681345
0.668998
0.654072
0.636713
0.617112
0.595567
0.730891
0.730196
0.725574
0.718131
0.708219
0.695799
0.680968
0.663863
0.644644
0.623548
0.758464
0.757412
0.752243
0.744337
0.734202
0.721782
0.70715
0.690428
0.671743
0.651272
0.784555
0.783071
0.777309
0.768959
0.75868
0.746377
0.732078
0.715876
0.697858
0.678148
0.808225
0.806242
0.799965
0.791313
0.781061
0.769064
0.755283
0.739764
0.722548
0.703709
0.828282
0.825812
0.819306
0.810696
0.800794
0.789404
0.776397
0.761764
0.745499
0.727627
0.84277
0.840935
0.834811
0.826609
0.81747
0.807088
0.79518
0.781669
0.766513
0.7497
0.849963
0.849816
0.845489
0.838622
0.830879
0.821993
0.811542
0.799399
0.785504
0.769824
0.851946
0.852617
0.850837
0.846512
0.840992
0.834135
0.825499
0.814942
0.802415
0.787889
0.852168
0.852493
0.852298
0.850797
0.848062
0.843679
0.83719
0.828417
0.817329
0.803943
0.852148
0.851737
0.851944
0.852586
0.852558
0.850788
0.846627
0.839765
0.830162
0.817873
0.85278
0.851911
0.852008
0.853631
0.855671
0.856223
0.854066
0.848801
0.840498
0.829124
0.85388
0.853392
0.853814
0.855898
0.858898
0.861137
0.860814
0.85714
0.850508
0.840612
0.370922
0.373858
0.375683
0.37743
0.378947
0.380105
0.380889
0.381204
0.381069
0.380555
0.379652
0.378492
0.377232
0.375903
0.374625
0.373552
0.372795
0.372415
0.372463
0.372947
0.37378
0.374768
0.375631
0.376119
0.376289
0.379234
0.375562
0.375039
0.375911
0.377012
0.378001
0.378766
0.379175
0.379104
0.378561
0.377658
0.376553
0.375393
0.374253
0.373218
0.372377
0.371803
0.371565
0.371702
0.372219
0.373062
0.37411
0.375169
0.375938
0.376304
0.37974
0.376148
0.374977
0.37517
0.375822
0.376483
0.376986
0.377213
0.377093
0.37663
0.375882
0.374958
0.373975
0.37302
0.372173
0.371505
0.371074
0.370917
0.371053
0.371484
0.372177
0.373061
0.37403
0.374926
0.375576
0.378459
0.375238
0.374117
0.374221
0.374855
0.375485
0.375929
0.376092
0.375939
0.375478
0.374765
0.373886
0.372945
0.372037
0.371246
0.370634
0.370246
0.370109
0.370227
0.370595
0.371177
0.371909
0.372705
0.373502
0.374233
0.37904
0.374549
0.372888
0.372946
0.373727
0.374471
0.375004
0.375215
0.375085
0.374637
0.373932
0.373058
0.37212
0.371218
0.370436
0.369835
0.369452
0.369301
0.369381
0.36968
0.370166
0.370782
0.37145
0.37212
0.372828
0.380465
0.374765
0.372179
0.37203
0.372732
0.373527
0.374137
0.374421
0.374339
0.373921
0.373231
0.372363
0.371424
0.370519
0.369735
0.369134
0.368745
0.368576
0.368616
0.36885
0.369246
0.369755
0.37031
0.370849
0.371442
0.381271
0.375419
0.372379
0.371831
0.372209
0.372882
0.373468
0.373784
0.373741
0.373353
0.372679
0.371815
0.370871
0.369961
0.369172
0.368565
0.368168
0.367982
0.367988
0.368165
0.368479
0.368886
0.369329
0.369738
0.370197
0.381839
0.376479
0.37339
0.372315
0.372273
0.372693
0.373162
0.373425
0.373382
0.373004
0.372335
0.371465
0.370508
0.369582
0.368781
0.368165
0.367757
0.367552
0.367528
0.367656
0.3679
0.368219
0.36856
0.368857
0.369202
0.383064
0.377988
0.374865
0.373385
0.372978
0.373111
0.373377
0.373508
0.37338
0.372964
0.372273
0.371375
0.370385
0.369427
0.368598
0.367959
0.367531
0.367305
0.367252
0.36734
0.367526
0.367771
0.368027
0.368234
0.368482
0.384841
0.379919
0.376743
0.374989
0.374271
0.374108
0.374113
0.374047
0.373787
0.373282
0.372543
0.3716
0.37055
0.369531
0.368652
0.367971
0.367506
0.367247
0.367165
0.367216
0.367357
0.367543
0.367728
0.367862
0.368027
0.386872
0.382067
0.378875
0.376943
0.375963
0.375525
0.375295
0.375031
0.374613
0.373978
0.373138
0.37216
0.371036
0.369928
0.368968
0.368221
0.367695
0.367382
0.36726
0.36728
0.367386
0.367526
0.367653
0.367728
0.367825
0.388966
0.384259
0.381064
0.379027
0.377857
0.377205
0.376765
0.376327
0.37578
0.375044
0.374088
0.372991
0.371836
0.370641
0.369579
0.368743
0.36813
0.367726
0.367541
0.367524
0.367601
0.367709
0.367791
0.36782
0.36786
0.391048
0.386351
0.38312
0.381007
0.379711
0.378903
0.378303
0.377734
0.377093
0.37632
0.375337
0.374131
0.372882
0.371661
0.370512
0.369559
0.368826
0.368296
0.368018
0.367956
0.368004
0.368081
0.368124
0.368112
0.368111
0.393154
0.388279
0.384912
0.3827
0.381301
0.380381
0.379681
0.379036
0.37835
0.377572
0.376648
0.375513
0.374192
0.372908
0.371731
0.370653
0.369759
0.3691
0.368698
0.368554
0.36856
0.368605
0.368613
0.368567
0.368528
0.395388
0.390085
0.386418
0.384014
0.382482
0.381467
0.380701
0.380024
0.379349
0.378625
0.377803
0.37683
0.375655
0.374332
0.373111
0.372021
0.370965
0.370125
0.369583
0.36931
0.369222
0.369217
0.369199
0.369128
0.369048
0.397945
0.391932
0.38774
0.384981
0.383224
0.382074
0.38124
0.380551
0.379919
0.379292
0.378624
0.377861
0.376946
0.375837
0.374633
0.37355
0.372475
0.371415
0.370657
0.370242
0.370015
0.369896
0.369833
0.369742
0.369596
0.40113
0.394104
0.389105
0.385768
0.383628
0.382246
0.381297
0.380577
0.379982
0.379461
0.378973
0.37846
0.377858
0.377123
0.376223
0.375235
0.374231
0.373081
0.372003
0.371297
0.370967
0.370724
0.370517
0.370337
0.370069
0.405347
0.396995
0.390875
0.386681
0.383936
0.382166
0.380995
0.380181
0.379585
0.379147
0.378831
0.378581
0.378328
0.378012
0.377598
0.377095
0.376363
0.375341
0.374177
0.372876
0.371971
0.371622
0.371451
0.371048
0.370307
0.410948
0.401009
0.393465
0.388116
0.384505
0.382138
0.380595
0.379579
0.378912
0.378503
0.378315
0.378301
0.378391
0.378522
0.378644
0.378701
0.378617
0.3783
0.377472
0.376022
0.374021
0.372351
0.371551
0.371136
0.369706
0.41831
0.406581
0.397342
0.390539
0.385778
0.382566
0.380453
0.379087
0.378234
0.377769
0.37764
0.377805
0.378201
0.37877
0.379464
0.380228
0.380978
0.381535
0.381613
0.381336
0.379889
0.377074
0.374231
0.37372
0.375532
0.427954
0.414279
0.403091
0.394523
0.388291
0.383933
0.380984
0.379057
0.37786
0.377217
0.377045
0.377297
0.377924
0.378879
0.380127
0.381641
0.383388
0.385299
0.387227
0.389002
0.390466
0.390763
0.390717
0.391274
0.393085
0.44027
0.424586
0.411267
0.40066
0.392633
0.386801
0.382712
0.379952
0.378192
0.377202
0.376846
0.377053
0.377778
0.378989
0.380663
0.382785
0.385343
0.388337
0.391781
0.395633
0.399692
0.40367
0.408008
0.412859
0.417529
0.455544
0.43791
0.422389
0.409542
0.399431
0.391794
0.386232
0.382329
0.379728
0.378153
0.37742
0.377415
0.378073
0.379367
0.381298
0.383846
0.386942
0.390514
0.394523
0.398942
0.403698
0.408695
0.414119
0.420047
0.426087
0.473897
0.454502
0.43685
0.421686
0.409284
0.399551
0.392183
0.386801
0.38304
0.38059
0.379221
0.378776
0.379163
0.380354
0.382373
0.38514
0.388498
0.392338
0.396567
0.401177
0.406173
0.411449
0.416877
0.422297
0.427621
0.495242
0.474401
0.454849
0.437451
0.422686
0.410654
0.401192
0.393999
0.388736
0.385081
0.382768
0.381595
0.381432
0.38224
0.384052
0.386752
0.390113
0.393996
0.398335
0.403047
0.408018
0.413131
0.41827
0.423269
0.427961
0.51927
0.49739
0.476312
0.456946
0.439921
0.425532
0.413789
0.404511
0.397421
0.392216
0.388615
0.386379
0.385326
0.38541
0.386657
0.38896
0.392073
0.395827
0.400103
0.404751
0.409612
0.414542
0.419402
0.424043
0.428327
0.545459
0.522992
0.500865
0.47995
0.460962
0.444349
0.430298
0.418776
0.40961
0.402552
0.397334
0.393699
0.391421
0.390395
0.390727
0.39237
0.39498
0.398312
0.402232
0.406589
0.411204
0.4159
0.420511
0.424883
0.428886
0.573126
0.550511
0.527841
0.505898
0.4854
0.46689
0.4507
0.43695
0.425596
0.41648
0.409385
0.404071
0.400297
0.397873
0.396898
0.397474
0.399271
0.401896
0.40518
0.408985
0.413131
0.417429
0.421701
0.425787
0.429548
0.601508
0.579117
0.556372
0.533932
0.512458
0.492521
0.474545
0.458777
0.445302
0.434075
0.42496
0.417767
0.412281
0.408278
0.405683
0.404734
0.405352
0.407022
0.409423
0.412407
0.415823
0.419494
0.423238
0.426894
0.430322
0.629851
0.607967
0.585516
0.563036
0.541102
0.520258
0.500962
0.483541
0.46819
0.454971
0.443846
0.434701
0.427374
0.421676
0.417412
0.414652
0.413549
0.413897
0.415229
0.41721
0.419686
0.422505
0.425507
0.428538
0.431458
0.657493
0.636299
0.614392
0.592206
0.570225
0.548939
0.528795
0.510159
0.493292
0.478347
0.465376
0.454349
0.445175
0.437724
0.431843
0.427393
0.424384
0.422846
0.422594
0.423353
0.424796
0.426642
0.428755
0.431005
0.433247
0.683914
0.663512
0.642285
0.620589
0.598831
0.577442
0.556839
0.53739
0.519392
0.503055
0.488503
0.475781
0.464865
0.455689
0.448152
0.442137
0.437531
0.434218
0.432135
0.431177
0.431114
0.431719
0.432835
0.434252
0.435746
0.708752
0.689182
0.668683
0.647554
0.626149
0.60485
0.584041
0.564079
0.545273
0.527864
0.512024
0.497852
0.485384
0.474605
0.46546
0.45787
0.451736
0.446943
0.443352
0.440781
0.439129
0.438306
0.43811
0.43835
0.438873
0.731777
0.713038
0.693248
0.672678
0.651645
0.630503
0.609612
0.589315
0.569922
0.551689
0.534816
0.519441
0.505641
0.493444
0.482832
0.473756
0.466139
0.459884
0.454872
0.450968
0.448043
0.445944
0.444462
0.443487
0.442971
0.752862
0.734913
0.715769
0.695688
0.674973
0.653963
0.63301
0.612451
0.592591
0.573698
0.555984
0.539613
0.52469
0.511273
0.499376
0.488975
0.480014
0.472416
0.46608
0.460889
0.456716
0.453426
0.450877
0.448952
0.447543
0.771848
0.754615
0.73602
0.716331
0.695847
0.674906
0.653862
0.633053
0.612786
0.593331
0.574912
0.557707
0.54184
0.527392
0.514398
0.502856
0.492729
0.483957
0.476455
0.47012
0.464841
0.460497
0.456963
0.454118
0.451847
0.788746
0.772103
0.753898
0.734419
0.713994
0.692991
0.671779
0.650694
0.63004
0.610084
0.591057
0.573146
0.556488
0.541179
0.527269
0.514771
0.503667
0.493909
0.485425
0.478128
0.471915
0.466677
0.462297
0.458664
0.455663
0.803399
0.787171
0.769181
0.749796
0.729363
0.708244
0.686828
0.665465
0.644455
0.624065
0.604525
0.586028
0.568721
0.552707
0.538049
0.524772
0.512868
0.502301
0.493012
0.484924
0.477942
0.471966
0.466889
0.462603
0.459001
0.815078
0.799031
0.781105
0.761688
0.741161
0.719904
0.698282
0.676638
0.655281
0.634484
0.614486
0.595482
0.577629
0.561037
0.54578
0.531892
0.519371
0.508191
0.498299
0.489626
0.482083
0.475574
0.469995
0.465241
0.461199
0.827411
0.811608
0.793762
0.774319
0.75364
0.73211
0.710121
0.688033
0.666171
0.64482
0.624227
0.604599
0.5861
0.568852
0.552935
0.538389
0.525224
0.513423
0.502945
0.493719
0.485662
0.478679
0.47267
0.467532
0.463164
0.366891
0.366949
0.367357
0.375019
0.373404
0.383033
0.396385
0.402549
0.41392
0.422116
0.426949
0.432117
0.431232
0.435231
0.438284
0.432281
0.43605
0.438943
0.431944
0.43522
0.437935
0.431904
0.434806
0.437234
0.432204
0.434875
0.437109
0.432673
0.43519
0.437305
0.433214
0.435572
0.437577
0.433981
0.436084
0.437908
0.435242
0.436952
0.438472
0.437123
0.438339
0.439448
0.439502
0.440141
0.440771
0.442791
0.442779
0.442841
0.44659
0.445919
0.445383
0.450158
0.448876
0.447799
0.45335
0.451548
0.450005
0.456179
0.453941
0.452011
0.457974
0.455399
0.453199
0.459624
0.456751
0.454311
0.463693
0.463645
0.463461
0.46284
0.461494
0.459487
0.457012
0.454248
0.451345
0.448412
0.445521
0.442716
0.440026
0.437464
0.435037
0.432744
0.430584
0.428553
0.426645
0.424855
0.423178
0.421607
0.420138
0.418766
0.417485
0.416291
0.415181
0.414149
0.413195
0.412312
0.4115
0.410756
0.410077
0.409463
0.408913
0.408426
0.408005
0.407653
0.407371
0.407165
0.40704
0.407002
0.407059
0.407225
0.407508
0.407915
0.408455
0.409138
0.409981
0.411002
0.412212
0.41362
0.415235
0.417069
0.419133
0.421436
0.423985
0.426788
0.429846
0.43316
0.436722
0.440519
0.444526
0.448707
0.453005
0.457348
0.461642
0.46576
0.469493
0.472562
0.474772
0.47617
0.476812
0.47653
0.475467
0.474045
0.472732
0.472085
0.472159
0.472515
0.463825
0.463656
0.463339
0.462414
0.46081
0.458691
0.456201
0.453489
0.450676
0.447847
0.445063
0.442359
0.43976
0.437277
0.434916
0.43268
0.430566
0.428573
0.426696
0.424932
0.423275
0.42172
0.420263
0.4189
0.417626
0.416437
0.41533
0.4143
0.413345
0.412462
0.411648
0.4109
0.410216
0.409594
0.409034
0.408535
0.4081
0.407728
0.407425
0.407193
0.407039
0.406969
0.40699
0.407107
0.40733
0.407674
0.408148
0.408766
0.409536
0.410467
0.411574
0.412869
0.414362
0.416064
0.417983
0.420125
0.422498
0.425106
0.42795
0.43103
0.434339
0.437862
0.441579
0.445455
0.449444
0.45348
0.457484
0.461352
0.464945
0.468092
0.470645
0.472537
0.473721
0.474089
0.47362
0.472574
0.471503
0.470954
0.471124
0.471762
0.463872
0.463211
0.462288
0.460881
0.459031
0.456854
0.454442
0.451892
0.449275
0.44665
0.444058
0.441527
0.439079
0.436726
0.434475
0.432331
0.430296
0.428368
0.426546
0.424828
0.423209
0.421687
0.420257
0.418917
0.417662
0.416488
0.415394
0.414375
0.413428
0.412551
0.411742
0.410997
0.410315
0.409691
0.409127
0.40862
0.408172
0.407785
0.407461
0.407203
0.407018
0.406911
0.406889
0.40696
0.407132
0.407415
0.407821
0.408362
0.40905
0.409895
0.410909
0.412104
0.413488
0.41507
0.416858
0.418858
0.421074
0.423512
0.426173
0.429055
0.432152
0.435454
0.438939
0.442581
0.446337
0.450154
0.453962
0.457675
0.46119
0.464394
0.46716
0.469376
0.47097
0.471905
0.472163
0.471844
0.471251
0.470781
0.470748
0.471116
0.462753
0.461719
0.460417
0.45878
0.456856
0.454721
0.45244
0.450067
0.447649
0.445223
0.442818
0.440459
0.438163
0.435945
0.433812
0.43177
0.429823
0.427972
0.426216
0.424555
0.422986
0.421506
0.420113
0.418803
0.417575
0.416424
0.415348
0.414345
0.413412
0.412546
0.411746
0.411007
0.410328
0.409705
0.409135
0.408619
0.408156
0.407747
0.407396
0.407106
0.406881
0.406728
0.406653
0.406662
0.406766
0.406974
0.407297
0.407747
0.408336
0.409076
0.409978
0.411054
0.412311
0.413758
0.4154
0.417242
0.419288
0.421542
0.424006
0.42668
0.42956
0.432637
0.435897
0.439316
0.442862
0.446491
0.450147
0.453761
0.457253
0.460535
0.463512
0.466082
0.468177
0.469753
0.470765
0.471237
0.47132
0.47119
0.471038
0.471034
0.460586
0.459387
0.458022
0.456391
0.454522
0.452489
0.450346
0.448135
0.445887
0.443632
0.441392
0.439189
0.437037
0.434949
0.432934
0.430998
0.429145
0.427378
0.425697
0.424101
0.422589
0.42116
0.41981
0.418539
0.417343
0.416221
0.415169
0.414187
0.413272
0.412422
0.411635
0.410908
0.410236
0.409615
0.409042
0.408517
0.40804
0.407611
0.407231
0.406906
0.40664
0.406438
0.406306
0.406252
0.406283
0.406411
0.406644
0.406998
0.407486
0.40812
0.408911
0.409869
0.411002
0.412316
0.413814
0.4155
0.417375
0.419445
0.421711
0.424173
0.426831
0.429678
0.432703
0.435889
0.43921
0.442633
0.446114
0.449601
0.453032
0.45634
0.459455
0.46231
0.464856
0.467044
0.468806
0.470115
0.471031
0.471519
0.471397
0.471068
0.457918
0.456639
0.455325
0.45378
0.452025
0.450126
0.448132
0.446077
0.44399
0.441893
0.439809
0.437753
0.43574
0.433781
0.431885
0.430058
0.428304
0.426626
0.425024
0.423499
0.422051
0.420677
0.419377
0.418149
0.416991
0.415901
0.414878
0.41392
0.413026
0.412195
0.411426
0.410716
0.410059
0.409446
0.408873
0.408344
0.407853
0.407399
0.406986
0.40662
0.406307
0.406051
0.405857
0.405733
0.405685
0.405724
0.405862
0.406113
0.406498
0.407031
0.407714
0.408556
0.40957
0.410757
0.412117
0.413651
0.415359
0.417246
0.419315
0.421568
0.424005
0.426624
0.429417
0.432371
0.43547
0.438687
0.441991
0.445343
0.448697
0.452004
0.455213
0.458277
0.461157
0.46381
0.466179
0.468216
0.469927
0.471121
0.471231
0.470749
0.454879
0.453659
0.452463
0.451039
0.449424
0.447675
0.445836
0.443937
0.442006
0.440063
0.438127
0.436214
0.434337
0.432505
0.430727
0.429009
0.427354
0.425767
0.424247
0.422796
0.421414
0.420099
0.418852
0.417669
0.416551
0.415495
0.414502
0.413571
0.4127
0.411892
0.411148
0.410466
0.409836
0.409231
0.408641
0.40808
0.407556
0.407069
0.406622
0.40622
0.405866
0.405564
0.405319
0.405137
0.405025
0.404991
0.405046
0.405202
0.405472
0.405875
0.406429
0.407158
0.408072
0.409155
0.410394
0.411787
0.413338
0.415053
0.416935
0.418989
0.421218
0.42362
0.426193
0.428929
0.431816
0.434837
0.437968
0.441181
0.444444
0.447718
0.450967
0.454154
0.457246
0.460211
0.462998
0.465554
0.467863
0.469728
0.470377
0.469888
0.451678
0.450591
0.449543
0.448259
0.446797
0.445205
0.443521
0.441777
0.439997
0.438203
0.436412
0.434637
0.43289
0.431182
0.429519
0.427908
0.426352
0.424855
0.423417
0.42204
0.420724
0.419468
0.418273
0.417136
0.416057
0.415036
0.414072
0.413166
0.412317
0.411532
0.410817
0.410158
0.409521
0.408892
0.408277
0.407685
0.407127
0.406614
0.406144
0.405717
0.405336
0.405005
0.404728
0.404509
0.404355
0.404272
0.404268
0.404351
0.40453
0.404818
0.405245
0.405835
0.40661
0.407583
0.40872
0.409988
0.411395
0.41295
0.41466
0.416531
0.418568
0.420772
0.423144
0.425681
0.428374
0.431212
0.434179
0.437255
0.440415
0.44363
0.446869
0.450102
0.453297
0.456423
0.459435
0.462273
0.46491
0.467225
0.468489
0.468199
0.448521
0.447575
0.446663
0.44552
0.444211
0.442774
0.441245
0.439653
0.438024
0.436375
0.434723
0.433081
0.431461
0.429872
0.428321
0.426812
0.425352
0.423941
0.422582
0.421277
0.420025
0.418826
0.41768
0.416587
0.415546
0.414556
0.413618
0.412732
0.411898
0.411124
0.41042
0.409755
0.409087
0.408432
0.407807
0.407213
0.406652
0.406129
0.405644
0.405201
0.4048
0.404447
0.404145
0.403896
0.403707
0.403582
0.403529
0.403559
0.403681
0.403909
0.404255
0.404727
0.405354
0.406178
0.407187
0.408331
0.4096
0.411007
0.412559
0.414266
0.416131
0.41816
0.420354
0.422712
0.425231
0.427903
0.430718
0.43366
0.436709
0.439841
0.443029
0.446243
0.44945
0.452613
0.455684
0.458597
0.461301
0.463714
0.465291
0.465327
0.445504
0.444683
0.44389
0.442881
0.441722
0.440439
0.439064
0.437624
0.436142
0.434635
0.433118
0.431606
0.430107
0.428631
0.427185
0.425774
0.424403
0.423074
0.421789
0.42055
0.419358
0.418212
0.417112
0.416059
0.415051
0.414088
0.413171
0.412298
0.411471
0.410694
0.409975
0.409292
0.408622
0.407975
0.407353
0.406758
0.406194
0.405664
0.405171
0.404716
0.404301
0.403931
0.403608
0.403336
0.403117
0.402959
0.402866
0.402848
0.402918
0.403089
0.403373
0.40378
0.404321
0.405016
0.405874
0.406875
0.408006
0.409273
0.410683
0.412244
0.41396
0.415837
0.417877
0.420081
0.422449
0.424975
0.427652
0.430467
0.433404
0.436439
0.439547
0.442694
0.445843
0.44895
0.45196
0.454801
0.4574
0.459679
0.461231
0.461396
0.442644
0.441939
0.441258
0.440384
0.439376
0.438249
0.437031
0.435744
0.434408
0.43304
0.431654
0.430264
0.42888
0.42751
0.426161
0.42484
0.423551
0.422296
0.421079
0.4199
0.41876
0.417661
0.416602
0.415583
0.414603
0.413663
0.412762
0.4119
0.411076
0.41029
0.409549
0.408856
0.408199
0.40756
0.406941
0.406345
0.405779
0.405245
0.404746
0.404282
0.403857
0.403474
0.403135
0.402844
0.402603
0.402417
0.402291
0.402235
0.402259
0.40238
0.40261
0.40296
0.40344
0.404051
0.40478
0.405635
0.406633
0.407774
0.409061
0.410498
0.412089
0.413839
0.415752
0.417829
0.420071
0.422474
0.425032
0.427734
0.430565
0.433501
0.436514
0.439567
0.442614
0.445604
0.448472
0.451139
0.453528
0.455557
0.456915
0.457006
0.439929
0.439338
0.438777
0.438053
0.437209
0.43625
0.435195
0.434063
0.432873
0.431641
0.430381
0.429106
0.427828
0.426554
0.425294
0.424052
0.422835
0.421645
0.420485
0.419358
0.418264
0.417204
0.416178
0.415187
0.414231
0.413308
0.41242
0.411565
0.410743
0.409951
0.409194
0.408494
0.407842
0.407208
0.40659
0.405994
0.405426
0.404889
0.404384
0.403914
0.403481
0.403087
0.402736
0.402429
0.402171
0.401963
0.401811
0.401723
0.401711
0.401792
0.401979
0.402286
0.402714
0.403236
0.403845
0.404587
0.40548
0.40652
0.407707
0.409045
0.410537
0.412188
0.414002
0.415981
0.418126
0.420433
0.422898
0.425509
0.428251
0.431099
0.434021
0.436974
0.439904
0.442747
0.445427
0.447858
0.449947
0.451603
0.452651
0.452582
0.437315
0.436851
0.43644
0.435898
0.435247
0.434477
0.4336
0.432631
0.431588
0.430488
0.429346
0.428177
0.426993
0.425804
0.424619
0.423445
0.422287
0.421151
0.420038
0.418951
0.417893
0.416863
0.415864
0.414894
0.413954
0.413045
0.412165
0.411315
0.410494
0.4097
0.408935
0.408225
0.407569
0.406934
0.406315
0.405718
0.405148
0.404606
0.404096
0.40362
0.403179
0.402777
0.402415
0.402097
0.401824
0.401599
0.401427
0.401314
0.401273
0.401322
0.401479
0.401754
0.40212
0.402541
0.40306
0.403729
0.404548
0.405514
0.406628
0.407894
0.409315
0.410897
0.412643
0.414555
0.416634
0.418878
0.42128
0.423831
0.426513
0.4293
0.432154
0.435028
0.437857
0.440564
0.443063
0.445256
0.447017
0.448256
0.449044
0.44862
0.434707
0.43441
0.43421
0.433918
0.433515
0.432971
0.432292
0.431495
0.4306
0.429626
0.428592
0.427515
0.426411
0.425292
0.424167
0.423045
0.421933
0.420836
0.419757
0.4187
0.417666
0.416657
0.415674
0.414717
0.413788
0.412885
0.41201
0.411162
0.410342
0.409546
0.408778
0.408057
0.407387
0.406746
0.406125
0.405526
0.404951
0.404405
0.403889
0.403406
0.402958
0.402548
0.402177
0.401849
0.401564
0.401327
0.401139
0.401006
0.400942
0.400969
0.401106
0.401337
0.40162
0.40197
0.402446
0.403071
0.403842
0.40476
0.405827
0.407048
0.408427
0.409969
0.411678
0.413556
0.415605
0.417821
0.4202
0.42273
0.425392
0.428159
0.43099
0.433829
0.436603
0.439225
0.4416
0.443615
0.44511
0.446096
0.446978
0.446
0.431906
0.431867
0.432018
0.432104
0.43204
0.431778
0.431324
0.430708
0.429956
0.429097
0.428156
0.427154
0.426112
0.425042
0.423959
0.422872
0.421788
0.420715
0.419655
0.418614
0.417593
0.416593
0.415617
0.414666
0.413739
0.412838
0.411962
0.411113
0.410289
0.409492
0.408722
0.407988
0.4073
0.406648
0.406023
0.405419
0.404839
0.404287
0.403765
0.403275
0.40282
0.402402
0.402023
0.401686
0.401392
0.401144
0.400944
0.400796
0.400715
0.400726
0.400838
0.401008
0.401229
0.401552
0.402013
0.402616
0.403363
0.404257
0.405302
0.406505
0.40787
0.409402
0.411105
0.412984
0.415038
0.417267
0.419665
0.422221
0.424916
0.42772
0.430587
0.433455
0.436237
0.43883
0.441115
0.442931
0.444107
0.445028
0.446417
0.444358
0.428496
0.428996
0.429775
0.430475
0.430894
0.430974
0.430762
0.430325
0.429704
0.428941
0.428069
0.427118
0.426112
0.42507
0.424006
0.422933
0.42186
0.420793
0.419737
0.418697
0.417676
0.416675
0.415696
0.414741
0.41381
0.412903
0.412022
0.411167
0.410338
0.409536
0.408762
0.408013
0.407303
0.406638
0.406006
0.405397
0.404811
0.404253
0.403724
0.403227
0.402765
0.402339
0.401952
0.401607
0.401306
0.40105
0.400841
0.400683
0.40059
0.400585
0.400655
0.400776
0.40098
0.401308
0.401768
0.402367
0.40311
0.404002
0.405049
0.406258
0.407635
0.409185
0.410914
0.412826
0.414924
0.417208
0.419672
0.422308
0.425096
0.428007
0.430993
0.433982
0.436871
0.439516
0.441715
0.443145
0.443565
0.443874
0.444307
0.438016
0.423349
0.425261
0.427446
0.429099
0.430146
0.430655
0.430709
0.430419
0.429892
0.429187
0.428351
0.42742
0.426421
0.425377
0.424308
0.423226
0.422142
0.421064
0.419996
0.418944
0.41791
0.416896
0.415905
0.414938
0.413995
0.413078
0.412186
0.411321
0.410484
0.409674
0.408889
0.408123
0.407392
0.406713
0.406071
0.405455
0.404864
0.404299
0.403764
0.403261
0.402792
0.402359
0.401966
0.401614
0.401306
0.401045
0.40083
0.400666
0.400562
0.400533
0.400569
0.400679
0.400898
0.40124
0.401713
0.402324
0.403081
0.40399
0.40506
0.406297
0.407708
0.409302
0.411085
0.413062
0.415238
0.417615
0.420192
0.422963
0.425914
0.42902
0.43224
0.435505
0.438711
0.441687
0.444145
0.44558
0.445613
0.444634
0.439158
0.41988
0.414738
0.42109
0.42557
0.428367
0.430049
0.430943
0.431239
0.431067
0.430565
0.429853
0.429006
0.428053
0.427026
0.42595
0.424848
0.423735
0.422621
0.421514
0.420419
0.419341
0.418283
0.417247
0.416235
0.415248
0.414288
0.413356
0.412451
0.411575
0.410727
0.409902
0.409093
0.408305
0.40756
0.406867
0.406215
0.405592
0.404995
0.404425
0.403885
0.403376
0.402902
0.402465
0.402067
0.401711
0.401399
0.401135
0.400919
0.400754
0.40064
0.400583
0.400608
0.400737
0.400982
0.401348
0.401846
0.402484
0.403271
0.404215
0.405325
0.406609
0.408076
0.409735
0.411595
0.413663
0.415947
0.418452
0.421182
0.424136
0.42731
0.430694
0.434267
0.437993
0.441812
0.445633
0.44927
0.452361
0.454917
0.456132
0.443916
0.408038
0.394711
0.416021
0.424284
0.428705
0.430993
0.432081
0.432424
0.432267
0.431738
0.43095
0.430013
0.428988
0.42789
0.426749
0.425588
0.424422
0.423261
0.42211
0.420976
0.419862
0.418771
0.417704
0.416665
0.415654
0.414674
0.413725
0.412809
0.41192
0.411049
0.410192
0.409356
0.408555
0.407802
0.407098
0.406435
0.405805
0.405203
0.404629
0.404086
0.403575
0.403099
0.40266
0.402261
0.401904
0.401593
0.40133
0.401118
0.400957
0.400844
0.400774
0.40079
0.40094
0.40122
0.401623
0.402159
0.402836
0.403667
0.404658
0.405822
0.407167
0.408704
0.410444
0.412397
0.414574
0.416983
0.419634
0.422536
0.425696
0.42912
0.432814
0.436782
0.441029
0.445571
0.45048
0.455799
0.46148
0.468019
0.475233
0.477208
0.479315
0.404844
0.41985
0.426919
0.431246
0.433337
0.434207
0.43434
0.433995
0.433321
0.432415
0.431352
0.43019
0.428968
0.427725
0.426483
0.425248
0.424026
0.422823
0.421641
0.420485
0.419354
0.418253
0.417182
0.416144
0.415142
0.41418
0.413246
0.412327
0.411421
0.410538
0.40969
0.408883
0.40812
0.407405
0.406732
0.406094
0.405488
0.404913
0.404369
0.403858
0.403383
0.402946
0.40255
0.402198
0.401893
0.401637
0.401436
0.401289
0.401191
0.401135
0.401144
0.401289
0.401599
0.402051
0.402637
0.403366
0.404249
0.405299
0.406525
0.407941
0.409558
0.411388
0.413443
0.415736
0.418278
0.421081
0.424159
0.427523
0.431188
0.435169
0.439484
0.444154
0.44925
0.454969
0.461379
0.468326
0.475754
0.483705
0.492298
0.505721
0.424767
0.430195
0.433661
0.435852
0.436794
0.437003
0.436712
0.43607
0.435179
0.434106
0.432901
0.431589
0.430217