/*--------------------------------*- C++ -*----------------------------------*\
| =========                 |                                                 |
| \\      /  F ield         | OpenFOAM: The Open Source CFD Toolbox           |
|  \\    /   O peration     | Version:  v2012                                 |
|   \\  /    A nd           | Website:  www.openfoam.com                      |
|    \\/     M anipulation  |                                                 |
\*---------------------------------------------------------------------------*/
FoamFile
{
    version     2.0;
    format      ascii;
    class       surfaceScalarField;
    location    "660";
    object      phi;
}
// * * * * * * * * * * * * * * * * * * * * * * * * * * * * * * * * * * * * * //

dimensions      [0 3 -1 0 0 0 0];
oriented        oriented;


internalField   nonuniform List<scalar> 
12792
(
5.13181e-08
0.000199949
3.49183e-08
0.000200016
2.11402e-08
0.000200014
9.98948e-09
0.000200011
1.73515e-11
0.00020001
-9.95772e-09
0.00020001
-2.11168e-08
0.000200011
-3.49076e-08
0.000200014
-5.13157e-08
0.000200016
0.000199949
8.26973e-08
0.000199866
7.30692e-08
0.000200026
4.95826e-08
0.000200037
2.46264e-08
0.000200036
5.25207e-11
0.000200035
-2.45294e-08
0.000200035
-4.95091e-08
0.000200036
-7.30315e-08
0.000200037
-8.26893e-08
0.000200026
0.000199866
8.54366e-08
0.000199781
8.59689e-08
0.000200025
6.25104e-08
0.000200061
3.22092e-08
0.000200066
1.00925e-10
0.000200067
-3.20182e-08
0.000200067
-6.23481e-08
0.000200066
-8.58408e-08
0.000200061
-8.53622e-08
0.000200026
0.000199781
8.25983e-08
0.000199698
8.64934e-08
0.000200022
6.54878e-08
0.000200082
3.46643e-08
0.000200097
1.69797e-10
0.000200101
-3.43411e-08
0.000200101
-6.52112e-08
0.000200097
-8.62912e-08
0.000200082
-8.24874e-08
0.000200022
0.000199698
7.89717e-08
0.000199619
8.39596e-08
0.000200017
6.46798e-08
0.000200101
3.46577e-08
0.000200127
2.69589e-10
0.000200136
-3.41433e-08
0.000200136
-6.42376e-08
0.000200127
-8.36354e-08
0.000200101
-7.8797e-08
0.000200017
0.000199619
7.45879e-08
0.000199544
7.99739e-08
0.000200011
6.23431e-08
0.000200119
3.3662e-08
0.000200156
4.14565e-10
0.000200169
-3.2873e-08
0.000200169
-6.16705e-08
0.000200156
-7.94775e-08
0.000200119
-7.43177e-08
0.000200012
0.000199545
7.02945e-08
0.000199474
7.54498e-08
0.000200006
5.8951e-08
0.000200135
3.20661e-08
0.000200183
6.33444e-10
0.0002002
-3.08613e-08
0.0002002
-5.7925e-08
0.000200183
-7.46943e-08
0.000200136
-6.98815e-08
0.000200007
0.000199475
6.65326e-08
0.000199408
7.12837e-08
0.000200001
5.57724e-08
0.000200151
3.05268e-08
0.000200208
9.69829e-10
0.00020023
-2.868e-08
0.00020023
-5.41937e-08
0.000200209
-7.0121e-08
0.000200152
-6.58956e-08
0.000200003
0.000199409
6.34281e-08
0.000199344
6.78044e-08
0.000199997
5.31462e-08
0.000200165
2.93467e-08
0.000200232
1.48223e-09
0.000200258
-2.65231e-08
0.000200258
-5.07303e-08
0.000200233
-6.60227e-08
0.000200167
-6.24495e-08
0.000199999
0.000199347
6.098e-08
0.000199283
6.51043e-08
0.000199993
5.12016e-08
0.000200179
2.86631e-08
0.000200254
2.25933e-09
0.000200284
-2.43586e-08
0.000200285
-4.75183e-08
0.000200256
-6.23927e-08
0.000200182
-5.9491e-08
0.000199996
0.000199287
5.9155e-08
0.000199224
6.32092e-08
0.000199989
5.00342e-08
0.000200192
2.86056e-08
0.000200276
3.43518e-09
0.000200309
-2.20617e-08
0.00020031
-4.44384e-08
0.000200279
-5.91023e-08
0.000200197
-5.69037e-08
0.000199994
0.00019923
5.7957e-08
0.000199166
6.21863e-08
0.000199985
4.97629e-08
0.000200205
2.9345e-08
0.000200296
5.20864e-09
0.000200333
-1.94303e-08
0.000200335
-4.12989e-08
0.0002003
-5.59745e-08
0.000200211
-5.45567e-08
0.000199993
0.000199176
5.74614e-08
0.000199109
6.2216e-08
0.00019998
5.06245e-08
0.000200216
3.11679e-08
0.000200316
7.88994e-09
0.000200357
-1.61668e-08
0.000200359
-3.78446e-08
0.000200322
-5.28122e-08
0.000200226
-5.23267e-08
0.000199992
0.000199124
5.78136e-08
0.000199051
6.35646e-08
0.000199974
5.30408e-08
0.000200227
3.45629e-08
0.000200334
1.1973e-08
0.000200379
-1.18373e-08
0.000200383
-3.37571e-08
0.000200344
-4.94298e-08
0.000200242
-5.01233e-08
0.000199993
0.000199073
5.91391e-08
0.000198992
6.64763e-08
0.000199967
5.75454e-08
0.000200236
4.02763e-08
0.000200351
1.82241e-08
0.000200401
-5.80134e-09
0.000200407
-2.86355e-08
0.000200367
-4.56941e-08
0.000200259
-4.799e-08
0.000199995
0.000199025
6.19521e-08
0.00019893
7.19784e-08
0.000199957
6.53523e-08
0.000200242
4.95679e-08
0.000200367
2.78829e-08
0.000200423
2.9392e-09
0.000200432
-2.1955e-08
0.000200392
-4.16424e-08
0.000200279
-4.6222e-08
0.0002
0.000198979
6.69077e-08
0.000198863
8.12194e-08
0.000199942
7.80167e-08
0.000200246
6.42921e-08
0.000200381
4.28305e-08
0.000200444
1.60277e-08
0.000200458
-1.30049e-08
0.000200421
-3.8011e-08
0.000200304
-4.64415e-08
0.000200008
0.000198933
7.49543e-08
0.000198788
9.6011e-08
0.000199921
9.82397e-08
0.000200243
8.789e-08
0.000200391
6.69123e-08
0.000200465
3.64628e-08
0.000200489
-1.05847e-09
0.000200458
-3.84927e-08
0.000200341
-5.49271e-08
0.000200025
0.000198878
8.74067e-08
0.0001987
1.18934e-07
0.00019989
1.29952e-07
0.000200232
1.25853e-07
0.000200395
1.07087e-07
0.000200484
7.26175e-08
0.000200523
2.30023e-08
0.000200508
-3.1839e-08
0.000200396
-6.73786e-08
0.00020006
0.00019881
1.05824e-07
0.000198595
1.53188e-07
0.000199842
1.78211e-07
0.000200207
1.85135e-07
0.000200388
1.71926e-07
0.000200497
1.32982e-07
0.000200562
5.5037e-08
0.000200586
-7.09035e-08
0.000200522
-2.4862e-07
0.000200238
0.000198562
1.35124e-07
0.000198459
2.0806e-07
0.000199769
2.57125e-07
0.000200158
2.87006e-07
0.000200359
2.96714e-07
0.000200488
2.84262e-07
0.000200575
2.49781e-07
0.00020062
1.98689e-07
0.000200573
4.83413e-07
0.000199953
0.000193762
5.28276e-06
1.71738e-07
0.000198288
2.7904e-07
0.000199662
3.62366e-07
0.000200075
4.27529e-07
0.000200293
4.75381e-07
0.00020044
5.10966e-07
0.000200539
5.60255e-07
0.000200571
6.92659e-07
0.000200441
1.0586e-06
0.000199587
0.00019142
3.40138e-06
2.18077e-07
0.00019807
3.69267e-07
0.000199511
4.9638e-07
0.000199948
6.06488e-07
0.000200183
7.02233e-07
0.000200344
7.90227e-07
0.000200451
8.952e-07
0.000200466
1.12844e-06
0.000200207
1.86995e-06
0.000198846
0.000188012
5.27726e-06
2.74205e-07
0.000197795
4.7879e-07
0.000199306
6.58827e-07
0.000199768
8.22676e-07
0.000200019
9.7545e-07
0.000200191
1.1294e-06
0.000200297
1.32516e-06
0.00020027
1.70898e-06
0.000199824
2.78574e-06
0.000197769
0.000184272
6.52562e-06
3.40768e-07
0.000197455
6.08693e-07
0.000199038
8.51204e-07
0.000199525
1.07794e-06
0.000199793
1.2966e-06
0.000199973
1.52578e-06
0.000200068
1.81873e-06
0.000199977
2.34011e-06
0.000199302
3.63592e-06
0.000196473
0.000180563
7.34517e-06
4.18941e-07
0.000197036
7.60964e-07
0.000198696
1.07606e-06
0.00019921
1.37488e-06
0.000199494
1.66705e-06
0.00019968
1.97601e-06
0.000199759
2.36557e-06
0.000199588
3.024e-06
0.000198644
4.55459e-06
0.000194943
0.000177035
8.08289e-06
5.10508e-07
0.000196525
9.38826e-07
0.000198268
1.3381e-06
0.000198811
1.71968e-06
0.000199112
2.09472e-06
0.000199305
2.49072e-06
0.000199363
2.97974e-06
0.000199099
3.75805e-06
0.000197865
5.41854e-06
0.000193282
0.000173827
8.626e-06
6.17889e-07
0.000195907
1.14711e-06
0.000197739
1.64501e-06
0.000198313
2.1233e-06
0.000198634
2.59477e-06
0.000198834
3.09088e-06
0.000198867
3.69184e-06
0.000198498
4.59912e-06
0.000196958
6.3584e-06
0.000191523
0.000170914
9.27227e-06
7.46164e-07
0.000195161
1.3922e-06
0.000197093
2.00639e-06
0.000197699
2.5992e-06
0.000198041
3.18544e-06
0.000198248
3.80087e-06
0.000198252
4.53473e-06
0.000197764
5.59948e-06
0.000195893
7.48376e-06
0.000189638
0.000168306
1.00916e-05
8.96e-07
0.000194265
1.68203e-06
0.000196307
2.43237e-06
0.000196949
3.16023e-06
0.000197313
3.88164e-06
0.000197526
4.63561e-06
0.000197498
5.51583e-06
0.000196884
6.73383e-06
0.000194675
8.7063e-06
0.000187666
0.000166051
1.0961e-05
1.06976e-06
0.000193195
2.02355e-06
0.000195353
2.93381e-06
0.000196038
3.81933e-06
0.000196428
4.69725e-06
0.000196648
5.60806e-06
0.000196587
6.6452e-06
0.000195847
8.00831e-06
0.000193312
1.00197e-05
0.000185655
0.000164188
1.18824e-05
1.27522e-06
0.00019192
2.4231e-06
0.000194205
3.52161e-06
0.00019494
4.59144e-06
0.000195358
5.65062e-06
0.000195589
6.7397e-06
0.000195498
7.9487e-06
0.000194638
9.4588e-06
0.000191802
1.14628e-05
0.000183651
0.000162693
1.29583e-05
1.51608e-06
0.000190404
2.89008e-06
0.000192831
4.20895e-06
0.000193621
5.49445e-06
0.000194073
6.76457e-06
0.000194319
8.05794e-06
0.000194204
9.45675e-06
0.000193239
1.11077e-05
0.000190151
1.3062e-05
0.000181696
0.000161513
1.42418e-05
1.79673e-06
0.000188607
3.43466e-06
0.000191193
5.01078e-06
0.000192045
6.54841e-06
0.000192535
8.06457e-06
0.000192803
9.59368e-06
0.000192675
1.12042e-05
0.000191628
1.2994e-05
0.000188361
1.48896e-05
0.000179801
0.0001606
1.58029e-05
2.12202e-06
0.000186485
4.06688e-06
0.000189248
5.94237e-06
0.000190169
7.774e-06
0.000190703
9.57723e-06
0.000191
1.13801e-05
0.000190872
1.32319e-05
0.000189776
1.51764e-05
0.000186417
1.70331e-05
0.000177944
0.000159892
1.77406e-05
2.49621e-06
0.000183989
4.79584e-06
0.000186949
7.01797e-06
0.000187947
9.19095e-06
0.00018853
1.13284e-05
0.000188862
1.34504e-05
0.00018875
1.55839e-05
0.000187643
1.77175e-05
0.000184283
1.95817e-05
0.00017608
0.000159313
2.01607e-05
2.92216e-06
0.000181067
5.62944e-06
0.000184241
8.24979e-06
0.000185327
1.08161e-05
0.000185964
1.33405e-05
0.000186338
1.58341e-05
0.000186257
1.83003e-05
0.000185177
2.06752e-05
0.000181908
2.26179e-05
0.000174137
0.000158765
2.31658e-05
3.39589e-06
0.000177671
6.57141e-06
0.000181066
9.64597e-06
0.000182252
1.2661e-05
0.000182949
1.56288e-05
0.00018337
1.85521e-05
0.000183333
2.14109e-05
0.000182318
2.40949e-05
0.000179224
2.62097e-05
0.000172022
0.000158129
2.68464e-05
3.77153e-06
0.0001739
7.30434e-06
0.000177533
1.07345e-05
0.000178822
1.41042e-05
0.000179579
1.74253e-05
0.000180049
2.06933e-05
0.000180065
2.38698e-05
0.000179141
2.68123e-05
0.000176282
2.91087e-05
0.000169726
0.000157303
2.99347e-05
4.33439e-06
0.000169565
8.38408e-06
0.000173483
1.23265e-05
0.00017488
1.62071e-05
0.000175699
2.00383e-05
0.000176218
2.38105e-05
0.000176293
2.74699e-05
0.000175482
3.08474e-05
0.000172904
3.35143e-05
0.000167059
0.000156125
3.46918e-05
4.94439e-06
0.000164621
9.5608e-06
0.000168867
1.40592e-05
0.000170381
1.84934e-05
0.000171265
2.28788e-05
0.000171832
2.72029e-05
0.000171969
3.14015e-05
0.000171283
3.52901e-05
0.000169016
3.84391e-05
0.00016391
0.000154448
4.01157e-05
5.59945e-06
0.000159021
1.08243e-05
0.000163642
1.59173e-05
0.000165288
2.09418e-05
0.00016624
2.59176e-05
0.000166856
3.08328e-05
0.000167054
3.56187e-05
0.000166498
4.00867e-05
0.000164548
4.38217e-05
0.000160175
0.000152129
4.61413e-05
6.29741e-06
0.000152724
1.21661e-05
0.000157774
1.78843e-05
0.00015957
2.35261e-05
0.000160598
2.91178e-05
0.000161265
3.4651e-05
0.000161521
4.00587e-05
0.00016109
4.5159e-05
0.000159447
4.9566e-05
0.000155768
0.00014904
5.26549e-05
7.03528e-06
0.000145689
1.35773e-05
0.000151231
1.99422e-05
0.000153205
2.62171e-05
0.000154323
3.24365e-05
0.000155045
3.85987e-05
0.000155359
4.46444e-05
0.000155044
5.04081e-05
0.000153684
5.55446e-05
0.000150632
0.000145088
5.94966e-05
7.81057e-06
0.000137878
1.50491e-05
0.000143993
2.20726e-05
0.000146182
2.8984e-05
0.000147412
3.5828e-05
0.000148201
4.26125e-05
0.000148574
4.92909e-05
0.000148366
5.57214e-05
0.000147253
6.16087e-05
0.000144744
0.000140225
6.64717e-05
8.62246e-06
0.000129256
1.65752e-05
0.00013604
2.42593e-05
0.000138497
3.17976e-05
0.000139874
3.92473e-05
0.000140752
4.66287e-05
0.000141193
5.39117e-05
0.000141083
6.09834e-05
0.000140182
6.76026e-05
0.000138125
0.000134457
7.33703e-05
9.47297e-06
0.000119783
1.81535e-05
0.00012736
2.64904e-05
0.000130161
3.46327e-05
0.000131732
4.26536e-05
0.000132731
5.05886e-05
0.000133258
5.84266e-05
0.000133245
6.60858e-05
0.000132522
7.33799e-05
0.000130831
0.000127845
7.99922e-05
1.0368e-05
0.000109415
1.97877e-05
0.00011794
2.87595e-05
0.000121189
3.74691e-05
0.000123022
4.60116e-05
0.000124188
5.44405e-05
0.000124829
6.27657e-05
0.00012492
7.09363e-05
0.000124352
7.88173e-05
0.00012295
0.000120493
8.61692e-05
1.13182e-05
9.80964e-05
2.14868e-05
0.000107771
3.10643e-05
0.000111611
4.02895e-05
0.000113797
4.92891e-05
0.000115189
5.81386e-05
0.000115979
6.68697e-05
0.000116189
7.54606e-05
0.000115761
8.38216e-05
0.000114589
0.000112534
9.17802e-05
1.23397e-05
8.57567e-05
2.32628e-05
9.68483e-05
3.3401e-05
0.000101473
4.30731e-05
0.000104125
5.24506e-05
0.000105811
6.16365e-05
0.000106793
7.06847e-05
0.00010714
7.95995e-05
0.000106846
8.83279e-05
0.000105861
0.00010411
9.6752e-05
1.34531e-05
7.23037e-05
2.51215e-05
8.51799e-05
3.5752e-05
9.08425e-05
4.57817e-05
9.40949e-05
5.54437e-05
9.61492e-05
6.48742e-05
9.73628e-05
7.41496e-05
9.7865e-05
8.32957e-05
9.76998e-05
9.22874e-05
9.6869e-05
9.53509e-05
0.000101047
1.46958e-05
5.76079e-05
2.70232e-05
7.28525e-05
3.8054e-05
7.98117e-05
4.83379e-05
8.3811e-05
5.818e-05
8.63071e-05
6.77604e-05
8.77824e-05
7.71788e-05
8.84465e-05
8.64766e-05
8.8402e-05
9.56468e-05
8.76988e-05
8.63599e-05
0.000104638
1.60784e-05
4.15295e-05
2.88603e-05
6.00706e-05
4.01402e-05
6.85318e-05
5.05612e-05
7.33901e-05
6.04871e-05
7.63812e-05
7.0138e-05
7.81315e-05
7.96344e-05
7.89501e-05
8.90282e-05
7.90082e-05
9.83216e-05
7.84054e-05
7.72036e-05
0.000107478
1.66026e-05
2.49269e-05
3.02783e-05
4.63948e-05
4.17861e-05
5.7024e-05
5.22069e-05
6.29693e-05
6.21079e-05
6.64802e-05
7.17621e-05
6.84773e-05
8.12979e-05
6.94143e-05
9.07657e-05
6.95405e-05
0.000100167
6.90038e-05
6.79011e-05
0.00010947
1.45595e-05
1.03674e-05
2.95353e-05
3.14191e-05
4.19041e-05
4.46551e-05
5.26198e-05
5.22537e-05
6.2579e-05
5.6521e-05
7.22513e-05
5.88049e-05
8.18382e-05
5.98274e-05
9.1405e-05
5.99737e-05
0.000100949
5.94596e-05
5.84187e-05
0.000110432
1.00942e-05
2.73195e-07
2.49218e-05
1.65915e-05
3.84688e-05
3.11081e-05
5.02095e-05
4.05129e-05
6.07965e-05
4.5934e-05
7.08322e-05
4.87692e-05
8.06771e-05
4.99825e-05
9.04861e-05
5.01647e-05
0.000100288
4.96575e-05
4.8657e-05
0.00011005
5.9824e-06
-5.70921e-06
1.75398e-05
5.03408e-06
3.06739e-05
1.7974e-05
4.32968e-05
2.78901e-05
5.50208e-05
3.421e-05
6.60455e-05
3.77445e-05
7.66787e-05
3.93493e-05
8.71274e-05
3.9716e-05
9.74815e-05
3.93034e-05
3.83881e-05
0.00010775
2.81662e-06
-8.52582e-06
9.49485e-06
-1.64416e-06
1.97461e-05
7.72272e-06
3.16016e-05
1.60346e-05
4.38918e-05
2.19198e-05
5.6095e-05
2.55414e-05
6.80443e-05
2.74e-05
7.97089e-05
2.80514e-05
9.11347e-05
2.78776e-05
2.71616e-05
0.000102361
-1.57886e-06
-6.94697e-06
6.3801e-07
-3.86103e-06
6.97561e-06
1.38512e-06
1.64586e-05
6.5517e-06
2.80234e-05
1.03549e-05
4.07972e-05
1.27676e-05
5.40292e-05
1.4168e-05
6.71696e-05
1.4911e-05
8.01017e-05
1.49454e-05
1.44704e-05
9.27929e-05
-6.94697e-06
-1.0808e-05
-9.42287e-06
-2.87117e-06
7.48371e-06
2.02513e-05
3.44193e-05
4.93303e-05
6.42757e-05
7.87462e-05
-2.90767e-05
3.43594e-05
-2.84101e-05
-6.66582e-07
-2.51825e-05
-3.22759e-06
-2.11799e-05
-4.00257e-06
-1.65791e-05
-4.60085e-06
-1.16001e-05
-4.97898e-06
-6.50033e-06
-5.09977e-06
-1.48406e-06
-5.01626e-06
3.39572e-06
-4.87978e-06
8.12083e-06
-4.72511e-06
1.26004e-05
-4.47954e-06
1.6672e-05
-4.0716e-06
2.01294e-05
-3.45747e-06
2.28784e-05
-2.74896e-06
2.48693e-05
-1.99092e-06
2.60639e-05
-1.19459e-06
2.64186e-05
-3.5469e-07
2.58293e-05
5.89255e-07
2.42158e-05
1.61351e-06
2.15146e-05
2.70125e-06
1.77035e-05
3.81108e-06
1.28803e-05
4.82323e-06
7.52871e-06
5.35157e-06
2.71986e-06
4.80886e-06
2.71986e-06
-1.42524e-05
5.20133e-05
-2.02406e-05
5.32162e-06
-2.02102e-05
-3.25805e-06
-1.82758e-05
-5.93697e-06
-1.53598e-05
-7.51681e-06
-1.18028e-05
-8.53601e-06
-7.80509e-06
-9.09746e-06
-3.53403e-06
-9.28732e-06
7.65622e-07
-9.17944e-06
4.84948e-06
-8.80897e-06
8.57371e-06
-8.20376e-06
1.18691e-05
-7.36697e-06
1.47162e-05
-6.30464e-06
1.7051e-05
-5.08374e-06
1.88182e-05
-3.75812e-06
1.99806e-05
-2.35692e-06
2.05144e-05
-8.88496e-07
2.04432e-05
6.60401e-07
1.97544e-05
2.30234e-06
1.84114e-05
4.04424e-06
1.6356e-05
5.86653e-06
1.35092e-05
7.66999e-06
9.73638e-06
9.12439e-06
5.10342e-06
9.44181e-06
7.82328e-06
-8.45114e-06
6.57417e-05
-1.57074e-05
1.25779e-05
-1.75037e-05
-1.46174e-06
-1.68263e-05
-6.61439e-06
-1.48548e-05
-9.4883e-06
-1.20802e-05
-1.13106e-05
-8.78865e-06
-1.2389e-05
-5.20888e-06
-1.28671e-05
-1.55021e-06
-1.28381e-05
2.00681e-06
-1.2366e-05
5.31175e-06
-1.15087e-05
8.26179e-06
-1.0317e-05
1.08001e-05
-8.84293e-06
1.28724e-05
-7.15609e-06
1.44367e-05
-5.32237e-06
1.54697e-05
-3.3899e-06
1.59673e-05
-1.38616e-06
1.59462e-05
6.81567e-07
1.54275e-05
2.82098e-06
1.44289e-05
5.04284e-06
1.29521e-05
7.34336e-06
1.09589e-05
9.66319e-06
8.31281e-06
1.17705e-05
4.75619e-06
1.29984e-05
1.25795e-05
-5.7964e-06
7.80637e-05
-1.41033e-05
2.08848e-05
-1.69604e-05
1.39536e-06
-1.69802e-05
-6.59458e-06
-1.55094e-05
-1.09591e-05
-1.31799e-05
-1.36401e-05
-1.0319e-05
-1.525e-05
-7.15787e-06
-1.60282e-05
-3.88374e-06
-1.61122e-05
-6.54534e-07
-1.55952e-05
2.39001e-06
-1.45532e-05
5.13475e-06
-1.30618e-05
7.49604e-06
-1.12042e-05
9.41357e-06
-9.07362e-06
1.08521e-05
-6.7609e-06
1.18021e-05
-4.33986e-06
1.22749e-05
-1.85903e-06
1.22969e-05
6.5961e-07
1.1901e-05
3.2169e-06
1.11183e-05
5.82553e-06
9.97078e-06
8.49086e-06
8.45598e-06
1.1178e-05
6.50305e-06
1.37234e-05
3.85981e-06
1.56417e-05
1.64393e-05
-2.91982e-06
8.83287e-05
-1.25742e-05
3.05392e-05
-1.67452e-05
5.5664e-06
-1.75809e-05
-5.75891e-06
-1.66387e-05
-1.19013e-05
-1.47143e-05
-1.55645e-05
-1.2215e-05
-1.77493e-05
-9.38442e-06
-1.88588e-05
-6.39558e-06
-1.91011e-05
-3.39691e-06
-1.85939e-05
-5.24386e-07
-1.74258e-05
2.09879e-06
-1.56849e-05
4.37081e-06
-1.34762e-05
6.22003e-06
-1.09228e-05
7.61039e-06
-8.15127e-06
8.54071e-06
-5.27017e-06
9.0355e-06
-2.35383e-06
9.13318e-06
5.61932e-07
8.87573e-06
3.47436e-06
8.30155e-06
6.39971e-06
7.43941e-06
9.353e-06
6.29851e-06
1.23189e-05
4.83465e-06
1.51873e-05
2.8289e-06
1.76474e-05
1.92682e-05
-2.1283e-08
9.64329e-05
-9.95359e-06
4.04715e-05
-1.55403e-05
1.11531e-05
-1.75404e-05
-3.75876e-06
-1.74282e-05
-1.20135e-05
-1.61089e-05
-1.68838e-05
-1.40954e-05
-1.97627e-05
-1.16657e-05
-2.12885e-05
-8.9947e-06
-2.17721e-05
-6.22838e-06
-2.13602e-05
-3.50584e-06
-2.01483e-05
-9.62094e-07
-1.82287e-05
1.28136e-06
-1.57197e-05
3.13317e-06
-1.27746e-05
4.5461e-06
-9.5642e-06
5.51924e-06
-6.24331e-06
6.0856e-06
-2.92019e-06
6.29472e-06
3.52813e-07
6.19805e-06
3.57103e-06
5.84016e-06
6.75759e-06
5.25362e-06
9.93955e-06
4.45195e-06
1.31206e-05
3.40636e-06
1.62329e-05
1.97065e-06
1.90831e-05
2.12388e-05
2.40298e-06
0.000102656
-6.7364e-06
4.96108e-05
-1.32173e-05
1.7634e-05
-1.64648e-05
-5.11322e-07
-1.74504e-05
-1.10279e-05
-1.70182e-05
-1.7316e-05
-1.57063e-05
-2.10747e-05
-1.38223e-05
-2.31725e-05
-1.157e-05
-2.40243e-05
-9.10038e-06
-2.38298e-05
-6.5551e-06
-2.26936e-05
-4.08314e-06
-2.07006e-05
-1.83068e-06
-1.79721e-05
8.24238e-08
-1.46877e-05
1.58467e-06
-1.10664e-05
2.66302e-06
-7.32166e-06
3.3518e-06
-3.60897e-06
3.70941e-06
-4.79214e-09
3.797e-06
3.48344e-06
3.66652e-06
6.88807e-06
3.35562e-06
1.02504e-05
2.88286e-06
1.35933e-05
2.23162e-06
1.68841e-05
1.30736e-06
2.00074e-05
2.25462e-05
4.44177e-06
0.000107486
-3.66293e-06
5.77155e-05
-1.04438e-05
2.44148e-05
-1.47222e-05
3.76713e-06
-1.68376e-05
-8.91246e-06
-1.74346e-05
-1.6719e-05
-1.69728e-05
-2.15365e-05
-1.57742e-05
-2.43711e-05
-1.40648e-05
-2.57337e-05
-1.19903e-05
-2.59043e-05
-9.68475e-06
-2.49992e-05
-7.30334e-06
-2.3082e-05
-5.01907e-06
-2.02564e-05
-2.99107e-06
-1.67157e-05
-1.33033e-06
-1.27272e-05
-7.93251e-08
-8.57266e-06
7.85939e-07
-4.47424e-06
1.32935e-06
-5.48199e-07
1.62344e-06
3.18935e-06
1.73e-06
6.78151e-06
1.69327e-06
1.02872e-05
1.53725e-06
1.37493e-05
1.25415e-06
1.71672e-05
7.76845e-07
2.04847e-05
2.3323e-05
6.22227e-06
0.000111356
-9.53925e-07
6.48917e-05
-7.70588e-06
3.11668e-05
-1.2675e-05
8.73626e-06
-1.57793e-05
-5.80814e-06
-1.73754e-05
-1.5123e-05
-1.78516e-05
-2.10603e-05
-1.7489e-05
-2.47337e-05
-1.64613e-05
-2.67614e-05
-1.49041e-05
-2.74615e-05
-1.2931e-05
-2.69723e-05
-1.06874e-05
-2.53256e-05
-8.36496e-06
-2.25789e-05
-6.16917e-06
-1.89115e-05
-4.27098e-06
-1.46254e-05
-2.76605e-06
-1.00776e-05
-1.65991e-06
-5.58038e-06
-8.89956e-07
-1.31815e-06
-3.68353e-07
2.66775e-06
-1.80543e-08
6.43121e-06
2.14805e-07
1.00543e-05
3.59682e-07
1.36045e-05
4.14408e-07
1.71125e-05
3.2803e-07
2.05711e-05
2.36511e-05
7.8166e-06
0.0001145
1.44255e-06
7.12658e-05
-5.15057e-06
3.77599e-05
-1.05773e-05
1.4163e-05
-1.45013e-05
-1.88414e-06
-1.70462e-05
-1.2578e-05
-1.84828e-05
-1.96237e-05
-1.90167e-05
-2.41998e-05
-1.87723e-05
-2.70058e-05
-1.78548e-05
-2.83789e-05
-1.63384e-05
-2.84887e-05
-1.43181e-05
-2.73459e-05
-1.19825e-05
-2.49145e-05
-9.57743e-06
-2.13166e-05
-7.35012e-06
-1.68527e-05
-5.48396e-06
-1.19438e-05
-4.04926e-06
-7.01507e-06
-2.9989e-06
-2.36851e-06
-2.22393e-06
1.89278e-06
-1.62229e-06
5.82958e-06
-1.12444e-06
9.55647e-06
-6.93697e-07
1.31737e-05
-3.29328e-07
1.67481e-05
-7.68092e-08
2.03186e-05
2.35743e-05
9.26559e-06
0.000117117
3.57142e-06
7.696e-05
-2.80736e-06
4.41387e-05
-8.53198e-06
1.98876e-05
-1.31254e-05
2.70924e-06
-1.65408e-05
-9.16262e-06
-1.89127e-05
-1.72518e-05
-2.03817e-05
-2.27308e-05
-2.10155e-05
-2.6372e-05
-2.08342e-05
-2.85603e-05
-1.99171e-05
-2.94058e-05
-1.8263e-05
-2.9e-05
-1.60018e-05
-2.71757e-05
-1.33902e-05
-2.39282e-05
-1.07481e-05
-1.94947e-05
-8.38003e-06
-1.43118e-05
-6.48222e-06
-8.91289e-06
-5.06531e-06
-3.78541e-06
-3.99484e-06
8.22304e-07
-3.1262e-06
4.96093e-06
-2.36223e-06
8.7925e-06
-1.654e-06
1.24655e-05
-9.99626e-07
1.60937e-05
-4.45978e-07
1.97649e-05
2.31283e-05
1.06863e-05
0.000119389
5.51827e-06
8.2128e-05
-6.49225e-07
5.03062e-05
-6.57313e-06
2.58115e-05
-1.17045e-05
7.84063e-06
-1.58812e-05
-4.9859e-06
-1.91308e-05
-1.40022e-05
-2.15272e-05
-2.03344e-05
-2.31039e-05
-2.47952e-05
-2.3813e-05
-2.78512e-05
-2.36103e-05
-2.96085e-05
-2.25142e-05
-3.00961e-05
-2.05128e-05
-2.91771e-05
-1.78013e-05
-2.66398e-05
-1.47231e-05
-2.25729e-05
-1.17042e-05
-1.73308e-05
-9.13475e-06
-1.14823e-05
-7.19086e-06
-5.72929e-06
-5.73883e-06
-6.29732e-07
-4.56459e-06
3.7867e-06
-3.52386e-06
7.75177e-06
-2.54199e-06
1.14836e-05
-1.61494e-06
1.51667e-05
-7.93008e-07
1.8943e-05
2.23353e-05
1.21721e-05
0.000121459
7.39239e-06
8.69077e-05
1.40751e-06
5.62911e-05
-4.65526e-06
3.18743e-05
-1.02157e-05
1.34011e-05
-1.50376e-05
-1.6402e-07
-1.90658e-05
-9.97401e-06
-2.23215e-05
-1.70787e-05
-2.48144e-05
-2.23024e-05
-2.64966e-05
-2.61689e-05
-2.72056e-05
-2.88996e-05
-2.68784e-05
-3.04233e-05
-2.54541e-05
-3.06014e-05
-2.29197e-05
-2.91742e-05
-1.95504e-05
-2.59423e-05
-1.58122e-05
-2.10689e-05
-1.2282e-05
-1.50125e-05
-9.47925e-06
-8.53207e-06
-7.45154e-06
-2.65744e-06
-5.89348e-06
2.22864e-06
-4.56286e-06
6.42114e-06
-3.32769e-06
1.02485e-05
-2.1566e-06
1.39956e-05
-1.08888e-06
1.78753e-05
2.12464e-05
1.38394e-05
0.000123422
9.33705e-06
9.141e-05
3.49858e-06
6.21295e-05
-2.66497e-06
3.80378e-05
-8.56353e-06
1.92996e-05
-1.39133e-05
5.18575e-06
-1.86078e-05
-5.27953e-06
-2.26283e-05
-1.30583e-05
-2.59663e-05
-1.89643e-05
-2.85711e-05
-2.35641e-05
-3.03218e-05
-2.71488e-05
-3.10056e-05
-2.97395e-05
-3.04866e-05
-3.11204e-05
-2.86124e-05
-3.10484e-05
-2.53708e-05
-2.91838e-05
-2.11169e-05
-2.53229e-05
-1.64658e-05
-1.96636e-05
-1.22944e-05
-1.27035e-05
-9.25397e-06
-5.69791e-06
-7.12816e-06
1.02837e-07
-5.45568e-06
4.74866e-06
-3.98065e-06
8.77343e-06
-2.60364e-06
1.26186e-05
-1.32883e-06
1.66005e-05
1.99176e-05
1.58322e-05
0.000125331
1.15268e-05
9.57154e-05
5.80312e-06
6.78532e-05
-4.32811e-07
4.42738e-05
-6.59401e-06
2.54608e-05
-1.23651e-05
1.09568e-05
-1.76095e-05
-3.51208e-08
-2.22815e-05
-8.38628e-06
-2.63695e-05
-1.48762e-05
-2.9838e-05
-2.00957e-05
-3.25853e-05
-2.44015e-05
-3.44249e-05
-2.78999e-05
-3.50876e-05
-3.04578e-05
-3.43474e-05
-3.17885e-05
-3.19541e-05
-3.15772e-05
-2.78719e-05
-2.9405e-05
-2.25034e-05
-2.50321e-05
-1.66686e-05
-1.85383e-05
-1.1788e-05
-1.05785e-05
-8.50957e-06
-3.17556e-06
-6.28687e-06
2.52596e-06
-4.5212e-06
7.00776e-06
-2.94326e-06
1.10407e-05
-1.48196e-06
1.51392e-05
1.84356e-05
1.82989e-05
0.000127192
1.41467e-05
9.98677e-05
8.51987e-06
7.348e-05
2.23964e-06
5.0554e-05
-4.11659e-06
3.18171e-05
-1.02125e-05
1.70528e-05
-1.58853e-05
5.63765e-06
-2.10788e-05
-3.19277e-06
-2.57844e-05
-1.01707e-05
-2.99909e-05
-1.58891e-05
-3.36387e-05
-2.07536e-05
-3.65849e-05
-2.49538e-05
-3.85796e-05
-2.84631e-05
-3.92974e-05
-3.10707e-05
-3.84076e-05
-3.24669e-05
-3.55592e-05
-3.22534e-05
-3.06198e-05
-2.99715e-05
-2.3883e-05
-2.52751e-05
-1.66651e-05
-1.77965e-05
-1.09423e-05
-8.89828e-06
-7.34117e-06
-1.07521e-06
-5.0077e-06
4.6743e-06
-3.17027e-06
9.20323e-06
-1.48759e-06
1.34565e-05
1.6948e-05
2.13836e-05
0.000128974
1.73822e-05
0.000103869
1.18585e-05
7.90037e-05
5.5693e-06
5.68432e-05
-9.19225e-07
3.83056e-05
-7.25236e-06
2.33859e-05
-1.32436e-05
1.16289e-05
-1.88278e-05
2.39143e-06
-2.40005e-05
-4.99796e-06
-2.87751e-05
-1.11146e-05
-3.31394e-05
-1.63893e-05
-3.70172e-05
-2.1076e-05
-4.02379e-05
-2.52424e-05
-4.25147e-05
-2.87939e-05
-4.34745e-05
-3.15072e-05
-4.26745e-05
-3.30533e-05
-3.96623e-05
-3.29837e-05
-3.4017e-05
-3.09204e-05
-2.58273e-05
-2.59861e-05
-1.69491e-05
-1.77765e-05
-9.94595e-06
-8.07836e-06
-5.73104e-06
4.59394e-07
-3.16972e-06
6.6419e-06
-1.15276e-06
1.14395e-05
1.57953e-05
2.5217e-05
0.000130604
2.14064e-05
0.00010768
1.60205e-05
8.43896e-05
9.76804e-06
6.30956e-05
3.20969e-06
4.4864e-05
-3.28239e-06
2.9878e-05
-9.49903e-06
1.78455e-05
-1.53569e-05
8.24927e-06
-2.08551e-05
5.0025e-07
-2.60249e-05
-5.94471e-06
-3.08952e-05
-1.1519e-05
-3.54553e-05
-1.65159e-05
-3.96245e-05
-2.10731e-05
-4.32279e-05
-2.51906e-05
-4.5981e-05
-2.87541e-05
-4.74875e-05
-3.15469e-05
-4.72244e-05
-3.32468e-05
-4.45533e-05
-3.35915e-05
-3.86123e-05
-3.19271e-05
-2.93523e-05
-2.70365e-05
-1.85219e-05
-1.89088e-05
-9.2896e-06
-8.77291e-06
-3.25239e-06
6.04698e-07
9.69373e-08
8.09018e-06
1.58922e-05
2.86184e-05
0.00013192
2.52182e-05
0.00011108
2.02422e-05
8.93656e-05
1.43348e-05
6.90031e-05
8.03613e-06
5.11626e-05
1.72089e-06
3.61932e-05
-4.38635e-06
2.39528e-05
-1.01842e-05
1.40472e-05
-1.56635e-05
5.97947e-06
-2.08647e-05
-7.43488e-07
-2.58412e-05
-6.54251e-06
-3.06298e-05
-1.17273e-05
-3.52246e-05
-1.64783e-05
-3.95583e-05
-2.08568e-05
-4.34845e-05
-2.48279e-05
-4.67505e-05
-2.8281e-05
-4.89679e-05
-3.10293e-05
-4.97882e-05
-3.27712e-05
-4.84176e-05
-3.32978e-05
-4.34775e-05
-3.19765e-05
-3.48157e-05
-2.75706e-05
-2.31891e-05
-2.03995e-05
-1.11046e-05
-1.14798e-05
2.67811e-08
-3.04122e-06
3.69173e-06
1.22272e-05
3.37482e-05
0.000132864
3.07151e-05
0.000114113
2.60291e-05
9.40516e-05
2.03004e-05
7.47317e-05
1.40738e-05
5.73891e-05
7.74566e-06
4.25214e-05
1.56528e-06
3.01331e-05
-4.34049e-06
1.99529e-05
-9.94212e-06
1.15811e-05
-1.5276e-05
4.5904e-06
-2.04102e-05
-1.40835e-06
-2.54122e-05
-6.72523e-06
-3.03251e-05
-1.15654e-05
-3.51531e-05
-1.60288e-05
-3.98559e-05
-2.01251e-05
-4.43435e-05
-2.37933e-05
-4.84516e-05
-2.69212e-05
-5.18674e-05
-2.93554e-05
-5.4282e-05
-3.08831e-05
-5.50055e-05
-3.1253e-05
-5.31819e-05
-2.93942e-05
-4.82952e-05
-2.52862e-05
-4.07111e-05
-1.90639e-05
-3.29224e-05
-1.083e-05
-1.13176e-07
-2.91175e-05
3.96956e-05
0.000133284
3.71774e-05
0.000116631
3.29163e-05
9.83127e-05
2.74823e-05
8.01657e-05
2.1423e-05
6.34485e-05
1.516e-05
4.87844e-05
8.97191e-06
3.63212e-05
3.01392e-06
2.59109e-05
-2.65808e-06
1.72531e-05
-8.06125e-06
9.99357e-06
-1.3261e-05
3.79136e-06
-1.83391e-05
-1.64712e-06
-2.3366e-05
-6.53838e-06
-2.83856e-05
-1.10092e-05
-3.34156e-05
-1.50951e-05
-3.84594e-05
-1.87496e-05
-4.35126e-05
-2.18679e-05
-4.85491e-05
-2.4319e-05
-5.3488e-05
-2.59442e-05
-5.82249e-05
-2.65161e-05
-6.20218e-05
-2.55973e-05
-6.45799e-05
-2.2728e-05
-6.62744e-05
-1.73695e-05
-6.75082e-05
-9.59611e-06
-7.21204e-08
-6.75493e-05
4.64066e-05
0.000133019
4.45788e-05
0.000118459
4.09164e-05
0.000101975
3.59331e-05
8.5149e-05
3.01709e-05
6.92106e-05
2.40756e-05
5.48798e-05
1.79603e-05
4.24365e-05
1.2013e-05
3.18582e-05
6.31985e-06
2.29463e-05
8.89765e-07
1.54237e-05
-4.32192e-06
9.00305e-06
-9.3904e-06
3.42135e-06
-1.43926e-05
-1.53615e-06
-1.93829e-05
-6.01898e-06
-2.43872e-05
-1.00908e-05
-2.94184e-05
-1.37184e-05
-3.45019e-05
-1.67844e-05
-3.96789e-05
-1.9142e-05
-4.49934e-05
-2.06298e-05
-5.04546e-05
-2.10549e-05
-5.58388e-05
-2.02131e-05
-6.06029e-05
-1.79639e-05
-6.39879e-05
-1.39845e-05
-6.52612e-05
-8.32282e-06
-1.38919e-06
-6.39442e-05
5.37628e-05
0.000131911
5.28154e-05
0.000119406
4.99582e-05
0.000104832
4.56247e-05
8.94825e-05
4.03333e-05
7.45021e-05
3.45469e-05
6.06661e-05
2.86143e-05
4.83691e-05
2.27623e-05
3.77102e-05
1.71115e-05
2.85971e-05
1.17001e-05
2.08351e-05
6.5098e-06
1.41933e-05
1.48751e-06
8.44364e-06
-3.43167e-06
3.38303e-06
-8.29736e-06
-1.15328e-06
-1.31197e-05
-5.26849e-06
-1.78816e-05
-8.95659e-06
-2.25764e-05
-1.20896e-05
-2.72001e-05
-1.45183e-05
-3.17535e-05
-1.60764e-05
-3.62e-05
-1.66084e-05
-4.03723e-05
-1.60408e-05
-4.39697e-05
-1.43665e-05
-4.63896e-05
-1.15646e-05
-4.69229e-05
-7.78954e-06
-3.28491e-06
-4.50272e-05
6.15792e-05
0.000129828
6.16949e-05
0.000119291
5.98663e-05
0.000106661
5.64196e-05
9.29293e-05
5.18215e-05
7.91001e-05
4.65352e-05
6.59524e-05
4.09395e-05
5.39648e-05
3.53026e-05
4.33471e-05
2.97863e-05
3.41134e-05
2.44646e-05
2.61568e-05
1.9347e-05
1.93108e-05
1.4402e-05
1.33886e-05
9.58087e-06
8.2042e-06
4.84624e-06
3.58134e-06
2.07303e-07
-6.29558e-07
-4.31079e-06
-4.43849e-06
-8.70107e-06
-7.69934e-06
-1.29466e-05
-1.02728e-05
-1.69795e-05
-1.20434e-05
-2.06639e-05
-1.29241e-05
-2.38126e-05
-1.2892e-05
-2.62161e-05
-1.1963e-05
-2.75901e-05
-1.01907e-05
-2.76649e-05
-7.7147e-06
-4.74591e-06
-2.62039e-05
6.96149e-05
0.000126685
7.09401e-05
0.000117966
7.03519e-05
0.000107249
6.80472e-05
9.5234e-05
6.44074e-05
8.27399e-05
5.98671e-05
7.04928e-05
5.48192e-05
5.90127e-05
4.95689e-05
4.85974e-05
4.4323e-05
3.93593e-05
3.91988e-05
3.1281e-05
3.42423e-05
2.42674e-05
2.94481e-05
1.81828e-05
2.47827e-05
1.28695e-05
2.02238e-05
8.14023e-06
1.57744e-05
3.81988e-06
1.14177e-05
-8.18278e-08