/*--------------------------------*- C++ -*----------------------------------*\
| =========                 |                                                 |
| \\      /  F ield         | OpenFOAM: The Open Source CFD Toolbox           |
|  \\    /   O peration     | Version:  v2012                                 |
|   \\  /    A nd           | Website:  www.openfoam.com                      |
|    \\/     M anipulation  |                                                 |
\*---------------------------------------------------------------------------*/
FoamFile
{
    version     2.0;
    format      ascii;
    class       volVectorField;
    location    "660";
    object      U;
}
// * * * * * * * * * * * * * * * * * * * * * * * * * * * * * * * * * * * * * //

dimensions      [0 1 -1 0 0 0 0];


internalField   nonuniform List<vector> 
6532
(
(6.70495e-05 -0.999788 0)
(0.000175019 -1.00003 0)
(0.000120925 -1.00002 0)
(6.29796e-05 -1.00001 0)
(1.95652e-05 -1.00001 0)
(-1.94294e-05 -1.00001 0)
(-6.28659e-05 -1.00001 0)
(-0.000120852 -1.00002 0)
(-0.000175004 -1.00003 0)
(-6.70451e-05 -0.999788 0)
(0.000272766 -0.999525 0)
(0.000325358 -1.00011 0)
(0.000249409 -1.00012 0)
(0.00014906 -1.0001 0)
(4.92408e-05 -1.0001 0)
(-4.88246e-05 -1.0001 0)
(-0.000148709 -1.0001 0)
(-0.000249161 -1.00012 0)
(-0.000325318 -1.00011 0)
(-0.000272754 -0.999525 0)
(0.000336723 -0.999139 0)
(0.000370575 -1.00014 0)
(0.0003002 -1.00024 0)
(0.000192643 -1.00025 0)
(6.57179e-05 -1.00024 0)
(-6.49128e-05 -1.00024 0)
(-0.000191931 -1.00025 0)
(-0.00029964 -1.00025 0)
(-0.000370092 -1.00014 0)
(-0.000336568 -0.999139 0)
(0.000340042 -0.998705 0)
(0.00036484 -1.00012 0)
(0.000309068 -1.00036 0)
(0.000206517 -1.00041 0)
(7.17818e-05 -1.00042 0)
(-7.0428e-05 -1.00042 0)
(-0.000205306 -1.00041 0)
(-0.000308088 -1.00036 0)
(-0.000364193 -1.00012 0)
(-0.00033973 -0.998706 0)
(0.000327394 -0.998289 0)
(0.000350703 -1.0001 0)
(0.000303901 -1.00046 0)
(0.000205594 -1.00056 0)
(7.2447e-05 -1.00059 0)
(-7.03e-05 -1.00059 0)
(-0.000203655 -1.00056 0)
(-0.00030232 -1.00046 0)
(-0.000349705 -1.0001 0)
(-0.000326885 -0.99829 0)
(0.000309936 -0.997903 0)
(0.000330456 -1.00007 0)
(0.000293218 -1.00055 0)
(0.000198895 -1.00071 0)
(7.07162e-05 -1.00076 0)
(-6.74151e-05 -1.00076 0)
(-0.000195913 -1.00071 0)
(-0.00029086 -1.00055 0)
(-0.000328891 -1.00007 0)
(-0.00030915 -0.997905 0)
(0.00029217 -0.997541 0)
(0.000310404 -1.00004 0)
(0.000277089 -1.00064 0)
(0.000189061 -1.00085 0)
(6.79035e-05 -1.00092 0)
(-6.28572e-05 -1.00093 0)
(-0.000184508 -1.00085 0)
(-0.000273519 -1.00064 0)
(-0.000307979 -1.00005 0)
(-0.000291032 -0.997545 0)
(0.000276009 -0.9972 0)
(0.000292527 -1.00002 0)
(0.000262036 -1.00072 0)
(0.000179364 -1.00098 0)
(6.53594e-05 -1.00108 0)
(-5.76326e-05 -1.00108 0)
(-0.00017239 -1.00098 0)
(-0.00025651 -1.00072 0)
(-0.000288802 -1.00002 0)
(-0.000274292 -0.997207 0)
(0.000262163 -0.996876 0)
(0.000277661 -0.999995 0)
(0.000249596 -1.00079 0)
(0.000171362 -1.0011 0)
(6.38708e-05 -1.00122 0)
(-5.20628e-05 -1.00122 0)
(-0.0001607 -1.00111 0)
(-0.000241117 -1.0008 0)
(-0.000271974 -1 0)
(-0.000259505 -0.996886 0)
(0.000250775 -0.996565 0)
(0.000266025 -0.999974 0)
(0.000240141 -1.00086 0)
(0.000165733 -1.00122 0)
(6.39412e-05 -1.00136 0)
(-4.59443e-05 -1.00136 0)
(-0.000149478 -1.00122 0)
(-0.000227211 -1.00087 0)
(-0.0002574 -0.999988 0)
(-0.000246715 -0.996582 0)
(0.000241756 -0.996266 0)
(0.00025758 -0.999954 0)
(0.000233893 -1.00093 0)
(0.000162983 -1.00133 0)
(6.61202e-05 -1.00148 0)
(-3.876e-05 -1.00149 0)
(-0.000138277 -1.00134 0)
(-0.000214262 -1.00095 0)
(-0.000244562 -0.999975 0)
(-0.00023564 -0.996291 0)
(0.000235021 -0.995974 0)
(0.000252455 -0.999933 0)
(0.000231225 -1.00099 0)
(0.000163696 -1.00143 0)
(7.1174e-05 -1.00161 0)
(-2.96918e-05 -1.00161 0)
(-0.000126313 -1.00145 0)
(-0.000201529 -1.00102 0)
(-0.000232769 -0.999966 0)
(-0.00022588 -0.996013 0)
(0.000230644 -0.995686 0)
(0.000251133 -0.999911 0)
(0.000233041 -1.00105 0)
(0.000168911 -1.00153 0)
(8.03184e-05 -1.00173 0)
(-1.7496e-05 -1.00173 0)
(-0.000112469 -1.00156 0)
(-0.000188111 -1.00109 0)
(-0.000221313 -0.999961 0)
(-0.000217039 -0.995746 0)
(0.000228905 -0.995399 0)
(0.000254386 -0.999886 0)
(0.00024078 -1.00111 0)
(0.000180491 -1.00163 0)
(9.55588e-05 -1.00184 0)
(-2.7114e-07 -1.00185 0)
(-9.52142e-05 -1.00166 0)
(-0.000173004 -1.00117 0)
(-0.000209623 -0.999961 0)
(-0.000208822 -0.99549 0)
(0.000230209 -0.995107 0)
(0.000262974 -0.999854 0)
(0.00025549 -1.00116 0)
(0.000201451 -1.00172 0)
(0.000119997 -1.00195 0)
(2.48792e-05 -1.00197 0)
(-7.24244e-05 -1.00178 0)
(-0.000155156 -1.00125 0)
(-0.000197527 -0.999968 0)
(-0.000201357 -0.995244 0)
(0.000235534 -0.994806 0)
(0.000279804 -0.999811 0)
(0.00028257 -1.0012 0)
(0.000236336 -1.0018 0)
(0.00015879 -1.00206 0)
(6.26137e-05 -1.00209 0)
(-4.09924e-05 -1.00189 0)
(-0.000133705 -1.00134 0)
(-0.000185464 -0.999985 0)
(-0.00019595 -0.995009 0)
(0.00024632 -0.994486 0)
(0.000308839 -0.999752 0)
(0.000327148 -1.00122 0)
(0.000292506 -1.00187 0)
(0.000219175 -1.00217 0)
(0.000120534 -1.00222 0)
(4.111e-06 -1.00203 0)
(-0.000108684 -1.00145 0)
(-0.000178573 -1.00001 0)
(-0.000196951 -0.994779 0)
(0.000264634 -0.994135 0)
(0.000355766 -0.999667 0)
(0.000398105 -1.00123 0)
(0.000382078 -1.00193 0)
(0.000317557 -1.00228 0)
(0.000212465 -1.00236 0)
(7.13579e-05 -1.00219 0)
(-8.48832e-05 -1.0016 0)
(-0.000199826 -1.00008 0)
(-0.000222883 -0.99452 0)
(0.000293311 -0.993734 0)
(0.000428465 -0.99954 0)
(0.000508702 -1.0012 0)
(0.000523571 -1.00197 0)
(0.00047886 -1.00238 0)
(0.000370535 -1.00252 0)
(0.000194685 -1.0024 0)
(-3.41159e-05 -1.00181 0)
(-0.000220141 -1.00016 0)
(-0.000164445 -0.994202 0)
(0.000335695 -0.993259 0)
(0.000536412 -0.999349 0)
(0.000675216 -1.00112 0)
(0.000741995 -1.00197 0)
(0.000733724 -1.00246 0)
(0.000633593 -1.00271 0)
(0.000395358 -1.0027 0)
(-1.44454e-05 -1.00224 0)
(-0.000629738 -1.00086 0)
(-0.000853586 -0.996629 0)
(0.000398124 -0.992663 0)
(0.000692267 -0.999058 0)
(0.000922801 -1.00094 0)
(0.00108096 -1.0019 0)
(0.00116217 -1.00249 0)
(0.00116284 -1.00288 0)
(0.00104198 -1.00309 0)
(0.000941305 -1.00286 0)
(0.00185022 -1.0008 0)
(0.00930843 -0.981577 0)
(0.000485135 -0.99191 0)
(0.000904018 -0.99862 0)
(0.00126632 -1.00063 0)
(0.00155946 -1.00167 0)
(0.00178386 -1.00237 0)
(0.00195595 -1.00285 0)
(0.00208113 -1.00305 0)
(0.00203909 -1.00269 0)
(0.00257256 -0.999175 0)
(0.0168908 -0.963416 0)
(0.000595789 -0.990948 0)
(0.00117188 -0.997987 0)
(0.00170368 -1.00011 0)
(0.00216871 -1.00125 0)
(0.00256885 -1.00202 0)
(0.00293749 -1.00255 0)
(0.00333816 -1.00271 0)
(0.00364289 -1.00181 0)
(0.00375442 -0.996366 0)
(0.0209622 -0.948189 0)
(0.000730169 -0.989729 0)
(0.0014966 -0.997109 0)
(0.00223467 -0.999356 0)
(0.00290758 -1.00058 0)
(0.00351942 -1.00141 0)
(0.00411364 -1.00195 0)
(0.00482529 -1.00195 0)
(0.00577135 -1.00026 0)
(0.00603144 -0.991948 0)
(0.0245297 -0.931209 0)
(0.000889529 -0.988204 0)
(0.00188168 -0.995939 0)
(0.00286412 -0.998311 0)
(0.00378164 -0.99961 0)
(0.00464293 -1.00049 0)
(0.00549608 -1.00101 0)
(0.00650591 -1.00074 0)
(0.00805302 -0.997998 0)
(0.00885562 -0.985961 0)
(0.0269656 -0.912033 0)
(0.00107638 -0.986319 0)
(0.0023335 -0.994427 0)
(0.00360124 -0.996929 0)
(0.00480092 -0.998307 0)
(0.00594627 -0.999226 0)
(0.00708962 -0.99967 0)
(0.00840209 -0.999038 0)
(0.0104786 -0.995034 0)
(0.0120926 -0.978785 0)
(0.0290549 -0.893628 0)
(0.0012948 -0.984011 0)
(0.00286193 -0.992516 0)
(0.00446178 -0.995157 0)
(0.00598727 -0.996619 0)
(0.00745645 -0.997569 0)
(0.00892689 -0.997916 0)
(0.0105646 -0.996842 0)
(0.0130999 -0.991423 0)
(0.0156836 -0.970718 0)
(0.0305491 -0.876659 0)
(0.00155006 -0.981209 0)
(0.00348079 -0.990141 0)
(0.00547023 -0.992932 0)
(0.00737688 -0.994487 0)
(0.00922358 -0.995469 0)
(0.0110765 -0.995701 0)
(0.0130999 -0.994129 0)
(0.0160716 -0.98721 0)
(0.0196519 -0.962111 0)
(0.0327723 -0.861517 0)
(0.00185158 -0.977822 0)
(0.0042163 -0.987211 0)
(0.00665506 -0.990172 0)
(0.0090141 -0.991831 0)
(0.0113081 -0.992848 0)
(0.0136175 -0.992946 0)
(0.0161224 -0.990817 0)
(0.0195779 -0.982305 0)
(0.0240241 -0.952992 0)
(0.0365645 -0.847641 0)
(0.00220892 -0.973745 0)
(0.00508057 -0.983683 0)
(0.00805186 -0.986788 0)
(0.010945 -0.988555 0)
(0.0137649 -0.989605 0)
(0.016606 -0.989547 0)
(0.0196713 -0.986802 0)
(0.0236535 -0.976609 0)
(0.0288221 -0.943343 0)
(0.040777 -0.835427 0)
(0.00262346 -0.968861 0)
(0.00608725 -0.979351 0)
(0.00970165 -0.982666 0)
(0.0132159 -0.984551 0)
(0.0166486 -0.985633 0)
(0.0200987 -0.985408 0)
(0.0237835 -0.982022 0)
(0.0283113 -0.97015 0)
(0.0342213 -0.933365 0)
(0.0451152 -0.825136 0)
(0.00310741 -0.963034 0)
(0.00726947 -0.974129 0)
(0.0116364 -0.977678 0)
(0.015877 -0.979695 0)
(0.0200253 -0.980821 0)
(0.0241772 -0.980434 0)
(0.0285503 -0.976421 0)
(0.0336756 -0.962958 0)
(0.0402953 -0.923201 0)
(0.0498891 -0.816771 0)
(0.00367237 -0.956099 0)
(0.00865405 -0.967867 0)
(0.0138974 -0.971675 0)
(0.0189896 -0.973846 0)
(0.0239743 -0.975035 0)
(0.0289409 -0.97451 0)
(0.0340911 -0.969922 0)
(0.0398901 -0.955034 0)
(0.0469995 -0.913269 0)
(0.0553922 -0.810134 0)
(0.004329 -0.947867 0)
(0.0102688 -0.960385 0)
(0.0165338 -0.964484 0)
(0.0226221 -0.966834 0)
(0.0285843 -0.968113 0)
(0.0344996 -0.967493 0)
(0.0405418 -0.962426 0)
(0.0470784 -0.946438 0)
(0.0545534 -0.903651 0)
(0.0619321 -0.804963 0)
(0.00508782 -0.938126 0)
(0.0121422 -0.951482 0)
(0.0195951 -0.955908 0)
(0.0268447 -0.958464 0)
(0.0339474 -0.959867 0)
(0.0409689 -0.959211 0)
(0.0480445 -0.953809 0)
(0.0554193 -0.937127 0)
(0.0632533 -0.894303 0)
(0.0698612 -0.800982 0)
(0.00595777 -0.926643 0)
(0.0142995 -0.940931 0)
(0.0231272 -0.945724 0)
(0.0317233 -0.948513 0)
(0.0401521 -0.950076 0)
(0.0484633 -0.949458 0)
(0.0567449 -0.943898 0)
(0.065108 -0.926979 0)
(0.0734074 -0.885065 0)
(0.0795496 -0.797861 0)
(0.00694692 -0.913166 0)
(0.0167617 -0.928485 0)
(0.0271688 -0.933687 0)
(0.0373142 -0.936734 0)
(0.047274 -0.938491 0)
(0.0570823 -0.937988 0)
(0.066774 -0.932468 0)
(0.0763243 -0.91578 0)
(0.085296 -0.875646 0)
(0.0913503 -0.795172 0)
(0.00804076 -0.897372 0)
(0.0195248 -0.913846 0)
(0.0317447 -0.919518 0)
(0.0436565 -0.922849 0)
(0.0553652 -0.92483 0)
(0.0668947 -0.924518 0)
(0.0782262 -0.919232 0)
(0.0892063 -0.903225 0)
(0.0991433 -0.865632 0)
(0.105567 -0.792373 0)
(0.00924727 -0.879663 0)
(0.0225619 -0.897121 0)
(0.0367671 -0.903298 0)
(0.0506121 -0.906929 0)
(0.0642453 -0.909152 0)
(0.0776831 -0.909088 0)
(0.0908574 -0.904203 0)
(0.103504 -0.889242 0)
(0.114733 -0.854735 0)
(0.122026 -0.788887 0)
(0.0105988 -0.859362 0)
(0.0258902 -0.878206 0)
(0.0422117 -0.884913 0)
(0.0581372 -0.888851 0)
(0.0738505 -0.891322 0)
(0.0893651 -0.891545 0)
(0.104572 -0.887182 0)
(0.11912 -0.873537 0)
(0.131985 -0.842468 0)
(0.140665 -0.784062 0)
(0.0120778 -0.836228 0)
(0.0295182 -0.856597 0)
(0.0481365 -0.863864 0)
(0.0663215 -0.868118 0)
(0.0842898 -0.870837 0)
(0.102065 -0.871366 0)
(0.119511 -0.867611 0)
(0.136218 -0.855472 0)
(0.151089 -0.828075 0)
(0.161699 -0.777123 0)
(0.013665 -0.809957 0)
(0.0334119 -0.832064 0)
(0.0544936 -0.839945 0)
(0.0750934 -0.844527 0)
(0.0954619 -0.847488 0)
(0.115648 -0.848325 0)
(0.135504 -0.845219 0)
(0.154591 -0.834676 0)
(0.171808 -0.811006 0)
(0.184862 -0.767325 0)
(0.0153521 -0.780292 0)
(0.0375506 -0.804392 0)
(0.0612331 -0.812967 0)
(0.0843677 -0.817905 0)
(0.10724 -0.821108 0)
(0.129938 -0.822244 0)
(0.152321 -0.819784 0)
(0.173956 -0.810827 0)
(0.19379 -0.790764 0)
(0.20972 -0.753969 0)
(0.017133 -0.74703 0)
(0.0419131 -0.773416 0)
(0.0683007 -0.782797 0)
(0.0940494 -0.788141 0)
(0.119478 -0.7916 0)
(0.144732 -0.793024 0)
(0.169691 -0.791174 0)
(0.193959 -0.783707 0)
(0.216579 -0.766976 0)
(0.235688 -0.736483 0)
(0.0190038 -0.709986 0)
(0.0464794 -0.73901 0)
(0.0756421 -0.749352 0)
(0.104041 -0.755187 0)
(0.132025 -0.758943 0)
(0.159809 -0.760652 0)
(0.187314 -0.759358 0)
(0.214202 -0.753224 0)
(0.239652 -0.739437 0)
(0.262071 -0.714494 0)
(0.0209648 -0.668981 0)
(0.051238 -0.701075 0)
(0.0832121 -0.7126 0)
(0.114253 -0.71906 0)
(0.144731 -0.723191 0)
(0.174952 -0.725207 0)
(0.20489 -0.724419 0)
(0.234284 -0.719431 0)
(0.262467 -0.708136 0)
(0.288138 -0.687892 0)
(0.0230229 -0.623834 0)
(0.0561922 -0.659537 0)
(0.0909836 -0.672555 0)
(0.124611 -0.679841 0)
(0.157466 -0.684477 0)
(0.189962 -0.686863 0)
(0.22214 -0.686552 0)
(0.253826 -0.68253 0)
(0.284518 -0.673268 0)
(0.3132 -0.656844 0)
(0.0251941 -0.574346 0)
(0.0613648 -0.614337 0)
(0.0989518 -0.629283 0)
(0.135064 -0.637678 0)
(0.170118 -0.643012 0)
(0.204662 -0.645879 0)
(0.238819 -0.646055 0)
(0.272506 -0.642852 0)
(0.305377 -0.635207 0)
(0.336678 -0.621781 0)
(0.0275042 -0.520289 0)
(0.0667998 -0.565431 0)
(0.107133 -0.582902 0)
(0.145574 -0.592789 0)
(0.182587 -0.599081 0)
(0.218895 -0.602591 0)
(0.254715 -0.60331 0)
(0.290054 -0.600827 0)
(0.324708 -0.594457 0)
(0.35815 -0.583321 0)
(0.029992 -0.461376 0)
(0.0725558 -0.512784 0)
(0.115546 -0.533595 0)
(0.156092 -0.545477 0)
(0.194757 -0.553045 0)
(0.232489 -0.557398 0)
(0.269621 -0.558747 0)
(0.30624 -0.556936 0)
(0.34226 -0.551586 0)
(0.377338 -0.542178 0)
(0.0326871 -0.397271 0)
(0.0786884 -0.456409 0)
(0.124174 -0.481625 0)
(0.166504 -0.496118 0)
(0.206439 -0.505329 0)
(0.245212 -0.510739 0)
(0.283285 -0.512823 0)
(0.320817 -0.511666 0)
(0.357812 -0.507153 0)
(0.394064 -0.499056 0)
(0.0357387 -0.32753 0)
(0.0851531 -0.396396 0)
(0.132809 -0.427436 0)
(0.176519 -0.445249 0)
(0.217289 -0.45645 0)
(0.256689 -0.463093 0)
(0.29534 -0.465981 0)
(0.333457 -0.465458 0)
(0.371103 -0.461646 0)
(0.408158 -0.454557 0)
(0.0390787 -0.252302 0)
(0.091797 -0.333174 0)
(0.140864 -0.371207 0)
(0.185391 -0.393252 0)
(0.226578 -0.406896 0)
(0.266245 -0.414918 0)
(0.305178 -0.418619 0)
(0.343641 -0.418667 0)
(0.381721 -0.41543 0)
(0.419342 -0.409123 0)
(0.0397594 -0.169229 0)
(0.096276 -0.269867 0)
(0.147142 -0.315096 0)
(0.192192 -0.341083 0)
(0.233283 -0.35715 0)
(0.272839 -0.366544 0)
(0.311843 -0.370985 0)
(0.350539 -0.371495 0)
(0.388987 -0.368692 0)
(0.427116 -0.362977 0)
(0.0331822 -0.0818256 0)
(0.0910359 -0.1953 0)
(0.146028 -0.256061 0)
(0.193567 -0.289024 0)
(0.235256 -0.307843 0)
(0.274796 -0.318343 0)
(0.313887 -0.323241 0)
(0.352892 -0.323984 0)
(0.391841 -0.321422 0)
(0.430628 -0.316116 0)
(0.0205738 -0.0168148 0)
(0.0717117 -0.116448 0)
(0.129493 -0.190009 0)
(0.18195 -0.233548 0)
(0.227081 -0.257452 0)
(0.268447 -0.269779 0)
(0.308656 -0.275085 0)
(0.348632 -0.275793 0)
(0.38859 -0.273215 0)
(0.42847 -0.268118 0)
(0.00835386 0.0226635 0)
(0.0457493 -0.0462789 0)
(0.0976309 -0.11961 0)
(0.151582 -0.171186 0)
(0.201289 -0.201891 0)
(0.247145 -0.218034 0)
(0.290923 -0.224889 0)
(0.333728 -0.226001 0)
(0.376067 -0.223496 0)
(0.418078 -0.218585 0)
(-0.0052455 0.0416264 0)
(0.0211167 0.00157881 0)
(0.0584657 -0.0569139 0)
(0.104503 -0.106344 0)
(0.153973 -0.139627 0)
(0.203919 -0.159199 0)
(0.25308 -0.168707 0)
(0.301125 -0.171478 0)
(0.348121 -0.16993 0)
(0.394227 -0.165714 0)
(-0.0208814 0.0423842 0)
(-0.0085916 0.0198727 0)
(0.0150241 -0.0146793 0)
(0.0477151 -0.0505905 0)
(0.090011 -0.0781102 0)
(0.139434 -0.0955013 0)
(0.192787 -0.104605 0)
(0.246859 -0.108229 0)
(0.300104 -0.107757 0)
(0.352263 -0.10448 0)
(-0.0258168 0.0119185 0)
(-0.0437859 0.000753538 0)
(-0.0485748 -0.0153968 0)
(-0.0232443 -0.0296824 0)
(0.0104063 -0.0410313 0)
(0.0557137 -0.0466155 0)
(0.108038 -0.0501444 0)
(0.169512 -0.0528489 0)
(0.231756 -0.0533823 0)
(0.291636 -0.0517399 0)
(-0.0403895 -0.156775 0)
(-0.119972 0.0121119 0)
(-0.105671 0.0176183 0)
(-0.0908859 0.0193678 0)
(-0.0742843 0.0215661 0)
(-0.0551838 0.0229736 0)
(-0.0347145 0.0234716 0)
(-0.0155013 0.0236538 0)
(0.00369204 0.023464 0)
(0.0224386 0.0219956 0)
(0.0399187 0.0205956 0)
(0.0577987 0.0189143 0)
(0.0725044 0.0163422 0)
(0.084566 0.013331 0)
(0.0939488 0.0101611 0)
(0.10031 0.00706112 0)
(0.103457 0.00410118 0)
(0.103087 0.000499938 0)
(0.0989719 -0.00346984 0)
(0.0907657 -0.007593 0)
(0.0782894 -0.0116984 0)
(0.0616311 -0.0154025 0)
(0.0411773 -0.017136 0)
(0.0186998 -0.0145427 0)
(0.00406495 -0.00755206 0)
(-0.0236148 -0.231584 0)
(-0.0728613 -0.011462 0)
(-0.0797022 0.0187711 0)
(-0.0759564 0.0276356 0)
(-0.0664533 0.0332573 0)
(-0.0535557 0.0370655 0)
(-0.0385614 0.0391668 0)
(-0.0222486 0.0399003 0)
(-0.00536433 0.0393552 0)
(0.0111351 0.0374929 0)
(0.0264736 0.034664 0)
(0.0403316 0.0309036 0)
(0.0524117 0.0261285 0)
(0.0625906 0.0207541 0)
(0.0706679 0.0150257 0)
(0.0764375 0.00899686 0)
(0.0797421 0.00262332 0)
(0.0806577 -0.00411468 0)
(0.0792511 -0.0112204 0)
(0.0754071 -0.0187115 0)
(0.0689625 -0.0264304 0)
(0.0596381 -0.0337732 0)
(0.0473464 -0.0388539 0)
(0.029884 -0.0379919 0)
(0.0120313 -0.0278027 0)
(-0.00340493 -0.30772 0)
(-0.0529613 -0.0448365 0)
(-0.0668724 0.0134975 0)
(-0.0682201 0.0335723 0)
(-0.0628024 0.0451104 0)
(-0.0532458 0.0524997 0)
(-0.0411552 0.056789 0)
(-0.0275329 0.0585359 0)
(-0.0132198 0.0581514 0)
(0.00102155 0.055902 0)
(0.0145451 0.0520191 0)
(0.0268687 0.046664 0)
(0.0376715 0.0400211 0)
(0.0467398 0.0324101 0)
(0.0538902 0.0241195 0)
(0.0589909 0.0153421 0)
(0.0619839 0.006173 0)
(0.0629027 -0.00341138 0)
(0.061844 -0.0134909 0)
(0.0588961 -0.0240993 0)
(0.0541247 -0.0351462 0)
(0.047472 -0.0461529 0)
(0.0387804 -0.0555426 0)
(0.027102 -0.0592714 0)
(0.0139425 -0.0516076 0)
(0.00745516 -0.381076 0)
(-0.0450576 -0.0846437 0)
(-0.0635069 0.00249402 0)
(-0.0676827 0.0359399 0)
(-0.0644614 0.0544087 0)
(-0.0567189 0.0660687 0)
(-0.0463386 0.0730707 0)
(-0.0343792 0.0763244 0)
(-0.0216437 0.0764123 0)
(-0.00879723 0.0737578 0)
(0.00358404 0.0687186 0)
(0.0150033 0.06163 0)
(0.0250691 0.0528526 0)
(0.033494 0.0428063 0)
(0.0400892 0.0318899 0)
(0.0447675 0.0204138 0)
(0.0475373 0.00857492 0)
(0.0484847 -0.00354609 0)
(0.0477349 -0.0159704 0)
(0.0454225 -0.0287681 0)
(0.0416704 -0.0419555 0)
(0.0365217 -0.0552963 0)
(0.029817 -0.0677408 0)
(0.0213221 -0.0761073 0)
(0.0129409 -0.0776341 0)
(0.0167272 -0.441564 0)
(-0.0363061 -0.134482 0)
(-0.0606557 -0.0160161 0)
(-0.06848 0.0341824 0)
(-0.0680737 0.0612048 0)
(-0.061969 0.0775795 0)
(-0.0530879 0.0873947 0)
(-0.042493 0.0922641 0)
(-0.0309691 0.0930302 0)
(-0.0191328 0.0902402 0)
(-0.00753392 0.084337 0)
(0.0033227 0.0757612 0)
(0.0129892 0.0650151 0)
(0.0211151 0.0526634 0)
(0.0274821 0.0392663 0)
(0.0320188 0.0252898 0)
(0.0347811 0.011049 0)
(0.0359088 -0.00330565 0)
(0.035567 -0.017768 0)
(0.0339203 -0.032406 0)
(0.0311175 -0.047272 0)
(0.0272392 -0.0622443 0)
(0.0221666 -0.0766343 0)
(0.0155441 -0.0883772 0)
(0.0103208 -0.0950732 0)
(0.0252007 -0.48912 0)
(-0.024919 -0.18762 0)
(-0.0527038 -0.0422514 0)
(-0.0665227 0.0267828 0)
(-0.0697189 0.064354 0)
(-0.0663841 0.0864257 0)
(-0.0595636 0.0995365 0)
(-0.0507186 0.106298 0)
(-0.0406027 0.108057 0)
(-0.029842 0.105496 0)
(-0.0189822 0.0990976 0)
(-0.00855977 0.0893516 0)
(0.000914375 0.076854 0)
(0.00900679 0.0623339 0)
(0.0154319 0.0465646 0)
(0.0200946 0.0302218 0)
(0.0230719 0.013773 0)
(0.0245476 -0.00255517 0)
(0.0247289 -0.0187443 0)
(0.0238091 -0.0348915 0)
(0.0219559 -0.0511033 0)
(0.0192709 -0.0673466 0)
(0.0157121 -0.0831636 0)
(0.010727 -0.0972792 0)
(0.0076202 -0.107329 0)
(0.0305253 -0.525729 0)
(-0.0116584 -0.238495 0)
(-0.041372 -0.0753833 0)
(-0.0601919 0.012735 0)
(-0.0677749 0.0621851 0)
(-0.0683856 0.0914077 0)
(-0.0646378 0.108601 0)
(-0.0582089 0.117869 0)
(-0.0499762 0.121179 0)
(-0.0406182 0.119394 0)
(-0.0306794 0.113029 0)
(-0.020725 0.102564 0)
(-0.0113482 0.0886505 0)
(-0.00309133 0.0721722 0)
(0.00365023 0.0541486 0)
(0.00870207 0.0355362 0)
(0.0121208 0.017006 0)
(0.0141174 -0.00111758 0)
(0.0149404 -0.0188067 0)
(0.0148161 -0.0362017 0)
(0.0139357 -0.0534786 0)
(0.0124225 -0.0707047 0)
(0.0102969 -0.0876182 0)
(0.0069232 -0.10344 0)
(0.0054831 -0.115912 0)
(0.0345644 -0.554435 0)
(0.000701434 -0.283739 0)
(-0.029613 -0.11061 0)
(-0.0512044 -0.007485 0)
(-0.0632437 0.0539283 0)
(-0.0680839 0.0909634 0)
(-0.06813 0.113334 0)
(-0.0646207 0.126152 0)
(-0.0588047 0.131778 0)
(-0.0512983 0.131497 0)
(-0.0426096 0.125895 0)
(-0.0332855 0.115377 0)
(-0.0239895 0.100565 0)
(-0.0154048 0.0824681 0)
(-0.00809272 0.0623725 0)
(-0.00237052 0.0415653 0)
(0.00173492 0.0210127 0)
(0.0044323 0.00119654 0)
(0.00601199 -0.0178359 0)
(0.00674477 -0.0362823 0)
(0.0068538 -0.0543991 0)
(0.0064864 -0.072356 0)
(0.0056992 -0.0900677 0)
(0.00385664 -0.107104 0)
(0.00384212 -0.121358 0)
(0.0383116 -0.577067 0)
(0.0108424 -0.32384 0)
(-0.0183994 -0.146475 0)
(-0.0415142 -0.0322647 0)
(-0.0570633 0.0398317 0)
(-0.0659911 0.0849937 0)
(-0.0697526 0.113357 0)
(-0.0698544 0.130385 0)
(-0.066993 0.139126 0)
(-0.0618413 0.141204 0)
(-0.0548481 0.13728 0)
(-0.0464483 0.127624 0)
(-0.0373117 0.112689 0)
(-0.0282682 0.093511 0)
(-0.0201009 0.0716188 0)
(-0.013373 0.0486916 0)
(-0.00828658 0.026099 0)
(-0.00468495 0.0045842 0)
(-0.00223241 -0.0157273 0)
(-0.000590932 -0.0350954 0)
(0.000512757 -0.0538819 0)
(0.00125332 -0.0723715 0)
(0.00170534 -0.0906408 0)
(0.00128641 -0.108537 0)
(0.00245581 -0.124193 0)
(0.0420258 -0.595232 0)
(0.0193713 -0.359357 0)
(-0.00809453 -0.181724 0)
(-0.0320283 -0.0598761 0)
(-0.0502922 0.0211537 0)
(-0.0627879 0.0740774 0)
(-0.0704076 0.108271 0)
(-0.0741442 0.129952 0)
(-0.0746431 0.14257 0)
(-0.0722751 0.147866 0)
(-0.0674747 0.146624 0)
(-0.0604663 0.138964 0)
(-0.0517186 0.124999 0)
(-0.0421762 0.105574 0)
(-0.0328654 0.0823474 0)
(-0.0247028 0.0574018 0)
(-0.0182276 0.0326504 0)
(-0.0134432 0.00928952 0)
(-0.00997091 -0.0123594 0)
(-0.00736395 -0.0326107 0)
(-0.00526354 -0.0519635 0)
(-0.00345205 -0.0708461 0)
(-0.00185169 -0.0895075 0)
(-0.000948821 -0.108028 0)
(0.0011386 -0.124799 0)
(0.0457817 -0.61011 0)
(0.0267826 -0.390899 0)
(0.00121356 -0.215876 0)
(-0.0230696 -0.0893791 0)
(-0.0433812 -0.00147605 0)
(-0.0590008 0.0582134 0)
(-0.0702413 0.0981917 0)
(-0.07768 0.124697 0)
(-0.0817808 0.141646 0)
(-0.0826954 0.150844 0)
(-0.0804021 0.153266 0)
(-0.075457 0.148835 0)
(-0.0676108 0.137239 0)
(-0.0577594 0.118818 0)
(-0.0471243 0.0950672 0)
(-0.0370289 0.0683474 0)
(-0.0285719 0.0412222 0)
(-0.0221571 0.0156591 0)
(-0.0174241 -0.00755892 0)
(-0.0137506 -0.0287599 0)
(-0.0106303 -0.0486463 0)
(-0.00776534 -0.0678432 0)
(-0.00507635 -0.0868059 0)
(-0.00295013 -0.10587 0)
(-5.49099e-05 -0.123393 0)
(0.05005 -0.622727 0)
(0.0335642 -0.419268 0)
(0.009692 -0.248843 0)
(-0.0146718 -0.12011 0)
(-0.0365293 -0.0272119 0)
(-0.0547955 0.038077 0)
(-0.0693147 0.0832731 0)
(-0.0803218 0.114457 0)
(-0.0880942 0.135841 0)
(-0.0926948 0.149694 0)
(-0.0937225 0.156227 0)
(-0.091114 0.156442 0)
(-0.0850976 0.148766 0)
(-0.0756014 0.133037 0)
(-0.0638284 0.110148 0)
(-0.0514226 0.0823107 0)
(-0.0401907 0.0526064 0)
(-0.0313536 0.0242073 0)
(-0.0248725 -0.00107442 0)
(-0.0199159 -0.0234425 0)
(-0.0156968 -0.0438978 0)
(-0.011771 -0.0633801 0)
(-0.00803798 -0.0826275 0)
(-0.00477713 -0.102235 0)
(-0.00121512 -0.120118 0)
(0.0550128 -0.633985 0)
(0.0402159 -0.44526 0)
(0.0177166 -0.28075 0)
(-0.00659073 -0.151685 0)
(-0.0296388 -0.0554526 0)
(-0.0500916 0.0142598 0)
(-0.0674437 0.063988 0)
(-0.0816932 0.099471 0)
(-0.0929535 0.125051 0)
(-0.101192 0.143348 0)
(-0.106157 0.155304 0)
(-0.106889 0.16031 0)
(-0.103518 0.158361 0)
(-0.0957304 0.147313 0)
(-0.0837736 0.127418 0)
(-0.0692825 0.100089 0)
(-0.0544854 0.0682283 0)
(-0.0417599 0.0361127 0)
(-0.0324229 0.0077245 0)
(-0.0257106 -0.016429 0)
(-0.0202593 -0.0377348 0)
(-0.0153173 -0.0575481 0)
(-0.0106543 -0.0770815 0)
(-0.00640688 -0.0972402 0)
(-0.00208179 -0.115131 0)
(0.0609638 -0.644493 0)
(0.0473062 -0.469537 0)
(0.0258566 -0.311789 0)
(0.00165135 -0.183866 0)
(-0.0223201 -0.0856777 0)
(-0.0445163 -0.012628 0)
(-0.0642392 0.0408942 0)
(-0.0813175 0.0801975 0)
(-0.0957384 0.10961 0)
(-0.10744 0.132025 0)
(-0.116112 0.148788 0)
(-0.121202 0.15976 0)
(-0.121615 0.163685 0)
(-0.117036 0.159741 0)
(-0.10689 0.145555 0)
(-0.0917649 0.121666 0)
(-0.073601 0.0898174 0)
(-0.0553632 0.0536796 0)
(-0.0409405 0.0202585 0)
(-0.0313146 -0.00701997 0)
(-0.0242399 -0.0299157 0)
(-0.0182829 -0.0504308 0)
(-0.0128079 -0.0703493 0)
(-0.00774221 -0.0910529 0)
(-0.00282215 -0.108705 0)
(0.0683688 -0.654627 0)
(0.0554827 -0.492613 0)
(0.0348267 -0.342157 0)
(0.0107313 -0.216503 0)
(-0.0139336 -0.117476 0)
(-0.0374976 -0.0419885 0)
(-0.0591571 0.0146152 0)
(-0.0785924 0.0571856 0)
(-0.0957488 0.0899333 0)
(-0.110591 0.115932 0)
(-0.122887 0.136904 0)
(-0.132089 0.153174 0)
(-0.137356 0.163717 0)
(-0.137429 0.167021 0)
(-0.131408 0.161622 0)
(-0.118588 0.14479 0)
(-0.0997485 0.117164 0)
(-0.0765463 0.0800659 0)
(-0.0539753 0.0396927 0)
(-0.0382001 0.00598448 0)
(-0.0281798 -0.0200057 0)
(-0.0207899 -0.0419448 0)
(-0.0144665 -0.0625737 0)
(-0.00868893 -0.0838245 0)
(-0.0033544 -0.10121 0)
(0.0777171 -0.66455 0)
(0.0654156 -0.514823 0)
(0.0453983 -0.371997 0)
(0.0214327 -0.249455 0)
(-0.00371773 -0.15047 0)
(-0.0283286 -0.0733067 0)
(-0.0514817 -0.0142368 0)
(-0.0727756 0.0310729 0)
(-0.0921517 0.0666242 0)
(-0.10961 0.0955526 0)
(-0.125065 0.119893 0)
(-0.138157 0.140445 0)
(-0.148125 0.15679 0)
(-0.153868 0.16743 0)
(-0.153837 0.170718 0)
(-0.146659 0.16472 0)
(-0.131638 0.146255 0)
(-0.108344 0.115132 0)
(-0.0787556 0.071729 0)
(-0.0515264 0.0273484 0)
(-0.0339852 -0.00650052 0)
(-0.0233365 -0.0316386 0)
(-0.0156059 -0.0536307 0)
(-0.00906882 -0.0757451 0)
(-0.00358918 -0.0932625 0)
(0.0894786 -0.674201 0)
(0.0777627 -0.536292 0)
(0.058359 -0.40135 0)
(0.0346035 -0.282565 0)
(0.00916866 -0.184328 0)
(-0.0161882 -0.106097 0)
(-0.0404434 -0.0450311 0)
(-0.0631345 0.00257819 0)
(-0.0841761 0.0404605 0)
(-0.103627 0.0717124 0)
(-0.121533 0.0985638 0)
(-0.137779 0.122213 0)
(-0.15189 0.142801 0)
(-0.162991 0.159547 0)
(-0.169783 0.170888 0)
(-0.170501 0.174791 0)
(-0.163363 0.169293 0)
(-0.147228 0.151015 0)
(-0.119393 0.116054 0)
(-0.082942 0.0668193 0)
(-0.0492532 0.0176027 0)
(-0.028479 -0.0177008 0)
(-0.0163471 -0.0426935 0)
(-0.00797174 -0.0654576 0)
(-0.00300128 -0.0858487 0)
(0.104073 -0.683299 0)
(0.0931267 -0.556926 0)
(0.0744583 -0.430118 0)
(0.0510696 -0.31563 0)
(0.02556 -0.218735 0)
(-0.000263261 -0.139926 0)
(-0.025289 -0.0772498 0)
(-0.048967 -0.0276444 0)
(-0.0711766 0.0122321 0)
(-0.0920112 0.0453508 0)
(-0.111627 0.0740095 0)
(-0.130118 0.0996793 0)
(-0.147322 0.122936 0)
(-0.162759 0.143573 0)
(-0.175549 0.160729 0)
(-0.184203 0.172924 0)
(-0.187381 0.177762 0)
(-0.182303 0.174497 0)
(-0.166358 0.157556 0)
(-0.136462 0.121144 0)
(-0.0938069 0.068867 0)
(-0.0506467 0.0123258 0)
(-0.0204171 -0.0307786 0)
(-0.00433006 -0.0577858 0)
(-0.00120133 -0.0832448 0)
(0.121415 -0.6912 0)
(0.111578 -0.576019 0)
(0.0939152 -0.457484 0)
(0.0711477 -0.347719 0)
(0.0458258 -0.252658 0)
(0.0198242 -0.173721 0)
(-0.00565926 -0.109775 0)
(-0.0299808 -0.0584196 0)
(-0.0529494 -0.0167855 0)
(-0.0746533 0.0178847 0)
(-0.0953228 0.0478614 0)
(-0.115193 0.0747535 0)
(-0.134347 0.0994262 0)
(-0.152639 0.122076 0)
(-0.169654 0.142366 0)
(-0.184616 0.159508 0)
(-0.196247 0.172303 0)
(-0.202544 0.178746 0)
(-0.203012 0.17784 0)
(-0.191482 0.162719 0)
(-0.163681 0.131059 0)
(-0.121153 0.08455 0)
(-0.0674559 0.0323613 0)
(-0.0159349 -0.0144221 0)
(0.019029 -0.0526255 0)
(0.141499 -0.697334 0)
(0.13324 -0.59312 0)
(0.116988 -0.48306 0)
(0.0951949 -0.378466 0)
(0.0703723 -0.285722 0)
(0.0444698 -0.207082 0)
(0.0187898 -0.142182 0)
(-0.00592104 -0.0892789 0)
(-0.0293764 -0.0460051 0)
(-0.0516022 -0.00992532 0)
(-0.07284 0.0211213 0)
(-0.093425 0.0487873 0)
(-0.113602 0.0741058 0)
(-0.133465 0.0975232 0)
(-0.152938 0.119006 0)
(-0.171764 0.138156 0)
(-0.189445 0.154266 0)
(-0.205156 0.16629 0)
(-0.217531 0.17289 0)
(-0.224127 0.173662 0)
(-0.223758 0.158764 0)
(-0.210739 0.132065 0)
(-0.186096 0.0972776 0)
(-0.147008 0.058546 0)
(-0.110226 0.010487 0)
(0.16461 -0.701143 0)
(0.158542 -0.607953 0)
(0.144278 -0.506814 0)
(0.123977 -0.40802 0)
(0.100084 -0.318196 0)
(0.0746307 -0.240326 0)
(0.0490426 -0.17482 0)
(0.0241848 -0.120565 0)
(0.000455682 -0.0757226 0)
(-0.0220712 -0.0382303 0)
(-0.0435839 -0.00615 0)
(-0.0644335 0.0221278 0)
(-0.0849636 0.0477307 0)
(-0.105405 0.0712637 0)
(-0.12587 0.0928531 0)
(-0.146387 0.112236 0)
(-0.166948 0.12889 0)
(-0.187516 0.142123 0)
(-0.207965 0.150908 0)
(-0.227752 0.153415 0)
(-0.24603 0.146714 0)
(-0.2599 0.126206 0)
(-0.267162 0.0889199 0)
(-0.273685 0.0356363 0)
(-0.277235 -0.026641 0)
(0.190488 -0.701786 0)
(0.187307 -0.619655 0)
(0.175755 -0.527935 0)
(0.157628 -0.43568 0)
(0.135253 -0.349511 0)
(0.110722 -0.273009 0)
(0.0855942 -0.207318 0)
(0.0608762 -0.151989 0)
(0.037102 -0.105699 0)
(0.0144488 -0.0667825 0)
(-0.00716691 -0.0335868 0)
(-0.0280212 -0.00463017 0)
(-0.0484657 0.0212339 0)
(-0.068787 0.0447386 0)
(-0.0891356 0.06614 0)
(-0.109565 0.0852093 0)
(-0.130141 0.101349 0)
(-0.150997 0.113827 0)
(-0.172295 0.121892 0)
(-0.194209 0.124677 0)
(-0.216723 0.120844 0)
(-0.238573 0.109136 0)
(-0.255386 0.0863051 0)
(-0.265407 0.0512984 0)
(-0.266776 0.00607517 0)
(0.218646 -0.698395 0)
(0.219065 -0.627238 0)
(0.21105 -0.545407 0)
(0.195943 -0.46051 0)
(0.175857 -0.378877 0)
(0.152892 -0.304505 0)
(0.128733 -0.239201 0)
(0.104548 -0.183174 0)
(0.0810272 -0.135654 0)
(0.0584723 -0.0953913 0)
(0.0369052 -0.0610097 0)
(0.0161583 -0.0312146 0)
(-0.00402891 -0.00489854 0)
(-0.023925 0.0187737 0)
(-0.0436596 0.040226 0)
(-0.0631964 0.0593285 0)
(-0.0824633 0.0754618 0)
(-0.101472 0.0878896 0)
(-0.120149 0.0957677 0)
(-0.138554 0.0980187 0)
(-0.156365 0.0938173 0)
(-0.17274 0.0831222 0)
(-0.185626 0.0658877 0)
(-0.192071 0.043456 0)
(-0.189568 0.0169951 0)
(0.248369 -0.690176 0)
(0.253028 -0.629684 0)
(0.249392 -0.558069 0)
(0.23827 -0.481349 0)
(0.221431 -0.405255 0)
(0.200884 -0.333955 0)
(0.178398 -0.269794 0)
(0.155301 -0.213608 0)
(0.132458 -0.165195 0)
(0.110331 -0.123755 0)
(0.0890696 -0.0882308 0)
(0.0686054 -0.0575167 0)
(0.048745 -0.030576 0)
(0.0292949 -0.00651323 0)
(0.0102323 0.0153093 0)
(-0.00845075 0.0349928 0)
(-0.0266065 0.0518403 0)
(-0.0442392 0.0650106 0)
(-0.0612509 0.0736368 0)
(-0.0771102 0.0771309 0)
(-0.091209 0.0754921 0)
(-0.102749 0.068802 0)
(-0.110761 0.057138 0)