/*--------------------------------*- C++ -*----------------------------------*\
| =========                 |                                                 |
| \\      /  F ield         | OpenFOAM: The Open Source CFD Toolbox           |
|  \\    /   O peration     | Version:  v2012                                 |
|   \\  /    A nd           | Website:  www.openfoam.com                      |
|    \\/     M anipulation  |                                                 |
\*---------------------------------------------------------------------------*/
FoamFile
{
    version     2.0;
    format      ascii;
    class       volScalarField;
    location    "2000";
    object      age;
}
// * * * * * * * * * * * * * * * * * * * * * * * * * * * * * * * * * * * * * //

dimensions      [0 0 1 0 0 0 0];


internalField   nonuniform List<scalar> 
21265
(
11.0598
10.4874
5.71543
16.5971
7.4575
6.26073
9.22611
9.55867
12.1868
7.87871
9.60287
5.50576
24.5307
8.14528
14.611
78.5588
8.38154
43.5044
6.64093
18.1633
9.68456
20.8003
16.634
12.6119
22.9472
7.16488
13.1662
10.2308
11.6377
10.3005
11.8269
15.7665
8.17979
22.3261
5.84166
9.02291
6.52867
7.13263
8.04788
21.8767
20.671
4.16509
21.2451
7.05688
7.56469
8.55021
22.3743
74.6183
8.49422
16.1461
4.66018
40.2463
8.15019
12.8923
7.6081
5.82321
6.61264
21.0083
4.1802
10.6922
7.62125
8.03633
8.7397
22.4299
9.80941
12.2503
63.0142
79.2807
12.7694
10.2479
18.8874
48.2542
8.99258
33.3993
11.8404
11.9864
28.6017
9.04004
7.01874
4.68894
17.1561
11.6526
4.52939
41.2727
5.06589
22.0373
10.392
9.23402
14.059
16.0394
11.9714
16.6514
16.7186
8.53603
9.85897
21.5017
7.05691
61.3527
9.10229
4.61788
7.56955
7.49748
9.46248
15.2667
8.8914
13.7505
9.02617
16.17
9.96898
22.4543
7.84398
5.14433
7.96247
39.342
4.10475
7.83701
5.1451
12.9856
7.93431
11.9465
9.03625
8.05663
9.15234
8.36339
7.44243
11.2025
6.40007
12.9793
9.66532
11.201
6.26017
5.2483
8.40687
8.20359
8.89473
12.6143
6.0806
13.9799
3.93595
9.46317
7.39835
29.4225
13.4879
8.5786
9.48815
11.628
8.25061
9.70953
5.67669
16.652
71.0061
8.84679
7.10932
9.89474
13.1577
44.9119
7.47191
16.0777
15.8022
8.57924
4.55669
16.613
8.31015
8.1757
9.14732
9.67682
25.7564
8.51367
18.7887
6.49954
21.9107
5.258
6.85386
10.2148
7.13133
4.22961
27.0259
9.06995
9.50158
6.77404
13.5364
8.70283
16.0129
11.5393
20.1028
79.09
6.12069
41.2964
37.6442
37.1722
6.527
57.9354
14.3036
29.1505
15.5919
3.20674
21.0893
9.39281
25.3401
19.4207
14.1316
7.07112
16.4316
11.826
53.5359
7.43165
21.0108
16.2707
4.33334
20.9233
7.54282
10.5743
13.5375
11.166
8.34713
8.66056
13.4076
4.76928
25.0866
10.0902
7.58005
14.6567
5.99657
9.28555
28.1051
23.9908
51.196
8.12661
28.2783
6.6604
6.95697
6.38277
8.55148
6.05885
17.9539
20.2951
27.2948
23.6372
7.83326
7.12925
35.9453
8.69746
28.6706
11.9935
16.3678
27.9556
4.00977
31.3025
8.7549
8.18371
14.0412
8.87672
17.8526
66.1633
6.18868
52.5592
21.9898
8.39005
12.8244
7.56636
10.7935
8.16694
34.6169
76.767
15.353
66.6584
5.34465
42.022
10.9531
23.2107
10.4058
5.55022
7.28819
15.516
13.6299
28.6482
31.0714
35.6994
7.2548
16.705
15.8822
21.6726
19.5148
32.1051
29.6064
30.0406
9.85527
23.5227
3.6523
20.332
24.2324
6.83221
35.6471
12.6666
8.13122
21.6284
5.95753
7.00724
19.7916
4.03316
5.57371
6.0726
12.1914
16.25
6.19536
8.34909
12.7432
8.71116
30.3801
5.35042
4.84514
10.0229
8.22386
6.80841
11.9971
15.9644
15.0372
8.25422
5.24121
13.4335
18.3027
16.4602
21.309
5.46915
6.45867
5.27335
14.8744
3.90987
6.60461
26.9946
22.3771
8.86619
11.3802
29.1895
10.7875
5.31438
6.96757
23.2771
8.1219
11.1507
71.717
7.3723
6.83134
6.75628
5.97599
25.2513
13.2886
7.40136
10.0175
32.2819
32.1416
7.66916
6.04821
9.4529
3.10413
20.294
18.7991
11.737
7.24785
5.97645
12.2018
7.827
15.9428
25.1595
4.54043
13.9235
26.5313
16.3926
5.30931
12.492
14.3804
7.36191
21.7323
8.22478
9.00927
10.3545
5.94625
7.80911
23.0438
5.00061
23.252
4.69706
9.48138
20.9373
5.0684
40.0942
54.0409
10.1356
16.1299
14.7597
44.6109
12.0748
29.1083
6.8304
7.2873
24.1526
18.4822
17.2509
25.7783
6.36102
13.4149
7.65318
4.51537
17.7913
45.3433
26.9441
10.3152
26.0422
35.6888
13.3128
18.4726
22.8448
25.1977
75.9757
12.0177
8.81405
12.1192
10.7726
4.64901
14.2988
14.8305
6.28399
80.424
7.55295
7.38119
4.01554
8.00467
9.55931
13.1405
7.92545
6.69568
13.4929
10.1418
8.79137
4.74431
4.27946
2.93343
20.6341
7.57245
6.92059
7.06873
19.6328
7.00001
9.90835
9.90374
12.7963
18.3006
9.96917
4.0774
17.8738
9.15509
14.5164
20.7031
8.25348
27.5913
27.5121
21.8072
14.1203
3.52841
4.0995
7.60605
36.9148
21.7128
8.08419
21.4415
7.20983
9.15963
4.91685
3.23462
7.47597
35.2882
6.59323
19.6209
13.809
33.1029
46.8732
4.00764
6.4097
19.9199
21.0798
5.17551
15.3505
7.12648
21.95
12.4319
6.34587
7.01162
6.31072
19.3698
35.3459
3.88
3.40953
5.93054
10.1557
20.3548
11.1784
25.7758
5.52823
6.75543
5.04125
13.5188
5.08564
13.3364
5.17427
28.0449
17.7599
5.6986
10.6511
23.384
29.2752
23.1915
13.9261
12.1817
5.29488
7.66338
7.55281
8.01933
16.3997
11.576
9.05413
45.7996
6.94153
5.57149
24.2031
11.6534
67.7568
6.92677
22.3107
5.85005
12.9623
4.17543
14.0366
6.6448
10.5336
3.92828
14.5528
22.6715
7.20643
7.9798
10.7102
8.63104
11.3969
11.2944
7.41267
6.55213
17.5905
12.9386
15.902
17.3911
8.53557
8.97374
15.4422
8.94462
50.5788
2.63408
21.9376
6.72256
12.2419
5.72554
2.76323
21.2352
6.44802
5.45763
9.2188
6.47331
30.7543
10.6778
6.31816
9.49552
11.3367
6.03726
7.73186
4.55218
10.5097
19.4429
17.9525
7.57671
9.20989
4.69086
7.13288
4.74874
9.29418
10.7154
10.7095
11.2589
12.9528
13.213
10.0801
7.48268
6.14347
8.46473
7.67413
5.79888
16.4863
7.39243
13.2188
9.41016
21.9408
21.8374
23.7048
4.55818
13.0676
7.44536
33.9159
13.3393
53.4488
5.98948
17.6536
13.7721
29.8966
17.2383
17.6924
24.9459
10.9507
39.3676
14.103
9.13975
57.4143
48.4856
13.1047
5.9042
14.8066
6.95217
5.83429
7.84937
13.293
13.4083
10.2631
7.53607
5.746
14.0218
8.48821
21.9998
6.05019
9.78112
7.85454
5.87824
12.8663
12.4847
21.5305
6.59392
12.5818
7.8467
15.2988
58.5279
6.69062
16.9251
60.1704
9.81769
17.4952
4.74246
7.09341
6.329
9.19287
6.37565
8.98391
8.51043
28.2556
9.55204
11.3134
9.69664
10.5434
6.87576
19.243
12.4918
36.3488
11.2292
15.3203
12.1682
11.4905
8.63537
6.3557
8.51078
5.02257
13.7967
7.39281
10.6917
7.70572
12.0676
39.7123
11.3739
11.4499
12.9733
6.03941
12.0008
6.41264
7.07686
6.57709
7.33425
6.55915
10.6006
5.73572
4.73367
6.15089
10.6101
13.6785
20.5378
16.9513
4.14933
5.64493
5.55048
18.1521
13.6493
7.02035
5.4127
17.365
5.37583
7.23344
12.4723
11.5755
4.32408
10.9196
16.3874
18.436
33.2245
6.33923
10.8119
4.35335
6.70037
33.1293
11.8136
12.256
9.29695
7.62639
8.42454
10.446
7.8586
6.91973
51.2315
7.00239
6.88293
11.5958
62.9001
7.32992
37.4101
8.40979
3.06887
11.821
6.08805
5.24813
13.0988
14.1289
4.69008
12.8489
11.4271
7.94361
15.7751
8.80676
6.98487
17.3758
14.1168
13.8074
8.11865
8.60299
5.56291
9.52479
8.18618
5.7722
12.9032
10.9062
21.3884
11.0141
8.69563
7.75837
12.4811
15.7837
11.3646
14.3242
3.66809
8.01821
16.1189
11.1638
7.55475
7.71635
3.22015
7.7154
7.48989
9.14861
14.5776
7.41182
12.7234
3.66095
27.0516
22.7001
13.417
8.34066
10.7686
4.03662
6.79546
9.92669
45.9351
8.48269
9.16705
22.8708
24.3015
5.37478
7.73506
7.91375
26.199
4.87262
7.67725
7.23314
7.75282
11.9645
3.94731
10.3768
12.6205
4.12792
5.8635
6.94453
7.90327
11.6413
19.3468
6.01875
8.43527
29.4508
23.7362
8.83778
9.77686
3.78176
10.6836
10.1076
39.9434
25.0781
5.54574
9.78782
12.4721
8.7772
5.10294
11.9816
7.14976
32.4641
6.36467
4.49581
6.26641
51.0644
11.1179
12.9219
3.71629
17.4959
16.0073
13.1879
13.578
19.3328
9.13974
3.29866
5.79983
11.4414
13.1168
11.4532
10.2067
11.7624
10.5403
5.74461
3.33863
23.7699
5.915
11.1527
7.76013
12.9055
7.22931
9.2325
8.61462
9.13361
26.8755
16.8832
5.98133
6.81704
7.74299
5.96855
12.4179
7.26942
6.50437
5.95016
13.8514
14.2214
14.7884
21.5986
36.0223
3.77838
5.01076
42.6852
39.1677
2.39158
6.15331
7.4107
9.7638
7.47234
25.6199
7.47594
14.9863
13.3095
8.07099
12.6836
13.1143
4.62432
4.40691
6.08296
16.2667
28.5472
12.938
13.324
9.17761
10.2649
16.9324
7.00196
13.3599
3.10681
18.0425
5.78108
7.36956
16.3135
2.86891
7.66572
19.4483
7.27541
11.3038
14.121
11.9691
3.34447
17.3104
10.8785
10.6532
10.0507
6.83818
6.00061
12.6582
13.8367
12.2754
14.3986
7.49844
7.77241
7.21547
16.8881
29.1466
42.6028
11.9857
8.60028
6.73009
6.89467
10.6607
5.04978
15.3876
15.2695
5.36531
17.0441
17.9833
19.2206
12.9326
15.4632
7.80337
7.21812
8.20299
11.2593
9.30522
9.40983
5.42441
13.2612
6.18189
11.6445
15.2533
11.8977
10.0474
12.2139
3.25078
29.7047
7.23115
4.9946
8.73957
16.7273
5.60369
8.08587
21.6726
8.39643
14.8759
7.85269
21.1931
7.27106
15.5881
7.51996
11.7984
7.51823
11.4413
10.0653
23.8765
5.02677
12.4281
7.13007
8.12162
16.1388
25.3514
14.4698
15.3547
2.94156
53.8348
14.3065
14.2449
9.56333
10.9151
18.0971
17.9971
13.1599
8.4915
9.5169
46.5468
25.2666
7.88671
23.4451
8.20719
34.479
6.84677
14.1112
10.0001
6.77345
9.66865
6.34726
9.87253
2.566
4.53177
3.27575
9.39499
7.37073
12.9967
16.6549
6.92786
5.44206
14.2767
12.2454
13.631
20.2953
6.93126
11.8389
10.6384
23.0999
5.39768
23.4905
17.1448
13.372
17.1239
52.7748
7.34585
12.2336
26.2279
27.0899
13.2883
12.7504
22.3403
9.77316
67.5501
5.64436
10.9889
7.92561
5.49547
22.1013
11.3153
17.5091
14.6037
15.6118
5.92251
15.7651
10.0184
7.70565
21.4304
9.1667
16.8246
17.6372
7.13476
67.3515
27.3008
6.11873
63.6484
7.44973
6.61569
7.29999
23.0549
6.61758
7.25309
7.45188
42.4265
10.7547
13.6803
7.96719
11.9206
28.2445
4.53805
15.9098
4.16784
13.5265
10.9561
44.9492
15.7184
5.69299
14.1894
15.6511
10.5299
11.8912
9.36799
7.53068
8.53752
4.31467
29.1473
31.3414
8.61853
6.86661
29.6172
22.3012
10.3573
7.09166
7.53977
7.78049
27.81
15.2504
7.25138
8.83352
20.3706
7.87533
16.062
7.09936
2.62288
31.5714
10.8433
12.428
6.14511
16.9243
18.4961
9.60885
6.35988
15.8441
16.2085
11.8321
2.23257
6.89108
13.8684
12.7675
71.7784
7.83359
14.3312
11.3358
8.26942
8.16711
8.47591
14.1024
13.594
10.3488
15.052
6.1134
16.1126
3.14079
8.27285
10.4532
6.15832
8.45546
34.2238
32.2632
15.1017
5.72216
11.7226
7.67108
8.35916
10.7587
13.359
29.8164
12.4463
12.9417
51.4374
7.30082
9.04076
19.7259
8.866
11.4224
16.7085
4.06822
4.41101
35.4692
7.43527
4.85312
7.25973
16.7179
17.0086
6.14204
33.5297
11.1121
6.57495
16.1664
7.44962
14.977
4.21894
5.33012
7.42555
18.3081
2.18943
6.41602
6.6315
46.8579
7.71505
6.52051
8.78297
6.55066
3.84747
13.9103
7.37914
53.7237
15.0779
8.85241
6.67484
11.3912
1.93471
7.5244
25.4454
10.2046
11.5081
12.4094
13.4158
6.15125
2.57775
9.06746
23.5218
8.97754
8.53764
8.37699
14.0519
8.46299
13.4401
6.57495
24.6469
13.4603
23.7957
5.28064
24.3012
33.1433
4.00695
15.7252
27.6462
10.5812
2.64518
10.5045
27.9511
5.00478
9.11945
7.4272
6.93461
7.61702
7.60356
18.4658
13.1194
9.10189
4.25185
10.3741
7.44971
22.9287
2.05368
22.3236
12.1467
4.14094
16.8869
11.7766
10.7047
35.8016
18.9116
15.5798
7.35136
7.42966
7.88828
14.8618
25.63
15.7987
6.64578
8.17786
18.0591
8.55573
11.8693
11.2094
9.09193
4.79618
28.0754
18.5391
1.93589
11.2284
55.6891
11.5212
8.49909
7.92342
9.69823
10.4107
12.6178
6.22386
18.5417
19.1477
5.21937
6.08593
7.04699
8.33952
81.0308
6.27017
9.38973
20.5457
9.87658
31.8779
30.6942
23.914
8.33473
6.32543
11.3251
8.96431
7.52358
8.01982
7.55555
13.6504
21.3184
18.5236
15.1189
17.4113
27.6322
8.42196
9.45428
28.4218
4.82207
9.24074
6.28368
7.82318
25.6195
11.3099
12.4149
28.4824
27.2166
11.9244
22.8292
9.77806
8.13631
2.7468
9.07529
10.0916
16.6575
7.04517
40.2851
8.2912
5.89601
25.068
8.4088
12.0923
12.4328
11.5432
17.4659
6.89129
27.0287
10.8079
6.22723
33.3358
7.58611
6.85916
78.7805
4.0915
21.5115
22.5917
5.45725
5.59743
2.41871
15.5197
8.01938
14.632
6.17583
7.54055
35.5109
23.7731
14.0046
9.71925
18.1079
6.38203
14.9071
42.1257
8.28111
15.9817
24.8299
11.0068
24.3531
6.78267
16.3717
11.6741
6.02634
7.88942
11.0606
6.91795
6.89808
5.3802
13.5142
13.3354
8.4234
8.59832
15.9842
8.37949
19.303
39.3116
36.8856
4.37422
10.7838
5.02514
5.54141
8.80802
7.57964
2.52496
6.40586
8.02229
11.4338
21.7134
7.17276
12.3075
15.6243
9.92664
14.4872
17.7919
7.89583
5.42783
11.4069
14.7096
7.26006
7.65793
9.3074
15.5275
13.2049
22.6855
6.41531
8.49557
2.38869
22.7565
6.08698
9.27574
4.618
16.6838
17.6744
43.7048
63.8751
6.76326
14.2536
16.0563
34.5008
13.0598
14.1282
12.7565
12.4048
27.2066
12.2774
7.21218
16.4431
12.9649
3.06933
6.59524
8.46835
6.77198
20.7619
6.80497
8.78787
9.55042
18.0398
10.8986
19.4413
3.32635
3.58913
11.1084
86.3657
18.7228
5.76438
24.7402
7.94376
31.1043
3.90127
54.1465
11.3494
6.89038
13.2972
17.1933
7.92048
15.6947
30.6235
11.4653
13.8498
7.14409
10.5188
14.2415
73.0438
30.6182
15.0854
8.33368
15.855
9.79558
5.61612
8.57722
15.2551
24.9068
15.9055
11.6851
26.0084
9.18808
10.0839
16.3823
8.01046
9.46322
11.9361
15.4189
6.0058
8.18938
18.4402
43.1107
19.1443
16.2094
13.1283
6.12366
15.0277
6.49269
6.83327
3.04075
26.4835
27.5505
8.79903
6.4815
15.8746
3.21035
7.69956
9.04235
12.3785
10.6333
2.4839
9.77179
10.1364
12.9617
6.80269
12.1177
12.1579
13.0878
40.2069
16.6406
20.8155
23.3597
7.2591
34.6398
8.89894
7.25627
4.93144
15.6814
10.2663
2.78816
14.1123
15.2319
8.09412
12.1676
8.38035
7.53611
9.19354
16.6238
5.81297
5.81516
9.12604
5.84195
5.19898
14.8764
5.80421
11.3864
12.3018
6.93781
4.94519
11.7311
13.364
16.9328
3.03724
11.9825
13.4761
7.46514
8.8431
7.75398
14.7377
26.2231
10.9714
12.8335
5.40204
36.3983
4.85293
5.77213
18.9738
31.7265
9.8374
16.3737
13.7845
6.45824
7.32793
4.24286
7.36245
9.11932
9.18323
4.85266
9.58325
6.13568
6.65756
43.6171
25.7042
6.02042
22.6822
10.1846
8.97285
21.4583
3.15956
8.32377
11.128
8.99874
9.47893
6.80373
23.4627
15.2371
15.9418
12.9952
48.0781
11.496
6.77462
10.0836
47.4398
5.31189
7.63418
10.4403
18.0369
7.41876
5.13528
9.50455
8.31725
8.68766
2.44856
3.45902
16.8088
25.94
6.66054
15.1107
3.58451
18.1982
8.13728
12.9792
12.3657
7.66879
7.90001
36.0169
6.86169
3.37889
8.12493
7.60164
7.12277
27.3904
31.754
5.13816
5.48875
13.2559
7.81332
26.7394
7.12399
9.82115
7.7729
12.6346
10.3326
9.09741
15.7761
6.92284
6.96978
15.2538
26.4309
7.25782
7.10988
4.48648
7.63132
5.61042
7.04263
8.88933
13.3074
7.71724
5.03218
28.3253
8.75616
7.38202
28.3837
17.441
7.40124
5.50609
12.1207
7.51749
6.36803
5.64705
10.7846
7.43762
19.093
2.95208
22.8128
57.2775
5.01927
9.29154
3.51105
11.9602
23.9809
6.16623
4.09646
8.12838
17.9625
22.3457
10.4181
2.93737
13.9779
5.66241
7.82195
13.9323
9.89386
23.9016
9.05848
8.28503
7.76787
9.81018
28.0184
15.133
7.13456
7.34734
6.51845
14.732
14.5402
22.1478
16.1726
6.35644
5.28347
14.4614
12.114
5.55726
3.90052
8.17109
7.57544
6.42376
6.64294
5.53181
2.69701
6.84965
13.3886
2.65982
11.4476
5.91767
5.70227
12.571
5.79452
9.2356
8.36274
40.8302
10.9754
6.61995
15.0403
9.8178
17.5972
15.191
5.40122
3.41962
17.3899
6.64213
15.7927
74.4905
6.54846
13.608
7.75186
5.32547
13.4279
22.9114
11.248
42.6136
8.50125
8.10246
16.3573
42.7673
13.9233
36.4405
6.68967
7.84625
2.33403
9.38776
19.2498
5.60672
10.5999
5.88364
6.10635
21.4879
14.1676
16.5198
62.9257
26.5088
47.8983
14.1463
16.0404
6.7396
5.60458
6.89067
11.4085
2.83264
5.44888
6.01417
7.94901
1.95018
16.0567
16.9502
7.34241
3.55612
32.1791
18.0055
12.2603
10.1848
3.63921
3.59636
13.9032
8.43253
7.55816
11.2565
15.8814
18.648
5.26825
2.64909
12.4558
11.0247
7.6787
17.7304
5.97012
10.456
9.01842
10.4569
3.13557
5.47574
11.2539
12.6208
16.2267
7.69581
5.70254
11.1881
19.2317
5.27349
7.45461
4.18078
6.99973
6.59688
12.127
7.71782
11.9097
10.5315
31.7309
7.85698
7.61556
2.48942
4.79992
3.52037
4.95173
3.08187
8.54484
16.6116
6.00635
6.72722
17.0638
5.66608
14.573
8.71981
4.9931
7.08962
18.7908
8.74025
5.83084
25.3244
21.3322
38.5784
20.8186
6.44958
20.8041
5.33694
11.8486
37.8541
12.6983
7.78578
7.03531
18.8298
22.3927
5.76577
17.7996
6.78364
34.3797
11.926
24.4111
62.8018
9.34296
22.127
26.1866
8.61943
6.90653
9.89551
3.87089
10.7497
3.61519
26.234
19.0825
4.73901
6.58866
6.46627
5.6305
26.2453
14.4907
5.39992
22.3207
2.38798
5.50282
15.0977
15.6434
14.8409
10.0386
15.4581
9.02557
6.57205
12.4558
8.26708
11.7173
11.4142
6.96405
10.9541
6.50037
45.2067
32.933
10.6495
8.14456
7.72221
15.9456
10.2261
5.95405
17.3536
15.3783
11.9225
6.79962
35.7118
33.3245
6.79682
18.713
6.33218
26.6307
18.0891
9.18036
5.6624
23.9473
3.53502
65.0123
21.6697
5.72156
16.8949
18.9903
4.82894
24.9872
10.2693
15.7416
17.1938
13.0147
8.05579
3.95267
8.29679
6.17127
18.2139
18.9883
7.3274
23.3126
12.4057
21.6119
13.1674
3.86859
13.2361
14.0159
16.8611
8.59783
13.7318
11.0221
5.83012
8.50012
18.4188
8.58525
13.3061
7.6538
5.79087
16.6624
4.77433
21.4468
8.16211
6.13923
4.77249
10.0903
10.5961
15.7292
17.3794
8.69702
11.0241
9.75502
5.16012
3.41787
32.9668
11.4289
9.49574
14.9555
10.5847
5.52545
13.1092
29.3927
7.64502
9.65151
2.43556
19.487
9.07998
9.18223
22.6427
17.0457
10.6249
14.9197
8.66207
5.66435
8.88775
3.15283
17.9693
18.6598
18.595
1.95973
7.21298
12.5855
9.92667
8.20852
8.00662
11.8559
9.00633
7.04954
7.02771
10.3281
7.1182
6.86327
12.6887
52.1279
16.8982
7.95534
20.6923
8.28385
4.66951
10.0976
5.82428
6.80906
9.94037
13.0261
6.46246
15.2247
7.02825
6.89571
19.8584
31.0691
6.53102
11.8227
7.49293
26.5162
5.42297
7.12211
27.6679
6.19528
7.74759
4.15579
7.55285
19.8736
2.16156
6.30633
7.13042
7.91762
13.0234
28.861
8.54612
25.008
6.82596
29.8326
9.07785
9.35468
9.44446
17.1244
21.0608
50.5829
7.31934
8.61088
6.55083
12.1074
6.59358
17.4071
24.5481
6.29679
9.16334
8.22852
6.8472
10.739
10.9208
11.7866
10.0939
6.27045
14.4222
44.811
15.6258
5.02707
16.7297
11.2688
7.65383
16.7942
7.00913
14.3068
12.0485
9.30811
6.43284
11.3093
12.7019
6.73877
6.24647
10.1185
20.1792
24.1521
8.78971
12.9491
14.0295
10.9315
15.2017
29.3703
14.9595
8.83876
17.6074
13.2921
11.543
12.7089
60.7278
9.3313
8.63672
15.9022
9.77162
8.55295
8.01804
11.2958
10.0999
10.9048
14.1666
9.28685
8.26034
6.44466
2.74873
28.9436
14.8365
16.3443
18.8969
7.35731
27.6905
8.93466
7.65551
20.2181
15.6489
12.509
9.02421
10.1836
7.63744
14.0187
6.01609
5.48356
20.3197
4.37634
18.7672
10.8203
8.42454
30.7512
16.2453
11.7197
16.7064
66.5913
12.9856
8.58925
6.78681
12.9082
15.1761
9.66798
5.88659
19.0251
21.0485
8.11122
8.83583
4.22817
5.62021
6.56036
6.41223
6.80062
21.5874
5.90312
8.92293
8.79569
8.50572
10.6514
11.2145
3.52003
10.3813
82.9921
9.17763
12.1052
7.06762
21.166
9.10007
30.99
12.1575
9.34346
2.54113
8.93458
5.54808
8.89921
6.39379
20.2607
11.499
25.443
9.78157
12.7575
10.9037
17.3667
19.3093
10.9714
5.85843
13.8456
6.19995
12.5879
7.96001
17.6426
6.94359
45.4622
29.1925
14.3298
2.97629
11.053
6.77063
15.1331
7.71566
5.24424
14.3156
9.77084
7.42417
22.5236
3.57684
3.51907
4.17356
7.84238
37.4495
18.2785
10.4248
9.51999
29.1432
6.6021
6.81965
2.748
2.95045
9.77946
10.9953
2.66252
4.70863
2.39254
6.1497
26.7005
7.37002
5.45709
12.743
30.7595
10.7689
22.0455
9.73791
15.9475
15.5986
14.6798
10.8767
14.4045
13.4617
9.99353
16.7205
6.50444
10.3445
30.2464
22.5781
18.5801
23.8323
7.20426
4.93413
6.22785
9.32789
13.0103
9.54365
16.924
18.8639
2.7002
12.45
7.04783
10.7576
9.07945
6.90903
6.71911
13.6576
23.5445
9.66537
28.5763
10.9073
25.4421
53.3613
9.25466
3.48088
15.2934
3.89151
14.3037
12.1698
18.7967
42.0737
15.1222
9.97965
3.6191
25.8097
10.9827
7.35338
9.46551
5.83528
19.3941
12.983
7.12593
17.5447
6.83889
5.26265
7.72618
12.5858
8.18371
20.0976
12.0936
13.574
6.6706
67.3323
3.46609
3.29762
21.2891
14.8277
6.4411
13.9759
23.2279
14.9387
15.3324
27.6044
7.104
11.3146
13.7928
11.2232
6.12704
11.4201
17.116
8.31553
41.6282
22.2245
1.93733
16.6397
15.3677
28.1512
9.23245
13.3387
25.6458
11.9171
9.58179
8.03455
6.58953
6.47183
7.81538
10.822
13.5592
7.59645
19.263
12.2673
9.88756
9.84053
4.79568
8.38006
13.648
63.7405
22.0345
8.61161
16.1987
39.1598
15.4476
5.83424
8.8998
6.89884
16.0783
5.939
24.3065
14.12
12.4464
6.12918
11.6258
18.508
8.18215
8.31982
35.8608
6.73504
13.0812
19.8655
9.04702
10.6445
6.78711
19.646
5.78648
16.5142
10.7546
14.4205
17.5064
10.6286
13.8261
60.756
6.49784
27.2327
13.4403
19.0086
52.1438
21.6844
7.703
19.332
5.97626
16.6372
5.92718
6.40361
7.2285
4.30924
2.88481
2.36607
16.0814
5.96592
9.66599
11.3573
9.07297
4.15329
9.79325
14.0465
18.0935
5.2225
26.9104
29.8307
42.532
18.4132
13.3594
6.11387
7.05862
7.43124
4.16682
11.5941
16.9787
24.3951
17.542
16.6558
21.1536
15.6569
12.5511
41.4434
11.5895
9.6429
7.7286
9.04906
15.6698
6.7641
7.5528
9.6155
6.41405
27.9687
13.4128
19.0805
18.863
17.7162
13.8124
13.9835
15.4821
7.75656
9.19361
6.75816
7.78943
5.97902
8.71822
19.0558
6.19108
19.0753
6.46505
7.55968
6.88008
11.4378
4.19443
25.9764
8.49596
8.68087
19.2625
7.3049
9.83699
18.3151
5.19889
35.0836
12.0475
6.96266
6.63726
7.35786
11.049
8.09126
2.51341
12.6853
10.1436
6.22786
14.4301
5.38478
7.1337
39.3546
12.3206
5.67685
18.8042
29.5817
8.64445
4.64496
7.5764
8.27127
3.44757
15.0199
18.883
7.6255
6.7419
6.72682
7.24698
8.96515
32.1389
6.73344
5.36439
60.542
12.1673
16.4286
40.2922
8.77566
11.6365
11.3331
2.08939
7.07668
29.4069
11.1513
10.4609
13.8611
25.3625
6.0323
7.99115
8.34769
8.15834
9.90047
9.32743
9.60022
9.31152
22.6729
6.07158
11.6839
8.39187
15.2851
13.3776
6.3965
9.21104
7.33669
2.45986
11.3611
58.981
7.2112
12.1762
20.8201
4.70049
16.8799
26.3027
14.1405
12.0755
14.3087
9.76949
30.6026
70.0404
9.59607
5.80229
10.4655
9.42198
9.92711
6.52093
6.40354
8.16822
8.9744
15.6021
12.0974
17.5104
7.08293
5.92867
6.96204
31.9996
5.9504
2.52407
14.7479
8.15234
5.9263
29.1192
19.2898
27.1309
5.93655
9.39606
8.76227
9.52162
7.00986
9.52634
9.56753
6.43534
23.6553
4.7116
14.1456
6.30304
12.5131
7.15354
17.1475
5.06518
18.1889
2.44973
28.9385
5.95073
11.9272
6.2436
9.53401
6.35639
9.87094
4.19034
14.1701
7.54053
18.6644
5.13839
24.7684
3.48321
10.286
18.6909
6.71663
6.99777
3.01754
10.636
13.2789
11.3989
8.37758
8.09483
7.90695
33.2127
7.09403
11.7694
12.3632
15.2278
14.0401
10.0776
10.0777
14.7153
6.83819
9.50523
16.6594
5.6144
7.64678
28.9074
2.569
7.90199
8.96871
13.6431
15.3456
9.01643
20.4033
14.8427
6.5177
6.1293
12.0004
9.32271
7.81627
8.74345
7.98129
5.44496
17.0408
7.43432
6.3994
12.6622
8.31847
5.92492
8.06962
19.2669
3.767
6.96563
13.3802
10.9734
11.1062
7.32285
8.2323
10.9118
19.3448
5.2013
10.1604
12.2335
4.25569
3.25033
15.3379
4.13597
22.3021
9.38505
5.96742
12.4656
8.6445
3.58294
6.96921
12.5369
11.7678
15.9473
9.61576
9.1312
8.05998
9.10444
11.3271
8.32175
15.4386
15.748
14.7833
9.13167
6.7435
33.0725
4.33209
6.12866
20.0258
15.409
8.8337
5.83036
10.8698
6.77524
9.90447
10.5242
11.6301
9.49465
55.1827
9.94124
8.12315
10.5398
16.8368
6.26774
9.9822
9.87055
6.45929
9.43855
17.219
19.4037
13.2471
9.24681
10.4181
6.39198
15.8076
49.5296
19.9163
19.2354
12.0099
21.0857
10.6789
6.48351
15.1673
6.44911
13.7428
11.022
6.47072
34.7046
2.88698
14.8482
11.1806
12.28
7.20577
10.0741
22.1548
48.1407
9.59874
10.4359
16.6214
13.5801
6.21162
8.62877
49.3393
13.632
2.38737
9.8411
9.59783
12.7845
1.76634
11.4933
6.10231
5.5663
14.4039
4.43819
14.2738
6.8027
9.8476
12.5943
9.05107
5.32599
11.7458
5.53104
10.7249
10.8216
22.4042
14.7507
4.7688
7.76152
11.2167
4.93978
50.5925
14.627
2.2591
37.025
3.73917
11.3552
19.5019
21.1715
10.1143
11.3778
6.27549
16.2801
5.98028
77.7214
80.5809
6.98397
2.12084
8.75669
8.7581
14.3797
12.5292
18.8453
3.96137
25.7113
15.9691
6.37327
15.9091
8.45765
7.87879
12.1829
5.34279
17.0469
7.72289
32.7221
10.9528
8.89217
5.83433
8.48668
6.93522
36.6487
5.6187
33.0516
4.79912
13.2659
6.09959
6.61763
5.27186
16.1145
4.18467
40.9979
11.6396
9.4824
20.0843
7.91477
5.97523
14.6831
9.92322
8.6316
6.40358
8.61006
7.51902
8.22869
58.4198
8.26939
8.63056
9.7795
13.9635
10.6229
8.59927
6.46286
18.6267
42.8121
8.15702
6.78228
16.1464
10.4362
6.62255
16.5624
17.0097
20.0293
6.92935
15.8599
12.5328
6.40153
6.27292
10.4395
17.4091
6.40282
21.4062
14.8907
7.45441
18.7012
9.62314
23.9319
7.55584
2.56721
7.19903
11.8988
9.82732
16.4891
18.2485
9.95439
5.80928
6.06667
8.14621
17.2921
42.5699
25.9554
33.1001
9.01116
12.8587
23.2403
7.8091
19.1737
7.99554
11.4447
18.7372
6.42637
7.06179
8.41601
5.60931
8.93412
8.03259
15.4224
11.0327
5.0211
12.0981
13.4304
5.62326
46.9423
13.563
12.7628
9.2451
36.7948
38.4437
6.76312
9.5093
12.3141
6.64293
9.60615
13.0099
7.72481
2.49757
16.4494
31.793
56.8
9.63071
5.36674
13.1174
11.1967
19.29
16.7128
16.1435
3.99721
10.5992
6.02423
3.86566
6.53729
13.6312
15.0165
8.18382
11.0916
23.6294
4.60804
4.97189
8.70595
7.18066
7.93337
13.9841
12.9461
9.53854
7.58167
22.6103
6.93195
15.978
9.83874
12.2873
11.47
6.22892
22.1122
9.95586
21.9609
7.72999
9.34132
7.59862
17.7283
8.81179
9.79067
5.5881
27.6129
20.2225
22.5136
12.9004
5.55895
14.6534
10.2944
13.2368
27.3328
47.0351
13.1576
12.449
8.1575
5.57393
13.6695
11.0651
8.22827
22.7628
10.5354
9.80865
11.8469
4.52296
10.8632
6.10397
9.15152
9.77682
8.86857
9.05676
14.5851
7.59044
6.12988
16.3447
15.5059
6.22849
22.6154
8.49476
8.87436
6.54146
11.6334
5.81238
8.55507
7.83061
15.9752
7.39347
7.88707
7.55936
15.6581
7.72099
18.9955
70.9388
60.5323
51.5452
19.3159
13.4876
14.5067
16.6812
15.7447
8.83211
27.1426
6.18028
19.0276
5.56389
15.8035
19.8264
19.9079
13.6231
8.11489
7.76871
7.28341
21.1093
11.1615
5.25872
5.92955
16.316
7.1537
2.86037
9.19066
9.76601
9.50283
10.9134
7.05502
15.0011
16.0438
15.8735
8.54743
11.2834
10.451
13.8191
9.73984
7.26452
9.45177
13.1329
6.61586
8.5807
11.4514
2.17727
8.00639
13.1026
5.66909
2.827
8.79385
28.4351
7.36348
38.2321
8.95794
6.67698
32.1918
6.99464
1.25536
11.5847
7.25613
8.54576
6.12144
9.98063
7.95689
16.1324
3.93928
13.0306
9.23812
13.6263
28.0826
11.8241
5.30483
3.00526
9.99265
13.9433
7.75979
11.6311
21.2897
15.6906
16.877
10.9716
29.4031
7.65087
12.7532
7.96581
13.5954
7.52745
10.2594
12.7324
6.4465
21.4474
5.22769
13.697
7.65839
10.9043
25.27
2.95977
17.0015
5.59417
20.9102
35.4455
13.4372
61.4464
2.12393
19.6933
7.35653
21.3725
12.0962
6.67322
14.2619
10.9217
6.12184
13.1951
8.79748
8.38934
10.978
10.6496
9.93462
14.4009
9.2447
9.95799
10.4889
18.0376
11.1243
6.98634
8.08773
4.46655
6.79256
12.657
20.7108
12.2738
5.60145
14.9101
7.53069
9.72803
24.0079
9.43716
4.37353
15.913
43.4466
15.6164
1.65412
5.30742
8.36936
6.5354
6.9703
15.4578
5.35636
18.0897
2.03148
32.8329
7.40768
12.2118
8.3069
7.4643
9.35052
19.5009
14.8766
18.2841
35.8638
15.4435
17.0571
2.0834
12.6808
9.93977
12.1264
45.4658
11.6549
5.71038
8.80016
2.34803
31.4734
6.46496
7.56734
15.4492
6.67971
35.1646
8.20357
18.9231
7.83503
31.8245
8.34204
12.2167
14.2998
6.03412
57.9672
15.7785
6.75614
6.70113
10.0866
6.77401
34.0866
22.0802
8.72933
11.5699
1.50555
31.5714
2.88256
6.7416
10.2928
17.681
8.40986
6.5612
9.48594
14.7896
3.69852
17.4753
16.0232
12.2583
8.23142
8.81302
11.2723
11.3875
8.49352
13.329
10.8192
26.7568
9.22256
9.78049
13.9352
9.90583
9.13742
9.33928
14.0968
9.56763
19.5811
30.5
15.1664
18.4069
12.8145
15.3983
16.7574
19.576
6.44032
16.3587
14.3687
9.78617
6.08798
1.60858
17.4947
25.0084
27.1933
15.9153
4.94662
12.395
12.4782
37.9879
13.9253
6.47918
9.58246
11.8418
8.50541
22.2058
7.71238
7.32542
24.5636
8.10461
16.0428
5.77262
6.32926
8.99943
27.1307
7.83558
4.33725
15.1155
11.3058
6.17042
27.9664
2.99598
8.73198
8.45012
14.9619
23.4354
22.2626
14.904
10.2909
12.7912
13.0911
22.4196
5.33832
10.5877
8.91264
16.5246
18.0564
30.026
7.10762
13.7535
13.7671
2.2725
6.54572
11.183
15.1769
13.9043
8.36043
16.3616
9.564
22.3128
1.73296
11.3318
9.93827
8.21062
1.40103
6.83798
14.7291
22.4152
19.1994
8.18199
6.72283
15.2446
6.92098
12.6299
8.84803
12.0562
11.5959
10.5969
12.2926
3.69773
6.47064
37.7038
8.01968
4.86177
7.52722
6.28138
8.16429
13.7628
14.2705
7.91429
35.8682
18.0357
9.26012
20.2114
11.8891
4.72595
13.2796
6.61817
4.39919
55.1096
55.4624
13.5036
8.09792
13.225
11.1512
5.97803
14.0828
6.40023
6.41458
13.1784
8.8498
8.54286
13.5637
10.6951
20.1734
11.0343
29.2169
16.0988
13.9505
1.64857
12.7417
17.4882
14.968
27.2316
13.3726
11.524
1.72598
7.53854
14.5972
6.38445
12.8261
9.16462
7.00456
13.2958
28.4208
1.79889
5.0711
4.40439
4.18877
12.7078
9.22521
17.2978
7.04565
6.73368
16.1497
8.49295
9.95028
11.7619
10.796
10.3147
11.9738
27.3885
2.09754
22.268
8.23663
6.20492
13.5404
5.88267
6.64392
6.61714
10.7544
6.9933
21.9918
11.5908
8.6397
12.9654
29.5905
44.6912
17.5995
6.26645
1.53459
12.5324
23.7813
6.91197
11.6431
7.51118
15.8869
15.6506
15.2814
42.7043
11.9231
10.516
12.0229
1.53548
31.6658
8.43252
18.0301
4.50929
2.17335
6.75071
15.4709
9.0885
16.2813
9.88073
29.7203
17.5714
13.4334
10.2339
7.23786
13.1984
29.8214
7.99777
6.25816
12.277
1.66422
11.3004
6.40223
2.31936
12.3281
12.0344
11.8856
11.6026
7.40929
40.7286
38.8829
16.3422
20.9228
5.98287
12.326
9.86285
11.9094
7.20261
16.1306
6.87329
19.2949
12.1113
19.9461
14.3597
9.54603
31.2787
9.75952
8.80489
19.4043
13.0352
16.7671
15.4799
13.0776
4.17071
9.69938
6.87322
6.67096
16.3184
9.64662
10.9117
15.1512
8.28891
8.08809
9.96261
9.04181
3.15319
6.74605
7.5179
5.735
6.16156
7.15046
31.2859
37.5066
10.9886
8.1942
12.6509
33.1103
6.84511
5.94592
1.69324
13.2979
10.4281
23.9358
27.5853
6.67294
12.3212
8.8412
13.2416
7.31207
9.31967
6.0257
24.9828
2.03456
4.75571
12.4701
25.9313
23.2891
11.018
12.1037
7.615
15.7412
5.23608
7.69888
8.79166
4.51801
24.7739
10.8496
5.01739
19.0554
32.2255
18.3009
12.1628
14.4686
12.8956
10.804
25.3408
1.33633
5.82081
6.78978
14.4135
9.30177
11.3862
14.2697
11.9044
8.32358
6.97484
5.65707
11.434
8.40516
2.91695
5.28861
4.68941
5.7243
10.3066
24.8311
16.4466
20.4745
9.25744
11.2401
8.41995
9.67796
28.4049
31.475
4.18653
7.25866
6.82981
10.6218
9.52557
14.5358
15.6144
10.7432
26.0586
9.37499
4.84698
9.73265
9.41152
15.387
30.4894
2.22984
4.30582
5.59795
29.1469
6.99791
12.3401
6.39582
16.2703
18.1386
24.4274
35.8559
24.3114
10.0192
14.1309
7.34604
6.73795
6.33486
15.397
14.6589
34.7017
8.53104
11.9426
1.72344
6.73008
15.8488
4.17232
23.8349
8.10066
12.9768
9.04324
6.80227
27.2952
6.98617
23.5595
1.45169
10.6976
6.11191
18.2056
5.30948
11.5575
9.79364
21.4734
5.60876
7.98324
7.28745
1.37326
4.44799
4.19764
16.1821
7.18343
5.76212
13.5282
33.8574
18.046
1.18573
7.77955
15.0591
25.3849
7.55546
5.19516
19.9916
28.7228
25.9847
13.5027
2.34193
7.38341
8.9833
11.7989
2.25198
2.36188
46.3642
6.79132
6.01549
7.4172
10.9329
3.16115
9.21663
19.4808
6.48112
1.46081