/*--------------------------------*- C++ -*----------------------------------*\
| =========                 |                                                 |
| \\      /  F ield         | OpenFOAM: The Open Source CFD Toolbox           |
|  \\    /   O peration     | Version:  v2012                                 |
|   \\  /    A nd           | Website:  www.openfoam.com                      |
|    \\/     M anipulation  |                                                 |
\*---------------------------------------------------------------------------*/
FoamFile
{
    version     2.0;
    format      ascii;
    class       volScalarField;
    location    "2000";
    object      k;
}
// * * * * * * * * * * * * * * * * * * * * * * * * * * * * * * * * * * * * * //

dimensions      [0 2 -2 0 0 0 0];


internalField   nonuniform List<scalar> 
21265
(
4.73094e-06
7.29627e-07
9.15115e-05
7.14115e-06
1.86174e-05
3.25625e-05
3.67509e-06
1.00901e-06
7.97309e-05
1.88719e-06
2.82225e-06
1.60596e-05
5.53679e-09
1.58322e-06
1.14185e-05
3.37342e-06
2.25732e-06
1.29581e-08
3.31143e-05
7.15843e-07
3.93567e-07
6.96967e-08
1.14265e-06
2.09564e-06
5.36252e-07
1.35992e-05
1.36814e-07
4.38217e-06
1.15655e-06
1.81103e-06
2.9526e-06
1.02074e-07
2.09781e-06
4.65635e-07
0.000117717
5.02096e-07
2.40547e-05
9.81924e-05
2.67151e-06
3.93315e-07
4.44139e-06
0.000157856
4.498e-07
4.47046e-05
7.70797e-05
8.35158e-07
2.21682e-06
7.21294e-09
5.16229e-06
7.9109e-06
0.000143528
7.68581e-09
6.8166e-07
5.02972e-07
4.3794e-06
2.94174e-05
0.000129171
1.30925e-06
8.65335e-05
3.68058e-06
5.65544e-06
9.71752e-06
0.00030095
7.86737e-07
0.00010699
1.77999e-07
4.19963e-05
4.34631e-09
1.83915e-07
0.0002302
5.45383e-05
2.97492e-06
5.99061e-06
5.79716e-08
1.13358e-07
4.4519e-06
1.45716e-06
9.09435e-05
3.03158e-05
0.000147358
1.10289e-06
1.1794e-05
0.000145183
2.66119e-08
6.83835e-05
2.39273e-07
0.000163465
1.10291e-06
7.84504e-07
1.14744e-05
8.06039e-07
8.5841e-06
1.05964e-05
2.46237e-05
1.95058e-06
3.10404e-06
1.54016e-05
3.05359e-08
1.00551e-06
0.000178699
1.35115e-06
2.32135e-05
7.49836e-07
2.15168e-06
0.000136803
1.40982e-05
3.88078e-06
1.94432e-05
1.88428e-06
4.05326e-06
9.29673e-07
0.00012485
7.79457e-07
2.43653e-07
0.000183813
0.000179252
5.77102e-05
2.3099e-05
0.000152442
3.48195e-06
4.69163e-06
9.62862e-05
1.99756e-06
5.47841e-07
2.02833e-06
8.80323e-07
2.00475e-05
9.4394e-08
0.000530877
4.85769e-06
0.000131315
6.27856e-05
1.77292e-06
1.77909e-06
0.000134755
7.96469e-08
0.000114694
7.87742e-07
0.000101704
7.3165e-07
0.000143723
1.66319e-07
4.10225e-05
2.58589e-05
2.49031e-07
4.97219e-08
2.33946e-06
5.45816e-06
0.000286319
8.84888e-06
5.99962e-09
5.87227e-06
1.973e-05
0.000120743
1.20958e-05
8.44739e-08
9.71823e-06
6.61042e-06
7.37823e-06
2.16938e-06
0.000209287
2.35219e-07
7.45815e-05
7.40133e-05
0.000103055
0.000171077
9.25417e-07
3.93626e-06
7.51801e-06
8.12626e-06
3.74605e-07
0.000107879
0.000150331
3.31586e-07
5.51641e-05
0.000216962
4.54077e-07
9.53965e-05
1.30468e-06
5.12119e-05
7.91893e-07
5.37466e-07
5.53431e-05
5.2409e-07
2.55151e-07
1.8402e-08
2.21364e-05
1.34845e-07
1.48761e-07
1.87828e-07
2.88199e-05
3.58324e-08
1.9432e-05
2.53622e-07
4.97521e-05
0.000147898
6.21424e-08
0.000130914
1.72656e-07
5.26694e-06
1.71859e-05
1.22267e-06
1.0512e-05
1.277e-05
5.23619e-09
7.50326e-06
1.46826e-07
2.58003e-06
0.000204775
2.40962e-07
1.98305e-05
0.000187197
6.12968e-05
4.62326e-06
8.08595e-06
4.41447e-06
2.98005e-06
0.000138551
1.2042e-06
0.000170203
5.40895e-06
1.49671e-07
0.000220939
3.92231e-07
6.48892e-07
6.61373e-07
2.27182e-08
9.0066e-05
5.1979e-08
8.77654e-05
7.8206e-05
3.01688e-05
4.5535e-06
0.000120336
7.16371e-07
7.66246e-08
4.68624e-07
3.33816e-05
1.05071e-05
2.88569e-06
7.53795e-07
2.07484e-06
1.07951e-07
1.29965e-05
9.65209e-07
3.98801e-07
2.16591e-05
6.49461e-08
4.4897e-06
3.61093e-06
2.10511e-07
0.000120554
8.57165e-07
1.29452e-07
6.84186e-06
1.9819e-09
2.67115e-07
2.43966e-05
4.21477e-07
1.76755e-05
6.02997e-07
5.00838e-06
1.75583e-07
3.58254e-09
6.25944e-06
2.43535e-09
7.1942e-05
2.43291e-07
4.1785e-05
1.01721e-07
6.07267e-06
8.85523e-05
1.49133e-06
4.37349e-05
7.74035e-07
1.11927e-07
1.45429e-07
8.51997e-08
0.000114802
6.27498e-06
5.80904e-05
1.47334e-06
1.07082e-06
3.59398e-07
5.13725e-07
2.79344e-07
0.000172784
7.49431e-07
0.000106026
2.78192e-07
5.66567e-07
3.38927e-06
3.08672e-08
2.36995e-05
1.99433e-06
3.41738e-07
3.10603e-05
1.251e-06
8.21837e-08
0.000177891
8.9177e-05
4.06329e-06
4.22105e-07
1.16342e-05
7.21206e-06
8.14404e-07
6.35425e-07
9.29352e-07
1.02912e-07
0.000112787
9.61141e-05
1.22761e-06
6.78305e-05
0.000131842
7.66349e-05
6.00576e-07
4.72228e-06
7.26949e-06
7.60111e-06
1.70243e-07
2.45976e-06
1.35009e-06
1.74236e-07
2.42581e-05
7.5919e-06
8.37433e-05
7.66858e-07
0.000100128
1.08748e-05
4.44446e-07
1.53934e-07
4.1861e-07
1.25375e-07
9.19456e-07
1.65573e-07
0.000299082
1.28105e-05
3.4582e-06
9.41054e-05
2.21688e-06
8.07388e-08
0.000243418
9.81144e-05
4.38059e-06
0.000262837
9.6669e-07
5.15402e-07
1.3889e-06
9.55073e-06
3.03982e-07
1.32067e-08
0.000124503
0.000110694
1.53042e-06
5.3442e-05
3.63871e-06
3.29561e-06
4.55467e-05
2.56419e-05
8.32643e-06
5.68227e-07
9.48908e-06
5.18099e-06
4.54701e-07
0.000183758
6.51685e-08
1.28789e-07
7.39792e-06
0.000105067
6.67462e-07
8.2038e-06
1.62654e-06
2.06776e-07
1.26024e-06
1.39145e-05
2.8304e-07
4.59954e-05
3.01136e-05
1.71082e-07
5.78676e-05
1.05027e-06
0.000177775
1.15201e-06
5.30695e-09
0.000151763
3.12216e-07
3.60292e-07
1.33299e-06
9.36772e-06
5.02877e-05
3.35449e-08
4.74905e-05
5.20415e-08
0.000125327
1.20236e-06
4.0801e-05
5.83456e-06
1.31916e-07
8.4179e-08
2.34287e-05
7.19567e-06
3.2663e-06
0.000128178
1.10653e-06
2.04891e-07
3.56683e-07
2.67102e-06
1.25324e-08
2.60762e-07
2.44648e-05
4.24153e-07
5.61185e-07
2.80013e-09
2.44208e-09
2.70216e-06
0.000752513
0.000419848
1.42177e-07
8.19391e-05
3.08226e-05
6.17511e-05
4.34816e-05
9.36301e-10
9.47279e-06
0.000126355
0.00012026
2.76875e-06
0.000171862
1.34275e-05
1.76221e-06
7.9535e-06
4.61466e-07
1.55279e-07
1.1188e-05
0.000160554
0.000168443
7.14344e-05
1.11667e-07
0.000144239
0.000153849
1.98335e-06
5.44081e-08
3.00178e-05
0.000193067
4.22276e-05
6.08977e-07
8.29539e-06
1.83239e-07
9.02001e-05
4.51981e-06
7.78086e-05
1.87748e-07
1.50403e-07
0.000104254
2.20431e-07
1.69125e-08
6.1357e-09
3.19255e-06
0.000118612
0.000168375
5.8458e-06
3.66612e-07
3.1603e-07
4.26022e-06
9.9355e-06
7.94321e-06
2.77188e-05
5.89767e-05
9.07077e-05
6.51453e-06
7.0077e-08
4.10437e-06
5.38635e-07
8.79114e-05
6.95112e-08
1.52076e-08
0.0001926
7.70215e-05
1.29267e-07
6.42866e-07
0.000119108
1.64984e-06
9.0229e-06
6.68725e-08
6.61954e-06
6.53099e-06
2.77371e-06
0.000213841
7.73962e-07
1.28684e-06
0.000105268
0.00016043
0.000208972
2.22923e-07
1.85168e-07
8.39368e-07
7.02828e-07
0.000205692
3.73707e-05
0.000117342
3.4613e-05
0.000124099
2.47957e-05
7.9815e-05
3.475e-07
7.8862e-07
8.38369e-05
4.23169e-05
2.45101e-07
2.0402e-07
1.67559e-08
2.45873e-05
1.21317e-07
0.000126865
0.000318369
1.67461e-05
1.63474e-05
4.03616e-05
1.84858e-06
2.44445e-06
1.42965e-08
1.91529e-05
0.000122327
1.15952e-06
1.82791e-06
3.2434e-09
7.60697e-06
3.36261e-08
0.000109963
4.73704e-05
0.000179306
2.35317e-07
1.23879e-05
9.34341e-05
0.000160699
3.31834e-05
5.79832e-06
3.77974e-05
2.23465e-06
0.000318891
2.3289e-06
8.92211e-08
9.47903e-08
1.19523e-05
3.27113e-05
1.0677e-08
1.56879e-05
7.9649e-08
1.46963e-07
0.00010315
4.52573e-07
1.42773e-06
2.73535e-06
1.13645e-08
0.000155753
7.65819e-06
0.00019253
1.74877e-07
2.06057e-05
9.98612e-05
2.19385e-07
0.000188987
5.61668e-05
3.83173e-07
8.12104e-05
2.06657e-07
0.000119824
3.18407e-05
7.8733e-07
5.63069e-07
3.38892e-05
2.41087e-06
0.000267815
1.73591e-07
1.94713e-06
4.84504e-06
0.000216704
5.50265e-06
8.69087e-05
0.000115656
9.51296e-05
5.17573e-07
6.09342e-06
4.25099e-07
1.43527e-07
4.39015e-08
7.34953e-07
4.36258e-07
4.37095e-06
3.86651e-05
8.11872e-07
1.62342e-06
7.04975e-05
8.19184e-06
4.84078e-06
5.25767e-06
2.69809e-07
3.18941e-07
2.61692e-07
1.11167e-08
6.72487e-06
4.12345e-07
3.39546e-06
6.69187e-07
1.25051e-05
9.20117e-09
3.4479e-06
1.96054e-07
1.00055e-06
6.32525e-07
3.59395e-06
3.36056e-06
1.79055e-07
9.85995e-07
1.1742e-07
1.68135e-06
2.74291e-06
3.90798e-06
3.38611e-07
8.24431e-08
2.16989e-05
1.11641e-07
0.000224753
9.78476e-05
0.000304434
6.25537e-05
7.96484e-06
3.5352e-06
0.000415674
2.31147e-05
2.11706e-06
5.58774e-07
1.21037e-05
0.000217481
5.17715e-06
7.54261e-06
1.94515e-05
5.41711e-06
4.42804e-06
6.00844e-07
0.000348441
1.14387e-06
2.37918e-06
6.74105e-05
7.04565e-09
3.18163e-05
6.98561e-06
8.27422e-10
4.37069e-06
4.56832e-06
7.48742e-05
9.27062e-05
0.000160278
3.22492e-06
2.77691e-05
4.55819e-07
1.00152e-06
3.34596e-07
0.000202196
0.000295131
7.35498e-07
1.22615e-06
3.02484e-05
2.7936e-08
5.42771e-05
3.4707e-06
9.08311e-06
6.19321e-06
1.36126e-06
6.044e-06
8.46971e-05
0.000139423
8.56849e-05
0.000112997
6.74547e-06
4.16892e-06
9.55036e-06
2.22119e-06
3.55091e-05
6.38483e-07
5.43292e-07
9.41546e-06
8.2606e-05
1.27864e-05
8.65342e-07
0.000208936
3.50809e-06
7.65117e-05
0.000145252
3.85542e-05
6.20279e-07
0.000152937
0.000144662
8.08044e-05
0.000134852
2.98798e-07
6.41141e-06
1.04088e-06
0.000163012
0.000258632
3.83624e-05
2.2579e-06
3.39287e-05
2.56567e-06
0.000148343
2.68558e-06
8.35185e-05
1.77652e-06
5.54607e-06
7.17646e-07
0.000143939
1.70643e-05
5.71285e-06
1.41545e-06
1.95958e-06
0.000161544
0.000473132
5.85988e-05
2.7503e-05
5.60939e-07
1.82448e-07
7.60786e-07
3.20874e-07
1.616e-05
0.000248347
0.000240132
2.74432e-05
0.000175533
7.52174e-10
0.000137105
0.000131597
2.74916e-06
8.15149e-08
0.000246117
6.75689e-07
5.2293e-07
0.000163676
7.84374e-08
1.15596e-05
0.000157506
4.07358e-05
2.76816e-07
0.000250516
1.86643e-07
4.61679e-07
5.41097e-05
1.00027e-05
4.63338e-07
6.94054e-06
6.81137e-06
6.70592e-06
1.74487e-05
2.09641e-06
5.43295e-07
0.000121272
3.05116e-07
0.000211331
0.00012183
8.50929e-06
1.15578e-07
2.44802e-07
0.000240556
6.76938e-07
3.4951e-06
6.94678e-08
8.13183e-06
5.39134e-06
4.64019e-06
9.82433e-05
2.15827e-06
2.27532e-06
1.42716e-06
1.53117e-05
0.00030588
0.000137931
8.84954e-07
3.79732e-06
0.000319034
1.42703e-06
2.25636e-05
6.47764e-06
0.000101948
7.65617e-07
2.63159e-08
1.53326e-07
9.26991e-05
0.0001242
9.11539e-05
5.46012e-06
1.20447e-07
2.09977e-08
5.20153e-07
0.000143279
1.60603e-07
7.35129e-07
6.73347e-05
5.27892e-06
1.93614e-06
8.39671e-07
9.4976e-06
9.51629e-07
1.91392e-05
2.18788e-05
7.96608e-08
0.000119616
1.8866e-07
6.62985e-05
0.000193499
0.000280286
6.80831e-05
4.63313e-06
7.80226e-05
2.36705e-07
8.13803e-06
0.000387441
6.38925e-07
1.9877e-08
3.76241e-07
0.000488183
0.000138732
1.63188e-07
1.56156e-07
7.58892e-08
4.38263e-07
1.67168e-05
2.87773e-06
4.12468e-06
9.8425e-05
6.40726e-05
7.52214e-05
0.000185833
6.37884e-08
0.000101885
0.000135187
3.53373e-06
2.09835e-09
0.000228554
5.93095e-06
0.000113724
2.06394e-06
1.88375e-06
6.50214e-06
3.72035e-06
1.05494e-07
1.93893e-07
9.40392e-05
1.88431e-05
5.07811e-05
4.48588e-06
2.25303e-07
6.14271e-07
1.05289e-05
8.28903e-07
1.65698e-05
0.000115472
1.00406e-07
0.000222946
1.19968e-06
8.86828e-05
3.76925e-06
7.61464e-06
4.68556e-07
7.22739e-07
1.59091e-06
1.44204e-06
4.17364e-05
0.000181425
1.18839e-05
4.29336e-06
1.05277e-05
0.000612977
3.33402e-05
1.16711e-05
8.7655e-06
7.03901e-07
3.05459e-07
4.94212e-05
5.08742e-05
1.15342e-08
3.0163e-05
6.38599e-05
8.75902e-06
9.03997e-08
0.000129219
1.92105e-05
5.9353e-06
6.60344e-06
0.000149716
7.04724e-07
0.000230068
1.90391e-06
1.88428e-05
3.1602e-06
5.78037e-05
6.24906e-05
8.95666e-05
6.60614e-05
0.000174078
2.99056e-06
4.11824e-07
2.65418e-05
6.22066e-06
1.6342e-06
6.52756e-06
2.66267e-06
5.92547e-05
4.06391e-05
0.000132397
8.99673e-08
0.000114748
7.27942e-05
6.67656e-06
0.000128228
3.00636e-06
2.33837e-07
1.554e-06
6.0072e-07
7.64864e-07
1.44295e-06
0.000194433
7.80214e-07
4.16113e-06
0.000116602
0.000195245
1.72655e-05
0.000118166
2.02369e-06
9.97999e-07
4.22925e-07
1.8645e-05
3.63387e-06
1.30723e-05
3.60287e-05
1.72306e-07
1.78295e-07
3.43979e-06
1.22911e-06
1.09906e-06
0.000146489
9.40503e-07
6.40364e-05
8.81472e-05
1.88026e-06
3.50159e-05
0.000112622
1.28535e-06
6.67177e-05
2.47486e-05
8.69598e-05
7.12585e-05
2.11918e-06
1.22195e-05
1.12011e-05
1.42497e-05
4.46097e-06
0.000479361
0.000215074
6.58718e-06
0.000197962
2.09912e-06
6.69556e-06
0.000591061
2.9364e-06
1.18682e-06
0.00019319
1.60427e-07
0.000459267
0.000188438
2.7386e-06
6.7043e-07
1.60549e-05
3.1599e-06
5.86817e-05
6.66943e-05
5.38313e-05
1.34896e-05
6.72458e-08
1.20601e-05
4.27869e-06
2.4219e-05
7.25608e-05
8.08999e-07
0.000531793
8.55478e-07
2.84823e-07
0.000134867
2.16224e-06
3.83059e-05
7.78224e-07
1.35197e-05
1.64439e-07
6.66205e-06
3.17129e-08
0.00012625
1.44311e-09
1.04733e-05
1.17019e-06
3.24107e-07
0.000130169
8.12891e-06
2.50197e-07
2.3834e-06
9.2886e-06
6.5569e-06
2.94405e-07
3.04632e-07
1.57537e-06
1.92361e-06
0.000170366
2.15536e-07
3.32008e-06
5.16502e-06
7.97765e-05
7.01608e-05
2.77602e-06
7.27955e-05
2.90299e-07
0.000197799
8.05308e-05
5.88513e-05
1.78746e-06
0.000291164
7.71607e-06
9.94923e-08
3.05629e-06
1.85216e-05
7.00285e-07
0.000546982
1.15974e-05
6.58141e-08
5.00155e-06
2.46936e-05
3.98283e-06
6.36243e-07
0.000174159
3.18814e-08
7.73896e-07
3.5851e-05
4.7571e-05
7.86341e-06
0.000174272
3.79415e-07
1.00135e-07
1.07886e-07
9.08963e-06
1.20798e-05
7.54971e-07
4.76273e-07
1.32687e-09
1.68328e-05
6.08725e-07
9.55166e-07
8.34499e-06
6.72081e-06
7.7401e-07
1.12557e-06
2.43556e-06
1.29973e-07
1.57093e-05
3.01165e-06
0.000590015
0.000128438
1.00143e-07
1.04849e-06
1.48222e-05
3.58667e-06
1.67759e-05
3.19534e-08
5.15084e-08
4.16039e-05
1.27405e-08
6.49455e-05
8.8083e-06
0.000317201
6.93666e-08
1.89951e-05
1.76885e-06
0.000569157
3.24781e-08
1.00498e-06
5.96597e-06
0.000175289
5.61336e-07
1.61749e-07
0.000109672
6.62427e-08
8.76638e-05
5.95123e-05
8.21031e-05
8.98593e-09
1.16129e-05
8.1477e-05
0.000437608
4.19179e-05
0.000448738
4.01753e-06
0.000411435
0.000375866
6.29752e-06
0.000134668
8.00607e-08
6.60161e-08
1.01569e-05
6.16437e-06
3.1831e-06
2.89269e-08
2.74075e-07
3.75021e-05
0.000122409
5.12538e-05
2.4415e-07
8.0422e-05
1.57589e-06
1.18871e-06
2.1617e-05
2.91981e-06
8.45054e-08
1.81466e-06
0.000118769
1.66616e-06
6.00841e-06
0.000109448
7.05638e-06
1.17477e-07
4.05833e-07
1.20002e-06
5.34016e-05
5.28862e-07
2.44562e-05
8.91414e-07
9.77007e-05
3.40689e-06
4.51279e-06
7.78566e-06
1.81117e-07
5.82557e-05
4.75549e-06
4.90292e-05
7.3286e-07
8.04607e-07
0.000157133
1.02535e-05
8.44849e-06
7.8575e-05
5.9751e-07
8.56795e-05
3.36635e-06
9.21711e-05
0.000108637
3.42605e-06
0.000135601
0.000294804
1.05269e-07
1.09737e-07
3.07832e-08
0.000140589
0.000401495
1.85405e-05
5.50382e-06
6.00453e-07
1.11242e-06
6.61211e-07
1.00876e-07
1.28392e-06
2.00143e-05
0.000498543
5.84524e-07
7.34296e-07
2.18018e-06
1.35203e-07
4.9573e-07
0.000221186
1.58333e-05
4.0577e-08
0.000177675
0.000245983
0.000157739
6.20876e-06
4.15596e-08
2.47586e-05
3.05697e-08
1.0628e-06
1.83348e-05
2.46813e-06
0.000259199
8.10118e-06
0.000115208
6.97997e-05
0.000563748
6.6988e-07
0.000127513
7.41782e-06
7.83494e-05
4.72786e-08
3.40515e-06
6.3077e-05
7.40363e-06
5.91722e-05
0.000140242
1.01714e-06
0.000114002
7.27707e-08
9.37475e-05
7.19719e-05
5.79882e-05
7.00589e-07
0.000186031
1.24903e-05
1.90452e-07
1.19102e-06
2.65461e-07
3.3737e-06
3.7408e-07
3.27721e-06
0.000185156
7.33663e-07
5.63167e-07
3.39428e-07
9.21767e-06
0.000118637
3.74753e-06
4.73997e-07
1.18255e-05
1.53212e-05
2.3185e-07
4.99961e-06
4.60608e-08
0.000138358
3.94446e-07
5.7195e-07
0.000103757
1.88911e-08
8.95517e-07
1.46542e-06
0.000224525
8.70201e-06
3.10481e-07
2.67122e-05
2.85243e-07
2.71385e-05
3.28472e-06
2.51852e-06
0.000260036
1.57701e-06
2.69063e-05
2.28586e-06
0.00013452
0.00016228
3.50157e-06
8.84734e-07
0.000132259
6.8119e-08
9.17177e-08
6.88389e-05
4.95363e-05
2.30318e-07
3.40859e-06
1.59497e-07
7.17506e-07
3.77629e-05
6.08863e-06
0.000187251
9.16569e-07
1.14288e-05
8.31973e-07
1.23276e-05
8.0327e-06
4.87371e-05
9.46028e-08
0.000105676
3.65993e-06
7.01407e-08
0.00021605
1.1745e-05
8.15808e-09
3.25656e-07
0.000154051
1.01978e-06
3.57412e-06
1.69688e-06
7.72607e-07
7.37791e-07
3.70026e-07
9.59971e-05
3.41139e-05
8.42119e-06
6.36419e-07
3.25655e-05
1.01064e-06
6.36612e-05
0.000231589
3.20205e-05
5.06996e-09
2.61493e-05
2.89656e-07
9.19425e-08
0.000142386
2.49121e-07
5.66609e-07
1.70916e-07
5.23985e-05
1.93244e-05
2.74003e-07
6.69005e-07
2.55116e-05
1.21232e-06
3.35803e-05
5.28162e-06
2.16438e-07
6.17456e-05
6.66901e-06
1.19899e-07
2.95301e-06
0.000461449
0.000319853
1.70631e-07
5.96858e-05
4.06485e-07
2.41794e-05
2.70272e-05
7.64825e-07
1.25448e-06
0.000314236
1.14498e-07
2.94623e-07
0.000333925
1.47383e-07
4.04001e-07
3.55858e-05
0.000141569
2.82918e-07
1.48645e-06
6.68303e-07
1.15527e-06
1.56986e-07
1.01513e-06
5.3359e-06
4.30255e-07
8.37421e-06
1.92677e-06
2.18085e-05
0.000560487
2.58922e-07
8.91277e-07
8.35305e-07
1.91077e-06
3.93874e-05
3.86048e-08
0.000188925
1.83229e-05
4.72244e-09
0.000220905
1.52545e-06
3.13648e-07
7.81166e-06
0.000354262
0.000277687
1.93283e-06
0.000620309
9.05024e-07
2.88742e-05
0.000158859
2.16231e-07
3.04477e-06
1.16857e-06
0.0002037
7.8299e-05
4.69393e-05
1.76742e-07
2.6419e-08
0.000332062
1.06876e-05
1.24243e-07
1.09148e-07
2.89505e-06
0.00017581
6.22392e-08
3.01426e-06
1.31975e-05
1.61438e-05
1.382e-07
3.32493e-06
2.32039e-06
0.000134687
4.85464e-07
2.82538e-07
3.58168e-05
0.000773167
7.22529e-07
5.14479e-06
4.87291e-08
1.37282e-06
9.51882e-09
0.000142005
1.35321e-07
6.58055e-05
6.11737e-06
3.58743e-05
0.000121692
0.000260171
9.24184e-05
9.46661e-07
8.93473e-07
4.84685e-07
0.000342821
7.0402e-07
7.14936e-06
0.000123554
1.32736e-05
9.44282e-08
2.21939e-06
0.000103931
0.000296174
4.16063e-08
1.74888e-06
0.000172121
1.37967e-06
4.97064e-05
2.20728e-05
4.95965e-07
4.82165e-05
0.000122605
0.000236918
6.1712e-08
2.96454e-05
5.46359e-07
1.21361e-05
4.57946e-07
4.42309e-07
4.72689e-06
1.81953e-09
3.25934e-05
1.08898e-05
1.06036e-06
4.672e-07
5.07055e-08
7.56104e-05
3.44528e-05
2.41121e-07
3.82863e-07
7.73694e-07
2.91014e-06
2.20618e-07
3.09279e-06
0.000123761
3.80459e-06
5.02679e-05
6.61799e-06
9.57609e-07
1.2654e-05
5.84022e-07
4.36183e-06
8.09718e-06
1.97613e-06
6.61189e-09
0.000157847
0.000126655
8.83262e-07
3.76085e-09
4.23727e-08
3.24702e-06
5.40732e-08
0.000439946
2.64905e-08
0.000193629
1.68985e-08
0.000773196
2.97649e-06
1.52508e-06
2.14762e-07
1.79628e-05
1.22964e-05
6.28199e-08
1.01914e-07
2.89484e-05
3.88368e-06
1.59947e-07
4.84433e-08
2.39782e-09
4.97191e-07
9.18469e-06
5.00904e-05
1.48907e-06
0.000781685
3.02454e-05
1.29359e-06
1.68503e-07
1.70648e-07
2.90439e-06
4.72961e-06
1.81473e-07
7.03748e-06
1.99891e-05
9.04783e-06
1.22876e-06
9.77865e-07
0.000368712
1.30199e-05
4.67321e-05
5.52034e-05
2.55697e-07
3.4136e-06
2.1728e-07
1.96181e-06
7.44445e-06
0.000116775
1.2321e-07
1.2804e-05
9.41613e-06
9.92566e-05
2.01568e-07
1.98175e-07
0.000132925
4.04652e-06
1.05087e-06
0.000127491
6.92745e-07
4.94068e-06
0.000608568
0.000121836
0.000179046
2.98011e-07
3.10062e-06
1.13051e-06
2.42094e-05
1.07625e-07
0.00166316
4.58572e-07
2.98646e-09
2.27769e-06
1.22747e-07
5.14202e-08
1.65077e-05
4.21327e-08
3.92089e-06
0.000182237
0.000114754
1.78716e-05
7.80257e-08
0.000137371
3.86779e-05
2.56036e-06
2.3121e-06
0.000563806
1.67817e-06
4.9199e-06
2.1534e-06
1.87592e-06
2.70164e-05
9.20951e-06
2.26782e-06
5.75853e-06
1.68227e-05
5.17729e-06
8.24474e-06
2.42557e-07
3.86363e-07
7.94845e-05
3.35017e-05
1.80744e-06
1.45039e-06
3.99579e-07
0.00012987
0.000861303
1.40038e-05
4.89378e-06
3.04481e-07
5.14027e-06
1.87081e-05
3.74444e-08
1.92219e-06
3.51467e-05
2.98412e-05
1.02848e-07
0.00010462
6.97258e-06
4.61969e-08
2.82841e-08
6.04881e-07
2.30968e-06
0.000466791
6.97987e-05
6.66413e-05
2.30064e-05
7.14701e-06
3.64347e-06
1.63054e-06
6.29801e-07
0.000149401
2.45656e-05
5.9241e-05
5.9758e-08
3.83391e-07
5.15732e-06
1.01092e-07
1.07451e-06
2.5417e-06
1.75721e-08
9.37401e-05
4.28565e-07
3.16249e-06
1.98987e-06
8.67929e-07
0.000101163
1.57052e-05
3.66619e-07
1.23717e-06
5.85949e-06
5.14501e-09
5.68264e-07
1.45649e-06
4.40515e-07
4.51506e-07
5.75396e-05
3.6709e-05
4.38063e-05
1.79931e-07
0.000153056
0.000124585
7.05839e-05
7.05455e-05
5.17834e-07
0.000106531
0.00019269
8.4953e-07
1.57902e-07
1.47491e-05
4.1187e-05
6.66837e-05
3.13994e-08
0.000140479
4.39465e-07
4.3427e-07
2.94419e-06
0.000408562
4.05752e-07
2.93626e-05
0.000135095
3.52042e-06
1.0073e-05
3.09939e-06
1.7769e-07
1.34397e-07
6.0796e-05
2.10651e-05
0.000108816
0.000101397
6.41347e-08
2.31904e-06
2.38122e-06
2.72908e-05
3.90318e-07
3.89946e-07
0.00022312
6.65739e-05
1.65554e-06
2.34268e-05
5.84214e-07
1.87405e-07
1.25352e-05
3.24104e-06
0.000159775
1.98541e-05
1.79744e-05
5.33982e-05
2.50523e-06
7.98554e-05
0.000486648
6.75839e-05
4.90001e-08
2.13094e-06
3.26978e-05
5.80818e-08
4.26184e-07
0.000104552
1.47161e-05
2.03866e-06
0.000172431
4.61634e-05
0.000113564
6.46528e-07
2.02825e-06
9.11998e-06
9.1244e-05
2.94337e-07
4.14725e-09
2.7421e-05
0.000119324
0.000171769
2.30225e-05
3.85411e-07
0.000199326
7.22208e-05
6.44391e-05
2.17642e-06
1.18876e-06
0.000138576
0.000244482
8.16591e-06
8.09878e-06
0.000127826
8.28345e-07
9.53909e-06
5.35423e-07
3.24225e-07
6.81279e-06
6.36573e-06
1.82e-06
6.85108e-08
7.60997e-07
1.75925e-06
6.71476e-06
4.44985e-05
1.87463e-05
5.17723e-05
1.07701e-07
2.715e-06
6.31844e-05
7.13861e-05
3.28745e-05
3.48248e-06
0.000159668
0.000196907
1.75507e-05
0.000187269
0.000166827
1.43504e-05
3.62127e-05
0.000153627
7.84918e-05
8.16045e-06
0.00016896
3.68417e-06
2.52049e-05
0.000213573
3.66917e-05
8.27715e-06
8.59027e-06
5.1213e-07
4.41647e-07
0.000263329
1.66901e-05
5.8744e-05
2.98816e-06
2.31968e-05
3.11807e-06
1.44142e-05
0.000189758
8.61558e-08
6.08291e-06
2.90566e-07
3.58085e-09
0.00016932
1.81636e-06
2.6276e-05
0.000158494
9.36315e-07
8.80607e-08
0.000291152
1.83232e-09
5.50718e-06
1.15698e-06
1.69935e-06
9.39442e-05
1.31983e-05
2.58537e-08
1.7908e-05
1.52817e-05
9.6599e-05
8.03172e-06
3.59894e-07
8.5201e-05
8.76446e-07
3.51124e-05
0.000208617
9.32733e-08
1.35967e-05
2.40643e-06
2.08207e-07
1.08225e-06
2.75145e-07
2.09244e-07
2.6245e-06
4.73513e-06
0.000203444
1.10953e-05
0.000549875
0.000183575
2.84117e-05
0.00019478
7.1776e-07
0.000166833
1.6645e-06
3.31256e-08
7.0059e-07
0.000125565
2.84046e-08
1.00822e-07
1.84701e-06
2.36191e-06
0.000121183
0.000122329
0.000508379
0.000130685
2.34145e-06
1.38408e-05
1.76047e-06
1.31456e-06
0.000191045
9.46596e-05
2.08517e-06
0.000190913
4.30502e-06
2.37449e-06
0.000311966
2.09035e-06
3.66134e-06
0.000331829
0.00011435
0.000116943
1.31947e-07
2.31628e-05
6.89244e-05
2.25054e-05
1.95513e-05
5.25334e-07
1.1561e-08
0.000243255
3.20991e-06
0.000127598
2.04102e-05
5.41061e-06
5.35071e-07
3.71107e-06
2.20488e-05
0.000476242
4.45697e-07
7.87313e-06
2.95865e-05
0.000152163
0.000189246
0.000121817
6.63329e-05
0.000100104
8.78306e-07
2.68006e-06
4.13621e-06
7.09166e-06
8.73535e-07
9.11154e-06
3.61716e-05
6.55506e-06
2.54239e-05
8.18017e-06
1.10843e-06
8.17004e-06
0.000115877
1.65458e-07
3.08493e-08
3.00722e-08
1.53988e-07
1.45055e-05
9.54025e-08
7.57887e-06
8.62134e-07
9.47623e-08
2.45929e-07
4.434e-06
3.7528e-05
2.09023e-07
3.22291e-07
7.11602e-06
4.20242e-07
0.000196436
1.01462e-07
0.000320341
1.27583e-06
6.00393e-08
1.41647e-05
3.82625e-06
2.3224e-07
8.14625e-06
0.000169531
6.79847e-05
0.000159156
2.53541e-05
0.000132608
2.14135e-08
3.14457e-05
1.25674e-05
5.0932e-05
0.000192133
0.000134254
3.53804e-08
1.12306e-05
0.000236723
1.70197e-06
9.22634e-05
3.0374e-05
2.24078e-07
1.47716e-06
7.25931e-07
0.000442343
3.58024e-05
1.85317e-06
6.1811e-05
1.29763e-06
9.07492e-05
2.19604e-07
8.15193e-08
0.000184971
0.000174968
1.43698e-05
7.60452e-07
3.15482e-07
2.6414e-06
2.94668e-06
2.30693e-06
1.02921e-06
3.59387e-06
1.08103e-05
1.48799e-06
8.07755e-07
6.08936e-06
4.90866e-06
7.40579e-08
9.39191e-08
8.34067e-06
2.37204e-06
5.22633e-05
1.74944e-06
8.83937e-09
1.59672e-06
2.37482e-05
7.33236e-07
0.000139565
2.5469e-07
3.83481e-08
7.72726e-06
9.43059e-09
2.04521e-07
2.29836e-05
2.0616e-06
2.3393e-06
1.82978e-05
1.05712e-05
2.16968e-06
1.39112e-06
0.000108539
4.63019e-06
8.66981e-06
5.77418e-07
6.9551e-07
7.37148e-05
1.02972e-06
9.48337e-05
6.13269e-08
8.96534e-05
7.81591e-05
6.52617e-06
5.24169e-07
1.07923e-05
2.36912e-06
1.52826e-06
1.57549e-07
5.00978e-06
1.57066e-06
7.88671e-05
0.000122305
2.20033e-07
1.18247e-06
1.26463e-05
1.33368e-08
3.36658e-05
7.10985e-08
0.000111497
4.24397e-05
0.000114596
1.96864e-07
1.28884e-07
2.66488e-06
1.459e-05
2.7833e-06
1.17724e-06
9.00434e-07
4.15075e-05
0.000146405
1.50078e-06
1.67251e-06
0.000497145
1.05051e-05
1.44636e-06
8.46828e-05
6.35403e-08
3.8249e-08
4.07754e-05
8.72363e-07
0.00020037
1.14356e-07
7.65866e-05
7.63459e-05
3.25091e-07
1.47702e-05
8.3328e-05
0.000382855
0.000572553
0.000183283
3.29612e-06
0.000154216
8.09236e-05
2.78574e-05
1.22426e-06
0.000146134
1.58521e-06
1.6926e-06
7.63606e-05
1.77884e-05
1.39929e-05
4.70372e-07
0.000657764
2.19854e-06
0.000106349
9.43138e-08
2.69227e-06
4.25411e-05
1.26065e-05
1.82572e-06
3.36967e-05
2.23059e-06
3.15664e-07
0.000418793
0.000195204
5.28602e-06
3.1871e-05
5.57066e-06
3.56593e-06
4.37195e-06
4.12793e-05
3.31274e-05
7.09719e-05
2.53791e-06
1.11099e-07
1.28019e-07
6.88892e-05
1.88002e-06
4.83355e-05
1.86882e-07
2.43142e-05
0.000432569
6.89812e-08
1.08506e-05
8.76557e-07
9.15788e-05
9.86982e-07
3.08658e-05
0.00012039
4.19129e-05
2.0143e-06
0.000410332
5.78333e-06
2.46664e-08
4.07332e-07
5.45446e-07
4.79523e-05
5.85135e-07
4.30382e-07
1.30231e-06
7.48195e-05
1.11366e-06
6.9009e-06
6.36966e-09
2.62892e-06
0.000541364
6.54614e-05
7.68562e-06
9.42904e-05
9.53882e-07
2.67786e-07
5.548e-05
7.61359e-05
0.000739336
0.000668453
2.35786e-05
1.25736e-06
4.46841e-06
7.30397e-07
0.000264403
2.68783e-07
3.1558e-06
9.6928e-06
1.67854e-06
1.26076e-07
1.40383e-07
0.000343395
8.85057e-06
2.65298e-06
0.000445975
1.61062e-06
0.000501307
8.92691e-05
2.14595e-06
9.48899e-08
1.02281e-05
5.26473e-05
9.97577e-05
2.09824e-06
1.48796e-07
0.000113672
2.69534e-08
5.96803e-05
7.58011e-07
2.34357e-07
5.03845e-08
4.56625e-06
1.30886e-06
1.13548e-06
5.94288e-07
4.76822e-05
1.66967e-05
3.90096e-09
6.96699e-05
1.20613e-06
6.98994e-05
2.25701e-07
0.000176668
3.97931e-05
8.13168e-05
0.000300109
9.10749e-07
7.06206e-06
1.79731e-06
0.000133642
4.44413e-05
9.49929e-05
5.53792e-07
1.56925e-07
9.59739e-06
1.00501e-07
3.30635e-06
3.52554e-07
0.000416477
7.5807e-06
9.06682e-07
1.70569e-06
0.000129944
2.54245e-06
2.40619e-06
0.000270127
9.54921e-05
0.000157349
4.59971e-06
3.38766e-07
0.000142534
1.52306e-08
1.23127e-05
7.43718e-07
9.21986e-07
8.8931e-07
8.24002e-06
1.04264e-05
7.71188e-09
1.35109e-06
4.56279e-06
1.94517e-05
5.10298e-07
5.91469e-05
1.49148e-06
0.000176264
3.18241e-07
8.22927e-08
2.35443e-06
5.34301e-07
0.000150206
2.64055e-05
8.62539e-05
5.36439e-05
2.22892e-05
6.3662e-05
6.4786e-06
0.000907885
1.58587e-06
1.17484e-06
1.20887e-06
2.6043e-07
0.000137807
7.90833e-06
2.56057e-08
1.54292e-06
0.000260484
0.000186961
1.49723e-06
3.11198e-06
4.70269e-08
6.70414e-05
0.000105294
0.000136331
4.04848e-06
1.54371e-05
2.04275e-06
2.06892e-05
3.01732e-06
0.000539911
1.54308e-07
5.73915e-06
8.85909e-05
0.000445128
5.44688e-07
5.55445e-07
5.95896e-08
9.30049e-05
8.84479e-07
1.23102e-06
1.24666e-06
3.37773e-05
2.27068e-05
2.77611e-05
1.21487e-08
7.10863e-08
7.57772e-06
0.000107345
3.13802e-06
3.06706e-05
6.41069e-07
7.03838e-05
0.00036789
9.07511e-05
7.08174e-06
4.8054e-05
5.29954e-08
0.00014212
0.000159934
0.00023496
9.10724e-07
1.47964e-08
1.83887e-06
8.29418e-05
7.67454e-05
1.84188e-08
1.01664e-05
4.87331e-06
0.000197678
9.95467e-05
2.48179e-07
4.29096e-07
0.000173534
3.11531e-05
0.000106618
5.48542e-05
2.5087e-06
3.1263e-06
3.42556e-05
1.93962e-06
1.70179e-07
0.000369111
1.03493e-05
6.73972e-05
5.4135e-06
1.74076e-06
1.97495e-08
1.61135e-06
7.72311e-05
8.17508e-05
1.33108e-07
2.61572e-05
3.44536e-06
1.6884e-06
7.69684e-08
3.07835e-06
3.82412e-05
6.87686e-07
6.58378e-07
2.13232e-05
5.85421e-05
1.04843e-06
1.88437e-07
0.000120964
9.82809e-06
6.48203e-05
0.000144371
0.00102022
0.000143522
5.89021e-07
6.30082e-06
7.9778e-05
0.000286566
4.3536e-07
1.50606e-07
6.0113e-07
7.77172e-08
7.38575e-06
7.58609e-08
4.70263e-08
4.43572e-07
8.26933e-05
2.80312e-05
4.79929e-06
5.78998e-05
4.11917e-07
5.12543e-05
1.45085e-08
2.78015e-05
2.62282e-07
2.31689e-05
7.21398e-09
1.18376e-06
6.97062e-05
7.28134e-07
0.000623108
2.07016e-05
2.47104e-05
2.60067e-05
1.05678e-07
3.04687e-05
1.65986e-06
4.68187e-06
0.000116489
2.84356e-06
1.05108e-07
2.6626e-07
0.00010064
4.67159e-06
5.08106e-09
0.000118894
0.000150214
1.66106e-07
8.05674e-07
3.22782e-05
3.425e-06
5.53151e-07
7.722e-06
7.65326e-07
6.19236e-08
0.000360463
1.96339e-06
7.51812e-05
1.66376e-05
5.39435e-05
0.000522489
4.28625e-07
1.72705e-05
3.29472e-09
7.53161e-09
0.000191227
0.000626879
2.19678e-07
6.17024e-07
8.02176e-07
9.9469e-05
2.51588e-07
1.90792e-06
3.89976e-06
3.54978e-05
6.39808e-06
0.000448707
5.25991e-06
0.000464296
5.26315e-06
3.09915e-06
1.64408e-07
0.000362299
0.000280674
1.26043e-06
0.000256395
3.5741e-05
9.72864e-05
1.05238e-08
2.04524e-06
3.56763e-06
3.16737e-06
8.07009e-07
2.51636e-06
4.71697e-05
9.74856e-06
2.10362e-05
6.22447e-05
0.000111074
3.20284e-07
6.5438e-05
6.22502e-05
9.82077e-05
6.49092e-05
5.83362e-07
3.33208e-06
9.96459e-07
4.87431e-07
3.27955e-05
0.000656062
4.50097e-06
9.12385e-07
0.000245698
8.08358e-06
3.88403e-07
6.22768e-06
6.23106e-07
6.86466e-05
8.01282e-05
5.57093e-06
8.11478e-05
0.000103958
2.49592e-08
7.72743e-05
3.5774e-08
2.72553e-05
4.60122e-07
7.32075e-06
1.62314e-06
9.48795e-06
1.10149e-06
8.78293e-05
7.65408e-05
6.16002e-05
4.3853e-05
0.00017829
4.91356e-06
0.000127247
9.40306e-05
5.44606e-07
4.49776e-05
0.00100183
1.01074e-06
3.89086e-07
0.000155852
6.22883e-07
2.10171e-06
2.06652e-06
1.9773e-05
4.94738e-08
4.57149e-08
6.18961e-07
7.8621e-07
1.46756e-05
0.000104971
7.83072e-07
9.61924e-07
2.19797e-05
6.90022e-05
8.13544e-06
7.50952e-07
4.27444e-07
9.61016e-06
1.37666e-08
9.80397e-07
6.84414e-05
7.37461e-08
1.15855e-06
3.51227e-07
0.000263504
0.000497983
4.11743e-07