/*--------------------------------*- C++ -*----------------------------------*\
| =========                 |                                                 |
| \\      /  F ield         | OpenFOAM: The Open Source CFD Toolbox           |
|  \\    /   O peration     | Version:  v2012                                 |
|   \\  /    A nd           | Website:  www.openfoam.com                      |
|    \\/     M anipulation  |                                                 |
\*---------------------------------------------------------------------------*/
FoamFile
{
    version     2.0;
    format      ascii;
    class       volScalarField;
    location    "2000";
    object      nut;
}
// * * * * * * * * * * * * * * * * * * * * * * * * * * * * * * * * * * * * * //

dimensions      [0 2 -1 0 0 0 0];


internalField   nonuniform List<scalar> 
21265
(
8.32852e-09
6.28882e-11
2.90729e-07
8.88403e-12
1.63496e-08
1.13067e-07
4.30106e-09
4.45598e-10
3.68625e-10
3.93122e-10
2.95812e-09
6.53447e-08
8.70257e-15
1.44437e-10
2.50128e-11
4.1651e-12
1.92451e-10
5.21574e-14
3.31245e-08
4.75593e-11
5.20561e-11
2.72498e-13
7.20529e-11
2.73519e-09
1.8859e-12
7.5098e-09
7.70043e-12
7.204e-09
1.30838e-10
7.99723e-10
1.97732e-11
4.40554e-12
1.86897e-10
4.74879e-11
9.28196e-07
1.78902e-10
6.28895e-08
6.71984e-07
1.64184e-10
4.34945e-11
4.72476e-11
1.47531e-06
3.14928e-12
7.321e-08
1.65409e-07
3.32297e-10
4.50556e-12
1.06812e-14
4.75963e-09
1.53032e-11
1.58385e-06
1.08194e-13
2.15246e-10
3.33906e-11
1.2787e-09
1.00106e-07
5.72596e-07
2.90758e-12
1.6512e-06
1.67539e-10
2.05586e-09
4.69236e-09
1.32832e-06
5.14198e-11
2.21017e-10
1.36385e-11
1.34488e-10
4.58453e-14
1.11927e-11
1.01793e-06
1.75046e-10
8.13576e-12
9.63212e-09
3.8502e-12
8.35632e-12
1.10477e-10
1.19268e-10
8.19125e-07
1.39438e-07
1.36595e-06
1.91642e-12
7.20569e-11
1.50175e-06
1.29846e-12
2.69871e-07
1.46031e-12
1.0343e-06
1.25147e-10
3.97037e-11
1.81793e-11
2.10964e-10
1.36001e-11
1.67883e-11
1.78978e-07
1.09567e-09
2.5282e-11
4.34839e-08
5.5939e-14
7.64546e-11
1.40267e-06
6.82708e-10
2.28498e-08
3.89236e-10
1.47734e-10
1.05931e-06
1.97913e-11
2.61368e-09
7.03515e-11
1.20127e-10
4.9681e-12
3.69319e-10
1.01592e-06
4.17766e-10
4.60182e-13
1.8949e-06
1.04974e-06
2.75313e-07
1.39542e-10
9.96125e-07
6.40394e-11
3.12834e-09
8.43391e-07
1.47719e-10
2.13788e-10
9.1921e-10
2.08133e-10
1.7297e-08
4.59797e-12
1.16438e-06
3.76713e-10
4.74447e-07
1.7474e-07
3.10543e-10
3.40368e-10
9.60039e-07
4.37802e-12
1.02825e-06
1.15218e-10
1.16563e-06
3.9924e-11
1.0113e-06
2.06531e-13
1.35277e-10
1.84875e-07
4.05677e-11
2.39999e-12
5.31386e-10
2.26862e-09
1.50432e-06
1.47908e-11
8.65881e-14
8.98245e-09
4.30758e-08
1.04889e-06
1.66679e-11
3.58116e-13
5.86476e-09
8.07576e-12
9.01378e-12
2.3925e-10
1.57138e-06
1.17705e-12
7.3968e-07
7.35747e-07
8.44397e-07
1.08053e-06
1.05534e-12
1.02252e-09
9.58338e-12
8.74155e-09
5.00628e-13
9.57074e-07
6.23207e-07
3.05032e-11
3.71977e-07
1.80428e-06
4.73978e-11
9.29008e-07
2.07552e-10
3.00226e-07
4.54312e-11
1.50933e-10
6.04492e-07
1.00391e-10
3.21124e-13
2.24091e-14
1.92969e-08
1.72781e-13
1.90612e-13
2.40671e-13
2.69114e-08
4.57237e-14
3.8959e-11
4.95434e-11
1.22466e-10
1.60723e-06
4.2595e-12
9.25849e-07
2.3074e-13
6.58144e-12
3.44558e-11
5.62807e-10
1.78238e-11
2.04086e-11
6.37639e-15
6.23169e-09
1.95475e-13
6.00394e-12
1.91823e-06
7.96667e-11
5.74593e-08
1.08888e-06
8.85547e-07
1.66083e-10
3.93768e-09
2.09227e-09
2.0346e-11
1.5128e-06
1.41344e-12
9.50287e-07
8.4198e-09
7.6733e-12
1.47626e-06
7.95584e-11
7.05507e-13
7.19077e-13
2.78373e-14
7.48316e-07
3.00024e-13
6.40545e-07
7.0564e-07
3.25926e-08
1.3948e-09
9.13668e-07
3.19328e-10
8.99389e-14
4.89922e-13
1.06685e-10
5.35151e-09
8.54207e-10
6.20318e-11
1.61179e-10
1.28555e-13
2.07706e-11
6.27634e-10
1.2982e-12
1.78326e-07
6.38528e-12
1.51919e-09
1.39652e-09
4.51841e-11
9.37887e-07
7.49352e-10
1.60186e-13
1.03126e-08
2.21844e-15
1.67182e-12
1.77255e-07
1.41877e-10
1.39428e-08
3.87644e-11
3.91937e-09
7.13455e-13
4.01012e-15
2.64234e-11
2.72601e-15
2.06036e-07
1.98017e-11
3.96331e-07
1.08187e-11
1.30191e-08
1.55369e-06
1.20007e-09
1.16154e-10
6.10187e-11
1.2887e-13
1.67444e-13
9.80969e-14
1.00885e-06
1.18856e-11
6.59652e-07
2.06472e-12
1.50064e-12
1.16994e-12
1.67231e-12
9.09341e-13
9.95056e-07
5.86986e-10
9.75398e-07
3.2026e-13
6.52242e-13
5.48581e-10
6.57055e-14
3.20956e-11
2.06632e-10
3.93414e-13
1.20277e-07
8.50792e-10
1.07106e-12
1.88979e-06
1.71417e-06
2.06766e-09
1.06329e-10
3.20583e-11
9.86443e-09
2.70848e-10
1.9118e-10
6.51017e-11
4.57017e-13
7.32662e-07
8.85938e-07
1.35594e-10
9.94314e-07
4.77584e-07
9.52051e-07
1.71561e-10
3.64924e-11
3.45784e-09
1.83127e-08
8.17456e-12
1.20767e-11
6.49516e-11
4.43169e-11
1.50416e-07
1.09347e-08
9.93774e-07
9.37706e-13
1.47617e-06
6.86565e-09
7.65759e-13
1.09878e-11
9.28443e-11
1.40014e-11
5.84962e-11
1.59505e-11
1.84822e-06
7.39428e-09
4.0241e-12
1.02366e-06
9.96437e-11
1.20744e-13
1.59991e-06
6.83503e-07
9.36258e-10
1.58895e-06
7.46756e-10
1.79663e-10
1.05194e-09
1.23171e-10
7.43187e-11
2.24352e-13
6.53642e-07
5.36343e-07
2.79133e-10
3.99089e-07
4.23415e-12
7.78742e-12
5.26028e-07
1.8275e-07
1.19632e-08
1.54681e-10
4.89623e-09
5.84432e-12
4.06112e-13
1.43369e-06
3.01924e-12
1.35519e-13
1.75058e-11
6.60503e-07
5.68662e-11
1.2639e-11
1.02407e-09
2.17582e-13
7.13723e-10
4.12278e-08
4.98536e-11
2.02054e-07
5.56951e-08
1.61753e-13
2.58738e-07
2.16541e-12
1.48946e-06
1.61263e-10
4.49388e-14
1.81519e-06
3.80318e-13
4.38881e-13
5.29162e-10
1.5658e-11
1.02813e-06
3.42772e-14
9.78493e-07
4.91415e-14
7.34994e-07
5.83922e-10
1.28078e-10
6.54723e-12
7.81222e-13
1.53623e-13
7.79937e-08
9.43314e-12
4.15749e-09
1.55076e-06
1.28768e-09
1.60363e-11
3.17216e-13
4.36998e-10
2.64798e-14
2.61774e-13
2.19286e-07
4.76018e-13
6.01561e-13
9.96186e-15
1.3433e-14
1.80702e-11
1.21929e-06
9.60023e-07
1.34045e-11
3.68181e-07
7.51603e-11
9.94059e-07
1.86782e-07
9.8413e-16
5.55044e-09
6.83346e-07
8.90744e-07
6.38659e-10
9.26098e-07
2.13779e-11
3.27581e-10
9.2733e-09
1.70635e-10
2.18085e-11
4.05663e-08
1.35393e-06
1.84973e-06
5.60887e-07
1.0122e-13
1.01687e-06
1.09848e-06
2.00457e-09
4.26719e-12
1.37549e-07
9.55798e-07
3.73317e-07
2.23011e-10
8.02494e-12
2.39847e-11
1.70562e-06
5.12164e-12
8.71026e-07
9.49789e-12
3.54876e-11
1.0099e-06
2.20938e-11
2.25646e-14
3.28396e-14
4.58055e-12
1.12546e-06
1.83111e-06
9.98821e-09
1.01828e-10
3.26853e-13
3.35975e-10
4.51261e-11
4.04938e-09
2.43955e-07
2.84959e-07
1.73843e-06
2.4204e-09
6.36407e-14
6.62807e-09
5.57082e-13
1.99499e-10
6.34659e-14
1.52085e-14
1.90657e-06
9.05758e-07
1.14776e-11
3.1352e-12
1.12499e-06
1.11741e-11
4.41487e-09
8.26818e-14
8.34889e-12
8.64127e-09
3.10691e-10
6.57758e-07
9.67125e-13
5.07648e-11
1.0464e-06
1.71599e-06
6.54611e-07
4.08855e-11
1.63384e-13
4.08359e-10
6.59066e-13
1.49543e-06
5.80552e-08
1.78358e-06
4.87108e-11
1.00695e-06
2.2009e-07
3.47558e-07
3.27692e-13
3.30092e-10
8.73381e-07
3.56203e-07
1.85141e-12
1.92391e-13
1.97608e-14
5.95498e-11
1.01041e-11
4.96156e-07
8.31602e-07
1.23078e-08
5.22293e-08
5.31825e-07
5.56915e-11
1.80492e-10
7.3514e-14
1.77608e-08
1.62801e-06
1.24362e-12
6.71194e-11
2.68349e-15
4.01328e-09
7.70387e-14
7.45711e-07
9.61655e-07
1.46529e-06
5.27316e-11
3.99647e-08
7.30468e-07
1.86017e-06
7.17292e-11
6.89182e-12
2.11059e-07
4.85188e-10
8.94285e-07
2.76577e-10
7.75863e-12
7.13711e-12
9.62523e-09
4.1983e-08
5.45515e-14
1.3248e-10
9.31111e-14
7.1644e-13
9.27319e-07
1.13403e-10
6.12096e-11
5.97767e-10
5.86442e-14
1.84805e-06
9.12561e-12
6.84211e-07
5.50636e-12
1.73057e-08
1.69798e-06
1.93576e-13
1.36187e-06
2.30396e-07
3.23938e-11
7.90861e-07
3.09683e-12
7.57043e-07
3.63589e-08
2.99154e-10
3.63693e-11
8.62842e-08
2.40897e-09
1.79462e-06
1.70182e-11
4.55281e-12
5.89949e-12
9.30666e-07
1.12291e-08
7.87553e-07
9.90255e-07
1.09859e-06
1.84108e-10
4.06551e-10
4.42199e-11
1.56741e-11
1.92203e-12
1.11474e-10
4.1345e-11
5.55987e-09
1.11436e-07
4.33446e-10
2.23088e-10
7.21399e-07
2.06917e-11
7.70096e-09
4.97964e-11
4.90271e-11
1.99152e-12
7.93877e-11
1.00444e-14
1.46804e-08
5.36192e-12
4.26913e-09
1.14187e-12
1.33438e-11
5.62181e-14
3.37569e-09
2.95378e-11
5.64968e-12
1.2871e-10
3.18918e-12
2.98207e-12
6.73258e-13
4.42115e-10
1.11362e-13
1.9675e-10
1.77968e-09
4.00682e-12
1.45074e-11
4.61749e-12
4.56579e-08
4.30464e-12
1.11156e-06
3.26276e-07
1.41858e-06
6.0713e-07
1.27713e-11
4.57616e-10
1.15239e-06
6.06931e-08
2.58872e-12
1.48012e-10
4.14655e-11
1.39738e-06
3.63063e-09
5.43291e-09
6.48422e-08
5.50524e-12
4.50008e-12
4.25887e-10
1.7144e-06
8.25588e-11
7.67613e-10
6.01355e-07
4.83055e-14
3.40823e-08
7.0794e-12
7.83741e-16
3.42327e-09
4.86136e-12
2.57713e-07
6.28667e-07
5.81748e-07
1.2654e-09
2.76712e-08
4.89198e-11
4.43329e-10
3.96964e-11
9.46231e-07
1.26122e-06
7.01427e-11
7.73948e-10
8.26285e-08
3.54827e-13
1.07417e-06
1.36241e-10
9.56753e-12
9.0029e-12
8.25073e-10
6.36634e-12
7.80862e-07
9.60368e-07
7.78099e-07
1.42361e-06
9.82616e-11
5.87606e-09
9.98984e-12
2.65393e-10
1.22234e-10
3.82054e-11
5.43142e-11
9.84873e-12
1.8746e-10
3.99423e-08
7.50707e-11
1.3828e-06
1.09163e-09
8.91486e-07
7.29935e-07
6.3401e-08
4.13347e-11
4.7658e-07
1.53534e-06
8.18657e-07
8.07635e-07
8.23868e-11
6.85532e-11
7.52454e-11
1.51661e-06
1.39211e-06
1.22343e-07
9.30315e-12
8.67896e-11
2.94385e-09
4.7631e-07
1.02428e-10
2.7899e-07
1.13685e-10
5.84877e-12
3.77566e-11
1.17767e-06
2.07132e-11
8.30461e-12
2.55648e-12
3.62384e-11
1.09155e-06
1.02454e-06
6.8966e-07
3.55647e-08
5.64853e-11
1.53738e-11
3.75521e-10
6.67794e-11
1.22084e-08
1.17849e-06
1.18262e-06
2.42675e-07
7.18166e-07
7.12466e-16
6.85748e-07
7.03346e-07
2.47488e-10
3.69071e-13
1.33276e-06
1.24444e-10
1.94468e-10
1.88823e-06
6.74058e-12
3.89349e-08
7.92688e-07
5.3717e-07
7.03134e-11
1.76846e-06
1.68063e-11
2.79973e-11
1.01716e-06
1.43222e-11
1.23142e-10
2.76743e-09
7.1503e-12
7.85073e-12
3.53385e-11
2.33224e-10
1.66046e-10
7.2945e-07
4.82614e-11
1.33575e-06
7.54383e-07
1.01712e-11
1.19654e-11
7.97203e-11
9.34218e-07
2.61389e-10
5.14746e-09
5.23099e-12
1.0635e-11
3.03433e-10
1.27861e-11
1.79025e-06
4.70019e-10
1.39099e-11
7.3946e-10
3.29258e-08
1.36959e-06
8.87275e-07
3.47663e-10
5.28002e-10
1.37377e-06
1.21281e-10
9.82313e-08
6.86734e-12
1.45861e-06
2.16913e-12
1.41847e-13
7.61527e-12
7.91901e-07
9.88945e-07
1.70225e-06
1.48334e-09
1.22505e-11
5.40293e-14
1.33949e-10
9.75746e-07
8.13619e-13
2.70817e-10
2.01744e-07
2.20431e-09
5.08024e-10
4.43619e-11
1.34329e-08
3.91513e-10
3.84379e-08
2.71528e-08
5.92048e-12
6.92081e-07
1.53039e-11
8.51082e-07
1.4593e-06
1.88657e-06
1.6767e-07
1.62194e-09
1.02166e-06
3.19088e-11
2.18449e-08
9.51059e-07
4.39406e-10
1.48034e-13
8.41306e-11
9.85275e-07
1.6299e-06
1.94621e-11
2.49298e-11
4.67597e-13
1.8567e-10
7.36968e-08
1.72765e-09
1.03874e-10
1.02942e-06
7.73017e-07
1.05166e-06
1.12239e-06
5.94813e-14
1.01808e-06
1.5959e-06
2.47299e-09
1.98757e-15
8.91186e-07
6.29031e-12
1.64117e-06
1.32268e-11
1.02738e-11
6.89611e-12
3.40723e-12
1.29546e-11
1.44592e-11
1.794e-06
8.5318e-08
4.95155e-07
4.75768e-12
1.52275e-11
2.53058e-10
8.6749e-11
1.42724e-10
6.0822e-08
1.68735e-06
4.884e-13
1.80181e-06
2.42454e-10
3.10648e-07
3.45201e-12
4.10778e-09
5.48251e-11
1.38266e-10
2.4589e-10
1.77803e-10
5.88251e-11
1.11609e-06
8.94529e-09
6.19495e-09
3.33032e-08
1.19437e-06
1.93322e-07
3.08766e-08
1.29728e-08
7.86949e-11
8.54383e-11
1.53377e-10
1.7961e-10
1.79607e-13
5.68398e-08
3.45228e-07
2.85191e-10
2.64461e-13
1.1473e-06
8.1497e-08
1.03359e-08
1.50958e-10
9.56524e-07
4.39695e-10
1.11394e-06
1.05968e-11
5.14432e-11
9.54453e-10
1.06632e-06
4.50139e-07
1.67933e-06
8.00107e-07
1.35241e-06
5.40134e-12
1.5445e-10
2.77966e-07
1.45949e-11
7.46389e-10
1.74666e-08
1.389e-11
3.71085e-07
1.53352e-10
9.81667e-07
1.10011e-13
1.0809e-06
7.86171e-07
3.1078e-10
9.36044e-07
4.60083e-10
2.181e-11
8.75407e-10
4.20576e-11
5.3793e-10
9.3654e-12
1.82162e-06
1.77323e-10
1.31207e-10
1.02054e-06
9.50982e-07
4.82588e-08
1.25815e-06
1.21706e-11
1.38873e-09
1.86732e-11
2.63877e-11
1.22868e-09
4.88759e-08
4.63922e-08
2.89938e-11
2.79525e-12
9.96901e-11
6.98798e-10
4.32704e-10
1.0215e-06
3.51177e-10
6.27422e-07
7.34869e-07
2.11876e-11
4.62791e-07
1.52871e-06
5.69859e-12
6.16114e-07
1.20354e-10
1.05076e-06
5.99342e-07
2.19329e-09
8.6182e-09
2.83962e-08
1.90214e-11
6.3875e-09
1.52572e-06
1.4266e-06
7.61194e-12
1.06854e-06
3.14698e-09
3.52207e-10
1.11523e-06
4.16576e-10
1.28594e-10
1.49064e-06
2.0808e-11
1.85215e-06
1.70795e-06
6.44411e-10
7.5241e-13
5.9879e-08
9.39163e-10
1.07195e-06
1.00987e-06
1.06272e-06
2.82102e-08
3.62015e-13
8.35874e-09
4.47202e-12
2.35962e-08
7.33535e-07
3.58743e-10
1.42852e-06
1.26379e-10
1.28506e-12
1.37472e-06
3.15283e-10
6.26589e-08
3.4339e-10
6.54506e-11
9.4836e-13
1.53972e-11
1.11665e-12
8.45456e-07
6.6711e-15
1.86731e-11
9.2129e-11
8.00914e-11
7.89993e-07
7.02105e-12
8.37276e-13
2.48521e-10
5.29807e-09
1.47839e-08
2.05787e-12
1.49117e-12
2.14023e-10
2.48958e-11
9.51885e-07
3.84785e-13
4.72483e-09
4.73175e-12
1.0391e-06
6.91692e-07
3.25647e-09
7.49513e-07
3.71244e-11
1.6063e-06
4.97289e-07
3.51049e-07
2.88193e-10
9.03331e-07
7.90008e-12
1.24256e-11
1.67049e-09
6.913e-08
7.45098e-11
9.72108e-07
1.3706e-11
3.31908e-13
1.13915e-09
2.43173e-10
6.3127e-11
6.32718e-11
7.87293e-07
2.07078e-13
6.10408e-11
4.17329e-11
7.66154e-11
8.06229e-12
1.29359e-06
7.29561e-12
5.28544e-13
5.94319e-13
5.49886e-11
9.96887e-11
5.8865e-11
7.10927e-11
5.95694e-15
1.2387e-08
5.77742e-10
4.9469e-10
2.03018e-08
2.48771e-11
1.37669e-10
1.75828e-12
2.23106e-11
2.28582e-12
2.1536e-08
2.33674e-11
1.01277e-06
1.03175e-06
5.53621e-13
2.87259e-11
7.25906e-11
1.88628e-11
1.50854e-08
1.15768e-13
1.71946e-13
1.89104e-07
3.13884e-13
1.22856e-07
1.05339e-08
1.34008e-06
3.92313e-13
1.93618e-08
1.46218e-09
1.14843e-06
1.57931e-13
5.24205e-10
4.06795e-11
1.00294e-06
2.03952e-10
3.33419e-12
1.50028e-06
1.48184e-12
9.17417e-07
1.15879e-10
1.02331e-06
4.39738e-14
3.55299e-11
8.19063e-07
1.14922e-06
3.67464e-07
1.06685e-06
2.7688e-11
1.26185e-06
1.2853e-06
2.18622e-09
1.56639e-06
4.30893e-13
3.54851e-13
5.96078e-09
1.80264e-09
7.94609e-11
1.65104e-13
3.54857e-11
2.10084e-07
1.21238e-06
3.17725e-07
3.04362e-11
1.91465e-10
1.00026e-09
5.87057e-10
7.80385e-11
7.77892e-10
1.56904e-12
1.18959e-09
1.22126e-06
9.42176e-12
1.48473e-08
5.84974e-07
1.565e-08
3.1243e-12
4.71362e-11
5.89153e-10
1.53543e-07
3.86544e-11
6.85372e-11
1.05356e-10
1.83987e-06
1.29105e-09
4.14769e-12
7.15577e-12
7.74303e-13
3.79705e-07
4.37076e-12
3.45123e-07
1.20179e-10
4.36853e-10
1.34826e-06
1.21179e-11
9.98462e-12
1.05584e-06
1.51624e-11
9.56913e-07
2.06001e-11
1.72805e-06
1.05606e-06
4.3285e-10
1.00295e-06
9.92344e-07
1.37279e-11
6.37478e-13
9.507e-13
1.49144e-06
1.21987e-06
1.58703e-08
1.98816e-09
1.17013e-10
1.11853e-11
4.60367e-10
6.41112e-12
2.5795e-10
6.26519e-11
1.3768e-06
1.00471e-10
3.15801e-12
2.02705e-10
1.42426e-11
3.64902e-12
1.67876e-06
2.43932e-08
2.05801e-13
7.63424e-07
1.90205e-06
9.98297e-07
7.0026e-12
1.11862e-12
9.13085e-08
1.48379e-13
5.4394e-10
1.92862e-08
1.1976e-11
9.37837e-07
1.39369e-10
1.29563e-06
1.69381e-07
1.159e-06
6.00205e-11
2.11144e-06
1.14746e-08
5.89891e-07
8.87951e-13
1.05299e-09
4.09875e-07
1.44921e-08
1.11811e-07
1.04192e-06
8.91409e-10
7.74495e-07
4.68349e-13
6.53221e-07
1.03197e-06
1.81346e-07
6.94379e-11
1.94347e-06
3.71799e-08
2.25043e-11
1.01528e-10
2.17179e-11
6.77334e-09
9.6919e-11
9.44268e-10
1.62517e-06
2.30236e-10
6.31141e-11
8.78067e-11
1.60771e-08
1.04866e-06
2.3262e-10
1.33538e-10
2.31094e-11
1.73475e-08
1.88018e-11
6.20834e-11
1.89328e-13
1.26434e-06
1.30438e-10
3.32752e-10
7.37466e-07
4.54545e-13
6.77609e-10
1.25935e-10
1.60985e-06
7.2291e-11
1.13558e-10
1.01425e-07
5.67021e-11
6.08542e-08
2.16e-09
4.27384e-10
8.61336e-07
1.78769e-12
2.7909e-07
2.96814e-10
1.7431e-06
1.05421e-06
1.03697e-09
1.71289e-12
2.06147e-06
1.00937e-12
6.69342e-12
8.56017e-07
1.03784e-06
1.57929e-11
2.07252e-09
2.24402e-13
3.88763e-12
1.17196e-10
9.9402e-09
5.99602e-07
1.98078e-10
2.50354e-11
5.99588e-11
6.73278e-08
1.05831e-08
1.83073e-07
1.34568e-11
8.31004e-07
8.40213e-09
3.69137e-12
9.92244e-07
1.49864e-08
4.15088e-14
7.78606e-11
1.85189e-06
3.63336e-10
1.67312e-11
3.18777e-10
2.77489e-10
3.25591e-10
7.8313e-11
7.68311e-07
4.49824e-11
1.45199e-08
6.8206e-11
1.0398e-10
1.01842e-09
1.26295e-07
1.27656e-06
6.69902e-08
2.52295e-14
9.52572e-08
6.94048e-11
4.53313e-13
9.93088e-07
1.867e-12
4.31678e-12
8.20325e-13
2.06431e-07
3.72001e-08
1.58007e-11
1.39463e-10
9.65495e-08
7.2322e-10
7.00422e-08
2.87934e-11
1.34504e-11
1.1546e-06
8.72186e-12
1.67647e-11
2.32334e-10
1.41408e-06
9.37227e-07
1.37892e-12
2.53814e-07
1.20253e-10
7.15479e-08
4.44989e-08
2.06247e-12
2.78744e-11
9.72679e-07
4.34477e-13
1.56769e-12
9.75541e-07
6.68886e-13
5.43136e-11
1.1792e-07
2.12616e-06
2.68318e-11
1.29507e-10
8.72822e-12
5.65299e-10
9.90271e-13
3.25355e-10
1.10779e-08
1.9092e-12
1.16818e-08
1.98185e-09
2.06055e-10
1.0876e-06
3.36328e-13
4.34129e-10
2.25254e-12
1.46401e-10
5.12681e-08
2.64806e-13
5.90835e-07
1.19021e-08
5.33919e-14
1.8714e-06
1.79902e-12
1.45529e-12
2.05883e-08
1.89363e-06
1.90534e-06
1.05856e-11
9.82793e-07
1.82969e-11
6.66318e-08
5.1461e-07
3.04224e-13
3.20857e-12
6.5443e-12
1.02849e-06
5.90018e-07
6.29842e-08
2.92905e-12
1.65037e-13
9.3333e-07
3.2699e-11
6.02389e-13
1.26151e-11
5.29305e-09
7.41337e-07
2.23045e-12
4.71938e-09
3.91286e-08
3.92713e-08
1.17601e-11
6.09606e-10
2.45132e-09
7.83879e-07
1.57497e-10
5.82579e-11
3.27588e-07
1.16726e-06
9.69217e-12
2.12035e-09
1.2273e-12
8.6608e-11
1.58173e-13
1.39439e-06
1.03135e-11
8.78961e-07
1.3674e-08
3.28625e-07
4.98877e-07
1.81339e-06
2.40618e-07
6.84674e-10
8.41128e-11
5.62447e-11
9.73828e-07
7.0006e-11
7.54054e-11
1.08436e-06
1.57435e-10
3.96009e-12
5.27558e-10
1.39268e-06
1.03679e-06
4.96517e-13
1.59302e-09
1.38719e-06
1.20129e-10
1.78805e-10
6.23855e-11
4.83178e-11
1.54331e-07
1.14826e-06
1.57331e-06
5.5117e-12
3.16053e-08
2.02246e-10
1.15389e-08
1.8613e-10
1.96895e-12
5.58232e-12
1.04076e-14
1.88525e-07
2.10063e-11
7.37455e-12
1.18127e-10
2.89949e-12
5.8651e-07
5.4267e-11
1.65854e-11
1.38096e-10
9.28357e-11
6.30102e-10
3.86689e-11
4.28779e-11
8.36552e-07
6.1783e-09
3.32206e-07
1.42222e-08
8.9109e-10
6.69502e-09
1.67231e-10
1.14924e-09
8.89035e-11
2.36968e-10
4.28956e-14
1.16914e-06
1.0232e-06
1.71199e-10
3.77076e-14
1.71653e-13
3.84538e-09
2.00482e-13
1.05781e-06
3.74835e-13
1.83187e-06
9.30799e-14
1.2279e-06
1.88427e-09
2.71426e-10
1.05488e-12
5.28897e-08
6.51633e-08
3.65083e-12
9.63679e-12
6.25749e-11
2.5204e-09
1.78057e-11
2.23653e-12
1.02078e-14
6.99517e-13
1.16021e-11
3.31539e-07
8.46718e-11
1.10736e-06
2.01482e-07
6.15912e-10
6.65354e-13
1.489e-11
1.62994e-11
5.21103e-11
6.14371e-13
1.33832e-08
1.86032e-10
3.64045e-08
6.87828e-10
3.13708e-10
1.05716e-06
7.98863e-11
2.19824e-07
1.67965e-07
8.96374e-11
7.78469e-11
1.17197e-12
1.61926e-11
6.86564e-11
8.29478e-07
2.43321e-12
1.01443e-08
5.12988e-09
1.89597e-06
5.50686e-13
5.41416e-13
8.9545e-07
1.45226e-09
8.56262e-10
8.34761e-07
3.20871e-10
1.46827e-09
1.32071e-06
1.1039e-06
2.13498e-06
6.99739e-11
7.10294e-10
9.6983e-10
1.21487e-07
8.48111e-12
1.29398e-06
1.24746e-10
1.32273e-14
1.3059e-11
1.95337e-12
1.60006e-12
1.54547e-08
3.58351e-12
2.9314e-09
5.61088e-07
1.15601e-06
1.46343e-10
3.83897e-12
9.89409e-07
5.44314e-11
1.7087e-11
5.41252e-10
1.44521e-06
1.19501e-10
1.26959e-09
2.33224e-10
9.91876e-12
7.77014e-08
1.53287e-08
3.73824e-10
5.59737e-09
5.26852e-08
4.81603e-12
2.17708e-08
1.66891e-11
4.87737e-12
2.10996e-07
2.3325e-07
2.33785e-09
1.55247e-10
1.95463e-12
9.17087e-07
8.21315e-07
1.655e-11
1.22629e-09
7.03085e-11
2.17579e-09
1.29439e-07
1.60448e-13
1.05873e-10
4.71183e-07
2.76334e-07
2.79038e-13
7.07276e-07
1.55482e-08
3.7821e-12
1.17201e-13
1.0243e-10
1.37838e-11
1.53362e-06
5.82022e-07
5.57077e-07
1.22102e-07
3.61307e-09
2.53958e-09
2.64987e-10
3.08832e-10
1.11647e-06
2.32702e-08
1.2585e-07
3.75759e-13
2.61371e-11
2.66265e-09
1.53809e-11
1.45501e-10
2.66094e-09
2.07235e-14
1.83247e-06
1.31073e-10
3.22097e-10
1.42672e-10
3.95039e-10
4.92055e-07
1.25787e-10
8.07672e-12
7.01875e-12
7.06048e-11
2.68355e-14
3.1656e-11
9.65333e-10
1.29693e-10
9.75529e-13
1.73124e-07
4.93846e-08
9.47862e-11
2.674e-11
5.1656e-07
1.30337e-06
5.77675e-07
5.56913e-07
1.60835e-10
1.95838e-06
1.44802e-06
2.73372e-11
6.8174e-13
9.03629e-09
5.79624e-11
6.84516e-07
7.33717e-13
1.00374e-06
1.21399e-10
8.50886e-12
8.27052e-10
1.04563e-06
9.79754e-11
4.52456e-08
1.36027e-06
1.11342e-09
6.52968e-09
4.14158e-09
4.76841e-13
3.60664e-13
1.72869e-07
1.29771e-07
7.1377e-07
3.71768e-07
6.30343e-13
2.56062e-09
1.74105e-10
3.86075e-08
1.04754e-10
4.95373e-11
9.03447e-07
5.23371e-07
1.28432e-09
2.69318e-08
6.68339e-11
8.29198e-13
8.12353e-09
9.47574e-10
1.8456e-06
2.43594e-08
7.50784e-08
1.81021e-07
2.40944e-10
1.08117e-06
1.07676e-06
5.69706e-07
2.06676e-13
6.47088e-10
1.86564e-07
2.54435e-13
2.4124e-12
2.55031e-07
1.09839e-08
4.87763e-11
1.21566e-06
7.74276e-08
5.66934e-07
5.47603e-11
2.08549e-09
1.2042e-11
1.7822e-06
7.89605e-13
1.60654e-14
9.25463e-08
9.8679e-07
1.76172e-06
1.92451e-07
1.69702e-12
1.26219e-06
8.51478e-07
2.34857e-07
1.02255e-11
1.07996e-12
1.13488e-06
1.76444e-06
3.89082e-11
2.00827e-08
4.90299e-07
1.03559e-10
3.3523e-08
1.83426e-11
7.37724e-11
2.73297e-09
2.46528e-09
1.87541e-10
2.93109e-13
4.66387e-10
1.60649e-09
1.47914e-08
9.90438e-08
1.30991e-07
1.05088e-10
1.77712e-12
1.41418e-11
4.42557e-07
2.05236e-07
3.40401e-07
6.68496e-09
1.25206e-06
1.55907e-06
6.23492e-08
1.34175e-06
1.3763e-06
1.00376e-08
1.81142e-07
1.13533e-06
1.70384e-07
6.45308e-11
2.21936e-06
7.36265e-09
6.34472e-08
1.27284e-06
6.51957e-11
1.49317e-08
2.73992e-08
1.60605e-10
1.02431e-10
1.04158e-06
1.41788e-08
1.10847e-06
8.41687e-10
9.01804e-11
1.41983e-11
5.48514e-08
1.86005e-06
1.16127e-11
2.84493e-09
1.37173e-12
1.26679e-14
1.35323e-06
6.68225e-12
3.06247e-08
1.21031e-06
2.19915e-11
3.90991e-13
9.17847e-07
9.35451e-15
1.72851e-10
3.0775e-10
2.24522e-11
8.42628e-10
8.62045e-11
1.35192e-13
1.19777e-08
1.4559e-08
1.79015e-06
4.19301e-09
1.86852e-12
5.19047e-07
1.68577e-10
4.27548e-08
6.19498e-07
3.9431e-13
2.25511e-11
1.34021e-11
5.69401e-13
7.8978e-11
7.52463e-13
5.93786e-12
1.45519e-11
1.62342e-09
6.20409e-07
3.08156e-08
1.32527e-06
2.02435e-06
1.27894e-07
1.5982e-06
2.76863e-10
2.03647e-06
7.87868e-12
1.01149e-12
2.57143e-10
1.72398e-06
2.68217e-14
1.37716e-11
2.23726e-09
6.27828e-10
7.63414e-07
1.62388e-06
1.00566e-06
1.18265e-06
7.56627e-10
1.62327e-10
2.72182e-11
2.82775e-11
1.87663e-06
1.8446e-06
1.18034e-11
1.06771e-06
1.44355e-09
1.19607e-10
1.34617e-06
1.15273e-10
4.88465e-09
9.56246e-07
2.0527e-06
1.37195e-06
1.52357e-11
1.9437e-07
1.23683e-06
9.43614e-08
7.61383e-08
2.58022e-11
5.48413e-14
8.7352e-07
2.90454e-09
7.90106e-07
1.85002e-08
1.01256e-08
3.82689e-11
1.07236e-09
6.28345e-11
1.26721e-06
6.90024e-13
7.24431e-09
3.84174e-08
1.9552e-06
1.4716e-06
7.747e-07
2.54802e-07
1.90821e-06
2.28002e-10
5.7314e-12
1.69324e-09
1.65758e-08
5.18171e-10
2.40103e-08
5.88668e-11
2.44846e-09
3.67761e-08
4.52066e-09
1.62689e-12
1.72666e-08
1.05558e-06
9.63732e-13
1.5011e-12
1.07808e-13
3.01309e-11
1.2244e-08
6.82307e-12
7.05224e-09
1.65429e-10
4.53477e-13
1.93775e-11
2.80693e-09
1.32868e-07
7.93706e-13
4.7887e-11
1.67603e-08
2.28913e-12
1.28518e-06
4.96946e-13
9.36535e-07
3.32087e-12
7.83247e-13
7.61213e-08
1.75181e-11
8.72691e-13
2.56114e-08
7.27996e-07
1.23237e-06
1.7279e-06
3.38443e-11
9.39364e-07
6.78638e-13
6.06034e-11
5.08361e-08
1.0021e-07
1.05181e-06
5.38385e-07
5.71337e-14
2.77455e-11
9.80092e-07
1.99719e-12
1.75229e-06
1.34386e-07
5.625e-11
1.57355e-10
1.66106e-11
1.91456e-06
7.73224e-11
1.86865e-10
2.7598e-07
1.10673e-10
1.09433e-06
1.8832e-11
7.41902e-12
7.77364e-07
1.14185e-06
9.04861e-09
4.0777e-12
4.64488e-11
6.60694e-10
8.54092e-10
8.43967e-10
7.16726e-10
7.74733e-10
3.95191e-08
6.35441e-12
3.55194e-11
5.20259e-11
1.20494e-09
3.88727e-13
4.98832e-13
2.82336e-09
1.06228e-11
7.91117e-08
1.84355e-12
1.73742e-13
2.82588e-10
9.78982e-08
6.8758e-13
9.14519e-07
2.93669e-12
2.10761e-12
1.86823e-08
1.45842e-13
9.00834e-13
1.21152e-07
8.81859e-11
5.74283e-11
5.23115e-11
2.94968e-11
1.23309e-11
8.35154e-10
1.5541e-06
1.0301e-09
1.51368e-08
1.50501e-12
1.81281e-12
1.54156e-07
1.32013e-11
6.46655e-07
2.46655e-13
6.23762e-07
9.94007e-07
2.12535e-10
1.52806e-10
3.01138e-11
5.85533e-10
8.37506e-11
1.57039e-11
9.10143e-09
1.84556e-10
6.83927e-07
1.20517e-06
3.66775e-11
2.91157e-10
4.56286e-08
3.25748e-13
6.24315e-08
1.34625e-12
9.49026e-07
8.71706e-08
1.329e-06
3.71985e-11
1.62488e-11
1.92928e-11
8.82184e-08
5.4264e-10
8.30489e-11
4.70135e-10
3.45086e-07
1.88521e-06
2.56087e-12
2.87929e-11
1.11257e-06
4.56168e-11
1.01365e-10
1.09516e-06
2.96134e-12
7.97985e-13
7.82205e-08
9.14705e-11
2.2561e-06
1.72893e-11
1.22983e-06
1.2306e-06
1.19004e-10
9.01899e-08
1.10013e-06
8.18528e-07
1.12904e-06
1.52678e-06
8.48954e-10
1.1212e-06
5.68911e-07
1.52023e-10
4.34918e-12
1.82509e-06
1.33906e-09
1.83596e-10
1.23084e-06
6.2285e-08
3.64305e-08
1.1967e-10
6.63578e-07
2.28056e-09
2.74259e-07
9.0566e-12
9.26191e-10
6.91277e-08
3.68272e-11
1.02651e-11
2.98471e-10
5.24736e-10
1.47477e-12
1.02378e-06
1.65896e-06
4.77747e-09
3.79892e-08
1.12971e-08
7.38111e-10
7.68659e-11
2.91716e-07
3.41018e-07
5.70337e-07
2.13831e-09
5.56676e-12
2.04346e-11
2.30836e-07
1.94777e-10
8.09612e-08
9.50822e-13
1.31075e-07
1.41742e-06
3.8591e-13
1.55872e-08
4.47612e-10
1.75528e-06
5.9089e-10
3.45634e-10
1.99781e-06
9.39075e-08
2.03319e-09
1.01797e-06
4.92573e-11
9.49378e-14
8.47868e-11
9.23219e-13
9.90504e-08
5.15245e-12
9.1688e-11
6.61964e-10
1.22488e-06
8.29853e-11
6.0204e-11
3.37501e-14
5.23808e-10
1.13765e-06
1.4237e-07
5.7438e-11
4.17704e-07
8.80942e-12
1.22783e-12
1.90189e-07
1.22629e-06
1.04059e-06
1.1781e-06
1.83343e-10
8.65947e-11
1.8867e-11
3.08096e-10
1.80615e-06
5.52973e-11
4.55738e-11
6.17418e-11
1.51637e-09
4.74552e-12
1.04898e-11
1.74503e-06
3.50218e-08
3.11855e-09
1.04213e-06
7.59438e-12
1.08573e-06
8.85836e-07
1.30928e-10
5.45264e-12
4.12204e-09
1.01514e-07
6.72702e-07
5.59107e-09
7.17703e-13
1.23119e-06
1.02049e-12
1.35434e-10
6.94918e-11
1.91629e-11
1.07935e-12
3.84676e-11
8.07562e-10
1.51097e-11
3.14248e-10
4.88368e-11
1.62044e-10
1.51131e-14
1.25126e-06
5.85756e-10
1.24895e-06
3.74569e-11
1.0541e-06
1.61055e-07
1.22259e-06
8.43008e-07
1.1218e-10
3.28556e-11
2.33729e-10
1.13653e-06
2.20723e-07
1.76479e-06
7.15073e-13
2.63956e-11
1.59205e-11
1.77951e-12
1.02376e-09
6.07434e-13
1.47445e-06
4.10202e-09
2.68947e-12
1.52948e-10
6.11394e-07
5.82112e-10
2.70482e-09
8.60406e-07
6.40621e-07
1.41468e-06
1.04444e-08
1.48209e-10
1.69729e-06
6.69099e-14
6.28005e-08
2.99017e-10
8.00138e-10
6.39023e-12
2.95919e-10
2.83429e-11
8.97316e-14
9.1938e-11
1.49471e-09
6.42061e-08
1.70935e-11
2.49338e-10
4.30225e-10
1.4496e-06
4.94528e-12
3.99934e-13
2.37915e-09
1.42695e-10
1.71151e-06
2.91347e-08
2.4924e-07
7.67782e-08
2.50047e-08
1.13117e-06
1.37629e-08
1.25768e-06
4.52502e-10
8.0479e-10
7.94096e-10
4.5723e-11
8.57498e-07
2.50336e-08
3.82932e-14
2.75502e-10
1.03625e-06
9.49987e-07
7.44459e-11
4.8382e-10
2.0166e-13
3.09956e-10
1.11768e-06
1.94157e-06
5.59055e-09
6.35193e-08
4.23051e-10
1.50229e-08
1.68889e-11
1.25664e-06
1.45512e-13
6.49579e-10
6.29744e-07
8.91847e-07
3.39947e-10
6.1058e-11
4.2411e-12
1.73271e-06
1.30984e-11
3.5782e-10
1.59289e-10
1.19477e-07
2.30851e-11
4.09002e-08
1.78886e-12
2.60164e-13
7.89515e-11
1.92783e-06
8.12323e-10
3.60465e-08
3.89884e-10
2.484e-07
1.91892e-06
6.3343e-07
1.92631e-08
8.11436e-08
1.06203e-12
1.04426e-06
1.45367e-06
1.39902e-06
4.68467e-10
6.33019e-14
1.1265e-10
1.24384e-06
1.24321e-06
7.81291e-14
1.09183e-08
1.25947e-09
1.51211e-06
1.88092e-06
3.84437e-11
7.44246e-11
1.35775e-06
1.66016e-07
1.84726e-06
1.04547e-07
9.95097e-11
7.04968e-10
6.69977e-08
1.57616e-10
1.98411e-13
1.15021e-06
8.3487e-11
1.22787e-06
5.65812e-12
1.03851e-11
2.47968e-12
1.84367e-10
1.28962e-06
1.26876e-06
1.61658e-11
5.35563e-11
4.36069e-10
1.4504e-09
1.01603e-12
1.48535e-11
1.02121e-10
8.11014e-13
1.59264e-10
7.60657e-08
8.5485e-08
2.36952e-10
3.36478e-12
1.24218e-06
4.10089e-08
1.195e-06
1.12637e-06
1.48622e-06
6.61608e-07
4.93319e-11
2.34619e-09
4.98966e-07
8.90229e-07
6.03029e-11
8.16109e-13
2.78146e-11
1.96481e-13
3.17216e-10
6.87054e-13
5.62851e-13
1.34428e-10
5.00882e-07
6.9771e-10
5.32246e-09
1.13829e-06
9.94463e-11
1.01016e-06
9.1423e-14
1.07804e-10
3.91014e-11
1.57821e-07
2.98557e-14
3.17351e-10
1.22994e-06
1.62866e-10
1.18764e-06
1.07829e-10
6.02558e-11
1.21319e-07
6.73951e-13
3.50062e-08
1.77912e-10
1.92563e-09
8.4367e-07
9.00638e-10
7.09582e-12
1.38167e-11
6.67729e-07
3.61007e-09
7.11352e-14
7.57755e-07
1.2321e-06
3.90596e-11
3.80275e-10
4.15137e-08
3.63592e-11
7.07136e-11
1.1741e-10
3.80809e-10
1.56552e-13
1.59628e-06
3.11628e-11
1.64704e-10
4.5107e-11
1.22301e-07
8.31885e-07
9.22408e-11
3.55139e-08
1.71135e-14
4.81123e-14
2.13578e-06
7.98756e-07
4.37979e-11
4.00085e-10
2.94671e-10
6.96376e-07
2.37032e-11
1.02423e-10
1.20556e-09
2.94083e-07
6.10627e-09
1.62971e-06
2.2112e-09
9.90115e-07
8.09744e-11
2.45417e-09
6.53269e-13
1.07471e-06
8.49455e-07
1.99085e-10
1.92203e-06
2.96114e-07
6.53181e-07
6.80328e-14
2.11375e-12
1.1091e-09
1.34536e-11
6.79874e-11
4.08634e-09
8.13362e-08
3.26802e-08
1.9899e-08
1.0437e-06
1.10779e-06
1.41931e-12
1.15374e-06
1.02388e-06
1.02973e-06
6.79925e-07
3.84625e-12
9.61813e-10
4.46396e-10
6.6275e-11
4.52041e-08
1.45858e-06
1.87463e-10
5.2844e-11
8.50344e-07
4.84234e-09
1.15211e-12
1.27475e-08
3.14373e-10
1.24231e-06
1.31829e-06
7.35584e-12
1.28849e-06
6.7694e-07
9.21564e-13
5.53784e-07
1.61532e-13
4.37027e-11
7.18279e-11
1.12742e-10
5.29005e-12
1.8895e-08
5.03819e-12
8.21534e-07
1.23908e-06
5.83701e-07
5.56101e-08
1.10069e-06
3.90017e-09
7.97254e-07
1.78968e-06
2.47526e-10
2.14924e-07
1.18931e-06
9.02848e-11
9.99059e-11
9.97411e-07
2.44649e-10
2.78911e-09
8.23729e-12
1.02583e-07
3.58335e-13
3.23163e-13
5.80817e-11
6.17872e-10
1.46754e-10
1.27053e-06
3.81283e-10
4.7116e-10
1.58046e-07
1.51167e-10
2.21152e-11
5.64747e-10
2.42442e-12
2.69819e-11
6.68212e-14
1.90518e-11
1.23597e-06
1.22459e-13
2.61313e-11
6.21446e-11
1.77035e-06
8.85076e-07
1.25694e-10
7.5718e-08
1.89433e-07