/*--------------------------------*- C++ -*----------------------------------*\
| =========                 |                                                 |
| \\      /  F ield         | OpenFOAM: The Open Source CFD Toolbox           |
|  \\    /   O peration     | Version:  v2012                                 |
|   \\  /    A nd           | Website:  www.openfoam.com                      |
|    \\/     M anipulation  |                                                 |
\*---------------------------------------------------------------------------*/
FoamFile
{
    version     2.0;
    format      ascii;
    class       volScalarField;
    location    "2000";
    object      omega;
}
// * * * * * * * * * * * * * * * * * * * * * * * * * * * * * * * * * * * * * //

dimensions      [0 0 -1 0 0 0 0];


internalField   nonuniform List<scalar> 
21265
(
568.041
11602
314.765
803819
1138.71
287.993
854.461
2264.39
216293
4800.5
954.07
245.768
636225
10961.3
456506
809925
11729.3
248443
999.692
15051.6
7560.43
255770
15858.5
766.178
284348
1810.86
17767.1
608.296
8839.53
2264.57
149323
23169.5
11224.4
9805.34
70.4114
2806.54
382.492
146.123
16271.5
9042.89
94002.4
106.999
142826
610.636
465.993
2513.29
492019
675295
1084.6
516943
90.62
71037.2
3166.9
15063.3
3424.88
293.863
225.588
450291
52.4063
21968.5
2750.88
2070.93
226.565
15300.3
484078
13051.1
312269
94803.7
16431.7
226.145
311566
365660
621.941
15056.8
13565.5
40297.2
12217.5
95.754
217.414
107.879
575498
163677
96.6755
20495
253.393
163852
158.043
8812.9
19759
631177
3820.74
631177
631177
137.58
1780.25
122777
354.192
545879
13151.7
115.932
1979.11
1015.92
1926.43
14564.6
129.143
712342
1484.79
276372
15685.8
815857
2517.27
72.5949
1865.77
529470
97.0039
170.759
209.617
165534
153.035
54372
1499.72
114.166
13522.7
2562.54
2206.6
4229.62
1159.02
20529.5
455.932
12894.9
276.774
359.308
5709.09
5226.97
140.365
18192.4
111.544
6836.98
63.8522
18326.1
142.117
805302
303249
139.872
6138.67
20717.5
4402.57
2405.93
190.331
598269
69289.2
653.749
458.03
115.116
725696
235884
1657.06
818551
818551
9067.42
126.634
199838
100.829
100.596
122.046
158.328
876893
3849.56
784485
929.613
748269
64.2833
241.222
10870.5
77.8939
116.515
9580.14
102.686
6286.05
71.6171
17430.6
3560.95
60.9289
5220.48
794557
821184
1147.15
780436
780436
780436
1070.92
783672
498781
5119.19
406251
92.0201
14589.1
127.389
748269
800271
498781
2172.44
589772
625717
821184
1204.05
751124
429722
106.752
3024.63
345.122
171.917
63.1279
27837
2053.48
2109.9
146469
78.0786
851962
179.107
642.408
19505.5
149.661
4930.1
919753
919753
816106
108.457
173249
88.3289
79.6339
925.633
3264.64
70.3399
2243.37
851962
956527
312897
1963.39
3378.21
12151.7
12872.9
839727
625717
1537.85
307194
121.458
10171.2
2955.32
2585.67
4658.95
128.537
1143.87
808139
663.446
893374
159775
137.636
2970.73
1267.71
15555.4
1277.85
246102
893374
236890
893374
349.171
12286.4
45.8305
9402.33
466.442
56.9949
1242.7
376526
12685.2
868526
868526
868526
113.795
527946
64.7019
713578
713578
307194
307194
307194
173.643
1276.75
65.5778
868646
868646
6178.25
469782
738404
9651.62
868646
258.239
1470.4
76730.9
94.133
52.0236
1965.16
3969.81
362908
731.118
3006.87
3323.69
14275.4
225182
153.941
64.2976
9053.62
68.2183
276.059
80.4945
3500.65
129404
2102.32
415.074
20825.9
203678
20786
3931.58
161.274
694.297
48.4208
817802
67.8296
1583.94
580399
14009.5
4508.73
8954.48
15718.2
10380.5
161.822
1732.49
859373
91.9308
22248.1
668675
152.145
143.546
4678.83
165.415
1294.52
2868.72
1320.32
77540.7
4090.24
58866
116.222
104.451
5482.77
133.91
859373
423197
50.0109
140.311
696.005
3673.55
1938.04
886500
1.11964e+06
100.23
21584.4
950338
422597
159.071
11737.4
649087
1588.3
950338
1765.72
337.503
5677.42
227.639
540.687
1.05767e+06
223.653
485022
119.355
7143.71
118093
83.6072
820934
820934
2519.06
598269
48.9116
978637
48.5343
1.05901e+06
170.514
2059.11
318565
891150
168858
547957
300.392
762807
785.642
82.6553
859.317
12776.7
1.12442e+06
6112.19
473282
996134
111.566
891044
932880
281085
181798
149537
617.173
437.331
10606.6
222.551
410091
62.1201
232.794
951400
1706.67
184.906
69.5352
4335.25
185.577
628104
5379.46
857.677
2704.4
7120.12
275.795
118.584
91.0633
42.2188
1.10321e+06
129.937
138.807
989.414
12750.3
218.233
201.996
49.2544
2730.7
1.0337e+06
7639.82
52.8842
882493
86.5364
19767.3
4238.19
103.231
9977.07
749515
186838
696979
70.246
91.9525
585.27
3600.3
966886
12680.1
220172
1961.59
113.623
206.966
52.1778
2691.5
1.10113e+06
619.241
966886
440660
1.09525e+06
999941
101.019
85.0354
11262.6
205048
68.5834
147648
2043.75
808794
792866
755.79
8927.55
325.106
800271
25349.1
66.4566
93.4914
319.231
5452.37
1.13333e+06
2055.46
1.0664e+06
137.548
643.71
65.7898
710581
82.5759
112.662
229.645
1.06045e+06
2389.09
95.9912
49.2368
132386
1.06045e+06
847933
412887
12006.8
255.696
382.838
1360.6
312.993
75.8927
33193.2
13543.2
194473
1078.38
75.1393
932374
27233.8
1.20865e+06
1895.45
436484
147.461
49.2593
99.3917
4462.54
309.971
91.7183
86.3893
462620
841334
179.084
4605.74
356.588
8420.43
11499.6
13281.3
1241.77
779.157
195723
118418
855419
205130
111.234
3990.82
23325.2
4575.94
193788
84.2796
839197
281.389
31759.1
1190.69
58.8118
1.13333e+06
138.771
243.783
11828.6
102.686
66732
117.498
875.735
2631.86
15482
392.763
1000.79
149.232
10200.3
427676
821265
232.848
490.034
52.0504
116.794
66.2927
2811.25
14988.1
9613.29
9156.92
22841.2
6593.04
10551.7
786.162
346.973
1873.07
7277.02
97.7233
395899
628.595
105583
5503.27
160149
3296.38
1.10675e+06
458.085
76902.5
795.352
586044
937142
163669
1021.39
6637.37
177098
4914.36
1.12692e+06
1.12692e+06
265953
2230.18
1.05441e+06
8545.58
1541.24
975333
23340.6
17854.5
475.25
25934.9
202.197
299.892
214.604
64.1136
623653
7725.24
360.706
380.845
817802
3775.19
291899
155.635
1425.96
1388.32
299.981
983992
983992
1410.8
203.243
13855.2
3099.46
65.6802
145856
933.513
986752
1.05573e+06
1276.76
939721
290.534
147.465
275.511
2548.53
1003.54
9317.69
2259.09
8428.87
213.686
234.004
10485.7
1584.28
366.078
78731.4
50.5292
25474.6
949369
687913
1649.86
949369
108.466
145.176
110.121
79.3733
68648
709.475
956008
8369.42
290501
16711.8
10002.8
956008
440660
320.122
11527
151.096
3213.62
85.825
198.994
608.101
15006.3
320.905
79.1131
98.7036
133.744
3626.77
93524.5
13833.1
87.5436
185.784
313.565
242703
390930
871.538
311.443
26219.2
299.36
15626.7
948246
19007.2
88.7837
823840
687913
553669
54074.8
147.995
461.798
84.9677
773.323
9930.7
11867.4
2025.95
4804.98
1323.68
210.733
203.05
113.086
244.418
1.05573e+06
199.935
187.101
11108.3
220865
184.666
5429.66
2689.02
86.6822
11636.6
296.895
198.699
75.8341
3936.89
141.658
11105.5
16490.1
53.1966
698407
3762.62
2507.94
952600
854177
493758
8988.81
3271.96
166.251
6322.16
158.211
161.496
836604
9659.34
3070.76
257.495
2589.77
678.996
13280.1
764632
17767.8
362908
54.8767
4591.89
163576
1930
465.037
223.337
73.1682
2545.44
7191.88
232.233
11766.3
229.698
943254
62.5773
352961
185523
20134
117.059
125.588
53.549
3680.97
9831.97
388635
3883.21
146.84
197394
2714.49
333.763
2394.82
3811.11
18927.8
707.042
2430.65
497.927
805.765
13455.1
71.131
12327.6
77.899
103.514
148.57
406.055
2856.53
76.3688
7418.19
372.537
407.379
1454.07
134274
4472.1
495.479
85.1172
8384.92
6263.85
162296
2360.44
226.832
1665.69
39708.5
95.612
82.8864
71.5261
165.569
1.07241e+06
100.076
84.7091
1428.93
1.05573e+06
256.46
942871
69.2945
156043
183355
942871
1.0919e+06
8143.4
13409.6
52.4187
220.857
53.3833
942871
14795.8
2427.39
121372
5807.73
272.431
68.434
205582
123.735
4948.05
285.477
1.0919e+06
1853.71
8546.37
5227.17
6469.99
8110.32
709500
162.553
1328.51
693.042
316.116
513.222
172.459
377.994
675.685
8944.68
3575.19
322220
283248
64218.9
530.667
184.979
30712.8
341827
68.9839
235.72
574.242
43743.6
156.521
1602.76
206.536
179669
366284
3311
54.2085
66.6885
53.3347
82.5657
128.717
553669
2666.38
95.4858
426222
2189.47
373.717
191697
62.9057
265006
72.843
817802
77.4027
92.5933
21483.3
70.6348
6534.4
10721.5
1775.17
14283.3
1421.86
154072
106.736
4399.97
31714.3
114.255
205.309
357.77
93.9211
166276
718.642
22648.8
706577
2957.55
267.46
776.611
5942.86
63785
34504.8
1758.89
2539.97
143.406
2678.15
68.4671
119.95
88743.4
75.6626
73.6712
225556
66.7505
205632
82.7591
67.5477
966.211
1417.88
394.459
749139
698.391
314.187
150.759
865375
185.264
667.027
19010.3
529.988
7048.9
9229.26
107.044
7709.85
247.964
110.33
4249.77
891044
268.122
3364.59
54.7431
66.0427
50.6544
478.182
185754
1442.82
956768
1026.39
73.972
2255.1
372.269
6769.14
221641
88.6702
6858.1
611.34
2266.3
206564
173393
432679
28400
69.8765
216323
560875
12701.7
4046.71
124.868
1.15779e+06
298822
9590.35
1753.2
443.517
143063
204290
7360.74
77266.3
178.977
560146
702.687
1.09156e+06
76.7744
91.4339
852.462
95.6907
7819.63
90.3481
161.94
167.644
6202.3
322.323
976708
8007.03
1829.58
267.924
9398.57
562.676
846150
198290
4390.59
101548
63092.4
10055.7
221.212
153959
12678.4
859059
620906
975333
134.719
52005.9
189454
181528
165300
121175
12825.5
6699.32
222743
1358.91
1053.63
1930.84
411.046
270160
5622.27
640153
109166
56860.5
729.444
128883
582.577
124.486
180886
36499.9
204189
190145
1112.06
276013
299561
220.005
40589.9
528.632
836.182
236.704
176815
981.061
1209.74
495.597
205647
1917.15
146658
174.776
2752.3
48512.2
73.1009
44703
62.0576
513574
80.2327
204347
326848
99.4759
380.788
47.5731
420.619
145100
326.057
292.435
2880.56
85.9733
185802
186039
1703.96
3419.63
40058.6
175204
7723.54
178.51
100.966
54.9546
8021.71
420036
1575.48
2024.87
277004
3753.49
53857.9
1525.45
65.0448
176841
404.679
103.108
450.887
37601.2
8609.8
2036.85
347.797
13681.8
356831
8460.97
53.1019
2638.85
1.08803e+06
1.08803e+06
233910
62.5566
1.08803e+06
55.6514
6098.05
1841.83
116.545
846150
846150
74.4196
39407.4
89.5374
163414
53.3382
102.87
7915.09
96.0886
297.078
7668.28
172143
32379.5
94.2638
329.129
1168.25
2768.3
5131.49
99454.1
1436.27
15734.5
4977.42
319453
362.102
5817.84
232519
10755.4
9492.84
135853
131.755
649.085
197166
232.734
129.325
158.008
886636
37152.6
271.153
206024
1953.9
950.67
206091
276.38
58127.6
72.8742
412.087
486.409
11160.9
60.3913
646.454
132.82
53244.6
3233.8
153.893
510.873
529.217
134.6
1141.04
147.196
155377
89.7547
69.7426
319.765
10089.4
95.7212
335.943
8462.92
11730.9
12223.1
498.085
3859.71
3470.63
88.4625
3186.57
8923.01
3865.63
573.341
113.132
16110.1
3549.52
511717
883.194
12331.3
80530.7
243286
109.431
3024.01
1718.85
62.7098
41560.5
1321.58
11636.3
112.761
120375
2734.12
263.369
5030.56
445.959
1520.7
5892.88
301.899
882150
96.4072
7701.32
77.1727
153.935
3376.73
516515
64.1577
67486.6
13702.7
80.4176
47.7302
14583.7
1644.66
710763
184562
322220
612.526
312.292
4627.32
456506
13875.7
183.098
759.016
266.217
7030.11
115.832
435.595
19001.3
217.738
783.713
196539
4182.55
71.5948
2806.72
213620
5323.09
2784.28
2266
4724.97
93.9062
758383
579.976
9330.84
313188
992.359
504.069
181.417
477.988
200954
274.513
4173.43
202823
131.321
133434
131258
208352
253.83
519.471
17341.2
4797.02
264.233
1676.27
479.429
183431
16091.5
53.4778
764632
7151.89
12710.2
326.326
341.276
123743
235.156
3380.24
337.947
607.368
370829
45004.6
323.062
263530
187935
342.297
220341
7438.3
301.778
66.5843
10544.1
11477.7
76568.1
2043.65
158528
3120.06
481.673
225359
716.859
972.207
105838
515.345
769850
2053.02
370829
13051.6
768.262
145785
319.759
1539.46
88448.7
118.043
847933
215523
379.423
187.081
126.717
182591
631.169
49463.3
433.34
308.698
710763
948949
178564
198.058
69.7374
745.254
60341
160080
355.782
326848
206250
8652.19
546.953
237.153
27904.3
638.697
337.284
411.085
11751.6
5454.23
946.589
171.821
3082.38
4849.78
109.335
662.376
74547.7
2426.39
39704.5
15850.9
60179.7
83.6639
13120.8
74.8673
447.373
109.165
243.932
131.997
384.088
1382.64
10622.3
8617.43
352.035
10056.6
94812.3
113.941
84311.8
23845
4206.91
74.6267
285.664
83796.3
1097.84
124.08
11484.9
277993
353812
10264.6
312.422
106.774
108.436
11196.5
937.989
2701.45
1051.76
2460.36
224642
846761
174826
172.886
518407
143787
3955.08
17487.8
70.0546
634875
14538.2
2772.43
8334.01
4618.53
5705.3
72130.2
68.3894
615.799
151.315
465.327
1074.65
1890.06
3492.31
3795.4
91078.3
8339.23
154139
83.1442
70.0085
5159.28
99737.2
246852
844.395
269715
415.903
70672.4
105.7
181549
629.689
1579.65
5618.77
203589
339.628
188.702
17207
10575.5
462620
1540.89
8982.92
21660
234901
710763
791641
151.085
17586.4
705.903
150.115
2100.28
253253
11460.6
178190
90761.4
295380
525.845
107450
248.536
1786.43
3117.12
348.775
162980
212.589
328.661
2852.57
43850.2
185397
121154
108431
140.782
50636.8
1262.19
1835.54
52.3514
366030
366030
107.25
2786.36
1227.28
67.8665
2158.95
3364.96
460.789
110.369
83.8629
4258.89
4365.27
1165.68
199.276
12690
1285.3
3676.04
225779
174415
62838.6
32136.5
1068.13
11757.4
1337.55
324.792
77.1494
122121
20324.7
70.8412
710581
149842
4271.76
390.119
14043.1
3875.2
9233.17
189128
347.696
600.801
6066.53
1028.79
319.307
1.07501e+06
378.707
14533.8
79215.4
376.71
143.63
773.121
9342.44
204427
68.2448
1048.69
846150
3990.73
4330.64
2362.49
144.532
233374
18155.6
74.5923
107.99
368581
147.919
448.448
12214.6
241329
5905.29
167565
304.371
93.265
90.2336
188.419
1978.1
1434.68
6153.28
2039.3
133.815
1055.67
470.728
159033
14668.5
1936.91
6572.57
7384.92
955.187
847933
51.155
3269.66
9818.46
13947.2
2197.07
205.593
124855
45392
176266
82990
191724
17951.2
1508.8
3396.6
462832
332.36
743.329
462159
6728.91
296.298
95.5864
64.9084
64.6536
3219.65
54.3975
102.593
31076
231617
1632.21
710581
46.9702
42794.9
139.955
3620.01
51037.4
3559.86
390.732
4141.37
648.96
74.4386
3161.82
1542.64
748.36
372639
372639
351.688
162.325
99.8833
272.742
101746
905.655
13676.9
706.879
3726.04
7871.75
246.966
67.6461
1289.04
869.856
8741.28
226007
1543.07
3420.36
86.5707
815.047
239.409
294.983
10397.6
73.86
451.957
118.629
237086
3293.12
175.263
228277
176664
409.96
1339.78
41796.1
141.842
596.214
200.313
11806.5
972.555
757348
51.1975
372765
258149
296.295
101.936
92.0222
119.627
227111
157.921
84.8181
274.376
212842
1.10075e+06
122.106
134.275
209876
403.272
260.71
7998.75
284.553
29190.1
4394.93
2492.82
2582.15
9704.59
233738
1631.69
1095.1
453.965
449.281
143.111
492658
60604
191984
142.771
347.824
96.5759
520.943
99.1007
112.991
281.491
138.645
121.214
1429.67
199.913
78.5272
460.675
126458
76.1298
500.387
397.259
167.793
562793
554.335
313.523
3188.75
4311.67
252.817
1177.11
52.9955
3550.2
257226
219608
262.787
102.018
7419.09
2138.16
211824
282670
125.123
271818
857.999
130.953
42576.2
225224
317.212
195876
31860.8
3759.48
75687.3
111490
153105
191237
1495.11
1049.64
53.9615
1915.5
192608
164.149
5199.08
821.251
336.751
236548
602929
179556
365660
13703.1
365660
35239
180355
2916.77
327.918
360.056
414.915
90.6837
222.15
121.874
2592.47
81.9224
211267
32749.3
2724.51
72.8345
1.05901e+06
7320.98
825.568
3762.04
68.3941
75.3313
505.516
110.501
3094.59
85265.3
64679.6
46487.9
101.802
51.3171
176659
167.023
2982.25
19852.5
231.744
18133.9
749.56
347.012
55.7073
85.2381
8660.39
119.168
55.7267
238.502
256.786
20360.1
210807
278.477
1105.13
69.1888
1103.24
534.349
13981.9
3460.64
350903
375.82
645915
1086.8
770.132
77.8245
128.599
67.7064
260.331
52.4594
3852.19
467610
2442.78
427.833
1685.81
379.485
614465
2677.22
691.316
1809.51
681316
473.169
109.776
171684
20551.1
278944
5110.63
1184.71
13982.3
1074.67
5211.5
208968
12691.5
1579.66
282.446
263351
6730.24
424.576
183581
152.847
204171
342.049
384185
76654.4
186.081
218418
266119
318.071
232.874
55.1657
92.1095
749139
74.8205
31553.6
518877
247.213
508.252
103.055
249.365
619257
404771
241.531
852182
52.6531
226.02
3983.62
9387.45
43702.8
231.042
463027
9917.16
223.969
11724.9
82.927
11661.2
10987.9
237.947
146.097
1588.06
186490
6792.04
3997.91
3450.07
2733.43
1435.98
4638.85
273.547
234167
22741.2
117045
4073.77
190514
188278
2954.16
223297
660.626
948949
50876.5
5650.35
242.58
1.0664e+06
70.414
86726.9
18195
413.614
64662.8
227035
189.708
23377.9
40734.3
349786
358384
175955
1665.7
69.8406
4494.89
572.763
383663
383663
478.182
78001.5
77.4248
248635
72.7798
55.3899
30706.4
3430.28
358384
4046.1
18247.8
10032.5
550.438
8510.46
72.4274
101.484
5999.11
4061.29
277.158
40942.2
539.244
52812.2
117.486
486.858
79.0188
5292.25
7931.88
138128
165.385
5129.18
14175.3
1915.27
120.282
77.6597
586044
58087.4
446.845
230291
14268.8
77.3246
21456.6
47932
521.287
9537.09
88.8125
6614.23
62.2742
62.0397
2731.78
163.768
75.744
467.736
507.114
120.045
3882.56
74.5445
67.8479
183245
281492
80.0694
1183.82
9219.18
62.0396
285.596
384.098
3930.57
991.239
964.038
387.77
10413.8
2906.82
615.399
342315
177857
112898
4250.88
214043
409.065
115.116
1106.45
838.948
493.105
4831.15
56877.6
141.505
97.1428
124.439
1186.88
19957.5
6264.78
298.434
9652.15
597.02
196548
185.498
305.181
178749
696.126
1958.3
52.1735
1670.33
89301.9
60.2612
446.322
990.712
403.09
117411
259817
4804.18
590809
484.12
113564
4693.98
1967.35
61.0829
13419.9
114625
188730
5018.85
475.86
459.797
133807
225.735
108280
218097
291.71
62.0864
710.5
567.401
128604
14520
236838
2370.68
143.64
4860.7
69245.8
156989
1106.95
26567.5
13382.8
196.784
252.716
850.708
427.947
212080
461.723
100.774
16390.4
17402.6
2481.31
518.623
81.5382
375.285
207323
92.3265
26412.1
440660
10907.9
12229.7
46680.3
118704
1620.76
75149.4
1891.15
976360
103038
258118
55.68
2059.09
55.9663
6025.63
167.601
247.077
66.5118
355.998
8118.65
214942
7689.74
117.588
201.344
53.8268
774456
5945.11
602831
56476.7
3229.62
580399
282.463
1848.04
337123
11152.1
105.596
4367.63
889.596
313.953
77.4835
111.226
440.402
2285.73
83.9772
227629
196.061
2487.21
1152.28
139167
27845.5
367867
85943.8
14695.6
3052.63
302.958
29853.3
237216
3466.74
108.541
64352.6
205766
989.611
3744.35
81.305
906.324
346.068
698.687
891.404
56.2799
470.73
721.873
3504.68
1459.81
1522.32
5695.82
70.767
315.909
668675
5600.38
251.373
196.804
20111.6
6432.11
233199
216293
94.2069
68.9965
724.165
243.03
4828.6
1377.18
178657
429.648
1.06045e+06
8835.19
72.1182
499.108
1602.27
9097
14050.5
53.6759
67525.8
3440.32
7826.39
282.71
983612
678.753
6791.29
273237
95979.4
55.6816
3863.02
850.861
1644.26
283.348
191.718
73.0859
367.633
592.21
49900
77.8614
85.9123
128.622
1944.05
233743
16323.7
66.682
61.7315
235748
931.128
3869.34
99.2217
52.9246
6455.65
5765.52
82.5645
187.652
57.7168
524.682
25210.6
4434.68
511.295
12306
857713
320.908
123963
54.8895
956768
167621
7964.55
8739.9
59.8867
64.4337
8233.97
488405
7900.95
1164.09
75753.9
207248
374468
847933
4133.89
280.326
684.823
4424.65
56002.8
97.3803
239.657
54.2428
73.74
686.453
216.929
11940
2685.56
159.887
321.902
7219.56
184541
21612
395547
23283
110415
83550.2
3299.7
165.095
40176
901.704
50.8654
4142.1
50.7389
158696
257891
6707.74
146.805
241628
3730.14
56.6742
4470.76
524.661
191985
410091
214.367
156803
870.381
9329.64
2431.34
104.444
3157.27
14812.7
19270.8
76.6778
1294.04
71428.2
68.0601
82.6762
4252.63
2118.66
777.531
94199
7822.41
65769.3
2009.73
395547
225.814
63004.1
456462
368847
441.071
628.078
4646.81
486.302
192522
156542
89.535
784.819
5015.73
1542.23
2722.28
81.1993
10614.1
18627.9
3234.81
120.707
1047.79
275.33
2378.76
468.931
64997.6
1262.81
251670
337.114
330.416
6331.13
133.398
120.7
77.8462
154688
967588
3216.69
235430
11870
615.798
579.935
298.302
1057.15
59.6386
100.266
225662
56.7181
60.7981
95.3724
67.1426
151670
3464.37
2232.23
7354.68
725.498
449.796
24009.9
17265.6
288.94
1669.35
337123
488.542
1982.06
55.257
60.7819
757348
62.9791
82.4165
27083.6
139.539
221467
623653
6405.9
64933.5
306829
502.141
218628
106.909
61.7721
105.534
788.581
161.98
1259.83
71.4676
52.5406
2200.19
209.272
842.363
11195
3894.53
73.9157
2546.02
753.541
250874
192.751
138066
141461
10656.7
1272.45
100002
82.6201
2053.78
2041.61
139.072
456462
367867
1329.71
176308
356170
206022
51459.6
55.3744
602212
44335.9
5651.76
148.843
562.645
3275.77
572.689
285.989
81.9296
1120.69
307194
490118
684347
7960.93
11292.9
144469
84.319
66.5181
509.491
40138.5
1083.43
15708.4
202.936
68.8018
76076.2
122.507
49732.4
560.767
2136.51
522.449
15760.2
87.431
9147.45
12700.3
640.585
41942.8
581.272
4564.75
57.2039
170.066
1884.42
599.1
1520.24
1370.83
605.52
937.701
118.961
113.202
8997.32
12495.5
718.539
72.8107
89.9824
2746.54
128776
18491.2
699.82
10967.3
24413.5
3716.46
103.613
3047.21
653.589
73.5885
72.3265
87609
3187.29
556.376
510.014
596.13
65.1018
3026.6
1729.56
353.913
51961.9
9085.48
531706
7605.62
93.8715
1352.13
30822.2
74.1052
91.7639
385432
1213.96
270.575
73.9367
1.0664e+06
100.28
265.397
4742.16
249.716
473.707
461.355
414.593
90.1721
165864
390.88
11700.4
470.959
75.4323
69.8544
64.0914
2768.12
1133.15
75.6633
17576.5
75655.6
2452.63
79.8903
271731
233.268
420036
590809
15737.9
1725.35
89.5353
64.9571
307194
186180
6702.44
72.3236
2479.07
71.3878
90.2066
281.529
2906.87
68.2056
2212.49
72.7195
956008
77844.2
137.276
494.43
386.617
201106
679.737
64.3941
78170.4
284.55
506.562
307042
8376.62
2122.9
332.783
374.155
61.7085
62.6497
461.75
96.7087
112.403
244.513
175668
65.1783
2045.82
460.32
207563
2972.64
234617
270.93
25045.6
55.5179
9415.27
742.42
95.7687
677.279
350.581
336.58
76.6318
56.7833
36263.8
3356.48
821265
118.188
22177.4
81.2286
1450.21
185756
1207.26
57.2396
54.3305
65.5165
25129.9
56.0711
533.129
4264.17
1376.81
192340
74.5057
248061
369539
50226.4
186028
414.682
17338.7
43575.3
1712.67
3484.4
263377
245.021
256.262
857713
110.188
1545.22
414.459
85.1305
71082.6
636739
6799.02
77083.8
2426.72
446.794
40602.3
539.85
838.492
799.401
3299.16
76.9748
180342
335.519
494.989
278.751
872.392
438.599
1820
98185.1
68.111
508.791
68.2834
59.3608
95.4556
2000.02
2191.13
5447.28
13368.1
216.671
29273.6
209956
79.5738
64.9489
34860.6
114.227
14439.6
7222.12
540.145
42819.9
195.572
208.78
66.1273
218270
170771
687913
14124.5
166.104
3316.16
795.795
300.813
156.018
74.7468
2462.35
560875
5743.69
463.488
409235
69.3118
445.901
4967.01
498781
78.5248
662.735
1098.97
1367.35
84.0011
73.6991
17861.3
3589.9
311871
90.1947
2432.31
43824
33672.4
459.572
172.965
5806.83
199.8
6135.02
32684.8
16924.4
261071
2651.16
334.471
1291.05
72737.9
206085
103898
307047
69.1765
25592
245470
369.291
150855
714.488
819498
911.172
3024.41
185397
71.4687
266036
278305
7388.12
110.023
94.7293
7956.58
71523.8
3744.31
10864.1
1.05223e+06
97.7387
1374.14
6464.71
564914
710.93
72.6488
64.3859
590.871
97378.3
102.806
57.5831
2385.33
1172.98
193424
77.8155
78.7867
2215.43
3692.68
251419
2781.51
4847.21
55.9406
288.913
246168
253024
11812
732.207
59.2292
2076.35
93.7667
539.855
233009
2678.05
111.567
169530
367.474
88.2684
684347
56490
61523.9
730.361
201.339
127171
346.614
414741
414741
1830.38
57.3865
305.969
4284.84
141332
222759
147528
306.565
42220.3
167437
339.342
62.751
732.73
1332.81
583074
337.818
77388.4
1506.44
4902.61
11127.2
1775.17
315.395
3901.87
1375.02
28708.6
223.317
107149
178.915
390930
91.575
623.327
224.496
149067
451.168
160321
116.333
2591.89
31441.6
320.001
306.2
64.1877
28010.8
3265.3
2999.15
3204.33
2683.36
131.323
24957.9
2112.3
99.3654
117.36
2564.97
98.2058
3317.13
152.382
8520.86
67294.2
236.686
2115.49
1.05223e+06
92.2174
1828.2
387414
18124.4
86369.7
305.205
740.581
15480.2
831.827
496.434
91.2652
172837
442.665
48922.6
73.9038
990.003
65.2331
188.922
84506.7
414.844
53.1538
1046.28
170335
61.5271
58.5188
54044
134.876
252.745
82.7356
3162.88
229820
7634.02
406643
406643
762.11
275627
7324.3
361.668
168222
2421.85
1327.63
65.2154
1277.18
75.9218
80.2678
117.796
250.06
1782.27
709500
8687.41
251.662
344.8
81.6813
362.724
407323
200098
22068.8
5972.85
27417.9
409235
277.139
75.2629
212330
243.045
4695.55
5314.27
1458.22
54.7161
315068
18847.7
200247
61708.8
606.086
55.8678
14795.1
22434.6
166173
5641.72
1811.6
731.491
226.46
67.5134
322.878
5715.39
553.242
1003.87
11059.3
851962
69.4051
87.8364
180.456
398.497
9095.27
746.788
226.669
559.038
526.316
839197
986.704
5135.81
7489.25
456462
18724.9
189.953
223209
424.11
226483
1842.65
12758.6
1927.52
983612
19253.7
5078.71
856.85
14881.9
246555
92873.8
57.0958
327.895
1217.08
3514.28
156800
2283.26
72753.4
7752.23
1133.92
3749.77
195.035
1493.36
171120
482.691
23854.3
224.238
92.0183
98.7469
156.207
377.379
494.632
100.097
305.77
309.792
4168.99
11850
73.8498
2595.97
227352
602929
1719.75
23732
151.255
2981.08
1588.28
8040.55
216.983
3630.62
129.156
57648.6
221.943
129.241
445.956
829.509
4506.52
882150
414741
414741
414741
3313.23
74.1218
18489.7
242165
157130
5465.72
23321.6
216.593
9154.4
378.573
34238.8
104703
21927.5
34258.4
5750.4
161.128
478.902
74339.4
10881.1
275.161
374.659
36722.6
580.42
230.153
5170.61
347.81
10509.2
82563.9
2015.85
23677.8
764632
77.5165
9875.97
220.369
157.189
29078.5
81.0615
413.197
697.858
21199.2
1142.67
8719.56
17702.7
76.5858
1152.16
4462.68
1372.74
81.4547
636.578
4002.36
564.396
14233.6
129.767
1382.68
23966.4
713.888
91.0953
15767
1918.19
20280.5
391.096
584.428
1910.55
531706
313.564
57925.9
5311.98
177348
2769.93
336.797
142.87
84.8628
463.5
145608
342.25
749139
43593.6
72.9902
11713.9
5435.7
24748.5
134.212
4688.91
1021.53
13225.8
345.528
67.3078
17460.8
1039.21
55996.7
327.235
19318.9
1450.42
55.619
94774
278.851
306986
394.849
26722.3
8997.25
6565.96
42402.2
74.9621
190489
1685.68
5648.16
300.966
470.567
220803
506.386
345.007
26619.7
67.3046
2913.59
27181.9
16398.6
347.522
13150.7
180.764
4310.33
88.927
11498.1
10531.2
377.088
3325
224.225
1175.62
846150
5540.1
85.5042
241.482
56.1174
1496.61
4315.14
6419.71
93.6678
885.847
349786
72695.8
89807.1
99.5145
372.382
366.476
195.265
1869.24
56.5155
378.558
527946
54.9767
2157.31
757.006
84.3743
2547.43
300.658
292.744
63896.2
48800.2
195421
186397
68.0893
93763.8
59.5043
229.884
371146
225.364
564914
350903
86.9392
2843.63
78.1254
846761
168.405
278.324
40523.4
1141.81
189764
76.821
205905
550.45
2895.85
272.688
10689.6
20394.2
208.096
176360
616302
130.526
1451.27
13841.7
518.5
55345.2
170504
99.4944
1337.3
88.3932
231427
76.1361
1270.18
268.59
245952
463.722
1250.38
24084.3
74.5567
91.0459
67308.2
105565
1120.87
2513.26
94.8092
96344.3
69.2207
595.368
102217
131.279
135963
6903
762.011
248.096
67.8307
7187.73
595.647
159552
63.7226
182340
93335.9
47.0897
253554
662.678
1093.83
52.3537
272.89
1981.07
3113.47
52.368
96.9588
272.279
71.1066
197289
130117
130786
222449
761.711
18751.1
53.4869
26432.6
37683.5
488.193
2352.28
57.9888
164.805
831310
731.833
792.205
233489
733.678
794.778
861.217
484.97
1105.54
876893
252.387
266
1312.94
550.398
678.089
961745
58.5886
114.898
115.283
1239.83
47513.2
40293.2
221583
14797
623653
11499.5
74409
1355.1
12706.3
66.7416
22456.9
120.879
211945
1576.86
21279.1
1928.71
53.8358
642.118
549.098
55825.3
187688
4053.87
17916.7
4686.3
2350.71
78.5265
1333.88
70090.5
830.243
80.7054
278.324
4195.8
607934
11104.5
296.077
1806.46
73.666
464.238
175013
99.9323
189253
18582
22922.1
223194
123.909
423.137
79386.4
66.6086
80.3268
89.2239
968.739
7241.1
31175.3
14729.2
127.452
74497.5
62952.4
175.968
48.5374
102.41
78.3888
241870
2603.37
76.7502
423097
423097
9430.64
5278.52
51975.2
12135.2
558.013
104141
493.216
2436.98
47403.5
21036.9
70.0962
85.633
55399.3
399112
4002.04
628468
99757.4
303249
63.0218
56.5481
62613.3
35164.4
7096.15
221.73
390.342
161.332
1059.07
90159.3
792.238
76.7621
152.395
330.568
55760.1
15331.3
60.7209
273.427
1510.73
298.824
11583.3
19790.5
263710
1270.51
280.516
1980.02
70.4928
64.3129
62.6184
148.301
4057.27
91449.7
56344.7
56.3318
33355.2
198.836
1200.83
391534
2448.43
517.588
319.532
6610.63
902.625
191752
15258.4
87.6956
15608.6
878059
49834.5
45145.6
751.704
99.402
50.7473
2733.75
383.022
177382
2078.92
74.7575
56.6614
112387
97055.8
619.428
183.855
410.67
71.4044
65573.8
215.563
789.547
204.428
82.7279
101.22
68834.1
95.6891
1528.32
765.064
1977.42
140.777
251330
208918
180.99
218306
34607.3
805.414
264.823
111.828
104.771
10147.3
598.594
109.083
404094
404094
404094
54.9428
4983.01
109.417
12319.3
463027
16587.6
458.824
3056.31
7624.12
111.914
669.872
17126.7
1096.4
221272
16295.7
49.2374
4015.98
69.8167
418.176
122.471
3984.56
218562
83.4876
51.8558
16978
125.633
884.709
2729.63
769.293
147.607
60.6905
5426.95
9108.39
56139.6
1814.1
2478.19
101.437
5063.68
162.319
1516.52
345.818
326.501
752.376
88.0173
129.69
102.597
15500.3
607.439
107.488
93.5086
103.291
483.489
115.453
68.1706
117976
22023.7
2823.91
1431.87
203909
5003.85
155098
483.72
16039.2
77.7215
5302.49
90.0967
908.739
222792
32546.8
194473
8853.87
647433
593.563
322220
128.434
4795
1623.97
88.34
20424.9
1497.98
173.928
55.6331
1.00813e+06
158443
119032
88504.4
308.622
94.0366
95725.7
87.0555
171.435
142.558
218943
15151.7
11413.4
10391.4
153.367
137.442
147.075
567.741
470.895
372.389
55.7424
138.684
530.772
163.779
705.575
447732
228.927
2100.8
227.358
37206.4
2542.04
5618.76
541491
541491
142.885
3203.71
1527.08
534.873
148.131
1804.61
4905.29
103.811
59314.2
596.077
143.188
96.6334
133.902
180834
7092.65
62.1512
692.451
175.413
2454.29
451.984
159909
2163.22
26201.7
61142.2
10548
50226.8
197720
11944.4
60.3727
12378.3
308.069
619.786
73.0577
256803
52036.9
324.091
56.5931
78.0958
99.179
161580
821.132
212611
4676.44
15360.9
13524.6
953.737
131579
2672.85
855194
76.5727
8703.58
1041.89
139500
115.485
169.838
1674.61
150650
2064.65
97.8646
775.237
84.0927
3217.05
88.6145
386665
378.914
264.748
167002
12135.8
151773
94.1294
3207.61
7096.63
188565
76.5086
927.825
44858.1
39993.2
48665.9
719.897
159.543
168.768
375.179
7735.99
57.7015
52.6967
388635
1036.92
138.832
3197.8
7163.56
77.9494
13560.3
15029
3321.98
67.6215
57.0457
168.247
61881.1
1198.56
17086.1
205.421
60.5671
29415.1
71.5972
86547.8
775.277
218588
95.9291
3116.56
43186.3
425.758
831.916
58.318
89.1667
64.1849
226030
4322.12
1984.93
67868.4
578.095
11102.7
57.5464
118.986
343202
62.4466
85.0631
138.616
13293.1
7941.52
59.3067
406251
82.3265
5856.98
10947.1
10058.5
6358.62
493.619
25408.1
1397.09
74.3896
707.052
367.081
1281.79
2070.71
79.4522
639.996
56.123
100831
9763.64
97.9748
21750.3
2043.38
6884.66
107378
10128.7
1200.56
82.3931
63.2387
81.9833
2568.56
119.011
865.398
117.194
384.764
2975.58
3522.92
2522.6
1369.56
5091.73