/*--------------------------------*- C++ -*----------------------------------*\
| =========                 |                                                 |
| \\      /  F ield         | OpenFOAM: The Open Source CFD Toolbox           |
|  \\    /   O peration     | Version:  v2012                                 |
|   \\  /    A nd           | Website:  www.openfoam.com                      |
|    \\/     M anipulation  |                                                 |
\*---------------------------------------------------------------------------*/
FoamFile
{
    version     2.0;
    format      ascii;
    class       volScalarField;
    location    "2000";
    object      p;
}
// * * * * * * * * * * * * * * * * * * * * * * * * * * * * * * * * * * * * * //

dimensions      [0 2 -2 0 0 0 0];


internalField   nonuniform List<scalar> 
21265
(
17.6758
18.2232
19.5604
17.9952
17.8549
19.3503
17.5256
18.7115
18.063
18.799
17.4644
19.3431
19.2947
18.5672
18.2482
16.1488
18.2705
17.3388
18.3144
16.9423
19.0211
17.3508
17.9335
15.7419
18.6534
17.837
18.9473
17.7742
17.5771
17.4328
18.1255
18.8975
18.3279
17.0607
20.1595
18.736
19.2357
17.922
18.5545
16.7409
18.151
19.2283
18.3198
18.5761
18.5784
18.8134
19.1023
17.35
18.0494
17.6821
19.5079
17.1203
19.1049
18.666
18.5537
18.4461
16.9098
19.3744
15.2821
16.7404
18.4197
17.9742
18.8735
17.321
17.6778
18.997
15.8432
17.3361
19.0107
18.9191
17.2845
16.8336
17.3907
17.3764
19.0074
17.4615
16.8892
17.7993
17.4886
20.7618
17.2738
17.7159
19.3713
17.3741
19.1677
19.0328
15.5549
18.2885
18.7272
18.5903
17.1611
18.402
17.6782
17.5278
17.4446
18.1406
18.9744
17.3045
17.7569
19.485
19.0372
17.839
18.4746
18.472
18.1534
17.3523
17.5387
17.7896
16.9951
18.0735
19.0384
19.8313
13.288
16.866
18.8113
13.9714
19.5784
16.0972
14.0965
18.4908
17.4765
16.8479
17.4034
18.9293
19.0098
17.0733
18.5023
18.9995
17.5155
17.7918
18.3066
18.9378
18.2882
18.6672
18.8243
19.0447
14.5375
18.4541
19.5491
18.2145
15.671
18.8288
18.3041
17.002
19.0859
19.1385
17.392
17.3591
15.4684
18.2006
17.3134
17.6554
17.3897
18.0376
19.0488
16.8108
18.5255
17.35
17.9398
18.1696
20.4471
19.4365
16.2194
16.0721
17.3439
18.1053
18.6051
18.0802
17.1234
18.8328
17.2837
18.4239
17.6875
18.9924
12.982
20.0128
16.8959
18.0181
18.1057
12.6289
18.7965
19.1455
17.4675
18.9735
17.3436
17.2768
18.6206
17.0115
17.0864
16.9008
18.1968
17.1899
17.4041
16.9545
18.3175
15.9187
17.3291
18.4116
17.3153
17.8123
18.1205
18.9682
17.3456
18.345
17.2034
16.5079
18.7788
17.185
19.1472
17.2582
17.569
17.7986
17.791
17.3156
17.9507
17.3823
18.9491
19.5223
18.3601
14.6608
19.1261
18.7628
18.9479
19.0943
18.5753
18.588
17.3296
16.9882
17.0773
14.4163
13.8027
18.6369
17.9716
20.3118
17.9066
18.7721
19.1416
17.4987
18.1184
18.9519
17.2141
18.0973
16.9639
18.4302
17.8304
16.7838
14.4607
17.3715
17.818
17.5357
17.2826
19.3796
17.2929
16.9631
19.153
17.4013
19.1972
17.6945
17.4626
18.1081
18.4735
18.4952
16.9091
17.2924
18.0192
17.355
18.9976
17.3611
13.0067
17.3547
17.5179
15.1972
19.1096
17.926
16.1633
16.9375
17.0412
17.0535
14.8595
16.9337
17.3101
17.9589
18.3785
16.8709
16.7417
16.9412
18.5259
17.5914
19.0809
19.0117
18.7377
18.5279
17.3376
16.6091
18.5001
18.7965
18.9948
17.9477
18.7422
18.0522
15.1615
17.1783
19.0546
19.4081
18.9069
18.8559
17.912
18.1853
19.1004
18.8408
18.2168
18.9303
14.0489
18.1923
18.2028
19.2353
17.217
17.8968
18.3728
19.0232
17.2226
18.2769
17.2636
18.4427
19.134
13.3827
17.1478
19.6646
19.1102
19.092
16.9782
19.1877
19.1309
17.0686
19.0103
21.1106
18.2136
18.1555
14.918
17.9247
16.7623
15.3766
17.673
18.3494
19.4021
16.9494
17.2027
18.9511
19.098
16.5641
17.0444
16.7663
15.3914
17.5914
14.5373
17.8406
18.0572
14.0892
17.2276
19.1595
19.3118
18.0597
18.5605
19.1491
19.0133
19.0368
17.2885
18.0394
18.8047
18.7969
18.1702
19.0035
17.3563
18.6542
17.8588
18.9806
19.131
17.2993
19.2847
17.8218
19.0948
19.5804
17.5916
19.2082
18.6815
16.6509
16.5914
17.4296
18.7145
14.4754
17.3237
13.9696
18.7829
18.0058
18.7131
17.5779
17.2634
17.26
19.1075
17.5591
18.1356
19.007
14.5449
16.1347
17.3679
18.9206
16.9964
19.1681
19.0792
17.3598
17.2023
18.8944
19.3
17.3422
17.5818
19.5035
19.2838
19.126
19.0368
18.4728
18.9181
19.8482
17.3709
18.2188
18.2805
20.1152
18.1151
14.5801
18.0906
18.7155
18.4528
17.451
19.0694
17.317
20.0098
18.2895
11.8703
18.8818
14.363
14.9649
19.118
17.1937
17.554
18.7302
13.2546
17.2357
17.4169
19.0906
14.5368
17.8942
17.3796
18.7269
17.3101
14.8338
16.9849
19.2577
19.2372
17.2326
20.2121
15.7659
18.589
17.1649
16.9545
17.8378
16.2589
18.1721
16.8752
19.6879
15.2986
18.6125
18.7872
18.8485
16.8645
18.2515
17.3612
16.9527
19.5007
18.6802
17.0303
19.1609
18.894
18.1639
16.7531
16.7896
17.4434
19.3756
18.51
18.2055
18.5311
17.3518
18.7391
15.3735
18.2796
19.0932
17.3286
17.4468
19.1283
18.7343
18.3329
16.1146
17.5851
18.4388
17.5133
19.5955
18.4979
17.5832
18.9904
12.9877
19.1154
18.8436
19.3719
15.5869
19.0548
19.8476
17.1419
18.0466
17.7073
17.1785
18.4108
17.2902
16.9729
17.3721
19.0997
16.5866
17.6862
17.3768
17.577
19.318
13.3688
13.336
19.0355
17.366
19.3929
18.2246
19.1626
17.9756
17.5652
17.632
18.0408
18.796
18.2399
19.1233
19.1312
16.7724
18.8159
19.3581
18.2977
17.1248
19.3276
16.7485
19.0853
17.7841
18.0576
17.2356
15.4779
16.8476
19.4354
18.8334
18.2473
16.5293
17.22
18.4894
19.6453
18.8827
18.3587
16.6445
18.5217
18.4241
18.8951
18.352
18.5363
19.0848
15.2409
19.023
16.6428
19.645
14.2926
17.8407
14.2132
14.6398
18.0099
18.6627
16.9158
18.6146
19.0953
19.1123
18.477
18.7454
19.3407
18.6654
18.5497
18.2106
18.3408
16.7868
18.6436
17.8382
19.0473
19.1861
17.0499
19.2668
18.0602
19.5968
19.3169
16.8161
16.6291
17.2536
13.8202
17.0406
17.1194
16.7464
17.4638
17.665
19.0753
17.2686
17.3376
16.8689
17.497
16.3912
17.2334
19.002
18.7179
18.9072
18.3808
19.0719
18.0226
17.6095
16.9087
17.9874
18.6891
17.9004
17.161
19.0666
16.4461
18.6954
17.1517
17.6697
19.4417
18.1678
18.2184
14.2476
20.5609
18.1709
18.3469
19.309
17.3303
18.0385
18.2873
17.3586
17.2582
18.5948
17.9026
17.9469
17.9783
16.6605
18.5866
18.943
18.9208
17.0559
18.6573
17.6924
18.5362
17.428
17.5265
17.3691
14.4614
17.0405
17.1112
18.2287
15.9707
17.8634
16.2854
14.599
16.1363
18.8381
17.1012
19.3314
18.1572
17.4207
16.5947
17.0738
18.8543
17.9603
18.1873
19.1857
17.8034
15.0947
18.9819
18.6782
17.1856
18.1776
18.3409
17.4934
18.3509
18.8321
18.7054
17.221
16.8268
18.4126
17.5091
13.3713
18.3118
17.2009
18.0068
18.9406
17.2709
17.8325
18.6979
16.4095
18.1669
18.6131
19.9263
17.7256
17.7428
16.6094
16.5234
18.1643
20.1992
18.0882
16.3919
17.2113
18.7181
17.1557
19.0907
17.9665
15.8714
15.5548
17.1217
17.7366
17.3112
18.0222
16.7316
17.3767
16.6701
19.0416
16.2385
19.0026
14.4239
19.0549
19.2889
13.2095
17.291
17.4368
20.6022
19.0529
18.5376
15.6897
17.0655
18.7835
18.7405
18.137
18.2757
17.8848
18.4144
19.221
12.9277
19.1748
14.3448
12.9057
16.6342
19.0884
17.2766
19.0934
19.0916
17.5967
19.0197
17.5906
17.084
19.3779
15.2882
18.096
18.5636
16.9961
17.0682
13.2978
14.326
18.9536
17.871
13.2087
16.9005
16.746
18.1958
19.0057
19.084
18.9638
19.1035
17.407
16.8048
15.4588
18.4326
19.1647
17.3472
18.9877
17.3859
18.9126
15.5538
19.0258
18.0977
18.7184
16.7015
12.2446
18.9577
17.6951
17.585
19.0797
17.2547
19.1082
16.5922
19.4538
16.2725
19.0411
18.4328
14.3417
17.0014
18.9075
18.042
14.139
19.1389
19.0101
18.185
16.5989
19.0584
19.041
16.8163
16.5497
19.1811
17.5334
18.0782
14.1556
18.936
17.6759
18.0939
17.2771
13.8348
18.5268
18.6486
17.3416
15.658
18.3257
20.2583
18.203
18.0452
18.4783
18.1547
17.3318
19.4309
15.1088
13.572
15.8927
18.3882
18.8631
18.5634
17.5819
18.4045
19.5251
15.5353
18.7195
15.6777
18.1642
17.1393
18.3521
18.5581
18.954
18.8372
17.5038
16.5939
17.3852
17.6112
17.6137
17.2482
19.0389
19.0275
17.4588
19.2327
18.8571
18.0701
17.1257
19.4499
17.381
17.315
13.5056
19.0725
18.4741
17.3512
16.003
13.3836
19.006
18.8393
16.3245
17.1802
18.3411
18.2123
18.931
18.373
14.4882
15.0316
15.7526
18.7434
18.9167
17.1115
17.1554
16.2909
17.1882
17.4652
17.6626
17.655
14.6629
16.6321
20.3788
17.0907
18.0846
19.2847
18.3181
20.1682
18.2245
16.8977
18.7816
18.2475
17.2967
19.3808
15.7428
19.005
18.3079
16.5219
15.1536
18.5155
14.5345
18.4166
13.8914
18.2412
15.7039
17.8883
18.1611
17.8123
17.1621
17.2746
17.0806
16.9658
18.7242
17.4005
18.8996
17.0638
12.9338
18.0247
16.5443
19.2689
17.6726
18.9152
18.7664
14.7334
19.2709
17.4881
18.4871
17.7752
17.651
17.4668
19.6435
13.9883
18.2119
17.9972
17.6086
18.3869
18.208
16.4859
19.0261
19.7396
17.1796
20.4572
15.5032
18.0355
17.2908
19.428
18.4092
15.0978
14.0034
15.2804
17.4463
17.3417
18.368
18.5965
18.026
18.0972
19.2423
17.5915
18.819
18.513
19.0059
17.2356
18.7188
19.2072
17.9678
19.0853
18.1746
19.0985
20.4094
17.3664
17.5798
18.1028
18.9755
18.3071
17.8945
18.5065
16.8334
17.7943
17.572
17.1599
18.5133
18.3504
17.9019
16.0687
17.1683
18.4089
18.1996
15.5447
13.7783
17.4305
14.051
19.1147
20.1838
19.4805
15.5163
18.0328
18.5752
17.6437
17.331
19.0278
18.327
17.1351
18.3197
17.8335
17.1771
18.4048
18.145
18.279
17.2354
14.6111
19.0669
18.4435
17.2256
16.4431
16.3373
18.5237
19.209
16.912
16.7927
17.8251
18.5859
16.907
18.5968
17.3778
17.8298
12.8877
19.1378
18.2598
18.1443
18.1894
17.0103
18.0108
18.7196
13.6737
17.5696
18.5846
15.839
17.3005
17.9887
16.9767
17.1202
17.914
17.2525
18.7984
19.9645
17.3278
18.4137
18.9595
18.5791
17.2965
19.4561
18.9617
17.9864
17.0654
17.2825
17.6195
14.9483
18.3694
17.2392
14.7188
17.2558
17.2942
17.6537
14.9434
17.3165
17.8122
18.3909
18.4062
13.5706
15.868
18.2317
15.689
14.5917
17.9753
19.1535
16.9151
16.9817
17.9018
18.7051
16.9248
18.8447
18.9023
17.5142
14.4271
13.9211
16.987
17.8077
19.0375
18.7829
17.2205
18.0525
18.8376
18.6227
15.6328
16.5141
17.1527
17.3717
18.583
18.9591
17.1353
18.4573
18.6014
18.2749
16.841
18.6275
15.5113
19.0005
18.1596
17.6347
16.5649
15.047
18.1388
15.2215
12.267
18.8742
14.1983
18.1819
18.6632
14.5955
18.6227
16.778
17.7545
15.288
13.6215
17.7583
11.724
14.4066
17.3922
16.9576
19.1776
20.2001
18.9374
18.0297
18.0186
18.0473
19.1036
17.0974
19.0702
17.4873
15.974
18.8564
18.5432
19.638
16.7452
19.1024
17.1702
15.3805
11.3143
17.1081
17.9479
20.3177
15.8837
18.2819
19.097
19.3539
17.1006
17.4054
17.4114
17.7352
15.4583
17.3347
14.6097
16.8473
18.5257
18.1046
15.4417
19.28
16.2915
16.9046
18.2798
18.9813
17.6009
18.4714
14.8843
16.5844
15.3025
17.2722
19.0732
15.2669
18.8721
18.8247
15.3565
17.8857
17.0643
17.8988
18.7669
17.7293
17.1415
17.672
20.3707
18.6904
15.354
19.1109
17.5001
17.6237
16.5185
19.0352
16.7713
15.9897
17.2642
18.3777
18.6487
13.8274
16.4615
17.3911
14.5353
19.2052
17.0481
18.5707
20.2043
18.4078
16.8425
18.079
19.2037
17.4883
18.4514
18.1974
17.6003
19.1348
16.4493
17.4493
15.3487
18.3943
18.922
19.1858
15.5727
19.0669
18.9287
18.4712
14.2333
18.8528
17.1346
17.2336
18.1893
18.7325
19.3204
18.0014
19.2158
18.314
16.9923
17.2205
18.5394
17.9445
17.3656
17.1886
16.8327
19.3214
13.8539
12.8687
19.0752
16.6277
15.506
16.6856
16.2132
16.938
18.9197
19.1223
19.0003
18.8686
17.0311
18.8729
16.9952
16.92
13.0778
17.5616
18.9935
17.507
17.3166
16.9544
19.0594
18.9132
18.5597
16.8706
16.8163
18.727
17.7873
19.0043
18.7759
18.9627
17.2168
19.1138
16.4878
17.3241
17.2643
15.4043
18.0334
17.2345
15.8113
18.782
19.2447
16.6483
19.3634
19.0477
19.2373
17.9608
19.0516
18.8555
17.0717
18.9768
16.9914
18.0481
18.7415
18.9473
17.9343
15.4398
19.3674
17.6806
17.6751
18.8926
16.8145
18.9453
17.9181
18.4381
17.686
17.8369
18.1156
17.9845
16.2936
19.2011
18.9211
17.3164
18.171
17.2944
18.1518
18.3795
17.3933
15.763
19.5398
18.4397
18.3558
21.0259
19.8999
18.4017
18.3771
17.8534
18.8305
17.9612
17.2143
18.8055
17.3828
18.7245
19.2457
18.1857
19.3168
17.3091
18.2756
17.5072
19.1877
19.0278
17.6991
16.9061
17.3212
17.1104
19.2722
17.4465
18.9853
18.1717
18.4996
14.0115
17.4204
17.2989
17.8371
18.6888
17.773
17.7325
17.2707
17.1126
17.3163
19.419
18.9769
16.2208
18.3682
17.7435
13.8645
19.9652
17.1257
16.6674
18.247
17.3003
18.0202
16.3969
17.248
14.8399
18.2396
17.3672
17.9247
17.6429
18.37
19.3381
19.0271
14.9272
17.7902
17.8424
17.6614
16.6053
18.8873
16.7549
20.1848
17.3805
18.3334
18.9786
15.1493
17.2281
19.7163
16.6403
17.3644
19.2216
17.2666
17.128
17.1703
19.0827
18.0554
16.4281
18.9916
17.4026
19.0407
18.4631
16.8296
18.0131
20.5013
17.8337
17.4906
13.5967
17.2633
18.3156
18.9586
17.7902
16.631
17.7448
19.3305
19.3434
16.6449
17.9422
17.3965
17.1648
12.4426
17.3607
18.2242
16.9649
19.9866
17.3163
13.4029
18.9936
15.9893
18.694
17.8496
16.7754
17.3728
19.0895
18.0095
16.9619
18.9258
19.1031
17.2806
16.8135
17.4274
17.5895
17.1353
13.6033
19.1889
18.0724
17.2381
17.4689
18.5691
18.0422
19.1945
16.7398
18.6409
17.4907
18.8103
18.4207
13.6517
17.9906
18.6231
17.9198
17.2654
17.4991
18.7111
18.414
19.0439
14.5248
18.2452
19.4218
18.7163
15.6156
17.2145
17.1012
17.9964
18.0201
17.0834
20.8193
19.1229
17.8645
18.6821
16.4931
16.7297
19.0842
17.2458
17.3269
18.4018
18.9377
19.2638
17.5453
17.1751
18.3698
19.2195
17.0117
18.0117
17.3514
19.0965
18.1687
18.1319
17.0728
19.3628
19.8679
16.7563
18.4786
17.6643
17.1195
13.2506
18.3713
17.8099
18.4345
19.0477
19.2389
18.0622
17.6966
19.3679
18.3258
18.3341
18.9561
19.4793
19.3034
18.9827
17.574
17.4883
18.8818
20.6184
18.4762
17.6228
18.5248
19.0489
18.3964
17.2696
17.3071
17.2382
16.5553
15.4616
17.2402
18.6842
19.6156
17.3757
17.3385
18.3279
18.5071
14.7991
13.5617
13.4864
14.6932
18.4538
17.5869
18.2901
14.949
15.5149
18.6189
18.6401
16.9311
17.2522
18.8918
17.4002
18.3221
18.3377
19.376
16.0941
19.086
17.6068
18.3481
18.8576
18.2054
17.3985
18.7029
18.518
17.7429
17.3405
18.2404
19.1418
18.8594
17.12
18.9382
17.9606
18.2972
17.3427
17.5363
13.9979
13.9359
14.1558
18.9186
15.7757
20.5679
18.7005
19.1239
18.7517
16.3872
13.1223
19.1231
18.3661
17.2574
18.6192
16.16
18.0972
16.9458
19.3749
19.2561
18.2218
18.1987
18.5674
17.3943
17.3358
19.0498
14.0441
18.0564
18.1282
16.3516
19.0233
13.3521
17.8976
17.4841
18.9691
14.1112
18.1314
19.1305
17.267
12.9404
19.0135
17.3285
17.689
17.2866
17.7032
19.5189
17.0281
18.4557
15.3149
18.629
14.6735
17.383
17.5676
17.3864
16.7228
16.857
18.5031
19.3695
17.7617
18.5823
17.485
19.8232
18.2213
17.7691
16.6474
15.8377
17.3248
17.3682
15.7541
17.7983
19.6335
17.1531
19.078
14.4169
15.7925
17.8195
17.9788
19.1013
15.4963
20.3403
18.1496
19.7002
14.3811
16.3556
17.6504
16.769
19.071
17.7949
18.0368
17.702
16.8524
16.9129
19.1144
18.9464
19.2594
17.3343
18.0957
19.0758
18.1455
19.134
19.0472
17.1685
17.4939
18.9555
20.1976
17.6736
18.0962
19.2113
18.6731
18.4938
19.9279
18.6948
19.5047
15.9499
17.6776
19.0145
14.8508
15.4881
17.5418
17.5672
18.8402
17.1858
19.043
17.9229
14.5002
16.8001
17.323
18.4036
18.1576
17.0341
17.2488
15.7194
17.2048
17.2647
17.1835
18.0312
17.8784
14.5862
18.2344
17.3196
14.2077
17.4172
19.1337
18.9171
17.3439
15.3706
18.3785
17.1772
18.4577
18.0225
15.5414
18.06
18.4749
11.7319
18.2518
17.5666
18.2975
16.9776
18.27
18.3546
17.2265
12.1345
17.2729
18.849
18.4529
18.8418
18.2334
19.2676
17.7325
15.5705
18.5517
18.7452
19.7819
16.0231
17.6771
19.0906
18.7344
19.8546
19.0026
17.1833
17.1988
17.5717
20.6685
16.1212
18.7039
15.4785
18.6177
17.6946
18.4111
18.479
16.123
16.0471
18.2659
18.1456
18.1673
18.0449
14.6102
16.9498
18.6761
18.8755
15.8852
19.8008
18.935
17.4071
14.8899
17.9725
19.6015
18.1138
19.3289
18.43
16.7049
20.8124
18.3258
18.6703
17.9627
18.1384
17.9608
18.5237
19.1235
17.797
17.7651
17.2189
19.279
21.0464
19.5867
16.0072
18.8061
17.0249
13.7733
19.0549
16.9058
18.368
18.441
18.031
14.0955
18.5848
18.9167
16.7465
13.8939
19.0861
17.2218
17.3637
17.2622
18.2894
17.0375
18.5497
17.2605
16.7645
18.9691
19.1413
17.7424
16.8241
16.8201
19.3441
19.0391
19.5949
16.7386
19.1198
19.0306
16.8364
17.8634
17.7535
18.9266
16.4698
18.6626
14.5334
15.088
18.5376
18.6155
17.1777
19.9689
16.2852
18.3363
14.2903
19.471
18.9441
19.5115
13.3819
19.3304
15.4498
18.6229
17.4088
18.1795
18.1262
15.7751
17.8551
17.5441
19.197
16.9798
13.0296
18.938
19.0545
17.3859
18.0139
17.9919
17.1129
16.5078
16.0407
18.1647
17.7121
17.1177
17.8537
12.3821
17.9238
17.6254
19.1235
18.6128
16.9627
16.913
18.7258
17.1712
18.0229
19.0943
19.2605
18.1567
18.8023
18.7123
20.9079
16.4216
17.3453
18.6935
19.3121
17.0653
19.1423
17.7441
19.2301
18.3604
17.8717
18.2428
18.9949
18.5678
18.0309
19.0389
17.2762
17.1214
18.8418
16.1717
17.9483
19.2403
18.7467
13.2222
17.7617
17.3603
18.3077
18.4414
18.1682
19.0777
19.0733
17.8357
19.574
13.4442
17.4125
19.2711
19.219
19.2179
14.9956
19.0739
18.5451
17.039
13.0232
19.0463
19.1743
18.1551
17.6344
18.1418
17.7082
19.1109
18.7088
16.985
16.5723
18.2019
18.2103
17.0644
17.7413
17.862
19.0918
17.0322
17.6265
18.5616
15.4817
17.3626
14.151
15.3074
17.278
17.8012
14.9996
17.635
18.2607
18.4411
17.9006
20.1042
18.5514
17.8521
18.7407
16.3452
18.7637
18.5582
15.3221
17.772
18.1434
17.2953
14.1271
19.1988
18.1992
19.1796
18.79
18.2968
18.4671
16.8877
17.3702
18.2874
18.5787
18.6431
19.4604
15.7238
18.1457
18.0849
16.8084
16.8802
19.2426
17.3009
16.3494
19.0108
17.2105
17.2577
18.9858
17.4834
17.5928
19.0982
19.685
14.4893
18.6981
18.8999
18.6298
15.9874
19.0978
17.9949
15.5854
18.173
18.9418
18.5597
17.8132
17.2953
19.0664
19.0377
19.4469
16.8957
18.9509
18.0544
14.2025
17.9409
16.5954
17.3497
18.5741
18.0337
18.734
17.3424
18.2601
19.4113
19.0981
18.8276
14.3353
17.8375
14.3691
18.0846
18.1104
18.0572
19.0998
20.2306
17.3593
17.0108
17.5333
14.7788
17.1778
18.8273
16.0236
17.5949
19.1642
17.5978
18.0973
17.8868
18.0272
16.8999
18.9641
18.5752
18.1792
18.0705
12.4582
19.1476
14.9002
19.2179
18.828
18.1272
17.2562
17.0394
17.8765
18.9341
18.4756
17.5392
20.0267
17.562
17.3681
14.8016
18.0113
14.6123
19.1401
14.4336
16.663
15.4426
14.2642
18.7281
18.3261
17.9705
17.4754
19.2547
15.8143
17.1491
17.271
18.7206
19.1823
17.9581
19.0765
14.174
18.1865
18.4195
18.0712
17.6366
17.9996
17.1079
13.0523
17.9501
13.8856
14.8182
17.2717
15.9185
17.124
17.3466
18.541
16.2169
17.2858
17.0229
18.5595
17.3795
17.1657
18.3173
19.0615
18.2602
16.2816
18.3369
18.3835
19.1533
19.0464
18.4625
18.9525
15.3122
17.7535
18.1907
17.8763
18.6548
14.8095
19.0099
18.5309
18.6721
18.3189
17.2805
19.1176
20.6918
17.1817
17.0905
18.1604
15.1825
18.8934
15.7275
18.9038
19.1254
18.3723
16.6074
16.0528
16.5151
18.4909
18.1492
17.8997
16.814
18.5253
19.0958
18.0115
18.5194
14.1918
17.4175
16.4234
19.1854
14.9851
18.1492
14.0252
18.7696
17.7931
17.4234
16.8631
17.2841
18.7167
17.9037
15.1992
17.676
17.0011
16.9139
17.6422
15.9679
18.7371
17.7617
18.6747
17.2566
19.6126
20.9911
19.3793
19.1399
16.9293
18.7408
15.3421
14.3691
18.8916
18.8532
18.3955
20.8373
15.9313
18.8926
18.9003
20.5216
18.8771
15.3229
18.4822
17.5181
18.2838
14.7758
17.2095
19.1285
13.9714
15.4707
13.3708
18.082
17.8876
19.333
18.0877
14.4813
15.15
19.2177
17.2465
13.3179
17.4287
17.3302
16.5954
17.0842
19.507
19.0303
19.109
18.3176
18.7158
19.4805
15.9577
17.4435
14.4938
20.1245
18.2873
18.726
18.2399
17.6576
11.5327
19.0322
18.7079
19.1024
18.3798
19.0025
17.0116
19.0501
16.895
18.7836
14.6681
16.1171
14.2939
15.3756
17.381
14.5513
17.3421
16.446
19.058
16.9016
19.2352
16.359
14.4958
18.5501
13.2803
16.1408
18.269
17.1845
18.8209
18.1573
13.2615
18.2879
18.6288
17.8227
17.3326
18.9789
18.4836
18.8796
17.3507
20.9179
19.591
17.3019
16.9223
18.928
17.3313
17.1766
17.8476
17.5629
19.1298
18.4169
17.9533
18.205
18.379
18.6218
18.328
16.7645
17.5607
17.2611
19.1581
15.5142
17.5872
17.374
17.3393
18.6698
18.0731
17.3929
17.2486
13.8381
14.7072
18.168
18.1208
18.417
19.0044
18.3669
18.582
16.737
18.0288
17.7542
17.8044
18.7558
14.4485
18.4922
17.316
19.0598
17.658
18.382
17.0963
16.7044
17.3484
17.5002
17.3718
13.893
18.5089
18.6242
15.4068
14.7798
18.2297
17.5949
16.9178
17.4844
19.0403
16.947
16.3415
13.5505
17.9996
17.958
14.2682
18.8935
18.6706
19.5123
17.0374
13.6062
14.2301
17.7914
13.9573
18.1158
17.3032
19.0653
16.871
17.0766
16.8995
16.6441
18.2775
17.7776
19.4413
18.2245
14.0886
13.7708
17.9671
15.264
15.3935
20.4473
15.5313
16.5239
18.1591
16.1894
14.9953
19.0647
20.3446
19.1486
17.4745
18.0642
13.6169
17.3731
17.3366
16.8879
17.3291
14.7013
14.4991
14.7964
18.3708
11.4586
18.0491
18.3655
17.3232
17.2351
18.1545
19.3297
17.9221
14.9892
17.2387
19.3469
18.6941
19.7637
18.0817
17.2702
17.9357
17.3689
18.1724
18.4612
16.8288
17.8091
17.0083
17.1552
18.7856
18.0464
17.9938
14.1124
18.2963
18.6965
17.9075
11.7887
19.6022
14.5074
18.9688
19.5409
18.0216
19.1631
19.0472
18.3073
19.1503
17.185
17.4257
19.5117
17.5611
19.0971
18.8647
18.5216
14.5502
19.8568
12.3063
14.4984
18.1327
18.6914
18.8013
17.9305
17.4857
15.0856
17.5901
17.6273
18.5903
18.7682
18.9759
18.5892
17.4006
18.0145
16.3681
17.1809
12.6263
18.9933
19.3862
17.9818
17.8235
20.4337
15.6072
17.2245
18.8882
18.8159
18.7606
18.5969
13.6563
15.3558
18.8935
17.9509
17.3376
17.2235
17.8662
17.3744
14.6502
16.0801
19.3595
15.8641
15.2427
19.165
14.1451
14.3134
19.152
19.0903
14.5264
18.265
18.0936
17.4259
18.6445
18.5241
16.8886
18.3608
19.1254
18.964
18.5552
16.8668
14.9583
14.6863
13.6166
18.747
17.7127
15.3937
17.4545
16.4618
18.1805
18.683
17.2722
17.6008
17.4339
19.1798
15.2265
17.0649
17.4261
14.6581
16.8566
17.2604
18.0033
16.9463
17.2171
14.3527
17.7763
17.5614
19.1583
14.4032
18.6976
17.0085
18.1154
16.7591
17.6912
18.8746
17.6939
17.2188
16.6238
16.5174
18.4886
17.5368
13.6083
18.5375
17.2165
17.2347
18.0855
19.343
14.244
15.9182
19.1104
14.3187
18.0159
17.1579
16.1513
13.5227
16.7455
18.6306
17.9397
18.4847
17.2847
19.6695
18.2284
15.6511
17.245
17.8478
16.1323
17.6349
13.2141
18.4041
15.2659
15.3382
18.913
18.467
19.6852
16.3464
17.072
19.176
17.4616
18.9103
18.5411
14.9086
15.9226
14.557
18.1193
13.4432
13.641
18.3021
17.4306
16.2628
14.2215
17.9581
18.3616
17.2262
17.627
18.976
13.3716
18.3779
18.3711
17.5062
17.5518
12.8786
17.4533
19.2103
15.3597
18.9575
17.8288
18.0375
17.2136
17.6887
16.2264
18.4688
18.3351
18.1421
19.3905
16.9768
17.8684
17.712
18.9628
17.7385
18.6924
18.3695
18.2794
13.7962
19.3106
19.0639
19.1001
18.7122
20.6831
19.1873
14.1882
14.5067
17.6269
19.0232
17.9439
18.7967
16.6584
18.8766
18.5851
18.1124
13.6776
15.0221
18.7171
19.183
15.7005
13.6091
18.8721
16.2092
14.9238
16.0056
13.7805
16.6917
18.244
17.983
16.0378
17.5314
18.1826
18.4351
15.3895
14.5831
18.6292
16.6416
17.6362
18.8314
19.2981
17.3687
19.9931
18.1733
17.3759
17.0576
14.6697
17.7459
17.4683
19.0353
14.1063
13.75
17.3503
17.3948
17.4044
18.2419
18.6523
18.3354
18.7808
17.0888
17.561
19.1178
14.1922
19.0585
17.2284
17.3036
17.2969
18.7455
17.3035
17.9852
17.1923
17.4087
16.366
18.3523
14.744
13.7368
18.2346
17.5139
17.9775
17.0746
17.9827
17.4535
18.1471
17.32
20.3593
17.1163
17.8851
16.404
14.9493
13.6419
17.2986
16.8038
18.9109
18.406
18.5797
17.4273
15.5293
18.5459
17.3816
18.075
20.4365
15.0639
17.4957
17.6495
15.3038
14.598
17.3883
18.5454
17.3468
18.5833
18.5551
17.3674
18.8508
17.4118
17.0804
13.921
14.6761
18.8496
18.3041
18.1488
17.3506
18.233
13.334
18.8221
18.1335
13.5445
17.3425
17.3216
15.408
16.4378
14.5818
16.3966
16.8115
17.3208
13.9081
14.2871
19.0507
18.4364
19.2517
17.2686
17.2881
18.7862
15.6249
20.9889
19.0473
18.0247
18.5166
17.9315
18.8702
16.6
18.5803
19.0952
14.5046
14.9132
19.1153
17.0897
20.4886
18.2012
17.9784
15.1788
19.0445
17.4717
19.0595
19.1372
18.3068
17.3757
18.8121
15.8977
19.3265
18.1162
19.4291
18.3173
19.2802
17.4899
15.2035
17.3582
18.431
18.8668
17.134
16.6863
18.9029
13.775
18.4452
18.9709
18.7708
19.1211
18.3734
18.2681
17.3628
18.8441
14.0788
17.945
17.4372
15.6301
19.0559
19.031
17.4072
17.3221
14.5379
18.0238
18.5572
18.3512
16.7197
18.2515
18.1824
17.0994
15.753
17.3424
19.0987
18.0551
18.5898
18.3414
16.5393
18.3027
19.1672
18.9549
18.0475
19.6308
13.6087
19.1428
17.4163
16.396
19.0375
18.1637
14.5831
14.5801
16.2908
17.0242
19.1985
14.6398
18.7741
18.4334
17.3901
16.9684
17.0102
18.859
18.2097
17.2731
13.9951
16.5457
19.0915
17.1439
19.5289
18.7245
13.4583
14.3561
15.668
17.7915
18.9062
18.2076
19.0192
19.0093
17.7545
18.419
18.7087
17.3504
18.2204
19.1271
18.6274
17.1705
17.3468
17.2207
14.2259
17.0048
16.9014
19.0523
17.3544
18.5627
15.5291
17.2718
13.6196
17.3901
13.1181
18.655
15.2558
18.0181
17.0992
18.7022
17.2754
12.7833
18.503
13.2245
19.0655
18.5862
17.3688
14.6773
17.6853
18.9424
18.8891
20.6949
18.0865
16.9309
18.3648
19.2794
17.5686
14.0916
14.8331
18.6138
17.1963
19.4313
16.8586
18.9541
18.5561
18.8803
18.296
18.4904
18.3513
18.4479
19.0092
13.216
17.2944
17.2908
18.3449
19.1587
18.4713
16.6745
18.818
17.3751
15.0283
19.2779
16.9905
18.4339
18.0664
17.1387
16.9156
18.8322
17.3131
18.3305
19.0557
16.271
18.378
12.868
18.7129
18.6496
18.2762
17.8118
15.0979
21.1695
18.089
15.6963
17.8718
14.1343
17.9046
18.7283
14.3116
17.6748
17.8291
18.2531
17.5703
16.689
17.1221
18.7569
18.7994
16.1483
19.5707
18.79
16.7938
18.2902
18.2005
16.61
13.678
14.0771
18.8579
19.0231
17.0629
17.0586
16.9585
13.437
17.2908
18.8412
18.1381
17.6661
17.1622
17.0993
16.2192
17.3005
18.9327
19.1455
17.4392
16.3732
18.7499
18.9603
17.9612
18.5377
18.7841
18.8221
19.238
19.0754
17.2981
18.8689
14.4735
17.9885
15.4061
18.1729
18.2728
18.225
18.2648
17.4744
18.6614
18.7591
17.8779
14.9735
19.0438
15.5533
16.8363
17.4699
19.1306
19.068
17.9059
18.5003
20.0121
12.6609
17.4915
17.2096
19.9473
18.0942
17.2729
15.4329
17.1849
17.7534
18.5147
16.7204
17.9535
15.5056
19.1048
18.176
18.7375
18.8287
17.4988
18.9994
17.7335
15.5934
17.5316
18.8605
18.2572
17.3985
18.0512
19.4566
19.3319
18.715
18.3185
18.84
17.9711
19.1228
18.5063
17.1564
17.0503
17.2236
14.7696
17.6133
19.0126
14.989
17.5181
12.8358
17.1258
17.704
19.0746
15.9584
19.0693
18.8592
14.7311
19.118
20.1537
18.4862
18.9301
17.2523
16.6753
17.3692
17.3343
20.2676
16.6942
18.3191
17.3581
18.0049
16.6891
17.1782
17.898
14.4493
19.249
13.3677
19.1157
17.7369
17.8601
15.4658
17.3904
14.5449
18.9151
15.6272
17.3012
17.4975
11.9671
18.2766
15.9876
18.4259
18.1082
16.3442
17.7051
13.5515
14.7143
18.1585
18.6166
17.2263
14.8251
12.9998
17.8331
17.2791
17.4786
20.0706
21.0308
18.9641
19.3353
18.7152
14.8621
17.5478
16.5924
15.7542
17.0374
15.7741
14.8702
18.9901
13.1579
14.9058
18.7816
18.5581
16.2932
17.282
15.2717
19.2062
14.9451
14.4228
18.1516
18.1618
17.3881
18.3933
14.0211
14.7145
15.0701
17.1409
19.2654
18.6757
19.3283
19.0144
17.2777
14.7757
17.3689
18.0229
17.4207
17.3682
17.0798
14.1279
13.5767
17.1717
16.3886
19.0213
18.983
17.2709
18.2363
17.0306
17.8761
16.151
18.3365
19.6982
15.9377
19.9996
18.4223
15.3768
19.6822
17.6686
18.4895
18.6549
19.2326
20.2959
19.0086
17.7447
14.3396
19.0418
16.9604
18.1802
14.5551
13.3335
17.0269
14.1315
18.9978
18.3402
13.9268
17.2146
15.4124
17.8679
18.8085
18.0244
14.0231
19.272
16.1722
13.5387
17.9995
18.4851
16.6873
12.7771
17.5383
14.6526
17.2644
14.4313
18.0945
19.3008
14.8926
17.3571
19.0113
16.8605
18.1883
13.0966
19.1655
13.8938
17.3725
18.5748
19.2331
18.8682
16.2391
14.2387
18.5785
17.5141
14.4335
19.1093
14.6123
14.6144
18.6876
18.4913
18.7959
18.5399
17.536
15.7736
17.4761
15.4072
18.461
19.2132
15.3883
17.4033
17.2871
14.7998
19.0676
17.3553
15.8399
18.1078
16.6451
17.5196
17.8306
13.757
11.6128
15.4066
17.2214
13.9902
17.2382
17.8825
17.28
17.3609
16.2289
17.9423
17.5806
17.2125
16.4682
19.062
17.528
18.678
16.8952
20.0055
17.9959
18.3302
19.0049
15.6197
14.5055
17.4571
19.0313
17.2004
15.1117
18.5374
18.4237
18.3535
18.2972
18.8705
17.7109
18.1372
18.3378
18.2731
14.5374
18.8402
16.5879
13.0322
19.0121
14.5067
13.399
18.5886
17.4265
18.1561
14.6351
17.3929
18.9192
13.9394
14.6024
19.1584
15.7792
18.1274
17.4028
19.263
17.3629
17.3108
18.0173
18.55
19.1306
17.9806
18.9011
17.8615
18.3278
17.7707
17.878
18.2221
13.9233
18.242
17.7229
17.2742
18.3516
18.8838
18.2428
17.7897
15.5496
15.0449
19.1668
18.8295
17.0625
14.095
18.3972
14.8975
19.0316
19.0243
18.6061
13.7793
14.6145
18.8176
15.9229
17.2753
15.5049
17.6732
12.5562
17.6943
17.459
10.2021
17.8118
16.1103
18.0567
16.541
14.6723
14.4828
14.989
18.2617
18.8687
17.8852
17.2999
15.79
16.8331
14.0801
18.5794
17.0466
14.7742
17.8742
17.18
10.8909
18.907
15.5438
18.2587
18.199
17.8434
17.1669
17.1985
19.0958
14.1227
19.789
14.3057
17.2791
16.9459
19.5451
17.7462
18.4488
14.761
17.7194
16.8039
17.6355
17.8875
15.913
15.2801
16.9092
17.7617
15.6503
18.5903
20.0114
18.1243
18.0198
14.2885
14.4511
16.2343
16.8493
17.328
18.3725
17.6762
14.5763
17.9749
17.1815
18.9963
14.7751
17.0934
20.1201
17.0878
19.2397
15.1634
18.0588
18.3825
18.265
14.4692
19.0135
17.3443
17.361
18.0433
17.3747
18.3861
17.4499
18.487
18.3443
18.3865
17.2393
18.5449
18.6318
19.1461
14.5628
17.1965
15.1052
16.3996
17.7597
19.119
18.5883
14.1714
14.2542
18.2
14.4401
16.1057
18.0786
18.8085
15.3298
16.2658
19.0857
18.8931
19.244
18.3451
18.2808
14.1894
17.9826
19.6957
18.6017
18.4288
18.7639
18.8687
15.0225
18.2071
15.1766
16.3045
16.9049
14.4245
14.6821
13.6398
18.9625
20.2512
15.6007
18.0694
16.2642
17.4116
18.736
17.7427
19.0404
15.9471
19.1069
17.9961
18.53
17.3604
14.939
12.2868
18.2566
16.8387
18.9669
19.1093
16.7624
17.9878
18.7634
14.6155
18.3385
19.0768
15.2754
16.489
17.5845
19.4243
13.3752
17.1286
19.1404
17.3026
16.9743
13.6209
15.6656
19.2297
20.1067
18.5768
17.5949
18.1774
18.1567
18.8462
17.2971
14.1705
14.4046
14.1601
17.5446
14.7457
18.0153
16.1189
19.6441
18.8168
14.2523
17.4367
19.1859
17.802
17.199
17.8272
18.8591
19.1378
19.1685
17.3669
17.2943
15.9773
18.1762
18.8599
14.5825
17.3412
16.1342
18.4476
13.8213
18.9351
13.5674
20.3519
14.0657
17.2589
17.9047
17.0964
15.2007
14.9919
13.4612
17.876
18.588
17.7156
18.8479
16.989
19.3095
17.384
17.0234
18.8615
16.6138
14.761
14.3918
17.555
17.7775
19.9094
18.0989
17.3604
13.9155
15.3694
15.5042
14.0766
17.2927
13.8619
17.3548
18.5893
17.2421
18.2934
18.3985
17.1313
18.8482
19.3258
15.4354
19.1246
17.2693
18.8485
19.2049
17.4655
17.4562
15.7053
17.5064
17.9663
18.4654
20.0278
14.8066
19.2837
18.013
18.169
15.0414
18.3484
17.1647
16.4856
15.6368
18.328
18.1968
19.1035
15.8477
13.2035
16.3094
16.0196
17.3036
14.3288
19.8802
16.0377
14.7548
18.4831
15.7596
15.8971
17.3746
19.3736
19.0356
18.9912
18.2129
20.2594
18.426
17.1742
19.0965
15.4902
15.3485
17.3908