/*--------------------------------*- C++ -*----------------------------------*\
| =========                 |                                                 |
| \\      /  F ield         | OpenFOAM: The Open Source CFD Toolbox           |
|  \\    /   O peration     | Version:  v2012                                 |
|   \\  /    A nd           | Website:  www.openfoam.com                      |
|    \\/     M anipulation  |                                                 |
\*---------------------------------------------------------------------------*/
FoamFile
{
    version     2.0;
    format      ascii;
    class       surfaceScalarField;
    location    "2000";
    object      phi;
}
// * * * * * * * * * * * * * * * * * * * * * * * * * * * * * * * * * * * * * //

dimensions      [0 3 -1 0 0 0 0];
oriented        oriented;


internalField   nonuniform List<scalar> 
38042
(
-1.4162e-05
0.000109476
-1.3164e-05
-8.21505e-05
7.27087e-06
-7.76989e-06
1.10873e-05
-1.0588e-05
-2.07053e-05
-0.000320408
3.25148e-05
0.000308599
3.31551e-07
1.42873e-07
-4.74422e-07
-3.30713e-06
0.000168273
-6.30481e-05
-0.000101917
0.00038472
-0.000330825
-0.000181061
0.000127164
2.07645e-05
3.91236e-05
-2.81436e-05
-3.17454e-05
-2.97311e-05
3.44585e-05
2.86122e-06
-7.58842e-06
3.1921e-06
2.98393e-06
-6.17604e-06
-1.74805e-05
-4.01902e-05
5.32995e-05
4.37145e-06
4.90116e-05
-3.6793e-06
-2.45683e-05
-8.01594e-05
0.000212491
2.58418e-05
-0.000158175
-1.00922e-08
3.40443e-08
-2.3966e-08
-7.70497e-06
-2.43023e-05
2.20533e-05
9.95396e-06
-1.07285e-06
1.34655e-06
-2.73714e-07
1.63031e-07
-5.71344e-08
-1.05898e-07
3.41285e-05
3.94965e-06
-2.98303e-05
-8.24789e-06
-5.41694e-08
8.35069e-08
-9.05537e-08
6.12179e-08
-7.4863e-06
-6.15988e-05
8.20782e-05
-1.2993e-05
5.5445e-06
-6.21969e-06
1.41773e-06
-7.4247e-07
8.14226e-06
-1.18213e-05
-2.69006e-06
6.36912e-06
-1.65862e-07
1.47823e-07
-6.76531e-08
8.56867e-08
4.86719e-06
-1.60963e-05
1.02492e-05
9.79832e-07
1.57746e-05
-5.12639e-05
8.88258e-06
2.66073e-05
-1.7476e-07
1.02747e-07
1.05623e-07
-3.35655e-08
0.00010289
-3.341e-05
2.20401e-05
-9.15211e-05
3.74454e-06
-1.65082e-06
8.97548e-07
-2.99105e-06
5.52912e-05
-2.17404e-05
-4.7713e-05
1.39264e-05
8.34073e-06
-6.92212e-06
-1.53451e-05
2.53719e-05
-2.65993e-05
8.5266e-06
-7.29961e-06
1.27838e-06
-2.57051e-06
-2.95699e-06
4.24888e-06
-1.96335e-06
5.08293e-07
5.35201e-09
1.44973e-06
-3.46903e-05
2.63958e-05
5.89474e-07
-1.1158e-06
-3.9424e-07
6.90419e-07
8.19788e-07
0.000361327
-0.000103134
-0.000280517
2.22448e-05
-1.4002e-05
1.88447e-05
-7.76245e-07
-4.06644e-06
-0.000355072
-2.52998e-05
0.000246995
0.000133376
0.000515789
0.000978751
-0.000866127
-0.000628416
-7.75728e-06
-1.25407e-05
-3.62369e-06
2.39216e-05
-2.15386e-06
-2.37495e-06
3.41309e-06
-2.72542e-07
1.7214e-07
-3.24027e-07
4.24466e-07
-0.000336753
0.00117033
-0.00118335
0.000349777
4.59657e-07
-6.69474e-07
-9.57681e-07
1.16747e-06
-0.000111193
-0.000444618
0.00017004
0.000385769
0.000423036
1.40202e-05
-0.000406733
-3.03275e-05
1.87661e-05
-2.68741e-05
1.41026e-05
-5.99427e-06
6.04159e-07
-6.15717e-07
1.15589e-08
-3.11931e-08
3.8122e-08
-6.93036e-09
3.85319e-05
3.6892e-05
-3.41338e-05
-4.12905e-05
1.04619e-06
5.62922e-08
-1.10251e-06
0.000925158
-0.000273967
-0.000244631
-0.000406563
1.19763e-07
-1.1118e-07
-5.02675e-08
4.16826e-08
-1.75261e-07
-4.76757e-06
1.60178e-05
-1.10745e-05
2.26772e-07
1.09638e-07
-2.74505e-07
-6.19505e-08
-1.32213e-05
5.85056e-05
-5.29855e-05
7.701e-06
-0.000122891
0.000152537
-0.00113542
0.000885326
-0.000463899
0.000713999
-8.29493e-08
4.01696e-07
-3.18746e-07
-5.47441e-05
0.000416059
-6.52807e-06
-5.3566e-06
9.37433e-06
2.51035e-06
8.37664e-05
-0.00010517
8.18215e-06
9.43694e-05
-0.000108533
-3.22851e-05
4.64495e-05
-0.000729152
0.00057953
0.000405934
-0.000256323
1.60946e-06
-2.69512e-06
5.13038e-07
5.72663e-07
-6.12172e-06
4.59601e-06
1.52574e-06
3.61369e-06
-1.30269e-06
1.43375e-06
2.7753e-07
-4.34389e-07
3.19889e-07
5.98699e-08
-4.04079e-08
-2.29229e-09
-1.71992e-08
7.48684e-07
-1.11753e-06
-5.29889e-07
8.98857e-07
-0.000303828
-0.0003847
0.000335459
0.000353027
8.30521e-07
2.23595e-07
-7.22556e-07
-3.57372e-07
-4.86507e-08
4.06009e-07
-1.40737e-05
6.69463e-05
3.02277e-05
-8.3103e-05
-6.39137e-08
7.24166e-07
-8.59705e-07
1.99458e-07
-1.50615e-06
3.46933e-06
1.13271e-06
-3.09567e-06
4.03595e-06
1.41008e-05
-1.31115e-05
-5.02527e-06
2.04596e-06
-8.45854e-07
2.26678e-09
-1.20239e-06
-0.00145897
0.000385461
-0.000595047
0.00166857
-4.80614e-06
0.000485675
-4.86407e-05
-0.000432229
-0.00117016
0.000452072
0.000381336
-3.83904e-07
2.55683e-08
3.58335e-07
-9.27315e-06
8.84353e-06
-2.46951e-06
2.89921e-06
-0.000389422
0.000144416
2.80488e-07
-3.79516e-07
3.5117e-08
-0.000228698
-9.56244e-05
4.28183e-05
0.000281504
-5.35326e-07
-2.22587e-07
4.20359e-07
3.3764e-07
0.000749458
-0.0010533
-3.00417e-05
1.29472e-05
7.20175e-06
9.89318e-06
-2.37127e-06
6.11023e-06
-3.00512e-06
-7.33655e-07
-1.32334e-06
1.01881e-07
1.22144e-06
-3.65338e-05
3.44262e-05
-3.32543e-06
5.43373e-06
8.41612e-08
-1.19089e-06
1.10672e-06
-1.36893e-06
1.5844e-06
-2.15493e-07
-0.000226841
-9.01309e-06
0.000300459
-6.45887e-05
8.81714e-06
-1.565e-05
3.22043e-05
-1.11758e-07
-3.35514e-07
6.63169e-05
4.96861e-05
-0.000159484
4.34772e-05
3.28931e-08
-4.61839e-08
1.32836e-08
-1.2154e-06
1.17952e-05
-1.96755e-05
9.09574e-06
-0.00175508
0.00218403
0.00074138
1.98306e-05
-4.46434e-05
2.9314e-06
2.18819e-05
-6.06374e-05
-5.88708e-05
0.000116201
2.45664e-06
4.24383e-06
1.85814e-05
-2.52817e-05
-8.06313e-06
8.60101e-06
-2.9091e-06
0.000939079
6.02175e-05
-0.000232319
-0.000766999
1.54334e-07
-9.32434e-07
7.78057e-07
-5.54529e-05
2.78175e-05
3.30318e-05
-5.39689e-06
-7.20657e-08
-3.00015e-06
3.07222e-06
-8.52997e-06
-1.73884e-05
1.50428e-05
1.08754e-05
2.80214e-07
1.79428e-07
2.46593e-05
-5.00368e-06
-4.82216e-06
0.000171864
0.000165211
-0.000332311
1.55947e-05
-6.18526e-06
-9.40928e-06
2.00537e-07
-3.5886e-08
-1.64649e-07
-0.000624561
0.00184139
-0.0015336
0.000316744
-0.00115335
0.000768642
2.61561e-05
-1.73391e-06
0.000442366
-0.000466788
-8.00553e-07
-7.19282e-06
8.51996e-06
-5.26609e-07
0.000967044
-0.000631574
-1.23084e-05
9.17778e-06
1.34615e-06
1.78437e-06
-9.15484e-06
-2.25753e-05
-2.3723e-05
0.000388739
-0.000172165
-4.9156e-05
-0.000167412
1.45471e-05
-2.39504e-05
2.87524e-06
7.82646e-06
-1.75142e-05
-4.31419e-06
2.1805e-05
2.03439e-05
-5.09575e-06
-3.70525e-05
-2.45533e-05
-1.07004e-05
-1.28015e-06
-0.000245074
0.000178257
1.52111e-05
5.16058e-05
1.0831e-06
1.41486e-06
-3.20729e-06
7.09406e-07
0.000680454
-0.000473203
-0.000206924
-3.49645e-07
-7.04244e-06
-2.12202e-05
2.76494e-05
6.13092e-07
-3.57413e-05
0.000910977
-0.000212873
-0.000662355
0.000138801
0.000196623
-0.000393667
5.82433e-05
-1.66751e-05
2.52828e-05
-1.26067e-05
3.99908e-06
6.61066e-06
9.90121e-06
-7.33633e-05
5.68549e-05
0.000673645
-8.96366e-05
-0.000195268
2.23008e-06
-3.78821e-06
-9.25503e-08
0.000150364
0.000788689
-3.71667e-06
9.21086e-07
9.35753e-07
1.86009e-06
0.000548022
-0.000233512
-0.000369271
-1.36193e-06
-6.98496e-06
-1.47505e-06
9.82193e-06
0.000899819
1.50957e-07
-1.07776e-07
-4.31808e-08
-2.60071e-06
4.38959e-06
-1.7889e-06
1.95678e-05
3.48685e-05
-0.000281276
2.7719e-06
1.24446e-05
-5.02634e-06
-1.01898e-05
2.89578e-07
1.59285e-07
-7.57955e-07
3.09131e-07
3.27728e-05
0.000121964
-3.04916e-05
-0.000124246
-1.88091e-06
7.34177e-05
8.8515e-06
-8.03885e-05
-0.000597106
-0.000132056
1.17546e-06
-5.74886e-08
-1.11799e-06
4.88981e-08
-9.20147e-08
1.02963e-07
4.55768e-05
-6.97832e-05
1.01317e-05
5.84199e-05
-0.000180611
-1.63034e-05
0.000138493
0.00089755
-0.000562792
-0.000274549
2.22876e-07
8.40565e-07
-1.06342e-06
8.63366e-08
-5.79721e-08
-3.70047e-07
3.4168e-07
0.000108697
-5.11365e-05
-0.000124607
6.70454e-05
6.00916e-07
1.90899e-07
-7.91824e-07
-9.49019e-07
1.73858e-07
7.75157e-07
-3.53409e-05
5.59191e-05
-1.26511e-05
-7.92718e-06
0.000508046
-0.00133651
-0.000926616
8.20744e-08
7.9198e-07
-9.56978e-07
0.000130654
0.000118075
0.000214225
-0.000462946
0.000146022
6.83341e-05
0.000278443
-0.000492813
-0.000293736
-0.00027321
0.000394775
-0.00060769
-0.000677938
-1.81038e-07
-1.06471e-07
2.87516e-07
-5.71471e-05
1.08197e-06
2.69113e-05
2.9154e-05
-1.23831e-06
9.14832e-08
1.14683e-06
-0.000100109
0.000136482
-3.2306e-05
-4.06454e-06
-2.14567e-07
1.55305e-07
5.92581e-08
0.000343339
-0.000489474
0.000562187
-0.00156052
0.000829166
-0.000404049
6.88682e-06
-3.97802e-06
5.23358e-06
-0.000301557
0.000258473
4.30861e-05
0.000470123
0.00136386
-0.00152011
-0.000313887
-5.32027e-06
9.16978e-07
7.11538e-06
-2.71224e-06
0.000382845
-0.00104097
-0.00080084
-1.93596e-05
5.14078e-05
-2.4777e-05
-0.000365324
0.000227008
0.000138316
3.40752e-06
1.81929e-06
8.83458e-07
1.01928e-05
-8.06448e-06
1.69783e-06
-3.82631e-06
0.000479993
0.000239332
-7.49463e-05
-0.000644356
1.1666e-06
-2.30298e-07
3.46048e-07
-1.28237e-06
2.6547e-08
-1.9241e-07
-3.47646e-08
-1.26639e-08
4.74249e-08
-0.000102187
-0.000123842
-1.90457e-05
1.08332e-07
2.68585e-08
-1.35191e-07
4.32442e-08
-1.35294e-07
9.20496e-08
7.20338e-08
1.08419e-07
-1.80455e-07
-0.000119313
9.70397e-05
1.47869e-05
1.61871e-08
-6.61596e-08
4.99717e-08
1.9731e-06
3.09075e-08
-2.00399e-06
3.07307e-06
-1.98969e-07
-2.92297e-06
4.87649e-08
4.98575e-06
-3.17957e-06
-1.80618e-06
-0.000675304
3.47709e-07
-1.2741e-06
2.13703e-07
7.12704e-07
0.00140274
0.000283481
-1.51398e-07
1.39494e-07
1.18998e-08
-3.73878e-07
3.15241e-07
5.86366e-08
-1.71487e-06
1.74098e-07
1.5408e-06
1.01307e-05
1.54134e-05
-2.2882e-05
-2.66179e-06
9.23453e-07
2.24725e-07
-1.14818e-06
6.39596e-08
1.21439e-06
2.09661e-08
-2.41217e-08
3.1529e-09
-0.000107858
0.000115308
-0.000110111
0.000102662
-1.23483e-07
-1.13176e-08
1.34821e-07
9.32361e-07
-1.6605e-07
-7.66306e-07
-0.000991196
-0.000606858
0.000973468
-3.10437e-06
2.01614e-06
4.44993e-06
-3.36182e-06
3.84287e-06
0.000114816
-0.000123163
4.4992e-06
-0.000642238
-0.0011188
-0.000153877
0.000174305
-0.000201944
0.000181538
2.93704e-06
7.82945e-06
-8.90394e-06
-1.86257e-06
-0.000113986
6.08079e-06
5.44941e-05
5.34107e-05
-6.79446e-06
4.93971e-05
-0.000150461
1.06775e-06
4.76218e-06
-5.60697e-06
-0.000362261
0.000663726
-0.000312153
1.06861e-05
1.3158e-07
-3.39765e-09
-1.28175e-07
0.000485722
0.000481352
-7.42366e-06
2.18945e-05
-2.38365e-05
9.36606e-06
-2.90957e-06
-1.45474e-06
2.40098e-06
-0.00167221
-0.00077203
0.00162132
0.000822918
-1.33134e-05
6.37916e-06
3.76258e-06
3.17187e-06
-2.68201e-07
3.61959e-07
-9.37518e-08
3.61985e-07
-3.36331e-07
-2.56493e-08
1.64234e-08
3.91167e-08
-5.55406e-08
0.00021102
-0.000233084
-2.7084e-05
1.22424e-07
-2.76032e-07
-1.88316e-08
1.7247e-07
0.000281397
0.00010407
0.000287102
9.57419e-05
0.000115365
-0.000250231
0.000163966
-2.91016e-05
-2.1499e-05
6.28162e-05
-9.84638e-05
4.00124e-05
0.000112467
-0.000105606
-4.69095e-05
1.99498e-05
-2.142e-05
-8.89407e-07
2.35994e-06
8.37174e-08
-1.04361e-07
2.06491e-08
-2.76003e-07
2.66222e-07
9.7906e-09
4.80709e-07
1.15562e-07
-3.16052e-07
-5.17808e-05
0.000113867
3.22832e-05
-9.37806e-05
-5.53875e-06
8.18388e-05
-2.25355e-06
3.17463e-06
-6.93673e-07
-2.27495e-07
2.33759e-05
-4.63457e-05
-1.23712e-05
1.07682e-07
-9.38913e-08
-1.37882e-08
2.14321e-07
-1.51946e-06
1.30512e-06
9.15241e-06
8.12644e-06
2.67156e-06
-1.28701e-07
4.52818e-07
-3.24111e-07
-9.46519e-05
-1.86241e-05
0.000113275
7.64748e-07
-6.65396e-08
2.5934e-08
4.09328e-05
-4.49651e-05
2.15119e-06
6.2479e-05
3.66895e-05
-0.000105963
-4.7226e-07
8.77064e-07
-1.98684e-06
1.58216e-06
-0.000156302
-4.97424e-06
2.77629e-05
-3.60898e-06
-1.91795e-05
-5.85854e-08
1.44922e-07
1.93445e-05
2.12239e-05
-5.75887e-05
1.7017e-05
-1.67647e-08
8.64112e-09
8.11982e-09
3.25454e-08
-1.10858e-06
3.1576e-09
1.07291e-06
-0.000214589
0.000311673
-0.000106093
6.88093e-06
6.60614e-07
-9.25386e-06
1.71233e-06
-0.000207178
-2.36169e-06
0.00015776
2.84511e-06
-1.49756e-05
5.92159e-06
6.2088e-06
-2.9776e-05
5.1891e-05
1.64167e-05
-5.46452e-08
-2.97576e-07
3.52224e-07
2.0664e-08
-2.64735e-09
-1.80203e-08
1.61285e-06
-1.8075e-06
1.9468e-07
-7.82753e-10
-1.2605e-08
1.3383e-08
1.35094e-05
-3.32265e-05
0.000158518
3.08064e-07
7.83019e-07
-6.62357e-07
-4.28751e-07
1.04993e-05
0.000181343
-0.000191842
-1.69535e-06
5.56511e-07
-5.3027e-07
1.66912e-06
-5.72993e-05
0.000128573
3.82021e-05
0.000118817
0.000216078
-0.000334893
-2.06173e-05
2.55803e-06
1.09472e-05
7.11169e-06
1.85024e-06
1.99418e-06
-3.84445e-06
-2.81585e-06
1.06683e-05
-3.85488e-06
-3.99768e-06
-1.73576e-07
1.22821e-07
5.07577e-08
5.66625e-08
6.57636e-08
2.24883e-08
5.93861e-08
-8.18756e-08
0.000731621
0.000671066
-1.02129e-06
2.73982e-07
7.47305e-07
-0.000185528
0.000655218
1.0321e-05
4.58396e-07
-1.38736e-07
-3.19647e-07
-2.95332e-07
4.5765e-07
-1.62302e-07
-1.20039e-07
3.45418e-07
-2.25388e-07
2.73465e-07
-1.99813e-07
-7.3644e-08
-2.28236e-07
-7.07968e-08
2.99032e-07
0.000999865
8.05257e-06
9.0324e-07
-1.393e-05
-0.000266521
0.000210564
8.98501e-05
-3.38878e-05
-1.57683e-07
-2.70561e-08
1.84753e-07
-2.37682e-07
2.88114e-07
-5.04179e-08
6.11268e-05
-6.37641e-05
-6.51548e-06
9.15276e-06
5.8421e-08
9.9452e-10
-5.94209e-08
8.10067e-07
-1.30386e-06
4.93785e-07
2.41915e-06
1.43029e-05
1.74065e-05
2.43079e-07
-2.24032e-07
-1.90371e-08
-0.000301058
4.47643e-05
-7.45322e-05
3.54529e-06
2.78003e-06
-1.70961e-05
1.07684e-05
1.54598e-06
-5.15358e-07
-8.62651e-07
-1.67865e-07
0.00121593
0.0009538
-0.000328364
-6.86757e-05
0.000108652
6.64536e-06
-1.51096e-06
-3.67693e-05
3.16349e-05
-1.78946e-06
-1.3532e-06
4.30924e-06
1.58522e-06
-5.17457e-07
-3.80989e-05
-7.92898e-05
2.15831e-05
9.58029e-05
3.657e-05
-1.9172e-05
7.26124e-06
-5.72281e-06
5.36257e-06
3.35043e-06
-2.99038e-06
1.03501e-05
-1.94014e-05
7.83591e-06
-1.45166e-07
1.18965e-07
2.49696e-07
-2.23455e-07
-4.75562e-06
-8.99441e-05
0.000524689
-0.000429989
-0.000514611
0.000584543
0.000122594
-0.000192534
3.32291e-05
-3.44412e-05
7.82345e-06
-0.000512553
0.000658245
-0.000145673
-0.000696172
0.000889859
-0.000229424
-0.000428674
-0.000424722
0.000340819
-5.38853e-06
-2.1238e-06
-1.73128e-06
2.91057e-07
-3.5119e-06
4.95206e-06
-2.11147e-05
-5.19387e-05
2.10106e-05
4.74293e-05
-3.98651e-06
-6.44477e-05
-3.44393e-07
1.93285e-06
2.02532e-06
-1.61545e-06
5.17931e-07
-1.40764e-07
9.43514e-08
-1.31562e-07
-7.78484e-07
8.15548e-07
-9.78522e-07
6.61506e-07
-2.78734e-06
-0.00019081
-4.87737e-05
0.000144933
8.04584e-05
-3.0747e-05
-7.60315e-05
2.63173e-05
-6.62913e-05
0.00011913
-5.28466e-05
-2.2639e-07
2.53659e-07
-2.7276e-08
0.000117999
-8.4596e-05
7.75536e-05
-0.000117466
3.22739e-05
7.63845e-06
3.00082e-07
-2.6461e-07
-3.54598e-08
-5.3742e-07
1.48026e-07
1.26314e-07
2.63033e-07
3.44565e-06
5.20141e-06
1.54569e-06
-1.45263e-06
1.75194e-06
-2.12093e-07
-8.71169e-08
-8.99323e-07
-2.76921e-06
-1.6517e-06
4.20004e-06
7.2236e-06
-1.03404e-05
-0.000810084
0.00153642
0.000657667
-0.00138402
9.15782e-06
9.02656e-05
3.46649e-06
-2.03864e-07
3.06627e-07
0.00048658
-0.000203149
7.98258e-06
-1.41691e-05
1.24374e-06
4.94278e-06
-8.99804e-08
1.22174e-07
-3.21982e-08
0.000758277
-0.00135539
0.00107759
-0.000822432
0.000260615
-4.83968e-05
9.91492e-05
2.25623e-05
-7.33149e-05
0.000777017
-0.00169095
1.81776e-06
-1.29262e-06
8.62724e-06
-7.52601e-06
1.11473e-05
-1.10343e-05
7.41286e-06
-1.14297e-05
-5.58386e-06
6.97079e-06
1.00425e-05
1.4183e-05
-2.18493e-05
-3.7665e-06
1.14329e-05
3.98952e-06
-2.13659e-06
1.2199e-06
2.04703e-07
-3.46064e-08
-5.0322e-08
-7.13897e-05
-0.000491407
-0.000121894
-0.000645101
-2.06028e-05
1.17679e-05
2.27613e-05
1.59895e-05
-0.000194974
0.000178983
3.09319e-07
-2.30465e-07
-7.88583e-08
-2.48886e-07
3.31682e-07
-8.29884e-08
4.09951e-05
-0.000194873
4.01148e-05
8.90955e-06
-0.000263611
2.0826e-06
-0.00010892
8.90118e-06
9.79359e-05
-1.63364e-06
3.96928e-06
3.02691e-06
0.000112351
3.95364e-05
-9.53397e-05
-5.65474e-05
-6.44037e-07
7.72555e-08
5.66773e-07
5.95387e-08
-2.24975e-07
1.65439e-07
-0.00105315
0.00162253
-9.92632e-05
3.61506e-07
-1.53628e-06
-3.31241e-07
1.04623e-07
-8.90737e-09
-9.5717e-08
-1.17986e-06
1.07565e-06
1.04212e-07
-0.00034824
-0.000104481
0.000447964
-2.61069e-05
2.19601e-05
1.94209e-06
2.20475e-06
-1.63118e-07
-9.95381e-07
1.1585e-06
-3.41731e-05
-9.75798e-06
-7.11697e-07
9.4605e-09
1.38361e-07
6.02141e-06
-1.36e-05
-2.21521e-05
-7.74176e-05
0.000173271
-5.29864e-05
-4.28607e-05
1.09127e-06
-4.50322e-06
4.79188e-07
2.93303e-06
-1.15856e-05
-0.000190089
0.00022783
0.000259127
-0.000312557
6.09841e-06
4.73334e-05
3.40969e-08
-1.20762e-07
8.66639e-08
-0.000247621
1.04342e-06
1.78793e-05
-1.432e-07
4.92951e-07
-3.49743e-07
0.00165861
0.000691507
-0.000166077
-1.13898e-05
3.04415e-06
4.57047e-05
-3.73593e-05
5.05879e-08
-3.31001e-10
-1.38322e-07
8.80986e-08
-0.000547159
-3.33725e-05
0.000218262
-1.77623e-07
1.1965e-07
1.07024e-07
-1.6047e-07
5.34424e-08
-7.75585e-06
2.75918e-05
-1.1019e-05
-1.18042e-06
4.37797e-08
1.13663e-06
0.00014554
-0.000494265
0.000348725
-4.90113e-08
-5.15787e-09
7.17464e-05
0.000167609
-2.86188e-08
-4.8408e-08
7.7048e-08
-0.000267205
0.000165592
0.00108032
-1.71519e-06
3.40829e-07
1.1505e-05
-8.07691e-08
2.8615e-07
1.24079e-07
-3.29433e-07
-6.35969e-07
1.60241e-07
4.75735e-07
-1.80651e-07
-1.29356e-06
4.02962e-07
1.07125e-06
-1.52688e-07
4.03711e-08
1.12321e-07
-8.29694e-05
1.68154e-05
6.99915e-05
-1.64177e-07
1.03557e-06
-8.71402e-07
1.87383e-05
-1.04408e-05
-1.56133e-05
7.31595e-06
0.000168771
-0.000630283
0.000461518
2.32946e-05
8.78967e-06
-4.32142e-06
6.27288e-07
-1.72825e-07
-1.4643e-07
1.51688e-07
-2.18754e-07
6.70747e-08
2.14058e-05
1.73829e-05
-1.52558e-05
-2.35328e-05
1.33891e-08
3.72096e-08
-1.32322e-07
-1.28411e-08
-1.27563e-05
0.000447558
-0.000377138
-5.76604e-05
6.8981e-09
-1.8755e-07
-2.54774e-07
5.83857e-08
1.96403e-07
-5.68495e-08
2.13866e-08
2.53142e-08
-1.03565e-08
1.2999e-08
4.62375e-08
-1.31817e-06
1.05168e-06
-2.30436e-06
-0.000211269
-2.86471e-05
0.000388572
-0.000148656
0.000674523
0.000275419
8.83642e-05
-0.00103832
4.08233e-06
-2.43872e-06
1.12837e-06
-0.000222507
-5.81022e-05
0.000184984
1.85585e-06
-2.95603e-06
1.10015e-06
-0.000121739
6.76927e-06
0.000289272
-0.000213478
2.08319e-05
-5.0275e-09
-5.33134e-09
-0.000120529
0.000114066
-4.52967e-05
5.1759e-05
9.88041e-06
0.00119453
-0.000652004
-0.000552414
-0.000388689
2.59005e-05
0.000294096
-5.40836e-05
9.77352e-05
-4.41307e-05
4.78997e-07
-0.00119039
0.00138451
-0.000194111
-5.46726e-08
1.54279e-06
-1.48812e-06
-2.99022e-05
3.1712e-05
8.09203e-06
1.74697e-05
-0.000102153
5.49069e-05
2.52799e-06
-4.10521e-06
8.45827e-06
7.88003e-07
-2.27099e-06
-5.42542e-06
6.90874e-06
9.32609e-05
-7.53474e-05
-8.06013e-05
6.26851e-05
-9.69764e-05
0.000866523
0.00088906
0.00028981
-0.000127035
5.00704e-05
0.000293266
1.1407e-07
-4.88723e-08
-6.51949e-08
-0.000215313
-0.000462622
-0.000203179
-0.000439061
-3.4979e-06
-9.23072e-06
-7.88958e-06
-1.34256e-06
-1.17954e-06
1.15802e-06
1.36408e-06
0.000495139
-5.7068e-05
-0.000442876
0.000295177
0.000112946
-0.000187888
1.38697e-06
-9.74845e-06
8.35408e-07
9.08911e-07
-1.89671e-07
-7.19228e-07
-8.54065e-06
1.01742e-05
2.44891e-06
-0.000107961
4.21036e-08
6.81466e-07
-7.23563e-07
-0.0003142
-0.000709514
-2.21036e-06
1.80436e-06
2.09381e-06
-1.68772e-06
1.23683e-06
-7.78006e-07
-1.43735e-06
-0.000245764
0.000916797
2.67924e-06
-1.0636e-06
-6.98684e-07
-1.09624e-08
-2.67374e-08
3.76951e-08
-1.44217e-07
1.3293e-07
-1.92666e-07
5.39073e-07
-3.46407e-07
-0.000455613
5.54123e-05
-0.000475769
0.000875951
0.000344083
0.00101978
3.78009e-05
-4.78074e-05
2.58306e-06
1.00588e-06
-4.1927e-06
-1.77974e-06
4.96663e-06
1.80058e-07
-3.39502e-08
-1.46111e-07
-4.9451e-06
2.97528e-06
-7.47436e-06
9.44419e-06
-3.67529e-07
2.61945e-07
3.9233e-07
-2.86732e-07
-2.48679e-05
-4.74395e-05
1.97284e-05
5.25753e-05
0.000277475
-3.76266e-05
6.06157e-05
0.000465661
1.71312e-05
-0.000484526
-0.000276227
2.0232e-05
-1.18455e-05
5.01188e-05
8.475e-08
-2.94053e-08
-5.53405e-08
-2.23575e-05
3.50074e-06
1.84762e-05
3.79748e-07
-1.95038e-07
2.74171e-07
-7.91342e-08
-3.55819e-06
5.07659e-06
-1.51841e-06
-6.44168e-08
-6.74055e-09
7.11587e-08
-4.44705e-08
1.06739e-08
3.38005e-08
-0.00113971
-0.0013851
8.27269e-06
-2.83914e-05
-0.000378335
0.000398452
1.45823e-07
-5.38042e-07
-1.45233e-07
4.26753e-07
1.2278e-06
-1.05038e-06
5.37836e-07
-1.13974e-06
2.21486e-06
9.11532e-05
-7.58062e-05
-8.25177e-05
6.71699e-05
3.51795e-08
2.91623e-08
-6.4338e-08
3.91592e-07
6.25046e-07
-1.01663e-06
-5.42403e-05
4.63506e-05
9.97216e-06
-4.37112e-05
-1.24429e-05
-5.58532e-06
0.000706429
-0.00101788
0.000317035
-2.62062e-07
2.29784e-07
3.22795e-08
-1.50544e-06
-5.54659e-07
-1.9351e-07
-0.00038881
-0.000161461
0.000379662
0.000170609
-0.000550104
-0.000786404
0.000676864
-0.0010474
0.000364954
1.62349e-06
-3.04958e-06
-2.64131e-08
1.76323e-08
1.58947e-07
-1.76581e-07
-9.07198e-07
1.77241e-05
-6.71535e-07
-1.61458e-05
-8.3255e-08
2.87137e-07
-2.03879e-07
-0.00027587
0.000280858
-0.000442127
0.000376667
7.85278e-05
-1.30677e-05
-0.000579581
0.000267411
6.81049e-07
1.23983e-06
-1.92088e-06
-0.00030934
-5.42267e-05
0.000151096
0.000212488
0.000456787
-0.000385481
-8.40599e-05
6.14886e-07
-0.000250991
0.000311448
-6.10708e-05
1.891e-07
-8.3473e-08
-2.40616e-06
-2.99703e-06
-1.60167e-05
0.000440454
-0.000213715
1.65149e-05
-0.000243258
8.9583e-05
-0.000275106
-4.9102e-07
4.00757e-07
-1.14163e-06
1.23194e-06
1.01753e-07
-4.91765e-08
-5.25699e-08
-4.70413e-09
-4.67218e-08
5.14247e-08
-1.1575e-06
9.80855e-08
1.05944e-06
-9.37821e-07
4.46913e-07
1.23427e-06
-7.43197e-07
4.85293e-05
0.000508886
-0.000578121
-0.000724329
0.000443366
0.000692348
-0.000411416
-0.000207316
0.000126556
-2.77728e-05
0.000116433
-9.78721e-05
-9.5979e-05
-2.36946e-05
-5.83297e-05
0.000162784
-8.07594e-05
-3.15167e-07
7.7394e-07
3.34345e-07
-7.93121e-07
-3.63055e-06
3.12358e-05
-2.46682e-05
-1.49805e-07
-2.54597e-08
1.30802e-07
0.000177749
-6.58838e-05
5.64083e-05
4.25475e-05
9.03528e-06
0.000249501
-0.000301088
2.36935e-07
-1.42221e-07
-9.47162e-08
2.13514e-05
-1.19481e-05
-5.36745e-06
-1.12976e-08
3.44586e-09
7.85141e-09
7.58211e-05
-1.05174e-05
-9.01931e-05
2.48893e-05
-5.89799e-08
9.57366e-08
-3.67791e-08
-0.000986581
0.000719351
-0.000159002
0.00081423
-1.56324e-05
0.00198224
1.8162e-06
-1.62784e-06
4.60065e-05
-4.57572e-05
3.84906e-05
-3.8739e-05
0.000454184
0.00051568
-0.000311663
-0.00103971
0.00167279
-0.000978851
0.000345715
1.25677e-06
9.8134e-07
-2.23812e-06
-2.37548e-07
1.56787e-07
0.000290371
7.84481e-06
0.000187459
7.82764e-05
-0.000109518
-2.28423e-05
-0.000575294
0.000904839
-0.000922846
0.0005934
-1.06473e-06
4.89135e-05
-3.94786e-05
-8.36962e-06
-5.80482e-07
1.72232e-06
-1.65063e-06
5.0888e-07
-2.57374e-06
-4.8577e-07
3.84763e-06
-9.16087e-06
-6.78358e-05
2.2439e-06
7.47524e-05
-5.6101e-05
-5.84595e-05
3.36438e-06
1.79233e-07
-2.42969e-07
1.71083e-05
-3.17745e-06
1.15033e-06
-1.50812e-05
1.33262e-07
-9.81364e-08
-3.51255e-08
-9.08724e-07
3.57263e-07
5.8556e-07
0.000358696
-0.000436558
0.000299699
-0.000221946
-4.8195e-06
-1.32612e-05
-1.91841e-06
-1.01882e-06
-1.40376e-07
3.07858e-06
2.08849e-05
-4.52721e-05
2.88857e-06
5.68004e-08
-1.56296e-07
1.15678e-07
-0.000177387
0.00134243
-0.00116503
1.96079e-07
5.43976e-07
-7.40045e-07
0.000114649
-0.000809733
-0.000865432
8.67241e-08
-5.06915e-07
3.73225e-07
4.70098e-08
7.588e-05
0.000101414
-6.19287e-05
-0.000722134
1.12063e-08
1.39191e-07
-1.50399e-07
-0.000419135
0.000580585
-0.000512718
0.000351282
0.000190196
4.54921e-06
-2.28203e-06
-3.12762e-06
-5.23617e-06
1.06461e-05
-1.28562e-05
-0.000173626
0.000277319
-9.08348e-05
-8.27472e-07
6.62088e-07
1.52083e-06
-1.35543e-06
0.000938282
-0.000697511
-0.000225446
-0.000184478
0.000159693
-2.8695e-06
-1.10543e-06
4.13058e-06
-1.55387e-07
-7.96646e-06
2.58471e-06
-2.13234e-06
7.51393e-06
0.00011637
-0.000120296
6.27574e-05
-5.88341e-05
1.57439e-05
-7.45614e-06
1.04502e-05
0.0013302
-0.000943922
-0.000386282
4.37841e-06
-1.53424e-06
1.35591e-06
-3.32644e-07
-3.48835e-08
-1.22808e-07
-6.58402e-07
7.81217e-07
-9.3918e-05
-4.69319e-05
4.4924e-05
0.000146058
-2.69345e-05
0.000320651
0.000596095
0.000698771
4.587e-06
-6.72251e-06
1.06555e-05
1.49118e-05
-1.62819e-05
1.3185e-05
-3.94497e-06
9.2789e-07
1.08756e-06
-2.1431e-07
-1.80198e-06
1.90544e-06
9.18676e-08
8.71177e-08
1.10624e-07
-2.12378e-06
3.1229e-07
-1.90514e-06
-4.18267e-07
9.06765e-07
-6.29803e-07
1.41378e-07
-3.16282e-05
3.26985e-05
2.08244e-05
-0.000199982
9.21914e-05
-4.82416e-05
0.00015604
5.31093e-06
-7.07551e-06
4.22135e-06
3.06144e-05
1.43442e-05
-3.46086e-05
0.000210544
-0.000131897
0.000361804
3.18409e-07
7.45221e-07
-1.06375e-06
-1.67597e-06
2.64646e-05
-2.52133e-05
4.24632e-07
-1.91422e-06
3.17779e-06
-8.86385e-06
7.60031e-06
1.25412e-06
-4.68179e-06
2.37536e-06
1.05192e-06
-8.40038e-07
7.29408e-07
-6.11801e-10
1.81771e-06
-1.63218e-08
3.04051e-08
-1.40815e-08
2.17225e-05
-1.66051e-06
9.56041e-07
4.51171e-06
-1.12989e-07
-1.62857e-06
-2.77008e-06
-1.99797e-05
-2.14373e-06
1.16825e-05
1.44721e-07
3.28571e-09
-1.48082e-07
5.6318e-07
-8.8269e-07
3.19504e-07
6.01893e-08
-6.42421e-08
-6.21087e-08
4.33955e-05
-6.50361e-06
1.03003e-06
-6.46398e-07
-2.3783e-07
1.73079e-06
-1.18734e-06
-7.69898e-07
-2.88362e-06
4.64482e-06
-6.43032e-07
-1.11816e-06
-5.17188e-07
6.9422e-07
-1.77027e-07
-4.59376e-08
-4.37763e-07
4.83698e-07
9.43122e-09
-4.11348e-07
4.6146e-07
6.78376e-06
8.82897e-07
7.92741e-06
-1.03726e-07
3.96216e-08
6.41068e-08
-6.71069e-07
-5.75668e-06
4.04418e-06
2.38226e-06
-3.94228e-05
-2.79983e-10
2.37726e-05
2.35156e-07
-1.55401e-07
-7.97581e-08
4.6382e-07
2.80513e-08
-9.45454e-08
-3.97349e-07
1.97236e-06
1.30923e-06
1.87784e-07
-0.000232566
6.1887e-05
6.97063e-05
0.000100973
-1.30522e-06
5.09749e-07
-0.000885102
1.83268e-05
0.000436077
0.000430699
-0.000127061
-2.8362e-05
0.000168932
-0.000462623
-0.00165408
0.0017803
0.000336493
0.000306231
-0.000497693
-1.23349e-06
3.73115e-07
8.60375e-07
-3.68844e-05
6.94278e-05
-3.79635e-05
5.41972e-06
0.000645356
-8.43082e-05
-0.000281367
-0.000279687
-0.000265168
5.19178e-05
-1.93163e-05
-3.85982e-07
2.41052e-07
1.45038e-07
1.10099e-05
1.1387e-05
1.69281e-06
-1.7778e-06
2.81068e-07
0.000996422
-0.000453273
0.00107817
0.000113684
-7.02688e-05
-5.25705e-05
0.000162033
-0.000107394
7.83992e-06
-0.000284081
0.000128747
0.000139588
1.57368e-05
-5.6204e-08
-6.1633e-07
6.72527e-07
-6.41488e-07
-1.19139e-07
7.60618e-07
2.07072e-06
-1.1194e-05
9.12281e-06
0.000897723
-0.000922917
-4.54291e-07
-1.72741e-06
2.62958e-07
2.57211e-05
-9.19481e-05
-7.13656e-06
0.000166084
5.12186e-05
1.14984e-07
-8.93779e-08
0.000238859
-2.25074e-05
-0.000125228
-9.11234e-05
6.0745e-08
-9.15734e-07
8.54992e-07
-9.83153e-09
2.92962e-09
6.90226e-09
1.65629e-05
-7.47073e-05
8.5961e-05
9.0858e-08
-7.41389e-07
6.50523e-07
-0.000250467
-0.00024191
0.000171969
-0.000451096
-0.000405149
0.000335317
-0.000259554
-0.000771931
2.70647e-05
-4.90245e-05
7.13568e-05
0.000320226
-0.000155225
-3.96427e-05
-0.000125358
-7.78315e-06
1.23881e-05
1.09978e-06
-1.32443e-05
9.27536e-06
-9.631e-07
1.07577e-05
-0.000615828
0.000998798
0.0010015
0.000327445
0.000324698
-7.74407e-06
-0.000644399
-1.90338e-05
9.6373e-06
1.22414e-05
-3.55294e-06
4.08291e-05
-3.81838e-05
0.000514171
-1.978e-05
-0.000435972
7.60582e-07
2.899e-07
-1.11815e-06
7.05329e-05
-0.000292498
0.00022195
2.21001e-06
-1.11392e-06
-2.6016e-06
-1.05085e-07
9.90565e-07
-8.8544e-07
-7.81399e-07
1.71951e-07
6.09435e-07
-3.85811e-05
2.31508e-05
9.2449e-06
6.45576e-07
2.52861e-07
-8.98436e-07
0.000362312
-0.00053491
-0.000121139
0.000388649
-0.000540082
-0.000121778
-3.18761e-05
0.000129733
-0.00024493
0.000147081
9.90743e-06
9.17912e-06
2.24692e-05
-4.41252e-05
2.14557e-08
9.7509e-07
-9.96547e-07
4.49671e-05
-1.63879e-05
2.73398e-05
2.71131e-06
-3.51187e-06
1.26938e-06
-1.83266e-06
-3.99881e-07
-5.19872e-07
7.35081e-07
-1.7367e-06
1.52165e-06
9.87441e-07
-1.05477e-07
-8.81968e-07
-3.36682e-06
-1.6978e-06
5.0646e-06
0.000113197
-0.000111689
2.43672e-05
-2.58758e-05
6.06763e-06
-1.68658e-06
3.95949e-06
-0.00104385
0.000581322
-1.11201e-05
9.02087e-05
9.02543e-06
-8.81139e-05
6.34059e-05
-0.00026885
-0.000466356
0.000674282
0.000489475
-0.000356813
-0.000277884
0.000145222
-1.30526e-05
-4.4113e-06
4.37004e-06
1.30939e-05
0.000635362
0.000331192
-0.000260124
-0.000728193
-0.00039856
0.000410851
-0.000142258
-0.000252079
0.00105348
0.000480838
3.06376e-06
1.64763e-06
-3.83441e-06
2.77972e-06
4.60938e-07
-6.33308e-07
-2.6073e-06
8.30027e-08
-2.28242e-06
2.42608e-06
0.000421486
0.000185053
-0.00111664
-0.000537395
-8.9637e-05
-0.000172183
6.18364e-05
1.10846e-06
-1.81499e-06
-1.83733e-06
3.0307e-06
-1.19337e-06
-2.11035e-05
2.5262e-05
-5.78614e-06
1.62707e-06
0.000597395
0.000330393
-0.000250924
5.5014e-06
7.56867e-07
-1.39127e-06
0.000324212
-0.000254649
3.19994e-05
5.48535e-06
-1.41089e-05
-7.74958e-07
9.36269e-07
-1.61326e-07
-1.34145e-05
9.62207e-07
-2.52345e-06
5.83383e-06
-0.000525138
0.000209976
7.85674e-09
-1.34544e-06
1.33758e-06
6.90102e-07
-4.04553e-08
-6.49659e-07
1.35626e-07
-1.32594e-08
-1.22372e-07
-1.32427e-06
1.02382e-07
3.94448e-07
4.77003e-05
0.000963251
-0.000193109
-0.000817843
0.00017546
-0.000298405
0.000816777
-0.00069383
-0.000160797
-0.000238927
0.000116588
0.000283136
-0.000115439
0.000160618
-0.000108227
8.2869e-09
4.12767e-06
-9.61319e-07
5.83297e-07
6.97638e-07
-4.19044e-06
-1.1225e-05
2.21813e-06
2.01543e-05
-9.1549e-07
-0.000155603
-0.000302128
0.000349024
-4.69013e-05
-0.000293618
0.000281307
1.23241e-05
0.000310932
-4.11181e-05
4.18535e-05
0.000930062
-0.00098364
0.000938909
8.42439e-09
-7.08021e-09
-1.3447e-09
0.000385778
-0.000439747
-0.000598036
0.000345531
-0.000260856
-0.000637088
1.52915e-05
2.16298e-05
-3.11254e-05
-5.79611e-06
-3.21534e-07
3.76685e-07
-1.45141e-07
0.00034943
0.00122652
-7.50932e-07
-1.37153e-06
-7.61125e-07
-6.29087e-06
-1.63681e-06
1.57542e-05
-0.000566317
1.46833e-06
-5.19554e-06
1.73973e-07
3.55351e-06
4.52302e-05
-4.35216e-05
4.45408e-05
-4.62525e-05
0.000126905
0.00080316
-3.14087e-05
9.13333e-05
-8.36215e-05
1.7582e-06
2.58598e-06
-0.000592501
-0.00167744
0.00171984
-6.01458e-07
-1.17768e-06
2.52795e-06
-1.06835e-07
5.80359e-07
0.000166668
-0.000189649
2.29746e-05