/*--------------------------------*- C++ -*----------------------------------*\
| =========                 |                                                 |
| \\      /  F ield         | OpenFOAM: The Open Source CFD Toolbox           |
|  \\    /   O peration     | Version:  v2012                                 |
|   \\  /    A nd           | Website:  www.openfoam.com                      |
|    \\/     M anipulation  |                                                 |
\*---------------------------------------------------------------------------*/
FoamFile
{
    version     2.0;
    format      ascii;
    class       volVectorField;
    location    "2000";
    object      U;
}
// * * * * * * * * * * * * * * * * * * * * * * * * * * * * * * * * * * * * * //

dimensions      [0 1 -1 0 0 0 0];


internalField   nonuniform List<vector> 
21265
(
(0.0900377 -0.0643284 0.0110374)
(0.108645 0.0058544 0.00207626)
(0.419205 0.13818 0.0162559)
(-0.000439999 0.00703709 -0.00474235)
(0.291529 0.0178106 0.0150851)
(0.324066 0.0969449 0.0132101)
(0.0608987 0.0988068 -0.00486746)
(0.0227572 -0.0909363 -0.00889439)
(0.0635983 -0.0167392 -0.000214786)
(0.129151 -0.121149 -0.00109303)
(0.0485919 0.0930672 -0.000970145)
(0.0618011 -0.138319 -9.73843e-05)
(0.000357373 -8.72821e-05 -0.000161972)
(0.169437 0.0290136 0.0009077)
(0.0203022 -0.000531461 0.00216978)
(0.000249824 0.000990895 -0.00211755)
(0.1815 0.047289 -0.00157389)
(9.02586e-06 0.00191325 -5.3041e-05)
(0.355673 0.0601906 0.00218287)
(-0.00193921 0.0314987 0.0135783)
(0.0283408 -0.078922 -0.00171736)
(-0.000115857 0.00489874 -0.000309254)
(0.0877856 0.000420718 -0.00256994)
(0.0936381 -0.034608 -0.0664475)
(0.00369431 -0.000543996 0.00239877)
(0.349297 -0.0105833 0.0298264)
(0.00209551 -0.0235546 0.000392075)
(0.0904246 -0.0543218 0.00587442)
(0.11202 -0.0155472 0.00159135)
(0.0578677 0.0944754 -0.0030146)
(0.0389067 0.00167675 0.00605897)
(0.00298073 -0.0253399 -0.00170816)
(0.18062 0.0289613 -0.00805505)
(0.0049621 0.00301417 0.000192703)
(0.0447461 -0.0558965 0.00502168)
(0.0131171 -0.055949 -0.00482505)
(0.290741 0.155381 0.0076419)
(0.231963 0.125451 0.045089)
(0.180492 0.0846585 -0.000944433)
(0.00245228 0.00117698 -0.00613639)
(6.07954e-05 -0.0117136 0.00570897)
(0.530423 -0.0358026 0.087661)
(0.00476634 -0.0151406 -0.00286796)
(0.379674 0.0415385 -0.00205038)
(0.407508 0.0366968 -0.00373632)
(0.0276111 -0.0812731 -0.00226101)
(0.000960079 -0.00966393 0.000514738)
(4.36442e-05 0.000395049 -0.000205499)
(0.160796 0.104958 0.0485944)
(0.0175653 0.000502672 -0.000259742)
(0.300754 -0.03002 -0.010817)
(-0.000559917 -0.000373003 -0.00124459)
(0.0257102 -0.0763815 8.72584e-05)
(-0.00183651 0.00309763 0.00343232)
(0.21519 0.148812 0.00685585)
(0.290598 0.16288 0.0477596)
(0.263751 -0.16408 -0.155105)
(0.00274454 0.00637617 0.000444882)
(0.190556 0.0383856 -0.844948)
(0.0810824 -0.0160387 -0.00958582)
(0.235803 0.163617 0.0164623)
(0.240884 0.0549092 -0.00378268)
(0.351318 -0.00780266 -0.0808364)
(-0.0064246 0.014415 0.001148)
(0.0593275 0.0281098 -0.00298748)
(0.00474674 -0.0297707 0.000594068)
(-0.00441387 0.00571711 -0.00761557)
(-0.000267425 0.000524983 -0.000190264)
(0.00584883 -0.011708 0.00232053)
(0.390107 -0.203781 -0.0273943)
(0.00324114 0.0120729 -0.00907263)
(0.00215768 -0.00198006 0.0031084)
(0.0673114 0.118514 0.0268407)
(0.00179568 0.0040399 7.34521e-05)
(0.00600372 -0.0169233 -0.00214366)
(0.109963 0.0628271 -0.0038124)
(0.0020012 0.0150586 0.0037253)
(0.310295 -0.300534 0.105236)
(0.256625 -0.0403433 -0.021408)
(0.474948 -0.0182901 -0.00320994)
(0.000830723 0.00619097 7.56393e-05)
(0.0799608 0.0825764 0.00342331)
(0.312105 0.000695761 0.18812)
(0.00125403 0.00296385 -0.000105441)
(0.365788 0.0696258 -0.0216716)
(0.000630708 -0.00833107 0.000827275)
(0.481069 0.0281134 0.854583)
(0.133839 0.00760008 -5.1844e-05)
(0.00684968 -0.0372815 0.00284658)
(0.0204786 0.00139452 -0.00029361)
(0.064578 -0.0460541 -0.00315493)
(0.017607 2.40141e-05 -0.000779011)
(0.0195784 0.00130833 -0.00299784)
(0.170387 0.0386842 -0.0113486)
(0.0557499 0.098604 0.000321786)
(0.00838334 0.0032412 0.00986456)
(0.168752 -0.00315184 0.0274124)
(0.000397028 -0.000680634 0.000240023)
(0.142092 0.018355 -0.00271554)
(0.668338 -0.0922885 -0.0789217)
(0.0446815 -0.0984057 0.000939348)
(0.301946 0.0435554 0.00389113)
(0.00276676 -0.0667663 -0.0114703)
(0.00682806 -0.0554845 0.00826567)
(0.320698 -0.0369296 0.0966072)
(0.0226234 0.000642736 0.00160967)
(0.0930001 0.111358 0.000242702)
(0.0326108 0.00134205 -0.00339731)
(0.159683 -0.00777098 -0.0274818)
(-0.000575497 -0.00325782 -0.00355593)
(0.0384548 -0.0908996 -0.00306252)
(-0.00545027 -0.097657 0.00636511)
(0.0661622 0.0187493 -0.286074)
(-0.000111324 0.00282938 -0.000385585)
(0.66762 0.0135956 0.00593876)
(0.244286 -0.123122 -0.811112)
(0.381917 0.0664706 -0.0148274)
(0.0595215 0.00782138 -0.0123928)
(0.428526 -0.289573 -0.785624)
(0.0804854 -0.0142167 0.000554303)
(0.119512 0.121738 -0.0044727)
(-0.0581744 0.075572 -0.0741427)
(0.110083 0.00603787 -0.0078328)
(0.0165573 -0.0556643 -0.00329339)
(0.0830666 -0.120823 0.00564807)
(0.051966 -0.0514221 -0.00877355)
(0.367613 0.0293142 -0.00500381)
(0.00484594 -0.033653 -0.00133536)
(0.325201 0.14497 -0.0543717)
(0.133861 0.017145 0.00837315)
(0.472976 -0.134116 -0.0102024)
(0.377472 0.148192 -0.00800987)
(0.159739 0.00988795 0.000897959)
(0.12964 -0.147686 -0.00488755)
(0.334161 -0.0463514 -0.020068)
(0.00203868 -0.0253815 0.00128326)
(0.290485 -0.26841 0.846899)
(0.0063484 -0.011089 0.0108122)
(0.120632 0.0741291 -0.0953107)
(0.099935 -0.0096719 0.00134591)
(0.171871 0.0192582 0.829637)
(-0.000379647 -0.0023256 -0.000714384)
(0.0443703 -0.00196178 0.00498417)
(0.15894 0.112977 -0.0683097)
(0.00945647 -0.0508824 0.000680783)
(0.00421821 -0.00119835 0.00154036)
(0.246977 -0.060651 -0.0117191)
(0.2298 0.0116304 -0.0266361)
(0.262027 -0.187252 -0.751008)
(0.0169083 -0.00141752 0.000600329)
(-0.000748346 0.000774256 -0.00035353)
(0.0777366 0.116358 0.00586187)
(0.254739 -0.119751 -0.0137841)
(0.174917 -0.00827458 -0.0428186)
(0.00699065 0.0194431 0.000350359)
(-0.000737136 -0.00246986 -0.000692896)
(0.276621 0.0228254 -0.00385566)
(0.0138717 0.00367533 -0.00280362)
(0.0156351 -0.000667548 -0.0012131)
(0.20311 0.0341465 -0.00582329)
(0.426691 -0.0178939 0.0105427)
(0.00283792 0.00957547 0.000766855)
(0.233833 0.0601747 0.125835)
(0.296687 0.0451666 -0.126952)
(0.0175069 0.0904904 -0.00287713)
(0.394761 -0.235781 0.123275)
(-0.00140093 -0.00505359 -0.00163282)
(0.198647 0.0412791 -0.000371123)
(0.0150706 0.00274892 -0.00180768)
(0.134026 -0.146169 -0.00639012)
(-0.000137407 0.00358424 0.000713918)
(0.124195 0.00750211 -0.204044)
(0.434494 -0.116945 0.128886)
(0.0268243 -0.0712542 -0.000680042)
(0.622455 0.0303774 0.843473)
(0.512207 0.277573 0.0216474)
(0.0255552 0.020306 -0.00328909)
(0.352357 -0.2252 -0.124292)
(0.145171 0.0128708 -0.000211322)
(0.566511 0.0967023 -0.803402)
(0.00654069 -0.0376144 0.006415)
(0.0210781 0.0201469 0.00262192)
(0.185235 -0.121618 -0.118053)
(0.0112431 -0.0169045 -0.00023917)
(-7.85273e-05 0.00305292 -0.000351493)
(-0.00042329 0.00048631 -0.000280703)
(0.366058 0.0352824 -0.00466156)
(0.000124624 0.00200304 -0.000545009)
(-0.000226707 0.00204443 -0.000759241)
(0.000860601 0.00208826 -0.000855887)
(0.320195 0.0979385 0.000981284)
(-0.000722991 0.000434839 -0.000688827)
(0.0291826 -0.00490439 0.00257449)
(0.00857508 0.00972827 -0.00687676)
(0.0469453 0.0196127 0.000139125)
(0.290386 -0.131992 0.762562)
(0.000194879 0.0105248 0.000616618)
(0.458856 -0.135978 0.00585569)
(3.95842e-05 0.00235881 0.000206862)
(-0.00187016 -0.00405256 0.00376401)
(0.0237656 -0.000477832 0.00102507)
(0.0046611 -0.0746554 -0.00197907)
(0.0182699 0.00266517 0.00334752)
(0.0212243 0.000448088 0.000565988)
(4.96143e-05 1.25896e-05 -0.000394204)
(0.213386 -0.113738 0.0673278)
(0.00184598 0.000574701 0.000830677)
(0.00129492 0.0103284 0.000145933)
(0.636196 0.172007 -0.0668023)
(0.00343931 0.0128345 -0.00299108)
(0.148868 0.11541 -0.00456648)
(0.420055 -0.301217 -0.0952175)
(0.0301143 0.00687102 0.0859773)
(0.0841978 0.00420548 -0.00289263)
(0.238477 0.0304037 -0.00134248)
(0.216399 -0.113211 0.0106052)
(0.0148854 0.0372808 0.00145969)
(0.12299 -0.19326 -0.0339663)
(-0.000714828 -0.00153021 0.00141952)
(0.136569 -0.296651 -0.777633)
(0.0793486 0.0254039 0.00896903)
(0.00394109 -0.0265063 -0.00165129)
(0.708914 -0.0249671 0.149282)
(0.0188065 -0.0628077 0.000600522)
(-0.000322587 -0.0042141 -0.00154694)
(-0.0010189 -0.00432342 -0.000593654)
(0.000212266 0.000827543 -0.000164506)
(-0.102681 0.0876092 0.0933213)
(0.000519156 0.00398703 -0.00109469)
(0.525087 0.00711607 0.979122)
(0.531642 -0.107013 -0.974556)
(0.341943 0.157271 0.0109719)
(0.203814 0.0365449 0.00034288)
(0.0233274 0.0556068 -0.00405116)
(0.0244941 -0.0278742 -0.000392131)
(0.000588759 -8.84785e-05 0.00127054)
(0.000408705 -0.00399529 3.05331e-06)
(-0.00577594 0.00363914 -0.00836082)
(0.241288 0.0699928 -0.00274429)
(0.160627 -0.137195 -0.00189706)
(0.00524271 -0.00978656 0.00438064)
(0.196021 0.0329384 -0.0164318)
(0.00023982 0.00160836 -0.000570021)
(0.0209461 0.00147234 0.00127355)
(0.0365735 -0.0284253 0.00801117)
(-0.000445287 0.00431582 -0.000755191)
(0.0839206 -0.0624075 0.48372)
(0.00192394 0.0047587 -0.000203937)
(0.207883 0.0135279 -0.00435494)
(0.195722 -0.122948 0.00800805)
(0.00776849 -0.0124473 -0.00121074)
(0.278174 0.0379193 -0.00233782)
(0.0488826 0.0237816 -0.00940678)
(0.000700895 -0.00150061 -0.00139804)
(0.0927408 -0.126873 0.00312798)
(-0.000212278 -1.56618e-05 -7.5903e-05)
(0.000755708 -0.0105813 5.10016e-05)
(0.172455 0.0178975 0.00087972)
(0.0114977 -0.0260604 -0.000193271)
(0.267248 0.0696503 0.000599701)
(0.104366 -0.00357202 -0.00230438)
(0.150616 0.108818 0.00406471)
(2.48892e-05 0.00321374 -0.000451256)
(0.000157447 3.23734e-05 -0.000277446)
(0.0197141 0.000499294 0.00274023)
(-0.000132263 0.000114626 -0.000199982)
(0.38865 0.146503 -0.00152396)
(0.00288598 0.00255441 7.40419e-05)
(0.188939 0.164199 -0.827852)
(0.00227782 0.00772916 0.00105998)
(0.112945 -0.0578361 0.0143012)
(0.0650089 -0.0341333 -0.654919)
(0.0358006 -0.0493503 -0.00107819)
(0.0450735 0.00699904 -0.000238306)
(0.0303748 -0.0420422 -0.000459968)
(0.00117448 0.00139802 -0.00045052)
(0.000238975 0.00197264 -0.000847711)
(-0.000277815 0.00148353 -0.000495108)
(0.549368 -0.0294953 -0.819349)
(0.00293199 0.0145501 -0.000730121)
(0.311137 -0.113228 0.135272)
(0.00134067 -0.00627984 -0.00124392)
(0.00287726 -0.00530347 -0.000994017)
(-0.00107743 0.00365722 -0.000732173)
(-0.00271851 0.0020827 -0.000931964)
(-0.00102055 0.00307809 -0.000652312)
(0.242951 -0.0590227 -0.0273089)
(0.0231645 0.00708384 -0.00469144)
(0.244104 0.14852 0.100504)
(0.000492445 -0.00291212 -0.000565552)
(0.000520109 -0.00423927 -0.00118409)
(0.239396 0.0660509 -0.00176059)
(-0.000164855 -0.000380356 0.000423472)
(0.0251155 -0.00328455 -0.00807987)
(0.179205 0.0385932 0.000511678)
(-0.000709446 -0.00285394 -0.00104535)
(0.254974 0.0416381 0.025538)
(0.0256718 -0.0573608 0.0573074)
(0.00314911 -0.0089464 -0.00174567)
(0.61255 0.0666317 0.139441)
(0.111014 0.243495 -0.879533)
(0.146027 0.133667 -0.0630082)
(0.0143134 -0.023758 -0.00122856)
(0.00822655 0.0191137 0.00223387)
(0.109128 -0.139185 -0.00226366)
(0.0381049 -0.091797 -0.00305592)
(0.0124639 -0.010036 0.058498)
(0.134838 0.0154417 -0.0065017)
(0.000413928 -0.00614105 -0.000372263)
(0.395574 0.194199 -0.0073603)
(0.32684 -0.00346265 0.13166)
(0.101862 -0.126376 -0.00363587)
(0.149967 -0.136621 0.853305)
(0.489127 -0.120514 0.00700836)
(0.23546 -0.220807 0.100802)
(0.0089955 -0.03327 0.00564736)
(0.0138101 0.0344234 0.00360456)
(0.231351 0.0248418 -0.00406967)
(0.0549884 -0.102403 0.00662626)
(0.00370391 -0.0250426 0.00145327)
(0.026299 0.00315975 -0.00280179)
(0.0103478 0.011242 0.0321099)
(0.00409682 0.0117386 -0.000582485)
(0.0898787 -0.130936 0.104374)
(0.0738906 -0.127939 -0.000872669)
(0.231206 -0.252807 0.793214)
(0.00202658 -0.0042879 3.07969e-05)
(0.244581 0.056576 0.0448923)
(0.230986 0.150577 0.00455191)
(0.000615111 -0.00419606 -0.000276723)
(-0.00100691 -0.00182524 -0.00110771)
(0.0187173 0.0213427 0.00115546)
(0.00614608 -0.0094381 -0.000607428)
(0.00921307 0.0303871 -0.0244826)
(0.00830296 -0.0473095 -0.00082168)
(0.59347 0.0185538 -0.00246031)
(0.319888 0.0101343 0.0092782)
(0.00106213 -0.00409031 0.00468583)
(0.232654 0.136404 0.866759)
(0.120744 0.0342017 -0.00301859)
(0.00115594 0.000138266 -0.00088563)
(0.632737 0.0566564 -0.725455)
(0.274516 0.186207 -0.032897)
(0.243197 0.100148 0.00065535)
(0.43972 0.0684584 -0.0284831)
(0.0610279 -0.00577121 0.0415799)
(0.0149202 0.0544813 -0.000790086)
(0.0318865 -0.0424736 -0.000997969)
(0.0880479 0.0912566 0.00236329)
(0.0026099 0.00402744 -0.0150982)
(-0.000802089 -0.00113489 -0.00141085)
(0.765865 0.0764085 -1.04243)
(0.67108 -0.00759969 0.962492)
(0.144516 -0.0161563 0.013546)
(0.315767 0.145264 -0.433078)
(-0.0020622 -0.000972464 0.00390214)
(-0.00309533 -0.000745281 0.00216391)
(0.20387 0.22155 0.790051)
(0.16846 0.0812358 0.0673399)
(0.16286 0.0777716 -0.00105864)
(0.0215054 -0.030506 0.00706241)
(0.245803 0.0354293 -0.00114267)
(0.0122282 -0.000754833 0.000465773)
(-0.000779157 -0.00380142 -0.000167687)
(0.591688 -0.0737408 -0.105687)
(0.0035199 -0.0119884 -0.00131384)
(-0.000118364 0.00188135 -0.000156826)
(0.0165842 0.00112919 0.000235253)
(0.402721 0.211949 0.00680019)
(0.039193 -0.0856995 -0.00627792)
(0.0169506 -0.000315388 -0.000428471)
(0.0440457 -0.0969378 -0.00291904)
(-0.000139467 0.00262839 -7.89167e-05)
(0.0244621 -0.0995878 -0.0111318)
(0.0900152 0.108846 0.000149208)
(0.0102973 -0.0154113 -0.00152931)
(0.293047 0.0541063 -0.049758)
(0.253468 0.114507 -0.0344137)
(0.00124868 0.00171934 -0.000657822)
(0.323387 0.0971605 -0.0783725)
(0.00145642 -0.00615536 0.000336155)
(0.593401 -0.130044 -0.0855746)
(0.116462 -0.0992987 -2.46591e-05)
(0.00069573 -0.000888726 0.000497082)
(0.254701 -0.0393006 0.0106316)
(-0.00165702 -0.00107885 -0.00195807)
(-0.000392665 -0.00250122 -0.00198691)
(0.0493073 0.0919472 0.000145293)
(0.017818 0.000465558 -0.000992554)
(-0.20434 0.0490766 0.822752)
(-8.57585e-05 0.000943623 -6.04734e-05)
(-0.0516763 -0.0435171 -0.718473)
(0.000247959 0.000729996 0.000969509)
(0.429444 0.261327 -0.0393502)
(0.0214563 -0.0855448 -4.42899e-06)
(-0.014931 -0.00458116 0.00401005)
(0.00946645 -0.00173605 0.00171758)
(-0.00034349 0.00766253 1.62802e-06)
(0.000608191 -0.00157936 0.000413278)
(0.149442 0.0466732 0.0104309)
(0.0159084 -0.00171279 0.000817534)
(0.0297835 0.0247652 0.00528845)
(-0.077513 0.186842 -1.1392)
(0.0490022 0.0337691 -0.0592941)
(0.00310686 0.00148413 0.000435756)
(0.000611828 -0.00310023 -0.000814045)
(0.211125 -0.0366523 0.0282985)
(0.000466809 -0.000218611 0.000311303)
(0.000255559 -0.00276609 -5.50847e-05)
(0.208466 0.0842685 -0.0165561)
(-0.000449645 0.003526 0.000179603)
(0.00043577 -0.00416366 -0.00104329)
(0.00063722 -1.88192e-05 -2.74215e-05)
(-0.000160849 0.000168779 -0.000588498)
(0.0428203 -0.0031898 0.000960717)
(0.11712 0.00640515 -0.0207361)
(0.391467 0.0775202 -0.0409126)
(0.00720994 -0.0408588 -0.000129898)
(0.362227 0.0832199 -0.0458223)
(0.0336559 -0.00385166 -0.000475367)
(0.0777392 -0.079809 0.0760725)
(0.318486 0.110831 -0.000596614)
(8.23522e-05 3.60437e-05 -0.000109994)
(0.267631 0.00441884 -0.00252342)
(0.354208 0.136445 -0.0455321)
(-0.0310953 0.0916294 0.00029913)
(0.220125 -0.067732 -0.0015508)
(0.318024 -0.181243 0.77265)
(0.022552 -0.000829847 -0.00191176)
(0.123616 -0.133225 -0.000324636)
(0.158375 0.130388 0.00801638)
(0.00853165 -0.0226465 0.000561222)
(0.00668547 -0.0332277 -0.00138319)
(0.16771 0.00784668 -0.0197508)
(0.554806 -0.132529 0.0590297)
(0.389446 -0.154309 0.00167533)
(0.0938055 -0.26029 -0.983479)
(-9.15508e-06 -0.00137577 0.00112027)
(0.452123 -0.588631 0.988703)
(0.536912 -0.687011 -1.00579)
(0.0436576 -0.0449292 -0.00272165)
(-0.0012537 0.0121795 -0.00192716)
(0.243458 -0.0339803 0.00461857)
(0.426607 -0.238697 0.00139926)
(0.410724 0.0287012 -0.943647)
(0.0184716 0.0594579 -0.00152342)
(0.0168286 0.000744712 -0.00193568)
(0.0111736 -0.0490085 -0.000216192)
(0.120724 -0.00894706 0.831475)
(0.0123849 0.000528653 -0.000147584)
(0.13943 -0.0981463 0.15593)
(0.00569638 -0.033323 -0.00135631)
(0.00310516 0.0099758 -0.00109494)
(0.208627 -0.277628 -0.865268)
(0.0132282 0.0138582 -0.000969997)
(6.5599e-05 -0.00076351 4.66876e-05)
(0.000530019 -0.00134674 0.000123224)
(0.00204634 0.010289 0.00110258)
(0.0619786 0.122349 0.0276316)
(0.614472 0.31754 0.78921)
(0.0797121 0.0400664 0.0307974)
(0.0040617 -0.0110267 0.00482889)
(-8.08372e-05 0.00303834 -0.000489571)
(0.035772 0.0527972 -0.0200816)
(-4.51433e-05 -0.00279058 0.0085552)
(0.235676 -0.0633241 -0.0342967)
(0.170276 0.041362 -0.0779262)
(0.394408 0.0906248 0.0182542)
(-0.132451 -0.0724966 0.891273)
(0.245786 0.150998 0.000415947)
(-0.000853128 -0.000712409 -0.000866858)
(0.0563583 -0.0351918 -0.0126046)
(0.00139873 0.00395594 -0.000970314)
(0.0548373 -0.0208266 -0.00143439)
(-1.30639e-05 0.00143305 -0.000183808)
(-0.000470418 0.000297403 -0.000225512)
(0.668793 0.0188476 -0.00549987)
(0.162493 0.0764564 -0.00992587)
(-7.1252e-05 -0.00411516 -0.00194163)
(0.00121312 -0.0139785 0.000942087)
(0.156847 -0.118906 0.181246)
(0.0272053 -0.000893432 0.00374852)
(0.296277 0.129962 0.0507043)
(0.00108053 0.000453456 -0.000838693)
(0.0146594 -0.00336447 -0.00329012)
(0.131554 0.0549349 -0.000137109)
(0.207694 0.103224 0.000395736)
(0.533567 0.0151729 0.0179423)
(0.00333719 -0.00207753 0.00289863)
(0.00739093 -0.00970561 0.00279907)
(0.220285 0.15841 -0.0198293)
(0.407648 -0.106342 -0.88396)
(0.558416 0.0345005 -0.0219947)
(0.00826486 -0.0124712 -0.00186127)
(0.000124217 0.00223967 0.000311015)
(0.0211142 0.066734 -0.000237658)
(0.00104249 -0.00476817 0.000162232)
(0.681333 -0.156714 -0.119025)
(0.36224 -0.0891665 -0.0042922)
(-0.0753973 -0.272576 -0.755463)
(0.0331784 -0.0085247 0.00228157)
(0.30367 0.100097 -0.184994)
(0.211107 0.0877071 0.00388375)
(0.402894 0.120646 0.00796324)
(-0.000906489 -0.00292756 0.000813907)
(0.02018 -0.0362459 0.0223137)
(0.238594 -0.0962124 -0.00720115)
(0.421268 -0.00502941 0.93362)
(0.000763295 -0.0104627 -0.001144)
(0.000862706 -0.00198059 0.00110289)
(0.000160678 0.000599824 -4.17368e-05)
(0.0115061 -0.0233117 -0.00196834)
(0.00593796 -0.00822318 -0.00129361)
(0.42947 0.171159 0.00416108)
(0.30264 -0.11143 0.116655)
(0.27698 0.0493171 -0.000817727)
(0.12015 0.114032 -0.041542)
(0.0883152 -0.0104056 -0.0296955)
(0.00063981 -0.0232851 0.00218381)
(0.118558 0.0199536 -0.00436675)
(-0.000909898 0.000119077 -0.00079563)
(0.251464 0.0477164 0.0315705)
(0.201374 0.0971622 0.0242503)
(0.000652206 0.00428103 0.00122172)
(0.105544 0.060493 -0.0048774)
(0.00010426 0.000290053 -3.19983e-05)
(0.253789 -0.0727578 -0.00779959)
(0.000664315 0.00097221 0.000220041)
(0.270131 0.143229 -0.724221)
(0.128278 -0.105122 0.703451)
(0.561559 0.113715 0.152447)
(0.00569767 -0.0153369 -0.00163907)
(0.137391 -0.0254591 -0.00776857)
(0.319516 -0.0639493 -0.00078962)
(0.543876 0.246085 -0.0378085)
(0.0339525 -0.00274567 0.000757898)
(-0.00253038 -0.00457951 -0.000603953)
(0.264343 0.00274085 -0.00440108)
(0.214091 -0.0561629 -0.00139603)
(0.439725 -0.0288196 -0.0208033)
(0.159694 -0.0760323 0.0190764)
(0.0046528 -0.0171562 0.000559447)
(0.0048215 -0.0251674 0.000352511)
(0.220215 0.0885552 0.0573631)
(0.325453 0.0303604 -0.0509964)
(0.00104767 0.00188733 0.000288804)
(0.0817316 -0.0225028 0.00261104)
(0.000848586 -0.00136658 -0.000226433)
(0.00227137 0.00589147 -0.000965221)
(0.132124 0.0561493 -0.130107)
(0.0190549 -0.0625132 0.000281788)
(0.00604537 -0.00451559 0.00745555)
(0.176847 0.0308346 -0.000132615)
(-0.000598201 0.000986948 -0.000484301)
(-0.132241 0.23665 -0.843189)
(0.0130592 0.000483845 -0.00295152)
(0.31493 -0.17104 0.00484951)
(0.00319402 -0.00447492 0.00180741)
(0.320557 0.151987 0.0453636)
(0.157912 0.139037 0.797143)
(0.00015119 0.0025741 0.000393983)
(0.214478 -0.110042 -0.0605452)
(0.397264 0.128777 -0.0339156)
(0.0306398 -0.0753585 -0.00457649)
(0.0833334 -0.165457 -0.0181039)
(-0.0173021 0.0153336 -0.00672854)
(0.147028 0.0375738 -0.00156998)
(0.333629 0.179707 0.00239359)
(0.0161142 0.00962787 -0.000834178)
(0.0954868 0.00280764 -0.00118002)
(0.202762 -0.132336 -0.0209826)
(0.0492647 0.0242392 0.0256293)
(0.33183 -0.180666 -0.790607)
(0.00929118 -0.0492024 -0.00129195)
(0.00219286 -0.000499255 0.00240929)
(0.000917995 0.0123792 -0.000550217)
(0.203772 0.104638 -0.656992)
(0.111166 -0.0572151 0.00776156)
(0.00894424 -0.267661 0.894663)
(0.124615 -0.261941 -0.886483)
(0.204287 0.0562418 -0.103784)
(0.0104409 -0.0557383 -0.000605633)
(0.153389 0.00614515 0.039885)
(0.000864122 0.0145785 0.00720048)
(0.00688631 -0.0113726 -0.000701226)
(0.00297981 -0.000284597 0.00122813)
(0.0110901 -0.0173312 0.00583557)
(0.00330653 0.00144045 0.0064708)
(0.0778711 0.0248638 0.00047664)
(0.191633 -0.109625 0.0292413)
(0.0130925 -0.0584346 -0.00500293)
(0.174922 0.0193791 -0.00190326)
(0.18883 -0.106604 -0.0846657)
(0.00911297 -0.00419991 0.00720678)
(0.041691 0.0478696 0.0338579)
(0.0533165 -0.00567362 -0.00101217)
(0.0124683 0.0128201 0.00482598)
(0.00176971 -0.0107507 0.000699998)
(0.00465202 0.0115983 -0.00502054)
(0.000485978 0.000191645 -0.000282628)
(0.0449825 -0.0571918 0.0249872)
(0.0108627 0.0277407 -0.00151674)
(0.055487 0.00105847 0.00219386)
(-0.00123409 0.00304546 0.0020714)
(0.0145565 0.002087 -0.00617155)
(-0.000409482 0.000878974 -0.000690559)
(0.0716 0.0616959 0.315372)
(0.00100248 -0.00567023 -0.00195467)
(0.00662813 -0.0137182 -1.67276e-05)
(0.0241686 -0.0315989 0.0322613)
(0.0100266 -0.000759595 -0.00228104)
(0.00977517 0.00133991 -0.000411534)
(-0.000778348 -0.00891088 -0.000258963)
(0.06389 -0.0132413 -0.00679357)
(-0.000232162 0.00175371 0.000553737)
(0.0448811 -0.0161293 0.00423327)
(0.0683763 0.110232 -0.000589732)
(-0.000107846 0.000591058 0.00345111)
(0.00178897 0.00257226 -4.67697e-05)
(0.00457923 -0.0172401 -0.00179491)
(0.232643 0.113051 -0.0136534)
(0.00408863 -0.0300117 -0.0027927)
(0.357576 0.113975 0.0018635)
(0.408317 0.151096 -0.0127928)
(0.398318 -0.182223 0.0206038)
(-0.0297944 -0.132095 -0.102533)
(0.00189777 0.0136768 -0.000317683)
(0.1807 0.0664343 0.0024463)
(0.150025 0.182935 -0.00167723)
(0.242693 0.106417 -0.0781917)
(0.00364925 -0.00828796 0.00100852)
(0.0271962 -0.0751657 0.00024741)
(0.0294218 -0.00142606 -0.0056479)
(0.520337 -0.0875143 0.0402941)
(0.147154 0.134389 -0.0155365)
(0.219191 -0.150823 0.00412184)
(0.17037 -0.17255 -0.0204265)
(0.0129206 -0.000785025 -0.000313899)
(0.011692 0.000845629 -0.00102324)
(0.0292796 0.0446973 0.367458)
(0.561148 -0.0812844 -0.00605592)
(0.00444757 0.00205432 0.00228404)
(0.113526 -0.144292 -0.0158843)
(-0.0665421 0.00752178 0.0145438)
(-0.000105729 0.000634624 -0.000285176)
(0.349963 0.0301644 0.00537928)
(0.0151291 -9.7166e-05 0.000617642)
(-4.32171e-05 3.45175e-05 -0.000123987)
(0.0973222 0.0863604 -0.0142015)
(0.0117415 -0.000107915 -0.00060765)
(0.389078 0.163159 0.106386)
(0.271924 0.00347719 -0.00587968)
(0.537058 -0.125578 0.0681773)
(0.176351 -0.0684875 0.0413087)
(0.347435 0.174229 -0.00194634)
(0.0365024 -0.084633 -0.00117844)
(0.0234528 0.0149822 -0.00584135)
(0.0315009 0.0202854 -0.000942525)
(0.257247 0.163987 -0.0315173)
(0.368986 0.0946574 -0.0017082)
(0.121486 -0.00609584 0.000533569)
(0.0272237 0.0747097 -0.00271187)
(0.322167 -0.0894521 -0.00661256)
(0.000170105 0.00863286 8.71237e-05)
(-0.0590854 -0.165037 -0.788244)
(0.015098 -0.0178216 0.0149813)
(0.0169339 -0.00156515 -0.000244862)
(0.0146835 0.00111556 0.00170214)
(0.0603452 -0.0377153 -0.0492748)
(0.0135083 -0.00232182 -0.00246095)
(0.194096 0.0659473 0.0620336)
(0.271674 0.146807 -0.859223)
(0.190225 0.064134 -0.0611793)
(0.235937 0.0313776 0.047922)
(0.0885556 0.0640842 -0.00222203)
(0.0667617 -0.00370874 0.0109182)
(0.0176758 0.000761242 -0.000624225)
(0.175405 0.0209162 -0.0350224)
(0.0380787 0.00531486 -0.00729567)
(0.0172303 0.000858128 -0.000476295)
(0.0101343 -0.00887972 -0.00275569)
(0.0171487 -0.00101478 0.000590672)
(0.0580016 -0.0131508 0.00295062)
(0.17325 0.0213303 -0.0382801)
(0.0974003 -0.00779939 0.00223325)
(0.159001 -0.274186 -0.872174)
(0.181385 0.145754 -9.3883e-05)
(0.12799 0.0019713 0.00252213)
(0.394781 0.151724 -0.13068)
(0.350335 -0.0415238 -0.0169573)
(0.106696 0.00317775 0.000523091)
(0.500881 0.0651626 0.0912972)
(0.185284 -0.0655161 -0.129271)
(0.273361 -0.0441844 0.0426379)
(0.432953 -0.115339 -0.0412021)
(0.0103298 -0.0142502 -0.000958203)
(0.0451521 0.000777381 -0.0115232)
(-0.01318 0.00464287 0.00232823)
(0.422987 -0.097183 -0.0472322)
(0.418453 -0.1858 0.812879)
(0.215396 -0.163569 0.0299315)
(0.0317566 0.00171341 -0.000135748)
(0.0343943 -0.00593574 0.00134338)
(0.0399185 -0.0762119 -0.00452074)
(0.46669 0.0835888 -0.0928676)
(0.0614934 0.00954462 -0.00686172)
(0.426955 0.155763 -0.0295969)
(0.151798 0.0624274 -0.0270945)
(0.0125633 0.000662554 0.00152439)
(0.0972772 -0.00284825 -0.00203826)
(-0.106675 0.116157 0.00264176)
(0.0240004 0.000809893 -0.00121372)
(0.0143048 0.000267049 0.00130208)
(-0.00186426 0.00196248 0.00185101)
(-0.0131312 0.00376581 -0.00151721)
(0.447658 0.140011 -0.0193023)
(0.114963 0.230934 -0.0176278)
(0.254522 -0.0404974 -0.037118)
(0.31719 0.0482277 0.0685433)
(0.013904 -0.00834566 0.00127583)
(0.00360387 -0.0346835 -0.00426232)
(0.0200463 0.0670627 -0.00501462)
(0.0148966 -0.0575886 -7.75722e-05)
(0.282725 0.0456823 0.00384295)
(0.589631 -0.201883 1.174)
(0.528369 -0.243113 -1.15548)
(0.17579 0.0311976 0.0761137)
(0.433645 0.132773 -0.0216889)
(7.57619e-05 -1.31167e-05 -2.03283e-05)
(0.470278 0.184092 0.0224786)
(0.452257 0.133156 -0.0682579)
(0.105911 -0.0872211 -0.000694188)
(-0.000224583 0.0028059 -0.00141874)
(0.440384 0.0887255 0.132356)
(0.0172606 0.0381562 0.0418099)
(0.0151369 -0.0542831 -0.000796854)
(0.404742 0.00301747 0.830394)
(0.00310533 -0.0271333 -0.000857631)
(0.108126 -0.0335819 0.00414674)
(0.246568 -0.00573787 -0.584232)
(0.0692406 -0.0205063 0.0221444)
(0.0027489 -0.0150206 -7.31761e-05)
(0.622155 0.0335854 0.00158942)
(0.00827539 -0.0180331 0.00119006)
(0.00281555 0.0054572 0.00382357)
(-0.147421 0.0355364 -0.694785)
(0.0166206 -0.00144147 0.0029041)
(0.00338649 0.0160173 0.00993617)
(0.245716 0.148744 0.00443177)
(0.0140637 0.000621225 -0.00145392)
(0.0150134 -0.00184315 0.000243152)
(0.0246251 -0.000140568 2.24337e-06)
(0.181382 0.0420721 -0.00156223)
(0.0226943 0.0158678 0.000411868)
(0.486727 0.115508 0.722169)
(0.0137615 0.0163549 0.0020442)
(0.512492 -0.290665 -0.855881)
(0.523344 0.087969 -0.732815)
(0.013974 2.51878e-05 -0.00527411)
(0.00526294 -0.0323462 0.000350509)
(0.00276275 0.00869314 -0.00351786)
(0.612911 -0.0176418 -0.0165027)
(0.0206559 -0.0021525 -0.00349566)
(0.0253787 0.00492925 0.0329777)
(0.00237406 -0.0234476 -0.00123649)
(0.0161244 0.00136958 0.000194834)
(0.124556 0.0138848 0.0148566)
(0.00125491 0.0127999 0.0017092)
(0.187975 0.340205 -0.865612)
(0.163674 -3.44944e-05 0.003051)
(0.0313569 0.000175275 0.00057129)
(0.0763725 -0.0454241 -0.0146198)
(0.105467 0.117292 -0.0303296)
(-0.145637 -0.319838 -0.784117)
(0.626197 0.228738 1.08339)
(0.0225021 -0.0778487 0.00139077)
(0.0353124 0.129861 -0.00210209)
(-0.174233 -0.275949 0.775487)
(0.102647 -0.0124065 -0.0497347)
(0.26399 -0.0173549 -0.0947223)
(0.0140215 0.000983376 0.000866735)
(0.271239 0.281625 -0.0483142)
(0.000608348 -0.00567643 -0.000606144)
(0.00153096 -0.00117921 0.000352465)
(0.00812181 -0.0394404 0.00188607)
(0.189767 -0.0192069 -0.00597467)
(0.541814 -0.109218 0.948462)
(-0.121012 -0.242828 -0.835641)
(0.259408 0.0949144 -0.00222122)
(0.00772467 0.00589744 0.00274665)
(-0.000149249 0.000725521 0.000326661)
(0.0134444 -0.0467839 0.001473)
(0.287845 -0.126378 -0.000443709)
(0.000260654 -0.00693038 -0.000871393)
(0.0529279 -0.0321522 0.0417682)
(0.353809 0.191612 -0.000349448)
(0.256888 -0.103937 -0.00523241)
(0.121183 -0.126162 -1.60951e-07)
(0.00671976 0.0291803 -0.00542976)
(0.236697 -0.0215578 -0.530938)
(0.0273103 -0.0843331 0.00179144)
(0.264973 -0.0755012 -0.00197904)
(0.267992 0.0864533 -0.0161003)
(0.00321615 -0.0287413 -0.000569775)
(0.0575874 0.584896 -0.875989)
(0.00851114 0.013157 0.00247087)
(0.105463 -0.0494489 -0.00117992)
(0.919424 0.120669 -0.140721)
(0.66494 0.222473 0.883765)
(0.363052 -0.0608426 -0.0247023)
(0.222085 -0.0262003 -0.0011012)
(0.215459 -0.312646 0.830507)
(0.000955675 -0.00321846 -0.00190113)
(0.102291 -0.0393855 0.0240245)
(0.375272 0.0397757 -0.0678612)
(0.0820417 -0.0424137 0.339823)
(0.000967944 -0.00209834 0.000997027)
(0.011971 -0.0575779 0.00187496)
(0.390605 0.0615163 -0.111148)
(0.469602 0.150999 0.725543)
(0.00635655 -0.0367661 0.00125132)
(0.0065124 -0.0346354 -0.000237721)
(-0.00233597 -0.00245022 -0.00140651)
(0.0110102 0.0250758 0.0373463)
(0.102888 -0.135411 -0.000919073)
(0.0790402 0.107124 0.000479459)
(0.0900148 -0.0202572 0.00697626)
(0.283484 0.159185 -0.908556)
(0.160465 -0.0878926 -0.0152368)
(0.228455 -0.0442443 0.00299643)
(0.492233 0.136045 0.00171533)
(0.000206859 0.00121921 0.000438529)
(0.169418 0.00142057 -0.68342)
(0.30586 0.066993 -0.053915)
(0.13056 -0.125881 0.0120869)
(6.0603e-05 0.00013013 -2.51261e-05)
(0.576129 0.113835 0.665449)
(0.0142032 -6.38252e-05 0.00052723)
(0.332872 0.176907 -0.0141786)
(0.00386227 -0.00424214 0.00729343)
(0.0265768 0.00282079 0.00235457)
(0.0147177 -0.00146531 0.000349303)
(0.0103092 -0.00166413 -0.000527849)
(0.000436419 0.0140365 0.00100935)
(0.0163419 0.032075 0.00024658)
(0.0179744 0.410299 -0.92691)
(0.120085 0.0790227 -0.399305)
(0.322166 -0.19373 0.828151)
(0.0113422 0.0010348 -0.00123703)
(0.00727281 -0.0160664 -0.00243671)
(0.0102596 -0.0537494 -0.00261627)
(0.0689631 0.00652666 0.0101326)
(0.0474865 -0.104941 -0.00165062)
(0.125654 -0.14175 -0.000287679)
(-0.0750079 0.0739892 -0.802652)
(0.00109325 -0.00513273 -0.00106002)
(0.727201 0.223583 -0.791811)
(0.0409271 0.0673782 0.0148303)
(0.349536 0.0885256 -0.0932114)
(0.0104228 -0.000224311 0.0017769)
(0.255498 -0.0270572 -0.000954855)