/*--------------------------------*- C++ -*----------------------------------*\
| =========                 |                                                 |
| \\      /  F ield         | OpenFOAM: The Open Source CFD Toolbox           |
|  \\    /   O peration     | Version:  v2012                                 |
|   \\  /    A nd           | Website:  www.openfoam.com                      |
|    \\/     M anipulation  |                                                 |
\*---------------------------------------------------------------------------*/
FoamFile
{
    version     2.0;
    format      ascii;
    class       volScalarField;
    location    "595";
    object      age;
}
// * * * * * * * * * * * * * * * * * * * * * * * * * * * * * * * * * * * * * //

dimensions      [0 0 1 0 0 0 0];


internalField   nonuniform List<scalar> 
6598
(
0.012502
0.0124996
0.0124997
0.0124998
0.0124998
0.0124998
0.0124998
0.0124997
0.0124996
0.012502
0.0375108
0.0374969
0.0374971
0.0374976
0.0374979
0.0374979
0.0374976
0.0374971
0.0374968
0.0375108
0.0625317
0.062493
0.0624912
0.0624919
0.0624924
0.0624924
0.0624919
0.0624912
0.0624929
0.0625317
0.0875652
0.087489
0.0874819
0.0874818
0.0874823
0.0874823
0.0874818
0.0874819
0.0874889
0.0875651
0.112611
0.112485
0.112469
0.112467
0.112467
0.112467
0.112467
0.112469
0.112485
0.112611
0.137669
0.137483
0.137454
0.137448
0.137447
0.137447
0.137448
0.137454
0.137482
0.137669
0.162738
0.16248
0.162436
0.162425
0.162422
0.162422
0.162425
0.162436
0.16248
0.162738
0.187819
0.187479
0.187415
0.187397
0.187392
0.187392
0.187397
0.187415
0.187479
0.187818
0.212909
0.212479
0.212392
0.212366
0.212358
0.212357
0.212366
0.212392
0.212478
0.212908
0.238009
0.237479
0.237367
0.237331
0.237319
0.237319
0.23733
0.237366
0.237477
0.238007
0.263119
0.26248
0.26234
0.262293
0.262276
0.262276
0.262291
0.262338
0.262478
0.263116
0.288238
0.287482
0.287311
0.287251
0.28723
0.287229
0.287249
0.287308
0.287478
0.288233
0.313366
0.312485
0.31228
0.312207
0.312179
0.312178
0.312204
0.312275
0.312479
0.313359
0.338504
0.337489
0.337248
0.337159
0.337126
0.337124
0.337154
0.33724
0.337479
0.338492
0.36365
0.362494
0.362214
0.362109
0.362069
0.362066
0.362102
0.362203
0.362479
0.363636
0.388807
0.3875
0.387179
0.387057
0.387008
0.387005
0.387046
0.387162
0.387478
0.388766
0.413973
0.412509
0.412144
0.412002
0.411945
0.411939
0.411986
0.412118
0.412476
0.413993
0.439151
0.437522
0.437109
0.436947
0.436879
0.43687
0.436921
0.437069
0.43747
0.438835
0.464342
0.462539
0.462076
0.461891
0.461811
0.461797
0.461851
0.462015
0.462462
0.465336
0.489548
0.487563
0.487046
0.486835
0.486741
0.48672
0.486774
0.486951
0.487439
0.484826
0.514412
0.512239
0.511665
0.511427
0.511316
0.511284
0.511333
0.511517
0.512045
0.533385
0.538937
0.536571
0.535937
0.535669
0.535539
0.535493
0.535534
0.535724
0.536294
0.565915
0.563489
0.560921
0.560223
0.559923
0.55977
0.559709
0.559742
0.559943
0.560545
0.597769
0.588075
0.585297
0.584529
0.584194
0.584017
0.583938
0.583964
0.584187
0.584813
0.628986
0.612703
0.609705
0.608863
0.608491
0.608288
0.60819
0.608211
0.608473
0.609118
0.659585
0.637381
0.634154
0.633233
0.632822
0.63259
0.632473
0.632494
0.632815
0.633476
0.689406
0.66212
0.658656
0.657648
0.657195
0.656934
0.656799
0.656826
0.657231
0.657903
0.718367
0.687378
0.683661
0.682558
0.682061
0.681768
0.681616
0.681656
0.682175
0.682855
0.74733
0.713172
0.709186
0.707979
0.707433
0.707108
0.70694
0.707003
0.707669
0.708349
0.775202
0.739079
0.734813
0.733492
0.732895
0.732535
0.732354
0.73245
0.733298
0.733969
0.801954
0.76512
0.760562
0.759116
0.758464
0.758069
0.757875
0.758016
0.759081
0.759739
0.82766
0.791321
0.786457
0.784873
0.784161
0.783729
0.783526
0.783719
0.785034
0.785684
0.852402
0.817711
0.812526
0.810789
0.810012
0.80954
0.809328
0.809579
0.811173
0.81182
0.876234
0.844323
0.838804
0.836895
0.836046
0.83553
0.835307
0.835619
0.837511
0.838164
0.899234
0.8712
0.865331
0.863226
0.862297
0.861732
0.861496
0.861864
0.864064
0.864729
0.921498
0.898392
0.892154
0.889828
0.888807
0.888188
0.887931
0.888345
0.890848
0.891534
0.943156
0.925957
0.919331
0.916753
0.915626
0.914944
0.914658
0.915101
0.917882
0.918607
0.964424
0.953967
0.946932
0.944066
0.942816
0.942062
0.941735
0.942178
0.945195
0.945987
0.985591
0.98251
0.975041
0.971844
0.970449
0.969611
0.969229
0.969639
0.972825
0.973732
1.007
1.01169
1.00376
1.00018
0.998614
0.99768
0.997225
0.997562
1.00083
1.00191
1.02902
1.04163
1.03321
1.0292
1.02742
1.02637
1.02583
1.02605
1.02928
1.03061
1.05172
1.07249
1.06354
1.05902
1.05699
1.05581
1.05516
1.05522
1.0583
1.05997
1.0744
1.10447
1.09493
1.08983
1.08749
1.08615
1.08537
1.08523
1.08801
1.09021
1.09735
1.13778
1.1276
1.12183
1.11911
1.11757
1.11665
1.11629
1.1186
1.12154
1.12072
1.17275
1.16183
1.15528
1.15208
1.1503
1.14921
1.14862
1.15029
1.15431
1.14404
1.20975
1.19796
1.1905
1.1867
1.18459
1.18331
1.18249
1.18336
1.18875
1.17125
1.24929
1.23645
1.22789
1.22334
1.2208
1.21926
1.21824
1.21821
1.22426
1.20991
1.29207
1.27789
1.268
1.26247
1.25935
1.25745
1.25625
1.25537
1.26077
1.25369
1.33908
1.32311
1.31151
1.30472
1.30079
1.29839
1.29694
1.29546
1.29907
1.29838
1.39179
1.37332
1.35943
1.35093
1.34585
1.34271
1.34087
1.33906
1.34051
1.34285
1.45257
1.43032
1.41315
1.40226
1.39554
1.3913
1.38877
1.38675
1.38645
1.38874
1.52572
1.49733
1.47507
1.46055
1.45134
1.44541
1.44175
1.43929
1.43791
1.43878
1.61964
1.579
1.54796
1.52794
1.51513
1.50675
1.50135
1.49794
1.4958
1.49528
1.7591
1.6925
1.64226
1.61069
1.59089
1.57815
1.56991
1.56472
1.56156
1.56
1.99973
1.84419
1.76089
1.71203
1.68299
1.66409
1.65132
1.64291
1.63771
1.63489
4.63604
2.57721
2.01238
1.86438
1.80125
1.77076
1.75235
1.73965
1.73087
1.72528
13.2764
7.87771
3.86216
2.26823
1.97073
1.89976
1.87027
1.85554
1.84643
1.84029
12.1315
11.9976
8.76267
4.98579
3.00421
2.2284
2.05337
2.00218
1.97821
1.96679
11.6325
11.4155
11.4384
8.82679
6.10395
4.16071
3.11657
2.59281
2.3752
2.28197
11.1733
10.269
9.85686
9.09912
7.76512
6.56581
5.68136
5.00801
4.51185
4.15754
131.516
155.167
155.668
158.352
160.987
164.449
168.343
172.387
176.715
181.117
184.813
187.59
189.507
190.686
191.201
191.344
191.48
191.616
191.755
191.899
192.056
192.234
192.459
192.842
195.001
127.871
149.338
145.779
148.165
152.745
160.09
170.431
183.08
197.222
211.793
225.586
237.6
247.099
253.739
257.483
258.073
255.234
249.04
239.897
228.592
216.489
205.531
197.713
194.01
194.543
121.184
146.774
144.733
144.748
147.114
154.622
168.799
189.073
214.108
242.052
270.26
295.899
316.882
332.057
340.929
343.306
339.324
329.013
312.465
290.16
263.627
236.235
213.146
198.651
194.602
114.176
145.85
144.66
144.511
144.655
149.212
163.644
188.568
222.611
263.573
307.159
347.955
382.233
407.845
423.583
428.786
423.391
407.95
383.38
350.782
311.752
269.761
231.65
205.276
195.159
106.978
145.732
145.018
144.692
144.324
145.627
156.451
181.803
220.218
269.759
325.199
378.842
425.35
461.484
484.951
494.904
489.482
469.759
437.949
396.559
347.95
295.542
246.544
210.897
195.743
98.7748
145.945
146.062
145.626
144.319
144.183
149.687
170.675
207.952
259.523
320.084
381.245
435.998
480.056
510.335
526.614
521.055
499.991
464.333
418.297
364.91
307.633
253.754
213.845
196.109
90.0384
145.307
148.052
148.069
145.323
143.959
145.349
158.561
189.485
236.514
295.343
357.281
414.274
461.189
494.486
511.127
510.767
491.39
457.406
412.506
360.045
304.124
252.128
213.595
196.315
80.9225
143.387
150.389
151.792
148.001
144.272
143.726
149.148
169.598
206.421
256.82
313.14
366.577
411.175
443.651
461.519
462.758
447.231
418.443
378.852
332.35
283.958
240.903
211.051
198.907
71.6154
140.066
152.338
156.655
152.984
146.472
143.539
144.237
153.317
176.328
212.887
258.054
303.458
342.101
369.827
385.167
387.497
376.876
354.856
324.498
290.041
256.604
229.221
209.572
189.541
62.4457
135.244
153.814
161.517
159.589
151.574
144.97
143.211
144.902
153.886
173.857
203.5
237.06
268.489
292.243
305.884
309.214
303.016
288.807
268.892
245.948
222.047
197.658
172.128
147.541
53.6178
128.968
154.882
165.981
167.441
159.67
149.929
144.233
143.114
144.189
149.392
161.603
179.159
199.002
216.723
228.475
232.569
229.116
219.606
205.327
187.946
169.29
151.701
139.102
132.964
45.303
120.859
154.889
169.673
175.804
170.462
159.848
149.867
144.319
142.659
142.539
143.693
146.851
151.687
157.257
161.769
163.48
161.806
157.086
150.845
144.533
139.087
136.018
135.844
140.287
37.5738
111.532
153.46
172.421
183.905
182.827
174.063
162.935
153.143
146.607
142.874
141.016
140.293
140.214
140.139
140.061
139.98
139.892
139.804
139.711
139.625
139.817
143.604
152.689
168.121
30.4636
101.261
150.28
174.111
191.047
195.566
190.702
181.405
171.469
162.776
155.918
150.898
147.495
145.451
144.31
143.778
143.72
144.103
145.163
147.546
152.482
160.803
173.717
190.006
209.468
23.9988
90.281
145.131
174.461
196.748
207.796
208.246
202.443
194.286
186.122
178.905
172.941
168.359
165.191
163.428
163.07
164.14
166.892
171.695
179.026
189.182
202.018
217.701
235.542
255.247
18.1456
78.3692
137.736
173.117
200.41
218.733
225.9
225.18
220.806
215.351
210.154
205.749
202.401
200.315
199.657
200.576
203.324
208.111
215.096
224.369
235.875
249.455
264.939
282.078
300.683
13.2577
65.6271
127.76
169.56
201.437
226.931
241.206
246.552
246.94
245.282
243.209
241.507
240.541
240.545
241.731
244.342
248.566
254.523
262.272
271.808
283.068
295.968
310.41
326.311
343.57
9.45406
52.5352
114.948
163.057
199.355
231.278
252.96
264.973
270.792
273.408
274.788
275.994
277.555
279.768
282.847
286.981
292.311
298.932
306.891
316.205
326.875
338.896
352.259
366.945
382.91
6.61779
39.7535
99.3195
152.765
193.74
230.622
259.878
278.821
290.528
297.864
303.008
307.251
311.311
315.582
320.321
325.714
331.901
338.981
347.028
356.093
366.223
377.458
389.838
403.387
418.102
4.5857
28.0321
81.3261
137.892
183.822
224.443
260.296
286.563
304.55
317.062
326.289
333.759
340.378
346.68
353
359.562
366.53
374.031
382.167
391.023
400.675
411.189
422.626
435.045
448.478
3.19751
18.0739
62.2061
118.263
168.575
212.444
252.851
286.388
311.065
329.124
342.908
353.919
363.321
371.801
379.793
387.585
395.381
403.341
411.596
420.263
429.448
439.241
449.724
460.975
473.055
2.30338
10.4592
42.8105
94.3198
147.086
194.112
237.279
276.159
307.877
332.115
350.667
365.698
378.268
389.2
399.067
408.246
416.987
425.486
433.907
442.403
451.114
460.165
469.666
479.71
490.38
1.75738
5.90285
25.892
68.0282
119.238
168.548
213.709
255.417
292.414
323.076
347.323
366.713
382.731
396.43
408.5
419.309
429.168
438.324
446.991
455.364
463.63
471.96
480.493
489.343
498.603
1.4516
3.47709
13.5226
43.0736
87.1717
135.545
181.881
224.889
264.397
299.508
329.288
353.814
373.953
390.768
405.178
417.775
428.941
438.953
448.055
456.481
464.459
472.198
479.869
487.605
495.519
1.30217
2.25151
6.19869
22.5399
55.004
97.2509
141.996
185.097
225.256
262.055
294.981
323.628
348.026
368.608
386
400.806
413.515
424.53
434.207
442.861
450.769
458.161
465.213
472.066
478.843
1.24318
1.64166
3.12094
9.6302
28.5776
59.3976
97.366
137.445
176.462
213.014
246.55
276.784
303.583
326.999
347.233
364.56
379.298
391.825
402.548
411.842
420.032
427.382
434.103
440.36
446.286
1.2366
1.37512
1.94527
3.68407
11.3048
28.8884
55.3192
87.3513
121.522
155.331
187.369
216.969
243.864
268.002
289.414
308.14
324.303
338.15
349.995
360.158
368.933
376.583
383.329
389.355
394.809
1.25465
1.2995
1.46537
1.94558
3.66913
10.2648
24.0421
44.3196
69.082
96.0472
123.343
149.714
174.439
197.183
217.787
236.148
252.285
266.326
278.467
288.928
297.932
305.693
312.406
318.243
323.344
1.29318
1.30273
1.33134
1.44883
1.58793
2.58221
6.5884
15.3631
28.9684
46.0713
65.2065
85.1001
104.789
123.637
141.235
157.311
171.746
184.537
195.756
205.519
213.965
221.242
227.493
232.858
237.449
1.34049
1.33922
1.34094
1.35933
1.40442
1.52996
1.64272
2.91137
6.58139
13.2016
22.9408
34.5308
47.0832
59.911
72.4792
84.4063
95.4521
105.49
114.478
122.427
129.388
135.433
140.643
145.109
148.903
1.38989
1.38937
1.38557
1.38114
1.38869
1.41783
1.46088
1.55066
1.63886
1.84205
3.32835
6.20747
10.4366
15.8317
22.2117
28.9325
35.559
41.8598
47.7054
53.0235
57.7866
61.998
65.678
68.8613
71.5806
1.44096
1.44295
1.44304
1.43957
1.43599
1.43663
1.44623
1.47099
1.50571
1.55429
1.61261
1.66346
1.71596
1.76665
2.2406
3.15401
4.41025
5.90663
7.54696
9.24587
10.9349
12.5618
14.0879
15.4876
16.7472
1.49661
1.49923
1.50226
1.50405
1.5041
1.50175
1.5014
1.5034
1.51547
1.52923
1.55415
1.58277
1.61373
1.64313
1.68717
1.72282
1.7552
1.7873
1.81926
1.85106
1.88266
1.914
1.94506
1.9758
2.00624
1.56012
1.56188
1.56513
1.56927
1.57353
1.57667
1.57908
1.581
1.58289
1.58764
1.5956
1.60769
1.6247
1.64118
1.66066
1.6837
1.70782
1.73236
1.75709
1.78192
1.80678
1.83165
1.85649
1.88135
1.90596
1.63396
1.63468
1.63702
1.64089
1.64607
1.65207
1.65836
1.66473
1.67062
1.67674
1.68345
1.69099
1.69988
1.71087
1.72323
1.73717
1.75262
1.76941
1.78713
1.80671
1.82737
1.84741
1.86739
1.88743
1.90799
1.72235
1.72156
1.72259
1.7253
1.7296
1.73538
1.7424
1.75044
1.75921
1.76851
1.77826
1.78844
1.79904
1.81034
1.8224
1.83523
1.84887
1.86331
1.87853
1.89439
1.9109
1.92806
1.9458
1.96406
1.98275
1.83639
1.83441
1.83412
1.83545
1.83832
1.84269
1.84848
1.8556
1.86393
1.87336
1.88373
1.89494
1.90688
1.91948
1.9327
1.94651
1.96089
1.97581
1.99125
2.00717
2.02354
2.04034
2.05753
2.07509
2.09299
1.96245
1.96188
1.9635
1.96663
1.97098
1.97642
1.9829
1.99038
1.99883
2.00824
2.01856
2.02973
2.0417
2.0544
2.06778
2.08179
2.09636
2.11145
2.12702
2.14302
2.15941
2.17617
2.19324
2.21061
2.22825
2.23596
2.21057
2.19603
2.1883
2.18515
2.18528
2.18789
2.19249
2.19874
2.20638
2.21525
2.22521
2.23614
2.24795
2.26056
2.27388
2.28784
2.3024
2.31748
2.33303
2.34901
2.36537
2.38208
2.39908
2.41643
3.91992
3.76104
3.64943
3.56759
3.50568
3.45811
3.42142
3.39326
3.37199
3.35636
3.34544
3.3385
3.33495
3.33432
3.33619
3.34023
3.34617
3.35378
3.36286
3.37323
3.38473
3.39723
3.41061
3.42476
3.43968
197.321
164.796
127.394
156.536
135.339
127.601
132.316
129.216
133.93
132.926
140.14
154.438
150.977
168.169
187.363
186.605
206.663
227.891
229.826
250.171
271.522
275.099
294.696
315.165
319.344
337.792
357.071
360.937
378.169
396.246
399.02
415.059
431.949
432.962
447.788
463.438
462.029
475.557
489.855
485.199
497.313
510.12
501.038
511.64
522.834
507.759
516.794
526.273
503.183
510.641
518.402
485.212
491.248
497.409
451.651
456.559
461.422
399.534
403.674
407.618
327.6
331.174
334.436
241.181
244.213
246.878
151.953
154.386
156.476
73.7702
75.5126
76.9993
17.7908
18.6567
19.4153
2.03265
2.05874
2.08459
1.92983
1.9525
1.97475
1.92789
1.94679
1.96587
2.0006
2.01754
2.03469
2.11005
2.12621
2.14256
2.24501
2.26084
2.27682
2.43247
2.44795
2.46354
3.45323
3.46709
3.48121
165.62
131.967
126.01
125.331
124.967
124.741
124.595
124.468
124.351
124.243
124.143
124.048
123.959
123.873
123.79
123.711
123.634
123.558
123.485
123.413
123.342
123.272
123.204
123.136
123.069
123.002
122.936
122.871
122.806
122.741
122.676
122.612
122.547
122.483
122.418
122.353
122.288
122.223
122.157
122.091
122.024
121.956
121.887
121.817
121.746
121.673
121.598
121.521
121.441
121.356
121.265
121.162
121.053
120.972
120.921
120.858
120.811
120.785
120.793
120.81
120.903
121.067
121.261
121.397
121.649
121.973
122.415
122.907
123.357
123.714
123.96
124.087
124.192
124.295
124.401
124.513
124.639
124.786
125.093
126.487
138.638
127.764
125.716
125.354
125.215
125.218
125.322
125.497
125.734
126.017
126.331
126.662
127.002
127.34
127.671
127.991
128.295
128.583
128.852
129.101
129.331
129.541
129.73
129.899
130.048
130.177
130.284
130.371
130.437
130.481
130.504
130.503
130.478
130.429
130.352
130.234
130.071
129.862
129.605
129.294
128.929
128.512
128.042
127.52
126.948
126.327
125.663
124.963
124.237
123.5
122.769
122.07
121.427
120.878
120.491
120.328
120.182
119.995
119.825
119.752
119.692
119.78
120.063
120.565
121.543
122.935
124.833
127.107
129.487
131.637
133.254
134.136
134.091
133.157
131.494
129.423
127.422
126
125.375
126.262
131.234
126.455
125.765
125.676
126.012
126.766
128.001
129.696
131.76
134.094
136.601
139.193
141.802
144.376
146.877
149.28
151.57
153.736
155.775
157.683
159.462
161.112
162.636
164.034
165.309
166.461
167.492
168.399
169.184
169.844
170.376
170.778
171.045
171.174
171.162
171.017
170.731
170.296
169.701
168.934
167.988
166.855
165.522
163.98
162.216
160.219
157.977
155.482
152.726
149.706
146.425
142.898
139.153
135.253
131.332
127.738
124.589
122.08
120.397
119.706
119.491
119.369
119.454
119.916
121.202
123.442
127.028
131.815
137.238
142.521
146.767
149.316
149.709
147.959
144.211
139.033
133.483
128.946
126.272
126.264
128.9
126.215
125.997
126.729
128.603
131.742
136.066
141.264
147.045
153.111
159.228
165.225
170.991
176.458
181.594
186.386
190.836
194.956
198.761
202.268
205.494
208.457
211.171
213.649
215.904
217.943
219.776
221.406
222.837
224.071
225.107
225.943
226.574
226.997
227.203
227.185
226.937
226.445
225.693
224.666
223.348
221.721
219.766
217.461
214.785
211.713
208.222
204.287
199.884
194.992
189.591
183.67
177.226
170.272
162.85
155.044
147.013
139.028
131.561
125.535
121.419
119.357
119.171
119.149
119.839
121.801
125.7
131.8
139.507
147.758
154.892
158.927
160.063
158.357
153.97
146.743
138.575
131.572
127.22
126.419
128.045
126.249
126.841
129.576
134.601
141.806
150.63
160.389
170.512
180.567
190.275
199.477
208.098
216.115
223.54
230.399
236.731
242.572
247.962
252.936
257.525
261.756
265.655
269.239
272.526
275.529
278.256
280.715
282.909
284.839
286.504
287.901
289.023
289.862
290.408
290.649
290.571
290.158
289.389
288.245
286.702
284.736
282.32
279.425
276.022
272.076
267.557
262.428
256.656
250.208
243.051
235.159
226.512
217.102
206.94
196.061
184.531
172.492
160.194
148.053
136.77
127.46
121.625
119.063
118.896
119.38
121.423
126.176
133.388
142.293
150.782
156.534
159.163
159.386
155.004
147.903
139.629
132.282
127.573
126.629
127.625
126.508
129.106
135.379
145.126
157.478
171.298
185.597
199.701
213.219
225.959
237.851
248.895
259.13
268.607
277.385
285.521
293.067
300.071
306.576
312.617
318.227
323.432
328.253
332.709
336.814
340.576
344.004
347.101
349.866
352.298
354.39
356.135
357.522
358.537
359.165
359.386
359.181
358.527
357.397
355.763
353.594
350.859
347.522
343.547
338.895
333.528
327.405
320.487
312.733
304.107
294.574
284.107
272.686
260.308
246.994
232.758
217.655
201.818
185.465
168.991
153.027
138.602
127.43
121.021
118.761
118.622
119.839
123.336
129.728
137.406
144.469
148.979
149.873
147.445
142.711
136.688
131.074
127.55
126.785
127.262
127.552
133.839
145.491
160.986
178.653
197.044
215.177
232.515
248.841
264.098
278.311
291.538
303.849
315.317
326.006
335.978
345.288
353.986
362.113
369.709
376.806
383.431
389.608
395.354
400.685
405.61
410.136
414.265
417.997
421.328
424.249
426.749
428.816
430.431
431.575
432.225
432.355
431.939
430.946
429.343
427.094
424.163
420.509
416.091
410.868
404.797
397.835
389.939
381.071
371.192
360.268
348.274
335.191
321.017
305.776
289.462
272.096
253.753
234.542
214.691
194.523
174.53
155.548
138.951
126.957
120.308
118.128
118.01
119.373
122.821
127.961
133.731
136.427
136.713
134.893
132.009
129.17
127.597
127.369
127.344
131.489
144.277
162.275
183.362
205.524
227.478
248.529
268.399
287.045
304.507
320.857
336.173
350.53
363.994
376.631
388.499
399.649
410.13
419.984
429.25
437.96
446.142
453.818
461.007
467.723
473.975
479.767
485.101
489.972
494.375
498.297
501.724
504.637
507.015
508.833
510.061
510.669
510.624
509.89
508.431
506.207
503.175
499.294
494.518
488.806
482.112
474.395
465.615
455.734
444.718
432.539
419.177
404.62
388.874
371.961
353.896
334.714
314.488
293.313
271.344
248.77
225.835
202.908
180.556
159.66
141.613
128.484
120.544
116.973
116.755
116.658
119.203
122.834
126.385
128.71
129.276
128.635
128.115
123.272
131.577
144.195
163.769
187.211
212.356
237.509
261.822
284.935
306.772
327.374
346.809
365.147
382.457
398.802
414.24
428.831
442.625
455.675
468.024
479.713
490.78
501.254
511.163
520.526
529.361
537.677
545.481
552.774
559.553
565.809
571.529
576.697
581.29
585.284
588.648
591.349
593.351
594.615
595.098
594.757
593.55
591.433
588.361
584.288
579.171
572.969
565.641
557.154
547.474
536.575
524.434
511.036
496.371
480.441
463.257
444.844
425.238
404.491
382.688
359.938
336.39
312.218
287.629
262.868
238.24
214.128
191.04
169.623
150.715
135.311
125.025
118.019
113.641
111.321
110.401
110.253
110.077
109.34
107.763
106.106
146.868
167.439
192.18
219.053
246.353
273.056
298.735
323.248
346.597
368.823
389.971
410.092
429.233
447.446
464.781
481.288
497.016
512.009
526.311
539.958
552.982
565.411
577.268
588.567
599.322
609.536
619.209
628.336
636.905
644.899
652.295
659.066
665.178
670.593
675.269
679.16
682.215
684.38
685.602
685.824
684.991
683.053
679.96
675.664
670.125
663.306
655.181
645.729
634.939
622.806
609.334
594.535
578.427
561.036
542.394
522.54
501.523
479.408
456.278
432.244
407.447
382.062
356.294
330.383
304.602
279.256
254.678
231.232
209.319
189.376
171.83
157.077
145.206
136.138
129.69
125.727
123.814
123.919
126.385
132.101
174.4
199.78
227.345
255.646
283.694
311.026
337.455
362.924
387.426
410.969
433.571
455.257
476.063
496.027
515.194
533.607
551.31
568.342
584.741
600.54
615.765
630.437
644.572
658.18
671.262
683.816
695.831
707.288
718.164
728.427
738.039
746.954
755.121
762.481
768.97
774.521
779.06
782.512
784.801
785.851
785.588
783.942
780.855
776.275
770.162
762.491
753.249
742.441
730.088
716.225
700.899
684.172
666.111
646.791
626.289
604.683
582.052
558.477
534.047
508.867
483.06
456.775
430.194
403.531
377.028
350.958
325.609
301.288
278.31
256.999
237.666
220.612
206.102
194.35
185.544
179.839
177.395
178.438
183.416
192.631
210.983
238.318
266.618
294.988
322.996
350.451
377.254
403.347
428.694
453.273
477.083
500.137
522.46
544.086
565.052
585.397
605.161
624.379
643.083
661.298
679.045
696.338
713.184
729.582
745.524
760.993
775.963
790.401
804.264
817.498
830.044
841.829
852.776
862.795
871.791
879.662
886.302
891.6
895.447
897.735
898.362
897.235
894.268
889.4
882.588
873.815
863.088
850.443
835.941
819.669
801.74
782.28
761.432
739.346
716.173
692.058
667.14
641.543
615.384
588.773
561.822
534.654
507.412
480.268
453.427
427.123
401.615
377.175
354.085
332.623
313.066
295.684
280.743
268.508
259.257
253.232
250.642
251.659
256.474
264.993
252.506
279.877
307.708
335.529
363.149
390.456
417.367
443.809
469.729
495.096
519.901
544.153
567.873
591.093
613.846
636.17
658.099
679.665
700.895
721.808
742.419
762.732
782.745
802.445
821.811
840.808
859.396
877.518
895.109
912.09
928.37
943.847
958.404
971.915
984.24
995.233
1004.74
1012.6
1018.66
1022.75
1024.75
1024.51
1021.93
1016.91
1009.4
999.386
986.895
971.995
954.796
935.451
914.144
891.089
866.52
840.681
813.819
786.173
757.966
729.398
700.643
671.847
643.135
614.617
586.397
558.593
531.343
504.819
479.221
454.78
431.743
410.366
390.901
373.594
358.687
346.424
337.043
330.722
327.557
327.552
330.625
336.489
295.583
322.066
348.981
376.063
403.159
430.147
456.953
483.512
509.776
535.717
561.33
586.626
611.626
636.363
660.869
685.179
709.328
733.342
757.245
781.052
804.77
828.396
851.916
875.308
898.534
921.547
944.285
966.672
988.617
1010.01
1030.74
1050.66
1069.61
1087.42
1103.9
1118.84
1132.03
1143.25
1152.27
1158.87
1162.85
1164.03
1162.25
1157.38
1149.34
1138.12
1123.78
1106.42
1086.19
1063.31
1038.06
1010.75
981.71
951.297
919.864
887.751
855.28
822.74
790.383
758.423
727.029
696.332
666.435
637.421
609.369
582.37
556.536
532.007
508.956
487.575
468.067
450.642
435.506
422.877
412.955
405.84
401.513
399.848
400.627
403.54
338.081
363.391
389.285
415.561
442.044
468.582
495.108
521.588
547.993
574.311
600.545
626.709
652.829
678.939
705.071
731.26
757.539
783.932
810.461
837.136
863.958
890.918
917.994
945.153
972.35
999.523
1026.6
1053.48
1080.06
1106.22
1131.79
1156.61
1180.48
1203.18
1224.45
1244.03
1261.63
1276.94
1289.66
1299.49
1306.13
1309.32
1308.87
1304.58
1296.3
1284.05
1267.94
1248.15
1224.88
1198.41
1169.07
1137.28
1103.48
1068.15
1031.73
994.684
957.415
920.301
883.67
847.802
812.921
779.205
746.782
715.744
686.154
658.06
631.504
606.538
583.232
561.676
541.98
524.269
508.688
495.418
484.613
476.304
470.396
466.701
464.948
464.811
378.742
402.836
427.67
453.056
478.812
504.775
530.87
557.089
583.436
609.913
636.535
663.321
690.3
717.506
744.972
772.732
800.816
829.248
858.045
887.214
916.753
946.648
976.874
1007.39
1038.16
1069.1
1100.15
1131.2
1162.14
1192.82
1223.07
1252.69
1281.45
1309.07
1335.25
1359.62
1381.84
1401.5
1418.21
1431.59
1441.27
1446.92
1448.3
1445.22
1437.34
1424.64
1407.19
1385.26
1359.32
1329.71
1296.78
1260.99
1222.91
1183.07
1142.04
1100.36
1058.53
1017
976.165
936.346
897.819
860.795
825.434
791.844
760.1
730.243
702.294
676.258
652.137
629.932
609.654
591.327
575.021
560.86
548.924
539.178
531.475
525.578
521.179
517.922
416.686
439.539
463.237
487.606
512.485
537.718
563.214
588.973
615.022
641.38
668.069
695.112
722.539
750.381
778.669
807.435
836.703
866.495
896.823
927.691
959.093
991.015
1023.43
1056.3
1089.58
1123.21
1157.1
1191.16
1225.27
1259.26
1292.95
1326.1
1358.43
1389.6
1419.25
1446.97
1472.32
1494.89
1514.22
1529.9
1541.54
1548.84
1551.75
1550.49
1545.39
1535.71
1520.39
1498.6
1471.31
1439.61
1404.38
1366.02
1325.14
1282.31
1238.12
1193.18
1148.06
1103.26
1059.24
1016.36
974.922
935.167
897.273
861.365
827.523
795.793
766.188
738.7
713.304
689.96
668.618
649.236
631.823
616.431
603.056
591.602
581.882
573.63
566.509
560.15
451.129
472.66
495.096
518.283
542.088
566.375
591.045
616.083
641.522
667.388
693.704
720.494
747.783
775.599
803.965
832.907
862.442
892.584
923.34
954.709
986.684
1019.25
1052.36
1086
1120.11
1154.64
1189.49
1224.58
1259.78
1294.92
1329.81
1364.2
1397.79
1430.24
1461.18
1490.2
1516.86
1540.64
1560.78
1575.86
1583.66
1585.83
1584.2
1582.21
1579.89
1577.18
1572.37
1560.5
1537.79
1506.16
1470.89
1432.38
1391.28
1348.1
1303.41
1257.78
1211.8
1166.01
1120.9
1076.85
1034.19
993.186
954.029
916.864
881.785
848.844
818.054
789.398
762.836
738.315
715.768
695.139
676.413
659.586
644.594
631.297
619.476
608.839
599.033
589.677
481.259
501.326
522.322
544.12
566.609
589.666
613.195
637.158
661.572
686.459
711.836
737.722
764.137
791.098
818.621
846.716
875.392
904.652
934.496
964.913
995.881
1027.37
1059.36
1091.81
1124.67
1157.88
1191.35
1224.99
1258.69
1292.28
1325.6
1358.41
1390.47
1421.47
1451.08
1478.95
1504.68
1527.95
1548.03
1562.42
1571.4
1576.45
1578.86
1579.77
1579.08
1576.07
1569.21
1556.62
1536.89
1509.42
1477.37
1442.01
1404.01
1363.86
1322.03
1279.07
1235.49
1191.81
1148.52
1106.01
1064.62
1024.61
986.2
949.539
914.75
881.905
851.034
822.128
795.145
770.026
746.701
725.122
705.269
687.111
670.572
655.506
641.695
628.839
616.567
604.482
506.166
524.581
543.916
564.067
584.939
606.418
628.399
650.832
673.709
697.035
720.817
745.061
769.77
794.943
820.589
846.714
873.313
900.378
927.897
955.854
984.218
1012.95
1042.03
1071.4
1101.02
1130.82
1160.72
1190.63
1220.45
1250.04
1279.26
1307.95
1335.89
1362.87
1388.62
1412.86
1435.3
1455.65
1474.45
1490.32
1502.64
1511.38
1516.64
1518.31
1516.16
1510
1499.64
1485.01
1466.19
1443.53
1417.39
1388.15
1356.23
1322.06
1286.1
1248.83
1210.71
1172.19
1133.68
1095.53
1058.06
1021.53
986.153
952.088
919.473
888.406
858.935
831.072
804.8
780.074
756.838
735.054
714.699
695.734
678.085
661.63
646.184
631.48
617.16
602.82
524.748
541.289
558.706
576.911
595.821
615.318
635.293
655.673
676.424
697.539
719.015
740.847
763.023
785.529
808.36
831.511
854.969
878.718
902.737
927.004
951.489
976.156
1000.97
1025.87
1050.82
1075.75
1100.6
1125.29
1149.73
1173.82
1197.43
1220.45
1242.74
1264.13
1284.43
1303.45
1320.99
1336.8
1350.74
1362.61
1372.15
1379.08
1383.19
1384.24
1382.19
1377
1368.63
1357.1
1342.49
1324.95
1304.65
1281.83
1256.76
1229.75
1201.11
1171.17
1140.28
1108.76
1076.92
1045.06
1013.42
982.238
951.704
921.973
893.178
865.422
838.767
813.246
788.862
765.6
743.433
722.34
702.302
683.29
665.244
648.07
631.625
615.69
599.944
584.001
535.614
550.068
565.308
581.25
597.812
614.888
632.372
650.185
668.276
686.617
705.193
723.987
742.982
762.157
781.493
800.972
820.578
840.289
860.083
879.935
899.819
919.707
939.564
959.351
979.02
998.518
1017.79
1036.79
1055.43
1073.64
1091.33
1108.4
1124.77
1140.32
1154.92
1168.46
1180.79
1191.77
1201.25
1209.1
1215.18
1219.36
1221.52
1221.55
1219.39
1215.02
1208.41
1199.58
1188.57
1175.46
1160.35
1143.37
1124.68
1104.46
1082.91
1060.24
1036.65
1012.36
987.582
962.514
937.345
912.242
887.351
862.798
838.696
815.137
792.187
769.885
748.254
727.298
707.012
687.391
668.426
650.098
632.368
615.171
598.408
581.916
565.424
548.579
537.067
549.247
562.057
575.456
589.365
603.683
618.318
633.193
648.251
663.451
678.762
694.16
709.622
725.126
740.652
756.177
771.683
787.147
802.547
817.862
833.073
848.159
863.094
877.852
892.395
906.682
920.674
934.329
947.592
960.403
972.703
984.433
995.527
1005.92
1015.53
1024.29
1032.11
1038.91
1044.62
1049.15
1052.43
1054.38
1054.94
1054.06
1051.72
1047.89
1042.56
1035.74
1027.45
1017.72
1006.62
994.209
980.577
965.82
950.046
933.373
915.924
897.824
879.199
860.173
840.864
821.379
801.814
782.256
762.784
743.467
724.36
705.502
686.917
668.618
650.612
632.899
615.478
598.339
581.458
564.794
548.286
531.822
515.194
498.094
527.19
537.057
547.361
558.092
569.202
580.612
592.242
604.027
615.911
627.854
639.82
651.78
663.708
675.583
687.384
699.094
710.695
722.169
733.498
744.663
755.65
766.443
777.024
787.375
797.468
807.276
816.769
825.919
834.693
843.052
850.96
858.379
865.274
871.605
877.331
882.412
886.805
890.467
893.357
895.432
896.656
896.992
896.411
894.892
892.415
888.967
884.541
879.14
872.771
865.452
857.208
848.073
838.088
827.3
815.764
803.538
790.687
777.276
763.373
749.044
734.355
719.367
704.135
688.712
673.144
657.476
641.743
625.975
610.19
594.402
578.619
562.843
547.077
531.317
515.549
499.751
483.888
467.894
451.621
434.818
504.281
511.913
519.804
527.955
536.341
544.917
553.627
562.418
571.245
580.073
588.871
597.615
606.283
614.855
623.313
631.642
639.829
647.859