/*--------------------------------*- C++ -*----------------------------------*\
| =========                 |                                                 |
| \\      /  F ield         | OpenFOAM: The Open Source CFD Toolbox           |
|  \\    /   O peration     | Version:  v2012                                 |
|   \\  /    A nd           | Website:  www.openfoam.com                      |
|    \\/     M anipulation  |                                                 |
\*---------------------------------------------------------------------------*/
FoamFile
{
    version     2.0;
    format      ascii;
    class       volScalarField;
    location    "595";
    object      k;
}
// * * * * * * * * * * * * * * * * * * * * * * * * * * * * * * * * * * * * * //

dimensions      [0 2 -2 0 0 0 0];


internalField   nonuniform List<scalar> 
6598
(
1.65058
2.07605
2.15355
2.17356
2.18217
2.18217
2.17356
2.15355
2.07605
1.65058
0.937322
1.48772
1.6376
1.68517
1.70015
1.70015
1.68517
1.6376
1.48772
0.937323
0.602854
1.10694
1.27967
1.34429
1.36593
1.36593
1.34429
1.27967
1.10694
0.602854
0.423352
0.85404
1.02465
1.09666
1.12293
1.12293
1.09666
1.02465
0.854041
0.423353
0.31658
0.679762
0.838221
0.91124
0.939813
0.939813
0.911241
0.838222
0.679764
0.31658
0.247845
0.555187
0.698529
0.768951
0.797989
0.797989
0.768952
0.698531
0.555189
0.247846
0.200796
0.463153
0.591433
0.657477
0.685771
0.685771
0.657479
0.591436
0.463156
0.200798
0.166997
0.393175
0.507605
0.568575
0.595427
0.595428
0.568578
0.507609
0.393179
0.166998
0.141761
0.338634
0.440762
0.496563
0.521637
0.521638
0.496567
0.440767
0.33864
0.141763
0.122323
0.295213
0.386579
0.437431
0.460615
0.460617
0.437436
0.386587
0.295221
0.122326
0.106963
0.260007
0.342018
0.388285
0.409603
0.409605
0.388292
0.342028
0.260018
0.106967
0.0945663
0.23101
0.304898
0.346997
0.366545
0.366549
0.347007
0.304912
0.231025
0.0945713
0.0843814
0.2068
0.273626
0.311978
0.329887
0.329892
0.311992
0.273645
0.206821
0.0843882
0.075887
0.186345
0.247016
0.282019
0.298431
0.298438
0.282037
0.247041
0.186373
0.0758962
0.0687107
0.168881
0.224169
0.256188
0.271246
0.271256
0.256213
0.224205
0.16892
0.0687232
0.0625801
0.153835
0.204396
0.233758
0.247597
0.247611
0.233794
0.204446
0.153888
0.0625972
0.0572918
0.140764
0.187161
0.214155
0.226901
0.226919
0.214205
0.187229
0.140837
0.057315
0.0526909
0.129327
0.172037
0.196922
0.208688
0.208712
0.19699
0.172134
0.129425
0.052722
0.0486573
0.119252
0.15869
0.18169
0.192578
0.192611
0.181782
0.158822
0.119387
0.0486993
0.0450977
0.110328
0.146852
0.16817
0.178273
0.178317
0.168293
0.147029
0.110482
0.0451523
0.0420147
0.102562
0.136532
0.156369
0.165782
0.165841
0.156535
0.136771
0.102806
0.0422082
0.0392531
0.0955924
0.12727
0.14578
0.154577
0.154654
0.146002
0.127595
0.0959531
0.0405404
0.0367662
0.0892999
0.118908
0.136218
0.144459
0.14456
0.136505
0.119334
0.0898736
0.0399179
0.0345159
0.0835938
0.111325
0.127549
0.13529
0.135415
0.127903
0.111835
0.084533
0.0403741
0.0324706
0.0783978
0.104423
0.119662
0.12695
0.127097
0.120065
0.10501
0.0799524
0.0419727
0.0306035
0.0736475
0.0981162
0.112458
0.119336
0.119507
0.112902
0.09885
0.0761432
0.0445571
0.0288917
0.0692849
0.0923281
0.105851
0.112358
0.112558
0.106383
0.0933462
0.0729983
0.0478631
0.0272662
0.0651442
0.0868464
0.0996028
0.105768
0.106011
0.100289
0.0883174
0.070414
0.0517186
0.0257682
0.0613224
0.0817906
0.0938452
0.0997036
0.100006
0.0947534
0.0838746
0.0684367
0.0555694
0.0243827
0.0577866
0.0771207
0.0885356
0.0941226
0.0945011
0.0897323
0.0799648
0.0669413
0.0585875
0.023096
0.0545031
0.0727925
0.0836244
0.0889734
0.0894465
0.085174
0.0765243
0.0658026
0.0608468
0.0218964
0.0514423
0.0687678
0.0790685
0.0842112
0.0847966
0.0810298
0.0734864
0.0648753
0.0624066
0.0207734
0.0485781
0.0650128
0.0748298
0.0797961
0.0805107
0.0772531
0.0707798
0.0640045
0.0633219
0.0197177
0.0458879
0.0614976
0.0708748
0.075693
0.0765515
0.0737999
0.0683342
0.0631188
0.0636546
0.018721
0.0433512
0.0581956
0.0671739
0.0718701
0.0728852
0.0706289
0.0660916
0.0621634
0.0634668
0.0177757
0.0409499
0.0550832
0.0637004
0.0682994
0.0694809
0.0677022
0.0640026
0.0611022
0.0628208
0.016875
0.0386681
0.0521394
0.060431
0.0649555
0.0663107
0.0649863
0.0620271
0.0599175
0.0617806
0.0160127
0.0364916
0.0493457
0.0573447
0.0618159
0.0633497
0.062452
0.0601355
0.0586089
0.0604142
0.0151831
0.0344082
0.0466854
0.0544229
0.0588606
0.0605759
0.0600753
0.0583084
0.0571919
0.0587942
0.0143812
0.0324071
0.0441439
0.0516488
0.0560712
0.0579698
0.0578371
0.056537
0.0556953
0.0569994
0.0136025
0.030479
0.0417079
0.0490069
0.0534311
0.0555141
0.0557227
0.0548207
0.0541579
0.0551132
0.0128426
0.0286154
0.0393647
0.0464821
0.0509239
0.0531928
0.0537205
0.0531649
0.0526233
0.0532209
0.0120978
0.0268092
0.037102
0.0440592
0.0485329
0.0509892
0.0518193
0.0515764
0.0511338
0.0514034
0.0113648
0.0250539
0.0349073
0.0417214
0.046239
0.0488848
0.0500061
0.0500585
0.0497231
0.049729
0.0106404
0.0233436
0.0327672
0.0394497
0.0440198
0.0468564
0.0482625
0.0486065
0.0484091
0.0482428
0.00992166
0.0216722
0.030667
0.0372219
0.0418479
0.0448746
0.0465614
0.0472019
0.0471877
0.0469581
0.00920574
0.0200338
0.0285905
0.0350116
0.0396897
0.0429016
0.0448647
0.0458103
0.0460287
0.0458496
0.00848969
0.0184224
0.0265197
0.0327884
0.0375048
0.0408902
0.0431216
0.044379
0.0448752
0.0448527
0.00777023
0.0168317
0.0244354
0.0305177
0.0352461
0.0387842
0.0412693
0.0428384
0.0436464
0.0438683
0.00704335
0.0152552
0.0223176
0.0281625
0.0328616
0.0365201
0.0392349
0.041106
0.0422439
0.0427726
0.00630365
0.0136851
0.0201468
0.0256862
0.0302988
0.0340321
0.0369416
0.0390927
0.0405607
0.0414307
0.00554306
0.0121101
0.0179093
0.0230621
0.0275149
0.0312628
0.0343191
0.0367148
0.0384948
0.0397135
0.00474476
0.0105098
0.01559
0.0202794
0.0244927
0.0281823
0.0313229
0.0339126
0.0359685
0.0375173
0.00387597
0.00902667
0.0132861
0.0173969
0.0212696
0.024813
0.0279606
0.0306771
0.03295
0.0347834
0.00295197
0.0077739
0.0112872
0.0146932
0.0180663
0.0213217
0.024357
0.027096
0.0294966
0.0315332
0.00195609
0.00658469
0.00969067
0.0124823
0.0152736
0.0180845
0.0208353
0.0234381
0.0258208
0.0279327
0.00107678
0.00516915
0.00821304
0.010738
0.0131191
0.0154949
0.0178668
0.0201791
0.0223684
0.0243778
0.000842128
0.00334906
0.00647514
0.0090766
0.0113791
0.0135374
0.0156062
0.0175834
0.0194495
0.0211797
0.000845637
0.00205236
0.00476723
0.00727331
0.00962415
0.0116892
0.0135348
0.0151759
0.0166362
0.017944
0.000948688
0.00166516
0.00251685
0.00374376
0.00506724
0.00623989
0.00712772
0.00789694
0.00856272
0.00912332
0.00892024
0.00329334
0.00324301
0.00326302
0.00323011
0.0030985
0.00281438
0.00255046
0.0023125
0.00209489
0.00189294
0.00171097
0.00154787
0.00140122
0.00126726
0.0011467
0.00104079
0.000943977
0.000852476
0.000763409
0.000674089
0.000581552
0.00047989
0.000361232
0.000205895
0.0173792
0.00741986
0.00651182
0.00629835
0.00610613
0.00576602
0.00521381
0.00455965
0.00398499
0.00350301
0.00310277
0.00277756
0.0025162
0.00230426
0.00212809
0.00196635
0.00180066
0.00162944
0.00145415
0.00127852
0.00110876
0.000950816
0.000816998
0.000685716
0.000381657
0.026278
0.0130362
0.00925635
0.00796948
0.00717049
0.00637978
0.00549697
0.00455005
0.00378629
0.00321939
0.00279699
0.00248684
0.00225788
0.00209124
0.00196858
0.00186979
0.00176987
0.00166116
0.00153759
0.00139643
0.00124075
0.00107972
0.000932283
0.000797674
0.000439761
0.0361728
0.0199083
0.0126308
0.00988196
0.00813034
0.00666691
0.00536884
0.00424811
0.00331925
0.00267938
0.0022366
0.00194296
0.00174975
0.0016331
0.00156901
0.00153568
0.00150786
0.00147063
0.00141344
0.0013292
0.00121637
0.001081
0.000939814
0.000796885
0.000444071
0.0459593
0.0287473
0.0174133
0.0124882
0.00942873
0.00712336
0.00533614
0.00400591
0.00303216
0.00233204
0.0018337
0.00151463
0.00132092
0.00122513
0.00119637
0.00120526
0.00123143
0.00124748
0.00124014
0.00120112
0.00112696
0.00102059
0.000894024
0.000749749
0.000418771
0.0534992
0.0381924
0.0241402
0.0161177
0.0112553
0.00791066
0.00555589
0.00396117
0.00289273
0.00216221
0.00164728
0.00129303
0.00107394
0.000968181
0.00094762
0.000975784
0.00102705
0.00106835
0.00108532
0.00107032
0.00101999
0.00093557
0.000824685
0.000685376
0.000380591
0.0588127
0.0473975
0.0315498
0.0205884
0.0137206
0.009098
0.00605768
0.00413304
0.00292486
0.00214448
0.00161088
0.00124
0.00100051
0.000872332
0.000831738
0.000847826
0.000892151
0.000933147
0.000954331
0.000947874
0.000911088
0.000845032
0.000753005
0.000626954
0.000343142
0.0628609
0.0549365
0.0388012
0.0256455
0.0167213
0.0106919
0.00683993
0.00451982
0.00312531
0.00226745
0.00170336
0.00131399
0.00104784
0.000882682
0.000802423
0.000784396
0.000802818
0.000829752
0.000845109
0.000841229
0.000817143
0.00077671
0.000724462
0.000644912
0.000391567
0.0659037
0.0608833
0.0455425
0.0310944
0.0202374
0.0127162
0.0079245
0.00513204
0.00350689
0.00253902
0.0019243
0.00150975
0.00121652
0.00100899
0.00087451
0.000803426
0.00078318
0.000793888
0.000806469
0.000814827
0.000821559
0.00083566
0.000869639
0.000949516
0.00126194
0.0680962
0.065274
0.0516238
0.0366187
0.0239801
0.014994
0.00927262
0.0059558
0.00407855
0.00297433
0.00228631
0.00183823
0.00153028
0.00130564
0.00114048
0.0010293
0.000974743
0.000982694
0.0010188
0.00108322
0.00119036
0.00136901
0.00166138
0.00208671
0.00256032
0.069567
0.0683733
0.0566075
0.0413817
0.0276321
0.0174133
0.010807
0.00699006
0.00485518
0.00360131
0.00281831
0.00231694
0.00199329
0.00178192
0.00164509
0.00156496
0.00153844
0.00157329
0.0016628
0.00180694
0.00201025
0.00226902
0.00255772
0.00283907
0.00309599
0.0703817
0.0703884
0.0604225
0.0454754
0.0311485
0.0199214
0.0125088
0.00821485
0.00583224
0.00443214
0.00354847
0.00297135
0.0025961
0.00236254
0.0022335
0.00218263
0.00219257
0.0022508
0.00234862
0.00248497
0.00265637
0.00285873
0.0030947
0.00339237
0.00373684
0.0706219
0.0714692
0.0631004
0.048986
0.034513
0.0224811
0.0143432
0.0095906
0.00697581
0.00544143
0.00447509
0.00383735
0.00340139
0.0031058
0.0029261
0.002843
0.00284147
0.00289174
0.00299156
0.00313334
0.00331741
0.00354578
0.00383049
0.00418355
0.00458168
0.070327
0.0717448
0.0647802
0.0518864
0.03748
0.025059
0.0162955
0.0110848
0.00824007
0.00658271
0.00554519
0.00488673
0.00444368
0.0041306
0.00391951
0.00379786
0.00376056
0.00377724
0.00385404
0.00399281
0.004201
0.00446206
0.00475487
0.00508258
0.00542673
0.0695351
0.071337
0.0656596
0.0541912
0.0402093
0.0277336
0.0184033
0.0126915
0.00956942
0.00782763
0.0067423
0.00605169
0.00561058
0.00531636
0.00511842
0.0049947
0.00491857
0.00490699
0.0049603
0.00507556
0.00524412
0.00545453
0.00569722
0.00596327
0.00623873
0.0682931
0.0703505
0.0658615
0.0558856
0.0427822
0.0303946
0.0207661
0.0144622
0.0109519
0.00908165
0.0079852
0.00728174
0.0068329
0.00653873
0.00634309
0.00620436
0.00611498
0.00608234
0.00610564
0.00618112
0.00630257
0.00646054
0.00664494
0.0068458
0.00705379
0.0666552
0.0688692
0.0654681
0.056956
0.0452402
0.0331167
0.0232919
0.0165234
0.0124918
0.0103209
0.00916136
0.00846981
0.00803418
0.00775261
0.00755315
0.00741171
0.00732157
0.00727919
0.00728091
0.0073222
0.00739795
0.00750224
0.0076285
0.00777017
0.00792193
0.0646818
0.0669657
0.0645525
0.0574965
0.0473287
0.0359473
0.0260293
0.0188279
0.0142955
0.0117288
0.0103338
0.00956439
0.00910631
0.00882389
0.00864572
0.00853509
0.00847325
0.00844942
0.0084559
0.00848555
0.008536
0.00860445
0.00868837
0.00878525
0.00889277
0.0624414
0.0647066
0.0631602
0.0575105
0.0488789
0.038843
0.0290231
0.0214663
0.0163897
0.013341
0.0116263
0.0106798
0.010147
0.00984275
0.00967599
0.00959537
0.00957003
0.00958188
0.0096185
0.00966949
0.00972929
0.00979164
0.00985807
0.0099297
0.0100072
0.0600124
0.0621634
0.0613421
0.057011
0.0498899
0.0412403
0.0323711
0.024548
0.0189517
0.0153566
0.0132267
0.0120211
0.0113541
0.0109894
0.0108027
0.0107265
0.0107203
0.0107595
0.0108277
0.0109124
0.0110021
0.0110872
0.0111647
0.0112343
0.0112996
0.0574848
0.0594205
0.0591564
0.0560073
0.0503408
0.0430964
0.0353529
0.0280931
0.0220933
0.017936
0.0153029
0.0137412
0.0128528
0.0123702
0.01213
0.0120365
0.0120365
0.0120958
0.0121901
0.0123009
0.0124152
0.0125255
0.0126223
0.0127018
0.0127648
0.0549592
0.056581
0.0566842
0.0545325
0.050217
0.0443613
0.0378058
0.0313602
0.0256716
0.0211985
0.017998
0.0160006
0.0148026
0.0141187
0.0137615
0.0136101
0.0135887
0.0136476
0.0137522
0.013878
0.0140074
0.0141288
0.0142361
0.0143252
0.0143925
0.0525411
0.0537672
0.0540389
0.0526584
0.0495208
0.0449857
0.0396498
0.0341537
0.02904
0.0246995
0.0213239
0.0189326
0.0173577
0.0163852
0.0158414
0.0155722
0.0154798
0.0154996
0.015586
0.0157052
0.0158343
0.0159588
0.0160699
0.0161632
0.0162403
0.0503306
0.0511129
0.051367
0.0505061
0.0483183
0.0449571
0.0408051
0.0363258
0.0319585
0.0280429
0.0247855
0.0222708
0.0204605
0.0192416
0.0184787
0.0180426
0.017832
0.0177702
0.0178009
0.0178795
0.0179803
0.0180885
0.018194
0.0182907
0.0183787
0.0484076
0.0487462
0.0488364
0.0482461
0.0467407
0.0443364
0.0412438
0.0377711
0.0342386
0.0309231
0.028022
0.0256421
0.023807
0.0224757
0.0215674
0.020987
0.0206476
0.020471
0.0204084
0.0204178
0.0204727
0.0205554
0.0206536
0.0207592
0.0208641
0.0468151
0.0467661
0.0466104
0.0460808
0.0449847
0.0432735
0.0410378
0.0384591
0.0357527
0.0331213
0.0307266
0.028676
0.0270182
0.0257496
0.0248267
0.0241819
0.0237505
0.0234771
0.0233298
0.0232824
0.0233064
0.0233772
0.0234786
0.0235976
0.0237239
0.0455466
0.0452172
0.0448112
0.0442059
0.0432851
0.0419961
0.0403664
0.0384897
0.0364946
0.0345161
0.0326734
0.0310554
0.0297136
0.0286572
0.0278593
0.0272637
0.0268304
0.0265493
0.0263947
0.0263405
0.0263629
0.0264415
0.0265587
0.0267004
0.0268553
0.0445398
0.0440718
0.0434849
0.0427603
0.0418616
0.0407679
0.0394922
0.0380817
0.0366085
0.0351549
0.0337989
0.0326043
0.0316123
0.0308335
0.0302501
0.0298022
0.0294835
0.0292845
0.0291905
0.029185
0.0292509
0.0293718
0.0295319
0.0297187
0.029921
0.0436812
0.0432273
0.04258
0.0417807
0.0408527
0.0398156
0.0386952
0.037529
0.0363634
0.0352489
0.0342337
0.0333584
0.0326504
0.0321172
0.0317453
0.0314829
0.0313161
0.0312386
0.0312428
0.0313187
0.0314548
0.0316392
0.0318603
0.0321076
0.0323703
0.0428191
0.0425184
0.0419507
0.0411811
0.040264
0.0392483
0.0381813
0.0371086
0.0360732
0.0351149
0.0342674
0.0335576
0.0330025
0.0326068
0.0323611
0.0322351
0.0321863
0.0322088
0.0322955
0.0324389
0.0326317
0.0328655
0.0331317
0.0334221
0.0337269
0.041784
0.041745
0.0413848
0.040768
0.0399571
0.0390144
0.0380003
0.0369703
0.0359737
0.0350517
0.0342368
0.0335526
0.0330131
0.032623
0.0323785
0.0322645
0.0322569
0.0323077
0.0324134
0.0325677
0.0327635
0.0329944
0.0332539
0.0335358
0.0338325
0.0404117
0.0407024
0.0406424
0.0402853
0.0396887
0.0389134
0.0380209
0.0370704
0.0361156
0.0352023
0.0343668
0.0336361
0.0330274
0.0325492
0.0322023
0.0319811
0.0318742
0.0318616
0.0319236
0.0320241
0.0321586
0.032323
0.0325133
0.0327248
0.032951
0.0385627
0.0392087
0.0394972
0.0394694
0.0391715
0.0386549
0.0379742
0.0371844
0.036338
0.0354819
0.0346554
0.0338894
0.0332064
0.0326205
0.0321386
0.0317618
0.0314867
0.0313055
0.0312075
0.0311768
0.0312008
0.0312675
0.0313592
0.0314648
0.0315819
0.0361438
0.0371294
0.0377701
0.0380944
0.0381363
0.0379356
0.0375366
0.0369856
0.0363291
0.0356105
0.0348684
0.0341353
0.0334369
0.032792
0.0322131
0.0317074
0.0312777
0.0309233
0.0306407
0.0304239
0.0302658
0.0301584
0.0300914
0.0300557
0.0300445
0.0331416
0.0344134
0.035367
0.0360194
0.0363936
0.0365182
0.0364269
0.0361564
0.0357451
0.0352302
0.0346465
0.034025
0.0333916
0.0327674
0.0321684
0.0316058
0.0310874
0.0306173
0.0301973
0.0298271
0.0295048
0.029227
0.0289894
0.0287874
0.0286169
0.0296801
0.031143
0.0323259
0.0332358
0.033886
0.0342952
0.0344869
0.0344888
0.0343311
0.0340442
0.0336575
0.0331985
0.0326911
0.0321562
0.0316107
0.0310681
0.0305386
0.0300298
0.0295467
0.0290925
0.0286688
0.028276
0.0279136
0.0275803
0.0272757
0.0260962
0.0275948
0.0288701
0.0299121
0.0307228
0.0313156
0.0317062
0.0319143
0.0319622
0.0318733
0.031671
0.0313779
0.0310147
0.0306
0.0301498
0.0296778
0.029195
0.0287102
0.0282302
0.0277602
0.0273039
0.0268639
0.0264416
0.0260381
0.0256554
0.0226856
0.0240315
0.0252117
0.0262188
0.0270468
0.0276809
0.0281359
0.0284288
0.0285771
0.0285988
0.0285118
0.0283336
0.0280808
0.0277687
0.0274108
0.0270191
0.0266038
0.0261733
0.0257347
0.0252936
0.0248543
0.0244203
0.0239942
0.023578
0.0231747
0.019058
0.0200422
0.0208991
0.0216152
0.0221961
0.0226446
0.0229686
0.0231783
0.0232845
0.0232987
0.0232323
0.0230966
0.0229023
0.0226597
0.0223779
0.0220653
0.0217293
0.0213761
0.0210111
0.0206388
0.020263
0.0198867
0.0195124
0.019142
0.0187784
0.00958086
0.00998239
0.0103375
0.0106398
0.0108898
0.0110911
0.0112465
0.011359
0.0114316
0.0114677
0.0114706
0.011444
0.0113912
0.0113156
0.0112206
0.011109
0.0109838
0.0108476
0.0107026
0.010551
0.0103946
0.010235
0.0100735
0.00991122
0.00974921
0.000416923
0.00101338
0.00204027
0.00235312
0.00255681
0.00271318
0.00294232
0.00308335
0.00349325
0.0034286
0.00380121
0.00432088
0.00418042
0.00461779
0.00505941
0.00500334
0.00536961
0.00571021
0.00576794
0.00605858
0.006325
0.00650409
0.00673283
0.00694687
0.00725705
0.00743816
0.00761254
0.00807512
0.00821689
0.00835766
0.00900465
0.00911193
0.00922178
0.0100874
0.0101655
0.0102472
0.0113609
0.0114179
0.011476
0.0128147
0.0128564
0.0128958
0.0144403
0.0144762
0.0145069
0.0162976
0.0163409
0.0163764
0.018451
0.0185098
0.0185604
0.020957
0.0210385
0.0211123
0.023842
0.0239516
0.0240554
0.027004
0.0271478
0.0272883
0.030115
0.0303068
0.0304981
0.0326191
0.0328672
0.0331172
0.0340128
0.0342994
0.03459
0.0341107
0.0343921
0.0346798
0.0331653
0.0333852
0.033613
0.031696
0.0318161
0.0319435
0.0300512
0.0300707
0.030101
0.0284867
0.028376
0.0282804
0.0270247
0.0267941
0.0265789
0.0253296
0.0250207
0.0247237
0.0228256
0.0224884
0.0221591
0.0184616
0.0181518
0.0178471
0.00960768
0.00946793
0.00933001
0.000110495
0.00026092
0.000394045
0.000505449
0.000604469
0.000692933
0.000774106
0.000849566
0.000920357
0.000987187
0.00105057
0.00111092
0.00116857
0.00122383
0.00127699
0.00132832
0.00137808
0.0014265
0.00147384
0.00152031
0.00156616
0.00161161
0.00165688
0.0017022
0.00174782
0.00179398
0.00184096
0.00188906
0.00193861
0.00199002
0.00204375
0.00210035
0.00216052
0.00222515
0.00229331
0.0023642
0.0024379
0.00251464
0.00259509
0.00267902
0.00276633
0.00285769
0.00295343
0.00305382
0.00315915
0.00326973
0.00338587
0.00350782
0.00363584
0.00377006
0.00391054
0.0040571
0.00420924
0.00436591
0.0045252
0.00468391
0.00483671
0.00497499
0.00508598
0.00515803
0.00519692
0.00520716
0.00519263
0.00513549
0.00501148
0.00483203
0.00458772
0.00429477
0.00397209
0.00362985
0.00327895
0.00292243
0.00260411
0.00231122
0.00203223
0.00176004
0.00148801
0.00120486
0.00089528
0.000514138
0.000430676
0.00079846
0.00100701
0.00118719
0.00137835
0.00157413
0.00176558
0.00195263
0.00213437
0.00231015
0.00247952
0.00264221
0.00279822
0.00294771
0.003091
0.00322853
0.00336078
0.00348831
0.00361168
0.00373147
0.00384823
0.00396254
0.00407493
0.00418595
0.00429611
0.00440592
0.00451589
0.0046265
0.00473827
0.00485166
0.00496718
0.00508533
0.00520648
0.00533127
0.00546208
0.00559894
0.00574139
0.00588974
0.00604426
0.00620465
0.00637155
0.00654572
0.00672767
0.00691791
0.00711692
0.00732517
0.00754309
0.00777106
0.00800936
0.00825811
0.00851716
0.00878602
0.00906359
0.00934793
0.00963574
0.00992175
0.0101979
0.010453
0.0106731
0.0108376
0.0109183
0.0109115
0.0108071
0.0105887
0.0102175
0.00973857
0.009146
0.0084932
0.00781717
0.00713872
0.00648175
0.00585351
0.00518602
0.0044867
0.00378015
0.00310255
0.00249289
0.00198932
0.0015656
0.000845457
0.000658122
0.00125936
0.00153839
0.00180615
0.0020947
0.00238613
0.00266844
0.0029386
0.00319533
0.00343875
0.00366946
0.00388831
0.00409618
0.00429396
0.00448246
0.00466249
0.00483483
0.00500023
0.00515942
0.0053131
0.00546198
0.00560671
0.00574797
0.00588638
0.00602258
0.00615716
0.00629074
0.0064239
0.00655722
0.00669128
0.00682666
0.00696392
0.00710358
0.00724619
0.00739224
0.00754429
0.00770226
0.00786574
0.00803478
0.00820976
0.00839112
0.00857932
0.00877483
0.00897804
0.00918932
0.00940895
0.00963713
0.00987388
0.010119
0.0103721
0.0106323
0.0108981
0.0111674
0.011437
0.0117023
0.0119569
0.0121919
0.012396
0.0125552
0.0126483
0.0126453
0.012537
0.0123115
0.0119589
0.0114737
0.010859
0.0100862
0.00927808
0.00845657
0.00762872
0.00684305
0.00613234
0.00546226
0.00478033
0.00408328
0.00338727
0.00273061
0.00216756
0.00169902
0.000897737
0.000862262
0.00168979
0.00206329
0.00242011
0.00278316
0.00313701
0.00347103
0.00378469
0.00407941
0.00435739
0.00462071
0.0048711
0.00510989
0.0053381
0.00555654
0.0057659
0.00596681
0.00615987
0.0063457
0.00652488
0.00669804
0.00686579
0.00702875
0.00718752
0.00734274
0.00749499
0.0076449
0.00779306
0.00794006
0.0080865
0.00823296
0.00838002
0.00852822
0.00867814
0.00883031
0.00898529
0.00914585
0.00931124
0.00948135
0.00965632
0.00983639
0.0100218
0.0102129
0.0104098
0.0106126
0.0108213
0.0110356
0.0112549
0.0114786
0.0117054
0.0119334
0.0121605
0.0123832
0.0125975
0.0127982
0.0129785
0.0131295
0.0132406
0.0132988
0.0132872
0.0131761
0.0129492
0.0125998
0.012124
0.0115287
0.0108256
0.0100265
0.00915576
0.00823503
0.00728824
0.00635472
0.00554992
0.00487637
0.00426256
0.00367115
0.0030902
0.00253112
0.00202528
0.00157264
0.000824876
0.00106338
0.00212139
0.00259449
0.00302142
0.003433
0.00381667
0.00416984
0.00449929
0.00480995
0.00510569
0.00538903
0.00566159
0.00592435
0.00617783
0.00642238
0.00665824
0.00688566
0.0071049
0.00731632
0.00752031
0.00771732
0.00790782
0.00809235
0.00827144
0.00844567
0.00861559
0.00878179
0.00894486
0.00910537
0.00926392
0.00942108
0.00957744
0.00973355
0.00989001
0.0100474
0.0102062
0.0103672
0.0105329
0.0107025
0.0108758
0.011053
0.011234
0.0114191
0.0116081
0.0118009
0.0119972
0.0121963
0.0123972
0.0125988
0.012799
0.0129955
0.0131852
0.0133639
0.0135268
0.0136681
0.0137809
0.0138564
0.0138841
0.0138515
0.0137439
0.0135454
0.0132408
0.0128182
0.0122638
0.0115927
0.0108252
0.00997531
0.00905179
0.0080647
0.00702441
0.00597617
0.00498174
0.00414133
0.00352445
0.00302669
0.00258617
0.00217001
0.00177181
0.00138035
0.000704494
0.00131828
0.00258646
0.00313771
0.00360448
0.00403195
0.00441855
0.00476723
0.00509658
0.00541228
0.0057185
0.00601704
0.0063086
0.00659323
0.00687067
0.00714056
0.00740258
0.0076565
0.00790225
0.00813984
0.00836943
0.00859129
0.00880574
0.00901319
0.0092141
0.00940895
0.00959827
0.0097826
0.00996249
0.0101385
0.0103113
0.0104813
0.0106492
0.0108156
0.010981
0.011146
0.0113112
0.0114772
0.0116455
0.0118174
0.0119924
0.0121703
0.0123513
0.0125351
0.0127219
0.0129112
0.0131027
0.0132954
0.0134884
0.01368
0.0138682
0.0140503
0.0142228
0.0143813
0.0145203
0.0146335
0.0147132
0.0147514
0.014738
0.0146611
0.0145068
0.0142588
0.0139038
0.0134322
0.0128403
0.0121336
0.0113347
0.0104575
0.0095139
0.00851009
0.00742868
0.00627415
0.0050916
0.00397117
0.00307364
0.00250284
0.0021257
0.0018216
0.00152308
0.00117865
0.000605095
0.00166335
0.00319311
0.00371574
0.00417152
0.00457896
0.00494046
0.00527146
0.00559371
0.00591083
0.0062254
0.00653778
0.00684734
0.00715308
0.00745386
0.00774865
0.00803658
0.00831696
0.00858935
0.0088535
0.0091093
0.00935684
0.00959628
0.00982791
0.0100521
0.0102692
0.0104798
0.0106843
0.0108832
0.0110771
0.0112666
0.0114522
0.0116345
0.0118142
0.0119919
0.0121681
0.0123435
0.0125187
0.0126943
0.0128727
0.013054
0.013238
0.0134248
0.0136143
0.0138065
0.0140012
0.0141981
0.0143963
0.014595
0.0147926
0.0149871
0.0151761
0.0153562
0.0155232
0.0156719
0.0157964
0.0158849
0.0159333
0.0159282
0.0158622
0.0157249
0.0154926
0.0151492
0.014684
0.01409
0.0133701
0.012545
0.0116489
0.0106745
0.00966373
0.00862814
0.00753471
0.00635587
0.00510159
0.00384295
0.00276069
0.00213717
0.00176486
0.00146542
0.0011119
0.000557207
0.00240819
0.00378567
0.00429034
0.0047099
0.00507213
0.00539415
0.00570556
0.00602013
0.00633874
0.00666158
0.00698739
0.00731432
0.00764039
0.00796371
0.00828266
0.00859588
0.0089023
0.00920115
0.00949188
0.0097742
0.010048
0.0103132
0.0105701
0.0108188
0.0110598
0.0112933
0.0115198
0.0117399
0.011954
0.0121628
0.0123667
0.0125663
0.0127624
0.0129556
0.0131465
0.0133357
0.0135241
0.0137123
0.013901
0.0140928
0.0142877
0.0144856
0.0146866
0.014891
0.0150987
0.0153095
0.0155231
0.0157388
0.0159554
0.0161713
0.0163845
0.0165919
0.01679
0.0169739
0.0171379
0.0172749
0.017377
0.0174338
0.0174333
0.0173614
0.0172013
0.0169368
0.0165517
0.0160321
0.0153697
0.0145793
0.0136752
0.012693
0.0116428
0.0105971
0.00956841
0.00855233
0.00752803
0.00645289
0.00527342
0.00403232
0.00306285
0.00258059
0.00218973
0.00189479
0.00334407
0.0043427
0.00481693
0.00518263
0.00549326
0.00578354
0.00608257
0.00639274
0.00671409
0.0070451
0.00738336
0.00772612
0.00807071
0.0084147
0.00875599
0.00909284
0.00942386
0.00974799
0.0100644
0.0103727
0.0106724
0.0109635
0.0112459
0.0115198
0.0117855
0.0120431
0.0122931
0.012536
0.0127722
0.0130022
0.0132266
0.0134461
0.0136612
0.0138727
0.0140812
0.0142875
0.0144924
0.0146965
0.0149008
0.0151068
0.0153164
0.0155296
0.0157469
0.0159685
0.0161948
0.016426
0.016662
0.0169027
0.0171473
0.0173948
0.0176437
0.0178918
0.0181361
0.0183728
0.018597
0.0188029
0.0189832
0.0191286
0.0192282
0.0192688
0.0192358
0.0191128
0.0188825
0.0185275
0.0180331
0.01739
0.016599
0.0156736
0.014638
0.0135451
0.0124551
0.0114167
0.0104768
0.00966854
0.00900004
0.00846409
0.00807936
0.00799076
0.00837934
0.00914065
0.00418575
0.00486519
0.00527576
0.00558814
0.00586305
0.00614022
0.00643096
0.0067381
0.00706118
0.007398
0.00774555
0.00810057
0.00845996
0.00882089
0.00918095
0.00953807
0.00989061
0.0102372
0.010577
0.0109091
0.011233
0.0115485
0.0118554
0.0121537
0.0124436
0.0127252
0.0129988
0.0132648
0.0135236
0.0137757
0.0140217
0.0142621
0.0144976
0.0147289
0.0149567
0.0151818
0.0154051
0.0156274
0.0158496
0.0160725
0.0162991
0.01653
0.0167658
0.0170071
0.0172545
0.0175087
0.01777
0.0180387
0.0183146
0.0185972
0.0188857
0.0191786
0.0194738
0.0197683
0.0200584
0.0203394
0.0206051
0.0208482
0.0210593
0.0212276
0.0213407
0.0213845
0.0213435
0.0212011
0.0209408
0.0205485
0.0200148
0.0193376
0.0185229
0.017591
0.016575
0.0155245
0.0145083
0.0136048
0.0128885
0.0124234
0.0122758
0.0124973
0.0130208
0.0139209
0.00486885
0.00535385
0.00569639
0.00597158
0.00622982
0.00649586
0.00677868
0.00708122
0.00740299
0.00774164
0.00809395
0.00845647
0.00882584
0.00919902
0.00957332
0.00994649
0.0103166
0.0106822
0.0110419
0.011395
0.0117406
0.0120784
0.012408
0.0127293
0.0130422
0.0133468
0.0136434
0.0139322
0.0142135
0.0144879
0.0147556
0.0150175
0.0152739
0.0155258
0.0157737
0.0160186
0.0162613
0.0165029
0.0167442
0.0169863
0.0172306
0.0174799
0.0177348
0.0179963
0.0182653
0.0185427
0.0188293
0.0191256
0.0194322
0.0197491
0.0200759
0.020412
0.0207559
0.0211056
0.0214583
0.0218103
0.0221568
0.0224919
0.0228083
0.0230972
0.0233489
0.0235522
0.0236948
0.0237637
0.0237459
0.0236292
0.0234044
0.0230666
0.0226179
0.0220679
0.0214288
0.0207261
0.0199993
0.0192973
0.0187289
0.018372
0.0183047
0.0185402
0.0190847
0.0199243
0.00546174
0.00582995
0.00612174
0.00637406
0.00661795
0.00687231
0.00714541
0.00744032
0.00775674
0.00809249
0.00844443
0.0088091
0.00918311
0.00956329
0.00994683
0.0103313
0.0107145
0.0110949
0.011471
0.0118416
0.0122059
0.0125633
0.0129132
0.0132553
0.0135896
0.0139159
0.0142343
0.014545
0.0148481
0.0151442
0.0154335
0.0157166
0.0159941
0.0162666
0.0165349
0.0167998
0.0170623
0.0173233
0.0175839
0.0178452
0.0181084
0.0183762
0.01865
0.0189312
0.0192208
0.0195201
0.0198301
0.020152
0.0204864
0.0208341
0.0211951
0.0215694
0.0219561
0.022354
0.0227611
0.0231745
0.0235906
0.0240044
0.0244104
0.0248014
0.0251696
0.0255063
0.0258018
0.0260461
0.0262296
0.0263432
0.0263801
0.0263375
0.0262176
0.0260239
0.0257653
0.0254579
0.0251244
0.0247917
0.0244992
0.0242835
0.0241866
0.0242114
0.0244284
0.0248303
0.00601908
0.00631517
0.006572
0.0068078
0.00703905
0.00728175
0.00754352
0.00782784
0.00813496
0.00846314
0.00880961
0.00917113
0.00954442
0.00992632
0.010314
0.0107048
0.0110966
0.0114874
0.0118758
0.0122603
0.0126399
0.0130138
0.0133813
0.0137419
0.0140954
0.0144415
0.0147801
0.0151113
0.0154352
0.0157521
0.0160622
0.016366
0.016664
0.0169568
0.0172452
0.01753
0.017812
0.0180924
0.0183721
0.0186525
0.0189348
0.0192203
0.0195123
0.0198119
0.0201205
0.0204396
0.0207706
0.0211147
0.0214732
0.021847
0.0222368
0.0226428
0.0230648
0.0235022
0.0239534
0.0244164
0.0248882
0.0253649
0.0258417
0.0263128
0.0267716
0.0272107
0.0276221
0.0279975
0.0283287
0.0286081
0.0288295
0.0289896
0.0290858
0.0291177
0.0290883
0.0290038
0.0288715
0.0286995
0.0285123
0.028328
0.0281691
0.0280451
0.0280167
0.0280896
0.006574
0.00682398
0.00705545
0.00727733
0.00749911
0.00773086
0.00798065
0.0082523
0.00854692
0.00886359
0.00920013
0.00955375
0.00992141
0.0103001
0.010687
0.0110795
0.0114753
0.0118723
0.0122689
0.0126635
0.0130549
0.0134421
0.0138243
0.0142008
0.014571
0.0149347
0.0152917
0.0156417
0.0159848
0.0163212
0.016651
0.0169746
0.0172923
0.0176048
0.0179127
0.0182167
0.0185178
0.018817
0.0191153
0.019414
0.0197143
0.0200177
0.0203267
0.0206434
0.0209692
0.0213059
0.0216549
0.0220179
0.0223962
0.0227912
0.0232038
0.0236347
0.0240841
0.0245517
0.0250365
0.0255371
0.0260508
0.0265745
0.027104
0.0276342
0.0281591
0.0286721
0.0291659
0.0296329
0.0300654
0.0304557
0.0307974
0.0310846
0.031312
0.0314758
0.0315736
0.0316041
0.031565
0.0314599
0.0313058
0.0311211
0.0309179
0.0307067
0.0305054
0.0303387
0.00715462
0.00737137
0.0075816
0.00779031
0.00800348
0.00822512
0.00846284
0.0087207
0.00900075
0.00930306
0.00962625
0.00996814
0.0103261
0.0106974
0.0110792
0.0114691
0.0118647
0.0122639
0.0126649
0.0130659
0.0134656
0.0138629
0.0142566
0.014646
0.0150304
0.0154093
0.0157823
0.0161492
0.0165098
0.016864
0.017212
0.0175541
0.0178904
0.0182215
0.0185479
0.0188704
0.0191897
0.0195069
0.019823
0.0201392
0.0204569
0.0207774
0.0211022
0.0214345
0.0217758
0.0221277
0.022492
0.0228704