/*--------------------------------*- C++ -*----------------------------------*\
| =========                 |                                                 |
| \\      /  F ield         | OpenFOAM: The Open Source CFD Toolbox           |
|  \\    /   O peration     | Version:  v2012                                 |
|   \\  /    A nd           | Website:  www.openfoam.com                      |
|    \\/     M anipulation  |                                                 |
\*---------------------------------------------------------------------------*/
FoamFile
{
    version     2.0;
    format      ascii;
    class       volScalarField;
    location    "595";
    object      nut;
}
// * * * * * * * * * * * * * * * * * * * * * * * * * * * * * * * * * * * * * //

dimensions      [0 2 -1 0 0 0 0];


internalField   nonuniform List<scalar> 
6598
(
0.00288511
0.0101582
0.0121334
0.0124649
0.0124091
0.0124091
0.0124649
0.0121334
0.0101582
0.00288511
0.00217415
0.00835056
0.0111437
0.011908
0.012005
0.012005
0.011908
0.0111437
0.00835056
0.00217415
0.00174361
0.00719475
0.0102452
0.0113354
0.0115988
0.0115988
0.0113354
0.0102452
0.00719475
0.00174362
0.00146115
0.00638035
0.00946979
0.0107753
0.0111807
0.0111807
0.0107753
0.00946981
0.00638036
0.00146115
0.00126353
0.00576885
0.00880813
0.0102434
0.0107558
0.0107558
0.0102434
0.00880815
0.00576887
0.00126353
0.00111798
0.00528815
0.00824127
0.00974651
0.0103328
0.0103328
0.00974653
0.00824131
0.00528818
0.00111798
0.00100629
0.00489689
0.0077509
0.00928585
0.00991943
0.00991944
0.00928588
0.00775096
0.00489694
0.00100629
0.000917696
0.0045697
0.00732187
0.00886013
0.00952085
0.00952087
0.00886018
0.00732195
0.00456977
0.0009177
0.000845519
0.00429018
0.00694234
0.00846692
0.00914032
0.00914035
0.008467
0.00694246
0.00429029
0.000845525
0.000785415
0.00404727
0.0066032
0.00810344
0.00877946
0.00877951
0.00810357
0.00660338
0.00404744
0.000785423
0.00073445
0.00383324
0.0062975
0.00776695
0.00843876
0.00843884
0.00776715
0.00629778
0.0038335
0.000734462
0.000690578
0.00364253
0.00601988
0.00745486
0.00811798
0.0081181
0.00745516
0.00602029
0.00364292
0.000690596
0.000652331
0.00347101
0.00576613
0.00716484
0.0078164
0.00781658
0.00716528
0.00576675
0.00347158
0.000652357
0.000618626
0.00331555
0.00553296
0.00689476
0.00753307
0.00753333
0.00689542
0.00553387
0.00331638
0.000618664
0.000588649
0.0031737
0.00531767
0.00664275
0.00726687
0.00726726
0.00664375
0.00531902
0.00317493
0.000588703
0.000561775
0.00304353
0.00511808
0.00640713
0.00701666
0.00701721
0.00640863
0.00512007
0.00304533
0.000561852
0.000537515
0.00292347
0.00493236
0.00618638
0.00678129
0.00678208
0.00618856
0.00493532
0.00292606
0.000537624
0.00051548
0.0028122
0.00475894
0.00597914
0.00655966
0.00656076
0.00598225
0.00476332
0.00281585
0.000515633
0.000495357
0.00270863
0.00459649
0.00578419
0.00635074
0.0063523
0.00578861
0.00460275
0.00271385
0.000495571
0.000476894
0.00261186
0.00444395
0.0056006
0.00615374
0.00615595
0.00560689
0.00445285
0.00261801
0.000477182
0.000460304
0.00252306
0.00430321
0.00543071
0.0059713
0.00597448
0.00544011
0.00431929
0.00255565
0.000525398
0.00044492
0.00243929
0.00417017
0.00527002
0.00579885
0.00580346
0.0052843
0.00419845
0.00250679
0.000590225
0.000430595
0.0023598
0.00404363
0.00511714
0.00563497
0.00564157
0.00513837
0.00408904
0.00247357
0.000671502
0.00041721
0.00228409
0.00392289
0.00497131
0.00547894
0.00548805
0.0050013
0.00398829
0.00246815
0.000774788
0.000404659
0.00221169
0.00380731
0.00483186
0.00533004
0.00534189
0.00487097
0.00390017
0.00248883
0.000906407
0.000392853
0.0021422
0.00369631
0.00469813
0.00518764
0.00520273
0.00474641
0.00382793
0.00252436
0.00106693
0.000381708
0.00207517
0.00358921
0.00456938
0.00505104
0.00507036
0.00463211
0.00376525
0.00256437
0.00125311
0.000370815
0.00200841
0.00348272
0.00444185
0.00491652
0.00494156
0.00452532
0.00371074
0.00260817
0.00146505
0.000360485
0.00194355
0.00337926
0.00431834
0.00478705
0.00481938
0.00442793
0.00366566
0.00265735
0.00168696
0.000350659
0.00188037
0.00327859
0.00419874
0.0046627
0.00470392
0.00433944
0.00362955
0.00271343
0.0019004
0.000341281
0.00181856
0.00318022
0.00408255
0.00454301
0.00459475
0.00425909
0.00360193
0.0027764
0.0021024
0.0003323
0.00175777
0.00308366
0.00396923
0.00442751
0.0044914
0.00418619
0.00358223
0.00284456
0.0022904
0.000323667
0.00169766
0.00298839
0.00385824
0.00431568
0.00439335
0.00412008
0.00356961
0.00291504
0.00246243
0.000315336
0.00163791
0.00289389
0.00374899
0.00420697
0.0043
0.00406002
0.003563
0.00298611
0.00261744
0.000307262
0.00157818
0.00279959
0.00364086
0.00410075
0.00421073
0.00400523
0.0035613
0.00305594
0.00275501
0.000299404
0.00151818
0.00270491
0.00353318
0.00399634
0.00412479
0.00395483
0.00356328
0.00312292
0.00287533
0.00029172
0.00145766
0.0026093
0.00342522
0.00389296
0.00404136
0.00390781
0.00356766
0.0031857
0.00297903
0.000284169
0.0013964
0.00251222
0.00331626
0.00378979
0.00395951
0.00386309
0.00357312
0.00324332
0.00306718
0.00027671
0.00133426
0.00241315
0.00320552
0.0036859
0.0038782
0.00381946
0.00357835
0.00329519
0.00314128
0.000269304
0.00127118
0.00231169
0.00309224
0.00358031
0.00379626
0.00377559
0.00358206
0.00334105
0.00320319
0.000261911
0.00120717
0.00220748
0.00297565
0.00347194
0.0037124
0.00373007
0.00358297
0.00338084
0.00325506
0.00025449
0.00114232
0.0021003
0.00285501
0.00335963
0.00362517
0.00368129
0.00357974
0.00341459
0.00329914
0.000247001
0.00107679
0.00199001
0.0027296
0.00324213
0.0035329
0.00362745
0.00357083
0.0034421
0.00333748
0.000239401
0.00101082
0.00187663
0.00259875
0.00311807
0.00343376
0.00356647
0.00355441
0.00346267
0.00337151
0.000231645
0.00094468
0.00176027
0.00246186
0.00298605
0.00332563
0.00349586
0.0035281
0.0034748
0.00340147
0.000223685
0.000878636
0.00164113
0.00231842
0.00284454
0.00320614
0.00341271
0.00348884
0.00347584
0.0034259
0.000215464
0.000812929
0.00151951
0.00216799
0.00269206
0.00307271
0.00331362
0.00343282
0.00346185
0.00344122
0.000206914
0.000747757
0.00139572
0.00201032
0.00252718
0.00292269
0.00319485
0.00335546
0.00342759
0.00344167
0.000197953
0.000683262
0.00127015
0.00184534
0.00234874
0.0027535
0.0030525
0.00325168
0.00336675
0.00341958
0.000188466
0.000619528
0.00114322
0.0016733
0.00215608
0.00256312
0.00288303
0.00311643
0.00327257
0.00336611
0.000178296
0.00055657
0.00101552
0.00149501
0.00194948
0.00235067
0.002684
0.00294549
0.00313876
0.00327238
0.000167193
0.000494333
0.000888076
0.00131234
0.00173088
0.00211733
0.00245522
0.00273679
0.00296092
0.00313105
0.000145807
0.000433066
0.000762634
0.00112893
0.001505
0.00186778
0.00220029
0.00249208
0.00273828
0.00293762
9.68873e-05
0.000379234
0.000645575
0.000952022
0.0012804
0.00161118
0.00192784
0.00221827
0.00247389
0.00269018
0.000109384
0.000334784
0.000551405
0.000797837
0.0010732
0.00136324
0.0016525
0.00192666
0.00217685
0.00239818
9.93205e-05
0.000309403
0.000490668
0.000685321
0.00090656
0.00114759
0.00139493
0.00163823
0.00186929
0.00208201
7.36898e-05
0.000303467
0.000457981
0.000620082
0.000795727
0.000984688
0.00118359
0.00138593
0.00158478
0.00177392
6.51679e-05
0.000286816
0.000450146
0.000589125
0.000703698
0.000817041
0.00094165
0.00107612
0.00121477
0.00135124
6.53035e-05
0.000213586
0.000424627
0.000547953
0.000662899
0.000690226
0.000739682
0.000819353
0.00091899
0.00102115
6.91681e-05
0.000115241
0.00014168
0.000172796
0.000201032
0.000223083
0.000238426
0.000250962
0.000261327
0.000269746
0.000130196
0.000156489
0.000155289
0.000155767
0.000154979
0.000151789
0.000144663
0.000137713
0.000131131
0.000124809
0.000118641
0.000112794
0.000107283
0.000102075
9.7073e-05
9.23399e-05
8.79724e-05
8.3781e-05
7.96171e-05
7.53432e-05
7.07985e-05
6.57596e-05
4.56032e-05
4.7504e-05
3.435e-05
0.000231724
0.000461376
0.000662587
0.000749749
0.00077834
0.000776595
0.000697928
0.000635967
0.000625451
0.000619307
0.000577712
0.000539772
0.000504938
0.000472933
0.000442521
0.000405943
0.0003608
0.000312229
0.000264269
0.000219636
0.000180392
0.000147863
0.000123462
9.44207e-05
4.16778e-05
0.000376036
0.000604726
0.0008045
0.000944805
0.000993329
0.000967238
0.000784577
0.000665925
0.000617321
0.000617848
0.000657037
0.000703811
0.000670954
0.000642228
0.000615226
0.000583301
0.000537638
0.000479687
0.000412831
0.000342322
0.000274544
0.000215537
0.000169447
0.00013324
3.54562e-05
0.000626247
0.000635015
0.000863378
0.000988994
0.00103097
0.00101339
0.000906322
0.000756216
0.000658191
0.000626024
0.000646359
0.000671037
0.00064613
0.000632643
0.000624795
0.000614042
0.000588793
0.000545977
0.000485834
0.000412553
0.000334128
0.000260223
0.000198892
0.000147921
4.49567e-05
0.000958673
0.000835484
0.00100796
0.00105052
0.00104772
0.00100346
0.000937895
0.000865811
0.000757008
0.000676179
0.000631824
0.000578837
0.000552331
0.000550367
0.000562672
0.00057511
0.000572852
0.000548729
0.000501951
0.000436037
0.000358749
0.000280926
0.00021263
0.000152134
4.36573e-05
0.0012185
0.0011554
0.00122646
0.00118023
0.00111479
0.0010247
0.000928878
0.000838989
0.000750322
0.000659953
0.000572582
0.000503267
0.000466288
0.000464803
0.00048927
0.000518224
0.000531133
0.000518901
0.000482648
0.000425766
0.000355137
0.000280879
0.000212831
0.000148617
4.16195e-05
0.00143091
0.00154315
0.00146785
0.00134835
0.00122437
0.00108813
0.000963167
0.000854862
0.000750773
0.000644569
0.000544333
0.000464431
0.000417369
0.000405506
0.000421738
0.000448762
0.000466086
0.000460337
0.000432738
0.000386499
0.000327578
0.000264043
0.000202769
0.000139697
3.95189e-05
0.00164139
0.00178728
0.00171211
0.00154297
0.00136304
0.00118175
0.00102675
0.000901206
0.000781602
0.000659461
0.000545603
0.000455023
0.000395621
0.000367107
0.000364802
0.000376981
0.00038737
0.000382839
0.000362552
0.000328285
0.000284414
0.000236655
0.000189413
0.00012358
4.40393e-05
0.00184572
0.00201127
0.00195315
0.00175849
0.00152784
0.00130284
0.00111721
0.000975687
0.000842247
0.000703767
0.000574716
0.000472075
0.00039949
0.000352515
0.000326957
0.000317218
0.00031457
0.000308841
0.000294762
0.000272486
0.000244674
0.000214731
0.000167398
0.000135689
0.000140664
0.00204223
0.00221971
0.00218498
0.00198456
0.0017053
0.00143981
0.00122966
0.00107507
0.000933424
0.000780932
0.000635693
0.00051964
0.000435684
0.000375985
0.000333843
0.00030544
0.000288702
0.00028101
0.000272779
0.000263248
0.000254157
0.00024813
0.000247813
0.000237904
0.00019853
0.00222941
0.00241238
0.00239751
0.00219172
0.00188447
0.00158699
0.00135705
0.00119792
0.00105698
0.000897524
0.000737715
0.000606307
0.000510733
0.000443882
0.000397535
0.000366083
0.000346696
0.000338311
0.000334554
0.000333859
0.000336321
0.000342164
0.000345042
0.000360977
0.000393429
0.00240488
0.00258823
0.00258932
0.00238576
0.0020648
0.0017411
0.00149594
0.0013397
0.0012115
0.00105787
0.000891373
0.00074514
0.000633584
0.000554312
0.000500719
0.000466311
0.000446323
0.00043726
0.000433719
0.000434967
0.000441251
0.000453956
0.000476665
0.000517337
0.000585311
0.00256687
0.00274599
0.00275998
0.00256831
0.00224584
0.00189936
0.00164148
0.00149284
0.00138964
0.00123277
0.00110112
0.000951159
0.000827309
0.000732407
0.0006648
0.000620556
0.000595846
0.000582812
0.000580302
0.000587217
0.000604545
0.000634961
0.000684241
0.000761155
0.000876889
0.00271328
0.00288498
0.00290974
0.00273563
0.0024136
0.00205975
0.00179024
0.00164907
0.0015789
0.00132619
0.00119735
0.00115719
0.00110142
0.00100324
0.000927676
0.000873695
0.000840523
0.000820511
0.000816373
0.000828757
0.000859844
0.0009114
0.000987271
0.00107541
0.00114207
0.00284259
0.00300522
0.00304023
0.00288789
0.00257606
0.00222614
0.00194232
0.00180197
0.00176478
0.00157915
0.00134881
0.00126886
0.00125149
0.00125607
0.00126489
0.00121749
0.00117505
0.00115097
0.00114697
0.00116418
0.00116614
0.00116927
0.00120723
0.00129179
0.0014293
0.00295403
0.00310667
0.00315159
0.00302449
0.00273456
0.0023903
0.00210271
0.00194947
0.00193263
0.00196044
0.00168403
0.00153991
0.00148699
0.00146329
0.00144975
0.00143473
0.00141511
0.00139279
0.0013734
0.00136674
0.00138565
0.00143178
0.00150695
0.00162058
0.00176849
0.00304757
0.00318939
0.00324364
0.00314418
0.00288982
0.00255555
0.00226403
0.00209711
0.00207612
0.00214181
0.00220744
0.00202872
0.0019306
0.00187876
0.00183754
0.00180429
0.00177839
0.00176034
0.00175189
0.00175857
0.0017863
0.00183874
0.00191855
0.00202518
0.00215203
0.00312384
0.00325379
0.00331639
0.00324613
0.00303439
0.00272452
0.00242929
0.00224226
0.0022019
0.00227545
0.00238502
0.00247544
0.00252637
0.00250765
0.00245078
0.00240694
0.0023737
0.00234942
0.00233553
0.00233283
0.00234287
0.00237052
0.00241894
0.00248988
0.00258191
0.00318414
0.00330069
0.00337016
0.00332868
0.00316173
0.00289557
0.00260287
0.00239392
0.00231841
0.00236992
0.00249067
0.002618
0.00272581
0.00280339
0.00285437
0.00289156
0.00292656
0.00296715
0.00301809
0.00299894
0.00297064
0.00295488
0.00295838
0.00298632
0.00304017
0.00323046
0.00333152
0.00340508
0.00338998
0.00326769
0.00305228
0.00279135
0.00256321
0.00244775
0.0024574
0.00255917
0.00269815
0.00283365
0.00295342
0.00305532
0.00314066
0.00321648
0.00328984
0.00336532
0.0034463
0.00353362
0.00349931
0.00346387
0.00345669
0.0034809
0.00326546
0.00334852
0.00342213
0.0034294
0.0033487
0.00318564
0.00297062
0.00275599
0.00260496
0.00256389
0.0026235
0.00274476
0.00288636
0.00302339
0.00314809
0.00326135
0.00336572
0.00346379
0.00355741
0.00364866
0.00373881
0.00382832
0.00386139
0.00383629
0.00383659
0.0032924
0.003355
0.00342362
0.00344753
0.00340277
0.00328934
0.0031252
0.0029446
0.00279194
0.00270747
0.00271386
0.0027948
0.00291715
0.00305366
0.00318724
0.00331173
0.00342686
0.00353431
0.00363567
0.00373182
0.00382326
0.00391028
0.00399288
0.00405995
0.00405931
0.0033149
0.00335525
0.00341343
0.0034467
0.00343059
0.0033601
0.00324532
0.00310751
0.00297641
0.0028824
0.0028481
0.00287896
0.00296293
0.0030803
0.00320776
0.00333432
0.0034555
0.00356985
0.00367704
0.00377696
0.00386961
0.00395505
0.00403346
0.00410525
0.0041396
0.00333637
0.00335429
0.00339709
0.00343161
0.00343498
0.00339868
0.00332672
0.00323239
0.00313419
0.003053
0.00300736
0.00300766
0.00305383
0.00313676
0.00324231
0.00335808
0.00347568
0.00359017
0.00369868
0.00379949
0.00389198
0.00397603
0.00404403
0.00406879
0.0040933
0.00335928
0.00335703
0.00338125
0.00340929
0.00342204
0.00340955
0.00337137
0.00331452
0.00325086
0.00319399
0.00315671
0.0031489
0.00317476
0.00323199
0.00331325
0.00340969
0.00351325
0.00361755
0.00371854
0.00374835
0.00375191
0.00377321
0.00380684
0.00384385
0.00388015
0.0033842
0.00336701
0.00337248
0.00338829
0.00340082
0.00340091
0.00338562
0.00335759
0.00332338
0.00329162
0.00327123
0.0032696
0.00329129
0.00333672
0.00340196
0.00348064
0.00356627
0.00352369
0.00347823
0.0034608
0.00346549
0.00348532
0.00351501
0.00355068
0.00358888
0.00340893
0.00338494
0.00337536
0.00337676
0.00338186
0.00338414
0.00338018
0.00337012
0.00335705
0.00334601
0.00334259
0.0033518
0.00337709
0.00341925
0.00347569
0.00349137
0.00338517
0.00330111
0.00324922
0.0032244
0.00321859
0.00322708
0.00324692
0.00327509
0.00330876
0.00342798
0.00340738
0.0033903
0.00337981
0.00337448
0.00337147
0.0033686
0.00336546
0.00336338
0.00336494
0.00337333
0.00339164
0.00342209
0.00346495
0.00351758
0.00336885
0.00323903
0.00314705
0.00308433
0.0030458
0.00302716
0.00302436
0.0030338
0.00305275
0.00307888
0.00343274
0.00342626
0.00341194
0.00339654
0.00338297
0.00337198
0.00336387
0.003359
0.00335827
0.00336312
0.00337531
0.00339659
0.0034282
0.00347009
0.00351994
0.00333981
0.00318031
0.00306795
0.00298713
0.00293122
0.00289659
0.00287957
0.00287655
0.00288451
0.00290114
0.00341231
0.00342948
0.00342881
0.00341824
0.00340307
0.00338722
0.00337313
0.00336253
0.0033569
0.00335759
0.00336589
0.00338289
0.0034093
0.00344508
0.0034888
0.00346446
0.00325741
0.00310181
0.00299127
0.00291297
0.00285732
0.00282037
0.00279924
0.0027909
0.00279308
0.0033549
0.00340249
0.00342437
0.00342834
0.00342115
0.00340791
0.00339251
0.00337794
0.00336655
0.00336021
0.00336039
0.00336816
0.00338418
0.00340859
0.00344086
0.00347939
0.00352139
0.0033198
0.00315583
0.00303694
0.00295026
0.00288722
0.00284284
0.00281318
0.00279573
0.0032495
0.00332955
0.00337945
0.00340624
0.00341615
0.00341449
0.00340571
0.00339347
0.00338076
0.00336999
0.00336304
0.00336131
0.00336575
0.00337684
0.00339461
0.00341861
0.00344785
0.00348048
0.00351488
0.00336639
0.00322985
0.00312733
0.00305114
0.0029946
0.00295392
0.00308605
0.00319727
0.0032772
0.00333125
0.0033646
0.00338206
0.00338789
0.00338581
0.00337903
0.00337023
0.0033616
0.00335486
0.00335131
0.00335182
0.00335689
0.00336668
0.00338105
0.00339954
0.00342143
0.00344552
0.00347103
0.00349724
0.00345389
0.00336141
0.00329002
0.00286137
0.00299885
0.0031065
0.00318798
0.00324714
0.00328782
0.00331368
0.00332807
0.00333402
0.00333418
0.00333082
0.00332582
0.0033207
0.00331663
0.00331445
0.00331473
0.00331782
0.00332381
0.00333266
0.0033441
0.00335782
0.00337341
0.00339026
0.00340781
0.00342567
0.00258178
0.00273717
0.00286629
0.00297107
0.00305395
0.00311763
0.00316489
0.00319848
0.00322099
0.00323481
0.00324206
0.00324461
0.00324403
0.00324162
0.00323842
0.00323525
0.00323272
0.00323125
0.00323112
0.0032325
0.00323542
0.00323985
0.00324566
0.00325268
0.0032607
0.00226549
0.00242728
0.00256761
0.00268702
0.00278669
0.0028682
0.00293339
0.00298426
0.00302282
0.00305102
0.0030707
0.0030835
0.0030909
0.00309419
0.00309445
0.00309258
0.00308933
0.00308528
0.0030809
0.00307653
0.00307246
0.00306884
0.00306581
0.00306343
0.00306176
0.00193034
0.00207527
0.00222469
0.00235261
0.00245683
0.00254548
0.00261957
0.0026803
0.00272904
0.00276717
0.00279609
0.00281712
0.00283151
0.00284036
0.00284468
0.00284535
0.00284311
0.00283861
0.00283239
0.00282488
0.00281645
0.00280741
0.00279799
0.0027884
0.00277886
0.00148073
0.00161176
0.00174784
0.00189254
0.00204927
0.00214053
0.0022082
0.00226444
0.00231016
0.00234633
0.00237394
0.00239394
0.00240731
0.00241492
0.0024176
0.00241611
0.00241114
0.00240326
0.00239303
0.00238088
0.00236723
0.00235241
0.00233671
0.00232039
0.00230377
0.00112229
0.00123145
0.00134708
0.00142159
0.00146977
0.00151006
0.00154272
0.00156823
0.00158715
0.00160006
0.00160757
0.0016103
0.00160883
0.00160374
0.00159558
0.00158484
0.00157197
0.00155739
0.00154145
0.00152448
0.00150676
0.00148851
0.00146995
0.00145125
0.00143263
0.000276427
0.00028216
0.000287135
0.000291303
0.000294706
0.000297417
0.000299494
0.000300987
0.000301948
0.000302424
0.000302463
0.000302111
0.000301414
0.000300413
0.000299148
0.000297658
0.000295975
0.000294134
0.000292162
0.000290086
0.000287928
0.000285708
0.000283445
0.000281153
0.000278845
3.89811e-05
5.44858e-05
6.51055e-05
0.00013891
0.000127011
0.000244854
0.000239535
0.000341512
0.000437628
0.000453742
0.000552512
0.000729837
0.00070242
0.000867222
0.00109587
0.0010292
0.001177
0.0014001
0.00129441
0.00149112
0.00171267
0.00160647
0.00179346
0.00199733
0.00193075
0.00209739
0.00228386
0.00228919
0.00243538
0.0026028
0.00269
0.00281215
0.00295614
0.00311698
0.00321226
0.00332946
0.00353152
0.00360231
0.00369273
0.0038665
0.00391717
0.00398324
0.00407376
0.00410827
0.00415526
0.00415656
0.00418223
0.00421701
0.0041171
0.00414293
0.00417374
0.00391222
0.00394346
0.00397815
0.00362513
0.00366052
0.00369862
0.00334273
0.00337682
0.00341378
0.00310709
0.0031369
0.00317012
0.00292145
0.00294501
0.0029726
0.00280118
0.00281476
0.00283324
0.00278677
0.00278568
0.00279057
0.0029251
0.00290627
0.00289415
0.00323781
0.00319978
0.00317047
0.00344179
0.00345788
0.00347411
0.00326845
0.00327679
0.00328567
0.00306064
0.00306011
0.00306003
0.00277026
0.00276192
0.00275367
0.00228866
0.00227361
0.00225845
0.00141616
0.00139995
0.00138389
0.000276814
0.000274793
0.000272785
2.544e-05
4.40472e-05
5.41299e-05
5.58439e-05
6.70427e-05
7.17812e-05
7.58691e-05
7.9481e-05
8.27262e-05
8.56771e-05
8.83848e-05
9.08878e-05
9.32163e-05
9.5395e-05
9.7445e-05
9.93841e-05
0.000101228
0.000102991
0.000104686
0.000106324
0.000107915
0.00010947
0.000110997
0.000112505
0.000114002
0.000115498
0.000117001
0.000118519
0.000120064
0.000121645
0.000123276
0.000124972
0.000126749
0.000128631
0.000130586
0.000132589
0.00013464
0.000136742
0.000138913
0.000141141
0.000143423
0.000145772
0.000148194
0.000150691
0.000153268
0.000155927
0.000158672
0.000161505
0.000164425
0.000167433
0.000170524
0.00017369
0.000176916
0.000180179
0.000183436
0.000186625
0.000189645
0.000192337
0.00019447
0.000195843
0.00019658
0.000196773
0.000196499
0.000195414
0.00019304
0.000189553
0.000184699
0.000178704
0.00017186
0.000164289
0.000156147
0.000147413
0.000139154
0.000131095
0.000122928
0.0001144
0.000105189
8.69944e-05
8.15915e-05
5.48765e-05
4.51472e-05
0.000128159
0.000148554
0.000168721
0.000193967
0.000222831
0.000253593
0.000285531
0.00031797
0.000350348
0.00038221
0.000413208
0.000443098
0.000471733
0.000499039
0.000525003
0.000549655
0.000573055
0.000595284
0.000616431
0.00063659
0.000655854
0.000674311
0.000692044
0.000709123
0.000725611
0.00074156
0.00075701
0.000771982
0.000786482
0.000800498
0.000813992
0.000826811
0.000838932
0.000851393
0.000864459
0.000877893
0.000891704
0.000905884
0.000920362
0.000935166
0.000950367
0.000965985
0.000982029
0.000998503
0.0010154
0.00103272
0.00105041
0.00106845
0.00108677
0.00110527
0.00112379
0.00114215
0.00116005
0.00117706
0.00119259
0.00120578
0.00121546
0.00122009
0.00121761
0.00120717
0.00119091
0.00116846
0.00113857
0.00109985
0.001056
0.00100557
0.000952214
0.000897012
0.000838971
0.000779163
0.0007157
0.000624574
0.000522458
0.00042218
0.000332313
0.000258228
0.000202911
0.000161584
6.32561e-05
5.58096e-05
0.000190368
0.000242483
0.0002961
0.000354705
0.000421397
0.000493068
0.000567348
0.000642241
0.000716191
0.000788057
0.000857075
0.000922789
0.00098498
0.0010436
0.00109872
0.0011505
0.00119912
0.00124479
0.00128775
0.00132822
0.00136639
0.00140248
0.00143665
0.00146907
0.0014999
0.00152925
0.00155723
0.00158395
0.00160947
0.00163388
0.00165721
0.00167949
0.00170078
0.00172111
0.00174188
0.00176304
0.00178425
0.0018054
0.00182644
0.00184733
0.00186803
0.00188848
0.0019086
0.00192828
0.00194738
0.00196573
0.00198313
0.0019993
0.00201396
0.00202672
0.00203713
0.00204465
0.00204864
0.00204831
0.00204274
0.00203079
0.00201117
0.00198243
0.00188233
0.00168643
0.00152354
0.0013948
0.00129688
0.00122835
0.00118707
0.00116544
0.0011792
0.00122175
0.00115817
0.00108201
0.0010031
0.000902184
0.000774595
0.000632121
0.000490796
0.000366891
0.000271516
0.000200219
6.51826e-05
5.93355e-05
0.000238369
0.000334955
0.000448432
0.000547732
0.000657443
0.00077299
0.000890585
0.00100717
0.00112054
0.00122922
0.00133237
0.00142961
0.00152084
0.00160619
0.00168591
0.00176031
0.00182973
0.00189452
0.00195504
0.00201162
0.00206455
0.00211412
0.0021606
0.00220422
0.00224519
0.0022837
0.00231992
0.00235399
0.00238605
0.0024162
0.00244455
0.00247115
0.00249609
0.00251938
0.00254106
0.00256273
0.00258377
0.00260386
0.00262285
0.00264058
0.00265691
0.00267166
0.00268465
0.00269563
0.00270433
0.00271043
0.00271355
0.00271327
0.00270911
0.00270051
0.00268687
0.00266751
0.0026417
0.0026087
0.00256769
0.0025178
0.0024582
0.00238811
0.00230679
0.00208069
0.00183759
0.00163582
0.00146799
0.00133548
0.00123642
0.00116856
0.00113396
0.00113278
0.00115751
0.00109546
0.0010223
0.000939835
0.000825913
0.000688299
0.000542249
0.000406502
0.000296443
0.000208722
6.24815e-05
7.09413e-05
0.000286531
0.000416009
0.000577988
0.000757259
0.000918683
0.00107498
0.00123102
0.00138333
0.00152957
0.0016684
0.00179915
0.00192168
0.00203612
0.00214279
0.00224209
0.00233449
0.00242045
0.00250041
0.0025748
0.00264402
0.00270845
0.00276841
0.00282423
0.00287616
0.00292447
0.00296938
0.00301108
0.00304974
0.00308552
0.00311853
0.00314889
0.00317666
0.00320192
0.00322469
0.00324499
0.00326288
0.00327976
0.00329491
0.00330796
0.00331867
0.0033268
0.00333212
0.00333434
0.00333315
0.0033282
0.00331907
0.0033053
0.00328639
0.00326174
0.00323074
0.00319269
0.00314687
0.00309254
0.00302898
0.00295559
0.0028717
0.00277676
0.00267035
0.00255225
0.0024226
0.00228145
0.00211662
0.0018495
0.00162909
0.00144614
0.00129232
0.00117365
0.00108303
0.00102722
0.00100384
0.000914562
0.000833364
0.000743837
0.000630586
0.000507994
0.000389933
0.000287873
0.000197671
5.77426e-05
5.20301e-05
0.000329867
0.000488251
0.000691327
0.000928455
0.00119551
0.00138671
0.0015743
0.00175519
0.00192731
0.00208965
0.00224187
0.0023841
0.0025167
0.00264013
0.00275496
0.00286171
0.00296093
0.00305311
0.00313874
0.00321824
0.00329201
0.00336043
0.00342381
0.00348245
0.00353663
0.00358657
0.00363248
0.00367454
0.00371291
0.00374772
0.00377907
0.00380705
0.00383171
0.00385307
0.00387116
0.00388593
0.003898
0.00390791
0.00391505
0.00391908
0.0039197
0.00391662
0.00390955
0.00389814
0.00388199
0.00386066
0.00383364
0.00380037
0.00376024
0.00371256
0.00365659
0.00359156
0.00351664
0.00343104
0.00333411
0.00322528
0.003104
0.00296999
0.0028231
0.00266357
0.00249242
0.00231153
0.00212369
0.00193255
0.00174342
0.00156107
0.00138886
0.00122802
0.00104225
0.000910631
0.000819268
0.000705614
0.000608517
0.000517281
0.000427403
0.000339668
0.000256121
0.000168823
5.35142e-05
8.87252e-05
0.000271122
0.000542664
0.000799797
0.00111657
0.001485
0.00170191
0.00191371
0.00211627
0.00230785
0.00248785
0.00265629
0.00281353
0.00296011
0.00309664
0.00322374
0.00334199
0.00345198
0.00355421
0.00364919
0.00373735
0.00381909
0.00389479
0.00396478
0.00402936
0.0040888
0.00414334
0.00419319
0.00423853
0.00427952
0.00431629
0.00434896
0.00437762
0.00440232
0.00442311
0.00444002
0.00445303
0.00446212
0.0044684
0.00447157
0.0044712
0.00446697
0.00445858
0.00444573
0.00442806
0.0044052
0.00437667
0.00434198
0.00430055
0.00425172
0.00419479
0.00412896
0.00405341
0.00396725
0.00386963
0.00375947
0.00363618
0.00349885
0.00334724
0.0031814
0.0030011
0.00280707
0.00260097
0.00238543
0.00216434
0.00194304
0.00172793
0.00152199
0.00132955
0.00115317
0.000991005
0.000840134
0.000698173
0.000565501
0.000451823
0.000370433
0.000297211
0.000227307
0.000149166
5.13529e-05
0.000185097
0.000389391
0.000679226
0.000988267
0.00140261
0.00178917
0.00202571
0.00225484
0.00247277
0.00267815
0.00287077
0.00305098
0.00321934
0.00337651
0.00352317
0.00365998
0.00378753
0.0039064
0.0040171
0.0041201
0.00421584
0.00430471
0.00438707
0.00446324
0.00453353
0.00459818
0.00465744
0.00471151
0.00476058
0.00480482
0.00484435
0.0048793
0.00490976
0.00493581
0.00495751
0.0049749
0.00498799
0.00499681
0.00500133
0.00500273
0.00500049
0.00499423
0.00498367
0.0049685
0.00494841
0.00492302
0.00489193
0.00485462
0.00481054
0.00475904
0.00469939
0.00463077
0.00455229
0.004463
0.00436189
0.00424792
0.00412011
0.00397746
0.00381918
0.0036447
0.00345376
0.00324668
0.00302451
0.00278921
0.0025438
0.0022934
0.00204334
0.00179962
0.00156591
0.00134979
0.00115462
0.000981521
0.000829391
0.000684915
0.000510253
0.00037394
0.000315723
0.000255309
0.000227974
0.000171065
0.000378923
0.000657444
0.000926201
0.00133347
0.00184371
0.00210133
0.00235181
0.00259192
0.00281935
0.00303338
0.00323417
0.00342229
0.00359842
0.00376329
0.00391759
0.00406195
0.00419697
0.00432318
0.00444107
0.00455107
0.0046536
0.00474902
0.00483767
0.00491986
0.00499586
0.00506593
0.0051303
0.00518916
0.00524269
0.00529107
0.00533442
0.00537286
0.00540652
0.00543546
0.00545976
0.00547946
0.00549461
0.0055052
0.0055112
0.00551313
0.00551153
0.00550598
0.00549619
0.00548189
0.00546282
0.00543866
0.00540903
0.00537349
0.00533152
0.00528253
0.0052258
0.00516054
0.00508586
0.00500078
0.00490421
0.00479504
0.00467209
0.00453419
0.0043802
0.00420917
0.00402038
0.00381358
0.00358908
0.00334796
0.00309239
0.00282566
0.00255192
0.00227557
0.00200131
0.00173605
0.00148843
0.00126657
0.0010754
0.000916173
0.000786678
0.000682991
0.000603326
0.000551656
0.000526023
0.000513197
0.000654022
0.00101432
0.0013469
0.0018578
0.00215531
0.00242339
0.00268046
0.00292509
0.00315628
0.00337391
0.00357846
0.0037706
0.0039511
0.00412066
0.00427995
0.00442955
0.00457
0.00470178
0.00482534
0.00494107
0.00504934
0.00515048
0.00524479
0.00533256
0.00541403
0.00548945
0.00555902
0.00562292
0.00568134
0.00573443
0.00578232
0.00582513
0.00586297
0.00589594
0.0059241
0.00594751
0.00596623
0.00598026
0.00598962
0.00599426
0.00599526
0.00599239
0.00598546
0.00597424
0.00595854
0.0059381
0.00591263
0.00588177
0.00584507
0.00580202
0.00575199
0.00569426
0.005628
0.00555228
0.00546604
0.00536817
0.00525744
0.00513259
0.00499236
0.00483553
0.00466106
0.00446823
0.00425668
0.0040267
0.00377939
0.00351686
0.00324214
0.00295868
0.00266987
0.00237992
0.00209801
0.00183318
0.00159355
0.00138608
0.00121601
0.00108595
0.000997324
0.000949715
0.000930484
0.000943534
0.00101273
0.00138631
0.00180725
0.00219843
0.00248512
0.00275554
0.00301238
0.00325571
0.00348552
0.00370223
0.0039065
0.0040991
0.00428076
0.00445214
0.00461383
0.00476637
0.0049102
0.00504576
0.00517342
0.00529351
0.00540636
0.00551225
0.00561144
0.00570418
0.00579069
0.00587117
0.00594581
0.00601478
0.00607823
0.0061363
0.00618913
0.00623682
0.00627948
0.00631719
0.00635003
0.00637807
0.00640137
0.00641995
0.00643386
0.0064431
0.00644774
0.00644877
0.00644594
0.0064391
0.0064281
0.00641279
0.00639295
0.00636834
0.00633861
0.00630336
0.00626209
0.0062142
0.00615899
0.00609564
0.00602322
0.0059407
0.00584697
0.00574081
0.00562099
0.00548626
0.00533548
0.00516767
0.00498213
0.00477857
0.00455734
0.00431957
0.00406733
0.00380344
0.0035303
0.00325385
0.00298009
0.00271593
0.00246843
0.00224437
0.00205271
0.00190037
0.001792
0.00172789
0.00171036
0.00175134
0.00137418
0.00173677
0.00218089
0.00254624
0.00282998
0.00309572
0.00334656
0.00358364
0.00380769
0.0040195
0.00421988
0.0044096
0.00458937
0.00475976
0.00492131
0.00507444
0.00521955
0.00535698
0.00548704
0.00561
0.00572611
0.00583562
0.00593872
0.00603562
0.0061265
0.00621152
0.00629084
0.00636461
0.00643294
0.00649597
0.00655379
0.00660652
0.00665423
0.00669701
0.00673493
0.00676805
0.00679643
0.00682011
0.00683912
0.00685345
0.00686309