/*--------------------------------*- C++ -*----------------------------------*\
| =========                 |                                                 |
| \\      /  F ield         | OpenFOAM: The Open Source CFD Toolbox           |
|  \\    /   O peration     | Version:  v2012                                 |
|   \\  /    A nd           | Website:  www.openfoam.com                      |
|    \\/     M anipulation  |                                                 |
\*---------------------------------------------------------------------------*/
FoamFile
{
    version     2.0;
    format      ascii;
    class       volScalarField;
    location    "595";
    object      omega;
}
// * * * * * * * * * * * * * * * * * * * * * * * * * * * * * * * * * * * * * //

dimensions      [0 0 -1 0 0 0 0];


internalField   nonuniform List<scalar> 
6598
(
572.102
204.371
177.489
174.374
175.852
175.852
174.374
177.489
204.371
572.102
431.122
178.158
146.953
141.516
141.621
141.621
141.516
146.953
178.157
431.122
345.75
153.853
124.904
118.593
117.764
117.764
118.593
124.904
153.853
345.75
289.739
133.855
108.202
101.776
100.435
100.435
101.776
108.202
133.855
289.739
250.552
117.833
95.1645
88.9585
87.3777
87.3776
88.9585
95.1644
117.833
250.552
221.69
104.987
84.7598
78.895
77.2285
77.2285
78.8949
84.7597
104.987
221.69
199.542
94.5811
76.3051
70.8043
69.1341
69.1341
70.8042
76.3049
94.5807
199.542
181.974
86.0397
69.3273
64.1724
62.5393
62.5393
64.1723
69.327
86.0392
181.975
167.662
78.9325
63.489
58.6475
57.0699
57.0698
58.6473
63.4887
78.9318
167.663
155.744
72.9413
58.5442
53.9809
52.4651
52.465
53.9806
58.5437
72.9402
155.745
145.637
67.8296
54.3101
49.9919
48.5382
48.5381
49.9915
54.3093
67.8279
145.64
136.938
63.4202
50.6485
46.5464
45.1523
45.1521
46.5459
50.6473
63.4177
136.942
129.354
59.5791
47.454
43.543
42.2044
42.2042
43.5422
47.4522
59.5754
129.359
122.67
56.2033
44.6444
40.9034
39.6161
39.6157
40.9021
44.6417
56.1976
122.678
116.726
53.2127
42.1555
38.5665
37.3264
37.3258
38.5646
42.1515
53.2044
116.737
111.397
50.5448
39.9361
36.484
35.2871
35.2862
36.4811
39.9302
50.5325
111.412
106.586
48.1498
37.9454
34.6172
33.4599
33.4587
34.613
37.9366
48.132
106.608
102.217
45.9878
36.1504
32.9349
31.8138
31.8121
32.929
36.1374
45.963
102.247
98.2267
44.0267
34.5241
31.4115
30.3238
30.3214
31.4033
34.5058
43.9916
98.269
94.5655
42.2412
33.0454
30.0272
28.9699
28.9666
30.0154
33.0191
42.2009
94.6227
91.2759
40.6499
31.7278
28.7935
27.7632
27.7582
28.7743
31.6652
40.2268
80.3357
88.2252
39.1886
30.5193
27.6622
26.6564
26.6486
27.6293
30.3909
38.2773
68.6863
85.3847
37.8421
29.4062
26.62
25.6362
25.624
26.5658
29.1838
36.3335
59.4456
82.7304
36.5983
28.3783
25.6571
24.6927
24.6745
25.5739
28.0408
34.2495
52.1099
80.2417
35.447
27.4268
24.7651
23.8178
23.7925
24.649
26.9244
32.1245
46.3067
77.9006
34.3794
26.5444
23.9368
23.004
22.97
23.7868
25.8234
30.1634
41.7619
75.6907
33.3875
25.7238
23.1652
22.2444
22.1992
22.9664
24.7915
28.4664
38.1953
73.5306
32.4357
24.9364
22.4237
21.5128
21.453
22.1618
23.8005
26.9975
35.3015
71.4822
31.5518
24.2038
21.7318
20.8278
20.7508
21.399
22.8811
25.7538
32.9407
69.5338
30.7316
23.5225
21.0862
20.1863
20.0899
20.6783
22.0316
24.6704
30.829
67.6743
29.9705
22.8892
20.4834
19.5847
19.4671
19.9982
21.2454
23.7007
28.9416
65.8934
29.2656
22.3007
19.9204
19.02
18.8798
19.3564
20.5141
22.8068
27.247
64.1814
28.6147
21.7551
19.3948
18.4898
18.3256
18.7504
19.8284
21.9566
25.7152
62.5294
28.0162
21.2509
18.905
17.9923
17.8027
18.1772
19.1788
21.1375
24.3194
60.9284
27.4691
20.7872
18.45
17.5261
17.3094
17.6341
18.5583
20.3418
23.0368
59.3703
26.973
20.3641
18.0292
17.0905
16.8447
17.1189
17.9617
19.5658
21.8482
57.8465
26.5275
19.9821
17.6429
16.6854
16.408
16.6298
17.3859
18.8083
20.7385
56.3491
26.1327
19.6423
17.292
16.3112
15.9994
16.1663
16.83
18.0707
19.697
54.8701
25.7883
19.3462
16.9779
15.9691
15.6196
15.7287
16.2948
17.3562
18.7166
53.4015
25.4937
19.096
16.7027
15.661
15.2702
15.3187
15.7834
16.67
17.7946
51.9355
25.2483
18.8939
16.4693
15.3894
14.9537
14.9388
15.3004
16.0191
16.9315
50.464
25.0503
18.7424
16.2809
15.1576
14.6732
14.5929
14.8516
15.4113
16.1317
48.9789
24.8974
18.6441
16.1413
14.9695
14.4327
14.2853
14.4438
14.8554
15.4019
47.4719
24.7858
18.6011
16.0544
14.8293
14.2365
14.0212
14.0835
14.3597
14.7498
45.934
24.7106
18.6149
16.0243
14.7418
14.0895
13.8056
13.777
13.9315
14.1829
44.3555
24.6657
18.6865
16.0549
14.7116
13.9965
13.6435
13.5294
13.5759
13.7068
42.7253
24.644
18.8156
16.1493
14.7432
13.9621
13.5395
13.3448
13.296
13.3237
41.03
24.6369
19.0007
16.31
14.8406
13.9906
13.4972
13.2259
13.0923
13.0323
39.253
24.6344
19.2382
16.5377
15.0064
14.0854
13.5198
13.1742
12.964
12.8286
37.3719
24.6239
19.5217
16.8306
15.2414
14.2483
13.6089
13.1901
12.9085
12.7068
35.3551
24.5882
19.8389
17.1813
15.542
14.4776
13.7637
13.2721
12.9225
12.6607
33.1536
24.4978
20.1664
17.5732
15.8965
14.7653
13.978
13.4153
13.001
12.6837
30.6735
24.2684
20.4423
17.9634
16.2743
15.0887
14.2358
13.6082
13.1354
12.7713
27.7234
23.8024
20.5803
18.2737
16.6117
15.4005
14.5036
13.8293
13.3191
12.9298
24.1942
22.8886
20.47
18.4163
16.834
15.6404
14.7395
14.0637
13.5501
13.1488
19.6947
20.8502
19.75
18.2138
16.8478
15.7587
14.9365
14.3069
13.8131
13.4162
14.6123
17.0336
17.8464
17.317
16.487
15.7358
15.0954
14.56
14.1145
13.7424
12.9224
11.6767
14.3845
15.4069
15.604
15.4548
15.1715
14.849
14.5312
14.2375
12.9493
9.60905
11.2268
13.2736
14.5183
15.2158
15.5608
15.6726
15.6522
15.5787
13.7157
14.4494
17.7644
21.6658
25.2062
27.9711
29.8949
31.4667
32.7663
33.8219
34.6356
21.0452
20.8838
20.9481
20.8422
20.4132
19.4548
18.5201
17.635
16.7848
15.9552
15.169
14.4279
13.7274
13.0547
12.4182
11.8309
11.2672
10.7072
10.1324
9.52124
8.8436
8.03351
6.96992
5.99403
44.626
16.082
9.82787
8.40062
7.84506
7.42475
6.92907
6.41464
5.99602
5.65635
5.37079
5.1458
4.98318
4.87228
4.80902
4.8439
4.99076
5.21873
5.50254
5.82107
6.14641
6.43037
6.61741
6.63957
9.15733
48.1206
21.5572
11.5057
8.43505
7.21865
6.43977
5.76226
5.07384
4.51793
4.09728
3.77222
3.5334
3.36518
3.25623
3.19977
3.20553
3.29194
3.463
3.72451
4.0793
4.51932
5.00943
5.5019
5.98676
9.82971
48.1091
25.743
14.6295
9.99194
7.8861
6.57881
5.55846
4.71307
4.00323
3.51264
3.15295
2.89545
2.70805
2.58139
2.51123
2.50094
2.56093
2.69357
2.9093
3.22188
3.64042
4.15413
4.72526
5.38725
9.87775
46.3579
28.6679
17.2758
11.8876
8.9993
7.09881
5.68948
4.62677
3.85032
3.30248
2.90223
2.61667
2.39154
2.22602
2.12623
2.0957
2.14965
2.2734
2.47063
2.75463
3.14136
3.63296
4.2046
4.92822
9.59225
43.9057
30.0657
19.6828
13.6564
10.0963
7.71995
5.98129
4.72136
3.85533
3.27631
2.87694
2.56927
2.30316
2.08299
1.9368
1.88294
1.9337
2.05887
2.24868
2.51387
2.87211
3.33087
3.87483
4.61168
9.14453
41.1015
30.7147
21.4938
15.2693
11.2063
8.36111
6.28934
4.83474
3.89579
3.32701
2.95937
2.66994
2.39718
2.15122
1.97217
1.88925
1.91413
2.02709
2.20533
2.45246
2.78129
3.20036
3.71361
4.48795
8.68299
38.2973
30.7374
22.6628
16.6209
12.2676
9.04751
6.6617
5.0153
3.99859
3.43835
3.12198
2.88775
2.64859
2.40443
2.19961
2.08073
2.07249
2.16737
2.331
2.56249
2.87308
3.28203
3.82477
4.62378
8.32459
35.7062
30.271
23.3175
17.6824
13.2458
9.76036
7.09314
5.25992
4.16373
3.60776
3.34826
3.19811
3.04519
2.86227
2.6747
2.53272
2.48969
2.57054
2.736
2.99034
3.35777
3.89166
4.71494
6.10638
8.97131
33.344
29.4065
23.6266
18.4517
14.0621
10.4139
7.54083
5.53994
4.36945
3.8087
3.59657
3.53751
3.51236
3.47258
3.41622
3.36989
3.3763
3.49701
3.73488
4.11483
4.68354
5.51732
6.70418
8.19332
9.5284
31.2042
28.3427
23.611
18.881
14.6631
10.9725
7.9636
5.83517
4.59346
4.01249
3.82033
3.8214
3.90282
4.0144
4.13823
4.27487
4.43744
4.65042
4.9702
5.4123
5.97717
6.63138
7.27813
7.75198
7.86926
29.2661
27.1956
23.3353
19.0611
15.0855
11.4419
8.36178
6.13186
4.81407
4.18967
3.9809
3.98764
4.09749
4.26212
4.46057
4.68063
4.91252
5.14752
5.41508
5.713
6.02008
6.29737
6.4924
6.55737
6.38437
27.5128
26.0267
22.8626
19.0732
15.3675
11.8362
8.73796
6.42439
5.01988
4.32416
4.06411
4.03439
4.11139
4.24054
4.40147
4.58137
4.7688
4.9617
5.15518
5.33591
5.48745
5.58424
5.59816
5.49632
5.22493
25.9195
24.8684
22.2632
18.9669
15.5287
12.166
9.10239
6.72185
5.21888
4.42574
4.08629
4.00223
4.03452
4.11726
4.22509
4.3469
4.47406
4.60352
4.72094
4.81783
4.88576
4.89583
4.81618
4.63162
4.32433
24.4619
23.7377
21.597
18.765
15.6089
12.4581
9.47494
7.0431
5.42243
4.51899
4.08406
3.9299
3.9147
3.95777
4.02516
4.10245
4.18585
4.26337
4.32469
4.35976
4.35482
4.29197
4.15625
3.94141
3.65673
23.1186
22.645
20.8979
18.4777
15.645
12.7158
9.87588
7.4185
5.66682
4.63247
4.08941
3.84297
3.76576
3.76741
3.79967
3.84425
3.88978
3.92541
3.94177
3.92892
3.87647
3.7764
3.6252
3.42761
3.19944
21.8716
21.5932
20.1835
18.1147
15.655
12.9588
10.2878
7.87915
6.01692
4.81876
4.15022
3.79629
3.63269
3.57646
3.57061
3.58342
3.59721
3.60117
3.58719
3.54821
3.47856
3.37549
3.24088
3.0821
2.91049
20.7059
20.5809
19.4647
17.7123
15.5974
13.194
10.7148
8.39684
6.49237
5.15452
4.3328
3.86372
3.6045
3.47421
3.41465
3.38735
3.37014
3.34994
3.31852
3.2705
3.20248
3.1137
3.00653
2.88613
2.75928
19.6102
19.604
18.741
17.2773
15.4595
13.4146
11.1504
8.96703
7.06936
5.62929
4.66795
4.07938
3.72254
3.51102
3.38989
3.31841
3.27007
3.22932
3.18695
3.13716
3.07676
3.00475
2.92224
2.83205
2.73815
18.5771
18.6592
18.0149
16.8175
15.2676
13.5113
11.5969
9.57706
7.74249
6.24911
5.16838
4.45531
4.00687
3.72092
3.5357
3.41537
3.33293
3.27053
3.21743
3.16643
3.11355
3.05654
2.9945
2.92831
2.86005
17.6039
17.7453
17.2864
16.3315
15.033
13.5284
11.9008
10.1935
8.48124
6.99561
5.83301
5.00633
4.45295
4.09151
3.85311
3.69064
3.57621
3.49208
3.42667
3.37134
3.32062
3.27179
3.22282
3.17266
3.12107
16.6927
16.8647
16.5568
15.8178
14.7577
13.4864
12.0971
10.6501
9.19492
7.82966
6.63189
5.72514
5.07434
4.62353
4.3177
4.10966
3.96535
3.86147
3.78258
3.71884
3.66373
3.61325
3.56538
3.51888
3.47257
15.85
16.0248
15.8312
15.2779
14.4351
13.3882
12.2175
10.9907
9.75672
8.56909
7.48707
6.57619
5.85829
5.31934
4.93845
4.67028
4.47977
4.34182
4.23873
4.15816
4.09197
4.03506
3.98414
3.9372
3.89351
15.0854
15.238
15.1209
14.7179
14.0666
13.2278
12.2659
11.2381
10.1967
9.18536
8.24162
7.40472
6.69996
6.13422
5.69922
5.37289
5.13051
4.94969
4.81278
4.70576
4.61982
4.54939
4.49042
4.43988
4.39565
14.4101
14.5206
14.4433
14.1514
13.6587
13.0036
12.2335
11.3957
10.5322
9.68164
8.87698
8.14318
7.49882
6.95415
6.50943
6.15511
5.87706
5.6588
5.48827
5.35462
5.24851
5.16332
5.09452
5.03858
4.99192
13.8334
13.8895
13.8208
13.6
13.2276
12.7241
12.1212
11.4544
10.7579
10.0623
9.393
8.77048
8.20901
7.71703
7.29779
6.94754
6.65976
6.42694
6.23961
6.09063
5.97228
5.87759
5.80221
5.74158
5.69196
13.361
13.3583
13.276
13.0912
12.7992
12.4097
11.9421
11.4208
10.8711
10.3156
9.77488
9.2653
8.79858
8.38114
8.01549
7.7005
7.4349
7.21608
7.03794
6.8938
6.77751
6.68334
6.60673
6.54421
6.4927
12.993
12.9342
12.8263
12.6517
12.4053
12.092
11.7236
11.3154
10.8844
10.4474
10.0194
9.61312
9.23774
8.89868
8.59971
8.341
8.12168
7.93947
7.7907
7.67082
7.57511
7.49886
7.43701
7.38644
7.34479
12.7249
12.6165
12.4797
12.3009
12.076
11.8078
11.5032
11.1727
10.828
10.481
10.1424
9.82113
9.52409
9.25541
9.01872
8.81659
8.64621
8.50564
8.39259
8.30392
8.23594
8.18485
8.14703
8.11936
8.09924
12.5484
12.3979
12.2348
12.0475
11.8317
11.5872
11.3193
11.0359
10.746
10.4584
10.1808
9.91979
9.68012
9.46475
9.27573
9.11549
8.98381
8.8779
8.79543
8.73384
8.69046
8.66232
8.64638
8.63983
8.64007
12.4546
12.2689
12.0854
11.8915
11.6794
11.4482
11.2012
10.9446
10.6856
10.4314
10.1884
9.96169
9.75512
9.57082
9.40998
9.27302
9.16027
9.07114
9.00345
8.9546
8.9222
8.90389
8.89725
8.89999
8.90983
12.4363
12.2246
12.0263
11.8269
11.618
11.3966
11.1639
10.924
10.6827
10.4458
10.219
10.0068
9.81279
9.63895
9.48629
9.35499
9.24465
9.15435
9.0824
9.02742
8.98762
8.96085
8.94507
8.93847
8.93923
12.4958
12.2632
12.0521
11.8482
11.6422
11.4294
11.2088
10.9824
10.754
10.528
10.3092
10.1016
9.90849
9.73218
9.57393
9.43416
9.3127
9.20877
9.12119
9.04851
8.98894
8.94062
8.90209
8.87209
8.84924
12.6316
12.3812
12.1584
11.9494
11.7446
11.5382
11.3278
11.1132
10.8965
10.6804
10.4684
10.2637
10.0692
9.88716
9.71901
9.5656
9.42719
9.30355
9.19407
9.09778
9.01353
8.94002
8.87584
8.81966
8.77038
12.8367
12.5726
12.339
12.1234
11.9169
11.7135
11.5097
11.3042
11.0975
10.891
10.6866
10.4866
10.2933
10.1084
9.93335
9.7692
9.61648
9.47538
9.34577
9.22727
9.1193
9.02108
8.93173
8.85037
8.77632
13.101
12.8304
12.5899
12.369
12.16
11.9571
11.7567
11.5569
11.3573
11.1583
10.9609
10.7665
10.5766
10.3924
10.2153
10.046
9.88521
9.73326
9.5903
9.45626
9.33092
9.21391
9.10479
9.00307
8.90851
13.4395
13.1744
12.9355
12.7144
12.505
12.3024
12.1036
11.907
11.7119
11.5183
11.3269
11.1383
10.9534
10.7733
10.5987
10.4303
10.2687
10.1141
9.96693
9.82705
9.69444
9.56891
9.45021
9.33803
9.23235
13.9827
13.7492
13.5318
13.3253
13.126
12.9318
12.7415
12.5545
12.3702
12.1887
12.0103
11.8355
11.6648
11.4988
11.338
11.1829
11.0337
10.8907
10.7541
10.6236
10.4993
10.381
10.2684
10.1612
10.0595
15.4907
15.3963
15.3027
15.205
15.1017
14.9958
14.8884
14.7799
14.6707
14.5612
14.4518
14.3431
14.2354
14.1292
14.0249
13.9227
13.8229
13.7256
13.6307
13.5382
13.4481
13.3601
13.2742
13.19
13.1077
34.6596
35.3784
36.0022
36.5248
36.9514
37.2914
37.5518
37.7391
37.8595
37.9192
37.9241
37.88
37.7925
37.667
37.5084
37.3215
37.1106
36.8797
36.6325
36.3721
36.1016
35.8233
35.5395
35.2521
34.9628
7.23019
11.2722
15.9943
11.7866
12.0182
11.0808
9.74506
9.02854
7.98224
7.55627
6.87987
5.92034
5.95146
5.32481
4.56364
4.7698
4.2442
3.69997
3.91763
3.52237
3.1518
3.33939
3.05774
2.80391
2.96654
2.76622
2.5875
2.74176
2.59708
2.4675
2.63631
2.52992
2.43367
2.64769
2.56844
2.49595
2.79458
2.73622
2.68182
3.07177
3.02689
2.98376
3.42882
3.38879
3.35023
3.85409
3.81821
3.78374
4.35817
4.32506
4.29367
4.95428
4.92197
4.89209
5.65305
5.62013
5.59023
6.45253
6.41834
6.38738
7.3126
7.28499
7.25985
8.08574
8.07544
8.06685
8.64453
8.65147
8.65984
8.92332
8.93972
8.95813
8.94505
8.9546
8.96712
8.83383
8.82237
8.81405
8.73128
8.69627
8.66435
8.71567
8.65968
8.6072
8.82975
8.7559
8.68581
9.14343
9.05915
8.97846
9.97336
9.89106
9.81166
13.0363
12.9661
12.8964
34.7081
34.4547
34.2029
4.34335
5.92365
7.27961
8.24468
9.01617
9.65341
10.2032
10.6889
11.1253
11.5222
11.8863
12.2229
12.5361
12.8291
13.1048
13.3655
13.6136
13.8507
14.0786
14.2989
14.5129
14.7219
14.9273
15.1301
15.3314
15.5326
15.7346
15.9389
16.1466
16.3593
16.5786
16.8066
17.0457
17.2987
17.5617
17.831
18.1068
18.3896
18.6814
18.9811
19.288
19.6039
19.9296
20.2654
20.6119
20.9696
21.3387
21.7197
22.1124
22.5169
22.9325
23.3583
23.7923
24.231
24.6691
25.098
25.504
25.866
26.153
26.3376
26.4367
26.4627
26.4258
26.28
25.9608
25.4917
24.8389
24.0328
23.1124
22.0942
20.9992
19.8247
18.7139
17.6301
16.5318
15.3849
14.1461
12.7293
10.9727
9.36901
9.53937
6.23022
6.77874
7.0364
7.10614
7.06424
6.96225
6.8386
6.71249
6.59387
6.48731
6.3944
6.31512
6.24868
6.19391
6.14954
6.11435
6.08722
6.06716
6.05334
6.04507
6.0418
6.0431
6.04868
6.05835
6.07202
6.08971
6.11155
6.13779
6.16881
6.20512
6.2474
6.29706
6.35483
6.41546
6.47682
6.53996
6.60504
6.67223
6.74154
6.81328
6.88757
6.96457
7.0445
7.12759
7.21405
7.30413
7.3981
7.49621
7.59875
7.70599
7.81817
7.93554
8.05823
8.18627
8.31949
8.45749
8.60002
8.74776
8.90069
9.04451
9.1623
9.24904
9.30005
9.28985
9.22216
9.09535
8.91942
8.71468
8.50889
8.31886
8.17872
8.3033
8.58768
8.95388
9.33623
9.65384
9.80393
9.6891
13.3656
11.7923
6.2784
6.20463
6.09979
5.90548
5.66243
5.41191
5.17953
4.97528
4.80144
4.65633
4.53672
4.43892
4.35944
4.29518
4.24355
4.20238
4.16993
4.1448
4.12587
4.11227
4.1033
4.09845
4.0973
4.09957
4.10506
4.11362
4.12521
4.1398
4.15744
4.1782
4.2022
4.2296
4.2605
4.29504
4.33112
4.36874
4.40843
4.45041
4.49495
4.5423
4.59272
4.64651
4.70399
4.76555
4.83159
4.90256
4.97895
5.06128
5.15013
5.24608
5.34976
5.46179
5.58274
5.71315
5.85335
6.00351
6.16358
6.33323
6.51125
6.69578
6.87849
7.04501
7.17995
7.26466
7.28398
7.21547
7.06273
6.84562
6.58685
6.3244
6.1134
6.05449
6.1714
6.45965
6.90158
7.44258
7.98317
8.48581
13.7727
13.4978
6.20213
5.70568
5.39683
5.08125
4.77152
4.4904
4.24966
4.05036
3.88867
3.75907
3.65597
3.57434
3.50997
3.45945
3.42005
3.38964
3.36655
3.34949
3.33746
3.32968
3.32557
3.32466
3.32663
3.33121
3.33824
3.34759
3.3592
3.37303
3.38908
3.4074
3.42805
3.45111
3.4767
3.50495
3.53604
3.56879
3.60375
3.64126
3.68162
3.72509
3.77199
3.82268
3.87753
3.93697
4.00146
4.07151
4.14767
4.23053
4.32074
4.41895
4.52588
4.64223
4.76871
4.90599
5.05456
5.21468
5.38632
5.56874
5.76003
5.95862
6.16189
6.36034
6.54165
6.68761
6.77906
6.79432
6.71126
6.51384
6.19817
5.80094
5.42883
5.18854
5.16103
5.33366
5.69886
6.22659
6.83192
7.53464
13.2019
14.9895
6.10864
5.29992
4.85785
4.48198
4.1545
3.879
3.65491
3.47709
3.33798
3.23006
3.14681
3.0829
3.03412
2.99721
2.96965
2.94953
2.93537
2.92605
2.92074
2.91878
2.91969
2.9231
2.92875
2.93643
2.94603
2.95745
2.97065
2.98562
3.00239
3.021
3.04153
3.06408
3.08878
3.11576
3.14522
3.17733
3.21149
3.24819
3.28777
3.33054
3.37683
3.42698
3.48139
3.54048
3.60471
3.67461
3.75071
3.83362
3.92398
4.02247
4.12981
4.24673
4.37402
4.51243
4.66267
4.82516
5.0001
5.18713
5.38499
5.59126
5.80366
6.01764
6.22642
6.41809
6.57727
6.68278
6.70453
6.60868
6.35918
5.95328
5.44714
4.96941
4.7382
4.7998
5.09095
5.56509
6.15483
6.98307
12.2006
16.6897
6.00234
4.95693
4.42315
4.01707
3.69362
3.43779
3.23737
3.08359
2.96708
2.87945
2.81399
2.7655
2.73003
2.70462
2.687
2.6755
2.66884
2.66608
2.6665
2.66956
2.67488
2.68216
2.69118
2.70182
2.71396
2.72757
2.74262
2.75913
2.77713
2.79671
2.81794
2.84093
2.86582
2.89276
2.92193
2.95353
2.98756
3.02397
3.06314
3.1054
3.15107
3.2005
3.25405
3.31215
3.37525
3.44383
3.51844
3.59966
3.68813
3.78454
3.88963
4.00419
4.12903
4.26502
4.41292
4.57367
4.74805
4.9364
5.13859
5.35325
5.57844
5.81097
6.04621
6.27858
6.5014
6.69893
6.85018
6.92488
6.87586
6.64665
6.21482
5.62797
5.05104
4.83844
4.97353
5.36288
5.94671
6.98157
11.3072
18.7472
6.13022
4.65111
4.04635
3.63135
3.32691
3.09738
2.92298
2.79304
2.69748
2.62788
2.57778
2.54239
2.5181
2.50228
2.49294
2.48862
2.48824
2.49098
2.49625
2.5036
2.51271
2.52335
2.53534
2.5486
2.56304
2.57866
2.59544
2.61343
2.63267
2.65324
2.67524
2.69878
2.72399
2.75102
2.78005
2.81127
2.84489
2.88082
2.91933
2.96074
3.00535
3.05351
3.10557
3.16193
3.22303
3.28933
3.36136
3.43969
3.52495
3.61785
3.71914
3.82966
3.95032
4.08213
4.22531
4.38189
4.5524
4.73888
4.94276
5.1623
5.39681
5.64558
5.90667
6.17748
6.45639
6.74154
7.01352
7.26843
7.48214
7.6031
7.56531
7.30706
6.79565
6.11011
5.76937
5.93808
6.44688
7.4541
10.8505
13.0104
5.65783
4.26807
3.6716
3.28434
3.01488
2.81658
2.66986
2.56342
2.48739
2.43398
2.39737
2.37328
2.35857
2.35091
2.34862
2.35042
2.3554
2.36287
2.37232
2.38338
2.3958
2.40937
2.42398
2.43955
2.45603
2.47343
2.49175
2.51104
2.53137
2.5528
2.57544
2.5994
2.62481
2.65183
2.68061
2.71134
2.74421
2.77946
2.81703
2.85726
2.90046
2.94696
2.99708
3.05122
3.10978
3.17321
3.24202
3.31675
3.39802
3.48651
3.58297
3.68824
3.80325
3.92901
4.06667
4.21761
4.38314
4.56466
4.76346
4.98047
5.21664
5.47251
5.74791
6.042
6.35707
6.69257
7.05316
7.43513
7.85095
8.28708
8.71334
9.07659
9.3073
9.31046
8.97666
8.58182
8.65295
9.02322
11.0764
8.82521
4.89772
3.82582
3.30609
2.97946
2.75233
2.58633
2.46641
2.38143
2.32253
2.28292
2.25759
2.24285
2.236
2.23505
2.23854
2.24539
2.25482
2.26622
2.27918
2.29337
2.30858
2.32466
2.3415
2.35904
2.37727
2.39618
2.4158
2.43618
2.45739
2.47949
2.50259
2.5268
2.55225
2.57909
2.60746
2.63756
2.66958
2.70373
2.74015
2.77897
2.8205
2.86506
2.91296
2.96455
3.02023
3.08042
3.14557
3.21621
3.2929
3.37627
3.46704
3.56598
3.67399
3.79206
3.92133
4.0631
4.21875
4.38979
4.57783
4.78456
5.01176
5.2611
5.53397
5.83144
6.1543
6.50453
6.88774
7.31421
7.80224
8.3679
9.01393
9.74217
10.5532
11.4406
12.3927
13.3914
14.485
15.9296
17.8112
6.28455
4.17268
3.39335
2.98306
2.72027
2.53373
2.39921
2.30355
2.23719
2.19271
2.16449
2.14835
2.14116
2.14065
2.14511
2.15328
2.16425
2.17731
2.19196
2.20783
2.22465
2.24222
2.26042
2.27916
2.29839
2.31811
2.33832
2.35905
2.38035
2.40228
2.42492
2.44837
2.47273
2.49814
2.52472
2.55263
2.58205
2.61316
2.64618
2.68132
2.71867
2.7585
2.80109
2.84673
2.89577
2.94854
3.00544
3.06688
3.13333
3.2053
3.28333
3.36806
3.46016
3.5604
3.66965
3.78889
3.91924
4.06192
4.2183
4.38993
4.5785
4.7859
5.01412
5.26513
5.5408
5.84286
6.17333
6.53588
6.93774
7.39142
7.90034
8.46865
9.10436
9.81528
10.599
11.4402
12.3087
13.159
13.9935
14.7541
4.738
3.57966
3.03044
2.71629
2.50685
2.35738
2.25027
2.17502
2.12393
2.09108
2.07192
2.06301
2.06175
2.0662
2.07492
2.08681
2.10106
2.11706
2.13436
2.15263
2.17164
2.1912
2.2112
2.23157
2.25227
2.27328
2.29463
2.31633
2.33844
2.36101
2.38412
2.40787
2.43236
2.4577
2.48404
2.51151
2.54029
2.57056
2.60251
2.63636
2.67235
2.71057
2.75132
2.79485
2.84148
2.89152
2.94532
3.00324
3.06569
3.1331
3.20594
3.28473
3.37001
3.46241
3.5626
3.67134
3.78946
3.9179
4.0577
4.21001
4.37616
4.5576
4.75595
4.97297
5.21046
5.47026
5.75424
6.06467
6.40678
6.7821
7.19064
7.63131
8.10205
8.5981
9.124
9.6676
10.2147
10.7299
11.1583
11.3766
3.79804
3.12562
2.74213
2.50332
2.33851
2.21994
2.13515
2.07619
2.03713
2.01331
2.00111
1.99771
2.00095
2.00919
2.02118
2.03594
2.05277
2.07111
2.09056
2.1108
2.13162
2.15286
2.17441
2.19619
2.21817
2.24034
2.2627
2.28529
2.30814
2.33132
2.3549
2.37896
2.4036
2.42893
2.45509
2.48222
2.51047
2.54003
2.57108
2.60383
2.63852
2.67532
2.71443
2.7561
2.80059
2.84819
2.89921
2.95395
3.01278
3.07604
3.14411
3.21741
3.29636
3.38142
3.47306
3.57182
3.67824
3.79293
3.91652
4.04973
4.19332
4.34812
4.51505
4.69505
4.88912
5.09823
5.32329
5.56565
5.82559
6.10301
6.39733
6.70662
7.02726
7.35306
7.67618
7.98572
8.26473
8.49195
8.59994
8.52025
3.20941
2.79134
2.52034
2.33925
2.21065
2.11697
2.04985
2.0036
1.97378
1.95681
1.94982
1.95051
1.95709
1.96814
1.98257
1.99952
2.01835
2.03853
2.05969
2.08154
2.10387
2.12652
2.14938
2.17239
2.1955
2.21871
2.242
2.26542
2.28899
2.31276
2.33682
2.36122
2.38608
2.41149
2.43758
2.46449
2.49236
2.52137
2.5517
2.58356
2.61715
2.65272
2.69044
2.73053
2.7732
2.81872
2.86734
2.91933
2.975
3.03462
3.09851
3.16697
3.24033
3.31888
3.40296
3.49287
3.58893
3.69145
3.80072
3.91705
4.04072
4.17201
4.31114
4.45832
4.61364
4.77707
4.94849
5.1274
5.31292
5.50391
5.69861
5.89451
6.08779
6.27288
6.44002
6.57969
6.68247
6.73821
6.70225
6.54474
2.82999
2.55281
2.35672
2.21866
2.11836
2.04458
1.99146
1.95512
1.93239
1.92058
1.91745
1.92115
1.93016
1.94327
1.95951
1.97811
1.99845
2.02006
2.04258
2.06572
2.08927
2.11308
2.13705
2.1611
2.1852
2.20931
2.23344
2.25761
2.28186
2.30621
2.33075
2.35554
2.38066
2.40623
2.43235
2.45916
2.4868
2.51543
2.54524
2.57641
2.60915
2.64369
2.68026
2.71903
2.7602
2.80398
2.8506
2.90028
2.95327
3.0098
3.07012
3.13445
3.20302
3.27603
3.35367
3.43609
3.52343
3.61577
3.71317
3.81561
3.92305
4.03537
4.15236
4.2737
4.39893
4.52741
4.65836
4.79059
4.92271
5.05306
5.17956
5.29951
5.40944
5.50339
5.57434
5.61583
5.62513
5.59934
5.5289
5.39453
2.58365
2.38976
2.24411
2.1372
2.05863
2.00071
1.95885
1.93044
1.91329
1.90548
1.90529
1.91123
1.92205
1.93668
1.95427
1.9741
1.99559
2.01828
2.04181
2.06591
2.09038
2.11508
2.13989
2.16476
2.18962
2.21447
2.23928
2.26409
2.2889
2.31377
2.33874
2.36389
2.38929
2.41504
2.44125
2.46804
2.49556
2.52396
2.5534
2.58407
2.61616
2.6499
2.68551
2.72321
2.76316
2.80553
2.85051
2.89828
2.94904
3.00298
3.06029
3.12115
3.18569
3.25406
3.32634
3.40257
3.48276
3.56685
3.65472
3.74618
3.84097
3.93875
4.03905
4.14132
4.24483
4.34872
4.45181
4.55273
4.64997
4.74177
4.82615
4.90076
4.96249
5.00618
5.02836
5.02687
5.00087
4.95014
4.87476
4.77322
2.43019
2.28867
2.17782
2.09388
2.03174
1.98632
1.95375
1.93194
1.91945
1.91494
1.91715
1.92489
1.93713
1.95294
1.97155
1.99228
2.01459
2.03801
2.06218
2.08683
2.1118
2.13695
2.16222
2.18752
2.21281
2.23807
2.26328
2.28846
2.31362
2.33881
2.36406
2.38944
2.41502
2.44089
2.46715
2.49393
2.52136
2.54957
2.57874
2.60904
2.64065
2.67377
2.70861
2.74544
2.7844
2.82563
2.86927
2.91546
2.96437
3.01615
3.07094
3.12887
3.19003
3.25451
3.32232
3.39345
3.46781
3.54526
3.62557
3.70845
3.79352
3.88035
3.96838
4.05697
4.1454
4.23266
4.31751
4.39857
4.47437
4.54337
4.60392
4.65419
4.69136
4.71254
4.71562
4.69984
4.66562
4.61424
4.54734
4.46646
2.35117
2.24466
2.1588
2.09233
2.04277
2.00721
1.98235
1.96621
1.95782
1.95627
1.96062
1.96995
1.98339
2.00014
2.0195
2.04083
2.06359
2.08729
2.11153
2.13605
2.16078
2.18567
2.21069
2.23577
2.26087
2.28595
2.31102
2.33608
2.36115
2.38625
2.41142
2.43672
2.46221
2.48798
2.51412
2.54074
2.56798
2.59597
2.62486
2.65482
2.68603
2.71865
2.75289
2.78897
2.82712
2.86741
2.90994
2.95483
3.00218
3.05212
3.10476
3.16017
3.21844
3.27958
3.3436
3.41043
3.47995
3.55196
3.62618
3.70225
3.77977
3.85826
3.93717
4.01595
4.09399
4.17027
4.24352
4.31247
4.37584
4.43236
4.48076
4.51967
4.54698
4.56059
4.55901
4.54192
4.51021
4.46572
4.41078
4.34762
2.34546
2.26368
2.19651
2.14377
2.10429
2.07633
2.05765
2.04638
2.04172
2.04296
2.04934
2.06013
2.07457
2.09197
2.11169
2.13314
2.15577
2.17902
2.20231
2.22536
2.2484
2.27163
2.29514
2.31884
2.34262
2.36647
2.39042
2.41447
2.43863
2.46291
2.48735
2.51197
2.53683
2.56202
2.58763
2.61375
2.64052
2.66808
2.69655
2.72609
2.75685
2.78899
2.8227
2.85814
2.89559
2.93508
2.97666
3.02041
3.06639
3.1147
3.16541
3.21857
3.27422
3.33237
3.393
3.45604
3.52136
3.58872
3.6578
3.72825
3.79964
3.8715
3.94331
4.01488
4.08568
4.15461
4.22051
4.28226
4.33878
4.38908
4.43225
4.46724
4.49239
4.50587
4.50639
4.49362
4.46833
4.43242
4.38838
4.33857
2.42831
2.36516
2.31267
2.27106
2.23983
2.2179
2.20375
2.19654
2.19526
2.1991
2.2073
2.21919
2.23411
2.25144
2.27058
2.29098
2.31211
2.33343
2.35375
2.37233
2.39072
2.40958
2.42943
2.44973
2.47026
2.49103
2.51216
2.5337
2.55561
2.57783
2.60039
2.62331
2.64664
2.67044
2.69478
2.71979
2.74557
2.77225
2.79995
2.8288
2.85894
2.8905
2.92363
2.95845
2.99523
3.03393
3.07459
3.11722
3.16187
3.20858
3.25739
3.30834
3.36143
3.41667
3.47402
3.53343
3.59482
3.65797
3.72242
3.78789
3.85399
3.92022
3.98629
4.05236
4.11779
4.18154
4.24259
4.29996
4.35279
4.40034
4.44201
4.47683
4.50335
4.51997
4.52544
4.51915
4.50151
4.47405
4.43924
4.39947
2.62964
2.5801
2.53799
2.50375
2.47733
2.45803
2.44565
2.43978
2.43921
2.44304
2.45053
2.46104
2.47406
2.48897
2.50523
2.52232
2.5398
2.55707
2.573
2.58743
2.60139
2.61525
2.6293
2.64339
2.65763
2.67232
2.688
2.70493
2.72262
2.74094
2.75995
2.77968
2.80012
2.8213
2.84329
2.86622
2.89018
2.9153
2.94166
2.96936
2.99852
3.02923
3.06158
3.0957
3.13168
3.16949
3.20908
3.25046
3.29363
3.33859
3.38537
3.43396
3.48438
3.53659
3.59058
3.64626
3.70353
3.76222
3.82207
3.8828
3.94406
4.00539
4.06698
4.12867
4.18982
4.24959
4.30706
4.36154
4.41237
4.4589
4.50051
4.53635
4.56524
4.58576
4.59666
4.59706
4.58686
4.56706
4.53991
4.50785
2.94036
2.89748
2.85928
2.82662
2.80009
2.77949
2.76528
2.75662
2.75269
2.75273
2.75607
2.76215
2.7705
2.78064
2.79204
2.80403
2.8164
2.82874
2.84109
2.85398
2.86653
2.8783
2.88887
2.89874
2.90826
2.91773
2.92757
2.9381
2.9493
2.96134
2.97474
2.98953
3.00544
3.02245
3.04069
3.06034
3.08146
3.10412
3.1284
3.15436
3.18203
3.21147
3.24273
3.27589
3.31081
3.3474
3.3856
3.42537
3.46668
3.50954
3.55392
3.59982
3.64724
3.69616
3.74654
3.79832
3.85143
3.90572
3.96102
4.01713
4.07382
4.13084
4.18836
4.24621
4.30392
4.36054
4.41508
4.46718
4.51625
4.56168
4.60287
4.63916
4.66961
4.69304
4.7083
4.71439
4.71068
4.69752
4.67673
4.65069
3.31083
3.27133
3.23516
3.20293
3.17588
3.15442
3.13829
3.12687
3.11949
3.11555
3.11443
3.11565
3.11885
3.12362
3.12956
3.1362
3.1434
3.15111
3.15968
3.16903
3.17868
3.18832
3.19769
3.20669
3.21527
3.22321
3.23037
3.23679
3.2432
3.25008
3.25787
3.26674
3.27674
3.28808
3.30108
3.31633
3.33362
3.35294
3.37438
3.39793
3.42353
3.45113
3.48075
3.51241
3.54561
3.58026
3.61632
3.65372
3.69246
3.7325
3.77384
3.81648
3.86041
3.90562
3.95209
3.99976
4.04857
4.09842
4.14917
4.20066
4.25272
4.30523
4.35825
4.4117
4.46487
4.51697
4.56782
4.61691
4.66345
4.70682
4.74636
4.78161
4.81191
4.83635
4.85391
4.86358
4.86439
4.85607
4.83986
4.81809
3.74815
3.71221
3.6786
3.64771
3.62052
3.59816
3.58028
3.56617
3.55519
3.54702
3.54123
3.53743
3.53532
3.53463
3.53517
3.53695
3.53963
3.54308
3.54718
3.55189
3.55712
3.56271
3.5685
3.57439
3.58034
3.5863
3.59215
3.59781
3.60336
3.60898
3.61446
3.62007
3.62632
3.63359
3.64229
3.65291
3.66559
3.68064
3.69871
3.71945
3.74256
3.7679
3.79544
3.82464
3.85508
3.88671
3.9195
3.95342
3.98846
4.02462
4.0619
4.1003
4.13984
4.18049
4.22223
4.26504
4.30885
4.35356
4.39906
4.44517
4.49174
4.53856
4.5855
4.63233
4.67873
4.72434
4.76911
4.81227
4.85317
4.89135
4.92664
4.95866
4.98665
5.00974
5.02703
5.03759
5.04035
5.03456
5.0209
5.00146
4.26131
4.22872
4.19777
4.1685
4.14144
4.11761
4.0973
4.08011
4.06564
4.0535
4.04339
4.03506
4.0282
4.02259
4.01805
4.01449
4.01178
4.00987
4.00874
4.00839
4.00874
4.00972
4.01124
4.01325
4.01571
4.01871
4.02206
4.02559
4.0293
4.0333
4.03774
4.04273
4.04842
4.05498
4.06255
4.07112
4.08133
4.09384
4.10967
4.12819
4.14904
4.1722
4.19692
4.22257
4.24913
4.27657
4.30489
4.33407
4.36414
4.39509
4.42693
4.45967
4.49332
4.52787
4.5633
4.59956
4.63662
4.67438
4.71273
4.75154
4.79062
4.82981
4.86891
4.90773
4.946
4.98342
5.01969
5.05442
5.08723
5.11782
5.14609
5.17162
5.19372
5.21172
5.22491
5.23251
5.23351
5.22698
5.21308
5.19357
4.86162
4.83132
4.80237
4.77447
4.7477
4.72255
4.69949
4.67886
4.66065
4.64445
4.62996
4.61694
4.60521
4.59458
4.58494
4.57618
4.56826
4.56117
4.555
4.54977
4.54537
4.5417
4.5387
4.5363
4.53448
4.53324
4.53254
4.53236
4.53273
4.53383
4.53589
4.53906
4.54338
4.54898
4.5561
4.56566
4.57762
4.59162
4.60709
4.62424
4.64283
4.66208
4.68182
4.70208
4.72289
4.74426
4.76623
4.78882
4.81204
4.83592
4.86046
4.88568
4.91158
4.93815
4.96538
4.99323
5.02166
5.0506
5.07996
5.10961
5.13943
5.16925
5.19892
5.22824
5.25701
5.28497
5.31184
5.3373
5.36107
5.38285
5.40239
5.41938
5.4334
5.44398
5.45059