/*--------------------------------*- C++ -*----------------------------------*\
| =========                 |                                                 |
| \\      /  F ield         | OpenFOAM: The Open Source CFD Toolbox           |
|  \\    /   O peration     | Version:  v2012                                 |
|   \\  /    A nd           | Website:  www.openfoam.com                      |
|    \\/     M anipulation  |                                                 |
\*---------------------------------------------------------------------------*/
FoamFile
{
    version     2.0;
    format      ascii;
    class       volScalarField;
    location    "595";
    object      p;
}
// * * * * * * * * * * * * * * * * * * * * * * * * * * * * * * * * * * * * * //

dimensions      [0 2 -2 0 0 0 0];


internalField   nonuniform List<scalar> 
6598
(
0.354412
0.353699
0.353315
0.353152
0.353082
0.353082
0.353151
0.353314
0.353697
0.354411
0.353607
0.353401
0.35321
0.35309
0.353034
0.353034
0.353089
0.353208
0.353399
0.353605
0.353054
0.353067
0.352992
0.352912
0.352873
0.352873
0.352911
0.35299
0.353065
0.353053
0.352721
0.352782
0.352742
0.352684
0.352657
0.352657
0.352682
0.35274
0.35278
0.352718
0.352453
0.352521
0.352495
0.352447
0.352425
0.352425
0.352445
0.352492
0.352518
0.352449
0.352195
0.35226
0.352242
0.352203
0.352184
0.352182
0.3522
0.352236
0.352255
0.35219
0.351943
0.352001
0.351982
0.351949
0.351932
0.35193
0.351944
0.351974
0.351992
0.351935
0.351696
0.351746
0.351724
0.351693
0.351677
0.351674
0.351685
0.351713
0.351733
0.351683
0.351452
0.351495
0.351471
0.35144
0.351423
0.351419
0.351428
0.351453
0.351474
0.351432
0.35121
0.351246
0.35122
0.351188
0.351169
0.351163
0.35117
0.351193
0.351214
0.351179
0.35097
0.351
0.350972
0.350938
0.350917
0.350908
0.350912
0.350931
0.350952
0.350922
0.350733
0.350758
0.350727
0.350692
0.350666
0.350652
0.350651
0.350667
0.350687
0.350661
0.350502
0.350523
0.350489
0.350449
0.350417
0.350396
0.350388
0.350398
0.350416
0.350394
0.350281
0.350298
0.350259
0.350211
0.35017
0.350138
0.350121
0.350122
0.350136
0.350117
0.350074
0.350086
0.350041
0.349982
0.349926
0.349878
0.349845
0.349836
0.349844
0.349826
0.349887
0.349895
0.34984
0.349765
0.349685
0.349612
0.349557
0.349531
0.349532
0.349517
0.349731
0.349734
0.349664
0.349565
0.349454
0.349343
0.349252
0.349198
0.349191
0.349182
0.349622
0.349617
0.349528
0.349392
0.349232
0.349065
0.348914
0.348818
0.348807
0.348815
0.349579
0.349567
0.34945
0.349262
0.349028
0.348769
0.348516
0.348336
0.348318
0.348446
0.349632
0.349611
0.34946
0.349204
0.348869
0.348476
0.348055
0.347739
0.347711
0.34817
0.349818
0.34979
0.349598
0.349257
0.348789
0.3482
0.347476
0.346704
0.345789
0.341538
0.350175
0.350143
0.34991
0.349484
0.348882
0.348112
0.347104
0.34573
0.344894
0.346714
0.350746
0.35072
0.350452
0.349947
0.349225
0.348311
0.347179
0.345513
0.343464
0.345143
0.351583
0.351568
0.351271
0.350692
0.349851
0.348775
0.347478
0.345643
0.342516
0.343006
0.352734
0.352735
0.35241
0.351756
0.350794
0.349545
0.348036
0.34611
0.342608
0.34227
0.354249
0.354267
0.353913
0.353183
0.3521
0.350683
0.348957
0.346895
0.343154
0.341655
0.356179
0.356214
0.355829
0.355017
0.353804
0.352213
0.350255
0.347996
0.344108
0.341334
0.358601
0.358661
0.358245
0.357341
0.355978
0.354188
0.351968
0.349442
0.34555
0.341608
0.361611
0.361696
0.361249
0.360235
0.358698
0.356677
0.354156
0.351237
0.347247
0.342912
0.365282
0.365392
0.364886
0.363737
0.361998
0.359715
0.356883
0.353561
0.349313
0.344903
0.369682
0.369817
0.369226
0.367917
0.365942
0.363354
0.360178
0.356466
0.351912
0.347246
0.374876
0.375023
0.37434
0.372846
0.37059
0.367634
0.364031
0.359852
0.35499
0.349912
0.380969
0.381122
0.380331
0.378616
0.376021
0.372618
0.368479
0.363703
0.35837
0.352736
0.388089
0.388245
0.387322
0.385343
0.382348
0.378413
0.373624
0.368115
0.362073
0.355742
0.396372
0.396528
0.395451
0.393166
0.389711
0.385162
0.379614
0.373228
0.366279
0.359076
0.405963
0.406116
0.404865
0.40224
0.39827
0.393033
0.386628
0.379238
0.371204
0.362939
0.417013
0.417163
0.415722
0.412729
0.408201
0.402213
0.394871
0.38637
0.377099
0.36759
0.429673
0.42982
0.428178
0.424799
0.419685
0.412905
0.404566
0.394875
0.384253
0.373341
0.44408
0.444226
0.442378
0.438604
0.432895
0.425306
0.415944
0.405022
0.392981
0.380545
0.460347
0.460495
0.458438
0.454274
0.447977
0.439592
0.429219
0.417072
0.403597
0.389566
0.478548
0.478696
0.476433
0.471893
0.465037
0.455896
0.444564
0.431247
0.416382
0.400752
0.498713
0.498852
0.496382
0.491486
0.484116
0.474285
0.462083
0.447702
0.431556
0.414402
0.520798
0.520914
0.518235
0.513004
0.505173
0.49474
0.481788
0.466495
0.449239
0.43072
0.54468
0.544755
0.541856
0.536309
0.528075
0.517138
0.50358
0.487561
0.469418
0.44977
0.570157
0.570163
0.567027
0.56117
0.552585
0.541245
0.527232
0.510695
0.491922
0.471445
0.596946
0.596844
0.593435
0.587261
0.578364
0.566713
0.552395
0.535548
0.516417
0.495443
0.624674
0.624416
0.620682
0.614163
0.604977
0.593095
0.578607
0.561646
0.542419
0.521281
0.652884
0.652411
0.648283
0.641374
0.63191
0.619861
0.605322
0.588422
0.569333
0.548335
0.681029
0.680271
0.675668
0.668318
0.658582
0.64643
0.631948
0.615262
0.59651
0.575907
0.708459
0.707338
0.702178
0.694351
0.684373
0.672196
0.657888
0.641558
0.623313
0.603307
0.734393
0.732816
0.727053
0.718773
0.708639
0.696564
0.682575
0.666753
0.649168
0.629918
0.757855
0.755725
0.749441
0.740868
0.730761
0.71899
0.705519
0.690386
0.673613
0.65525
0.777517
0.774901
0.7684
0.759892
0.750155
0.73901
0.726336
0.712114
0.69632
0.678959
0.79113
0.789415
0.783416
0.775348
0.766406
0.756311
0.744779
0.731725
0.717089
0.700838
0.797205
0.797279
0.793338
0.786767
0.779305
0.770775
0.760768
0.74915
0.735845
0.720793
0.798642
0.799328
0.797898
0.79398
0.788845
0.782435
0.774338
0.764397
0.752544
0.738728
0.798699
0.798969
0.798857
0.797649
0.79533
0.791487
0.785653
0.777615
0.767309
0.754728
0.798635
0.798148
0.798283
0.799001
0.799307
0.798122
0.794733
0.788749
0.780045
0.768674
0.799343
0.798359
0.798319
0.799816
0.802047
0.803162
0.801866
0.797568
0.790215
0.779873
0.800535
0.799969
0.800176
0.802071
0.805109
0.807692
0.808253
0.805539
0.799751
0.791015
0.321084
0.324852
0.327321
0.329378
0.330653
0.330941
0.330397
0.329156
0.327358
0.325364
0.323333
0.321341
0.319587
0.31823
0.317317
0.316843
0.316818
0.317247
0.318111
0.319341
0.3208
0.322262
0.323387
0.323918
0.32406
0.328642
0.325672
0.32586
0.327253
0.328376
0.328771
0.328236
0.326937
0.325188
0.323262
0.321359
0.319609
0.31814
0.317029
0.3163
0.315952
0.31598
0.316399
0.317199
0.318352
0.319779
0.321327
0.322771
0.323716
0.324087
0.329128
0.325914
0.3252
0.325857
0.326599
0.32681
0.326234
0.325002
0.32338
0.321605
0.31988
0.318339
0.317075
0.316145
0.315558
0.315293
0.315334
0.315682
0.316333
0.317273
0.31847
0.319848
0.321287
0.322526
0.323272
0.327848
0.324807
0.323918
0.324361
0.324997
0.325162
0.324573
0.32334
0.321756
0.320066
0.318456
0.317067
0.315973
0.315191
0.31471
0.314506
0.314563
0.314882
0.315454
0.316264
0.317284
0.318463
0.319712
0.320881
0.321759
0.32812
0.323638
0.322196
0.322548
0.323308
0.323537
0.323052
0.321926
0.320438
0.318868
0.317397
0.316149
0.315183
0.314504
0.314091
0.313922
0.313983
0.314276
0.314793
0.315517
0.316422
0.317462
0.318551
0.319555
0.320415
0.329241
0.323412
0.321022
0.321162
0.321986
0.322325
0.321983
0.32102
0.319656
0.318198
0.316832
0.315686
0.314809
0.314193
0.313815
0.313663
0.313724
0.314001
0.314487
0.315164
0.316008
0.316978
0.317982
0.318822
0.319496
0.330181
0.324055
0.321157
0.320941
0.321546
0.321906
0.321623
0.320794
0.319518
0.318131
0.31681
0.315702
0.314858
0.314266
0.313903
0.313758
0.313821
0.314092
0.314568
0.315234
0.316068
0.317043
0.318081
0.318861
0.319125
0.331297
0.325679
0.322743
0.322055
0.322328
0.322631
0.322368
0.321504
0.320189
0.318771
0.317414
0.31627
0.3154
0.314791
0.314415
0.314258
0.314312
0.314578
0.315059
0.315746
0.316621
0.317672
0.31888
0.319864
0.319622
0.333501
0.328288
0.325398
0.324365
0.324322
0.32444
0.324098
0.323099
0.321753
0.320232
0.318757
0.317482
0.316497
0.315808
0.315383
0.315194
0.315227
0.315481
0.315966
0.316678
0.317594
0.318672
0.319953
0.321583
0.323285
0.33655
0.331609
0.328752
0.327523
0.327252
0.327168
0.326646
0.32555
0.324186
0.322565
0.32092
0.319426
0.318213
0.317331
0.316768
0.316491
0.316467
0.316665
0.317082
0.317716
0.318555
0.319614
0.321
0.32286
0.324973
0.339865
0.335201
0.332425
0.331126
0.330726
0.330514
0.32993
0.328826
0.327371
0.325704
0.323948
0.322251
0.320758
0.319567
0.318718
0.318217
0.318038
0.318115
0.318427
0.318982
0.319786
0.320848
0.322173
0.323679
0.325461
0.34316
0.338696
0.336024
0.334708
0.334228
0.333956
0.33338
0.332329
0.330949
0.329385
0.327695
0.325981
0.324365
0.322953
0.321837
0.321076
0.320677
0.320609
0.320867
0.321458
0.32237
0.323503
0.324811
0.326304
0.328296
0.346287
0.341916
0.33927
0.337918
0.337383
0.337094
0.336574
0.335633
0.334419
0.333071
0.331604
0.330085
0.328619
0.327285
0.326227
0.32548
0.324998
0.324825
0.32501
0.325564
0.326443
0.327498
0.32887
0.330546
0.332106
0.349252
0.344781
0.342032
0.340582
0.339973
0.339658
0.339187
0.338354
0.337309
0.336208
0.334999
0.333689
0.332447
0.331369
0.330511
0.329894
0.329512
0.329379
0.329609
0.330193
0.330935
0.331752
0.332684
0.333683
0.334618
0.352207
0.34739
0.344367
0.342712
0.341957
0.341583
0.341143
0.340406
0.339453
0.338521
0.33759
0.336559
0.33552
0.334623
0.333935
0.33347
0.333213
0.333166
0.333347
0.333712
0.33418
0.334727
0.335325
0.335934
0.336548
0.355375
0.349946
0.346441
0.344435
0.343431
0.342933
0.3425
0.341856
0.340973
0.340077
0.3393
0.338536
0.337744
0.337036
0.336472
0.336085
0.335882
0.335852
0.335971
0.336197
0.336507
0.336892
0.337322
0.337757
0.338177
0.359037
0.352723
0.348495
0.345945
0.344559
0.343836
0.343348
0.342777
0.342016
0.341152
0.340367
0.339707
0.339109
0.338576
0.338149
0.337846
0.337679
0.33765
0.337748
0.337944
0.338205
0.338509
0.33883
0.339145
0.339434
0.363534
0.356055
0.350832
0.347507
0.345565
0.344483
0.343828
0.343263
0.342605
0.341855
0.341114
0.340461
0.33992
0.339475
0.33913
0.33889
0.338762
0.338754
0.338862
0.339061
0.339313
0.33959
0.339866
0.34012
0.34034
0.369255
0.360338
0.353829
0.349459
0.346732
0.345118
0.34415
0.343471
0.342842
0.342178
0.341519
0.340927
0.34042
0.340006
0.339701
0.339504
0.33941
0.339415
0.339514
0.339699
0.339957
0.340248
0.340525
0.340769
0.340969
0.376617
0.366016
0.357922
0.352206
0.348424
0.346045
0.344581
0.343636
0.342921
0.342278
0.34167
0.341126
0.340672
0.340319
0.34007
0.339922
0.339867
0.339893
0.339986
0.340148
0.340378
0.340653
0.340941
0.341204
0.341414
0.386043
0.373563
0.363607
0.356228
0.351076
0.34765
0.345447
0.344039
0.343086
0.342359
0.341747
0.341226
0.340805
0.340494
0.340292
0.340192
0.340186
0.34026
0.340398
0.340581
0.340788
0.341021
0.341283
0.341546
0.34177
0.397923
0.383454
0.371412
0.362064
0.355208
0.350406
0.347165
0.345029
0.343623
0.342657
0.341939
0.341379
0.340949
0.340646
0.340466
0.340401
0.340438
0.34056
0.340746
0.340972
0.341212
0.341447
0.341678
0.341909
0.342117
0.41257
0.396115
0.381859
0.370293
0.361406
0.354876
0.35025
0.34707
0.344926
0.343484
0.342493
0.341786
0.341278
0.340931
0.340733
0.340672
0.340731
0.340888
0.341114
0.341377
0.341644
0.341897
0.342129
0.342326
0.342488
0.430161
0.411857
0.395397
0.381472
0.370291
0.361693
0.355317
0.350731
0.347513
0.345295
0.343777
0.342735
0.34202
0.341546
0.341271
0.341172
0.34123
0.341406
0.341655
0.34193
0.342183
0.3424
0.342587
0.342741
0.342865
0.450686
0.430807
0.412318
0.396053
0.382436
0.371505
0.363035
0.356668
0.352005
0.348661
0.346303
0.34466
0.343529
0.342775
0.342321
0.342126
0.342151
0.342295
0.342462
0.342628
0.342786
0.34293
0.343054
0.343166
0.343269
0.473912
0.452847
0.432667
0.414272
0.398258
0.384866
0.374049
0.365568
0.359085
0.354236
0.350676
0.348102
0.346272
0.345008
0.344208
0.343789
0.343596
0.343499
0.34344
0.343418
0.343453
0.343528
0.343613
0.343694
0.343766
0.49938
0.477584
0.456182
0.43605
0.417887
0.402107
0.388848
0.378025
0.369409
0.362692
0.357549
0.35367
0.350785
0.34868
0.347247
0.346309
0.345604
0.34507
0.344725
0.344528
0.344433
0.344398
0.344395
0.344405
0.344418
0.526445
0.504381
0.482283
0.460939
0.441065
0.423187
0.407603
0.394393
0.383461
0.374598
0.367531
0.361972
0.357638
0.354283
0.351788
0.349964
0.348581
0.347556
0.346833
0.346331
0.345984
0.345742
0.345571
0.345445
0.345345
0.554354
0.532431
0.510144
0.488154
0.467123
0.447618
0.430043
0.414615
0.401382
0.390253
0.381042
0.373509
0.367391
0.362417
0.358409
0.355373
0.353174
0.351499
0.350187
0.34918
0.348418
0.347837
0.347387
0.347031
0.346738
0.58234
0.560879
0.538819
0.516693
0.495071
0.474495
0.455412
0.438134
0.422826
0.409517
0.398126
0.388492
0.380402
0.37361
0.367873
0.363223
0.35977
0.357197
0.355125
0.353435
0.352072
0.350979
0.350101
0.349385
0.34879
0.609712
0.588932
0.567395
0.545519
0.523779
0.502656
0.48259
0.463935
0.446935
0.431719
0.418308
0.406633
0.396559
0.38791
0.380476
0.374132
0.36893
0.36485
0.361695
0.359193
0.357107
0.355359
0.353908
0.352693
0.35166
0.635923
0.615952
0.595108
0.573724
0.552188
0.530917
0.510318
0.490748
0.472491
0.455744
0.440607
0.427099
0.415169
0.404716
0.395608
0.387711
0.380887
0.375121
0.370404
0.36656
0.363402
0.360817
0.358698
0.356907
0.35535
0.660588
0.641488
0.621408
0.600623
0.579459
0.55828
0.537454
0.517326
0.498193
0.480286
0.463763
0.448707
0.435137
0.42302
0.412283
0.402839
0.394584
0.387432
0.381246
0.375943
0.371496
0.367776
0.364636
0.36197
0.359693
0.683472
0.665253
0.645937
0.625759
0.60501
0.584017
0.563121
0.542653
0.522909
0.504138
0.486531
0.470215
0.455261
0.441687
0.42947
0.41856
0.408889
0.400375
0.392923
0.386445
0.380845
0.375982
0.371746
0.368104
0.365005
0.70445
0.687084
0.668476
0.648847
0.628468
0.607649
0.586719
0.566001
0.545793
0.526351
0.507884
0.490548
0.474448
0.45964
0.446139
0.433927
0.42296
0.413179
0.404508
0.396863
0.390151
0.384273
0.37914
0.374678
0.370806
0.723384
0.706806
0.688813
0.66963
0.649533
0.628823
0.607832
0.586885
0.566282
0.546283
0.52711
0.508936
0.49189
0.476052
0.461466
0.448139
0.436049
0.425156
0.415398
0.406704
0.398994
0.392183
0.386183
0.380911
0.376287
0.740307
0.72439
0.70686
0.687963
0.667969
0.647212
0.626057
0.60484
0.583855
0.563362
0.543585
0.524709
0.506877
0.490188
0.474702
0.460447
0.447418
0.435588
0.424912
0.415328
0.406766
0.399148
0.392392
0.386418
0.381144
0.755092
0.739682
0.72241
0.703618
0.683636
0.66279
0.641436
0.619938
0.598598
0.577674
0.55739
0.537937
0.519465
0.502087
0.485874
0.470866
0.457072
0.444478
0.433047
0.42273
0.413462
0.405172
0.397784
0.391219
0.385402
0.766827
0.751652
0.734486
0.715687
0.695599
0.674606
0.653067
0.631315
0.609648
0.588335
0.567609
0.547669
0.528671
0.510737
0.493948
0.478356
0.463976
0.450801
0.438805
0.427942
0.418153
0.409371
0.401522
0.394527
0.3883
0.779012
0.764218
0.747216
0.728447
0.708252
0.687031
0.665168
0.643009
0.62087
0.599032
0.577742
0.557206
0.537592
0.51903
0.50161
0.48539
0.470393
0.456622
0.444058
0.432662
0.422376
0.413135
0.404868
0.3975
0.390962
0.318177
0.317658
0.316941
0.323384
0.323011
0.325399
0.326534
0.328528
0.331562
0.327379
0.329936
0.332835
0.330481
0.332316
0.333959
0.333403
0.334498
0.335496
0.335425
0.336166
0.336857
0.337108
0.337599
0.33804
0.338541
0.338841
0.339099
0.339667
0.339849
0.339992
0.340506
0.340625
0.340706
0.341113
0.341208
0.341263
0.341559
0.341651
0.341701
0.341923
0.34202
0.342072
0.342266
0.342361
0.34241
0.34261
0.34269
0.342728
0.342959
0.34302
0.343044
0.343345
0.343389
0.343401
0.343816
0.343838
0.343833
0.344419
0.344403
0.344367
0.345257
0.34517
0.345074
0.346495
0.346285
0.346086
0.348307
0.347904
0.34754
0.350824
0.350138
0.349529
0.354074
0.353024
0.352091
0.357853
0.356355
0.355033
0.36251
0.360472
0.358665
0.367647
0.36504
0.362706
0.372488
0.369344
0.366524
0.376786
0.373171
0.369924
0.380581
0.376558
0.372931
0.383097
0.378777
0.374914
0.385416
0.38073
0.376603
0.362295
0.362249
0.362113
0.361678
0.360748
0.359393
0.357758
0.355971
0.354131
0.352311
0.350557
0.348898
0.34735
0.34592
0.344608
0.343412
0.342326
0.341346
0.340463
0.339673
0.338969
0.338346
0.337799
0.337324
0.336918
0.336577
0.336299
0.336082
0.335925
0.335827
0.335788
0.33581
0.335892
0.336034
0.336237
0.336504
0.336833
0.337221
0.337681
0.338221
0.338835
0.339526
0.340296
0.341147
0.34208
0.343098
0.3442
0.345385
0.346649
0.347988
0.349392
0.350846
0.352327
0.353805
0.355235
0.356552
0.357658
0.358432
0.358817
0.35884
0.358398
0.357401
0.355909
0.353868
0.351156
0.34793
0.344469
0.340884
0.337333
0.334131
0.331596
0.329908
0.329153
0.329405
0.330659
0.332728
0.335202
0.337391
0.338614
0.339007
0.362406
0.362274
0.362071
0.361452
0.36038
0.358986
0.357364
0.35562
0.353838
0.352077
0.350381
0.348774
0.347271
0.345878
0.344596
0.343424
0.342357
0.34139
0.340517
0.339732
0.339031
0.338407
0.337858
0.337377
0.336964
0.336613
0.336324
0.336095
0.335924
0.33581
0.335753
0.33575
0.335804
0.335916
0.336089
0.336331
0.336637
0.336982
0.337385
0.337874
0.338432
0.33906
0.33976
0.340533
0.34138
0.342302
0.343296
0.344361
0.345492
0.34668
0.347916
0.349184
0.350462
0.351722
0.352926
0.354026
0.354954
0.35564
0.356029
0.356091
0.355748
0.354904
0.353404
0.351225
0.348449
0.345185
0.341671
0.338134
0.334774
0.331851
0.329585
0.3281
0.327454
0.327701
0.328844
0.330811
0.333377
0.336099
0.338098
0.338954
0.36251
0.362014
0.361398
0.360484
0.359284
0.357877
0.356319
0.354683
0.353024
0.351389
0.34981
0.348308
0.346896
0.345581
0.344365
0.343246
0.342223
0.341292
0.340447
0.339684
0.338999
0.338387
0.337845
0.337369
0.336956
0.336603
0.336309
0.336072
0.33589
0.335763
0.335691
0.335672
0.335707
0.335795
0.335939
0.336145
0.336416
0.336743
0.33712
0.337556
0.338062
0.338634
0.339272
0.339978
0.340751
0.34159
0.342493
0.343458
0.344477
0.345544
0.346647
0.34777
0.348893
0.349989
0.351025
0.351961
0.352751
0.353353
0.353714
0.353736
0.353343
0.352492
0.351089
0.349066
0.346443
0.343313
0.339889
0.336441
0.333229
0.330478
0.32839
0.327089
0.326556
0.326735
0.327598
0.329118
0.331213
0.333689
0.335971
0.33749
0.361685
0.36087
0.359979
0.358936
0.357716
0.356356
0.354902
0.353401
0.351892
0.350405
0.348967
0.347593
0.346295
0.345078
0.343947
0.342901
0.341938
0.341057
0.340253
0.339523
0.338865
0.338273
0.337746
0.337281
0.336874
0.336524
0.336229
0.335987
0.335798
0.335661
0.335574
0.335539
0.335555
0.335623
0.335743
0.335917
0.336146
0.33643
0.33677
0.337167
0.337623
0.338141
0.338719
0.33936
0.340061
0.340823
0.341644
0.342519
0.343443
0.344409
0.345407
0.346422
0.347437
0.348429
0.34937
0.350228
0.350967
0.351561
0.351983
0.352132
0.351842
0.35101
0.349601
0.34761
0.345052
0.341991
0.338606
0.335184
0.332063
0.329464
0.327512
0.32631
0.325863
0.326064
0.326837
0.328123
0.329857
0.331928
0.333985
0.335551
0.359644
0.358661
0.357772
0.356809
0.355698
0.354467
0.353166
0.351834
0.350497
0.349178
0.347896
0.346665
0.345494
0.344391
0.343358
0.342396
0.341506
0.340685
0.339933
0.339246
0.338622
0.338059
0.337554
0.337105
0.336711
0.336368
0.336077
0.335835
0.335642
0.335498
0.335401
0.335353
0.335352
0.3354
0.335497
0.335645
0.335844
0.336093
0.336395
0.336751
0.337162
0.337629
0.338153
0.338734
0.339371
0.340064
0.34081
0.341605
0.342446
0.343325
0.344231
0.345154
0.346078
0.346982
0.347836
0.348621
0.349304
0.349848
0.350227
0.35037
0.350146
0.349447
0.348221
0.346426
0.34407
0.341233
0.338052
0.334762
0.331713
0.329202
0.327374
0.326273
0.325899
0.326146
0.32691
0.328118
0.329696
0.331506
0.333228
0.334493
0.355284
0.354843
0.354504
0.353937
0.353134
0.35216
0.351098
0.350001
0.348877
0.347753
0.346647
0.345574
0.344543
0.343563
0.342637
0.341768
0.340958
0.340206
0.339511
0.338873
0.33829
0.337761
0.337283
0.336855
0.336476
0.336145
0.335861
0.335622
0.335429
0.33528
0.335175
0.335115
0.3351
0.33513
0.335206
0.335329
0.335499
0.335717
0.335983
0.3363
0.336668
0.337087
0.337559
0.338084
0.33866
0.339288
0.339964
0.340686
0.341449
0.342247
0.34307
0.34391
0.344754
0.345584
0.346354
0.347061
0.347693
0.348203
0.348559
0.348687
0.348501
0.34796
0.347013
0.345564
0.343578
0.341118
0.338349
0.335445
0.332617
0.330164
0.328336
0.327246
0.326877
0.327141
0.327915
0.329125
0.330678
0.332366
0.333766
0.334642
0.347617
0.349524
0.350213
0.350357
0.350073
0.349505
0.348797
0.347997
0.347124
0.346216
0.3453
0.344392
0.343507
0.342653
0.341837
0.341064
0.340336
0.339655
0.339021
0.338434
0.337895
0.337401
0.336953
0.336549
0.336188
0.335871
0.335595
0.335361
0.335168
0.335017
0.334906
0.334836
0.334808
0.334822
0.334878
0.334978
0.335121
0.335309
0.335543
0.335823
0.33615
0.336525
0.336948
0.33742
0.33794
0.338506
0.339118
0.339772
0.340463
0.341187
0.341936
0.342699
0.343469
0.344235
0.344951
0.345606
0.346201
0.346687
0.347043
0.347218
0.347145
0.346787
0.3461
0.345032
0.343567
0.341691
0.339496
0.337134
0.334663
0.332374
0.330522
0.329326
0.328865
0.329101
0.329921
0.331207
0.332836
0.334521
0.335706
0.335986
0.3315
0.341125
0.344543
0.346145
0.346664
0.346666
0.346402
0.345932
0.345326
0.344642
0.343916
0.343173
0.34243
0.341701
0.340994
0.340315
0.339669
0.339058
0.338485
0.33795
0.337454
0.336997
0.336579
0.3362
0.335858
0.335555
0.33529
0.335062
0.334871
0.334718
0.334602
0.334524
0.334483
0.334482
0.33452
0.334598
0.334716
0.334877
0.335079
0.335324
0.335613
0.335946
0.336324
0.336747
0.337215
0.337726
0.338279
0.338871
0.339499
0.340158
0.340841
0.341538
0.342238
0.342937
0.34364
0.344299
0.344877
0.345359
0.345707
0.345933
0.346012
0.345878
0.345483
0.344794
0.34388
0.342739
0.341226
0.339424
0.337502
0.335622
0.333937
0.33263
0.331827
0.331594
0.332027
0.333124
0.334561
0.336017
0.337273
0.33724
0.331686
0.337257
0.340532
0.342633
0.343669
0.34413
0.344209
0.344009
0.343632
0.343144
0.342588
0.341993
0.34138
0.340764
0.340156
0.339564
0.338994
0.338449
0.337933
0.337447
0.336993
0.336571
0.336182
0.335826
0.335504
0.335215
0.334959
0.334737
0.334549
0.334394
0.334274
0.334188
0.334137
0.334122
0.334143
0.3342
0.334296
0.33443
0.334604
0.334817
0.335071
0.335367
0.335704
0.336083
0.336504
0.336966
0.337469
0.338009
0.338584
0.33919
0.339822
0.340472
0.341132
0.341794
0.342451
0.343085
0.343673
0.344201
0.344643
0.344985
0.345212
0.345296
0.345212
0.344938
0.344473
0.343849
0.343029
0.341994
0.340934
0.339928
0.338929
0.337927
0.337105
0.336566
0.336387
0.336705
0.337749
0.339851
0.342876
0.344859
0.334607
0.337313
0.339322
0.340819
0.341772
0.342306
0.342494
0.342432
0.342199
0.341847
0.341418
0.340938
0.340429
0.339906
0.339382
0.338863
0.338358
0.33787
0.337403
0.33696
0.336543
0.336152
0.335789
0.335454
0.335149
0.334872
0.334626
0.334409
0.334223
0.334067
0.333943
0.33385
0.333789
0.333761
0.333767
0.333806
0.333881
0.333992
0.33414
0.334325
0.334549
0.334812
0.335114
0.335457
0.335839
0.336261
0.336722
0.337221
0.337755
0.338321
0.338916
0.339534
0.34017
0.340816
0.341465
0.342104
0.34272
0.343302
0.343833
0.344302
0.344698
0.345007
0.345217
0.345323
0.34533
0.345246
0.345081
0.344849
0.344603
0.344377
0.344256
0.344236
0.344265
0.344568
0.345252
0.346174
0.347458
0.349729
0.353645
0.358773
0.335266
0.33725
0.338752
0.33987
0.340628
0.341063
0.341243
0.341226
0.341063
0.340792
0.340445
0.340045
0.339612
0.33916
0.3387
0.33824
0.337786
0.337345
0.336918
0.336511
0.336124
0.335759
0.335417
0.3351
0.334809
0.334543
0.334304
0.334091
0.333906
0.333749
0.333621
0.333521
0.333451
0.333412
0.333403
0.333427
0.333484
0.333574
0.333699
0.333861
0.334059
0.334294
0.334568
0.33488
0.335231
0.335621
0.33605
0.336517
0.337022
0.337561
0.338132
0.338733
0.339358
0.340002
0.34066
0.341323
0.341984
0.342633
0.343261
0.343861
0.344426
0.344948
0.345424
0.345853
0.346243
0.346604
0.346953
0.347318
0.347738
0.34825
0.348921
0.349799
0.350843
0.352098
0.353709
0.355784
0.358341
0.361477
0.365495
0.37041
0.33561
0.337133
0.33836
0.339279
0.339881
0.340223
0.340365
0.34035
0.340211
0.339979
0.339679
0.339329
0.338946
0.338542
0.338128
0.33771
0.337295
0.336889
0.336493
0.336113
0.335749
0.335405
0.33508
0.334777
0.334496
0.334238
0.334004
0.333794
0.33361
0.333451
0.333318
0.333212
0.333133
0.333083
0.333062
0.333072
0.333112
0.333185
0.333291
0.333432
0.333608
0.333821
0.334071
0.334359
0.334686
0.335052
0.335458
0.335903
0.336388
0.33691
0.33747
0.338063
0.338689
0.339343
0.340023
0.340722
0.341435
0.342158
0.342886
0.343613
0.344336
0.345052
0.345763
0.34647
0.347182
0.347909
0.348668
0.349483
0.350381
0.351396
0.352566
0.353927
0.355508
0.357375
0.359584
0.362157
0.365093
0.368349
0.371884
0.375679
0.336531
0.33753
0.338386
0.339054
0.339491
0.339724
0.339805
0.33976
0.339615
0.339393
0.339111
0.338786
0.338431
0.338057
0.337671
0.337282
0.336893
0.336511
0.336137
0.335776
0.335429
0.335099
0.334786
0.334493
0.334219
0.333966
0.333736
0.333527
0.333341
0.33318
0.333042
0.33293
0.332843
0.332784
0.332752
0.332748
0.332775
0.332832
0.332922
0.333046
0.333204
0.333398
0.33363
0.333899
0.334208
0.334556
0.334946
0.335377
0.33585
0.336364
0.33692
0.337516
0.338151
0.338823
0.339531
0.340271
0.341041
0.341838
0.342659
0.343503
0.344367
0.345253
0.346161
0.347096
0.348066
0.349081
0.350155
0.351307
0.352561
0.353944
0.355488
0.357238
0.359214
0.361354
0.363609
0.36603
0.368654
0.371466
0.374455
0.377671
0.337525
0.338147
0.338685
0.339108
0.339381
0.339504
0.339506
0.339412
0.33924
0.339005
0.338722
0.338403
0.338059
0.337699
0.337329
0.336955
0.336582
0.336214
0.335854
0.335505
0.335169
0.334848
0.334542
0.334254
0.333985
0.333735
0.333505
0.333296
0.333108
0.332943
0.332801
0.332682
0.332588
0.332519
0.332477
0.332462
0.332476
0.332521
0.332597
0.332705
0.332849
0.333028
0.333245
0.3335
0.333796
0.334132
0.334511
0.334934
0.335401
0.335914
0.336472
0.337076
0.337726
0.33842
0.33916
0.339942
0.340767
0.341633
0.342539
0.343484
0.344469
0.345494
0.346563
0.347678
0.348846
0.350074
0.351375
0.35276
0.354246
0.355854
0.357618
0.359567
0.361638
0.363728
0.365841
0.368071
0.37047
0.373014
0.375685
0.378483
0.338452
0.33882
0.339122
0.339345
0.339468
0.339488
0.339409
0.339257
0.339045
0.338784
0.338487
0.338161
0.337816
0.337458
0.337092
0.336725
0.336359
0.335998
0.335644
0.335301
0.33497
0.334653
0.334352
0.334066
0.333798
0.333548
0.333317
0.333106
0.332916
0.332746
0.332598
0.332473
0.332371
0.332294
0.332242
0.332217
0.332221
0.332254
0.332318
0.332414
0.332545
0.332713
0.332918
0.333163
0.333448
0.333777
0.33415
0.334569
0.335035
0.335549
0.336114
0.336729
0.337396
0.338115
0.338885
0.339708
0.340583
0.341509
0.342488
0.343518
0.344601
0.345738
0.34693
0.348181
0.349494
0.350874
0.352327
0.353862
0.355486
0.357217
0.359076
0.361046
0.363019
0.364996
0.367053
0.369192
0.371415
0.373724
0.376117
0.378576
0.339327
0.339513
0.339644
0.339713
0.339703
0.339622
0.339469
0.339253
0.338994
0.3387
0.33838
0.338039
0.337684
0.33732
0.336952
0.336584
0.336218
0.335858
0.335506
0.335164
0.334834
0.334518
0.334216
0.33393
0.333661
0.33341
0.333177
0.332962
0.332768
0.332593
0.332439
0.332308
0.332198
0.332113
0.332052
0.332018
0.332011
0.332034
0.332087
0.332174
0.332295
0.332452
0.332648
0.332885
0.333164
0.333487
0.333856
0.334274
0.334742
0.335261
0.335834
0.336462
0.337146
0.337887
0.338687
0.339546
0.340463
0.341441
0.342479
0.343577
0.344736
0.345957
0.347241
0.348589
0.350002
0.351482
0.353031
0.354651
0.356346
0.358124
0.35999
0.361879
0.363764
0.365703
0.367698
0.369724
0.371783
0.373885
0.376039
0.378231
0.340103
0.340169
0.340184
0.340145
0.340043
0.339872
0.339642
0.339363
0.339055
0.338725
0.338378
0.338017
0.337648
0.337274
0.336899
0.336525
0.336156
0.335792
0.335437
0.335093
0.334761
0.334443
0.334139
0.333851
0.333579
0.333324
0.333087
0.332869
0.332669
0.332489
0.332329
0.332191
0.332074
0.33198
0.331911
0.331868
0.331852
0.331865
0.331909
0.331986
0.332098
0.332247
0.332435
0.332665
0.332939
0.333259
0.333627
0.334045
0.334515
0.33504
0.335622
0.336262
0.336962
0.337724
0.338549
0.339438
0.340391
0.34141
0.342493
0.343643
0.344858
0.34614
0.347487
0.3489
0.350377
0.351917
0.353519
0.355182
0.356904
0.358686
0.360506
0.362317
0.364149
0.366044
0.367964
0.369883
0.371802
0.37374
0.375714
0.377721
0.34075
0.340744
0.340689
0.340585
0.340425
0.340194
0.339898
0.339562
0.339206
0.33884
0.338466
0.338085
0.3377
0.337314
0.336929
0.336547
0.336171
0.335802
0.335442
0.335093
0.334756
0.334434
0.334126
0.333834
0.333557
0.333298
0.333056
0.332832
0.332626
0.33244
0.332274
0.332128
0.332003
0.331901
0.331823
0.33177
0.331745
0.331749
0.331785
0.331853
0.331957
0.332099
0.33228
0.332505
0.332774
0.333091
0.333458
0.333877
0.334351
0.334881
0.335471
0.336122
0.336837
0.337616
0.338461
0.339374
0.340355
0.341404
0.342521
0.343707
0.344961
0.346283
0.347671
0.349124
0.350637
0.352209
0.353836
0.355514
0.357237
0.358995
0.360746
0.362493
0.364291
0.366136
0.367988
0.36982
0.371633
0.37345
0.375302
0.377199
0.341275
0.341233
0.341138
0.340995
0.340803
0.340544
0.340204
0.339817
0.339423
0.339029
0.338632
0.338233
0.337833
0.337435
0.33704
0.33665
0.336267
0.335892
0.335527
0.335173
0.334831
0.334502
0.334188
0.333888
0.333605
0.333339
0.33309
0.33286
0.332648
0.332455
0.33228
0.332126
0.331992
0.331881
0.331793
0.331731
0.331696
0.331691
0.331718
0.331778
0.331874
0.332008
0.332184
0.332403
0.332669
0.332983
0.333349
0.333769
0.334246
0.334781
0.335378
0.336039
0.336765
0.337558
0.338419
0.33935
0.34035
0.341421
0.342561
0.343771
0.345049
0.346395
0.347808
0.349285
0.350816
0.352397
0.354029
0.355702
0.357395
0.359088
0.360774
0.362488
0.364257
0.366058
0.367856
0.369625
0.371363
0.373096
0.37487
0.376687
0.341706
0.34165
0.341536
0.341373
0.341164
0.340878
0.340506
0.340094
0.339683
0.339273
0.338861
0.338449
0.338037
0.337629
0.337225
0.336829
0.33644
0.336062
0.335694
0.335337
0.33499
0.334655
0.334333
0.334026
0.333735
0.33346
0.333202
0.332963
0.332743
0.332542
0.332359
0.332194
0.332049
0.331927
0.331828
0.331755
0.33171
0.331695
0.331711
0.331762
0.33185
0.331977
0.332147
0.332361
0.332622
0.332934
0.333299
0.33372
0.334199
0.334739
0.335342
0.33601
0.336746
0.33755
0.338424
0.339368
0.340383
0.341468
0.342623