/*--------------------------------*- C++ -*----------------------------------*\
| =========                 |                                                 |
| \\      /  F ield         | OpenFOAM: The Open Source CFD Toolbox           |
|  \\    /   O peration     | Version:  v2012                                 |
|   \\  /    A nd           | Website:  www.openfoam.com                      |
|    \\/     M anipulation  |                                                 |
\*---------------------------------------------------------------------------*/
FoamFile
{
    version     2.0;
    format      ascii;
    class       surfaceScalarField;
    location    "595";
    object      phi;
}
// * * * * * * * * * * * * * * * * * * * * * * * * * * * * * * * * * * * * * //

dimensions      [0 3 -1 0 0 0 0];
oriented        oriented;


internalField   nonuniform List<scalar> 
12946
(
6.37112e-08
0.000199936
4.22459e-08
0.000200021
2.50868e-08
0.000200017
1.17398e-08
0.000200013
3.75637e-11
0.000200012
-1.16708e-08
0.000200012
-2.50349e-08
0.000200013
-4.22206e-08
0.000200017
-6.37037e-08
0.000200021
0.000199936
1.00716e-07
0.000199836
8.82412e-08
0.000200034
5.92886e-08
0.000200046
2.92577e-08
0.000200043
1.13143e-10
0.000200041
-2.90487e-08
0.000200041
-5.91302e-08
0.000200043
-8.81613e-08
0.000200046
-1.00701e-07
0.000200034
0.000199836
1.03114e-07
0.000199732
1.03235e-07
0.000200034
7.47527e-08
0.000200075
3.84068e-08
0.00020008
2.15836e-10
0.000200079
-3.79982e-08
0.000200079
-7.4405e-08
0.00020008
-1.02958e-07
0.000200075
-1.02954e-07
0.000200034
0.000199733
9.99291e-08
0.000199633
1.04163e-07
0.00020003
7.85556e-08
0.0002001
4.15585e-08
0.000200117
3.60358e-10
0.00020012
-4.08725e-08
0.00020012
-7.79672e-08
0.000200117
-1.03733e-07
0.000200101
-9.96915e-08
0.00020003
0.000199633
9.58993e-08
0.000199537
1.01529e-07
0.000200024
7.80194e-08
0.000200124
4.18645e-08
0.000200153
5.67454e-10
0.000200162
-4.07816e-08
0.000200162
-7.70882e-08
0.000200153
-1.00847e-07
0.000200124
-9.55302e-08
0.000200025
0.000199537
9.09028e-08
0.000199446
9.72929e-08
0.000200018
7.59193e-08
0.000200145
4.1128e-08
0.000200188
8.65541e-10
0.000200202
-3.94805e-08
0.000200202
-7.45145e-08
0.000200188
-9.62525e-08
0.000200146
-9.03358e-08
0.000200019
0.000199447
8.5986e-08
0.00019936
9.23996e-08
0.000200011
7.24014e-08
0.000200165
3.96409e-08
0.00020022
1.31234e-09
0.00020024
-3.71443e-08
0.00020024
-7.02741e-08
0.000200221
-9.08305e-08
0.000200167
-8.51251e-08
0.000200013
0.000199362
8.16258e-08
0.000199278
8.77264e-08
0.000200005
6.89299e-08
0.000200184
3.81511e-08
0.000200251
1.99475e-09
0.000200276
-3.43519e-08
0.000200277
-6.56813e-08
0.000200253
-8.53384e-08
0.000200186
-8.0318e-08
0.000200008
0.000199282
7.80057e-08
0.0001992
8.38162e-08
0.000199999
6.61668e-08
0.000200202
3.7166e-08
0.00020028
3.02749e-09
0.00020031
-3.13965e-08
0.000200311
-6.12291e-08
0.000200283
-8.01901e-08
0.000200205
-7.60184e-08
0.000200004
0.000199206
7.51798e-08
0.000199125
8.0875e-08
0.000199994
6.43072e-08
0.000200218
3.69235e-08
0.000200308
4.57957e-09
0.000200343
-2.81954e-08
0.000200344
-5.68366e-08
0.000200311
-7.53867e-08
0.000200224
-7.21693e-08
0.000200001
0.000199133
7.3169e-08
0.000199052
7.90344e-08
0.000199988
6.3553e-08
0.000200234
3.76699e-08
0.000200333
6.90816e-09
0.000200374
-2.45054e-08
0.000200375
-5.22817e-08
0.000200339
-7.07333e-08
0.000200242
-6.86118e-08
0.000199999
0.000199065
7.20477e-08
0.00019898
7.85073e-08
0.000199981
6.41917e-08
0.000200248
3.97625e-08
0.000200358
1.04037e-08
0.000200403
-1.99398e-08
0.000200406
-4.72072e-08
0.000200366
-6.59173e-08
0.000200261
-6.51325e-08
0.000199998
0.000199
7.19797e-08
0.000198908
7.95979e-08
0.000199974
6.6702e-08
0.000200261
4.37635e-08
0.000200381
1.56711e-08
0.000200431
-1.39077e-08
0.000200435
-4.1088e-08
0.000200393
-6.05206e-08
0.00020028
-6.14761e-08
0.000199999
0.000198938
7.2986e-08
0.000198835
8.23827e-08
0.000199964
7.15705e-08
0.000200272
5.04845e-08
0.000200402
2.36126e-08
0.000200458
-5.54479e-09
0.000200465
-3.31878e-08
0.000200421
-5.39974e-08
0.000200301
-5.73366e-08
0.000200002
0.000198881
7.55966e-08
0.000198759
8.79794e-08
0.000199952
8.00551e-08
0.00020028
6.12151e-08
0.000200421
3.55935e-08
0.000200483
6.4314e-09
0.000200494
-2.24499e-08
0.00020045
-4.56223e-08
0.000200324
-5.23607e-08
0.000200009
0.000198829
8.03992e-08
0.000198679
9.74019e-08
0.000199935
9.34968e-08
0.000200283
7.75631e-08
0.000200437
5.3372e-08
0.000200508
2.41754e-08
0.000200523
-7.13794e-09
0.000200481
-3.44682e-08
0.000200352
-4.62407e-08
0.000200021
0.000198782
8.82407e-08
0.000198591
1.12289e-07
0.000199911
1.1443e-07
0.000200281
1.02836e-07
0.000200448
8.07953e-08
0.00020053
5.04498e-08
0.000200553
1.49397e-08
0.000200517
-1.94617e-08
0.000200386
-3.90963e-08
0.00020004
0.000198743
1.00243e-07
0.00019849
1.34819e-07
0.000199876
1.46025e-07
0.00020027
1.41305e-07
0.000200453
1.22658e-07
0.000200548
9.04018e-08
0.000200585
4.72567e-08
0.00020056
-7.73766e-10
0.000200434
-3.37183e-08
0.000200073
0.000198709
1.17873e-07
0.000198372
1.68065e-07
0.000199826
1.93059e-07
0.000200245
1.99293e-07
0.000200447
1.86957e-07
0.000200561
1.54788e-07
0.000200618
1.01832e-07
0.000200613
3.58685e-08
0.0002005
-2.47384e-08
0.000200134
0.000198685
1.42599e-07
0.00019823
2.15552e-07
0.000199753
2.61212e-07
0.000200199
2.84961e-07
0.000200423
2.84696e-07
0.000200561
2.54542e-07
0.000200648
1.80969e-07
0.000200686
5.17778e-08
0.000200629
-1.3989e-07
0.000200325
0.000198545
1.71424e-07
0.000198058
2.7248e-07
0.000199652
3.46185e-07
0.000200126
3.97887e-07
0.000200371
4.26368e-07
0.000200532
4.29101e-07
0.000200645
4.04665e-07
0.000200711
3.53669e-07
0.00020068
5.92832e-07
0.000200086
0.000194111
5.02712e-06
2.13834e-07
0.000197845
3.54444e-07
0.000199511
4.67658e-07
0.000200013
5.59839e-07
0.000200279
6.31269e-07
0.000200461
6.85106e-07
0.000200591
7.42777e-07
0.000200653
8.63383e-07
0.00020056
1.15094e-06
0.000199799
0.000192041
3.22054e-06
2.65937e-07
0.000197579
4.56019e-07
0.000199321
6.18523e-07
0.00019985
7.61029e-07
0.000200137
8.8515e-07
0.000200337
9.94594e-07
0.000200482
1.10729e-06
0.000200541
1.31519e-06
0.000200352
1.93494e-06
0.000199179
0.000188962
5.01418e-06
3.27762e-07
0.000197251
5.76964e-07
0.000199072
7.98161e-07
0.000199629
1.00015e-06
0.000199935
1.18649e-06
0.000200151
1.3652e-06
0.000200303
1.56645e-06
0.000200339
1.91576e-06
0.000200002
2.8477e-06
0.000198247
0.000185542
6.26755e-06
3.9975e-07
0.000196851
7.17921e-07
0.000198754
1.00749e-06
0.000199339
1.27867e-06
0.000199663
1.53732e-06
0.000199892
1.79708e-06
0.000200043
2.09954e-06
0.000200037
2.58416e-06
0.000199518
3.72947e-06
0.000197102
0.000182105
7.16593e-06
4.82605e-07
0.000196368
8.79804e-07
0.000198357
1.24751e-06
0.000198972
1.59732e-06
0.000199314
1.93703e-06
0.000199552
2.28472e-06
0.000199696
2.69119e-06
0.00019963
3.3121e-06
0.000198897
4.68896e-06
0.000195725
0.000178744
8.05031e-06
5.77907e-07
0.000195791
1.06408e-06
0.000197871
1.51993e-06
0.000198516
1.95799e-06
0.000198876
2.38783e-06
0.000199122
2.83183e-06
0.000199252
3.34991e-06
0.000199112
4.11215e-06
0.000198135
5.68564e-06
0.000194151
0.000175596
8.83412e-06
7.10842e-07
0.00019508
1.32168e-06
0.00019726
1.89923e-06
0.000197938
2.45748e-06
0.000198317
3.0085e-06
0.000198571
3.5798e-06
0.00019868
4.24139e-06
0.000198451
5.17424e-06
0.000197202
6.92793e-06
0.000192398
0.00017256
9.9638e-06
8.41796e-07
0.000194238
1.57406e-06
0.000196527
2.27348e-06
0.000197239
2.95211e-06
0.000197639
3.62427e-06
0.000197899
4.32192e-06
0.000197983
5.12518e-06
0.000197647
6.22701e-06
0.0001961
8.11337e-06
0.000190511
0.000169798
1.08754e-05
9.90212e-07
0.000193248
1.86264e-06
0.000195655
2.69866e-06
0.000196403
3.51288e-06
0.000196825
4.32046e-06
0.000197092
5.15649e-06
0.000197147
6.10673e-06
0.000196697
7.36985e-06
0.000194837
9.3686e-06
0.000188513
0.000167328
1.18385e-05
1.1571e-06
0.000192091
2.19325e-06
0.000194619
3.18394e-06
0.000195412
4.15011e-06
0.000195858
5.10761e-06
0.000196134
6.09269e-06
0.000196162
7.19115e-06
0.000195599
8.59277e-06
0.000193435
1.06485e-05
0.000186457
0.000165212
1.27646e-05
1.35069e-06
0.00019074
2.57068e-06
0.000193399
3.73861e-06
0.000194244
4.87695e-06
0.00019472
6.00205e-06
0.000195009
7.14976e-06
0.000195014
8.40225e-06
0.000194346
9.93156e-06
0.000191906
1.19948e-05
0.000184394
0.000163486
1.37201e-05
1.57414e-06
0.000189166
3.00377e-06
0.000191969
4.37507e-06
0.000192873
5.71076e-06
0.000193384
7.02696e-06
0.000193693
8.35768e-06
0.000193683
9.7784e-06
0.000192926
1.14398e-05
0.000190245
1.34741e-05
0.000182359
0.000162115
1.48451e-05
1.83157e-06
0.000187334
3.50268e-06
0.000190298
5.10823e-06
0.000191267
6.67189e-06
0.000191821
8.20887e-06
0.000192156
9.75005e-06
0.000192142
1.13612e-05
0.000191314
1.3159e-05
0.000188447
1.51368e-05
0.000180382
0.000161047
1.62049e-05
2.12796e-06
0.000185206
4.07756e-06
0.000188349
5.95345e-06
0.000189391
7.7812e-06
0.000189993
9.57483e-06
0.000190362
1.13606e-05
0.000190356
1.31906e-05
0.000189484
1.51337e-05
0.000186504
1.70646e-05
0.000178451
0.000160218
1.78937e-05
2.46808e-06
0.000182738
4.73791e-06
0.000186079
6.92512e-06
0.000187204
9.05827e-06
0.00018786
1.11502e-05
0.00018827
1.32211e-05
0.000188285
1.53053e-05
0.0001874
1.74193e-05
0.00018439
1.93401e-05
0.00017653
0.00015955
2.00083e-05
2.85591e-06
0.000179882
5.49188e-06
0.000183443
8.03559e-06
0.00018466
1.05199e-05
0.000185375
1.29566e-05
0.000185834
1.53592e-05
0.000185883
1.77414e-05
0.000185018
2.00686e-05
0.000182062
2.20382e-05
0.00017456
0.00015895
2.26387e-05
3.29441e-06
0.000176588
6.34561e-06
0.000180392
9.29407e-06
0.000181712
1.21784e-05
0.000182491
1.50102e-05
0.000183002
1.77956e-05
0.000183097
2.05275e-05
0.000182286
2.31238e-05
0.000179466
2.52211e-05
0.000172463
0.000158308
2.58627e-05
3.78516e-06
0.000172803
7.30256e-06
0.000176874
1.07055e-05
0.000178309
1.40401e-05
0.000179157
1.73188e-05
0.000179723
2.0541e-05
0.000179875
2.36797e-05
0.000179147
2.66124e-05
0.000176533
2.89331e-05
0.000170142
0.0001575
2.97411e-05
4.3288e-06
0.000168474
8.36301e-06
0.00017284
1.22699e-05
0.000174402
1.61041e-05
0.000175322
1.98805e-05
0.000175947
2.35934e-05
0.000176162
2.71987e-05
0.000175542
3.05427e-05
0.000173189
3.31947e-05
0.00016749
0.000156385
3.43091e-05
4.92626e-06
0.000163548
9.52402e-06
0.000168242
1.39815e-05
0.000169945
1.83616e-05
0.000170942
2.26828e-05
0.000171625
2.69367e-05
0.000171908
3.1067e-05
0.000171412
3.48992e-05
0.000169357
3.79961e-05
0.000164393
0.000154815
3.95665e-05
5.57644e-06
0.000157971
1.07802e-05
0.000163038
1.58297e-05
0.000164895
2.07957e-05
0.000165976
2.5702e-05
0.000166719
3.054e-05
0.00016707
3.52471e-05
0.000166705
3.964e-05
0.000164964
4.3292e-05
0.000160741
0.000152638
4.54687e-05
6.27538e-06
0.000151696
1.21242e-05
0.00015719
1.78001e-05
0.000159219
2.33833e-05
0.000160393
2.89045e-05
0.000161198
3.43584e-05
0.000161616
3.96823e-05
0.000161381
4.4696e-05
0.000159951
4.89989e-05
0.000156438
0.000149718
5.19197e-05
7.01918e-06
0.000144677
1.35469e-05
0.000150662
1.98752e-05
0.000152891
2.60962e-05
0.000154172
3.22491e-05
0.000155045
3.83356e-05
0.00015553
4.4299e-05
0.000155417
4.99731e-05
0.000154277
5.49971e-05
0.000151414
0.000145943
5.87718e-05
7.80505e-06
0.000136872
1.50395e-05
0.000143427
2.20368e-05
0.000145894
2.89036e-05
0.000147305
3.56901e-05
0.000148258
4.24078e-05
0.000148812
4.90122e-05
0.000148813
5.53595e-05
0.000147929
6.11393e-05
0.000145634
0.000141249
6.58335e-05
8.63225e-06
0.000128239
1.65959e-05
0.000135464
2.42685e-05
0.000138221
3.17757e-05
0.000139798
3.91812e-05
0.000140853
4.65093e-05
0.000141484
5.37323e-05
0.00014159
6.07351e-05
0.000140926
6.72638e-05
0.000139106
0.000135624
7.28881e-05
9.50311e-06
0.000118736
1.82139e-05
0.000126753
2.6558e-05
0.000129877
3.46863e-05
0.00013167
4.2679e-05
0.00013286
5.05773e-05
0.000133586
5.83729e-05
0.000133794
6.59833e-05
0.000133316
7.32122e-05
0.000131877
0.000129118
7.97185e-05
1.04243e-05
0.000108312
1.98976e-05
0.00011728
2.88985e-05
0.000120876
3.76133e-05
0.000122955
4.61452e-05
0.000124328
5.45549e-05
0.000125176
6.28565e-05
0.000125493
7.10002e-05
0.000125172
7.88451e-05
0.000124032
0.000121829
8.61341e-05
1.14081e-05
9.69038e-05
2.16575e-05
0.00010703
3.12876e-05
0.000111246
4.0538e-05
0.000113704
4.95442e-05
0.000115322
5.83907e-05
0.00011633
6.71155e-05
0.000116768
7.57001e-05
0.000116588
8.40526e-05
0.000115679
0.000113892
9.19897e-05
1.24744e-05
8.44294e-05
2.3508e-05
9.59967e-05
3.37219e-05
0.000101032
4.34376e-05
0.000103989
5.28367e-05
0.000105923
6.20327e-05
0.000107134
7.10879e-05
0.000107713
8.00123e-05
0.000107663
8.87545e-05
0.000106937
0.000105455
9.71916e-05
1.36569e-05
7.07726e-05
2.54579e-05
8.41956e-05
3.61824e-05
9.03077e-05
4.62705e-05
9.39007e-05
5.5965e-05
9.62284e-05
6.54139e-05
9.76849e-05
7.47042e-05
9.84225e-05
8.38696e-05
9.84979e-05
9.28895e-05
9.79174e-05
9.66581e-05
0.000101686
1.50073e-05
5.57653e-05
2.74666e-05
7.17363e-05
3.85988e-05
7.91755e-05
4.89506e-05
8.35489e-05
5.88313e-05
8.63477e-05
6.84332e-05
8.8083e-05
7.78686e-05
8.89872e-05
8.71887e-05
8.91777e-05
9.63939e-05
8.87123e-05
8.76159e-05
0.000105436
1.65163e-05
3.9249e-05
2.944e-05
5.88126e-05
4.08011e-05
6.78144e-05
5.12806e-05
7.30694e-05
6.12436e-05
7.63847e-05
7.09156e-05
7.8411e-05
8.04275e-05
7.94752e-05
8.98425e-05
7.97627e-05
9.91721e-05
7.93827e-05
7.84026e-05
0.000108385
1.68612e-05
2.23877e-05
3.08825e-05
4.47914e-05
4.25314e-05
5.61655e-05
5.30059e-05
6.25949e-05
6.29298e-05
6.64608e-05
7.25951e-05
6.87457e-05
8.21408e-05
6.99296e-05
9.16267e-05
7.02768e-05
0.000101063
6.9946e-05
6.90412e-05
0.000110425
1.41923e-05
8.19546e-06
2.96594e-05
2.93242e-05
4.24197e-05
4.34052e-05
5.33287e-05
5.1686e-05
6.33601e-05
5.64294e-05
7.30528e-05
5.9053e-05
8.26478e-05
6.03345e-05
9.22308e-05
6.06939e-05
0.000101811
6.03663e-05
5.94962e-05
0.000111356
9.36156e-06
-1.1661e-06
2.42935e-05
1.43923e-05
3.82978e-05
2.94008e-05
5.0432e-05
3.95518e-05
6.12527e-05
4.56086e-05
7.14014e-05
4.89042e-05
8.12989e-05
5.04371e-05
9.11454e-05
5.08473e-05
0.000100997
5.05147e-05
4.96599e-05
0.000110833
5.48898e-06
-6.65508e-06
1.65412e-05
3.3401e-06
2.97563e-05
1.61857e-05
4.27068e-05
2.66013e-05
5.47546e-05
3.35609e-05
6.60187e-05
3.76401e-05
7.68136e-05
3.96422e-05
8.73809e-05
4.02801e-05
9.78381e-05
4.00574e-05
3.92813e-05
0.000108217
2.52945e-06
-9.18453e-06
8.59645e-06
-2.72691e-06
1.84324e-05
6.34979e-06
3.02085e-05
1.48252e-05
4.26413e-05
2.11281e-05
5.50697e-05
2.52117e-05
6.72587e-05
2.74532e-05
7.91597e-05
2.83791e-05
9.07944e-05
2.84226e-05
2.78597e-05
0.000102216
-1.90482e-06
-7.27972e-06
-2.54615e-07
-4.37711e-06
5.48522e-06
6.09957e-07
1.44778e-05
5.83258e-06
2.58393e-05
9.76654e-06
3.85942e-05
1.24569e-05
5.19978e-05
1.40496e-05
6.54235e-05
1.49534e-05
7.8622e-05
1.52242e-05
1.48801e-05
9.16016e-05
-7.27972e-06
-1.16568e-05
-1.10469e-05
-5.21429e-06
4.55225e-06
1.70091e-05
3.10587e-05
4.60121e-05
6.12363e-05
7.61163e-05
-2.75107e-05
3.25378e-05
-2.47351e-05
-2.77562e-06
-1.91059e-05
-5.62918e-06
-1.26595e-05
-6.44647e-06
-5.74441e-06
-6.91505e-06
1.10281e-06
-6.84722e-06
7.61853e-06
-6.51572e-06
1.37415e-05
-6.12295e-06
1.92693e-05
-5.52782e-06
2.39716e-05
-4.70228e-06
2.77009e-05
-3.72933e-06
3.04917e-05
-2.79075e-06
3.24006e-05
-1.90896e-06
3.35278e-05
-1.12715e-06
3.39316e-05
-4.03811e-07
3.36027e-05
3.28906e-07
3.25169e-05
1.08578e-06
3.06102e-05
1.90671e-06
2.7811e-05
2.79918e-06
2.40277e-05
3.78326e-06
1.92218e-05
4.80595e-06
1.35207e-05
5.70112e-06
7.54686e-06
5.97381e-06
2.56458e-06
4.98227e-06
2.56458e-06
-1.36427e-05
4.94011e-05
-1.83413e-05
1.923e-06
-1.68098e-05
-7.16074e-06
-1.30358e-05
-1.02204e-05
-8.08156e-06
-1.18693e-05
-2.40752e-06
-1.25213e-05
3.447e-06
-1.23702e-05
8.90808e-06
-1.1584e-05
1.36641e-05
-1.02838e-05
1.763e-05
-8.66825e-06
2.08478e-05
-6.94711e-06
2.33145e-05
-5.25739e-06
2.5075e-05
-3.66945e-06
2.61871e-05
-2.23926e-06
2.67267e-05
-9.43469e-07
2.67736e-05
2.82026e-07
2.63501e-05
1.50927e-06
2.54485e-05
2.80831e-06
2.40094e-05
4.23827e-06
2.19554e-05
5.8373e-06
1.91802e-05
7.58113e-06
1.55715e-05
9.30983e-06
1.09713e-05
1.0574e-05
5.55245e-06
1.04011e-05
8.11703e-06
-8.37819e-06
6.27935e-05
-1.50529e-05
8.59773e-06
-1.58663e-05
-6.3474e-06
-1.37639e-05
-1.23228e-05
-1.00652e-05
-1.5568e-05
-5.50058e-06
-1.70859e-05
-5.59401e-07
-1.73114e-05
4.24897e-06
-1.63924e-05
8.52426e-06
-1.45591e-05
1.20864e-05
-1.22303e-05
1.48849e-05
-9.74563e-06
1.6962e-05
-7.33453e-06
1.84379e-05
-5.14529e-06
1.94063e-05
-3.20767e-06
1.99239e-05
-1.46106e-06
2.00271e-05
1.78787e-07
1.97441e-05
1.7923e-06
1.90952e-05
3.45715e-06
1.80908e-05
5.24271e-06
1.67203e-05
7.20781e-06
1.49249e-05
9.37653e-06
1.2573e-05
1.16617e-05
9.43892e-06
1.37081e-05
5.27806e-06
1.4562e-05
1.33951e-05
-6.01618e-06
7.50772e-05
-1.40187e-05
1.66003e-05
-1.63144e-05
-4.05172e-06
-1.52413e-05
-1.33959e-05
-1.2304e-05
-1.85053e-05
-8.47515e-06
-2.09147e-05
-4.40589e-06
-2.13807e-05
-4.62903e-07
-2.03354e-05
3.10975e-06
-1.81318e-05
6.13617e-06
-1.52568e-05
8.54173e-06
-1.21512e-05
1.03706e-05
-9.1634e-06
1.17216e-05
-6.49625e-06
1.26685e-05
-4.15465e-06
1.32523e-05
-2.04481e-06
1.34906e-05
-5.94787e-08
1.33999e-05
1.88298e-06
1.30006e-05
3.85638e-06
1.23197e-05
5.92365e-06
1.13809e-05
8.14657e-06
1.01827e-05
1.05748e-05
8.66258e-06
1.31819e-05
6.66054e-06
1.57101e-05
3.90401e-06
1.73185e-05
1.72991e-05
-3.27536e-06
8.55185e-05
-1.27425e-05
2.60674e-05
-1.65046e-05
-2.89532e-07
-1.65391e-05
-1.33615e-05
-1.4487e-05
-2.05575e-05
-1.14452e-05
-2.39565e-05
-8.15056e-06
-2.46753e-05
-4.97439e-06
-2.35116e-05
-2.10365e-06
-2.10025e-05
3.76151e-07
-1.77366e-05
2.41051e-06
-1.41855e-05
4.02257e-06
-1.07755e-05
5.26506e-06
-7.73874e-06
6.19132e-06
-5.08091e-06
6.83343e-06
-2.68693e-06
7.20338e-06
-4.29428e-07
7.30945e-06
1.77692e-06
7.17051e-06
3.99531e-06
6.81555e-06
6.27861e-06
6.28034e-06
8.68178e-06
5.59652e-06
1.12586e-05
4.76548e-06
1.40129e-05
3.70259e-06
1.6773e-05
2.09648e-06
1.89246e-05
1.93956e-05
-3.4163e-07
9.39104e-05
-1.01385e-05
3.58643e-05
-1.53506e-05
4.92254e-06
-1.67801e-05
-1.19319e-05
-1.596e-05
-2.13775e-05
-1.403e-05
-2.58866e-05
-1.16637e-05
-2.70415e-05
-9.18841e-06
-2.59869e-05
-6.88071e-06
-2.33102e-05
-4.82966e-06
-1.97876e-05
-3.09452e-06
-1.59207e-05
-1.70206e-06
-1.21679e-05
-6.18304e-07
-8.82249e-06
2.19741e-07
-5.91896e-06
8.46974e-07
-3.31416e-06
1.27616e-06
-8.5861e-07
1.51614e-06
1.53694e-06
1.5897e-06
3.92175e-06
1.52859e-06
6.33973e-06
1.37389e-06
8.83647e-06
1.17767e-06
1.14548e-05
1.00762e-06
1.4183e-05
8.97014e-07
1.68836e-05
6.115e-07
1.92101e-05
2.00071e-05
2.303e-06
0.000100442
-6.76306e-06
4.49303e-05
-1.29958e-05
1.11553e-05
-1.59565e-05
-8.9713e-06
-1.66235e-05
-2.07104e-05
-1.59236e-05
-2.65865e-05
-1.46535e-05
-2.83116e-05
-1.302e-05
-2.76204e-05
-1.13109e-05
-2.50192e-05
-9.6507e-06
-2.14478e-05
-8.15443e-06
-1.7417e-05
-6.92508e-06
-1.33973e-05
-5.98037e-06
-9.7672e-06
-5.26528e-06
-6.63404e-06
-4.71594e-06
-3.8635e-06
-4.29684e-06
-1.27771e-06
-3.99137e-06
1.23146e-06
-3.77407e-06
3.70445e-06
-3.60361e-06
6.16927e-06
-3.42435e-06
8.65721e-06
-3.16112e-06
1.11916e-05
-2.69749e-06
1.37193e-05
-1.83621e-06
1.60223e-05
-5.32299e-07
1.79062e-05
1.94748e-05
4.77411e-06
0.000105631
-3.57775e-06
5.32822e-05
-1.04815e-05
1.8059e-05
-1.48973e-05
-4.55542e-06
-1.71506e-05
-1.84571e-05
-1.78533e-05
-2.58839e-05
-1.77369e-05
-2.8428e-05
-1.70736e-05
-2.82837e-05
-1.61172e-05
-2.59756e-05
-1.49151e-05
-2.26499e-05
-1.36262e-05
-1.87059e-05
-1.24499e-05
-1.45735e-05
-1.15267e-05
-1.06905e-05
-1.08705e-05
-7.29023e-06
-1.04015e-05
-4.33247e-06
-1.00345e-05
-1.6447e-06
-9.72127e-06
9.18233e-07
-9.42953e-06
3.4127e-06
-9.10888e-06
5.84862e-06
-8.67504e-06
8.22337e-06
-7.98186e-06
1.04984e-05
-6.79476e-06
1.25322e-05
-4.66387e-06
1.38914e-05
-3.31279e-07
1.35736e-05
1.11474e-05
7.99606e-06
6.80029e-06
0.000109706
-6.22423e-07
6.07049e-05
-7.63076e-06
2.50673e-05
-1.29978e-05
8.11573e-07
-1.65957e-05
-1.48592e-05
-1.87596e-05
-2.372e-05
-1.98687e-05
-2.73189e-05
-2.04451e-05
-2.77073e-05
-2.04624e-05
-2.59583e-05
-1.99591e-05
-2.31533e-05
-1.90685e-05
-1.95965e-05
-1.80083e-05
-1.56337e-05
-1.70331e-05
-1.16657e-05
-1.63071e-05
-8.0163e-06
-1.58367e-05
-4.80283e-06
-1.55219e-05
-1.95946e-06
-1.52491e-05
6.45433e-07
-1.49342e-05
3.09775e-06
-1.4501e-05
5.41543e-06
-1.38231e-05
7.54546e-06
-1.27012e-05
9.37653e-06
-1.08904e-05
1.07214e-05
-8.40725e-06
1.14083e-05
-6.45807e-06
1.16244e-05
1.3197e-05
-8.50769e-06
8.52919e-06
0.000113016
1.87314e-06
6.73609e-05
-5.09123e-06
3.20317e-05
-1.11009e-05
6.82122e-06
-1.57781e-05
-1.01819e-05
-1.92095e-05
-2.02887e-05
-2.16153e-05
-2.4913e-05
-2.34254e-05
-2.58973e-05
-2.45471e-05
-2.48365e-05
-2.50206e-05
-2.26798e-05
-2.48621e-05
-1.97551e-05
-2.41959e-05
-1.62999e-05
-2.32656e-05
-1.25959e-05
-2.23387e-05
-8.94315e-06
-2.15849e-05
-5.55671e-06
-2.10255e-05
-2.51878e-06
-2.05747e-05
1.94573e-07
-2.01239e-05
2.647e-06
-1.96042e-05
4.89573e-06
-1.90106e-05
6.95184e-06
-1.84983e-05
8.86426e-06
-1.85758e-05
1.07989e-05
-2.03387e-05
1.31712e-05
-2.53215e-05
1.66072e-05
2.18048e-05
-3.39292e-05
1.0007e-05
0.000115773
3.985e-06
7.3383e-05
-2.87291e-06
3.88896e-05
-9.32155e-06
1.32699e-05
-1.48512e-05
-4.65227e-06
-1.93396e-05
-1.58003e-05
-2.29289e-05
-2.13236e-05
-2.58367e-05
-2.29895e-05
-2.81168e-05
-2.25565e-05
-2.97588e-05
-2.10378e-05
-3.07261e-05
-1.87878e-05
-3.10154e-05
-1.60106e-05
-3.07327e-05
-1.28786e-05
-3.00913e-05
-9.58459e-06
-2.9338e-05
-6.31004e-06
-2.86864e-05
-3.17038e-06
-2.82679e-05
-2.23932e-07
-2.81637e-05
2.54286e-06
-2.84623e-05
5.1943e-06
-2.9374e-05
7.86351e-06
-3.12439e-05
1.07342e-05
-3.44655e-05
1.40205e-05
-3.90749e-05
1.77806e-05
-4.43365e-05
2.18687e-05
2.5714e-05
-4.82457e-05
1.1324e-05
0.000118169
5.80923e-06
7.88977e-05
-8.99346e-07
4.55982e-05
-7.61883e-06
1.99893e-05
-1.37696e-05
1.49846e-06
-1.90797e-05
-1.04902e-05
-2.35683e-05
-1.6835e-05
-2.74046e-05
-1.91532e-05
-3.06996e-05
-1.92615e-05
-3.34626e-05
-1.82748e-05
-3.56915e-05
-1.65588e-05
-3.73578e-05
-1.43442e-05
-3.84589e-05
-1.17776e-05
-3.90902e-05
-8.95327e-06
-3.94115e-05
-5.9887e-06
-3.96507e-05
-2.93125e-06
-4.00629e-05
1.88282e-07
-4.08414e-05
3.32138e-06
-4.21183e-05
6.47122e-06
-4.39776e-05
9.72281e-06
-4.63448e-05
1.31014e-05
-4.88538e-05
1.65295e-05
-5.07766e-05
1.97034e-05
-5.12412e-05
2.23333e-05
2.43236e-05
-4.98508e-05
1.26599e-05
0.000120355
7.52195e-06
8.40357e-05
9.82458e-07
5.21377e-05
-5.86526e-06
2.68371e-05
-1.24042e-05
8.03742e-06
-1.82689e-05
-4.6255e-06
-2.33619e-05
-1.17421e-05
-2.78227e-05
-1.46923e-05
-3.18157e-05
-1.52685e-05
-3.53863e-05
-1.47043e-05
-3.8533e-05
-1.34121e-05
-4.12805e-05
-1.15967e-05
-4.36111e-05
-9.44697e-06
-4.55292e-05
-7.03517e-06
-4.71254e-05
-4.39249e-06
-4.84912e-05
-1.56546e-06
-4.96977e-05
1.39478e-06
-5.0804e-05
4.42771e-06
-5.18224e-05
7.48957e-06
-5.26627e-05
1.05631e-05
-5.31085e-05
1.35471e-05
-5.28342e-05
1.62553e-05
-5.17403e-05
1.86095e-05
-4.98309e-05
2.04239e-05
2.15512e-05
-4.70586e-05
1.41341e-05
0.000122425
9.29289e-06
8.88769e-05
2.94046e-06
5.84901e-05
-3.92242e-06
3.36999e-05
-1.06572e-05
1.47722e-05
-1.68349e-05
1.55217e-06
-2.22439e-05
-6.33303e-06
-2.69741e-05
-9.96221e-06
-3.12622e-05
-1.09804e-05
-3.52315e-05
-1.07349e-05
-3.8783e-05
-9.86063e-06
-4.1891e-05
-8.48878e-06
-4.45937e-05
-6.74422e-06
-4.691e-05
-4.71885e-06
-4.88247e-05
-2.4778e-06
-5.03293e-05
-6.08858e-08
-5.14328e-05
2.49832e-06
-5.2147e-05
5.14191e-06
-5.24885e-05
7.83107e-06
-5.23942e-05
1.04688e-05
-5.17127e-05
1.28657e-05
-5.03695e-05
1.49121e-05
-4.83647e-05
1.66048e-05
-4.58181e-05
1.78773e-05
1.87292e-05
-4.29961e-05
1.58903e-05
0.000124429
1.12889e-05
9.34782e-05
5.12845e-06
6.46506e-05
-1.67465e-06
4.0503e-05
-8.48124e-06
2.15788e-05
-1.48094e-05
7.88032e-06
-2.03597e-05
-7.82712e-07
-2.51269e-05
-5.19505e-06
-2.93502e-05
-6.75701e-06
-3.32566e-05
-6.82858e-06
-3.68586e-05
-6.25863e-06
-4.00496e-05
-5.29779e-06
-4.27859e-05
-4.00789e-06
-4.50597e-05
-2.44498e-06
-4.68796e-05
-6.57908e-07
-4.8252e-05
1.31153e-06
-4.91564e-05
3.40268e-06
-4.95688e-05
5.55434e-06
-4.94346e-05
7.69685e-06
-4.86915e-05
9.72562e-06
-4.73794e-05
1.15536e-05
-4.56101e-05
1.31428e-05
-4.34756e-05
1.44702e-05
-4.11198e-05
1.55215e-05
1.63242e-05
-3.87148e-05
1.80647e-05
0.000126372
1.36695e-05
9.78734e-05
7.69837e-06
7.06217e-05
9.95926e-07
4.72055e-05
-5.81463e-06
2.83894e-05
-1.22247e-05
1.42904e-05
-1.78613e-05
4.85385e-06
-2.26109e-05
-4.45431e-07
-2.66259e-05
-2.742e-06
-3.01607e-05
-3.29375e-06
-3.3415e-05
-3.00435e-06
-3.63601e-05
-2.35269e-06
-3.89158e-05
-1.45225e-06
-4.10252e-05
-3.35519e-07
-4.26618e-05
9.78627e-07
-4.3807e-05
2.45673e-06
-4.44446e-05
4.04032e-06
-4.45592e-05
5.66893e-06
-4.41426e-05
7.28026e-06
-4.32294e-05
8.81243e-06
-4.18995e-05
1.02237e-05
-4.0249e-05
1.14923e-05
-3.838e-05
1.26012e-05
-3.63997e-05
1.35412e-05
1.43164e-05
-3.43919e-05
2.07808e-05
0.00012823
1.65837e-05
0.000102071
1.08006e-05
7.64049e-05
4.21848e-06
5.37876e-05
-2.55901e-06
3.51669e-05
-9.03066e-06
2.07621e-05
-1.47681e-05
1.05913e-05
-1.95621e-05
4.34864e-06
-2.34799e-05
1.1758e-06
-2.67232e-05
-5.04725e-08
-2.9501e-05
-2.26525e-07
-3.19591e-05
1.05372e-07
-3.4102e-05
6.90685e-07
-3.5881e-05
1.44343e-06
-3.72564e-05
2.35401e-06
-3.81961e-05
3.39647e-06
-3.86808e-05
4.52499e-06
-3.87067e-05
5.69483e-06
-3.82918e-05
6.86543e-06
-3.74864e-05
8.00701e-06
-3.63611e-05
9.0984e-06
-3.49897e-05
1.01208e-05
-3.34443e-05
1.10559e-05
-3.17898e-05
1.18867e-05
1.26011e-05
-3.00745e-05
2.41485e-05
0.000129944
2.01708e-05
0.000106048
1.45871e-05
8.19886e-05
8.13801e-06
6.02367e-05
1.41424e-06
4.18906e-05
-5.10453e-06
2.72808e-05
-1.09775e-05
1.64643e-05
-1.59119e-05
9.28297e-06
-1.98826e-05
5.14653e-06
-2.30572e-05
3.12414e-06
-2.5626e-05
2.34225e-06
-2.77433e-05
2.22271e-06
-2.94938e-05
2.44117e-06
-3.09152e-05
2.86477e-06
-3.2001e-05
3.43989e-06
-3.27311e-05
4.1265e-06
-3.30955e-05
4.88942e-06
-3.30994e-05
5.69875e-06
-3.27603e-05
6.52635e-06
-3.21104e-05
7.35709e-06
-3.11917e-05
8.17962e-06
-3.00525e-05
8.9817e-06
-2.87443e-05
9.74764e-06
-2.73137e-05
1.04561e-05
1.10881e-05
-2.58006e-05
2.82593e-05
0.000131426
2.45555e-05
0.000109752
1.92056e-05
8.73384e-05
1.29109e-05
6.65314e-05
6.25924e-06
4.85423e-05
-2.85605e-07
3.38257e-05
-6.30413e-06
2.24828e-05
-1.14531e-05
1.44319e-05
-1.56075e-05
9.30098e-06
-1.887e-05
6.38659e-06
-2.14305e-05
4.9028e-06
-2.34511e-05
4.24328e-06
-2.50491e-05
4.03922e-06
-2.6289e-05
4.10459e-06
-2.71954e-05
4.34632e-06
-2.77789e-05
4.70999e-06
-2.805e-05
5.16058e-06
-2.80238e-05
5.67253e-06
-2.77204e-05
6.22293e-06
-2.71621e-05
6.79875e-06
-2.6371e-05
7.38861e-06
-2.53765e-05
7.98719e-06
-2.42158e-05
8.58689e-06
-2.29274e-05
9.16771e-06
9.70985e-06
-2.15492e-05
3.31778e-05
0.000132557
2.98398e-05
0.00011309
2.47911e-05
9.23872e-05
1.86956e-05
7.26268e-05
1.21421e-05
5.50959e-05
5.59654e-06
4.03712e-05
-5.47681e-07
2.8627e-05
-5.94423e-06
1.98285e-05
-1.03859e-05
1.37426e-05
-1.38814e-05
9.88207e-06
-1.65844e-05
7.60586e-06
-1.86705e-05
6.3294e-06
-2.02771e-05
5.64577e-06
-2.14891e-05
5.31657e-06
-2.23535e-05
5.21079e-06
-2.28991e-05
5.25555e-06
-2.31471e-05
5.40861e-06
-2.31181e-05
5.64354e-06
-2.28372e-05
5.94204e-06
-2.23304e-05
6.29193e-06
-2.16202e-05
6.67838e-06
-2.07247e-05
7.09167e-06
-1.96672e-05
7.52941e-06
-1.84804e-05
7.98088e-06
8.43048e-06
-1.7201e-05
3.89298e-05
0.000133194
3.60882e-05
0.000115932
3.14497e-05
9.70257e-05
2.56354e-05
7.84411e-05
1.92345e-05
6.14968e-05
1.27248e-05
4.68809e-05
6.49253e-06
3.48593e-05
8.66059e-07
2.54549e-05
-3.91116e-06
1.85198e-05
-7.75481e-06
1.37257e-05
-1.0745e-05
1.05961e-05
-1.30362e-05
8.62052e-06
-1.47768e-05
7.38647e-06
-1.60744e-05
6.61413e-06
-1.69967e-05
6.1331e-06
-1.7587e-05
5.8458e-06
-1.7876e-05
5.69758e-06
-1.78906e-05
5.6582e-06
-1.76586e-05
5.71007e-06
-1.72074e-05
5.84073e-06
-1.65659e-05
6.03683e-06
-1.57588e-05
6.28462e-06
-1.48037e-05
6.5743e-06
-1.37199e-05
6.89701e-06
7.24723e-06
-1.25366e-05
4.54881e-05
0.000133175
4.33093e-05
0.00011811
3.92371e-05
0.000101098
3.38348e-05
8.38434e-05
2.76851e-05
6.76465e-05
2.12819e-05
5.32841e-05
1.50199e-05
4.11213e-05
9.21915e-06
3.12557e-05
4.12916e-06
2.36098e-05
-1.08232e-07
1.79631e-05
-3.48807e-06
1.39759e-05
-6.10961e-06
1.12421e-05
-8.10766e-06
9.38452e-06
-9.60087e-06
8.10735e-06
-1.06748e-05
7.20706e-06
-1.13877e-05
6.55869e-06
-1.17808e-05
6.09067e-06
-1.18885e-05
5.76587e-06
-1.17437e-05
5.56533e-06
-1.13797e-05
5.47667e-06
-1.08296e-05
5.48677e-06
-1.01229e-05
5.57792e-06
-9.28084e-06
5.73223e-06
-8.3195e-06
5.93568e-06
6.18237e-06
-7.25465e-06
5.27598e-05
0.000132335
5.14354e-05
0.000119435
4.81304e-05
0.000104403
4.33266e-05
8.86472e-05
3.75841e-05
7.33891e-05
3.14091e-05
5.94591e-05
2.52148e-05
4.73155e-05
1.93286e-05
3.71419e-05
1.40032e-05
2.89352e-05
9.40759e-06
2.25587e-05
5.61018e-06
1.77733e-05
2.57795e-06
1.42743e-05
2.17721e-07
1.17447e-05
-1.57835e-06
9.90342e-06
-2.90295e-06
8.53166e-06
-3.82471e-06
7.48045e-06
-4.39466e-06
6.66061e-06
-4.6571e-06
6.02831e-06
-4.65453e-06
5.56276e-06
-4.42794e-06
5.25008e-06
-4.01723e-06
5.07606e-06
-3.45415e-06
5.01484e-06
-2.75889e-06
5.03696e-06
-1.94643e-06
5.12322e-06
5.26278e-06
-1.02683e-06
6.05799e-05
0.000130526
6.03056e-05
0.000119709
5.79999e-05
0.000106709
5.40341e-05
9.2613e-05
4.89185e-05
7.85048e-05
4.31579e-05
6.52197e-05
3.71847e-05
5.32888e-05
3.13447e-05
4.29819e-05
2.59036e-05
3.43763e-05
2.10498e-05
2.74125e-05
1.68892e-05
2.1934e-05
1.34436e-05
1.77198e-05
1.06694e-05
1.4519e-05
8.48827e-06
1.20845e-05
6.81862e-06
1.02013e-05
5.59293e-06
8.70614e-06
4.75695e-06
7.49659e-06
4.25586e-06
6.5294e-06
4.03232e-06
5.78631e-06
4.0382e-06
5.24421e-06
4.23331e-06
4.88095e-06
4.58972e-06
4.65843e-06
5.09022e-06
4.53646e-06
5.72242e-06
4.49102e-06
4.50887e-06
6.47633e-06
6.8716e-05
0.000127644
6.96614e-05
0.000118764
6.85896e-05
0.00010778
6.57359e-05
9.54667e-05
6.15256e-05
8.27151e-05
5.64355e-05
7.03097e-05
5.09057e-05
5.88186e-05
4.5303e-05
4.85847e-05
3.99146e-05
3.97647e-05
3.49506e-05
3.23764e-05
3.05459e-05
2.63387e-05
2.67624e-05
2.15034e-05
2.35985e-05
1.76829e-05
2.101e-05