/*--------------------------------*- C++ -*----------------------------------*\
| =========                 |                                                 |
| \\      /  F ield         | OpenFOAM: The Open Source CFD Toolbox           |
|  \\    /   O peration     | Version:  v2012                                 |
|   \\  /    A nd           | Website:  www.openfoam.com                      |
|    \\/     M anipulation  |                                                 |
\*---------------------------------------------------------------------------*/
FoamFile
{
    version     2.0;
    format      ascii;
    class       volVectorField;
    location    "595";
    object      U;
}
// * * * * * * * * * * * * * * * * * * * * * * * * * * * * * * * * * * * * * //

dimensions      [0 1 -1 0 0 0 0];


internalField   nonuniform List<vector> 
6598
(
(8.32397e-05 -0.99973 0)
(0.000214454 -1.00004 0)
(0.000145037 -1.00003 0)
(7.42892e-05 -1.00002 0)
(2.29541e-05 -1.00001 0)
(-2.26602e-05 -1.00001 0)
(-7.40405e-05 -1.00002 0)
(-0.000144873 -1.00003 0)
(-0.000214413 -1.00004 0)
(-8.32251e-05 -0.99973 0)
(0.00032862 -0.999414 0)
(0.000397195 -1.00015 0)
(0.000299368 -1.00015 0)
(0.000177071 -1.00012 0)
(5.83018e-05 -1.00011 0)
(-5.74058e-05 -1.00011 0)
(-0.000176313 -1.00012 0)
(-0.000298829 -1.00015 0)
(-0.000397133 -1.00015 0)
(-0.000328582 -0.999414 0)
(0.000404287 -0.998948 0)
(0.000446152 -1.00018 0)
(0.000360239 -1.0003 0)
(0.000229673 -1.0003 0)
(7.82865e-05 -1.00029 0)
(-7.65647e-05 -1.00029 0)
(-0.00022815 -1.0003 0)
(-0.000359041 -1.0003 0)
(-0.000445099 -1.00018 0)
(-0.00040397 -0.998949 0)
(0.000409947 -0.998424 0)
(0.000440228 -1.00016 0)
(0.000371395 -1.00044 0)
(0.000247629 -1.00049 0)
(8.62193e-05 -1.0005 0)
(-8.33464e-05 -1.0005 0)
(-0.000245058 -1.00049 0)
(-0.000369313 -1.00044 0)
(-0.000438841 -1.00017 0)
(-0.000409297 -0.998425 0)
(0.000396266 -0.997919 0)
(0.000425189 -1.00014 0)
(0.000366634 -1.00056 0)
(0.000248126 -1.00068 0)
(8.79717e-05 -1.00071 0)
(-8.34541e-05 -1.00071 0)
(-0.000244041 -1.00068 0)
(-0.000363304 -1.00057 0)
(-0.000423095 -1.00014 0)
(-0.000395205 -0.997922 0)
(0.000376499 -0.997449 0)
(0.000402145 -1.0001 0)
(0.00035732 -1.00067 0)
(0.000242236 -1.00085 0)
(8.71023e-05 -1.00091 0)
(-8.02123e-05 -1.00091 0)
(-0.000236007 -1.00086 0)
(-0.000352386 -1.00068 0)
(-0.000398875 -1.00011 0)
(-0.000374865 -0.997454 0)
(0.000356157 -0.997008 0)
(0.000379406 -1.00007 0)
(0.000340695 -1.00078 0)
(0.000232467 -1.00102 0)
(8.49798e-05 -1.00111 0)
(-7.45265e-05 -1.00111 0)
(-0.000223032 -1.00103 0)
(-0.000333284 -1.00078 0)
(-0.000374402 -1.00008 0)
(-0.000353727 -0.997017 0)
(0.000337399 -0.99659 0)
(0.000359241 -1.00004 0)
(0.00032367 -1.00087 0)
(0.000222477 -1.00118 0)
(8.32636e-05 -1.00129 0)
(-6.73716e-05 -1.0013 0)
(-0.000208126 -1.00119 0)
(-0.000312299 -1.00088 0)
(-0.000351645 -1.00005 0)
(-0.000333813 -0.996604 0)
(0.000321126 -0.996192 0)
(0.000342382 -1.00001 0)
(0.000309886 -1.00096 0)
(0.000214631 -1.00133 0)
(8.32196e-05 -1.00147 0)
(-5.91001e-05 -1.00147 0)
(-0.00019284 -1.00134 0)
(-0.00029257 -1.00098 0)
(-0.000330878 -1.00003 0)
(-0.000315724 -0.996213 0)
(0.000307692 -0.995809 0)
(0.000329363 -0.999982 0)
(0.000300034 -1.00105 0)
(0.000210043 -1.00147 0)
(8.57502e-05 -1.00164 0)
(-4.92633e-05 -1.00164 0)
(-0.000177083 -1.00149 0)
(-0.000273828 -1.00107 0)
(-0.000311951 -1.00001 0)
(-0.000299563 -0.995843 0)
(0.000297178 -0.995439 0)
(0.000320555 -0.999953 0)
(0.000294694 -1.00113 0)
(0.000209679 -1.0016 0)
(9.19065e-05 -1.00179 0)
(-3.68636e-05 -1.0018 0)
(-0.000159995 -1.00163 0)
(-0.0002551 -1.00116 0)
(-0.000294188 -0.999997 0)
(-0.000284992 -0.995492 0)
(0.000289679 -0.995077 0)
(0.000316537 -0.999923 0)
(0.000294898 -1.0012 0)
(0.000214847 -1.00173 0)
(0.000103209 -1.00194 0)
(-2.0319e-05 -1.00195 0)
(-0.000140095 -1.00176 0)
(-0.000235002 -1.00126 0)
(-0.000276479 -0.999989 0)
(-0.000271419 -0.995157 0)
(0.000285474 -0.994718 0)
(0.000318202 -0.999888 0)
(0.000302335 -1.00127 0)
(0.000227613 -1.00185 0)
(0.000122036 -1.00209 0)
(2.80752e-06 -1.0021 0)
(-0.00011513 -1.0019 0)
(-0.000211627 -1.00135 0)
(-0.000257385 -0.999989 0)
(-0.000258112 -0.994841 0)
(0.000284829 -0.994357 0)
(0.000325702 -0.999847 0)
(0.000317256 -1.00133 0)
(0.000251318 -1.00196 0)
(0.000151849 -1.00222 0)
(3.61174e-05 -1.00225 0)
(-8.18437e-05 -1.00204 0)
(-0.000182392 -1.00145 0)
(-0.000235116 -0.999999 0)
(-0.000244232 -0.994543 0)
(0.000288639 -0.993988 0)
(0.000342006 -0.999793 0)
(0.000345786 -1.00138 0)
(0.000290317 -1.00206 0)
(0.00019808 -1.00235 0)
(8.50534e-05 -1.0024 0)
(-3.54591e-05 -1.00218 0)
(-0.000143713 -1.00156 0)
(-0.000207418 -1.00002 0)
(-0.000228897 -0.994268 0)
(0.000298176 -0.9936 0)
(0.000370766 -0.999722 0)
(0.000392181 -1.00141 0)
(0.000351314 -1.00215 0)
(0.000266493 -1.00248 0)
(0.000157716 -1.00254 0)
(3.30094e-05 -1.00232 0)
(-9.06068e-05 -1.00169 0)
(-0.00017187 -1.00007 0)
(-0.000211425 -0.99402 0)
(0.000315275 -0.993182 0)
(0.000417123 -0.999622 0)
(0.000464418 -1.00142 0)
(0.000445282 -1.00222 0)
(0.000374469 -1.0026 0)
(0.000267388 -1.00269 0)
(0.000131446 -1.00249 0)
(-1.5874e-05 -1.00184 0)
(-0.000125479 -1.00014 0)
(-0.000193032 -0.993805 0)
(0.000342343 -0.992715 0)
(0.000487809 -0.99948 0)
(0.000573825 -1.00139 0)
(0.000586568 -1.00226 0)
(0.000540124 -1.0027 0)
(0.000435149 -1.00284 0)
(0.000278268 -1.00268 0)
(8.89702e-05 -1.00204 0)
(-7.74241e-05 -1.00028 0)
(-0.000181449 -0.993615 0)
(0.000382646 -0.992176 0)
(0.000591857 -0.999274 0)
(0.000735872 -1.0013 0)
(0.000799451 -1.00226 0)
(0.000789053 -1.00278 0)
(0.000699145 -1.00301 0)
(0.00052162 -1.00292 0)
(0.000264844 -1.00231 0)
(1.60557e-05 -1.00046 0)
(-9.73248e-05 -0.993443 0)
(0.000439076 -0.991531 0)
(0.000739217 -0.998974 0)
(0.000968568 -1.00114 0)
(0.00111068 -1.0022 0)
(0.00116256 -1.00282 0)
(0.00110767 -1.00317 0)
(0.000893799 -1.00322 0)
(0.000496795 -1.00277 0)
(-0.000176703 -1.00124 0)
(-0.000535066 -0.996008 0)
(0.000519244 -0.990761 0)
(0.000938551 -0.998549 0)
(0.00128923 -1.00085 0)
(0.00155159 -1.00202 0)
(0.00172149 -1.00277 0)
(0.00179333 -1.00327 0)
(0.00172 -1.00357 0)
(0.00164125 -1.00339 0)
(0.0024329 -1.00132 0)
(0.00917611 -0.982468 0)
(0.000624038 -0.989806 0)
(0.00119554 -0.997956 0)
(0.00170696 -1.00039 0)
(0.00213296 -1.00168 0)
(0.00247381 -1.00254 0)
(0.00274211 -1.00316 0)
(0.0029367 -1.00349 0)
(0.00292464 -1.00324 0)
(0.00338237 -0.999995 0)
(0.0167764 -0.965863 0)
(0.000753855 -0.988618 0)
(0.00151259 -0.997142 0)
(0.00222532 -0.999718 0)
(0.002855 -1.0011 0)
(0.00340282 -1.00206 0)
(0.00389337 -1.00276 0)
(0.00438456 -1.00309 0)
(0.00470639 -1.00246 0)
(0.00465574 -0.997688 0)
(0.0212092 -0.952114 0)
(0.000908304 -0.987147 0)
(0.00188925 -0.996056 0)
(0.00284297 -0.99877 0)
(0.00371543 -1.00025 0)
(0.00451009 -1.0013 0)
(0.00525735 -1.00205 0)
(0.00607454 -1.00231 0)
(0.00707001 -1.00106 0)
(0.00700201 -0.993935 0)
(0.0252825 -0.936741 0)
(0.00108818 -0.985341 0)
(0.00232778 -0.99465 0)
(0.00356287 -0.997505 0)
(0.0047178 -0.999082 0)
(0.00580227 -1.0002 0)
(0.0068508 -1.00097 0)
(0.007995 -1.00106 0)
(0.00966141 -0.998966 0)
(0.00999137 -0.98871 0)
(0.0284189 -0.919173 0)
(0.0012947 -0.983148 0)
(0.00283161 -0.992873 0)
(0.00438931 -0.995874 0)
(0.00586551 -0.997541 0)
(0.00727813 -0.998713 0)
(0.0086676 -0.99946 0)
(0.010159 -0.999302 0)
(0.0124254 -0.996212 0)
(0.013525 -0.982321 0)
(0.0310046 -0.901817 0)
(0.00153266 -0.980521 0)
(0.00340725 -0.990679 0)
(0.00532899 -0.993828 0)
(0.00716657 -0.995584 0)
(0.00894573 -0.996801 0)
(0.0107155 -0.99749 0)
(0.012591 -0.996998 0)
(0.0154163 -0.992756 0)
(0.0175426 -0.974911 0)
(0.0335489 -0.885516 0)
(0.00180675 -0.977295 0)
(0.00406883 -0.987955 0)
(0.00641142 -0.991264 0)
(0.00866459 -0.993113 0)
(0.0108614 -0.994367 0)
(0.0130616 -0.99497 0)
(0.0153731 -0.994063 0)
(0.0187015 -0.988518 0)
(0.022024 -0.966529 0)
(0.0360302 -0.87003 0)
(0.00211983 -0.973452 0)
(0.00483607 -0.984602 0)
(0.0076545 -0.988091 0)
(0.0103901 -0.99004 0)
(0.0130655 -0.991328 0)
(0.0157575 -0.991816 0)
(0.018585 -0.99042 0)
(0.0223966 -0.983446 0)
(0.0269012 -0.957407 0)
(0.0398243 -0.855693 0)
(0.00247906 -0.968897 0)
(0.00570786 -0.980648 0)
(0.00906902 -0.984275 0)
(0.0123503 -0.986328 0)
(0.015561 -0.987647 0)
(0.0187949 -0.987998 0)
(0.022197 -0.986047 0)
(0.0265151 -0.977539 0)
(0.0318487 -0.947659 0)
(0.0443733 -0.842404 0)
(0.00288373 -0.96355 0)
(0.00669299 -0.975882 0)
(0.0106927 -0.979729 0)
(0.0145831 -0.981897 0)
(0.0183911 -0.983253 0)
(0.0222149 -0.983458 0)
(0.0262234 -0.980926 0)
(0.0310708 -0.970855 0)
(0.0370245 -0.937482 0)
(0.0488274 -0.830887 0)
(0.00334593 -0.957308 0)
(0.00782455 -0.970265 0)
(0.012551 -0.974359 0)
(0.0171327 -0.976661 0)
(0.0216161 -0.978068 0)
(0.0260932 -0.978141 0)
(0.030745 -0.975051 0)
(0.036115 -0.963501 0)
(0.0427149 -0.927138 0)
(0.0533443 -0.821285 0)
(0.0038771 -0.950033 0)
(0.00912791 -0.963676 0)
(0.0146824 -0.968044 0)
(0.0200583 -0.970507 0)
(0.0253159 -0.971993 0)
(0.030536 -0.97197 0)
(0.0358991 -0.968386 0)
(0.0418429 -0.955533 0)
(0.0490508 -0.916793 0)
(0.0583779 -0.813572 0)
(0.00448772 -0.941561 0)
(0.0106306 -0.955965 0)
(0.0171359 -0.960641 0)
(0.0234298 -0.963297 0)
(0.0295825 -0.964898 0)
(0.0356625 -0.964825 0)
(0.0418331 -0.960832 0)
(0.0484613 -0.946876 0)
(0.056105 -0.906749 0)
(0.0642852 -0.807537 0)
(0.00518859 -0.931711 0)
(0.0123619 -0.94696 0)
(0.0199627 -0.951983 0)
(0.0273186 -0.954865 0)
(0.0345098 -0.956617 0)
(0.0415926 -0.956551 0)
(0.0487007 -0.952265 0)
(0.0561124 -0.937541 0)
(0.0641336 -0.897007 0)
(0.0714112 -0.802876 0)
(0.0059902 -0.920276 0)
(0.0143495 -0.936464 0)
(0.0232104 -0.941878 0)
(0.0317919 -0.945016 0)
(0.0401866 -0.946957 0)
(0.0484382 -0.946962 0)
(0.0566425 -0.942526 0)
(0.0649652 -0.927438 0)
(0.0734208 -0.887432 0)
(0.0800968 -0.799232 0)
(0.00690147 -0.907028 0)
(0.0166169 -0.924259 0)
(0.0269196 -0.930109 0)
(0.0369073 -0.933531 0)
(0.0466889 -0.935696 0)
(0.0562959 -0.935838 0)
(0.0657803 -0.931418 0)
(0.0751842 -0.916393 0)
(0.0842294 -0.877789 0)
(0.0906598 -0.79618 0)
(0.00792903 -0.891719 0)
(0.0191819 -0.910106 0)
(0.031121 -0.916442 0)
(0.0427074 -0.920174 0)
(0.0540723 -0.92259 0)
(0.0652372 -0.922935 0)
(0.0762071 -0.918702 0)
(0.0869006 -0.904162 0)
(0.0967726 -0.867731 0)
(0.103372 -0.79322 0)
(0.00907574 -0.874091 0)
(0.0220541 -0.893754 0)
(0.0358312 -0.90063 0)
(0.0492146 -0.904693 0)
(0.0623647 -0.907382 0)
(0.0752976 -0.907988 0)
(0.0879723 -0.904103 0)
(0.100194 -0.890433 0)
(0.111195 -0.856818 0)
(0.118437 -0.789764 0)
(0.010345 -0.85388 0)
(0.0252343 -0.874944 0)
(0.0410509 -0.882423 0)
(0.0564273 -0.886838 0)
(0.0715602 -0.889813 0)
(0.0864682 -0.890723 0)
(0.10107 -0.887325 0)
(0.115075 -0.874845 0)
(0.127552 -0.844534 0)
(0.135958 -0.785147 0)
(0.0117482 -0.830821 0)
(0.0287151 -0.853428 0)
(0.046763 -0.861577 0)
(0.0643174 -0.866365 0)
(0.0816159 -0.869633 0)
(0.0986905 -0.870875 0)
(0.11543 -0.868066 0)
(0.131474 -0.857011 0)
(0.145792 -0.830316 0)
(0.155906 -0.778637 0)
(0.0132823 -0.804647 0)
(0.0324848 -0.82899 0)
(0.0529356 -0.837869 0)
(0.0728319 -0.843057 0)
(0.0924525 -0.846621 0)
(0.111856 -0.848206 0)
(0.130915 -0.846045 0)
(0.149231 -0.836547 0)
(0.165741 -0.813591 0)
(0.178092 -0.76947 0)
(0.0149303 -0.775095 0)
(0.0365259 -0.801422 0)
(0.0595254 -0.811109 0)
(0.0818969 -0.816731 0)
(0.103958 -0.820596 0)
(0.125809 -0.822522 0)
(0.147323 -0.821023 0)
(0.168097 -0.813112 0)
(0.187096 -0.79383 0)
(0.202153 -0.756907 0)
(0.0166825 -0.741935 0)
(0.0408153 -0.770538 0)
(0.0664804 -0.781142 0)
(0.0914237 -0.787255 0)
(0.115997 -0.791438 0)
(0.140357 -0.793697 0)
(0.164398 -0.792838 0)
(0.187741 -0.786445 0)
(0.209436 -0.770601 0)
(0.227555 -0.740306 0)
(0.0185335 -0.704953 0)
(0.0453319 -0.736186 0)
(0.0737481 -0.747861 0)
(0.101318 -0.754555 0)
(0.12842 -0.759098 0)
(0.155286 -0.761689 0)
(0.181847 -0.761422 0)
(0.207777 -0.756407 0)
(0.232255 -0.74363 0)
(0.253626 -0.719208 0)
(0.0204832 -0.663946 0)
(0.0500641 -0.698242 0)
(0.0812843 -0.711211 0)
(0.111489 -0.718623 0)
(0.141079 -0.723606 0)
(0.170376 -0.726551 0)
(0.199366 -0.726825 0)
(0.227798 -0.723005 0)
(0.255003 -0.712839 0)
(0.279626 -0.693407 0)
(0.0225388 -0.618707 0)
(0.0550158 -0.656608 0)
(0.0890621 -0.671183 0)
(0.121865 -0.679521 0)
(0.153839 -0.685077 0)
(0.185419 -0.688436 0)
(0.216663 -0.689219 0)
(0.247408 -0.686405 0)
(0.277147 -0.67837 0)
(0.304825 -0.662998 0)
(0.0247173 -0.569015 0)
(0.0602115 -0.611207 0)
(0.0970773 -0.627826 0)
(0.132389 -0.637384 0)
(0.166582 -0.643711 0)
(0.200229 -0.647594 0)
(0.233475 -0.648889 0)
(0.266252 -0.646918 0)
(0.298215 -0.640565 0)
(0.328586 -0.628362 0)
(0.0270486 -0.514608 0)
(0.0657004 -0.561972 0)
(0.105348 -0.581245 0)
(0.143023 -0.592422 0)
(0.1792 -0.59979 0)
(0.214634 -0.60436 0)
(0.249568 -0.606215 0)
(0.284031 -0.604973 0)
(0.317824 -0.599923 0)
(0.350414 -0.590108 0)
(0.0295756 -0.455163 0)
(0.0715522 -0.50886 0)
(0.1139 -0.531621 0)
(0.153716 -0.544938 0)
(0.191571 -0.553682 0)
(0.228449 -0.559145 0)
(0.264714 -0.561645 0)
(0.30048 -0.561067 0)
(0.335679 -0.55703 0)
(0.369972 -0.548975 0)
(0.0323701 -0.390267 0)
(0.0778485 -0.451863 0)
(0.122719 -0.47922 0)
(0.164347 -0.495319 0)
(0.203491 -0.505824 0)
(0.241421 -0.512408 0)
(0.278635 -0.515658 0)
(0.315325 -0.515716 0)
(0.35152 -0.512482 0)
(0.38703 -0.505712 0)
(0.0355726 -0.319445 0)
(0.0845775 -0.391157 0)
(0.131589 -0.424526 0)
(0.174596 -0.444132 0)
(0.214589 -0.456764 0)
(0.253147 -0.464656 0)
(0.290933 -0.468729 0)
(0.328203 -0.469394 0)
(0.36505 -0.466806 0)
(0.40138 -0.460977 0)
(0.0390288 -0.24263 0)
(0.0916392 -0.327351 0)
(0.139949 -0.367763 0)
(0.183686 -0.391754 0)
(0.224073 -0.406996 0)
(0.262892 -0.416367 0)
(0.300949 -0.421281 0)
(0.338548 -0.42249 0)
(0.375818 -0.420406 0)
(0.412713 -0.415263 0)
(0.0391831 -0.156424 0)
(0.0958099 -0.263395 0)
(0.14631 -0.311502 0)
(0.190664 -0.339404 0)
(0.230908 -0.357089 0)
(0.269564 -0.36789 0)
(0.30766 -0.373572 0)
(0.345471 -0.375214 0)
(0.383091 -0.373486 0)
(0.420482 -0.368824 0)
(0.0309438 -0.067605 0)
(0.0884694 -0.185148 0)
(0.143867 -0.250938 0)
(0.191439 -0.286941 0)
(0.232627 -0.307705 0)
(0.271351 -0.319677 0)
(0.309529 -0.325801 0)
(0.34763 -0.327622 0)
(0.385734 -0.326044 0)
(0.423775 -0.321666 0)
(0.0179168 -0.00804035 0)
(0.0669628 -0.105127 0)
(0.124743 -0.182358 0)
(0.17776 -0.22987 0)
(0.2231 -0.25665 0)
(0.264111 -0.270913 0)
(0.303623 -0.277584 0)
(0.34278 -0.279344 0)
(0.381931 -0.277646 0)
(0.421086 -0.27333 0)
(0.00701966 0.0278668 0)
(0.0409426 -0.0358763 0)
(0.0911508 -0.110098 0)
(0.144876 -0.165151 0)
(0.194821 -0.199397 0)
(0.240717 -0.218238 0)
(0.2842 -0.226933 0)
(0.326488 -0.229275 0)
(0.368227 -0.22764 0)
(0.409625 -0.223401 0)
(-0.00589355 0.0453165 0)
(0.0180259 0.0084795 0)
(0.0523657 -0.0483563 0)
(0.0964101 -0.0993668 0)
(0.144945 -0.135547 0)
(0.1945 -0.157912 0)
(0.243416 -0.169582 0)
(0.291239 -0.17388 0)
(0.337981 -0.173397 0)
(0.383771 -0.1699 0)
(-0.0203542 0.0445958 0)
(-0.0118533 0.0232757 0)
(0.00979114 -0.00903818 0)
(0.0396519 -0.0450565 0)
(0.0795632 -0.0740548 0)
(0.127312 -0.0935339 0)
(0.179653 -0.104342 0)
(0.233324 -0.109216 0)
(0.286449 -0.109905 0)
(0.338476 -0.107404 0)
(-0.0252986 0.0126262 0)
(-0.0452755 0.00211605 0)
(-0.052764 -0.0139805 0)
(-0.0312667 -0.0275197 0)
(-0.000272906 -0.039218 0)
(0.0423659 -0.0459967 0)
(0.0932113 -0.0494857 0)
(0.150859 -0.052317 0)
(0.21347 -0.0537293 0)
(0.273461 -0.0527353 0)
(-0.0409431 -0.148942 0)
(-0.116356 0.0219413 0)
(-0.090138 0.0285818 0)
(-0.0654049 0.0298086 0)
(-0.036744 0.031647 0)
(-0.00952502 0.031958 0)
(0.0174565 0.0299317 0)
(0.0430814 0.0269705 0)
(0.0679222 0.0243851 0)
(0.0900626 0.021388 0)
(0.107085 0.0176097 0)
(0.120449 0.0137695 0)
(0.130224 0.0101107 0)
(0.136501 0.00718154 0)
(0.139627 0.00462867 0)
(0.139771 0.00185128 0)
(0.136919 -0.00104879 0)
(0.130874 -0.00420155 0)
(0.12135 -0.00741598 0)
(0.108039 -0.0109103 0)
(0.0906376 -0.0144862 0)
(0.0693728 -0.0174822 0)
(0.0444574 -0.018052 0)
(0.0181186 -0.0140058 0)
(0.00297076 -0.00684396 0)
(-0.0248309 -0.219443 0)
(-0.0714469 0.00384995 0)
(-0.0728337 0.0359798 0)
(-0.0623553 0.0460669 0)
(-0.0439771 0.0515992 0)
(-0.0218911 0.0534677 0)
(0.00191051 0.0516432 0)
(0.0255981 0.0474385 0)
(0.0469757 0.0417691 0)
(0.0650434 0.0349159 0)
(0.0798458 0.0275879 0)
(0.0915501 0.0205577 0)
(0.100267 0.0139701 0)
(0.106157 0.00794658 0)
(0.109478 0.00240349 0)
(0.110603 -0.00286307 0)
(0.10983 -0.00809168 0)
(0.107159 -0.013596 0)
(0.102449 -0.0196577 0)
(0.0954456 -0.0263886 0)
(0.0857965 -0.0335754 0)
(0.0729073 -0.0403442 0)
(0.057024 -0.0442406 0)
(0.0344584 -0.0408702 0)
(0.0122988 -0.028334 0)
(-0.00458153 -0.292766 0)
(-0.0544884 -0.0255361 0)
(-0.0656001 0.0370295 0)
(-0.0624654 0.0601864 0)
(-0.0498533 0.0727185 0)
(-0.0325093 0.0783706 0)
(-0.0127899 0.0787952 0)
(0.00772614 0.0744113 0)
(0.0266836 0.0661148 0)
(0.0430221 0.0557126 0)
(0.0562208 0.0447327 0)
(0.066163 0.0339474 0)
(0.0733893 0.0238959 0)
(0.0784062 0.0149075 0)
(0.0814259 0.00680146 0)
(0.08266 -0.000819345 0)
(0.0822592 -0.00843084 0)
(0.0803239 -0.016407 0)
(0.0769308 -0.0250801 0)
(0.0721035 -0.0346916 0)
(0.0657797 -0.0452081 0)
(0.0574785 -0.0559055 0)
(0.0470012 -0.0645209 0)
(0.0321626 -0.0658791 0)
(0.014541 -0.0535629 0)
(0.00659405 -0.365074 0)
(-0.0481963 -0.0622736 0)
(-0.0652426 0.0300801 0)
(-0.0667989 0.0692679 0)
(-0.057707 0.0908246 0)
(-0.0431536 0.101071 0)
(-0.0266881 0.10305 0)
(-0.00999037 0.0980222 0)
(0.00570161 0.0873557 0)
(0.0194582 0.0734617 0)
(0.0307329 0.0584535 0)
(0.0394276 0.0439367 0)
(0.0459102 0.0309468 0)
(0.050622 0.0195324 0)
(0.0537377 0.00926742 0)
(0.0554109 -0.000354221 0)
(0.0557023 -0.00976923 0)
(0.0546685 -0.0193897 0)
(0.0524213 -0.0295915 0)
(0.0490851 -0.0407177 0)
(0.0447719 -0.0529826 0)
(0.0393525 -0.0660856 0)
(0.032509 -0.0783549 0)
(0.0232353 -0.0848272 0)
(0.0127278 -0.0827265 0)
(0.0160721 -0.425924 0)
(-0.0398212 -0.111145 0)
(-0.0634896 0.0140592 0)
(-0.069644 0.0726346 0)
(-0.0652119 0.104473 0)
(-0.0538147 0.119515 0)
(-0.0404774 0.122362 0)
(-0.027001 0.116313 0)
(-0.0144229 0.103783 0)
(-0.0033069 0.0874747 0)
(0.00604266 0.0698015 0)
(0.0135807 0.0528881 0)
(0.0194715 0.0378404 0)
(0.0239164 0.0246217 0)
(0.0271108 0.0126836 0)
(0.0291859 0.00142526 0)
(0.0301688 -0.00962305 0)
(0.0300777 -0.0207841 0)
(0.0290282 -0.0323456 0)
(0.0271713 -0.0446243 0)
(0.0246858 -0.05792 0)
(0.0216954 -0.0722227 0)
(0.0180408 -0.0864402 0)
(0.0127194 -0.0966065 0)
(0.00836307 -0.0984302 0)
(0.0255202 -0.474969 0)
(-0.0279417 -0.163593 0)
(-0.0553661 -0.0101087 0)
(-0.0677798 0.0688009 0)
(-0.0688029 0.112423 0)
(-0.0623686 0.133025 0)
(-0.0531942 0.137619 0)
(-0.0431139 0.131325 0)
(-0.0330141 0.117351 0)
(-0.0240129 0.0992312 0)
(-0.0161283 0.0795617 0)
(-0.00963185 0.0606646 0)
(-0.0045332 0.0438461 0)
(-0.000600147 0.0291906 0)
(0.00240151 0.0159906 0)
(0.00459068 0.00351573 0)
(0.00598211 -0.00869637 0)
(0.00660209 -0.0209434 0)
(0.006586 -0.0334491 0)
(0.00610232 -0.0464815 0)
(0.0053645 -0.0603145 0)
(0.00470092 -0.0749795 0)
(0.00441639 -0.0897023 0)
(0.00299984 -0.101907 0)
(0.00468947 -0.105288 0)
(0.0321619 -0.513369 0)
(-0.0132818 -0.214035 0)
(-0.0428636 -0.0418615 0)
(-0.0615184 0.0569108 0)
(-0.0684615 0.112877 0)
(-0.0679422 0.139747 0)
(-0.0632751 0.147373 0)
(-0.0574799 0.14243 0)
(-0.0502036 0.128129 0)
(-0.0432537 0.109094 0)
(-0.0365797 0.0880311 0)
(-0.0308173 0.0674149 0)
(-0.0263156 0.0490154 0)
(-0.0229733 0.033129 0)
(-0.0204351 0.0189543 0)
(-0.0184383 0.00561766 0)
(-0.0169237 -0.00736477 0)
(-0.015868 -0.020259 0)
(-0.0151169 -0.0332416 0)
(-0.0144614 -0.0465201 0)
(-0.0136396 -0.0602751 0)
(-0.0120784 -0.0743708 0)
(-0.00885715 -0.0879951 0)
(-0.00506673 -0.0996673 0)
(-0.000229675 -0.104091 0)
(0.0373724 -0.544028 0)
(0.00100146 -0.25986 0)
(-0.0298016 -0.0768159 0)
(-0.0520895 0.0369297 0)
(-0.0651092 0.104877 0)
(-0.0705461 0.139953 0)
(-0.0713438 0.150464 0)
(-0.0698462 0.148237 0)
(-0.0663761 0.135318 0)
(-0.0620484 0.116803 0)
(-0.0568826 0.0954296 0)
(-0.0517041 0.0736809 0)
(-0.0473847 0.0537914 0)
(-0.0442956 0.0366305 0)
(-0.0421842 0.0216176 0)
(-0.0405806 0.00773844 0)
(-0.03922 -0.00564985 0)
(-0.0380383 -0.0187999 0)
(-0.0368755 -0.0318115 0)
(-0.0354691 -0.044815 0)
(-0.0334695 -0.0578879 0)
(-0.0299445 -0.0707181 0)
(-0.0226117 -0.0819987 0)
(-0.00943567 -0.0894005 0)
(0.00749423 -0.0921657 0)
(0.0419406 -0.568017 0)
(0.0126167 -0.301226 0)
(-0.0177086 -0.113679 0)
(-0.0422894 0.0106646 0)
(-0.0599554 0.0891428 0)
(-0.0712801 0.132336 0)
(-0.0776413 0.148592 0)
(-0.0806971 0.14941 0)
(-0.0820781 0.138012 0)
(-0.0809509 0.121584 0)
(-0.0780457 0.101463 0)
(-0.0738385 0.0797235 0)
(-0.0694814 0.0587059 0)
(-0.0659878 0.0399866 0)
(-0.0636955 0.0237509 0)
(-0.0622756 0.00923821 0)
(-0.0611879 -0.00438705 0)
(-0.0600533 -0.0175653 0)
(-0.0586561 -0.0303553 0)
(-0.0565525 -0.0426082 0)
(-0.0532237 -0.0537768 0)
(-0.0479402 -0.0623637 0)
(-0.0392704 -0.065087 0)
(-0.0265686 -0.0574716 0)
(-0.0173691 -0.0439875 0)
(0.0461773 -0.58705 0)
(0.0219297 -0.338055 0)
(-0.00707638 -0.150527 0)
(-0.0330483 -0.0196458 0)
(-0.0542876 0.0669068 0)
(-0.0704626 0.117068 0)
(-0.0821203 0.138871 0)
(-0.0901011 0.142173 0)
(-0.096167 0.135053 0)
(-0.0993199 0.121965 0)
(-0.0999146 0.104738 0)
(-0.0980525 0.0848785 0)
(-0.0945292 0.0642349 0)
(-0.0905502 0.0445855 0)
(-0.0871008 0.0269416 0)
(-0.0845335 0.0113907 0)
(-0.0826291 -0.00250356 0)
(-0.0809321 -0.015158 0)
(-0.0790504 -0.0266625 0)
(-0.0767897 -0.03657 0)
(-0.0743999 -0.0443 0)
(-0.0729875 -0.0497141 0)
(-0.0750689 -0.0546653 0)
(-0.0859969 -0.0642873 0)
(-0.113845 -0.0900948 0)
(0.0501099 -0.602707 0)
(0.0295632 -0.371199 0)
(0.00211958 -0.186919 0)
(-0.0247009 -0.0525784 0)
(-0.0486863 0.0398169 0)
(-0.0687746 0.0960469 0)
(-0.0848431 0.122871 0)
(-0.0976621 0.129877 0)
(-0.107935 0.126009 0)
(-0.115785 0.116439 0)
(-0.121048 0.102937 0)
(-0.123513 0.0865567 0)
(-0.123322 0.0684394 0)
(-0.1212 0.0499442 0)
(-0.118167 0.0322881 0)
(-0.115143 0.0161702 0)
(-0.112862 0.00171721 0)
(-0.111844 -0.0113707 0)
(-0.112093 -0.0234323 0)
(-0.114216 -0.0350716 0)
(-0.119338 -0.0474689 0)
(-0.129068 -0.0625469 0)
(-0.144805 -0.0823595 0)
(-0.166015 -0.10766 0)
(-0.186469 -0.135313 0)
(0.0539319 -0.616014 0)
(0.0360971 -0.401331 0)
(0.0101477 -0.222598 0)
(-0.0170811 -0.0873544 0)
(-0.0429465 0.00883189 0)
(-0.0659743 0.0699389 0)
(-0.085558 0.101237 0)
(-0.102009 0.111756 0)
(-0.116065 0.110982 0)
(-0.128111 0.104492 0)
(-0.138095 0.0942204 0)
(-0.145882 0.081297 0)
(-0.151346 0.066452 0)
(-0.154643 0.0503955 0)
(-0.156327 0.0338591 0)
(-0.157124 0.0172766 0)
(-0.158146 0.000974062 0)
(-0.160387 -0.0149968 0)
(-0.164356 -0.0309961 0)
(-0.170503 -0.0477692 0)
(-0.17901 -0.065974 0)
(-0.189429 -0.0856792 0)
(-0.199038 -0.105313 0)
(-0.205088 -0.12311 0)
(-0.202153 -0.136843 0)
(0.0583572 -0.627869 0)
(0.042262 -0.429196 0)
(0.0176252 -0.257431 0)
(-0.00962859 -0.123145 0)
(-0.0365748 -0.0247589 0)
(-0.0615471 0.0402588 0)
(-0.0835195 0.0757069 0)
(-0.102413 0.089547 0)
(-0.118978 0.0913883 0)
(-0.134025 0.0874048 0)
(-0.147433 0.0794756 0)
(-0.159101 0.0688482 0)
(-0.169258 0.0563892 0)
(-0.177733 0.042463 0)
(-0.184374 0.0274326 0)
(-0.190311 0.011468 0)
(-0.195355 -0.00517597 0)
(-0.199878 -0.021979 0)
(-0.204098 -0.0388726 0)
(-0.207901 -0.0560498 0)
(-0.210657 -0.0732276 0)
(-0.211808 -0.0894836 0)
(-0.208291 -0.103667 0)
(-0.202667 -0.114338 0)
(-0.193521 -0.121038 0)
(0.0636015 -0.638967 0)
(0.0487344 -0.455343 0)
(0.0252472 -0.291341 0)
(-0.00170354 -0.159311 0)
(-0.0291166 -0.0598306 0)
(-0.0551769 0.00837931 0)
(-0.0784679 0.0478309 0)
(-0.0985791 0.0650437 0)
(-0.116081 0.0692091 0)
(-0.132451 0.0671558 0)
(-0.147707 0.0614656 0)
(-0.160881 0.0530445 0)
(-0.172343 0.0427984 0)
(-0.182328 0.0310859 0)
(-0.190731 0.0181065 0)
(-0.197514 0.00417681 0)
(-0.20271 -0.010515 0)
(-0.206403 -0.0257165 0)
(-0.208238 -0.0412149 0)
(-0.208897 -0.056623 0)
(-0.207633 -0.0708152 0)
(-0.203616 -0.0828996 0)
(-0.196859 -0.092944 0)
(-0.187592 -0.100428 0)
(-0.176735 -0.105236 0)
(0.0701244 -0.649648 0)
(0.0561671 -0.480122 0)
(0.0336934 -0.324257 0)
(0.00724354 -0.195332 0)
(-0.0202538 -0.0955654 0)
(-0.0467872 -0.0246371 0)
(-0.0707159 0.0188757 0)
(-0.091277 0.0398765 0)
(-0.108779 0.0464799 0)
(-0.124588 0.0459181 0)
(-0.139748 0.0422745 0)
(-0.153448 0.0361803 0)
(-0.16519 0.028131 0)
(-0.175111 0.0186243 0)
(-0.18321 0.00802252 0)
(-0.189556 -0.00354759 0)
(-0.194129 -0.0158756 0)
(-0.19677 -0.0286075 0)
(-0.197337 -0.0413481 0)
(-0.195667 -0.053432 0)
(-0.191492 -0.0642857 0)
(-0.185231 -0.0736564 0)
(-0.177411 -0.0814092 0)
(-0.168291 -0.087391 0)
(-0.158665 -0.0916922 0)
(0.0783905 -0.66004 0)
(0.0651732 -0.503762 0)
(0.0436164 -0.35617 0)
(0.0177586 -0.230902 0)
(-0.00958719 -0.131454 0)
(-0.0363068 -0.0581827 0)
(-0.060616 -0.0105489 0)
(-0.081381 0.0148632 0)
(-0.0986594 0.0247668 0)
(-0.113198 0.0262064 0)
(-0.126529 0.0238455 0)
(-0.139134 0.0196944 0)
(-0.150118 0.0140773 0)
(-0.159399 0.0071107 0)
(-0.166859 -0.00104094 0)
(-0.172385 -0.0101172 0)
(-0.175943 -0.0197571 0)
(-0.177445 -0.02964 0)
(-0.176836 -0.0394224 0)
(-0.174153 -0.0486866 0)
(-0.16959 -0.0570867 0)
(-0.163554 -0.0644696 0)
(-0.156461 -0.0707718 0)
(-0.148708 -0.0759814 0)
(-0.140721 -0.0801791 0)
(0.088819 -0.670094 0)
(0.0763149 -0.526374 0)
(0.055638 -0.387099 0)
(0.0304044 -0.265869 0)
(0.00335639 -0.167241 0)
(-0.0234243 -0.0920928 0)
(-0.0481009 -0.0404086 0)
(-0.069212 -0.0100903 0)
(-0.0864376 0.00411596 0)
(-0.100453 0.00855598 0)
(-0.112088 0.00805687 0)
(-0.12244 0.00542793 0)
(-0.131696 0.00150977 0)
(-0.139517 -0.00333302 0)
(-0.14582 -0.00906531 0)
(-0.150445 -0.0155753 0)
(-0.153285 -0.0225954 0)
(-0.154286 -0.029834 0)
(-0.153473 -0.0370256 0)
(-0.150986 -0.0439526 0)
(-0.147076 -0.0504659 0)
(-0.142039 -0.0564588 0)
(-0.13617 -0.061833 0)
(-0.129755 -0.0665189 0)
(-0.123022 -0.0704864 0)
(0.101774 -0.679588 0)
(0.0901009 -0.547931 0)
(0.0703518 -0.417033 0)
(0.0457885 -0.300175 0)
(0.0191199 -0.202788 0)
(-0.00764014 -0.126294 0)
(-0.0326898 -0.070914 0)
(-0.0544271 -0.0355463 0)
(-0.0721007 -0.0164071 0)
(-0.0861026 -0.00802551 0)
(-0.0973152 -0.00567743 0)
(-0.106477 -0.00642249 0)
(-0.114116 -0.00856857 0)
(-0.120415 -0.0116165 0)
(-0.125422 -0.0154585 0)
(-0.12905 -0.0199222 0)
(-0.131226 -0.0247915 0)
(-0.131941 -0.0298876 0)
(-0.131236 -0.0350553 0)
(-0.129238 -0.0401821 0)
(-0.126074 -0.0451792 0)
(-0.121935 -0.0499674 0)
(-0.117022 -0.0544533 0)
(-0.111537 -0.0585268 0)
(-0.105651 -0.0620969 0)
(0.117548 -0.688135 0)
(0.106969 -0.568239 0)
(0.0883118 -0.445865 0)
(0.0645351 -0.333746 0)
(0.0383091 -0.238006 0)
(0.0116669 -0.160703 0)
(-0.0137111 -0.102214 0)
(-0.0362175 -0.0619916 0)
(-0.054775 -0.0376146 0)
(-0.0693698 -0.024742 0)
(-0.0807367 -0.0189129 0)
(-0.0896855 -0.016955 0)
(-0.0967976 -0.0170792 0)
(-0.102397 -0.0184341 0)
(-0.106645 -0.0206077 0)
(-0.109601 -0.0233547 0)
(-0.111289 -0.0265077 0)
(-0.111755 -0.0299225 0)
(-0.111078 -0.0334529 0)
(-0.109341 -0.0370659 0)
(-0.106618 -0.0407559 0)
(-0.103047 -0.0444533 0)
(-0.0987284 -0.0480569 0)
(-0.0938237 -0.0514581 0)
(-0.0884883 -0.054558 0)
(0.136326 -0.69519 0)
(0.12725 -0.586918 0)
(0.109997 -0.473342 0)
(0.0872344 -0.366428 0)
(0.06159 -0.272802 0)
(0.0351457 -0.195183 0)
(0.00955335 -0.134262 0)
(-0.0137091 -0.0897336 0)
(-0.0334196 -0.0601168 0)
(-0.0491325 -0.0423403 0)
(-0.0612742 -0.0325739 0)
(-0.0706208 -0.0276025 0)
(-0.0778488 -0.0253591 0)
(-0.0833895 -0.0247234 0)
(-0.087482 -0.0251098 0)
(-0.0902616 -0.0261938 0)
(-0.0918178 -0.027782 0)
(-0.0922322 -0.0297459 0)
(-0.0915992 -0.0319842 0)
(-0.0899971 -0.0344047 0)
(-0.0875548 -0.0369028 0)
(-0.0843432 -0.0395037 0)
(-0.0804302 -0.0422362 0)
(-0.0759422 -0.0449743 0)
(-0.071008 -0.0475964 0)
(0.158144 -0.700057 0)
(0.151119 -0.603384 0)
(0.135749 -0.499011 0)
(0.114387 -0.397905 0)
(0.0895965 -0.306985 0)
(0.0635204 -0.2296 0)
(0.0378411 -0.166889 0)
(0.0139677 -0.118792 0)
(-0.00691692 -0.0843529 0)
(-0.0240866 -0.0615206 0)
(-0.0375556 -0.0473616 0)
(-0.0478913 -0.0389266 0)
(-0.0557723 -0.0339927 0)
(-0.0617259 -0.0311748 0)
(-0.066087 -0.0296843 0)
(-0.069059 -0.02908 0)
(-0.0707783 -0.0291122 0)
(-0.0713545 -0.0296368 0)
(-0.0708947 -0.0305658 0)
(-0.0695099 -0.031839 0)
(-0.0673216 -0.033384 0)
(-0.0644082 -0.0350995 0)
(-0.0608854 -0.0369586 0)
(-0.0568068 -0.0389789 0)
(-0.0522772 -0.0411067 0)
(0.182842 -0.701918 0)
(0.178528 -0.616851 0)
(0.165692 -0.522182 0)
(0.146311 -0.427636 0)
(0.122835 -0.340178 0)
(0.0974584 -0.263702 0)
(0.0719345 -0.199864 0)
(0.047667 -0.148959 0)
(0.025804 -0.110388 0)
(0.00716175 -0.0827646 0)
(-0.00794869 -0.0640111 0)
(-0.0197605 -0.0516843 0)
(-0.0288135 -0.0436507 0)
(-0.0356503 -0.0383541 0)
(-0.0406834 -0.0347952 0)
(-0.0441883 -0.032388 0)
(-0.0463504 -0.0308054 0)
(-0.0473123 -0.0298734 0)
(-0.047205 -0.0294973 0)
(-0.0461608 -0.0296153 0)
(-0.0443165 -0.0301646 0)
(-0.041799 -0.0310701 0)
(-0.0386978 -0.0322435 0)
(-0.0350889 -0.0336053 0)
(-0.0310496 -0.0351644 0)
(0.210027 -0.699891 0)
(0.209139 -0.626356 0)
(0.199633 -0.541908 0)
(0.183023 -0.454794 0)
(0.161552 -0.371731 0)
(0.137425 -0.297007 0)
(0.112481 -0.232804 0)
(0.0881796 -0.179854 0)
(0.0656733 -0.137932 0)
(0.0458177 -0.106111 0)
(0.0290989 -0.0829064 0)
(0.0155748 -0.0664807 0)
(0.00495284 -0.054988 0)
(-0.00320732 -0.0468628 0)
(-0.00933018 -0.0409606 0)
(-0.0137375 -0.0365528 0)
(-0.0166558 -0.0332147 0)
(-0.0182672 -0.0307331 0)
(-0.0187411 -0.029005 0)
(-0.0182481 -0.0279643 0)
(-0.0169502 -0.027541 0)
(-0.0149894 -0.0276304 0)
(-0.0124684 -0.0281186 0)
(-0.00946973 -0.0289028 0)
(-0.00601077 -0.0299216 0)
(0.239061 -0.693124 0)
(0.242281 -0.630844 0)
(0.236972 -0.557022 0)
(0.224096 -0.478247 0)
(0.205564 -0.400661 0)
(0.183501 -0.328724 0)
(0.159805 -0.265079 0)
(0.136024 -0.210926 0)
(0.113372 -0.166454 0)
(0.0927517 -0.131145 0)
(0.0747559 -0.103974 0)
(0.0596349 -0.0835797 0)
(0.0473236 -0.0684714 0)
(0.0375481 -0.0572397 0)
(0.0299658 -0.0487191 0)
(0.0242716 -0.0420693 0)