/*--------------------------------*- C++ -*----------------------------------*\
| =========                 |                                                 |
| \\      /  F ield         | OpenFOAM: The Open Source CFD Toolbox           |
|  \\    /   O peration     | Version:  v2012                                 |
|   \\  /    A nd           | Website:  www.openfoam.com                      |
|    \\/     M anipulation  |                                                 |
\*---------------------------------------------------------------------------*/
FoamFile
{
    version     2.0;
    format      ascii;
    class       volVectorField;
    location    "0";
    object      C;
}
// * * * * * * * * * * * * * * * * * * * * * * * * * * * * * * * * * * * * * //

dimensions      [0 1 0 0 0 0 0];


internalField   nonuniform List<vector> 
6066
(
(0.01 1.0125 -0.005)
(0.01 1.0375 -0.005)
(0.01 1.0625 -0.005)
(0.01 1.0875 -0.005)
(0.01 1.1125 -0.005)
(0.01 1.1375 -0.005)
(0.01 1.1625 -0.005)
(0.01 1.1875 -0.005)
(0.01 1.2125 -0.005)
(0.01 1.2375 -0.005)
(0.01 1.2625 -0.005)
(0.01 1.2875 -0.005)
(0.01 1.3125 -0.005)
(0.01 1.3375 -0.005)
(0.01 1.3625 -0.005)
(0.01 1.3875 -0.005)
(0.01 1.4125 -0.005)
(0.01 1.4375 -0.005)
(0.01 1.4625 -0.005)
(0.01 1.4875 -0.005)
(0.03 1.0125 -0.005)
(0.03 1.0375 -0.005)
(0.03 1.0625 -0.005)
(0.03 1.0875 -0.005)
(0.03 1.1125 -0.005)
(0.03 1.1375 -0.005)
(0.03 1.1625 -0.005)
(0.03 1.1875 -0.005)
(0.03 1.2125 -0.005)
(0.03 1.2375 -0.005)
(0.03 1.2625 -0.005)
(0.03 1.2875 -0.005)
(0.03 1.3125 -0.005)
(0.03 1.3375 -0.005)
(0.03 1.3625 -0.005)
(0.03 1.3875 -0.005)
(0.03 1.4125 -0.005)
(0.03 1.4375 -0.005)
(0.03 1.4625 -0.005)
(0.03 1.4875 -0.005)
(0.05 1.0125 -0.005)
(0.05 1.0375 -0.005)
(0.05 1.0625 -0.005)
(0.05 1.0875 -0.005)
(0.05 1.1125 -0.005)
(0.05 1.1375 -0.005)
(0.05 1.1625 -0.005)
(0.05 1.1875 -0.005)
(0.05 1.2125 -0.005)
(0.05 1.2375 -0.005)
(0.05 1.2625 -0.005)
(0.05 1.2875 -0.005)
(0.05 1.3125 -0.005)
(0.05 1.3375 -0.005)
(0.05 1.3625 -0.005)
(0.05 1.3875 -0.005)
(0.05 1.4125 -0.005)
(0.05 1.4375 -0.005)
(0.05 1.4625 -0.005)
(0.05 1.4875 -0.005)
(0.07 1.0125 -0.005)
(0.07 1.0375 -0.005)
(0.07 1.0625 -0.005)
(0.07 1.0875 -0.005)
(0.07 1.1125 -0.005)
(0.07 1.1375 -0.005)
(0.07 1.1625 -0.005)
(0.07 1.1875 -0.005)
(0.07 1.2125 -0.005)
(0.07 1.2375 -0.005)
(0.07 1.2625 -0.005)
(0.07 1.2875 -0.005)
(0.07 1.3125 -0.005)
(0.07 1.3375 -0.005)
(0.07 1.3625 -0.005)
(0.07 1.3875 -0.005)
(0.07 1.4125 -0.005)
(0.07 1.4375 -0.005)
(0.07 1.4625 -0.005)
(0.07 1.4875 -0.005)
(0.09 1.0125 -0.005)
(0.09 1.0375 -0.005)
(0.09 1.0625 -0.005)
(0.09 1.0875 -0.005)
(0.09 1.1125 -0.005)
(0.09 1.1375 -0.005)
(0.09 1.1625 -0.005)
(0.09 1.1875 -0.005)
(0.09 1.2125 -0.005)
(0.09 1.2375 -0.005)
(0.09 1.2625 -0.005)
(0.09 1.2875 -0.005)
(0.09 1.3125 -0.005)
(0.09 1.3375 -0.005)
(0.09 1.3625 -0.005)
(0.09 1.3875 -0.005)
(0.09 1.4125 -0.005)
(0.09 1.4375 -0.005)
(0.09 1.4625 -0.005)
(0.09 1.4875 -0.005)
(0.11 1.0125 -0.005)
(0.11 1.0375 -0.005)
(0.11 1.0625 -0.005)
(0.11 1.0875 -0.005)
(0.11 1.1125 -0.005)
(0.11 1.1375 -0.005)
(0.11 1.1625 -0.005)
(0.11 1.1875 -0.005)
(0.11 1.2125 -0.005)
(0.11 1.2375 -0.005)
(0.11 1.2625 -0.005)
(0.11 1.2875 -0.005)
(0.11 1.3125 -0.005)
(0.11 1.3375 -0.005)
(0.11 1.3625 -0.005)
(0.11 1.3875 -0.005)
(0.11 1.4125 -0.005)
(0.11 1.4375 -0.005)
(0.11 1.4625 -0.005)
(0.11 1.4875 -0.005)
(0.13 1.0125 -0.005)
(0.13 1.0375 -0.005)
(0.13 1.0625 -0.005)
(0.13 1.0875 -0.005)
(0.13 1.1125 -0.005)
(0.13 1.1375 -0.005)
(0.13 1.1625 -0.005)
(0.13 1.1875 -0.005)
(0.13 1.2125 -0.005)
(0.13 1.2375 -0.005)
(0.13 1.2625 -0.005)
(0.13 1.2875 -0.005)
(0.13 1.3125 -0.005)
(0.13 1.3375 -0.005)
(0.13 1.3625 -0.005)
(0.13 1.3875 -0.005)
(0.13 1.4125 -0.005)
(0.13 1.4375 -0.005)
(0.13 1.4625 -0.005)
(0.13 1.4875 -0.005)
(0.15 1.0125 -0.005)
(0.15 1.0375 -0.005)
(0.15 1.0625 -0.005)
(0.15 1.0875 -0.005)
(0.15 1.1125 -0.005)
(0.15 1.1375 -0.005)
(0.15 1.1625 -0.005)
(0.15 1.1875 -0.005)
(0.15 1.2125 -0.005)
(0.15 1.2375 -0.005)
(0.15 1.2625 -0.005)
(0.15 1.2875 -0.005)
(0.15 1.3125 -0.005)
(0.15 1.3375 -0.005)
(0.15 1.3625 -0.005)
(0.15 1.3875 -0.005)
(0.15 1.4125 -0.005)
(0.15 1.4375 -0.005)
(0.15 1.4625 -0.005)
(0.15 1.4875 -0.005)
(0.17 1.0125 -0.005)
(0.17 1.0375 -0.005)
(0.17 1.0625 -0.005)
(0.17 1.0875 -0.005)
(0.17 1.1125 -0.005)
(0.17 1.1375 -0.005)
(0.17 1.1625 -0.005)
(0.17 1.1875 -0.005)
(0.17 1.2125 -0.005)
(0.17 1.2375 -0.005)
(0.17 1.2625 -0.005)
(0.17 1.2875 -0.005)
(0.17 1.3125 -0.005)
(0.17 1.3375 -0.005)
(0.17 1.3625 -0.005)
(0.17 1.3875 -0.005)
(0.17 1.4125 -0.005)
(0.17 1.4375 -0.005)
(0.17 1.4625 -0.005)
(0.17 1.4875 -0.005)
(0.19 1.0125 -0.005)
(0.19 1.0375 -0.005)
(0.19 1.0625 -0.005)
(0.19 1.0875 -0.005)
(0.19 1.1125 -0.005)
(0.19 1.1375 -0.005)
(0.19 1.1625 -0.005)
(0.19 1.1875 -0.005)
(0.19 1.2125 -0.005)
(0.19 1.2375 -0.005)
(0.19 1.2625 -0.005)
(0.19 1.2875 -0.005)
(0.19 1.3125 -0.005)
(0.19 1.3375 -0.005)
(0.19 1.3625 -0.005)
(0.19 1.3875 -0.005)
(0.19 1.4125 -0.005)
(0.19 1.4375 -0.005)
(0.19 1.4625 -0.005)
(0.19 1.4875 -0.005)
(0.01 0.550455 -0.005)
(0.01 0.571364 -0.005)
(0.01 0.592273 -0.005)
(0.01 0.613182 -0.005)
(0.01 0.634091 -0.005)
(0.01 0.655 -0.005)
(0.01 0.675909 -0.005)
(0.01 0.696818 -0.005)
(0.01 0.717727 -0.005)
(0.01 0.738636 -0.005)
(0.01 0.759545 -0.005)
(0.01 0.780455 -0.005)
(0.01 0.801364 -0.005)
(0.01 0.822273 -0.005)
(0.01 0.843182 -0.005)
(0.01 0.864091 -0.005)
(0.01 0.885 -0.005)
(0.01 0.905909 -0.005)
(0.01 0.926818 -0.005)
(0.01 0.947727 -0.005)
(0.01 0.968636 -0.005)
(0.01 0.989545 -0.005)
(0.03 0.550455 -0.005)
(0.03 0.571364 -0.005)
(0.03 0.592273 -0.005)
(0.03 0.613182 -0.005)
(0.03 0.634091 -0.005)
(0.03 0.655 -0.005)
(0.03 0.675909 -0.005)
(0.03 0.696818 -0.005)
(0.03 0.717727 -0.005)
(0.03 0.738636 -0.005)
(0.03 0.759545 -0.005)
(0.03 0.780455 -0.005)
(0.03 0.801364 -0.005)
(0.03 0.822273 -0.005)
(0.03 0.843182 -0.005)
(0.03 0.864091 -0.005)
(0.03 0.885 -0.005)
(0.03 0.905909 -0.005)
(0.03 0.926818 -0.005)
(0.03 0.947727 -0.005)
(0.03 0.968636 -0.005)
(0.03 0.989545 -0.005)
(0.05 0.550455 -0.005)
(0.05 0.571364 -0.005)
(0.05 0.592273 -0.005)
(0.05 0.613182 -0.005)
(0.05 0.634091 -0.005)
(0.05 0.655 -0.005)
(0.05 0.675909 -0.005)
(0.05 0.696818 -0.005)
(0.05 0.717727 -0.005)
(0.05 0.738636 -0.005)
(0.05 0.759545 -0.005)
(0.05 0.780455 -0.005)
(0.05 0.801364 -0.005)
(0.05 0.822273 -0.005)
(0.05 0.843182 -0.005)
(0.05 0.864091 -0.005)
(0.05 0.885 -0.005)
(0.05 0.905909 -0.005)
(0.05 0.926818 -0.005)
(0.05 0.947727 -0.005)
(0.05 0.968636 -0.005)
(0.05 0.989545 -0.005)
(0.07 0.550455 -0.005)
(0.07 0.571364 -0.005)
(0.07 0.592273 -0.005)
(0.07 0.613182 -0.005)
(0.07 0.634091 -0.005)
(0.07 0.655 -0.005)
(0.07 0.675909 -0.005)
(0.07 0.696818 -0.005)
(0.07 0.717727 -0.005)
(0.07 0.738636 -0.005)
(0.07 0.759545 -0.005)
(0.07 0.780455 -0.005)
(0.07 0.801364 -0.005)
(0.07 0.822273 -0.005)
(0.07 0.843182 -0.005)
(0.07 0.864091 -0.005)
(0.07 0.885 -0.005)
(0.07 0.905909 -0.005)
(0.07 0.926818 -0.005)
(0.07 0.947727 -0.005)
(0.07 0.968636 -0.005)
(0.07 0.989545 -0.005)
(0.09 0.550455 -0.005)
(0.09 0.571364 -0.005)
(0.09 0.592273 -0.005)
(0.09 0.613182 -0.005)
(0.09 0.634091 -0.005)
(0.09 0.655 -0.005)
(0.09 0.675909 -0.005)
(0.09 0.696818 -0.005)
(0.09 0.717727 -0.005)
(0.09 0.738636 -0.005)
(0.09 0.759545 -0.005)
(0.09 0.780455 -0.005)
(0.09 0.801364 -0.005)
(0.09 0.822273 -0.005)
(0.09 0.843182 -0.005)
(0.09 0.864091 -0.005)
(0.09 0.885 -0.005)
(0.09 0.905909 -0.005)
(0.09 0.926818 -0.005)
(0.09 0.947727 -0.005)
(0.09 0.968636 -0.005)
(0.09 0.989545 -0.005)
(0.11 0.550455 -0.005)
(0.11 0.571364 -0.005)
(0.11 0.592273 -0.005)
(0.11 0.613182 -0.005)
(0.11 0.634091 -0.005)
(0.11 0.655 -0.005)
(0.11 0.675909 -0.005)
(0.11 0.696818 -0.005)
(0.11 0.717727 -0.005)
(0.11 0.738636 -0.005)
(0.11 0.759545 -0.005)
(0.11 0.780455 -0.005)
(0.11 0.801364 -0.005)
(0.11 0.822273 -0.005)
(0.11 0.843182 -0.005)
(0.11 0.864091 -0.005)
(0.11 0.885 -0.005)
(0.11 0.905909 -0.005)
(0.11 0.926818 -0.005)
(0.11 0.947727 -0.005)
(0.11 0.968636 -0.005)
(0.11 0.989545 -0.005)
(0.13 0.550455 -0.005)
(0.13 0.571364 -0.005)
(0.13 0.592273 -0.005)
(0.13 0.613182 -0.005)
(0.13 0.634091 -0.005)
(0.13 0.655 -0.005)
(0.13 0.675909 -0.005)
(0.13 0.696818 -0.005)
(0.13 0.717727 -0.005)
(0.13 0.738636 -0.005)
(0.13 0.759545 -0.005)
(0.13 0.780455 -0.005)
(0.13 0.801364 -0.005)
(0.13 0.822273 -0.005)
(0.13 0.843182 -0.005)
(0.13 0.864091 -0.005)
(0.13 0.885 -0.005)
(0.13 0.905909 -0.005)
(0.13 0.926818 -0.005)
(0.13 0.947727 -0.005)
(0.13 0.968636 -0.005)
(0.13 0.989545 -0.005)
(0.15 0.550455 -0.005)
(0.15 0.571364 -0.005)
(0.15 0.592273 -0.005)
(0.15 0.613182 -0.005)
(0.15 0.634091 -0.005)
(0.15 0.655 -0.005)
(0.15 0.675909 -0.005)
(0.15 0.696818 -0.005)
(0.15 0.717727 -0.005)
(0.15 0.738636 -0.005)
(0.15 0.759545 -0.005)
(0.15 0.780455 -0.005)
(0.15 0.801364 -0.005)
(0.15 0.822273 -0.005)
(0.15 0.843182 -0.005)
(0.15 0.864091 -0.005)
(0.15 0.885 -0.005)
(0.15 0.905909 -0.005)
(0.15 0.926818 -0.005)
(0.15 0.947727 -0.005)
(0.15 0.968636 -0.005)
(0.15 0.989545 -0.005)
(0.17 0.550455 -0.005)
(0.17 0.571364 -0.005)
(0.17 0.592273 -0.005)
(0.17 0.613182 -0.005)
(0.17 0.634091 -0.005)
(0.17 0.655 -0.005)
(0.17 0.675909 -0.005)
(0.17 0.696818 -0.005)
(0.17 0.717727 -0.005)
(0.17 0.738636 -0.005)
(0.17 0.759545 -0.005)
(0.17 0.780455 -0.005)
(0.17 0.801364 -0.005)
(0.17 0.822273 -0.005)
(0.17 0.843182 -0.005)
(0.17 0.864091 -0.005)
(0.17 0.885 -0.005)
(0.17 0.905909 -0.005)
(0.17 0.926818 -0.005)
(0.17 0.947727 -0.005)
(0.17 0.968636 -0.005)
(0.17 0.989545 -0.005)
(0.19 0.550455 -0.005)
(0.19 0.571364 -0.005)
(0.19 0.592273 -0.005)
(0.19 0.613182 -0.005)
(0.19 0.634091 -0.005)
(0.19 0.655 -0.005)
(0.19 0.675909 -0.005)
(0.19 0.696818 -0.005)
(0.19 0.717727 -0.005)
(0.19 0.738636 -0.005)
(0.19 0.759545 -0.005)
(0.19 0.780455 -0.005)
(0.19 0.801364 -0.005)
(0.19 0.822273 -0.005)
(0.19 0.843182 -0.005)
(0.19 0.864091 -0.005)
(0.19 0.885 -0.005)
(0.19 0.905909 -0.005)
(0.19 0.926818 -0.005)
(0.19 0.947727 -0.005)
(0.19 0.968636 -0.005)
(0.19 0.989545 -0.005)
(0.01 0.015 -0.005)
(0.01 0.045 -0.005)
(0.01 0.075 -0.005)
(0.01 0.105 -0.005)
(0.01 0.135 -0.005)
(0.01 0.165 -0.005)
(0.01 0.195 -0.005)
(0.01 0.225 -0.005)
(0.01 0.255 -0.005)
(0.01 0.285 -0.005)
(0.01 0.315 -0.005)
(0.01 0.345 -0.005)
(0.01 0.375 -0.005)
(0.01 0.405 -0.005)
(0.01 0.435 -0.005)
(0.01 0.465 -0.005)
(0.01 0.495 -0.005)
(0.01 0.525 -0.005)
(0.03 0.015 -0.005)
(0.03 0.045 -0.005)
(0.03 0.075 -0.005)
(0.03 0.105 -0.005)
(0.03 0.135 -0.005)
(0.03 0.165 -0.005)
(0.03 0.195 -0.005)
(0.03 0.225 -0.005)
(0.03 0.255 -0.005)
(0.03 0.285 -0.005)
(0.03 0.315 -0.005)
(0.03 0.345 -0.005)
(0.03 0.375 -0.005)
(0.03 0.405 -0.005)
(0.03 0.435 -0.005)
(0.03 0.465 -0.005)
(0.03 0.495 -0.005)
(0.03 0.525 -0.005)
(0.05 0.015 -0.005)
(0.05 0.045 -0.005)
(0.05 0.075 -0.005)
(0.05 0.105 -0.005)
(0.05 0.135 -0.005)
(0.05 0.165 -0.005)
(0.05 0.195 -0.005)
(0.05 0.225 -0.005)
(0.05 0.255 -0.005)
(0.05 0.285 -0.005)
(0.05 0.315 -0.005)
(0.05 0.345 -0.005)
(0.05 0.375 -0.005)
(0.05 0.405 -0.005)
(0.05 0.435 -0.005)
(0.05 0.465 -0.005)
(0.05 0.495 -0.005)
(0.05 0.525 -0.005)
(0.07 0.015 -0.005)
(0.07 0.045 -0.005)
(0.07 0.075 -0.005)
(0.07 0.105 -0.005)
(0.07 0.135 -0.005)
(0.07 0.165 -0.005)
(0.07 0.195 -0.005)
(0.07 0.225 -0.005)
(0.07 0.255 -0.005)
(0.07 0.285 -0.005)
(0.07 0.315 -0.005)
(0.07 0.345 -0.005)
(0.07 0.375 -0.005)
(0.07 0.405 -0.005)
(0.07 0.435 -0.005)
(0.07 0.465 -0.005)
(0.07 0.495 -0.005)
(0.07 0.525 -0.005)
(0.09 0.015 -0.005)
(0.09 0.045 -0.005)
(0.09 0.075 -0.005)
(0.09 0.105 -0.005)
(0.09 0.135 -0.005)
(0.09 0.165 -0.005)
(0.09 0.195 -0.005)
(0.09 0.225 -0.005)
(0.09 0.255 -0.005)
(0.09 0.285 -0.005)
(0.09 0.315 -0.005)
(0.09 0.345 -0.005)
(0.09 0.375 -0.005)
(0.09 0.405 -0.005)
(0.09 0.435 -0.005)
(0.09 0.465 -0.005)
(0.09 0.495 -0.005)
(0.09 0.525 -0.005)
(0.11 0.015 -0.005)
(0.11 0.045 -0.005)
(0.11 0.075 -0.005)
(0.11 0.105 -0.005)
(0.11 0.135 -0.005)
(0.11 0.165 -0.005)
(0.11 0.195 -0.005)
(0.11 0.225 -0.005)
(0.11 0.255 -0.005)
(0.11 0.285 -0.005)
(0.11 0.315 -0.005)
(0.11 0.345 -0.005)
(0.11 0.375 -0.005)
(0.11 0.405 -0.005)
(0.11 0.435 -0.005)
(0.11 0.465 -0.005)
(0.11 0.495 -0.005)
(0.11 0.525 -0.005)
(0.13 0.015 -0.005)
(0.13 0.045 -0.005)
(0.13 0.075 -0.005)
(0.13 0.105 -0.005)
(0.13 0.135 -0.005)
(0.13 0.165 -0.005)
(0.13 0.195 -0.005)
(0.13 0.225 -0.005)
(0.13 0.255 -0.005)
(0.13 0.285 -0.005)
(0.13 0.315 -0.005)
(0.13 0.345 -0.005)
(0.13 0.375 -0.005)
(0.13 0.405 -0.005)
(0.13 0.435 -0.005)
(0.13 0.465 -0.005)
(0.13 0.495 -0.005)
(0.13 0.525 -0.005)
(0.15 0.015 -0.005)
(0.15 0.045 -0.005)
(0.15 0.075 -0.005)
(0.15 0.105 -0.005)
(0.15 0.135 -0.005)
(0.15 0.165 -0.005)
(0.15 0.195 -0.005)
(0.15 0.225 -0.005)
(0.15 0.255 -0.005)
(0.15 0.285 -0.005)
(0.15 0.315 -0.005)
(0.15 0.345 -0.005)
(0.15 0.375 -0.005)
(0.15 0.405 -0.005)
(0.15 0.435 -0.005)
(0.15 0.465 -0.005)
(0.15 0.495 -0.005)
(0.15 0.525 -0.005)
(0.17 0.015 -0.005)
(0.17 0.045 -0.005)
(0.17 0.075 -0.005)
(0.17 0.105 -0.005)
(0.17 0.135 -0.005)
(0.17 0.165 -0.005)
(0.17 0.195 -0.005)
(0.17 0.225 -0.005)
(0.17 0.255 -0.005)
(0.17 0.285 -0.005)
(0.17 0.315 -0.005)
(0.17 0.345 -0.005)
(0.17 0.375 -0.005)
(0.17 0.405 -0.005)
(0.17 0.435 -0.005)
(0.17 0.465 -0.005)
(0.17 0.495 -0.005)
(0.17 0.525 -0.005)
(0.19 0.015 -0.005)
(0.19 0.045 -0.005)
(0.19 0.075 -0.005)
(0.19 0.105 -0.005)
(0.19 0.135 -0.005)
(0.19 0.165 -0.005)
(0.19 0.195 -0.005)
(0.19 0.225 -0.005)
(0.19 0.255 -0.005)
(0.19 0.285 -0.005)
(0.19 0.315 -0.005)
(0.19 0.345 -0.005)
(0.19 0.375 -0.005)
(0.19 0.405 -0.005)
(0.19 0.435 -0.005)
(0.19 0.465 -0.005)
(0.19 0.495 -0.005)
(0.19 0.525 -0.005)
(0.210625 0.550455 -0.005)
(0.210625 0.571364 -0.005)
(0.210625 0.592273 -0.005)
(0.210625 0.613182 -0.005)
(0.210625 0.634091 -0.005)
(0.210625 0.655 -0.005)
(0.210625 0.675909 -0.005)
(0.210625 0.696818 -0.005)
(0.210625 0.717727 -0.005)
(0.210625 0.738636 -0.005)
(0.210625 0.759545 -0.005)
(0.210625 0.780455 -0.005)
(0.210625 0.801364 -0.005)
(0.210625 0.822273 -0.005)
(0.210625 0.843182 -0.005)
(0.210625 0.864091 -0.005)
(0.210625 0.885 -0.005)
(0.210625 0.905909 -0.005)
(0.210625 0.926818 -0.005)
(0.210625 0.947727 -0.005)
(0.210625 0.968636 -0.005)
(0.210625 0.989545 -0.005)
(0.231875 0.550455 -0.005)
(0.231875 0.571364 -0.005)
(0.231875 0.592273 -0.005)
(0.231875 0.613182 -0.005)
(0.231875 0.634091 -0.005)
(0.231875 0.655 -0.005)
(0.231875 0.675909 -0.005)
(0.231875 0.696818 -0.005)
(0.231875 0.717727 -0.005)
(0.231875 0.738636 -0.005)
(0.231875 0.759545 -0.005)
(0.231875 0.780455 -0.005)
(0.231875 0.801364 -0.005)
(0.231875 0.822273 -0.005)
(0.231875 0.843182 -0.005)
(0.231875 0.864091 -0.005)
(0.231875 0.885 -0.005)
(0.231875 0.905909 -0.005)
(0.231875 0.926818 -0.005)
(0.231875 0.947727 -0.005)
(0.231875 0.968636 -0.005)
(0.231875 0.989545 -0.005)
(0.253125 0.550455 -0.005)
(0.253125 0.571364 -0.005)
(0.253125 0.592273 -0.005)
(0.253125 0.613182 -0.005)
(0.253125 0.634091 -0.005)
(0.253125 0.655 -0.005)
(0.253125 0.675909 -0.005)
(0.253125 0.696818 -0.005)
(0.253125 0.717727 -0.005)
(0.253125 0.738636 -0.005)
(0.253125 0.759545 -0.005)
(0.253125 0.780455 -0.005)
(0.253125 0.801364 -0.005)
(0.253125 0.822273 -0.005)
(0.253125 0.843182 -0.005)
(0.253125 0.864091 -0.005)
(0.253125 0.885 -0.005)
(0.253125 0.905909 -0.005)
(0.253125 0.926818 -0.005)
(0.253125 0.947727 -0.005)
(0.253125 0.968636 -0.005)
(0.253125 0.989545 -0.005)
(0.274375 0.550455 -0.005)
(0.274375 0.571364 -0.005)
(0.274375 0.592273 -0.005)
(0.274375 0.613182 -0.005)
(0.274375 0.634091 -0.005)
(0.274375 0.655 -0.005)
(0.274375 0.675909 -0.005)
(0.274375 0.696818 -0.005)
(0.274375 0.717727 -0.005)
(0.274375 0.738636 -0.005)
(0.274375 0.759545 -0.005)
(0.274375 0.780455 -0.005)
(0.274375 0.801364 -0.005)
(0.274375 0.822273 -0.005)
(0.274375 0.843182 -0.005)
(0.274375 0.864091 -0.005)
(0.274375 0.885 -0.005)
(0.274375 0.905909 -0.005)
(0.274375 0.926818 -0.005)
(0.274375 0.947727 -0.005)
(0.274375 0.968636 -0.005)
(0.274375 0.989545 -0.005)
(0.295625 0.550455 -0.005)
(0.295625 0.571364 -0.005)
(0.295625 0.592273 -0.005)
(0.295625 0.613182 -0.005)
(0.295625 0.634091 -0.005)
(0.295625 0.655 -0.005)
(0.295625 0.675909 -0.005)
(0.295625 0.696818 -0.005)
(0.295625 0.717727 -0.005)
(0.295625 0.738636 -0.005)
(0.295625 0.759545 -0.005)
(0.295625 0.780455 -0.005)
(0.295625 0.801364 -0.005)
(0.295625 0.822273 -0.005)
(0.295625 0.843182 -0.005)
(0.295625 0.864091 -0.005)
(0.295625 0.885 -0.005)
(0.295625 0.905909 -0.005)
(0.295625 0.926818 -0.005)
(0.295625 0.947727 -0.005)
(0.295625 0.968636 -0.005)
(0.295625 0.989545 -0.005)
(0.316875 0.550455 -0.005)
(0.316875 0.571364 -0.005)
(0.316875 0.592273 -0.005)
(0.316875 0.613182 -0.005)
(0.316875 0.634091 -0.005)
(0.316875 0.655 -0.005)
(0.316875 0.675909 -0.005)
(0.316875 0.696818 -0.005)
(0.316875 0.717727 -0.005)
(0.316875 0.738636 -0.005)
(0.316875 0.759545 -0.005)
(0.316875 0.780455 -0.005)
(0.316875 0.801364 -0.005)
(0.316875 0.822273 -0.005)
(0.316875 0.843182 -0.005)
(0.316875 0.864091 -0.005)
(0.316875 0.885 -0.005)
(0.316875 0.905909 -0.005)
(0.316875 0.926818 -0.005)
(0.316875 0.947727 -0.005)
(0.316875 0.968636 -0.005)
(0.316875 0.989545 -0.005)
(0.338125 0.550455 -0.005)
(0.338125 0.571364 -0.005)
(0.338125 0.592273 -0.005)
(0.338125 0.613182 -0.005)
(0.338125 0.634091 -0.005)
(0.338125 0.655 -0.005)
(0.338125 0.675909 -0.005)
(0.338125 0.696818 -0.005)
(0.338125 0.717727 -0.005)
(0.338125 0.738636 -0.005)
(0.338125 0.759545 -0.005)
(0.338125 0.780455 -0.005)
(0.338125 0.801364 -0.005)
(0.338125 0.822273 -0.005)
(0.338125 0.843182 -0.005)
(0.338125 0.864091 -0.005)
(0.338125 0.885 -0.005)
(0.338125 0.905909 -0.005)
(0.338125 0.926818 -0.005)
(0.338125 0.947727 -0.005)
(0.338125 0.968636 -0.005)
(0.338125 0.989545 -0.005)
(0.359375 0.550455 -0.005)
(0.359375 0.571364 -0.005)
(0.359375 0.592273 -0.005)
(0.359375 0.613182 -0.005)
(0.359375 0.634091 -0.005)
(0.359375 0.655 -0.005)
(0.359375 0.675909 -0.005)
(0.359375 0.696818 -0.005)
(0.359375 0.717727 -0.005)
(0.359375 0.738636 -0.005)
(0.359375 0.759545 -0.005)
(0.359375 0.780455 -0.005)
(0.359375 0.801364 -0.005)
(0.359375 0.822273 -0.005)
(0.359375 0.843182 -0.005)
(0.359375 0.864091 -0.005)
(0.359375 0.885 -0.005)
(0.359375 0.905909 -0.005)
(0.359375 0.926818 -0.005)
(0.359375 0.947727 -0.005)
(0.359375 0.968636 -0.005)
(0.359375 0.989545 -0.005)
(0.380625 0.550455 -0.005)
(0.380625 0.571364 -0.005)
(0.380625 0.592273 -0.005)
(0.380625 0.613182 -0.005)
(0.380625 0.634091 -0.005)
(0.380625 0.655 -0.005)
(0.380625 0.675909 -0.005)
(0.380625 0.696818 -0.005)
(0.380625 0.717727 -0.005)
(0.380625 0.738636 -0.005)
(0.380625 0.759545 -0.005)
(0.380625 0.780455 -0.005)
(0.380625 0.801364 -0.005)
(0.380625 0.822273 -0.005)
(0.380625 0.843182 -0.005)
(0.380625 0.864091 -0.005)
(0.380625 0.885 -0.005)
(0.380625 0.905909 -0.005)
(0.380625 0.926818 -0.005)
(0.380625 0.947727 -0.005)
(0.380625 0.968636 -0.005)
(0.380625 0.989545 -0.005)
(0.401875 0.550455 -0.005)
(0.401875 0.571364 -0.005)
(0.401875 0.592273 -0.005)
(0.401875 0.613182 -0.005)
(0.401875 0.634091 -0.005)
(0.401875 0.655 -0.005)
(0.401875 0.675909 -0.005)
(0.401875 0.696818 -0.005)
(0.401875 0.717727 -0.005)
(0.401875 0.738636 -0.005)
(0.401875 0.759545 -0.005)
(0.401875 0.780455 -0.005)
(0.401875 0.801364 -0.005)
(0.401875 0.822273 -0.005)
(0.401875 0.843182 -0.005)
(0.401875 0.864091 -0.005)
(0.401875 0.885 -0.005)
(0.401875 0.905909 -0.005)
(0.401875 0.926818 -0.005)
(0.401875 0.947727 -0.005)
(0.401875 0.968636 -0.005)
(0.401875 0.989545 -0.005)
(0.423125 0.550455 -0.005)
(0.423125 0.571364 -0.005)
(0.423125 0.592273 -0.005)
(0.423125 0.613182 -0.005)
(0.423125 0.634091 -0.005)
(0.423125 0.655 -0.005)
(0.423125 0.675909 -0.005)
(0.423125 0.696818 -0.005)
(0.423125 0.717727 -0.005)
(0.423125 0.738636 -0.005)
(0.423125 0.759545 -0.005)
(0.423125 0.780455 -0.005)
(0.423125 0.801364 -0.005)
(0.423125 0.822273 -0.005)
(0.423125 0.843182 -0.005)
(0.423125 0.864091 -0.005)
(0.423125 0.885 -0.005)
(0.423125 0.905909 -0.005)
(0.423125 0.926818 -0.005)
(0.423125 0.947727 -0.005)
(0.423125 0.968636 -0.005)
(0.423125 0.989545 -0.005)
(0.444375 0.550455 -0.005)
(0.444375 0.571364 -0.005)
(0.444375 0.592273 -0.005)
(0.444375 0.613182 -0.005)
(0.444375 0.634091 -0.005)
(0.444375 0.655 -0.005)
(0.444375 0.675909 -0.005)
(0.444375 0.696818 -0.005)
(0.444375 0.717727 -0.005)
(0.444375 0.738636 -0.005)
(0.444375 0.759545 -0.005)
(0.444375 0.780455 -0.005)
(0.444375 0.801364 -0.005)
(0.444375 0.822273 -0.005)
(0.444375 0.843182 -0.005)
(0.444375 0.864091 -0.005)
(0.444375 0.885 -0.005)
(0.444375 0.905909 -0.005)
(0.444375 0.926818 -0.005)
(0.444375 0.947727 -0.005)
(0.444375 0.968636 -0.005)
(0.444375 0.989545 -0.005)
(0.465625 0.550455 -0.005)
(0.465625 0.571364 -0.005)
(0.465625 0.592273 -0.005)
(0.465625 0.613182 -0.005)
(0.465625 0.634091 -0.005)
(0.465625 0.655 -0.005)
(0.465625 0.675909 -0.005)
(0.465625 0.696818 -0.005)
(0.465625 0.717727 -0.005)
(0.465625 0.738636 -0.005)
(0.465625 0.759545 -0.005)
(0.465625 0.780455 -0.005)
(0.465625 0.801364 -0.005)
(0.465625 0.822273 -0.005)
(0.465625 0.843182 -0.005)
(0.465625 0.864091 -0.005)
(0.465625 0.885 -0.005)
(0.465625 0.905909 -0.005)
(0.465625 0.926818 -0.005)
(0.465625 0.947727 -0.005)
(0.465625 0.968636 -0.005)
(0.465625 0.989545 -0.005)
(0.486875 0.550455 -0.005)
(0.486875 0.571364 -0.005)
(0.486875 0.592273 -0.005)
(0.486875 0.613182 -0.005)
(0.486875 0.634091 -0.005)
(0.486875 0.655 -0.005)
(0.486875 0.675909 -0.005)
(0.486875 0.696818 -0.005)
(0.486875 0.717727 -0.005)
(0.486875 0.738636 -0.005)
(0.486875 0.759545 -0.005)
(0.486875 0.780455 -0.005)
(0.486875 0.801364 -0.005)
(0.486875 0.822273 -0.005)
(0.486875 0.843182 -0.005)
(0.486875 0.864091 -0.005)
(0.486875 0.885 -0.005)
(0.486875 0.905909 -0.005)
(0.486875 0.926818 -0.005)
(0.486875 0.947727 -0.005)
(0.486875 0.968636 -0.005)
(0.486875 0.989545 -0.005)
(0.508125 0.550455 -0.005)
(0.508125 0.571364 -0.005)
(0.508125 0.592273 -0.005)
(0.508125 0.613182 -0.005)
(0.508125 0.634091 -0.005)
(0.508125 0.655 -0.005)
(0.508125 0.675909 -0.005)
(0.508125 0.696818 -0.005)
(0.508125 0.717727 -0.005)
(0.508125 0.738636 -0.005)
(0.508125 0.759545 -0.005)
(0.508125 0.780455 -0.005)
(0.508125 0.801364 -0.005)
(0.508125 0.822273 -0.005)
(0.508125 0.843182 -0.005)
(0.508125 0.864091 -0.005)
(0.508125 0.885 -0.005)
(0.508125 0.905909 -0.005)
(0.508125 0.926818 -0.005)
(0.508125 0.947727 -0.005)
(0.508125 0.968636 -0.005)
(0.508125 0.989545 -0.005)
(0.529375 0.550455 -0.005)
(0.529375 0.571364 -0.005)
(0.529375 0.592273 -0.005)
(0.529375 0.613182 -0.005)
(0.529375 0.634091 -0.005)
(0.529375 0.655 -0.005)
(0.529375 0.675909 -0.005)
(0.529375 0.696818 -0.005)
(0.529375 0.717727 -0.005)
(0.529375 0.738636 -0.005)
(0.529375 0.759545 -0.005)
(0.529375 0.780455 -0.005)
(0.529375 0.801364 -0.005)
(0.529375 0.822273 -0.005)
(0.529375 0.843182 -0.005)
(0.529375 0.864091 -0.005)
(0.529375 0.885 -0.005)
(0.529375 0.905909 -0.005)
(0.529375 0.926818 -0.005)
(0.529375 0.947727 -0.005)
(0.529375 0.968636 -0.005)
(0.529375 0.989545 -0.005)
(0.550625 0.550455 -0.005)
(0.550625 0.571364 -0.005)
(0.550625 0.592273 -0.005)
(0.550625 0.613182 -0.005)
(0.550625 0.634091 -0.005)
(0.550625 0.655 -0.005)
(0.550625 0.675909 -0.005)
(0.550625 0.696818 -0.005)
(0.550625 0.717727 -0.005)
(0.550625 0.738636 -0.005)
(0.550625 0.759545 -0.005)
(0.550625 0.780455 -0.005)
(0.550625 0.801364 -0.005)
(0.550625 0.822273 -0.005)
(0.550625 0.843182 -0.005)
(0.550625 0.864091 -0.005)
(0.550625 0.885 -0.005)
(0.550625 0.905909 -0.005)
(0.550625 0.926818 -0.005)
(0.550625 0.947727 -0.005)
(0.550625 0.968636 -0.005)
(0.550625 0.989545 -0.005)
(0.571875 0.550455 -0.005)
(0.571875 0.571364 -0.005)
(0.571875 0.592273 -0.005)
(0.571875 0.613182 -0.005)
(0.571875 0.634091 -0.005)
(0.571875 0.655 -0.005)
(0.571875 0.675909 -0.005)
(0.571875 0.696818 -0.005)
(0.571875 0.717727 -0.005)
(0.571875 0.738636 -0.005)
(0.571875 0.759545 -0.005)
(0.571875 0.780455 -0.005)
(0.571875 0.801364 -0.005)
(0.571875 0.822273 -0.005)
(0.571875 0.843182 -0.005)
(0.571875 0.864091 -0.005)
(0.571875 0.885 -0.005)
(0.571875 0.905909 -0.005)
(0.571875 0.926818 -0.005)
(0.571875 0.947727 -0.005)
(0.571875 0.968636 -0.005)
(0.571875 0.989545 -0.005)
(0.593125 0.550455 -0.005)
(0.593125 0.571364 -0.005)
(0.593125 0.592273 -0.005)
(0.593125 0.613182 -0.005)
(0.593125 0.634091 -0.005)
(0.593125 0.655 -0.005)
(0.593125 0.675909 -0.005)
(0.593125 0.696818 -0.005)
(0.593125 0.717727 -0.005)
(0.593125 0.738636 -0.005)
(0.593125 0.759545 -0.005)
(0.593125 0.780455 -0.005)
(0.593125 0.801364 -0.005)
(0.593125 0.822273 -0.005)
(0.593125 0.843182 -0.005)
(0.593125 0.864091 -0.005)
(0.593125 0.885 -0.005)
(0.593125 0.905909 -0.005)
(0.593125 0.926818 -0.005)
(0.593125 0.947727 -0.005)
(0.593125 0.968636 -0.005)
(0.593125 0.989545 -0.005)
(0.614375 0.550455 -0.005)
(0.614375 0.571364 -0.005)
(0.614375 0.592273 -0.005)
(0.614375 0.613182 -0.005)
(0.614375 0.634091 -0.005)
(0.614375 0.655 -0.005)
(0.614375 0.675909 -0.005)
(0.614375 0.696818 -0.005)
(0.614375 0.717727 -0.005)
(0.614375 0.738636 -0.005)
(0.614375 0.759545 -0.005)
(0.614375 0.780455 -0.005)
(0.614375 0.801364 -0.005)
(0.614375 0.822273 -0.005)
(0.614375 0.843182 -0.005)
(0.614375 0.864091 -0.005)
(0.614375 0.885 -0.005)
(0.614375 0.905909 -0.005)
(0.614375 0.926818 -0.005)
(0.614375 0.947727 -0.005)
(0.614375 0.968636 -0.005)
(0.614375 0.989545 -0.005)
(0.635625 0.550455 -0.005)
(0.635625 0.571364 -0.005)
(0.635625 0.592273 -0.005)
(0.635625 0.613182 -0.005)
(0.635625 0.634091 -0.005)
(0.635625 0.655 -0.005)
(0.635625 0.675909 -0.005)
(0.635625 0.696818 -0.005)
(0.635625 0.717727 -0.005)
(0.635625 0.738636 -0.005)
(0.635625 0.759545 -0.005)
(0.635625 0.780455 -0.005)
(0.635625 0.801364 -0.005)
(0.635625 0.822273 -0.005)
(0.635625 0.843182 -0.005)
(0.635625 0.864091 -0.005)
(0.635625 0.885 -0.005)
(0.635625 0.905909 -0.005)
(0.635625 0.926818 -0.005)
(0.635625 0.947727 -0.005)
(0.635625 0.968636 -0.005)
(0.635625 0.989545 -0.005)
(0.656875 0.550455 -0.005)
(0.656875 0.571364 -0.005)
(0.656875 0.592273 -0.005)
(0.656875 0.613182 -0.005)
(0.656875 0.634091 -0.005)
(0.656875 0.655 -0.005)
(0.656875 0.675909 -0.005)
(0.656875 0.696818 -0.005)
(0.656875 0.717727 -0.005)
(0.656875 0.738636 -0.005)
(0.656875 0.759545 -0.005)
(0.656875 0.780455 -0.005)
(0.656875 0.801364 -0.005)
(0.656875 0.822273 -0.005)
(0.656875 0.843182 -0.005)
(0.656875 0.864091 -0.005)
(0.656875 0.885 -0.005)
(0.656875 0.905909 -0.005)
(0.656875 0.926818 -0.005)
(0.656875 0.947727 -0.005)
(0.656875 0.968636 -0.005)
(0.656875 0.989545 -0.005)
(0.678125 0.550455 -0.005)
(0.678125 0.571364 -0.005)
(0.678125 0.592273 -0.005)
(0.678125 0.613182 -0.005)
(0.678125 0.634091 -0.005)
(0.678125 0.655 -0.005)
(0.678125 0.675909 -0.005)
(0.678125 0.696818 -0.005)
(0.678125 0.717727 -0.005)
(0.678125 0.738636 -0.005)
(0.678125 0.759545 -0.005)
(0.678125 0.780455 -0.005)
(0.678125 0.801364 -0.005)
(0.678125 0.822273 -0.005)
(0.678125 0.843182 -0.005)
(0.678125 0.864091 -0.005)
(0.678125 0.885 -0.005)
(0.678125 0.905909 -0.005)
(0.678125 0.926818 -0.005)
(0.678125 0.947727 -0.005)
(0.678125 0.968636 -0.005)
(0.678125 0.989545 -0.005)
(0.699375 0.550455 -0.005)
(0.699375 0.571364 -0.005)
(0.699375 0.592273 -0.005)
(0.699375 0.613182 -0.005)
(0.699375 0.634091 -0.005)
(0.699375 0.655 -0.005)
(0.699375 0.675909 -0.005)
(0.699375 0.696818 -0.005)
(0.699375 0.717727 -0.005)
(0.699375 0.738636 -0.005)
(0.699375 0.759545 -0.005)
(0.699375 0.780455 -0.005)
(0.699375 0.801364 -0.005)
(0.699375 0.822273 -0.005)
(0.699375 0.843182 -0.005)
(0.699375 0.864091 -0.005)
(0.699375 0.885 -0.005)
(0.699375 0.905909 -0.005)
(0.699375 0.926818 -0.005)
(0.699375 0.947727 -0.005)
(0.699375 0.968636 -0.005)
(0.699375 0.989545 -0.005)
(0.720625 0.550455 -0.005)
(0.720625 0.571364 -0.005)
(0.720625 0.592273 -0.005)
(0.720625 0.613182 -0.005)
(0.720625 0.634091 -0.005)
(0.720625 0.655 -0.005)
(0.720625 0.675909 -0.005)
(0.720625 0.696818 -0.005)
(0.720625 0.717727 -0.005)
(0.720625 0.738636 -0.005)
(0.720625 0.759545 -0.005)
(0.720625 0.780455 -0.005)
(0.720625 0.801364 -0.005)
(0.720625 0.822273 -0.005)
(0.720625 0.843182 -0.005)
(0.720625 0.864091 -0.005)
(0.720625 0.885 -0.005)
(0.720625 0.905909 -0.005)
(0.720625 0.926818 -0.005)
(0.720625 0.947727 -0.005)
(0.720625 0.968636 -0.005)
(0.720625 0.989545 -0.005)
(0.741875 0.550455 -0.005)
(0.741875 0.571364 -0.005)
(0.741875 0.592273 -0.005)
(0.741875 0.613182 -0.005)
(0.741875 0.634091 -0.005)
(0.741875 0.655 -0.005)
(0.741875 0.675909 -0.005)
(0.741875 0.696818 -0.005)
(0.741875 0.717727 -0.005)
(0.741875 0.738636 -0.005)
(0.741875 0.759545 -0.005)
(0.741875 0.780455 -0.005)
(0.741875 0.801364 -0.005)
(0.741875 0.822273 -0.005)
(0.741875 0.843182 -0.005)
(0.741875 0.864091 -0.005)
(0.741875 0.885 -0.005)
(0.741875 0.905909 -0.005)
(0.741875 0.926818 -0.005)
(0.741875 0.947727 -0.005)
(0.741875 0.968636 -0.005)
(0.741875 0.989545 -0.005)
(0.763125 0.550455 -0.005)
(0.763125 0.571364 -0.005)
(0.763125 0.592273 -0.005)
(0.763125 0.613182 -0.005)
(0.763125 0.634091 -0.005)
(0.763125 0.655 -0.005)
(0.763125 0.675909 -0.005)
(0.763125 0.696818 -0.005)
(0.763125 0.717727 -0.005)
(0.763125 0.738636 -0.005)
(0.763125 0.759545 -0.005)
(0.763125 0.780455 -0.005)
(0.763125 0.801364 -0.005)
(0.763125 0.822273 -0.005)
(0.763125 0.843182 -0.005)
(0.763125 0.864091 -0.005)
(0.763125 0.885 -0.005)
(0.763125 0.905909 -0.005)
(0.763125 0.926818 -0.005)
(0.763125 0.947727 -0.005)
(0.763125 0.968636 -0.005)
(0.763125 0.989545 -0.005)
(0.784375 0.550455 -0.005)
(0.784375 0.571364 -0.005)
(0.784375 0.592273 -0.005)
(0.784375 0.613182 -0.005)
(0.784375 0.634091 -0.005)
(0.784375 0.655 -0.005)
(0.784375 0.675909 -0.005)
(0.784375 0.696818 -0.005)
(0.784375 0.717727 -0.005)
(0.784375 0.738636 -0.005)
(0.784375 0.759545 -0.005)
(0.784375 0.780455 -0.005)
(0.784375 0.801364 -0.005)
(0.784375 0.822273 -0.005)
(0.784375 0.843182 -0.005)
(0.784375 0.864091 -0.005)
(0.784375 0.885 -0.005)