/*--------------------------------*- C++ -*----------------------------------*\
| =========                 |                                                 |
| \\      /  F ield         | OpenFOAM: The Open Source CFD Toolbox           |
|  \\    /   O peration     | Version:  v2012                                 |
|   \\  /    A nd           | Website:  www.openfoam.com                      |
|    \\/     M anipulation  |                                                 |
\*---------------------------------------------------------------------------*/
FoamFile
{
    version     2.0;
    format      ascii;
    class       volScalarField;
    location    "574";
    object      age;
}
// * * * * * * * * * * * * * * * * * * * * * * * * * * * * * * * * * * * * * //

dimensions      [0 0 1 0 0 0 0];


internalField   nonuniform List<scalar> 
6018
(
0.689204
0.631495
0.579724
0.532434
0.488595
0.447497
0.408621
0.371565
0.336036
0.301834
0.268815
0.236873
0.205929
0.175919
0.146789
0.118489
0.0909708
0.0641849
0.0380822
0.0126081
0.522956
0.487522
0.455264
0.424867
0.394889
0.366535
0.339477
0.312973
0.286965
0.261307
0.23592
0.210739
0.185719
0.160829
0.136038
0.111318
0.0866407
0.0619723
0.0372662
0.0124652
0.465003
0.440784
0.417018
0.393487
0.370124
0.346957
0.323803
0.30059
0.277301
0.253917
0.230425
0.206812
0.183066
0.159177
0.135137
0.110942
0.0865828
0.0620537
0.0373529
0.0124868
0.45742
0.435427
0.41328
0.390988
0.368545
0.345943
0.323188
0.300282
0.277224
0.254011
0.230638
0.207102
0.183396
0.159518
0.135459
0.111217
0.0867908
0.0621836
0.0374083
0.0124936
0.457575
0.435531
0.41336
0.391058
0.368621
0.346043
0.32332
0.300446
0.277415
0.254221
0.230859
0.207323
0.183609
0.159711
0.135624
0.111345
0.0868787
0.0622329
0.0374261
0.0124951
0.457026
0.435022
0.412922
0.390699
0.368336
0.345823
0.323153
0.300322
0.277324
0.254155
0.230813
0.207292
0.183589
0.159698
0.135616
0.111341
0.0868766
0.062232
0.0374258
0.0124951
0.456344
0.434477
0.412475
0.390314
0.367986
0.345488
0.322822
0.299992
0.277002
0.253845
0.230519
0.207019
0.183341
0.159483
0.135438
0.111205
0.0867848
0.0621812
0.0374077
0.0124935
0.456717
0.435048
0.413089
0.390859
0.368392
0.345725
0.322914
0.299968
0.27687
0.253625
0.23023
0.206683
0.182982
0.159123
0.135105
0.110924
0.0865742
0.0620502
0.0373519
0.0124867
0.479032
0.456734
0.433338
0.409026
0.384261
0.359631
0.335087
0.310202
0.285239
0.260243
0.23527
0.210348
0.185491
0.160701
0.13597
0.111285
0.0866267
0.0619678
0.0372654
0.0124652
0.605565
0.574381
0.542475
0.507889
0.472545
0.437089
0.401957
0.367336
0.333383
0.30019
0.267812
0.236274
0.205583
0.175727
0.146688
0.11844
0.0909499
0.0641775
0.0380803
0.0126078
46.4875
45.6566
45.9929
46.5432
47.3027
48.3964
50.0362
51.9321
54.9272
55.2184
54.2926
53.2142
52.4107
52.1853
52.5339
53.0448
53.58
54.1371
54.5258
55.0556
55.392
56.1133
56.9776
57.9829
58.9173
22.3696
2.17642
1.84712
1.43248
1.21269
1.05001
0.92937
0.833845
0.755476
40.4396
40.2946
40.5387
41.0644
41.824
42.8449
44.2632
45.7304
46.7729
46.8133
46.0043
45.2827
44.9384
44.9251
45.137
45.5952
46.1636
46.6457
47.1094
48.9218
53.3455
48.4304
30.1071
16.7656
8.33473
2.64312
1.09205
1.08747
0.902704
0.809895
0.727921
0.663668
0.609416
0.563136
39.4826
40.2127
40.5314
40.6737
40.8061
40.9233
41.2868
41.9256
42.4359
42.7304
42.8997
43.0887
43.2885
43.5235
43.8353
44.1865
45.1129
46.5076
45.0266
36.7118
23.9748
11.8239
4.12629
1.41154
1.01407
0.879911
0.773789
0.722815
0.661177
0.619709
0.582046
0.547916
0.517265
0.490369
44.367
47.3979
48.6755
47.9198
45.9402
43.8925
42.5145
42.1543
42.2877
42.5008
42.8644
43.3495
43.8914
44.2661
44.8554
44.6142
42.6823
34.7237
21.871
9.98655
3.47966
1.0177
0.916221
0.809175
0.74731
0.70195
0.661706
0.628401
0.599168
0.572734
0.54767
0.523829
0.501407
0.479433
56.6018
61.6775
63.3761
61.7864
57.7773
52.8814
48.4291
45.4953
44.2011
43.9574
44.2909
44.6781
45.7552
45.257
42.9568
35.578
23.6521
11.3945
3.99075
1.02976
0.926253
0.809791
0.765989
0.721319
0.688831
0.6596
0.633452
0.610306
0.588626
0.566726
0.545102
0.523435
0.501637
0.479619
73.5725
80.057
81.5643
78.5303
72.2774
64.6077
57.317
51.8041
48.5702
47.0955
46.2991
46.1571
44.6536
38.6954
27.9286
15.4348
6.0653
1.706
0.949448
0.847471
0.798591
0.755755
0.7261
0.699756
0.67643
0.653978
0.632535
0.611197
0.589588
0.567659
0.545625
0.523475
0.501287
0.479099
93.1823
100.483
101.068
95.7573
86.5867
75.9036
65.7996
57.8241
52.2529
49.0164
47.6277
42.6893
33.5279
21.2696
10.0488
3.28465
1.02862
0.935478
0.832569
0.799542
0.767693
0.744155
0.720985
0.699585
0.678079
0.656414
0.634426
0.612055
0.589538
0.567047
0.544661
0.522412
0.500292
0.478254
113.234
120.305
119.058
110.738
98.1115
84.1957
71.3259
60.7242
53.4412
48.361
40.6546
29.0398
16.7179
6.74238
2.02308
0.980365
0.888576
0.843124
0.810937
0.790195
0.766932
0.746612
0.724732
0.702804
0.68004
0.656915
0.633604
0.610413
0.587544
0.565086
0.543055
0.52133
0.499774
0.478249
130.876
136.581
132.595
120.779
104.561
87.4902
72.026
59.757
50.232
39.4495
26.1756
13.5895
4.85833
1.35889
0.983954
0.889331
0.858072
0.835371
0.817648
0.79614
0.772844
0.748916
0.724267
0.699651
0.67534
0.651855
0.629447
0.608423
0.589039
0.571966
0.55495
0.537372
0.519053
0.499638
144.107
147.437
139.988
124.134
104.511
85.0154
67.9908
53.6788
39.6083
24.6698
11.7017
3.78004
1.08556
0.989067
0.902218
0.878362
0.857822
0.834217
0.808126
0.779373
0.754562
0.737461
0.719609
0.702625
0.686784
0.672021
0.660175
0.652151
0.647559
0.645361
0.644365
0.643298
0.639745
0.630471
67.3306
59.5672
57.0594
54.1847
50.6581
48.1878
66.7287
61.2087
61.308
51.0477
45.2482
41.8967
68.2384
65.6144
54.9891
44.6742
40.368
39.0001
69.8423
63.9423
46.1837
39.2712
38.7419
40.8974
72.6728
49.1625
38.184
38.228
42.304
49.4028
56.0794
38.3555
36.8176
41.9645
52.0772
63.4636
34.4511
34.9293
39.3007
50.4436
65.3577
80.545
33.8066
35.6902
44.5468
60.9991
80.6218
99.0686
33.6074
37.3242
51.4385
72.9362
96.1332
116.458
33.4688
40.0563
59.2295
84.4144
109.752
130.593
151.773
151.532
139.457
119.865
97.847
76.9203
58.1629
40.6558
24.0489
10.6647
3.23707
1.05304
0.971235
0.921546
0.897739
0.87931
0.856152
0.836724
0.824815
0.822544
0.851072
0.932658
1.11231
1.46638
2.13089
3.36652
5.63986
9.71488
16.1486
24.2493
34.1454
45.5879
57.2122
65.6991
154.06
147.348
131.076
108.812
85.3747
63.1164
42.5071
24.1768
10.2322
2.93339
1.05195
0.97869
0.94303
0.918522
0.904462
0.888211
0.878513
0.890119
0.950832
1.12028
1.4839
2.21676
3.77029
7.06852
13.1684
21.9879
33.4437
46.5037
58.9799
67.9211
76.1726
82.07
88.015
98.2607
146.425
136.174
116.646
92.6806
68.2253
45.2164
25.2378
10.4877
2.9135
1.05502
0.994012
0.967247
0.945621
0.929761
0.92115
0.926941
0.982615
1.1546
1.54699
2.43034
4.56769
9.40686
17.5062
29.0403
42.708
55.9538
66.6116
72.8854
75.7952
75.8499
75.9427
77.0252
83.5097
98.8141
133.872
119.9
97.9321
72.8959
48.3708
26.9832
11.2664
3.12772
1.08803
1.01096
0.991958
0.973285
0.956808
0.952242
0.977939
1.09229
1.39315
2.13659
4.17564
9.00559
17.5454
29.8853
44.1521
58.3629
68.8439
74.0631
75.7838
75.5512
75.3636
75.3842
75.7583
78.9817
88.0269
101.372
117.377
100.106
76.5276
51.6094
29.237
12.5304
3.566
1.1689
1.03486
1.01625
0.99955
0.982131
0.979482
1.02592
1.19535
1.63703
3.00383
6.79749
14.2291
25.7626
40.1594
55.3336
67.6801
74.0276
76.1149
75.527
75.0668
74.976
75.0734
75.4585
77.4627
82.9668
92.0862
103.709
98.0433
78.3288
54.5321
31.8507
14.2672
4.24281
1.28739
1.0675
1.04109
1.02547
1.00739
1.00596
1.06284
1.25562
1.87969
4.17498
9.5648
19.1054
32.2814
47.7265
62.2798
72.2218
76.1637
75.9022
75.1884
74.792
74.7192
74.9048
75.3494
77.8579
82.9944
90.2889
98.445
106.516
77.3131
56.6012
34.6452
16.492
5.20086
1.45072
1.11031
1.06678
1.05064
1.03191
1.02814
1.08603
1.29316
2.18745
5.28756
12.0289
22.731
36.9177
52.3949
66.0468
74.1258
76.5588
75.8038
74.9057
74.4533
74.4577
74.731
76.5143
80.8896
87.8096
95.3821
102.12
106.609
109.58
56.9735
37.1003
18.8837
6.48094
1.67644
1.16586
1.09515
1.07455
1.057
1.05165
1.10062
1.29043
2.44563
6.14119
13.7299
25.225
39.7564
55.0508
67.7598
74.4581
75.7239
74.9723
74.3266
74.07
74.2896
75.8083
80.1479
87.9482
97.9464
107.603
114.69
117.82
116.096
112.784
38.6711
21.3387
8.15517
2.18101
1.23279
1.129
1.10082
1.08513
1.07589
1.09791
1.19646
2.56108
6.6429
14.6708
26.6508
41.3875
56.4894
68.5375
74.1138
74.6716
74.1601
73.7781
73.7759
74.8086
78.6244
86.7362
99.232
114.064
128.081
137.805
140.947
136.883
126.243
115.721
23.5808
10.2493
3.00458
1.3553
1.17211
1.12894
1.11253
1.09924
1.10366
1.16559
2.45376
6.79817
14.9446
27.2237
42.2721
57.4912
69.2747
74.1085
74.1942
73.6978
73.2951
73.6031
75.6314
82.0526
94.4389
112.538
134.235
155.567
171.416
177.554
172.388
157.11
135.583
118.523
12.7345
4.23915
1.56159
1.23189
1.16184
1.13874
1.1224
1.11627
1.16612
2.20345
6.4018
14.6866
27.1049
42.6551
58.3867
70.2625
74.6591
74.3848
73.4697
72.9118
73.0692
75.1154
82.9184
98.7826
122.477
151.784
182.064
207.451
221.714
220.6
203.241
174.436
142.272
120.122
5.92806
1.89365
1.32017
1.20217
1.16674
1.14643
1.13383
1.17263
1.87098
5.59318
13.8038
26.4057
42.504
59.0602
71.3588
75.7739
74.9882
73.913
72.8766
72.6424
73.2311
79.1095
94.4933
120.102
154.393
192.141
226.515
252.235
263.511
253.876
224.953
184.807
144.92
120.636
2.71402
1.441
1.25506
1.19732
1.17157
1.15582
1.18547
1.50805
4.53055
12.3229
24.9715
41.5785
59.0428
72.1465
77.2226
76.6646
75.853
74.127
72.7362
72.5219
73.405
82.0936
101.25
132.448
172.539
213.465
247.93
273.259
285.075
269.291
232.269
185.902
143.475
121.009
1.69744
1.33198
1.23558
1.20187
1.17989
1.17878
1.24742
3.35506
10.3386
22.6899
39.6428
58.1149
72.6171
79.1094
79.7973
79.3916
77.8777
75.6185
73.4482
72.3767
72.9188
79.3424
96.7824
127.13
167.44
208.938
243.581
268.766
278.518
262.482
224.619
178.804
139.419
121.398
1.45678
1.29038
1.23368
1.20618
1.19422
1.25305
2.25779
7.92786
19.5682
36.4921
55.9406
72.333
81.0439
83.5765
84.4804
84.2062
82.3277
79.3917
76.0596
73.3748
72.279
74.4114
84.8518
108.354
144.419
185.301
220.15
243.493
252.518
239.551
206.742
166.934
134.535
121.855
1.37283
1.27561
1.23587
1.21526
1.24211
1.48914
5.27657
15.6939
32.0707
52.2093
70.7759
82.4223
87.4864
90.4118
92.3179
92.2771
90.3485
86.7239
82.0077
77.192
73.6235
72.2055
75.013
87.1819
113.642
150.706
186.657
210.026
218.456
210.411
185.313
154.256
130.252
122.437
1.33653
1.27346
1.24311
1.23856
1.31605
3.05348
11.2663
26.4847
46.7294
67.3759
82.4542
90.6672
96.0694
100.756
103.663
104.286
102.485
98.3592
92.4217
85.5327
78.909
74.0918
72.1441
74.6021
86.845
114.125
149.304
177.142
187.156
182.909
165.676
143.5
127.489
123.197
1.32346
1.27585
1.25566
1.29448
1.67065
6.74173
20.0064
39.5407
61.6864
80.3382
92.2466
100.396
107.995
114.417
118.574
120.039
118.54
114.181
107.368
98.8164
89.5607
80.9524
74.6353
72.0551
73.7658
85.4267
112.354
144.386
162.776
161.347
151.04
136.171
126.497
124.539
1.32127
1.28433
1.2824
1.36854
3.3009
13.0765
30.9452
53.5287
75.3653
91.4072
102.612
112.936
122.881
131.007
136.511
138.861
137.822
133.483
126.16
116.442
105.185
93.5298
82.9176
75.0571
71.8161
72.9039
84.1006
110.636
139.533
148.739
141.779
132.427
126.996
126.98
1.32444
1.2972
1.32255
1.52767
6.71596
21.5103
43.2065
67.153
87.424
102.171
114.984
128.031
140.085
149.869
156.638
159.875
159.403
155.28
147.765
137.337
124.69
110.769
96.8193
84.3609
75.1855
71.3792
72.2442
83.7797
110.909
137.432
137.614
131.456
127.71
129.686
1.33377
1.32136
1.38192
2.63385
12.2619
31.3955
55.7966
79.6709
98.5441
113.94
129.436
144.992
158.948
170.257
178.188
182.308
182.457
178.673
171.181
160.374
146.83
131.326
114.882
98.8384
84.8378
74.7951
70.7933
72.0842
85.3378
114.537
136.289
131.837
128.761
131.588
1.34535
1.34771
1.43567
4.93892
19.2948
42.0295
67.9366
91.0842
109.684
127.146
145.433
163.171
178.852
191.543
200.569
205.565
206.36
202.982
195.641
184.688
170.611
154.037
135.785
116.965
99.0526
83.9294
73.7243
70.2512
72.716
90.51
122.992
133.717
130.321
132.987
1.36129
1.38794
1.66375
8.57605
27.2827
52.7711
79.2485
101.84
121.447
141.57
162.368
182.029
199.285
213.265
223.377
229.263
230.721
227.751
220.56
209.51
195.079
177.815
158.361
137.554
116.593
97.1487
81.4277
72.0646
69.63
75.2259
101.712
132.249
131.332
134.141
1.38319
1.43106
2.52593
13.4723
35.7231
63.1555
89.7181
112.415
133.946
156.755
179.74
201.154
219.91
235.218
246.529
253.418
255.596
253.014
245.886
234.616
219.744
201.842
181.49
159.338
136.262
113.585
93.2315
77.7531
70.2019
69.2124
81.6861
117.306
133.504
135.551
1.40728
1.47062
4.0579
19.0494
44.2085
72.9287
99.5245
123.087
146.979
172.247
197.179
220.271
240.583
257.398
270.12
278.183
281.174
278.975
271.804
260.136
244.614
225.916
204.661
181.41
156.792
131.764
107.901
87.5443
73.6139
68.8834
71.0639
95.9409
136.441
136.818
1.43251
1.51083
6.23018
24.9429
52.4424
82.0106
108.872
133.902
160.231
187.689
214.433
239.236
261.28
279.868
294.263
303.706
307.63
305.825
298.507
286.235
269.791
250.012
227.647
203.286
177.419
150.662
124.131
99.7959
80.5507
69.9811
67.8959
78.2219
124.371
138.451
1.45802
1.56157
8.95189
30.8813
60.2356
90.4235
117.893
144.75
173.392
202.82
231.341
257.979
282.011
302.678
319.035
330.096
335.103
333.724
326.165
313.081
295.424
274.233
250.437
224.746
197.642
169.525
141.072
113.749
90.1505
73.7181
67.79
68.8433
96.3419
140.774
1.49202
1.86517
12.1505
36.657
67.4858
98.226
126.627
155.45
186.208
217.462
247.796
276.454
302.757
325.816
344.442
357.386
363.65
362.746
354.854
340.747
321.585
298.647
273.078
245.753
217.231
187.832
157.901
128.334
101.221
80.0151
68.713
66.4656
79.8564
142.539
1.52108
2.38422
15.4656
42.1302
74.15
105.47
135.041
165.814
198.486
231.484
263.712
294.589
323.438
349.197
370.41
385.527
393.251
392.886
384.568
369.212
348.239
323.22
295.553
266.291
236.105
205.328
174.129
142.931
113.158
87.9124
71.4666
66.3446
68.8713
110.243
1.54793
3.06949
18.7236
47.2114
80.219
112.185
143.059
175.673
210.081
244.781
278.992
312.27
343.905
372.65
396.774
414.378
423.791
424.041
415.199
398.35
375.244
347.812
317.741
286.279
254.201
221.884
189.426
156.944
125.227
96.7028
75.7568
66.7143
65.1616
66.3371
1.57417
3.86685
21.8177
51.8466
85.6992
118.376
150.591
184.891
220.882
257.254
293.513
329.325
363.932
395.914
423.261
443.67
455.015
455.967
446.496
427.9
402.336
372.168
339.42
305.541
271.404
237.413
203.639
170.027
136.898
105.892
80.9779
67.7813
65.036
65.1473
1.6
4.72337
24.6783
56.0083
90.6022
124.028
157.55
193.363
230.798
268.799
307.125
345.53
383.218
418.624
449.456
472.967
486.484
488.223
478.013
457.415
429.09
395.908
360.266
323.821
287.525
251.789
216.657
181.968
147.742
114.992
86.9478
69.4695
64.9648
64.6445
1.6254
5.59066
27.2607
59.6865
94.9402
129.12
163.86
201.005
239.747
279.303
319.648
360.614
401.39
440.3
474.79
501.635
517.532
520.125
509.056
486.216
454.886
418.507
379.854
340.788
302.319
264.844
228.368
192.651
157.502
123.493
93.1221
71.8402
65.0178
64.3822
1.65037
6.42657
29.537
62.8818
98.7233
133.629
169.462
207.752
247.653
288.644
330.88
374.268
418.008
460.352
498.521
528.815
547.228
550.708
538.646
513.368
478.904
439.291
397.659
356.044
315.499
276.378
238.639
201.977
166.043
131.098
98.9955
74.6187
65.1657
64.2375
1.67486
7.1964
31.4925
65.6009
101.96
137.533
174.309
213.556
254.448
296.698
340.613
386.164
432.581
478.092
519.746
553.416
574.362
578.704
565.497
537.684
500.137
457.462
413.08
369.15
326.747
286.172
247.321
209.845
173.269
137.626
104.34
77.5464
65.3832
64.1155
1.69887
7.87318
33.1218
67.8547
104.66
140.814
178.368
218.377
260.066
303.348
348.639
395.968
444.604
492.779
537.445
574.137
597.422
602.505
588.026
557.779
517.469
472.165
425.484
379.65
335.74
294
254.264
216.151
179.095
142.943
108.888
80.3873
65.6524
64.0136
1.72238
8.43778
34.4272
69.6571
106.83
143.462
181.618
222.186
264.454
308.483
354.769
403.374
453.594
503.678
550.525
589.481
614.584
619.811
604.428
572.192
529.784
482.576
434.275
387.12
342.179
299.655
259.329
220.801
183.453
146.977
112.446
82.8899
65.9417
63.9245
1.7454
8.87918
35.4175
71.0248
108.482
145.475
184.048
224.965
267.566
312.017
358.848
408.126
459.144
510.156
558.092
598.313
622.812
626.987
612.908
579.613
536.136
488.015
438.966
391.215
345.82
302.961
262.392
223.712
186.279
149.679
114.907
84.827
66.2126
63.8433
1.76796
9.19355
36.1072
71.977
109.63
146.853
185.656
226.704
269.373
313.884
360.762
410.039
460.977
511.8
559.428
599.304
622.59
626.939
612.312
579.205
535.937
488.061
439.251
391.711
346.497
303.795
263.364
224.817
187.515
151.001
116.218
86.0235
66.4222
63.7674
1.7901
9.38457
36.5143
72.5352
110.291
147.608
186.446
227.403
269.861
314.049
360.453
409.035
458.985
508.468
554.38
592.321
614.951
618.902
602.807
570.873
529.091
482.625
435.05
388.537
344.148
302.099
262.193
224.074
187.124
150.896
116.347
86.3689
66.5271
63.6938
1.81189
9.4566
36.6634
72.7257
110.484
147.754
186.435
227.067
269.029
312.511
357.92
405.125
453.223
500.311
543.288
577.976
598.486
601.054
585.48
555.433
516.075
472
426.533
381.786
338.819
297.889
258.873
221.47
185.089
149.341
115.272
85.8139
66.4745
63.6196
1.83312
9.44158
36.5699
72.5664
110.225
147.315
185.644
225.714
266.895
309.298
353.219
398.424
443.913
487.744
526.906
557.544
575.064
576.384
561.687
534.07
497.791
456.792
414.098
371.707
330.655
291.242
253.439
217.008
181.399
146.326
112.994
84.4386
66.1367
63.5425
1.85391
9.35769
36.2614
72.0845
109.537
146.315
184.098
223.368
263.494
304.469
346.46
389.131
431.409
471.371
506.214
532.537
546.848
546.992
533.32
508.305
475.361
437.802
398.298
358.669
319.888
282.296
245.966
210.718
176.052
141.836
109.508
82.2616
65.5587
63.4608
1.87442
9.22178
35.7702
71.3103
108.446
144.78
181.825
220.064
258.872
298.106
337.793
377.51
416.153
451.894
482.242
504.352
515.649
514.742
502.058
479.546
449.916
415.897
379.766
343.109
306.804
271.232
236.563
202.649
169.055
135.879
104.85
79.3535
64.8131
63.3692
1.8948
9.05124
35.1322
70.2766
106.98
142.736
178.859
215.842
253.085
290.309
327.398
363.866
398.631
430.034
455.959
474.15
482.769
480.958
469.174
448.968
422.481
391.913
359.139
325.481
291.717
258.264
225.364
192.865
160.428
128.487
99.0961
75.8421
64.001
63.2656
1.91524
8.86395
34.3862
69.0187
105.167
140.209
175.233
210.744
246.194
281.183
315.466
348.514
379.324
406.463
428.213
442.868
449.162
446.598
435.637
417.517
393.92
366.583
336.989
306.211
274.936
243.616
212.517
181.447
150.229
119.734
92.3858
71.9611
63.2313
63.1773
1.93597
8.67791
33.5731
67.5725
103.033
137.22
170.978
204.813
238.259
270.833
302.178
331.753
358.675
381.767
399.699
411.238
415.55
412.382
402.174
385.916
364.908
340.482
313.78
285.663
256.753
227.513
198.169
168.477
138.556
109.787
84.9908
68.1418
62.7316
63.1697
1.95726
8.51121
32.7352
65.9749
100.6
133.783
166.111
198.083
229.334
259.35
287.698
313.848
337.061
356.42
370.948
379.798
382.448
378.813
369.291
354.661
335.903
314.012
289.853
264.135
237.431
210.164
182.452
154.061
125.58
98.9607
77.39
65.0789
62.6112
63.2543
1.97951
8.38259
31.9168
64.2649
97.8931
129.909
160.647
190.582
219.466
246.813
272.158
295.008
314.769
330.767
342.325
348.895
350.177
346.188
337.271
324.018
307.152
287.403
265.442
241.874
217.201
191.742
165.482
138.361
111.62
87.7864
70.3502
62.9486
62.4777
63.5296
2.00307
8.31311
31.1648
62.4825
94.9317
125.603
154.592
182.332
208.699
233.286
255.659
275.376
291.983
305.012
314.021
318.682
318.847
314.582
306.166
294.038
278.723
260.769
240.721
219.087
196.249
172.368
147.371
121.676
97.2379
77.1133
65.0667
62.1302
63.0506
64.2136
2.02799
8.32964
30.5283
60.6661
91.7283
120.853
147.931
173.335
197.061
218.826
238.27
255.033
268.786
279.215
286.055
289.129
288.376
283.878
275.855
264.631
250.597
234.186
215.844
195.938
174.686
152.119
128.333
104.557
83.3723
68.1805
62.064
62.5135
64.3905
64.9214
2.0549
8.46539
30.0628
58.8498
88.2822
115.628
140.621
163.569
184.565
203.47
220.041
234.02
245.182
253.334
258.326
260.07
258.553
253.855
246.151
235.688
222.777
207.756
190.934
172.501
152.541
131.117
108.888
87.9702
71.3892
62.534
61.4075
65.033
67.2571
65.8642
2.08438
8.79448
29.7984
57.0576
84.5759
109.872
132.591
152.975
171.194
187.244
201.015
212.365
221.163
227.302
230.703
231.326
229.18
224.342
216.953
207.208
195.34
181.562
166.009
148.742
129.867
109.762
90.0719
73.4812
63.0792
60.5446
64.4452
70.3219
70.7304
66.6869
2.13998
9.4046
29.7864
55.2988
80.567
103.497
123.726
141.449
156.884
170.139
181.225
190.114
196.761
201.121
203.156
202.85
200.226
195.347
188.318
179.271
168.323
155.541
140.945
124.666
107.033
89.1504
73.6977
63.1842
59.9425
63.2893
70.4352
74.8923
72.1639
67.1608
2.2924
10.4128
30.0876
53.5593
76.1787
96.3766
113.871
128.837
141.516
152.089
160.665
167.312
172.05
174.875
175.773
174.741
171.793
166.962
160.292
151.819
141.536
129.476
115.719
100.754
85.2473
71.5101
62.3534
59.2531
62.2038
69.2643
75.657
76.1698
71.6574
67.4771
2.67629
11.993
30.774
51.7904
71.2918
88.3496
102.837
114.934
124.894
132.943
139.252
143.937
147.055
148.617
148.617
147.042
143.869
139.079
132.63
124.503
114.702
103.507
91.1044
78.6462
67.1847
60.4371
58.5372
61.4177
68.4855
74.7371
77.1606
74.3396
70.5498
67.8038
3.55406
14.4038
31.9164
49.8743
65.7183
79.2107
90.4143
99.5361
106.836
112.55
116.856
119.872
121.657
122.213
121.515
119.502
116.102
111.25
104.936
97.2372
88.447
79.2187
69.5864
61.7954
57.7029
57.6386
61.24
68.7364
74.0717
74.9661
73.7326
72.2297
69.7401
68.1892
5.73372
18.1645
33.5912
47.613
59.2514
68.8427
76.5903
82.7073
87.4331
90.9828
93.4995
95.0828
95.7704
95.4919
94.1884
91.7847
88.2295
83.5799
78.0925
72.0008
65.9365
60.3095
56.2518
55.3497
56.933
63.5037
71.3058
74.7371
73.3209
72.5748
71.8494
70.8269
69.6127
69.1887
10.0951
23.8826
35.8835
44.71
51.6945
57.2444
61.5017
64.6807
66.9792
68.5673
69.565
69.934
69.6544
68.7585
67.2314
65.1186
62.5594
59.7774
57.0173
54.5724
52.8242
51.6424
54.1411
59.6812
68.68
79.4755
75.5458
74.2425
73.4358
72.6437
71.9576
71.3747
71.0835
72.0028
27.9999
33.1148
38.7247
41.6407
43.8328
45.8123
47.2467
48.1475
48.6824
48.9807
49.0859
49.1404
49.1941
49.2486
49.3045
49.3634
49.4277
49.5018
49.593
49.717
49.9013
50.4407
75.8217
85.5219
84.0805
82.5173
81.8254
80.9473
80.1823
78.63
77.8821
77.8212
79.611
83.3971
33.3641
43.4738
66.7146
94.2968
120.422
140.47
33.2728
46.9956
73.061
101.542
127.056
145.105
33.1902
49.9465
77.2503
105.213
128.777
144.161
33.1114
51.939
79.1303
105.368
125.519
135.784
33.0339
52.8107
78.7388
102.163
118.451
123.946
32.9556
52.5399
76.2218
96.1076
107.875
108.643
32.8591
51.1777
71.9898
87.7083
94.7355
91.0831
32.5197
49.0551
66.3764
77.6101
79.9804
72.6317
31.9435
46.2612
59.7684
66.5558
64.7768
54.6865
31.1306
42.9435
52.5063
55.1085
49.9859
38.3902
30.0712
39.2323
44.9692
43.9495
36.4979
24.8458
28.7929
35.257
37.4976
33.676
25.0635
14.6164
27.4667
31.1943
30.4268
24.6767
16.0214
7.69628
26.1933
27.2422
24.0631
17.3221
9.61723
3.86212
24.8746
23.5242
18.5622
11.6415
5.43026
2.14974
23.5571
20.1255
14.0472
7.63294
3.15603
1.64365
22.2761
17.0868
10.4594
4.90665
2.0873
1.49068
20.9535
14.467
7.76929
3.29304
1.72576
1.42391
19.709
12.2457
5.76453
2.41075
1.58593
1.39194
18.587
10.4087
4.37499
2.01053
1.51665
1.37929
17.5997
8.89968
3.45112
1.82065
1.47929
1.37668
16.7446
7.66866
2.87282
1.71735
1.46063
1.38064
16.0138
6.6971
2.53118
1.65639
1.45333
1.38793
15.3967
5.94464
2.32069
1.61981
1.45317
1.39924
14.8819
5.36709
2.18379
1.59889
1.4581
1.4124
14.4395
4.91657
2.0917
1.58845
1.46666
1.42796
14.0646
4.58019
2.02883
1.58527
1.47794
1.44511
13.7539
4.33077
1.98615
1.58724
1.49126
1.4641
13.5027
4.14555
1.95799
1.59301
1.50641
1.48456
13.3055
4.0083
1.94057
1.60173
1.52303
1.50539
13.1563
3.90779
1.93136
1.61277
1.53964
1.52632
13.0499
3.8361
1.92855
1.62555
1.55626
1.54724
12.9811
3.78749
1.93082
1.63967
1.57307
1.5681
12.9463
3.75781
1.93716
1.65482
1.59024
1.58887
12.9414
3.74401
1.94678
1.67085
1.60821
1.60953
12.9632
3.74193
1.95911
1.6876
1.62653
1.63005
12.9931
3.76028
1.97376
1.70496
1.64507
1.65044
13.0233
3.8036
1.99038
1.72282
1.66375
1.67066
13.0537
3.86931
2.00878
1.74112
1.68257
1.69088
13.0844
3.954
2.02799
1.75978
1.70149
1.71116
13.1155
4.05354
2.04784
1.77868
1.72051
1.7314
13.147
4.16335
2.06821
1.79772
1.73957
1.7515
13.179
4.27834
2.0889
1.81684
1.75868
1.77145
13.2114
4.39274
2.1097
1.836
1.77782
1.7913
13.2442
4.49998
2.13033
1.85516
1.79698
1.8111
13.2773
4.59227
2.15047
1.87424
1.81617
1.83094
13.3106
4.66196
2.16987
1.89316
1.83537
1.8509
13.3442
4.69704
2.18772
1.91171
1.85454
1.8711
13.3457
4.70381
2.20294
1.92969
1.87369
1.89158
13.2999
4.68343
2.21484
1.94695
1.89283
1.91243
13.1987
4.6325
2.22279
1.96334
1.91196
1.93362
13.034
4.54755
2.22634
1.97875
1.93109
1.95501
12.8012
4.4272
2.22525
1.99312
1.95024
1.97698
12.5002
4.27314
2.21957
2.00646
1.96943
2.00069
12.1349
4.09023
2.20984
2.01892
1.98891
2.02877
11.7138
3.88696
2.19714
2.03066
2.00867
2.06215
11.2517
3.67507
2.18289
2.04263
2.03041
2.10449
10.7717
3.46748
2.16934
2.05298
2.04996
2.14718
10.3007
3.27804
2.15905
2.06421
2.09354
2.73232
9.86815
3.11437
2.14972
2.08858
3.33712
12.3378
9.54997
3.00045
2.1507
2.13845
5.7051
15.688
9.29308
2.92049
2.15834
2.43388
7.67337
15.7095
9.08918
2.86241
2.16494
2.82222
8.93081
15.2016
108.361
108.092
109.229
110.907
113.466
116.717
120.014
123.643
126.478
128.039
128.391
128.638
128.883
129.146
129.451
129.838
130.381
131.104
134.175
276.774
409.297
405.568
399.453
395.351
394.157
392.113
391.212
391.063
393.817
404.463
425.243
466.82
542.144
658.437
103.316
94.9094
98.0958
102.556
110.589
120.985
132.831
144.76
155.09
162.625
166.876
167.029
163.675
157.838
150.696
143.721
138.432
135.238
134.638
154.832
239.49
367.008
345.88
331.753
327.392
323.821
320.752
318.102
316.167
315.934
319.491
334.92
372.94
439.327
98.5839
84.4997
88.3074
96.0748
109.826
128.857
152.1
176.997
200.271
219.042
231.5
236.495
233.622
223.792
208.635
190.349
171.764
155.763
143.789
138.898
150.391
229.027
318.405
329.469
320.466
317.844
314.64
310.764
306.156
301.951
299.873
300.713
312.594
338.578
93.0493
74.7043
80.6954
91.4201
110.427
138.338
174.552
214.982
254.172
287.196
310.684
322.839
322.994
311.812
291.032
263.124
231.47
200.288
173.181
152.089
142.976
158.019
231.026
310.221
331.973
335.177
336.118
331.288
321.826
309.534
298.253
292.779
295.098
309.033
87.3786
67.2376
74.0761
87.5316
111.605
148.851
199.533
257.438
314.33
363.045
398.784
419.097
423.308
412.126
387.402
351.761
308.708
262.982
219.926
183.342
155.961
145.706
170.607
251.563
325.525
352.845
365.572
365.08
352.669
331.264
307.895
291.328
286.681
293.764
82.2111
64.9082
68.9241
83.8871
112.841
159.823
226.142
302.608
377.737
442.301
490.414
519.083
527.543
516.77
488.953
447.036
394.61
336.386
278.401
226.456
183.87
155.245
149.019
190.517
281.549
354.178
389.177
401.809
391.204
362.172
325.57
295.547
283.023
284.042
78.0633
64.4307
65.8121
80.3318
113.776
170.606
253.042
347.959
440.465
519.915
579.817
616.635
629.302
618.93
588.286
540.967
480.923
412.699
342.216
276.167
219.83
176.474
153.092
159.245
221.688
320.38
395.158
432.489
429.618
397.312
348.212
303.771
281.064
277.36
74.9591
64.1114
64.2676
76.9726
114.213
180.532
278.556
390.395
498.017
590.424
660.958
705.446
722.135
712.07
678.7
626.588
560.381
484.637
404.761
327.257
259.048
203.712
165.675
155.227
181.689
269.11
370.653
439.247
457.772
430.5
372.751
314.907
280.415
272.517
72.7741
63.893
63.8336
74.1418
114.085
188.973
300.89
426.735
545.997
648.491
727.625
778.648
799.007
789.116
753.239
697.186
626.456
545.744
459.839
374.591
297.421
232.768
183.764
158.837
163.13
217.892
321.942
418.426
462.635
452.528
394.333
326.589
281.329
268.997
71.3197
63.7105
63.5408
71.9136
113.412
195.375
318.36
454.175
580.693
689.341
773.637
828.835
852.747
842.781
804.758
746.168
673.217
590.539
502.278
413.414
331.024
260.273
203.845
167.332
160.853
184.588
266.343
370.643
442.588
462.368
407.21
336.067
282.782
266.226
70.4071
63.5399
63.2927
70.1864
112.24
199.267
329.553
470.579
599.414
709.215
793.791
849.339
876.267
863.799
825.305
767.306
695.686
614.757
528.137
440.023
356.669
283.46
223.138
178.551
161.787
168.883
217.962
309.147
394.632
432.534
405.15
340.331
283.766
263.52
69.8144
63.4403
63.0781
68.8674
110.585
200.237
333.386
474.524
600.586
706.001
785.418
836.098
856.541
846.729
811.267
757.657
691.232
615.961
535.057
451.916
372.057
300.358
239.631
191.631
165.747
165.061
185.874
250.336
329.909
382.313
381.062
335.465
282.737
260.742
69.2062
63.4291
62.886
67.8526
108.349
197.76
328.905
465.18
583.67
679.671
749.408
791.41
806.393
796.332
765.243
718.37
660.098
593.801
522.211
448.204
376.07
309.809
252.163
204.41
172.384
165.313
170.662
204.056
264.659
320.049
340.226
318.05
278.081
257.599
68.4543
63.5281
62.7062
67.0259
105.311
191.073
315.482
442.504
549.164
631.976
689.418
721.53
730.625
719.891
692.92
653.551
605.084
550.124
490.817
429.396
368.705
311.532
260.212
215.915
181.218
167.062
167.203
177.8
212.989
259.18
290.572
291.172
268.707
253.807
67.4495
63.8562
62.5249
66.2839
101.238
179.853
292.703
406.362
498.168
565.417
609.25
631.344
634.773
623.199
600.063
568.395
530.645
488.656
443.837
397.473
350.972
305.873
263.744
225.663
192.694
172.369
167.376
168.682
181.575
211.509
243.419
259.247
254.773
249.322
66.1181
64.523
62.3237
65.5329
95.9244
163.994
260.514
356.968
432.108
482.971
512.694
524.752
522.995
511.007
491.929
468.288
441.867
413.775
384.586
354.568
323.933
293.072
262.62
233.233
205.252
182.55
170.618
167.86
169.587
181.967
206.191
228.56
238.291
243.526
64.4854
65.2809
62.1472
64.6914
89.2972
143.97
219.847
295.149
352.331
387.646
404.784
408.154
402.027
390.082
375.15
359.264
343.648
328.814
314.697
300.84
286.589
271.313
254.577
236.197
216.361
196.286
180.085
170.912
168.25
170.311
182.418
203.4
221.834
236.961
62.6682
65.5111
62.0079
63.7357
81.6315
121.268
173.809
224.097
260.884
280.436
285.43
280.829
270.806
258.594
246.668
236.641
229.407
225.3
224.42
226.168
229.362
232.432
233.535
231.336
221.294
208.021
192.878
179.716
171.313
168.798
171.945
185.972
207.301
230.202
60.6947
65.7816
61.8012
62.7412
73.6943
98.4136
128.597
153.145
167.213
170.514