/*--------------------------------*- C++ -*----------------------------------*\
| =========                 |                                                 |
| \\      /  F ield         | OpenFOAM: The Open Source CFD Toolbox           |
|  \\    /   O peration     | Version:  v2012                                 |
|   \\  /    A nd           | Website:  www.openfoam.com                      |
|    \\/     M anipulation  |                                                 |
\*---------------------------------------------------------------------------*/
FoamFile
{
    version     2.0;
    format      ascii;
    class       volScalarField;
    location    "574";
    object      k;
}
// * * * * * * * * * * * * * * * * * * * * * * * * * * * * * * * * * * * * * //

dimensions      [0 2 -2 0 0 0 0];


internalField   nonuniform List<scalar> 
6018
(
0.00965433
0.0114026
0.0131396
0.0148725
0.0166155
0.0183863
0.0202287
0.0222036
0.0243841
0.0268583
0.0297389
0.0331752
0.0373708
0.0426139
0.0493247
0.0581325
0.0700031
0.0864705
0.110103
0.145525
0.014775
0.0164261
0.0182796
0.0203466
0.0226596
0.0252533
0.0281755
0.0314995
0.0353193
0.0397484
0.0449255
0.0510212
0.0582482
0.0668717
0.0772094
0.0896448
0.104618
0.122583
0.143918
0.168552
0.028409
0.0311842
0.0340951
0.0371693
0.0404476
0.0439758
0.0478106
0.0520187
0.0566765
0.0618705
0.0676996
0.0742793
0.081739
0.0902211
0.0998972
0.110956
0.123594
0.138012
0.154408
0.173005
0.0393041
0.0422633
0.0453272
0.0485344
0.0519271
0.0555501
0.0594517
0.063685
0.0683078
0.0733846
0.0789881
0.0852007
0.0921172
0.0998504
0.108535
0.118333
0.129444
0.142126
0.156735
0.17378
0.0452278
0.0480236
0.0509428
0.0540227
0.0572998
0.060811
0.0645955
0.0686953
0.0731575
0.0780351
0.0833897
0.0892936
0.0958343
0.10312
0.111288
0.120514
0.131028
0.143139
0.157267
0.173985
0.0466935
0.0492183
0.0519082
0.0547968
0.0579152
0.0612953
0.0649714
0.0689823
0.0733722
0.0781894
0.0834973
0.0893668
0.0958827
0.103151
0.111307
0.120524
0.131033
0.143141
0.157268
0.173985
0.0437267
0.0458767
0.0482505
0.0508758
0.0537804
0.056994
0.0605511
0.0644924
0.0688938
0.0738074
0.0792883
0.085409
0.0922579
0.0999428
0.108593
0.118367
0.129461
0.142134
0.156737
0.17378
0.0354033
0.0369429
0.0387693
0.0409064
0.0433758
0.0462046
0.049476
0.0532717
0.0576121
0.0625641
0.0682077
0.0746444
0.0819921
0.0903908
0.100008
0.111023
0.123632
0.13803
0.154414
0.173005
0.0207761
0.0213297
0.022213
0.0234371
0.0250362
0.0270889
0.0296104
0.0326166
0.036183
0.0404102
0.0454283
0.0514001
0.0585305
0.0670763
0.0773517
0.0897383
0.104673
0.122612
0.14393
0.168554
0.0187452
0.0184383
0.0184479
0.0188286
0.0195261
0.0205121
0.0217706
0.0233157
0.0251821
0.0274284
0.030144
0.03346
0.0375677
0.0427465
0.0494105
0.0581846
0.0700318
0.0864842
0.110108
0.145526
7.59652e-05
9.76667e-05
0.000100599
8.43065e-05
5.61403e-05
3.0445e-05
1.46853e-05
7.62895e-06
5.99253e-06
9.7903e-06
2.49534e-05
5.20617e-05
8.19711e-05
0.00010334
0.000109167
0.000108473
0.000106809
0.000110429
0.000122516
0.000133435
0.000138951
0.000143197
0.000149922
0.000148964
0.000144699
0.000157785
0.0003091
0.000599761
0.00112182
0.0019428
0.00308733
0.00452594
0.006162
0.00789135
0.000351735
0.000302516
0.000217234
0.000149978
0.000100383
6.51347e-05
4.18896e-05
2.83945e-05
2.46915e-05
4.81436e-05
0.00014822
0.000307668
0.000451016
0.000509685
0.000503635
0.000527478
0.000584488
0.000689058
0.000839992
0.000996034
0.00113349
0.00137239
0.00181338
0.00237665
0.00305957
0.00386105
0.00477933
0.00579408
0.00689484
0.0080807
0.00933711
0.0106463
0.011982
0.0133099
0.000980464
0.000931083
0.000796849
0.000624513
0.000457422
0.000320368
0.000221157
0.000158849
0.00014125
0.000240781
0.000659758
0.00130739
0.00193449
0.00238134
0.00278579
0.00314246
0.00360285
0.00426443
0.00524475
0.00615274
0.00696955
0.00770076
0.00842076
0.00918216
0.0100449
0.0110347
0.0121782
0.0134909
0.0149897
0.0166831
0.0185787
0.0207688
0.0231705
0.0257269
0.00152049
0.00147208
0.00131856
0.00112034
0.000898972
0.000686714
0.000512502
0.000399207
0.000409319
0.000776271
0.00192488
0.0035034
0.00502906
0.00661487
0.00786671
0.00913006
0.0104711
0.0117074
0.0126019
0.0130414
0.0132303
0.0134434
0.0138623
0.0145669
0.0155874
0.0169306
0.018593
0.0205544
0.022792
0.0252794
0.0279296
0.0306879
0.0335142
0.0363855
0.00210577
0.00201498
0.00181698
0.0015764
0.00131241
0.00105376
0.000838537
0.000746742
0.00107808
0.00248745
0.00501467
0.00800086
0.010781
0.0130875
0.0149137
0.0164898
0.0174998
0.0176983
0.0173579
0.0168759
0.0166075
0.016759
0.0174021
0.0185273
0.0200859
0.0220107
0.0242244
0.0266465
0.029203
0.0318306
0.034483
0.0371409
0.0398043
0.0424904
0.00289584
0.00272021
0.00243115
0.00209136
0.00174814
0.0014414
0.00124987
0.00148513
0.00305686
0.00658602
0.0109676
0.0150292
0.0178963
0.0198982
0.021216
0.0216677
0.0211492
0.0200557
0.0190089
0.0183989
0.0183986
0.0190243
0.0202055
0.0218317
0.023781
0.0259388
0.0282091
0.0305215
0.0328316
0.0351195
0.0373873
0.0396517
0.041937
0.0442732
0.00390773
0.00360367
0.00316789
0.00267694
0.00222923
0.00192369
0.00204373
0.00348518
0.00740192
0.013121
0.0185214
0.0220571
0.024095
0.0249249
0.0246441
0.023337
0.0216394
0.0201562
0.01929
0.0191623
0.0197216
0.0208331
0.022336
0.0240773
0.0259303
0.0278024
0.0296376
0.0314113
0.0331249
0.0347979
0.0364626
0.0381529
0.0398981
0.0417375
0.00514382
0.00461616
0.00396435
0.00330072
0.00281366
0.00280229
0.00406505
0.00781206
0.0144304
0.0207699
0.0252777
0.0274995
0.0278384
0.0267528
0.0247477
0.02252
0.0206834
0.0195821
0.0192867
0.0196839
0.0205863
0.0217978
0.0231488
0.0245106
0.025798
0.0269659
0.028004
0.028924
0.0297556
0.0305387
0.031316
0.0321377
0.0330584
0.0341199
0.00646881
0.00567008
0.00479477
0.0040587
0.00385507
0.00492825
0.00852408
0.0146205
0.0217494
0.0272856
0.0300323
0.0301488
0.0283764
0.0257326
0.0230192
0.0208383
0.0194824
0.018959
0.0191048
0.0196924
0.0205017
0.021352
0.0221125
0.0227008
0.0230748
0.023224
0.0231566
0.0229013
0.0224952
0.0219865
0.0214448
0.0209542
0.0206079
0.0205213
0.00780181
0.00678808
0.00582018
0.00538183
0.00624867
0.00919212
0.014655
0.021601
0.0278957
0.031458
0.0317715
0.029697
0.0265236
0.0233461
0.0208096
0.0191663
0.0183726
0.0182228
0.0184634
0.0188603
0.0192306
0.0194481
0.0194408
0.0191802
0.0186741
0.0179563
0.0170794
0.0160868
0.0150227
0.0139228
0.0128544
0.0121324
0.0121663
0.0137655
4.81709e-07
2.70223e-06
6.43491e-06
1.08043e-05
2.04863e-05
4.61149e-05
2.36488e-06
7.97474e-06
4.45956e-05
0.000147364
0.000262116
0.000338085
5.65673e-06
2.78578e-05
0.000187445
0.00046252
0.000729906
0.000911214
8.32255e-06
6.82974e-05
0.000370022
0.000794729
0.00117334
0.0014205
1.01523e-05
0.000140771
0.000621189
0.0012087
0.00170058
0.00200084
1.37843e-05
0.000277529
0.000994483
0.00179586
0.00243666
0.00279923
5.82397e-05
0.000512522
0.00154612
0.00264327
0.00347189
0.00388583
0.000209233
0.000878614
0.00234718
0.00383631
0.00487072
0.00528513
0.000551542
0.00141292
0.00348288
0.00546234
0.0066334
0.00689644
0.00108449
0.00215548
0.00504179
0.00747812
0.00861626
0.00857918
0.00918636
0.00810731
0.00748654
0.00802604
0.010396
0.0149765
0.021299
0.0276441
0.0318468
0.0326794
0.0306157
0.0271092
0.0235211
0.0206442
0.0187232
0.0176725
0.0172572
0.0172136
0.017317
0.0174076
0.0173953
0.0172514
0.0169884
0.0166237
0.0161138
0.0154399
0.0145398
0.0133511
0.011841
0.0100263
0.00799972
0.00592701
0.00401959
0.00300161
0.0108215
0.0100661
0.0102322
0.0119535
0.0156206
0.0210048
0.0269152
0.0313902
0.0328474
0.0311735
0.0276294
0.0237617
0.0205644
0.0183693
0.0170923
0.0164904
0.0163098
0.0163517
0.0164982
0.0167035
0.0169659
0.0172852
0.0176186
0.0178516
0.017815
0.0173342
0.0162556
0.0145339
0.0122503
0.00953329
0.00638858
0.0034444
0.00137816
0.000554591
0.0130546
0.0128063
0.013866
0.0166118
0.0209757
0.0261365
0.0305141
0.03246
0.0313711
0.0280813
0.0241127
0.0206583
0.0182086
0.0167462
0.0160471
0.0158774
0.016072
0.0165485
0.0172876
0.0182774
0.0194553
0.0206589
0.0216172
0.021998
0.0215121
0.0199996
0.0175346
0.0144007
0.0110811
0.0080668
0.00553633
0.00344745
0.00155722
0.000377373
0.0157222
0.0161425
0.0179947
0.021334
0.0256044
0.0295832
0.0317688
0.0312636
0.0284272
0.024557
0.020948
0.0182831
0.0166694
0.0159395
0.0158866
0.0163735
0.0173406
0.0187603
0.0205678
0.0225805
0.0244615
0.0257495
0.0259805
0.0248537
0.0223663
0.018845
0.0149732
0.0115897
0.00885608
0.00689691
0.00530019
0.00380102
0.00186992
0.000327759
0.0187593
0.0197811
0.0221317
0.0254709
0.0288607
0.0310266
0.0309708
0.0286578
0.0250507
0.0214101
0.0185853
0.0168463
0.0161178
0.016236
0.0170817
0.0185973
0.0207215
0.0232932
0.0259735
0.0282349
0.0294698
0.0291869
0.0272158
0.0237984
0.0194928
0.0153064
0.0120295
0.00962868
0.00779785
0.00640162
0.00525082
0.00403784
0.00209095
0.000297579
0.0219233
0.02334
0.0257701
0.0285033
0.0304431
0.0306443
0.0288116
0.0255608
0.0220045
0.0190835
0.0172398
0.0165163
0.0168081
0.0180168
0.020068
0.0228447
0.0260667
0.0292279
0.0316422
0.0326251
0.0317416
0.0289785
0.0247354
0.019715
0.0155696
0.0124251
0.0100348
0.00824298
0.00692811
0.00593628
0.00510656
0.00409402
0.00218527
0.0002575
0.0248865
0.0263887
0.0284535
0.0301503
0.0304315
0.0289652
0.0260808
0.0226873
0.0197332
0.0177997
0.0170637
0.0174969
0.0190224
0.0215435
0.0248705
0.0286045
0.0320843
0.0345072
0.0351695
0.0337151
0.0302141
0.0251235
0.0196988
0.0155738
0.0123719
0.00996653
0.00820876
0.00692556
0.00600554
0.00533938
0.00476832
0.00393683
0.00213023
0.000217152
0.0273987
0.0286612
0.0299738
0.0304202
0.0292047
0.0266372
0.0234322
0.0204915
0.0184811
0.0176942
0.0182063
0.0199639
0.0228472
0.0265905
0.0306792
0.0343306
0.0366604
0.0369742
0.0349813
0.030807
0.0246093
0.0192356
0.0149898
0.0117779
0.00937981
0.00765135
0.00644451
0.00559027
0.0050012
0.00460314
0.00424272
0.00355876
0.00189133
0.000212456
0.0292898
0.0300126
0.0303543
0.0295763
0.0272794
0.0242518
0.0213324
0.0192382
0.0183645
0.0188603
0.0207363
0.023841
0.0278424
0.0321202
0.0357974
0.0379446
0.0378869
0.0353799
0.0304773
0.023388
0.0178913
0.0136869
0.0105697
0.00830371
0.00672265
0.0056104
0.00483817
0.00430912
0.00397604
0.00377896
0.00355739
0.00300648
0.00156552
0.000208888
0.0304591
0.0304552
0.029807
0.0280331
0.0251822
0.0222663
0.0200469
0.0190165
0.0194154
0.0212712
0.0244407
0.0285325
0.0328395
0.0364083
0.0382883
0.0378398
0.0348782
0.0294625
0.021715
0.0159626
0.0117788
0.00885374
0.00681259
0.005426
0.00449731
0.00385764
0.00341717
0.00313071
0.00298671
0.00292669
0.0028356
0.00243265
0.00121691
0.000194933
0.0309226
0.030146
0.0286537
0.0262251
0.0233093
0.0209149
0.019647
0.0198428
0.0215505
0.0246244
0.0286477
0.0328503
0.0362121
0.0377673
0.0369172
0.0335626
0.0278792
0.020174
0.0138911
0.00973686
0.00694034
0.00518449
0.00402294
0.00325994
0.00275957
0.00242528
0.00221215
0.00210848
0.00210948
0.00216572
0.00219979
0.00190243
0.000883964
0.000168308
0.0307885
0.0293114
0.0272109
0.0244849
0.0218966
0.0203141
0.0201702
0.0215918
0.0244352
0.0282531
0.0322527
0.0353662
0.0365958
0.0353733
0.0316867
0.0259418
0.0186006
0.012284
0.00792027
0.00534314
0.00378439
0.00283141
0.00222537
0.00182685
0.0015616
0.00139327
0.0013143
0.00132976
0.00143094
0.00159073
0.00168619
0.00143547
0.000581294
0.000142018
0.0302118
0.0281841
0.0257469
0.0230585
0.0210931
0.0204948
0.021463
0.0239465
0.0274633
0.0312011
0.0340771
0.0350535
0.0335527
0.029622
0.0237964
0.0168203
0.0109152
0.00675974
0.00426103
0.0029274
0.00219375
0.00174293
0.00141596
0.001163
0.000963463
0.000827585
0.000777813
0.000833197
0.000978502
0.0011777
0.00126509
0.00099977
0.000354031
0.00011426
0.029348
0.0269422
0.0243739
0.0220448
0.0208771
0.0212855
0.023259
0.0263897
0.0298496
0.0325395
0.0333883
0.031775
0.0277668
0.0220182
0.0155447
0.00966
0.00579776
0.00361539
0.0025386
0.00200313
0.00168671
0.0014529
0.00123878
0.00101898
0.000801167
0.000624696
0.000536823
0.000566332
0.000696411
0.000852343
0.000884275
0.000643599
0.000208466
8.00904e-05
0.0283378
0.0257328
0.0232426
0.0214907
0.0212017
0.0225084
0.0251466
0.028309
0.0308885
0.0317584
0.0302266
0.0263193
0.0207253
0.0145083
0.00888921
0.00510399
0.00317238
0.00232364
0.00193409
0.00171598
0.00156419
0.00143123
0.00128189
0.00109034
0.00085738
0.000626561
0.000466531
0.000424278
0.00048894
0.000580199
0.000573955
0.000389452
0.0001186
4.80757e-05
0.0272917
0.0246535
0.0224103
0.0213258
0.0218538
0.0238642
0.026672
0.0291862
0.0302257
0.0289741
0.0253622
0.0200522
0.0141137
0.00867954
0.00477702
0.00288232
0.00215494
0.00185369
0.00169357
0.00159184
0.00151968
0.00145528
0.00137065
0.00123279
0.00102094
0.000755744
0.00050966
0.000362494
0.000335874
0.000372068
0.000351892
0.000226031
6.49045e-05
2.46535e-05
0.0262752
0.0237006
0.0218617
0.0214795
0.0226854
0.0250278
0.0274591
0.0287635
0.0279738
0.0248413
0.0199396
0.014315
0.00905192
0.00505603
0.0028352
0.0020252
0.00175838
0.00162968
0.00155034
0.0015002
0.00147083
0.00145207
0.00142448
0.00135646
0.00121093
0.00097076
0.00067249
0.00040992
0.000265778
0.000236883
0.000209168
0.000127983
3.42224e-05
1.10789e-05
0.0253268
0.0228963
0.0215494
0.0217969
0.0234799
0.0257317
0.0273119
0.0271109
0.0246278
0.0202472
0.0149492
0.00984179
0.0057256
0.00315207
0.00202936
0.00168544
0.00157377
0.00150874
0.00146323
0.00143444
0.00142036
0.00141962
0.00142309
0.00141031
0.00134534
0.00118802
0.000922203
0.000594313
0.000316329
0.00017915
0.000129084
7.2884e-05
1.78474e-05
4.76896e-06
0.024471
0.0222631
0.0214452
0.0221898
0.0240516
0.0258225
0.026254
0.0245709
0.0208554
0.0159743
0.0109614
0.00671464
0.00376636
0.00224835
0.00170754
0.00155762
0.00150754
0.00147338
0.00144141
0.00141668
0.00139815
0.00139196
0.00139564
0.00140193
0.00138863
0.00131698
0.0011451
0.000855979
0.000504571
0.000219997
0.000102894
4.67242e-05
1.01627e-05
2.50407e-06
0.0236641
0.0217623
0.0214102
0.0225369
0.0242775
0.025278
0.0244763
0.0215806
0.0171971
0.0123581
0.00799767
0.00468141
0.00270155
0.00185401
0.00160488
0.00154802
0.00153238
0.00151866
0.00149613
0.00146522
0.00143039
0.00140575
0.00138888
0.00138089
0.00137555
0.00134687
0.00125558
0.00105841
0.000744405
0.000386961
0.000135828
4.35351e-05
7.99878e-06
2.28554e-06
0.022933
0.0213879
0.0214421
0.0227527
0.0241152
0.0241927
0.0222689
0.0185631
0.0139993
0.00955632
0.00590818
0.00343352
0.00216345
0.0017128
0.00161472
0.00161084
0.0016195
0.00162064
0.00160484
0.00157331
0.00153048
0.00148239
0.00143494
0.00139505
0.00136687
0.00133702
0.00127825
0.00114831
0.000907513
0.000565059
0.000225959
5.91884e-05
1.04178e-05
3.45977e-06
0.0222779
0.0210853
0.0214876
0.0227908
0.023593
0.02273
0.019918
0.0157954
0.0113749
0.00744926
0.0044917
0.00270717
0.00192239
0.0017042
0.00169167
0.0017229
0.00174999
0.00176241
0.00175246
0.00172112
0.00167156
0.00160866
0.00153991
0.00146653
0.00140329
0.00134697
0.0012828
0.00117892
0.000991031
0.000693122
0.000340456
8.83389e-05
1.48678e-05
5.35325e-06
0.021701
0.0208547
0.0215138
0.0226437
0.022786
0.0210681
0.0176422
0.0134064
0.00929624
0.00590633
0.00356478
0.00231112
0.00184823
0.00176979
0.00181061
0.00186675
0.00190769
0.00192841
0.00192423
0.00189607
0.00184567
0.00177535
0.00168908
0.00159376
0.00149716
0.00140528
0.00131515
0.00120757
0.0010445
0.000785056
0.000437606
0.000131912
1.95699e-05
7.70639e-06
0.0212068
0.0206904
0.0215015
0.022331
0.021789
0.0193617
0.0155734
0.0114203
0.00768305
0.0048012
0.00297939
0.00211877
0.00186772
0.00187591
0.00195112
0.0020241
0.00207466
0.00210084
0.00210226
0.00207975
0.00203398
0.00196513
0.0018741
0.00176426
0.00164239
0.00151684
0.0013927
0.00126327
0.0011019
0.000866006
0.000533472
0.00018993
2.74774e-05
9.78915e-06
0.0207975
0.0205815
0.0214433
0.0218885
0.0206944
0.0177225
0.0137683
0.00980459
0.00644922
0.00402551
0.00262546
0.00204974
0.00193829
0.002001
0.00209777
0.00218102
0.00223772
0.00226566
0.00227192
0.00225635
0.00221885
0.00215788
0.00207146
0.00195916
0.00182413
0.00167375
0.00151698
0.00135703
0.00118035
0.00095128
0.000632134
0.000261861
3.856e-05
1.08925e-05
0.020456
0.0205124
0.021343
0.0213591
0.0195797
0.0162178
0.0122337
0.00850709
0.00551655
0.00349189
0.00242524
0.00205362
0.00203407
0.00213039
0.00223882
0.00232597
0.00238418
0.00241401
0.00242406
0.00241556
0.00238833
0.00233966
0.00226514
0.0021606
0.00202485
0.00186189
0.00168068
0.00149011
0.00128818
0.00105046
0.000735176
0.000345344
5.64233e-05
1.13434e-05
0.0201987
0.0204787
0.0212095
0.0207839
0.0185018
0.0148801
0.0109509
0.00747439
0.00481909
0.00313299
0.00232532
0.00209884
0.00213931
0.0022551
0.00236793
0.00245439
0.00251109
0.00254098
0.00255341
0.00255135
0.00253495
0.00250096
0.00244316
0.00235414
0.00222831
0.00206521
0.00187128
0.00165697
0.001428
0.0011715
0.000849573
0.000441164
8.46239e-05
1.08108e-05
0.0200108
0.0204714
0.0210444
0.0201962
0.0174984
0.0137172
0.00989002
0.00665848
0.00430311
0.00289857
0.00228971
0.00216568
0.00224453
0.00236997
0.00248187
0.00256411
0.00261672
0.00264469
0.00265794
0.00266115
0.00265517
0.00263667
0.00259824
0.00252987
0.00242187
0.00226907
0.00207419
0.00184698
0.00159648
0.00131822
0.000981791
0.000553215
0.000130248
9.27014e-06
0.0198858
0.0204816
0.0208497
0.0196201
0.0165904
0.0127224
0.00902001
0.00601855
0.00392597
0.00275201
0.00229435
0.00224198
0.0023443
0.00247251
0.00257961
0.00265497
0.00270135
0.00272557
0.00273803
0.00274507
0.00274847
0.0027452
0.00272716
0.00268232
0.00259739
0.00246254
0.00227633
0.00204706
0.00178514
0.00148944
0.001135
0.000684405
0.000198069
8.94083e-06
0.0198107
0.0205035
0.0206426
0.0190744
0.0157873
0.0118826
0.00831225
0.00552081
0.00365444
0.00266698
0.00232335
0.00232041
0.00243584
0.00256203
0.00266165
0.00272821
0.00276671
0.00278556
0.00279567
0.00280495
0.00281633
0.0028274
0.00282975
0.00280973
0.0027509
0.00263896
0.00246805
0.00224492
0.00198244
0.00167946
0.00130925
0.00083666
0.000291843
2.75193e-05
0.0197723
0.0205146
0.0204354
0.01857
0.0150896
0.0111824
0.00774178
0.00513779
0.00346311
0.00262482
0.00236637
0.00239674
0.00251811
0.00263907
0.0027295
0.00278605
0.00281546
0.00282753
0.00283381
0.00284367
0.00286143
0.0028856
0.00290779
0.00291293
0.00288174
0.00279557
0.00264397
0.00243179
0.00217598
0.00187913
0.00150241
0.00101032
0.000412751
8.12307e-05
0.019764
0.0205207
0.0202373
0.0181155
0.0144943
0.0106069
0.00728755
0.00484751
0.0033328
0.00261242
0.00241679
0.00246877
0.00259115
0.00270489
0.00278525
0.00283118
0.00285075
0.00285493
0.00285602
0.00286481
0.00288721
0.00292304
0.00296415
0.00299429
0.00299136
0.00293249
0.0028023
0.00260301
0.00235648
0.00207623
0.00171606
0.00120495
0.00056157
0.000200028
0.0197787
0.0205255
0.0200558
0.0177169
0.0139964
0.0101417
0.0069321
0.00463256
0.00324921
0.00262069
0.00247051
0.00253558
0.00265564
0.0027611
0.00283118
0.00286643
0.00287586
0.00287135
0.0028661
0.00287226
0.00289761
0.00294352
0.00300241
0.00305699
0.00308242
0.00305154
0.00294374
0.00275755
0.00251914
0.00225895
0.00193218
0.0014172
0.00073658
0.000410202
0.0198095
0.0205322
0.0198965
0.0173771
0.0135896
0.00977431
0.00666119
0.00447945
0.00320183
0.00264347
0.00252509
0.00259698
0.00271254
0.00280937
0.00286949
0.00289448
0.00289388
0.0028803
0.00286783
0.00287009
0.00289683
0.00295129
0.00302668
0.00310481
0.00315818
0.00315536
0.00307027
0.00289668
0.0026633
0.00241987
0.0021388
0.00164157
0.000930689
0.000715265
0.0198508
0.0205438
0.0197635
0.0170968
0.0132674
0.00949398
0.00646346
0.0043779
0.00318314
0.00267663
0.00257922
0.00265319
0.00276288
0.00285119
0.00290204
0.00291756
0.00290748
0.00288486
0.00286474
0.00286223
0.00288924
0.00295094
0.00304151
0.00314198
0.0032223
0.00324695
0.00318436
0.00302278
0.00279128
0.00255707
0.00232621
0.00187712
0.00113349
0.00107927
0.0198982
0.0205627
0.0196599
0.0168753
0.0130237
0.00929212
0.00633011
0.00432032
0.00318789
0.00271761
0.00263229
0.00270467
0.00280757
0.00288774
0.00293022
0.0029373
0.00291862
0.00288745
0.0028598
0.00285238
0.00287919
0.00294733
0.00305189
0.00317321
0.00327882
0.00332942
0.00328838
0.00313821
0.00290629
0.00267474
0.00248936
0.00211073
0.00133382
0.001445
0.0199415
0.0205906
0.0195875
0.0167114
0.0128532
0.00916183
0.00625459
0.00430142
0.00321272
0.00276499
0.00268421
0.00275193
0.00284737
0.00291981
0.00295482
0.00295453
0.00292835
0.00288965
0.00285537
0.00284384
0.00287094
0.00294542
0.0030631
0.00320359
0.00333212
0.00340607
0.00338446
0.00324461
0.00301105
0.00277647
0.00262742
0.00233157
0.00152517
0.00176477
0.019982
0.0206284
0.0195475
0.0166032
0.0127511
0.00909783
0.00623233
0.0043179
0.00325584
0.00281833
0.00273537
0.00279562
0.00288286
0.00294774
0.0029759
0.00296915
0.00293672
0.00289215
0.00285323
0.00283963
0.0028687
0.00295031
0.00308064
0.00323844
0.00338684
0.00348035
0.00347468
0.00334309
0.0031075
0.00286712
0.00274373
0.00253225
0.00170592
0.00200533
0.0200204
0.0206767
0.0195401
0.0165484
0.0127136
0.00909619
0.00626052
0.00436826
0.0033168
0.00287841
0.00278699
0.00283677
0.00291469
0.00297145
0.00299263
0.00298001
0.00294289
0.00289512
0.00285502
0.00284287
0.0028768
0.00296718
0.00311003
0.00328309
0.00344756
0.00355566
0.00356095
0.00343439
0.00319676
0.00295107
0.00284174
0.00270822
0.00187677
0.00214666
0.0200574
0.0207358
0.019565
0.0165444
0.0127368
0.0091537
0.00633763
0.00445296
0.00339577
0.00294941
0.00284375
0.00287824
0.00294305
0.00298992
0.00300411
0.00298673
0.00294694
0.00289893
0.00286132
0.00285468
0.00289745
0.00299974
0.00315649
0.00334366
0.00352023
0.0036364
0.00364503
0.00351897
0.00327934
0.00303176
0.00293102
0.00285735
0.00203898
0.0021802
0.0200934
0.0208051
0.01962
0.016586
0.012814
0.00926347
0.00646059
0.0045772
0.00351083
0.00304211
0.00291064
0.00292253
0.00297009
0.00300505
0.00301214
0.00299084
0.00295007
0.00290431
0.00287268
0.00287581
0.00293197
0.0030502
0.00322336
0.00342476
0.00361075
0.00372975
0.00373451
0.00360046
0.00335407
0.00310715
0.00301617
0.00298103
0.00219333
0.00211869
0.0201287
0.0208767
0.0196925
0.0166642
0.0129444
0.00943511
0.00664582
0.00475505
0.00366568
0.0031609
0.00299247
0.00297408
0.00299943
0.00302077
0.00301976
0.00299498
0.00295471
0.00291382
0.00289202
0.00290983
0.00298466
0.0031234
0.00331564
0.00353107
0.00372313
0.00383866
0.00383133
0.003681
0.00342251
0.00317635
0.00309825
0.00309735
0.00232148
0.00198738
0.0201645
0.0209527
0.0197833
0.0167779
0.013125
0.00966651
0.00689354
0.00498943
0.00386552
0.0033124
0.00309628
0.00303951
0.00303766
0.00304237
0.00303181
0.00300364
0.00296526
0.00293232
0.00292489
0.00296305
0.00306236
0.00322619
0.0034395
0.00366752
0.00386058
0.00396452
0.00393536
0.00375976
0.00348406
0.00323908
0.00317617
0.0032022
0.00243315
0.00180773
0.0202042
0.021036
0.0198931
0.016928
0.0133484
0.00995332
0.00720444
0.0052845
0.00411739
0.00350552
0.00323162
0.00312762
0.00309363
0.00307762
0.00305578
0.00302407
0.00298903
0.00296779
0.00298017
0.00304497
0.00317463
0.00336734
0.00360207
0.00383894
0.00402532
0.00410708
0.00404456
0.0038342
0.00353692
0.00329504
0.00324794
0.00328486
0.00252466
0.0015956
0.020252
0.0211304
0.0200232
0.017114
0.0136103
0.010293
0.00757972
0.00564551
0.00442991
0.00375113
0.00341005
0.00325109
0.0031794
0.00313831
0.00310298
0.00306741
0.00303744
0.00303255
0.00307098
0.00316895
0.00333396
0.00355735
0.0038109
0.00404936
0.00421779
0.00426369
0.00415441
0.00389978
0.00357792
0.00333859
0.00330985
0.00334566
0.00258984
0.00136468
0.0203135
0.0212406
0.0201752
0.0173346
0.0139115
0.0106854
0.00802056
0.00607759
0.00481155
0.00406011
0.00364392
0.00342513
0.00331055
0.00324047
0.00318949
0.00314998
0.00312737
0.00314452
0.00321566
0.00335255
0.00355563
0.00380772
0.00407288
0.00430074
0.00443535
0.00442824
0.00425724
0.00394972
0.00360328
0.00337229
0.00335891
0.00337204
0.00261866
0.00113125
0.020396
0.0213726
0.0203521
0.0175892
0.0142541
0.0111283
0.0085245
0.00658241
0.00526677
0.00444
0.00394928
0.00366842
0.00350712
0.0034053
0.00333724
0.00329442
0.00328295
0.0033285
0.00343813
0.00361702
0.0038564
0.0041294
0.00439235
0.00459105
0.00467056
0.00458981
0.00434158
0.0039752
0.00360824
0.00339231
0.00338591
0.00336716
0.00260193
0.000904021
0.0205083
0.021534
0.0205579
0.0178788
0.0146449
0.0116115
0.00907651
0.00714767
0.00579489
0.00490454
0.00434488
0.00400327
0.00379436
0.00365978
0.00357455
0.00353056
0.0035391
0.00361634
0.00376656
0.00398507
0.0042518
0.00452964
0.00476816
0.00491145
0.00490891
0.00473134
0.00439195
0.00396609
0.00358825
0.00339419
0.00337946
0.00332207
0.00252686
0.000690146
0.0206562
0.0217344
0.020799
0.0182075
0.0150793
0.0121409
0.00967959
0.0077799
0.00640936
0.00547081
0.00485224
0.00445561
0.00420172
0.00403612
0.00393571
0.0038936
0.0039266
0.00403974
0.00422857
0.00447651
0.00475151
0.00500739
0.00518934
0.00524289
0.00512639
0.00482882
0.00438968
0.00391319
0.00353959
0.00337403
0.00333841
0.00322695
0.00238077
0.000502973
0.0208509
0.021984
0.021084
0.0185769
0.0155549
0.0127234
0.0103491
0.00849545
0.00712658
0.00615826
0.00549558
0.00505476
0.00476256
0.00457113
0.00446011
0.00442432
0.00448598
0.00463281
0.00484817
0.00510246
0.00535298
0.00554721
0.0056296
0.00555184
0.00528759
0.00485187
0.00431571
0.00381187
0.0034617
0.00332671
0.00325346
0.0030666
0.00215723
0.000348784
0.0211132
0.0222933
0.0214239
0.0189883
0.016082
0.0133727
0.0111012
0.00931219
0.00796663
0.00699023
0.00630286
0.00583389
0.00551448
0.00530589
0.005191
0.00516669
0.00525562
0.00542159
0.00563489
0.00585492
0.00603192
0.00611117
0.00604124
0.00578678
0.00534576
0.0047678
0.00415708
0.00365519
0.00335286
0.00324068
0.00310318
0.00281707
0.00185005
0.000302135
0.0214662
0.0226821
0.0218289
0.0194589
0.0166792
0.0141091
0.0119588
0.0102556
0.00895723
0.00799761
0.00730902
0.00683199
0.00649996
0.00628463
0.00617197
0.00616594
0.00626037
0.00640729
0.00656688
0.00669196
0.00673024
0.00662954
0.00634948
0.00587773
0.00524827
0.00455094
0.00391328
0.0034557
0.0032105
0.0030878
0.00285094
0.00244493
0.00143251
0.000275074
0.0219417
0.0231704
0.0223361
0.0200159
0.0173747
0.0149639
0.0129567
0.0113633
0.0101386
0.00922302
0.00855851
0.0080926
0.00776054
0.00754238
0.00742595
0.00742242
0.00747208
0.00753569
0.00756861
0.00752167
0.00734403
0.0069929
0.00645086
0.0057438
0.0049515
0.00419574
0.00359753
0.00321346
0.00300483
0.0028165
0.0024485
0.00190773
0.000921771
0.000237244
0.0225876
0.0238061
0.0229901
0.0207015
0.0182146
0.0159866
0.0141473
0.0126895
0.0115649
0.0107183
0.0100973
0.00964612
0.00930865
0.00906912
0.00891513
0.00884327
0.00877566
0.00867314
0.00849189
0.00818492
0.00770957
0.00704738
0.00622438
0.00531798
0.00444455
0.0037207
0.00321159
0.0029006
0.00267791
0.00236476
0.00185396
0.00125139
0.000477165
0.000187938
0.0234857
0.0246656
0.0238655
0.0215882
0.0192756
0.0172547
0.0156054
0.0143027
0.0132933
0.0125209
0.0119318
0.0114583
0.0110703
0.0107546
0.010504
0.010258
0.00996784
0.00959468
0.00909681
0.00843652
0.00759956
0.00661804
0.00557657
0.00458894
0.00376189
0.00315142
0.00274441
0.00245966
0.00215592
0.00170057
0.00111008
0.000488092
0.000215213
0.000136558
0.0247672
0.0258769
0.0250932
0.0228001
0.0206781
0.0188722
0.0174086
0.0162407
0.0153072
0.0145443
0.0138978
0.0133138
0.0127896
0.0123079
0.0118376
0.0113045
0.0106779
0.00992112
0.00900944
0.00794479
0.00677768
0.00559744
0.00451755
0.00362593
0.00295532
0.0024824
0.00213803
0.00181952
0.00141695
0.000917445
0.000417875
0.000194046
9.50461e-05
7.97428e-05
0.026746
0.0276943
0.0269026
0.0245045
0.0225095
0.0208204
0.0194199
0.0182397
0.0172202
0.0163021
0.0154472
0.0146527
0.013899
0.0131422
0.0123052
0.0113582
0.0102805
0.00907326
0.00776933
0.00643942
0.00517717
0.00407792
0.0032002
0.00253612
0.00204909
0.00167922
0.00135292
0.00100422
0.000614443
0.00028543
0.000126189
7.70227e-05
3.93046e-05
3.39763e-05
0.0297555
0.03029
0.0292965
0.0263469
0.0241417
0.0222428
0.0206099
0.0191315
0.0177815
0.0165446
0.0153973
0.014308
0.0132192
0.012021
0.0107363
0.00937742
0.00797697
0.00657788
0.00526166
0.00409466
0.00313216
0.00239533
0.00183123
0.00139941
0.00106229
0.000779839
0.000521832
0.000281529
0.000145452
7.002e-05
3.94212e-05
2.76772e-05
1.38982e-05
1.0093e-05
0.0351383
0.0320412
0.0296201
0.0248995
0.0216209
0.0190567
0.0169723
0.0151919
0.013625
0.0122234
0.0109481
0.00970134
0.00846019
0.00730005
0.00620894
0.00518475
0.00422742
0.00333893
0.00254374
0.00188813
0.0013524
0.00092605
0.000603042
0.000372715
0.000217829
0.000122263
7.33115e-05
3.99321e-05
2.12482e-05
1.16869e-05
8.62913e-06
6.73603e-06
3.35533e-06
1.94894e-06
0.0264473
0.0170046
0.0107606
0.00764861
0.00718734
0.00722925
0.00723279
0.00729338
0.007378
0.00743536
0.00743091
0.00734711
0.00713699
0.00676315
0.00619077
0.00538572
0.00434394
0.00314217
0.00193765
0.000954931
0.000358943
9.99269e-05
2.71133e-05
2.98958e-05
2.97508e-05
2.56459e-05
2.11542e-05
1.60187e-05
1.33532e-05
1.25123e-05
1.04557e-05
5.92026e-06
1.68967e-06
1.96489e-07
0.00169652
0.003139
0.00700779
0.00976471
0.0106795
0.0102726
0.00228311
0.00443956
0.00940666
0.0122552
0.0127967
0.0120461
0.00277442
0.0059949
0.0119704
0.0146803
0.0148569
0.0139395
0.00317165
0.00774786
0.0145274
0.016976
0.0169487
0.0161557
0.00349073
0.00962297
0.0169454
0.0191475
0.019208
0.0187796
0.00377087
0.0115425
0.0190796
0.0213553
0.0216283
0.0215901
0.0040668
0.0132602
0.021154
0.023612
0.0241205
0.0243152
0.00430255
0.0149172
0.0231936
0.0258524
0.0265822
0.0267749
0.00448247
0.0165272
0.0251644
0.0279429
0.0286643
0.0288387
0.00461705
0.0180943
0.0270433
0.029882
0.0304008
0.0303891
0.00471411
0.0196094
0.0287759
0.0314519
0.0317188
0.0313744
0.00474644
0.0210571
0.0304284
0.03269
0.0326013
0.0318155
0.0046595
0.0222943
0.0317006
0.0335884
0.0330653
0.0317881
0.00458209
0.0235035
0.032686
0.0341604
0.0331614
0.0313956
0.00451786
0.0244299
0.0333944
0.0344367
0.032959
0.0307481
0.00483883
0.0252076
0.0338603
0.0344628
0.0325327
0.0299457
0.00550998
0.025837
0.0341169
0.0342877
0.0319498
0.0290652
0.0062376
0.0262919
0.0341917
0.0339574
0.0312668
0.0281618
0.00698754
0.026575
0.0341093
0.0335108
0.0305256
0.0272718
0.00775374
0.0266902
0.0338939
0.0329788
0.0297546
0.0264117
0.00850293
0.0266609