/*--------------------------------*- C++ -*----------------------------------*\
| =========                 |                                                 |
| \\      /  F ield         | OpenFOAM: The Open Source CFD Toolbox           |
|  \\    /   O peration     | Version:  v2012                                 |
|   \\  /    A nd           | Website:  www.openfoam.com                      |
|    \\/     M anipulation  |                                                 |
\*---------------------------------------------------------------------------*/
FoamFile
{
    version     2.0;
    format      ascii;
    class       volScalarField;
    location    "574";
    object      nut;
}
// * * * * * * * * * * * * * * * * * * * * * * * * * * * * * * * * * * * * * //

dimensions      [0 2 -1 0 0 0 0];


internalField   nonuniform List<scalar> 
6018
(
3.71038e-05
4.37112e-05
5.02426e-05
5.67265e-05
6.3216e-05
6.97761e-05
7.6567e-05
8.38074e-05
9.17554e-05
0.000100716
0.000111073
0.000123323
0.000138128
0.0001564
0.000179429
0.000209067
0.000248011
0.000300261
0.000371959
0.00047303
0.00018436
0.000211567
0.000241575
0.000274382
0.000310408
0.000349882
0.000392863
0.000439801
0.000491784
0.00055015
0.000616572
0.000693203
0.000782834
0.000889154
0.0010172
0.00117442
0.00137222
0.00162948
0.0019856
0.00253324
0.000723073
0.000816853
0.000910541
0.00100343
0.00109577
0.00118792
0.00128075
0.00137562
0.00147415
0.00157807
0.00168914
0.00180928
0.00194058
0.00208497
0.00224416
0.00241951
0.00261126
0.00281689
0.00302908
0.00323073
0.00147731
0.00159625
0.00170667
0.00180993
0.00190768
0.00200153
0.00209306
0.00218368
0.00227457
0.00236665
0.00246055
0.0025566
0.0026548
0.00275488
0.00285607
0.00295691
0.00305531
0.0031486
0.00323404
0.00330937
0.00201225
0.00210758
0.00219473
0.00227582
0.00235265
0.00242657
0.00249857
0.00256934
0.00263929
0.00270861
0.00277729
0.00284514
0.00291183
0.00297699
0.00304015
0.00310089
0.0031589
0.00321415
0.00326704
0.00331847
0.00216274
0.00222623
0.00228724
0.00234729
0.00240731
0.0024679
0.00252938
0.00259189
0.00265544
0.00271967
0.00278461
0.00284986
0.00291478
0.00297876
0.00304116
0.00310141
0.00315914
0.00321424
0.00326706
0.00331847
0.00190339
0.00193838
0.00197773
0.00202187
0.00207094
0.002125
0.0021841
0.00224819
0.00231966
0.00239792
0.00248189
0.00257087
0.00266412
0.0027608
0.00285965
0.00295892
0.00305631
0.00314903
0.00323417
0.00330939
0.00122959
0.00123746
0.00125402
0.0012785
0.00131023
0.00134894
0.00139862
0.001462
0.00153683
0.00162312
0.00172126
0.00183205
0.0019565
0.0020958
0.00225128
0.00242396
0.00261381
0.00281817
0.00302958
0.00323082
0.000383983
0.000379553
0.000381564
0.000388568
0.000399583
0.00041827
0.000445382
0.000479906
0.000522198
0.000573075
0.000633797
0.000706138
0.000792488
0.000896247
0.00102232
0.00117802
0.00137461
0.00163094
0.00198643
0.00253355
7.11018e-05
6.99682e-05
7.00038e-05
7.14096e-05
7.39815e-05
7.76085e-05
8.22234e-05
8.78671e-05
9.46521e-05
0.000102772
0.000112523
0.000124333
0.000138818
0.000156859
0.00017972
0.00020924
0.000248104
0.000300304
0.000371973
0.000473032
2.96135e-07
3.80722e-07
3.92153e-07
3.28648e-07
2.18858e-07
1.18692e-07
5.7253e-08
2.9743e-08
2.33632e-08
3.81694e-08
9.72834e-08
2.0296e-07
3.19546e-07
4.02833e-07
4.25546e-07
4.22841e-07
4.16356e-07
4.30465e-07
4.77571e-07
5.20125e-07
5.41622e-07
5.5817e-07
5.84378e-07
5.80643e-07
5.64023e-07
6.15017e-07
1.20454e-06
2.33621e-06
4.36632e-06
7.55241e-06
1.19811e-05
1.75264e-05
2.38041e-05
3.04069e-05
8.65333e-06
7.20367e-06
4.85469e-06
3.01753e-06
1.89253e-06
1.21193e-06
8.02663e-07
5.77193e-07
5.39838e-07
1.09646e-06
3.49758e-06
7.35941e-06
1.07499e-05
1.19369e-05
1.14988e-05
1.16285e-05
1.27383e-05
1.51557e-05
1.82894e-05
2.12888e-05
2.30053e-05
2.47877e-05
2.85889e-05
3.34551e-05
3.90038e-05
4.56312e-05
5.36459e-05
6.30034e-05
7.38657e-05
8.65876e-05
0.000101386
0.000118485
0.000138022
0.000159818
5.75858e-05
5.57166e-05
4.69729e-05
3.27863e-05
2.10701e-05
1.36226e-05
9.32535e-06
7.13825e-06
7.20924e-06
1.3907e-05
4.19553e-05
8.66716e-05
0.000127275
0.000150173
0.000164987
0.000163633
0.000164099
0.000168869
0.00016806
0.000162626
0.000156775
0.000153323
0.000154543
0.000160912
0.000172328
0.000189255
0.00021246
0.000242762
0.000281319
0.000329426
0.000388271
0.000459097
0.000540475
0.000629718
0.000103132
0.000109109
0.000104738
8.92652e-05
6.72515e-05
4.76682e-05
3.43943e-05
2.77368e-05
3.15711e-05
6.75291e-05
0.000179199
0.000321916
0.000430767
0.000497831
0.000494798
0.000444741
0.000401593
0.000371857
0.000346839
0.000325361
0.000310719
0.000306721
0.000315339
0.00033734
0.000373312
0.000424384
0.000491856
0.000576641
0.000679047
0.000798125
0.000930137
0.0010697
0.00121089
0.00134804
0.000144375
0.000155504
0.000154437
0.00014299
0.000120845
9.46792e-05
7.36221e-05
6.66356e-05
0.000102048
0.000243465
0.000456797
0.000633686
0.000726529
0.000727952
0.00068214
0.00061708
0.00057115
0.000523088
0.000484892
0.000461702
0.000457212
0.000473701
0.000512445
0.000574224
0.000659323
0.000767142
0.000895425
0.00103984
0.00119441
0.00135237
0.00150692
0.0016525
0.00178559
0.00190525
0.000207372
0.000222341
0.0002205
0.000204879
0.000178448
0.000147621
0.000126172
0.000148587
0.00029751
0.000565307
0.000797886
0.000920081
0.00092739
0.000835664
0.000766469
0.000725318
0.00067614
0.000624714
0.000595372
0.000592612
0.000618478
0.000673475
0.000756778
0.000865934
0.000996414
0.00114162
0.00129357
0.0014442
0.00158669
0.00171631
0.00183097
0.00193091
0.00201772
0.00209397
0.00030692
0.000326006
0.000317707
0.000286991
0.000247053
0.000212843
0.000218545
0.000344969
0.000625021
0.000916248
0.00108048
0.00105486
0.000982165
0.000921361
0.000883283
0.000806428
0.000743826
0.000708322
0.000705541
0.000736745
0.000800311
0.000892139
0.0010057
0.00113234
0.00126232
0.00138629
0.00149704
0.0015905
0.00166591
0.00172513
0.00177149
0.00180897
0.00184136
0.00187148
0.00045797
0.000473681
0.000446699
0.000389396
0.000334312
0.000320377
0.000417449
0.000669592
0.000998126
0.00119872
0.0011958
0.001139
0.00108558
0.00101522
0.000918798
0.000843302
0.000799344
0.000791743
0.000820326
0.000880374
0.000963718
0.00105969
0.00115651
0.0012432
0.00131146
0.00135683
0.00137893
0.00138038
0.00136561
0.00133951
0.00130739
0.0012751
0.00124881
0.00123337
0.000658538
0.000658041
0.000596381
0.000511214
0.000465227
0.000526998
0.000747859
0.00104032
0.00128155
0.00136361
0.00131471
0.00125406
0.00113207
0.00101711
0.000926012
0.000869196
0.000850546
0.00086739
0.000911594
0.000971042
0.00103179
0.00108052
0.0011069
0.00110533
0.00107519
0.00101994
0.000945485
0.000858863
0.000766773
0.000675205
0.000589315
0.000512929
0.000450125
0.000408387
0.000888463
0.000856414
0.00075429
0.000666645
0.000684581
0.000838228
0.0010863
0.00132467
0.00146197
0.00146689
0.00137481
0.00124075
0.00110592
0.000995792
0.000921729
0.000886273
0.000884343
0.000904708
0.000932492
0.000952283
0.000951444
0.000922607
0.000864725
0.000782405
0.000683983
0.000578986
0.000475959
0.000380929
0.000297504
0.000227008
0.000169571
0.000126045
9.57002e-05
7.74371e-05
1.87806e-09
1.05353e-08
2.50879e-08
4.21227e-08
7.98685e-08
1.79778e-07
1.25495e-08
1.38339e-07
1.00094e-06
3.53546e-06
6.48183e-06
8.42703e-06
3.00178e-08
7.53047e-07
8.76004e-06
2.38296e-05
3.9494e-05
5.15086e-05
4.4164e-08
1.87058e-06
1.59677e-05
3.94283e-05
6.47888e-05
8.6933e-05
5.38733e-08
3.26621e-06
2.17868e-05
5.21824e-05
8.71753e-05
0.000119298
7.31461e-08
5.46572e-06
3.00522e-05
7.14316e-05
0.000122019
0.000170033
3.0902e-07
8.91011e-06
4.31293e-05
0.000103361
0.000179304
0.000252196
1.10985e-06
1.41216e-05
6.43834e-05
0.000156954
0.000274907
0.000384555
2.92352e-06
2.20475e-05
9.97816e-05
0.000247377
0.000427615
0.000577788
5.74226e-06
3.43754e-05
0.000159683
0.000392207
0.000648222
0.000825312
0.00111589
0.00103404
0.000920114
0.000884394
0.000971297
0.00115606
0.00136612
0.00151471
0.00154989
0.00147588
0.001338
0.00118684
0.00105633
0.000962563
0.000907635
0.000884536
0.000880297
0.000879572
0.000868669
0.000838878
0.000788111
0.000720214
0.000642379
0.000561859
0.000483155
0.00040946
0.000341555
0.000279215
0.000221976
0.000169447
0.00012165
7.9238e-05
4.29415e-05
1.8584e-05
0.00130813
0.00119325
0.00111245
0.00113135
0.00124852
0.00141253
0.00155116
0.00160433
0.00155309
0.0014231
0.00126249
0.00111347
0.000998968
0.000924063
0.000881773
0.00085912
0.000842063
0.00081963
0.000786591
0.000743484
0.000694417
0.000644085
0.000595523
0.000549365
0.000504704
0.000460275
0.000414842
0.000368328
0.000321758
0.000277052
0.000221531
0.000144727
4.20182e-05
3.4538e-06
0.00146005
0.00135347
0.00131345
0.00136332
0.00147345
0.00158604
0.00164286
0.00161064
0.00149542
0.00133432
0.00117169
0.00103817
0.000944601
0.00088677
0.000853056
0.0008311
0.000812041
0.000792158
0.000772006
0.000753703
0.000738498
0.000725571
0.000712356
0.00069573
0.000673551
0.000645438
0.000614336
0.000588863
0.00056523
0.000507778
0.000433556
0.000280906
6.07884e-05
2.35115e-06
0.00158993
0.00151196
0.00150133
0.00155462
0.00163075
0.00167773
0.00165609
0.00155658
0.00140218
0.00123285
0.0010842
0.000974358
0.000904267
0.000865126
0.000846136
0.000839473
0.000841457
0.000851042
0.000867455
0.000888219
0.000908863
0.000923824
0.000928101
0.000918918
0.000897344
0.000870016
0.000841783
0.000792596
0.000741516
0.000695513
0.00061885
0.000394584
7.82036e-05
2.04228e-06
0.00171106
0.00165773
0.00165796
0.00169235
0.00171889
0.00169808
0.00161069
0.00146641
0.00129685
0.00113819
0.00101508
0.000935153
0.000893805
0.000882109
0.000892426
0.000920001
0.000961431
0.00101241
0.00106656
0.00111569
0.00115137
0.00116686
0.00115894
0.00112953
0.00109065
0.00103434
0.000971424
0.000912958
0.000865299
0.000819022
0.000725216
0.000459199
9.03145e-05
1.85436e-06
0.00181772
0.00177806
0.00177257
0.00177362
0.00174464
0.00166325
0.00152879
0.00136323
0.00119959
0.00106646
0.000978377
0.00093603
0.000932954
0.000961594
0.00101539
0.00108804
0.00117137
0.00125492
0.00132687
0.00137596
0.00139373
0.00137646
0.0013274
0.00125715
0.00116931
0.00108845
0.00101522
0.000952862
0.000907241
0.000861091
0.000764826
0.000486266
9.60414e-05
1.60477e-06
0.00181749
0.00173209
0.00173544
0.00180151
0.00172016
0.00159243
0.00143217
0.00126718
0.00112704
0.0010319
0.000988283
0.000993043
0.00103886
0.00111722
0.00121849
0.00133065
0.00143903
0.00152816
0.0015839
0.00159555
0.00155714
0.0014744
0.00135822
0.00124693
0.00114132
0.00104936
0.000975313
0.000919301
0.000880667
0.000843071
0.00075554
0.000480963
9.42673e-05
1.35345e-06
0.00171209
0.00163167
0.00165289
0.00178467
0.00166101
0.00150497
0.00134011
0.00119513
0.00109359
0.00104719
0.00105726
0.00111714
0.00121652
0.00134233
0.00147856
0.00160664
0.00170738
0.00176356
0.00176132
0.00169157
0.00155548
0.00140404
0.00126074
0.00113293
0.00102352
0.000936779
0.00087414
0.000832412
0.000807394
0.000784322
0.000709205
0.000444903
8.33262e-05
1.32419e-06
0.00159886
0.00153685
0.00158647
0.00173563
0.00158384
0.00141896
0.00126955
0.00116127
0.0011102
0.0011214
0.00119063
0.00130581
0.00145073
0.00160536
0.00174734
0.00185411
0.00190539
0.00188378
0.00177335
0.0015725
0.00138293
0.00121074
0.00106298
0.000941471
0.000849055
0.000781626
0.000736905
0.000712803
0.000704854
0.000697721
0.000631736
0.000382379
6.78562e-05
1.30196e-06
0.00149457
0.00145982
0.00154584
0.00166872
0.00150525
0.00135061
0.00123367
0.00117452
0.00118256
0.00125506
0.0013797
0.00153737
0.00170417
0.00185395
0.00196109
0.00200283
0.00195953
0.0018103
0.00154089
0.0013041
0.00109987
0.000934091
0.000804315
0.000709282
0.000644574
0.000603045
0.000580563
0.000575558
0.00058612
0.000592966
0.00053599
0.000309745
5.1163e-05
1.21503e-06
0.00140712
0.00140478
0.0015333
0.00159806
0.00143909
0.00131097
0.00123957
0.00123898
0.00130828
0.00143536
0.00159908
0.00177205
0.0019241
0.00202653
0.00205466
0.00198847
0.00180781
0.00149703
0.0011927
0.00095205
0.000763117
0.000629306
0.000535794
0.000475079
0.000439676
0.000422883
0.000421716
0.0004363
0.000465266
0.000484628
0.000435557
0.00023539
3.54004e-05
1.04914e-06
0.00133979
0.00137404
0.0015581
0.00153501
0.00139535
0.00130747
0.00129129
0.00135023
0.0014728
0.00163611
0.00180996
0.00196043
0.00205514
0.00206743
0.00197766
0.00177243
0.00144235
0.00109294
0.00079982
0.000595563
0.000458293
0.000370846
0.000316942
0.000285835
0.000271147
0.000269841
0.000282615
0.000312304
0.000355451
0.000382901
0.000332712
0.000162606
2.08612e-05
8.85317e-07
0.00129504
0.00137249
0.00163164
0.00148888
0.0013815
0.00134332
0.00138322
0.00149414
0.00165133
0.001822
0.00196899
0.00205615
0.00205407
0.00194306
0.00171366
0.00136661
0.00100358
0.000692044
0.000472875
0.000344626
0.000272386
0.000229691
0.000201822
0.000183521
0.00017227
0.000169552
0.000180556
0.0002125
0.000257775
0.000280259
0.000222654
9.12057e-05
1.09869e-05
7.12325e-07
0.00127414
0.00140192
0.0015873
0.00146425
0.00139829
0.00141222
0.0015032
0.0016487
0.00181343
0.001957
0.00203965
0.00202881
0.00190395
0.00165961
0.00131139
0.000917706
0.000603527
0.000399952
0.000291864
0.000236917
0.000205187
0.000183468
0.000165813
0.0001494
0.000133699
0.000121694
0.000120467
0.000138323
0.00016774
0.000172566
0.000123198
4.70557e-05
5.8818e-06
4.99346e-07
0.00127976
0.00147495
0.00155644
0.00146368
0.00144403
0.00150571
0.00163295
0.00178896
0.00193039
0.00201355
0.00200226
0.00187391
0.0016236
0.0012693
0.000868754
0.000543896
0.000356212
0.000267878
0.000225519
0.000200864
0.000183587
0.000169641
0.000156419
0.000141699
0.00012425
0.000105501
9.11067e-05
8.92181e-05
9.76609e-05
9.45445e-05
6.43738e-05
2.44866e-05
3.20677e-06
2.99764e-07
0.00131576
0.00160504
0.00154178
0.00148469
0.00150942
0.00160991
0.00175299
0.00189288
0.00198213
0.00197996
0.00186077
0.00161884
0.00127221
0.000873308
0.000526281
0.000335191
0.000256908
0.000222066
0.000201272
0.000186039
0.0001739
0.000163515
0.000153319
0.000141293
0.000125423
0.000104923
8.21035e-05
6.38131e-05
5.6076e-05
5.10961e-05
3.44018e-05
1.32646e-05
1.76232e-06
1.5373e-07
0.00138371
0.00162986
0.00154273
0.0015238
0.00158687
0.00171009
0.00184668
0.0019458
0.00196159
0.00186354
0.00164359
0.00131847
0.000933924
0.000576574
0.000346558
0.000255376
0.000223427
0.000205229
0.000190969
0.000178783
0.000168297
0.000159196
0.000150655
0.000141164
0.000128642
0.000111051
8.74963e-05
6.06051e-05
3.93416e-05
2.98215e-05
1.94933e-05
7.55326e-06
9.67879e-07
6.90859e-08
0.001497
0.00161833
0.00155708
0.00157373
0.00166596
0.00179385
0.00190314
0.00194292
0.0018758
0.00168832
0.00139322
0.00103164
0.000670817
0.000403545
0.000273529
0.000231073
0.000215008
0.000202458
0.000190208
0.000178313
0.00016714
0.000157128
0.000148169
0.000139515
0.000129601
0.000116357
9.76339e-05
7.20221e-05
4.25265e-05
2.23025e-05
1.24659e-05
4.61832e-06
5.40187e-07
2.97388e-08
0.00167645
0.00161574
0.00158299
0.00162956
0.00173766
0.00185293
0.00191857
0.00188952
0.0017434
0.00148759
0.00115253
0.000796547
0.000497391
0.000320385
0.000252681
0.000232601
0.000222835
0.000212731
0.000200458
0.000187027
0.000173189
0.000160176
0.000148434
0.000138026
0.000128157
0.000117253
0.000103344
8.41711e-05
5.77777e-05
2.74496e-05
1.09515e-05
3.35896e-06
3.34705e-07
1.56152e-08
0.00169292
0.00162027
0.00161405
0.00168505
0.00179545
0.00188364
0.00189541
0.00179737
0.00158617
0.00128632
0.000944729
0.000624664
0.000398598
0.00029154
0.00025973
0.000251711
0.000245879
0.000237241
0.00022426
0.000207855
0.000189602
0.000171766
0.000155083
0.000140298
0.000127487
0.000115626
0.000103215
8.83154e-05
6.89036e-05
4.31206e-05
1.57885e-05
3.63536e-06
2.81308e-07
1.42525e-08
0.00168641
0.00163123
0.00164927
0.00173553
0.00183596
0.00188669
0.00184124
0.00168233
0.00142495
0.00110657
0.000779997
0.000511587
0.00035345
0.000295548
0.000285625
0.000286031
0.000283647
0.00027606
0.000261832
0.00024222
0.000219219
0.000194987
0.000171391
0.000149966
0.000131604
0.000115818
0.000101501
8.69928e-05
7.03835e-05
5.02281e-05
2.46728e-05
5.33061e-06
3.76454e-07
2.15748e-08
0.00168295
0.00164599
0.00168562
0.00177807
0.00185862
0.00186609
0.00176608
0.00155891
0.0012739
0.000955088
0.000658813
0.000446722
0.000345169
0.00032166
0.000327297
0.000335246
0.000336517
0.000329945
0.000314304
0.000291033
0.000262399
0.000231023
0.000199571
0.000169737
0.000143613
0.000121473
0.000102665
8.57584e-05
6.88515e-05
5.01042e-05
2.95057e-05
7.82046e-06
5.39414e-07
3.33823e-08
0.00168246
0.00166412
0.00172107
0.00181141
0.001865
0.00182762
0.00167981
0.00143801
0.00114044
0.000834117
0.000576882
0.000418941
0.000362579
0.000364533
0.000383175
0.000398725
0.000404084
0.000398685
0.000381817
0.000355016
0.000320667
0.000281602
0.000240855
0.000201399
0.000165598
0.000134848
0.000109275
8.78225e-05
6.86266e-05
4.96172e-05
2.96932e-05
1.01955e-05
7.00622e-07
4.8056e-08
0.00168504
0.00168505
0.00175424
0.00183558
0.00185794
0.00177748
0.00159058
0.00132643
0.00102741
0.000742537
0.000528002
0.000418818
0.00039843
0.000420697
0.000451256
0.000474613
0.00048454
0.000480432
0.000462786
0.000432999
0.000393405
0.00034688
0.000296691
0.000246333
0.000199111
0.000157542
0.000122828
9.46154e-05
7.12357e-05
5.03988e-05
3.02418e-05
1.15958e-05
9.70229e-07
6.10435e-08
0.00169069
0.00170801
0.00178442
0.00185145
0.0018408
0.00172131
0.00150429
0.00122757
0.000935178
0.000677458
0.000505728
0.000438965
0.000447668
0.000487142
0.00052897
0.000560303
0.000575447
0.000572123
0.000554288
0.000522434
0.000478659
0.000425631
0.000366533
0.00030509
0.000245329
0.000190984
0.000144669
0.000107208
7.75005e-05
5.31794e-05
3.17984e-05
1.30277e-05
1.32996e-06
6.79236e-08
0.00169868
0.0017321
0.00181144
0.00186048
0.001817
0.00166368
0.00142457
0.00114266
0.000862644
0.000635174
0.000504128
0.000473618
0.000506239
0.000560543
0.000612519
0.000650968
0.000670658
0.000669584
0.000652215
0.000619323
0.00057281
0.000514959
0.000448523
0.000376979
0.000304657
0.00023631
0.000176176
0.000126789
8.82254e-05
5.83958e-05
3.43484e-05
1.45509e-05
1.77381e-06
7.0735e-08
0.00170964
0.00175697
0.00183543
0.00186428
0.00178954
0.00160779
0.0013533
0.00107166
0.000807945
0.000611776
0.000518057
0.000518232
0.000570735
0.000637798
0.000698644
0.000743316
0.000767155
0.000768521
0.000751994
0.000718915
0.000671083
0.000610378
0.000538912
0.000459466
0.000376027
0.000293808
0.000218485
0.000154692
0.00010447
6.67169e-05
3.82718e-05
1.64602e-05
2.36247e-06
6.74141e-08
0.00172291
0.00178203
0.00181989
0.00186436
0.00176088
0.00155583
0.00129126
0.00101384
0.000768851
0.000603506
0.000543187
0.000569167
0.000638242
0.000716126
0.000784454
0.000834299
0.000861612
0.000865173
0.000849537
0.00081674
0.000768631
0.000706793
0.0006327
0.000548214
0.000456408
0.000362157
0.00027185
0.000192083
0.000127488
7.90272e-05
4.40781e-05
1.90523e-05
3.2348e-06
5.78071e-08
0.00173816
0.00180664
0.00175675
0.00186193
0.00173288
0.0015091
0.00123852
0.000968087
0.000743018
0.000606947
0.000575939
0.000623482
0.000706306
0.000793174
0.000867586
0.000921518
0.000951519
0.000956811
0.000941852
0.000909415
0.000861551
0.00079972
0.000724892
0.000638052
0.000541118
0.000438021
0.000334878
0.000239327
0.000158498
9.64184e-05
5.23659e-05
2.25688e-05
4.44729e-06
5.57536e-08
0.00175476
0.00182606
0.00170875
0.00185811
0.0017069
0.00146831
0.00119474
0.000933128
0.000728158
0.000619102
0.000613393
0.00067881
0.000772922
0.000867082
0.000946289
0.00100332
0.00103527
0.00104175
0.0010271
0.000994826
0.000947306
0.000886039
0.000811643
0.000724371
0.000625055
0.000516557
0.000404123
0.000295172
0.000198157
0.000120117
6.3917e-05
2.73018e-05
6.06688e-06
1.71599e-07
0.00177193
0.00173937
0.0016722
0.00184051
0.00168381
0.00143375
0.0011594
0.00090763
0.000722145
0.00063741
0.000653196
0.000733273
0.000836518
0.000936465
0.00101936
0.00107866
0.00111193
0.0011191
0.00110432
0.00107185
0.00102453
0.000964019
0.00089067
0.000804083
0.000704138
0.000592825
0.000474695
0.00035634
0.000245702
0.000151169
7.97951e-05
3.3619e-05
8.12889e-06
5.06454e-07
0.00178935
0.00167563
0.00164415
0.00181932
0.00166416
0.00140541
0.00113184
0.000890296
0.000723074
0.000659737
0.000693482
0.000785404
0.000895894
0.00100032
0.00108598
0.0011469
0.00118099
0.00118837
0.00117302
0.00113993
0.00109256
0.00103285
0.000960931
0.000875683
0.000776033
0.000663232
0.000541731
0.000417931
0.000298359
0.000189691
0.000101382
4.20724e-05
1.07281e-05
1.24677e-06
0.00180675
0.00163142
0.0016225
0.00180021
0.00164828
0.00138315
0.00111141
0.000879921
0.000729299
0.000684342
0.000732787
0.000834073
0.00095015
0.00105794
0.00114558
0.0012076
0.0012421
0.00124926
0.00123287
0.00119871
0.00115102
0.00109216
0.00102203
0.000938688
0.00083992
0.000726103
0.000601954
0.000474943
0.00035139
0.000234121
0.000129532
5.34401e-05
1.39935e-05
2.55549e-06
0.00182387
0.00160033
0.00160551
0.00178331
0.00163637
0.00136675
0.00109747
0.000875434
0.000739436
0.000709837
0.00076998
0.00087842
0.000998605
0.00110876
0.00119772
0.00126037
0.00129492
0.00130147
0.00128358
0.00124791
0.00119963
0.00114169
0.00107378
0.000992977
0.000895723
0.000781193
0.000654222
0.000524183
0.000399479
0.000280402
0.000164409
6.8761e-05
1.80337e-05
4.4527e-06
0.00184054
0.00157764
0.00159195
0.00176791
0.00162853
0.00135596
0.00108942
0.000875921
0.000752358
0.000735141
0.000804208
0.000917795
0.00104074
0.00115233
0.00124198
0.0013048
0.00133903
0.00134459
0.00132478
0.00128721
0.00123818
0.00118131
0.00111607
0.00103846
0.000943454
0.000828727
0.000698776
0.000564851
0.000439103
0.000322984
0.00020427
8.93025e-05
2.29979e-05
6.71284e-06
0.00185286
0.00156079
0.00158078
0.00175305
0.00162478
0.00135055
0.00108678
0.000880642
0.000767191
0.000759445
0.000834843
0.000951714
0.00107614
0.00118827
0.00127793
0.0013404
0.00137389
0.00137807
0.00135598
0.0013163
0.00126657
0.00121106
0.00114896
0.0010751
0.000982982
0.000868744
0.000736114
0.000597619
0.000469402
0.000357388
0.000244996
0.000115791
2.90428e-05
8.97974e-06
0.0018161
0.00154809
0.00157131
0.00173789
0.00162512
0.00135029
0.00108916
0.00088904
0.0007833
0.000782185
0.000861458
0.000979834
0.00110448
0.00121621
0.0013051
0.00136656
0.00139875
0.00140112
0.00137655
0.00133491
0.00128491
0.0012313
0.0011728
0.00110303
0.00101413
0.000900947
0.000766322
0.000623355
0.000491428
0.000381826
0.000280958
0.000147822
3.64125e-05
1.09585e-05
0.0017854
0.0015383
0.00156252
0.00172198
0.00162949
0.00135502
0.00109629
0.000900747
0.000800291
0.000803042
0.000883822
0.00100196
0.00112556
0.00123577
0.00132287
0.00138241
0.00141249
0.00141255
0.00138568
0.00134288
0.0012936
0.0012427
0.00118827
0.00112263
0.00103683
0.000924876
0.000788995
0.000642397
0.000506664
0.000397309
0.000307702
0.000182773
4.54936e-05
1.24452e-05
0.00176022
0.00153042
0.00155391
0.00170521
0.00163783
0.00136462
0.00110801
0.000915609
0.000818053
0.000822059
0.000902044
0.00101811
0.00113941
0.00124666
0.00133037
0.00138649
0.0014133
0.00141064
0.0013826
0.00134039
0.00129347
0.00124638
0.00119634
0.00113455
0.00105119
0.000940109
0.000803483
0.000654517
0.000516054
0.000406005
0.000324016
0.000215305
5.65982e-05
1.33178e-05
0.00173925
0.00152364
0.00154528
0.00168754
0.00165005
0.00137899
0.00112433
0.000933807
0.000837095
0.000840613
0.000917445
0.00102877
0.00114465
0.0012467
0.00132568
0.00137751
0.00140082
0.00139609
0.00136861
0.00132899
0.00128622
0.00124407
0.00119867
0.00114001
0.00105773
0.000946125
0.000808506
0.00065924
0.000519899
0.000409737
0.000331883
0.000239212
6.95098e-05
1.35248e-05
0.00172074
0.00151708
0.00153627
0.00166871
0.00166581
0.00139786
0.00114551
0.000956935
0.000860368
0.000860062
0.000930072
0.00103353
0.00114168
0.001226
0.00131016
0.00135725
0.00137737
0.00137166
0.00134619
0.00131094
0.00127406
0.00123812
0.00119781
0.00114188
0.00105961
0.000946289
0.000806823
0.000656683
0.00051763
0.000408827
0.000333841
0.00025019
8.17753e-05
1.31451e-05
0.00170237
0.00150939
0.00152585
0.00164789
0.00168513
0.00142237
0.0011735
0.000986606
0.000888309
0.000881208
0.000941092
0.00103376
0.00111861
0.00121143
0.00128561
0.00132782
0.00134524
0.00133959
0.00131762
0.00128842
0.00125904
0.00123036
0.00119522
0.00114115
0.00105739
0.000940844
0.000798682
0.00064777
0.000510063
0.00040402
0.000332754
0.000256549
8.91505e-05
1.23343e-05
0.00168205
0.00149968
0.00151381
0.00162547
0.00170775
0.00145227
0.00120822
0.00102302
0.00092156
0.000905276
0.000952254
0.00103152
0.0010986
0.0011953
0.0012545
0.0012918
0.00130707
0.00130257
0.00128554
0.00126409
0.00124361
0.00122273
0.00119213
0.00113827
0.00105094
0.000929416
0.000783686
0.000632309
0.000497193
0.000395399
0.000328827
0.00025989
9.54536e-05
1.12241e-05
0.00165806
0.00148713
0.00150005
0.00160195
0.0016994
0.00148701
0.00124955
0.00106644
0.000960973
0.000933847
0.000965773
0.00101621
0.00108606
0.00116878
0.00121999
0.00125239
0.00126612
0.00126397
0.0012534
0.00124126
0.00123061
0.00121725
0.00118951
0.00113322
0.00103963
0.0009112
0.000761226
0.000610032
0.000479026
0.000383113
0.000322099
0.000259958
0.000100567
9.9121e-06
0.00162894
0.00147099
0.00148425
0.00157765
0.00166585
0.00152613
0.00129733
0.00111717
0.0010075
0.000968672
0.000980755
0.0010047
0.00108136
0.00114334
0.00118609
0.00121369
0.00122655
0.00122813
0.00122555
0.00122389
0.00122317
0.00121576
0.0011878
0.0011253
0.00102218
0.000884979
0.000730572
0.000580743
0.000455693
0.000367132
0.000312629
0.000254156
0.000104159
8.48228e-06
0.00159337
0.00145057
0.00146594
0.00155278
0.00163278
0.0015693
0.0013513
0.00117537
0.00106185
0.00100496
0.000972091
0.00100234
0.0010815
0.00112363
0.00115775
0.00118085
0.00119362
0.00120041
0.00120713
0.00121628
0.00122415
0.00121936
0.00118634
0.0011127
0.000996499
0.000849164
0.000691
0.000544457
0.000427576
0.000348044
0.000300577
0.000226298
0.000105846
7.0353e-06
0.00155004
0.0014253
0.00144462
0.00152671
0.00160108
0.00160938
0.00141052
0.00124042
0.00109304
0.000998714
0.000974898
0.00101169
0.00108496
0.0011149
0.00114072
0.00115994
0.00117362
0.00118702
0.0012036
0.00122239
0.00123535
0.00122755
0.00118281
0.00109224
0.000959729
0.000801992
0.000642037
0.000501563
0.000395308
0.000326339
0.000285938
0.000203517
0.000105345
5.62521e-06
0.00149804
0.00139445
0.00141942
0.00149897
0.00157124
0.00154303
0.00139907
0.00122881
0.00108909
0.00100954
0.000993909
0.00103599
0.00110364
0.00112253
0.0011411
0.00115755
0.00117357
0.00119431
0.00121976
0.00124462
0.00125627
0.00123711
0.00117244
0.00105916
0.000908447
0.000741974
0.000583825
0.000453019
0.000359867
0.000302648
0.000251737
0.000185642
0.00010225
4.29659e-06
0.00143638
0.0013575
0.00138958
0.00146899
0.00152027
0.00147276
0.00135824
0.00122033
0.00110601
0.00104125
0.00103303
0.00108022
0.00114162
0.00115155
0.00116461
0.00117981
0.00119991
0.00122725
0.00125801
0.00128205
0.00128254
0.00124106
0.00114761
0.00100747
0.000839411
0.000668591
0.000517501
0.000400516
0.000322529
0.000277775
0.000220923
0.000172611
9.61742e-05
3.13273e-06
0.00136505
0.0013134
0.00135475
0.00142785
0.00145634
0.00142605
0.00133963
0.00123301
0.00114391
0.00109512
0.00109623
0.00115026
0.00120201
0.00120583
0.00121566
0.00123119
0.00125565
0.00128662
0.00131574
0.00132808
0.00130408
0.00122793
0.00109846
0.000931113
0.000750873
0.000583097
0.00044546
0.000346455
0.000284865
0.000252534
0.000197927
0.000163939
8.68407e-05
2.17318e-06
0.00128496
0.00126153
0.00131292
0.00136854
0.00140734
0.0013968
0.00133839
0.00126263
0.00120007
0.00117052
0.00118513
0.00124995
0.00128648
0.00128736
0.00129624
0.00131301
0.00133941
0.00136695
0.00138269
0.00136805
0.00130388
0.00118226
0.00101479
0.000826353
0.000644127
0.000489146
0.000371478
0.000293035
0.000248385
0.000227475
0.000180648
0.000159273
7.40298e-05
1.88274e-06
0.00119688
0.00120133
0.0012517
0.00131612
0.00136676
0.00137716
0.00134785
0.00130365
0.00126975
0.00126326
0.00129626
0.00137705
0.00139431
0.00139479
0.00140371
0.00142063
0.00144115
0.00145234
0.00143757
0.00137743
0.00125878
0.00108788
0.000890044
0.000694602
0.000524736
0.000392672
0.000300072
0.000243127
0.000214314
0.000202488
0.000167689
0.000157559
5.66443e-05
1.71422e-06
0.00110178
0.0011264
0.00119114
0.00126411
0.00132771
0.00136088
0.00136211
0.00135043
0.001347
0.00136636
0.00142076
0.00152127
0.00152
0.00152012
0.00152637
0.00153595
0.00153618
0.00151206
0.00144564
0.00132264
0.00114419
0.000934379
0.000726337
0.000544856
0.000402505
0.000300903
0.000235251
0.000198377
0.000182506
0.000176534
0.00015633
0.000130677
3.49725e-05
1.4786e-06
0.000999936
0.00104588
0.00112606
0.00120755
0.0012862
0.00134436
0.00137743
0.00139877
0.00142587
0.00147088
0.00154682
0.00165655
0.00164813
0.00164307
0.00163807
0.00162317
0.00158193
0.00149848
0.00136042
0.00116899
0.000946362
0.000727788
0.000539927
0.000393706
0.000289108
0.000220137
0.000179057
0.000158599
0.000151655
0.000147767
0.000131633
8.72851e-05
1.49792e-05
1.17145e-06
0.000891539
0.000958405
0.00105398
0.00114507
0.00124195
0.00132728
0.00139201
0.0014435
0.0014966
0.00156814
0.0016766
0.00176225
0.00174392
0.00172214
0.00168786
0.00162273
0.00151294
0.00134983
0.0011393
0.000905962
0.000684113
0.000499114
0.000358678
0.000259439
0.00019387
0.000153655
0.000131698
0.000122244
0.000119408
0.000113627
8.67262e-05
2.91788e-05
5.63833e-06
8.51292e-07
0.000784992
0.000869164
0.000977519
0.00107946
0.00119569
0.00130563
0.00139626
0.00147703
0.0015644
0.00167473
0.00181629
0.00177887
0.00173465
0.00167716
0.00158272
0.00144021
0.00124821
0.0010213
0.000788418
0.000580082
0.000414466
0.000292993
0.000209268
0.000154455
0.000120429
0.000100819
9.08807e-05
8.67019e-05
8.35829e-05
7.18892e-05
3.36389e-05
1.00409e-05
2.30258e-06
4.97179e-07
0.000658135
0.000774332
0.000895396
0.00100715
0.00114676
0.00128889
0.00141478
0.00152947
0.00164968
0.00171344
0.0016477
0.00157465
0.00148947
0.00136944
0.00119967
0.000994227
0.000777199
0.000576901
0.000412205
0.000288391
0.000201346
0.000142753
0.000104868
8.10884e-05
6.68003e-05
5.86957e-05
5.41072e-05
5.06595e-05
4.29519e-05
2.45987e-05
9.36735e-06
3.77669e-06
9.5789e-07
2.11858e-07
0.000570437
0.000699577
0.000823555
0.000946081
0.0010981
0.00125295
0.00138399
0.00136317