/*--------------------------------*- C++ -*----------------------------------*\
| =========                 |                                                 |
| \\      /  F ield         | OpenFOAM: The Open Source CFD Toolbox           |
|  \\    /   O peration     | Version:  v2012                                 |
|   \\  /    A nd           | Website:  www.openfoam.com                      |
|    \\/     M anipulation  |                                                 |
\*---------------------------------------------------------------------------*/
FoamFile
{
    version     2.0;
    format      ascii;
    class       volScalarField;
    location    "574";
    object      omega;
}
// * * * * * * * * * * * * * * * * * * * * * * * * * * * * * * * * * * * * * //

dimensions      [0 0 -1 0 0 0 0];


internalField   nonuniform List<scalar> 
6018
(
260.198
260.863
261.522
262.178
262.837
263.504
264.196
264.936
265.751
266.673
267.741
269.011
270.553
272.467
274.899
278.057
282.258
287.984
296.009
307.645
80.1424
77.6399
75.6686
74.1542
72.9994
72.1768
71.7185
71.6223
71.8187
72.2501
72.8633
73.6021
74.4068
75.2083
75.904
76.3311
76.2396
75.2283
72.4809
66.5362
39.2893
38.1761
37.4449
37.0421
36.9124
37.0192
37.33
37.8148
38.4468
39.2064
40.0794
41.0546
42.1209
43.2721
44.5143
45.8587
47.3313
48.9946
50.9752
53.5497
26.6052
26.4767
26.5588
26.8156
27.2201
27.7538
28.4042
29.164
30.0311
31.0078
32.1017
33.3257
34.6984
36.245
38.0016
40.0191
42.3668
45.1393
48.4642
52.5114
22.4762
22.7861
23.2115
23.7377
24.3554
25.0605
25.8529
26.7366
27.7186
28.81
30.0255
31.3846
32.912
34.6391
36.6061
38.8642
41.479
44.534
48.1375
52.4294
21.59
22.1084
22.6946
23.3448
24.0581
24.8371
25.6867
26.6147
27.6309
28.7496
29.9852
31.3583
32.8953
34.6288
36.6001
38.861
41.4775
44.5334
48.1373
52.4294
22.973
23.6676
24.3969
25.1627
25.9691
26.8207
27.7236
28.6863
29.6999
30.7798
31.9467
33.2218
34.6297
36.2006
37.9743
40.0034
42.3586
45.1357
48.4629
52.5111
28.7927
29.8539
30.9161
31.9955
33.1055
34.2526
35.375
36.4376
37.4876
38.5456
39.6267
40.7436
41.9075
43.1295
44.4226
45.8024
47.2994
48.9786
50.9689
53.5484
54.1068
56.1968
58.2155
60.3166
62.6558
64.7643
66.4832
67.9647
69.2897
70.5147
71.6765
72.7904
73.8567
74.8413
75.6629
76.1771
76.148
75.1787
72.4567
66.5291
263.639
263.523
263.527
263.67
263.932
264.303
264.774
265.352
266.049
266.884
267.891
269.116
270.625
272.516
274.929
278.076
282.268
287.989
296.01
307.645
256.522
256.53
256.531
256.525
256.514
256.504
256.498
256.495
256.495
256.496
256.502
256.513
256.524
256.532
256.535
256.534
256.534
256.535
256.54
256.544
256.546
256.548
256.55
256.55
256.548
256.553
256.612
256.724
256.926
257.242
257.683
258.236
258.863
259.525
40.6474
41.9947
44.7474
49.7021
53.0415
53.7444
52.1883
49.1941
45.7388
43.9081
42.3778
41.8061
41.9552
42.6982
43.7988
45.3608
45.8842
45.4654
45.9277
46.7867
49.271
55.3657
63.4293
71.04
78.4429
84.6144
89.0904
91.9646
93.3429
93.3239
92.0943
89.8536
86.8124
83.2819
17.0261
16.7111
16.964
19.048
21.7095
23.5174
23.7156
22.2533
19.5929
17.3137
15.7253
15.0844
15.1993
15.8574
16.8849
19.2043
21.9554
25.253
31.2076
37.8338
44.4559
50.2259
54.4881
57.0632
58.2894
58.306
57.3198
55.5727
53.2837
50.6428
47.8498
45.2383
42.8706
40.8546
14.7432
13.4918
12.5891
12.5507
13.3673
14.4061
14.9008
14.3927
12.965
11.4953
10.7416
10.883
11.6747
13.2874
15.8988
20.5289
26.0738
31.4836
36.3335
40.083
42.5795
43.8294
43.9599
43.1817
41.7544
39.8946
37.8017
35.6451
33.5646
31.6735
30.0274
28.6884
27.6774
26.9914
14.5855
12.9577
11.7651
11.0246
10.8603
11.1298
11.3897
11.2064
10.5644
10.2169
10.9779
12.6259
14.839
17.9784
21.8632
26.4428
30.6396
33.8343
35.7974
36.5516
36.3234
35.379
33.959
32.2649
30.4644
28.6919
27.0535
25.6256
24.4498
23.5369
22.8831
22.4756
22.292
22.3018
13.9645
12.2344
11.0256
10.2078
9.79635
9.76418
9.90604
9.99505
10.2748
11.6504
13.7459
16.3346
19.2975
22.7463
26.2655
29.2843
31.2793
32.1038
31.9278
31.0472
29.7482
28.248
26.6993
25.2117
23.8666
22.721
21.8071
21.1338
20.6919
20.4622
20.4194
20.5352
20.7844
21.1431
12.7321
11.054
9.9711
9.32761
9.0233
9.03809
9.35153
10.1029
11.8427
14.3203
17.1419
20.0415
22.9986
25.712
27.7901
28.9387
29.092
28.4563
27.3407
26.0094
24.6424
23.3519
22.2095
21.2633
20.5418
20.0553
19.7975
19.7493
19.884
20.1712
20.583
21.091
21.6677
22.3019
11.2318
9.7453
8.87477
8.47651
8.41626
8.74683
9.73783
11.6669
14.4575
17.2892
20.1641
22.7917
24.9229
26.3517
26.9348
26.7046
25.8755
24.7329
23.511
22.3586
21.3613
20.57
20.0161
19.7156
19.6712
19.8741
20.3084
20.9536
21.7893
22.7984
23.953
25.204
26.472
27.664
9.82298
8.61661
8.03978
7.93934
8.28643
9.35156
11.398
14.0539
16.9712
19.7853
22.2411
24.0409
25.0659
25.2997
24.8585
23.9742
22.9057
21.8575
20.9576
20.2797
19.87
19.761
19.977
20.5376
21.4611
22.77
24.4918
26.6646
29.3375
32.5628
36.3894
40.852
45.7826
50.2496
8.78125
7.92616
7.7161
8.073
9.12773
10.9661
13.4908
16.3067
19.0808
21.4454
23.1098
23.9347
23.9832
23.4447
22.5767
21.6257
20.7754
20.1422
19.8001
19.8054
20.212
21.0795
22.482
24.5144
27.3021
31.0133
35.8843
42.2305
50.4957
61.332
75.8055
96.2545
127.129
177.764
256.493
256.494
256.495
256.497
256.5
256.51
188.444
57.6465
44.5537
41.6819
40.4386
40.1191
188.446
36.9935
21.3977
19.4094
18.4814
17.6905
188.447
36.5113
23.1732
20.1563
18.1103
16.3402
188.447
43.0993
28.5122
23.163
19.5076
16.7718
188.449
50.7762
33.0918
25.141
19.9696
16.4629
188.466
57.5214
35.8485
25.5732
19.3632
15.408
188.524
62.2177
36.4564
24.4423
17.7177
13.7435
188.657
64.0852
34.905
22.081
15.5126
11.9359
188.862
62.7043
31.5738
19.0668
13.2921
10.3951
8.23231
7.84046
8.13653
9.07519
10.7032
12.9548
15.5909
18.2504
20.5478
22.1423
22.8818
22.8415
22.2667
21.4471
20.6285
19.9794
19.6038
19.5705
19.9352
20.751
22.0721
23.9532
26.446
29.587
33.3512
37.7079
42.5694
47.8165
53.3437
59.1703
65.7603
74.8001
93.6062
161.516
8.27251
8.43586
9.19792
10.5657
12.5113
14.8704
17.3516
19.5659
21.1497
21.9053
21.8849
21.3402
20.5856
19.8789
19.384
19.1945
19.3688
19.9501
20.9743
22.4665
24.4318
26.8368
29.5852
32.495
35.298
37.6606
39.185
39.4592
38.073
34.4098
28.8383
23.7994
32.7991
160.574
8.94119
9.46182
10.557
12.1848
14.2358
16.479
18.5738
20.1534
20.9781
21.0453
20.5794
19.8987
19.2765
18.8845
18.8113
19.1041
19.7922
20.8905
22.3931
24.2501
26.3444
28.4726
30.3461
31.6186
31.9383
30.9862
28.5424
24.4551
19.6045
15.8865
12.7696
12.2726
25.6171
160.506
9.88862
10.6765
11.9858
13.7229
15.701
17.6329
19.183
20.0848
20.2736
19.9189
19.3212
18.7642
18.4341
18.4245
18.7755
19.5044
20.6078
22.0439
23.7104
25.4222
26.9144
27.8728
27.9932
27.0467
24.925
21.6605
17.7875
14.6225
11.9432
9.91629
8.56458
9.63296
23.911
160.486
10.9635
11.9326
13.3487
15.0506
16.7903
18.2716
19.2282
19.5429
19.3166
18.8107
18.3092
18.0144
18.0328
18.4059
19.1408
20.2144
21.5528
23.0077
24.3526
25.3071
25.5954
25.0131
23.4833
21.0692
17.8727
14.7983
12.3833
10.5467
9.01174
7.81617
7.24035
8.79324
23.1518
160.475
12.0609
13.1267
14.5382
16.0707
17.4495
18.4243
18.8459
18.7501
18.3433
17.8943
17.6208
17.6451
18.016
18.7364
19.7638
20.9963
22.2532
23.2906
23.8473
23.7108
22.7745
21.0529
18.6345
15.6823
13.3152
11.4154
9.88442
8.65077
7.63646
6.89391
6.67676
8.4193
22.7534
160.459
13.115
14.1946
15.4887
16.7361
17.6911
18.1894
18.2107
17.9038
17.5088
17.2495
17.266
17.6194
18.3108
19.283
20.4109
21.4967
22.2958
22.5809
22.2043
21.1307
19.4035
17.0398
14.5034
12.4897
10.8399
9.49775
8.41654
7.53351
6.81931
6.33325
6.31113
8.18531
22.5978
160.444
14.0865
15.0847
16.1551
17.0453
17.5825
17.6995
17.4852
17.1458
16.8995
16.8969
17.2202
17.8705
18.7808
19.8092
20.7493
21.368
21.4717
20.9657
19.8609
18.2121
15.821
13.7002
11.8896
10.396
9.16423
8.16772
7.3724
6.71574
6.19425
5.86894
5.98237
7.99895
22.6979
160.442
14.9191
15.7442
16.5189
17.0407
17.2236
17.0912
16.8031
16.5665
16.5417
16.8185
17.4163
18.2576
19.192
20.0081
20.4868
20.4651
19.8841
18.7813
17.1863
14.8732
12.9372
11.3046
9.94347
8.81993
7.9178
7.17786
6.56553
6.04532
5.64094
5.41616
5.63113
7.86257
23.0712
160.441
15.5635
16.1479
16.6028
16.7991
16.7296
16.4861
16.2498
16.1909
16.4181
16.9483
17.7145
18.5593
19.2701
19.6382
19.524
18.8932
17.7992
16.2749
14.0925
12.2403
10.7093
9.47845
8.47005
7.64999
6.97719
6.39694
5.88595
5.43943
5.09572
4.93568
5.29039
7.85373
23.785
160.435
15.9955
16.3068
16.4635
16.4106
16.1973
15.9538
15.8499
16.0154
16.4725
17.1555
17.9151
18.538
18.8203
18.6364
17.9675
16.8786
15.4215
13.476
11.6468
10.2273
9.09473
8.23842
7.50838
6.8619
6.27638
5.73509
5.24558
4.83264
4.53392
4.46883
5.05053
8.08205
24.9704
160.425
16.2169
16.257
16.1667
15.951
15.6926
15.537
15.6202
15.9912
16.591
17.2685
17.8196
18.04
17.807
17.1098
16.0223
14.6363
12.896
11.2394
9.90257
8.97158
8.25757
7.63498
7.02139
6.39128
5.75924
5.1633
4.65049
4.25789
4.0257
4.15442
5.06803
8.82789
27.8648
160.415
16.2484
16.0476
15.7798
15.4871
15.2683
15.2568
15.5167
16.0269
16.6311
17.1246
17.3068
17.0481
16.3347
15.2451
13.8863
12.308
10.8762
9.76779
9.01089
8.49443
8.05384
7.58815
7.01587
6.33716
5.59275
4.88101
4.30788
3.92092
3.79595
4.20216
5.68187
10.9617
32.2229
160.404
16.1238
15.7312
15.3556
15.0554
14.9305
15.0724
15.473
16.0063
16.4603
16.6272
16.3696
15.6619
14.5838
13.2671
11.8536
10.5262
9.60647
9.03956
8.69791
8.45497
8.22035
7.9191
7.47095
6.82049
5.99233
5.13332
4.4562
4.09427
4.15174
4.93923
7.17767
13.6774
35.4425
160.391
15.8803
15.3522
14.9331
14.6826
14.6824
14.9488
15.3994
15.8243
16.0011
15.7723
15.0963
14.0451
12.765
11.4302
10.2321
9.38413
8.90587
8.67425
8.57618
8.54302
8.52017
8.43678
8.19526
7.69476
6.90043
5.93889
5.12072
4.75551
5.0065
6.13678
8.91597
15.9047
36.9841
160.378
15.5542
14.9471
14.5353
14.3638
14.4782
14.8233
15.2151
15.419
15.2491
14.6337
13.6299
12.3867
11.0938
9.93869
9.07694
8.59903
8.38799
8.34748
8.41433
8.55651
8.73879
8.89999
8.93988
8.72503
8.14
7.20287
6.20753
5.68055
5.98962
7.28174
10.2289
17.0402
36.8291
160.369
15.1797
14.5415
14.1708
14.096
14.2957
14.6354
14.8694
14.7823
14.2608
13.3302
12.1317
10.8573
9.69235
8.7691
8.18103
7.93028
7.87004
7.9408
8.11826
8.39117
8.73948
9.12125
9.45527
9.60911
9.41323
8.74157
7.68592
6.76379
6.75564
7.94336
10.7303
16.9441
35.3582
160.364
14.7801
14.1481
13.8396
13.8505
14.0939
14.3444
14.351
13.9537
13.1292
11.9925
10.7299
9.53991
8.53527
7.81093
7.41918
7.29397
7.31958
7.4521
7.69279
8.04449
8.49803
9.03477
9.60449
10.1087
10.3806
10.2102
9.44551
8.25181
7.4384
8.03274
10.355
15.7815
33.0394
160.362
14.3748
13.7789
13.5473
13.617
13.8413
13.9361
13.6841
13.0038
11.9625
10.7384
9.51071
8.42968
7.57223
7.01765
6.75767
6.69653
6.76529
6.92603
7.19058
7.57471
8.07295
8.69019
9.40241
10.157
10.8354
11.2319
11.0804
10.1695
8.73298
8.01456
9.39545
13.9103
30.363
160.361
13.9782
13.4313
13.2649
13.3746
13.5216
13.4198
12.9135
12.0067
10.8419
9.60735
8.46556
7.49428
6.77762
6.35937
6.17902
6.14998
6.23226
6.40133
6.67143
7.04922
7.54414
8.18408
8.95574
9.84259
10.7898
11.6485
12.1647
11.9845
10.8036
8.97392
8.60298
11.9755
28.4343
160.361
13.5987
13.1115
13.001
13.1099
13.1349
12.8228
12.0945
11.0342
9.82443
8.63597
7.57461
6.7115
6.12094
5.79535
5.6533
5.63168
5.70958
5.87061
6.12929
6.4954
6.98151
7.60248
8.37231
9.30241
10.3863
11.5441
12.5935
13.2001
12.8938
11.2499
9.15821
11.1035
27.6735
160.361
13.2374
12.8102
12.7475
12.8177
12.6938
12.1805
11.2781
10.1323
8.92916
7.79955
6.81787
6.06006
5.5694
5.29814
5.16862
5.13921
5.20031
5.34153
5.57569
5.91383
6.37028
6.96322
7.71611
8.64001
9.77133
11.0886
12.495
13.747
14.3937
13.8336
11.5386
11.2959
27.5628
160.362
12.8984
12.532
12.5003
12.5006
12.2177
11.5276
10.5025
9.32289
8.15147
7.08095
6.17939
5.51658
5.09745
4.85494
4.72527
4.6818
4.72102
4.83693
5.03965
5.34079
5.75572
6.30445
7.01283
7.91347
9.04093
10.4212
12.0352
13.7501
15.22
15.8222
14.7376
12.9383
27.9321
160.363
12.5853
12.2788
12.2569
12.1657
11.7275
10.8928
9.791
8.60983
7.47808
6.46595
5.64276
5.05892
4.68771
4.45905
4.32375
4.26475
4.28171
4.37282
4.54262
4.80313
5.17018
5.66516
6.31667
7.16212
8.24861
9.62812
11.3386
13.3516
15.4683
17.1831
17.6402
16.3793
28.3205
160.364
12.3012
12.05
12.017
11.8223
11.2421
10.2959
9.15264
7.98698
6.89625
5.94209
5.19146
4.6695
4.32974
4.10764
3.96578
3.89257
3.88866
3.9601
4.09881
4.31891
4.63555
5.06984
5.65149
6.42157
7.43542
8.76381
10.4858
12.6579
15.2302
17.8881
19.8794
20.1004
28.9933
160.364
12.0423
11.8425
11.7824
11.4804
10.7759
9.74819
8.58764
7.44498
6.39493
5.49753
4.81075
4.33604
4.018
3.80059
3.65511
3.57309
3.55499
3.60524
3.71666
3.90032
4.16949
4.54339
5.05022
5.73135
6.64634
7.87902
9.53975
11.7527
14.601
17.9887
21.4035
23.7335
31.8091
160.364
11.8146
11.6557
11.5556
11.1485
10.3388
9.25499
8.09197
6.97458
5.96462
5.12114
4.48854
4.05
3.74834
3.53576
3.38932
3.30194
3.27325
3.30632
3.39552
3.54888
3.7774
4.09739
4.5335
5.12366
5.92594
7.02913
8.56477
10.7114
13.669
17.5593
22.1984
26.8019
35.8201
160.364
11.6145
11.4877
11.3393
10.8328
9.9373
8.81665
7.65918
6.5676
5.59681
4.80289
4.21532
3.805
3.51673
3.30943
3.16382
3.07337
3.03701
3.05684
3.12869
3.25825
3.45442
3.73046
4.10658
4.61474
5.30637
6.26545
7.62991
9.61551
12.5226
16.6806
22.2739
29.0366
40.2646
160.363
11.4407
11.3368
11.1355
10.5375
9.5739
8.43046
7.2829
6.21695
5.28381
4.53418
3.98366
3.59591
3.3191
3.11723
2.97332
2.88108
2.83899
2.8486
2.90707
3.0185
3.19015
3.4327
3.76216
4.20391
4.80004
5.62197
6.79748
8.55339
11.2629
15.4477
21.6745
30.3253
44.5369
160.363
11.2897
11.2018
10.9458
10.2655
9.24909
8.09271
6.95734
5.91645
5.01874
4.30782
3.78771
3.41834
3.15147
2.95477
2.81273
2.71919
2.67246
2.67391
2.72189
2.81954
2.97299
3.19105
3.48645
3.87886
4.40106
5.10875
6.10717
7.60546
10.0044
13.9818
20.4836
30.6449
48.1044
160.37
11.1586
11.0822
10.7711
10.0185
8.96157
7.79944
6.67741
5.66067
4.79559
4.11795
3.62276
3.26855
3.01023
2.81812
2.67767
2.58288
2.53204
2.52662
2.56611
2.65305
2.79292
2.99331
3.26472
3.62268
4.09257
4.71567
5.56982
6.82435
8.85618
12.4306
18.8283
30.0522
50.7758
160.391
11.0453
10.9766
10.612
9.79661
8.70969
7.54721
6.43865
5.44483
4.60921
3.95979
3.48501
3.14332
2.89225
2.70401
2.56474
2.46855
2.41385
2.40239
2.43476
2.51315
2.64262
2.83007
3.08467
3.41937
3.85468
4.42152
5.17286
6.22834
7.89815
10.9453
16.9267
28.6399
52.3459
160.437
10.9471
10.8833
10.4689
9.59979
8.49154
7.33236
6.23719
5.26475
4.45525
3.82951
3.37138
3.04
2.79497
2.60989
2.47139
2.37367
2.31531
2.29844
2.32473
2.39612
2.51743
2.69514
2.9377
3.25666
3.6699
4.20262
4.89031
5.80607
7.16908
9.64865
14.9167
26.5194
52.6373
160.518
10.8612
10.8011
10.3418
9.42737
8.30473
7.1515
6.0696
5.11684
4.3301
3.72405
3.27943
2.95642
2.71633
2.53381
2.39579
2.29654
2.2348
2.21312
2.23424
2.29992
2.41477
2.58501
2.81872
3.12677
3.52584
4.03916
4.69301
5.52609
6.66693
8.63003
13.009
23.8735
51.6082
160.636
10.7853
10.7292
10.2305
9.27838
8.14685
7.00165
5.93293
4.99805
4.23088
3.64098
3.20716
2.89083
2.65473
2.47428
2.33662
2.23603
2.17134
2.14553
2.16242
2.2236
2.33346
2.49803
2.7252
3.0256
3.41543
3.918
4.55706
5.35146
6.35678
7.91704
11.3879
21.0198
49.2865
160.776
10.7178
10.6669
10.1348
9.15177
8.01566
6.88027
5.82463
4.90587
4.15528
3.57842
3.15303
2.84189
2.60894
2.43021
2.29294
2.19136
2.12434
2.09528
2.10903
2.16697
2.27322
2.43367
2.65622
2.95154
3.33558
3.83245
4.46721
5.25119
6.19147
7.48414
10.1608
18.2288
45.9262
160.917
10.6577
10.6136
10.0542
9.04642
7.90908
6.7851
5.74257
4.83828
4.10153
3.53496
3.1159
2.80857
2.57801
2.40075
2.26406
2.16202
2.09354
2.06238
2.07431
2.13036
2.23436
2.39213
2.61179
2.90436
3.2857
3.78055
4.4165
5.20507
6.12714
7.27156
9.35165
15.7728
41.8859
161.041
10.6041
10.5688
9.98841
8.96123
7.82525
6.71418
5.68494
4.79369
4.06832
3.50957
3.09493
2.79015
2.56126
2.38534
2.24957
2.1478
2.07911
2.04746
2.05908
2.11458
2.21761
2.3741
2.59255
2.88468
3.26653
3.76304
4.40393
5.2041
6.13325
7.21635
8.91685
13.8546
37.4981
161.133
10.5562
10.5322
9.93694
8.89508
7.76246
6.66573
5.65022
4.77088
4.0545
3.50146
3.08963
2.78631
2.55807
2.38353
2.24947
2.14932
2.08229
2.05236
2.06496
2.12092
2.22409
2.38064
2.59961
2.89375
3.27966
3.78218
4.43189
5.24721
6.19463
7.26855
8.77036
12.5785
33.1596
161.187
10.5134
10.5032
9.89921
8.84687
7.71906
6.63796
5.63679
4.7686
4.05662
3.50864
3.09964
2.79775
2.57113
2.39826
2.26608
2.16821
2.10372
2.07646
2.09067
2.148
2.25268
2.41123
2.63334
2.93302
3.3281
3.84347
4.50835
5.33792
6.30765
7.39928
8.8315
11.9448
29.3337
161.2
10.4751
10.4814
9.87433
8.815
7.69236
6.62689
5.63994
4.78319
4.08061
3.53708
3.12948
2.82771
2.60151
2.42959
2.29907
2.20361
2.14182
2.11738
2.13394
2.1937
2.30128
2.46358
2.69105
2.99923
3.40763
3.94146
4.62866
5.4828
6.47967
7.60015
9.03472
11.915
26.8215
161.177
10.4409
10.4639
9.85868
8.79744
7.68153
6.63337
5.66325
4.8196
4.12659
3.58701
3.17978
2.87696
2.64988
2.47814
2.34889
2.25556
2.19642
2.17516
2.19488
2.25845
2.37058
2.53861
2.77408
3.0943
3.52106
4.08002
4.79707
5.68257
6.70999
7.86187
9.31094
12.0731
26.04
161.126
10.4112
10.4511
9.85219
8.79353
7.68556
6.65612
5.70554
4.87718
4.19454
3.65899
3.25153
2.94662
2.71771
2.54527
2.41674
2.32517
2.26862
2.25119
2.27523
2.34401
2.46248
2.63853
2.88518
3.22202
3.67345
4.2656
5.02161
5.94607
7.00747
8.19193
9.65907
12.3214
25.4904
161.057
10.3868
10.4443
9.85493
8.8033
7.70387
6.69349
5.76564
4.95529
4.28461
3.75385
3.34615
3.03843
2.807
2.63319
2.50476
2.41464
2.36077
2.34799
2.37767
2.45312
2.57972
2.76635
3.02819
3.38763
3.87187
4.50733
5.31321
6.28525
7.38357
8.6007
10.0837
12.6361
25.1044
160.975
10.3693
10.4449
9.86723
8.82669
7.73628
6.74452
5.84255
5.0534
4.39692
3.87245
3.46506
3.15467
2.92043
2.74488
2.61615
2.52734
2.4764
2.46924
2.50579
2.58925
2.72566
2.92603
3.20837
3.59848
4.12628
4.81784
5.68651
6.71516
7.85159
9.09371
10.5872
13.0268
24.8643
160.886
10.3606
10.4547
9.88981
8.86342
7.78294
6.80906
5.93544
5.1708
4.53127
4.01549
3.60989
3.29768
3.06108
2.88392
2.75489
2.66755
2.62008
2.61953
2.66389
2.7564
2.90457
3.12271
3.43314
3.86514
4.45094
5.21482
6.16098
7.25443
8.42722
9.68926
11.1749
13.4765
24.7403
160.797
10.3637
10.4766
9.92396
8.91366
7.84475
6.88775
6.04349
5.30662
4.68749
4.18306
3.78198
3.47022
3.23248
3.05437
2.92554
2.84017
2.79729
2.80407
2.85654
2.95898
3.12171
3.36394
3.71349
4.20335
4.86654
5.72301
6.7622
7.92561
9.12767
10.395
11.8414
13.9624
24.6991
160.709
10.3828
10.514
9.97178
8.97788
7.92459
6.98462
6.16714
5.45992
4.86437
4.37545
3.98301
3.67481
3.43803
3.26029
3.13255
3.05004
3.01568
3.02797
3.08795
3.20184
3.38446
3.66147
4.06688
4.63713
5.40363
6.3767
7.52271
8.7548
9.97105
11.215
12.5736
14.4472
24.7125
160.626
10.4227
10.5721
10.0366
9.05888
8.02478
7.10356
6.31051
5.63276
5.06365
4.59445
4.2147
3.91367
3.68049
3.50495
3.37943
3.30019
3.27241
3.29171
3.36131
3.49167
3.70476
4.03476
4.52185
5.204
6.10713
7.22238
8.48245
9.77038
10.9745
12.1466
13.3418
14.8775
24.7548
160.554
10.4908
10.6573
10.1236
9.16212
8.14879
7.24692
6.479
5.83078
5.28942
4.84276
4.47925
4.18892
3.96216
3.79086
3.66887
3.59352
3.57264
3.60077
3.68474
3.84198
4.1048
4.51753
5.12499
5.96259
7.04192
8.32085
9.68821
11.0025
12.1521
13.1733
14.0898
15.1838
24.8412
160.495
10.5987
10.7792
10.2427
9.29916
8.30369
7.42212
6.67997
6.06121
5.54822
5.1257
4.7809
4.50414
4.28647
4.12154
4.00466
3.935
3.92382
3.96618
4.07532
4.27976
4.62613
5.16907
5.95319
7.00279
8.29924
9.74719
11.1906
12.4736
13.4987
14.2463
14.7192
15.2768
24.9906
160.477
10.7634
10.9539
10.422
9.48427
8.50313
7.64204
6.92598
6.33633
5.8515
5.45366
5.12898
4.86784
4.66177
4.5058
4.3969
4.34028
4.34401
4.41171
4.56805
4.85829
5.34663
6.09399
7.1339
8.46202
10.0017
11.5897
13.0411
14.2136
14.9803
15.2493
15.0652
15.0727
25.2896
160.466
11.0125
11.2262
10.6942
9.74093
8.76787
7.92616
7.23589
6.67466
6.21742
5.84441
5.54104
5.29743
5.10562
4.96171
4.86511
4.83246
4.86406
4.98374
5.23546
5.68684
6.41854
7.48401
8.88136
10.5419
12.3017
13.9438
15.2923
16.1988
16.4643
15.9545
14.9112
14.5989
26.357
160.451
11.4122
11.6494
11.0999
10.1005
9.12664
8.30194
7.6366
7.10329
6.67381
6.32695
6.04724
5.82302
5.648
5.51961
5.44244
5.44816
5.54742
5.78795
6.24212
7.0017
8.14654
9.68329
11.5282
13.5075
15.3733
16.9017
17.9361
18.2889
17.6579
16.0032
14.0842
14.3368
31.8551
160.432
12.06
12.2968
11.6983
10.6109
9.62644
8.81618
8.17598
7.67266
7.27454
6.95764
6.70482
6.5021
6.34795
6.24493
6.22325
6.32141
6.58841
7.10805
7.98458
9.31222
11.1086
13.2596
15.5476
17.6879
19.4042
20.5097
20.8387
20.121
18.0551
14.9664
12.7998
16.7276
38.1697
160.413
13.1087
13.2957
12.6065
11.3757
10.3722
9.57797
8.97048
8.50651
8.14947
7.8711
7.65177
7.48437
7.37299
7.33855
7.47929
7.84923
8.5546
9.71424
11.4272
13.696
16.3528
19.1044
21.5874
23.4756
24.54
24.6223
23.5257
20.986
16.9527
12.7619
12.4224
19.3255
41.278
160.391
15.0231
14.9807
14.134
12.6932
11.6714
10.9133
10.3765
9.99198
9.71378
9.51426
9.37499
9.30537
9.33152
9.59678
10.2572
11.4241
13.2276
15.7276
18.8482
22.3288
25.7128
28.5664
30.5163
31.276
30.6748
28.6088
25.0045
19.823
14.3054
11.6035
13.4712
20.3942
41.0325
160.373
18.7507
18.2605
17.3761
15.866
14.9818
14.4335
14.1582
14.0346
13.9985
14.0351
14.1522
14.4286
15.095
16.6246
18.9698
22.1951
26.2626
30.8553
35.4914
39.5328
42.3891
43.8962
43.6035
41.2806
36.9409
30.9069
24.239
18.1737
15.8633
15.3575
16.8758
21.9486
39.7391
160.364
37.1524
32.0018
32.6362
32.7568
32.7537
32.9953
33.4936
34.1807
34.9721
35.8108
36.7457
39.3453
43.3953
48.1572
53.7898
59.9649
65.9842
71.1058
74.783
76.665
75.8149
72.2529
66.005
57.465
48.5024
41.7407
40.2602
39.6428
39.4133
39.3082
39.0132
40.2391
50.546
160.361
237.207
233.685
231.327
230.142
229.966
229.982
229.983
230.006
230.039
230.061
230.059
230.027
229.947
229.804
229.585
229.277
228.877
228.416
227.952
227.573
227.343
227.243
227.215
227.216
227.216
227.214
227.213
227.211
227.21
227.209
227.208
227.207
227.205
193.782
189.098
58.6638
27.3161
16.1134
11.4935
9.34987
189.324
52.708
22.9224
13.7089
10.3394
8.89341
189.513
46.3709
19.3802
12.2513
9.90141
9.03389
189.665
40.6065
16.9799
11.6285
10.0849
9.63617
189.788
35.985
15.7319
11.7521
10.6377
10.512
189.895
32.9537
15.6254
12.1904
11.3691
11.4852
190.009
32.5444
15.8751
12.782
12.1938
12.4545
190.099
32.372
16.2473
13.465
13.1098
13.4118
190.168
32.2921
16.6902
14.1815
13.976
14.3062
190.22
32.2879
17.1986
14.9713
14.7977
15.0842
190.257
32.3437
17.721
15.6991
15.5307
15.7071
190.269
32.4723
18.2867
16.3628
16.1443
16.1534
190.236
32.6721
18.7895
16.9372
16.6145
16.4189
190.206
32.9425
19.2422
17.4056
16.9322
16.5153
190.182
33.1555
19.6212
17.7549
17.1003
16.4637
190.305
33.376
19.9212
17.981
17.1304
16.2904
190.561
33.5967
20.1405
18.0879
17.0402
16.0241
190.839
33.8037
20.2785
18.0851
16.8501
15.6906
191.125
33.9901
20.3371
17.9856
16.5802
15.3123
191.417
34.1498
20.3227
17.8038
16.2502
14.9116
191.702
34.298
20.2466
17.5557
15.8784
14.5041
191.978
34.4465
20.1206
17.2574
15.4836
14.1034
192.245
34.5983
19.9558
16.9242
15.0829
13.7185
192.505
34.7554
19.7628
16.57
14.6861
13.3522
192.755
34.9204
19.5522
16.2086
14.3015
13.0089
192.996
35.0958
19.3339
15.8525
13.9367
12.6895
193.227
35.2895
19.1153
15.5079
13.594
12.3964
193.445
35.5117
18.9021
15.1773
13.273
12.1307
193.65
35.7628
18.7006
14.8637
12.9747
11.8894
193.84
36.0423
18.5152
14.5695
12.6985
11.671
194.012
36.3498
18.3488
14.2963
12.4441
11.4757
194.165
36.6845
18.2034
14.0441
12.2112
11.3051
194.297
37.0451
18.0797
13.809
11.9981
11.1542
194.408
37.4299
17.9773
13.5871
11.8028
11.0191
194.495
37.8354
17.8947
13.3826
11.6235
10.8976
194.559
38.23
17.8306
13.1989
11.4584
10.7877
194.598
38.8167
17.7881
13.0337
11.3061
10.6874
194.613
39.635
17.7697
12.885
11.1648
10.5952
194.6
40.6018
17.7772
12.7515
11.033
10.5098
194.562
41.5897
17.8575
12.633
10.9096
10.4302
194.498
42.5513
17.9862
12.5331
10.7946
10.3562
194.413
43.44
18.1327
12.4523
10.6901
10.2886
194.309
44.2081
18.2795
12.3842
10.5961
10.2277
194.192
44.8068
18.4071
12.3229
10.5114
10.1734
194.068
45.1846
18.4934
12.2614
10.4348
10.1262
193.944
45.2884
18.515
12.1921
10.3653
10.087
193.828
45.0686
18.4445
12.1099
10.302
10.0572
193.73
44.4215
18.2982
12.0212
10.2473
10.0396
193.653
43.6361
18.1062
11.9242
10.2033
10.0397
193.608
42.7778
17.8659
11.8183
10.1734
10.0649
193.602
41.8151
17.5765
11.7048
10.1638
10.1257
193.646
40.7267
17.2376
11.5898
10.1847
10.2384
193.748
39.5051
16.8544
11.4868
10.2533
10.4296
193.917
38.1714
16.4339
11.4187
10.4044
10.745
194.163
36.7582
16.0038
11.4196
10.6976
11.2744
194.495
35.314
15.6152
11.5447
11.2521
12.178
194.923
33.9925
15.3365
11.9121
12.2948
13.8566
195.458
32.9518
15.251
12.7559
14.4079
17.1801
196.109
32.2423
15.5893
14.8368
20.0732
29.3815
196.881
32.0341
17.4663
24.1822
52.8327
122.289
197.561
31.9861
19.7303
33.1094
77.2147
199.922
198.302
32.2951
22.0283
39.8178
88.7639
200.281
199.096
32.8886
24.0271
44.4635
93.9754
199.333
227.537
227.309
227.334
227.359
227.368
227.388
227.413
227.429
227.428
227.417
227.397
227.375
227.342
227.304
227.266
227.236
227.218
227.21
227.206
227.205
227.205
227.205
227.205
227.205
227.205
227.205
227.205
227.205
227.205
227.204
227.204
227.204
227.204
193.782
66.2873
40.0934
36.1921
34.4222
33.4342
32.9868
32.9963
33.3851
34.1557
35.2358
36.6394
41.4349
46.2922
50.3866
53.0838
53.7589
52.5035
50.1549
47.4179
44.681
42.1635
40.4779
39.4694
39.28
39.2164
39.1579
39.0919
39.0202
38.9444
38.896
38.9675
39.7344
47.4847
160.36
37.7255
17.374
13.7893
12.7751
12.2169
11.8032
11.5154
11.3483
11.3342
11.4975
11.8919
13.0196
15.6234
18.852
22.0735
24.5332
25.7637
25.7295
24.576
22.5198
19.9222
17.4113
15.4534
14.2775
13.7096
13.4526
13.3279
13.2085
13.1412
13.218
13.7662
16.3155
30.7952
160.36
28.2244
13.2227
10.2679
9.44588
8.88991
8.36497
7.88474
7.46047
7.12252
6.89816
6.81921
6.98632
7.78878
9.30791
11.3746
13.5919
15.4549
16.5889
16.8152
16.0993
14.5505
12.488
10.3644
8.62693
7.44873
6.83295
6.53253
6.41195
6.44215
6.79261
7.96616
11.8921
28.9055
160.36
25.7274
12.932
10.1205
9.17899
8.43449
7.71519
7.0606
6.47505
5.97787
5.58747
5.32079
5.20986
5.37924
5.98334
7.07605
8.57436
10.2064
11.6046
12.4633
12.6057
11.98
10.6814
8.96082
7.18774
5.69988
4.68304
4.17581
4.02701
4.17455
4.78796
6.4122
11.0144
28.7564
160.36
25.8095
13.8974
10.8449
9.61336
8.60039
7.6502
6.82823
6.11615
5.51497
5.03188
4.67459
4.45291
4.40658
4.62503
5.18281
6.11333
7.33096
8.60276
9.63343
10.1896
10.1448
9.47867
8.28259
6.77475
5.25004
4.05987
3.32162
3.0914
3.31001
4.08871
5.96054
10.8606
28.8286
160.36
26.6465
15.1955
11.7862
10.2158
8.91039
7.7233
6.74661
5.92876
5.24679
4.69667
4.28246
4.00622
3.87571
3.93756
4.2369
4.82422
5.69714
6.7393
7.72481
8.42691
8.68356
8.43126
7.6825
6.52158
5.14236
3.93087
3.07876
2.73632
2.93873
3.77949
5.76768
10.822
28.9227
160.36
27.8106
16.6221
12.7928
10.8501
9.2493
7.83602
6.72244
5.81671
5.06424
4.45298
3.98954
3.67744
3.51315
3.51285
3.69475
4.09535
4.73548
5.56361
6.42614
7.14333
7.53056
7.51346
7.0696
6.2315
5.08112
3.96001
3.08276
2.63509
2.7441
3.56318
5.58486
10.7354
28.9691
160.36
29.0962
18.0559
13.8266
11.4914
9.58758
7.96539
6.73148
5.75453
4.94558
4.27613
3.76115
3.4165
3.23618
3.21758
3.35328
3.65903
4.15417
4.81512
5.54504
6.2048
6.62984
6.73887
6.48666
5.88093
4.96803
3.98834
3.15202
2.64346
2.62334
3.34827
5.33658
10.5386
28.9112
160.36
30.3767
19.501
14.8771
12.1301
9.91099
8.0919
6.76294
5.73018
4.87838
4.16715
3.60448
3.2271
3.03658
3.01962
3.14304
3.40187
3.80574
4.34208
4.95209
5.53342
5.9481
6.09843
5.95962
5.51357
4.79774
3.96859
3.21289
2.69545
2.5721
3.11839
5.00755
10.2139
28.7213
160.36
31.5967
20.9316
15.9219
12.7363
10.1913
8.20363
6.80587
5.73833
4.85815
4.12334
3.53775
3.14137
2.94353
2.9317
3.04992
3.27708
3.61428
4.0547
4.56186
5.06057
5.43268
5.58587
5.50042
5.15563
4.58644
3.89814
3.24144
2.75407
2.56744
2.95006
4.59782
9.72156
28.3224
160.361
32.7962
22.3077
16.9399
13.297
10.4279
8.32115
6.87579
5.79308
4.90731
4.17332
3.59872
3.20972
3.01103
2.98809
3.08259
3.26924
3.54225
3.8957
4.30854
4.73614
5.05121
5.1835
5.11135
4.82358
4.35568
3.79222
3.23657
2.79626
2.58329
2.85165
4.29854
9.13123
27.7463
160.361
34.0405
23.5985
17.8955
13.7921
10.6293
8.43412
6.98871
5.93221
5.07814
4.37782
3.83281
3.45524
3.24728
3.19767
3.25224
3.38911
3.59765
3.86921
4.18722
4.51665
4.77228
4.87483
4.79219
4.53189
4.13398
3.6695
3.20437
2.8162
2.60462
2.79575
4.06932
8.70774
27.1824
160.361
35.1591
24.7914
18.7638
14.2159
10.81
8.57266
7.16753
6.17372
5.39339
4.76728
4.28128
3.9338
3.72724
3.63915
3.63975
3.71194
3.84337
4.02326
4.23691
4.45677
4.62624
4.68088
4.56922
4.31195
3.95527
3.55641
3.16233
2.82764
2.63145
2.7707
3.89188
8.33557
26.7692
160.361
36.0853
25.8845
19.5236
14.5599
10.9778
8.7531
7.42986
6.54194
5.88407
5.38234
5.0037
4.73368
4.56998
4.47049
4.43089
4.44111
4.48985
4.56609
4.65721
4.74375
4.791
4.75392
4.57854
4.27304
3.90987
3.53023
3.17278
2.87237
2.6852
2.78295
3.77035
7.98338
26.3406
160.361
36.7878
26.8761
20.1553
14.8311
11.1458
8.99256
7.79596
7.06055
6.57547
6.25295
6.04509
5.92332
5.86947
5.8309
5.8215
5.83163
5.84774
5.85601
5.84211
5.79077
5.68251
5.49205
5.18614
4.72705
4.24956
3.79023
3.37872
3.04187
2.81792
2.85543
3.71586
7.70155
25.9254
160.361
37.3163
27.6729
20.6401
15.0423
11.3337
9.30921
8.28378
7.74257
7.4702
7.36915
7.38243
7.47239
7.56486
7.67129
7.78752
7.89763
7.98329
8.02471
7.99586
7.87317
7.63836
7.27497
6.76714
6.07966
5.30998
4.58667
3.95524
3.45143
3.09897
3.01942
3.74318
7.51862
25.5796
160.361
37.6961
28.2709
20.9834
15.241
11.5639
9.71627
8.89898
8.57907
8.5365
8.6679
8.91059
9.18268
9.46314
9.75942
10.056
10.3341
10.5762
10.7683
10.8589
10.7959
10.5439
10.0728
9.36109
8.40361
7.27521
6.07799
5.02381
4.17696
3.57405
3.29592
3.85963
7.45294
25.3684
160.362
37.9445
28.688
21.1966
15.4071
11.8389
10.2147
9.6272
9.53469
9.71533
10.0642
10.4656
10.8951
11.3543
11.8268
12.2931
12.7354
13.1403
13.4506
13.6332
13.6712
13.5278
13.1596
12.5198
11.5573
10.1737
8.42496
6.69019
5.27722
4.27211
3.69621
4.06435
7.51244
25.3286
160.364
38.0731
28.9369
21.2896
15.4993
12.147
10.7877
10.4329
10.5474
10.9181
11.3663
11.8734
12.4244
12.9971
13.5685
14.117
14.6217
15.0619
15.4232
15.7051
15.8855
15.9242
15.7642
15.3337
14.5509
13.3373