/*--------------------------------*- C++ -*----------------------------------*\
| =========                 |                                                 |
| \\      /  F ield         | OpenFOAM: The Open Source CFD Toolbox           |
|  \\    /   O peration     | Version:  v2012                                 |
|   \\  /    A nd           | Website:  www.openfoam.com                      |
|    \\/     M anipulation  |                                                 |
\*---------------------------------------------------------------------------*/
FoamFile
{
    version     2.0;
    format      ascii;
    class       volScalarField;
    location    "574";
    object      p;
}
// * * * * * * * * * * * * * * * * * * * * * * * * * * * * * * * * * * * * * //

dimensions      [0 2 -2 0 0 0 0];


internalField   nonuniform List<scalar> 
6018
(
1.27474
1.27498
1.2766
1.27941
1.28309
1.28749
1.29268
1.2986
1.30518
1.31228
1.31977
1.32753
1.33551
1.34377
1.35233
1.36095
1.36929
1.37899
1.39679
1.42503
1.27116
1.2714
1.27315
1.27627
1.28046
1.28547
1.29119
1.29755
1.30448
1.31189
1.31962
1.32749
1.33549
1.34372
1.35214
1.3605
1.36848
1.37681
1.38834
1.40172
1.2616
1.26334
1.26638
1.27064
1.27582
1.28175
1.28826
1.29527
1.30272
1.31054
1.31851
1.32643
1.33451
1.3429
1.35134
1.35953
1.36744
1.37583
1.38491
1.3899
1.25079
1.25411
1.25876
1.26443
1.27083
1.27779
1.28515
1.29283
1.30077
1.30892
1.31713
1.32533
1.33367
1.34215
1.35052
1.35855
1.36634
1.37439
1.38165
1.38458
1.23863
1.24381
1.25029
1.2576
1.26542
1.27354
1.28186
1.29031
1.29884
1.30741
1.31597
1.32449
1.33307
1.34165
1.35004
1.35805
1.36581
1.37354
1.37983
1.3822
1.2251
1.23262
1.24131
1.25053
1.25991
1.26931
1.27864
1.28788
1.29701
1.30604
1.31495
1.32376
1.33256
1.34129
1.34978
1.35786
1.36567
1.37343
1.37974
1.38212
1.21013
1.22074
1.23212
1.24351
1.2546
1.26531
1.27567
1.2857
1.29542
1.30489
1.31411
1.32316
1.33217
1.34108
1.34975
1.35798
1.36593
1.37408
1.3814
1.38435
1.19415
1.20835
1.22297
1.23683
1.24975
1.26179
1.27315
1.28396
1.29427
1.30417
1.31369
1.32291
1.33209
1.3412
1.3501
1.35863
1.36678
1.37534
1.38451
1.38956
1.17484
1.19521
1.21401
1.23063
1.24536
1.25862
1.27087
1.28237
1.29324
1.30359
1.31348
1.32299
1.33228
1.34146
1.35055
1.35938
1.36767
1.37619
1.38784
1.40128
1.1566
1.1859
1.20814
1.22642
1.24211
1.25619
1.26905
1.28096
1.29213
1.3027
1.31278
1.32248
1.33191
1.34122
1.35055
1.35971
1.3684
1.37832
1.39624
1.42453
1.35056
1.34955
1.34847
1.34769
1.34739
1.34747
1.34775
1.3481
1.34843
1.34869
1.34879
1.34851
1.34777
1.3467
1.34546
1.34423
1.34312
1.34197
1.34055
1.3387
1.33635
1.33357
1.33039
1.32654
1.32174
1.31591
1.30907
1.30163
1.29439
1.2881
1.28334
1.27999
1.27749
1.27568
1.3501
1.34902
1.34798
1.34736
1.34726
1.34751
1.3479
1.34828
1.34858
1.34878
1.3488
1.34839
1.34754
1.34643
1.34526
1.34418
1.3432
1.34212
1.34081
1.33916
1.33692
1.33419
1.33135
1.32816
1.32372
1.31796
1.31094
1.30311
1.29531
1.28822
1.2825
1.27822
1.27487
1.27239
1.34858
1.34732
1.3464
1.34611
1.3465
1.34728
1.34808
1.3487
1.3491
1.34926
1.34911
1.34844
1.34734
1.3461
1.34505
1.34426
1.34356
1.34269
1.3416
1.34026
1.33824
1.33542
1.33218
1.3282
1.32277
1.31565
1.30699
1.2975
1.28807
1.2793
1.27202
1.26673
1.26318
1.26144
1.34543
1.3439
1.34323
1.34354
1.34478
1.34654
1.34823
1.34954
1.35032
1.35052
1.35003
1.34899
1.34755
1.34622
1.34532
1.34481
1.34439
1.34376
1.34277
1.34116
1.33838
1.33407
1.32837
1.32135
1.31287
1.30314
1.29261
1.28197
1.27212
1.26366
1.257
1.25238
1.24973
1.24921
1.34041
1.3388
1.33863
1.33983
1.34226
1.34533
1.34833
1.35071
1.35209
1.3523
1.35137
1.34987
1.34819
1.34691
1.34628
1.34602
1.3456
1.34454
1.34243
1.33876
1.33313
1.32553
1.31638
1.30616
1.29526
1.28414
1.27319
1.26287
1.25373
1.24609
1.24016
1.23617
1.23445
1.23532
1.33411
1.33278
1.33329
1.33554
1.33927
1.3438
1.34826
1.3518
1.35372
1.35386
1.3527
1.35102
1.34938
1.34823
1.34755
1.34677
1.34518
1.34207
1.33691
1.32953
1.3201
1.30921
1.29753
1.28561
1.27385
1.26256
1.25194
1.2422
1.2337
1.22676
1.22151
1.21809
1.21728
1.2197
1.32789
1.32696
1.3282
1.33139
1.33629
1.34212
1.34781
1.35219
1.35441
1.35466
1.35374
1.35232
1.35085
1.34935
1.34756
1.34483
1.34038
1.3336
1.32444
1.31335
1.30096
1.288
1.27508
1.26254
1.25062
1.23953
1.22936
1.22018
1.2122
1.20581
1.20114
1.19812
1.198
1.20205
1.32271
1.32239
1.32418
1.32804
1.33369
1.34035
1.34672
1.35143
1.35395
1.3547
1.35436
1.35319
1.35126
1.34848
1.34435
1.33826
1.32975
1.31892
1.30629
1.29259
1.27847
1.26448
1.25105
1.23832
1.22631
1.21535
1.20559
1.19685
1.18912
1.18303
1.17908
1.17672
1.17659
1.18215
1.31906
1.3192
1.32135
1.32558
1.33156
1.33842
1.34486
1.34964
1.35253
1.35392
1.35389
1.35235
1.34909
1.34386
1.33623
1.32613
1.31376
1.29973
1.28476
1.26953
1.25445
1.23978
1.22589
1.21284
1.20052
1.18981
1.18078
1.17266
1.1655
1.15981
1.15637
1.15472
1.15317
1.15661
1.31683
1.31726
1.31961
1.32391
1.32976
1.33632
1.34237
1.34706
1.3502
1.35176
1.35134
1.3485
1.34287
1.33429
1.32295
1.30932
1.29411
1.278
1.26152
1.24522
1.22938
1.21404
1.1999
1.18715
1.17558
1.16555
1.15695
1.1493
1.14236
1.13678
1.13404
1.13391
1.13029
1.1245
1.34874
1.34887
1.34933
1.35004
1.35072
1.35098
1.34864
1.34874
1.34912
1.34978
1.35044
1.35063
1.34834
1.34847
1.34883
1.34938
1.34975
1.34952
1.34788
1.34817
1.34851
1.34868
1.34825
1.3471
1.34732
1.34787
1.34802
1.34721
1.34533
1.34288
1.34666
1.34743
1.34692
1.34434
1.34076
1.33708
1.34583
1.34657
1.34466
1.33986
1.33511
1.33103
1.34497
1.34507
1.34111
1.33511
1.32953
1.32522
1.34427
1.34295
1.33707
1.33042
1.32473
1.32099
1.34345
1.3405
1.33342
1.32658
1.32156
1.31835
1.3159
1.31643
1.31876
1.32283
1.32819
1.33404
1.33946
1.34381
1.34668
1.34753
1.34561
1.34029
1.33146
1.31939
1.30485
1.2887
1.27163
1.25417
1.2366
1.21965
1.20364
1.18838
1.17406
1.16101
1.14969
1.14018
1.13252
1.12671
1.1226
1.1202
1.11964
1.12047
1.11736
1.10506
1.31626
1.31667
1.31877
1.32232
1.32685
1.33171
1.33622
1.33968
1.34136
1.34034
1.33577
1.32725
1.31514
1.30019
1.28339
1.26565
1.24748
1.22943
1.21152
1.1939
1.17726
1.16189
1.14833
1.1373
1.12897
1.12306
1.11939
1.11755
1.11704
1.11737
1.11812
1.1186
1.11751
1.11369
1.31783
1.31799
1.31959
1.32232
1.32576
1.32939
1.33253
1.33435
1.33383
1.33
1.32221
1.31058
1.29592
1.27907
1.26087
1.24252
1.22395
1.20515
1.187
1.16987
1.15442
1.14126
1.13092
1.12362
1.11904
1.11659
1.11566
1.11558
1.11582
1.11625
1.11684
1.11736
1.11761
1.1173
1.32065
1.32033
1.32116
1.3228
1.3249
1.32694
1.32813
1.32747
1.32393
1.31679
1.3058
1.29151
1.27511
1.25737
1.23875
1.21993
1.20132
1.1833
1.16649
1.15157
1.13907
1.12936
1.12247
1.11814
1.11581
1.11481
1.11454
1.11469
1.11515
1.11585
1.11672
1.11771
1.11869
1.11928
1.32477
1.32371
1.32345
1.32368
1.32411
1.32407
1.32263
1.31878
1.31175
1.30127
1.28746
1.27102
1.25399
1.23624
1.21763
1.19957
1.18238
1.16657
1.15255
1.14073
1.13131
1.1243
1.1195
1.11656
1.11497
1.11431
1.11426
1.11461
1.1153
1.11622
1.11726
1.11852
1.11986
1.12067
1.33012
1.32799
1.32628
1.32472
1.32304
1.32035
1.31568
1.30819
1.29755
1.28408
1.26825
1.25127
1.23376
1.2161
1.19916
1.18333
1.16892
1.1562
1.14525
1.1361
1.12875
1.12317
1.1192
1.1166
1.11515
1.11457
1.1146
1.115
1.11571
1.11661
1.11769
1.1191
1.12061
1.12145
1.3364
1.33284
1.32927
1.32551
1.3212
1.31532
1.30705
1.29591
1.28181
1.26603
1.24937
1.23214
1.21512
1.1993
1.18502
1.17234
1.16124
1.15151
1.14293
1.13546
1.12915
1.12402
1.12012
1.11746
1.11589
1.11513
1.11496
1.11524
1.11579
1.11661
1.11769
1.11916
1.1207
1.12155
1.34329
1.33796
1.3321
1.32565
1.31817
1.30873
1.29686
1.28215
1.26444
1.24825
1.23107
1.21455
1.19963
1.1867
1.17573
1.16642
1.15827
1.15079
1.1437
1.13704
1.13097
1.12573
1.12156
1.11856
1.11659
1.1154
1.11491
1.11494
1.11534
1.11607
1.11712
1.11859
1.12011
1.121
1.35063
1.34316
1.33455
1.32487
1.31375
1.30051
1.28457
1.26611
1.24857
1.23115
1.2143
1.19982
1.18784
1.17829
1.1707
1.16433
1.1584
1.15236
1.14603
1.13953
1.13323
1.1275
1.12274
1.11922
1.11666
1.11509
1.11438
1.11416
1.1144
1.11504
1.11608
1.1175
1.11898
1.11994
1.3581
1.34804
1.3362
1.32279
1.3076
1.29003
1.26993
1.25112
1.23349
1.21494
1.20002
1.18831
1.17962
1.17339
1.16871
1.16458
1.16016
1.15494
1.14885
1.14209
1.13515
1.12849
1.12309
1.11909
1.11616
1.11436
1.11342
1.11306
1.1132
1.1138
1.1148
1.11618
1.1176
1.1186
1.36512
1.35196
1.33648
1.31904
1.2996
1.27821
1.2566
1.23661
1.21688
1.20051
1.18835
1.17978
1.1743
1.1709
1.16846
1.16593
1.16249
1.15771
1.1515
1.14408
1.13628
1.12893
1.12276
1.11823
1.11526
1.11347
1.11247
1.11204
1.11211
1.11264
1.1136
1.11491
1.11626
1.11717
1.371
1.35429
1.33495
1.31337
1.28956
1.26432
1.24238
1.22003
1.20189
1.18834
1.17915
1.17365
1.1709
1.1697
1.1689
1.16751
1.16475
1.16011
1.15346
1.1453
1.13661
1.12858
1.12207
1.11747
1.11455
1.11282
1.11183
1.11136
1.11136
1.1118
1.11269
1.1139
1.11516
1.11588
1.37502
1.35444
1.33092
1.30499
1.27726
1.24988
1.22578
1.2048
1.18914
1.17834
1.172
1.16911
1.16846
1.16885
1.16926
1.16869
1.16632
1.1615
1.15428
1.14548
1.13631
1.12804
1.12149
1.11695
1.11414
1.11249
1.11155
1.11108
1.11104
1.11141
1.1122
1.11329
1.11445
1.11497
1.37648
1.35194
1.32431
1.29425
1.26279
1.23602
1.21077
1.19161
1.17829
1.17014
1.16626
1.16534
1.16617
1.16767
1.16886
1.16867
1.16622
1.16106
1.15356
1.14467
1.13556
1.1274
1.121
1.11661
1.11392
1.1124
1.11155
1.11113
1.11111
1.11144
1.11214
1.11312
1.11408
1.11444
1.37488
1.34646
1.31472
1.28067
1.24839
1.22064
1.19686
1.17992
1.16901
1.16321
1.16121
1.16163
1.16337
1.16546
1.16679
1.16632
1.16345
1.15818
1.15099
1.14267
1.13418
1.12653
1.12049
1.11633
1.11383
1.11246
1.11177
1.11149
1.11154
1.11188
1.1125
1.1133
1.11399
1.11417
1.37001
1.33791
1.30266
1.266
1.23411
1.20557
1.18403
1.16951
1.16093
1.157
1.15624
1.1574
1.15944
1.16136
1.16205
1.16084
1.15767
1.15273
1.14637
1.13914
1.13176
1.12507
1.11972
1.116
1.11376
1.11262
1.11215
1.11208
1.11226
1.11262
1.11312
1.11368
1.11409
1.11409
1.36183
1.3263
1.2881
1.25133
1.21879
1.19161
1.17249
1.16027
1.15363
1.15097
1.15085
1.15208
1.15366
1.15466
1.15428
1.15235
1.14912
1.14476
1.13949
1.13366
1.1278
1.1225
1.11826
1.11531
1.11358
1.11279
1.11262
1.11279
1.11312
1.11348
1.11383
1.1141
1.1142
1.1141
1.35056
1.31221
1.27117
1.23536
1.20334
1.17876
1.16209
1.15192
1.14672
1.14477
1.14459
1.1452
1.14571
1.14539
1.14394
1.14149
1.13835
1.1346
1.13045
1.12613
1.12193
1.11829
1.11555
1.11382
1.11298
1.11279
1.11302
1.11347
1.11393
1.11426
1.11441
1.1144
1.11429
1.11415
1.33634
1.2959
1.25509
1.21927
1.18894
1.16704
1.15262
1.14409
1.13978
1.13794
1.13721
1.13675
1.13585
1.13422
1.13189
1.12913
1.12611
1.1229
1.11974
1.11682
1.11422
1.11226
1.11121
1.11102
1.11146
1.11226
1.11314
1.11394
1.11453
1.1148
1.11479
1.11457
1.11434
1.1142
1.31978
1.27752
1.23917
1.20356
1.17576
1.15636
1.14391
1.13663
1.13253
1.13025
1.1287
1.12692
1.12468
1.12197
1.11903
1.11609
1.11322
1.1105
1.10807
1.10612
1.10502
1.10468
1.10516
1.10658
1.10854
1.11071
1.11263
1.11403
1.11483
1.11507
1.11494
1.11462
1.11436
1.11425
1.30188
1.26009
1.22219
1.18861
1.16363
1.14649
1.13563
1.12907
1.12492
1.12197
1.11926
1.1162
1.11285
1.10939
1.10606
1.10302
1.10031
1.09801
1.09622
1.09511
1.09493
1.09567
1.09749
1.10039
1.10392
1.10769
1.11105
1.11348
1.11476
1.11508
1.11489
1.11457
1.11432
1.11424
1.28257
1.24306
1.20549
1.17473
1.15241
1.13727
1.1276
1.12137
1.11694
1.11314
1.10923
1.10511
1.10097
1.09704
1.09351
1.09045
1.08791
1.08592
1.08459
1.08408
1.08462
1.08629
1.08889
1.09272
1.09772
1.10305
1.10805
1.11193
1.11416
1.11486
1.11472
1.1144
1.11418
1.11412
1.26249
1.22478
1.18959
1.16189
1.14196
1.12851
1.1197
1.11355
1.10857
1.10384
1.09896
1.09408
1.08944
1.08528
1.08167
1.07866
1.07628
1.07456
1.07358
1.0735
1.07446
1.07659
1.07995
1.08458
1.09041
1.09698
1.10354
1.10911
1.1128
1.11435
1.11447
1.11416
1.11394
1.1139
1.2429
1.20718
1.17486
1.14998
1.13218
1.12011
1.11185
1.10556
1.09996
1.0944
1.0888
1.08342
1.07852
1.07424
1.07063
1.06769
1.06547
1.06396
1.06328
1.06352
1.06482
1.06729
1.07102
1.07611
1.08251
1.08991
1.09772
1.10495
1.11042
1.11336
1.11414
1.11392
1.11366
1.11357
1.22495
1.19087
1.16128
1.13892
1.12296
1.11195
1.10401
1.09747
1.09128
1.08508
1.07899
1.07332
1.06829
1.06399
1.0604
1.05755
1.05547
1.05416
1.05371
1.0542
1.05576
1.05847
1.06244
1.06778
1.07447
1.08236
1.09102
1.09962
1.10689
1.11164
1.11355
1.11367
1.11333
1.11314
1.20763
1.17544
1.1487
1.12861
1.11421
1.10402
1.09623
1.0894
1.08271
1.07605
1.06967
1.06387
1.05881
1.05452
1.05098
1.04822
1.04627
1.04513
1.04487
1.04557
1.04733
1.05022
1.05435
1.05981
1.06663
1.07476
1.08392
1.09347
1.10232
1.10899
1.11249
1.11329
1.1129
1.1126
1.19019
1.1609
1.13701
1.119
1.10589
1.09631
1.08858
1.08147
1.07442
1.06746
1.06094
1.05511
1.05006
1.04581
1.04234
1.03967
1.03784
1.03685
1.03676
1.03763
1.03955
1.04258
1.04682
1.05234
1.05921
1.06741
1.07681
1.08695
1.09696
1.10541
1.1108
1.11266
1.11242
1.11195
1.1741
1.14755
1.12622
1.11004
1.09798
1.08886
1.08115
1.07382
1.06651
1.05941
1.05286
1.04705
1.04205
1.03786
1.03446
1.03188
1.03016
1.0293
1.02934
1.03036
1.03242
1.03557
1.03989
1.04545
1.05231
1.06049
1.06995
1.0804
1.09113
1.10105
1.10842
1.11172
1.11189
1.11118
1.15965
1.13541
1.1163
1.10168
1.09048
1.08172
1.07402
1.06655
1.05911
1.05197
1.04545
1.0397
1.03477
1.03064
1.02732
1.02483
1.0232
1.02246
1.02262
1.02377
1.02594
1.02919
1.03357
1.03915
1.04599
1.05412
1.06354
1.07408
1.08516
1.0961
1.10525
1.11032
1.11116
1.11024
1.14633
1.12438
1.10725
1.09389
1.08343
1.07497
1.06729
1.05975
1.05227
1.04517
1.03873
1.03307
1.02821
1.02415
1.02091
1.0185
1.01696
1.01631
1.01659
1.01784
1.02011
1.02344
1.02788
1.03348
1.04029
1.04835
1.05767
1.06819
1.07956
1.0909
1.10124
1.10828
1.11004
1.10907
1.13391
1.11436
1.09899
1.08668
1.07687
1.06867
1.06105
1.05351
1.04606
1.03905
1.03271
1.02714
1.02236
1.01838
1.01521
1.01288
1.01142
1.01086
1.01122
1.01257
1.01492
1.01833
1.02282
1.02844
1.03523
1.04322
1.05244
1.0629
1.07441
1.08597
1.09694
1.10566
1.10853
1.10772
1.12273
1.10534
1.09143
1.08008
1.07085
1.06289
1.05537
1.04788
1.04052
1.03362
1.0274
1.02193
1.01723
1.01333
1.01023
1.00796
1.00658
1.0061
1.00654
1.00796
1.01039
1.01386
1.01841
1.02405
1.03082
1.03875
1.04789
1.05825
1.06967
1.08144
1.09289
1.10271
1.10683
1.1064
1.11297
1.09732
1.08463
1.07414
1.06543
1.05772
1.05032
1.04293
1.03569
1.02892
1.02281
1.01744
1.01283
1.00899
1.00596
1.00375
1.00243
1.00202
1.00253
1.00402
1.00652
1.01005
1.01464
1.0203
1.02707
1.03497
1.04403
1.05427
1.06559
1.0775
1.08919
1.09961
1.10519
1.10539
1.10448
1.09027
1.07866
1.06893
1.06068
1.0532
1.04595
1.03869
1.03159
1.02495
1.01896
1.01368
1.00914
1.00537
1.0024
1.00025
0.998982
0.998626
0.999192
1.00074
1.0033
1.00689
1.01152
1.01722
1.024
1.03188
1.04088
1.05102
1.06224
1.07434
1.08611
1.09679
1.10379
1.10479
1.09709
1.08419
1.07354
1.0645
1.05666
1.04941
1.04232
1.0352
1.02825
1.02174
1.01586
1.01067
1.00619
1.00247
0.999547
0.997447
0.996225
0.995916
0.996532
0.998135
1.00075
1.00438
1.00907
1.01481
1.02162
1.0295
1.03848
1.04855
1.05971
1.07182
1.0838
1.09463
1.1027
1.10453
1.09072
1.07908
1.06928
1.06087
1.05341
1.04639
1.03948
1.03251
1.0257
1.01931
1.01352
1.0084
1.00398
1.0003
0.997411
0.995347
0.99416
0.99389
0.994546
0.996195
0.998854
1.00254
1.00728
1.01307
1.01992
1.02783
1.03681
1.04687
1.058
1.07007
1.08226
1.09324
1.10196
1.10458
1.08533
1.07491
1.0659
1.05808
1.05099
1.0442
1.03746
1.03065
1.02396
1.01767
1.01196
1.00689
1.00251
0.998858
0.99599
0.993948
0.992786
0.992544
0.993234
0.994922
0.997626
1.00137
1.00615
1.012
1.01891
1.02688
1.03591
1.046
1.05714
1.06926
1.08165
1.09274
1.10174
1.10506
1.08093
1.07165
1.06339
1.05616
1.04944
1.04287
1.03631
1.02964
1.02306
1.01686
1.01119
1.00615
1.00178
0.998145
0.995284
0.993252
0.992104
0.991881
0.992596
0.994319
0.997065
1.00085
1.0057
1.01162
1.0186
1.02666
1.03577
1.04594
1.05716
1.06938
1.082
1.09325
1.10231
1.10609
1.0775
1.06929
1.06181
1.05515
1.04879
1.04245
1.03605
1.02952
1.02303
1.01688
1.01124
1.0062
1.00182
0.998169
0.995296
0.993254
0.992105
0.991889
0.992621
0.994373
0.99716
1.001
1.00592
1.01191
1.01899
1.02716
1.0364
1.0467
1.05807
1.07045
1.08324
1.09484
1.10389
1.10779
1.07505
1.06789
1.06117
1.05509
1.0491
1.04298
1.03674
1.03031
1.0239
1.01776
1.0121
1.00703
1.00261
0.998927
0.99602
0.993952
0.992786
0.992563
0.993305
0.99508
0.997906
1.0018
1.00679
1.01287
1.02007
1.02837
1.03777
1.04827
1.05985
1.07247
1.08553
1.09753
1.10652
1.11051
1.07356
1.06745
1.06151
1.05601
1.05039
1.04449
1.03839
1.03206
1.02567
1.01951
1.0138
1.00866
1.00418
1.00043
0.997464
0.995348
0.994147
0.993904
0.994646
0.996439
0.999301
1.00325
1.00832
1.0145
1.02183
1.03029
1.03989
1.05062
1.06249
1.07547
1.08896
1.10128
1.11041
1.11436
1.07302
1.068
1.06286
1.05794
1.05272
1.04703
1.04105
1.03477
1.02838
1.02216
1.01636
1.01112
1.00653
1.00268
0.99962
0.997433
0.99618
0.995901
0.996634
0.998441
1.00134
1.00535
1.0105
1.01679
1.02426
1.0329
1.04273
1.05375
1.066
1.07951
1.09342
1.10605
1.11544
1.1194
1.07341
1.06957
1.06526
1.06092
1.05611
1.05066
1.04475
1.03848
1.03204
1.02572
1.01978
1.01439
1.00966
1.00566
1.00248
1.0002
0.998874
0.998547
0.999262
1.00108
1.00401
1.00808
1.01332
1.01973
1.02735
1.03618
1.04625
1.0576
1.07034
1.08452
1.0989
1.11186
1.12145
1.12538
1.07473
1.07218
1.06877
1.065
1.06062
1.05539
1.04951
1.04321
1.03668
1.0302
1.02406
1.01847
1.01355
1.00936
1.00603
1.00363
1.00222
1.00183
1.00252
1.00434
1.00731
1.01144
1.01677
1.0233
1.03107
1.0401
1.05043
1.06212
1.07535
1.08998
1.1051
1.11843
1.12803
1.13194
1.07699
1.07586
1.07344
1.07024
1.06627
1.06126
1.05536
1.04897
1.04228
1.03559
1.02921
1.02337
1.01819
1.01378
1.01027
1.00771
1.00619
1.00573
1.0064
1.00822
1.01122
1.01542
1.02084
1.0275
1.03542
1.04465
1.05522
1.06727
1.08096
1.09603
1.11176
1.12527
1.13476
1.13854
1.08021
1.08068
1.07933
1.07674
1.07312
1.06826
1.06232
1.05577
1.04885
1.0419
1.03522
1.02906
1.02357
1.0189
1.01516
1.01243
1.01079
1.01024
1.01088
1.01271
1.01575
1.02002
1.02554
1.03232
1.04038
1.04979
1.06059
1.07297
1.08713
1.10274
1.11854
1.13186
1.14101
1.14458
1.08443
1.08669
1.08652
1.08457
1.08122
1.07645
1.07044
1.06364
1.05642
1.04912
1.04206
1.0355
1.02965
1.02467
1.02067
1.01775
1.01597
1.01534
1.01594
1.01779
1.02088
1.02522
1.03084
1.03773
1.04594
1.05551
1.0665
1.07919
1.09372
1.10948
1.12494
1.13754
1.146
1.14929
1.0897
1.09398
1.09512
1.09385
1.0907
1.08594
1.07977
1.07262
1.06498
1.0572
1.04965
1.04264
1.03638
1.03106
1.02677
1.02364
1.02171
1.021
1.02158
1.02345
1.0266
1.03103
1.03675
1.04376
1.05209
1.0618
1.07297
1.08601
1.10048
1.11595
1.13042
1.14167
1.14903
1.15196
1.09605
1.10264
1.10525
1.1047
1.10173
1.09683
1.0903
1.08264
1.07441
1.06603
1.05792
1.05039
1.04369
1.03798
1.0334
1.03004
1.02797
1.0272
1.02777
1.02968
1.0329
1.03743
1.04326
1.05039
1.05885
1.06867
1.08005
1.09341
1.10736
1.12181
1.13448
1.14377
1.14969
1.15211
1.10346
1.11278
1.11707
1.11729
1.11441
1.10914
1.10199
1.09362
1.08463
1.07554
1.06677
1.05868
1.05148
1.04537
1.04047
1.03691
1.03471
1.03389
1.03448
1.03645
1.03977
1.04443
1.05039
1.05766
1.06625
1.07619
1.08777
1.10056
1.11416
1.12678
1.13686
1.1438
1.14818
1.15015
1.11196
1.12455
1.13078
1.13175
1.12877
1.12285
1.11483
1.10551
1.09559
1.08563
1.07611
1.06738
1.05966
1.05312
1.04792
1.04417
1.04187
1.04105
1.04169
1.04376
1.04722
1.05202
1.05815
1.06558
1.07435
1.08451
1.09625
1.10806
1.12042
1.1305
1.13759
1.14215
1.14518
1.14698
1.12158
1.13817
1.14661
1.14825
1.14488
1.13801
1.12881
1.11827
1.10719
1.09621
1.08582
1.07637
1.06809
1.06113
1.05566
1.05176
1.0494
1.04862
1.04936
1.05158
1.05521
1.06023
1.06657
1.07423
1.08322
1.09355
1.10481
1.11605
1.12589
1.13289
1.1371
1.13962
1.14167
1.1434
1.13226
1.15386
1.1648
1.16695
1.16286
1.15464
1.14389
1.13181
1.11933
1.10715
1.09577
1.08555
1.07668
1.06932
1.06362
1.05961
1.05727
1.05658
1.05748
1.05989
1.06377
1.06906
1.07573
1.08372
1.09297
1.10325
1.11359
1.12327
1.13024
1.1342
1.13607
1.1372
1.13866
1.14039
1.14383
1.17186
1.18565
1.18809
1.18281
1.17271
1.15995
1.146
1.13187
1.11831
1.10585
1.0948
1.08533
1.0776
1.07173
1.06769
1.06543
1.0649
1.066
1.06868
1.07287
1.07857
1.08571
1.09415
1.10352
1.11328
1.1223
1.12922
1.1332
1.13478
1.13519
1.13567
1.13675
1.13825
1.15604
1.19243
1.20947
1.21181
1.20467
1.19205
1.17679
1.16061
1.1446
1.12951
1.11588
1.10397
1.09393
1.0859
1.07993
1.07593
1.07383
1.07351
1.07489
1.07794
1.08263
1.08886
1.09652
1.10523
1.11428
1.1227
1.12926
1.13322
1.13482
1.13499
1.13482
1.1351
1.13601
1.13701
1.16811
1.21572
1.23645
1.23808
1.22816
1.21225
1.19401
1.17529
1.15718
1.14048
1.12565
1.11289
1.10234
1.09411
1.08813
1.08426
1.0824
1.08241
1.08421
1.08775
1.09308
1.09993
1.10781
1.11623
1.1239
1.12985
1.13352
1.13512
1.13541
1.13513
1.13492
1.13523
1.13605
1.13657
1.1797
1.24169
1.26651
1.26642
1.25251
1.2325
1.21092
1.18957
1.16936
1.15101
1.13497
1.12138
1.1104
1.10206
1.09616
1.09253
1.09107
1.09155
1.09397
1.09801
1.10366
1.11112
1.11891
1.12557
1.13047
1.13354
1.135
1.13548
1.13546
1.13528
1.13527
1.13568
1.13628
1.13651
1.18511
1.26826
1.29835
1.29554
1.27674
1.25236
1.22755
1.20354
1.18112
1.16103
1.14376
1.12934
1.11799
1.10966
1.10393
1.1008
1.09994
1.10085
1.10346
1.10793
1.11418
1.1212
1.12708
1.13074
1.13291
1.13418
1.13485
1.13519
1.13536
1.13542
1.13564
1.13608
1.13646
1.13651
1.1925
1.29523
1.33114
1.32439
1.29983
1.27091
1.24294
1.21589
1.191
1.16918
1.15086
1.13583
1.12465
1.11699
1.11183
1.10914
1.10888
1.11016
1.11252
1.11628
1.12092
1.12533
1.12876
1.131
1.13243
1.13354
1.13437
1.1349
1.13524
1.13552
1.13589
1.13631
1.13656
1.13654
1.11802
1.30771
1.35441
1.34374
1.31588
1.28492
1.25566
1.22588
1.19822
1.17464
1.15519
1.13977
1.12836
1.12066
1.11609
1.11435
1.1144
1.1149
1.11557
1.11717
1.1201
1.12374
1.12708
1.1297
1.13167
1.13312
1.13414
1.13479
1.1352
1.13558
1.13601
1.13641
1.13661
1.13658
1.34206
1.338
1.33073
1.32435
1.31994
1.31714
1.34071
1.33639
1.32942
1.32395
1.32001
1.31742
1.34073
1.33678
1.33036
1.32547
1.3217
1.31912
1.343
1.33936
1.33354
1.3288
1.32496
1.32223
1.34774
1.34404
1.33878
1.33386
1.32982
1.32682
1.35489
1.35077
1.34583
1.34066
1.33634
1.33288
1.36415
1.35967
1.35456
1.34912
1.34437
1.34018
1.37518
1.37045
1.36481
1.35895
1.35352
1.34836
1.38755
1.38241
1.37616
1.36971
1.36342
1.3572
1.40069
1.39506
1.38818
1.38106
1.37388
1.36647
1.41384
1.40797
1.40044
1.39266
1.38458
1.37571
1.42643
1.42069
1.41253
1.404
1.39491
1.38425
1.43845
1.43268
1.42389
1.41448
1.40414
1.39135
1.44903
1.44315
1.43371
1.42341
1.41153
1.39623
1.45709
1.45142
1.44122
1.43
1.41632
1.39825
1.46254
1.45668
1.44577
1.43354
1.41788
1.39691
1.46499
1.4584
1.44687
1.43353
1.41576
1.39194
1.46356
1.4564
1.44423
1.42967
1.40978
1.38331
1.45805
1.45044
1.43767
1.42189
1.40007
1.37139
1.44879
1.44064
1.42731
1.41039
1.38691
1.35663
1.43622
1.42743
1.41353
1.39559
1.37081
1.33945
1.42042
1.41117
1.39678
1.37806
1.35248
1.32035
1.40162
1.39225
1.37757
1.35835
1.33255
1.30019
1.38053
1.37129
1.35653
1.33715
1.31153
1.27975
1.35795
1.349
1.33435
1.31516
1.28993
1.25933
1.33458
1.32608
1.31167
1.29288
1.26829
1.2391
1.311
1.30307
1.28903
1.27071
1.24718
1.21959
1.28768
1.2804
1.26686
1.24919
1.22704
1.20111
1.26504
1.2584
1.24551
1.22876
1.20829
1.18448
1.24342
1.23742
1.22533
1.20967
1.19094
1.16968
1.22309
1.21773
1.20649
1.19197
1.17472
1.15546
1.20423
1.19945
1.18906
1.17565
1.15976
1.14206
1.18694
1.18264
1.17314
1.1608
1.14631
1.13022
1.17122
1.16736
1.15879
1.14765
1.1344
1.11999
1.15704
1.15355
1.14588
1.13612
1.12398
1.11111
1.14434
1.14117
1.13426
1.12574
1.11501
1.10338
1.13295
1.13014
1.12388
1.11637
1.10713
1.09665
1.12271
1.1203
1.11471
1.10811
1.10015
1.09088
1.11349
1.1115
1.10661
1.10098
1.09415
1.08609
1.10516
1.10356
1.09943
1.09485
1.0891
1.08229
1.09754
1.09636
1.09304
1.08955
1.08497
1.07948
1.09045
1.08976
1.08736
1.08502
1.08172
1.07761
1.0837
1.08357
1.08223
1.08114
1.07926
1.07661
1.07713
1.07764
1.0775
1.0778
1.0775
1.07642
1.07055
1.07179
1.07299
1.07486
1.07634
1.07701
1.06377
1.06587
1.06854
1.07217
1.07569
1.07834
1.05662
1.05967
1.06395
1.06955
1.0754
1.08036
1.04891
1.05286
1.05897
1.06683
1.07532
1.08298
1.04034
1.04507
1.05333
1.06385
1.07529
1.08617
1.03035
1.03594
1.04672
1.06026
1.07515
1.08985
1.01837
1.02495
1.03861
1.05549
1.07451
1.09388
1.00372
1.01131
1.02803
1.04859
1.07273
1.09809
0.985535
0.993931
1.01329
1.03826
1.0689
1.10194
0.962613
0.97153
0.992853
1.02289
1.06151
1.10436
0.933434
0.942529
0.965223
0.999975
1.04812
1.10387
0.896142
0.904985
0.927756
0.96551
1.02327
1.0967
0.848143
0.855407
0.876214
0.91361
0.978192
1.07757
0.786227
0.788869
0.806047
0.83694
0.890992
1.02042
0.708552
0.702402
0.711676
0.727244
0.740454
0.896555
0.616256
0.595943
0.592996
0.598704
0.495712
0.422716
0.523529
0.492177
0.456422
0.42431
0.144284
-0.562712
0.438072
0.404062
0.336338
0.270643
0.036473
-0.46366
0.356139
0.321762
0.246749
0.168663
0.0362687
-0.208474
-0.144693
-0.141515
-0.139127
-0.137259
-0.13605
-0.135992
-0.137322
-0.139898
-0.143291
-0.146974
-0.150275
-0.152844
-0.154695
-0.15591
-0.156466
-0.156445
-0.156072
-0.155563
-0.155059
-0.154624
-0.154267
-0.153993
-0.153785
-0.153641
-0.153543
-0.153467
-0.153406
-0.153354
-0.153309
-0.153273
-0.153248
-0.153238
-0.153241
-0.15325
-0.142331
-0.140767
-0.139815
-0.138255
-0.137112
-0.137141
-0.138605
-0.141269
-0.144599
-0.148154
-0.151314
-0.153711
-0.155439
-0.156507
-0.156803
-0.156474
-0.155891
-0.155297
-0.154792
-0.154408
-0.154119
-0.153897
-0.153737
-0.153622
-0.153533
-0.153465
-0.153409
-0.153359
-0.153316
-0.153281
-0.153256
-0.153245
-0.153247
-0.153255
-0.141873
-0.141474
-0.141293
-0.140121
-0.139314
-0.139606
-0.141223
-0.14391
-0.147156
-0.150509
-0.153515
-0.155819
-0.157266
-0.158036
-0.158141
-0.157499
-0.156513
-0.155563
-0.15481
-0.154301
-0.153986
-0.15379
-0.153664
-0.153574
-0.153505
-0.153453
-0.153406
-0.153363
-0.153323
-0.153288
-0.153262
-0.153249
-0.153251
-0.15326
-0.142517
-0.14354
-0.143279
-0.142283
-0.141802
-0.142405
-0.144235
-0.147003
-0.150207
-0.153376
-0.156132
-0.158214
-0.159522
-0.160131
-0.160056
-0.159285
-0.158049
-0.156682
-0.155458
-0.154558
-0.15401
-0.153726
-0.15359
-0.153518
-0.15347
-0.153433
-0.153399
-0.153364
-0.153328
-0.153292
-0.153264
-0.153249
-0.15325
-0.15326
-0.144137
-0.145888
-0.14528
-0.144191
-0.143876
-0.144768
-0.146889
-0.149859
-0.153129
-0.156218
-0.158795
-0.160682
-0.161832
-0.162281
-0.16207
-0.161232
-0.159889
-0.158262
-0.156622
-0.155247
-0.154301
-0.153784
-0.153557
-0.153471
-0.153435
-0.153413
-0.153391
-0.153364
-0.15333
-0.153295
-0.153264
-0.153245
-0.153244
-0.153255
-0.146431
-0.148175
-0.147259
-0.146004
-0.145777
-0.146942
-0.149374
-0.152564
-0.155907
-0.158929
-0.161349
-0.163048
-0.164016
-0.164308
-0.163971
-0.163061
-0.161658
-0.159902
-0.158001
-0.15624
-0.15486
-0.154012
-0.153604
-0.153451
-0.153406
-0.153392
-0.153381
-0.153362
-0.153332
-0.153297
-0.153261
-0.153236
-0.153233
-0.153244
-0.148982
-0.150476
-0.149338
-0.147906
-0.147737
-0.149149
-0.151856
-0.15521
-0.158563
-0.161469
-0.163705
-0.165205
-0.165985
-0.166116
-0.16565
-0.164654
-0.163196
-0.161372
-0.159328
-0.157339
-0.155573
-0.154382
-0.153738
-0.153469
-0.153388
-0.153373
-0.153368
-0.153356
-0.153331
-0.153295
-0.153255
-0.153222
-0.153214
-0.153224
-0.15139
-0.152789
-0.151466
-0.149844
-0.149701
-0.15132
-0.154233
-0.157662
-0.160946
-0.163687
-0.165722
-0.167025
-0.167631
-0.167614
-0.167024
-0.165933
-0.164413
-0.162541
-0.160414
-0.158228
-0.156278
-0.154811
-0.153925
-0.153514
-0.153378
-0.153352
-0.153351
-0.153344
-0.153322
-0.153286
-0.153242
-0.153201
-0.153185
-0.153192
-0.153408
-0.1549
-0.153419
-0.151614
-0.151469
-0.153254
-0.156289
-0.159707
-0.162863
-0.165417
-0.167261
-0.168397
-0.168861
-0.168723
-0.168026
-0.166845
-0.165254
-0.163332
-0.161166
-0.158853
-0.156788
-0.155145
-0.15409
-0.153552
-0.15336
-0.153321
-0.153323
-0.153321
-0.153303
-0.153268
-0.153219
-0.153169
-0.153144
-0.153145
-0.154722
-0.15639
-0.154863
-0.152904
-0.152769
-0.154706
-0.157787
-0.16114
-0.164152
-0.166539
-0.168235
-0.169253
-0.169624
-0.169402
-0.168623
-0.167359
-0.165698
-0.163722
-0.161531
-0.159229
-0.157065
-0.155296
-0.154137
-0.153526
-0.153303
-0.153265
-0.153277
-0.153284
-0.153271
-0.153235
-0.153181
-0.153124
-0.153089
-0.15308
-0.154983
-0.156805
-0.155364
-0.153361
-0.153301
-0.155347
-0.158481
-0.161801
-0.164713
-0.166995
-0.168612
-0.16958
-0.169909
-0.169643
-0.168807
-0.167476
-0.165746
-0.163714
-0.161487
-0.159189
-0.157026
-0.155237
-0.154016
-0.153385
-0.153175
-0.153162
-0.153199
-0.153225
-0.15322
-0.153185
-0.153127
-0.153064
-0.153015
-0.152994
-0.153825
-0.155716
-0.154511
-0.15262
-0.152725
-0.154961
-0.158234
-0.161605
-0.164517
-0.166798
-0.168432
-0.169424
-0.16977
-0.169497
-0.168628
-0.16724
-0.16544
-0.163341
-0.161062
-0.158742
-0.156591
-0.154861
-0.153677
-0.153093
-0.152945
-0.152994
-0.153079
-0.153137
-0.153148
-0.153116
-0.153054
-0.152983
-0.152917
-0.152888
-0.150843
-0.152829
-0.151966
-0.150327
-0.150699
-0.153424
-0.156976
-0.160524
-0.163572
-0.165977
-0.167728
-0.168822
-0.169241
-0.169004
-0.16813
-0.166703
-0.164838
-0.162666
-0.160328
-0.15798
-0.155847
-0.154179
-0.153108
-0.152636
-0.152595
-0.152745
-0.152911
-0.153017
-0.153052
-0.153027
-0.152961
-0.152878
-0.1528
-0.15276
-0.145923
-0.148055
-0.147548
-0.146346
-0.147288
-0.150612
-0.154627
-0.15853
-0.161885
-0.164564
-0.166552
-0.167838
-0.168401
-0.168251
-0.167408
-0.165961
-0.164037
-0.161789
-0.159381
-0.157004
-0.154897
-0.153309
-0.152366
-0.152038
-0.15214
-0.152422
-0.152695
-0.152868
-0.152937
-0.152923
-0.152851
-0.152757
-0.152668
-0.152608
-0.139298
-0.141414
-0.141206
-0.140613
-0.142468
-0.146491
-0.151138
-0.155602
-0.159457
-0.16258
-0.164948
-0.166541
-0.16734
-0.167346
-0.166585
-0.165153
-0.163191
-0.160872
-0.158393
-0.15598
-0.153892
-0.152381
-0.151562
-0.15138
-0.151638
-0.152062
-0.152449
-0.152705
-0.152817
-0.152814
-0.152736
-0.152629
-0.15253
-0.152455
-0.131125
-0.13308
-0.133051
-0.133156
-0.136144
-0.14105
-0.146499
-0.151713
-0.156271
-0.160032
-0.162951
-0.164998
-0.166156
-0.166416
-0.165815
-0.164456
-0.162494
-0.160126
-0.157583