/*--------------------------------*- C++ -*----------------------------------*\
| =========                 |                                                 |
| \\      /  F ield         | OpenFOAM: The Open Source CFD Toolbox           |
|  \\    /   O peration     | Version:  v2012                                 |
|   \\  /    A nd           | Website:  www.openfoam.com                      |
|    \\/     M anipulation  |                                                 |
\*---------------------------------------------------------------------------*/
FoamFile
{
    version     2.0;
    format      ascii;
    class       surfaceScalarField;
    location    "574";
    object      phi;
}
// * * * * * * * * * * * * * * * * * * * * * * * * * * * * * * * * * * * * * //

dimensions      [0 3 -1 0 0 0 0];
oriented        oriented;


internalField   nonuniform List<scalar> 
11779
(
-9.34297e-05
9.98384e-06
8.34459e-05
-0.000102556
9.12648e-06
-0.000110853
8.29657e-06
-0.000118447
7.59434e-06
-0.000125386
6.93909e-06
-0.000131683
6.29633e-06
-0.000137429
5.74615e-06
-0.000142789
5.36031e-06
-0.000147889
5.09966e-06
-0.000152826
4.93743e-06
-0.00015768
4.85382e-06
-0.000162508
4.82761e-06
-0.000167344
4.83638e-06
-0.000172205
4.86078e-06
-0.000177097
4.89244e-06
-0.000181999
4.90184e-06
-0.000186852
4.8534e-06
-0.0001917
4.84776e-06
-0.000196579
4.87852e-06
3.42134e-06
-0.00019143
1.54447e-05
0.000185969
-0.000195479
1.31758e-05
-0.000198392
1.1209e-05
-0.000200405
9.60725e-06
-0.000201758
8.29185e-06
-0.000202713
7.25151e-06
-0.000203419
6.45251e-06
-0.000203916
5.8573e-06
-0.000204242
5.42529e-06
-0.000204426
5.12136e-06
-0.000204497
4.92563e-06
-0.000204493
4.82339e-06
-0.000204429
4.7717e-06
-0.000204292
4.72383e-06
-0.000204076
4.67713e-06
-0.000203784
4.6092e-06
-0.00020339
4.46017e-06
-0.000202748
4.20548e-06
-0.000201673
3.80357e-06
1.74819e-06
-0.000216079
1.64361e-05
0.000215087
-0.00021657
1.36673e-05
-0.000216692
1.13304e-05
-0.000216506
9.4214e-06
-0.000216101
7.88729e-06
-0.000215533
6.68312e-06
-0.000214837
5.75661e-06
-0.000214038
5.05841e-06
-0.000213156
4.54302e-06
-0.000212202
4.16746e-06
-0.000211164
3.88725e-06
-0.000210021
3.68116e-06
-0.000208817
3.56689e-06
-0.000207594
3.50105e-06
-0.000206338
3.42082e-06
-0.00020503
3.30199e-06
-0.000203684
3.11359e-06
-0.000202324
2.84591e-06
-0.000200848
2.32707e-06
9.0052e-07
-0.000222781
1.63655e-05
0.000222852
-0.000222368
1.32544e-05
-0.000221704
1.06658e-05
-0.000220849
8.56639e-06
-0.000219855
6.89378e-06
-0.000218755
5.58349e-06
-0.000217571
4.57241e-06
-0.000216317
3.80396e-06
-0.000215001
3.22721e-06
-0.000213629
2.79574e-06
-0.000212213
2.47057e-06
-0.000210765
2.23341e-06
-0.000209275
2.0773e-06
-0.000207742
1.96734e-06
-0.000206188
1.86705e-06
-0.00020464
1.75381e-06
-0.000203138
1.6117e-06
-0.000201724
1.43227e-06
-0.000200495
1.09832e-06
4.05175e-07
-0.000225796
1.58616e-05
0.0002263
-0.000224963
1.24212e-05
-0.000223901
9.60453e-06
-0.000222689
7.3537e-06
-0.000221376
5.58122e-06
-0.000219994
4.20088e-06
-0.000218558
3.1369e-06
-0.00021708
2.32582e-06
-0.000215565
1.71212e-06
-0.000214017
1.24784e-06
-0.000212443
8.96614e-07
-0.000210845
6.35756e-07
-0.000209218
4.50016e-07
-0.00020757
3.19435e-07
-0.000205928
2.24571e-07
-0.000204329
1.55144e-07
-0.000202821
1.0419e-07
-0.000201455
6.60338e-08
-0.000200393
3.6466e-08
1.18362e-08
-0.00022776
1.50419e-05
0.000228579
-0.000226584
1.12454e-05
-0.0002252
8.22084e-06
-0.000223711
5.86474e-06
-0.000222171
4.04075e-06
-0.000220604
2.63425e-06
-0.000219021
1.55431e-06
-0.000217428
7.32015e-07
-0.000215824
1.08599e-07
-0.00021421
-3.66728e-07
-0.000212584
-7.28743e-07
-0.000210945
-1.00383e-06
-0.000209285
-1.20994e-06
-0.000207614
-1.35071e-06
-0.000205957
-1.43328e-06
-0.000204347
-1.45467e-06
-0.000202831
-1.41122e-06
-0.00020146
-1.30562e-06
-0.000200395
-1.02868e-06
-3.82786e-07
-0.00022892
1.37992e-05
0.000230163
-0.000227378
9.70346e-06
-0.000225682
6.5251e-06
-0.000223963
4.14569e-06
-0.000222266
2.3436e-06
-0.000220604
9.72053e-07
-0.000218972
-7.77918e-08
-0.000217364
-8.76039e-07
-0.000215775
-1.47985e-06
-0.000214198
-1.94389e-06
-0.000212626
-2.30056e-06
-0.000211056
-2.57468e-06
-0.000209469
-2.79634e-06
-0.00020787
-2.95014e-06
-0.000206272
-3.03133e-06
-0.000204691
-3.03499e-06
-0.000203167
-2.93595e-06
-0.000201737
-2.73492e-06
-0.000200499
-2.2667e-06
-8.82048e-07
-0.000227931
1.21763e-05
0.000229554
-0.000225967
7.73913e-06
-0.000224002
4.56049e-06
-0.000222144
2.28793e-06
-0.000220418
6.17792e-07
-0.000218821
-6.25838e-07
-0.000217326
-1.57231e-06
-0.000215904
-2.29855e-06
-0.00021452
-2.86307e-06
-0.000213157
-3.30697e-06
-0.000211801
-3.65714e-06
-0.000210449
-3.92633e-06
-0.00020912
-4.1255e-06
-0.000207803
-4.26732e-06
-0.000206471
-4.36317e-06
-0.000205112
-4.3943e-06
-0.000203728
-4.3196e-06
-0.000202343
-4.11935e-06
-0.000200854
-3.75654e-06
-1.73564e-06
-0.000217324
9.31868e-06
0.000220182
-0.000214462
4.87655e-06
-0.000212161
2.25978e-06
-0.00021043
5.56593e-07
-0.000209138
-6.73341e-07
-0.000208166
-1.59872e-06
-0.000207404
-2.33419e-06
-0.000206793
-2.90967e-06
-0.000206294
-3.36165e-06
-0.00020588
-3.72061e-06
-0.000205529
-4.00893e-06
-0.000205218
-4.23644e-06
-0.000204922
-4.42185e-06
-0.000204614
-4.57549e-06
-0.000204279
-4.69795e-06
-0.000203904
-4.76989e-06
-0.000203453
-4.77035e-06
-0.000202771
-4.80082e-06
-0.000201676
-4.85165e-06
-3.41187e-06
-0.000148549
0.000157868
-0.000143673
-0.000141413
-0.000140857
-0.00014153
-0.000143129
-0.000145463
-0.000148372
-0.000151734
-0.000155455
-0.000159464
-0.0001637
-0.000168122
-0.000172697
-0.000177395
-0.000182165
-0.000186936
-0.000191736
-0.000196588
8.85672e-06
-2.90037e-06
-5.95635e-06
1.02561e-05
-1.39936e-06
1.00035e-05
2.52612e-07
8.47752e-06
1.52594e-06
6.39771e-06
2.0798e-06
4.46179e-06
1.93592e-06
3.07642e-06
1.38536e-06
2.39628e-06
6.80135e-07
2.47505e-06
-7.87809e-08
3.32913e-06
-8.54097e-07
5.01237e-06
-1.68324e-06
6.93251e-06
-1.92015e-06
8.60144e-06
-1.66893e-06
9.60869e-06
-1.00726e-06
9.78784e-06
-1.79162e-07
9.47469e-06
3.13159e-07
9.20562e-06
2.69063e-07
9.225e-06
-1.93766e-08
9.45234e-06
-2.27336e-07
9.54113e-06
-8.87888e-08
9.22693e-06
3.14204e-07
8.36441e-06
8.62524e-07
6.87317e-06
1.49125e-06
4.62983e-06
2.24335e-06
1.17465e-06
3.45518e-06
-3.78518e-06
4.95983e-06
-1.02391e-05
6.45391e-06
-1.81434e-05
7.90427e-06
-2.74547e-05
9.31134e-06
-3.79307e-05
1.0476e-05
-4.92419e-05
1.13112e-05
-6.09679e-05
1.1726e-05
-7.25285e-05
1.15606e-05
1.09175e-05
1.97239e-05
-7.56705e-06
-1.50572e-05
2.2466e-05
-4.14143e-06
2.30887e-05
-3.70134e-07
2.17252e-05
2.88945e-06
1.88661e-05
4.9389e-06
1.5348e-05
5.45395e-06
1.21302e-05
4.60314e-06
9.98649e-06
2.82385e-06
9.32585e-06
5.81841e-07
1.01998e-05
-1.72809e-06
1.23875e-05
-3.87094e-06
1.47159e-05
-4.2486e-06
1.65779e-05
-3.53087e-06
1.74382e-05
-1.86756e-06
1.72868e-05
-2.78273e-08
1.64795e-05
1.12052e-06
1.51596e-05
1.58894e-06
1.31183e-05
2.02188e-06
1.01528e-05
2.73824e-06
6.08838e-06
3.9756e-06
3.88588e-07
6.01401e-06
-8.06664e-06
9.31776e-06
-2.01452e-05
1.35698e-05
-3.56181e-05
1.77162e-05
-5.33667e-05
2.12038e-05
-7.23332e-05
2.39263e-05
-9.16442e-05
2.57649e-05
-0.000110495
2.67549e-05
-0.000128141
2.69574e-05
-0.000144088
2.64235e-05
-0.000157928
2.51504e-05
-0.000169425
2.32236e-05
-0.000178697
2.08324e-05
1.81896e-05
2.91012e-05
-1.22458e-05
-2.44224e-05
3.1601e-05
-6.64125e-06
3.20396e-05
-8.08692e-07
3.06618e-05
4.26715e-06
2.78535e-05
7.74725e-06
2.42003e-05
9.10712e-06
2.04965e-05
8.30697e-06
1.76069e-05
5.71341e-06
1.61579e-05
2.03083e-06
1.62435e-05
-1.81366e-06
1.72588e-05
-4.88627e-06
1.79539e-05
-4.94376e-06
1.77771e-05
-3.35402e-06
1.64809e-05
-5.7141e-07
1.42168e-05
2.23625e-06
1.09984e-05
4.33896e-06
6.42665e-06
6.16068e-06
-2.36909e-07
8.68544e-06
-1.00658e-05
1.25671e-05
-2.39568e-05
1.78666e-05
-4.19973e-05
2.40545e-05
-6.30543e-05
3.03748e-05
-8.55062e-05
3.60217e-05
-0.000108032
4.02425e-05
-0.000129535
4.27067e-05
-0.000149119
4.35105e-05
-0.000166214
4.28593e-05
-0.000180504
4.10454e-05
-0.000191884
3.83367e-05
-0.000200457
3.49967e-05
-0.000206572
3.12658e-05
-0.000210719
2.73706e-05
-0.000213401
2.35139e-05
1.98764e-05
3.63129e-05
-1.59666e-05
-3.25922e-05
3.78044e-05
-8.13276e-06
3.74152e-05
-4.19447e-07
3.55646e-05
6.11774e-06
3.26286e-05
1.06833e-05
2.90047e-05
1.2731e-05
2.52884e-05
1.20232e-05
2.2171e-05
8.83071e-06
2.01606e-05
4.04122e-06
1.90118e-05
-6.64818e-07
1.7582e-05
-3.45652e-06
1.53643e-05
-2.72604e-06
1.19512e-05
5.90181e-08
7.39452e-06
3.98529e-06
1.49516e-06
8.13561e-06
-6.61091e-06
1.2445e-05
-1.8173e-05
1.77228e-05
-3.40405e-05
2.45529e-05
-5.41179e-05
3.26445e-05
-7.72759e-05
4.10247e-05
-0.000101754
4.85321e-05
-0.000125686
5.43073e-05
-0.000147545
5.78809e-05
-0.000166439
5.91362e-05
-0.00018202
5.82883e-05
-0.000194295
5.57846e-05
-0.000203546
5.21111e-05
-0.000210217
4.7716e-05
-0.000214849
4.29687e-05
-0.000218004
3.81524e-05
-0.000220166
3.34271e-05
-0.000221617
2.88217e-05
-0.000222485
2.4382e-05
2.0243e-05
3.95317e-05
-1.80246e-05
-3.74737e-05
3.97274e-05
-8.32849e-06
3.84234e-05
8.84581e-07
3.60348e-05
8.50636e-06
3.28727e-05
1.38453e-05
2.9266e-05
1.63378e-05
2.56234e-05
1.56658e-05
2.23765e-05
1.20776e-05
1.95806e-05
6.83711e-06
1.6549e-05
2.36672e-06
1.23156e-05
7.76947e-07
6.85377e-06
2.73575e-06
-2.43038e-07
7.15581e-06
-9.30478e-06
1.3047e-05
-2.1265e-05
2.00958e-05
-3.72058e-05
2.83858e-05
-5.74158e-05
3.79328e-05
-8.0997e-05
4.81341e-05
-0.000106134
5.77818e-05
-0.000130726
6.56161e-05
-0.000153015
7.08208e-05
-0.000171889
7.31822e-05
-0.000186936
7.29275e-05
-0.000198334
7.05341e-05
-0.000206637
6.65909e-05
-0.000212534
6.16818e-05
-0.000216711
5.62884e-05
-0.000219748
5.07527e-05
-0.000222049
4.52698e-05
-0.000223812
3.99157e-05
-0.000225108
3.47232e-05
-0.000225968
2.96815e-05
-0.000226372
2.47861e-05
2.01705e-05
3.82702e-05
-1.82413e-05
-3.80535e-05
3.7053e-05
-7.11132e-06
3.49926e-05
2.94498e-06
3.22638e-05
1.12351e-05
2.90009e-05
1.71083e-05
2.54203e-05
1.99183e-05
2.17883e-05
1.92979e-05
1.82189e-05
1.5647e-05
1.42404e-05
1.08156e-05
8.96444e-06
7.64267e-06
1.79215e-06
7.94922e-06
-7.5144e-06
1.20423e-05
-1.9531e-05
1.91724e-05
-3.49794e-05
2.84955e-05
-5.42686e-05
3.93849e-05
-7.70809e-05
5.11982e-05
-0.000102094
6.29461e-05
-0.000127219
7.32594e-05
-0.000150345
8.09075e-05
-0.000170006
8.52771e-05
-0.000185601
8.64155e-05
-0.000197261
8.48425e-05
-0.000205603
8.12692e-05
-0.000211458
7.6389e-05
-0.000215634
7.07676e-05
-0.00021877
6.48171e-05
-0.000221293
5.88115e-05
-0.000223435
5.28946e-05
-0.000225267
4.71021e-05
-0.00022677
4.14185e-05
-0.000227905
3.58588e-05
-0.00022865
3.04264e-05
-0.000228903
2.50389e-05
1.98468e-05
3.24805e-05
-1.67176e-05
-3.40042e-05
3.04195e-05
-5.05034e-06
2.79747e-05
5.38975e-06
2.51306e-05
1.40792e-05
2.18794e-05
2.03595e-05
1.83156e-05
2.34821e-05
1.45486e-05
2.30649e-05
1.03254e-05
1.98701e-05
4.73827e-06
1.64027e-05
-3.19049e-06
1.55714e-05
-1.40853e-05
1.8844e-05
-2.84483e-05
2.64054e-05
-4.64986e-05
3.72227e-05
-6.80357e-05
5.00325e-05
-9.22066e-05
6.35558e-05
-0.000117423
7.64146e-05
-0.000141557
8.70804e-05
-0.000162699
9.44006e-05
-0.000179761
9.79699e-05
-0.000192599
9.81153e-05
-0.00020177
9.55867e-05
-0.000208163
9.12349e-05
-0.000212685
8.57911e-05
-0.000216083
7.97874e-05
-0.000218861
7.35457e-05
-0.000221285
6.72408e-05
-0.000223467
6.09942e-05
-0.000225431
5.48582e-05
-0.000227157
4.88278e-05
-0.000228593
4.28546e-05
-0.00022967
3.69355e-05
-0.000230369
3.11257e-05
-0.000230665
2.5335e-05
1.93444e-05
2.50012e-05
-1.43424e-05
-2.73764e-05
2.23169e-05
-2.36605e-06
1.94249e-05
8.28175e-06
1.62749e-05
1.72292e-05
1.28053e-05
2.38291e-05
9.0287e-06
2.72587e-05
4.83436e-06
2.72593e-05
-5.7037e-07
2.52749e-05
-8.51545e-06
2.43478e-05
-2.00604e-05
2.71164e-05
-3.57294e-05
3.4513e-05
-5.5356e-05
4.60319e-05
-7.81617e-05
6.00284e-05
-0.000102889
7.47595e-05
-0.00012773
8.83975e-05
-0.000150599
9.92831e-05
-0.000169832
0.000106313
-0.000184716
0.000109285
-0.000195484
0.000108738
-0.000202965
0.000105596
-0.000208175
0.000100797
-0.000212005
9.50644e-05
-0.000215068
8.88542e-05
-0.000217721
8.24406e-05
-0.000220138
7.59632e-05
-0.000222336
6.94384e-05
-0.000224282
6.29406e-05
-0.000225959
5.65346e-05
-0.00022732
5.01888e-05
-0.000228385
4.39194e-05
-0.000229185
3.77357e-05
-0.000229732
3.16727e-05
-0.000230033
2.56361e-05
1.88654e-05
1.72219e-05
-1.14071e-05
-2.01572e-05
1.3996e-05
8.59869e-07
1.05282e-05
1.17496e-05
6.80141e-06
2.0956e-05
2.82249e-06
2.7808e-05
-1.45065e-06
3.15318e-05
-6.65189e-06
3.24605e-05
-1.42286e-05
3.28516e-05
-2.56014e-05
3.57205e-05
-4.14752e-05
4.29902e-05
-6.16314e-05
5.46692e-05
-8.49187e-05
6.93192e-05
-0.000109711
8.48209e-05
-0.000133962
9.90106e-05
-0.000155634
0.000110069
-0.000173287
0.000116936
-0.000186506
0.000119533
-0.000195797
0.000118575
-0.000202161
0.000115102
-0.000206642
0.000110077
-0.000210058
0.000104213
-0.000212914
9.79206e-05
-0.000215406
9.13461e-05
-0.000217536
8.4571e-05
-0.000219253
7.76798e-05
-0.000220643
7.0828e-05
-0.000221718
6.40161e-05
-0.000222394
5.72099e-05
-0.000222734
5.05289e-05
-0.000222791
4.39767e-05
-0.000222534
3.74786e-05
-0.000221848
3.0987e-05
-0.000220981
2.47694e-05
1.80658e-05
9.72802e-06
-1.3152e-05
-7.98313e-06
5.90491e-06
4.68298e-06
1.71777e-06
1.59367e-05
-2.74465e-06
2.54184e-05
-7.4146e-06
3.2478e-05
-1.2717e-05
3.68343e-05
-1.99346e-05
3.96781e-05
-3.06968e-05
4.36138e-05
-4.60291e-05
5.10529e-05
-6.58479e-05
6.2809e-05
-8.89784e-05
7.77997e-05
-0.000113461
9.38017e-05
-0.000137061
0.000108421
-0.000157727
0.000119676
-0.000174173
0.000126516
-0.000186185
0.000128948
-0.000194443
0.000127791
-0.00020004
0.000124172
-0.000204022
0.000119084
-0.000207078
0.000113134
-0.000209525
0.000106659
-0.000211422
9.98178e-05
-0.000212776
9.27003e-05
-0.000213475
8.52695e-05
-0.000213308
7.75128e-05
-0.000212021
6.95414e-05
-0.000209334
6.13291e-05
-0.00020507
5.29457e-05
-0.000199114
4.45732e-05
-0.0001916
3.64628e-05
-0.000182996
2.88745e-05
-0.000173536
2.15264e-05
-0.000163151
1.43853e-05
1.27826e-05
-8.73935e-07
8.73932e-07
-1.84864e-06
9.74704e-07
-1.82505e-06
-2.35949e-08
-2.50693e-07
-1.57437e-06
2.63472e-06
-2.88542e-06
-3.32163e-06
-1.13204e-06
2.00596e-06
-1.5869e-06
1.42955e-06
1.44717e-07
-1.75522e-06
4.25773e-06
-5.68739e-06
9.66147e-06
-8.28916e-06
-8.71739e-06
-6.55647e-07
2.6616e-06
5.52528e-07
2.21372e-07
4.93358e-06
-6.13629e-06
1.14409e-05
-1.21947e-05
1.8378e-05
-1.52262e-05
-1.47618e-05
2.00197e-07
2.4614e-06
3.75412e-06
-3.33256e-06
1.09411e-05
-1.33232e-05
1.93591e-05
-2.06128e-05
2.69247e-05
-2.27918e-05
-2.04293e-05
1.30174e-06
1.15966e-06
7.77979e-06
-9.8106e-06
1.73447e-05
-2.28881e-05
2.6438e-05
-2.97061e-05
3.32791e-05
-2.9633e-05
-2.46239e-05
2.90162e-06
-1.74196e-06
1.22951e-05
-1.9204e-05
2.29023e-05
-3.34954e-05
3.0955e-05
-3.77588e-05
3.58296e-05
-3.45075e-05
-2.68478e-05
4.96387e-06
-6.70583e-06
1.6357e-05
-3.05971e-05
2.62163e-05
-4.33547e-05
3.21671e-05
-4.37096e-05
3.44196e-05
-3.676e-05
-2.64324e-05
7.35866e-06
-1.40645e-05
1.8982e-05
-4.22205e-05
2.65447e-05
-5.09174e-05
2.93439e-05
-4.65088e-05
2.89765e-05
-3.63926e-05
-2.48322e-05
9.60325e-06
-2.36677e-05
1.94867e-05
-5.2104e-05
2.37255e-05
-5.51562e-05
2.412e-05
-4.69033e-05
2.25087e-05
-3.47813e-05
-2.24808e-05
1.05598e-05
-3.42275e-05
1.75412e-05
-5.90853e-05
1.94152e-05
-5.70303e-05
1.82719e-05
-4.57599e-05
1.59418e-05
-3.24511e-05
-1.9691e-05
2.50296e-06
-3.73417e-06
-6.75191e-06
-2.32653e-06
9.51247e-06
-7.62138e-06
2.12316e-05
-1.32438e-05
3.10409e-05
-1.93935e-05
3.86277e-05
-2.70893e-05
4.45301e-05
-3.799e-05
5.05787e-05
-5.34472e-05
5.90711e-05
-7.36776e-05
7.12833e-05
-9.75284e-05
8.66597e-05
-0.000122826
0.000103097
-0.000147035
0.000118011
-0.000167954
0.00012934
-0.000184331
0.000136052
-0.00019607
0.000138255
-0.00020399
0.000136868
-0.000209279
0.000133079
-0.000212925
0.000127819
-0.000215513
0.000121672
-0.000217283
0.000114904
-0.000218055
0.000107432
-0.000217337
9.91002e-05
-0.000214444
8.98071e-05
-0.000208698
7.95231e-05
-0.000199692
6.85066e-05
-0.000187203
5.7053e-05
-0.000171318
4.54438e-05
-0.000152475
3.41026e-05
-0.000131336
2.3434e-05
-0.00010864
1.37674e-05
-8.51753e-05
5.40945e-06
-6.15916e-05
-2.0573e-06
-3.61701e-05
-1.10362e-05
-2.33875e-05
-5.29841e-06
1.2591e-06
3.05155e-07
-1.09814e-05
1.51955e-05
-1.72228e-05
2.74729e-05
-2.4073e-05
3.78911e-05
-3.21818e-05
4.67365e-05
-4.2892e-05
5.52403e-05
-5.7591e-05
6.52777e-05
-7.67817e-05
7.82617e-05
-9.95827e-05
9.40843e-05
-0.000123901
0.000110978
-0.000147151
0.000126348
-0.000167113
0.000137972
-0.000182551
0.000144779
-0.000193444
0.000146945
-0.000200645
0.000145456
-0.000205244
0.000141467
-0.000208118
0.000135953
-0.000209688
0.000129388
-0.000209695
0.000121679
-0.00020742
0.000112628
-0.000202058
0.00010207
-0.000192907
8.99495e-05
-0.000179598
7.64986e-05
-0.000162314
6.22388e-05
-0.000141634
4.78267e-05
-0.000118516
3.39344e-05
-9.43373e-05
2.12654e-05
-7.06644e-05
1.04297e-05
-4.90547e-05
1.82435e-06
-3.07549e-05
-4.53238e-06
-1.62261e-05
-9.11941e-06
-4.73822e-06
-1.35452e-05
2.97119e-06
-1.87457e-05
-2.04163e-05
-1.29859e-05
7.08665e-06
7.15835e-06
-1.96206e-05
2.18302e-05
-2.70563e-05
3.49086e-05
-3.5672e-05
4.65068e-05
-4.64271e-05
5.74916e-05
-6.05344e-05
6.93476e-05
-7.86623e-05
8.34056e-05
-0.000100258
9.98576e-05
-0.000123481
0.000117307
-0.000145813
0.000133309
-0.000164998
0.000145534
-0.000179768
0.000152742
-0.000190035
0.000155046
-0.000196584
0.000153494
-0.000200416
0.000149288
-0.000202263
0.000143314
-0.000202087
0.000135777
-0.00019922
0.000126521
-0.000192904
0.000115363
-0.000182451
0.000102175
-0.000167536
8.71548e-05
-0.000148444
7.08572e-05
-0.000126113
5.41681e-05
-0.000101983
3.81082e-05
-7.77675e-05
2.36114e-05
-5.52873e-05
1.14542e-05
-3.61516e-05
2.1297e-06
-2.12284e-05
-4.49353e-06
-1.03695e-05
-9.03456e-06
-2.87831e-06
-1.20236e-05
2.10676e-06
-1.41045e-05
4.69934e-06
-1.61377e-05
4.37139e-06
-1.84177e-05
-1.6045e-05
-2.0737e-05
1.3867e-05
1.39567e-05
-2.85216e-05
2.96149e-05
-3.75463e-05
4.39333e-05
-4.8451e-05
5.74116e-05
-6.21637e-05
7.12042e-05
-7.93644e-05
8.65483e-05
-9.97791e-05
0.00010382
-0.000121901
0.00012198
-0.000143394
0.0001388
-0.000161985
0.0001519
-0.000176306
0.000159854
-0.000186174
0.000162611
-0.000192182
0.000161053
-0.000195175
0.000156487
-0.000195611
0.000149724
-0.000193169
0.000140872
-0.00018717
0.000129778
-0.000176944
0.000116295
-0.000162139
0.000100559
-0.000143045
8.30804e-05
-0.000120653
6.47633e-05
-9.65469e-05
4.67511e-05
-7.25977e-05
3.02189e-05
-5.06023e-05
1.61127e-05
-3.19869e-05
4.99601e-06
-1.74649e-05
-3.06787e-06
-6.82506e-06
-8.5101e-06
6.03251e-07
-1.19219e-05
5.34606e-06
-1.37774e-05
7.84783e-06
-1.45253e-05
8.4774e-06
-1.47341e-05
7.32845e-06
-1.49888e-05
4.12772e-06
-1.5217e-05
-1.19172e-05
-2.87263e-05
2.17701e-05
2.08232e-05
-3.79469e-05
3.88355e-05
-4.89483e-05
5.49347e-05
-6.24118e-05
7.08751e-05
-7.88663e-05
8.76588e-05
-9.82245e-05
0.000105906
-0.000119314
0.00012491
-0.000140063
0.000142728
-0.000158236
0.000156974
-0.000172304
0.000165967
-0.000181843
0.000169393
-0.000187269
0.000168037
-0.000189423
0.000163207
-0.000188458
0.000155522
-0.000183827
0.000145093
-0.000174971
0.000132016
-0.000161467
0.000116274
-0.000143465
9.82934e-05
-0.000121829
7.89236e-05
-9.80764e-05
5.93278e-05
-7.40851e-05
4.07719e-05
-5.17026e-05
2.43686e-05
-3.2359e-05
1.08753e-05
-1.68143e-05
5.6805e-07
-5.03951e-06
-6.77881e-06
3.47266e-06
-1.158e-05
9.22531e-06
-1.42628e-05
1.26226e-05
-1.53192e-05
1.41042e-05
-1.52589e-05
1.39038e-05
-1.43249e-05
1.22354e-05
-1.30656e-05
9.16891e-06
-1.19224e-05
4.62803e-06
-1.06761e-05
-7.2892e-06
-3.71104e-05
3.10309e-05
2.78496e-05
-4.80537e-05
4.97788e-05
-6.12398e-05
6.81208e-05
-7.71265e-05
8.67618e-05
-9.55954e-05
0.000106128
-0.000115767
0.000126079
-0.000135864
0.000145007
-0.000153763
0.000160627
-0.000167802
0.000171013
-0.000177282
0.000175448
-0.000182428
0.000174539
-0.000183839
0.000169448
-0.00018149
0.000160857
-0.000174887
0.00014892
-0.000163676
0.000133881
-0.000147721
0.000116061
-0.000127602
9.61549e-05
-0.000104624
7.53152e-05
-8.05789e-05
5.48783e-05
-5.73612e-05
3.611e-05
-3.65536e-05
1.99643e-05
-1.91493e-05
6.96438e-06
-5.45399e-06
-2.82008e-06
4.82596e-06
-9.7119e-06
1.22046e-05
-1.41575e-05
1.69956e-05
-1.6371e-05
1.95906e-05
-1.68577e-05
2.03734e-05
-1.6102e-05
1.96365e-05
-1.45221e-05
1.76306e-05
-1.2319e-05
1.45129e-05
-9.9479e-06
1.02743e-05
-7.6838e-06
4.87923e-06
-5.28105e-06
-2.40997e-06
-4.59224e-05
4.19191e-05
3.50343e-05
-5.88468e-05
6.27032e-05
-7.41753e-05
8.34493e-05
-9.18861e-05
0.000104473
-0.000111258
0.000125499
-0.00013081
0.000145631
-0.00014855
0.000162747
-0.000162712
0.000174789
-0.000172428
0.000180729
-0.000177549
0.000180569
-0.000178418
0.000175408
-0.000175013
0.000166043
-0.000166921
0.000152766
-0.000153965
0.000135963
-0.000136353
0.00011627
-0.000114989
9.46965e-05
-9.14427e-05
7.2609e-05
-6.75928e-05
5.14653e-05
-4.51952e-05
3.24807e-05
-2.55322e-05
1.6447e-05
-9.25764e-06
3.68981e-06
3.49444e-06
-5.7877e-06
1.29991e-05
-1.23247e-05
1.96491e-05
-1.6362e-05
2.38135e-05
-1.83219e-05
2.5801e-05
-1.83585e-05
2.59802e-05
-1.70369e-05
2.4825e-05
-1.49468e-05
2.2534e-05
-1.2231e-05
1.93526e-05
-9.13759e-06
1.53738e-05
-5.96912e-06
1.0535e-05
-2.84505e-06
4.81964e-06
4.34341e-07
2.40967e-06
-5.51995e-05
5.46395e-05
4.24791e-05
-7.0099e-05
7.76026e-05
-8.7161e-05
0.000100511
-0.000105796
0.000123108
-0.000124846
0.000144549
-0.000142509
0.000163294
-0.000156939
0.000177177
-0.000166965
0.000184815
-0.000172604
0.000186368
-0.000173229
0.000181193
-0.00016918
0.00017136
-0.000160148
0.00015701
-0.000146111
0.000138729
-0.000127563
0.000117415
-0.000105654
9.4362e-05
-8.20787e-05
7.11207e-05
-5.86843e-05
4.92147e-05
-3.70418e-05
2.98228e-05
-1.81757e-05
1.36145e-05
-2.51428e-06
7.85596e-07
9.853e-06
-8.67747e-06
1.89908e-05
-1.49255e-05
2.51931e-05
-1.8527e-05
2.87799e-05
-1.99487e-05
3.0132e-05
-1.9674e-05
2.98737e-05
-1.81002e-05
2.84187e-05
-1.5582e-05
2.59954e-05
-1.25235e-05
2.28394e-05
-9.075e-06
1.91086e-05
-5.40675e-06
1.48298e-05
-1.69036e-06
9.91105e-06
2.07372e-06
4.39276e-06
5.95263e-06
6.80243e-06
-6.47549e-05
6.91789e-05
5.02154e-05
-8.13129e-05
9.41607e-05
-9.93981e-05
0.000118597
-0.000117947
0.000141657
-0.000135536
0.000162138
-0.000150362
0.000178119
-0.000161048
0.000187863
-0.000167229
0.000190996
-0.000168238
0.000187377
-0.000163985
0.00017694
-0.000154569
0.000161944
-0.00014009
0.000142531
-0.000121245
0.000119884
-9.93676e-05
9.55371e-05
-7.62024e-05
7.11969e-05
-5.35115e-05
4.84299e-05
-3.26838e-05
2.8387e-05
-1.45372e-05
1.16761e-05
6.66376e-07
-1.58903e-06
1.28022e-05
-1.13503e-05
2.18325e-05
-1.77077e-05
2.77304e-05
-2.08234e-05
3.09368e-05
-2.17335e-05
3.2063e-05
-2.1075e-05
3.14314e-05
-1.90424e-05
2.96071e-05
-1.62759e-05
2.70451e-05
-1.30199e-05
2.40251e-05
-9.50348e-06
2.06798e-05
-5.72973e-06
1.70159e-05
-1.74284e-06
1.29723e-05
2.35321e-06
8.46791e-06
6.57816e-06
3.65758e-06
1.0763e-05
1.046e-05
-7.41952e-05
8.52826e-05
5.80914e-05
-9.1832e-05
0.000111798
-0.000110067
0.000136832
-0.000127563
0.000159153
-0.000142849
0.000177424
-0.000154397
0.000189668
-0.000161466
0.000194933
-0.000163256
0.000192786
-0.000159208
0.000183329
-0.000149991
0.000167722
-0.000135659
0.000147612
-0.000117078
0.00012395
-9.5707e-05
9.85136e-05
-7.33269e-05
7.3157e-05
-5.16191e-05
4.94891e-05
-3.18238e-05
2.86345e-05
-1.4603e-05
1.11662e-05
-1.07805e-07
-2.81904e-06
1.15906e-05
-1.32875e-05
2.02722e-05
-2.00318e-05
2.60878e-05
-2.35234e-05
2.94246e-05
-2.41601e-05
3.04206e-05
-2.27295e-05
2.94955e-05
-2.01498e-05
2.74427e-05
-1.69897e-05
2.48528e-05
-1.3686e-05
2.21383e-05
-1.03053e-05
1.9385e-05
-6.75021e-06
1.65336e-05
-2.87833e-06
1.34652e-05
1.32558e-06
1.00723e-05
5.74612e-06
6.30149e-06
1.03489e-05
2.45395e-06
1.46105e-05
1.2914e-05
-8.30013e-05
0.0001025
6.57837e-05
-0.000101011
0.000129807
-0.000118577
0.000154398
-0.000134303
0.000174879
-0.000146815
0.000189936
-0.000154911
0.000197763
-0.000157865
0.000197887
-0.000154792
0.000189713
-0.000146111
0.000174649
-0.000132445
0.000154056
-0.000114598
0.000129764
-9.41135e-05
0.000103466
-7.28132e-05
7.72133e-05
-5.23436e-05
5.26874e-05
-3.38613e-05
3.10067e-05
-1.7938e-05
1.27113e-05
-4.66841e-06
-2.1034e-06
5.95004e-06
-1.34375e-05
1.38492e-05
-2.11866e-05
1.91944e-05
-2.5377e-05
2.21894e-05
-2.65184e-05
2.32069e-05
-2.51775e-05
2.28102e-05
-2.23328e-05
2.13297e-05
-1.86694e-05
1.93044e-05
-1.49643e-05
1.71761e-05
-1.15577e-05
1.51826e-05
-8.3118e-06
1.32914e-05
-4.85902e-06
1.1326e-05
-9.12964e-07
9.11891e-06
3.53269e-06
6.557e-06
8.30803e-06
3.64568e-06
1.32603e-05
9.27796e-07
1.73284e-05
1.38418e-05
-9.06771e-05
0.000120279
7.28985e-05
-0.00010836
0.00014749
-0.000124568
0.000170606
-0.000137974
0.000188284
-0.0001472
0.000199162
-0.000151781
0.000202344
-0.000150128
0.000196234
-0.000142704
0.000182289
-0.000130047
0.000161992
-0.000113305
0.000137314
-9.39829e-05
0.000110442
-7.39505e-05
8.34339e-05
-5.4878e-05
5.81407e-05
-3.79171e-05
3.57265e-05
-2.36335e-05
1.67231e-05
-1.21288e-05
1.20655e-06
-3.31177e-06
-1.09205e-05
2.98225e-06
-1.97315e-05
7.16792e-06
-2.53723e-05
9.84124e-06
-2.80503e-05
1.14203e-05
-2.80974e-05
1.21217e-05
-2.58789e-05
1.19774e-05
-2.21885e-05
1.12134e-05
-1.79053e-05
1.01187e-05
-1.38697e-05
8.99839e-06
-1.04374e-05
8.01161e-06
-7.32502e-06
7.07823e-06
-3.92562e-06
6.00225e-06
1.6302e-07
4.62866e-06
4.90629e-06
2.88596e-06
1.00507e-05
9.07814e-07
1.52384e-05
-5.18877e-07
1.87551e-05
1.33229e-05
-9.68012e-05
0.000138033
7.90469e-05
-0.000113506
0.000164195
-0.00012779
0.00018489
-0.00013852
0.000199015
-0.00014459
0.000205232
-0.000145071
0.000202826
-0.00013926
0.000190422
-0.000128086
0.000171115
-0.0001127
0.000146606
-9.47413e-05
0.000119355
-7.60616e-05
9.17622e-05
-5.84124e-05
6.57847e-05
-4.30227e-05
4.2751e-05
-3.05319e-05
2.32358e-05
-2.10968e-05
7.288e-06
-1.45678e-05
-5.3224e-06
-1.04798e-05
-1.50085e-05
-7.93412e-06
-2.22772e-05
-5.97232e-06
-2.73341e-05
-4.02875e-06
-2.99939e-05
-2.06662e-06
-3.00596e-05
-2.84328e-07
-2.76612e-05
1.01861e-06
-2.34915e-05
1.72562e-06
-1.86123e-05
1.92558e-06
-1.40696e-05
1.8595e-06
-1.03713e-05
1.72858e-06
-7.19408e-06
1.52874e-06
-3.72578e-06
1.12398e-06
5.6779e-07
4.05827e-07
5.62445e-06
-6.23589e-07
1.10802e-05
-1.63218e-06
1.6247e-05
-1.6998e-06
1.88227e-05
1.16231e-05
-0.000101044
0.0001552
8.38777e-05
-0.000116264
0.000179415
-0.000128283
0.000196909
-0.00013606
0.000206792
-0.000138965
0.000208137
-0.000135254
0.000199115
-0.000126043
0.000181211
-0.000112342
0.000157414
-9.58736e-05
0.000130138
-7.85756e-05
0.000102057
-6.22617e-05
7.54483e-05
-4.83081e-05
5.1831e-05
-3.74984e-05
3.19414e-05
-3.01074e-05
1.58448e-05
-2.59509e-05
3.13142e-06
-2.42561e-05
-7.01713e-06
-2.36643e-05
-1.56004e-05
-2.28998e-05
-2.30417e-05
-2.13333e-05
-2.89006e-05
-1.88901e-05
-3.24371e-05
-1.57878e-05
-3.31618e-05
-1.23892e-05
-3.10598e-05
-9.17629e-06
-2.67044e-05
-6.60149e-06
-2.11871e-05
-4.89176e-06
-1.57793e-05
-3.9447e-06
-1.13184e-05
-3.44761e-06
-7.69117e-06
-3.1752e-06
-3.99818e-06
-3.12367e-06
5.16268e-07
-3.35059e-06
5.85138e-06
-3.76039e-06
1.149e-05
-3.71331e-06
1.61999e-05
-2.3632e-06
1.74726e-05
9.25989e-06
-0.000103235
0.00017129
8.71446e-05
-0.000116593
0.000192773
-0.000126152
0.000206467
-0.000131155
0.000211795
-0.00013042
0.000207402
-0.000123404
0.000192099
-0.00011174
0.000169547
-9.69616e-05
0.000142636
-8.10503e-05
0.000114226
-6.59409e-05
8.69476e-05
-5.31652e-05
6.26726e-05
-4.37043e-05
4.23701e-05
-3.79818e-05
2.62189e-05
-3.58248e-05
1.36878e-05
-3.62552e-05
3.56175e-06
-3.75734e-05
-5.6989e-06
-3.83392e-05
-1.48346e-05
-3.79727e-05
-2.34081e-05
-3.63651e-05
-3.05082e-05
-3.35081e-05
-3.5294e-05
-2.94961e-05
-3.71739e-05
-2.46203e-05
-3.59356e-05
-1.94362e-05
-3.18884e-05
-1.46884e-05
-2.5935e-05
-1.10522e-05
-1.94155e-05
-8.79497e-06
-1.35756e-05
-7.62416e-06
-8.86197e-06
-6.99522e-06
-4.62711e-06
-6.60237e-06
1.23425e-07
-6.36815e-06
5.61716e-06
-6.03556e-06
1.11574e-05
-4.95137e-06
1.51157e-05
-2.48044e-06
1.50017e-05
6.77945e-06
-0.00010338
0.000185921
8.87495e-05
-0.000114657
0.000204049
-0.000121735
0.000213545
-0.000124013
0.000214073
-0.000119863
0.000203253
-0.000110506
0.000182741
-9.7634e-05
0.000156676
-8.31782e-05
0.00012818
-6.91496e-05
0.000100198
-5.7263e-05
7.50609e-05
-4.87004e-05
5.411e-05
-4.40651e-05
3.77349e-05
-4.32522e-05
2.5406e-05
-4.51861e-05
1.56217e-05
-4.80186e-05
6.39429e-06
-5.02468e-05
-3.47079e-06
-5.14029e-05
-1.36784e-05
-5.14195e-05
-2.33916e-05
-5.01525e-05
-3.17751e-05
-4.74152e-05
-3.80313e-05
-4.31007e-05
-4.14884e-05
-3.73139e-05
-4.17224e-05
-3.05086e-05
-3.86937e-05
-2.35407e-05
-3.29029e-05
-1.74873e-05
-2.54688e-05
-1.32074e-05
-1.78556e-05
-1.0831e-05
-1.12383e-05
-9.67953e-06
-5.77863e-06
-8.94263e-06
-6.13462e-07
-8.20375e-06
4.87829e-06
-7.09766e-06
1.00513e-05
-5.17977e-06
1.31979e-05
-2.1495e-06
1.19714e-05
4.62996e-06
-0.000101648
0.000198877
8.86918e-05
-0.000110827
0.000213228
-0.000115588
0.000218307
-0.000114827
0.000213312
-0.000108221
0.000196647
-9.7557e-05
0.000172077
-8.47163e-05
0.000143835
-7.17433e-05
0.000115207
-6.05021e-05
8.89566e-05
-5.23973e-05
6.69561e-05
-4.82135e-05
4.99261e-05
-4.79833e-05
3.75046e-05
-5.06954e-05
2.81181e-05
-5.4474e-05
1.94003e-05
-5.77501e-05
9.6704e-06
-6.01085e-05
-1.11247e-06
-6.16309e-05
-1.2156e-05
-6.22462e-05
-2.27763e-05
-6.16921e-05
-3.23292e-05
-5.96335e-05
-4.00899e-05
-5.57743e-05
-4.53475e-05
-4.9975e-05
-4.75218e-05
-4.24093e-05
-4.62594e-05
-3.37528e-05
-4.15594e-05
-2.51898e-05
-3.40318e-05
-1.80999e-05
-2.49456e-05
-1.34341e-05
-1.59041e-05
-1.10295e-05
-8.18319e-06
-9.75113e-06
-1.89185e-06
-8.55356e-06
3.68072e-06
-6.9102e-06
8.40792e-06
-4.51186e-06
1.07995e-05
-1.58854e-06
9.04813e-06
3.04142e-06
-9.819e-05
0.000210008
8.7059e-05
-0.000105219
0.000220257
-0.000107915
0.000221003
-0.000104565
0.000209963
-9.64169e-05
0.000188499
-8.54342e-05
0.000161094
-7.36225e-05
0.000132023
-6.29349e-05
0.000104519
-5.4963e-05
8.09848e-05
-5.07301e-05
6.27232e-05
-5.04376e-05