/*--------------------------------*- C++ -*----------------------------------*\
| =========                 |                                                 |
| \\      /  F ield         | OpenFOAM: The Open Source CFD Toolbox           |
|  \\    /   O peration     | Version:  v2012                                 |
|   \\  /    A nd           | Website:  www.openfoam.com                      |
|    \\/     M anipulation  |                                                 |
\*---------------------------------------------------------------------------*/
FoamFile
{
    version     2.0;
    format      ascii;
    class       volVectorField;
    location    "574";
    object      U;
}
// * * * * * * * * * * * * * * * * * * * * * * * * * * * * * * * * * * * * * //

dimensions      [0 1 -1 0 0 0 0];


internalField   nonuniform List<vector> 
6018
(
(0.0235657 -0.443356 0)
(0.0232049 -0.491028 0)
(0.0228516 -0.534338 0)
(0.0225728 -0.573921 0)
(0.0221904 -0.610443 0)
(0.0210532 -0.643438 0)
(0.0197067 -0.673331 0)
(0.0188585 -0.700902 0)
(0.0183401 -0.726911 0)
(0.0180871 -0.751895 0)
(0.0180546 -0.776301 0)
(0.0181833 -0.800474 0)
(0.0183726 -0.824622 0)
(0.0185394 -0.848823 0)
(0.0186318 -0.873115 0)
(0.0185416 -0.89771 0)
(0.0181142 -0.922964 0)
(0.0169363 -0.948218 0)
(0.0125225 -0.969564 0)
(0.00465681 -0.983628 0)
(0.0557147 -0.94547 0)
(0.0486996 -0.968841 0)
(0.042154 -0.98589 0)
(0.036822 -0.997904 0)
(0.0322491 -1.00605 0)
(0.0286237 -1.01149 0)
(0.0258736 -1.0156 0)
(0.0238703 -1.01856 0)
(0.0224807 -1.02057 0)
(0.021592 -1.02179 0)
(0.0211074 -1.0224 0)
(0.0208701 -1.02257 0)
(0.020727 -1.0224 0)
(0.0206421 -1.02188 0)
(0.020662 -1.02095 0)
(0.0206492 -1.01971 0)
(0.0203973 -1.01836 0)
(0.0202908 -1.01643 0)
(0.0205575 -1.01061 0)
(0.0101049 -1.00208 0)
(0.0653633 -1.07857 0)
(0.0549888 -1.08213 0)
(0.04626 -1.08354 0)
(0.0390783 -1.08328 0)
(0.0332733 -1.08172 0)
(0.0286859 -1.07924 0)
(0.0251493 -1.07606 0)
(0.0224826 -1.0723 0)
(0.0205057 -1.06806 0)
(0.0190491 -1.06343 0)
(0.017975 -1.05853 0)
(0.0172722 -1.05318 0)
(0.0169719 -1.04708 0)
(0.0167982 -1.04101 0)
(0.0164991 -1.03485 0)
(0.0160122 -1.02852 0)
(0.0152018 -1.022 0)
(0.0139794 -1.01488 0)
(0.0117085 -1.00708 0)
(0.00566582 -1.00128 0)
(0.0661038 -1.11451 0)
(0.0542575 -1.11318 0)
(0.0443423 -1.11041 0)
(0.0362804 -1.10655 0)
(0.0298381 -1.10188 0)
(0.0247867 -1.09663 0)
(0.0208956 -1.0909 0)
(0.0179541 -1.0848 0)
(0.0157673 -1.07835 0)
(0.0141504 -1.07162 0)
(0.0129449 -1.06465 0)
(0.0120803 -1.05751 0)
(0.0115361 -1.05014 0)
(0.011147 -1.04254 0)
(0.010751 -1.03481 0)
(0.0102411 -1.0271 0)
(0.00950645 -1.01942 0)
(0.00844137 -1.01168 0)
(0.00650374 -1.00464 0)
(0.00261999 -1.00074 0)
(0.0647886 -1.13064 0)
(0.0516902 -1.12717 0)
(0.0408525 -1.12234 0)
(0.0321158 -1.11659 0)
(0.0251902 -1.11024 0)
(0.0197772 -1.10349 0)
(0.0155991 -1.09643 0)
(0.0124158 -1.08914 0)
(0.010015 -1.08165 0)
(0.00820847 -1.07398 0)
(0.00684552 -1.06619 0)
(0.00583806 -1.05826 0)
(0.00513455 -1.05018 0)
(0.00463524 -1.04195 0)
(0.00422904 -1.0337 0)
(0.00384803 -1.02561 0)
(0.00344483 -1.01773 0)
(0.00296404 -1.01013 0)
(0.00218355 -1.00378 0)
(0.000814168 -1.0006 0)
(0.0621218 -1.14124 0)
(0.0476109 -1.1361 0)
(0.0358848 -1.12957 0)
(0.0266118 -1.12233 0)
(0.0193669 -1.11473 0)
(0.0137521 -1.10695 0)
(0.00943225 -1.09908 0)
(0.00613868 -1.09113 0)
(0.00364188 -1.08314 0)
(0.00174797 -1.0751 0)
(0.000314015 -1.06701 0)
(-0.000760515 -1.05885 0)
(-0.00154602 -1.05058 0)
(-0.0020896 -1.04222 0)
(-0.00243775 -1.03388 0)
(-0.00261026 -1.02573 0)
(-0.00261396 -1.01779 0)
(-0.00243808 -1.01016 0)
(-0.00189385 -1.0038 0)
(-0.000721919 -1.0006 0)
(0.0580766 -1.14778 0)
(0.0422989 -1.14092 0)
(0.0297922 -1.13265 0)
(0.0202025 -1.12408 0)
(0.0128577 -1.11553 0)
(0.00723658 -1.10714 0)
(0.00293027 -1.09891 0)
(-0.000353894 -1.09082 0)
(-0.00285118 -1.08283 0)
(-0.00476184 -1.07493 0)
(-0.00622121 -1.06707 0)
(-0.00734283 -1.05923 0)
(-0.00819808 -1.05132 0)
(-0.00877257 -1.04333 0)
(-0.00908387 -1.03532 0)
(-0.00909574 -1.02743 0)
(-0.008742 -1.01962 0)
(-0.00795996 -1.01178 0)
(-0.00624075 -1.00468 0)
(-0.00253806 -1.00075 0)
(0.0532121 -1.14423 0)
(0.0354341 -1.13454 0)
(0.0223526 -1.12477 0)
(0.0129022 -1.11519 0)
(0.00587434 -1.10628 0)
(0.000565646 -1.09797 0)
(-0.00348865 -1.09027 0)
(-0.0065545 -1.08301 0)
(-0.0088771 -1.07606 0)
(-0.0106915 -1.06916 0)
(-0.0121268 -1.06244 0)
(-0.013264 -1.05565 0)
(-0.0141676 -1.04884 0)
(-0.0147687 -1.04232 0)
(-0.0150725 -1.03567 0)
(-0.0150473 -1.02903 0)
(-0.0145636 -1.0223 0)
(-0.0135821 -1.01503 0)
(-0.0114966 -1.00713 0)
(-0.00560149 -1.00129 0)
(0.042508 -1.09335 0)
(0.0245026 -1.07858 0)
(0.0128106 -1.06581 0)
(0.00467305 -1.0559 0)
(-0.00127199 -1.04855 0)
(-0.00577136 -1.04301 0)
(-0.00920434 -1.03874 0)
(-0.0118637 -1.03535 0)
(-0.0139458 -1.03261 0)
(-0.0155718 -1.03036 0)
(-0.0168317 -1.02848 0)
(-0.0177587 -1.02686 0)
(-0.018492 -1.02537 0)
(-0.0191095 -1.02386 0)
(-0.0196035 -1.02222 0)
(-0.0198988 -1.02049 0)
(-0.019915 -1.0188 0)
(-0.0200142 -1.01664 0)
(-0.0203975 -1.01063 0)
(-0.0100684 -1.00209 0)
(0.0210392 -0.75531 0)
(0.0100361 -0.727753 0)
(0.00265545 -0.71056 0)
(-0.00222357 -0.704299 0)
(-0.00584222 -0.704811 0)
(-0.00834051 -0.710709 0)
(-0.0104887 -0.720737 0)
(-0.0122569 -0.734005 0)
(-0.0137013 -0.749802 0)
(-0.0148913 -0.767603 0)
(-0.0158832 -0.787005 0)
(-0.0167 -0.807688 0)
(-0.0173422 -0.82939 0)
(-0.0178383 -0.851888 0)
(-0.0181763 -0.875011 0)
(-0.0182569 -0.898813 0)
(-0.0179366 -0.923548 0)
(-0.0168293 -0.94849 0)
(-0.0124743 -0.969661 0)
(-0.00463459 -0.983641 0)
(-0.00168476 0.037783 0)
(0.0005171 0.0491136 0)
(0.00268114 0.0521682 0)
(0.00368133 0.0473375 0)
(0.00317347 0.0376346 0)
(0.00172736 0.0269195 0)
(0.000466423 0.0182052 0)
(-0.000286036 0.0128826 0)
(-0.000836427 0.0113706 0)
(-0.00138965 0.0137266 0)
(-0.00224485 0.0204302 0)
(-0.00230341 0.0297903 0)
(-0.00147208 0.0390622 0)
(-0.00023287 0.046331 0)
(0.000501696 0.0491318 0)
(0.000515702 0.0484535 0)
(-0.000421108 0.0467603 0)
(-0.00246016 0.0460661 0)
(-0.00467251 0.0467991 0)
(-0.00439824 0.0478508 0)
(-0.00273893 0.0474023 0)
(-0.00141789 0.0447442 0)
(-0.000431473 0.0398718 0)
(0.000619848 0.0300969 0)
(0.00168487 0.0167914 0)
(0.00281243 -0.0050995 0)
(0.00265863 -0.0349106 0)
(0.00354304 -0.0699198 0)
(0.00662578 -0.112895 0)
(0.0107132 -0.162228 0)
(0.0154501 -0.216494 0)
(0.0202268 -0.275001 0)
(0.0229582 -0.334398 0)
(0.0236265 -0.390974 0)
(-0.0199473 0.0884011 0)
(-0.0102716 0.107446 0)
(0.000668672 0.116273 0)
(0.00970492 0.11443 0)
(0.0145925 0.103175 0)
(0.0147123 0.0860015 0)
(0.0111544 0.0678675 0)
(0.00557023 0.0536347 0)
(-0.000730879 0.0464349 0)
(-0.00674451 0.0470031 0)
(-0.012252 0.0558026 0)
(-0.0140678 0.0679114 0)
(-0.0128229 0.0787272 0)
(-0.00865564 0.0864418 0)
(-0.00263958 0.0875816 0)
(0.00124538 0.0852136 0)
(0.00184525 0.0801318 0)
(0.00142805 0.0719248 0)
(0.00182751 0.0596663 0)
(0.0027075 0.0428003 0)
(0.00365798 0.0181512 0)
(0.00801565 -0.0160244 0)
(0.0169425 -0.0641311 0)
(0.0280748 -0.136101 0)
(0.0404945 -0.220531 0)
(0.0521314 -0.313566 0)
(0.0618424 -0.410352 0)
(0.069671 -0.506742 0)
(0.0753324 -0.59861 0)
(0.0783533 -0.683089 0)
(0.0783953 -0.757784 0)
(0.0754667 -0.821208 0)
(0.070077 -0.873001 0)
(0.0630205 -0.914115 0)
(-0.0396186 0.135928 0)
(-0.0221704 0.154001 0)
(-0.00318165 0.161391 0)
(0.0134752 0.158996 0)
(0.0247601 0.148141 0)
(0.0287148 0.131049 0)
(0.0254172 0.111375 0)
(0.0165696 0.0937589 0)
(0.00464925 0.082464 0)
(-0.00782493 0.0792583 0)
(-0.0189908 0.083623 0)
(-0.0202916 0.0886507 0)
(-0.016139 0.090232 0)
(-0.00765319 0.0867718 0)
(0.000847252 0.077859 0)
(0.00661128 0.0647052 0)
(0.0101823 0.0459849 0)
(0.0141787 0.0184857 0)
(0.0206954 -0.02084 0)
(0.0321503 -0.0792425 0)
(0.0498625 -0.160532 0)
(0.0717438 -0.260083 0)
(0.0943337 -0.370322 0)
(0.11399 -0.484406 0)
(0.128476 -0.595914 0)
(0.137661 -0.699628 0)
(0.141603 -0.791922 0)
(0.140776 -0.870586 0)
(0.135859 -0.934681 0)
(0.127604 -0.984434 0)
(0.116602 -1.02029 0)
(0.103854 -1.04533 0)
(0.0904811 -1.06187 0)
(0.0773518 -1.07217 0)
(-0.0575459 0.174621 0)
(-0.0310711 0.187559 0)
(-0.00407091 0.19014 0)
(0.0194058 0.184152 0)
(0.0358331 0.172166 0)
(0.0429987 0.154982 0)
(0.0403298 0.13565 0)
(0.0290542 0.117607 0)
(0.0122776 0.104395 0)
(-0.00533387 0.0974931 0)
(-0.018847 0.0921342 0)
(-0.0181891 0.0833302 0)
(-0.0103068 0.0693154 0)
(0.0030098 0.0495532 0)
(0.016454 0.024419 0)
(0.0274402 -0.00881139 0)
(0.039294 -0.0567638 0)
(0.056896 -0.124859 0)
(0.0817797 -0.215415 0)
(0.111723 -0.325484 0)
(0.1424 -0.447235 0)
(0.169718 -0.570528 0)
(0.190502 -0.68644 0)
(0.202886 -0.789026 0)
(0.206712 -0.875477 0)
(0.203166 -0.944901 0)
(0.193798 -0.998277 0)
(0.180288 -1.03747 0)
(0.16416 -1.06487 0)
(0.146841 -1.08374 0)
(0.129336 -1.09636 0)
(0.112053 -1.10527 0)
(0.0953863 -1.11094 0)
(0.0798905 -1.1139 0)
(-0.0699834 0.194413 0)
(-0.0347801 0.200143 0)
(-0.000765396 0.196966 0)
(0.0278334 0.187622 0)
(0.047904 0.173561 0)
(0.0573036 0.156156 0)
(0.0549381 0.137381 0)
(0.0417823 0.119646 0)
(0.0216853 0.104711 0)
(0.00222133 0.091063 0)
(-0.00740317 0.0731375 0)
(-0.00316527 0.0493172 0)
(0.010547 0.0181372 0)
(0.0286603 -0.0208685 0)
(0.049237 -0.0716131 0)
(0.0733009 -0.140383 0)
(0.103311 -0.231333 0)
(0.139429 -0.342662 0)
(0.177946 -0.467171 0)
(0.213385 -0.594116 0)
(0.241085 -0.713252 0)
(0.258611 -0.817115 0)
(0.26551 -0.901972 0)
(0.262717 -0.967531 0)
(0.252137 -1.01595 0)
(0.236113 -1.05054 0)
(0.216855 -1.07493 0)
(0.196151 -1.09233 0)
(0.175218 -1.10523 0)
(0.154707 -1.11531 0)
(0.134902 -1.12288 0)
(0.115778 -1.12829 0)
(0.0973674 -1.13147 0)
(0.080143 -1.13222 0)
(-0.0746071 0.192994 0)
(-0.0329657 0.189288 0)
(0.00587867 0.181107 0)
(0.0380944 0.16934 0)
(0.0607684 0.154288 0)
(0.0716035 0.136895 0)
(0.0693314 0.11859 0)
(0.0549907 0.100584 0)
(0.034024 0.0820143 0)
(0.0175651 0.0595176 0)
(0.0141574 0.0287675 0)
(0.0251077 -0.0117678 0)
(0.0469193 -0.0638779 0)
(0.0760253 -0.131305 0)
(0.111361 -0.217978 0)
(0.152614 -0.324282 0)
(0.19773 -0.44626 0)
(0.241711 -0.574587 0)
(0.278724 -0.697649 0)
(0.304516 -0.805947 0)
(0.317468 -0.894336 0)
(0.318409 -0.961895 0)
(0.309604 -1.01088 0)
(0.293795 -1.04526 0)
(0.273595 -1.0694 0)
(0.251153 -1.087 0)
(0.228002 -1.10076 0)
(0.205043 -1.11226 0)
(0.182645 -1.12217 0)
(0.16083 -1.13053 0)
(0.139597 -1.1372 0)
(0.118893 -1.14205 0)
(0.0986598 -1.14462 0)
(0.0794342 -1.14436 0)
(-0.0710233 0.166761 0)
(-0.0251398 0.15772 0)
(0.0158207 0.146576 0)
(0.0496222 0.133744 0)
(0.0738257 0.118656 0)
(0.0857404 0.101606 0)
(0.0837278 0.0833141 0)
(0.069472 0.0634986 0)
(0.051659 0.039438 0)
(0.042529 0.00658346 0)
(0.0486909 -0.0395082 0)
(0.0708994 -0.101877 0)
(0.106082 -0.182636 0)
(0.150601 -0.282181 0)
(0.200883 -0.3979 0)
(0.252597 -0.523905 0)
(0.299892 -0.650201 0)
(0.336899 -0.765454 0)
(0.359927 -0.86172 0)
(0.368499 -0.936103 0)
(0.364595 -0.990097 0)
(0.351418 -1.02777 0)
(0.332235 -1.05395 0)
(0.309719 -1.07296 0)
(0.285694 -1.08793 0)
(0.261232 -1.10071 0)
(0.236958 -1.11216 0)
(0.213165 -1.12257 0)
(0.189817 -1.13185 0)
(0.166725 -1.13976 0)
(0.143931 -1.14615 0)
(0.121542 -1.15088 0)
(0.0993483 -1.15315 0)
(0.0775756 -1.1535 0)
(-0.0619876 0.131205 0)
(-0.0151712 0.118429 0)
(0.0265742 0.104758 0)
(0.0614703 0.0900582 0)
(0.0870146 0.0738562 0)
(0.100056 0.0559998 0)
(0.0988204 0.0362297 0)
(0.087209 0.012753 0)
(0.0772211 -0.0194083 0)
(0.0802605 -0.0667472 0)
(0.100763 -0.134243 0)
(0.138753 -0.223208 0)
(0.188939 -0.330386 0)
(0.245517 -0.451095 0)
(0.301932 -0.577642 0)
(0.351458 -0.699604 0)
(0.387995 -0.806483 0)
(0.40857 -0.892027 0)
(0.413714 -0.955348 0)
(0.406423 -0.99967 0)
(0.390559 -1.03012 0)
(0.369584 -1.05174 0)
(0.345956 -1.06834 0)
(0.321176 -1.08234 0)
(0.295951 -1.09495 0)
(0.270508 -1.10648 0)
(0.245281 -1.11684 0)
(0.220462 -1.12598 0)
(0.195928 -1.13378 0)
(0.171685 -1.13955 0)
(0.147783 -1.14416 0)
(0.12431 -1.14786 0)
(0.100976 -1.15045 0)
(0.0766883 -1.15015 0)
(-0.0513122 0.0935369 0)
(-0.0034233 0.0782038 0)
(0.0391087 0.0617904 0)
(0.0749432 0.0440888 0)
(0.101613 0.0251945 0)
(0.115517 0.00486664 0)
(0.116252 -0.0180609 0)
(0.111825 -0.048543 0)
(0.114823 -0.0943769 0)
(0.134325 -0.161877 0)
(0.172528 -0.252976 0)
(0.225618 -0.363373 0)
(0.286015 -0.485838 0)
(0.345681 -0.611233 0)
(0.396708 -0.728447 0)
(0.432924 -0.828016 0)
(0.451825 -0.905047 0)
(0.454774 -0.960216 0)
(0.445486 -0.997924 0)
(0.428165 -1.02379 0)
(0.406279 -1.0427 0)
(0.382039 -1.05797 0)
(0.356515 -1.07119 0)
(0.330358 -1.08284 0)
(0.303945 -1.09276 0)
(0.277682 -1.0998 0)
(0.251718 -1.10644 0)
(0.225984 -1.11077 0)
(0.200571 -1.11332 0)
(0.175363 -1.11426 0)
(0.150232 -1.11353 0)
(0.125446 -1.11131 0)
(0.100796 -1.10874 0)
(0.0731616 -1.10441 0)
(-0.0387909 0.057418 0)
(0.0104829 0.0394601 0)
(0.0541746 0.0197187 0)
(0.0911239 -0.00180523 0)
(0.118468 -0.024355 0)
(0.133629 -0.0484665 0)
(0.139861 -0.0780798 0)
(0.14747 -0.121315 0)
(0.167519 -0.185796 0)
(0.205672 -0.274438 0)
(0.259891 -0.384003 0)
(0.322618 -0.505785 0)
(0.384618 -0.628901 0)
(0.436853 -0.741853 0)
(0.473058 -0.835607 0)
(0.491066 -0.906334 0)
(0.492778 -0.955697 0)
(0.482407 -0.988864 0)
(0.46437 -1.01167 0)
(0.441974 -1.02861 0)
(0.417365 -1.04219 0)
(0.39162 -1.05324 0)
(0.365195 -1.06104 0)
(0.338154 -1.06668 0)
(0.310596 -1.06818 0)
(0.282893 -1.06489 0)
(0.254735 -1.0552 0)
(0.226097 -1.03808 0)
(0.19749 -1.01285 0)
(0.169391 -0.978833 0)
(0.142335 -0.93715 0)
(0.116098 -0.89045 0)
(0.0895821 -0.845355 0)
(0.0591578 -0.804775 0)
(0.00188153 -0.00215026 0)
(0.00238595 -0.00755509 0)
(0.000866513 -0.0106081 0)
(-0.00125255 -0.00624838 0)
(-0.0026529 0.00552242 0)
(-0.00308436 0.0215359 0)
(0.00637396 -0.00326995 0)
(0.0061489 -0.00923405 0)
(-0.0016235 -0.00662469 0)
(-0.012993 0.00969202 0)
(-0.0219519 0.0345571 0)
(-0.0245147 0.0624023 0)
(0.0105267 -0.00286417 0)
(0.00539199 -0.00451055 0)
(-0.0139108 0.010623 0)
(-0.0354963 0.0400727 0)
(-0.0486834 0.0751469 0)
(-0.0498539 0.108567 0)
(0.0118371 -0.00111614 0)
(-0.00367352 0.00432288 0)
(-0.0382256 0.0339622 0)
(-0.068281 0.076102 0)
(-0.0812988 0.11746 0)
(-0.0765543 0.151297 0)
(0.00941257 0.000370281 0)
(-0.0243485 0.0167796 0)
(-0.0751152 0.0615344 0)
(-0.107794 0.111495 0)
(-0.114253 0.152064 0)
(-0.0993531 0.179906 0)
(0.00080108 0.00234038 0)
(-0.0590639 0.0336587 0)
(-0.120474 0.0891419 0)
(-0.146982 0.137955 0)
(-0.140786 0.170516 0)
(-0.113568 0.186781 0)
(-0.016519 0.00500253 0)
(-0.10542 0.0524767 0)
(-0.166857 0.109695 0)
(-0.178541 0.148951 0)
(-0.156427 0.17208 0)
(-0.117172 0.171656 0)
(-0.0416519 0.0110686 0)
(-0.157207 0.068571 0)
(-0.205976 0.117621 0)
(-0.196524 0.14528 0)
(-0.159479 0.147305 0)
(-0.11111 0.141639 0)
(-0.0780302 0.0214973 0)
(-0.205228 0.0769416 0)
(-0.231481 0.113271 0)
(-0.202978 0.122316 0)
(-0.153469 0.117834 0)
(-0.101793 0.10711 0)
(-0.124034 0.0301527 0)
(-0.241881 0.0745404 0)
(-0.24201 0.0962483 0)
(-0.199997 0.0963844 0)
(-0.144619 0.0862564 0)
(-0.0907297 0.0730313 0)
(-0.0237622 0.0222606 0)
(0.0274752 0.00114703 0)
(0.0728408 -0.0225943 0)
(0.110809 -0.0483188 0)
(0.139085 -0.0753734 0)
(0.158207 -0.106377 0)
(0.174743 -0.14822 0)
(0.198935 -0.209196 0)
(0.238398 -0.293708 0)
(0.293698 -0.399555 0)
(0.358206 -0.518284 0)
(0.421793 -0.637822 0)
(0.474883 -0.746226 0)
(0.511006 -0.834783 0)
(0.528321 -0.900344 0)
(0.529127 -0.945205 0)
(0.518007 -0.974836 0)
(0.499551 -0.99491 0)
(0.477149 -1.00928 0)
(0.452561 -1.01917 0)
(0.42625 -1.0258 0)
(0.398127 -1.02654 0)
(0.36789 -1.01909 0)
(0.335023 -0.999352 0)
(0.299807 -0.964923 0)
(0.262785 -0.914589 0)
(0.224237 -0.847387 0)
(0.185148 -0.765045 0)
(0.146907 -0.670129 0)
(0.110813 -0.566213 0)
(0.0769771 -0.456233 0)
(0.0430294 -0.340711 0)
(0.00820419 -0.231248 0)
(-0.0119226 -0.142798 0)
(-0.00552372 -0.0123313 0)
(0.0481874 -0.0373278 0)
(0.0954361 -0.0654877 0)
(0.134898 -0.0960058 0)
(0.166426 -0.12998 0)
(0.193909 -0.17245 0)
(0.225272 -0.23092 0)
(0.268267 -0.310846 0)
(0.325297 -0.411568 0)
(0.391419 -0.525514 0)
(0.456662 -0.64062 0)
(0.510796 -0.744533 0)
(0.547157 -0.828553 0)
(0.564109 -0.889847 0)
(0.564309 -0.931039 0)
(0.552574 -0.957503 0)
(0.533782 -0.974345 0)
(0.510917 -0.984421 0)
(0.484916 -0.989145 0)
(0.455628 -0.984641 0)
(0.422105 -0.967638 0)
(0.383436 -0.93425 0)
(0.33943 -0.881615 0)
(0.290766 -0.808861 0)
(0.239021 -0.718827 0)
(0.186068 -0.614283 0)
(0.134052 -0.501156 0)
(0.0853295 -0.386645 0)
(0.0418746 -0.278283 0)
(0.00516456 -0.183163 0)
(-0.0233118 -0.105257 0)
(-0.047875 -0.0439223 0)
(-0.0753236 0.00300895 0)
(-0.0969351 0.00799502 0)
(0.0157697 -0.046314 0)
(0.0723136 -0.0755943 0)
(0.122041 -0.108618 0)
(0.164835 -0.145624 0)
(0.20318 -0.18974 0)
(0.242952 -0.246875 0)
(0.290972 -0.322529 0)
(0.350587 -0.417523 0)
(0.418538 -0.525862 0)
(0.485813 -0.636233 0)
(0.541942 -0.736248 0)
(0.579672 -0.81694 0)
(0.597168 -0.875226 0)
(0.597369 -0.913555 0)
(0.585383 -0.936944 0)
(0.565815 -0.949306 0)
(0.541108 -0.954342 0)
(0.511553 -0.94787 0)
(0.476093 -0.927253 0)
(0.433531 -0.88851 0)
(0.38338 -0.828908 0)
(0.326268 -0.748161 0)
(0.264362 -0.649185 0)
(0.200929 -0.537839 0)
(0.13958 -0.421967 0)
(0.0839207 -0.309871 0)
(0.0372651 -0.210187 0)
(0.00155884 -0.129652 0)
(-0.0235798 -0.070024 0)
(-0.0400435 -0.0275739 0)
(-0.0512415 0.000954368 0)
(-0.0615972 0.01933 0)
(-0.0759422 0.0256498 0)
(-0.0739331 0.0133102 0)
(0.0405113 -0.0803559 0)
(0.100494 -0.114484 0)
(0.154115 -0.153615 0)
(0.203003 -0.199491 0)
(0.251521 -0.256224 0)
(0.305513 -0.328527 0)
(0.368618 -0.418111 0)
(0.438989 -0.520738 0)
(0.508864 -0.626447 0)
(0.567976 -0.723168 0)
(0.608448 -0.801584 0)
(0.627735 -0.858088 0)
(0.628396 -0.894334 0)
(0.615984 -0.914543 0)
(0.594863 -0.922563 0)
(0.566863 -0.918579 0)
(0.531616 -0.899577 0)
(0.487929 -0.862199 0)
(0.435066 -0.803378 0)
(0.373405 -0.722872 0)
(0.305134 -0.623669 0)
(0.233958 -0.512101 0)
(0.164586 -0.396713 0)
(0.101717 -0.286559 0)
(0.0491048 -0.189531 0)
(0.00899232 -0.111183 0)
(-0.0188108 -0.0529492 0)
(-0.0370052 -0.0111776 0)
(-0.048416 0.0169591 0)
(-0.0547836 0.0335286 0)
(-0.0586102 0.0403696 0)
(-0.0627469 0.039635 0)
(-0.0670687 0.0302916 0)
(-0.0559041 0.00933957 0)
(0.0694074 -0.115066 0)
(0.133916 -0.154991 0)
(0.193471 -0.201915 0)
(0.251124 -0.258601 0)
(0.311662 -0.328511 0)
(0.378974 -0.413458 0)
(0.452366 -0.510737 0)
(0.525464 -0.61208 0)
(0.588467 -0.70616 0)
(0.632859 -0.7832 0)
(0.655187 -0.838681 0)
(0.657408 -0.873277 0)
(0.64471 -0.889225 0)
(0.62123 -0.893543 0)
(0.5885 -0.880524 0)
(0.546388 -0.849698 0)
(0.49385 -0.797245 0)
(0.430969 -0.722601 0)
(0.359633 -0.627863 0)
(0.283444 -0.518968 0)
(0.207308 -0.404303 0)
(0.136453 -0.293147 0)
(0.0753815 -0.193589 0)
(0.0268708 -0.110919 0)
(-0.00856975 -0.047122 0)
(-0.0327722 -7.02268e-06 0)
(-0.0480012 0.0330445 0)
(-0.0563807 0.0538756 0)
(-0.0592488 0.0650968 0)
(-0.0586682 0.0677719 0)
(-0.0564151 0.0629358 0)
(-0.0542855 0.0523775 0)
(-0.0517477 0.0354274 0)
(-0.0379302 0.00953075 0)
(0.10313 -0.151031 0)
(0.17347 -0.197998 0)
(0.24116 -0.25411 0)
(0.309504 -0.322143 0)
(0.381649 -0.40344 0)
(0.458557 -0.496021 0)
(0.535313 -0.593374 0)
(0.602963 -0.685334 0)
(0.652547 -0.761971 0)
(0.679191 -0.817478 0)
(0.683862 -0.851356 0)
(0.671286 -0.865764 0)
(0.645553 -0.864578 0)
(0.607779 -0.843776 0)
(0.558183 -0.802331 0)
(0.496962 -0.738259 0)
(0.425185 -0.652183 0)
(0.346123 -0.548883 0)
(0.264612 -0.435947 0)
(0.186148 -0.322614 0)
(0.115756 -0.217475 0)
(0.0570219 -0.126793 0)
(0.011462 -0.0535938 0)
(-0.0216263 0.00232697 0)
(-0.0442845 0.0434989 0)
(-0.0578382 0.0717736 0)
(-0.0637901 0.0884393 0)
(-0.0638079 0.0960191 0)
(-0.0605759 0.0958513 0)
(-0.0539915 0.0889744 0)
(-0.0464065 0.0766995 0)
(-0.0393421 0.0601954 0)
(-0.0316838 0.0385805 0)
(-0.0188797 0.00884242 0)
(0.142523 -0.188233 0)
(0.220354 -0.243755 0)
(0.297644 -0.31002 0)
(0.37667 -0.387986 0)
(0.457621 -0.47652 0)
(0.538379 -0.570429 0)
(0.611166 -0.660654 0)
(0.667018 -0.737487 0)
(0.699655 -0.794243 0)
(0.707748 -0.828806 0)
(0.696144 -0.842316 0)
(0.66827 -0.837096 0)
(0.625863 -0.810326 0)
(0.569398 -0.760811 0)
(0.500109 -0.688321 0)
(0.420575 -0.595049 0)
(0.335194 -0.487199 0)
(0.249729 -0.373443 0)
(0.169836 -0.262809 0)
(0.100005 -0.162765 0)
(0.0428504 -0.0778245 0)
(-0.00107706 -0.00960381 0)
(-0.0328274 0.0424545 0)
(-0.0541867 0.0801948 0)
(-0.0667886 0.105052 0)
(-0.0708965 0.119296 0)
(-0.0689678 0.123677 0)
(-0.0630417 0.121003 0)
(-0.0539994 0.112626 0)
(-0.0432022 0.0994467 0)
(-0.0319854 0.0824547 0)
(-0.0210891 0.0626688 0)
(-0.00963753 0.038929 0)
(-2.54065e-06 0.00797325 0)
(0.189071 -0.227283 0)
(0.275549 -0.292034 0)
(0.362276 -0.367734 0)
(0.449474 -0.452494 0)
(0.534722 -0.54301 0)
(0.613105 -0.631932 0)
(0.675808 -0.709275 0)
(0.715247 -0.767791 0)
(0.728487 -0.80471 0)
(0.719892 -0.819217 0)
(0.690534 -0.811559 0)
(0.644222 -0.780968 0)
(0.581821 -0.726432 0)
(0.505544 -0.64877 0)
(0.41925 -0.551792 0)
(0.328406 -0.4425 0)
(0.23934 -0.329866 0)
(0.157769 -0.222382 0)
(0.0876422 -0.126333 0)
(0.0308245 -0.0449833 0)
(-0.0126948 0.0209571 0)
(-0.0436015 0.0716172 0)
(-0.063621 0.107101 0)
(-0.0744254 0.130159 0)
(-0.0774405 0.140935 0)
(-0.0739346 0.142716 0)
(-0.0656824 0.138585 0)
(-0.0551946 0.129024 0)
(-0.0427073 0.115656 0)
(-0.0290755 0.0992525 0)
(-0.0152779 0.0803879 0)
(-0.00155471 0.059704 0)
(0.0125902 0.0358835 0)
(0.0180996 0.00697508 0)
(0.243171 -0.267931 0)
(0.338256 -0.341366 0)
(0.43262 -0.42403 0)
(0.524035 -0.511426 0)
(0.608304 -0.598524 0)
(0.678214 -0.677009 0)
(0.725165 -0.738236 0)
(0.745148 -0.778326 0)
(0.745323 -0.795411 0)
(0.712733 -0.788116 0)
(0.664112 -0.75572 0)
(0.597092 -0.699116 0)
(0.515044 -0.619424 0)
(0.422938 -0.521643 0)
(0.32715 -0.413407 0)
(0.234398 -0.303531 0)
(0.150371 -0.199842 0)
(0.0786955 -0.107626 0)
(0.0207717 -0.0292433 0)
(-0.0236644 0.0351496 0)
(-0.0549583 0.084988 0)
(-0.0735173 0.120164 0)
(-0.0822838 0.14059 0)
(-0.0829156 0.150818 0)
(-0.0781521 0.150878 0)
(-0.0693177 0.145021 0)
(-0.0575062 0.133974 0)
(-0.0439795 0.120563 0)
(-0.029343 0.10556 0)
(-0.0140213 0.0890359 0)
(0.0015062 0.0710123 0)
(0.0173097 0.0516503 0)
(0.033221 0.0297689 0)
(0.0343705 0.00650264 0)
(0.304136 -0.308995 0)
(0.406536 -0.389249 0)
(0.505308 -0.475214 0)
(0.596134 -0.560718 0)
(0.673717 -0.639762 0)
(0.729877 -0.704696 0)
(0.759247 -0.749348 0)
(0.765214 -0.770311 0)
(0.736909 -0.765732 0)
(0.686062 -0.733796 0)
(0.616286 -0.677838 0)
(0.529892 -0.598973 0)
(0.432995 -0.502862 0)
(0.332759 -0.397697 0)
(0.236241 -0.292111 0)
(0.149073 -0.193306 0)
(0.0746812 -0.105801 0)
(0.0142649 -0.0313801 0)
(-0.0325528 0.0302568 0)
(-0.0653158 0.078297 0)
(-0.0845639 0.112031 0)
(-0.0913326 0.132606 0)
(-0.0896632 0.144127 0)
(-0.0836771 0.142467 0)
(-0.0725358 0.134973 0)
(-0.0596673 0.123523 0)
(-0.0460439 0.110663 0)
(-0.0317753 0.0977399 0)
(-0.0165635 0.0847029 0)
(-0.000358842 0.0708932 0)
(0.0164682 0.0558829 0)
(0.0339162 0.0395128 0)
(0.0507823 0.0211081 0)
(0.0474935 0.00409913 0)
(0.370501 -0.348496 0)
(0.477657 -0.432772 0)
(0.576731 -0.518128 0)
(0.662331 -0.597942 0)
(0.729201 -0.666129 0)
(0.770016 -0.716084 0)
(0.782682 -0.742324 0)
(0.759843 -0.743148 0)
(0.71178 -0.714463 0)
(0.639934 -0.660982 0)
(0.550867 -0.585482 0)
(0.450296 -0.493053 0)
(0.346222 -0.392505 0)
(0.246097 -0.292452 0)
(0.155554 -0.199732 0)
(0.0778677 -0.11838 0)
(0.0141703 -0.0498252 0)
(-0.0358476 0.00620579 0)
(-0.0718449 0.0495361 0)
(-0.092798 0.0798918 0)
(-0.101289 0.0998972 0)
(-0.0992917 0.108107 0)
(-0.0903303 0.109685 0)
(-0.0767392 0.104912 0)
(-0.062687 0.0961843 0)
(-0.0492385 0.0859368 0)
(-0.0360446 0.0759991 0)
(-0.0222071 0.0669332 0)
(-0.00684725 0.0581263 0)
(0.0102099 0.0485135 0)
(0.0283683 0.0374924 0)
(0.0472988 0.0248574 0)
(0.0640553 0.0108191 0)
(0.0536891 -0.000423912 0)
(0.440232 -0.384251 0)
(0.548899 -0.469432 0)
(0.644263 -0.550644 0)
(0.720635 -0.621815 0)
(0.772669 -0.676971 0)
(0.793271 -0.709535 0)
(0.782414 -0.718141 0)
(0.739259 -0.695925 0)
(0.668947 -0.647338 0)
(0.578167 -0.576674 0)
(0.475245 -0.489661 0)
(0.368037 -0.394725 0)
(0.264659 -0.300949 0)
(0.170942 -0.215111 0)
(0.0901146 -0.141163 0)
(0.0232596 -0.0804365 0)
(-0.0299512 -0.0328267 0)
(-0.0693978 0.00202274 0)
(-0.094818 0.0255148 0)
(-0.107187 0.0407037 0)
(-0.108413 0.0503204 0)
(-0.100499 0.0558684 0)
(-0.0869807 0.0574182 0)
(-0.0711862 0.0553914 0)
(-0.0559412 0.0507787 0)
(-0.0425006 0.0451484 0)
(-0.0300479 0.0399359 0)
(-0.0166675 0.0354848 0)
(-0.000942533 0.0310686 0)
(0.0172224 0.0255558 0)
(0.0368518 0.0183248 0)
(0.0570363 0.00948903 0)
(0.0724849 0.000784103 0)
(0.0548419 -0.0049478 0)
(0.511026 -0.414229 0)
(0.617401 -0.497207 0)
(0.704705 -0.571315 0)
(0.767997 -0.631606 0)
(0.802062 -0.672627 0)
(0.806354 -0.688889 0)
(0.768108 -0.676473 0)
(0.701868 -0.634794 0)
(0.611988 -0.570702 0)
(0.507642 -0.49004 0)
(0.398198 -0.401484 0)
(0.291978 -0.314112 0)
(0.195451 -0.235258 0)
(0.11202 -0.169157 0)
(0.0427766 -0.117417 0)
(-0.0126286 -0.0799911 0)
(-0.0549418 -0.0561102 0)
(-0.0852326 -0.0423016 0)
(-0.104914 -0.0332577 0)
(-0.114408 -0.0246557 0)
(-0.113851 -0.0153314 0)
(-0.104244 -0.00587766 0)
(-0.0884568 0.00222373 0)
(-0.0703791 0.00753861 0)
(-0.0537179 0.00966087 0)
(-0.0400302 0.00949832 0)
(-0.0279446 0.0085621 0)
(-0.0145863 0.00770558 0)
(0.0018729 0.00661256 0)
(0.0212795 0.00421871 0)
(0.0423322 3.72987e-05 0)
(0.063255 -0.00520052 0)
(0.076008 -0.00819324 0)
(0.0505078 -0.0078825 0)
(0.580513 -0.436732 0)
(0.68094 -0.514679 0)
(0.7573 -0.57982 0)
(0.805734 -0.62781 0)
(0.820093 -0.654165 0)
(0.797964 -0.653013 0)
(0.737684 -0.621101 0)
(0.651271 -0.565233 0)
(0.547293 -0.49207 0)
(0.436235 -0.41018 0)
(0.327616 -0.329083 0)
(0.228516 -0.256568 0)
(0.143 -0.197684 0)
(0.0723327 -0.154632 0)
(0.0160573 -0.127625 0)
(-0.027737 -0.115315 0)
(-0.0622257 -0.112307 0)
(-0.0901584 -0.110806 0)
(-0.11108 -0.10588 0)
(-0.122758 -0.0963817 0)
(-0.123715 -0.0829669 0)
(-0.114264 -0.0669685 0)
(-0.0970574 -0.0504533 0)
(-0.0765034 -0.0359469 0)
(-0.057223 -0.0255196 0)
(-0.0416952 -0.019648 0)
(-0.0287277 -0.01696 0)
(-0.0147618 -0.0154815 0)
(0.00263079 -0.0144551 0)
(0.0232149 -0.0146953 0)
(0.0453832 -0.0164327 0)
(0.0655832 -0.018065 0)
(0.0729981 -0.0153395 0)
(0.0417609 -0.00726376 0)
(0.64665 -0.450655 0)
(0.737668 -0.521316 0)
(0.799487 -0.576343 0)
(0.828868 -0.61193 0)
(0.825619 -0.623115 0)
(0.775927 -0.604267 0)
(0.695133 -0.557989 0)
(0.593442 -0.493616 0)
(0.481792 -0.418889 0)
(0.370922 -0.343702 0)
(0.269229 -0.27658 0)
(0.18167 -0.223437 0)
(0.110104 -0.187437 0)
(0.0539328 -0.169182 0)
(0.010198 -0.16669 0)
(-0.0265329 -0.173597 0)
(-0.0608278 -0.180104 0)
(-0.0922592 -0.181414 0)
(-0.117585 -0.176882 0)
(-0.133596 -0.166416 0)
(-0.13817 -0.150059 0)
(-0.130909 -0.12854 0)
(-0.113698 -0.103817 0)
(-0.0907043 -0.0792127 0)
(-0.0672912 -0.058626 0)
(-0.0475592 -0.0447814 0)
(-0.0317981 -0.0375557 0)
(-0.0164848 -0.03411 0)
(0.00187789 -0.0317415 0)
(0.0234613 -0.0302111 0)
(0.0459281 -0.0293261 0)
(0.062928 -0.0266511 0)
(0.0654644 -0.0187832 0)
(0.0317172 -0.00533047 0)
(0.707692 -0.455704 0)
(0.786544 -0.517642 0)
(0.833042 -0.561937 0)
(0.845491 -0.58525 0)
(0.814638 -0.581612 0)
(0.742751 -0.547472 0)
(0.645387 -0.492741 0)
(0.53438 -0.426052 0)
(0.421523 -0.356615 0)
(0.316785 -0.293879 0)
(0.226606 -0.244699 0)
(0.153773 -0.213257 0)
(0.0978969 -0.200871 0)
(0.05518 -0.205198 0)
(0.018466 -0.219115 0)
(-0.0187774 -0.232592 0)
(-0.0571158 -0.240711 0)
(-0.09328 -0.243592 0)
(-0.123769 -0.240938 0)
(-0.14533 -0.231773 0)
(-0.155424 -0.215231 0)
(-0.152779 -0.191103 0)
(-0.137977 -0.16055 0)
(-0.113969 -0.126723 0)
(-0.0859277 -0.0946453 0)
(-0.059523 -0.069575 0)
(-0.0379454 -0.0543817 0)
(-0.0196008 -0.047338 0)
(-0.000184188 -0.0436511 0)
(0.0216498 -0.0403554 0)
(0.0429872 -0.0365033 0)
(0.0571524 -0.0297292 0)
(0.0537176 -0.0181666 0)
(0.0222438 -0.00333975 0)
(0.762265 -0.452071 0)
(0.826677 -0.505087 0)
(0.855412 -0.538975 0)
(0.847547 -0.549577 0)
(0.792221 -0.531467 0)
(0.702162 -0.487891 0)
(0.593463 -0.430179 0)
(0.47921 -0.366971 0)
(0.370882 -0.307941 0)
(0.276901 -0.261107 0)
(0.201546 -0.231625 0)
(0.145015 -0.221665 0)
(0.10336 -0.229276 0)
(0.0683049 -0.247082 0)
(0.0313443 -0.265215 0)
(-0.00971314 -0.27849 0)
(-0.0519342 -0.287549 0)
(-0.0922783 -0.292817 0)
(-0.127828 -0.293392 0)
(-0.155509 -0.287669 0)
(-0.172515 -0.274055 0)
(-0.176812 -0.25131 0)
(-0.167553 -0.219323 0)
(-0.145746 -0.179914 0)
(-0.11504 -0.137676 0)
(-0.0812935 -0.09922 0)
(-0.0505169 -0.0708938 0)
(-0.0255402 -0.0552337 0)
(-0.00384793 -0.048278 0)
(0.0177602 -0.0433024 0)
(0.0371687 -0.0370561 0)
(0.0477603 -0.0276729 0)
(0.0411562 -0.0145636 0)
(0.0146554 -0.00163235 0)
(0.81017 -0.440392 0)
(0.859236 -0.484197 0)
(0.86983 -0.507986 0)
(0.83877 -0.507355 0)
(0.762304 -0.477783 0)
(0.658422 -0.429964 0)
(0.543891 -0.373943 0)
(0.431853 -0.31872 0)
(0.33269 -0.273179 0)
(0.252796 -0.243625 0)
(0.193414 -0.23344 0)
(0.151588 -0.240752 0)
(0.118741 -0.259791 0)
(0.0843411 -0.280256 0)
(0.0439085 -0.296267 0)
(-0.000317816 -0.308429 0)
(-0.0451712 -0.318261 0)
(-0.0885996 -0.325703 0)
(-0.128392 -0.329878 0)
(-0.161883 -0.328952 0)
(-0.186276 -0.32074 0)
(-0.198983 -0.30304 0)
(-0.19805 -0.274627 0)
(-0.18253 -0.23542 0)
(-0.153615 -0.187982 0)
(-0.11551 -0.138274 0)
(-0.0748284 -0.094145 0)
(-0.0387103 -0.0629902 0)
(-0.0104837 -0.0467289 0)
(0.0120756 -0.0388701 0)
(0.0297415 -0.0312503 0)
(0.0377408 -0.0213208 0)
(0.0303918 -0.00947309 0)
(0.00953907 -0.000379046 0)
(0.850153 -0.422092 0)
(0.882286 -0.457178 0)
(0.877827 -0.471636 0)
(0.821252 -0.460382 0)
(0.728084 -0.424421 0)
(0.615354 -0.376632 0)
(0.500053 -0.326028 0)
(0.394635 -0.2815 0)
(0.307806 -0.250376 0)
(0.243313 -0.237783 0)
(0.199091 -0.242613 0)
(0.167007 -0.260864 0)
(0.136052 -0.282136 0)
(0.0985097 -0.29942 0)
(0.0549739 -0.312353 0)
(0.00894749 -0.32332 0)
(-0.0373966 -0.333183 0)
(-0.0826115 -0.341803 0)
(-0.125181 -0.348236 0)
(-0.16324 -0.352315 0)