/*--------------------------------*- C++ -*----------------------------------*\
| =========                 |                                                 |
| \\      /  F ield         | OpenFOAM: The Open Source CFD Toolbox           |
|  \\    /   O peration     | Version:  v2012                                 |
|   \\  /    A nd           | Website:  www.openfoam.com                      |
|    \\/     M anipulation  |                                                 |
\*---------------------------------------------------------------------------*/
FoamFile
{
    version     2.0;
    format      ascii;
    class       volScalarField;
    location    "984";
    object      age;
}
// * * * * * * * * * * * * * * * * * * * * * * * * * * * * * * * * * * * * * //

dimensions      [0 0 1 0 0 0 0];


internalField   nonuniform List<scalar> 
6066
(
0.830225
0.750165
0.679801
0.616486
0.558763
0.505516
0.455991
0.409672
0.36619
0.32529
0.286721
0.250239
0.215626
0.182696
0.151292
0.121277
0.0925232
0.0649083
0.0383214
0.0126516
0.55415
0.511123
0.473285
0.438733
0.406683
0.376362
0.346915
0.317335
0.289791
0.263042
0.236809
0.211039
0.185637
0.160533
0.135655
0.110943
0.0863377
0.0617756
0.0371759
0.0124511
0.458878
0.433832
0.410225
0.386913
0.363916
0.341064
0.318295
0.295596
0.273003
0.250292
0.22744
0.204419
0.181208
0.157791
0.134159
0.110302
0.08621
0.0618741
0.0372947
0.0124819
0.445648
0.424724
0.403675
0.382405
0.360952
0.339306
0.317465
0.295418
0.27315
0.25066
0.227942
0.20499
0.181799
0.158362
0.134671
0.110724
0.0865183
0.0620625
0.0373736
0.0124913
0.447011
0.425974
0.404745
0.383346
0.361776
0.340031
0.318103
0.295983
0.273659
0.251123
0.228364
0.205372
0.182138
0.158653
0.134909
0.110904
0.0866403
0.06213
0.0373976
0.0124933
0.447008
0.425818
0.40453
0.38312
0.361563
0.339843
0.317945
0.295854
0.273558
0.251046
0.228307
0.205331
0.18211
0.158634
0.134898
0.110898
0.0866371
0.0621287
0.0373973
0.0124933
0.446083
0.424986
0.403776
0.382419
0.360896
0.339197
0.317311
0.295234
0.272973
0.250504
0.227815
0.204894
0.18173
0.158314
0.134641
0.110706
0.0865092
0.0620587
0.0373725
0.0124912
0.445862
0.42509
0.404003
0.382621
0.360968
0.33908
0.317003
0.2948
0.27245
0.249916
0.227184
0.204244
0.181089
0.157714
0.134113
0.110277
0.0861972
0.0618689
0.0372931
0.0124818
0.476905
0.456481
0.434923
0.412096
0.388633
0.364068
0.337941
0.311683
0.286254
0.260858
0.235498
0.21027
0.185201
0.160295
0.135532
0.110885
0.0863139
0.0617681
0.0371746
0.0124511
0.673888
0.637732
0.606042
0.562927
0.523639
0.481701
0.440407
0.399638
0.35991
0.321462
0.284449
0.248924
0.214888
0.182299
0.15109
0.121182
0.0924829
0.064894
0.0383179
0.0126511
54.9917
55.3663
55.4854
55.5818
55.9931
56.5234
56.8449
57.6097
58.4693
59.5106
60.5028
46.9583
3.78266
2.98065
2.26048
1.87335
1.59637
1.39354
1.23574
1.10874
1.00352
0.914349
39.8899
40.3656
40.9107
41.4386
42.291
45.9533
53.9255
48.1523
31.2944
18.7891
10.1477
4.48625
1.43485
1.49164
1.19412
1.05639
0.934649
0.841812
0.76514
0.701165
0.646594
0.599367
36.1518
36.707
39.1434
40.9446
38.0429
30.4163
20.5036
10.3924
4.23374
1.75649
1.15218
0.998434
0.858519
0.800143
0.721183
0.671066
0.62669
0.590744
0.559851
0.53277
0.508189
0.483925
36.53
36.1933
32.3818
23.6656
13.8693
6.39399
2.37635
0.998844
0.902793
0.81196
0.75077
0.707826
0.67095
0.641301
0.612633
0.586786
0.563462
0.54229
0.522069
0.502609
0.483655
0.465152
29.8215
21.2106
11.9641
5.37896
1.94742
0.951417
0.870354
0.786153
0.747825
0.710198
0.680144
0.654315
0.630917
0.609378
0.589126
0.570351
0.552734
0.535362
0.518031
0.500749
0.483471
0.466153
12.4112
5.49587
1.94903
0.957967
0.880507
0.801447
0.765167
0.731267
0.705548
0.68173
0.660891
0.641603
0.623257
0.60554
0.588274
0.571132
0.553922
0.536559
0.519108
0.50159
0.484021
0.466404
2.36661
0.985305
0.912356
0.828651
0.794019
0.761043
0.737004
0.716024
0.696059
0.677639
0.659922
0.642464
0.625047
0.60753
0.589859
0.57203
0.554135
0.536256
0.518438
0.500693
0.483022
0.465407
0.926642
0.868872
0.827991
0.795505
0.772601
0.752505
0.733585
0.715629
0.6976
0.679777
0.661635
0.643242
0.624659
0.60602
0.587486
0.569212
0.551274
0.533622
0.516204
0.498961
0.481831
0.464732
0.865793
0.835774
0.811888
0.792773
0.77355
0.754728
0.735189
0.71575
0.696244
0.676855
0.657722
0.639143
0.621385
0.604825
0.590013
0.576807
0.563237
0.54932
0.535275
0.521413
0.507428
0.493082
0.851156
0.827856
0.806076
0.784176
0.761717
0.740901
0.725088
0.710955
0.696976
0.683632
0.671042
0.659646
0.651238
0.646032
0.643919
0.644525
0.647826
0.653692
0.66129
0.669091
0.674901
0.676091
82.5412
69.5891
63.6823
57.0479
51.831
48.7424
47.8208
48.757
50.0553
51.7592
53.4109
56.2453
56.4873
55.4698
54.3818
53.7153
53.7072
54.3989
79.908
66.0078
58.59
46.6688
38.8178
35.359
34.3482
34.7965
36.2521
38.4531
40.6553
42.0802
42.1005
40.9362
39.7694
39.0782
38.9535
39.3302
81.6594
75.4841
50.9767
36.4884
31.6544
31.2145
31.4401
31.7213
32.0753
32.6458
33.4278
34.0241
34.3193
34.4267
34.5789
34.8456
35.1964
35.6505
85.0042
62.7643
37.9688
30.7835
30.7515
31.365
32.0316
32.2907
32.3834
32.5128
32.6743
32.9748
33.2984
33.6607
34.0602
34.4987
34.911
35.928
88.8835
45.6034
30.4783
30.4835
32.1497
34.498
36.07
36.3655
35.6093
34.5849
33.9056
33.7041
33.8967
34.3391
34.8586
35.3059
35.7035
34.7765
45.9022
30.9245
29.7375
32.2402
36.713
40.7865
42.9976
43.0139
41.3657
39.0589
37.1173
36.0163
35.7502
35.7955
36.5477
36.1332
32.5892
23.279
28.697
28.7869
30.8319
36.6285
43.7179
49.3853
51.9321
51.2299
48.2624
44.4539
41.0851
38.8723
37.4553
37.049
36.0376
30.4576
19.7895
8.4211
27.8698
28.8351
33.6328
42.8349
52.7267
59.8285
62.2868
60.2318
55.3143
49.5754
44.5738
40.7195
38.824
36.2495
29.0509
17.7814
7.24536
1.84332
27.6357
29.5869
37.8498
50.7125
63.0696
70.9877
72.6654
68.6189
61.242
53.2808
46.304
41.4584
37.1611
28.6976
17.1216
6.79109
1.78315
0.924997
27.4634
31.0705
43.3114
59.3717
73.383
81.2986
81.3315
74.7594
64.7879
54.4925
46.1616
39.2702
29.7281
17.46
6.97854
1.84312
0.932611
0.878922
0.843702
0.822526
0.805878
0.795541
0.787894
0.794864
0.824785
0.893121
1.02853
1.27366
1.69429
2.40188
3.56821
5.46247
8.48928
13.0735
19.0088
25.9616
33.9854
42.7355
50.6785
55.7552
0.851987
0.84368
0.850849
0.885178
0.976923
1.1698
1.52962
2.18195
3.39234
5.65929
9.74826
15.8376
23.8742
33.7099
44.6584
55.3941
63.6693
70.1876
74.9171
76.8318
80.6
85.7133
0.895629
0.945281
1.0748
1.34561
1.87016
2.92245
5.11072
9.36776
15.9465
25.0501
36.1121
47.5938
58.1984
66.056
71.0625
73.5137
73.6536
73.6448
73.6128
74.0166
76.7551
86.0842
1.08853
1.36394
1.92589
3.19486
6.07795
11.2637
19.2492
29.8274
41.7279
53.8631
63.977
69.874
73.0336
73.5701
73.3395
73.0789
73.056
73.1736
73.4714
74.6702
79.3519
87.8396
1.74591
2.93447
5.78675
11.0408
19.2315
29.9008
42.3472
54.8395
65.1263
71.0409
73.7284
73.4757
73.0808
72.7765
72.6445
72.6933
72.9057
73.3476
74.0774
76.4818
81.6742
89.3031
4.61632
9.25041
16.7403
26.845
39.0635
51.7915
63.0283
70.2467
73.5549
73.3944
72.9935
72.5633
72.3283
72.356
72.4965
72.8898
73.3321
74.5033
76.9339
80.862
85.6252
91.1152
12.8532
21.8996
33.2584
45.8194
57.8793
67.2625
71.981
73.2083
72.8832
72.3567
72.0074
71.9627
72.1707
72.433
73.3452
75.4723
78.6937
82.6606
86.5295
89.5104
91.1728
93.1278
26.1817
38.319
50.8103
61.9174
69.5621
72.8955
72.6798
72.1176
71.6903
71.5563
71.7361
72.475
74.8048
79.0169
84.9949
91.6635
97.4226
101.193
102.475
101.142
97.5125
95.1684
42.348
54.8895
65.0138
70.6839
72.4757
72.0409
71.4348
71.2085
71.3007
72.4186
75.7915
82.2652
91.9454
103.225
114.125
122.541
126.896
126.674
121.993
113.678
103.557
96.9007
59.058
68.5919
72.6157
72.4833
71.582
70.9585
70.7535
71.1288
73.1486
79.7436
91.5969
107.672
125.966
143.574
157.534
164.869
164.571
156.548
142.489
125.126
108.198
98.3813
72.5686
74.9958
73.8352
71.9432
70.7073
70.5216
70.6507
72.0082
79.2865
94.9245
116.945
142.818
168.859
190.825
205.537
209.927
202.314
183.985
159.197
133.105
110.85
99.2153
78.2856
76.7795
74.7815
72.1201
70.459
70.3985
70.6101
73.3507
86.3881
108.548
137.554
170.197
200.718
224.102
236.36
236.424
224.797
199.871
167.605
136.023
111.367
99.7556
83.0485
81.3912
78.113
74.3588
71.3612
70.2764
70.4093
72.8736
85.0691
107.73
138.655
173.918
206.282
229.867
241.403
242.266
228.657
200.851
166.313
134.024
110.261
100.251
92.4088
90.0323
85.9316
80.6531
75.3146
71.5457
70.1772
70.3629
76.3098
93.6846
120.81
154.564
187.912
213.128
227.546
229.004
215.33
189.498
157.794
128.693
108.276
100.782
107.381
105.013
100.327
93.602
85.7431
78.0704
72.5257
70.1054
69.9957
76.985
95.1759
122.717
155.103
182.21
197.997
201.756
192.332
171.701
145.825
122.098
106.313
101.411
129.075
127.164
122.214
114.387
104.43
93.3893
82.7307
74.434
70.0858
69.2121
75.0972
91.2675
117.687
146.263
165.961
172.41
167.861
153.322
133.997
116.121
105.059
102.149
157.464
156.293
151.412
142.876
131.343
117.689
103.098
89.0828
77.5492
70.7461
68.6011
72.4041
85.9306
110.103
134.736
147.66
146.92
138.242
124.626
111.866
104.818
103.546
191.794
191.614
187.101
178.209
165.541
149.878
132.252
113.904
96.3447
81.4794
71.6752
67.9853
70.1311
81.0313
103.135
124.739
132.339
127.517
118.681
109.684
105.36
105.568
231.017
232.042
228.143
219.186
205.743
188.546
168.543
146.847
124.733
103.71
85.6052
72.7349
67.5784
68.3369
77.551
98.4966
118.241
121.404
115.685
109.183
106.016
107.786
274.104
276.522
273.454
264.697
250.77
232.344
210.335
185.836
160.048
134.269
109.974
88.9076
73.4613
66.9349
66.9046
75.9112
97.187
116.105
115.036
109.787
106.961
109.481
319.854
323.798
321.752
313.469
299.405
280.157
256.56
229.641
200.59
170.718
141.424
114.162
90.654
73.3266
65.838
65.8055
76.2867
99.1397
114.696
110.56
107.932
110.768
366.954
372.522
371.657
364.033
350.081
330.349
305.612
276.809
245.036
211.546
177.746
145.165
115.381
90.1847
71.9732
64.3669
65.4367
79.415
105.012
112.329
109.036
111.856
414.562
421.921
422.383
415.543
401.816
381.749
356.109
325.794
291.816
255.323
217.642
180.275
144.856
113.134
87.0849
69.3204
62.9922
66.3022
86.783
111.25
109.807
112.88
462.134
471.528
473.506
467.563
454.103
433.706
407.2
375.524
339.673
300.704
259.793
218.323
177.896
140.274
107.341
81.373
65.7557
61.7445
69.7911
98.8014
112.144
114.077
509.248
521.009
524.761
519.859
506.686
485.879
458.382
425.259
387.588
346.411
302.781
257.885
213.178
170.422
131.564
98.6194
74.0443
62.1334
61.318
79.6195
114.803
115.21
555.442
569.986
575.85
572.2
559.38
538.085
509.418
474.636
434.986
391.604
345.511
297.722
249.43
202.209
158.052
119.178
87.8478
66.7202
59.4927
64.7663
102.435
116.816
600.052
617.854
626.252
624.161
611.833
590.027
560.036
523.367
481.503
435.752
387.209
336.816
285.536
234.625
185.848
141.468
103.939
75.7682
60.5526
58.1101
77.9816
119.143
642.159
663.736
675.174
675.045
663.446
641.183
609.779
571.047
526.765
478.465
427.372
374.449
320.531
266.578
214.012
164.918
121.915
87.7285
64.9559
56.9686
64.6103
120.912
680.557
706.426
721.475
723.82
713.299
690.736
657.926
617.051
570.241
519.291
465.58
410.142
353.767
297.216
241.558
188.526
140.635
100.858
72.0456
57.419
55.7442
84.0025
713.763
744.366
763.629
769.067
760.1
737.52
703.449
660.498
611.194
557.631
501.352
443.469
384.781
325.939
267.74
211.543
159.579
114.874
80.7872
60.0495
53.4761
53.0777
740.097
775.693
799.733
808.966
802.136
779.968
744.959
700.226
648.676
592.731
534.106
473.982
413.185
352.317
292
233.268
178.001
129.013
89.8508
64.0977
53.7481
52.0512
757.831
798.279
827.396
841.092
837.183
816.103
780.711
734.795
681.548
623.701
563.167
501.183
438.604
376.024
313.967
253.219
195.342
142.919
99.3706
68.7068
54.4409
51.7171
765.52
810.056
843.971
862.362
862.119
843.518
808.666
762.553
708.532
649.575
587.806
524.538
460.659
396.774
333.377
271.091
211.192
156.031
108.885
73.8318
55.4521
51.4572
762.304
809.636
847.161
869.654
872.32
859.421
826.663
781.798
728.329
669.381
607.305
543.523
478.979
414.31
350.026
286.67
225.3
168.02
117.993
79.1943
56.7765
51.2618
748.307
797.027
836.57
862.41
872.053
861.361
832.818
791.056
739.786
682.254
621.022
557.665
493.227
428.405
363.756
299.811
237.488
178.669
126.417
84.5618
58.3904
51.1078
724.515
773.257
813.505
841.494
854.245
848.83
826.223
789.458
742.117
687.551
628.456
566.588
503.131
438.872
374.447
310.422
247.656
187.863
133.965
89.7091
60.2573
50.983
692.484
740.108
780.089
809.279
824.677
824.22
807.736
777.04
735.072
684.954
629.303
570.043
508.498
445.579
382.018
318.452
255.74
195.498
140.5
94.4309
62.251
50.8788
653.948
699.696
738.7
768.347
786.011
789.857
779.189
754.928
719.195
674.578
623.509
567.925
509.229
448.45
386.425
323.884
261.728
201.53
145.96
98.6343
64.2234
50.7889
610.498
654.023
691.618
721.176
740.533
747.953
742.577
724.646
695.484
657.037
611.376
560.324
505.319
447.467
387.659
326.719
265.625
205.961
150.324
102.264
66.1078
50.7089
563.444
604.699
640.731
669.875
690.392
700.748
699.995
687.928
665.216
633.174
593.42
547.541
496.915
442.67
385.735
326.979
267.451
208.789
153.564
105.243
67.8457
50.6362
513.834
552.907
587.404
616.003
637.304
650.018
653.194
646.358
629.692
603.962
570.306
529.996
484.261
434.193
380.715
324.693
267.237
210.034
155.674
107.543
69.4026
50.5689
462.522
499.515
532.564
560.59
582.444
597.062
603.527
601.26
590.099
570.364
542.749
508.185
467.685
422.229
372.698
319.929
265.015
209.721
156.657
109.146
70.742
50.5059
410.192
445.194
476.864
504.31
526.568
542.739
551.986
553.673
547.428
533.24
511.442
482.627
447.547
407.015
361.822
312.751
260.85
207.884
156.525
110.046
71.824
50.4462
357.315
390.437
420.788
447.637
470.176
487.62
499.217
504.307
502.419
493.311
477.017
453.826
424.221
388.809
348.25
303.253
254.791
204.586
155.308
110.241
72.5956
50.3887
304.141
335.518
364.631
390.881
413.596
432.084
445.669
453.711
455.678
451.18
440.025
422.243
398.063
367.869
332.16
291.542
246.899
199.86
153.061
109.741
73.0225
50.3326
250.863
280.557
308.501
334.167
356.986
376.339
391.622
402.238
407.62
407.297
400.911
388.28
369.402
344.444
313.726
277.732
237.238
193.746
149.805
108.579
73.0997
50.2768
198.064
225.857
252.535
277.557
300.389
320.465
337.224
350.108
358.549
362.012
360.037
352.276
338.53
318.767
293.124
261.946
225.89
186.297
145.579
106.786
72.8197
50.2207
147.242
172.456
197.391
221.436
244.031
264.614
282.622
297.501
308.683
315.591
317.693
314.519
305.711
291.058
270.529
244.317
212.946
177.576
140.422
104.386
72.2012
50.1632
100.924
122.496
144.745
167.038
188.779
209.377
228.229
244.736
258.301
268.309
274.153
275.281
271.199
261.545
246.128
224.99
198.506
167.642
134.372
101.408
71.2703
50.0553
62.1465
78.983
97.3459
116.708
136.525
156.208
175.124
192.614
208.015
220.651
229.84
234.919
235.312
230.501
220.147
204.137
182.691
156.564
127.457
97.8546
70.0363
49.8585
33.3063
44.8842
58.4193
73.6439
90.2085
107.65
125.397
142.788
159.106
173.607
185.517
194.069
198.539
198.32
192.895
181.993
165.661
144.44
119.725
93.73
68.4907
49.5724
14.5473
21.3703
30.0517
40.591
52.9181
66.8307
81.9697
97.8155
113.707
128.888
142.527
153.753
161.708
165.611
164.831
158.892
147.649
131.409
111.244
89.0595
66.6343
49.1926
4.66766
7.42647
11.9257
18.1459
26.1658
35.9898
47.5179
60.4951
74.4799
88.8537
102.842
115.549
126.022
133.325
136.633
135.311
128.972
117.662
102.104
83.865
64.4594
48.7109
2.34432
2.50979
3.40985
5.45812
9.17008
14.9647
22.6902
32.2193
43.3258
55.6244
68.5464
81.3243
93.0317
102.663
109.231
111.894
110.052
103.449
92.4243
78.1808
61.9552
48.1088
2.20514
2.24567
2.30196
2.36122
2.70479
4.15212
7.29152
12.81
20.5012
30.0011
40.868
52.5142
64.1659
74.8827
83.634
89.4167
91.4086
89.0733
82.3579
72.063
59.1212
47.3607
2.18586
2.20448
2.22954
2.25799
2.30562
2.37378
2.43255
3.55457
6.50101
12.0247
19.9472
29.5546
40.122
50.8048
60.625
68.5338
73.5363
74.8584
72.0896
65.5942
55.9769
46.441
2.21748
2.22159
2.23029
2.23951
2.25806
2.28714
2.31675
2.39372
2.45873
3.58678
6.82513
13.0011
21.344
30.9278
40.7624
49.7833
56.9078
61.158
61.834
58.8778
52.5464
45.3296
2.36261
2.31982
2.29279
2.27917
2.27664
2.28358
2.29231
2.31814
2.34465
2.44146
2.51396
4.19892
8.45199
15.5792
24.3122
33.4534
41.8092
48.2427
51.7891
52.0355
48.8815
44.0827
3.59818
3.1211
2.77984
2.56106
2.43203
2.3648
2.33525
2.32963
2.33483
2.35563
2.39156
2.47616
3.14398
6.07958
12.1152
20.0511
28.5653
36.33
42.125
45.1816
45.0818
42.9162
13.4389
9.59263
6.74161
4.86357
3.6743
2.96154
2.59405
2.43459
2.37653
2.36132
2.36975
2.39503
2.48117
2.70991
4.9781
10.3801
17.8357
25.9154
33.1852
38.559
41.264
41.6724
27.3359
33.3715
49.4659
67.9003
82.5529
89.7073
87.632
77.6916
64.857
53.0241
42.913
31.7532
18.6768
7.58803
2.07147
0.959862
0.897255
0.870482
27.2297
36.1173
55.3798
75.1199
89.3604
95.3195
88.7385
76.1451
61.5944
48.2746
34.9679
20.7389
8.6513
2.39564
1.00863
0.91993
0.895175
0.870085
27.1378
38.8398
60.2475
79.9913
92.5529
94.2367
85.5689
70.9577
55.1374
39.6057
23.9526
10.549
3.02609
1.10416
0.94803
0.920918
0.901368
0.887876
27.0537
41.1506
63.5386
82.1302
93.3738
90.3064
78.9784
62.7856
45.4391
28.3192
13.4273
4.13197
1.28272
0.98954
0.947222
0.930135
0.922778
0.959242
26.9738
42.8161
65.0724
81.5498
88.2229
83.3194
69.7159
52.0298
33.6634
17.2317
5.88152
1.59908
1.05569
0.976295
0.954046
0.947444
1.00296
1.2257
26.8961
43.7033
64.7509
78.9686
81.7827
73.9744
58.3409
39.6498
21.835
8.45572
2.26498
1.15961
1.01261
0.977449
0.969082
1.0212
1.24944
2.15997
26.8186
43.6859
62.4913
73.5225
73.3919
62.765
45.6425
27.2034
12.0287
3.55555
1.3602
1.06841
1.00712
0.991185
1.0092
1.10813
2.23491
5.97066
26.7361
42.7034
59.0951
66.7993
63.3434
50.4787
33.0257
16.6464
5.67153
1.76055
1.16063
1.04376
1.01359
1.01474
1.08391
1.97468
5.96579
14.512
26.5049
41.0332
54.4894
58.7076
52.3654
38.171
21.7707
8.77243
2.54896
1.32051
1.09546
1.04022
1.02883
1.0895
1.6293
5.18091
13.662
27.2859
26.0945
38.821
49.0861
49.9192
41.2861
26.937
12.9576
4.22443
1.60722
1.17923
1.07382
1.04777
1.07884
1.27444
4.07681
11.9894
25.3087
43.0947
25.4996
36.1582
43.1673
41.0085
30.9563
17.6521
6.9439
2.21476
1.32421
1.12467
1.07619
1.07072
1.16113
2.87618
9.81812
22.6617
40.693
60.3334
24.7172
33.1712
37.0405
32.5103
22.0119
10.7038
3.60794
1.58464
1.20767
1.10833
1.08971
1.15974
1.88481
7.15916
19.3289
37.4334
58.4319
74.5414
23.7531
29.9896
31.0454
24.8783
14.868
6.10979
2.15006
1.35626
1.16088
1.11311
1.11616
1.23857
4.57793
15.1733
32.9509
55.19
74.7122
83.2617
22.6841
26.7576
25.4729
18.4325
9.62329
3.51721
1.63304
1.25094
1.14782
1.12998
1.21011
2.5039
10.6047
27.1162
49.9985
73.1395
87.6642
92.1238
21.7003
23.6139
20.5173
13.2722
6.03475
2.26032
1.42117
1.20672
1.15361
1.15846
1.29035
6.05722
20.3042
42.633
68.6387
89.6666
100.889
106.23
20.6974
20.6892
16.3059
9.41032
3.86364
1.7573
1.3165
1.19376
1.1702
1.24031
2.75319
13.0589
33.4455
60.6051
87.3702
106.406
118.515
126.565
19.7132
18.0466
12.8462
6.61972
2.64741
1.53329
1.26736
1.19974
1.19459
1.30407
6.3852
23.2299
49.3958
79.8272
106.434
126.142
141.785
153.084
18.7655
15.7113
10.097
4.72089
2.04645
1.41885
1.24981
1.21073
1.26056
2.3556
12.9567
36.1142
67.2218
99.6684
127.113
150.2
170.37
185.248
17.8351
13.6967
7.98898
3.50497
1.75625
1.35758
1.25064
1.23407
1.32235
5.04858
22.1642
51.0691
86.1535
120.354
150.48
178.478
203.466
222.131
16.9416
12.0013
6.40346
2.74775
1.60341
1.3297
1.2598
1.27191
1.50003
9.7666
33.3678
67.3824
105.704
142.274
176.707
210.244
240.14
262.723
16.1458
10.5952
5.21799
2.29285
1.51747
1.32125
1.27578
1.32097
2.6479
16.6646
45.9212
84.4105
125.688
165.619
205.355
244.588
279.379
305.898
15.4661
9.44731
4.35675
2.03282
1.46859
1.32535
1.29896
1.36518
4.88258
24.8978
59.2181
101.643
145.984
190.18
235.662
280.505
320.044
350.402
14.9015
8.52519
3.74234
1.87886
1.44355
1.33744
1.32333
1.41072
8.19434
33.8693
72.7053
118.68
166.391
215.446
266.727
316.947
361.049
395.252
14.4447
7.79947
3.30817
1.78531
1.43465
1.35054
1.35616
1.56569
12.4301
43.0498
85.896
135.178
186.564
240.727
297.612
352.923
401.5
439.754
14.0855
7.22682
3.00223
1.72895
1.43551
1.36557
1.39208
2.10938
17.2743
51.9622
98.3691
150.8
206.038
265.259
327.41
387.557
440.675
483.361
13.818
6.78763
2.79909
1.69659
1.44296
1.38539
1.42163
2.9276
22.0692
60.202
109.757
165.191
224.268
288.275
355.287
420.078
477.918
525.524
13.6412
6.46848
2.67006
1.68102
1.45515
1.40668
1.44961
3.86644
26.411
67.4253
119.734
177.979
240.696
309.059
380.497
449.774
512.543
565.554
13.5534
6.25791
2.59412
1.67798
1.47075
1.42848
1.4767
4.75666
30.0006
73.3434
128.007
188.797
254.788
326.97
402.368
475.94
543.76
602.562
13.5556
6.14183
2.55868
1.68483
1.48889
1.45044
1.50264
5.44055
32.6084
77.7206
134.321
197.305
266.076
341.459
420.298
497.869
570.671
635.452
13.6109
6.1341
2.5569
1.70017
1.50909
1.4724
1.52717
5.78843
34.0847
80.3779
138.461
203.211
274.173
352.076
433.759
514.864
592.317
662.955
13.6683
6.2659
2.58663
1.72281
1.531
1.49429
1.54954
5.78488
34.2877
81.1768
140.276
206.295
278.792
358.481
442.314
526.3
607.757
683.737
13.7292
6.54987
2.656
1.75079
1.55398
1.51614
1.56915
5.52849
33.1217
80.0376
139.611
206.409
279.751
360.438
445.66
531.693
616.21
696.564
13.7953
6.96889
2.77828
1.78434
1.57807
1.53803
1.58643
5.0822
30.6707
76.939
136.404
203.468
277.007
357.865
443.607
530.743
617.136
700.496
13.8696
7.50799
2.9728
1.82429
1.60349
1.56012
1.60208
4.52393
27.1598
71.9273
130.659
197.46
270.592
350.809
436.169
523.413
610.418
695.115
13.956
8.14787
3.26387
1.87261
1.63063
1.58262
1.6169
3.93461
22.9283
65.1563
122.447
188.434
260.61
339.447
423.534
509.894
596.289
680.677
14.0613
8.86553
3.67618
1.92784
1.65976
1.60578
1.63171
3.38124
18.3886
56.9173
111.914
176.497
247.232
324.066
406.054
490.593
575.302
657.986
14.1963
9.63365
4.24783
2.02908
1.69239
1.62992
1.64725
2.90718
13.9592
47.702
99.3483
161.823
230.67
305.021
384.21
466.093
548.229
628.183
14.3794
10.4209
4.96852
2.21117
1.72998
1.65545
1.66276
2.53231
10.0264
37.8462
85.1318
144.68
211.167
282.695
358.564
437.1
515.966
592.525
14.6446
11.2165
5.83284
2.5137
1.77446
1.68317
1.67827
2.25481
7.06561
28.2083
69.8531
125.464
189.019
257.462
329.691
404.375
479.449
552.22
15.0655
11.9637
6.80301
2.98047
1.82243
1.71349
1.69446
2.06275
5.03746
19.6846
54.3726
104.75
164.596
229.677
298.12
368.667
439.598
508.362
15.7795
12.9284
7.90747
3.65642
1.92877
1.75014
1.71214
1.93994
3.72458
12.8723
39.8358
83.4845
138.466
199.709
264.289
330.63
397.258
461.917
16.0232
13.2039
9.03197
4.6064
2.18391
1.79595
1.72733
1.86696
2.90999
7.98981
26.9003
62.7414
111.513
168.084
228.588
290.773
353.129
413.706
50.2585
17.314
10.0122
5.60928
2.64199
1.8509
1.74862
1.82622
2.41395
5.11969
16.7072
43.8555
84.9538
135.626
191.491
249.485
307.715
364.361
63.6123
25.0893
11.4046
6.45221
3.2899
1.98066
1.7845
1.8112
2.12167
3.55839
9.69643
28.2146
60.4202
103.656
153.803
207.206
261.363
314.291
62.4534
34.8384
14.7795
7.46608
4.03261
2.25995
1.8372
1.81859
1.9694
2.71981
5.53145
16.3524
39.4032
73.9113
116.89
164.744
214.488
263.76
61.2228
46.717
20.8414
9.23616
4.82284
2.68895
1.91377
1.8346
1.90384
2.26846
3.56031
8.75756
23.2402
48.3319
82.7148
123.59
167.969
213.191
60.0953
57.4632
30.4795
12.8816
5.9339
3.22422
2.07994
1.87627
1.88706
2.04026
2.65155
4.7074
12.2096
28.369
53.4271
85.9171
123.5
163.646
59.4549
58.7103
41.0648
19.2835
8.16603
3.95653
2.33152
1.94305
1.89576
1.95505
2.21703
3.01704
6.03325
14.7777
30.8324
54.1717
83.5605
117.161
58.7169
56.4518
50.4779
28.5373
12.5303
5.38185
2.72527
2.03305
1.92934
1.94002
2.0282
2.35813
3.27389
6.87344
15.5331
30.1807
50.7471
76.4857
57.9964
55.4101
56.3817
39.7686
19.8956
8.41497
3.59307
2.15361
1.9811
1.95
1.97802
2.09208
2.38968
3.38339
6.9453
14.546
26.8963
44.3089
57.2868
54.9115
57.6706
50.435
30.2045
14.0885
5.72163
2.51043
2.0806
1.98674
1.98192
2.01141
2.11839
2.24031
3.08593
5.903
11.9492
21.998
56.5096
54.4702
57.7853
59.0558
42.5789
23.0649
10.2029
3.83577
2.22119
2.04395
2.00299
2.00959
2.04239
2.09942
2.20972
2.59926
4.30714
8.62146
55.7822
54.1462
58.9179
64.1054
54.9735
35.1577
17.9454
7.31819
2.89093
2.18638
2.05179
2.02678
2.03588
2.06394
2.10313
2.1948
2.30183
3.04142
55.1344
53.77
60.0361
66.4946
64.8654
48.6559
29.0184
14.1185
5.51952
2.47013
2.16932
2.0801
2.06185
2.0717
2.08899
2.11837
2.15773
2.25722
54.6034
53.2918
60.1869
68.5205
71.7027
61.0171
42.0153
24.1341
11.5659
4.63109
2.32376
2.15155
2.11001
2.10451
2.11211
2.12421
2.13933
2.16839
54.3564
52.3974
58.831
67.7078
75.0172
69.6538
54.0477
35.8635
20.6608
10.2896
4.47181
2.40329
2.19072
2.15834
2.15203
2.15565
2.16349
2.17438
54.8222
51.2115
55.7399
63.4827
70.9621
73.299
62.1919
46.4804
31.1639
18.8886
10.3434
5.1167
2.8567
2.38126
2.27682
2.24007
2.22499
2.21889
56.7762
50.3046
51.7259
56.7997
63.0561
66.7868
62.978
52.3851
40.1939
28.7415
19.3244
12.2578
7.26129
4.39877
3.19508
2.75315
2.54713
2.42757
63.2189
49.9981
48.6816
49.7581
52.3155
54.9315
55.2481
50.9299
44.1727
36.6276
29.3492
22.9198
17.4997
12.9965
9.58023
7.10669
5.40072
4.26851
79.7476
52.3826
48.0246
47.0126
46.6499
46.3712
46.029
45.0775
43.0304
40.3236
37.2994
34.2809
31.2273
28.2962
25.6277
23.1496
20.5905
18.3396
91.5287
60.942
33.4191
15.7127
8.06438
4.93885
3.47593
2.75156
2.47508
2.39292
2.37734
2.38459
2.40613
2.48426
2.59572
4.84856
10.4167
17.9507
25.8803
32.862
37.8229
40.5035
207.032
168.54
115.429
65.7049
31.534
13.0601
6.06088
3.81116
2.82754
2.46756
2.39726
2.39121
2.40048
2.43153
2.47304
2.88205
5.91039
12.2278
20.1618
28.1348
34.8301
39.433
207.209
171.816
163.343
131.675
86.435
45.3655
18.9693
6.90732
3.74103
2.8032
2.47134
2.40898
2.4062
2.42263
2.45484
2.55694
3.59785
7.8565
15.1316
23.6797
31.8886
38.2588
210.99
171.9
160.919
158.4
140.137
101.704
60.1026
27.3956
9.95654
4.17746
2.89221
2.48504
2.42389
2.42703
2.44963
2.5022
2.79474
4.91132
10.7003
19.1675
28.6658
36.9097
211.828
176.716
161.506
157.895
157.567
146.236
113.847
71.075
34.1237
12.4587
4.12051
2.57227
2.45318
2.43607
2.45236
2.48662
2.60418
3.31953
7.07406
14.8542
25.2733
35.4511
226.561
184.333
163.843
157.88
156.252
156.555
148.316
117.633
73.5287
35.5503
12.3005
3.42156
2.56256
2.46322
2.45715
2.4823
2.55074
2.84461
4.86798
11.407
22.204
34.0441
250.3
196.047
167.551
158.634
156.079
155.55
156.258
147.732
114.311
69.0777
31.4097
9.24547
2.63963
2.49614
2.47077
2.48584
2.53183
2.70038
3.70747
8.72733
19.4964
32.7407
283.299
212.226
173.02
159.723
156.044
155.309
155.538
155.897
143.506
104.092
58.0783
22.6688
5.31585
2.58027
2.49783
2.49372
2.52664
2.64028
3.22724
6.83557
17.2093
31.5668
324.639
232.999
180.433
161.232
156.076
155.097
155.319
156.029
154.864
132.87
87.027
42.0192
12.2682
2.63164
2.52481
2.50711
2.5297
2.61202
3.00999
5.54244
15.2452
30.5262
372.872
258.279
189.907
163.185
156.162
154.934
155.103
155.545
156.121
149.163
113.524
64.1115
24.0621
4.66479
2.57952
2.52685
2.53898
2.60002
2.89398
4.76109
13.6232
29.6225
425.445
287.252
201.401
165.628
156.288
154.779
154.912
155.452
156.423
154.524
133.186
85.4602
38.4162
8.96589
2.62318
2.55045
2.54945
2.59826
2.82749
4.29344
12.3347
28.8582
479.017
318.554
214.616
168.588
156.451
154.635
154.752
155.391
156.429
156.14
145.517
104.138
53.3271
15.2899
2.66058
2.57251
2.56204
2.60242
2.78931
3.99929
11.3363
28.2325
529.835
350.356
228.996
172.068
156.65
154.501
154.603
155.357
156.747
157.217
151.635
118.915
67.273
23.2019
3.58267
2.6088
2.57797
2.61021
2.76828
3.80624
10.5767
27.7405
574.199
380.541
243.736
176.027
156.884
154.375
154.462
155.361
157.371
158.212
154.514
129.645
79.323
31.2362
5.17948
2.6347
2.59585
2.62107
2.7584
3.67702
10.0095
27.3742
608.81
406.867
257.829
180.338
157.152
154.258
154.327
155.391
158.091
159.204
156.274
137.115
89.12
38.6025
7.18289
2.65894
2.61412
2.63405
2.7562
3.59081
9.59714
27.1236
630.975
427.069
270.071
184.723
157.446
154.146
154.197
155.422
158.801
160.192
157.574
142.211
96.6826
44.8842
9.32194
2.68243
2.63236
2.64844
2.75946
3.53507
9.31001
26.9787
638.682
438.998
279.177
188.697
157.752
154.039
154.069
155.426
159.404
161.17
158.615
145.622
102.323
49.9286
11.3709
2.70519
2.65044
2.66324
2.76677
3.50189
9.1261
26.9287
630.473
440.633
283.861
191.66
158.04
153.934
153.943
155.387
159.829
162.105
159.458
147.734
106.28
53.7351
13.166
2.72721
2.66831
2.67822
2.7771
3.48606
9.03099
26.9565
605.623
429.995
282.669
192.934
158.258
153.832
153.818
155.294
160.03
163.015
160.111
148.949
108.796
56.3807
14.6027
2.74847
2.68595
2.69357
2.78971
3.48388
9.05631
26.9846
563.611
406.369
273.935
191.661
158.293
153.729
153.695
155.153
159.989
164.031
160.548
149.529
110.093
57.9862
15.6293
2.76895
2.70336
2.70929
2.8041
3.49322
9.19775
27.0131
504.497
369.647
257.317
187.257
157.981
153.62
153.573
154.982
159.719
165.571
160.765
149.572
110.428
58.6885
16.242
2.78872
2.72058
2.72536
2.81994
3.50832
9.44066
27.0423
430.129
321.631
233.872
179.965
157.201
153.503
153.454
154.813
159.244
166.782
160.819
149.05
109.937
58.6932
16.4785
2.80785
2.73763
2.74174
2.83675
3.53085
9.77621
27.0724
345.867
267.102
206.675
170.933
155.996
153.367
153.339
154.706
158.566
167.517
160.745
148.02
108.777
58.1058
16.4269
2.82622
2.75454
2.75837
2.85413
3.56382
10.1813
27.1035
262.561
214.728
181.022
162.282
154.651
153.193
153.238
154.727
157.94
167.856
160.547
146.58
107.125
57.0704
16.1564
2.84382
2.7714
2.77513
2.87199
3.6094
10.6312
27.1357
196.302
175.705
162.912
156.254
153.549
153.001
153.167
154.999
157.697
167.663
160.257
144.882
105.162
55.7388
15.7362
2.86083
2.78811
2.79198
2.89023
3.66845
11.1024
27.1692
162.196
157.788
155.05
153.529
152.928
152.915
153.311
155.782
158.097
167.012
159.979
143.116
103.039
54.2277
15.2272
2.87749
2.80467
2.8089
2.90875
3.74115
11.5825
27.204
153.508
152.932
152.641
152.638
152.796
153.145
154.471
157.572
159.211
165.768
159.871
141.484
100.945
52.6774
14.6892
2.89396
2.82114
2.82585
2.92743
3.82533
12.0512
27.2403
151.721
151.962
152.358
152.95
153.852
155.363
157.842
160.872
161.451
164.803
160.03
140.176
99.0193
51.1858
14.1679
2.91044
2.83756
2.8428
2.94616
3.91838
12.4973
27.2779
158.695
159.972
161.096
162.113
163.113
164.219
165.453
166.528
165.211
164.74
160.445
139.355
97.3842
49.8291
13.692
2.92704
2.85399
2.85973
2.96485
4.01686
12.9121
27.3169
179.584