/*--------------------------------*- C++ -*----------------------------------*\
| =========                 |                                                 |
| \\      /  F ield         | OpenFOAM: The Open Source CFD Toolbox           |
|  \\    /   O peration     | Version:  v2012                                 |
|   \\  /    A nd           | Website:  www.openfoam.com                      |
|    \\/     M anipulation  |                                                 |
\*---------------------------------------------------------------------------*/
FoamFile
{
    version     2.0;
    format      ascii;
    class       volScalarField;
    location    "984";
    object      k;
}
// * * * * * * * * * * * * * * * * * * * * * * * * * * * * * * * * * * * * * //

dimensions      [0 2 -2 0 0 0 0];


internalField   nonuniform List<scalar> 
6066
(
0.00487844
0.00599989
0.00717724
0.0084203
0.0097446
0.0111797
0.012763
0.0145362
0.0165427
0.0188203
0.0214341
0.0244977
0.0281848
0.0327557
0.0386083
0.0463622
0.0569983
0.0721112
0.0944445
0.129122
0.00914445
0.0102612
0.011413
0.0127578
0.0143361
0.0161904
0.0183846
0.0209953
0.0241162
0.0278591
0.032359
0.0377913
0.04439
0.052448
0.0623234
0.0744476
0.0893033
0.107367
0.128976
0.15381
0.0214699
0.0238239
0.0263548
0.0290825
0.0320398
0.0352712
0.0388356
0.042798
0.0472314
0.0522154
0.0578452
0.0642331
0.0714968
0.079774
0.0892359
0.100046
0.11236
0.126298
0.141935
0.159307
0.0335312
0.0363859
0.0393584
0.0424716
0.0457631
0.0492757
0.0530566
0.057156
0.0616276
0.0665301
0.0719292
0.0778979
0.0845207
0.0918979
0.100143
0.109384
0.119777
0.131518
0.144882
0.160274
0.04069
0.0434489
0.0463248
0.0493426
0.0525373
0.0559446
0.0596011
0.0635461
0.0678223
0.0724769
0.077564
0.0831458
0.0892966
0.0961076
0.103693
0.112198
0.121818
0.132812
0.145542
0.160503
0.0426875
0.0451339
0.0477345
0.0505136
0.053502
0.0567304
0.0602318
0.0640427
0.0682045
0.0727595
0.077766
0.0832863
0.0893915
0.0961691
0.10373
0.112219
0.121828
0.132816
0.145543
0.160503
0.0394289
0.0413914
0.0435661
0.0459757
0.0486479
0.0516134
0.0549063
0.0585631
0.0626799
0.0673076
0.072493
0.0782967
0.0847959
0.0920815
0.100258
0.109452
0.119813
0.131534
0.144887
0.160275
0.0299371
0.0310883
0.0325174
0.0342422
0.0362868
0.0386832
0.0415081
0.0449015
0.0488673
0.0534675
0.0587852
0.0649183
0.0719785
0.080106
0.0894544
0.100181
0.112435
0.126335
0.141948
0.159308
0.0148872
0.0149392
0.0152816
0.0159255
0.016906
0.0182854
0.020145
0.0224638
0.0253238
0.0288335
0.0331305
0.0383946
0.0448545
0.0527948
0.0625719
0.0746149
0.0894063
0.107423
0.129001
0.153814
0.0143944
0.0137026
0.0132875
0.0132594
0.0135566
0.0141755
0.0150991
0.0163329
0.017893
0.0198113
0.0221481
0.025004
0.0285366
0.0329933
0.0387625
0.0464569
0.0570519
0.0721375
0.0944535
0.129123
5.50964e-05
5.80042e-05
6.34283e-05
7.03412e-05
7.63306e-05
8.08459e-05
8.3852e-05
8.36891e-05
7.98885e-05
7.23626e-05
6.53495e-05
6.15507e-05
9.88409e-05
0.000172704
0.00029702
0.000493828
0.000783847
0.00118311
0.00170019
0.00233542
0.00308329
0.0039335
0.000213589
0.000250403
0.000296992
0.000356781
0.000431036
0.00051591
0.000605969
0.000711206
0.000852419
0.00104705
0.00130477
0.00162524
0.00201322
0.00246582
0.00298312
0.00356708
0.00421425
0.0049199
0.00567906
0.00648641
0.0073372
0.00822473
0.00143494
0.00169457
0.00200788
0.00241283
0.00290921
0.00347046
0.00404002
0.00461068
0.00521492
0.00586509
0.00656622
0.00731933
0.00813692
0.00903002
0.0100086
0.0110795
0.0122449
0.0135046
0.0148556
0.0162933
0.0178799
0.0196089
0.00503158
0.00588814
0.0066987
0.00745694
0.00815852
0.0087727
0.00931959
0.00987321
0.0105
0.0112372
0.0121053
0.0131192
0.0142907
0.0156252
0.0171216
0.0187721
0.0205635
0.0224951
0.0245479
0.026692
0.0289062
0.0311827
0.0106601
0.0115382
0.0121071
0.0124552
0.0127003
0.0129471
0.0132904
0.0138048
0.0145338
0.0154937
0.0166837
0.0180919
0.0196973
0.0214715
0.023382
0.0253961
0.027484
0.0296211
0.031788
0.0339741
0.0361775
0.0384074
0.01554
0.0156248
0.0154606
0.0152678
0.0152052
0.0153715
0.0158182
0.0165614
0.0175894
0.018871
0.0203625
0.0220154
0.0237813
0.0256171
0.0274884
0.0293708
0.0312504
0.0331233
0.0349939
0.036871
0.0387671
0.0406956
0.0178911
0.0172435
0.0166875
0.0163895
0.0164292
0.0168222
0.0175432
0.0185428
0.0197586
0.021124
0.0225765
0.0240638
0.0255468
0.0270005
0.028413
0.0297838
0.0311223
0.0324438
0.0337663
0.0351045
0.0364699
0.037897
0.0181314
0.0172852
0.0168102
0.0167357
0.0170368
0.0176485
0.0184886
0.0194717
0.0205194
0.0215662
0.0225623
0.0234761
0.0242911
0.025004
0.0256228
0.0261634
0.0266456
0.0270922
0.0275322
0.0279994
0.0285292
0.0291585
0.0173566
0.0167059
0.0164985
0.0166499
0.0170641
0.0176354
0.0182654
0.0188704
0.019386
0.0197665
0.0199848
0.0200284
0.0198967
0.0196018
0.0191621
0.0186028
0.0179571
0.0172627
0.0165661
0.0159267
0.0154022
0.0150342
0.0162892
0.0159125
0.0158809
0.0160591
0.0163317
0.0165988
0.016782
0.0168279
0.0167051
0.0164039
0.0159315
0.015307
0.0145536
0.0136862
0.0127091
0.0116288
0.0105267
0.00948246
0.00861444
0.00810255
0.00825847
0.00977041
2.14076e-07
1.1284e-06
1.61499e-06
2.45495e-06
9.01456e-06
1.88555e-05
2.60552e-05
2.61184e-05
2.03865e-05
1.33823e-05
8.77807e-06
7.38721e-06
9.50282e-06
1.68946e-05
2.8834e-05
4.09897e-05
4.99565e-05
5.37538e-05
1.10011e-06
2.92178e-06
1.63479e-05
3.93399e-05
5.45676e-05
5.4209e-05
4.26351e-05
2.90321e-05
2.01028e-05
1.37359e-05
9.8591e-06
9.48318e-06
1.90389e-05
5.24502e-05
0.000102307
0.000144112
0.000166652
0.000186432
2.5804e-06
1.4113e-05
7.82473e-05
0.000165534
0.000222207
0.000229356
0.000196659
0.000146943
0.000104684
7.31924e-05
5.40635e-05
5.38698e-05
0.000106958
0.000285867
0.000554523
0.000806512
0.00100845
0.00122555
3.87102e-06
3.66518e-05
0.000175373
0.00033962
0.000444751
0.000468076
0.000426176
0.000351626
0.000270794
0.000201069
0.000157105
0.000172765
0.000364047
0.000919709
0.00172459
0.00254558
0.00343281
0.00419573
4.8943e-06
7.64195e-05
0.000309346
0.000552913
0.0006969
0.000721108
0.000660188
0.000564579
0.000457898
0.000361185
0.00031304
0.000440539
0.00107781
0.00245613
0.0042905
0.00618955
0.00789023
0.00939574
9.35951e-06
0.00015167
0.000509406
0.00084679
0.00102443
0.00102863
0.000926402
0.000793913
0.000655696
0.000545674
0.000571443
0.00114545
0.00295666
0.00583015
0.00885932
0.0115342
0.0135128
0.0149057
3.95163e-05
0.000286104
0.000809907
0.00126782
0.0014799
0.00145924
0.00128068
0.00108072
0.000894668
0.000810263
0.00116754
0.00289557
0.00652934
0.0110287
0.0146602
0.0170696
0.0183452
0.0185058
0.000135521
0.000504326
0.00125124
0.00186864
0.00211786
0.00202041
0.00174471
0.00144265
0.00121712
0.00133719
0.00265974
0.00636111
0.0121125
0.0169432
0.0199376
0.0211408
0.0208306
0.0195691
0.000358641
0.000832878
0.00188579
0.00271283
0.00297526
0.00274569
0.00232899
0.00190176
0.00175894
0.00260901
0.00580294
0.0119259
0.0179877
0.0219811
0.0234244
0.0227967
0.0209681
0.0189119
0.000738098
0.0012973
0.00277602
0.00384616
0.0040657
0.00362129
0.00301665
0.00256374
0.00292846
0.00545822
0.0108925
0.0176714
0.0229246
0.0251369
0.024533
0.0222809
0.0196495
0.0175337
0.0151415
0.0149298
0.014905
0.0149451
0.0149662
0.0149134
0.0147609
0.0145043
0.0141494
0.0136826
0.0131043
0.012397
0.0115391
0.0105167
0.00933575
0.00803086
0.0066601
0.00528457
0.00396756
0.00277022
0.00181782
0.00163297
0.0140937
0.0139683
0.0139429
0.0139519
0.0139666
0.0139785
0.0139824
0.0139622
0.0138777
0.0136695
0.0132737
0.0126265
0.011695
0.0104902
0.00906781
0.00751947
0.00593371
0.00432045
0.00266153
0.0014138
0.000487961
0.00033113
0.0134558
0.0135471
0.0137768
0.0141275
0.0145863
0.0151232
0.0156723
0.0161312
0.01637
0.016264
0.0157179
0.0147036
0.0132799
0.0115796
0.00973778
0.0078875
0.00608194
0.00449014
0.00305253
0.00178708
0.00059506
0.000193803
0.0137973
0.0144277
0.0152981
0.0163666
0.0175436
0.0186815
0.0195817
0.020032
0.0198571
0.0189728
0.0174188
0.0153639
0.0130491
0.0107993
0.00874497
0.00709252
0.00576578
0.00462735
0.00354323
0.00227347
0.000776555
0.000140177
0.0157551
0.0172416
0.0189583
0.0207306
0.0222968
0.0233614
0.0236571
0.0230238
0.0214627
0.0191353
0.0163462
0.0134967
0.0111166
0.00926867
0.00777154
0.00656055
0.00556864
0.00471885
0.00383866
0.00260097
0.000919576
0.000109645
0.0196356
0.0219522
0.0241621
0.0259149
0.0268405
0.0266795
0.0253493
0.0229541
0.0197986
0.0161793
0.0134134
0.0111499
0.0093335
0.00790134
0.00679644
0.0059242
0.0052303
0.00462105
0.00390746
0.00273544
0.000992295
8.23538e-05
0.0248865
0.0273517
0.0290288
0.0295625
0.0287389
0.0265596
0.0232624
0.0190006
0.015589
0.012767
0.0105457
0.00881521
0.00748815
0.0064677
0.00570957
0.00513797
0.00469933
0.00429686
0.00373666
0.00266179
0.000966463
6.30077e-05
0.0298141
0.0312234
0.0311763
0.029566
0.0264695
0.0219001
0.017618
0.0141741
0.0114557
0.00935457
0.00777356
0.00659703
0.00572322
0.00507698
0.00460517
0.00427216
0.00403132
0.003787
0.00333417
0.00235221
0.000828835
7.22825e-05
0.032172
0.031467
0.0290484
0.0250008
0.0195491
0.0154187
0.012189
0.00971787
0.00787007
0.00649923
0.00549259
0.00474447
0.004209
0.00382898
0.00356507
0.00340052
0.00328768
0.00312651
0.0027787
0.00193755
0.000647288
8.04675e-05
0.0304697
0.0273503
0.0226915
0.0171569
0.0130247
0.0100509
0.00788303
0.00628112
0.0051421
0.0043111
0.00370693
0.00327045
0.00296075
0.00275052
0.00262443
0.00257151
0.00253572
0.00247762
0.00221984
0.00150607
0.000461407
8.07948e-05
0.0249385
0.0200308
0.0150966
0.0109575
0.0082321
0.0063507
0.00501513
0.00404903
0.0033452
0.00282596
0.00244096
0.00216156
0.00197235
0.00186477
0.00182969
0.0018478
0.00190534
0.00191333
0.00171165
0.00110478
0.000300446
7.61183e-05
0.0176148
0.0129358
0.00948631
0.00700208
0.00534495
0.00422286
0.00342479
0.00283377
0.00238073
0.00201059
0.00170552
0.00146709
0.00130536
0.00123184
0.00124348
0.00131897
0.00142001
0.0014488
0.00126686
0.000747913
0.000177431
6.56184e-05
0.0112541
0.00812893
0.00606025
0.00470981
0.00383084
0.0032278
0.00277755
0.00240807
0.00207565
0.00175599
0.00144841
0.00117456
0.000968472
0.000863001
0.000865555
0.000949768
0.00104322
0.00105022
0.000867761
0.00046951
0.000104599
5.00061e-05
0.00717971
0.00533305
0.00426138
0.00360867
0.00317616
0.00285776
0.00259627
0.00235445
0.00210288
0.00182063
0.00150504
0.0011819
0.000901127
0.000714308
0.000648208
0.00068124
0.000731869
0.000711516
0.000554524
0.000278959
6.01938e-05
3.32169e-05
0.0048475
0.00392089
0.00342925
0.00312311
0.00290414
0.00273089
0.0025801
0.00243063
0.00225755
0.00203441
0.00174355
0.00139448
0.00103439
0.00073437
0.000551086
0.000491996
0.000490187
0.00045385
0.00033562
0.000159591
3.35962e-05
1.90166e-05
0.00368593
0.00326909
0.00304577
0.0028937
0.00277557
0.00267865
0.00259444
0.00251174
0.00241144
0.00226649
0.00204585
0.00173109
0.00133983
0.000935321
0.000605101
0.000408339
0.000334162
0.000282423
0.000197554
8.96386e-05
1.83048e-05
9.86259e-06
0.00317264
0.00298947
0.00288794
0.00280881
0.002738
0.00267588
0.00262091
0.00257013
0.00251421
0.00243382
0.00229881
0.00207226
0.0017336
0.00130309
0.000855215
0.000493601
0.00028582
0.000191835
0.000120137
5.13209e-05
1.00748e-05
5.14077e-06
0.003005
0.00293492
0.00289979
0.00286094
0.00281044
0.0027572
0.00270185
0.00264687
0.00259548
0.00253644
0.00245365
0.00231256
0.00207282
0.0017111
0.00124791
0.000767221
0.000385375
0.000184549
9.01415e-05
3.38771e-05
6.29038e-06
3.24034e-06
0.00304313
0.00304568
0.00305784
0.00305092
0.00301942
0.00296381
0.00288873
0.0028045
0.00272637
0.00264492
0.00255835
0.00245011
0.0022822
0.00201433
0.00162154
0.00113152
0.000641285
0.000273517
0.000105268
3.25759e-05
5.57953e-06
3.02839e-06
0.00321089
0.00326783
0.00331542
0.00333557
0.00332176
0.00327379
0.00319493
0.00309117
0.00296681
0.00283796
0.00270479
0.0025711
0.00241316
0.00219511
0.00187544
0.00143641
0.00092603
0.000461427
0.000165174
4.46969e-05
7.60879e-06
4.12954e-06
0.00345697
0.00355811
0.00363247
0.00367751
0.00368451
0.00365144
0.00357827
0.00346691
0.0033217
0.00315269
0.00296051
0.00276688
0.0025667
0.00233906
0.00204736
0.00165397
0.00115963
0.000648243
0.000253005
6.66926e-05
1.11676e-05
6.07818e-06
0.0037345
0.0038698
0.00396956
0.00403768
0.0040679
0.004058
0.00400567
0.00390817
0.00376331
0.00357214
0.00334239
0.00308631
0.00281731
0.00253488
0.00221971
0.00183698
0.00136027
0.000825324
0.000360033
9.64778e-05
1.52112e-05
8.36205e-06
0.0040073
0.00416826
0.00428941
0.00437794
0.00443173
0.00444959
0.00442853
0.00436306
0.00424557
0.00406866
0.00382943
0.00353363
0.00319622
0.00283668
0.00245606
0.00203969
0.00155725
0.00100739
0.000479761
0.000135418
2.04974e-05
1.0541e-05
0.00424945
0.00442789
0.00456529
0.00467029
0.00474558
0.00479182
0.00480677
0.0047841
0.00471305
0.00457946
0.00436937
0.00407471
0.0037001
0.0032654
0.00279684
0.00230502
0.00177852
0.00120181
0.000621267
0.000190407
2.83388e-05
1.19131e-05
0.00444604
0.00463472
0.00478311
0.00489965
0.00499238
0.00506421
0.00511468
0.00513854
0.00512437
0.00505427
0.00490545
0.00465516
0.0042896
0.00381489
0.00326098
0.00266665
0.00205351
0.00141919
0.00078283
0.000264281
3.89563e-05
1.23453e-05
0.00459074
0.00478352
0.00493807
0.00506085
0.00516588
0.0052582
0.0053399
0.00540814
0.00545309
0.00545624
0.00538994
0.0052199
0.00491259
0.0044496
0.00384438
0.00314545
0.00241156
0.00167802
0.000964942
0.000357771
5.401e-05
1.20045e-05
0.00468311
0.0048744
0.00502926
0.00515607
0.0052683
0.00537476
0.00548083
0.00558716
0.00568713
0.00576425
0.00578996
0.00572334
0.00551503
0.00511965
0.00451862
0.003744
0.00287624
0.00200253
0.00117775
0.000471404
7.36074e-05
1.01853e-05
0.00472802
0.00491442
0.00506626
0.00519331
0.00530772
0.00542165
0.00554399
0.00567955
0.0058262
0.00597133
0.0060887
0.0061355
0.00605261
0.0057721
0.00523809
0.00444318
0.00345848
0.00241588
0.00143625
0.000610181
0.000102748
7.40596e-06
0.00473204
0.00491175
0.00505849
0.00518273
0.00529517
0.00541047
0.00554089
0.00569581
0.00587837
0.0060813
0.00628294
0.00644244
0.00649676
0.00636292
0.00595187
0.00520516
0.00415178
0.00293508
0.00175574
0.000777765
0.000146944
6.74949e-06
0.00470179
0.00487419
0.00501492
0.00513452
0.00524233
0.00535418
0.0054854
0.00564998
0.00585686
0.00610512
0.00637932
0.00664334
0.00683471
0.0068629
0.00661504
0.00598316
0.0049299
0.00356678
0.00215288
0.000978411
0.000210984
1.89159e-05
0.00464296
0.00480829
0.00494294
0.00505668
0.00515971
0.0052652
0.0053916
0.00555741
0.00577747
0.00605788
0.00639072
0.00674657
0.00706661
0.00725845
0.00719556
0.00673103
0.00575313
0.00430096
0.0026498
0.00121877
0.000298262
5.05602e-05
0.00455977
0.00471895
0.00484863
0.00495756
0.00505587
0.00515381
0.00527205
0.00543281
0.00565646
0.00595646
0.00633339
0.00676611
0.00720162
0.00754942
0.00767718
0.0074129
0.00657816
0.0051122
0.00324491
0.00150707
0.000412082
0.000116589
0.00445412
0.00460859
0.00473506
0.0048412
0.0049362
0.00502739
0.00513665
0.00528877
0.00550878
0.0058176
0.0062247
0.00671858
0.00725402
0.00774495
0.0080579
0.00800777
0.00736737
0.00596641
0.00393338
0.00186251
0.000554684
0.000234575
0.00432479
0.00447647
0.00460212
0.00470858
0.00480308
0.00488971
0.00499089
0.00513422
0.0053471
0.00565653
0.00608145
0.0066211
0.00723992
0.00785877
0.00834549
0.00850942
0.00809293
0.00682816
0.00470088
0.00230167
0.000725399
0.000421061
0.00418593
0.00433279
0.00445749
0.00456371
0.00465764
0.0047429
0.00483938
0.00497458
0.00517856
0.00548591
0.00591928
0.00649032
0.00717553
0.00790581
0.00855167
0.00892098
0.0087399
0.00766639
0.00552417
0.00281556
0.000921675
0.000691268
0.00404977
0.00418719
0.00430927
0.00441598
0.00451028
0.00459943
0.00469562
0.00482389
0.00501639
0.00531617
0.00575008
0.00634229
0.00707651
0.00790087
0.00868957
0.00925105
0.00930338
0.00845902
0.00637705
0.0034007
0.00113984
0.00105328
0.00393135
0.00405229
0.00416793
0.00427434
0.00437115
0.00446529
0.00456678
0.0046972
0.00488576
0.00516951
0.00558883
0.00618755
0.00695771
0.00785823
0.00877187
0.00951065
0.00978732
0.00918839
0.00723579
0.0040495
0.00138609
0.00149197
0.00384899
0.00394404
0.00404687
0.00414962
0.00424806
0.00434663
0.00445591
0.0045937
0.0047857
0.00506579
0.0054745
0.00605379
0.00682855
0.00779086
0.00881048
0.0097102
0.0101983
0.00984735
0.00807836
0.00474914
0.00166096
0.00197549
0.00382396
0.00388185
0.00396307
0.00405626
0.00415327
0.00425289
0.00437006
0.00451737
0.00471711
0.00499996
0.00540427
0.00597247
0.00673987
0.00771133
0.00881538
0.00985989
0.0105446
0.0104349
0.00888965
0.00548697
0.00196235
0.00247639
0.00387933
0.0038879
0.00393688
0.00401241
0.00410353
0.00420233
0.00432255
0.00447762
0.00468598
0.00497455
0.00537848
0.00593917
0.00669616
0.00766836
0.0088133
0.00996848
0.0108349
0.0109543
0.00965717
0.00624825
0.00228844
0.00296837
0.00403802
0.00398562
0.00399085
0.00403878
0.00411687
0.00421121
0.00432927
0.00448795
0.00470279
0.00499695
0.00540196
0.00595681
0.00670237
0.00766668
0.00883155
0.0100667
0.0110776
0.0114117
0.0103726
0.00702416
0.00264064
0.00343094
0.00432069
0.0041979
0.00414838
0.00415775
0.00421304
0.00429838
0.00441219
0.00456613
0.00478182
0.00507829
0.00548294
0.00603145
0.00676403
0.00771397
0.00888082
0.010168
0.011301
0.0118149
0.0110292
0.00780754
0.00302072
0.00384603
0.00474364
0.00454511
0.00443224
0.00439291
0.00441541
0.00448443
0.00458759
0.00473022
0.00493981
0.00523254
0.00563232
0.00617125
0.00688768
0.00781741
0.00897238
0.010285
0.0115112
0.0121821
0.011621
0.00859096
0.0034311
0.00419255
0.00531703
0.00504329
0.00486282
0.00476712
0.00474721
0.00479051
0.00487605
0.00500945
0.00519858
0.00547653
0.00586308
0.00638604
0.00708073
0.00798363
0.00911504
0.010432
0.0117259
0.0125362
0.0121428
0.00934905
0.00387582
0.00445762
0.00604162
0.00570143
0.00545566
0.00530047
0.00523032
0.00523562
0.00529393
0.00540625
0.00557192
0.00582499
0.00618847
0.00668649
0.00735125
0.00821896
0.00931575
0.0106188
0.0119558
0.0128856
0.0126444
0.0100428
0.00436158
0.00464195
0.00690166
0.00651479
0.00621489
0.00600343
0.00587844
0.00583412
0.00585477
0.00593674
0.00608511
0.00629724
0.00662321
0.0070836
0.00770735
0.0085296
0.00958046
0.0108527
0.0122078
0.0132319
0.0131419
0.0106787
0.00488493
0.00475078
0.00785243
0.00744944
0.00711588
0.0068588
0.00668006
0.00657884
0.00655588
0.00659991
0.00671523
0.00690286
0.00717632
0.00758535
0.00815569
0.00892104
0.00991427
0.0111401
0.0124918
0.0135894
0.0136461
0.0113103
0.00540338
0.00478802
0.00881058
0.00842852
0.00809021
0.00780748
0.00759021
0.00744564
0.00737758
0.00738446
0.00746192
0.00761837
0.00784974
0.00819562
0.00870095
0.00939793
0.0103216
0.0114865
0.0128144
0.0139646
0.0141595
0.0119452
0.00591323
0.00475928
0.00966697
0.00935083
0.00905256
0.00878553
0.00856275
0.00839665
0.00829649
0.00827002
0.00831172
0.00842921
0.00863385
0.00891738
0.00934674
0.00996423
0.0108065
0.0118964
0.0131811
0.0143619
0.0146815
0.0125916
0.00642406
0.00467041
0.0103547
0.0101385
0.00992025
0.00971049
0.00952145
0.00936675
0.00925994
0.00921394
0.00923418
0.00931743
0.0094827
0.00974467
0.0100921
0.0106215
0.0113718
0.0123736
0.0135969
0.0147858
0.0152091
0.0132503
0.00696003
0.00452692
0.0108365
0.0107299
0.0106144
0.0104938
0.010376
0.0102707
0.0101922
0.0101561
0.0101762
0.0102449
0.0103782
0.0106013
0.0109338
0.011368
0.0120169
0.0129195
0.0140654
0.0152405
0.0157423
0.0139263
0.007522
0.00433739
0.0111431
0.0111254
0.0111062
0.0110825
0.0110548
0.0110273
0.0110099
0.0110171
0.0110642
0.0111525
0.0112775
0.0114716
0.0117658
0.0121816
0.0127306
0.0135292
0.0145868
0.0157303
0.0162948
0.0146264
0.00811336
0.00410962
0.0113716
0.0113965
0.0114385
0.0114893
0.0115428
0.0115975
0.011657
0.0117312
0.011834
0.0119758
0.0121254
0.0123158
0.0125848
0.0129687
0.0134924
0.0141913
0.0151562
0.016255
0.0168681
0.0153501
0.00873372
0.00385296
0.0116582
0.0116676
0.011717
0.0117955
0.0118942
0.0120072
0.012133
0.0122759
0.0124458
0.0126528
0.0128649
0.0130851
0.0133551
0.0137187
0.0142196
0.0148866
0.0157631
0.0168104
0.0174607
0.0160936
0.00937927
0.00357343
0.0121712
0.0121013
0.012093
0.0121361
0.0122224
0.012345
0.0124994
0.0126858
0.0129104
0.0131815
0.0134749
0.0137501
0.0140476
0.0144132
0.0148974
0.0155505
0.0163931
0.0173888
0.0180675
0.0168489
0.0100423
0.00327372
0.0130349
0.0128307
0.0127028
0.0126452
0.0126541
0.0127248
0.0128528
0.0130371
0.0132816
0.013594
0.0139645
0.0143038
0.0146462
0.0150342
0.0155193
0.0161579
0.0170002
0.0179796
0.0186803
0.0176023
0.0107102
0.0029715
0.0142506
0.0138608
0.0135631
0.0133513
0.0132295
0.0131949
0.0132455
0.013381
0.0136057
0.0139275
0.0143449
0.0147484
0.0151439
0.0155686
0.0160714
0.0167093
0.0175419
0.0185547
0.0192901
0.0183202
0.0113575
0.00266899
0.0152286
0.0147086
0.0142461
0.0139054
0.0136889
0.0135685
0.0135484
0.0136347
0.0138346
0.0141578
0.014608
0.015076
0.0155304
0.0160028
0.0165377
0.0171906
0.0180239
0.019048
0.0198924
0.0190046
0.0119776
0.0023412
0.0135497
0.0133394
0.0131443
0.0130066
0.0129552
0.0129929
0.0131242
0.0133615
0.0136873
0.014109
0.0146507
0.0152179
0.0157558
0.0162973
0.0168855
0.0175744
0.0184268
0.0194683
0.0203778
0.0196868
0.0125904
0.00204439
0.0126921
0.0107771
0.0101852
0.0101865
0.0104625
0.0108649
0.011343
0.0118907
0.012512
0.0132272
0.0140604
0.0149585
0.0156899
0.0163651
0.0170513
0.0178123
0.0187139
0.0197928
0.020764
0.0201951
0.0132158
0.00182546
0.00123239
0.00191813
0.00398688
0.00529872
0.00538025
0.00466838
0.0039497
0.00384669
0.00560477
0.0100262
0.0165702
0.0227957
0.0261386
0.0259921
0.0235333
0.0203928
0.0177234
0.0159897
0.00176018
0.00275668
0.00560228
0.00710348
0.00693723
0.00606135
0.00546227
0.00634654
0.00958214
0.0152105
0.0216483
0.026148
0.0269913
0.0247705
0.0213049
0.0181142
0.0158796
0.0146326
0.00224024
0.00380813
0.00754223
0.00909913
0.00863283
0.00778782
0.00783092
0.00982105
0.014164
0.0200582
0.0252425
0.0273335
0.0258697
0.022397
0.0187822
0.0160576
0.0144241
0.0136581
0.00265337
0.00507712
0.00971079
0.0111675
0.0104877
0.0100565
0.0108906
0.0138228
0.0186456
0.0238173
0.0269484
0.0266167
0.0235711
0.0197353
0.0165667
0.0145505
0.0135732
0.013395
0.00300313
0.00654492
0.0119926
0.0132358
0.01271
0.0127783
0.01436
0.0178536
0.0223984
0.0260366
0.0268651
0.024655
0.0209166
0.0173978
0.0149867
0.0137815
0.0136286
0.0143235
0.00329421
0.00818774
0.0142373
0.0153298
0.0152553
0.0157817
0.0179065
0.0214303
0.0249779
0.0266598
0.0254783
0.0221968
0.0185141
0.0157121
0.0142291
0.0140357
0.0149563
0.0168842
0.00354851
0.00998381
0.0162451
0.0175053
0.0178574
0.0188258
0.0211711
0.0241679
0.0262262
0.0259854
0.0234168
0.0198277
0.0167076
0.0148788
0.0145295
0.0155445
0.0178142
0.0211234
0.00380641
0.0116207
0.0182418
0.0197652
0.0204264
0.021633
0.0238197
0.0258552
0.0262574
0.0244696
0.021214
0.017926
0.0157296
0.0150753
0.0160136
0.0184257
0.0220538
0.0262568
0.00403357
0.013167
0.0202325
0.0221082
0.0227584
0.0239454
0.02561
0.0264727
0.0253697
0.022602
0.0193074
0.0167594
0.0157013
0.0163554
0.018691
0.0223998
0.0267745
0.0305479
0.00422167
0.0146778
0.0221218
0.0241011
0.0247294
0.0256461
0.0265282
0.0261855
0.0239507
0.020789
0.0179401
0.0163944
0.0166226
0.0186488
0.0222089
0.0265521
0.0303383
0.0319767
0.00436886
0.0161515
0.0238972
0.0257879
0.0262555
0.0266858
0.0266736
0.0252647
0.0223574
0.0193031
0.0172429
0.0168782
0.0184057
0.0215986
0.0257376
0.0294568
0.0310686
0.0294581
0.00447651
0.0175683
0.0255894
0.0271598
0.0272994
0.0271109
0.02623
0.0240045
0.020879
0.0183231
0.017264
0.018093
0.0207459
0.0245244
0.0281256
0.0297992
0.0282853
0.0236811
0.00453146
0.0188494
0.026912
0.0281832
0.0278794
0.0270316
0.0254058
0.0226553
0.0196904
0.0178804
0.0178832
0.0198072
0.0231113
0.0265399
0.0283713
0.027163
0.0228593
0.016832
0.00450811
0.0200128
0.0279571
0.0288701
0.0280581
0.0265858
0.0243933
0.0214066
0.0188864
0.0179632
0.0189597
0.0216309
0.0248418
0.0268906
0.0261905
0.0223808
0.0167081
0.0111108
0.00443693
0.0211358
0.028766
0.0292553
0.0279196
0.025907
0.0233415
0.0203687
0.0184599
0.0184084
0.020232
0.0230965
0.0253806
0.0253434
0.0222359
0.0170138
0.0115626
0.00725465
0.00434077
0.0220181
0.0293424
0.0293832
0.0275468
0.0250942
0.0222947
0.0195826
0.0183792
0.0191037
0.0213867
0.0237967
0.0245067
0.0223196
0.0177222
0.0124299
0.00794776
0.00501074
0.00425379
0.0226914
0.0297056
0.0293048
0.0270178
0.0242346
0.0213403
0.0190321
0.0185201
0.0198542
0.0221301
0.0235166
0.0224219
0.018652
0.0136306
0.0090298
0.0056781
0.00384966
0.00443007
0.023212
0.0298868
0.0290715
0.0263978
0.0233838
0.0204995
0.0186803
0.0187762
0.0204677
0.0222751
0.0223102
0.0196531
0.0151457
0.0104443
0.00672403
0.00437632
0.00331903
0.00485895
0.0235822
0.0299202
0.0287302
0.0257358
0.0225817
0.0198139
0.0185232
0.0190699
0.0207924
0.0217784
0.0204389
0.0167489
0.0121742
0.00812287
0.00525598
0.00370179
0.00314417
0.00531107
0.0237957
0.029836
0.0283181
0.0250661
0.0218417
0.0192573
0.0184075
0.0192973
0.0207529
0.0207387
0.0182593
0.0141045
0.0098618
0.00650799
0.00437932
0.00341091
0.00317429
0.00575923
0.0238473
0.0296572
0.0278639
0.0244073
0.0211261
0.0187901
0.0183173
0.0193932
0.0203554
0.0193432
0.0160852
0.0118929
0.00814049
0.00542592
0.00389827
0.00334789
0.00332326
0.00616517
0.0237544
0.029406
0.0273896
0.0237594
0.0203985
0.018428
0.0182434
0.0193251
0.0196681
0.0177954
0.0141165
0.0101356
0.00688912
0.00472759
0.00366961
0.0034134
0.00353183
0.00651449
0.0235342
0.0291008
0.0269119
0.0231521
0.0198094
0.0181404
0.0181512
0.0190989
0.0187932
0.0162625
0.0124406
0.00877793
0.00599614
0.00429467
0.00359358
0.00354244
0.00375731
0.00680588
0.0232019
0.0287574
0.0264491
0.0226019
0.0193019
0.0178309
0.0180286
0.0187488
0.0178363
0.0148547
0.0110689
0.00774571
0.00536763
0.00403803
0.00360241
0.0036921
0.00396988
0.00703416
0.0227697
0.0283882
0.0260131
0.0220791
0.0188307
0.0175207
0.0178745
0.0183193
0.0168855
0.0136281
0.00997396
0.00696869
0.00492956
0.00389321
0.00365109
0.00383503
0.00415108
0.00718515
0.02225
0.0280047
0.0256064
0.0215411
0.0183986
0.0172423
0.0176929
0.0178556
0.0160031
0.0125999
0.00911523
0.00638818
0.00462576
0.00381514
0.00371075
0.00395511
0.00429138
0.00724151
0.0216545
0.0276167
0.0252381
0.0210418
0.0180306
0.0169867
0.0174927
0.017398
0.0152279
0.0117651
0.00845235
0.00595789
0.00441492
0.00377328
0.00376383
0.00404419
0.00438775
0.00719385
0.0209887
0.0272326
0.0249195
0.0205926
0.0177177
0.0167444
0.0172863
0.016979
0.0145809
0.0111089
0.00795072
0.00564279
0.00426763
0.00374779
0.00380062
0.00409966
0.00444192
0.00703081
0.0202463
0.0268566
0.0246557
0.0202077
0.0174454
0.0165107
0.0170844
0.0166215
0.0140706
0.0106141
0.00758316
0.00541748
0.0041639
0.00372652
0.00381661
0.00412226
0.00445801
0.00679579
0.0193196
0.0264668
0.0244406
0.0198906
0.0172008
0.0162808
0.0168915
0.0163376
0.0136998
0.0102662
0.00733032
0.00526493
0.00409126
0.00370294
0.00381068
0.00411443
0.0044409
0.00652886
0.0181721
0.025949
0.0242615
0.0196512
0.0169911
0.0160644
0.0166943
0.0161197
0.0134784
0.0100592
0.00718372
0.00517758
0.00404459
0.00367513
0.00378402
0.00407933
0.00439517
0.0061675
0.016855
0.0252138
0.0240552
0.0195118
0.0168439
0.0158776
0.0164764
0.015927
0.0133701
0.0100226
0.00717018
0.00517232
0.00403378
0.003648
0.00374064
0.00402029
0.00432434
0.00567957
0.0154185
0.0242522
0.0237952
0.0194588
0.0167594
0.0157189
0.0162418
0.015756
0.0133535
0.010113
0.00727726
0.0052614
0.00408608
0.00364854
0.00369251
0.00394038
0.00422903
0.00506026
0.0138985
0.0230655
0.0234455
0.01947
0.0167366
0.0155907
0.0159966
0.0155992
0.0134092
0.0103144
0.0074996
0.005446
0.00420618
0.00368699
0.0036566
0.00385513
0.0041161
0.00432591
0.0123377
0.0216688
0.022967
0.0195172
0.0167738
0.0154987
0.0157491
0.0154473
0.0135143
0.010608
0.00783027
0.00572845
0.00440216
0.00377606
0.0036473
0.00377749
0.00399828
0.00350524
0.0107794
0.0200945
0.0223248
0.019564
0.0168701
0.015451
0.0155109
0.015292
0.0136443
0.0109713
0.00825926
0.00611026
0.00468336
0.00393078
0.00368205
0.00372392
0.00388981
0.00265139
0.00926854
0.0183924
0.021497
0.019565
0.0170093
0.0154538
0.015296
0.0151286
0.0137747
0.0113778
0.00877179
0.00658999
0.00505822
0.00416669
0.00378018
0.00371388
0.00380808
0.0018441
0.00784881
0.0166303
0.0204825
0.0194575
0.0171592
0.0155077
0.0151184
0.0149579
0.0138838
0.0117979
0.00934718
0.0071613
0.0055321
0.00449768
0.00396113
0.00376877
0.0037734
0.0011693
0.00654771
0.0148776
0.0193044
0.0191827
0.0172774
0.0156053
0.0149888
0.0147857
0.0139555
0.0122009
0.00995849
0.00781126
0.00610524
0.00493386
0.00424238
0.00391023
0.0038081
0.000676166
0.00537883
0.0131916
0.0180065
0.0187248
0.0173203
0.0157175
0.0149109
0.0146201
0.0139802
0.0125573
0.0105727
0.00851881
0.00677086
0.0054797
0.00463725
0.00415797
0.00393489
0.000363152
0.00434677
0.011612
0.0166429
0.0180901
0.0172519
0.0158175
0.0148814
0.0144728
0.0139571
0.012842
0.0111526
0.00925345
0.00751306
0.00613224
0.00515295
0.00452749
0.00417461
0.000189577
0.00344425
0.0101589
0.0152689
0.0173056
0.0170469
0.0158772
0.0148879
0.0143558
0.0138957
0.0130394
0.0116606
0.00997544
0.00830474
0.00687884
0.00578891
0.00502805
0.00454411
0.00010523
0.00266841
0.00884029
0.0139353
0.0164166
0.0167027
0.0158649
0.0149085
0.014274
0.0138123
0.0131471
0.0120651
0.0106388
0.00910591
0.00769446
0.00653445
0.00566089
0.0050542
9.66758e-05
0.00202486
0.00766042
0.0126844
0.0154799
0.0162391
0.0157635
0.0149194
0.0142256
0.0137258
0.0131772
0.0123482
0.011199
0.00986523
0.00853844
0.00736521
0.00641664
0.00570771
9.14439e-05
0.00151055
0.00661606
0.0115476
0.0145564
0.0156967
0.0155735
0.0149013
0.0142022
0.0136539
0.0131541
0.0125115
0.0116227
0.0105275
0.00935447
0.00823819
0.00726998
0.00649536
8.41939e-05
0.00112386
0.00570482
0.0105452
0.0137031
0.0151323
0.0153182
0.0148452
0.0141919
0.0136082
0.0131088
0.0125773
0.0118993
0.0110468
0.0100784
0.00909118
0.00817353
0.00738836
7.43494e-05
0.000843123
0.00490803
0.00967517
0.0129613
0.0146084
0.0150424
0.0147629
0.0141908
0.013596
0.0130726
0.0125842
0.012046
0.0114016
0.0106538
0.00985131
0.00905735
0.00833025
6.5505e-05
0.000636804
0.0041468
0.00888492
0.0123378
0.0141774
0.0148045
0.0146883
0.0142084
0.0136253
0.0130733