/*--------------------------------*- C++ -*----------------------------------*\
| =========                 |                                                 |
| \\      /  F ield         | OpenFOAM: The Open Source CFD Toolbox           |
|  \\    /   O peration     | Version:  v2012                                 |
|   \\  /    A nd           | Website:  www.openfoam.com                      |
|    \\/     M anipulation  |                                                 |
\*---------------------------------------------------------------------------*/
FoamFile
{
    version     2.0;
    format      ascii;
    class       volScalarField;
    location    "984";
    object      p;
}
// * * * * * * * * * * * * * * * * * * * * * * * * * * * * * * * * * * * * * //

dimensions      [0 2 -2 0 0 0 0];


internalField   nonuniform List<scalar> 
6066
(
1.51365
1.51421
1.5162
1.51975
1.52483
1.53141
1.53953
1.54912
1.5597
1.57073
1.58204
1.59356
1.60528
1.61726
1.62958
1.64188
1.65357
1.66689
1.69143
1.73065
1.5119
1.51234
1.51431
1.518
1.52327
1.53011
1.53847
1.54821
1.55895
1.57024
1.5817
1.5932
1.60486
1.61677
1.62884
1.6407
1.65184
1.66327
1.67929
1.698
1.50265
1.50422
1.5077
1.51287
1.51939
1.52723
1.53627
1.54637
1.5573
1.56873
1.58017
1.5916
1.60347
1.61563
1.62765
1.63926
1.65034
1.66204
1.67465
1.68148
1.49125
1.49442
1.49949
1.50614
1.51405
1.52304
1.53297
1.54368
1.55498
1.56664
1.57838
1.59021
1.60229
1.61446
1.62638
1.63774
1.64869
1.65996
1.67007
1.67408
1.47804
1.48323
1.49023
1.49862
1.50804
1.51829
1.52921
1.54068
1.55254
1.56463
1.57679
1.58903
1.60136
1.61364
1.6256
1.63694
1.64787
1.6587
1.66748
1.67076
1.46301
1.4707
1.48008
1.49053
1.50167
1.51332
1.52535
1.53767
1.55019
1.5628
1.57539
1.588
1.6006
1.61308
1.62519
1.63663
1.64764
1.65852
1.66733
1.67063
1.44617
1.45714
1.46939
1.48221
1.49524
1.50839
1.5216
1.53483
1.54805
1.5612
1.57421
1.58717
1.60008
1.6128
1.62515
1.63683
1.64802
1.65944
1.66965
1.6737
1.42786
1.44287
1.45858
1.47404
1.48904
1.5037
1.5181
1.53227
1.54624
1.55995
1.57336
1.58667
1.59992
1.61295
1.62566
1.63779
1.64927
1.66121
1.67399
1.6809
1.40466
1.42683
1.44721
1.46563
1.48255
1.4986
1.51413
1.52936
1.54423
1.55869
1.57274
1.58646
1.59992
1.61318
1.62625
1.63884
1.65047
1.66222
1.67845
1.69726
1.38534
1.41637
1.44042
1.46067
1.47854
1.4952
1.5113
1.52698
1.54226
1.55716
1.57164
1.58573
1.5995
1.61308
1.62661
1.63977
1.65203
1.66573
1.69049
1.72979
1.59533
1.59441
1.59334
1.592
1.59033
1.58833
1.58594
1.58313
1.57998
1.57644
1.57234
1.56754
1.56194
1.55558
1.54877
1.54184
1.53514
1.52896
1.5236
1.51933
1.5163
1.51443
1.59541
1.59455
1.59347
1.59215
1.59067
1.58888
1.58657
1.58377
1.58082
1.57779
1.5742
1.56975
1.56424
1.55777
1.55073
1.54348
1.53634
1.52964
1.52369
1.51882
1.51525
1.51298
1.5957
1.59494
1.59393
1.59275
1.59148
1.58994
1.58779
1.58504
1.58195
1.57846
1.57417
1.56884
1.5623
1.55468
1.54639
1.53788
1.52963
1.52202
1.51522
1.50962
1.5056
1.50318
1.59621
1.59565
1.59478
1.59374
1.59243
1.59055
1.58773
1.58389
1.57909
1.57335
1.56659
1.55878
1.55007
1.54077
1.53126
1.52195
1.51328
1.5057
1.49942
1.49469
1.4917
1.49045
1.59701
1.59655
1.59549
1.5938
1.59124
1.58749
1.58232
1.57577
1.56804
1.55939
1.55003
1.54019
1.53015
1.52019
1.5106
1.50166
1.49369
1.48694
1.48151
1.47761
1.47556
1.47556
1.59733
1.59608
1.59356
1.58967
1.58424
1.57724
1.5688
1.55924
1.54894
1.53826
1.52752
1.51693
1.50667
1.4969
1.48777
1.47947
1.47226
1.46628
1.46159
1.45836
1.45717
1.45851
1.59524
1.59154
1.58601
1.5787
1.56977
1.55952
1.54835
1.5367
1.52494
1.51335
1.50215
1.49148
1.48144
1.47209
1.46343
1.4556
1.44891
1.44359
1.43956
1.43674
1.43618
1.43901
1.58852
1.58107
1.57185
1.5611
1.54924
1.5367
1.52387
1.51116
1.49877
1.48678
1.47536
1.46471
1.4549
1.44585
1.43742
1.42993
1.42391
1.41952
1.41638
1.41385
1.41292
1.41708
1.57596
1.5647
1.55229
1.53896
1.52521
1.5113
1.49743
1.48399
1.4711
1.45861
1.44696
1.43663
1.42732
1.41879
1.4112
1.40457
1.39892
1.39455
1.39168
1.38917
1.38598
1.38797
1.55808
1.54399
1.52939
1.51428
1.49925
1.4844
1.46967
1.45585
1.44303
1.43089
1.41983
1.40987
1.40075
1.39242
1.38522
1.37921
1.37409
1.37014
1.36854
1.36829
1.36296
1.35573
1.60033
1.60059
1.60112
1.60166
1.60187
1.6016
1.60101
1.60043
1.60007
1.6
1.60008
1.6002
1.60025
1.6001
1.59959
1.59874
1.59766
1.59641
1.60027
1.6005
1.60098
1.60151
1.60171
1.60141
1.60083
1.6003
1.60004
1.60004
1.60016
1.60028
1.60029
1.6001
1.59953
1.59863
1.59753
1.59638
1.60006
1.60034
1.6008
1.60126
1.60132
1.60091
1.60031
1.59988
1.59982
1.60004
1.60033
1.60053
1.60052
1.60023
1.59951
1.5985
1.5974
1.59644
1.59973
1.60013
1.60056
1.60077
1.60046
1.59975
1.59909
1.59886
1.59921
1.59992
1.60062
1.60106
1.6011
1.60063
1.59971
1.59855
1.59751
1.59674
1.59935
1.59991
1.60017
1.59974
1.59868
1.59753
1.59684
1.597
1.59809
1.59964
1.60104
1.60192
1.60205
1.60136
1.60019
1.59893
1.59801
1.59739
1.59891
1.59962
1.59935
1.59776
1.59568
1.59406
1.59345
1.59429
1.59647
1.59914
1.6015
1.60293
1.60313
1.60226
1.60095
1.59976
1.599
1.59825
1.59838
1.59908
1.59777
1.59455
1.59138
1.58937
1.5892
1.59103
1.59445
1.59841
1.60179
1.60373
1.60401
1.60316
1.60194
1.60084
1.59979
1.59801
1.59783
1.59811
1.59515
1.59032
1.58623
1.58419
1.58469
1.58751
1.59217
1.59736
1.60161
1.60393
1.60446
1.60391
1.60285
1.6013
1.59874
1.59458
1.59734
1.5966
1.59161
1.58555
1.58108
1.57942
1.58059
1.58426
1.58989
1.59594
1.60069
1.60338
1.60434
1.6041
1.60273
1.59959
1.59395
1.58607
1.59679
1.59445
1.58772
1.58103
1.57675
1.57564
1.57734
1.58159
1.58774
1.59409
1.59904
1.60204
1.60335
1.60296
1.60029
1.59422
1.58433
1.57205
1.53564
1.51975
1.50372
1.48738
1.47177
1.45684
1.44206
1.42787
1.41449
1.40228
1.39144
1.38198
1.37408
1.36793
1.3636
1.36069
1.3587
1.3575
1.35759
1.35824
1.35356
1.33936
1.51032
1.49345
1.47704
1.46057
1.44411
1.42836
1.41345
1.39969
1.38763
1.37758
1.36949
1.36341
1.35922
1.35674
1.35561
1.35544
1.3558
1.35647
1.35714
1.35716
1.35534
1.35123
1.48516
1.46801
1.45085
1.43421
1.41836
1.40362
1.39045
1.37924
1.37028
1.36357
1.35891
1.35603
1.35455
1.35407
1.35412
1.35435
1.35473
1.35532
1.35598
1.35643
1.35633
1.3559
1.46083
1.44379
1.42758
1.41234
1.39856
1.38647
1.37635
1.36834
1.36238
1.35827
1.3557
1.35429
1.35362
1.35338
1.35347
1.35385
1.35447
1.35526
1.35618
1.35714
1.35782
1.35819
1.43941
1.42394
1.41004
1.39755
1.38673
1.37762
1.37023
1.36448
1.36024
1.35729
1.35534
1.35414
1.35354
1.3534
1.35365
1.3542
1.355
1.35592
1.35701
1.35822
1.35923
1.35978
1.42279
1.41026
1.39948
1.39004
1.38191
1.37496
1.36914
1.36441
1.3607
1.35789
1.35591
1.3547
1.35409
1.35393
1.35418
1.35475
1.3555
1.35643
1.35763
1.35899
1.3601
1.36065
1.41197
1.4029
1.3951
1.38807
1.38166
1.3758
1.37052
1.36591
1.36208
1.35912
1.35692
1.35542
1.35456
1.35424
1.35432
1.35477
1.35548
1.35642
1.35766
1.35906
1.36019
1.36075
1.40659
1.40053
1.39489
1.38931
1.38369
1.37809
1.3727
1.36778
1.36356
1.36018
1.35755
1.35554
1.35432
1.35383
1.35381
1.35415
1.35481
1.35575
1.357
1.3584
1.35952
1.36012
1.40517
1.40114
1.39677
1.39184
1.38639
1.3806
1.37473
1.36913
1.36411
1.36011
1.35714
1.35492
1.35355
1.35287
1.3527
1.35296
1.35359
1.35455
1.35581
1.35718
1.3583
1.35891
1.40581
1.40296
1.39922
1.39451
1.38889
1.38255
1.37591
1.3696
1.36405
1.35951
1.3561
1.35371
1.35225
1.35152
1.35132
1.35157
1.3522
1.35316
1.3544
1.35572
1.3568
1.35735
1.40699
1.40483
1.40143
1.39666
1.39059
1.3836
1.37628
1.36931
1.36326
1.35847
1.35499
1.35265
1.35121
1.35045
1.35022
1.35042
1.35101
1.35193
1.35311
1.35431
1.35534
1.35584
1.40775
1.40604
1.40276
1.39775
1.39122
1.38372
1.37597
1.36869
1.36248
1.35764
1.35419
1.35192
1.35054
1.34981
1.34957
1.34974
1.35026
1.35111
1.3522
1.35332
1.3542
1.3546
1.40734
1.40579
1.40243
1.39725
1.39057
1.38299
1.37521
1.36794
1.36178
1.35704
1.35371
1.35156
1.35029
1.34963
1.34942
1.34957
1.35004
1.35079
1.35175
1.35275
1.35342
1.35367
1.40485
1.40314
1.39968
1.39462
1.38828
1.38113
1.3738
1.36694
1.3611
1.35659
1.35345
1.35147
1.35035
1.34982
1.34969
1.34987
1.35031
1.35095
1.35174
1.35252
1.35297
1.35305
1.39949
1.39748
1.39412
1.38954
1.38397
1.37775
1.37135
1.36532
1.36013
1.35609
1.35328
1.35155
1.35063
1.35029
1.3503
1.35055
1.35096
1.35149
1.35207
1.35259
1.35281
1.35276
1.39112
1.38888
1.38576
1.38186
1.37732
1.37235
1.36729
1.36252
1.35839
1.35517
1.35294
1.35161
1.35101
1.3509
1.35109
1.35143
1.35182
1.3522
1.35253
1.35276
1.35279
1.35266
1.38028
1.37788
1.37504
1.37181
1.36833
1.36473
1.36121
1.35796
1.35525
1.35328
1.35201
1.35138
1.35126
1.35148
1.35188
1.35231
1.35266
1.35287
1.35294
1.3529
1.35278
1.35265
1.36787
1.36538
1.36277
1.36008
1.35751
1.3552
1.35317
1.35146
1.35027
1.34982
1.3499
1.35036
1.35105
1.35179
1.35247
1.35299
1.35329
1.35335
1.35321
1.35298
1.35278
1.35266
1.35486
1.35232
1.34992
1.34773
1.3458
1.3442
1.34333
1.34326
1.34354
1.34449
1.3461
1.34795
1.34983
1.35145
1.35264
1.35335
1.35362
1.35356
1.3533
1.35297
1.35275
1.35265
1.34203
1.33947
1.33723
1.33539
1.334
1.33313
1.33291
1.33364
1.33507
1.33728
1.34033
1.34367
1.34705
1.34998
1.35208
1.35325
1.35363
1.3535
1.35318
1.35284
1.35263
1.35257
1.32993
1.32738
1.32526
1.32364
1.32258
1.32215
1.32249
1.32379
1.32605
1.3289
1.33275
1.33753
1.3424
1.34691
1.35039
1.3525
1.3533
1.35325
1.3529
1.35258
1.35238
1.35233
1.31877
1.31625
1.31424
1.3128
1.31198
1.31184
1.31249
1.31404
1.31656
1.32007
1.32467
1.33012
1.33604
1.34205
1.3472
1.35077
1.35251
1.35283
1.35253
1.3522
1.35197
1.35193
1.30859
1.30609
1.30417
1.30287
1.30223
1.30231
1.30319
1.30494
1.30762
1.31131
1.31613
1.32205
1.32868
1.33567
1.3424
1.34774
1.35098
1.35215
1.35209
1.35171
1.35144
1.35137
1.29937
1.29688
1.29503
1.29383
1.29333
1.29357
1.2946
1.29649
1.29928
1.30306
1.30789
1.31384
1.32083
1.32845
1.33625
1.34329
1.3484
1.35099
1.35154
1.35119
1.35082
1.35064
1.29107
1.28858
1.28678
1.28566
1.28526
1.28562
1.28676
1.28875
1.29161
1.29542
1.30022
1.30608
1.31299
1.32085
1.32932
1.33763
1.34459
1.34901
1.35064
1.35053
1.35005
1.34972
1.28367
1.28117
1.27939
1.27833
1.278
1.27844
1.27968
1.28174
1.28465
1.28845
1.29319
1.29892
1.30568
1.31345
1.32211
1.33118
1.33962
1.34596
1.34915
1.34961
1.34901
1.34857
1.27715
1.27463
1.27286
1.27183
1.27155
1.27206
1.27335
1.27546
1.2784
1.28219
1.28687
1.29246
1.29902
1.30658
1.31513
1.32444
1.33378
1.34183
1.34689
1.34835
1.34775
1.34715
1.2715
1.26895
1.26718
1.26616
1.26592
1.26646
1.26779
1.26993
1.27288
1.27665
1.28127
1.28674
1.2931
1.3004
1.30867
1.31784
1.32749
1.33677
1.34375
1.34667
1.34632
1.34545
1.2667
1.26413
1.26234
1.26133
1.2611
1.26166
1.26302
1.26518
1.26813
1.27187
1.27641
1.28176
1.28794
1.29498
1.30291
1.31179
1.32145
1.33116
1.3396
1.34444
1.3446
1.34344
1.26276
1.26016
1.25835
1.25734
1.25711
1.25768
1.25905
1.26121
1.26415
1.26786
1.27233
1.27756
1.28356
1.29035
1.29795
1.30646
1.31589
1.32556
1.33482
1.34157
1.34242
1.34105
1.25967
1.25703
1.2552
1.25418
1.25395
1.25453
1.25591
1.25806
1.26098
1.26465
1.26905
1.27416
1.27999
1.28654
1.29381
1.30189
1.31081
1.32025
1.32977
1.33782
1.33967
1.33827
1.25742
1.25474
1.25289
1.25185
1.25162
1.25221
1.25359
1.25575
1.25865
1.26227
1.26659
1.27159
1.27725
1.28357
1.29054
1.29818
1.30654
1.31557
1.32468
1.33315
1.33652
1.33528
1.256
1.25329
1.25141
1.25036
1.25013
1.25072
1.25212
1.25429
1.25718
1.26075
1.26499
1.26987
1.27537
1.28147
1.28815
1.29539
1.30325
1.31177
1.32032
1.32856
1.33334
1.33239
1.25539
1.25266
1.25076
1.2497
1.24946
1.25006
1.25148
1.25365
1.25654
1.26009
1.26427
1.26904
1.27439
1.28028
1.2867
1.29359
1.30098
1.30888
1.31697
1.32482
1.33046
1.3299
1.2556
1.25283
1.25091
1.24983
1.24962
1.25024
1.25167
1.25385
1.25672
1.26026
1.26441
1.2691
1.27431
1.28002
1.28619
1.29278
1.29974
1.30709
1.31479
1.32196
1.32802
1.32808
1.2566
1.2538
1.25186
1.25078
1.25059
1.25124
1.25269
1.25487
1.25775
1.26127
1.26538
1.27004
1.27516
1.28072
1.28667
1.29298
1.29958
1.30646
1.31366
1.32025
1.32632
1.32715
1.25838
1.25556
1.2536
1.25253
1.25236
1.25305
1.25453
1.25674
1.25963
1.26314
1.26722
1.27183
1.27691
1.28237
1.28816
1.29423
1.30053
1.30702
1.3136
1.31995
1.32575
1.32725
1.26092
1.25806
1.2561
1.25503
1.25489
1.25563
1.25716
1.25942
1.26235
1.26588
1.26996
1.27453
1.27954
1.28495
1.29064
1.29653
1.3026
1.30876
1.31496
1.32112
1.32646
1.32843
1.26417
1.26129
1.25931
1.25826
1.25815
1.25895
1.26055
1.26288
1.26587
1.26946
1.27357
1.27814
1.28311
1.28845
1.29408
1.29988
1.30576
1.31169
1.31762
1.32353
1.32848
1.33078
1.2681
1.26519
1.26321
1.26217
1.26209
1.26296
1.26465
1.26708
1.27017
1.27385
1.27803
1.28265
1.28762
1.29291
1.29848
1.30425
1.31003
1.31578
1.32155
1.32719
1.3319
1.33438
1.27263
1.2697
1.26771
1.26669
1.26666
1.26761
1.26942
1.27196
1.27518
1.27899
1.28329
1.288
1.29304
1.29835
1.30388
1.30961
1.31536
1.32101
1.32668
1.332
1.33672
1.33927
1.27769
1.27473
1.27275
1.27176
1.27179
1.27283
1.27477
1.27748
1.28086
1.28484
1.2893
1.29416
1.29932
1.30472
1.31029
1.31598
1.32174
1.32738
1.33292
1.33785
1.34285
1.34535
1.2832
1.28021
1.27824
1.27729
1.27739
1.27853
1.28064
1.28355
1.28714
1.29133
1.296
1.30107
1.30642
1.31197
1.31765
1.32339
1.32918
1.33485
1.34033
1.34518
1.35031
1.35255
1.28911
1.28605
1.28407
1.28317
1.28336
1.28463
1.28693
1.29008
1.29393
1.29838
1.30334
1.30868
1.31428
1.32007
1.32594
1.33182
1.33768
1.34342
1.34895
1.35398
1.35907
1.36102
1.29536
1.29218
1.29017
1.28931
1.2896
1.29102
1.29353
1.29696
1.30113
1.30592
1.31123
1.31691
1.32286
1.32895
1.33509
1.34121
1.34721
1.35308
1.35874
1.36396
1.369
1.3708
1.30196
1.29857
1.29646
1.29561
1.296
1.29759
1.30033
1.30408
1.30864
1.31385
1.31958
1.3257
1.33207
1.33856
1.34508
1.35151
1.35775
1.36383
1.36965
1.37505
1.37993
1.38186
1.30893
1.30519
1.30287
1.30195
1.3024
1.30417
1.30719
1.3113
1.31632
1.32205
1.32831
1.33496
1.34185
1.34885
1.35583
1.36269
1.3693
1.37565
1.38168
1.38727
1.39197
1.3942
1.31614
1.31185
1.30918
1.3081
1.30859
1.31057
1.31392
1.31848
1.32404
1.33038
1.33729
1.34459
1.35212
1.35973
1.3673
1.3747
1.38181
1.38853
1.39488
1.40079
1.40565
1.40798
1.32345
1.3184
1.31524
1.31393
1.31444
1.31666
1.3204
1.32547
1.33165
1.33872
1.3464
1.35448
1.36278
1.37114
1.37942
1.38748
1.39519
1.40239
1.40917
1.41555
1.42081
1.42315
1.33079
1.3248
1.32097
1.31931
1.31981
1.32227
1.32646
1.33211
1.33901
1.3469
1.35549
1.36451
1.37373
1.38298
1.3921
1.40095
1.40937
1.41716
1.42446
1.43134
1.43697
1.43953
1.33794
1.33073
1.326
1.32385
1.32428
1.32703
1.33176
1.33813
1.34588
1.35474
1.36441
1.37453
1.38484
1.39514
1.40525
1.41502
1.42426
1.43276
1.44065
1.44807
1.45412
1.45705
1.34431
1.33548
1.32959
1.32682
1.32721
1.33036
1.3358
1.34312
1.35194
1.36197
1.37291
1.38435
1.39595
1.40747
1.41874
1.42956
1.43975
1.44907
1.4576
1.46556
1.47211
1.47561
1.34886
1.33792
1.33062
1.32718
1.32761
1.33136
1.3378
1.34639
1.35662
1.36814
1.38062
1.39365
1.40679
1.41976
1.43236
1.44439
1.45564
1.46587
1.47509
1.48359
1.49068
1.49495
1.35037
1.33655
1.32754
1.32345
1.32413
1.32881
1.33666
1.34697
1.35911
1.37256
1.38697
1.40195
1.41697
1.43167
1.44581
1.45921
1.47165
1.48289
1.49284
1.50187
1.50951
1.51459
1.34718
1.32939
1.31834
1.31383
1.31514
1.32119
1.33099
1.34364
1.35829
1.37427
1.39116
1.40856
1.42589
1.44268
1.45866
1.47364
1.4874
1.49973
1.51046
1.52004
1.52829
1.53399
1.33714
1.31397
1.30063
1.29615
1.29865
1.30671
1.31919
1.33492
1.35286
1.37211
1.39215
1.41257
1.43275
1.45209
1.47028
1.48711
1.50238
1.51588
1.52745
1.53762
1.54645
1.55245
1.31719
1.28698
1.27218
1.26866
1.27291
1.28371
1.29978
1.31946
1.34144
1.36474
1.3887
1.41283
1.43651
1.45899
1.47985
1.49889
1.51591
1.53073
1.54318
1.55403
1.56332
1.56912
1.28311
1.24313
1.22938
1.22863
1.23576
1.2504
1.27115
1.29578
1.32276
1.35101
1.37966
1.40817
1.43601
1.46228
1.48639
1.50807
1.52717
1.54354
1.55702
1.56857
1.57832
1.58379
1.22758
1.18261
1.17551
1.17603
1.18637
1.20672
1.23349
1.26346
1.2958
1.32971
1.36393
1.39766
1.43024
1.4609
1.48884
1.51367
1.53521
1.5534
1.56812
1.58042
1.59053
1.59601
1.10894
1.09086
1.10456
1.11152
1.12488
1.15089
1.18482
1.22117
1.25967
1.29979
1.34019
1.37991
1.41804
1.45373
1.48612
1.51463
1.53904
1.55933
1.57544
1.58862
1.59919
1.60452
1.59566
1.59183
1.58395
1.57721
1.57361
1.57306
1.57507
1.57955
1.58566
1.59183
1.59671
1.59986
1.60102
1.59948
1.59413
1.58389
1.56929
1.55268
1.59391
1.58911
1.58096
1.5749
1.57197
1.57177
1.57383
1.57812
1.58373
1.5893
1.59378
1.59647
1.59643
1.59241
1.5831
1.56814
1.54945
1.52942
1.59245
1.58726
1.57951
1.57431
1.57185
1.57166
1.57355
1.5773
1.58203
1.58666
1.59019
1.59142
1.58891
1.58134
1.56775
1.54842
1.52691
1.50493
1.59223
1.58722
1.57994
1.57536
1.57303
1.57263
1.5741
1.577
1.58056
1.58387
1.58566
1.5843
1.57831
1.56684
1.54885
1.52513
1.50333
1.4809
1.59375
1.58903
1.58229
1.57791
1.57543
1.57462
1.57538
1.57716
1.57927
1.58069
1.57985
1.57492
1.56479
1.54876
1.52634
1.50445
1.48052
1.45806
1.59734
1.5923
1.58644
1.58189
1.57903
1.57762
1.57738
1.57774
1.57797
1.57678
1.57244
1.5632
1.54813
1.52791
1.50647
1.48483
1.45901
1.43872
1.60314
1.59766
1.5922
1.58734
1.58391
1.58165
1.58006
1.57858
1.57633
1.57171
1.56318
1.54924
1.52918
1.50776
1.4869
1.46251
1.44103
1.42435
1.6109
1.60518
1.5995
1.59424
1.59002
1.58653
1.58318
1.57936
1.57396
1.56526
1.55219
1.53345
1.5091
1.48754
1.46479
1.44413
1.42781
1.41533
1.62026
1.61436
1.60826
1.60237
1.59709
1.59203
1.58645
1.57972
1.57048
1.55704
1.53859
1.51474
1.49091
1.4677
1.4467
1.4306
1.41907
1.41083
1.63108
1.62482
1.61819
1.61147
1.60492
1.59799
1.58967
1.57935
1.56561
1.54693
1.52302
1.49736
1.47438
1.4502
1.43267
1.42085
1.41379
1.4092
1.64297
1.6363
1.62901
1.62133
1.61339
1.60421
1.5926
1.578
1.55926
1.53488
1.50593
1.48106
1.45578
1.43505
1.42164
1.41402
1.41069
1.40882
1.65534
1.64845
1.6404
1.63168
1.62218
1.61025
1.59473
1.5752
1.55087
1.52116
1.48957
1.46261
1.43891
1.42249
1.41311
1.40919
1.40859
1.40853
1.66756
1.66082
1.65205
1.64219
1.63077
1.61552
1.59558
1.57077
1.54054
1.50497
1.47466
1.44611
1.42514
1.41242
1.40652
1.40534
1.4065
1.40753
1.67952
1.67298
1.66356
1.65241
1.6386
1.6195
1.59474
1.5643
1.52832
1.48988
1.45845
1.43141
1.41373
1.40426
1.40103
1.4016
1.40357
1.40498
1.69104
1.68448
1.67435
1.66173
1.64508
1.62171
1.59185
1.55559
1.51323
1.47604
1.44305
1.41858
1.40407
1.39732
1.39591
1.39711
1.39901
1.40013
1.70125
1.69473
1.68373
1.66947
1.64961
1.62174
1.58656
1.54507
1.49911
1.46137
1.42898
1.40757
1.3958
1.39106
1.39033
1.39123
1.3924
1.39253
1.70941
1.7031
1.69114
1.67507
1.65171
1.61929
1.57871
1.53177
1.48608
1.44693
1.41665
1.39815
1.38857
1.38485
1.38384
1.38379
1.38367
1.38245
1.71548
1.70904
1.69613
1.67812
1.65117
1.61454
1.56945
1.51686
1.47226
1.43321
1.40596
1.38995
1.38184
1.37823
1.3764
1.37503
1.37324
1.37065
1.71928
1.7123
1.69848
1.67844
1.64802
1.60751
1.55859
1.50388
1.45882
1.42105
1.39674
1.38271
1.37529
1.37116
1.36814
1.36519
1.3618
1.35808
1.72024
1.71287
1.69812
1.67606
1.6425
1.5981
1.54491
1.49173
1.4456
1.41048
1.38871
1.37605
1.36869
1.36371
1.35934
1.35478
1.35008
1.34555
1.71837
1.71077
1.69513
1.67113
1.6348
1.5874
1.53031
1.47906
1.4334
1.40131
1.38157
1.36978
1.36215
1.35608
1.35025
1.34433
1.33867
1.3336
1.71413
1.7063
1.68983
1.6641
1.62581
1.57701
1.51799
1.46695
1.42275
1.39336
1.37516
1.36379
1.35563
1.34839
1.34122
1.33425
1.32793
1.32253
1.70791
1.69992
1.68272
1.65559
1.61573
1.56538
1.50703
1.45541
1.41356
1.38642
1.36934
1.35806
1.34917
1.34081
1.33255
1.3248
1.31803
1.31241
1.70021
1.69211
1.67432
1.64609
1.60444
1.55187
1.49565
1.44469
1.40561
1.38032
1.36401
1.35258
1.34291
1.33354
1.32443
1.31611
1.30902
1.30323
1.69168
1.68349
1.66522
1.63616
1.59319
1.5395
1.48514
1.43537
1.39882
1.37494
1.35912
1.3474
1.33697
1.32675
1.31698
1.30825
1.3009
1.29498
1.68298
1.67475
1.65606
1.6265
1.58319
1.52932
1.47619
1.42769
1.39312
1.37024
1.35468
1.34259
1.33146
1.32055
1.31027
1.30123
1.29368
1.28762
1.67465
1.66647
1.64743
1.61761
1.57451
1.52127
1.46863
1.4215
1.38842
1.3662
1.3507
1.33821
1.32648
1.31502
1.30436
1.29506
1.28733
1.28116
1.66725
1.65902
1.63972
1.60969
1.56675
1.51474
1.4623
1.41662
1.38463
1.3628
1.34723
1.33434
1.32211
1.31021
1.29925
1.28974
1.28185
1.27556
1.66125
1.65275
1.63325
1.60297
1.56004
1.50916
1.45733
1.41298
1.38171
1.36005
1.34431
1.33104
1.3184
1.30616
1.29496
1.28527
1.27723
1.27082
1.65681
1.64801
1.62818
1.5977
1.5549
1.50513
1.45395
1.41059
1.37966
1.35797
1.34197
1.32837
1.3154
1.3029
1.29149
1.28164
1.27345
1.26694
1.65392
1.64491
1.62465
1.59404
1.55164
1.50295
1.45229
1.40949
1.37854
1.35661
1.34029
1.32636
1.31314
1.30044
1.28886
1.27885
1.27053
1.2639
1.65221
1.64359
1.62277
1.59212
1.55024
1.5025
1.45238
1.40974
1.37845
1.35606
1.33929
1.32506
1.31164
1.29878
1.28705
1.27689
1.26843
1.26171
1.65159
1.64346
1.62251
1.59195
1.55064
1.50365
1.45423
1.41143
1.37948
1.3564
1.33906
1.32448
1.3109
1.29793
1.28605
1.27575
1.26717
1.26035
1.65169
1.64454
1.6238
1.59345
1.55284
1.5064
1.4578
1.41458
1.3817
1.35772
1.33966
1.32467
1.31091
1.29786
1.28588
1.27544
1.26672
1.2598
1.65234
1.64654
1.62642
1.5965
1.55686
1.511
1.46304
1.41922
1.38517
1.36008
1.34115
1.32564
1.31169
1.29857
1.28651
1.27594
1.2671
1.26006
1.6533
1.64899
1.6301
1.60095
1.56257
1.51751
1.4699
1.42537
1.39001
1.36357
1.34359
1.32745
1.31323
1.30004
1.28792
1.27725
1.26828
1.26113
1.65438
1.65163
1.63463
1.60663
1.56971
1.52548
1.4783
1.43307
1.3963
1.36831
1.34707
1.33014
1.31555
1.30225
1.29008
1.27932
1.27024
1.26298
1.65561
1.65441
1.63982
1.61332
1.57796
1.53454
1.48818
1.44234
1.40416
1.37443
1.35172
1.3338
1.31869
1.30521
1.29298
1.28214
1.27295
1.26558
1.65725
1.65742
1.64548
1.62077
1.58695
1.54475
1.49906
1.45331
1.41373
1.38208
1.35766
1.33852
1.32271
1.30892
1.29657
1.28566
1.27637
1.26889
1.65941
1.66062
1.65133
1.62876
1.59659
1.55608
1.51077
1.46594
1.42508
1.3914
1.36506
1.34445
1.3277
1.31342
1.30086
1.28984
1.28045
1.27288
1.6619
1.6638
1.657
1.63701
1.60689
1.56845
1.52432
1.48009
1.43812
1.40252
1.37412
1.35176
1.33379
1.31879
1.30586
1.29465
1.28514
1.27747
1.66438
1.66663
1.66206
1.64512
1.6176
1.58152
1.53944
1.49558
1.45283
1.41555
1.38502
1.36066
1.34117
1.32516
1.31164
1.3001
1.2904
1.2826
1.66653
1.6688
1.66615
1.65267
1.62832
1.59487
1.55491
1.51188
1.4692
1.43057
1.39792
1.37138
1.35005
1.3327
1.3183
1.30623
1.29621
1.28821
1.66829
1.67028
1.66918
1.65933
1.63865
1.60823
1.5707
1.52908
1.4871
1.44754
1.41294
1.38414
1.3607
1.34165
1.32603
1.31313
1.30259
1.29427
1.66977
1.67129
1.67136
1.66489
1.64819
1.62133
1.58674
1.54733
1.50626
1.46628
1.43014
1.39913
1.37338
1.35229
1.33505
1.32097
1.30962
1.30079
1.67106
1.67208
1.67296
1.66927
1.6566
1.63374
1.6026
1.56587
1.5263
1.48663
1.44946
1.41647
1.38832
1.36488
1.34562
1.32994
1.31742
1.30782
1.67221
1.6729
1.67414
1.67248
1.66356
1.645
1.6178
1.58429
1.54692
1.50831
1.47075
1.43618
1.4057
1.3797
1.35801
1.34028
1.32616
1.31543
1.67316
1.6737
1.67494
1.67457
1.66882
1.65463
1.63185
1.6022
1.56781
1.53094
1.49372
1.45811
1.42557
1.39692
1.37247
1.35218
1.33596
1.32362
1.67389
1.67432
1.67535
1.67564
1.67234
1.66226
1.64422
1.61905
1.58837
1.55403
1.51797
1.48203
1.44783
1.41661
1.38913
1.36579
1.34684
1.33227
1.67443
1.67475
1.67551
1.67601
1.67426
1.66769
1.65444
1.63426
1.60801
1.57707
1.54303
1.50753
1.47222
1.43864
1.40801
1.38116
1.3588
1.3413
1.67479
1.67504
1.67552
1.67585
1.67492
1.67102
1.66224
1.64732
1.62614
1.59944
1.56833
1.5341
1.49833
1.46273
1.42892
1.39822
1.37179
1.35063
1.67507
1.67519
1.67533
1.67527
1.67464
1.67259
1.66764
1.65786
1.6422
1.62053
1.5932
1.56107
1.52554
1.48839
1.45149
1.41666
1.38555
1.35987
1.67539
1.67528
1.67498
1.67443
1.67376
1.67293
1.67105
1.66603
1.65607
1.63997
1.61717
1.58788
1.55322
1.51492
1.4751
1.43589
1.39954
1.36829
1.67582
1.67549
1.67465
1.67355
1.67266
1.67265
1.67315
1.67234
1.66786
1.65755
1.63976
1.61394
1.58073
1.5417
1.49901
1.45512
1.41283
1.37487
1.67636
1.67588
1.67462
1.67295
1.67182
1.6723
1.67457
1.67716
1.67746
1.67265
1.66009
1.63825
1.60709
1.56786
1.5225
1.47359
1.42433
1.37826
1.67693
1.67644
1.67501
1.6729
1.67164
1.67242
1.67587
1.68086
1.68494
1.68486
1.67724
1.6596
1.63104
1.59218
1.54462
1.49058
1.43327
1.37709
1.67743
1.67709
1.67584
1.67364
1.67229
1.67343
1.67765
1.68425
1.691
1.69443
1.69084
1.67701
1.65117
1.61319
1.56397
1.50498
1.43869
1.36987
1.67767
1.67749
1.67674
1.6751
1.67398
1.67536
1.68019
1.68799
1.69661
1.70253
1.7018
1.6908
1.6672
1.63026
1.57988
1.51633
1.44027
1.35598
1.67761
1.67746
1.67706
1.67634
1.6761
1.67793
1.68322
1.69188
1.7017
1.70932
1.71062
1.70159
1.67963
1.6437
1.59261
1.52505
1.43802
1.33367
1.67744
1.67721
1.67686
1.67657
1.67691
1.67949
1.68586
1.69498
1.70488
1.71279
1.71488
1.70696
1.68618
1.65145
1.60059
1.53075
1.435
1.29931
0.954424
1.00525
1.0352
1.0485
1.07
1.10201
1.13744
1.17638
1.2201
1.26578
1.31185
1.35724
1.40089
1.44146
1.47823
1.51051
1.53788
1.56034
1.57785
1.59183
1.60317
1.60845
0.980841
0.999415
1.00809
1.013
1.02947
1.05843
1.09457
1.13544
1.18127
1.23088
1.28177
1.33222
1.38094
1.42623
1.467
1.50282
1.53307
1.55765
1.57659
1.59135
1.60329
1.60893
0.993761
0.999911
1.00366
1.00513
1.01126
1.0279
1.05585
1.09392
1.14022
1.19223
1.24734
1.30277
1.35646
1.40672
1.45182
1.49125
1.52452
1.5514
1.5719
1.58753
1.59996
1.60593
1.00246
1.00181
1.00312
1.0047
1.00635
1.01104
1.02452
1.05095
1.09148
1.14365
1.20279
1.26407
1.32376
1.3796
1.42978
1.47337
1.51021
1.53987
1.56228
1.57902
1.59196
1.59836
1.00462
1.0031
1.00342
1.0044
1.00551
1.00663
1.00979
1.02108
1.04724
1.09098
1.14905
1.21421
1.28087
1.34354
1.39914
1.44729
1.48802
1.52088
1.54556
1.56369
1.57743
1.5846
1.00417
1.0034
1.0035
1.00409
1.0049
1.0057
1.00673
1.01013
1.0225
1.05162
1.10026
1.16354
1.23113
1.30241
1.36348
1.41578
1.46007
1.49594
1.52287
1.54246
1.55713
1.5651
1.00329
1.00314
1.00336
1.00384
1.00447
1.00511
1.00574
1.00696
1.01155
1.02714
1.06189
1.11785
1.18553
1.25747
1.32324
1.37984
1.42739
1.46585
1.49482
1.51581
1.5313
1.53977
1.0024
1.00263
1.00301
1.0035
1.00403
1.00455
1.00498
1.00549
1.0072
1.0143
1.0357
1.07915
1.14364
1.20999
1.28079
1.34119
1.39125
1.43173
1.46241
1.48458
1.50071
1.50941
1.00155
1.00201
1.00252
1.00306
1.00356
1.00397
1.00425
1.00449
1.00521
1.00835
1.0201
1.0498
1.10268
1.16786
1.23849
1.30107
1.35302
1.39494
1.42683
1.44987
1.4665
1.47525
1.00074
1.00134
1.00196
1.00256
1.00306
1.00341
1.0036
1.0037
1.00394
1.00544
1.01178
1.0309
1.0715
1.13231
1.1962
1.26118
1.31428
1.35684
1.38935
1.41293
1.42987
1.43852
1
1.00069
1.00139
1.00204
1.00256
1.00287
1.00298
1.00295
1.00301
1.00375
1.00742
1.01966
1.04935
1.10083
1.16122
1.22409
1.27627
1.31872
1.35126
1.37503
1.3921
1.40047
0.999383
1.0001
1.00085
1.00154
1.00208
1.00238
1.00242
1.0023
1.00224
1.00263
1.00492
1.01303
1.03441
1.07609
1.13262
1.18941
1.23999
1.28181
1.31382
1.33736
1.35433
1.36226
0.998902
0.999621
1.00039
1.00111
1.00168
1.00198
1.00198
1.00179
1.00162
1.00186
1.0034
1.0091
1.02461
1.05712
1.10583
1.15722
1.20679
1.24712
1.27803
1.30096
1.31754
1.32492
0.998574
0.999286
1.00007
1.00082
1.00142
1.00173
1.00169
1.00145
1.0012
1.00135
1.00251
1.0068
1.01841
1.04371
1.08499
1.13153
1.17791
1.21534
1.24463
1.26662
1.28254
1.28936
0.998408
0.99911
0.999904
1.0007
1.00135
1.00167
1.00162
1.00136
1.00106
1.00114
1.00214
1.00557
1.01472
1.03475
1.06954
1.1118
1.15279
1.18684
1.21422
1.23491
1.24991
1.25627
0.998403
0.999108
0.999922
1.00075
1.00147
1.00186
1.00186
1.00161
1.00128
1.00131
1.00223
1.00517
1.01271
1.02881
1.05745
1.09443
1.13052
1.16169
1.18704
1.20617
1.22014
1.22605
0.998561
0.999294
1.00016
1.00107
1.0019
1.0024
1.00249
1.00228
1.00195
1.00196
1.00283
1.00547
1.0119
1.02507
1.04839
1.07988
1.11167
1.13989
1.1631
1.18056
1.19347
1.19893
0.998874
0.999674
1.00063
1.00171
1.00272
1.00333
1.00358
1.00345
1.00316
1.00317
1.00401
1.00647
1.01209
1.02313
1.04228
1.069
1.09641
1.12167
1.1424
1.15805
1.16987
1.17481
0.999338
1.00025
1.00136
1.00264
1.00385
1.00477
1.00525
1.00522
1.005
1.00505
1.00587
1.00818
1.01317
1.02263
1.03851
1.06125
1.08489
1.10688
1.1247
1.13842
1.14906
1.15352
0.99995
1.00103
1.00234
1.00386
1.00537
1.00671
1.00749
1.00762
1.00754
1.00765
1.00845
1.01059
1.01502
1.0232
1.0364
1.0555
1.07592
1.09429
1.10945
1.12137
1.13091
1.13473
1.00072
1.00202
1.00361
1.00546
1.00739
1.00915
1.01032
1.01073
1.01082
1.01101
1.01181
1.01372
1.01748
1.0245
1.03541
1.05098
1.06804
1.0833
1.09627
1.10648
1.11493
1.11824
1.00165
1.00326
1.00521
1.00747
1.00989
1.01216
1.0138
1.01456
1.01483
1.01512
1.01596
1.01763
1.02048
1.02622
1.03527
1.04767
1.06151
1.07405
1.08496
1.09348
1.10077
1.10365
1.00277
1.00475
1.00714
1.0099
1.01284
1.01561
1.01778
1.01899
1.01946
1.01982
1.02068
1.02214
1.02416
1.02843
1.03576
1.04549
1.0564
1.06645
1.07526
1.08209
1.08807
1.09058
1.00408
1.00651
1.00941
1.01272
1.01624
1.01955
1.0222
1.02383
1.02451
1.0249
1.02564
1.02685
1.02836
1.03128
1.03678
1.0442
1.05244
1.06012
1.06687
1.07208
1.07662
1.07863
1.00555
1.0085
1.01195
1.01585
1.01997
1.02385
1.02696
1.02889
1.02974
1.03009
1.03059
1.03147
1.03261
1.03449
1.03819
1.04342
1.04921
1.05467
1.05949
1.06317
1.06628
1.06759
1.00708
1.01058
1.01461
1.0191
1.02379
1.02818
1.03169
1.03388
1.03481
1.03505
1.03524
1.03576
1.03655
1.03758
1.03964
1.04284
1.04642
1.04978
1.05286
1.0552
1.05692
1.05747
1.00842
1.0125
1.0171
1.02214
1.02735
1.0322
1.03604
1.03842
1.03934
1.03939
1.03924
1.0394
1.03975
1.04014
1.04093
1.04226
1.04383
1.04529
1.04676
1.04774
1.04836
1.0484
1.00916
1.0138
1.01895
1.0245
1.03018
1.03542
1.03955
1.04205
1.04293
1.04274
1.04225
1.04209
1.04206
1.04181
1.0415
1.04137
1.04124
1.04107
1.04109
1.04087
1.04049
1.04012
1.00875
1.01393
1.01959
1.02559
1.03168
1.03729
1.04168
1.04433
1.04518
1.04476
1.04397
1.04352
1.04319
1.04244
1.04121
1.03984
1.03834
1.03684
1.03565
1.03447
1.03318
1.03243
1.00663
1.01231
1.01844
1.02488
1.03137
1.03734
1.04204
1.04487
1.04576
1.04518
1.04414
1.04345
1.04287
1.04179
1.03993
1.03761
1.03499
1.03243
1.03031
1.02836
1.02628
1.02524
1.00247
1.00858
1.01514
1.02199
1.02887
1.03522
1.04028
1.04339
1.04442
1.04382
1.04261
1.04172
1.04101
1.03973
1.03753
1.03454
1.03112
1.02778
1.02492
1.02239
1.0197
1.01847
0.996246
1.00268
1.00958
1.01678
1.02402
1.03076
1.03623
1.03971
1.04103
1.04059
1.03931