/*--------------------------------*- C++ -*----------------------------------*\
| =========                 |                                                 |
| \\      /  F ield         | OpenFOAM: The Open Source CFD Toolbox           |
|  \\    /   O peration     | Version:  v2012                                 |
|   \\  /    A nd           | Website:  www.openfoam.com                      |
|    \\/     M anipulation  |                                                 |
\*---------------------------------------------------------------------------*/
FoamFile
{
    version     2.0;
    format      ascii;
    class       volVectorField;
    location    "984";
    object      U;
}
// * * * * * * * * * * * * * * * * * * * * * * * * * * * * * * * * * * * * * //

dimensions      [0 1 -1 0 0 0 0];


internalField   nonuniform List<vector> 
6066
(
(0.0141754 -0.326888 0)
(0.0140006 -0.367264 0)
(0.0139365 -0.405223 0)
(0.0141977 -0.441161 0)
(0.0149504 -0.475346 0)
(0.0162119 -0.508457 0)
(0.0180989 -0.541231 0)
(0.020475 -0.574385 0)
(0.0229248 -0.608735 0)
(0.0246205 -0.643739 0)
(0.0252798 -0.678798 0)
(0.0257082 -0.713821 0)
(0.026074 -0.748896 0)
(0.0263299 -0.784034 0)
(0.0264277 -0.819241 0)
(0.0262068 -0.854757 0)
(0.0254568 -0.89105 0)
(0.0235726 -0.927112 0)
(0.0172879 -0.957407 0)
(0.00650284 -0.977341 0)
(0.0541791 -0.888247 0)
(0.049701 -0.923858 0)
(0.0457074 -0.952196 0)
(0.0418655 -0.974971 0)
(0.0385174 -0.992914 0)
(0.0361924 -1.0069 0)
(0.0345005 -1.01751 0)
(0.0332625 -1.02508 0)
(0.032214 -1.02991 0)
(0.0314852 -1.03233 0)
(0.031061 -1.03357 0)
(0.0306525 -1.03412 0)
(0.0302606 -1.03401 0)
(0.0300902 -1.03314 0)
(0.0299914 -1.03152 0)
(0.0297449 -1.02936 0)
(0.029138 -1.02703 0)
(0.0288846 -1.02375 0)
(0.0291114 -1.01489 0)
(0.01402 -1.00293 0)
(0.071504 -1.10221 0)
(0.0614315 -1.11061 0)
(0.0527922 -1.11474 0)
(0.0457734 -1.11639 0)
(0.0402638 -1.11595 0)
(0.0360635 -1.11378 0)
(0.0329354 -1.11008 0)
(0.0305761 -1.10506 0)
(0.0287011 -1.09898 0)
(0.0271466 -1.09216 0)
(0.0259059 -1.08475 0)
(0.0251215 -1.0762 0)
(0.0246708 -1.06713 0)
(0.0241625 -1.05844 0)
(0.0235126 -1.04933 0)
(0.0226398 -1.04014 0)
(0.0213081 -1.03081 0)
(0.0194768 -1.02076 0)
(0.0162869 -1.00984 0)
(0.00786818 -1.00179 0)
(0.0743385 -1.15434 0)
(0.0620516 -1.15416 0)
(0.0517822 -1.15182 0)
(0.0433857 -1.14783 0)
(0.0366616 -1.14246 0)
(0.0314183 -1.13596 0)
(0.0273837 -1.12846 0)
(0.0242882 -1.1201 0)
(0.0218795 -1.11102 0)
(0.0199639 -1.10142 0)
(0.0184386 -1.09145 0)
(0.0173419 -1.08118 0)
(0.0165986 -1.07057 0)
(0.0159506 -1.05967 0)
(0.0152844 -1.04865 0)
(0.0144721 -1.03777 0)
(0.0133523 -1.02701 0)
(0.0118054 -1.01621 0)
(0.00907111 -1.00642 0)
(0.00364065 -1.00102 0)
(0.0734658 -1.17372 0)
(0.0595138 -1.17056 0)
(0.0479396 -1.16556 0)
(0.0385213 -1.15918 0)
(0.0309847 -1.15173 0)
(0.0250388 -1.1434 0)
(0.0203867 -1.13434 0)
(0.0167538 -1.12463 0)
(0.0139003 -1.1144 0)
(0.0116406 -1.10378 0)
(0.00985597 -1.09287 0)
(0.00850918 -1.08169 0)
(0.00753444 -1.07024 0)
(0.00677898 -1.05861 0)
(0.00613851 -1.04701 0)
(0.00554254 -1.03567 0)
(0.00492303 -1.02466 0)
(0.0042087 -1.01407 0)
(0.0030818 -1.00525 0)
(0.00114049 -1.00083 0)
(0.0711574 -1.18496 0)
(0.0554389 -1.18001 0)
(0.0426083 -1.17324 0)
(0.0322755 -1.16531 0)
(0.0240531 -1.15655 0)
(0.0175496 -1.14716 0)
(0.0124298 -1.13725 0)
(0.00840383 -1.12689 0)
(0.00522587 -1.11616 0)
(0.0027183 -1.10515 0)
(0.00075254 -1.09391 0)
(-0.000760949 -1.08245 0)
(-0.00187944 -1.07079 0)
(-0.00268176 -1.059 0)
(-0.00322254 -1.04727 0)
(-0.00350708 -1.03584 0)
(-0.00354751 -1.02476 0)
(-0.00333198 -1.01412 0)
(-0.00259777 -1.00527 0)
(-0.000986412 -1.00083 0)
(0.0675042 -1.19153 0)
(0.0500457 -1.18488 0)
(0.0361068 -1.17642 0)
(0.0251126 -1.16724 0)
(0.016453 -1.15762 0)
(0.00960668 -1.1477 0)
(0.00418909 -1.13751 0)
(-0.000101792 -1.12706 0)
(-0.00351214 -1.11639 0)
(-0.00620495 -1.10554 0)
(-0.00832696 -1.09457 0)
(-0.0100002 -1.08345 0)
(-0.0112318 -1.07217 0)
(-0.0120667 -1.06078 0)
(-0.0125408 -1.04942 0)
(-0.012571 -1.03827 0)
(-0.0120769 -1.0273 0)
(-0.0109961 -1.01636 0)
(-0.00862876 -1.00648 0)
(-0.00350323 -1.00103 0)
(0.0635413 -1.18411 0)
(0.0436072 -1.17528 0)
(0.0287399 -1.1652 0)
(0.017454 -1.15519 0)
(0.00870267 -1.14561 0)
(0.00176952 -1.13638 0)
(-0.00376718 -1.12732 0)
(-0.00818981 -1.11823 0)
(-0.0117533 -1.10879 0)
(-0.0146009 -1.0993 0)
(-0.0168399 -1.08958 0)
(-0.0186126 -1.07958 0)
(-0.0198911 -1.06993 0)
(-0.0207036 -1.0603 0)
(-0.021119 -1.0506 0)
(-0.0210056 -1.04095 0)
(-0.0202209 -1.03128 0)
(-0.0187951 -1.02099 0)
(-0.0159256 -1.00992 0)
(-0.00775971 -1.00181 0)
(0.0516634 -1.10919 0)
(0.0310415 -1.09237 0)
(0.0174343 -1.07837 0)
(0.00755137 -1.06822 0)
(-3.41404e-05 -1.06114 0)
(-0.00619721 -1.05626 0)
(-0.0113183 -1.05265 0)
(-0.0155349 -1.04978 0)
(-0.018941 -1.04717 0)
(-0.0216637 -1.04488 0)
(-0.0237715 -1.04279 0)
(-0.0253292 -1.04077 0)
(-0.0264883 -1.03864 0)
(-0.027413 -1.03626 0)
(-0.0280911 -1.03355 0)
(-0.0284441 -1.03062 0)
(-0.0283335 -1.02774 0)
(-0.028386 -1.02407 0)
(-0.0288276 -1.01492 0)
(-0.0139562 -1.00295 0)
(0.0310184 -0.676569 0)
(0.0155385 -0.641915 0)
(0.00849344 -0.617126 0)
(0.00310983 -0.604875 0)
(-0.00147031 -0.600966 0)
(-0.00581924 -0.604056 0)
(-0.00975799 -0.613402 0)
(-0.0136728 -0.628358 0)
(-0.0169673 -0.648053 0)
(-0.019392 -0.671509 0)
(-0.0213831 -0.697947 0)
(-0.0229587 -0.726789 0)
(-0.0241686 -0.757485 0)
(-0.0250651 -0.78955 0)
(-0.0256196 -0.822631 0)
(-0.0257045 -0.85672 0)
(-0.025145 -0.892101 0)
(-0.0233895 -0.927614 0)
(-0.0171736 -0.957584 0)
(-0.00646743 -0.977362 0)
(-0.00039688 0.0360006 0)
(-0.00115256 0.0362078 0)
(-0.00253199 0.0372023 0)
(-0.00408092 0.0385089 0)
(-0.0037774 0.0393897 0)
(-0.00249453 0.039445 0)
(-0.00116869 0.0387358 0)
(-0.000518393 0.0364029 0)
(0.000269713 0.0317783 0)
(0.00173787 0.0238772 0)
(0.0025424 0.0140426 0)
(0.0027935 0.00153921 0)
(0.0014725 -0.014737 0)
(0.000353541 -0.0334172 0)
(0.000864668 -0.0559266 0)
(0.00197854 -0.0822374 0)
(0.00342569 -0.111856 0)
(0.00513894 -0.144194 0)
(0.00707233 -0.178588 0)
(0.00914135 -0.214309 0)
(0.0113399 -0.250803 0)
(0.0133629 -0.287606 0)
(0.000408232 0.0680706 0)
(-0.000385449 0.0644525 0)
(-0.00044029 0.0595915 0)
(0.000842037 0.0520572 0)
(0.00254409 0.0415348 0)
(0.00278505 0.0266857 0)
(0.00338455 0.00659753 0)
(0.0074342 -0.0198778 0)
(0.0139534 -0.0538668 0)
(0.0211036 -0.100191 0)
(0.0282339 -0.1566 0)
(0.0361003 -0.220886 0)
(0.0436634 -0.291145 0)
(0.0504309 -0.36453 0)
(0.0561268 -0.438466 0)
(0.0604355 -0.511082 0)
(0.0633065 -0.580683 0)
(0.0647989 -0.645983 0)
(0.0649826 -0.706054 0)
(0.0638568 -0.760228 0)
(0.0615574 -0.808073 0)
(0.0583353 -0.849542 0)
(0.00596943 0.056149 0)
(0.00666732 0.0413135 0)
(0.00932236 0.0215436 0)
(0.0151085 -0.00561749 0)
(0.0227014 -0.0425872 0)
(0.0328813 -0.0930716 0)
(0.0467586 -0.158229 0)
(0.0633685 -0.234995 0)
(0.080625 -0.319833 0)
(0.0966071 -0.409361 0)
(0.110043 -0.500491 0)
(0.12024 -0.590024 0)
(0.126996 -0.675299 0)
(0.130443 -0.754173 0)
(0.130849 -0.825171 0)
(0.128558 -0.887558 0)
(0.123963 -0.941118 0)
(0.117539 -0.98607 0)
(0.109734 -1.0229 0)
(0.10079 -1.05172 0)
(0.0912214 -1.07378 0)
(0.0816097 -1.09006 0)
(0.0247448 -0.00639589 0)
(0.0329459 -0.0449739 0)
(0.046268 -0.0968109 0)
(0.0649344 -0.163208 0)
(0.087481 -0.243696 0)
(0.112078 -0.335942 0)
(0.136508 -0.435458 0)
(0.15875 -0.536872 0)
(0.177085 -0.63548 0)
(0.190311 -0.727618 0)
(0.197905 -0.8109 0)
(0.200047 -0.883863 0)
(0.197373 -0.946013 0)
(0.190767 -0.997598 0)
(0.181157 -1.0394 0)
(0.16937 -1.07249 0)
(0.15609 -1.09787 0)
(0.14198 -1.11691 0)
(0.127664 -1.1309 0)
(0.113581 -1.14081 0)
(0.0999821 -1.1478 0)
(0.0871505 -1.1522 0)
(0.0701286 -0.132999 0)
(0.0938526 -0.207435 0)
(0.123069 -0.296326 0)
(0.154995 -0.396252 0)
(0.186458 -0.50187 0)
(0.214538 -0.607512 0)
(0.237067 -0.707932 0)
(0.252863 -0.799104 0)
(0.261527 -0.878543 0)
(0.263291 -0.945268 0)
(0.258926 -0.999577 0)
(0.249585 -1.04265 0)
(0.236552 -1.07615 0)
(0.221044 -1.10191 0)
(0.204082 -1.12164 0)
(0.186453 -1.13677 0)
(0.168755 -1.14843 0)
(0.15139 -1.15761 0)
(0.134567 -1.16476 0)
(0.118358 -1.16999 0)
(0.102796 -1.17328 0)
(0.0881141 -1.17458 0)
(0.150131 -0.317012 0)
(0.187926 -0.419515 0)
(0.225848 -0.527624 0)
(0.260222 -0.635296 0)
(0.28813 -0.736506 0)
(0.307793 -0.826937 0)
(0.318677 -0.904114 0)
(0.321263 -0.967345 0)
(0.316662 -1.01737 0)
(0.306296 -1.05591 0)
(0.291678 -1.08518 0)
(0.274233 -1.10743 0)
(0.255162 -1.12464 0)
(0.235372 -1.13839 0)
(0.215473 -1.14976 0)
(0.195807 -1.15941 0)
(0.176553 -1.16766 0)
(0.1578 -1.17462 0)
(0.139579 -1.18028 0)
(0.121834 -1.18452 0)
(0.10449 -1.18701 0)
(0.0878695 -1.18731 0)
(0.252663 -0.522207 0)
(0.293974 -0.630891 0)
(0.328453 -0.73347 0)
(0.353808 -0.82506 0)
(0.369034 -0.902598 0)
(0.374465 -0.965332 0)
(0.371374 -1.01422 0)
(0.361533 -1.05131 0)
(0.346801 -1.07914 0)
(0.32882 -1.10023 0)
(0.308876 -1.11671 0)
(0.287921 -1.13017 0)
(0.266632 -1.14169 0)
(0.245417 -1.15193 0)
(0.224447 -1.16122 0)
(0.203713 -1.16968 0)
(0.183267 -1.17719 0)
(0.163227 -1.18361 0)
(0.143669 -1.18889 0)
(0.124495 -1.193 0)
(0.105394 -1.19539 0)
(0.0864982 -1.19594 0)
(0.356103 -0.706622 0)
(0.389264 -0.800864 0)
(0.411139 -0.881434 0)
(0.421773 -0.946585 0)
(0.422352 -0.997053 0)
(0.414864 -1.03501 0)
(0.401446 -1.06324 0)
(0.384023 -1.08449 0)
(0.364151 -1.1011 0)
(0.342886 -1.1148 0)
(0.320811 -1.12669 0)
(0.298398 -1.1373 0)
(0.276049 -1.14685 0)
(0.253889 -1.15546 0)
(0.231973 -1.16311 0)
(0.210508 -1.16924 0)
(0.189594 -1.17458 0)
(0.169045 -1.17921 0)
(0.148678 -1.18317 0)
(0.128495 -1.18638 0)
(0.10803 -1.18873 0)
(0.0864521 -1.18859 0)
(0.442856 -0.844193 0)
(0.461164 -0.913852 0)
(0.467844 -0.968653 0)
(0.464695 -1.00959 0)
(0.454067 -1.03969 0)
(0.438297 -1.06201 0)
(0.419206 -1.0792 0)
(0.398006 -1.09307 0)
(0.375678 -1.1047 0)
(0.352763 -1.11468 0)
(0.329599 -1.12266 0)
(0.306527 -1.12934 0)
(0.28354 -1.13504 0)
(0.260598 -1.13889 0)
(0.237831 -1.14104 0)
(0.215438 -1.1416 0)
(0.193345 -1.14063 0)
(0.171219 -1.13801 0)
(0.149007 -1.13395 0)
(0.127171 -1.12953 0)
(0.105386 -1.12586 0)
(0.080921 -1.12083 0)
(0.50592 -0.930056 0)
(0.508971 -0.975619 0)
(0.502983 -1.00959 0)
(0.490128 -1.03408 0)
(0.472654 -1.05223 0)
(0.452485 -1.06608 0)
(0.430774 -1.07699 0)
(0.408132 -1.08482 0)
(0.384768 -1.09141 0)
(0.360729 -1.09485 0)
(0.336293 -1.09487 0)
(0.311377 -1.09054 0)
(0.28571 -1.08051 0)
(0.259446 -1.06387 0)
(0.23311 -1.03985 0)
(0.207387 -1.00893 0)
(0.182609 -0.971692 0)
(0.158892 -0.928688 0)
(0.136722 -0.880566 0)
(0.116661 -0.829652 0)
(0.0958947 -0.781863 0)
(0.0689848 -0.73783 0)
(0.00132572 -0.00190162 0)
(0.000878406 -0.00535764 0)
(-0.000433673 -0.00438822 0)
(-0.00112579 0.00232962 0)
(-0.00125169 0.0124123 0)
(-0.000594093 0.0217985 0)
(0.00028448 0.0271613 0)
(0.000960715 0.0275174 0)
(0.00105125 0.0241647 0)
(0.000601326 0.0194041 0)
(7.4084e-05 0.0156584 0)
(-0.000372072 0.0143495 0)
(-0.00082983 0.0158775 0)
(-0.00117068 0.0203237 0)
(-0.000976842 0.0262128 0)
(-0.000504446 0.0314359 0)
(-7.18275e-05 0.0350605 0)
(-7.92778e-05 0.0362115 0)
(0.00405378 -0.00296773 0)
(0.00156895 -0.00673314 0)
(-0.0049492 0.000202657 0)
(-0.0107239 0.0165973 0)
(-0.0121313 0.0369347 0)
(-0.00898228 0.0551303 0)
(-0.00333515 0.0667817 0)
(0.00209218 0.0700761 0)
(0.00526916 0.0658272 0)
(0.00547661 0.0573085 0)
(0.00330089 0.0489219 0)
(-0.000130222 0.0442725 0)
(-0.00372491 0.0450119 0)
(-0.00663227 0.0512543 0)
(-0.00698971 0.0601396 0)
(-0.00572086 0.0676152 0)
(-0.00368852 0.0717958 0)
(-0.000833755 0.0710152 0)
(0.00676678 -0.0025177 0)
(-0.000888386 -0.00254645 0)
(-0.0152881 0.0133534 0)
(-0.0257764 0.0391468 0)
(-0.0271976 0.0663566 0)
(-0.0203893 0.0884281 0)
(-0.00919825 0.101627 0)
(0.0020366 0.105027 0)
(0.00962517 0.099965 0)
(0.0117056 0.0896514 0)
(0.00865071 0.0786234 0)
(0.00221046 0.0711749 0)
(-0.00527483 0.069723 0)
(-0.0115675 0.0740118 0)
(-0.0121143 0.0795361 0)
(-0.00849098 0.0815392 0)
(-0.00261125 0.07868 0)
(0.00308493 0.0695925 0)
(0.00752495 -0.00126093 0)
(-0.00859471 0.00545533 0)
(-0.0323009 0.0325436 0)
(-0.0463423 0.0678731 0)
(-0.0454133 0.100081 0)
(-0.0327661 0.123192 0)
(-0.0145068 0.134499 0)
(0.00321554 0.134748 0)
(0.0154125 0.126503 0)
(0.0194899 0.113419 0)
(0.0156663 0.099881 0)
(0.00619098 0.0899373 0)
(-0.00498815 0.0856716 0)
(-0.0131302 0.0845053 0)
(-0.0117042 0.0808083 0)
(-0.00506525 0.0709913 0)
(0.00516627 0.0537484 0)
(0.0163733 0.0269534 0)
(0.00525482 0.000256376 0)
(-0.0235155 0.0167166 0)
(-0.0567877 0.056251 0)
(-0.0713819 0.0991563 0)
(-0.0648121 0.13304 0)
(-0.0438207 0.153929 0)
(-0.0172837 0.160145 0)
(0.00722232 0.15516 0)
(0.02372 0.142717 0)
(0.0293478 0.126029 0)
(0.0244814 0.109612 0)
(0.0122111 0.0968004 0)
(-0.00127979 0.0875902 0)
(-0.00791472 0.07651 0)
(-0.00304037 0.0589168 0)
(0.0101408 0.031725 0)
(0.0274986 -0.00695539 0)
(0.0484356 -0.063874 0)
(-0.00171196 0.00220403 0)
(-0.0473669 0.0314229 0)
(-0.0877447 0.0818347 0)
(-0.0983373 0.127544 0)
(-0.08235 0.158416 0)
(-0.0511044 0.171424 0)
(-0.0155584 0.169892 0)
(0.0149219 0.161026 0)
(0.0347293 0.144602 0)
(0.0413492 0.124868 0)
(0.0352972 0.105788 0)
(0.0210187 0.0890914 0)
(0.0079641 0.0719158 0)
(0.00602821 0.0478535 0)
(0.0181021 0.0123273 0)
(0.0404145 -0.0379871 0)
(0.070525 -0.109225 0)
(0.10952 -0.208866 0)
(-0.0145333 0.00456697 0)
(-0.0800782 0.0487034 0)
(-0.12197 0.104835 0)
(-0.123028 0.146923 0)
(-0.0944792 0.169573 0)
(-0.0526898 0.172538 0)
(-0.0104065 0.166323 0)
(0.0249936 0.151857 0)
(0.0478005 0.131871 0)
(0.0551919 0.109646 0)
(0.048253 0.087778 0)
(0.0339373 0.0655541 0)
(0.0251667 0.0378767 0)
(0.0317563 -0.00259869 0)
(0.0551613 -0.0613941 0)
(0.0922886 -0.143541 0)
(0.141112 -0.253929 0)
(0.199313 -0.391515 0)
(-0.0336309 0.00988156 0)
(-0.118889 0.0660324 0)
(-0.154525 0.120216 0)
(-0.141038 0.152823 0)
(-0.0997082 0.161913 0)
(-0.0490214 0.157291 0)
(-0.000953872 0.144843 0)
(0.0379775 0.127152 0)
(0.0627212 0.1053 0)
(0.0705982 0.081346 0)
(0.0637772 0.056146 0)
(0.0527625 0.0267947 0)
(0.0527936 -0.0143479 0)
(0.0727632 -0.0764886 0)
(0.112732 -0.164755 0)
(0.168799 -0.28158 0)
(0.234955 -0.423539 0)
(0.303171 -0.57815 0)
(-0.0610127 0.0193429 0)
(-0.158576 0.0793381 0)
(-0.180367 0.124858 0)
(-0.150399 0.143338 0)
(-0.0972238 0.141563 0)
(-0.0404865 0.129015 0)
(0.0111914 0.111875 0)
(0.0524084 0.091775 0)
(0.0786831 0.0684282 0)
(0.0874585 0.0424855 0)
(0.0828841 0.0131752 0)
(0.0798045 -0.0256829 0)
(0.0943018 -0.0857304 0)
(0.132511 -0.174555 0)
(0.191844 -0.293204 0)
(0.264209 -0.436506 0)
(0.338239 -0.590881 0)
(0.402518 -0.73746 0)
(-0.096714 0.0293855 0)
(-0.194223 0.0843609 0)
(-0.196329 0.119486 0)
(-0.151159 0.122953 0)
(-0.0891844 0.111945 0)
(-0.028457 0.0939654 0)
(0.0254092 0.0734932 0)
(0.0681445 0.0508801 0)
(0.095814 0.0253436 0)
(0.106178 -0.00313353 0)
(0.107789 -0.0386054 0)
(0.118684 -0.0927543 0)
(0.152473 -0.176618 0)
(0.211144 -0.292485 0)
(0.286955 -0.434035 0)
(0.366572 -0.587173 0)
(0.435709 -0.732535 0)
(0.484276 -0.852979 0)
(0.547696 -0.97364 0)
(0.538741 -1.00094 0)
(0.52417 -1.02092 0)
(0.505772 -1.03491 0)
(0.485077 -1.04407 0)
(0.462592 -1.05101 0)
(0.438469 -1.05307 0)
(0.412686 -1.0495 0)
(0.384701 -1.0377 0)
(0.354512 -1.01587 0)
(0.322369 -0.982996 0)
(0.288285 -0.937892 0)
(0.252757 -0.880647 0)
(0.216694 -0.812536 0)
(0.181126 -0.735535 0)
(0.146832 -0.651906 0)
(0.114364 -0.562732 0)
(0.0840827 -0.469819 0)
(0.0553686 -0.373414 0)
(0.0255762 -0.274605 0)
(-0.00419243 -0.18576 0)
(-0.014257 -0.120733 0)
(0.573045 -0.987023 0)
(0.556537 -1.00141 0)
(0.536855 -1.00999 0)
(0.514201 -1.01395 0)
(0.488775 -1.01016 0)
(0.459963 -0.997115 0)
(0.427122 -0.972589 0)
(0.390066 -0.934725 0)
(0.348892 -0.882193 0)
(0.304354 -0.816072 0)
(0.257496 -0.737061 0)
(0.209664 -0.647981 0)
(0.1626 -0.552617 0)
(0.117961 -0.455248 0)
(0.0769513 -0.360116 0)
(0.0400953 -0.271235 0)
(0.0077447 -0.192417 0)
(-0.0189769 -0.125574 0)
(-0.0390626 -0.0716806 0)
(-0.0568217 -0.0273573 0)
(-0.0792821 0.00601744 0)
(-0.0880968 0.00662645 0)
(0.585883 -0.975665 0)
(0.563106 -0.977179 0)
(0.536304 -0.96937 0)
(0.504553 -0.949971 0)
(0.467262 -0.917286 0)
(0.424104 -0.869307 0)
(0.375269 -0.805679 0)
(0.32186 -0.727463 0)
(0.265665 -0.637417 0)
(0.208891 -0.539752 0)
(0.153969 -0.439316 0)
(0.103492 -0.341767 0)
(0.0597161 -0.252321 0)
(0.0240869 -0.17524 0)
(-0.00314755 -0.113395 0)
(-0.0233338 -0.0662261 0)
(-0.0378414 -0.0313816 0)
(-0.0485305 -0.00669907 0)
(-0.0577657 0.00989076 0)
(-0.0669806 0.0210762 0)
(-0.0775897 0.0214008 0)
(-0.0651255 0.0107374 0)
(0.583119 -0.935471 0)
(0.549477 -0.913298 0)
(0.50905 -0.877164 0)
(0.461438 -0.824559 0)
(0.407011 -0.755833 0)
(0.347091 -0.672451 0)
(0.283892 -0.578028 0)
(0.220319 -0.477492 0)
(0.159537 -0.376617 0)
(0.104516 -0.281161 0)
(0.0577457 -0.196185 0)
(0.0208169 -0.125339 0)
(-0.0062196 -0.0701522 0)
(-0.0251711 -0.0289599 0)
(-0.0382134 0.00153249 0)
(-0.04695 0.022382 0)
(-0.0526325 0.0349415 0)
(-0.0566688 0.0405507 0)
(-0.0603063 0.0406059 0)
(-0.0647725 0.0354591 0)
(-0.0653814 0.0234886 0)
(-0.0468559 0.00610109 0)
(0.55477 -0.852047 0)
(0.504385 -0.799012 0)
(0.446252 -0.730007 0)
(0.381733 -0.645697 0)
(0.313319 -0.550244 0)
(0.244218 -0.448821 0)
(0.177982 -0.347536 0)
(0.117946 -0.252233 0)
(0.066738 -0.167692 0)
(0.0258923 -0.0969929 0)
(-0.00447573 -0.0413458 0)
(-0.0258845 0.000637181 0)
(-0.0402474 0.0315215 0)
(-0.0492895 0.0527327 0)
(-0.0540332 0.065856 0)
(-0.0556063 0.0723293 0)
(-0.0553436 0.0727927 0)
(-0.05409 0.0677418 0)
(-0.0526234 0.0585653 0)
(-0.051349 0.0451655 0)
(-0.047802 0.0264674 0)
(-0.0310492 0.00549779 0)
(0.494351 -0.7239 0)
(0.426274 -0.641604 0)
(0.353562 -0.547768 0)
(0.279358 -0.446503 0)
(0.207532 -0.344303 0)
(0.14164 -0.247041 0)
(0.0845113 -0.15962 0)
(0.0378245 -0.085151 0)
(0.00189178 -0.024862 0)
(-0.0241883 0.0217791 0)
(-0.0419888 0.0565773 0)
(-0.0529749 0.0808359 0)
(-0.058516 0.0961666 0)
(-0.0597262 0.104538 0)
(-0.0581922 0.106585 0)
(-0.0543489 0.103134 0)
(-0.0489072 0.0954518 0)
(-0.0430509 0.0838711 0)
(-0.0376288 0.0691269 0)
(-0.032429 0.0510692 0)
(-0.025912 0.0286126 0)
(-0.0145625 0.00465605 0)
(0.405952 -0.565759 0)
(0.326333 -0.466323 0)
(0.248319 -0.364079 0)
(0.175423 -0.264386 0)
(0.110908 -0.1727 0)
(0.0567572 -0.0924776 0)
(0.0136595 -0.0254861 0)
(-0.0188083 0.0281148 0)
(-0.0417465 0.0694097 0)
(-0.0564808 0.0993833 0)
(-0.0643035 0.119164 0)
(-0.066394 0.130264 0)
(-0.0648324 0.134452 0)
(-0.0602904 0.132887 0)
(-0.0532802 0.127363 0)
(-0.0451458 0.11796 0)
(-0.0362943 0.105241 0)
(-0.027378 0.0897943 0)
(-0.0188784 0.0721917 0)
(-0.010499 0.0520289 0)
(-0.00230446 0.0282858 0)
(0.00207667 0.00396297 0)
(0.303229 -0.403679 0)
(0.221992 -0.303275 0)
(0.148528 -0.208208 0)
(0.0850731 -0.122542 0)
(0.0329166 -0.048699 0)
(-0.00793654 0.0126698 0)
(-0.0379736 0.0616146 0)
(-0.0585079 0.0985496 0)
(-0.0705068 0.124518 0)
(-0.0750644 0.14017 0)
(-0.0737345 0.147299 0)
(-0.0690824 0.148709 0)
(-0.0619454 0.146615 0)
(-0.053304 0.139896 0)
(-0.0431623 0.129808 0)
(-0.0321082 0.117228 0)
(-0.020737 0.102509 0)
(-0.00958536 0.0859388 0)
(0.0011928 0.0678823 0)
(0.0119158 0.0477954 0)
(0.0207323 0.0249706 0)
(0.0175143 0.00391778 0)
(0.202328 -0.263004 0)
(0.127821 -0.174378 0)
(0.0646511 -0.0955791 0)
(0.0132312 -0.0283776 0)
(-0.026757 0.0272756 0)
(-0.0556151 0.0715187 0)
(-0.0739654 0.104614 0)
(-0.0833917 0.127317 0)
(-0.0851177 0.14115 0)
(-0.081047 0.148774 0)
(-0.0742548 0.148744 0)
(-0.0657616 0.144415 0)
(-0.055396 0.136751 0)
(-0.043339 0.126539 0)
(-0.0306743 0.114981 0)
(-0.0178201 0.102348 0)
(-0.00492988 0.0885035 0)
(0.00779455 0.0733493 0)
(0.0203279 0.0569992 0)
(0.032759 0.0388824 0)
(0.0412939 0.0190977 0)
(0.0308317 0.00242681 0)
(0.11523 -0.16001 0)
(0.0515215 -0.0898906 0)
(-9.27748e-05 -0.0307911 0)
(-0.0401602 0.0173334 0)
(-0.0690518 0.0550436 0)
(-0.087085 0.0830354 0)
(-0.0952758 0.102369 0)
(-0.0961674 0.114984 0)
(-0.0913852 0.120138 0)
(-0.0820167 0.120824 0)
(-0.0699232 0.11776 0)
(-0.0573043 0.111923 0)
(-0.0447918 0.104241 0)
(-0.0320838 0.0956559 0)
(-0.0190041 0.0866375 0)
(-0.00546054 0.0770383 0)
(0.00848284 0.066431 0)
(0.0225675 0.0545972 0)
(0.0367023 0.0414654 0)
(0.0504493 0.0266705 0)
(0.0575346 0.0112962 0)
(0.0386406 -0.000762262 0)
(0.0481564 -0.101426 0)
(-0.00393975 -0.0526167 0)
(-0.0445458 -0.0144419 0)
(-0.074379 0.0142742 0)
(-0.0938846 0.0353702 0)
(-0.104078 0.0506098 0)
(-0.106202 0.0614575 0)
(-0.101642 0.0687067 0)
(-0.0919095 0.0725232 0)
(-0.0791352 0.0732616 0)
(-0.0651666 0.0715263 0)
(-0.0514049 0.0680566 0)
(-0.0381724 0.0635579 0)
(-0.0250555 0.0586289 0)
(-0.0115079 0.0534729 0)
(0.00284758 0.0477967 0)
(0.0179781 0.0411272 0)
(0.0335404 0.0331179 0)
(0.0491667 0.0238099 0)
(0.0634303 0.0128977 0)
(0.0683803 0.00394474 0)
(0.0418927 -0.0026474 0)
(0.00398051 -0.0878758 0)
(-0.0370226 -0.061449 0)
(-0.0683566 -0.0432818 0)
(-0.0912185 -0.0305027 0)
(-0.106255 -0.020191 0)
(-0.113694 -0.0106547 0)
(-0.113694 -0.00134921 0)
(-0.106974 0.00736387 0)
(-0.0950336 0.0147325 0)
(-0.080015 0.0200908 0)
(-0.0641587 0.0231836 0)
(-0.0491101 0.0242651 0)
(-0.0352597 0.0239575 0)
(-0.0218854 0.0229238 0)
(-0.00793304 0.0214738 0)
(0.00725834 0.0193939 0)
(0.0236255 0.016226 0)
(0.0406606 0.0116832 0)
(0.0575831 0.00613792 0)
(0.0720787 -0.00029099 0)
(0.07298 -0.00304671 0)
(0.0406189 -0.00294206 0)
(-0.0167346 -0.114499 0)
(-0.0495689 -0.107291 0)
(-0.0766714 -0.103095 0)
(-0.0986603 -0.0985237 0)
(-0.11467 -0.0916859 0)
(-0.123431 -0.0821258 0)
(-0.124208 -0.0702322 0)
(-0.117277 -0.0569231 0)
(-0.104066 -0.0434587 0)
(-0.0869913 -0.0312233 0)
(-0.0688312 -0.0213854 0)
(-0.051772 -0.0144759 0)
(-0.0365326 -0.0102029 0)
(-0.0222939 -0.00772167 0)
(-0.00757876 -0.00624508 0)
(0.00857745 -0.00559149 0)
(0.0261575 -0.0060395 0)
(0.0444455 -0.00767548 0)
(0.0618704 -0.00988234 0)
(0.0730613 -0.0109682 0)
(0.0704517 -0.00907749 0)
(0.0358732 -0.00265996 0)
(-0.0189052 -0.166626 0)
(-0.0496467 -0.170381 0)
(-0.0783071 -0.172161 0)
(-0.103535 -0.170327 0)
(-0.123245 -0.164306 0)
(-0.135503 -0.153954 0)
(-0.139069 -0.139495 0)
(-0.133739 -0.121643 0)
(-0.120569 -0.101707 0)
(-0.101863 -0.0815613 0)
(-0.0807665 -0.0633791 0)
(-0.0602914 -0.0489368 0)
(-0.0420714 -0.0388936 0)
(-0.0257698 -0.0325897 0)
(-0.00971577 -0.0286138 0)
(0.00751913 -0.0258982 0)
(0.026126 -0.0241704 0)
(0.045072 -0.0231634 0)
(0.0617655 -0.0218452 0)
(0.0704554 -0.0183893 0)
(0.0636929 -0.012606 0)
(0.0292045 -0.00225904 0)
(-0.0117896 -0.22318 0)
(-0.0449568 -0.230728 0)
(-0.077374 -0.235003 0)
(-0.10698 -0.235357 0)
(-0.131479 -0.231208 0)
(-0.148707 -0.221902 0)
(-0.156986 -0.20705 0)
(-0.155466 -0.186778 0)
(-0.144458 -0.161987 0)
(-0.125566 -0.134512 0)
(-0.101706 -0.107149 0)
(-0.0765621 -0.0830663 0)
(-0.0532012 -0.0646188 0)
(-0.0327821 -0.0524042 0)
(-0.0142337 -0.0450218 0)
(0.0043522 -0.0402289 0)
(0.0236811 -0.0365078 0)
(0.0425181 -0.0330427 0)
(0.0576413 -0.0285717 0)
(0.0634732 -0.0216908 0)
(0.0534899 -0.012713 0)
(0.0218932 -0.00169483 0)
(-0.00169737 -0.268933 0)
(-0.0380252 -0.277831 0)
(-0.0739519 -0.284223 0)
(-0.10771 -0.287478 0)
(-0.137247 -0.28675 0)
(-0.160355 -0.280804 0)
(-0.174974 -0.268556 0)
(-0.179576 -0.249379 0)
(-0.173559 -0.223318 0)
(-0.157367 -0.191535 0)
(-0.132808 -0.15644 0)
(-0.10336 -0.121938 0)
(-0.0732091 -0.0921299 0)
(-0.0457493 -0.0699865 0)
(-0.022134 -0.0559273 0)
(-0.00106413 -0.0475949 0)
(0.0189626 -0.0416854 0)
(0.0371886 -0.0360886 0)
(0.0504142 -0.0293506 0)
(0.0536364 -0.0204728 0)
(0.0420915 -0.0101859 0)
(0.015672 -0.000975055 0)
(0.00915681 -0.298342 0)
(-0.0294213 -0.30786 0)
(-0.0677985 -0.315897 0)
(-0.104705 -0.321993 0)
(-0.138605 -0.325335 0)
(-0.167509 -0.324424 0)
(-0.189244 -0.317493 0)
(-0.201719 -0.303214 0)
(-0.203404 -0.280357 0)
(-0.193565 -0.249347 0)
(-0.17235 -0.211057 0)
(-0.14179 -0.168785 0)
(-0.105891 -0.127328 0)
(-0.0695502 -0.091757 0)
(-0.0371014 -0.0657817 0)
(-0.0102746 -0.04967 0)
(0.0118805 -0.0400498 0)
(0.0299293 -0.0325056 0)
(0.0417153 -0.0247044 0)
(0.0434777 -0.0157464 0)
(0.032488 -0.00666149 0)
(0.0113424 -0.000348183 0)
(0.0197636 -0.311535 0)
(-0.0199984 -0.320967 0)
(-0.0596665 -0.329784 0)
(-0.0983259 -0.33768 0)
(-0.134987 -0.343643 0)
(-0.168342 -0.347792 0)
(-0.19661 -0.347788 0)
(-0.217482 -0.341346 0)
(-0.228516 -0.325431 0)
(-0.228047 -0.300354 0)
(-0.214792 -0.265271 0)
(-0.188479 -0.221278 0)
(-0.151438 -0.172489 0)
(-0.108201 -0.124375 0)
(-0.0649733 -0.0832343 0)
(-0.0276189 -0.0535623 0)
(0.00104268 -0.0355921 0)
(0.0213864 -0.02486 0)
(0.033319 -0.0166352 0)
(0.0351881 -0.00913674 0)
(0.0260377 -0.00283987 0)
(0.00912123 0.000169042 0)
(0.0294602 -0.311305 0)
(-0.0106509 -0.320211 0)
(-0.0507307 -0.329191 0)
(-0.0901432 -0.338161 0)
(-0.128113 -0.346664 0)
(-0.163895 -0.353734 0)
(-0.196519 -0.357456 0)
(-0.224418 -0.358111 0)
(-0.24466 -0.352515 0)
(-0.254892 -0.336484 0)
(-0.252903 -0.310268 0)
(-0.236243 -0.271575 0)
(-0.204516 -0.222845 0)
(-0.160238 -0.168165 0)
(-0.108996 -0.114268 0)
(-0.0589712 -0.0687277 0)
(-0.0179851 -0.0368473 0)
(0.0100817 -0.0185791 0)
(0.0256863 -0.00853811 0)
(0.0297375 -0.00254222 0)
(0.0230927 0.00081757 0)
(0.00892805 0.000631272 0)
(0.0381504 -0.301061 0)
(-0.00159898 -0.309136 0)
(-0.041302 -0.317751 0)
(-0.0805999 -0.326922 0)
(-0.119109 -0.336428 0)
(-0.156298 -0.345825 0)
(-0.191408 -0.354094 0)
(-0.223496 -0.359214 0)
(-0.250985 -0.360899 0)
(-0.271099 -0.353776 0)
(-0.281133 -0.338746 0)
(-0.277488 -0.310613 0)
(-0.256833 -0.269135 0)
(-0.218745 -0.216095 0)
(-0.166067 -0.156447 0)
(-0.10633 -0.0984948 0)
(-0.0503728 -0.0512419 0)
(-0.00808157 -0.0203902 0)
(0.0167025 -0.00467779 0)
(0.0261199 0.00172858 0)
(0.0230236 0.00354892 0)
(0.0105251 0.00097153 0)
(0.0456713 -0.284644 0)
(0.00659579 -0.291873 0)
(-0.0323539 -0.299797 0)
(-0.0709416 -0.308447 0)
(-0.108988 -0.317706 0)
(-0.146285 -0.327353 0)
(-0.182509 -0.336918 0)
(-0.217184 -0.345523 0)
(-0.249473 -0.351997 0)
(-0.277021 -0.355068 0)
(-0.297507 -0.347979 0)
(-0.307109 -0.332423 0)
(-0.300819 -0.302777 0)
(-0.275069 -0.258595 0)
(-0.228779 -0.201517 0)
(-0.166089 -0.138152 0)
(-0.0974969 -0.0787318 0)
(-0.0373741 -0.0337292 0)
(0.00295768 -0.00807739 0)
(0.0219184 0.00219448 0)
(0.0241628 0.00380151 0)
(0.0128632 0.0011563 0)
(0.0523165 -0.265213 0)
(0.0139529 -0.271899 0)
(-0.0242679 -0.279238 0)
(-0.0621694 -0.287265 0)
(-0.0996245 -0.295893 0)
(-0.136512 -0.304996 0)
(-0.172705 -0.314346 0)
(-0.208064 -0.32355 0)
(-0.242357 -0.331952 0)
(-0.27475 -0.338361 0)
(-0.30292 -0.340698 0)
(-0.323582 -0.336008 0)
(-0.331869 -0.319324 0)
(-0.321941 -0.288121 0)
(-0.288809 -0.240667 0)
(-0.231581 -0.179795 0)
(-0.156905 -0.114217 0)
(-0.0799106 -0.0566289 0)
(-0.0192479 -0.018239 0)
(0.0142368 -0.000809866 0)
(0.0244002 0.00267397 0)
(0.0151012 0.00176323 0)
(0.0585314 -0.244345 0)
(0.020852 -0.250715 0)
(-0.0167099 -0.257642 0)
(-0.054014 -0.265155 0)
(-0.0909601 -0.273174 0)
(-0.127463 -0.281601 0)
(-0.163467 -0.290315 0)
(-0.198951 -0.299163 0)
(-0.233864 -0.307916 0)
(-0.26792 -0.316033 0)
(-0.300244 -0.322242 0)
(-0.32874 -0.324329 0)
(-0.348931 -0.319461 0)
(-0.355183 -0.301267 0)
(-0.339148 -0.267447 0)
(-0.295122 -0.215958 0)
(-0.223383 -0.151518 0)
(-0.135274 -0.0857698 0)
(-0.0530009 -0.0341219 0)
(0.000911511 -0.00677423 0)
(0.0223542 0.000935299 0)
(0.0168619 0.00236008 0)
(0.0645286 -0.222685 0)
(0.0274462 -0.228876 0)
(-0.00956367 -0.235526 0)
(-0.0463813 -0.242655 0)
(-0.0829163 -0.250187 0)
(-0.119089 -0.25802 0)
(-0.154856 -0.266069 0)
(-0.190229 -0.274253 0)
(-0.225254 -0.28249 0)
(-0.259915 -0.290609 0)
(-0.293965 -0.298124 0)
(-0.32652 -0.303841 0)
(-0.355107 -0.305395 0)
(-0.374237 -0.299155 0)
(-0.375676 -0.279012 0)
(-0.349793 -0.241092 0)
(-0.289992 -0.184674 0)
(-0.199993 -0.117301 0)
(-0.0995351 -0.0548544 0)
(-0.0202509 -0.0148902 0)
(0.0168557 -0.00108037 0)
(0.0177226 0.00174269 0)
(0.0704313 -0.200449 0)
(0.0338647 -0.206548 0)
(-0.00268522 -0.213027 0)
(-0.0391216 -0.219899 0)
(-0.0753558 -0.227094 0)
(-0.111312 -0.234504 0)
(-0.14694 -0.242045 0)
(-0.182229 -0.249646 0)
(-0.217223 -0.25726 0)
(-0.252006 -0.264835 0)
(-0.28664 -0.272244 0)
(-0.320916 -0.279072 0)
(-0.353708 -0.284142 0)
(-0.38172 -0.28479 0)
(-0.397831 -0.276331 0)
(-0.391165 -0.252565 0)
(-0.349815 -0.208835 0)
(-0.268296 -0.146758 0)
(-0.158086 -0.0786235 0)
(-0.0528959 -0.0254815 0)
(0.00653558 -0.00237232 0)
(0.0175674 0.00058338 0)
(0.0763041 -0.17769 0)
(0.0401874 -0.18375 0)
(0.00403214 -0.190132 0)
(-0.0320914 -0.196848 0)
(-0.0680954 -0.203835 0)
(-0.103911 -0.210981 0)
(-0.13948 -0.218197 0)
(-0.174774 -0.225408 0)
(-0.209808 -0.232558 0)
(-0.244655 -0.239612 0)
(-0.27945 -0.246549 0)
(-0.31431 -0.25329 0)
(-0.348962 -0.259442 0)
(-0.381787 -0.263666 0)
(-0.408074 -0.262722 0)
(-0.418187 -0.250924 0)
(-0.397805 -0.22134 0)
(-0.333343 -0.170008 0)
(-0.224369 -0.102795 0)
(-0.0983199 -0.0395198 0)
(-0.00935371 -0.00511771 0)
(0.0164645 0.000232158 0)
(0.0821831 -0.154424 0)
(0.0464664 -0.16048 0)
(0.0106579 -0.166824 0)
(-0.0251938 -0.173462 0)
(-0.0610101 -0.180337 0)
(-0.0967291 -0.187344 0)
(-0.132288 -0.194389 0)
(-0.167647 -0.201391 0)
(-0.202797 -0.20828 0)
(-0.237783 -0.215009 0)
(-0.272715 -0.221558 0)
(-0.307772 -0.227933 0)
(-0.343068 -0.234083 0)
(-0.378104 -0.239525 0)
(-0.410346 -0.242525 0)
(-0.432802 -0.238986 0)
(-0.431951 -0.222066 0)
(-0.389383 -0.184229 0)
(-0.292207 -0.124084 0)
(-0.153872 -0.0561259 0)
(-0.0322371 -0.0107122 0)
(0.0134517 -0.00044644 0)
(0.088093 -0.130669 0)
(0.0527433 -0.13675 0)
(0.017253 -0.143101 0)
(-0.0183492 -0.149721 0)
(-0.053999 -0.156563 0)
(-0.089643 -0.16353 0)
(-0.125216 -0.170522 0)
(-0.160667 -0.177456 0)
(-0.195978 -0.184258 0)
(-0.231169 -0.190866 0)
(-0.266318 -0.197234 0)
(-0.301569 -0.203354 0)
(-0.337127 -0.209254 0)
(-0.373033 -0.214852 0)
(-0.408271 -0.219434 0)
(-0.438555 -0.22058 0)
(-0.453098 -0.212982 0)
(-0.433059 -0.18838 0)
(-0.355981 -0.139586 0)
(-0.216359 -0.0726484 0)
(-0.0647163 -0.0172659 0)