/*--------------------------------*- C++ -*----------------------------------*\
| =========                 |                                                 |
| \\      /  F ield         | OpenFOAM: The Open Source CFD Toolbox           |
|  \\    /   O peration     | Version:  v2012                                 |
|   \\  /    A nd           | Website:  www.openfoam.com                      |
|    \\/     M anipulation  |                                                 |
\*---------------------------------------------------------------------------*/
FoamFile
{
    version     2.0;
    format      ascii;
    class       volScalarField;
    location    "662";
    object      age;
}
// * * * * * * * * * * * * * * * * * * * * * * * * * * * * * * * * * * * * * //

dimensions      [0 0 1 0 0 0 0];


internalField   nonuniform List<scalar> 
6532
(
0.0125016
0.0124997
0.0124998
0.0124998
0.0124999
0.0124999
0.0124998
0.0124998
0.0124997
0.0125016
0.0375087
0.0374976
0.0374977
0.037498
0.0374982
0.0374982
0.037498
0.0374977
0.0374976
0.0375087
0.0625257
0.0624947
0.0624929
0.0624933
0.0624936
0.0624936
0.0624933
0.0624929
0.0624946
0.0625257
0.087553
0.0874917
0.0874854
0.0874849
0.0874851
0.0874851
0.0874849
0.0874854
0.0874916
0.087553
0.112591
0.112489
0.112475
0.112473
0.112473
0.112473
0.112473
0.112475
0.112489
0.112591
0.137638
0.137487
0.137463
0.137457
0.137456
0.137456
0.137457
0.137463
0.137487
0.137638
0.162695
0.162486
0.162448
0.162438
0.162435
0.162435
0.162438
0.162448
0.162486
0.162694
0.18776
0.187485
0.187431
0.187415
0.18741
0.18741
0.187415
0.187431
0.187485
0.18776
0.212834
0.212485
0.212413
0.212389
0.212381
0.212381
0.212389
0.212412
0.212485
0.212833
0.237916
0.237486
0.237392
0.23736
0.237349
0.237349
0.23736
0.237391
0.237485
0.237915
0.263005
0.262487
0.26237
0.262329
0.262314
0.262314
0.262328
0.262369
0.262486
0.263004
0.288102
0.287488
0.287346
0.287295
0.287276
0.287275
0.287294
0.287344
0.287486
0.2881
0.313206
0.312491
0.312321
0.312258
0.312234
0.312234
0.312256
0.312318
0.312488
0.313203
0.338318
0.337493
0.337294
0.337219
0.33719
0.337189
0.337216
0.33729
0.337489
0.338311
0.363436
0.362497
0.362266
0.362177
0.362143
0.362142
0.362174
0.36226
0.36249
0.363431
0.388562
0.387502
0.387236
0.387134
0.387093
0.387091
0.387128
0.387228
0.387491
0.388535
0.413696
0.412507
0.412206
0.412088
0.412041
0.412038
0.412079
0.412193
0.412491
0.413741
0.438839
0.437515
0.437176
0.437041
0.436986
0.436981
0.437027
0.437155
0.43749
0.438543
0.463991
0.462526
0.462146
0.461992
0.461928
0.46192
0.46197
0.462112
0.462489
0.465089
0.489154
0.487541
0.487117
0.486944
0.486868
0.486855
0.486906
0.487061
0.487473
0.484283
0.514611
0.512841
0.51237
0.512173
0.512084
0.512062
0.51211
0.512274
0.512726
0.535305
0.540366
0.538429
0.537906
0.537684
0.537578
0.537546
0.537589
0.537761
0.538264
0.570314
0.566143
0.564031
0.563454
0.563204
0.56308
0.563035
0.563073
0.563263
0.563814
0.604614
0.591948
0.589654
0.589018
0.588739
0.588593
0.588535
0.588572
0.588795
0.589393
0.638231
0.61779
0.615305
0.614606
0.614294
0.614127
0.614055
0.614095
0.614374
0.615028
0.671172
0.643678
0.640993
0.640225
0.63988
0.639689
0.639605
0.639656
0.640018
0.640733
0.703281
0.669621
0.666727
0.665886
0.665504
0.66529
0.665194
0.665265
0.665744
0.666532
0.734528
0.695632
0.69252
0.691599
0.691179
0.690939
0.690835
0.690936
0.691566
0.692434
0.764764
0.721727
0.718387
0.717378
0.716916
0.71665
0.71654
0.716683
0.717501
0.718441
0.793807
0.747922
0.744343
0.743239
0.742733
0.742439
0.742326
0.742523
0.743566
0.744563
0.821595
0.77424
0.770409
0.7692
0.768646
0.768323
0.768209
0.768472
0.769781
0.770814
0.848121
0.800707
0.796611
0.795285
0.794679
0.794326
0.794213
0.794552
0.79616
0.797209
0.873374
0.827351
0.822978
0.82152
0.820857
0.820471
0.820361
0.820782
0.82272
0.823761
0.897391
0.854212
0.849545
0.847939
0.847213
0.846791
0.846683
0.847188
0.849477
0.850486
0.920244
0.881332
0.876356
0.874582
0.873784
0.873321
0.873212
0.873798
0.876442
0.877401
0.942048
0.908766
0.903463
0.901495
0.900617
0.900107
0.899991
0.900643
0.903634
0.904531
0.962979
0.936577
0.930928
0.928738
0.927767
0.927203
0.927069
0.927765
0.931072
0.931919
0.983327
0.964848
0.958831
0.956385
0.955304
0.954677
0.954513
0.95522
0.958789
0.959624
1.0035
0.993086
0.986687
0.983952
0.982744
0.982044
0.981835
0.982514
0.986264
0.987168
1.02326
1.02137
1.01457
1.01151
1.01016
1.00937
1.0091
1.00971
1.01354
1.01461
1.04372
1.05039
1.04317
1.03973
1.0382
1.03731
1.03697
1.03745
1.04125
1.04258
1.06531
1.0803
1.07261
1.06874
1.06699
1.06599
1.06555
1.06587
1.0695
1.07121
1.08715
1.11128
1.10307
1.0987
1.09669
1.09555
1.095
1.09512
1.09843
1.1007
1.10931
1.14356
1.13476
1.12981
1.12748
1.12617
1.12549
1.1254
1.12822
1.13127
1.13196
1.17742
1.16794
1.16233
1.15958
1.15807
1.15724
1.15692
1.15909
1.16322
1.15485
1.21323
1.20295
1.19654
1.19329
1.19151
1.1905
1.18998
1.19132
1.19691
1.17996
1.25148
1.24021
1.23283
1.22895
1.2268
1.22557
1.22487
1.22529
1.23168
1.21743
1.29282
1.28027
1.27171
1.267
1.26436
1.26283
1.26197
1.26153
1.26738
1.26041
1.33816
1.32393
1.31384
1.30803
1.3047
1.30275
1.30169
1.30065
1.30477
1.30435
1.38889
1.37228
1.36012
1.35282
1.34852
1.34594
1.34455
1.34321
1.3452
1.34796
1.44716
1.42701
1.41187
1.40247
1.39676
1.39323
1.39127
1.38976
1.39002
1.39284
1.51683
1.49094
1.47113
1.45854
1.45071
1.44578
1.44287
1.44104
1.44026
1.44173
1.60505
1.56872
1.54112
1.52348
1.51232
1.50517
1.50073
1.49812
1.4967
1.49688
1.7324
1.67194
1.62802
1.60127
1.58484
1.57432
1.56752
1.56332
1.56096
1.56013
1.94138
1.8242
1.74569
1.69879
1.67133
1.65484
1.64465
1.6384
1.63483
1.63322
2.63805
2.12472
1.92349
1.84287
1.79397
1.76368
1.74426
1.73183
1.72425
1.72018
12.7658
6.71616
3.18485
2.08597
1.92948
1.88541
1.8632
1.84936
1.83992
1.8337
12.1214
11.4643
7.60669
4.20566
2.62493
2.135
2.02479
1.98741
1.96947
1.96125
11.4096
11.6661
10.8685
7.90162
5.28204
3.66784
2.85206
2.45671
2.30675
2.24155
10.891
9.97533
9.53517
8.56671
7.17719
6.07001
5.29145
4.69428
4.25995
3.95823
141.456
166.514
166.46
166.938
167.695
168.864
170.472
172.531
175.347
178.641
181.999
185.852
189.521
192.542
194.764
196.163
196.724
196.917
197.1
197.284
197.477
197.691
197.949
198.32
200.457
139.045
164.176
162.073
162.147
162.257
162.758
164.276
167.481
173.887
183.417
194.579
206.736
219.034
230.529
240.3
247.485
251.534
251.417
246.557
237.484
225.766
213.908
204.767
200.004
200.088
132.479
163.039
161.69
161.531
161.434
161.51
162.022
163.994
171.062
185.331
204.091
226.064
249.902
273.719
295.19
311.86
321.572
322.908
315.325
299.015
275.359
247.83
222.568
205.718
200.426
125.111
162.724
161.865
161.61
161.239
161.162
161.322
162.083
167.231
183.531
208.492
240.014
276.543
315.394
352.421
382.461
400.725
404.084
392.033
366.233
329.736
286.835
244.974
214.075
201.293
117.079
163.011
163.03
162.826
161.689
161.029
160.947
161.335
163.777
178.565
207.174
246.532
295.158
350.071
405.252
451.803
481.228
487.829
470.638
433.266
382.161
324.041
267.015
222.81
202.345
108.055
163.559
165.424
165.9
163.82
161.664
160.852
160.792
161.498
171.66
200.272
244.273
302.264
371.632
445.013
509.414
552.005
563.555
542.201
493.596
428.053
355.76
285.812
230.46
203.309
98.7365
163.029
168.625
170.887
168.236
164.029
161.25
160.629
160.799
165.475
189.187
233.491
296.284
375.689
464.064
545.257
601.961
620.781
597.79
540.752
463.577
379.902
300.08
236.397
204.089
89.3293
161.246
171.944
177.271
175.075
169.017
163.292
160.706
160.419
161.536
176.701
216.178
278.024
361.278
458.497
552.826
622.672
652.523
630.107
569.579
486.024
395.418
309.439
240.459
204.665
79.8718
158.108
174.632
183.927
183.625
176.659
168.089
162.059
160.322
160.29
166.745
195.903
250.769
330.414
429.57
531.328
611.033
646.715
637.298
578.151
494.239
402.025
313.933
242.668
205.042
70.4797
153.452
176.529
190.113
193.09
186.624
176.021
166.184
160.897
160.039
161.186
177.145
219.774
288.784
381.651
484.215
571.471
619.82
617.606
566.799
488.979
400.235
313.909
243.167
205.264
61.3009
147.136
177.741
195.303
202.683
198.266
187.049
174.279
164.276
160.079
159.912
164.871
190.92
243.861
323.009
419.045
508.752
565.168
574.861
538.626
471.86
390.934
309.816
242.063
205.479
52.4374
138.855
177.794
199.185
211.845
211.015
200.754
186.298
172.464
162.928
159.761
159.832
170.037
203.385
263.011
345.11
432.516
496.887
518.26
497.822
445.089
375.284
302.202
239.552
205.693
43.9712
129.04
176.291
201.714
220.153
224.404
216.894
202.398
185.722
171.159
162.168
159.638
160.683
174.229
211.219
272.533
349.643
419.624
454.715
448.785
411.592
354.865
291.816
235.975
205.91
35.9704
117.899
172.866
202.876
227.175
237.778
234.801
222.434
204.928
186.472
170.97
161.957
159.563
161.267
175.619
212.512
270.236
337.006
385.975
396.197
374.376
331.527
279.618
231.75
206.132
28.5091
105.631
167.205
202.465
232.381
250.17
253.403
245.284
229.45
209.572
189.274
172.261
162.33
159.493
160.939
173.85
206.982
258.238
312.218
342.151
335.651
306.971
266.56
227.319
206.364
21.6079
92.0487
158.92
200.182
235.079
260.712
271.521
269.417
257.688
239.28
217.239
194.759
175.445
163.423
159.329
160.08
169.66
197.003
239.817
281.384
297.216
282.181
253.729
223.184
206.61
15.6743
77.157
147.519
195.425
234.64
268.194
287.409
292.949
287.338
273.117
252.68
228.556
203.59
181.241
165.758
159.108
158.699
164.709
184.712
218.602
250.077
258.362
241.131
219.423
206.876
11.0032
61.5331
132.542
187.244
230.605
270.911
299.255
313.576
315.65
307.767
291.826
269.764
243.712
216.245
190.579
170.517
159.978
157.223
159.695
172.076
196.791
223.5
232.396
218.854
207.203
7.59657
46.3746
114.368
174.889
222.667
267.652
304.931
328.474
339.291
338.989
329.571
312.411
289.068
261.351
231.577
202.68
178.228
162.575
156.212
156.115
161.231
175.657
196.472
209.18
207.836
5.19206
32.6281
93.6197
157.547
210.116
258.183
302.314
335.389
355.188
363.406
361.547
351.176
333.342
309.371
280.763
249.687
218.657
190.717
169.293
157.673
153.733
153.672
158.336
166.031
169.128
3.55001
20.8978
71.4075
134.723
191.649
242.261
290.316
331.647
361.115
378.206
384.823
382.095
371.247
353.605
329.761
301.289
270.12
238.415
208.595
183.287
165.459
154.808
149.175
146.884
146.489
2.49655
11.9308
48.8591
106.919
166.199
219.44
269.179
315.301
353.385
380.228
395.782
400.981
397.634
387.479
370.974
348.294
321.388
291.969
262.166
233.815
208.964
189.496
175.888
167.865
164.939
1.85739
6.5737
29.2225
76.4829
133.651
188.756
239.529
287.096
329.974
364.93
390.03
404.019
408.667
404.837
397.178
381.964
361.671
337.168
310.964
285.154
260.574
239.206
222.795
212.032
206.964
1.50111
3.76524
14.9834
47.7994
96.5916
150.053
201.259
248.864
292.783
331.608
363.425
386.503
400.274
404.49
405.246
396.01
383.658
365.572
343.564
322.399
302.209
282.568
265.751
252.851
244.808
1.32733
2.37106
6.67735
24.5143
59.9339
105.996
154.715
201.474
244.787
284.023
318.277
346.31
367.588
381.556
387.935
388.253
382.663
371.04
354.323
336.83
321.808
306.211
292.2
280.162
270.389
1.25791
1.68755
3.26147
10.1676
30.3874
63.3412
103.926
146.616
187.835
225.868
259.877
289.184
313.283
331.762
344.029
350.16
350.73
346.403
338.356
327.997
316.425
304.121
292.511
282.529
274.741
1.24633
1.39155
1.98956
3.73282
11.6014
29.879
57.4112
90.7182
126.017
160.48
192.398
220.815
245.174
265.128
280.349
290.673
296.309
297.826
295.893
291.217
284.605
276.894
268.846
261.089
254.134
1.26245
1.30805
1.47935
1.92231
3.54601
9.99703
23.8372
44.2736
69.1153
95.8788
122.472
147.422
169.79
189.021
204.761
216.829
225.277
230.361
232.497
232.238
230.049
226.454
221.98
217.11
212.262
1.29982
1.30919
1.33788
1.44638
1.59361
2.33597
5.95294
14.0665
27.0991
43.4526
61.5254
79.8822
97.4194
113.364
127.197
138.615
147.523
153.992
158.215
160.457
161.095
160.479
158.913
156.708
154.145
1.34617
1.34522
1.34628
1.36351
1.41039
1.51907
1.63854
2.40598
5.33249
10.8688
19.0566
29.1381
39.8835
50.4723
60.3098
68.9871
76.2705
82.0821
86.4518
89.4872
91.3469
92.2215
92.3384
91.8786
90.996
1.39454
1.39471
1.39051
1.38649
1.39372
1.42139
1.46383
1.54217
1.62587
1.70102
2.38288
4.17067
6.9638
10.537
14.6004
18.8429
23.0038
26.6684
29.6961
32.0586
33.7834
34.9366
35.601
35.8772
35.867
1.44447
1.44721
1.44764
1.44478
1.44138
1.44221
1.45205
1.47436
1.50885
1.5456
1.60242
1.65086
1.69708
1.74355
1.78989
1.85952
2.13183
2.51773
2.94135
3.34655
3.69646
3.97278
4.17057
4.29463
4.35429
1.49886
1.50218
1.50588
1.50842
1.50904
1.50791
1.50807
1.51051
1.52264
1.53583
1.55696
1.58365
1.61227
1.64185
1.6716
1.70361
1.74007
1.77215
1.8019
1.83107
1.85986
1.88834
1.91656
1.94453
1.97235
1.56094
1.56338
1.56735
1.57226
1.57727
1.58144
1.58486
1.58793
1.5909
1.59697
1.60554
1.61683
1.63308
1.65082
1.66876
1.68932
1.71175
1.73548
1.75964
1.78401
1.8085
1.83308
1.85772
1.88241
1.90714
1.63323
1.63474
1.6378
1.64241
1.64834
1.65515
1.66234
1.66976
1.67683
1.68431
1.69248
1.70166
1.71187
1.72376
1.73735
1.75238
1.76864
1.78609
1.8046
1.824
1.84414
1.86492
1.88611
1.90824
1.93081
1.71868
1.71914
1.72127
1.72496
1.73015
1.73677
1.74463
1.75354
1.76326
1.77359
1.78449
1.796
1.80809
1.82087
1.83447
1.84893
1.86423
1.88034
1.89724
1.91486
1.93316
1.95205
1.97149
1.99138
2.01167
1.83019
1.82893
1.82955
1.83185
1.83572
1.84107
1.84781
1.85586
1.86514
1.87551
1.88687
1.89911
1.91215
1.92594
1.94042
1.95556
1.97133
1.98771
2.00466
2.02214
2.04012
2.05854
2.07737
2.09655
2.11606
1.95829
1.95833
1.9603
1.96377
1.96852
1.97444
1.98147
1.98957
1.99872
2.00886
2.01997
2.03198
2.04483
2.05848
2.07286
2.08791
2.10359
2.11985
2.13662
2.15388
2.17157
2.18964
2.20807
2.2268
2.2458
2.20865
2.19055
2.18062
2.176
2.1751
2.17698
2.18105
2.18692
2.19431
2.20304
2.21297
2.22397
2.23596
2.24884
2.26254
2.27698
2.29211
2.30786
2.32417
2.34099
2.35826
2.37593
2.39396
2.41229
2.43097
3.75974
3.62784
3.53495
3.4666
3.41503
3.37575
3.34592
3.3236
3.30738
3.29623
3.28933
3.28608
3.28594
3.28848
3.29336
3.30029
3.30904
3.31938
3.33112
3.3441
3.35815
3.37314
3.38895
3.40546
3.42268
208.207
208.53
138.425
161.489
151.05
139.484
146.427
146.382
155.677
166.867
174.184
188.518
207.335
212.895
222.349
241.97
243.319
247.701
263.668
260.173
259.916
269.469
266.288
264.631
248.602
244.539
241.616
208.005
204.484
201.511
151.632
149.33
147.18
89.9304
88.8125
87.6567
35.6568
35.3223
34.9034
4.38474
4.40223
4.41163
1.99679
2.02087
2.04477
1.93039
1.95214
1.97393
1.95212
1.97231
1.99226
2.03102
2.04935
2.06787
2.1346
2.15213
2.16982
2.26383
2.28085
2.29801
2.44824
2.46486
2.48159
3.43818
3.45391
3.46982
227.138
138.35
134.355
133.841
133.623
133.476
133.35
133.239
133.14
133.05
132.967
132.889
132.816
132.746
132.68
132.615
132.553
132.493
132.435
132.378
132.322
132.267
132.214
132.161
132.109
132.058
132.008
131.958
131.909
131.86
131.812
131.764
131.717
131.67
131.624
131.578
131.532
131.486
131.44
131.395
131.35
131.305
131.26
131.216
131.171
131.126
131.081
131.02
130.94
130.839
130.716
130.568
130.395
130.194
129.967
129.71
129.425
129.112
128.771
128.404
128.017
127.614
127.204
126.802
126.426
126.103
125.869
125.765
125.668
125.553
125.427
125.476
125.851
126.803
129.225
131.66
133.705
134.692
135.133
135.993
158.507
135.572
134.388
134.247
134.509
135.097
136.06
137.398
139.055
140.898
142.845
144.849
146.87
148.879
150.859
152.795
154.68
156.507
158.275
159.981
161.626
163.209
164.732
166.195
167.6
168.95
170.244
171.484
172.673
173.811
174.899
175.938
176.93
177.873
178.769
179.616
180.413
181.155
181.841
182.466
183.023
183.507
183.91
184.223
184.436
184.541
184.53
184.405
184.143
183.729
183.151
182.395
181.447
180.295
178.924
177.318
175.464
173.346
170.949
168.26
165.267
161.965
158.352
154.439
150.253
145.849
141.346
137.05
133.056
129.586
126.821
125.022
124.422
124.288
126.808
131.715
137.303
141.631
138.406
136.737
141.822
135.099
134.767
135.756
137.898
141.289
145.792
151.076
156.793
162.677
168.631
174.522
180.277
185.847
191.205
196.337
201.239
205.915
210.368
214.608
218.644
222.486
226.143
229.627
232.945
236.107
239.121
241.995
244.735
247.349
249.842
252.22
254.487
256.647
258.703
260.653
262.497
264.232
265.851
267.348
268.712
269.933
270.995
271.883
272.579
273.061
273.31
273.303
273.028
272.452
271.55
270.293
268.653
266.601
264.105
261.132
257.647
253.612
248.988
243.735
237.813
231.186
223.823
215.707
206.836
197.239
186.987
176.215
165.153
154.155
143.745
134.685
128.197
124.323
123.209
126.019
132.208
138.923
140.564
137.413
137.709
135.196
136.059
139.311
144.811
152.417
161.542
171.553
181.96
192.435
202.758
212.769
222.384
231.557
240.271
248.53
256.344
263.735
270.724
277.336
283.595
289.525
295.147
300.481
305.548
310.365
314.946
319.308
323.462
327.421
331.196
334.797
338.234
341.513
344.641
347.619
350.446
353.12
355.633
357.977
360.137
362.1
363.844
365.35
366.591
367.539
368.161
368.425
368.293
367.733
366.702
365.16
363.065
360.375
357.045
353.027
348.27
342.717
336.307
328.976
320.657
311.284
300.792
289.128
276.251
262.147
246.844
230.438
213.122
195.24
177.33
160.182
144.863
132.713
125.151
122.415
124.861
131.433
139.022
137.915
136.645
135.544
138.323
144.629
154.271
166.585
180.56
195.352
210.362
225.184
239.551
253.314
266.402
278.789
290.485
301.512
311.906
321.706
330.952
339.685
347.942
355.759
363.169
370.203
376.886
383.244
389.298
395.067
400.568
405.818
410.832
415.622
420.202
424.584
428.776
432.782
436.601
440.227
443.655
446.87
449.857
452.596
455.063
457.231
459.067
460.534
461.592
462.195
462.294
461.837
460.776
459.056
456.624
453.428
449.414
444.526
438.704
431.88
423.982
414.932
404.647
393.043
380.037
365.548
349.506
331.857
312.578
291.694
269.313
245.678
221.237
196.739
173.313
152.477
135.979
125.451
121.864
123.093
130.228
139.367
136.394
136.289
141.275
151.075
165.104
182.112
200.745
219.995
239.176
257.85
275.766
292.802
308.918
324.118
338.437
351.922
364.629
376.613
387.93
398.633
408.77
418.386
427.523
436.216
444.499
452.399
459.943
467.153
474.048
480.645
486.961
493.011
498.814
504.383
509.731
514.864
519.777
524.463
528.912
533.106
537.023
540.637
543.919
546.833
549.34
551.394
552.944
553.932
554.295
553.965
552.878
550.967
548.166
544.411
539.646
533.813
526.852
518.697
509.273
498.502
486.299
472.579
457.254
440.242
421.462
400.849
378.357
353.971
327.73
299.757
270.327
239.967
209.614
180.758
155.459
136.047
124.498
120.97
121.286
127.517
136.466
137.199
144.61
158.04
176.379
197.817
220.719
243.952
266.789
288.808
309.8
329.685
348.457
366.154
382.833
398.563
413.416
427.461
440.764
453.388
465.389
476.818
487.723
498.145
508.119
517.678
526.848
535.654
544.115
552.249
560.07
567.595
574.844
581.836
588.588
595.104
601.376
607.391
613.129
618.565
623.668
628.402
632.727
636.596
639.957
642.749
644.906
646.354
647.012
646.795
645.615
643.39
640.037
635.483
629.672
622.556
614.09
604.22
592.887
580.028
565.577
549.465
531.619
511.965
490.431
466.951
441.472
413.967
384.449
352.989
319.749
285.043
249.477
214.177
181.051
152.845
132.574
122.261
119.622
119.207
136.603
138.108
148.093
165.081
187.476
212.959
239.664
266.377
292.376
317.286
340.951
363.336
384.472
404.425
423.276
441.11
458.012
474.063
489.338
503.906
517.83
531.168
543.97
556.28
568.138
579.578
590.627
601.31
611.645
621.647
631.326
640.697
649.78
658.603
667.186
675.528
683.61
691.41
698.895
706.028
712.762
719.047
724.824
730.025
734.577
738.396
741.389
743.455
744.484
744.362
742.973
740.211
735.976
730.185
722.787
713.76
703.093
690.768
676.765
661.062
643.639
624.471
603.529
580.775
556.159
529.621
501.1
470.543
437.928
403.291
366.745
328.51
288.974
248.856
209.551
173.579
144.647
126.498
120.133
118.795
136.742
139.051
151.564
171.915
198.021
227.111
257.138
286.851
315.565
342.968
368.959
393.549
416.804
438.817
459.688
479.519
498.406
516.441
533.708
550.283
566.234
581.623
596.506
610.929
624.935
638.559
651.829
664.768
677.392
689.709
701.725
713.444
724.889
736.1
747.098
757.873
768.39
778.612
788.49
797.965
806.97
815.429
823.254
830.348
836.602
841.894
846.089
849.042
850.596
850.593
848.875
845.299
839.744
832.12
822.386
810.567
796.717
780.88
763.104
743.443
721.955
698.698
673.722
647.058
618.71
588.65
556.812
523.111
487.458
449.806
410.192
368.771
325.847
281.923
237.929
195.764
158.985
132.692
121.075
118.619
136.868
140.018
154.921
178.375
207.809
240.055
272.937
305.202
336.224
365.758
393.76
420.284
445.429
469.312
492.055
513.774
534.579
554.572
573.846
592.484
610.564
628.15
645.303
662.073
678.506
694.636
710.492
726.096
741.457
756.579
771.453
786.073
800.466
814.687
828.752
842.639
856.3
869.676
882.693
895.268
907.3
918.678
929.273
938.943
947.529
954.855
960.726
964.932
967.249
967.451
965.317
960.649
953.297
943.167
930.242
914.616
896.443
875.872
853.051
828.145
801.328
772.777
742.653
711.088
678.17
643.924
608.306
571.207
532.468
491.923
449.468
405.135
359.142
311.913
264.135
217.174
174.008
140.133
122.466
118.473
136.983
140.986
158.11
184.382
216.75
251.71
287
321.396
354.343
385.665
415.37
443.553
470.346
495.891
520.328
543.792
566.406
588.283
609.528
630.233
650.481
670.345
689.89
709.17
728.233
747.115
765.844
784.438
802.902
821.229
839.398
857.389
875.234
892.996
910.694
928.297
945.741
962.942
979.798
996.19
1011.98
1027.01
1041.1
1054.05
1065.64
1075.61
1083.68
1089.57
1092.96
1093.51
1090.92
1084.91
1075.3
1061.98
1045.01
1024.58
1000.98
974.5
945.431
914.088
880.797
845.878
809.629
772.3
734.073
695.042
655.196
614.417
572.487
529.127
484.067
437.146
388.431
338.266
287.251
236.424
188.161
147.797
124.105
118.348
137.091
141.944
161.118
189.923
224.84
262.087
299.358
335.48
369.977
402.739
433.825
463.371
491.538
518.492
544.394
569.395
593.634
617.236
640.317
662.979
685.313
707.399
729.307
751.096
772.817
794.506
816.191
837.885
859.588
881.284
902.94
924.525
946.067
967.639
989.267
1010.92
1032.52
1053.95
1075.1
1095.8
1115.87
1135.11
1153.28
1170.1
1185.26
1198.43
1209.23
1217.24
1222.02
1223.09
1220.04
1212.45
1200.15
1183.07
1161.34
1135.32
1105.47
1072.23
1036.1
997.566
957.118
915.237
872.358
828.85
784.988
740.927
696.689
652.149
607.043
560.998
513.589
464.455
413.445
360.766
306.976
252.965
200.633
154.919
125.75
118.233
137.194
142.902
163.979
195.054
232.155
271.275
310.107
347.55
383.212
417.048
449.167
479.74
508.959
537.011
564.077
590.322
615.901
640.952
665.599
689.954
714.116
738.172
762.196
786.253
810.393
834.656
859.068
883.639
908.364
933.22
958.168
983.165
1008.23
1033.44
1058.84
1084.41
1110.06
1135.67
1161.08
1186.13
1210.58
1234.18
1256.62
1277.56
1296.6
1313.29
1327.11
1337.5
1343.87
1345.58
1342.03
1332.64
1317.34
1296.26
1269.47
1237.6
1201.28
1161.18
1117.97
1072.31
1024.88
976.273
927.059
877.7
828.543
779.792
731.489
683.502
635.528
587.117
537.726
486.817
434.019
379.344
323.284
266.685
211.12
161.074
127.224
118.124
137.292
143.885
166.779
199.907
238.848
279.432
319.395
357.737
394.152
428.663
461.426
492.646
522.538
551.311
579.16
606.265
632.79
658.884
684.678
710.292
735.829
761.382
787.029
812.835
838.853
865.123
891.668
918.498
945.604
972.959
1000.52
1028.24
1056.11
1084.23
1112.64
1141.34
1170.24
1199.23
1228.13
1256.75
1284.84
1312.1
1338.18
1362.65
1385.01
1404.68
1420.96
1433.1
1440.48
1442.6
1438.95
1428.99
1411.14
1386.82
1355.71
1318.75
1276.86
1230.92
1181.8
1130.31
1077.22
1023.25
969.018
915.064
861.776
809.387
757.949
707.322
657.176
607.008
556.19
504.061
450.069
394.017
336.291
277.728
219.688
166.191
128.454
118.018
137.387
145
169.724
204.741
245.184
286.795
327.422
366.196
402.91
437.653
470.625
502.059
532.19
561.241
589.419
616.913
643.892
670.508
696.898
723.184
749.471
775.852
802.407
829.2
856.283
883.693
911.452
939.565
968.022
996.792
1025.83
1055.08
1084.52
1114.23
1144.27
1174.64
1205.27
1236.03
1266.75
1297.24
1327.23
1356.41
1384.39
1410.65
1434.48
1454.64
1468.47
1476.24
1479.04
1478.88
1477.53
1475.15
1462.93
1437.8
1404.69
1364.92
1319.85
1270.6
1218.18
1163.48
1107.32
1050.46
993.558
937.174
881.714
827.422
774.357
722.378
671.145
620.133
568.672
516.029
461.538
404.828
346.151
286.328
226.582
170.453
129.521
117.914
137.476
146.327
173.112
209.942
251.529
293.67
334.422
373.093
409.59
444.066
476.76
507.926
537.814
566.655
594.657
622.011
648.885
675.431
701.784
728.061
754.366
780.787
807.398
834.263
861.428
888.925
916.772
944.969
973.5
1002.33
1031.42
1060.7
1090.14
1119.78
1149.68
1179.84
1210.18
1240.59
1270.91
1300.92
1330.38
1358.99
1386.37
1412.06
1435.39
1455.93
1469.89
1475.05
1477.09
1478.29
1477.87
1473.2
1460.76
1437.41
1405.11
1365.89
1321.27
1272.45
1220.43
1166.12
1110.34
1053.85
997.296
941.242
886.09
832.087
779.298
727.593
676.647
625.944
574.819
522.526
468.35
411.808
353.021
292.756
232.138
174.205
130.641
117.813
137.638
148.524
177.63
216.077
258.306
300.357
340.601
378.555
414.251
447.908
479.795
510.179
539.311
567.42
594.713
621.372
647.559
673.417
699.072
724.633
750.197
775.843
801.638
827.637
853.879
880.388
907.175
934.235
961.547
989.077
1016.77
1044.56
1072.42
1100.36
1128.39
1156.5
1184.63
1212.66
1240.44
1267.78
1294.44
1320.15
1344.57
1367.33
1387.98
1405.94
1421.49
1432.76
1439.28
1441.16
1437.47
1427.43
1410.52
1386.78
1356.67
1320.88
1280.21
1235.5
1187.58
1137.26
1085.31
1032.44
979.269
926.329
874.005
822.537
771.996
722.275
673.08
623.943
574.245
523.279
470.353
414.947
357.08
297.425
237.017
178.272
132.412
117.715
137.966
151.618
183.955
223.824
265.926
307.016
345.967
382.525
416.804
449.061
479.587
508.654
536.51
563.375
589.443
614.881
639.834
664.431
688.785
712.991
737.133
761.28
785.489
809.801
834.248
858.844
883.593
908.485
933.498
958.595
983.723
1008.82
1033.84
1058.77
1083.62
1108.35
1132.89
1157.13
1180.95
1204.17
1226.59
1247.97
1268.05
1286.53
1303.08
1317.3
1328.95
1337.63
1342.73
1343.51
1339.45
1330.12
1315.33
1295.11
1269.68
1239.42
1204.84
1166.52
1125.1
1081.25
1035.61
988.792
941.338
893.707
846.243
799.164
752.538
706.282
660.149
613.74
566.52
517.881
467.212
414.055
358.406
300.873
242.523
184.91
136.806
117.624
140.203
159.884
194.655
234.337
274.755
313.625
350.297
384.698
416.971
447.336
476.042
503.348
529.502
554.712
579.151
602.963
626.273
649.189
671.805
694.201
716.447
738.6
760.702
782.787
804.874
826.971
849.074
871.173
893.247
915.262
937.167
958.903
980.424
1001.71
1022.73
1043.46
1063.84
1083.77
1103.15
1121.83
1139.64
1156.42
1171.94
1185.99
1198.32
1208.68
1216.8
1222.42
1225.22
1224.76
1220.62
1212.45
1200.09
1183.5
1162.76
1138.1
1109.83
1078.33
1044.04
1007.46
969.067
929.319
888.643
847.395
805.849
764.176
722.43
680.542
638.316
595.429
551.463
505.94
458.392
408.495
356.364
302.712
248.951
196.452
148.302
119.566
150.697
177.666
211.591
248.228
284.863
320.038
353.355
384.781
414.414
442.399
468.903
494.124
518.271
541.53
564.05
585.954
607.341
628.297
648.897
669.203
689.27
709.143
728.854
748.427
767.874
787.194
806.382
825.427
844.313
863.009
881.474
899.658
917.518
935.022
952.146
968.858
985.109
1000.83
1015.93
1030.31
1043.84
1056.39
1067.81
1077.94
1086.6
1093.63
1098.85
1102.07
1103.09
1101.65
1097.49
1090.33
1080.02
1066.52
1049.83
1030.08
1007.43
982.137
954.476
924.766
893.331
860.487
826.525
791.689
756.165
720.067
683.422
646.167
608.147
569.122
528.787
486.814
442.891
396.872
349.073
300.441
252.607
208.024
168.132
133.366
175.379
202.721
232.487
263.883
295.185
325.516
354.583
382.298
408.677
433.781
457.695
480.537
502.444
523.543
543.944
563.739
583.008
601.815
620.219
638.266
655.998
673.448
690.642
707.595
724.312
740.79
757.02
772.996
788.703
804.119
819.215
833.952
848.296
862.218
875.693
888.694
901.186
913.119
924.431
935.049
944.887
953.851
961.837
968.738
974.438
978.82
981.768
983.168
982.885
980.777
976.666
970.38
961.795
950.842
937.509
921.837
903.917
883.881
861.895
838.141
812.811
786.093
758.156
729.142
699.154
668.246
636.415
603.601
569.687
534.508
497.868
459.573
419.449
377.531
334.329
290.837
248.399
208.494
173.081
144.82
206.573
229.137
252.906
278.096
303.472
328.477
352.84
376.403
399.118
420.981
442.014
462.25
481.732
500.518
518.669
536.242
553.291
569.863
586
601.74
617.112
632.142
646.85
661.246
675.331
689.098
702.538
715.647
728.418
740.835
752.88
764.529
775.755
786.537
796.854
806.687
816.012
824.794
832.995
840.565
847.447
853.581
858.897
863.325
866.789
869.214
870.523
870.642
869.494
866.989
863.018
857.471
850.256
841.306
830.585
818.09
803.854
787.937
770.417
751.386
730.935
709.152
686.116
661.887
636.499
609.96
582.247
553.307
523.06
491.414
458.272
423.551
387.209
349.459
310.918
272.507
235.313
200.535
169.331
142.682
235.135
251.188
268.709
287.711
307.286
327.027
346.648
365.971
384.895
403.377
421.377
438.844
455.746
472.082
487.873
503.146
517.928
532.249
546.134
559.608
572.694
585.412
597.776
609.796
621.467
632.778
643.724
654.304
664.514
674.349
683.797
692.844
701.473
709.67
717.421
724.711
731.525
737.842
743.638
748.881
753.535
757.562
760.918
763.556
765.428
766.483
766.676
765.956
764.273
761.566
757.77
752.81
746.62
739.141
730.324
720.136
708.568
695.636
681.363
665.775
648.898
630.756
611.362
590.724
568.835
545.677
521.224
495.44
468.291
439.755
409.825
378.512
345.89
312.298
278.359
244.868
212.679
182.643
155.557
132.163
255.074
265.186
277.076
290.514
304.777
319.59
334.706
349.93
365.133
380.222
395.105
409.68
423.871
437.643
450.983
463.894
476.384
488.462
500.143
511.438
522.361
532.926
543.143
553.02
562.547
571.712
580.512
588.948
597.019
604.723
612.057
619.01
625.574
631.739
637.496
642.836
647.747
652.218
656.233
659.772
662.814
665.332
667.299
668.684
669.453
669.579
669.024
667.754
665.73
662.912
659.251
654.695
649.191
642.687
635.129
626.466
616.662
605.703
593.579
580.28
565.796
550.111
533.21
515.073
495.68
475.013
453.06
429.821
405.315
379.585
352.704
324.754
295.909
266.552
237.247
208.64
181.378
156.065
133.207
113.208
262.723
267.886
274.954
283.597
293.341
303.88
314.99
326.48
338.196
350.014
361.814
373.488
384.948
396.139
407.024
417.585
427.813
437.705
447.262
456.489
465.391
473.975
482.247
490.211
497.859
505.176
512.159
518.808
525.123
531.104
536.748
542.049
547.002
551.6
555.835
559.702
563.192
566.297
569.007
571.309
573.187
574.624
575.601
576.094
576.085
575.545
574.445
572.756
570.449
567.49