/*--------------------------------*- C++ -*----------------------------------*\
| =========                 |                                                 |
| \\      /  F ield         | OpenFOAM: The Open Source CFD Toolbox           |
|  \\    /   O peration     | Version:  v2012                                 |
|   \\  /    A nd           | Website:  www.openfoam.com                      |
|    \\/     M anipulation  |                                                 |
\*---------------------------------------------------------------------------*/
FoamFile
{
    version     2.0;
    format      ascii;
    class       volVectorField;
    location    "662";
    object      C;
}
// * * * * * * * * * * * * * * * * * * * * * * * * * * * * * * * * * * * * * //

dimensions      [0 1 0 0 0 0 0];


internalField   nonuniform List<vector> 
6532
(
(0.01 1.4875 -0.005)
(0.03 1.4875 -0.005)
(0.05 1.4875 -0.005)
(0.07 1.4875 -0.005)
(0.09 1.4875 -0.005)
(0.11 1.4875 -0.005)
(0.13 1.4875 -0.005)
(0.15 1.4875 -0.005)
(0.17 1.4875 -0.005)
(0.19 1.4875 -0.005)
(0.01 1.4625 -0.005)
(0.03 1.4625 -0.005)
(0.05 1.4625 -0.005)
(0.07 1.4625 -0.005)
(0.09 1.4625 -0.005)
(0.11 1.4625 -0.005)
(0.13 1.4625 -0.005)
(0.15 1.4625 -0.005)
(0.17 1.4625 -0.005)
(0.19 1.4625 -0.005)
(0.01 1.4375 -0.005)
(0.03 1.4375 -0.005)
(0.05 1.4375 -0.005)
(0.07 1.4375 -0.005)
(0.09 1.4375 -0.005)
(0.11 1.4375 -0.005)
(0.13 1.4375 -0.005)
(0.15 1.4375 -0.005)
(0.17 1.4375 -0.005)
(0.19 1.4375 -0.005)
(0.01 1.4125 -0.005)
(0.03 1.4125 -0.005)
(0.05 1.4125 -0.005)
(0.07 1.4125 -0.005)
(0.09 1.4125 -0.005)
(0.11 1.4125 -0.005)
(0.13 1.4125 -0.005)
(0.15 1.4125 -0.005)
(0.17 1.4125 -0.005)
(0.19 1.4125 -0.005)
(0.01 1.3875 -0.005)
(0.03 1.3875 -0.005)
(0.05 1.3875 -0.005)
(0.07 1.3875 -0.005)
(0.09 1.3875 -0.005)
(0.11 1.3875 -0.005)
(0.13 1.3875 -0.005)
(0.15 1.3875 -0.005)
(0.17 1.3875 -0.005)
(0.19 1.3875 -0.005)
(0.01 1.3625 -0.005)
(0.03 1.3625 -0.005)
(0.05 1.3625 -0.005)
(0.07 1.3625 -0.005)
(0.09 1.3625 -0.005)
(0.11 1.3625 -0.005)
(0.13 1.3625 -0.005)
(0.15 1.3625 -0.005)
(0.17 1.3625 -0.005)
(0.19 1.3625 -0.005)
(0.01 1.3375 -0.005)
(0.03 1.3375 -0.005)
(0.05 1.3375 -0.005)
(0.07 1.3375 -0.005)
(0.09 1.3375 -0.005)
(0.11 1.3375 -0.005)
(0.13 1.3375 -0.005)
(0.15 1.3375 -0.005)
(0.17 1.3375 -0.005)
(0.19 1.3375 -0.005)
(0.01 1.3125 -0.005)
(0.03 1.3125 -0.005)
(0.05 1.3125 -0.005)
(0.07 1.3125 -0.005)
(0.09 1.3125 -0.005)
(0.11 1.3125 -0.005)
(0.13 1.3125 -0.005)
(0.15 1.3125 -0.005)
(0.17 1.3125 -0.005)
(0.19 1.3125 -0.005)
(0.01 1.2875 -0.005)
(0.03 1.2875 -0.005)
(0.05 1.2875 -0.005)
(0.07 1.2875 -0.005)
(0.09 1.2875 -0.005)
(0.11 1.2875 -0.005)
(0.13 1.2875 -0.005)
(0.15 1.2875 -0.005)
(0.17 1.2875 -0.005)
(0.19 1.2875 -0.005)
(0.01 1.2625 -0.005)
(0.03 1.2625 -0.005)
(0.05 1.2625 -0.005)
(0.07 1.2625 -0.005)
(0.09 1.2625 -0.005)
(0.11 1.2625 -0.005)
(0.13 1.2625 -0.005)
(0.15 1.2625 -0.005)
(0.17 1.2625 -0.005)
(0.19 1.2625 -0.005)
(0.01 1.2375 -0.005)
(0.03 1.2375 -0.005)
(0.05 1.2375 -0.005)
(0.07 1.2375 -0.005)
(0.09 1.2375 -0.005)
(0.11 1.2375 -0.005)
(0.13 1.2375 -0.005)
(0.15 1.2375 -0.005)
(0.17 1.2375 -0.005)
(0.19 1.2375 -0.005)
(0.01 1.2125 -0.005)
(0.03 1.2125 -0.005)
(0.05 1.2125 -0.005)
(0.07 1.2125 -0.005)
(0.09 1.2125 -0.005)
(0.11 1.2125 -0.005)
(0.13 1.2125 -0.005)
(0.15 1.2125 -0.005)
(0.17 1.2125 -0.005)
(0.19 1.2125 -0.005)
(0.01 1.1875 -0.005)
(0.03 1.1875 -0.005)
(0.05 1.1875 -0.005)
(0.07 1.1875 -0.005)
(0.09 1.1875 -0.005)
(0.11 1.1875 -0.005)
(0.13 1.1875 -0.005)
(0.15 1.1875 -0.005)
(0.17 1.1875 -0.005)
(0.19 1.1875 -0.005)
(0.01 1.1625 -0.005)
(0.03 1.1625 -0.005)
(0.05 1.1625 -0.005)
(0.07 1.1625 -0.005)
(0.09 1.1625 -0.005)
(0.11 1.1625 -0.005)
(0.13 1.1625 -0.005)
(0.15 1.1625 -0.005)
(0.17 1.1625 -0.005)
(0.19 1.1625 -0.005)
(0.01 1.1375 -0.005)
(0.03 1.1375 -0.005)
(0.05 1.1375 -0.005)
(0.07 1.1375 -0.005)
(0.09 1.1375 -0.005)
(0.11 1.1375 -0.005)
(0.13 1.1375 -0.005)
(0.15 1.1375 -0.005)
(0.17 1.1375 -0.005)
(0.19 1.1375 -0.005)
(0.01 1.1125 -0.005)
(0.03 1.1125 -0.005)
(0.05 1.1125 -0.005)
(0.07 1.1125 -0.005)
(0.09 1.1125 -0.005)
(0.11 1.1125 -0.005)
(0.13 1.1125 -0.005)
(0.15 1.1125 -0.005)
(0.17 1.1125 -0.005)
(0.19 1.1125 -0.005)
(0.01 1.0875 -0.005)
(0.03 1.0875 -0.005)
(0.05 1.0875 -0.005)
(0.07 1.0875 -0.005)
(0.09 1.0875 -0.005)
(0.11 1.0875 -0.005)
(0.13 1.0875 -0.005)
(0.15 1.0875 -0.005)
(0.17 1.0875 -0.005)
(0.19 1.0875 -0.005)
(0.01 1.0625 -0.005)
(0.03 1.0625 -0.005)
(0.05 1.0625 -0.005)
(0.07 1.0625 -0.005)
(0.09 1.0625 -0.005)
(0.11 1.0625 -0.005)
(0.13 1.0625 -0.005)
(0.15 1.0625 -0.005)
(0.17 1.0625 -0.005)
(0.19 1.0625 -0.005)
(0.01 1.0375 -0.005)
(0.03 1.0375 -0.005)
(0.05 1.0375 -0.005)
(0.07 1.0375 -0.005)
(0.09 1.0375 -0.005)
(0.11 1.0375 -0.005)
(0.13 1.0375 -0.005)
(0.15 1.0375 -0.005)
(0.17 1.0375 -0.005)
(0.19 1.0375 -0.005)
(0.01 1.0125 -0.005)
(0.03 1.0125 -0.005)
(0.05 1.0125 -0.005)
(0.07 1.0125 -0.005)
(0.09 1.0125 -0.005)
(0.11 1.0125 -0.005)
(0.13 1.0125 -0.005)
(0.15 1.0125 -0.005)
(0.17 1.0125 -0.005)
(0.19 1.0125 -0.005)
(0.01 0.987222 -0.005)
(0.03 0.987222 -0.005)
(0.05 0.987222 -0.005)
(0.07 0.987222 -0.005)
(0.09 0.987222 -0.005)
(0.11 0.987222 -0.005)
(0.13 0.987222 -0.005)
(0.15 0.987222 -0.005)
(0.17 0.987222 -0.005)
(0.19 0.987222 -0.005)
(0.01 0.961667 -0.005)
(0.03 0.961667 -0.005)
(0.05 0.961667 -0.005)
(0.07 0.961667 -0.005)
(0.09 0.961667 -0.005)
(0.11 0.961667 -0.005)
(0.13 0.961667 -0.005)
(0.15 0.961667 -0.005)
(0.17 0.961667 -0.005)
(0.19 0.961667 -0.005)
(0.01 0.936111 -0.005)
(0.03 0.936111 -0.005)
(0.05 0.936111 -0.005)
(0.07 0.936111 -0.005)
(0.09 0.936111 -0.005)
(0.11 0.936111 -0.005)
(0.13 0.936111 -0.005)
(0.15 0.936111 -0.005)
(0.17 0.936111 -0.005)
(0.19 0.936111 -0.005)
(0.01 0.910556 -0.005)
(0.03 0.910556 -0.005)
(0.05 0.910556 -0.005)
(0.07 0.910556 -0.005)
(0.09 0.910556 -0.005)
(0.11 0.910556 -0.005)
(0.13 0.910556 -0.005)
(0.15 0.910556 -0.005)
(0.17 0.910556 -0.005)
(0.19 0.910556 -0.005)
(0.01 0.885 -0.005)
(0.03 0.885 -0.005)
(0.05 0.885 -0.005)
(0.07 0.885 -0.005)
(0.09 0.885 -0.005)
(0.11 0.885 -0.005)
(0.13 0.885 -0.005)
(0.15 0.885 -0.005)
(0.17 0.885 -0.005)
(0.19 0.885 -0.005)
(0.01 0.859444 -0.005)
(0.03 0.859444 -0.005)
(0.05 0.859444 -0.005)
(0.07 0.859444 -0.005)
(0.09 0.859444 -0.005)
(0.11 0.859444 -0.005)
(0.13 0.859444 -0.005)
(0.15 0.859444 -0.005)
(0.17 0.859444 -0.005)
(0.19 0.859444 -0.005)
(0.01 0.833889 -0.005)
(0.03 0.833889 -0.005)
(0.05 0.833889 -0.005)
(0.07 0.833889 -0.005)
(0.09 0.833889 -0.005)
(0.11 0.833889 -0.005)
(0.13 0.833889 -0.005)
(0.15 0.833889 -0.005)
(0.17 0.833889 -0.005)
(0.19 0.833889 -0.005)
(0.01 0.808333 -0.005)
(0.03 0.808333 -0.005)
(0.05 0.808333 -0.005)
(0.07 0.808333 -0.005)
(0.09 0.808333 -0.005)
(0.11 0.808333 -0.005)
(0.13 0.808333 -0.005)
(0.15 0.808333 -0.005)
(0.17 0.808333 -0.005)
(0.19 0.808333 -0.005)
(0.01 0.782778 -0.005)
(0.03 0.782778 -0.005)
(0.05 0.782778 -0.005)
(0.07 0.782778 -0.005)
(0.09 0.782778 -0.005)
(0.11 0.782778 -0.005)
(0.13 0.782778 -0.005)
(0.15 0.782778 -0.005)
(0.17 0.782778 -0.005)
(0.19 0.782778 -0.005)
(0.01 0.757222 -0.005)
(0.03 0.757222 -0.005)
(0.05 0.757222 -0.005)
(0.07 0.757222 -0.005)
(0.09 0.757222 -0.005)
(0.11 0.757222 -0.005)
(0.13 0.757222 -0.005)
(0.15 0.757222 -0.005)
(0.17 0.757222 -0.005)
(0.19 0.757222 -0.005)
(0.01 0.731667 -0.005)
(0.03 0.731667 -0.005)
(0.05 0.731667 -0.005)
(0.07 0.731667 -0.005)
(0.09 0.731667 -0.005)
(0.11 0.731667 -0.005)
(0.13 0.731667 -0.005)
(0.15 0.731667 -0.005)
(0.17 0.731667 -0.005)
(0.19 0.731667 -0.005)
(0.01 0.706111 -0.005)
(0.03 0.706111 -0.005)
(0.05 0.706111 -0.005)
(0.07 0.706111 -0.005)
(0.09 0.706111 -0.005)
(0.11 0.706111 -0.005)
(0.13 0.706111 -0.005)
(0.15 0.706111 -0.005)
(0.17 0.706111 -0.005)
(0.19 0.706111 -0.005)
(0.01 0.680556 -0.005)
(0.03 0.680556 -0.005)
(0.05 0.680556 -0.005)
(0.07 0.680556 -0.005)
(0.09 0.680556 -0.005)
(0.11 0.680556 -0.005)
(0.13 0.680556 -0.005)
(0.15 0.680556 -0.005)
(0.17 0.680556 -0.005)
(0.19 0.680556 -0.005)
(0.01 0.655 -0.005)
(0.03 0.655 -0.005)
(0.05 0.655 -0.005)
(0.07 0.655 -0.005)
(0.09 0.655 -0.005)
(0.11 0.655 -0.005)
(0.13 0.655 -0.005)
(0.15 0.655 -0.005)
(0.17 0.655 -0.005)
(0.19 0.655 -0.005)
(0.01 0.629444 -0.005)
(0.03 0.629444 -0.005)
(0.05 0.629444 -0.005)
(0.07 0.629444 -0.005)
(0.09 0.629444 -0.005)
(0.11 0.629444 -0.005)
(0.13 0.629444 -0.005)
(0.15 0.629444 -0.005)
(0.17 0.629444 -0.005)
(0.19 0.629444 -0.005)
(0.01 0.603889 -0.005)
(0.03 0.603889 -0.005)
(0.05 0.603889 -0.005)
(0.07 0.603889 -0.005)
(0.09 0.603889 -0.005)
(0.11 0.603889 -0.005)
(0.13 0.603889 -0.005)
(0.15 0.603889 -0.005)
(0.17 0.603889 -0.005)
(0.19 0.603889 -0.005)
(0.01 0.578333 -0.005)
(0.03 0.578333 -0.005)
(0.05 0.578333 -0.005)
(0.07 0.578333 -0.005)
(0.09 0.578333 -0.005)
(0.11 0.578333 -0.005)
(0.13 0.578333 -0.005)
(0.15 0.578333 -0.005)
(0.17 0.578333 -0.005)
(0.19 0.578333 -0.005)
(0.01 0.552778 -0.005)
(0.03 0.552778 -0.005)
(0.05 0.552778 -0.005)
(0.07 0.552778 -0.005)
(0.09 0.552778 -0.005)
(0.11 0.552778 -0.005)
(0.13 0.552778 -0.005)
(0.15 0.552778 -0.005)
(0.17 0.552778 -0.005)
(0.19 0.552778 -0.005)
(0.01 0.527727 -0.005)
(0.03 0.527727 -0.005)
(0.05 0.527727 -0.005)
(0.07 0.527727 -0.005)
(0.09 0.527727 -0.005)
(0.11 0.527727 -0.005)
(0.13 0.527727 -0.005)
(0.15 0.527727 -0.005)
(0.17 0.527727 -0.005)
(0.19 0.527727 -0.005)
(0.01 0.503182 -0.005)
(0.03 0.503182 -0.005)
(0.05 0.503182 -0.005)
(0.07 0.503182 -0.005)
(0.09 0.503182 -0.005)
(0.11 0.503182 -0.005)
(0.13 0.503182 -0.005)
(0.15 0.503182 -0.005)
(0.17 0.503182 -0.005)
(0.19 0.503182 -0.005)
(0.01 0.478636 -0.005)
(0.03 0.478636 -0.005)
(0.05 0.478636 -0.005)
(0.07 0.478636 -0.005)
(0.09 0.478636 -0.005)
(0.11 0.478636 -0.005)
(0.13 0.478636 -0.005)
(0.15 0.478636 -0.005)
(0.17 0.478636 -0.005)
(0.19 0.478636 -0.005)
(0.01 0.454091 -0.005)
(0.03 0.454091 -0.005)
(0.05 0.454091 -0.005)
(0.07 0.454091 -0.005)
(0.09 0.454091 -0.005)
(0.11 0.454091 -0.005)
(0.13 0.454091 -0.005)
(0.15 0.454091 -0.005)
(0.17 0.454091 -0.005)
(0.19 0.454091 -0.005)
(0.01 0.429545 -0.005)
(0.03 0.429545 -0.005)
(0.05 0.429545 -0.005)
(0.07 0.429545 -0.005)
(0.09 0.429545 -0.005)
(0.11 0.429545 -0.005)
(0.13 0.429545 -0.005)
(0.15 0.429545 -0.005)
(0.17 0.429545 -0.005)
(0.19 0.429545 -0.005)
(0.01 0.405 -0.005)
(0.03 0.405 -0.005)
(0.05 0.405 -0.005)
(0.07 0.405 -0.005)
(0.09 0.405 -0.005)
(0.11 0.405 -0.005)
(0.13 0.405 -0.005)
(0.15 0.405 -0.005)
(0.17 0.405 -0.005)
(0.19 0.405 -0.005)
(0.01 0.380455 -0.005)
(0.03 0.380455 -0.005)
(0.05 0.380455 -0.005)
(0.07 0.380455 -0.005)
(0.09 0.380455 -0.005)
(0.11 0.380455 -0.005)
(0.13 0.380455 -0.005)
(0.15 0.380455 -0.005)
(0.17 0.380455 -0.005)
(0.19 0.380455 -0.005)
(0.01 0.355909 -0.005)
(0.03 0.355909 -0.005)
(0.05 0.355909 -0.005)
(0.07 0.355909 -0.005)
(0.09 0.355909 -0.005)
(0.11 0.355909 -0.005)
(0.13 0.355909 -0.005)
(0.15 0.355909 -0.005)
(0.17 0.355909 -0.005)
(0.19 0.355909 -0.005)
(0.01 0.331364 -0.005)
(0.03 0.331364 -0.005)
(0.05 0.331364 -0.005)
(0.07 0.331364 -0.005)
(0.09 0.331364 -0.005)
(0.11 0.331364 -0.005)
(0.13 0.331364 -0.005)
(0.15 0.331364 -0.005)
(0.17 0.331364 -0.005)
(0.19 0.331364 -0.005)
(0.01 0.306818 -0.005)
(0.03 0.306818 -0.005)
(0.05 0.306818 -0.005)
(0.07 0.306818 -0.005)
(0.09 0.306818 -0.005)
(0.11 0.306818 -0.005)
(0.13 0.306818 -0.005)
(0.15 0.306818 -0.005)
(0.17 0.306818 -0.005)
(0.19 0.306818 -0.005)
(0.01 0.282273 -0.005)
(0.03 0.282273 -0.005)
(0.05 0.282273 -0.005)
(0.07 0.282273 -0.005)
(0.09 0.282273 -0.005)
(0.11 0.282273 -0.005)
(0.13 0.282273 -0.005)
(0.15 0.282273 -0.005)
(0.17 0.282273 -0.005)
(0.19 0.282273 -0.005)
(0.01 0.257727 -0.005)
(0.03 0.257727 -0.005)
(0.05 0.257727 -0.005)
(0.07 0.257727 -0.005)
(0.09 0.257727 -0.005)
(0.11 0.257727 -0.005)
(0.13 0.257727 -0.005)
(0.15 0.257727 -0.005)
(0.17 0.257727 -0.005)
(0.19 0.257727 -0.005)
(0.01 0.233182 -0.005)
(0.03 0.233182 -0.005)
(0.05 0.233182 -0.005)
(0.07 0.233182 -0.005)
(0.09 0.233182 -0.005)
(0.11 0.233182 -0.005)
(0.13 0.233182 -0.005)
(0.15 0.233182 -0.005)
(0.17 0.233182 -0.005)
(0.19 0.233182 -0.005)
(0.01 0.208636 -0.005)
(0.03 0.208636 -0.005)
(0.05 0.208636 -0.005)
(0.07 0.208636 -0.005)
(0.09 0.208636 -0.005)
(0.11 0.208636 -0.005)
(0.13 0.208636 -0.005)
(0.15 0.208636 -0.005)
(0.17 0.208636 -0.005)
(0.19 0.208636 -0.005)
(0.01 0.184091 -0.005)
(0.03 0.184091 -0.005)
(0.05 0.184091 -0.005)
(0.07 0.184091 -0.005)
(0.09 0.184091 -0.005)
(0.11 0.184091 -0.005)
(0.13 0.184091 -0.005)
(0.15 0.184091 -0.005)
(0.17 0.184091 -0.005)
(0.19 0.184091 -0.005)
(0.01 0.159545 -0.005)
(0.03 0.159545 -0.005)
(0.05 0.159545 -0.005)
(0.07 0.159545 -0.005)
(0.09 0.159545 -0.005)
(0.11 0.159545 -0.005)
(0.13 0.159545 -0.005)
(0.15 0.159545 -0.005)
(0.17 0.159545 -0.005)
(0.19 0.159545 -0.005)
(0.01 0.135 -0.005)
(0.03 0.135 -0.005)
(0.05 0.135 -0.005)
(0.07 0.135 -0.005)
(0.09 0.135 -0.005)
(0.11 0.135 -0.005)
(0.13 0.135 -0.005)
(0.15 0.135 -0.005)
(0.17 0.135 -0.005)
(0.19 0.135 -0.005)
(0.01 0.110455 -0.005)
(0.03 0.110455 -0.005)
(0.05 0.110455 -0.005)
(0.07 0.110455 -0.005)
(0.09 0.110455 -0.005)
(0.11 0.110455 -0.005)
(0.13 0.110455 -0.005)
(0.15 0.110455 -0.005)
(0.17 0.110455 -0.005)
(0.19 0.110455 -0.005)
(0.01 0.0859091 -0.005)
(0.03 0.0859091 -0.005)
(0.05 0.0859091 -0.005)
(0.07 0.0859091 -0.005)
(0.09 0.0859091 -0.005)
(0.11 0.0859091 -0.005)
(0.13 0.0859091 -0.005)
(0.15 0.0859091 -0.005)
(0.17 0.0859091 -0.005)
(0.19 0.0859091 -0.005)
(0.01 0.0613636 -0.005)
(0.03 0.0613636 -0.005)
(0.05 0.0613636 -0.005)
(0.07 0.0613636 -0.005)
(0.09 0.0613636 -0.005)
(0.11 0.0613636 -0.005)
(0.13 0.0613636 -0.005)
(0.15 0.0613636 -0.005)
(0.17 0.0613636 -0.005)
(0.19 0.0613636 -0.005)
(0.01 0.0368182 -0.005)
(0.03 0.0368182 -0.005)
(0.05 0.0368182 -0.005)
(0.07 0.0368182 -0.005)
(0.09 0.0368182 -0.005)
(0.11 0.0368182 -0.005)
(0.13 0.0368182 -0.005)
(0.15 0.0368182 -0.005)
(0.17 0.0368182 -0.005)
(0.19 0.0368182 -0.005)
(0.01 0.0122727 -0.005)
(0.03 0.0122727 -0.005)
(0.05 0.0122727 -0.005)
(0.07 0.0122727 -0.005)
(0.09 0.0122727 -0.005)
(0.11 0.0122727 -0.005)
(0.13 0.0122727 -0.005)
(0.15 0.0122727 -0.005)
(0.17 0.0122727 -0.005)
(0.19 0.0122727 -0.005)
(0.2095 0.987222 -0.005)
(0.2285 0.987222 -0.005)
(0.2475 0.987222 -0.005)
(0.2665 0.987222 -0.005)
(0.2855 0.987222 -0.005)
(0.3045 0.987222 -0.005)
(0.3235 0.987222 -0.005)
(0.3425 0.987222 -0.005)
(0.3615 0.987222 -0.005)
(0.3805 0.987222 -0.005)
(0.3995 0.987222 -0.005)
(0.4185 0.987222 -0.005)
(0.4375 0.987222 -0.005)
(0.4565 0.987222 -0.005)
(0.4755 0.987222 -0.005)
(0.4945 0.987222 -0.005)
(0.5135 0.987222 -0.005)
(0.5325 0.987222 -0.005)
(0.5515 0.987222 -0.005)
(0.5705 0.987222 -0.005)
(0.5895 0.987222 -0.005)
(0.6085 0.987222 -0.005)
(0.6275 0.987222 -0.005)
(0.6465 0.987222 -0.005)
(0.6655 0.987222 -0.005)
(0.2095 0.961667 -0.005)
(0.2285 0.961667 -0.005)
(0.2475 0.961667 -0.005)
(0.2665 0.961667 -0.005)
(0.2855 0.961667 -0.005)
(0.3045 0.961667 -0.005)
(0.3235 0.961667 -0.005)
(0.3425 0.961667 -0.005)
(0.3615 0.961667 -0.005)
(0.3805 0.961667 -0.005)
(0.3995 0.961667 -0.005)
(0.4185 0.961667 -0.005)
(0.4375 0.961667 -0.005)
(0.4565 0.961667 -0.005)
(0.4755 0.961667 -0.005)
(0.4945 0.961667 -0.005)
(0.5135 0.961667 -0.005)
(0.5325 0.961667 -0.005)
(0.5515 0.961667 -0.005)
(0.5705 0.961667 -0.005)
(0.5895 0.961667 -0.005)
(0.6085 0.961667 -0.005)
(0.6275 0.961667 -0.005)
(0.6465 0.961667 -0.005)
(0.6655 0.961667 -0.005)
(0.2095 0.936111 -0.005)
(0.2285 0.936111 -0.005)
(0.2475 0.936111 -0.005)
(0.2665 0.936111 -0.005)
(0.2855 0.936111 -0.005)
(0.3045 0.936111 -0.005)
(0.3235 0.936111 -0.005)
(0.3425 0.936111 -0.005)
(0.3615 0.936111 -0.005)
(0.3805 0.936111 -0.005)
(0.3995 0.936111 -0.005)
(0.4185 0.936111 -0.005)
(0.4375 0.936111 -0.005)
(0.4565 0.936111 -0.005)
(0.4755 0.936111 -0.005)
(0.4945 0.936111 -0.005)
(0.5135 0.936111 -0.005)
(0.5325 0.936111 -0.005)
(0.5515 0.936111 -0.005)
(0.5705 0.936111 -0.005)
(0.5895 0.936111 -0.005)
(0.6085 0.936111 -0.005)
(0.6275 0.936111 -0.005)
(0.6465 0.936111 -0.005)
(0.6655 0.936111 -0.005)
(0.2095 0.910556 -0.005)
(0.2285 0.910556 -0.005)
(0.2475 0.910556 -0.005)
(0.2665 0.910556 -0.005)
(0.2855 0.910556 -0.005)
(0.3045 0.910556 -0.005)
(0.3235 0.910556 -0.005)
(0.3425 0.910556 -0.005)
(0.3615 0.910556 -0.005)
(0.3805 0.910556 -0.005)
(0.3995 0.910556 -0.005)
(0.4185 0.910556 -0.005)
(0.4375 0.910556 -0.005)
(0.4565 0.910556 -0.005)
(0.4755 0.910556 -0.005)
(0.4945 0.910556 -0.005)
(0.5135 0.910556 -0.005)
(0.5325 0.910556 -0.005)
(0.5515 0.910556 -0.005)
(0.5705 0.910556 -0.005)
(0.5895 0.910556 -0.005)
(0.6085 0.910556 -0.005)
(0.6275 0.910556 -0.005)
(0.6465 0.910556 -0.005)
(0.6655 0.910556 -0.005)
(0.2095 0.885 -0.005)
(0.2285 0.885 -0.005)
(0.2475 0.885 -0.005)
(0.2665 0.885 -0.005)
(0.2855 0.885 -0.005)
(0.3045 0.885 -0.005)
(0.3235 0.885 -0.005)
(0.3425 0.885 -0.005)
(0.3615 0.885 -0.005)
(0.3805 0.885 -0.005)
(0.3995 0.885 -0.005)
(0.4185 0.885 -0.005)
(0.4375 0.885 -0.005)
(0.4565 0.885 -0.005)
(0.4755 0.885 -0.005)
(0.4945 0.885 -0.005)
(0.5135 0.885 -0.005)
(0.5325 0.885 -0.005)
(0.5515 0.885 -0.005)
(0.5705 0.885 -0.005)
(0.5895 0.885 -0.005)
(0.6085 0.885 -0.005)
(0.6275 0.885 -0.005)
(0.6465 0.885 -0.005)
(0.6655 0.885 -0.005)
(0.2095 0.859444 -0.005)
(0.2285 0.859444 -0.005)
(0.2475 0.859444 -0.005)
(0.2665 0.859444 -0.005)
(0.2855 0.859444 -0.005)
(0.3045 0.859444 -0.005)
(0.3235 0.859444 -0.005)
(0.3425 0.859444 -0.005)
(0.3615 0.859444 -0.005)
(0.3805 0.859444 -0.005)
(0.3995 0.859444 -0.005)
(0.4185 0.859444 -0.005)
(0.4375 0.859444 -0.005)
(0.4565 0.859444 -0.005)
(0.4755 0.859444 -0.005)
(0.4945 0.859444 -0.005)
(0.5135 0.859444 -0.005)
(0.5325 0.859444 -0.005)
(0.5515 0.859444 -0.005)
(0.5705 0.859444 -0.005)
(0.5895 0.859444 -0.005)
(0.6085 0.859444 -0.005)
(0.6275 0.859444 -0.005)
(0.6465 0.859444 -0.005)
(0.6655 0.859444 -0.005)
(0.2095 0.833889 -0.005)
(0.2285 0.833889 -0.005)
(0.2475 0.833889 -0.005)
(0.2665 0.833889 -0.005)
(0.2855 0.833889 -0.005)
(0.3045 0.833889 -0.005)
(0.3235 0.833889 -0.005)
(0.3425 0.833889 -0.005)
(0.3615 0.833889 -0.005)
(0.3805 0.833889 -0.005)
(0.3995 0.833889 -0.005)
(0.4185 0.833889 -0.005)
(0.4375 0.833889 -0.005)
(0.4565 0.833889 -0.005)
(0.4755 0.833889 -0.005)
(0.4945 0.833889 -0.005)
(0.5135 0.833889 -0.005)
(0.5325 0.833889 -0.005)
(0.5515 0.833889 -0.005)
(0.5705 0.833889 -0.005)
(0.5895 0.833889 -0.005)
(0.6085 0.833889 -0.005)
(0.6275 0.833889 -0.005)
(0.6465 0.833889 -0.005)
(0.6655 0.833889 -0.005)
(0.2095 0.808333 -0.005)
(0.2285 0.808333 -0.005)
(0.2475 0.808333 -0.005)
(0.2665 0.808333 -0.005)
(0.2855 0.808333 -0.005)
(0.3045 0.808333 -0.005)
(0.3235 0.808333 -0.005)
(0.3425 0.808333 -0.005)
(0.3615 0.808333 -0.005)
(0.3805 0.808333 -0.005)
(0.3995 0.808333 -0.005)
(0.4185 0.808333 -0.005)
(0.4375 0.808333 -0.005)
(0.4565 0.808333 -0.005)
(0.4755 0.808333 -0.005)
(0.4945 0.808333 -0.005)
(0.5135 0.808333 -0.005)
(0.5325 0.808333 -0.005)
(0.5515 0.808333 -0.005)
(0.5705 0.808333 -0.005)
(0.5895 0.808333 -0.005)
(0.6085 0.808333 -0.005)
(0.6275 0.808333 -0.005)
(0.6465 0.808333 -0.005)
(0.6655 0.808333 -0.005)
(0.2095 0.782778 -0.005)
(0.2285 0.782778 -0.005)
(0.2475 0.782778 -0.005)
(0.2665 0.782778 -0.005)
(0.2855 0.782778 -0.005)
(0.3045 0.782778 -0.005)
(0.3235 0.782778 -0.005)
(0.3425 0.782778 -0.005)
(0.3615 0.782778 -0.005)
(0.3805 0.782778 -0.005)
(0.3995 0.782778 -0.005)
(0.4185 0.782778 -0.005)
(0.4375 0.782778 -0.005)
(0.4565 0.782778 -0.005)
(0.4755 0.782778 -0.005)
(0.4945 0.782778 -0.005)
(0.5135 0.782778 -0.005)
(0.5325 0.782778 -0.005)
(0.5515 0.782778 -0.005)
(0.5705 0.782778 -0.005)
(0.5895 0.782778 -0.005)
(0.6085 0.782778 -0.005)
(0.6275 0.782778 -0.005)
(0.6465 0.782778 -0.005)
(0.6655 0.782778 -0.005)
(0.2095 0.757222 -0.005)
(0.2285 0.757222 -0.005)
(0.2475 0.757222 -0.005)
(0.2665 0.757222 -0.005)
(0.2855 0.757222 -0.005)
(0.3045 0.757222 -0.005)
(0.3235 0.757222 -0.005)
(0.3425 0.757222 -0.005)
(0.3615 0.757222 -0.005)
(0.3805 0.757222 -0.005)
(0.3995 0.757222 -0.005)
(0.4185 0.757222 -0.005)
(0.4375 0.757222 -0.005)
(0.4565 0.757222 -0.005)
(0.4755 0.757222 -0.005)
(0.4945 0.757222 -0.005)
(0.5135 0.757222 -0.005)
(0.5325 0.757222 -0.005)
(0.5515 0.757222 -0.005)
(0.5705 0.757222 -0.005)
(0.5895 0.757222 -0.005)
(0.6085 0.757222 -0.005)
(0.6275 0.757222 -0.005)
(0.6465 0.757222 -0.005)
(0.6655 0.757222 -0.005)
(0.2095 0.731667 -0.005)
(0.2285 0.731667 -0.005)
(0.2475 0.731667 -0.005)
(0.2665 0.731667 -0.005)
(0.2855 0.731667 -0.005)
(0.3045 0.731667 -0.005)
(0.3235 0.731667 -0.005)
(0.3425 0.731667 -0.005)
(0.3615 0.731667 -0.005)
(0.3805 0.731667 -0.005)
(0.3995 0.731667 -0.005)
(0.4185 0.731667 -0.005)
(0.4375 0.731667 -0.005)
(0.4565 0.731667 -0.005)
(0.4755 0.731667 -0.005)
(0.4945 0.731667 -0.005)
(0.5135 0.731667 -0.005)
(0.5325 0.731667 -0.005)
(0.5515 0.731667 -0.005)
(0.5705 0.731667 -0.005)
(0.5895 0.731667 -0.005)
(0.6085 0.731667 -0.005)
(0.6275 0.731667 -0.005)
(0.6465 0.731667 -0.005)
(0.6655 0.731667 -0.005)
(0.2095 0.706111 -0.005)
(0.2285 0.706111 -0.005)
(0.2475 0.706111 -0.005)
(0.2665 0.706111 -0.005)
(0.2855 0.706111 -0.005)
(0.3045 0.706111 -0.005)
(0.3235 0.706111 -0.005)
(0.3425 0.706111 -0.005)
(0.3615 0.706111 -0.005)
(0.3805 0.706111 -0.005)
(0.3995 0.706111 -0.005)
(0.4185 0.706111 -0.005)
(0.4375 0.706111 -0.005)
(0.4565 0.706111 -0.005)
(0.4755 0.706111 -0.005)
(0.4945 0.706111 -0.005)
(0.5135 0.706111 -0.005)
(0.5325 0.706111 -0.005)
(0.5515 0.706111 -0.005)
(0.5705 0.706111 -0.005)
(0.5895 0.706111 -0.005)
(0.6085 0.706111 -0.005)
(0.6275 0.706111 -0.005)
(0.6465 0.706111 -0.005)
(0.6655 0.706111 -0.005)
(0.2095 0.680556 -0.005)
(0.2285 0.680556 -0.005)
(0.2475 0.680556 -0.005)
(0.2665 0.680556 -0.005)
(0.2855 0.680556 -0.005)
(0.3045 0.680556 -0.005)
(0.3235 0.680556 -0.005)
(0.3425 0.680556 -0.005)
(0.3615 0.680556 -0.005)
(0.3805 0.680556 -0.005)
(0.3995 0.680556 -0.005)
(0.4185 0.680556 -0.005)
(0.4375 0.680556 -0.005)
(0.4565 0.680556 -0.005)
(0.4755 0.680556 -0.005)
(0.4945 0.680556 -0.005)
(0.5135 0.680556 -0.005)
(0.5325 0.680556 -0.005)
(0.5515 0.680556 -0.005)
(0.5705 0.680556 -0.005)
(0.5895 0.680556 -0.005)
(0.6085 0.680556 -0.005)
(0.6275 0.680556 -0.005)
(0.6465 0.680556 -0.005)
(0.6655 0.680556 -0.005)
(0.2095 0.655 -0.005)
(0.2285 0.655 -0.005)
(0.2475 0.655 -0.005)
(0.2665 0.655 -0.005)
(0.2855 0.655 -0.005)
(0.3045 0.655 -0.005)
(0.3235 0.655 -0.005)
(0.3425 0.655 -0.005)
(0.3615 0.655 -0.005)
(0.3805 0.655 -0.005)
(0.3995 0.655 -0.005)
(0.4185 0.655 -0.005)
(0.4375 0.655 -0.005)
(0.4565 0.655 -0.005)
(0.4755 0.655 -0.005)
(0.4945 0.655 -0.005)
(0.5135 0.655 -0.005)
(0.5325 0.655 -0.005)
(0.5515 0.655 -0.005)
(0.5705 0.655 -0.005)
(0.5895 0.655 -0.005)
(0.6085 0.655 -0.005)
(0.6275 0.655 -0.005)
(0.6465 0.655 -0.005)
(0.6655 0.655 -0.005)
(0.2095 0.629444 -0.005)
(0.2285 0.629444 -0.005)
(0.2475 0.629444 -0.005)
(0.2665 0.629444 -0.005)
(0.2855 0.629444 -0.005)
(0.3045 0.629444 -0.005)
(0.3235 0.629444 -0.005)
(0.3425 0.629444 -0.005)
(0.3615 0.629444 -0.005)
(0.3805 0.629444 -0.005)
(0.3995 0.629444 -0.005)
(0.4185 0.629444 -0.005)
(0.4375 0.629444 -0.005)
(0.4565 0.629444 -0.005)
(0.4755 0.629444 -0.005)
(0.4945 0.629444 -0.005)
(0.5135 0.629444 -0.005)
(0.5325 0.629444 -0.005)
(0.5515 0.629444 -0.005)
(0.5705 0.629444 -0.005)
(0.5895 0.629444 -0.005)
(0.6085 0.629444 -0.005)
(0.6275 0.629444 -0.005)
(0.6465 0.629444 -0.005)
(0.6655 0.629444 -0.005)
(0.2095 0.603889 -0.005)
(0.2285 0.603889 -0.005)
(0.2475 0.603889 -0.005)
(0.2665 0.603889 -0.005)
(0.2855 0.603889 -0.005)
(0.3045 0.603889 -0.005)
(0.3235 0.603889 -0.005)
(0.3425 0.603889 -0.005)
(0.3615 0.603889 -0.005)
(0.3805 0.603889 -0.005)
(0.3995 0.603889 -0.005)
(0.4185 0.603889 -0.005)
(0.4375 0.603889 -0.005)
(0.4565 0.603889 -0.005)
(0.4755 0.603889 -0.005)
(0.4945 0.603889 -0.005)
(0.5135 0.603889 -0.005)
(0.5325 0.603889 -0.005)
(0.5515 0.603889 -0.005)
(0.5705 0.603889 -0.005)
(0.5895 0.603889 -0.005)
(0.6085 0.603889 -0.005)
(0.6275 0.603889 -0.005)
(0.6465 0.603889 -0.005)
(0.6655 0.603889 -0.005)
(0.2095 0.578333 -0.005)
(0.2285 0.578333 -0.005)
(0.2475 0.578333 -0.005)
(0.2665 0.578333 -0.005)
(0.2855 0.578333 -0.005)
(0.3045 0.578333 -0.005)
(0.3235 0.578333 -0.005)
(0.3425 0.578333 -0.005)
(0.3615 0.578333 -0.005)
(0.3805 0.578333 -0.005)
(0.3995 0.578333 -0.005)
(0.4185 0.578333 -0.005)
(0.4375 0.578333 -0.005)
(0.4565 0.578333 -0.005)
(0.4755 0.578333 -0.005)
(0.4945 0.578333 -0.005)
(0.5135 0.578333 -0.005)
(0.5325 0.578333 -0.005)
(0.5515 0.578333 -0.005)
(0.5705 0.578333 -0.005)
(0.5895 0.578333 -0.005)
(0.6085 0.578333 -0.005)
(0.6275 0.578333 -0.005)
(0.6465 0.578333 -0.005)
(0.6655 0.578333 -0.005)
(0.2095 0.552778 -0.005)
(0.2285 0.552778 -0.005)
(0.2475 0.552778 -0.005)
(0.2665 0.552778 -0.005)
(0.2855 0.552778 -0.005)
(0.3045 0.552778 -0.005)
(0.3235 0.552778 -0.005)
(0.3425 0.552778 -0.005)
(0.3615 0.552778 -0.005)
(0.3805 0.552778 -0.005)
(0.3995 0.552778 -0.005)
(0.4185 0.552778 -0.005)
(0.4375 0.552778 -0.005)
(0.4565 0.552778 -0.005)
(0.4755 0.552778 -0.005)
(0.4945 0.552778 -0.005)
(0.5135 0.552778 -0.005)
(0.5325 0.552778 -0.005)
(0.5515 0.552778 -0.005)
(0.5705 0.552778 -0.005)
(0.5895 0.552778 -0.005)
(0.6085 0.552778 -0.005)
(0.6275 0.552778 -0.005)
(0.6465 0.552778 -0.005)
(0.6655 0.552778 -0.005)
(0.2095 0.527727 -0.005)
(0.2285 0.527727 -0.005)
(0.2475 0.527727 -0.005)
(0.2665 0.527727 -0.005)
(0.2855 0.527727 -0.005)
(0.3045 0.527727 -0.005)
(0.3235 0.527727 -0.005)
(0.3425 0.527727 -0.005)
(0.3615 0.527727 -0.005)
(0.3805 0.527727 -0.005)
(0.3995 0.527727 -0.005)
(0.4185 0.527727 -0.005)
(0.4375 0.527727 -0.005)
(0.4565 0.527727 -0.005)
(0.4755 0.527727 -0.005)
(0.4945 0.527727 -0.005)
(0.5135 0.527727 -0.005)
(0.5325 0.527727 -0.005)
(0.5515 0.527727 -0.005)
(0.5705 0.527727 -0.005)
(0.5895 0.527727 -0.005)
(0.6085 0.527727 -0.005)
(0.6275 0.527727 -0.005)
(0.6465 0.527727 -0.005)
(0.6655 0.527727 -0.005)
(0.2095 0.503182 -0.005)
(0.2285 0.503182 -0.005)
(0.2475 0.503182 -0.005)
(0.2665 0.503182 -0.005)
(0.2855 0.503182 -0.005)
(0.3045 0.503182 -0.005)
(0.3235 0.503182 -0.005)
(0.3425 0.503182 -0.005)
(0.3615 0.503182 -0.005)
(0.3805 0.503182 -0.005)
(0.3995 0.503182 -0.005)
(0.4185 0.503182 -0.005)
(0.4375 0.503182 -0.005)
(0.4565 0.503182 -0.005)
(0.4755 0.503182 -0.005)
(0.4945 0.503182 -0.005)
(0.5135 0.503182 -0.005)
(0.5325 0.503182 -0.005)
(0.5515 0.503182 -0.005)
(0.5705 0.503182 -0.005)
(0.5895 0.503182 -0.005)
(0.6085 0.503182 -0.005)
(0.6275 0.503182 -0.005)
(0.6465 0.503182 -0.005)
(0.6655 0.503182 -0.005)
(0.2095 0.478636 -0.005)
(0.2285 0.478636 -0.005)
(0.2475 0.478636 -0.005)
(0.2665 0.478636 -0.005)
(0.2855 0.478636 -0.005)
(0.3045 0.478636 -0.005)
(0.3235 0.478636 -0.005)
(0.3425 0.478636 -0.005)
(0.3615 0.478636 -0.005)
(0.3805 0.478636 -0.005)
(0.3995 0.478636 -0.005)
(0.4185 0.478636 -0.005)
(0.4375 0.478636 -0.005)
(0.4565 0.478636 -0.005)
(0.4755 0.478636 -0.005)
(0.4945 0.478636 -0.005)
(0.5135 0.478636 -0.005)
(0.5325 0.478636 -0.005)
(0.5515 0.478636 -0.005)
(0.5705 0.478636 -0.005)
(0.5895 0.478636 -0.005)
(0.6085 0.478636 -0.005)
(0.6275 0.478636 -0.005)
(0.6465 0.478636 -0.005)
(0.6655 0.478636 -0.005)
(0.2095 0.454091 -0.005)
(0.2285 0.454091 -0.005)
(0.2475 0.454091 -0.005)
(0.2665 0.454091 -0.005)
(0.2855 0.454091 -0.005)
(0.3045 0.454091 -0.005)
(0.3235 0.454091 -0.005)
(0.3425 0.454091 -0.005)
(0.3615 0.454091 -0.005)
(0.3805 0.454091 -0.005)
(0.3995 0.454091 -0.005)
(0.4185 0.454091 -0.005)
(0.4375 0.454091 -0.005)
(0.4565 0.454091 -0.005)
(0.4755 0.454091 -0.005)
(0.4945 0.454091 -0.005)
(0.5135 0.454091 -0.005)
(0.5325 0.454091 -0.005)
(0.5515 0.454091 -0.005)
(0.5705 0.454091 -0.005)
(0.5895 0.454091 -0.005)
(0.6085 0.454091 -0.005)
(0.6275 0.454091 -0.005)
(0.6465 0.454091 -0.005)
(0.6655 0.454091 -0.005)
(0.2095 0.429545 -0.005)
(0.2285 0.429545 -0.005)
(0.2475 0.429545 -0.005)
(0.2665 0.429545 -0.005)
(0.2855 0.429545 -0.005)
(0.3045 0.429545 -0.005)
(0.3235 0.429545 -0.005)
(0.3425 0.429545 -0.005)
(0.3615 0.429545 -0.005)
(0.3805 0.429545 -0.005)
(0.3995 0.429545 -0.005)
(0.4185 0.429545 -0.005)
(0.4375 0.429545 -0.005)
(0.4565 0.429545 -0.005)
(0.4755 0.429545 -0.005)
(0.4945 0.429545 -0.005)
(0.5135 0.429545 -0.005)
(0.5325 0.429545 -0.005)
(0.5515 0.429545 -0.005)
(0.5705 0.429545 -0.005)
(0.5895 0.429545 -0.005)
(0.6085 0.429545 -0.005)
(0.6275 0.429545 -0.005)
(0.6465 0.429545 -0.005)
(0.6655 0.429545 -0.005)
(0.2095 0.405 -0.005)
(0.2285 0.405 -0.005)
(0.2475 0.405 -0.005)
(0.2665 0.405 -0.005)
(0.2855 0.405 -0.005)
(0.3045 0.405 -0.005)
(0.3235 0.405 -0.005)
(0.3425 0.405 -0.005)
(0.3615 0.405 -0.005)
(0.3805 0.405 -0.005)
(0.3995 0.405 -0.005)
(0.4185 0.405 -0.005)
(0.4375 0.405 -0.005)
(0.4565 0.405 -0.005)
(0.4755 0.405 -0.005)
(0.4945 0.405 -0.005)
(0.5135 0.405 -0.005)
(0.5325 0.405 -0.005)
(0.5515 0.405 -0.005)
(0.5705 0.405 -0.005)
(0.5895 0.405 -0.005)
(0.6085 0.405 -0.005)
(0.6275 0.405 -0.005)
(0.6465 0.405 -0.005)
(0.6655 0.405 -0.005)
(0.2095 0.380455 -0.005)
(0.2285 0.380455 -0.005)
(0.2475 0.380455 -0.005)
(0.2665 0.380455 -0.005)
(0.2855 0.380455 -0.005)
(0.3045 0.380455 -0.005)
(0.3235 0.380455 -0.005)
(0.3425 0.380455 -0.005)
(0.3615 0.380455 -0.005)
(0.3805 0.380455 -0.005)
(0.3995 0.380455 -0.005)
(0.4185 0.380455 -0.005)
(0.4375 0.380455 -0.005)
(0.4565 0.380455 -0.005)
(0.4755 0.380455 -0.005)
(0.4945 0.380455 -0.005)
(0.5135 0.380455 -0.005)
(0.5325 0.380455 -0.005)
(0.5515 0.380455 -0.005)
(0.5705 0.380455 -0.005)
(0.5895 0.380455 -0.005)
(0.6085 0.380455 -0.005)
(0.6275 0.380455 -0.005)
(0.6465 0.380455 -0.005)
(0.6655 0.380455 -0.005)
(0.2095 0.355909 -0.005)
(0.2285 0.355909 -0.005)
(0.2475 0.355909 -0.005)
(0.2665 0.355909 -0.005)
(0.2855 0.355909 -0.005)
(0.3045 0.355909 -0.005)
(0.3235 0.355909 -0.005)
(0.3425 0.355909 -0.005)
(0.3615 0.355909 -0.005)
(0.3805 0.355909 -0.005)
(0.3995 0.355909 -0.005)
(0.4185 0.355909 -0.005)
(0.4375 0.355909 -0.005)
(0.4565 0.355909 -0.005)
(0.4755 0.355909 -0.005)
(0.4945 0.355909 -0.005)
(0.5135 0.355909 -0.005)