/*--------------------------------*- C++ -*----------------------------------*\
| =========                 |                                                 |
| \\      /  F ield         | OpenFOAM: The Open Source CFD Toolbox           |
|  \\    /   O peration     | Version:  v2012                                 |
|   \\  /    A nd           | Website:  www.openfoam.com                      |
|    \\/     M anipulation  |                                                 |
\*---------------------------------------------------------------------------*/
FoamFile
{
    version     2.0;
    format      ascii;
    class       volScalarField;
    location    "662";
    object      k;
}
// * * * * * * * * * * * * * * * * * * * * * * * * * * * * * * * * * * * * * //

dimensions      [0 2 -2 0 0 0 0];


internalField   nonuniform List<scalar> 
6532
(
2.12082
2.68354
2.78899
2.81736
2.83152
2.83152
2.81736
2.78899
2.68354
2.12082
1.15912
1.87427
2.07578
2.14187
2.16346
2.16346
2.14187
2.07578
1.87427
1.15912
0.727425
1.36693
1.59354
1.68098
1.71098
1.71098
1.68098
1.59354
1.36693
0.727425
0.502733
1.03856
1.25744
1.35253
1.38801
1.38801
1.35253
1.25744
1.03856
0.502734
0.371886
0.816811
1.01625
1.1106
1.14829
1.14829
1.1106
1.01625
0.816812
0.371886
0.288878
0.660784
0.838307
0.927573
0.965064
0.965064
0.927574
0.838308
0.660785
0.288878
0.232633
0.546934
0.703638
0.785954
0.821778
0.821778
0.785955
0.70364
0.546935
0.232634
0.192517
0.461218
0.599365
0.674235
0.707648
0.707649
0.674236
0.599367
0.461221
0.192518
0.16272
0.394944
0.516981
0.584612
0.615335
0.615336
0.584614
0.516984
0.394948
0.162721
0.139858
0.342531
0.450729
0.511652
0.539677
0.539678
0.511655
0.450733
0.342535
0.139859
0.121847
0.300273
0.39662
0.451485
0.476948
0.476949
0.451489
0.396626
0.300279
0.121849
0.107346
0.265639
0.351827
0.401297
0.4244
0.424403
0.401303
0.351834
0.265647
0.107349
0.0954598
0.236849
0.314301
0.359005
0.379973
0.379976
0.359012
0.314311
0.23686
0.0954636
0.0855661
0.212621
0.282533
0.323039
0.342096
0.3421
0.323049
0.282547
0.212637
0.0855713
0.0772239
0.192015
0.255388
0.2922
0.309557
0.309562
0.292214
0.255408
0.192037
0.0772309
0.070111
0.174324
0.232001
0.265561
0.281407
0.281414
0.26558
0.232028
0.174352
0.0701204
0.0639872
0.159008
0.2117
0.242391
0.256897
0.256908
0.242419
0.211737
0.159045
0.0639996
0.05867
0.14565
0.193959
0.222115
0.235432
0.235446
0.222154
0.194008
0.145696
0.0586857
0.0540181
0.13392
0.178359
0.204266
0.216527
0.216547
0.20432
0.178426
0.133975
0.0540371
0.0499198
0.123552
0.164554
0.18846
0.199781
0.199808
0.188535
0.16464
0.123579
0.0499406
0.0462179
0.114173
0.152067
0.174164
0.184635
0.184674
0.174271
0.1522
0.11428
0.0465641
0.0429252
0.105806
0.140919
0.161397
0.171108
0.171163
0.161548
0.141122
0.10603
0.0447397
0.039981
0.0983119
0.130935
0.149963
0.158997
0.159071
0.150168
0.131224
0.0987752
0.0441559
0.0373351
0.0915667
0.121952
0.139679
0.148108
0.148202
0.139936
0.122297
0.0924631
0.0448423
0.034946
0.0854685
0.113835
0.130391
0.138277
0.138388
0.130676
0.11424
0.0871209
0.046832
0.0327791
0.0799316
0.106472
0.121971
0.129369
0.129498
0.122283
0.107043
0.0827314
0.0498872
0.0308052
0.0748836
0.099766
0.114309
0.121269
0.121426
0.114717
0.100682
0.0791516
0.0536445
0.0289997
0.0702628
0.0936355
0.107312
0.113881
0.114083
0.107894
0.0950849
0.0763344
0.0577148
0.0273413
0.0660161
0.0880106
0.100901
0.107125
0.107391
0.101735
0.0901724
0.0741541
0.0611341
0.025812
0.062098
0.0828307
0.0950081
0.100928
0.101279
0.0961719
0.0858656
0.0724697
0.0637197
0.0243958
0.0584687
0.0780434
0.0895738
0.0952293
0.0956886
0.0911413
0.0820845
0.0711263
0.0655656
0.0230789
0.055093
0.0736031
0.0845468
0.0899755
0.0905631
0.0865828
0.0787406
0.0699318
0.0667482
0.021849
0.0519403
0.0694698
0.0798818
0.0851188
0.0858537
0.0824393
0.0757502
0.0688005
0.0673447
0.0206954
0.0489836
0.065608
0.0755393
0.0806172
0.0815155
0.0786581
0.0730425
0.0676632
0.0674206
0.0196082
0.0461991
0.0619866
0.0714841
0.0764331
0.0775079
0.075191
0.0705554
0.0664678
0.0670297
0.0185787
0.0435658
0.0585782
0.0676852
0.0725332
0.0737945
0.0719945
0.068236
0.0651793
0.0662201
0.0175992
0.0410655
0.0553588
0.0641159
0.0688886
0.0703432
0.0690311
0.0660425
0.0637804
0.065041
0.016663
0.0386846
0.0523102
0.0607557
0.0654771
0.0671293
0.0662722
0.0639476
0.062274
0.063552
0.0157964
0.036486
0.0495088
0.0576846
0.062376
0.064221
0.0637723
0.0619971
0.0607294
0.0618762
0.0149587
0.0343727
0.0468345
0.0547732
0.0594547
0.0614938
0.0614227
0.0601155
0.0591292
0.0600478
0.014145
0.0323334
0.044268
0.051998
0.0566874
0.0589219
0.0592021
0.0582986
0.0575068
0.0581418
0.0133513
0.0303602
0.0417967
0.0493435
0.0540572
0.0564887
0.0570992
0.0565519
0.0559036
0.0562409
0.012574
0.0284464
0.039408
0.0467936
0.0515464
0.0541769
0.0551023
0.0548811
0.0543588
0.0544239
0.0118097
0.0265854
0.0370889
0.0443306
0.0491347
0.0519665
0.0531967
0.0532873
0.0529017
0.0527554
0.0110555
0.0247711
0.0348254
0.0419343
0.0467981
0.0498324
0.0513616
0.051762
0.051545
0.0512755
0.0103086
0.0229976
0.032602
0.0395811
0.0445073
0.047743
0.0495673
0.0502829
0.0502786
0.0499904
0.0095662
0.0212585
0.0304018
0.0372433
0.0422269
0.0456581
0.0477724
0.0488111
0.0490664
0.0488681
0.00882556
0.0195479
0.0282062
0.0348892
0.0399146
0.0435283
0.0459233
0.0472903
0.0478467
0.047838
0.00808343
0.0178595
0.0259956
0.0324833
0.037522
0.0412954
0.0439549
0.0456478
0.0465354
0.0467971
0.00733593
0.0161869
0.0237499
0.0299882
0.0349962
0.0388948
0.0417927
0.0437993
0.0450319
0.0456202
0.00657791
0.0145235
0.0214505
0.0273676
0.0322846
0.0362602
0.0393592
0.041655
0.0432292
0.0441729
0.00580169
0.0128603
0.0190857
0.0245957
0.0293445
0.033334
0.0365838
0.0391308
0.0410257
0.0423281
0.00499524
0.0111742
0.0166441
0.0216653
0.0261604
0.0300866
0.0334216
0.0361668
0.0383434
0.0399826
0.00412293
0.0095787
0.0141988
0.0186247
0.0227668
0.0265395
0.0298793
0.0327525
0.0351494
0.0370766
0.00319622
0.00820925
0.0120103
0.0157155
0.0193567
0.0228426
0.0260713
0.0289689
0.0314955
0.0336276
0.00222985
0.00695805
0.010232
0.013266
0.0163093
0.0193507
0.0223001
0.0250674
0.0275811
0.0297923
0.00118335
0.0055329
0.00865949
0.0113314
0.0139053
0.0164828
0.0190411
0.0215149
0.0238378
0.0259523
0.000893933
0.00377144
0.0069244
0.00959348
0.0120141
0.0143104
0.0165172
0.0186213
0.0205998
0.0224236
0.000853528
0.00218593
0.00513155
0.00772107
0.0101458
0.0122765
0.0141894
0.0158897
0.0174119
0.0187746
0.000955615
0.00169632
0.00262744
0.00392388
0.00538626
0.00649471
0.00739666
0.00818341
0.00885492
0.009421
0.00983822
0.00334852
0.00342067
0.0036229
0.00379086
0.00390146
0.00394507
0.0039224
0.00383434
0.00369559
0.00352334
0.00331772
0.00308207
0.00282936
0.00256833
0.00230354
0.00203664
0.00178918
0.0015664
0.00135775
0.00115742
0.000960769
0.000762163
0.000552505
0.000299031
0.0192269
0.00833307
0.00734329
0.00748649
0.0077443
0.00794383
0.00803593
0.00800063
0.00782782
0.00751261
0.00711081
0.00665301
0.00616214
0.00565809
0.00515507
0.00466245
0.00418343
0.00370016
0.0032136
0.00273038
0.00226135
0.00182116
0.00143208
0.00108598
0.000551536
0.0286167
0.0138742
0.0104926
0.0098187
0.00975706
0.00977874
0.00973975
0.00959207
0.00931823
0.00890995
0.00839563
0.00782472
0.00722488
0.00661819
0.00602268
0.00545164
0.00491066
0.00439122
0.003881
0.00337035
0.0028521
0.00233065
0.00183147
0.00136742
0.00066965
0.0388706
0.0210728
0.0142789
0.0122269
0.0114893
0.011111
0.0107944
0.0104433
0.010022
0.0095176
0.00892507
0.00828722
0.00763361
0.0069829
0.00635227
0.00575517
0.00519789
0.00467551
0.00417423
0.00367738
0.00316643
0.00263025
0.00207804
0.00152176
0.00072584
0.0488625
0.0302863
0.0194684
0.0151965
0.0134119
0.0124209
0.0117113
0.0110879
0.0104798
0.00985734
0.00920691
0.0085215
0.00783476
0.00716086
0.00651234
0.00590176
0.00533584
0.00481189
0.00431728
0.00383282
0.00333523
0.00280352
0.00223036
0.00161094
0.000745155
0.0561594
0.0396265
0.0258019
0.0188897
0.0157408
0.0139584
0.0127301
0.0117661
0.0109307
0.010164
0.0094349
0.00872319
0.00801409
0.00731928
0.00665079
0.00602091
0.0054375
0.00490132
0.00440231
0.00391981
0.00342857
0.00290227
0.00232159
0.00166152
0.000744118
0.0612446
0.0484796
0.0329186
0.023451
0.0186123
0.0158562
0.0140155
0.0126231
0.0115017
0.0105526
0.00971879
0.00895998
0.00824218
0.00754061
0.00684197
0.00617953
0.00556035
0.00499375
0.00447421
0.00398007
0.0034847
0.0029585
0.00237337
0.00168682
0.000731388
0.065034
0.0555372
0.0399193
0.0288305
0.0221369
0.0181935
0.0156147
0.0137408
0.0122707
0.0110857
0.0101115
0.00928232
0.00853889
0.00782947
0.00712162
0.00641747
0.0057372
0.00511796
0.00455753
0.00403593
0.00352442
0.00299078
0.00239951
0.00169405
0.000710774
0.067861
0.0611576
0.0464324
0.0343689
0.0261375
0.0209682
0.0175394
0.0151129
0.0132657
0.0118008
0.0106422
0.00971282
0.00892689
0.00820279
0.0074764
0.00672789
0.00598667
0.00529486
0.00467032
0.00410256
0.00356003
0.0030101
0.00240881
0.00168769
0.000683906
0.0699047
0.065442
0.0523711
0.0398565
0.030462
0.0241385
0.0198243
0.0167619
0.0144875
0.0127157
0.0113321
0.0102665
0.00941474
0.00866665
0.00792243
0.00712909
0.00630701
0.0055193
0.00480971
0.00418094
0.00359999
0.00302671
0.0024112
0.0016751
0.000653983
0.0712843
0.068607
0.0575208
0.0450796
0.034988
0.0275933
0.0224084
0.0186978
0.0159525
0.0138439
0.0122082
0.0109645
0.0100117
0.00922565
0.00847152
0.00764518
0.00673302
0.00581822
0.00498926
0.00427593
0.0036413
0.0030366
0.00240286
0.00165208
0.000628684
0.0721095
0.0708567
0.0617311
0.049801
0.0393695
0.0311522
0.0252022
0.0208851
0.0176788
0.0152222
0.0132966
0.0118401
0.0107448
0.00989277
0.00912928
0.00829583
0.00730703
0.00623699
0.00524057
0.00440118
0.00368966
0.00304145
0.00238351
0.00161667
0.000604267
0.072436
0.0722983
0.0649304
0.0539454
0.0434023
0.0346791
0.0281153
0.0232696
0.0196484
0.0168621
0.0146603
0.0129439
0.0116593
0.0106897
0.00989315
0.00907976
0.00806603
0.00683856
0.00561956
0.00458163
0.00375317
0.00304355
0.00235372
0.00156961
0.000578741
0.0722784
0.072999
0.0671937
0.0574145
0.0470479
0.0381616
0.0310776
0.0257906
0.0218206
0.0187503
0.0162983
0.0143422
0.0128219
0.0116656
0.0107686
0.0099612
0.00900167
0.00769581
0.00622151
0.00489939
0.0038757
0.00306173
0.00231999
0.00151381
0.000551375
0.071646
0.073016
0.0686031
0.0601224
0.0501804
0.0412845
0.0339631
0.0283759
0.0241478
0.0208628
0.0182198
0.0160634
0.0143137
0.0129169
0.0118148
0.0109137
0.01002
0.00881142
0.00718913
0.00551178
0.0041477
0.00313911
0.00230197
0.00145857
0.000522838
0.0705546
0.0723954
0.0692067
0.0619983
0.0528698
0.0441256
0.0368081
0.0309888
0.0265816
0.0231591
0.020408
0.0181343
0.0162126
0.0145719
0.01319
0.0120351
0.0110373
0.00996612
0.00848522
0.00657548
0.00470609
0.0033543
0.00234557
0.00143023
0.000496406
0.0690335
0.0711845
0.06906
0.0631064
0.0550265
0.0466126
0.0393911
0.0335637
0.0290652
0.0255863
0.0228166
0.0205335
0.0185521
0.0167586
0.0151073
0.0136017
0.0122606
0.0110564
0.00974662
0.00802367
0.00591839
0.00388046
0.00253652
0.00149033
0.00048156
0.067133
0.0694436
0.068222
0.0634822
0.0565183
0.0488175
0.0417748
0.0360504
0.0315483
0.0280829
0.025376
0.0231888
0.0212887
0.0195061
0.0177361
0.015944
0.0141664
0.0124638
0.0108943
0.00924833
0.00737326
0.00529357
0.00320529
0.00181255
0.000511026
0.0649883
0.0673102
0.0668048
0.0631768
0.057328
0.0505386
0.0439052
0.0383276
0.0339617
0.030543
0.0279524
0.0259431
0.0242565
0.0226788
0.0210416
0.0192322
0.0172038
0.0149874
0.012729
0.0105051
0.00836002
0.00630853
0.00450958
0.00286207
0.000835808
0.0626378
0.0648397
0.0648818
0.0622539
0.0575144
0.051682
0.0457537
0.0404206
0.0361679
0.0329021
0.0304172
0.0286011
0.0271871
0.0259399
0.0246534
0.0231521
0.0212974
0.0190023
0.0162621
0.0132151
0.0100858
0.0072236
0.00488145
0.00314925
0.00217321
0.0601713
0.0621281
0.0625386
0.0607728
0.0570964
0.0522558
0.0470949
0.0422942
0.0382368
0.0350776
0.0327601
0.0311009
0.0299496
0.0290704
0.0282505
0.0272959
0.0260234
0.0242554
0.0218386
0.0187015
0.0149384
0.0109938
0.00749775
0.00498903
0.00370009
0.0576976
0.0593007
0.0598924
0.0588143
0.0560998
0.0522462
0.0479143
0.0437058
0.0400283
0.0370808
0.0348726
0.0333754
0.0324061
0.0318271
0.0314367
0.0310571
0.0305215
0.0296492
0.0282357
0.0260661
0.0229932
0.0190949
0.0147634
0.0109024
0.00801053
0.0553293
0.0564991
0.0570899
0.0564953
0.0545914
0.0516559
0.0481653
0.0446137
0.0413883
0.0387233
0.0367133
0.035351
0.0345208
0.0341097
0.0340043
0.0340441
0.0340965
0.034023
0.0336728
0.0328625
0.031434
0.0292551
0.0263364
0.0228949
0.019183
0.0531697
0.0538698
0.0543023
0.0539741
0.0526848
0.0505417
0.0478496
0.0449798
0.0422658
0.0399451
0.0381518
0.0369265
0.0362246
0.0359429
0.035962
0.0362238
0.0366187
0.0370353
0.0373589
0.0374624
0.0372067
0.036483
0.0352045
0.0333316
0.0308745
0.0512967
0.0515441
0.0517089
0.0514444
0.0505471
0.0490167
0.0470175
0.0447989
0.0426191
0.0406894
0.0391529
0.0380821
0.0374767
0.0372749
0.0373838
0.0377096
0.0382428
0.0389074
0.0396046
0.040213
0.0405995
0.0406748
0.0403541
0.0395677
0.0382729
0.0497473
0.0496147
0.0494689
0.0491121
0.0483904
0.0472598
0.0457896
0.0441268
0.0424476
0.0409172
0.0396646
0.0387713
0.0382628
0.0381105
0.0382463
0.0386146
0.0391868
0.0399305
0.0407762
0.0416314
0.0423941
0.0429695
0.0432703
0.0432232
0.0427777
0.0485062
0.0481134
0.0476879
0.047157
0.0464405
0.0455012
0.0443635
0.0431039
0.0418287
0.0406506
0.0396695
0.0389588
0.0385538
0.0384465
0.0385875
0.0389327
0.0394782
0.0402013
0.0410622
0.0420003
0.0429433
0.0438121
0.0445271
0.0450158
0.0452223
0.0475028
0.0469979
0.046388
0.0456864
0.0448842
0.0439779
0.0429857
0.0419502
0.0409337
0.0400062
0.0392344
0.0386727
0.0383539
0.0382816
0.0384243
0.0387242
0.0391884
0.0398103
0.040577
0.0414621
0.042413
0.043379
0.0443016
0.0451195
0.045775
0.0466174
0.046153
0.0454937
0.0446997
0.0438119
0.0428629
0.0418861
0.0409206
0.0400102
0.0392001
0.0385327
0.0380431
0.0377552
0.0376758
0.0377884
0.0380375
0.03841
0.0389059
0.0395188
0.0402395
0.0410589
0.0419467
0.042859
0.0437585
0.0446014
0.0456965
0.0454072
0.0448429
0.0440788
0.043179
0.042201
0.0411977
0.0402174
0.0393034
0.0384937
0.0378199
0.0373062
0.0369684
0.0368131
0.0368341
0.0370038
0.0372713
0.0376286
0.0380759
0.0386069
0.0392155
0.0398973
0.040645
0.0414287
0.0422167
0.0445717
0.04456
0.0442158
0.0436097
0.0428102
0.0418845
0.0408958
0.0399014
0.0389509
0.0380851
0.0373354
0.0367245
0.0362664
0.0359673
0.0358267
0.0358345
0.0359659
0.0361877
0.0364671
0.036807
0.0372063
0.0376601
0.0381644
0.0387169
0.0393061
0.043082
0.0434096
0.0433728
0.0430302
0.0424436
0.0416767
0.0407928
0.0398519
0.0389073
0.0380042
0.0371784
0.036456
0.0358544
0.0353832
0.0350456
0.0348396
0.0347572
0.0347832
0.0348961
0.0350732
0.0352842
0.0355311
0.0358124
0.0361282
0.0364726
0.0410901
0.0417771
0.0420913
0.0420778
0.0417867
0.0412719
0.0405897
0.0397959
0.0389427
0.0380761
0.0372349
0.0364494
0.0357416
0.0351263
0.0346119
0.0342017
0.0338952
0.0336879
0.0335712
0.0335331
0.0335575
0.0336338
0.03375
0.0338825
0.0340309
0.0385014
0.0395297
0.0401955
0.0405311
0.040574
0.0403671
0.0399564
0.0393899
0.0387142
0.0379727
0.0372035
0.0364387
0.0357036
0.0350173
0.0343928
0.0338386
0.0333594
0.0329563
0.032628
0.0323704
0.0321774
0.0320422
0.0319564
0.0319074
0.0318879
0.0353018
0.0366169
0.0375943
0.0382541
0.0386228
0.0387323
0.0386187
0.0383207
0.0378779
0.0373282
0.0367066
0.036044
0.0353665
0.0346952
0.0340465
0.0334323
0.0328611
0.0323384
0.0318669
0.0314475
0.0310795
0.0307603
0.0304864
0.0302531
0.0300564
0.0316078
0.0331147
0.0343213
0.0352369
0.0358773
0.0362641
0.0364243
0.0363881
0.0361875
0.0358543
0.0354188
0.034909
0.0343495
0.0337613
0.0331619
0.0325652
0.0319819
0.0314201
0.0308855
0.0303817
0.0299111
0.0294744
0.0290714
0.0287013
0.0283638
0.0277478
0.0292962
0.0305928
0.0316357
0.0324336
0.0330005
0.0333548
0.0335187
0.0335166
0.0333736
0.0331147
0.0327634
0.0323413
0.0318678
0.0313595
0.0308304
0.030292
0.0297536
0.0292222
0.0287033
0.0282007
0.0277173
0.0272547
0.0268139
0.0263972
0.0240003
0.0253961
0.0266044
0.0276177
0.0284207
0.0290208
0.0294353
0.0296816
0.0297784
0.0297448
0.0296001
0.0293629
0.0290507
0.0286795
0.0282636
0.0278155
0.0273457
0.026863
0.0263747
0.0258866
0.025403
0.0249276
0.0244629
0.0240109
0.0235746
0.0199308
0.020944
0.0218052
0.0225142
0.0230775
0.0235005
0.0237934
0.023967
0.0240332
0.0240042
0.0238923
0.0237094
0.0234672
0.0231763
0.0228465
0.0224868
0.0221046
0.0217067
0.0212987
0.0208853
0.0204703
0.020057
0.0196478
0.0192449
0.0188511
0.00988565
0.0102951
0.0106481
0.0109411
0.0111788
0.0113643
0.0115006
0.011591
0.011639
0.011648
0.0116219
0.0115646
0.0114797
0.011371
0.0112421
0.0110963
0.0109368
0.0107665
0.0105879
0.0104034
0.0102152
0.0100249
0.00983413
0.00964424
0.00945643
0.000718026
0.000655138
0.00174285
0.0022768
0.00238433
0.00249212
0.00343786
0.0035339
0.00388426
0.00652401
0.00614705
0.00622711
0.0155858
0.0134045
0.012178
0.0279468
0.0250448
0.0226227
0.0365495
0.034567
0.0323878
0.0419666
0.0408915
0.0395485
0.0451224
0.0447757
0.0441869
0.0461944
0.0464191
0.0464513
0.0452927
0.0458718
0.0463352
0.0429228
0.043591
0.0442202
0.0398574
0.0404104
0.040968
0.0368111
0.0371664
0.0375383
0.0341792
0.0343405
0.0345194
0.0318918
0.0319128
0.0319496
0.0299066
0.0297802
0.0296723
0.0280863
0.0278324
0.0275965
0.0260433
0.0257089
0.0253885
0.0231984
0.0228364
0.0224842
0.0185095
0.018177
0.0178511
0.00929357
0.00913384
0.00897723
0.000117874
0.000340327
0.000507473
0.000648876
0.000772338
0.000881586
0.000981315
0.00107354
0.00115962
0.00124043
0.0013166
0.00138863
0.0014569
0.00152175
0.00158347
0.00164232
0.00169855
0.00175236
0.00180396
0.00185355
0.0019013
0.00194739
0.00199199
0.00203527
0.00207739
0.00211851
0.00215879
0.0021984
0.00223749
0.00227624
0.0023148
0.00235335
0.00239207
0.00243113
0.00247073
0.00251106
0.00255234
0.00259478
0.00263863
0.00268417
0.0027317
0.00278158
0.00283421
0.00289007
0.00294973
0.0030139
0.00308343
0.00315576
0.00323057
0.0033077
0.00338704
0.00346857
0.00355225
0.00363805
0.00372587
0.00381551
0.00390672
0.00399913
0.00409223
0.0041853
0.00427743
0.00436738
0.00445358
0.00453396
0.00460586
0.00466582
0.00470932
0.00473049
0.00472141
0.0046707
0.00456221
0.00437585
0.00411037
0.00376981
0.00329226
0.00266956
0.00202799
0.00141217
0.00097101
0.000581538
0.000530731
0.000958302
0.00119946
0.00140904
0.00163137
0.00186537
0.00210215
0.00233941
0.00257411
0.00280349
0.00302543
0.00323851
0.003442
0.00363566
0.00381961
0.00399414
0.00415969
0.00431671
0.00446571
0.00460716
0.00474154
0.00486931
0.00499093
0.00510681
0.00521738
0.00532305
0.00542421
0.00552124
0.00561451
0.00570441
0.00579129
0.00587551
0.00595745
0.00603749
0.00611602
0.00619342
0.00627008
0.00634641
0.0064228
0.00649964
0.00657737
0.00665641
0.0067372
0.00682019
0.00690571
0.00699425
0.00708642
0.00718611
0.00729093
0.00739999
0.00751323
0.00763074
0.00775262
0.00787891
0.00800958
0.00814449
0.00828332
0.00842553
0.00857026
0.00871621
0.00886155
0.00900379
0.00913952
0.00926427
0.00937217
0.00945561
0.00950472
0.00950678
0.00944552
0.00930149
0.0090526
0.00866815
0.0081209
0.00738808
0.00645613
0.00531601
0.00400053
0.00247791
0.00134902
0.000586202
0.000735895
0.00139071
0.00168806
0.00197997
0.00231836
0.00268346
0.00305795
0.00343116
0.00379486
0.00414383
0.00447531
0.00478838
0.00508332
0.005361
0.00562257
0.00586921
0.00610202
0.006322
0.00653004
0.0067269
0.00691328
0.00708981
0.00725704
0.00741553
0.00756578
0.00770827
0.00784345
0.00797177
0.00809364
0.00820946
0.00831959
0.00842439
0.00852422
0.00861945
0.00871048
0.00879772
0.00888159
0.00896251
0.00904086
0.00911706
0.00919153
0.0092647
0.00933706
0.00940915
0.00948147
0.00955459
0.0096291
0.00970559
0.00978792
0.00987408
0.00996375
0.010057
0.0101541
0.010255
0.0103599
0.0104686
0.0105808
0.010696
0.0108131
0.0109303
0.0110453
0.0111546
0.0112536
0.0113361
0.0113945
0.0114191
0.011398
0.011317
0.0111601
0.0109097
0.010547
0.0100484
0.00940329
0.00859804
0.00762311
0.00645146
0.0050764
0.00350222
0.00178723
0.000543796
0.000871029
0.00169891
0.0020736
0.00245773
0.00290078
0.00337356
0.00385243
0.00432125
0.00477053
0.00519576
0.0055958
0.00597148
0.00632456
0.00665709
0.006971
0.00726796
0.00754936
0.00781629
0.00806965
0.00831015
0.00853838
0.00875487
0.00896007
0.00915443
0.00933836
0.0095123
0.00967667
0.00983186
0.0099783
0.0101164
0.0102464
0.0103687
0.0104836
0.0105914
0.0106925
0.0107875
0.0108768
0.0109609
0.0110403
0.0111153
0.0111862
0.0112535
0.0113175
0.0113786
0.0114372
0.0114938
0.0115491
0.0116038
0.0116592
0.0117178
0.0117784
0.0118413
0.0119066
0.0119748
0.0120461
0.0121204
0.0121979
0.0122782
0.0123605
0.0124433
0.0125241
0.0125994
0.0126644
0.0127125
0.0127356
0.0127234
0.0126636
0.0125422
0.0123431
0.0120498
0.011646
0.011117
0.0104498
0.0096353
0.00866566
0.00752986
0.00619383
0.00457584
0.00255668
0.000619605
0.000959808
0.00190688
0.00237892
0.00285747
0.00339108
0.00394732
0.00449913
0.00503047
0.00553361
0.0060065
0.00645032
0.00686768
0.00726154
0.00763467
0.00798933
0.00832728
0.00864983
0.00895788
0.00925207
0.00953285
0.00980052
0.0100553
0.0102975
0.0105272
0.0107447
0.0109502
0.011144
0.0113265
0.0114979
0.0116587
0.011809
0.0119493
0.0120796
0.0122003
0.0123118
0.0124147
0.0125096
0.0125973
0.0126786
0.0127538
0.0128233
0.0128874
0.0129465
0.0130008
0.0130505
0.0130959
0.0131375
0.0131757
0.0132111
0.0132466
0.0132817
0.0133171
0.0133535
0.0133915
0.0134317
0.0134748
0.0135214
0.0135719
0.0136264
0.0136842
0.0137436
0.0138018
0.0138545
0.0138958
0.0139179
0.0139108
0.0138618
0.0137562
0.0135768
0.0133045
0.0129197
0.0124032
0.0117391
0.0109151
0.00992534
0.00876507
0.00740923
0.00576209
0.00362329
0.000825901
0.00101365
0.00205234
0.00262487
0.00319041
0.00379763
0.00441377
0.00501297
0.00558206
0.0061169
0.00661846
0.00709012
0.00753593
0.00795967
0.00836446
0.0087526
0.00912572
0.00948483
0.00983049
0.010163
0.0104823
0.0107885
0.0110813
0.0113607
0.0116264
0.0118786
0.012117
0.0123419
0.0125533
0.0127513
0.0129364
0.0131086
0.0132681
0.0134151
0.0135494
0.0136718
0.0137829
0.0138833
0.0139746
0.0140579
0.0141338
0.0142027
0.0142649
0.0143208
0.0143707
0.0144147
0.0144533
0.0144865
0.0145147
0.0145377
0.0145563
0.0145711
0.0145836
0.0145949
0.014606
0.0146182
0.0146329
0.0146517
0.0146761
0.0147076
0.0147465
0.0147926
0.0148443
0.0148986
0.0149505
0.0149935
0.015018
0.0150121
0.0149606
0.014845
0.0146434
0.014331
0.0138806
0.0132645
0.0124564
0.0114359
0.0101917
0.00870775
0.00691812
0.0046282
0.00125484
0.00104653
0.00215864
0.0028234
0.00346294
0.0041256
0.00478089
0.0054072
0.00599596
0.00654692
0.00706392
0.00755224
0.008017
0.00846254
0.0088921
0.00930791
0.0097113
0.0101029
0.010483
0.0108512
0.0112073
0.0115507
0.0118809
0.0121974
0.0124997
0.0127874
0.0130602
0.0133178
0.01356
0.0137869
0.0139984
0.0141947
0.0143754
0.0145401
0.0146888
0.0148234
0.0149451
0.0150545
0.0151533
0.0152422
0.0153217
0.0153924
0.0154546
0.0155086
0.0155547
0.0155934
0.0156249
0.0156497
0.015668
0.0156801
0.015686
0.0156866
0.0156826
0.0156737
0.0156614
0.0156482
0.0156366
0.0156293
0.0156294
0.0156394
0.0156616
0.0156968
0.015745
0.0158046
0.0158724
0.0159428
0.016008
0.0160567
0.0160743
0.0160421
0.0159365
0.0157289
0.0153855
0.0148671
0.0141302
0.0131304
0.0118274
0.0101871
0.00815981
0.00560412
0.00178691
0.00106741
0.00223865
0.00298209
0.0036804
0.00438115
0.00505831
0.00569617
0.00629119
0.0068468
0.00736938
0.00786573
0.00834184
0.0088024
0.0092507
0.00968878
0.0101177
0.0105376
0.0109484
0.0113493
0.0117395
0.0121181
0.0124842
0.0128368
0.0131751
0.0134983
0.0138059
0.0140971
0.0143716
0.014629
0.0148691
0.0150915
0.0152954
0.0154808
0.015649
0.0158019
0.0159404
0.0160659
0.0161787
0.0162793
0.016368
0.0164452
0.016511
0.0165657
0.0166096
0.016643
0.0166665
0.0166806
0.0166862
0.016684
0.0166754
0.0166616
0.0166424
0.0166174
0.0165867
0.0165513
0.0165157
0.0164841
0.0164608
0.0164501
0.0164554
0.0164791
0.0165228
0.0165862
0.0166678
0.0167637
0.0168676
0.0169699
0.0170571
0.0171111
0.0171084
0.0170185
0.0168036
0.0164167
0.0158005
0.0148878
0.0136032
0.0118678
0.00959716
0.00667065
0.00234787
0.0010811
0.00230001
0.00310704
0.00384881
0.00457226
0.00525734
0.00589475
0.00648576
0.00703715
0.00755745
0.00805475
0.0085357
0.00900525
0.00946668
0.0099218
0.0103713
0.0108151
0.0112524
0.0116822
0.0121031
0.0125138
0.0129131
0.0132995
0.0136718
0.0140291
0.0143704
0.0146947
0.0150015
0.0152899
0.0155596
0.0158099
0.0160403
0.0162527
0.0164486
0.0166269
0.0167884
0.0169343
0.017065
0.0171811
0.0172828
0.0173702
0.0174434
0.0175026
0.017548
0.0175798
0.0175986
0.0176051
0.0176003
0.0175854
0.0175615
0.0175304
0.0174931
0.0174511
0.0174045
0.0173514
0.0172955
0.0172426
0.0171982
0.017168
0.0171568
0.0171682
0.0172051
0.017269
0.0173599
0.0174757
0.017612
0.017761
0.0179111
0.0180457
0.0181419
0.0181694
0.0180884
0.0178471
0.0173793
0.0166003
0.0154049
0.0136652
0.0112274
0.0079013
0.00294802
0.00109027
0.00234758
0.00320386
0.00397501
0.00470816
0.00539006
0.00601762
0.00659655
0.00713661
0.00764816
0.00814037
0.00862045
0.00909352
0.00956278
0.0100298
0.010495
0.0109578
0.011417
0.0118712
0.0123187
0.0127575
0.0131861
0.0136028
0.0140061
0.0143945
0.014767
0.0151223
0.0154595
0.015778
0.0160769
0.0163561
0.016616
0.016859
0.0170834
0.0172883
0.0174745
0.0176428
0.0177941
0.0179287
0.0180467
0.0181482
0.0182332
0.0183016
0.0183536
0.0183893
0.0184091
0.0184137
0.0184042
0.0183819
0.0183482
0.0183053
0.0182547
0.0181978
0.0181357
0.0180683
0.017997
0.0179275
0.0178663
0.0178198
0.0177938
0.0177932
0.0178221
0.0178835
0.017979
0.0181086
0.0182697
0.018457
0.0186608
0.0188667
0.0190535
0.0191918
0.0192414
0.0191481
0.0188394
0.018218
0.0171545
0.0154782
0.012963
0.00929732
0.00358277
0.00109674
0.0023851
0.0032782
0.00406668
0.00479895
0.00546887
0.00607914
0.00663952
0.00716242
0.00765982
0.0081418
0.00861599
0.00908761
0.00955975
0.0100338
0.0105096
0.0109865
0.0114628
0.0119365
0.0124057
0.012868
0.0133215
0.0137642
0.0141941
0.0146098
0.0150098
0.0153927
0.0157575
0.0161035
0.01643
0.016737
0.0170256
0.0172972
0.0175493
0.0177807
0.0179919
0.0181838
0.0183571
0.0185123
0.0186495
0.0187688
0.0188699
0.0189526
0.019017
0.019063
0.0190907
0.0191008
0.0190941
0.0190721
0.0190364
0.0189892
0.0189326
0.018868
0.0187968
0.0187189
0.018638
0.0185583
0.0184862
0.0184283
0.0183911
0.0183804
0.0184015
0.0184587
0.0185553
0.0186932
0.0188722
0.0190893
0.0193376
0.019605
0.0198729
0.0201136
0.0202877
0.0203402
0.0201943
0.0197431
0.0188368
0.0172648
0.0147272
0.0107768
0.00425547
0.00110219
0.00241638
0.00333638
0.00413246
0.00485548
0.00550643
0.00609346
0.00663008
0.00713109
0.00760987
0.00807726
0.00854119
0.0090069
0.00947734
0.00995357
0.0104353
0.0109212
0.0114095
0.0118977
0.0123835
0.0128643
0.0133378
0.0138015
0.0142536
0.0146921
0.0151154
0.015522
0.0159109
0.0162813
0.0166327
0.0169649
0.0172793
0.0175768
0.017855
0.0181121
0.0183481
0.0185639
0.0187603
0.0189379
0.0190967
0.0192368
0.019358
0.01946
0.0195424
0.019605
0.0196478
0.019671
0.0196752
0.0196617
0.0196323
0.0195893
0.0195347
0.0194702
0.0193971
0.0193171
0.0192339
0.0191516
0.0190756
0.0190127
0.0189693
0.018952
0.0189669
0.0190197
0.0191153
0.0192575
0.0194486
0.0196881
0.0199721
0.0202918
0.0206315
0.0209663
0.0212586
0.0214538
0.021473
0.0212018
0.020473
0.0190389
0.0165233
0.0122963
0.00500091
0.00110883
0.00244647
0.00338634
0.00418267
0.00488989
0.00551624
0.00607519
0.00658383
0.00705912
0.00751565
0.00796481
0.00841475
0.00887062
0.00933516
0.00980917
0.010292
0.0107822
0.0112773
0.0117749
0.0122721
0.0127662
0.0132545
0.0137345
0.0142039
0.0146607
0.0151031
0.0155296
0.015939
0.0163305
0.0167036
0.0170584
0.0173956
0.0177163
0.0180188
0.0183005
0.0185609
0.0188008
0.0190212
0.0192225
0.019405
0.0195687
0.0197134
0.0198386
0.0199441
0.0200292
0.0200935
0.0201368
0.0201595
0.0201625
0.0201474
0.0201166
0.0200721
0.0200155
0.0199486
0.0198756
0.0197987
0.0197216
0.0196495
0.0195882
0.0195446
0.0195253
0.0195371
0.0195869
0.0196809
0.0198249
0.0200233
0.0202789
0.0205909
0.0209543
0.021357
0.0217778
0.0221823
0.0225179
0.0227052
0.022625
0.022095
0.0208332
0.0183899
0.0139275
0.00587971
0.00112008
0.00248352
0.00343951
0.00423074
0.00491676
0.00551365
0.00604039
0.00651755
0.00696403
0.0073954
0.00782341
0.00825621
0.0086988
0.00915365
0.00962127
0.0101008
0.0105903
0.0110874
0.0115892
0.0120927
0.0125949
0.0130931
0.0135845
0.0140666
0.0145373
0.0149947
0.0154373
0.0158638
0.0162733
0.0166655
0.0170401
0.0173975
0.0177391
0.018064
0.0183693
0.0186539
0.0189182
0.0191632
0.0193895
0.0195974
0.0197868
0.0199577
0.0201096
0.0202421
0.0203543
0.0204456
0.0205153
0.0205631
0.0205896
0.0205962
0.0205849
0.0205576
0.0205165
0.0204656
0.0204077
0.0203451
0.020281
0.02022
0.0201675
0.0201298
0.0201139
0.0201268
0.0201761
0.0202692
0.0204137
0.0206162
0.0208824
0.0212153
0.0216138
0.0220707
0.0225694
0.0230802
0.0235543
0.0239144
0.0240393
0.0237354
0.0226874
0.0203715
0.0157662
0.00698822
0.00114304
0.00254267
0.00351335
0.00429493
0.00495449
0.00551719
0.00600783
0.00645047
0.00686564
0.00726958
0.00767413
0.00808724
0.0085136
0.00895531
0.00941263
0.00988445
0.0103687
0.0108629
0.0113638
0.0118686
0.0123741
0.0128773
0.0133754
0.0138658
0.0143464
0.014815
0.0152702
0.0157107
0.0161354
0.0165439
0.0169358
0.0173113
0.0176718
0.0180176
0.0183454
0.0186538
0.0189427
0.019213
0.0194652
0.0196997
0.0199166
0.0201158
0.0202968
0.0204592
0.0206022
0.0207247
0.0208257
0.0209042
0.0209602
0.0209946
0.0210091
0.0210057
0.0209886
0.0209614
0.0209262
0.020885
0.020841
0.0207979
0.0207607
0.0207354
0.0207284
0.0207471
0.0207993
0.0208935
0.0210382
0.0212425
0.0215146
0.0218615
0.0222865
0.0227878
0.0233548
0.0239643
0.024574
0.0251122
0.0254603
0.0254185
0.024639
0.0225171
0.0178671
0.0084837
0.00118903
0.00265269
0.00363421
0.00439836
0.00502525
0.00554907
0.00599962
0.00640511
0.00678719
0.00716224
0.00754179
0.00793337
0.00834119
0.00876669
0.00920997
0.00966988
0.0101443
0.0106307
0.011126
0.0116272
0.0121312
0.0126352
0.0131356
0.0136301
0.0141166