/*--------------------------------*- C++ -*----------------------------------*\
| =========                 |                                                 |
| \\      /  F ield         | OpenFOAM: The Open Source CFD Toolbox           |
|  \\    /   O peration     | Version:  v2012                                 |
|   \\  /    A nd           | Website:  www.openfoam.com                      |
|    \\/     M anipulation  |                                                 |
\*---------------------------------------------------------------------------*/
FoamFile
{
    version     2.0;
    format      ascii;
    class       volScalarField;
    location    "662";
    object      nut;
}
// * * * * * * * * * * * * * * * * * * * * * * * * * * * * * * * * * * * * * //

dimensions      [0 2 -1 0 0 0 0];


internalField   nonuniform List<scalar> 
6532
(
0.00327037
0.0115484
0.0138958
0.0143032
0.0142023
0.0142023
0.0143032
0.0138958
0.0115484
0.00327037
0.00241774
0.0094055
0.0126838
0.0136184
0.0137253
0.0137253
0.0136184
0.0126838
0.0094055
0.00241774
0.00191531
0.00805356
0.0115955
0.0129124
0.0132355
0.0132355
0.0129124
0.0115955
0.00805356
0.00191531
0.00159226
0.00710888
0.0106662
0.0122241
0.012722
0.012722
0.0122241
0.0106662
0.00710889
0.00159226
0.00136946
0.00640331
0.0098796
0.0115738
0.0121961
0.0121961
0.0115738
0.00987961
0.00640332
0.00136946
0.00120698
0.00585047
0.0092096
0.0109692
0.0116722
0.0116722
0.0109692
0.00920962
0.00585048
0.00120698
0.00108313
0.00540138
0.0086323
0.0104113
0.0111618
0.0111618
0.0104113
0.00863233
0.00540141
0.00108313
0.000985324
0.0050263
0.00812859
0.00989799
0.010672
0.010672
0.00989802
0.00812863
0.00502634
0.000985327
0.000905869
0.00470617
0.00768387
0.00942583
0.010207
0.0102071
0.00942587
0.00768393
0.00470623
0.000905872
0.000839823
0.0044282
0.00728716
0.0089911
0.00976871
0.00976873
0.00899117
0.00728726
0.00442829
0.000839827
0.000783883
0.00418353
0.00693017
0.00859021
0.00935728
0.00935732
0.00859032
0.00693031
0.00418366
0.00078389
0.000735764
0.00396577
0.00660654
0.00821982
0.00897209
0.00897215
0.00821998
0.00660676
0.00396596
0.000735773
0.000693833
0.0037702
0.00631134
0.00787693
0.0086119
0.008612
0.00787717
0.00631167
0.00377049
0.000693846
0.000656894
0.00359324
0.00604068
0.00755884
0.00827523
0.00827537
0.00755919
0.00604117
0.00359368
0.000656914
0.000624051
0.00343212
0.00579142
0.00726315
0.00796046
0.00796067
0.00726368
0.00579213
0.00343275
0.00062408
0.000594617
0.00328461
0.00556097
0.00698774
0.00766596
0.00766627
0.00698852
0.005562
0.0032855
0.000594657
0.000568056
0.0031489
0.00534717
0.00673069
0.00739015
0.0073906
0.00673186
0.00534864
0.00315012
0.000568111
0.000543942
0.0030235
0.00514818
0.00649028
0.00713152
0.00713218
0.00649201
0.00515022
0.00302501
0.000544015
0.000521932
0.00290714
0.00496238
0.00626493
0.00688864
0.00688958
0.00626745
0.00496529
0.00290887
0.000522024
0.000501743
0.00279865
0.00478822
0.00605307
0.00665998
0.00666136
0.00605675
0.00479223
0.00279898
0.000501847
0.00048278
0.00269534
0.00462185
0.00585035
0.00644115
0.0064433
0.00585671
0.00463352
0.00272763
0.000558983
0.000465265
0.00259826
0.00446488
0.00565874
0.00623429
0.00623774
0.00566991
0.00449032
0.00267238
0.000636014
0.000449026
0.00250677
0.0043166
0.00547763
0.00603896
0.00604435
0.00549604
0.00436158
0.00263635
0.000732525
0.000433914
0.00242022
0.00417607
0.00530602
0.00585415
0.00586205
0.00533358
0.00424377
0.00263403
0.00085573
0.000419801
0.00233802
0.00404246
0.00514298
0.00567889
0.00568957
0.00517967
0.00414243
0.00266012
0.00101217
0.000406577
0.00225963
0.00391499
0.00498764
0.00551234
0.00552638
0.00503436
0.00405948
0.00270082
0.00120091
0.000394145
0.00218456
0.00379296
0.00483925
0.00535384
0.00537252
0.00490296
0.00398713
0.00274481
0.00141602
0.00038242
0.00211234
0.00367567
0.00469708
0.0052028
0.0052277
0.00478395
0.00392667
0.00279143
0.00164803
0.000371325
0.0020425
0.00356248
0.00456044
0.00505863
0.00509149
0.00467614
0.00387701
0.00284434
0.00187716
0.00036079
0.00197461
0.00345272
0.00442864
0.00492076
0.00496337
0.00457852
0.00383751
0.00290472
0.00209556
0.000350753
0.00190828
0.00334575
0.00430103
0.00478859
0.00484277
0.00449026
0.00380759
0.00297175
0.0023007
0.000341155
0.00184305
0.00324094
0.00417693
0.0046615
0.00472907
0.00441052
0.00378634
0.00304255
0.00249062
0.000331941
0.00177852
0.00313764
0.00405564
0.00453884
0.00462159
0.00433847
0.0037727
0.00311549
0.00266424
0.000323059
0.00171428
0.0030352
0.00393645
0.00441988
0.00451959
0.00427322
0.00376552
0.00318874
0.00282101
0.000314458
0.00164998
0.00293295
0.00381857
0.00430386
0.00442226
0.0042138
0.0037635
0.00326045
0.00296068
0.000306092
0.00158527
0.00283024
0.00370123
0.00418993
0.00432869
0.00415914
0.00376524
0.00332899
0.00308331
0.000297914
0.00151991
0.00272642
0.00358358
0.00407719
0.00423791
0.00410807
0.0037693
0.00339299
0.00318926
0.000289882
0.0014538
0.00262103
0.00346495
0.00396482
0.00414893
0.0040594
0.00377422
0.00345146
0.00327929
0.000282244
0.00138898
0.00251711
0.00334833
0.00385527
0.00406319
0.00401307
0.00377824
0.00350202
0.00335233
0.000274658
0.00132311
0.00241085
0.00322934
0.00374421
0.00397692
0.00396641
0.00378044
0.00354648
0.00341331
0.000267083
0.00125623
0.0023017
0.00310688
0.00363016
0.00388845
0.0039177
0.0037794
0.00358479
0.00346434
0.000259482
0.0011885
0.0021895
0.00298022
0.00351193
0.00379626
0.00386529
0.00377373
0.00361683
0.00350754
0.000251815
0.00112016
0.00207417
0.00284866
0.00338826
0.00369865
0.00380732
0.00376183
0.00364226
0.00354479
0.000244041
0.00105146
0.00195579
0.00271157
0.00325778
0.00359373
0.0037416
0.00374173
0.00366017
0.0035773
0.00023612
0.000982672
0.0018345
0.0025684
0.00311908
0.00347934
0.00366561
0.00371096
0.00366882
0.00360498
0.000228004
0.000914077
0.00171055
0.00241865
0.00297067
0.00335311
0.00357634
0.00366634
0.00366537
0.00362604
0.000219641
0.000845908
0.00158423
0.00226196
0.00281111
0.0032125
0.00347041
0.00360397
0.00364569
0.00363658
0.000210967
0.000778356
0.00145589
0.00209809
0.00263905
0.00305489
0.00334408
0.00351927
0.00360444
0.00363063
0.000201903
0.000711557
0.0013259
0.00192703
0.00245339
0.00287784
0.00319358
0.00340726
0.00353539
0.00360051
0.000192341
0.000645597
0.00119469
0.00174907
0.00225358
0.00267946
0.00301554
0.00326304
0.00343194
0.00353753
0.000182133
0.000580535
0.00106287
0.00156502
0.00203996
0.00245899
0.00280772
0.00308266
0.00328809
0.00343317
0.000171049
0.000516374
0.000931466
0.00137673
0.00181442
0.00221767
0.00257008
0.0028643
0.00309979
0.00328048
0.000158717
0.000453102
0.000802181
0.00118772
0.00158154
0.00196004
0.00230618
0.00260979
0.00286631
0.00307448
0.000107355
0.000396088
0.000680312
0.00100457
0.00134946
0.00169498
0.00202446
0.00232577
0.00259018
0.00281419
0.000109645
0.000352438
0.000578801
0.0008417
0.00113293
0.00143724
0.00173869
0.00202252
0.00228086
0.00250913
0.000106043
0.000321937
0.000509286
0.000717842
0.000953923
0.00120885
0.0014676
0.00172059
0.00195974
0.00217908
7.72503e-05
0.0003098
0.000472293
0.000641815
0.000828899
0.00102987
0.00123989
0.00145195
0.0016589
0.00185456
6.71424e-05
0.000294572
0.00045736
0.000602677
0.000730912
0.000855658
0.000991561
0.00113628
0.00128237
0.00142576
6.56075e-05
0.000221315
0.000428402
0.00055593
0.000672696
0.000703191
0.00076532
0.000859792
0.000966224
0.00107539
6.94202e-05
0.000113511
0.000141271
0.000172641
0.000202269
0.000222109
0.00023703
0.000249317
0.000259345
0.000267506
0.000145238
0.000166045
0.000167824
0.000172714
0.000176672
0.000179231
0.00018023
0.000179711
0.000177683
0.000174438
0.000170324
0.00016528
0.000159302
0.000152631
0.00014542
0.00013772
0.000129496
0.000121374
0.000113567
0.000105733
9.76216e-05
8.89425e-05
7.9218e-05
6.74478e-05
4.23194e-05
0.000259407
0.000516877
0.000805928
0.000969244
0.00105739
0.00111133
0.00114249
0.00115498
0.00115079
0.00113049
0.00109702
0.00105366
0.00100255
0.000945547
0.000883938
0.000818153
0.000746122
0.00065142
0.000543242
0.000437027
0.00034226
0.000263722
0.000203458
0.000155339
5.0102e-05
0.00041905
0.000665282
0.00102898
0.00136975
0.00158689
0.00172092
0.00180187
0.0018435
0.00185293
0.00183475
0.0017929
0.00173386
0.0016627
0.00158232
0.0014938
0.00139631
0.00128565
0.00114805
0.000980086
0.000796702
0.000616343
0.000456452
0.000328204
0.000223045
5.52067e-05
0.000694395
0.000707937
0.00105603
0.00142784
0.00173125
0.00192492
0.00204345
0.00210751
0.00212876
0.00211541
0.00207506
0.00201607
0.00194663
0.00187098
0.00178944
0.00169877
0.00159201
0.00145612
0.00128106
0.00107337
0.000849008
0.000631425
0.000441877
0.000274896
5.74763e-05
0.00105791
0.000906723
0.0011984
0.00142939
0.00173038
0.0019658
0.0021091
0.00218562
0.00221063
0.00219553
0.00215147
0.00208994
0.00202219
0.0019549
0.00188837
0.00181711
0.00173103
0.0016155
0.00145671
0.00125418
0.001018
0.000770077
0.000535437
0.000312551
5.8236e-05
0.0013122
0.00124528
0.0013963
0.00153305
0.00173882
0.00195783
0.0021194
0.00220434
0.0022288
0.00220669
0.00215314
0.00208366
0.00201181
0.00194743
0.00189256
0.00184014
0.00177698
0.00168555
0.00154891
0.00136194
0.00112969
0.00086972
0.000605301
0.00033758
5.81955e-05
0.00153555
0.00163238
0.00162814
0.00168674
0.00182836
0.00198054
0.00212165
0.00221227
0.00223629
0.00220502
0.00213808
0.00205622
0.00197601
0.00190835
0.00185828
0.00181965
0.00177667
0.00170758
0.0015917
0.00142128
0.00119812
0.000935532
0.00065265
0.000352337
5.76955e-05
0.0017528
0.00187733
0.00187318
0.00188915
0.0019668
0.0020742
0.00216718
0.00223307
0.00225216
0.00221185
0.00212918
0.00203152
0.00193911
0.00186373
0.00181121
0.00177908
0.00175199
0.0017023
0.00160504
0.00144934
0.00123561
0.000974404
0.000680777
0.000359086
5.68766e-05
0.00196431
0.0021063
0.00211881
0.00211238
0.00214064
0.00220652
0.00226716
0.00229782
0.00229122
0.00223618
0.00213584
0.00201961
0.00191159
0.00182395
0.00176247
0.00172886
0.00170915
0.00167537
0.00159671
0.00145541
0.00125031
0.000992191
0.000693272
0.000359693
5.57913e-05
0.00216881
0.00232361
0.0023591
0.00234469
0.00233996
0.00236957
0.00240085
0.00240492
0.00236667
0.00228648
0.00216359
0.00202503
0.00189726
0.00179256
0.00171644
0.00167235
0.00165199
0.00162814
0.00156564
0.00143828
0.00124449
0.000992526
0.000693352
0.000355919
5.45571e-05
0.00236485
0.00253006
0.00258976
0.00258011
0.0025597
0.00255604
0.00256029
0.00254119
0.00247745
0.00236687
0.00221667
0.0020509
0.00189786
0.00177189
0.00167672
0.00161385
0.00158178
0.00156022
0.00151339
0.00140057
0.00121828
0.000974015
0.000678375
0.000343862
5.34914e-05
0.00255096
0.00272412
0.00280672
0.00281
0.00278428
0.00275646
0.00273885
0.00270077
0.00261653
0.0024791
0.00229907
0.00210198
0.0019189
0.00176743
0.00164947
0.00156194
0.00150507
0.00147048
0.00143319
0.00134156
0.0011735
0.000939051
0.000650897
0.000326191
5.24424e-05
0.00272488
0.0029031
0.00300669
0.00302724
0.00300144
0.00296229
0.00292946
0.00287781
0.00277907
0.00262244
0.00241588
0.00218524
0.00196907
0.00178705
0.00164197
0.00152703
0.00140352
0.00131359
0.00128063
0.00121737
0.00109063
0.000890492
0.000614631
0.000305755
5.13228e-05
0.00288404
0.00306518
0.00318751
0.00322635
0.00320881
0.00317224
0.00312622
0.00306645
0.00296065
0.00279308
0.00256703
0.00230871
0.00205868
0.00184149
0.00166338
0.00151822
0.00131776
0.00115219
0.00111849
0.00109238
0.000996597
0.000834745
0.000574659
0.000284857
5.00947e-05
0.00302612
0.00320789
0.00334573
0.00340265
0.00339772
0.00336609
0.00332018
0.00326023
0.00315601
0.00298844
0.00275397
0.0024771
0.0021984
0.0019449
0.00172728
0.00154523
0.00136289
0.00104739
0.000946613
0.000952594
0.000911431
0.000775074
0.000537173
0.000266224
4.87811e-05
0.00314937
0.00332893
0.00347827
0.00355376
0.00356525
0.00354395
0.00350997
0.00345338
0.00335893
0.00320391
0.00297526
0.00269357
0.00239696
0.00211219
0.00185326
0.00162535
0.0014281
0.00108916
0.000831471
0.000768707
0.000780423
0.000715891
0.000509252
0.000254352
4.7532e-05
0.00325287
0.00342681
0.00358368
0.00367655
0.00370603
0.0036982
0.00367755
0.00363796
0.00356156
0.00343217
0.0032254
0.00295561
0.00265718
0.0023549
0.00206201
0.00178651
0.00153507
0.00131142
0.000887073
0.000654771
0.000592106
0.000593857
0.000495706
0.000258721
4.68159e-05
0.00333662
0.00350107
0.00366155
0.00376884
0.00381729
0.00382564
0.00382069
0.00380416
0.00375495
0.00366182
0.00349335
0.00325381
0.00297286
0.00267312
0.00236554
0.00205577
0.00175114
0.0014617
0.00119871
0.000753628
0.000502981
0.000405753
0.000348036
0.000283723
4.82269e-05
0.00339964
0.00355071
0.0037101
0.00382739
0.00389423
0.00392138
0.00393186
0.00393775
0.00392514
0.00387524
0.00375861
0.00356716
0.00332379
0.00304933
0.00275347
0.00243853
0.00210606
0.00176195
0.00142212
0.00110276
0.00070121
0.000392439
0.000258386
0.000191459
5.88221e-05
0.00344729
0.00358082
0.00373415
0.00385784
0.003939
0.00398461
0.00401042
0.00403427
0.00405367
0.00405423
0.0039962
0.00386586
0.0036763
0.00344564
0.00318395
0.00289278
0.00257006
0.00221479
0.00183102
0.00143382
0.00104856
0.000713082
0.000423171
0.000225176
0.000191035
0.00348258
0.00359462
0.00373648
0.0038617
0.00395291
0.00401387
0.00405664
0.0040938
0.00413622
0.00417892
0.0041857
0.00412697
0.00400696
0.00383796
0.00363018
0.00338654
0.00310464
0.00277996
0.00240898
0.00199331
0.00154609
0.00110555
0.000727935
0.000466024
0.000334732
0.00350907
0.00359639
0.00372126
0.00384225
0.00393923
0.0040108
0.00406611
0.00411663
0.00417347
0.00423842
0.00429661
0.00431465
0.00427601
0.00418469
0.00404868
0.00387298
0.00365778
0.00339982
0.00309396
0.00273544
0.002247
0.00181401
0.00142566
0.00102613
0.000686445
0.00353065
0.00359145
0.0036943
0.0038047
0.00390187
0.00398018
0.00404456
0.00410414
0.0041686
0.00424365
0.00432448
0.00439576
0.0044396
0.004435
0.00438273
0.00428764
0.00415324
0.00398037
0.00373412
0.00328378
0.00281161
0.00235783
0.0019717
0.00161897
0.00126463
0.00355084
0.00358552
0.00366267
0.00375629
0.00384713
0.00392688
0.00399646
0.00406185
0.00413049
0.00420885
0.00429801
0.00439173
0.00447913
0.00454621
0.00457842
0.00456598
0.00451255
0.00434696
0.00411742
0.00385999
0.00357656
0.00325686
0.00292714
0.0026279
0.00237084
0.00357196
0.00358378
0.00363395
0.0037058
0.00378369
0.00385852
0.00392823
0.00399573
0.00406592
0.00414406
0.00423371
0.00433328
0.00443685
0.00453516
0.00461733
0.00451326
0.00438964
0.00427051
0.00416016
0.00405516
0.00393792
0.00380271
0.00365279
0.00349824
0.00335313
0.00359422
0.00358952
0.00361482
0.00366241
0.00372184
0.0037852
0.00384899
0.00391364
0.00398193
0.00405743
0.0041433
0.00424034
0.00434545
0.00445182
0.00443534
0.00427759
0.00413799
0.00403142
0.00395532
0.00390538
0.00387369
0.0038514
0.00383243
0.00381405
0.00379533
0.00361494
0.00360279
0.00360912
0.00363372
0.00367189
0.00371847
0.00377013
0.00382593
0.00388714
0.00395612
0.00403516
0.00412529
0.00422479
0.00432872
0.00428245
0.00407672
0.00391102
0.00378618
0.00369809
0.00364525
0.00362344
0.00362647
0.00364909
0.00368716
0.00373619
0.0036282
0.00361932
0.00361599
0.00362321
0.00364136
0.00366875
0.0037036
0.00374533
0.00379429
0.00385167
0.00391893
0.00399706
0.00408563
0.00418167
0.00422853
0.00397629
0.00376773
0.00361481
0.00350295
0.00342735
0.00338414
0.00336952
0.00338021
0.0034136
0.00346643
0.0036252
0.00363039
0.00362868
0.00362776
0.00363155
0.00364167
0.00365895
0.00368374
0.00371654
0.0037581
0.00380927
0.00387072
0.00394245
0.00402309
0.00410854
0.00395258
0.00372054
0.00354383
0.00341179
0.00331248
0.00323897
0.00319542
0.00317788
0.00318405
0.00321156
0.00359509
0.00362364
0.00363468
0.00363644
0.003635
0.00363466
0.00363814
0.00364723
0.00366323
0.00368715
0.00371981
0.00376174
0.00381311
0.00387341
0.00394088
0.0040112
0.00381931
0.00359373
0.00342388
0.00329583
0.00319954
0.00312945
0.00308451
0.00306214
0.00305978
0.00352642
0.00358458
0.00361678
0.00363153
0.00363571
0.00363457
0.00363207
0.00363119
0.00363414
0.00364257
0.00365768
0.00368026
0.00371071
0.00374902
0.00379464
0.00384611
0.00390043
0.00385048
0.00362439
0.00344645
0.00331183
0.00320974
0.00313354
0.00308104
0.0030489
0.00340845
0.0034974
0.00355629
0.00359223
0.00361154
0.00361956
0.00362069
0.00361852
0.00361587
0.00361498
0.00361754
0.00362478
0.00363749
0.0036561
0.0036807
0.00371098
0.00374617
0.00378482
0.00382503
0.00381383
0.00362839
0.00347828
0.00336425
0.00327863
0.00321637
0.00323099
0.00334977
0.00343713
0.0034986
0.00353944
0.00356446
0.00357785
0.00358326
0.00358375
0.00358186
0.00357962
0.00357863
0.00358007
0.00358479
0.00359332
0.00360594
0.00362266
0.00364326
0.00366724
0.00369379
0.00372168
0.00375042
0.00377934
0.00366165
0.00356407
0.00299211
0.00313579
0.00324936
0.00333657
0.00340136
0.00344758
0.00347886
0.0034985
0.00350944
0.00351423
0.00351503
0.00351363
0.00351149
0.00350974
0.00350922
0.00351058
0.00351424
0.00352045
0.0035293
0.00354072
0.00355448
0.00357031
0.00358783
0.00360617
0.00362496
0.00269851
0.00285898
0.00299265
0.00310158
0.00318831
0.00325557
0.0033062
0.00334292
0.00336829
0.00338466
0.0033941
0.00339841
0.00339913
0.00339754
0.00339469
0.00339141
0.00338835
0.00338602
0.00338479
0.0033849
0.00338652
0.0033897
0.00339439
0.00340047
0.00340777
0.0023677
0.00253365
0.00267742
0.00279965
0.0029016
0.00298497
0.00305169
0.00310378
0.00314327
0.00317213
0.00319215
0.00320498
0.00321209
0.00321475
0.00321405
0.00321092
0.00320612
0.00320028
0.00319392
0.00318744
0.00318117
0.00317534
0.00317015
0.0031657
0.00316211
0.00202756
0.00218421
0.00232384
0.00244603
0.00255128
0.00264043
0.00271454
0.0027749
0.00282291
0.00285999
0.00288757
0.00290699
0.0029195
0.00292624
0.00292822
0.00292634
0.00292138
0.00291401
0.00290479
0.00289421
0.00288268
0.00287053
0.00285806
0.0028455
0.00283314
0.00156344
0.00170459
0.00185409
0.00201513
0.00213064
0.00220918
0.00227512
0.0023293
0.00237265
0.00240616
0.00243084
0.00244772
0.00245775
0.00246186
0.00246092
0.0024557
0.00244692
0.0024352
0.0024211
0.00240513
0.00238771
0.00236922
0.00234999
0.0023303
0.00231052
0.00118483
0.0013032
0.0013951
0.00144975
0.00149605
0.00153406
0.00156422
0.00158706
0.00160318
0.00161318
0.00161771
0.00161741
0.00161289
0.00160476
0.00159358
0.00157987
0.00156411
0.00154672
0.0015281
0.00150857
0.00148844
0.00146796
0.00144736
0.00142682
0.00140657
0.000274024
0.00027964
0.000284394
0.000288281
0.000291396
0.000293804
0.000295561
0.00029672
0.000297333
0.000297448
0.000297115
0.000296381
0.000295291
0.00029389
0.00029222
0.000290319
0.000288225
0.000285971
0.00028359
0.000281109
0.000278553
0.000275947
0.000273309
0.000270657
0.000268009
6.87437e-05
6.92471e-05
3.77894e-05
0.000165761
0.000115137
0.000199535
0.0003037
0.000308763
0.000205572
0.00042031
0.000325772
0.00032728
0.000963576
0.000822315
0.000815112
0.00214407
0.00198153
0.00191415
0.00323234
0.00314428
0.00308176
0.00377687
0.00376627
0.00376638
0.00378662
0.00383707
0.00389357
0.00352823
0.00359543
0.00367056
0.00325204
0.00330365
0.00336681
0.0030711
0.00309618
0.00313307
0.00303153
0.0030291
0.00303855
0.00317286
0.00314565
0.00312991
0.00349323
0.00344296
0.00340643
0.00364211
0.00365946
0.00367728
0.0034151
0.00342324
0.00343216
0.00315942
0.00315751
0.00315623
0.00282213
0.00281157
0.00280124
0.00229279
0.00227533
0.00225796
0.00138886
0.00137158
0.00135463
0.000265691
0.000263398
0.00026113
2.68681e-05
5.29356e-05
6.12274e-05
6.29973e-05
7.95563e-05
8.51985e-05
8.98884e-05
9.40176e-05
9.7714e-05
0.000101061
0.000104118
0.000106928
0.000109525
0.000111936
0.000114184
0.000116286
0.00011826
0.000120119
0.000121875
0.000123538
0.000125119
0.000126627
0.000128069
0.000129453
0.000130785
0.000132073
0.000133323
0.000134541
0.000135731
0.000136902
0.000138056
0.000139201
0.000140342
0.000141483
0.00014263
0.00014379
0.000144967
0.000146167
0.000147397
0.000148664
0.000149974
0.000151337
0.000152762
0.00015426
0.000155844
0.00015753
0.000159337
0.000161195
0.000163094
0.00016503
0.000166997
0.000168995
0.000171022
0.000173075
0.000175151
0.000177246
0.000179352
0.00018146
0.00018356
0.000185636
0.000187668
0.000189631
0.000191493
0.000193214
0.00019474
0.000196003
0.000196915
0.000197357
0.000197167
0.000196106
0.000193815
0.000189815
0.000183967
0.000176181
0.000164644
0.000148258
0.000129221
0.000107831
8.9415e-05
5.96784e-05
5.01179e-05
0.000137238
0.000156077
0.000178125
0.00020308
0.000231948
0.000263146
0.00029579
0.000329092
0.000362397
0.000395198
0.000427132
0.000457966
0.000487567
0.000515872
0.000542869
0.000568577
0.000593035
0.000616293
0.000638409
0.000659445
0.000679465
0.000698531
0.000716708
0.000734059
0.000750647
0.000766532
0.000781775
0.000796437
0.000810575
0.000824251
0.000837523
0.000850452
0.000863096
0.00087551
0.000887745
0.000899843
0.000911834
0.000923737
0.000935557
0.000947283
0.000958884
0.000970307
0.000981483
0.000992223
0.00100237
0.00101178
0.0010223
0.00103333
0.00104462
0.00105608
0.00106768
0.00107936
0.00109106
0.0011027
0.0011142
0.00112541
0.00113619
0.00114632
0.00115553
0.0011635
0.00116981
0.00117397
0.00117541
0.00117341
0.00116717
0.00115573
0.001138
0.00111277
0.00107872
0.00103461
0.000950976
0.000855439
0.000797761
0.000741575
0.000639269
0.000522914
0.000362858
0.000190508
5.26718e-05
5.90152e-05
0.000189714
0.000240266
0.000283599
0.000338046
0.000401854
0.000471973
0.000545718
0.000620847
0.000695644
0.000768908
0.000839872
0.0009081
0.000973386
0.00103567
0.00109499
0.00115141
0.00120506
0.00125604
0.0013045
0.00135055
0.00139433
0.00143596
0.00147556
0.00151326
0.00154917
0.00158341
0.00161608
0.00164729
0.00167715
0.00170575
0.00173318
0.00175954
0.00178491
0.00180937
0.00183298
0.00185578
0.00187781
0.00189907
0.00191953
0.00193917
0.00195792
0.00197571
0.00199246
0.00200806
0.00202239
0.00203535
0.00204681
0.00205872
0.00207006
0.0020805
0.00208982
0.00209783
0.00210431
0.002109
0.00211162
0.00211182
0.00210917
0.00210316
0.00209319
0.00207853
0.00205837
0.00203178
0.00199772
0.0019551
0.00190275
0.00183955
0.00176445
0.00167663
0.00157565
0.0014585
0.00128689
0.00113667
0.0010113
0.000905454
0.000761297
0.000612694
0.000458149
0.00026087
5.0731e-05
6.24143e-05
0.000242012
0.00031988
0.000392436
0.00048148
0.000583347
0.000694101
0.000809215
0.000925222
0.0010397
0.00115109
0.00125849
0.00136144
0.00145979
0.00155353
0.00164278
0.00172766
0.00180837
0.00188506
0.00195793
0.00202714
0.00209286
0.00215526
0.00221449
0.00227072
0.00232408
0.00237474
0.00242282
0.00246848
0.00251183
0.00255301
0.00259213
0.0026293
0.00266463
0.00269822
0.00273015
0.00276048
0.00278926
0.00281648
0.0028421
0.00286606
0.00288825
0.00290855
0.00292682
0.0029429
0.00295662
0.0029678
0.00297626
0.00298219
0.00298671
0.0029889
0.0029884
0.00298491
0.00297816
0.00296784
0.00295359
0.00293499
0.00291155
0.00288267
0.0028476
0.0028055
0.00275536
0.00269608
0.00262643
0.00254514
0.00245094
0.00234266
0.00221937
0.00208058
0.00192645
0.00175807
0.0015777
0.00138856
0.00119553
0.00100404
0.000819097
0.000642766
0.000471565
0.000280758
5.41519e-05
6.73981e-05
0.000289162
0.000395542
0.000500624
0.000624875
0.000764341
0.000912906
0.00106519
0.00121713
0.00136603
0.00151028
0.00164903
0.00178188
0.00190876
0.00202974
0.00214497
0.00225465
0.00235899
0.0024582
0.00255249
0.00264204
0.00272705
0.00280769
0.00288414
0.00295656
0.00302512
0.00308997
0.00315128
0.00320921
0.0032639
0.00331551
0.00336419
0.00341006
0.00345327
0.00349395
0.00353222
0.00356819
0.00360198
0.00363364
0.00366312
0.00369035
0.0037152
0.00373752
0.00375709
0.00377369
0.00378702
0.0037968
0.00380269
0.00380436
0.00380292
0.00379769
0.00378835
0.00377463
0.00375629
0.00373306
0.00370465
0.0036707
0.00363076
0.00358425
0.00353042
0.00346835
0.00339694
0.00331491
0.0032208
0.00311309
0.00299018
0.00285054
0.0026929
0.00251642
0.00232104
0.00210777
0.00187909
0.00163927
0.00139443
0.00115211
0.00091968
0.000703402
0.000502994
0.000303538
6.25203e-05
6.92627e-05
0.000322826
0.000466406
0.000604701
0.0007627
0.000936119
0.00111785
0.0013019
0.00148408
0.00166178
0.00183349
0.00199845
0.00215639
0.0023073
0.00245131
0.00258863
0.00271948
0.00284411
0.00296272
0.00307554
0.00318276
0.00328457
0.00338114
0.00347265
0.00355926
0.00364111
0.00371838
0.00379122
0.00385978
0.00392423
0.00398472
0.00404144
0.00409454
0.00414421
0.00419071
0.00423414
0.0042745
0.00431232
0.00434776
0.00438081
0.00441142
0.00443946
0.0044648
0.00448723
0.00450648
0.00452224
0.00453408
0.00454151
0.00454386
0.00454084
0.00453242
0.00451849
0.00449881
0.0044732
0.00444157
0.0044038
0.00435969
0.00430892
0.00425101
0.00418527
0.00411076
0.00402632
0.0039305
0.00382163
0.0036978
0.00355698
0.00339709
0.00321617
0.00301266
0.00278568
0.0025355
0.00226399
0.00197514
0.00167531
0.00137338
0.00108028
0.00080666
0.000558445
0.000329437
7.70642e-05
7.03773e-05
0.000350719
0.000531578
0.000701968
0.000890622
0.00109351
0.00130317
0.00151358
0.00172067
0.001922
0.00211625
0.0023028
0.00248148
0.00265236
0.00281563
0.00297152
0.00312029
0.00326217
0.00339739
0.00352616
0.00364866
0.00376508
0.00387557
0.00398029
0.00407939
0.004173
0.00426126
0.00434429
0.00442222
0.0044952
0.00456335
0.00462681
0.00468571
0.00474031
0.0047916
0.00483987
0.00484337
0.00484687
0.00485429
0.00486315
0.00487362
0.00488669
0.00490341
0.00492491
0.00495245
0.00498747
0.00503172
0.00508768
0.00515565
0.00520455
0.00519827
0.0051853
0.00516461
0.00513599
0.00509993
0.00505672
0.00500648
0.00494911
0.00488432
0.00481154
0.00472993
0.00463829
0.0045351
0.00441849
0.00428623
0.00413579
0.00396447
0.00376947
0.00354824
0.00329876
0.00302007
0.00271285
0.00238003
0.00202742
0.00166414
0.00130265
0.000957708
0.000642945
0.000363773
9.19624e-05
7.10758e-05
0.000373886
0.000590529
0.000790764
0.00100624
0.00123388
0.00146647
0.00169824
0.00192542
0.0021458
0.00235826
0.00256232
0.00275793
0.00294521
0.00312441
0.00329579
0.0034596
0.00361608
0.00376545
0.0039079
0.0040436
0.00417271
0.00429537
0.00441171
0.00452186
0.00462593
0.00472402
0.00481622
0.0049026
0.00498325
0.0050582
0.00512745
0.00517634
0.00514048
0.00511966
0.00511139
0.0051064
0.00510361
0.00510295
0.00510423
0.00510826
0.00511619
0.0051292
0.00514869
0.00517629
0.0052138
0.00526275
0.00532397
0.00539766
0.0054851
0.00559108
0.00571294
0.00576658
0.00573874
0.00570118
0.00565519
0.00560142
0.00554013
0.00547131
0.0053946
0.00530931
0.00521434
0.00510819
0.00498889
0.00485397
0.0047005
0.00452512
0.00432417
0.00409391
0.00383094
0.00353267
0.00319812
0.00282869
0.00242899
0.00200759
0.00157743
0.00115554
0.000761572
0.00041382
0.000105413
7.15301e-05
0.000393147
0.00064312
0.000870352
0.00110866
0.0013565
0.00160739
0.00185603
0.002099
0.00233437
0.00256121
0.0027792
0.00298839
0.00318896
0.00338119
0.00356536
0.00374171
0.00391048
0.00407185
0.004226
0.00437307
0.00451319
0.00464649
0.00477308
0.00489305
0.0050065
0.0051135
0.00521411
0.00530838
0.00539631
0.00547789
0.00549967
0.00543717
0.00539209
0.00536929
0.00535553
0.00534473
0.00533621
0.00533097
0.00532898
0.00533054
0.00533648
0.00534791
0.0053663
0.0053936
0.00543231
0.00548508
0.0055537
0.00563794
0.00573696
0.00585234
0.00598685
0.00614103
0.00627381
0.00623636
0.00618906
0.00613325
0.00606961
0.00599843
0.00591963
0.00583274
0.00573689
0.00563069
0.00551224
0.00537898
0.0052277
0.00505449
0.00485481
0.0046237
0.00435608
0.0040474
0.00369445
0.00329646
0.00285634
0.00238179
0.00188601
0.00138764
0.000910042
0.000480674
0.000114314
7.18329e-05
0.00040914
0.000689512
0.000940697
0.00119799
0.00146186
0.00172685
0.0019883
0.0022432
0.00248993
0.00272776
0.00295654
0.00317636
0.0033875
0.00359023
0.00378482
0.00397153
0.00415054
0.00432203
0.00448613
0.00464295
0.00479261
0.0049352
0.00507081
0.00519952
0.00532141
0.00543655
0.00554498
0.00564677
0.00574192
0.00583046
0.00577603
0.00570425
0.00565827
0.00563353
0.00561939
0.0056091
0.00560138
0.00559672
0.00559541
0.00559783
0.00560474
0.00561714
0.00563653
0.00566502
0.00570546
0.00576096
0.00583406
0.00592573
0.00603581
0.00616423
0.00631021
0.00647403
0.00664343
0.00669985
0.0066515
0.00659428
0.00652909
0.00645645
0.00637655
0.00628921
0.00619385
0.00608937
0.00597405
0.00584545
0.00570025
0.0055342
0.00534202
0.00511751
0.00485384
0.00454406
0.0041821
0.00376421
0.00329069
0.00276781
0.00220913
0.00163573
0.00107501
0.000560396
0.000130217
7.20456e-05
0.000422456
0.00073016
0.00100232
0.00127508
0.0015512
0.00182651
0.00209711
0.00236048
0.00261531
0.00286111
0.00309785
0.00332571
0.00354499
0.00375597
0.00395892
0.00415403
0.00434148
0.00452139
0.00469386
0.00485897
0.00501681
0.00516743
0.00531093
0.00544735
0.00557678
0.00569928
0.00581491
0.00592375
0.00602586
0.00612133
0.00605458
0.00598019
0.00593351
0.00591163
0.00590272
0.00589839
0.00589621
0.00589639
0.00589945
0.00590593
0.00591651
0.00593214
0.00595426
0.00598514
0.00602803
0.00608685
0.00616513
0.00626465
0.00638523
0.0065256
0.00668347
0.00685681
0.00703537
0.00708977
0.00704002
0.00698155
0.00691516
0.00684149
0.00676096
0.00667369
0.00657945
0.00647751
0.00636652
0.00624433
0.00610778
0.00595251
0.00577278
0.00556135
0.00530963
0.00500805
0.00464708
0.00421893
0.00372
0.00315392
0.00253429
0.00188573
0.00124201
0.000643329
0.000141916
7.22243e-05
0.000433774
0.000765889
0.00105629
0.00134139
0.00162638
0.00190861
0.00218504
0.00245372
0.00271371
0.00296474
0.0032069
0.00344045
0.00366569
0.00388291
0.00409231
0.00429406
0.00448827
0.00467503
0.00485439
0.0050264
0.0051911
0.00534853
0.00549876
0.00564185
0.00577785
0.00590684
0.00602889
0.00614409
0.00625252
0.00635428
0.00631649
0.00624263
0.00619807
0.00618331
0.00618382
0.00618931
0.00619634
0.00620484
0.00621544
0.00622877
0.00624546
0.00626638
0.00629288
0.0063273
0.00637334
0.00643601
0.00652047
0.00662976
0.00676274
0.0069143
0.00708024
0.00726511
0.00744827
0.00740645
0.00735546
0.00729594
0.0072286
0.00715416
0.00707322
0.0069862
0.00689323
0.00679403
0.00668773
0.00657264
0.00644601
0.00630372
0.00613989
0.00594664
0.00571389
0.00542947
0.00507994
0.00465241
0.00413767
0.00353481
0.00285622
0.00213096
0.00140273
0.000721243
0.000153844
7.24415e-05
0.000444025
0.000798059
0.0011043
0.001399
0.00168985
0.0019759