/*--------------------------------*- C++ -*----------------------------------*\
| =========                 |                                                 |
| \\      /  F ield         | OpenFOAM: The Open Source CFD Toolbox           |
|  \\    /   O peration     | Version:  v2012                                 |
|   \\  /    A nd           | Website:  www.openfoam.com                      |
|    \\/     M anipulation  |                                                 |
\*---------------------------------------------------------------------------*/
FoamFile
{
    version     2.0;
    format      ascii;
    class       volScalarField;
    location    "662";
    object      omega;
}
// * * * * * * * * * * * * * * * * * * * * * * * * * * * * * * * * * * * * * //

dimensions      [0 0 -1 0 0 0 0];


internalField   nonuniform List<scalar> 
6532
(
648.496
232.374
200.708
196.974
199.371
199.371
196.974
200.708
232.374
648.496
479.425
199.274
163.656
157.278
157.626
157.626
157.278
163.656
199.274
479.425
379.795
169.73
137.427
130.184
129.271
129.271
130.184
137.427
169.729
379.795
315.736
146.094
117.89
110.645
109.103
109.103
110.645
117.89
146.094
315.736
271.556
127.561
102.863
95.9584
94.1527
94.1527
95.9584
102.863
127.561
271.557
239.338
112.946
91.0253
84.5619
82.6802
82.6802
84.5618
91.0253
112.945
239.339
214.779
101.258
81.5122
75.4905
73.6244
73.6244
75.4904
81.5122
101.258
214.779
195.385
91.7609
73.7355
68.1184
66.309
66.3089
68.1183
73.7353
91.7607
195.385
179.629
83.9206
67.2813
62.0223
60.2854
60.2854
62.0222
67.2812
83.9202
179.63
166.532
77.3521
61.8525
56.9064
55.2455
55.2455
56.9063
61.8522
77.3515
166.533
155.44
71.7751
57.231
52.558
50.9708
50.9707
52.5579
57.2306
71.7743
155.441
145.898
66.983
53.2543
48.8206
47.3023
47.3022
48.8204
53.2537
66.9818
145.9
137.583
62.8213
49.7994
45.5767
44.1219
44.1217
45.5763
49.7985
62.8194
137.586
130.259
59.1725
46.7717
42.7366
41.3398
41.3396
42.7359
46.7704
59.1698
130.263
123.746
55.9465
44.0977
40.2305
38.8868
38.8865
40.2295
44.0957
55.9425
123.752
117.909
53.0729
41.7196
38.0038
36.7086
36.7081
38.0024
41.7167
53.0672
117.917
112.642
50.4963
39.5911
36.0129
34.7622
34.7615
36.0107
39.587
50.4886
112.653
107.861
48.1725
37.6753
34.2227
33.0128
33.0119
34.2195
37.6699
48.1639
107.875
103.496
46.0659
35.9422
32.6046
31.4325
31.4311
32.6002
35.9346
46.0575
103.515
99.4929
44.1471
34.3664
31.1347
29.9972
29.9951
31.1281
34.3556
44.1513
99.5136
95.7328
42.3595
32.9017
29.7699
28.6649
28.6615
29.7558
32.8476
41.8972
83.3014
92.2596
40.7221
31.5618
28.5216
27.4463
27.4399
28.4922
31.428
39.6761
70.3439
89.0394
39.2185
30.3329
27.3773
26.3286
26.3173
27.3229
30.0863
37.4667
60.279
86.0428
37.834
29.2026
26.3246
25.2997
25.2816
26.2367
28.8181
35.1033
52.4024
83.2443
36.5559
28.16
25.3533
24.3494
24.3232
25.2287
27.578
32.7507
46.2689
80.6221
35.3738
27.196
24.4546
23.469
23.4326
24.2896
26.3686
30.6319
41.5412
78.1569
34.2786
26.303
23.6212
22.6508
22.6013
23.3976
25.2516
28.8368
37.8841
75.8319
33.263
25.4744
22.8465
21.8885
21.8228
22.5532
24.2151
27.346
35.0206
73.6318
32.3212
24.7049
22.1253
21.1766
21.0922
21.7562
23.2583
26.0708
32.5673
71.5428
31.4482
23.99
21.4531
20.5106
20.4054
21.005
22.3754
24.949
30.407
69.5525
30.6395
23.3262
20.8261
19.8867
19.759
20.2976
21.5581
23.9341
28.4981
67.6492
29.8923
22.7105
20.2414
19.3018
19.1503
19.631
20.7959
22.9846
26.7998
65.8221
29.2043
22.1408
19.6965
18.7534
18.5767
19.0019
20.0785
22.0833
25.2773
64.0608
28.5739
21.6157
19.1897
18.2397
18.036
18.4072
19.3978
21.2194
23.8995
62.3554
27.9998
21.1345
18.7201
17.7592
17.5268
17.844
18.7473
20.3861
22.6399
60.6965
27.4815
20.6973
18.2872
17.3113
17.0478
17.31
18.1226
19.5793
21.4769
59.0748
27.0184
20.3046
17.8916
16.8961
16.5986
16.8038
17.5212
18.7977
20.3938
57.482
26.6093
19.9578
17.5344
16.5145
16.1799
16.3256
16.9433
18.0428
19.3798
55.9674
26.2682
19.6689
17.2279
16.1794
15.8056
15.8912
16.409
17.3413
18.4577
54.4631
25.9787
19.4266
16.9611
15.8791
15.4627
15.4857
15.9017
16.6726
17.5923
52.9612
25.7384
19.2327
16.7364
15.6157
15.153
15.1115
15.4253
16.0419
16.7829
51.4539
25.5449
19.0896
16.557
15.3925
14.8801
14.7723
14.9857
15.4565
16.0343
49.9335
25.395
18.9994
16.4265
15.2133
14.6478
14.4727
14.5889
14.9245
15.3532
48.3921
25.2844
18.9637
16.3487
15.0823
14.4603
14.2176
14.2413
14.4534
14.7473
46.8214
25.2079
18.9836
16.327
15.0038
14.3224
14.0118
13.9484
14.0495
14.2235
45.2121
25.1593
19.0594
16.365
14.9822
14.2384
13.8598
13.7148
13.7172
13.7865
43.5537
25.131
19.1903
16.4651
15.0214
14.2126
13.7656
13.5437
13.4588
13.4379
41.8337
25.1144
19.3739
16.629
15.1246
14.2487
13.7327
13.4375
13.2744
13.1762
40.0362
25.0992
19.606
16.8567
15.2939
14.3494
13.7635
13.3972
13.1627
12.9974
38.1402
25.0727
19.8795
17.1453
15.5292
14.5159
13.8591
13.4228
13.1214
12.8961
36.116
25.0174
20.1817
17.487
15.8261
14.7459
14.0182
13.5127
13.1472
12.8665
33.9182
24.905
20.49
17.8653
16.1729
15.0311
14.2345
13.6616
13.235
12.903
31.4727
24.6616
20.7486
18.2411
16.5411
15.35
14.4922
13.8581
13.3773
13.0047
28.5929
24.1833
20.8711
18.5398
16.871
15.6577
14.7592
14.0824
13.5703
13.1749
25.1753
23.2927
20.7502
18.6711
17.0855
15.8934
14.9947
14.3231
13.8086
13.4021
21.0278
21.4554
20.0909
18.4803
17.0971
16.0076
15.195
14.5691
14.0739
13.672
15.3183
17.8596
18.335
17.6552
16.7757
16.0048
15.357
14.8179
14.3697
13.9938
13.314
12.8031
15.1399
15.9181
15.9862
15.769
15.4498
15.1081
14.7813
14.4828
13.0096
9.87702
11.9784
13.8885
15.0327
15.6493
15.935
16.0044
15.9692
15.8941
13.7657
14.944
18.5986
22.7286
26.6292
29.2411
31.2056
32.8232
34.1434
35.2179
34.5667
20.1663
20.3824
20.9763
21.457
21.7678
21.8891
21.8261
21.5797
21.1857
20.686
20.0734
19.3474
18.5372
17.6614
16.7262
15.7274
14.741
13.7928
12.8413
11.8562
10.8021
9.62109
8.19159
7.06604
44.31
16.1219
9.1116
7.72405
7.32398
7.14803
7.0337
6.9271
6.80211
6.64544
6.48194
6.31421
6.14648
5.98393
5.83193
5.69875
5.60689
5.68015
5.91559
6.24763
6.6071
6.90561
7.03868
6.99106
11.0083
47.6103
20.8546
10.1971
7.16824
6.14855
5.68228
5.40536
5.20318
5.02892
4.85622
4.68271
4.51288
4.34527
4.1826
4.0318
3.90431
3.81958
3.82492
3.95986
4.23038
4.62745
5.10601
5.58027
6.1307
12.1299
47.3485
24.905
13.5213
8.56322
6.63641
5.77219
5.28243
4.95526
4.7079
4.49916
4.30111
4.11059
3.92146
3.73221
3.54986
3.38785
3.26498
3.21095
3.25841
3.42602
3.72957
4.16559
4.70275
5.53579
12.6285
45.4015
27.8617
16.2454
10.6315
7.75083
6.31851
5.55271
5.07313
4.74066
4.48973
4.27937
4.07739
3.87439
3.66303
3.44866
3.24789
3.08246
2.97858
2.96373
3.05604
3.27627
3.64057
4.1655
5.15418
12.7954
42.7978
29.176
18.4787
12.3216
9.05257
7.12951
6.00648
5.3377
4.9043
4.60598
4.38193
4.18647
3.98352
3.75844
3.51418
3.27198
3.05997
2.90784
2.8422
2.87811
3.03496
3.33701
3.83543
4.92185
12.7865
39.8844
29.6987
20.2185
13.9032
10.1798
8.00598
6.60594
5.70597
5.14321
4.78571
4.54556
4.3575
4.17112
3.95138
3.68188
3.396
3.12965
2.92446
2.81096
2.80034
2.90847
3.16237
3.63651
4.78752
12.6767
37.103
29.5831
21.3109
15.2611
11.2553
8.77135
7.20508
6.1533
5.44843
5.01195
4.74902
4.56916
4.40352
4.20096
3.93196
3.60718
3.27467
3.00649
2.83952
2.78467
2.85238
3.06934
3.52466
4.71766
12.4968
34.5469
29.0356
21.9144
16.2702
12.2101
9.50283
7.7363
6.57705
5.78979
5.2772
4.98265
4.80927
4.66987
4.49726
4.242
3.89152
3.50272
3.16042
2.92497
2.81884
2.84732
3.03379
3.47456
4.69203
12.2583
32.2318
28.164
22.1996
16.9986
13.0182
10.1869
8.2572
6.96984
6.12147
5.56128
5.23765
5.0698
4.96227
4.8348
4.61562
4.26293
3.81783
3.38994
3.07203
2.90691
2.89275
3.04951
3.47759
4.7064
11.9871
30.1432
27.1168
22.2108
17.472
13.6688
10.7953
8.75229
7.35791
6.4391
5.84901
5.50746
5.3462
5.27526
5.20669
5.05244
4.73722
4.2566
3.7291
3.29674
3.05299
2.98889
3.11761
3.54208
4.80448
11.753
28.2676
26.0109
21.9941
17.7228
14.1399
11.3015
9.20175
7.73302
6.75661
6.14021
5.78348
5.63281
5.59947
5.59726
5.53469
5.31124
4.85495
4.24148
3.65368
3.28064
3.14414
3.23886
3.66188
4.95621
11.5225
26.5831
24.9038
21.5953
17.82
14.4605
11.7069
9.59742
8.08588
7.07014
6.42992
6.06831
5.92333
5.92125
5.98176
6.02517
5.94603
5.61644
4.99319
4.25056
3.64262
3.37933
3.41783
3.82949
5.13357
11.2765
25.0615
23.8156
21.0803
17.7955
14.6621
12.0299
9.94095
8.41057
7.37021
6.71314
6.34911
6.21219
6.22821
6.33487
6.4739
6.56109
6.46009
5.98098
5.16656
4.2594
3.74679
3.66786
4.03715
5.31428
11.0067
23.6758
22.7614
20.5047
17.6693
14.7689
12.2648
10.2293
8.70364
7.65137
6.98117
6.61586
6.48474
6.51099
6.64142
6.84014
7.06286
7.21362
7.09635
6.43024
5.38929
4.39071
4.03225
4.28534
5.47872
10.718
22.4027
21.7473
19.8969
17.4458
14.8292
12.451
10.4867
8.97349
7.91371
7.22839
6.85924
6.73243
6.76381
6.89896
7.11718
7.40461
7.72868
7.98151
7.85708
6.96969
5.56083
4.63162
4.60591
5.62301
10.4436
21.2224
20.7728
19.2707
17.1646
14.8478
12.6041
10.7112
9.22595
8.1608
7.45485
7.07405
6.9473
6.98188
7.11646
7.32649
7.61357
7.98698
8.43086
8.83558
8.79146
7.72704
5.81518
5.11699
5.76035
10.2863
20.1201
19.8349
18.632
16.844
14.8059
12.7606
10.9338
9.47658
8.40178
7.6691
7.2641
7.12666
7.16101
7.2971
7.49769
7.75571
8.08986
8.52692
9.08835
9.69058
9.96234
9.11134
6.74232
6.17424
10.5963
19.1162
18.9568
18.0062
16.5065
14.7213
12.888
11.1665
9.73338
8.65235
7.88159
7.43689
7.27274
7.29785
7.43729
7.64185
7.88679
8.16869
8.50618
8.95073
9.5262
10.26
10.9853
11.1549
9.70065
10.9998
18.1701
18.1075
17.3753
16.137
14.6013
12.9704
11.4087
10.0193
8.92227
8.1155
7.61152
7.39838
7.39523
7.52833
7.74302
8.00339
8.28671
8.57974
8.88147
9.2167
9.61872
10.1301
10.7183
11.1797
11.376
17.2778
17.2836
16.7373
15.7373
14.4442
13.0188
11.6093
10.3313
9.24437
8.39394
7.82667
7.53602
7.47439
7.57445
7.78214
8.06011
8.38211
8.72509
9.0655
9.38211
9.66205
9.94419
10.3
10.7055
11.0539
16.4424
16.4889
16.0946
15.3073
14.2413
13.0264
11.7838
10.6169
9.59113
8.74873
8.1163
7.73538
7.57858
7.60561
7.76468
8.01893
8.34426
8.72082
9.12609
9.52906
9.88871
10.1644
10.3555
10.6248
10.9183
15.6711
15.7316
15.4535
14.8488
13.9911
12.9783
11.9086
10.8704
9.92859
9.12499
8.48965
8.04206
7.77566
7.69104
7.7587
7.94006
8.2096
8.5477
8.93624
9.35574
9.77682
10.1612
10.466
10.6728
10.7496
14.9738
15.0242
14.8259
14.369
13.6946
12.8707
11.973
11.0737
10.2326
9.49075
8.87661
8.4082
8.08742
7.90611
7.85466
7.93341
8.11487
8.37319
8.68376
9.01684
9.34057
9.62784
9.84517
9.95217
9.91215
14.3609
14.3826
14.2294
13.8821
13.3592
12.7035
11.9691
11.2117
10.482
9.81873
9.24788
8.78828
8.44669
8.21909
8.09641
8.07333
8.15509
8.32311
8.55466
8.82086
9.07815
9.30406
9.47355
9.56099
9.54312
13.8409
13.8221
13.685
13.4098
13.0018
12.4854
11.8965
11.2751
10.6601
10.0845
9.5732
9.14344
8.80526
8.56065
8.40559
8.33579
8.34519
8.43508
8.59022
8.78746
8.99911
9.19953
9.36473
9.47311
9.5073
13.4183
13.3545
13.2132
12.9776
12.6476
12.2365
11.7671
11.2663
10.7608
10.2754
9.83096
9.4439
9.12561
8.88173
8.71327
8.6174
8.59104
8.62799
8.72389
8.86705
9.03844
9.21728
9.38269
9.51535
9.59967
13.0926
12.9853
12.8286
12.6094
12.3262
11.9872
11.6064
11.2007
10.7882
10.3867
10.0115
9.67526
9.38753
9.15462
8.98111
8.86836
8.81446
8.81605
8.86785
8.96288
9.0925
9.24312
9.39912
9.54429
9.66374
12.8593
12.713
12.5373
12.3216
12.0642
11.7701
11.4476
11.1084
10.7654
10.4308
10.1155
9.82845
9.5766
9.36489
9.19754
9.07763
9.00384
8.97379
8.98439
9.03203
9.11456
9.22442
9.35152
9.48442
9.6111
12.7108
12.5308
12.3375
12.1214
11.8787
11.6107
11.3238
11.0268
10.7292
10.44
10.1672
9.91725
9.69507
9.50407
9.34667
9.22512
9.14015
9.09031
9.07328
9.08664
9.12771
9.19295
9.27795
9.37649
9.48108
12.6394
12.431
12.2252
12.0086
11.7749
11.5239
11.2596
10.9885
10.7181
10.4555
10.2074
9.97879
9.77344
9.59379
9.44139
9.31706
9.22101
9.15252
9.11051
9.09306
9.09795
9.12283
9.16517
9.22219
9.29032
12.6398
12.412
12.1961
11.9787
11.7522
11.5143
11.2666
11.0133
10.7602
10.513
10.2773
10.0574
9.85691
9.67784
9.52145
9.38824
9.27807
9.19019
9.12308
9.07496
9.04456
9.03026
9.02995
9.04178
9.06368
12.7175
12.4716
12.2461
12.0271
11.806
11.5787
11.3447
11.1061
10.8664
10.6303
10.4019
10.1853
9.98348
9.7987
9.63227
9.48483
9.35644
9.24661
9.15433
9.07825
9.01677
8.96799
8.93015
8.90206
8.88243
12.8677
12.606
12.3703
12.1475
11.9288
11.7088
11.4855
11.2591
11.0315
10.8054
10.5841
10.3707
10.1677
9.97718
9.80068
9.63904
9.49262
9.36139
9.24489
9.14233
9.05265
8.97463
8.90689
8.84801
8.79677
13.082
12.8077
12.5622
12.3337
12.1139
11.8972
11.6807
11.4633
11.2454
11.0286
10.8148
10.6061
10.4046
10.2119
10.0293
9.85795
9.69828
9.55056
9.41474
9.29053
9.1774
9.07465
8.98141
8.89675
8.81994
13.3496
13.0699
12.8188
12.5862
12.3646
12.1489
11.9358
11.7238
11.5127
11.3029
11.0956
10.8921
10.6938
10.502
10.3178
10.142
9.97527
9.81792
9.67009
9.53171
9.40256
9.28228
9.17038
9.06635
8.9699
13.6853
13.4127
13.1648
12.9335
12.7127
12.4982
12.2874
12.0792
11.8731
11.6691
11.468
11.2705
11.0777
10.8904
10.7094
10.5355
10.3691
10.2105
10.06
9.91748
9.78282
9.6558
9.53608
9.42328
9.3173
14.224
13.9856
13.7615
13.5468
13.339
13.1364
12.9379
12.7427
12.5507
12.362
12.1769
11.996
11.82
11.6495
11.485
11.3269
11.1756
11.0312
10.8937
10.7631
10.6391
10.5214
10.4098
10.3038
10.2032
15.8098
15.7221
15.6299
15.5298
15.4256
15.3192
15.211
15.1015
14.991
14.88
14.7692
14.6589
14.5497
14.4422
14.3366
14.2333
14.1324
14.034
13.938
13.8444
13.7528
13.6631
13.5749
13.488
13.4022
36.0759
36.8153
37.4412
37.9529
38.363
38.6799
38.9113
39.0639
39.1446
39.1598
39.1159
39.0193
38.8758
38.6914
38.4715
38.2212
37.9455
37.6488
37.3353
37.0086
36.6722
36.329
35.9818
35.6327
35.284
9.7227
9.28715
15.1476
12.205
12.7058
12.4896
11.3199
11.4453
11.2901
11.1164
10.9861
10.2661
10.599
10.1363
9.29023
9.70701
9.35113
8.79182
9.40826
9.17742
8.83779
9.45866
9.34037
9.14811
9.62414
9.59776
9.51948
9.74076
9.7822
9.78697
9.71271
9.79441
9.85379
9.57601
9.66546
9.74679
9.35797
9.42819
9.49932
9.09106
9.124
9.16119
8.871
8.86458
8.86257
8.75642
8.72063
8.68837
8.75719
8.69943
8.64538
8.8897
8.81466
8.74351
9.22825
9.14397
9.0633
10.118
10.0365
9.95777
13.3271
13.2526
13.1778
34.9789
34.677
34.3784
4.38713
6.42907
7.85067
8.87731
9.6851
10.3474
10.917
11.4185
11.8675
12.274
12.6453
12.9866
13.302
13.5948
13.8677
14.1231
14.3628
14.5885
14.8018
15.0038
15.1959
15.379
15.5541
15.7221
15.884
16.0404
16.1922
16.3401
16.4847
16.6268
16.7671
16.9061
17.0446
17.1832
17.3226
17.4634
17.6063
17.7521
17.9015
18.0553
18.2145
18.38
18.5531
18.735
18.9274
19.1322
19.3516
19.5773
19.808
20.043
20.282
20.5246
20.7708
21.0201
21.2723
21.5267
21.7825
22.0386
22.2936
22.5457
22.7925
23.0309
23.2571
23.466
23.6514
23.8048
23.9155
23.9692
23.9462
23.8173
23.539
23.0532
22.343
21.3974
19.9962
18.0061
15.694
13.0962
10.8596
9.74453
10.5896
6.9828
7.59633
7.91036
8.03314
8.04219
7.98854
7.90904
7.82185
7.73597
7.65548
7.58199
7.51583
7.45675
7.40418
7.35747
7.31596
7.27902
7.24608
7.21662
7.19019
7.1664
7.14489
7.12537
7.10757
7.09128
7.07629
7.06243
7.04954
7.03748
7.02612
7.01534
7.00504
6.99516
6.98566
6.97657
6.96797
6.96005
6.95305
6.94735
6.94341
6.94183
6.94336
6.94886
6.95984
6.97773
7.00392
7.02937
7.05575
7.08393
7.11425
7.14705
7.18264
7.22137
7.2636
7.30974
7.36024
7.41559
7.47632
7.54303
7.61632
7.69681
7.78511
7.88175
7.98712
8.10134
8.22403
8.35392
8.48831
8.62275
8.74977
8.8529
8.90963
8.88066
8.70597
8.31576
7.65046
6.82888
7.08122
11.1293
12.4696
7.01794
7.0258
6.98158
6.85813
6.67771
6.47909
6.28742
6.11239
5.95682
5.82034
5.70133
5.59776
5.50758
5.42891
5.36007
5.29959
5.24622
5.19889
5.15669
5.11886
5.08475
5.0538
5.02557
4.99966
4.97574
4.95353
4.93279
4.9133
4.89489
4.87739
4.86065
4.84457
4.82907
4.8141
4.79969
4.78591
4.77285
4.76069
4.74963
4.73993
4.73191
4.72592
4.72237
4.72171
4.72441
4.73093
4.74181
4.75437
4.76994
4.78911
4.81239
4.84028
4.87335
4.91222
4.9576
5.01029
5.0712
5.14135
5.22186
5.314
5.41913
5.53876
5.67451
5.82811
6.00136
6.19606
6.41392
6.65631
6.92389
7.21579
7.52734
7.84699
8.14769
8.38285
8.4743
8.28538
7.64428
6.85104
10.7192
13.5663
6.84175
6.48241
6.26275
6.02472
5.78312
5.55025
5.34005
5.15609
4.99737
4.86131
4.74496
4.64548
4.56031
4.48719
4.4242
4.36969
4.3223
4.28084
4.24436
4.21204
4.18321
4.1573
4.13387
4.11252
4.09293
4.07483
4.05802
4.04229
4.02749
4.01346
4.00007
3.98721
3.97481
3.96281
3.95126
3.94019
3.92969
3.91989
3.91094
3.90301
3.89633
3.89113
3.8877
3.88637
3.88749
3.89148
3.89878
3.90963
3.9233
3.94071
3.96241
3.98895
4.02088
4.05887
4.10363
4.15604
4.21708
4.28789
4.36975
4.46413
4.5727
4.69734
4.84023
5.00389
5.19123
5.40567
5.65121
5.93252
6.25494
6.6243
7.04634
7.52561
8.05941
8.63079
9.19288
9.63622
9.70352
9.10634
11.442
14.2409
6.5945
6.01431
5.70782
5.42682
5.16434
4.92836
4.72262
4.54645
4.39706
4.27094
4.16468
4.07521
3.9998
3.93614
3.88225
3.83645
3.79734
3.76376
3.73473
3.70945
3.68726
3.6676
3.65004
3.63419
3.61977
3.60652
3.59425
3.5828
3.57201
3.56175
3.55191
3.54235
3.53298
3.52375
3.51469
3.50586
3.49733
3.48923
3.48167
3.47481
3.46884
3.46393
3.46032
3.45828
3.4581
3.46015
3.46484
3.47263
3.48326
3.49731
3.51528
3.5377
3.56509
3.59805
3.63728
3.68361
3.73805
3.80176
3.87609
3.96257
4.063
4.17945
4.3144
4.47078
4.65215
4.86287
5.10833
5.39527
5.73213
6.12954
6.60066
7.16116
7.82765
8.61492
9.53057
10.5334
11.4556
11.9369
13.2101
14.6349
6.35743
5.62788
5.27601
4.97919
4.71497
4.48448
4.28763
4.12167
3.98275
3.86701
3.77089
3.6912
3.62522
3.57058
3.52531
3.48773
3.45644
3.43028
3.40829
3.38966
3.37374
3.36001
3.348
3.33737
3.32783
3.31915
3.31114
3.30364
3.29654
3.28971
3.28303
3.27633
3.26948
3.26242
3.25519
3.24793
3.24062
3.23337
3.2263
3.21953
3.21321
3.20749
3.20257
3.19867
3.19605
3.19503
3.196
3.19942
3.20563
3.21486
3.22754
3.24416
3.26521
3.29121
3.32278
3.36071
3.40599
3.45978
3.52344
3.59852
3.68682
3.7905
3.91209
4.05469
4.22212
4.41911
4.65168
4.92753
5.25667
5.65213
6.13105
6.71574
7.43527
8.32684
9.43426
10.7948
12.3882
14.0488
16.283
14.8704
6.15491
5.31136
4.93318
4.63227
4.37206
4.14926
3.96145
3.80487
3.67529
3.56869
3.48141
3.41027
3.35252
3.3058
3.26812
3.23782
3.21349
3.19398
3.17833
3.16574
3.15556
3.14726
3.1404
3.13464
3.12969
3.12531
3.12134
3.11764
3.11408
3.11058
3.10697
3.10308
3.09871
3.09363
3.08791
3.08166
3.07498
3.06797
3.06076
3.05345
3.04617
3.03906
3.0323
3.02609
3.02069
3.0164
3.01356
3.01258
3.0139
3.01767
3.02444
3.03483
3.04934
3.06831
3.09223
3.12182
3.15802
3.20197
3.255
3.31861
3.39457
3.48496
3.59227
3.71955
3.87059
4.05014
4.26434
4.52114
4.83105
5.20812
5.67134
6.24659
6.96955
7.89019
9.07953
10.637
12.6913
15.4055
19.4309
15.0179
5.98752
5.04986
4.65424
4.35397
4.09952
3.88428
3.70453
3.556
3.43432
3.3354
3.25558
3.19167
3.14093
3.10099
3.06988
3.04591
3.02769
3.01406
3.00405
2.99687
2.99187
2.98853
2.98639
2.98513
2.98445
2.98413
2.98401
2.98393
2.98382
2.98357
2.98304
2.98193
2.9798
2.97647
2.97202
2.96661
2.96042
2.95356
2.94613
2.93822
2.92995
2.92145
2.9129
2.90451
2.89654
2.8893
2.88315
2.87847
2.87564
2.87488
2.87671
2.88167
2.8903
2.90314
2.92045
2.94284
2.9712
3.00661
3.05034
3.10382
3.16871
3.24698
3.34099
3.45361
3.58847
3.75014
3.94459
4.17966
4.46585
4.81747
5.25422
5.80364
6.50499
7.41573
8.62363
10.2703
12.6018
16.1197
22.273
15.1139
5.85027
4.8312
4.42213
4.12414
3.87566
3.66727
3.49442
3.35262
3.23748
3.1449
3.07128
3.01342
2.96858
2.93441
2.90891
2.89041
2.8775
2.86901
2.86396
2.86157
2.86118
2.86226
2.86436
2.86715
2.87034
2.87372
2.87709
2.88034
2.88337
2.88613
2.88849
2.88987
2.88973
2.88803
2.88495
2.88066
2.87529
2.86893
2.86167
2.85358
2.84477
2.83538
2.82556
2.81554
2.80558
2.796
2.78721
2.77965
2.7738
2.76997
2.76849
2.76972
2.77414
2.78229
2.79453
2.81132
2.8335
2.86209
2.89828
2.94342
2.99903
3.06695
3.14934
3.24889
3.36898
3.51391
3.68936
3.90287
4.16473
4.48915
4.89609
5.41403
6.08446
6.96966
8.16797
9.84779
12.3373
16.438
24.9579
15.1779
5.73785
4.64656
4.2256
3.93006
3.68714
3.48474
3.31769
3.18144
3.07164
2.98426
2.91573
2.86287
2.82296
2.79365
2.77292
2.75909
2.75073
2.74668
2.74594
2.74772
2.75135
2.75629
2.7621
2.76844
2.77501
2.7816
2.78802
2.79416
2.79992
2.80529
2.81013
2.81376
2.81571
2.81589
2.81445
2.81156
2.80737
2.80195
2.79537
2.78773
2.7791
2.76961
2.75942
2.74873
2.7378
2.72697
2.71666
2.70738
2.69964
2.69385
2.69034
2.68947
2.69154
2.69682
2.7057
2.71864
2.73642
2.76
2.7905
2.82916
2.87738
2.93684
3.00952
3.0979
3.20507
3.33508
3.49322
3.68669
3.92545
4.22349
4.60089
5.0869
5.72506
6.5821
7.76526
9.46255
12.0585
16.5906
27.5139
15.2229
5.6458
4.4897
4.05725
3.76364
3.52558
3.32828
3.16603
3.03431
2.92884
2.84568
2.78129
2.73254
2.6967
2.67141
2.65468
2.64478
2.64029
2.64002
2.64296
2.6483
2.65538
2.66364
2.67263
2.68201
2.69147
2.70081
2.70985
2.71846
2.72658
2.73421
2.74123
2.74709
2.75121
2.75341
2.75382
2.75262
2.74997
2.74596
2.74066
2.73415
2.72651
2.71784
2.70829
2.69802
2.6873
2.67644
2.66587
2.65611
2.64774
2.64124
2.63695
2.63521
2.63626
2.64027
2.64743
2.65819
2.67328
2.69362
2.7202
2.75417
2.79681
2.84965
2.91451
2.99363
3.08987
3.20693
3.34979
3.52523
3.74281
4.01625
4.36569
4.82117
5.42858
6.25987
7.43277
9.15548
11.8575
16.7516
29.9859
15.2606
5.57059
4.35622
3.91224
3.61974
3.3857
3.19262
3.03431
2.90623
2.80423
2.72444
2.66338
2.61795
2.58542
2.56343
2.54998
2.54334
2.54207
2.54495
2.55099
2.55935
2.56935
2.58043
2.59215
2.60413
2.61609
2.62781
2.63911
2.64991
2.66015
2.66985
2.6789
2.68693
2.69328
2.69765
2.70013
2.70093
2.7002
2.69806
2.6946
2.68988
2.68398
2.677
2.66904
2.66026
2.65085
2.64112
2.63146
2.6224
2.61456
2.60849
2.60457
2.60308
2.60424
2.60814
2.61492
2.62496
2.63891
2.65757
2.68185
2.71277
2.75152
2.79947
2.85826
2.92995
3.01715
3.12325
3.25285
3.41232
3.61077
3.86157
4.18481
4.61133
5.18963
5.99801
7.16787
8.93442
11.7795
17.0487
32.5063
15.3065
5.50976
4.24323
3.78762
3.49528
3.26433
3.07465
2.91949
2.79432
2.69506
2.61793
2.55949
2.51667
2.48676
2.4674
2.45658
2.45257
2.45391
2.45939
2.468
2.47888
2.49136
2.50487
2.51893
2.5332
2.54736
2.56122
2.5746
2.58743
2.59967
2.61134
2.6224
2.63258
2.64123
2.64795
2.65277
2.65586
2.65743
2.6576
2.65647
2.65411
2.6506
2.64603
2.64047
2.63405
2.62691
2.6193
2.61156
2.60421
2.59788
2.59322
2.5906
2.5903
2.59252
2.59731
2.60482
2.61536
2.62947
2.64781
2.6712
2.70054
2.73689
2.78149
2.83583
2.90177
2.98166
3.07862
3.19688
3.34233
3.52358
3.7535
4.05198
4.45052
5.00025
5.78673
6.95854
8.78845
11.8364
17.6006
35.2469
15.384
5.46247
4.14954
3.68224
3.38893
3.16004
2.97292
2.82021
2.6973
2.60016
2.52506
2.46862
2.42778
2.39986
2.38251
2.37371
2.37174
2.37515
2.38272
2.39343
2.40643
2.42103
2.43665
2.45282
2.46917
2.48539
2.50127
2.51666
2.53148
2.5457
2.55937
2.57247
2.58483
2.59587
2.60512
2.61252
2.61822
2.62243
2.62528
2.6269
2.62736
2.62675
2.62514
2.62261
2.61924
2.61513
2.61044
2.60546
2.60066
2.59667
2.59418
2.59362
2.59528
2.59936
2.60593
2.61511
2.62714
2.64245
2.66159
2.68525
2.71423
2.74948
2.79208
2.84337
2.90503
2.97918
3.06864
3.17726
3.31046
3.47619
3.6867
3.96139
4.33201
4.85206
5.61462
6.78835
8.69502
12.0108
18.4974
38.4261
15.5408
5.43094
4.07612
3.59687
3.30115
3.07308
2.88761
2.73667
2.61542
2.51983
2.4462
2.39117
2.35172
2.32519
2.30927
2.30194
2.3015
2.3065
2.31573
2.32817
2.34297
2.35945
2.377
2.39516
2.41352
2.43178
2.44971
2.46714
2.484
2.50027
2.51599
2.53119
2.54577
2.55928
2.57119
2.58139
2.58997
2.59711
2.60295
2.60764
2.61126
2.61391
2.61566
2.61659
2.61675
2.61621
2.61507
2.61352
2.61196
2.61098
2.61134
2.61347
2.61779
2.62445
2.63351
2.64508
2.65935
2.67664
2.69743
2.72227
2.75188
2.78705
2.82876
2.87818
2.93679
3.0065
3.08985
3.19033
3.31282
3.46449
3.65672
3.90803
4.24985
4.7372
5.47004
6.63874
8.62361
12.257
19.7024
42.3386
15.8504
5.42914
4.03025
3.53564
3.23453
3.0054
2.82055
2.67064
2.55048
2.45588
2.38317
2.329
2.29041
2.26478
2.24981
2.2435
2.24417
2.25039
2.26098
2.27491
2.29136
2.30962
2.32908
2.34924
2.36968
2.39007
2.41015
2.42975
2.44875
2.46715
2.48499
2.50233
2.51914
2.5351
2.54974
2.56284
2.57445
2.5847
2.59374
2.6017
2.6087
2.61482
2.62016
2.6248
2.62878
2.63216
2.63498
2.63736
2.6396
2.64224
2.64601
2.65148
2.65906
2.66885
2.68094
2.69541
2.7124
2.7322
2.75518
2.78182
2.81273
2.84858
2.89021
2.93863
2.99514
3.06142
3.13974
3.23334
3.34643
3.48523
3.66002
3.8879
4.19903
4.6486
5.34142
6.48979
8.54026
12.5212
21.1563
47.4095
16.5055
5.48122
4.02231
3.50401
3.19196
2.95966
2.77482
2.62525
2.50568
2.41163
2.33952
2.28587
2.24779
2.22291
2.20871
2.20322
2.2048
2.21208
2.2239
2.23927
2.25736
2.27745
2.29892
2.32126
2.34398
2.36668
2.38905
2.4109
2.4321
2.45263
2.47253
2.49195
2.51091
2.5292
2.54644
2.56238
2.57699
2.59037
2.60263
2.61389
2.62429
2.63393
2.6429
2.65128
2.65916
2.66657
2.67353
2.68011
2.68652
2.69327
2.70099
2.71031
2.72157
2.73487
2.75031
2.76793
2.78787
2.81037
2.83577
2.86453
2.89711
2.9341
2.97619
3.02426
3.07944
3.14317
3.21742
3.30485
3.40918
3.53593
3.69384
3.89774
4.17518
4.57924
5.21437
6.31203
8.39104
12.7314
22.7848
54.2509
17.5983
5.7859
4.10143
3.53105
3.19189
2.94483
2.75427
2.60433
2.48533
2.3917
2.32103
2.26897
2.23216
2.20812
2.19467
2.19
2.19255
2.201
2.21421
2.23123
2.25124
2.27353
2.29744
2.32236
2.34771
2.3729
2.39756
2.42149
2.4446
2.46689
2.4885
2.50966
2.53045
2.55071
2.57014
2.58853
2.60578
2.62196
2.63714
2.65144
2.66499
2.67789
2.69025
2.70218
2.71374
2.72501
2.73601
2.74678
2.75747
2.76857
2.78059
2.794
2.80911
2.82606
2.84489
2.8656
2.88828
2.9133
2.94104
2.97183
3.00605
3.04417
3.08677
3.13461
3.18864
3.25012
3.32073
3.40275
3.49936
3.61521
3.75746
3.93799
4.17841
4.52218
5.06859
6.04715
8.011
12.517
23.9713
63.5935
14.0087
6.07907
4.34665
3.66003
3.26179
2.98343
2.77565
2.61671
2.49601
2.40723
2.34104
2.29236
2.258
2.23578
2.22392
2.22081
2.22501
2.23524
2.25039
2.26951
2.29179
2.31656
2.34322
2.371
2.39901
2.42644
2.45261
2.47755
2.50136
2.52426
2.54657
2.56854
2.59023
2.61152
2.63218
2.65203
2.67097
2.68902
2.70626
2.7228
2.73873
2.75419
2.76927
2.78408
2.79872
2.81327
2.82777
2.84227
2.85691
2.87214
2.88826
2.90562
2.92441
2.94476
2.96668
2.98994
3.01499
3.04226
3.07199
3.10443
3.1399
3.17879
3.22158
3.26891
3.32159
3.38069
3.44764
3.52434
3.61342
3.71861
3.84543
4.00265
4.20555
4.48412
4.90517
5.64065
7.09841
10.333
17.7297
31.9205
11.42
6.29504
4.69074
3.88237
3.4185
3.09637
2.86259
2.68777
2.56722
2.48406
2.42622
2.38493
2.35562
2.33719
2.32851
2.3283
2.3352
2.3479
2.36527
2.38632
2.41027
2.43651
2.46483
2.49401
2.52267
2.54943
2.57419
2.59742
2.61948
2.64077
2.66169
2.68255
2.70334
2.72391
2.74404
2.76358
2.78249
2.8008
2.81859
2.83594
2.85295
2.86972
2.88636
2.90297
2.91963
2.93644
2.95349
2.97085
2.98874
3.00714
3.02633
3.04681
3.06857
3.0916
3.11596
3.14178
3.1691
3.19819
3.22926
3.26259
3.29848
3.3373
3.37947
3.42552
3.47615
3.53226
3.59502
3.66598
3.74725
3.84165
3.9532
4.08783
4.2551
4.47194
4.7784
5.25046
6.02338
7.29107
9.21162
11.573
9.87565
6.4587
5.00223
4.1695
3.66668
3.31134
3.05703
2.88954
2.78177
2.71062
2.66357
2.63084
2.60727
2.59271
2.58649
2.58761
2.59487
2.60708
2.62325
2.64248
2.66405
2.68731
2.71171
2.73558
2.75768
2.7774
2.79561
2.81249
2.82833
2.84351
2.85899
2.87556
2.89246
2.90928
2.92579
2.94199
2.95803
2.97401
2.98996
3.00594
3.02203
3.0383
3.05483
3.07168
3.08892
3.10665
3.12497
3.14401
3.16396
3.18417
3.20494
3.22687
3.25018
3.27476
3.30057
3.32801
3.35695
3.38726
3.41882
3.45203
3.48723
3.52481
3.56519
3.60885
3.65637
3.7085
3.76617
3.83062
3.90343
3.98666
4.08308
4.19654
4.33295
4.50523
4.73695
5.0537
5.48494
6.06847
6.83339
7.57683
8.7802
6.54568
5.32302
4.56505
4.07764
3.73233
3.50023
3.3706
3.28235
3.21452
3.16002
3.11607
3.08312
3.05918
3.04288
3.03309
3.02891
3.02957
3.03433
3.04248
3.05327
3.06581
3.0787
3.09125
3.1032
3.11484
3.12622
3.13723
3.14766
3.15748
3.16691
3.17609
3.18467
3.19263
3.20018
3.2078
3.21654
3.22642
3.2371
3.24858
3.26097
3.27426
3.28845
3.30352
3.31949
3.33644
3.35453
3.37405
3.39395
3.41411
3.43465
3.45594
3.47849
3.50243
3.52766
3.55412
3.58229
3.6119
3.64283
3.67476
3.70801
3.74299
3.78017
3.82004
3.86313
3.91004
3.96153
4.01853
4.08218
4.15392
4.2356
4.32989
4.44128
4.58039
4.75916
4.98454
5.26322
5.60077
5.98622
6.34833
8.13122
6.74713
5.81706
5.19775
4.81007
4.54239
4.34368
4.18698
4.05865
3.94881
3.85625
3.7813
3.72203
3.67494
3.63761
3.60824
3.58547
3.56824
3.55567
3.54699
3.54144
3.53832
3.53693
3.53714
3.53868
3.54121
3.54495
3.54954
3.55454
3.55942
3.56324
3.56523
3.56609
3.56617
3.56573
3.56511
3.56487
3.56537
3.56696
3.5704
3.57624
3.58414
3.59382
3.60511
3.61794
3.63241
3.64884
3.66619
3.68393
3.70189
3.72012
3.73881
3.75823
3.77878
3.80072
3.82388
3.84821
3.87407
3.90155
3.9304
3.96057
3.99164
4.02427
4.05893
4.09617
4.13654
4.18064
4.22918
4.28294
4.34288
4.4102
4.48693
4.57726
4.68884
4.8264
4.99134
5.1841
5.40283
5.63589
5.851
8.06175
7.20885
6.53949
6.07191
5.7411
5.48336
5.27338
5.09669
4.94286
4.80847
4.69254
4.59492
4.51217
4.44167
4.38127
4.32927
4.28429
4.24522
4.21116
4.18136
4.15515
4.13202
4.11153
4.09336
4.07738
4.06337
4.05101
4.04012
4.0305
4.02192
4.01413
4.00687
4.00011
3.99381
3.98787
3.98212
3.97596
3.96981
3.96451
3.96093
3.95997
3.96196
3.96638
3.97297
3.98166
3.9928
4.00516
4.01817
4.0316
4.04527
4.05912
4.07324
4.08776
4.10288
4.11896
4.13636
4.15472
4.17424
4.19508
4.21772
4.24193
4.26764
4.29485
4.32317
4.35338
4.386
4.42159
4.4607
4.50388
4.55173
4.60505
4.66547
4.73697
4.82405
4.92823
5.04908
5.18524
5.3335
5.48549
5.62474
8.37758
7.80734
7.30872
6.92056
6.62117
6.37695
6.17065
5.99263
5.83572
5.69698
5.57341
5.46293
5.36401
5.27516
5.1951
5.12265
5.05673
4.99657
4.94138
4.89055
4.84357
4.79994
4.75925
4.72122
4.68586
4.65323
4.62286
4.59459
4.56831
4.54396
4.52145
4.50069
4.48167
4.46438
4.44884
4.43508
4.42316
4.41304
4.40481
4.39886
4.39493
4.39317
4.39351
4.396
4.40089
4.40678
4.41336
4.42046
4.42792
4.43558
4.44337
4.45127
4.45936
4.46771
4.47648
4.48606
4.4966
4.50821
4.52091
4.53484
4.55021
4.56763
4.58671
4.60753
4.63011
4.65424
4.6805
4.70942
4.74145
4.77696
4.81656
4.86167
4.91562
4.98067
5.0571
5.14398
5.23959
5.34092
5.44238
5.53488
8.86375
8.50531
8.13214
7.78354
7.48762
7.23959
7.03221
6.85345
6.69688
6.55606
6.42709
6.30783
6.19745
6.09474
5.9991
5.91008
5.82698
5.74927
5.67643
5.6079
5.54321
5.48194
5.42374
5.36835
5.31567
5.26617
5.21977
5.17627
5.1356