/*--------------------------------*- C++ -*----------------------------------*\
| =========                 |                                                 |
| \\      /  F ield         | OpenFOAM: The Open Source CFD Toolbox           |
|  \\    /   O peration     | Version:  v2012                                 |
|   \\  /    A nd           | Website:  www.openfoam.com                      |
|    \\/     M anipulation  |                                                 |
\*---------------------------------------------------------------------------*/
FoamFile
{
    version     2.0;
    format      ascii;
    class       volScalarField;
    location    "662";
    object      p;
}
// * * * * * * * * * * * * * * * * * * * * * * * * * * * * * * * * * * * * * //

dimensions      [0 2 -2 0 0 0 0];


internalField   nonuniform List<scalar> 
6532
(
0.403525
0.40291
0.402576
0.402435
0.402375
0.402375
0.402435
0.402575
0.402909
0.403525
0.402839
0.402665
0.402493
0.402386
0.402337
0.402337
0.402386
0.402493
0.402664
0.402839
0.402366
0.402381
0.402313
0.402238
0.402202
0.402202
0.402237
0.402312
0.40238
0.402365
0.402077
0.402133
0.402098
0.402043
0.402019
0.402018
0.402043
0.402097
0.402132
0.402076
0.401846
0.401906
0.401883
0.401839
0.401818
0.401818
0.401838
0.401881
0.401905
0.401844
0.401625
0.401681
0.401662
0.401626
0.401609
0.401608
0.401625
0.40166
0.401678
0.401622
0.401408
0.401457
0.401438
0.401407
0.401391
0.40139
0.401404
0.401434
0.401453
0.401404
0.401195
0.401237
0.401216
0.401186
0.401172
0.40117
0.401182
0.40121
0.40123
0.401188
0.400984
0.401018
0.400996
0.400967
0.400953
0.400951
0.400961
0.400987
0.401008
0.400974
0.400773
0.400802
0.400778
0.40075
0.400734
0.400731
0.400741
0.400765
0.400787
0.400758
0.400564
0.400587
0.400562
0.400533
0.400517
0.400512
0.40052
0.400542
0.400564
0.40054
0.400355
0.400375
0.400348
0.400319
0.4003
0.400293
0.400298
0.400318
0.40034
0.40032
0.40015
0.400167
0.400138
0.400106
0.400084
0.400073
0.400075
0.400092
0.400113
0.400097
0.39995
0.399963
0.399932
0.399896
0.399869
0.399853
0.39985
0.399863
0.399883
0.39987
0.399758
0.399768
0.399733
0.39969
0.399654
0.399629
0.399619
0.399628
0.399648
0.399638
0.399579
0.399586
0.399544
0.39949
0.399441
0.399401
0.39938
0.399383
0.399405
0.3994
0.399419
0.399421
0.399369
0.399299
0.399227
0.399164
0.399124
0.39912
0.39915
0.399158
0.399288
0.399285
0.399218
0.399121
0.399015
0.398913
0.39884
0.398824
0.398878
0.398921
0.399202
0.399192
0.399103
0.398967
0.398806
0.398638
0.398493
0.398435
0.398536
0.398761
0.399185
0.399165
0.399048
0.398856
0.398614
0.39834
0.39807
0.397939
0.39814
0.398819
0.399263
0.399236
0.399084
0.398819
0.39846
0.398013
0.397467
0.396902
0.396225
0.392106
0.399483
0.399454
0.399266
0.398926
0.39845
0.39784
0.397021
0.39586
0.395273
0.397328
0.399896
0.399871
0.399654
0.399244
0.398662
0.397933
0.397014
0.39558
0.393768
0.39549
0.400548
0.400534
0.400291
0.399816
0.399129
0.398261
0.397215
0.395636
0.392848
0.393269
0.401489
0.401488
0.401218
0.400675
0.399878
0.398858
0.397645
0.396028
0.393005
0.392572
0.402766
0.40278
0.402481
0.401861
0.400947
0.39977
0.398368
0.396654
0.393489
0.39204
0.404437
0.404467
0.40413
0.403419
0.402364
0.401
0.399364
0.39747
0.394253
0.391594
0.406566
0.406609
0.406225
0.405399
0.404167
0.402568
0.400623
0.398393
0.395028
0.391408
0.409226
0.409278
0.408839
0.407872
0.406423
0.404535
0.402218
0.39951
0.395784
0.391769
0.412517
0.412584
0.412066
0.410929
0.409226
0.407002
0.404281
0.401083
0.396958
0.392627
0.416542
0.416626
0.416007
0.414673
0.412677
0.410069
0.406893
0.40319
0.398725
0.393967
0.421405
0.421497
0.420769
0.419212
0.416876
0.41382
0.410105
0.405812
0.40092
0.39564
0.427241
0.427339
0.426486
0.42467
0.42194
0.418363
0.414011
0.409007
0.403477
0.39758
0.434202
0.434307
0.433309
0.431194
0.428011
0.423832
0.418744
0.412897
0.406533
0.399868
0.442452
0.442563
0.4414
0.43895
0.435255
0.430393
0.424463
0.417641
0.410252
0.402618
0.452161
0.45228
0.450937
0.448118
0.443858
0.438237
0.431363
0.423435
0.414835
0.40602
0.4635
0.463637
0.462102
0.458889
0.454024
0.447583
0.43968
0.430532
0.420563
0.410363
0.47663
0.476806
0.475072
0.471449
0.465955
0.458657
0.449671
0.439226
0.427775
0.416019
0.491508
0.491686
0.489728
0.485698
0.479584
0.47144
0.461377
0.449629
0.436667
0.423262
0.508076
0.508224
0.506049
0.501628
0.494923
0.485972
0.474882
0.461883
0.447444
0.432379
0.526528
0.526688
0.524321
0.519535
0.512278
0.502577
0.490533
0.476365
0.460529
0.443838
0.546939
0.54711
0.544558
0.539434
0.531683
0.521315
0.508427
0.493221
0.476129
0.457926
0.569295
0.569459
0.566714
0.561278
0.553094
0.542159
0.528562
0.512491
0.494341
0.474824
0.59346
0.593593
0.590643
0.584913
0.576357
0.56496
0.550808
0.534075
0.51511
0.494546
0.61921
0.619279
0.616102
0.610085
0.601211
0.589455
0.574906
0.557725
0.538217
0.516923
0.646244
0.646208
0.642767
0.636453
0.627301
0.615279
0.600482
0.583062
0.563282
0.541595
0.674186
0.673995
0.670235
0.663596
0.654186
0.641973
0.627058
0.609588
0.58979
0.568034
0.70258
0.702172
0.698025
0.691013
0.681352
0.669009
0.654087
0.636731
0.617134
0.595593
0.730884
0.730193
0.725576
0.718139
0.708231
0.695815
0.680986
0.663883
0.644667
0.623573
0.758464
0.757417
0.752254
0.744353
0.734222
0.721805
0.707174
0.690453
0.671768
0.651299
0.784566
0.783086
0.777331
0.768986
0.758711
0.746409
0.73211
0.715908
0.697888
0.678177
0.808251
0.806274
0.800003
0.791355
0.781105
0.769108
0.755325
0.739804
0.722585
0.703743
0.828329
0.825867
0.819365
0.810756
0.800854
0.789462
0.776452
0.761814
0.745544
0.727667
0.842853
0.841017
0.834892
0.82669
0.817548
0.807162
0.795247
0.78173
0.766566
0.749745
0.850088
0.849935
0.845599
0.838725
0.830976
0.822082
0.811622
0.79947
0.785566
0.769875
0.852094
0.852764
0.850974
0.846637
0.841108
0.83424
0.825592
0.815024
0.802484
0.787947
0.852322
0.85265
0.85245
0.85094
0.848194
0.843798
0.837294
0.828506
0.817405
0.804005
0.852303
0.851895
0.852103
0.852741
0.852702
0.850918
0.84674
0.839861
0.830242
0.817938
0.852933
0.852067
0.852166
0.853791
0.855824
0.856362
0.854186
0.848903
0.840583
0.829193
0.854031
0.853546
0.853971
0.856057
0.859054
0.861285
0.860943
0.857251
0.850605
0.84069
0.370957
0.373896
0.375723
0.37747
0.378989
0.380148
0.380933
0.381249
0.381114
0.3806
0.379696
0.378536
0.377275
0.375945
0.374666
0.373592
0.372835
0.372454
0.372502
0.372986
0.373819
0.374808
0.375671
0.37616
0.376329
0.379277
0.375602
0.375078
0.37595
0.377053
0.378043
0.378809
0.379218
0.379147
0.378605
0.377701
0.376596
0.375435
0.374294
0.373258
0.372417
0.371842
0.371603
0.37174
0.372257
0.373101
0.374149
0.375209
0.375979
0.376345
0.379783
0.376188
0.375016
0.375209
0.375861
0.376523
0.377027
0.377254
0.377135
0.376671
0.375924
0.374999
0.374015
0.37306
0.372212
0.371544
0.371112
0.370955
0.371091
0.371522
0.372215
0.3731
0.374069
0.374966
0.375616
0.378503
0.375278
0.374156
0.37426
0.374894
0.375525
0.375969
0.376133
0.37598
0.375519
0.374806
0.373927
0.372985
0.372077
0.371284
0.370672
0.370284
0.370146
0.370265
0.370632
0.371214
0.371947
0.372744
0.373541
0.374272
0.379085
0.37459
0.372927
0.372984
0.373766
0.37451
0.375044
0.375256
0.375126
0.374678
0.373972
0.373098
0.37216
0.371257
0.370474
0.369873
0.369489
0.369338
0.369418
0.369717
0.370203
0.370819
0.371488
0.372158
0.372867
0.380512
0.374808
0.372219
0.372069
0.372771
0.373567
0.374177
0.374462
0.37438
0.373962
0.373272
0.372403
0.371463
0.370558
0.369774
0.369171
0.368782
0.368613
0.368653
0.368887
0.369283
0.369792
0.370348
0.370887
0.371479
0.381319
0.375463
0.372421
0.371871
0.372249
0.372922
0.373508
0.373824
0.373782
0.373393
0.372719
0.371854
0.370911
0.369999
0.36921
0.368603
0.368205
0.368019
0.368025
0.368201
0.368515
0.368923
0.369366
0.369775
0.370234
0.38189
0.376525
0.373433
0.372357
0.372313
0.372733
0.373203
0.373466
0.373423
0.373045
0.372376
0.371505
0.370548
0.369621
0.368819
0.368202
0.367794
0.367589
0.367564
0.367693
0.367937
0.368255
0.368596
0.368894
0.369238
0.383116
0.378036
0.37491
0.373428
0.37302
0.373152
0.373418
0.373549
0.373421
0.373005
0.372313
0.371415
0.370425
0.369466
0.368636
0.367997
0.367568
0.367342
0.367289
0.367376
0.367563
0.367808
0.368063
0.368271
0.368519
0.384894
0.379968
0.37679
0.375033
0.374314
0.374151
0.374155
0.374089
0.373829
0.373323
0.372584
0.371641
0.37059
0.369571
0.36869
0.368009
0.367544
0.367284
0.367201
0.367252
0.367393
0.367579
0.367764
0.367899
0.368063
0.386926
0.382117
0.378923
0.376989
0.376008
0.375569
0.375338
0.375073
0.374656
0.374021
0.37318
0.372202
0.371077
0.369968
0.369007
0.368259
0.367733
0.367419
0.367297
0.367316
0.367422
0.367562
0.367689
0.367764
0.367861
0.389019
0.38431
0.381113
0.379073
0.377902
0.377249
0.376808
0.37637
0.375822
0.375086
0.374131
0.373033
0.371877
0.370682
0.369619
0.368783
0.368169
0.367763
0.367578
0.367561
0.367638
0.367745
0.367828
0.367856
0.367897
0.391101
0.386402
0.383168
0.381054
0.379756
0.378947
0.378347
0.377777
0.377136
0.376362
0.37538
0.374173
0.372924
0.371703
0.370553
0.369599
0.368865
0.368334
0.368055
0.367993
0.368041
0.368117
0.36816
0.368149
0.368148
0.393206
0.388329
0.38496
0.382746
0.381345
0.380425
0.379724
0.379078
0.378393
0.377615
0.376691
0.375555
0.374234
0.37295
0.371772
0.370694
0.369799
0.369139
0.368736
0.368592
0.368597
0.368642
0.36865
0.368604
0.368564
0.395439
0.390134
0.386466
0.384059
0.382525
0.381509
0.380742
0.380065
0.379391
0.378666
0.377845
0.376872
0.375697
0.374373
0.373152
0.372062
0.371006
0.370166
0.369622
0.369348
0.369259
0.369254
0.369236
0.369165
0.369085
0.397995
0.391981
0.387786
0.385026
0.383267
0.382115
0.38128
0.380591
0.379959
0.379332
0.378664
0.377902
0.376988
0.375879
0.374676
0.373593
0.372518
0.371457
0.370698
0.370281
0.370053
0.369934
0.36987
0.369779
0.369633
0.40118
0.394152
0.389151
0.385811
0.383669
0.382286
0.381336
0.380615
0.38002
0.3795
0.379012
0.378499
0.377898
0.377164
0.376266
0.375279
0.374275
0.373125
0.372045
0.371337
0.371006
0.370762
0.370555
0.370374
0.370106
0.405396
0.397044
0.390922
0.386724
0.383977
0.382205
0.381033
0.380218
0.379622
0.379183
0.378867
0.378619
0.378366
0.378052
0.377641
0.37714
0.376407
0.375384
0.374222
0.372919
0.372011
0.371661
0.371489
0.371086
0.370344
0.410997
0.401058
0.393512
0.38816
0.384547
0.382178
0.380632
0.379616
0.378948
0.378538
0.37835
0.378337
0.378428
0.37856
0.378684
0.378743
0.378661
0.378345
0.377518
0.37607
0.374068
0.372393
0.37159
0.371174
0.369746
0.418359
0.406632
0.397391
0.390585
0.385821
0.382607
0.380491
0.379123
0.378269
0.377804
0.377675
0.37784
0.378237
0.378808
0.379503
0.380269
0.381022
0.381581
0.38166
0.381394
0.379952
0.377132
0.374287
0.373779
0.37559
0.428004
0.414331
0.403142
0.394572
0.388337
0.383976
0.381024
0.379095
0.377897
0.377252
0.37708
0.377333
0.37796
0.378916
0.380165
0.381681
0.383432
0.385346
0.387278
0.389063
0.390538
0.390839
0.390801
0.391375
0.393187
0.440319
0.424639
0.411321
0.400712
0.392682
0.386846
0.382755
0.379993
0.378231
0.37724
0.376883
0.377089
0.377815
0.379027
0.380701
0.382825
0.385385
0.38838
0.391825
0.395681
0.399752
0.40374
0.408084
0.412943
0.417614
0.455592
0.437963
0.422445
0.409597
0.399484
0.391844
0.386279
0.382374
0.37977
0.378193
0.377459
0.377454
0.378112
0.379407
0.381338
0.383888
0.386985
0.390559
0.39457
0.398991
0.403751
0.408756
0.414184
0.420109
0.426153
0.473943
0.454554
0.436907
0.421744
0.409342
0.399606
0.392235
0.38685
0.383086
0.380634
0.379264
0.378818
0.379204
0.380395
0.382415
0.385183
0.388543
0.392386
0.396617
0.401229
0.406227
0.411506
0.416936
0.422357
0.427682
0.495285
0.474451
0.454905
0.437511
0.422747
0.410713
0.401248
0.394053
0.388787
0.38513
0.382815
0.381641
0.381478
0.382285
0.384096
0.386798
0.39016
0.394044
0.398385
0.4031
0.408072
0.413188
0.418328
0.42333
0.428024
0.519309
0.497437
0.476366
0.457005
0.439983
0.425594
0.41385
0.40457
0.397477
0.392271
0.388668
0.386429
0.385375
0.385458
0.386705
0.389008
0.392122
0.395877
0.400154
0.404804
0.409668
0.4146
0.419461
0.424105
0.42839
0.545494
0.523035
0.500915
0.480007
0.461022
0.444412
0.430361
0.418838
0.40967
0.402611
0.397391
0.393755
0.391476
0.390448
0.390779
0.392421
0.395031
0.398364
0.402285
0.406643
0.411261
0.415959
0.420571
0.424945
0.42895
0.573158
0.550549
0.527886
0.50595
0.485456
0.46695
0.450762
0.437014
0.425659
0.416542
0.409446
0.404132
0.400357
0.397932
0.396954
0.397527
0.399325
0.401951
0.405235
0.409041
0.413189
0.417488
0.421762
0.425849
0.429613
0.601537
0.579151
0.556412
0.533977
0.512508
0.492577
0.474604
0.458838
0.445365
0.434138
0.425022
0.417829
0.412343
0.40834
0.405743
0.404791
0.405408
0.407078
0.409481
0.412465
0.415883
0.419554
0.4233
0.426958
0.430387
0.629879
0.607998
0.58555
0.563075
0.541145
0.520306
0.501013
0.483597
0.468248
0.455031
0.443907
0.434762
0.427436
0.421738
0.417474
0.414713
0.413607
0.413954
0.415287
0.417269
0.419746
0.422567
0.42557
0.428602
0.431523
0.657522
0.636328
0.614423
0.592239
0.570261
0.548979
0.528838
0.510206
0.493342
0.4784
0.465431
0.454406
0.445233
0.437784
0.431904
0.427455
0.424445
0.422906
0.422652
0.423412
0.424856
0.426703
0.428817
0.431068
0.433313
0.683946
0.663541
0.642313
0.620617
0.59886
0.577474
0.556873
0.537427
0.519433
0.503099
0.488551
0.47583
0.464918
0.455743
0.448208
0.442195
0.437591
0.434277
0.432194
0.431236
0.431174
0.43178
0.432896
0.434314
0.43581
0.708787
0.689213
0.66871
0.64758
0.626174
0.604875
0.584067
0.564108
0.545305
0.527899
0.512062
0.497893
0.485428
0.474652
0.46551
0.457922
0.451789
0.446998
0.443409
0.440839
0.439188
0.438365
0.438171
0.438412
0.438936
0.731816
0.71307
0.693275
0.672701
0.651666
0.630523
0.609632
0.589336
0.569945
0.551715
0.534845
0.519473
0.505677
0.493483
0.482874
0.473801
0.466187
0.459934
0.454924
0.451021
0.448099
0.446002
0.444521
0.443548
0.443034
0.752904
0.734948
0.715798
0.695711
0.674991
0.653979
0.633025
0.612466
0.592608
0.573716
0.556006
0.539637
0.524717
0.511304
0.499411
0.489012
0.480056
0.47246
0.466127
0.460938
0.456768
0.45348
0.450933
0.449011
0.447604
0.771895
0.754652
0.736049
0.716354
0.695864
0.674919
0.653873
0.633063
0.612797
0.593344
0.574928
0.557725
0.541862
0.527417
0.514427
0.502888
0.492765
0.483996
0.476497
0.470166
0.46489
0.460548
0.457016
0.454174
0.451906
0.788796
0.772142
0.753928
0.734441
0.714009
0.693002
0.671788
0.650702
0.630047
0.610093
0.591068
0.573159
0.556505
0.541199
0.527293
0.514799
0.503699
0.493944
0.485464
0.47817
0.47196
0.466725
0.462349
0.458718
0.45572
0.80345
0.787209
0.769209
0.749816
0.729377
0.708254
0.686835
0.665471
0.644461
0.624071
0.604534
0.586039
0.568735
0.552724
0.53807
0.524797
0.512897
0.502334
0.493049
0.484963
0.477985
0.472013
0.466938
0.462655
0.459056
0.815131
0.799071
0.781135
0.761709
0.741176
0.719914
0.69829
0.676645
0.655287
0.634491
0.614494
0.595492
0.577642
0.561054
0.5458
0.531916
0.519399
0.508222
0.498334
0.489664
0.482124
0.475618
0.470043
0.465292
0.461253
0.827471
0.811653
0.793795
0.774343
0.753657
0.732122
0.71013
0.68804
0.666177
0.644826
0.624235
0.604609
0.586113
0.568868
0.552955
0.538413
0.525251
0.513454
0.502979
0.493756
0.485703
0.478723
0.472717
0.467582
0.463217
0.366935
0.366993
0.3674
0.375062
0.37344
0.383091
0.396446
0.402633
0.414044
0.422197
0.427033
0.432203
0.431305
0.435307
0.438359
0.432345
0.436117
0.439012
0.432008
0.435286
0.438003
0.43197
0.434874
0.437304
0.432271
0.434944
0.437179
0.43274
0.435259
0.437376
0.43328
0.43564
0.437647
0.434048
0.436153
0.437978
0.435309
0.43702
0.438541
0.437189
0.438406
0.439517
0.439567
0.440207
0.440839
0.442855
0.442844
0.442908
0.446652
0.445983
0.445449
0.450218
0.448939
0.447864
0.45341
0.451609
0.450068
0.456237
0.454001
0.452075
0.45803
0.455456
0.453261
0.459679
0.456808
0.454371
0.463784
0.463736
0.463551
0.462929
0.461582
0.459574
0.457097
0.454332
0.451429
0.448495
0.445604
0.4428
0.44011
0.437549
0.435122
0.432831
0.430672
0.428641
0.426734
0.424945
0.423269
0.421699
0.420231
0.418859
0.417579
0.416386
0.415276
0.414245
0.413291
0.412409
0.411598
0.410854
0.410175
0.409561
0.409011
0.408525
0.408105
0.407752
0.40747
0.407265
0.40714
0.407101
0.407159
0.407324
0.407606
0.408013
0.408553
0.409235
0.410077
0.411097
0.412306
0.413712
0.415326
0.417159
0.41922
0.421521
0.424068
0.426868
0.429924
0.433235
0.436794
0.440588
0.444592
0.44877
0.453067
0.457409
0.461704
0.465825
0.469566
0.472649
0.474873
0.476283
0.47694
0.476674
0.475623
0.474212
0.472894
0.472239
0.472316
0.472671
0.463916
0.463746
0.463429
0.462503
0.460897
0.458777
0.456285
0.453573
0.450759
0.44793
0.445146
0.442443
0.439844
0.437362
0.435002
0.432767
0.430654
0.428662
0.426786
0.425022
0.423366
0.421812
0.420356
0.418994
0.41772
0.416532
0.415425
0.414396
0.413442
0.412559
0.411745
0.410997
0.410314
0.409693
0.409133
0.408635
0.408199
0.407828
0.407524
0.407293
0.407139
0.407069
0.40709
0.407206
0.40743
0.407773
0.408246
0.408863
0.409633
0.410563
0.411669
0.412963
0.414455
0.416155
0.418072
0.420213
0.422584
0.425189
0.428031
0.431109
0.434415
0.437936
0.441651
0.445525
0.449512
0.453549
0.457554
0.461425
0.465023
0.468179
0.470742
0.472646
0.473844
0.474228
0.473776
0.472744
0.471673
0.471117
0.471282
0.471917
0.463962
0.463301
0.462377
0.460968
0.459117
0.456939
0.454526
0.451975
0.449359
0.446734
0.444142
0.441612
0.439164
0.436812
0.434562
0.432419
0.430384
0.428457
0.426636
0.424919
0.423301
0.421779
0.420351
0.419011
0.417756
0.416584
0.415489
0.414471
0.413525
0.412649
0.41184
0.411096
0.410413
0.40979
0.409226
0.40872
0.408272
0.407885
0.407561
0.407303
0.407118
0.407011
0.40699
0.40706
0.407232
0.407515
0.40792
0.40846
0.409147
0.409992
0.411005
0.412199
0.413581
0.415162
0.416949
0.418947
0.421162
0.423598
0.426257
0.429136
0.432232
0.435531
0.439015
0.442655
0.446411
0.450227
0.454036
0.457751
0.461271
0.464482
0.467256
0.469483
0.471091
0.472041
0.472314
0.472008
0.47142
0.470948
0.470912
0.471276
0.462842
0.461807
0.460504
0.458866
0.456941
0.454806
0.452524
0.450151
0.447733
0.445307
0.442903
0.440544
0.438249
0.436031
0.433899
0.431858
0.429912
0.428062
0.426307
0.424646
0.423078
0.421599
0.420206
0.418898
0.41767
0.416519
0.415444
0.414442
0.413509
0.412644
0.411844
0.411106
0.410427
0.409804
0.409234
0.408718
0.408256
0.407848
0.407497
0.407207
0.406982
0.406829
0.406753
0.406763
0.406867
0.407074
0.407397
0.407846
0.408434
0.409174
0.410075
0.41115
0.412407
0.413852
0.415493
0.417333
0.419378
0.42163
0.424092
0.426765
0.429643
0.432719
0.435977
0.439395
0.44294
0.446569
0.450226
0.453842
0.457337
0.460624
0.463608
0.466187
0.468293
0.46988
0.470906
0.471391
0.471482
0.471358
0.471205
0.471196
0.460673
0.459473
0.458108
0.456476
0.454607
0.452573
0.45043
0.448219
0.445972
0.443717
0.441478
0.439275
0.437123
0.435036
0.433022
0.431087
0.429235
0.427469
0.425788
0.424193
0.422682
0.421253
0.419904
0.418634
0.417439
0.416317
0.415266
0.414284
0.41337
0.41252
0.411733
0.411007
0.410335
0.409715
0.409142
0.408618
0.408141
0.407712
0.407333
0.407008
0.406741
0.406539
0.406408
0.406353
0.406385
0.406512
0.406745
0.407098
0.407586
0.40822
0.40901
0.409967
0.411099
0.412412
0.413909
0.415593
0.417468
0.419536
0.4218
0.424261
0.426918
0.429763
0.432787
0.435972
0.439293
0.442716
0.446198
0.449686
0.453119
0.456431
0.459551
0.462411
0.464965
0.467161
0.468933
0.470253
0.47118
0.471677
0.471558
0.471226
0.458004
0.456725
0.45541
0.453865
0.45211
0.450211
0.448217
0.446162
0.444075
0.441979
0.439895
0.43784
0.435828
0.43387
0.431974
0.430148
0.428395
0.426717
0.425116
0.423592
0.422144
0.420771
0.419472
0.418245
0.417087
0.415998
0.414975
0.414018
0.413124
0.412294
0.411525
0.410815
0.410159
0.409546
0.408973
0.408444
0.407955
0.4075
0.407088
0.406723
0.406409
0.406153
0.405959
0.405835
0.405787
0.405826
0.405964
0.406215
0.406599
0.407131
0.407814
0.408655
0.409668
0.410855
0.412214
0.413747
0.415454
0.41734
0.419408
0.42166
0.424096
0.426713
0.429505
0.432459
0.435557
0.438774
0.442079
0.445431
0.448786
0.452096
0.455308
0.458375
0.461259
0.463918
0.466293
0.468337
0.470057
0.471261
0.471382
0.470902
0.454964
0.453743
0.452547
0.451123
0.449509
0.44776
0.445921
0.444023
0.442092
0.44015
0.438214
0.436302
0.434425
0.432594
0.430817
0.429099
0.427446
0.425859
0.42434
0.42289
0.421508
0.420194
0.418947
0.417765
0.416647
0.415593
0.4146
0.413669
0.412799
0.411991
0.411247
0.410566
0.409936
0.409331
0.408743
0.408182
0.407658
0.407171
0.406725
0.406323
0.405969
0.405667
0.405422
0.405241
0.405128
0.405094
0.405149
0.405304
0.405575
0.405977
0.40653
0.407259
0.408172
0.409254
0.410492
0.411885
0.413436
0.415149
0.417031
0.419084
0.421311
0.423713
0.426285
0.42902
0.431907
0.434927
0.438059
0.441273
0.444536
0.447811
0.451062
0.45425
0.457344
0.460311
0.4631
0.465659
0.467973
0.469847
0.470515
0.470032
0.451762
0.450676
0.449628
0.448344
0.446883
0.44529
0.443607
0.441863
0.440084
0.438291
0.4365
0.434725
0.43298
0.431272
0.42961
0.427999
0.426444
0.424947
0.42351
0.422134
0.420819
0.419564
0.418369
0.417233
0.416155
0.415134
0.414171
0.413265
0.412416
0.411631
0.410916
0.410258
0.409622
0.408994
0.408379
0.407787
0.40723
0.406717
0.406247
0.40582
0.405439
0.405108
0.404831
0.404613
0.404459
0.404375
0.404371
0.404455
0.404633
0.404921
0.405347
0.405937
0.406712
0.407684
0.40882
0.410088
0.411494
0.413048
0.414758
0.416628
0.418664
0.420868
0.423239
0.425775
0.428467
0.431305
0.434273
0.437348
0.440508
0.443723
0.446963
0.450196
0.453391
0.456517
0.459527
0.462364
0.464999
0.467315
0.468592
0.468316
0.448605
0.44766
0.446748
0.445605
0.444297
0.44286
0.441331
0.43974
0.438111
0.436463
0.434811
0.433171
0.431551
0.429963
0.428412
0.426905
0.425444
0.424034
0.422677
0.421372
0.42012
0.418922
0.417777
0.416684
0.415644
0.414655
0.413717
0.412831
0.411998
0.411224
0.410521
0.409856
0.409189
0.408534
0.40791
0.407315
0.406755
0.406232
0.405748
0.405304
0.404904
0.404551
0.404249
0.404
0.403811
0.403686
0.403633
0.403663
0.403785
0.404012
0.404358
0.40483
0.405457
0.40628
0.407288
0.408432
0.409701
0.411107
0.412659
0.414365
0.416229
0.418258
0.420451
0.422808
0.425327
0.427999
0.430813
0.433755
0.436803
0.439935
0.443123
0.446336
0.449541
0.452701
0.455769
0.458678
0.461376
0.463784
0.465359
0.4654
0.445589
0.444769
0.443976
0.442967
0.441808
0.440525
0.439151
0.437712
0.43623
0.434724
0.433208
0.431696
0.430198
0.428722
0.427277
0.425867
0.424496
0.423168
0.421884
0.420646
0.419454
0.418309
0.417209
0.416156
0.415149
0.414187
0.41327
0.412398
0.411572
0.410795
0.410077
0.409393
0.408724
0.408077
0.407455
0.406861
0.406297
0.405768
0.405275
0.40482
0.404406
0.404035
0.403712
0.40344
0.403222
0.403063
0.402971
0.402953
0.403022
0.403193
0.403477
0.403884
0.404425
0.405119
0.405976
0.406978
0.408108
0.409374
0.410784
0.412344
0.41406
0.415936
0.417976
0.420179
0.422547
0.425072
0.427749
0.430563
0.433499
0.436533
0.43964
0.442785
0.445932
0.449036
0.452041
0.454876
0.457468
0.459738
0.461283
0.461443
0.44273
0.442025
0.441344
0.44047
0.439463
0.438337
0.437119
0.435832
0.434497
0.433129
0.431745
0.430355
0.428971
0.427602
0.426254
0.424934
0.423645
0.422391
0.421174
0.419996
0.418857
0.417758
0.4167
0.415681
0.414702
0.413762
0.412862
0.412
0.411176
0.410391
0.40965
0.408958
0.408301
0.407663
0.407044
0.406449
0.405883
0.405349
0.40485
0.404386
0.403962
0.403579
0.40324
0.402948
0.402708
0.402521
0.402396
0.402339
0.402364
0.402485
0.402715
0.403064
0.403544
0.404155
0.404884
0.405738
0.406736
0.407877
0.409163
0.410599
0.41219
0.413939
0.415852
0.417928
0.420169
0.422572
0.425129
0.427831
0.43066
0.433595
0.436607
0.439657
0.442702
0.445688
0.448551
0.451212
0.453593
0.455613
0.456962
0.457049
0.440015
0.439424
0.438864
0.43814
0.437296
0.436337
0.435283
0.434152
0.432963
0.431731
0.430472
0.429198
0.42792
0.426647
0.425387
0.424146
0.422929
0.42174
0.420581
0.419454
0.418361
0.417301
0.416276
0.415286
0.41433
0.413408
0.41252
0.411666
0.410844
0.410053
0.409296
0.408596
0.407945
0.407311
0.406693
0.406098
0.40553
0.404993
0.404488
0.404018
0.403585
0.403192
0.40284
0.402534
0.402275
0.402068
0.401916
0.401827
0.401816
0.401897
0.402084
0.40239
0.402819
0.40334
0.403949
0.404691
0.405583
0.406623
0.40781
0.409147
0.410639
0.41229
0.414103
0.416082
0.418225
0.420532
0.422996
0.425606
0.428347
0.431194
0.434114
0.437064
0.439992
0.442831
0.445506
0.447931
0.450013
0.451661
0.452702
0.452629
0.437402
0.436938
0.436527
0.435985
0.435335
0.434566
0.433689
0.43272
0.431678
0.430579
0.429437
0.428269
0.427085
0.425897
0.424713
0.423539
0.422382
0.421246
0.420134
0.419048
0.41799
0.416961
0.415962
0.414993
0.414054
0.413145
0.412265
0.411416
0.410596
0.409802
0.409037
0.408327
0.407671
0.407037
0.406419
0.405822
0.405251
0.40471
0.4042
0.403724
0.403284
0.402881
0.40252
0.402201
0.401929
0.401704
0.401532
0.401419
0.401378
0.401427
0.401584
0.401859
0.402225
0.402646
0.403164
0.403833
0.404652
0.405618
0.406731
0.407997
0.409418
0.410999
0.412744
0.414656
0.416734
0.418977
0.421379
0.423929
0.426609
0.429394
0.432247
0.435119
0.437945
0.440649
0.443144
0.445331
0.447086
0.448319
0.449102
0.448676
0.434793
0.434497
0.434297
0.434006
0.433603
0.43306
0.432382
0.431585
0.43069
0.429717
0.428683
0.427608
0.426504
0.425385
0.424261
0.42314
0.422028
0.420932
0.419854
0.418797
0.417763
0.416755
0.415773
0.414817
0.413887
0.412986
0.412111
0.411263
0.410443
0.409648
0.40888
0.408159
0.40749
0.406849
0.406229
0.405629
0.405055
0.404508
0.403993
0.40351
0.403063
0.402652
0.402282
0.401953
0.401669
0.401432
0.401243
0.401111
0.401047
0.401074
0.401211
0.401442
0.401725
0.402075
0.402551
0.403175
0.403946
0.404864
0.405931
0.407151
0.40853
0.410072
0.41178
0.413657
0.415705
0.417921
0.420299
0.422828
0.425489
0.428255
0.431084
0.433921
0.436693
0.439312
0.441684
0.443694
0.445185
0.446166
0.447046
0.446067
0.431993
0.431954
0.432105
0.432192
0.432128
0.431867
0.431414
0.430798
0.430047
0.429188
0.428248
0.427247
0.426205
0.425136
0.424053
0.422967
0.421884
0.420811
0.419752
0.418711
0.41769
0.416692
0.415716
0.414765
0.413839
0.412938
0.412063
0.411214
0.410391
0.409594
0.408824
0.408091
0.407402
0.406751
0.406126
0.405522
0.404943
0.404391
0.403869
0.40338
0.402925
0.402507
0.402128
0.40179
0.401497
0.401249
0.401049
0.400901
0.40082
0.400831
0.400943
0.401113
0.401334
0.401657
0.402118
0.402721
0.403467
0.404361
0.405406
0.406609
0.407973
0.409504
0.411208
0.413085
0.415139
0.417367
0.419765
0.42232
0.425013
0.427815
0.430681
0.433547
0.436328
0.438919
0.441202
0.443015
0.444188
0.445106
0.446495
0.444436
0.428582
0.429082
0.429862
0.430563
0.430983
0.431063
0.430852
0.430415
0.429795
0.429032
0.428161
0.427211
0.426206
0.425164
0.424101
0.423028
0.421955
0.420889
0.419834
0.418795
0.417774
0.416774
0.415795
0.41484
0.41391
0.413003
0.412123
0.411268
0.410439
0.409638
0.408864
0.408116
0.407406
0.406741
0.406109
0.4055
0.404915
0.404357
0.403828
0.403332
0.402869
0.402444
0.402057
0.401712
0.40141
0.401155
0.400946
0.400788
0.400695
0.40069
0.40076
0.400881
0.401085
0.401412
0.401873
0.402472
0.403215
0.404106
0.405153
0.406362
0.407738
0.409288
0.411016
0.412928
0.415025
0.417308
0.419771
0.422406
0.425194
0.428103
0.431088
0.434076
0.436963
0.439608
0.441806
0.443235
0.443654
0.443962
0.444399
0.438107
0.423432
0.425346
0.427532
0.429187
0.430235
0.430744
0.430799
0.430509
0.429983
0.429278
0.428443
0.427513
0.426514
0.425471
0.424402
0.423321
0.422238
0.42116
0.420093
0.419041
0.418008
0.416995
0.416004
0.415037
0.414095
0.413178
0.412287
0.411422
0.410585
0.409776
0.408992
0.408226
0.407495
0.406816
0.406174
0.405559
0.404967
0.404403
0.403868
0.403365
0.402896
0.402464
0.40207
0.401719
0.401411
0.401149
0.400935
0.400771
0.400667
0.400638
0.400674
0.400784
0.401003
0.401345
0.401817
0.402429
0.403185
0.404094
0.405164
0.4064
0.407812
0.409405
0.411187
0.413164
0.415339
0.417716
0.420292
0.423062
0.426012
0.429117
0.432335
0.4356
0.438804
0.44178
0.444238
0.445674
0.445708
0.44473
0.439268
0.419999
0.414818
0.421174
0.425656
0.428455
0.430137
0.431032
0.431329
0.431158
0.430656
0.429944
0.429098
0.428146
0.427119
0.426044
0.424943
0.42383
0.422716
0.42161
0.420516
0.419438
0.418381
0.417345
0.416334
0.415348
0.414388
0.413456
0.412552
0.411676
0.410828
0.410004
0.409195
0.408407
0.407663
0.40697
0.406318
0.405695
0.405098
0.404529
0.403989
0.40348
0.403007
0.40257
0.402172
0.401816
0.401504
0.40124
0.401024
0.400858
0.400744
0.400688
0.400713
0.400842
0.401086
0.401453
0.40195
0.402588
0.403375
0.404319
0.405429
0.406712
0.408179
0.409838
0.411698
0.413765
0.416049
0.418553
0.421281
0.424235
0.427408
0.430792
0.434363
0.438088
0.441906
0.445726
0.449363
0.452455
0.455014
0.456233
0.44404
0.408188
0.394777
0.416103
0.42437
0.428793
0.431082
0.43217
0.432513
0.432357
0.431828
0.431041
0.430105
0.42908
0.427983
0.426842
0.425682
0.424517
0.423356
0.422206
0.421072
0.419959
0.418868
0.417802
0.416764
0.415753
0.414773
0.413825
0.41291
0.412021
0.41115
0.410294
0.409459
0.408657
0.407904
0.407201
0.406538
0.405908
0.405306
0.404733
0.40419
0.403679
0.403203
0.402764
0.402365
0.402008
0.401697
0.401434
0.401222
0.401062
0.400949
0.400879
0.400895
0.401045
0.401325
0.401728
0.402263
0.402941
0.403771
0.404763
0.405926
0.407271
0.408808
0.410547
0.4125
0.414676
0.417084
0.419735
0.422636
0.425795
0.429219
0.432911
0.436878
0.441124
0.445665
0.450572
0.455891
0.461572
0.468112
0.475328
0.477317
0.479438
0.40492
0.419934
0.427005
0.431334
0.433425
0.434295
0.434429
0.434085
0.433411
0.432506
0.431444
0.430282
0.42906
0.427818
0.426576
0.425342
0.424121
0.422918
0.421737
0.420581
0.419452
0.418351
0.41728
0.416243
0.415242
0.41428
0.413347
0.412428
0.411522
0.41064
0.409792
0.408985
0.408223
0.407508
0.406835
0.406198
0.405592
0.405017
0.404473
0.403962
0.403487
0.403051
0.402655
0.402303
0.401997
0.401742
0.401541
0.401394
0.401296
0.40124
0.401249
0.401394
0.401704
0.402156
0.402742
0.403471
0.404354
0.405403
0.40663
0.408045
0.409662
0.411491
0.413546
0.415838
0.418379
0.421182
0.424259
0.427623
0.431286
0.435266
0.43958
0.444249
0.449344
0.455061
0.46147
0.468416
0.475844
0.483797
0.492392
0.505815
0.424862
0.430286
0.433749
0.43594
0.436882
0.437091
0.4368
0.436159
0.435269
0.434196