/*--------------------------------*- C++ -*----------------------------------*\
| =========                 |                                                 |
| \\      /  F ield         | OpenFOAM: The Open Source CFD Toolbox           |
|  \\    /   O peration     | Version:  v2012                                 |
|   \\  /    A nd           | Website:  www.openfoam.com                      |
|    \\/     M anipulation  |                                                 |
\*---------------------------------------------------------------------------*/
FoamFile
{
    version     2.0;
    format      ascii;
    class       surfaceScalarField;
    location    "662";
    object      phi;
}
// * * * * * * * * * * * * * * * * * * * * * * * * * * * * * * * * * * * * * //

dimensions      [0 3 -1 0 0 0 0];
oriented        oriented;


internalField   nonuniform List<scalar> 
12792
(
5.10545e-08
0.000199949
3.47605e-08
0.000200016
2.10546e-08
0.000200014
9.95151e-09
0.000200011
1.71745e-11
0.00020001
-9.92009e-09
0.00020001
-2.10314e-08
0.000200011
-3.47499e-08
0.000200014
-5.10521e-08
0.000200016
0.000199949
8.23123e-08
0.000199867
7.27437e-08
0.000200026
4.93734e-08
0.000200037
2.45267e-08
0.000200036
5.19923e-11
0.000200034
-2.44307e-08
0.000200034
-4.93007e-08
0.000200036
-7.27063e-08
0.000200037
-8.23043e-08
0.000200026
0.000199867
8.5057e-08
0.000199782
8.55971e-08
0.000200025
6.22465e-08
0.00020006
3.2076e-08
0.000200066
9.99289e-11
0.000200066
-3.18869e-08
0.000200066
-6.20858e-08
0.000200066
-8.54703e-08
0.000200061
-8.49834e-08
0.000200025
0.000199782
8.22268e-08
0.000199699
8.61139e-08
0.000200021
6.52069e-08
0.000200081
3.4517e-08
0.000200097
1.68156e-10
0.000200101
-3.4197e-08
0.000200101
-6.49329e-08
0.000200097
-8.59137e-08
0.000200081
-8.2117e-08
0.000200022
0.0001997
7.86096e-08
0.000199621
8.35834e-08
0.000200016
6.43946e-08
0.000200101
3.45053e-08
0.000200127
2.67042e-10
0.000200135
-3.39958e-08
0.000200135
-6.39566e-08
0.000200127
-8.32623e-08
0.000200101
-7.84366e-08
0.000200017
0.000199621
7.42399e-08
0.000199547
7.96048e-08
0.000200011
6.20555e-08
0.000200118
3.35065e-08
0.000200155
4.10737e-10
0.000200168
-3.27248e-08
0.000200168
-6.13891e-08
0.000200156
-7.91129e-08
0.000200119
-7.39723e-08
0.000200012
0.000199547
6.99613e-08
0.000199477
7.50912e-08
0.000200006
5.86693e-08
0.000200134
3.19118e-08
0.000200182
6.27726e-10
0.000200199
-3.07178e-08
0.0002002
-5.76526e-08
0.000200182
-7.43427e-08
0.000200135
-6.95522e-08
0.000200007
0.000199478
6.62142e-08
0.00019941
7.09396e-08
0.000200001
5.55013e-08
0.00020015
3.03761e-08
0.000200207
9.61263e-10
0.000200229
-2.85456e-08
0.000200229
-5.39366e-08
0.000200208
-6.97872e-08
0.000200151
-6.55829e-08
0.000200003
0.000199412
6.31233e-08
0.000199347
6.74742e-08
0.000199997
5.28843e-08
0.000200165
2.91988e-08
0.000200231
1.4694e-09
0.000200256
-2.63996e-08
0.000200257
-5.04893e-08
0.000200232
-6.57079e-08
0.000200166
-6.21532e-08
0.000199999
0.00019935
6.06869e-08
0.000199287
6.47857e-08
0.000199993
5.09465e-08
0.000200178
2.85156e-08
0.000200253
2.24013e-09
0.000200283
-2.42477e-08
0.000200283
-4.72945e-08
0.000200255
-6.20971e-08
0.000200181
-5.92106e-08
0.000199996
0.000199291
5.88713e-08
0.000199228
6.2899e-08
0.000199989
4.97826e-08
0.000200191
2.84553e-08
0.000200275
3.40651e-09
0.000200308
-2.19661e-08
0.000200309
-4.42338e-08
0.000200277
-5.88266e-08
0.000200196
-5.6639e-08
0.000199994
0.000199234
5.76797e-08
0.00019917
6.18803e-08
0.000199985
4.95106e-08
0.000200204
2.91874e-08
0.000200295
5.16602e-09
0.000200332
-1.9354e-08
0.000200333
-4.11164e-08
0.000200299
-5.57205e-08
0.00020021
-5.43081e-08
0.000199993
0.00019918
5.71871e-08
0.000199113
6.19089e-08
0.00019998
5.03651e-08
0.000200215
3.09962e-08
0.000200314
7.82653e-09
0.000200355
-1.61161e-08
0.000200357
-3.76896e-08
0.000200321
-5.25835e-08
0.000200225
-5.20961e-08
0.000199992
0.000199128
5.75395e-08
0.000199055
6.32516e-08
0.000199974
5.27664e-08
0.000200226
3.43675e-08
0.000200333
1.18786e-08
0.000200378
-1.18221e-08
0.000200381
-3.36385e-08
0.000200342
-4.92335e-08
0.000200241
-4.99145e-08
0.000199993
0.000199078
5.88602e-08
0.000198996
6.61488e-08
0.000199967
5.72451e-08
0.000200235
4.00439e-08
0.00020035
1.80841e-08
0.000200399
-5.83664e-09
0.000200405
-2.8567e-08
0.000200365
-4.55408e-08
0.000200258
-4.78113e-08
0.000199995
0.00019903
6.1663e-08
0.000198935
7.16265e-08
0.000199957
6.50126e-08
0.000200241
4.92807e-08
0.000200366
2.76762e-08
0.000200421
2.83052e-09
0.00020043
-2.196e-08
0.00020039
-4.15541e-08
0.000200277
-4.60858e-08
0.0002
0.000198984
6.66023e-08
0.000198868
8.08323e-08
0.000199943
7.76235e-08
0.000200245
6.39352e-08
0.000200379
4.25394e-08
0.000200442
1.58155e-08
0.000200456
-1.31207e-08
0.000200419
-3.80172e-08
0.000200302
-4.63547e-08
0.000200008
0.000198937
7.46251e-08
0.000198793
9.55738e-08
0.000199922
9.77685e-08
0.000200242
8.74286e-08
0.00020039
6.64861e-08
0.000200463
3.60921e-08
0.000200487
-1.3572e-09
0.000200456
-3.87062e-08
0.00020034
-5.50144e-08
0.000200024
0.000198882
8.70464e-08
0.000198706
1.18432e-07
0.00019989
1.2938e-07
0.000200231
1.25248e-07
0.000200394
1.0647e-07
0.000200482
7.2022e-08
0.000200521
2.24474e-08
0.000200506
-3.23052e-08
0.000200394
-6.76431e-08
0.00020006
0.000198815
1.05426e-07
0.000198601
1.52609e-07
0.000199843
1.77517e-07
0.000200207
1.8436e-07
0.000200387
1.71088e-07
0.000200495
1.32091e-07
0.00020056
5.40961e-08
0.000200584
-7.18911e-08
0.00020052
-2.4957e-07
0.000200237
0.000198565
1.34675e-07
0.000198466
2.07381e-07
0.00019977
2.56283e-07
0.000200158
2.86031e-07
0.000200357
2.95628e-07
0.000200486
2.83072e-07
0.000200573
2.48505e-07
0.000200618
1.9737e-07
0.000200571
4.82422e-07
0.000199952
0.000193761
5.28674e-06
1.71247e-07
0.000198295
2.78272e-07
0.000199663
3.61391e-07
0.000200075
4.26381e-07
0.000200292
4.74085e-07
0.000200438
5.09553e-07
0.000200537
5.58801e-07
0.000200569
6.91415e-07
0.000200439
1.05836e-06
0.000199585
0.000191415
3.40438e-06
2.17542e-07
0.000198078
3.68414e-07
0.000199513
4.9528e-07
0.000199948
6.05184e-07
0.000200182
7.00768e-07
0.000200343
7.88669e-07
0.000200449
8.93695e-07
0.000200464
1.12735e-06
0.000200205
1.87027e-06
0.000198842
0.000188005
5.28054e-06
2.73626e-07
0.000197804
4.77851e-07
0.000199308
6.57606e-07
0.000199768
8.21227e-07
0.000200019
9.7384e-07
0.00020019
1.12773e-06
0.000200296
1.32367e-06
0.000200268
1.70815e-06
0.000199821
2.78675e-06
0.000197764
0.000184262
6.52907e-06
3.40142e-07
0.000197464
6.07664e-07
0.000199041
8.49858e-07
0.000199526
1.07634e-06
0.000199792
1.29484e-06
0.000199971
1.52402e-06
0.000200066
1.81726e-06
0.000199975
2.33951e-06
0.000199298
3.63738e-06
0.000196466
0.000180551
7.34838e-06
4.18262e-07
0.000197046
7.59838e-07
0.000198699
1.07458e-06
0.000199211
1.37312e-06
0.000199494
1.66513e-06
0.000199679
1.9741e-06
0.000199757
2.36405e-06
0.000199585
3.02348e-06
0.000198639
4.55611e-06
0.000194933
0.000177022
8.08524e-06
5.09772e-07
0.000196536
9.37593e-07
0.000198271
1.33646e-06
0.000198812
1.71774e-06
0.000199112
2.0926e-06
0.000199305
2.48864e-06
0.000199361
2.97808e-06
0.000199096
3.75742e-06
0.00019786
5.41962e-06
0.000193271
0.000173814
8.62736e-06
6.17091e-07
0.000195919
1.14577e-06
0.000197743
1.64322e-06
0.000198315
2.12118e-06
0.000198634
2.59245e-06
0.000198833
3.08862e-06
0.000198865
3.69007e-06
0.000198494
4.59853e-06
0.000196951
6.35952e-06
0.00019151
0.0001709
9.27348e-06
7.45292e-07
0.000195173
1.39073e-06
0.000197097
2.00443e-06
0.000197701
2.59688e-06
0.000198042
3.18293e-06
0.000198247
3.79845e-06
0.00019825
4.53282e-06
0.00019776
5.59873e-06
0.000195885
7.48475e-06
0.000189624
0.000168293
1.00927e-05
8.95052e-07
0.000194278
1.68043e-06
0.000196312
2.43025e-06
0.000196951
3.15771e-06
0.000197315
3.87893e-06
0.000197526
4.63301e-06
0.000197496
5.5138e-06
0.000196879
6.733e-06
0.000194666
8.70712e-06
0.00018765
0.000166038
1.09615e-05
1.06874e-06
0.00019321
2.0218e-06
0.000195359
2.9315e-06
0.000196041
3.81661e-06
0.000196429
4.69434e-06
0.000196648
5.6053e-06
0.000196585
6.64308e-06
0.000195841
8.00754e-06
0.000193302
1.00202e-05
0.000185637
0.000164176
1.18824e-05
1.27411e-06
0.000191935
2.4212e-06
0.000194212
3.51909e-06
0.000194944
4.58848e-06
0.00019536
5.64747e-06
0.000195589
6.73672e-06
0.000195495
7.94642e-06
0.000194632
9.45779e-06
0.00019179
1.14625e-05
0.000183633
0.000162681
1.29578e-05
1.51488e-06
0.000190421
2.88801e-06
0.000192839
4.2062e-06
0.000193625
5.49122e-06
0.000194075
6.76113e-06
0.000194319
8.05467e-06
0.000194202
9.45414e-06
0.000193232
1.1106e-05
0.000190138
1.30608e-05
0.000181678
0.000161501
1.42406e-05
1.7954e-06
0.000188625
3.43239e-06
0.000191202
5.00777e-06
0.00019205
6.54486e-06
0.000192538
8.06078e-06
0.000192803
9.59001e-06
0.000192673
1.1201e-05
0.000191621
1.29916e-05
0.000188348
1.48875e-05
0.000179782
0.000160587
1.58011e-05
2.12056e-06
0.000186505
4.06438e-06
0.000189258
5.93905e-06
0.000190175
7.77009e-06
0.000190707
9.57301e-06
0.000191001
1.13759e-05
0.00019087
1.32281e-05
0.000189769
1.51731e-05
0.000186403
1.703e-05
0.000177925
0.000159879
1.77381e-05
2.49461e-06
0.00018401
4.79307e-06
0.000186959
7.0143e-06
0.000187954
9.18661e-06
0.000188535
1.13237e-05
0.000188863
1.34456e-05
0.000188748
1.55794e-05
0.000187635
1.77133e-05
0.000184269
1.95776e-05
0.000176061
0.000159299
2.01574e-05
2.92038e-06
0.00018109
5.62637e-06
0.000184253
8.24572e-06
0.000185335
1.08112e-05
0.000185969
1.33352e-05
0.00018634
1.58287e-05
0.000186254
1.82949e-05
0.000185169
2.06699e-05
0.000181894
2.26127e-05
0.000174118
0.00015875
2.31617e-05
3.39398e-06
0.000177696
6.56802e-06
0.000181079
9.64146e-06
0.000182261
1.26556e-05
0.000182955
1.56228e-05
0.000183372
1.85457e-05
0.000183331
2.14045e-05
0.00018231
2.40884e-05
0.00017921
2.62033e-05
0.000172003
0.000158112
2.68412e-05
3.76961e-06
0.000173926
7.30076e-06
0.000177548
1.07297e-05
0.000178832
1.40985e-05
0.000179586
1.74188e-05
0.000180052
2.06863e-05
0.000180064
2.38625e-05
0.000179134
2.68047e-05
0.000176268
2.91011e-05
0.000169707
0.000157285
2.99284e-05
4.33231e-06
0.000169594
8.38016e-06
0.0001735
1.23212e-05
0.000174891
1.62007e-05
0.000175707
2.00311e-05
0.000176222
2.38026e-05
0.000176292
2.74614e-05
0.000175475
3.08385e-05
0.000172891
3.35052e-05
0.00016704
0.000156106
3.46839e-05
4.94213e-06
0.000164652
9.55652e-06
0.000168886
1.40534e-05
0.000170394
1.84864e-05
0.000171274
2.28707e-05
0.000171837
2.7194e-05
0.000171969
3.13918e-05
0.000171277
3.52797e-05
0.000169003
3.84282e-05
0.000163891
0.000154429
4.01059e-05
5.59698e-06
0.000159055
1.08196e-05
0.000163663
1.5911e-05
0.000165303
2.0934e-05
0.000166251
2.59087e-05
0.000166863
3.08228e-05
0.000167055
3.56077e-05
0.000166492
4.00746e-05
0.000164536
4.38089e-05
0.000160157
0.000152108
4.61293e-05
6.29473e-06
0.00015276
1.2161e-05
0.000157797
1.78774e-05
0.000159587
2.35177e-05
0.00016061
2.91081e-05
0.000161272
3.46399e-05
0.000161523
4.00463e-05
0.000161086
4.51454e-05
0.000159437
4.95513e-05
0.000155751
0.000149019
5.26404e-05
7.03238e-06
0.000145728
1.35718e-05
0.000151258
1.99347e-05
0.000153224
2.6208e-05
0.000154337
3.2426e-05
0.000155054
3.85867e-05
0.000155362
4.4631e-05
0.000155042
5.0393e-05
0.000153675
5.55281e-05
0.000150616
0.000145068
5.94797e-05
7.80745e-06
0.00013792
1.50432e-05
0.000144022
2.20646e-05
0.000146202
2.89742e-05
0.000147427
3.58167e-05
0.000148212
4.25997e-05
0.000148579
4.92764e-05
0.000148365
5.57052e-05
0.000147246
6.15907e-05
0.000144731
0.000140206
6.64526e-05
8.61912e-06
0.000129301
1.65689e-05
0.000136072
2.42507e-05
0.000138521
3.17872e-05
0.000139891
3.92353e-05
0.000140764
4.66153e-05
0.000141199
5.38966e-05
0.000141084
6.09664e-05
0.000140176
6.75835e-05
0.000138113
0.00013444
7.33496e-05
9.46938e-06
0.000119832
1.81468e-05
0.000127395
2.64813e-05
0.000130186
3.46218e-05
0.000131751
4.26412e-05
0.000132744
5.05748e-05
0.000133266
5.84112e-05
0.000133247
6.60685e-05
0.000132519
7.33604e-05
0.000130821
0.00012783
7.99706e-05
1.03642e-05
0.000109467
1.97804e-05
0.000117978
2.87499e-05
0.000121217
3.74578e-05
0.000123043
4.59989e-05
0.000124203
5.44266e-05
0.000124838
6.27503e-05
0.000124924
7.09192e-05
0.00012435
7.87981e-05
0.000122943
0.00012048
8.61478e-05
1.1314e-05
9.81534e-05
2.14791e-05
0.000107813
3.10541e-05
0.000111642
4.02778e-05
0.000113819
4.92763e-05
0.000115205
5.81249e-05
0.000115989
6.68548e-05
0.000116194
7.54444e-05
0.00011576
8.38035e-05
0.000114584
0.000112523
9.17599e-05
1.2335e-05
8.58184e-05
2.32545e-05
9.68939e-05
3.33903e-05
0.000101506
4.30611e-05
0.000104148
5.24379e-05
0.000105828
6.16233e-05
0.000106804
7.06709e-05
0.000107146
7.95847e-05
0.000106847
8.83117e-05
0.000105856
0.000104101
9.67339e-05
1.34477e-05
7.23707e-05
2.51124e-05
8.52292e-05
3.57409e-05
9.08771e-05
4.57698e-05
9.41192e-05
5.54315e-05
9.6166e-05
6.4862e-05
9.73736e-05
7.41374e-05
9.78707e-05
8.32831e-05
9.77009e-05
9.22739e-05
9.68657e-05
9.53433e-05
0.000101032
1.46887e-05
5.76819e-05
2.70135e-05
7.29044e-05
3.80429e-05
7.98477e-05
4.83264e-05
8.38357e-05
5.81689e-05
8.63236e-05
6.77498e-05
8.77927e-05
7.71688e-05
8.84518e-05
8.64668e-05
8.84029e-05
9.56367e-05
8.76957e-05
8.63532e-05
0.000104627
1.60686e-05
4.16133e-05
2.88501e-05
6.0123e-05
4.013e-05
6.85678e-05
5.05513e-05
7.34144e-05
6.04781e-05
7.63968e-05
7.01301e-05
7.81407e-05
7.96275e-05
7.89543e-05
8.9022e-05
7.90084e-05
9.83158e-05
7.8402e-05
7.71972e-05
0.000107472
1.65992e-05
2.50142e-05
3.02698e-05
4.64523e-05
4.17775e-05
5.70601e-05
5.21996e-05
6.29923e-05
6.21022e-05
6.64942e-05
7.17581e-05
6.84848e-05
8.12954e-05
6.9417e-05
9.07643e-05
6.95395e-05
0.000100167
6.89997e-05
6.78945e-05
0.000109469
1.45744e-05
1.04398e-05
2.95416e-05
3.1485e-05
4.19046e-05
4.46971e-05
5.26189e-05
5.2278e-05
6.2579e-05
5.65341e-05
7.22531e-05
5.88108e-05
8.18417e-05
5.98284e-05
9.141e-05
5.99712e-05
0.000100955
5.94545e-05
5.84116e-05
0.000110438
1.01203e-05
3.1946e-07
2.49493e-05
1.66561e-05
3.84889e-05
3.11575e-05
5.02236e-05
4.05433e-05
6.08079e-05
4.59497e-05
7.08434e-05
4.87753e-05
8.06892e-05
4.99826e-05
9.04993e-05
5.01611e-05
0.000100302
4.96515e-05
4.86495e-05
0.000110064
5.99953e-06
-5.68007e-06
1.7575e-05
5.08065e-06
3.07117e-05
1.80208e-05
4.33305e-05
2.79245e-05
5.50501e-05
3.42301e-05
6.6072e-05
3.77534e-05
7.6704e-05
3.93506e-05
8.71522e-05
3.97129e-05
9.75063e-05
3.92975e-05
3.83806e-05
0.000107775
2.82789e-06
-8.50796e-06
9.52488e-06
-1.61634e-06
1.979e-05
7.75575e-06
3.1651e-05
1.60635e-05
4.3941e-05
2.19401e-05
5.61418e-05
2.55526e-05
6.80883e-05
2.74041e-05
7.97505e-05
2.80508e-05
9.11744e-05
2.78735e-05
2.71555e-05
0.0001024
-1.56823e-06
-6.93973e-06
6.64305e-07
-3.84887e-06
7.0177e-06
1.40236e-06
1.65139e-05
6.56723e-06
2.80859e-05
1.03681e-05
4.08626e-05
1.2776e-05
5.40937e-05
1.4173e-05
6.72312e-05
1.49133e-05
8.01609e-05
1.49438e-05
1.44669e-05
9.28495e-05
-6.93973e-06
-1.07886e-05
-9.38624e-06
-2.819e-06
7.54911e-06
2.03251e-05
3.44981e-05
4.94113e-05
6.43551e-05
7.8822e-05
-2.90905e-05
3.43772e-05
-2.84246e-05
-6.65907e-07
-2.51959e-05
-3.22863e-06
-2.1192e-05
-4.00389e-06
-1.65897e-05
-4.60235e-06
-1.1609e-05
-4.98073e-06
-6.50739e-06
-5.10157e-06
-1.48932e-06
-5.01806e-06
3.39215e-06
-4.88147e-06
8.11887e-06
-4.72672e-06
1.26e-05
-4.48116e-06
1.66732e-05
-4.07319e-06
2.01323e-05
-3.45904e-06
2.28826e-05
-2.75038e-06
2.48748e-05
-1.99213e-06
2.60703e-05
-1.19554e-06
2.64257e-05
-3.55421e-07
2.58369e-05
5.88833e-07
2.42234e-05
1.61346e-06
2.15218e-05
2.70161e-06
1.77099e-05
3.81192e-06
1.28853e-05
4.82457e-06
7.53201e-06
5.35333e-06
2.72127e-06
4.81074e-06
2.72127e-06
-1.42594e-05
5.2041e-05
-2.02523e-05
5.327e-06
-2.02221e-05
-3.25888e-06
-1.8287e-05
-5.93896e-06
-1.53701e-05
-7.51929e-06
-1.1812e-05
-8.53883e-06
-7.81307e-06
-9.10047e-06
-3.5407e-06
-9.29043e-06
7.60424e-07
-9.18259e-06
4.84583e-06
-8.81212e-06
8.57153e-06
-8.20687e-06
1.18683e-05
-7.36997e-06
1.47168e-05
-6.30747e-06
1.70527e-05
-5.08632e-06
1.88209e-05
-3.76035e-06
1.99841e-05
-2.35874e-06
2.05186e-05
-8.89868e-07
2.04479e-05
6.59533e-07
1.97593e-05
2.30203e-06
1.84163e-05
4.04457e-06
1.63607e-05
5.86759e-06
1.35134e-05
7.67186e-06
9.73961e-06
9.1271e-06
5.10526e-06
9.44509e-06
7.82653e-06
-8.45347e-06
6.5775e-05
-1.57158e-05
1.25893e-05
-1.75139e-05
-1.46079e-06
-1.68366e-05
-6.61624e-06
-1.48647e-05
-9.49118e-06
-1.20894e-05
-1.13141e-05
-8.79703e-06
-1.23929e-05
-5.21625e-06
-1.28712e-05
-1.55643e-06
-1.28424e-05
2.00184e-06
-1.23704e-05
5.30808e-06
-1.15131e-05
8.2594e-06
-1.03213e-05
1.07989e-05
-8.84697e-06
1.28723e-05
-7.15977e-06
1.44376e-05
-5.32557e-06
1.54714e-05
-3.39254e-06
1.59697e-05
-1.38816e-06
1.59489e-05
6.80265e-07
1.54305e-05
2.82043e-06
1.4432e-05
5.0431e-06
1.29551e-05
7.34451e-06
1.09616e-05
9.66534e-06
8.31503e-06
1.17737e-05
4.75758e-06
1.30025e-05
1.25841e-05
-5.79445e-06
7.80985e-05
-1.41078e-05
2.09027e-05
-1.69682e-05
1.3996e-06
-1.69892e-05
-6.59524e-06
-1.55187e-05
-1.09617e-05
-1.31891e-05
-1.36437e-05
-1.03277e-05
-1.52543e-05
-7.16592e-06
-1.6033e-05
-3.89092e-06
-1.61174e-05
-6.60689e-07
-1.56006e-05
2.38499e-06
-1.45588e-05
5.13093e-06
-1.30672e-05
7.49339e-06
-1.12094e-05
9.41202e-06
-9.0784e-06
1.08515e-05
-6.76508e-06
1.18023e-05
-4.3433e-06
1.22758e-05
-1.86167e-06
1.22982e-05
6.5785e-07
1.19026e-05
3.21606e-06
1.112e-05
5.82565e-06
9.97254e-06
8.49201e-06
8.45762e-06
1.11803e-05
6.50444e-06
1.37269e-05
3.86073e-06
1.56463e-05
1.64448e-05
-2.91541e-06
8.83623e-05
-1.25751e-05
3.05623e-05
-1.67504e-05
5.57492e-06
-1.75883e-05
-5.75729e-06
-1.66472e-05
-1.19028e-05
-1.47233e-05
-1.55676e-05
-1.2224e-05
-1.77535e-05
-9.39313e-06
-1.88639e-05
-6.40373e-06
-1.91068e-05
-3.40426e-06
-1.86001e-05
-5.30746e-07
-1.74323e-05
2.09356e-06
-1.56915e-05
4.36674e-06
-1.34826e-05
6.2171e-06
-1.09288e-05
7.60849e-06
-8.15647e-06
8.53967e-06
-5.27448e-06
9.03516e-06
-2.35715e-06
9.13334e-06
5.59662e-07
8.87625e-06
3.47316e-06
8.30229e-06
6.39961e-06
7.44025e-06
9.35405e-06
6.29936e-06
1.23211e-05
4.83542e-06
1.51908e-05
2.82943e-06
1.76523e-05
1.92743e-05
-1.64381e-08
9.6464e-05
-9.9517e-06
4.04976e-05
-1.55428e-05
1.1166e-05
-1.75461e-05
-3.75401e-06
-1.74358e-05
-1.20131e-05
-1.61175e-05
-1.68859e-05
-1.41046e-05
-1.97664e-05
-1.1675e-05
-2.12935e-05
-9.00383e-06
-2.1778e-05
-6.23697e-06
-2.1367e-05
-3.5136e-06
-2.01557e-05
-9.68803e-07
-1.82363e-05
1.27584e-06
-1.57273e-05
3.12886e-06
-1.27818e-05
4.54292e-06
-9.57054e-06
5.51704e-06
-6.2486e-06
6.08419e-06
-2.92429e-06
6.2939e-06
3.49946e-07
6.19766e-06
3.5694e-06
5.84008e-06
6.75719e-06
5.25374e-06
9.94039e-06
4.4522e-06
1.31227e-05
3.40667e-06
1.62363e-05
1.97092e-06
1.9088e-05
2.12452e-05
2.40773e-06
0.000102684
-6.73322e-06
4.96385e-05
-1.32179e-05
1.76507e-05
-1.64688e-05
-5.03113e-07
-1.74569e-05
-1.10249e-05
-1.70265e-05
-1.73163e-05
-1.57156e-05
-2.10773e-05
-1.38322e-05
-2.31769e-05
-1.15801e-05
-2.40301e-05
-9.11024e-06
-2.38368e-05
-6.56434e-06
-2.27016e-05
-4.09143e-06
-2.07092e-05
-1.83776e-06
-1.79809e-05
7.66623e-08
-1.46962e-05
1.5802e-06
-1.10741e-05
2.6597e-06
-7.3281e-06
3.34942e-06
-3.61401e-06
3.70775e-06
-8.38187e-09
3.79587e-06
3.48128e-06
3.6658e-06
6.88727e-06
3.3552e-06
1.0251e-05
2.88267e-06
1.35952e-05
2.23162e-06
1.68874e-05
1.30746e-06
2.00122e-05
2.25526e-05
4.44628e-06
0.000107511
-3.65909e-06
5.77439e-05
-1.04429e-05
2.44345e-05
-1.47247e-05
3.77867e-06
-1.68429e-05
-8.90668e-06
-1.74422e-05
-1.67171e-05
-1.6982e-05
-2.15375e-05
-1.57845e-05
-2.43744e-05
-1.40758e-05
-2.57388e-05
-1.20015e-05
-2.59111e-05
-9.69555e-06
-2.50075e-05
-7.31336e-06
-2.30914e-05
-5.02789e-06
-2.02664e-05
-2.99845e-06
-1.67256e-05
-1.33619e-06
-1.27363e-05
-8.37928e-08
-8.58049e-06
7.82638e-07
-4.48044e-06
1.32695e-06
-5.5269e-07
1.62171e-06
3.18651e-06
1.72877e-06
6.78021e-06
1.69244e-06
1.02873e-05
1.53674e-06
1.37509e-05
1.25392e-06
1.71702e-05
7.76835e-07
2.04893e-05
2.33295e-05
6.22652e-06
0.000111377
-9.49643e-07
6.49201e-05
-7.70397e-06
3.11888e-05
-1.26762e-05
8.75087e-06
-1.57834e-05
-5.79942e-06
-1.7382e-05
-1.51185e-05
-1.78604e-05
-2.10591e-05
-1.74996e-05
-2.47352e-05
-1.6473e-05
-2.67653e-05
-1.49165e-05
-2.74677e-05
-1.29434e-05
-2.69805e-05
-1.06994e-05
-2.53355e-05
-8.37578e-06
-2.259e-05
-6.17845e-06
-1.8923e-05
-4.27848e-06
-1.46363e-05
-2.7718e-06
-1.00872e-05
-1.66416e-06
-5.58809e-06
-8.93046e-07
-1.3238e-06
-3.70597e-07
2.66406e-06
-1.96758e-08
6.42929e-06
2.13669e-07
1.0054e-05
3.58951e-07
1.36056e-05
4.14028e-07
1.71151e-05
3.27933e-07
2.05754e-05
2.36574e-05
7.82025e-06
0.000114518
1.44693e-06
7.12934e-05
-5.14796e-06
3.77837e-05
-1.05775e-05
1.41804e-05
-1.45044e-05
-1.87245e-06
-1.70521e-05
-1.25709e-05
-1.84912e-05
-1.96201e-05
-1.90272e-05
-2.41992e-05
-1.87845e-05
-2.7008e-05
-1.78682e-05
-2.83841e-05
-1.63523e-05
-2.84964e-05
-1.4332e-05
-2.73558e-05
-1.19956e-05
-2.49264e-05
-9.58901e-06
-2.13296e-05
-7.35967e-06
-1.68656e-05
-5.49132e-06
-1.19555e-05
-4.05463e-06
-7.02478e-06
-3.00273e-06
-2.3757e-06
-2.22668e-06
1.88801e-06
-1.62427e-06
5.82688e-06
-1.12583e-06
9.55555e-06
-6.94605e-07
1.31744e-05
-3.2982e-07
1.67504e-05
-7.69715e-08
2.03225e-05
2.35804e-05
9.26854e-06
0.000117132
3.57562e-06
7.69863e-05
-2.80433e-06
4.41637e-05
-8.53135e-06
1.99074e-05
-1.31276e-05
2.72377e-06
-1.65458e-05
-9.15265e-06
-1.89203e-05
-1.72456e-05
-2.03916e-05
-2.27279e-05
-2.10276e-05
-2.6372e-05
-2.08481e-05
-2.85635e-05
-1.99322e-05
-2.94123e-05
-1.82788e-05
-2.90092e-05
-1.60173e-05
-2.71878e-05
-1.34046e-05
-2.39424e-05
-1.07604e-05
-1.95098e-05
-8.38962e-06
-1.43263e-05
-6.48911e-06
-8.92529e-06
-5.07009e-06
-3.79473e-06
-3.99817e-06
8.16096e-07
-3.12856e-06
4.95727e-06
-2.36387e-06
8.79086e-06
-1.65507e-06
1.24656e-05
-1.00021e-06
1.60955e-05
-4.46196e-07
1.97685e-05
2.31343e-05
1.06886e-05
0.000119401
5.52215e-06
8.21527e-05
-6.4594e-07
5.03317e-05
-6.57181e-06
2.58333e-05
-1.17058e-05
7.85773e-06
-1.58852e-05
-4.97319e-06
-1.91374e-05
-1.39934e-05
-2.15363e-05
-2.03289e-05
-2.31154e-05
-2.4793e-05
-2.38268e-05
-2.78521e-05
-2.3626e-05
-2.96131e-05
-2.25315e-05
-3.01037e-05
-2.05309e-05
-2.91884e-05
-1.78189e-05
-2.66543e-05
-1.4739e-05
-2.25897e-05
-1.1717e-05
-1.73482e-05
-9.144e-06
-1.14983e-05
-7.19705e-06
-5.74168e-06
-5.74295e-06
-6.3801e-07
-4.5674e-06
3.78172e-06
-3.52579e-06
7.74925e-06
-2.54324e-06
1.1483e-05
-1.61562e-06
1.51679e-05
-7.93278e-07
1.89461e-05
2.2341e-05
1.21735e-05
0.000121468
7.39581e-06
8.69305e-05
1.41091e-06
5.63167e-05
-4.65334e-06
3.18975e-05
-1.0216e-05
1.34204e-05
-1.50405e-05
-1.48754e-07
-1.90713e-05
-9.96251e-06
-2.23296e-05
-1.70707e-05
-2.48251e-05
-2.22975e-05
-2.651e-05
-2.61673e-05
-2.72216e-05
-2.89015e-05
-2.68965e-05
-3.04288e-05
-2.54741e-05
-3.06108e-05
-2.29405e-05
-2.9188e-05
-1.95704e-05
-2.59598e-05
-1.58297e-05
-2.1089e-05
-1.22952e-05
-1.50328e-05
-9.48776e-06
-8.54907e-06
-7.45678e-06
-2.669e-06
-5.89675e-06
2.2217e-06
-4.56495e-06
6.41745e-06
-3.32901e-06
1.02471e-05
-2.15733e-06
1.39962e-05
-1.08917e-06
1.7878e-05
2.12518e-05
1.38401e-05
0.000123429
9.34002e-06
9.14306e-05
3.50207e-06
6.21546e-05
-2.6624e-06
3.8062e-05
-8.56274e-06
1.93208e-05
-1.39147e-05
5.20324e-06
-1.86116e-05
-5.26561e-06
-2.26347e-05
-1.30476e-05
-2.59754e-05
-1.89568e-05
-2.8583e-05
-2.35596e-05
-3.03369e-05
-2.71475e-05
-3.10237e-05
-2.9742e-05
-3.05071e-05
-3.11274e-05
-2.86351e-05
-3.106e-05
-2.53947e-05
-2.92002e-05
-2.11399e-05
-2.53438e-05
-1.64851e-05
-1.96876e-05
-1.23075e-05
-1.27267e-05
-9.26142e-06
-5.71508e-06
-7.13226e-06
9.25427e-08
-5.45801e-06
4.7432e-06
-3.98203e-06
8.77112e-06
-2.6044e-06
1.26186e-05
-1.32915e-06
1.66027e-05
1.99227e-05
1.58323e-05
0.000125335
1.15294e-05
9.57335e-05
5.8068e-06
6.78772e-05
-4.29458e-07
4.42983e-05
-6.59191e-06
2.54832e-05
-1.23647e-05
1.09761e-05
-1.76112e-05
-1.91551e-08
-2.22854e-05
-8.37345e-06
-2.63758e-05
-1.48663e-05
-2.98469e-05
-2.00885e-05
-3.25972e-05
-2.43973e-05
-3.44402e-05
-2.7899e-05
-3.51063e-05
-3.04613e-05
-3.43695e-05
-3.17968e-05
-3.19794e-05
-3.15902e-05
-2.78996e-05
-2.94236e-05
-2.25302e-05
-2.5057e-05
-1.66898e-05
-1.85671e-05
-1.18009e-05
-1.0604e-05
-8.51596e-06
-3.19235e-06
-6.29001e-06
2.51725e-06
-4.52288e-06
7.00399e-06
-2.94416e-06
1.10399e-05
-1.48232e-06
1.51409e-05
1.84403e-05
1.82984e-05
0.000127194
1.4149e-05
9.98829e-05
8.5238e-06
7.35024e-05
2.24389e-06
5.05782e-05
-4.113e-06
3.18401e-05
-1.02102e-05
1.70733e-05
-1.58845e-05
5.65518e-06
-2.10798e-05
-3.1782e-06
-2.57873e-05
-1.01588e-05
-2.99959e-05
-1.58798e-05
-3.36463e-05
-2.07469e-05
-3.65954e-05
-2.49499e-05
-3.85941e-05
-2.84626e-05
-3.93162e-05
-3.10748e-05
-3.84309e-05
-3.24755e-05
-3.55877e-05
-3.22669e-05
-3.0652e-05
-2.99926e-05
-2.39141e-05
-2.53051e-05
-1.6689e-05
-1.7829e-05
-1.09559e-05
-8.92551e-06
-7.34688e-06
-1.09175e-06
-5.01023e-06
4.66734e-06
-3.17157e-06
9.2012e-06
-1.48807e-06
1.34574e-05
1.69523e-05
2.13824e-05
0.000128973
1.73842e-05
0.000103881
1.18627e-05
7.90238e-05
5.57453e-06
5.68664e-05
-9.14003e-07
3.83286e-05
-7.24781e-06
2.34071e-05
-1.32401e-05
1.16474e-05
-1.88255e-05
2.40725e-06
-2.39996e-05
-4.98471e-06
-2.87758e-05
-1.11037e-05
-3.31422e-05
-1.63806e-05
-3.70225e-05
-2.10695e-05
-4.02466e-05
-2.52385e-05
-4.25279e-05
-2.87935e-05
-4.34925e-05
-3.1511e-05
-4.26988e-05
-3.30605e-05
-3.96949e-05
-3.29966e-05
-3.40551e-05
-3.09448e-05
-2.58645e-05
-2.60196e-05
-1.69786e-05
-1.78114e-05
-9.96188e-06
-8.10843e-06
-5.73702e-06
4.42482e-07
-3.17187e-06
6.63604e-06
-1.15314e-06
1.14387e-05
1.57991e-05
2.52148e-05
0.0001306
2.14079e-05
0.000107688
1.60249e-05
8.44067e-05
9.77421e-06
6.31171e-05
3.21657e-06
4.48863e-05
-3.27555e-06
2.98992e-05
-9.49269e-06
1.78646e-05
-1.53513e-05
8.26583e-06
-2.08504e-05
5.1437e-07
-2.60212e-05
-5.93278e-06
-3.08928e-05
-1.1509e-05
-3.54547e-05
-1.65077e-05
-3.96265e-05
-2.10667e-05
-4.32338e-05
-2.51861e-05
-4.59926e-05
-2.87522e-05
-4.75048e-05
-3.15483e-05
-4.72492e-05
-3.32523e-05
-4.45886e-05
-3.36054e-05
-3.86544e-05
-3.19538e-05
-2.93977e-05
-2.70681e-05
-1.856e-05
-1.89461e-05
-9.31207e-06
-8.80549e-06
-3.26033e-06
5.84307e-07
9.5708e-08
8.08262e-06
1.58948e-05
2.86152e-05
0.000131913
2.52189e-05
0.000111084
2.02463e-05
8.93793e-05
1.43414e-05
6.9022e-05
8.04415e-06
5.11835e-05
1.72952e-06
3.62138e-05
-4.37765e-06
2.39717e-05
-1.01758e-05
1.4064e-05
-1.56554e-05
5.99395e-06
-2.0857e-05
-7.31112e-07
-2.5834e-05
-6.53195e-06
-3.06235e-05
-1.17182e-05
-3.52195e-05
-1.64706e-05
-3.95552e-05
-2.08504e-05
-4.34844e-05
-2.4823e-05
-4.67544e-05
-2.82782e-05
-4.89774e-05
-3.10293e-05
-4.98078e-05
-3.2775e-05
-4.84504e-05
-3.33113e-05
-4.3521e-05
-3.19975e-05
-3.48665e-05
-2.76006e-05
-2.324e-05
-2.0432e-05
-1.11448e-05
-1.15109e-05
2.50454e-09
-3.06468e-06
3.68613e-06
1.22112e-05
3.37434e-05
0.000132854
3.07146e-05
0.000114113
2.60327e-05
9.40612e-05
2.03073e-05
7.47475e-05
1.40829e-05
5.74078e-05
7.75605e-06
4.25407e-05
1.57632e-06
3.01515e-05
-4.32921e-06
1.99695e-05
-9.93079e-06
1.15955e-05
-1.52647e-05
4.6028e-06
-2.03989e-05
-1.39774e-06
-2.54011e-05
-6.71608e-06
-3.03143e-05
-1.15574e-05
-3.5143e-05
-1.60218e-05
-3.9847e-05
-2.0119e-05
-4.4337e-05
-2.37882e-05
-4.84491e-05
-2.69172e-05
-5.18705e-05
-2.93536e-05
-5.42961e-05
-3.08857e-05
-5.50331e-05
-3.12605e-05
-5.32238e-05
-2.94099e-05
-4.83483e-05
-2.53075e-05
-4.07747e-05
-1.90845e-05
-3.29928e-05
-1.08466e-05
-1.20537e-07
-2.91861e-05
3.96889e-05
0.000133271
3.71751e-05
0.000116627
3.29188e-05
9.83175e-05
2.74888e-05
8.01774e-05
2.14326e-05
6.34641e-05
1.51716e-05
4.88016e-05
8.98489e-06
3.63382e-05
3.02767e-06
2.59267e-05
-2.64388e-06
1.72671e-05
-8.04673e-06
1.00057e-05
-1.32461e-05
3.80167e-06
-1.83239e-05
-1.63828e-06
-2.33506e-05
-6.5307e-06
-2.837e-05
-1.10024e-05
-3.33999e-05
-1.5089e-05
-3.84439e-05
-1.87442e-05
-4.3498e-05
-2.18631e-05
-4.85368e-05
-2.43148e-05
-5.3482e-05
-2.59406e-05
-5.8229e-05
-2.65134e-05
-6.204e-05
-2.55989e-05
-6.46108e-05
-2.27367e-05
-6.63117e-05
-1.73836e-05
-6.75447e-05
-9.61368e-06
-9.09009e-08
-6.75743e-05
4.63974e-05
0.000133002
4.4574e-05
0.00011845
4.09168e-05
0.000101975
3.59384e-05
8.51558e-05
3.01802e-05
6.92223e-05
2.40878e-05
5.4894e-05
1.79746e-05
4.24514e-05
1.20287e-05
3.18726e-05
6.33646e-06
2.29593e-05
9.07017e-07
1.54351e-05
-4.30413e-06
9.01282e-06
-9.37206e-06
3.42965e-06
-1.43737e-05
-1.52906e-06
-1.93633e-05
-6.01282e-06
-2.43669e-05
-1.00855e-05
-2.93972e-05
-1.37139e-05
-3.44794e-05
-1.67809e-05
-3.96548e-05
-1.91394e-05
-4.49671e-05
-2.06282e-05
-5.04263e-05
-2.10542e-05
-5.58126e-05
-2.02126e-05
-6.05838e-05
-1.79655e-05
-6.39752e-05
-1.39922e-05
-6.52526e-05
-8.33631e-06
-1.40707e-06
-6.39364e-05
5.37506e-05
0.000131892
5.28075e-05
0.000119393
4.99556e-05
0.000104827
4.56276e-05
8.94838e-05
4.03411e-05
7.45089e-05
3.45586e-05
6.06765e-05
2.8629e-05
4.83811e-05
2.27791e-05
3.77225e-05
1.71298e-05
2.86087e-05
1.17194e-05
2.08455e-05
6.52999e-06
1.42023e-05
1.5084e-06
8.45124e-06
-3.41014e-06
3.38948e-06
-8.27525e-06
-1.14771e-06
-1.30971e-05
-5.26363e-06
-1.78584e-05
-8.95258e-06
-2.25526e-05
-1.20867e-05
-2.71751e-05
-1.45168e-05
-3.17268e-05
-1.60766e-05
-3.6171e-05
-1.661e-05
-4.03404e-05
-1.60432e-05
-4.39361e-05
-1.43698e-05
-4.6357e-05
-1.15713e-05
-4.68936e-05
-7.79968e-06
-3.29744e-06
-4.50033e-05
6.15639e-05
0.000129808
6.16832e-05
0.000119274
5.98598e-05
0.00010665
5.64189e-05
9.29248e-05
5.18264e-05
7.91014e-05
4.6545e-05
6.59579e-05
4.09532e-05
5.39728e-05
3.53193e-05
4.33564e-05
2.98052e-05
3.41227e-05
2.44852e-05
2.61655e-05
1.93689e-05
1.93185e-05
1.44249e-05
1.33952e-05
9.60453e-06
8.20984e-06
4.87051e-06
3.58632e-06
2.31895e-07
-6.25025e-07
-4.28598e-06
-4.4347e-06
-8.67603e-06
-7.6967e-06
-1.29213e-05
-1.02716e-05
-1.6954e-05
-1.20438e-05
-2.06382e-05
-1.29259e-05
-2.37865e-05
-1.28949e-05
-2.61891e-05
-1.19672e-05
-2.75635e-05
-1.01969e-05
-2.76401e-05
-7.72303e-06
-4.75554e-06
-2.6182e-05
6.95965e-05
0.000126664
7.09243e-05
0.000117946
7.03407e-05
0.000107233
6.80417e-05
9.52238e-05
6.4408e-05
8.27351e-05
5.98733e-05
7.04926e-05
5.48302e-05
5.9016e-05
4.95838e-05
4.86027e-05
4.43411e-05
3.93655e-05
3.92193e-05
3.12873e-05
3.42646e-05
2.42732e-05
2.94719e-05
1.81879e-05
2.48078e-05
1.28739e-05
2.02498e-05
8.1443e-06
1.58009e-05
3.82387e-06
1.14448e-05