/*--------------------------------*- C++ -*----------------------------------*\
| =========                 |                                                 |
| \\      /  F ield         | OpenFOAM: The Open Source CFD Toolbox           |
|  \\    /   O peration     | Version:  v2012                                 |
|   \\  /    A nd           | Website:  www.openfoam.com                      |
|    \\/     M anipulation  |                                                 |
\*---------------------------------------------------------------------------*/
FoamFile
{
    version     2.0;
    format      ascii;
    class       volVectorField;
    location    "662";
    object      U;
}
// * * * * * * * * * * * * * * * * * * * * * * * * * * * * * * * * * * * * * //

dimensions      [0 1 -1 0 0 0 0];


internalField   nonuniform List<vector> 
6532
(
(6.67071e-05 -0.999789 0)
(0.000174175 -1.00003 0)
(0.000120403 -1.00002 0)
(6.27342e-05 -1.00001 0)
(1.94923e-05 -1.00001 0)
(-1.93579e-05 -1.00001 0)
(-6.26217e-05 -1.00001 0)
(-0.000120332 -1.00002 0)
(-0.000174161 -1.00003 0)
(-6.67028e-05 -0.999789 0)
(0.000271569 -0.999527 0)
(0.000323827 -1.00011 0)
(0.000248332 -1.00012 0)
(0.000148455 -1.0001 0)
(4.90471e-05 -1.00009 0)
(-4.86351e-05 -1.00009 0)
(-0.000148107 -1.0001 0)
(-0.000248087 -1.00012 0)
(-0.000323787 -1.00011 0)
(-0.000271557 -0.999527 0)
(0.00033527 -0.999143 0)
(0.000368951 -1.00013 0)
(0.000298907 -1.00024 0)
(0.000191845 -1.00025 0)
(6.54506e-05 -1.00024 0)
(-6.46534e-05 -1.00024 0)
(-0.00019114 -1.00025 0)
(-0.000298353 -1.00024 0)
(-0.000368472 -1.00013 0)
(-0.000335117 -0.999143 0)
(0.000338541 -0.998711 0)
(0.000363222 -1.00012 0)
(0.000307728 -1.00036 0)
(0.000205634 -1.00041 0)
(7.1478e-05 -1.00042 0)
(-7.01373e-05 -1.00042 0)
(-0.000204435 -1.00041 0)
(-0.000306757 -1.00036 0)
(-0.000362582 -1.00012 0)
(-0.000338232 -0.998712 0)
(0.000325918 -0.998297 0)
(0.000349109 -1.0001 0)
(0.000302557 -1.00046 0)
(0.000204687 -1.00056 0)
(7.21261e-05 -1.00059 0)
(-6.99995e-05 -1.00059 0)
(-0.000202767 -1.00056 0)
(-0.000300992 -1.00046 0)
(-0.00034812 -1.0001 0)
(-0.000325414 -0.998298 0)
(0.000308513 -0.997912 0)
(0.000328926 -1.00007 0)
(0.000291855 -1.00055 0)
(0.000197981 -1.00071 0)
(7.03862e-05 -1.00076 0)
(-6.71155e-05 -1.00076 0)
(-0.000195027 -1.00071 0)
(-0.000289519 -1.00055 0)
(-0.000327375 -1.00007 0)
(-0.000307734 -0.997915 0)
(0.000290807 -0.997553 0)
(0.000308939 -1.00004 0)
(0.00027575 -1.00063 0)
(0.00018816 -1.00085 0)
(6.75718e-05 -1.00092 0)
(-6.2571e-05 -1.00092 0)
(-0.000183648 -1.00085 0)
(-0.000272213 -1.00064 0)
(-0.000306536 -1.00005 0)
(-0.000289681 -0.997557 0)
(0.000274708 -0.997213 0)
(0.000291123 -1.00002 0)
(0.000260756 -1.00071 0)
(0.000178488 -1.00097 0)
(6.50289e-05 -1.00107 0)
(-5.73704e-05 -1.00107 0)
(-0.000171576 -1.00098 0)
(-0.000255278 -1.00072 0)
(-0.00028743 -1.00002 0)
(-0.000273007 -0.99722 0)
(0.000260922 -0.99689 0)
(0.000276315 -0.999995 0)
(0.000248366 -1.00079 0)
(0.000170509 -1.0011 0)
(6.35375e-05 -1.00122 0)
(-5.18318e-05 -1.00122 0)
(-0.00015994 -1.0011 0)
(-0.00023996 -1.00079 0)
(-0.000270675 -1 0)
(-0.000258287 -0.996901 0)
(0.000249587 -0.996582 0)
(0.00026473 -0.999974 0)
(0.00023895 -1.00086 0)
(0.000164896 -1.00121 0)
(6.35966e-05 -1.00135 0)
(-4.57525e-05 -1.00135 0)
(-0.00014878 -1.00122 0)
(-0.00022613 -1.00087 0)
(-0.000256178 -0.999988 0)
(-0.000245561 -0.996598 0)
(0.000240613 -0.996283 0)
(0.000256325 -0.999954 0)
(0.000232726 -1.00093 0)
(0.000162148 -1.00132 0)
(6.5751e-05 -1.00148 0)
(-3.86192e-05 -1.00148 0)
(-0.000137649 -1.00133 0)
(-0.00021326 -1.00094 0)
(-0.000243415 -0.999975 0)
(-0.000234548 -0.996309 0)
(0.000233915 -0.995993 0)
(0.000251223 -0.999934 0)
(0.000230066 -1.00099 0)
(0.000162847 -1.00142 0)
(7.07618e-05 -1.0016 0)
(-2.96192e-05 -1.00161 0)
(-0.000125771 -1.00144 0)
(-0.000200616 -1.00101 0)
(-0.000231702 -0.999966 0)
(-0.000224849 -0.996032 0)
(0.000229564 -0.995706 0)
(0.000249906 -0.999912 0)
(0.000231865 -1.00105 0)
(0.000168021 -1.00152 0)
(7.98355e-05 -1.00172 0)
(-1.75183e-05 -1.00173 0)
(-0.000112036 -1.00155 0)
(-0.000187306 -1.00109 0)
(-0.000220338 -0.999961 0)
(-0.000216072 -0.995766 0)
(0.000227841 -0.99542 0)
(0.00025315 -0.999886 0)
(0.000239565 -1.0011 0)
(0.000179522 -1.00162 0)
(9.49652e-05 -1.00183 0)
(-4.29294e-07 -1.00185 0)
(-9.49291e-05 -1.00166 0)
(-0.000172339 -1.00116 0)
(-0.000208762 -0.999961 0)
(-0.000207927 -0.995511 0)
(0.000229148 -0.99513 0)
(0.000261703 -0.999854 0)
(0.000254193 -1.00115 0)
(0.000200356 -1.00171 0)
(0.000119236 -1.00194 0)
(2.45251e-05 -1.00196 0)
(-7.23453e-05 -1.00177 0)
(-0.000154682 -1.00124 0)
(-0.000196816 -0.999968 0)
(-0.000200555 -0.995266 0)
(0.000234462 -0.994831 0)
(0.000278465 -0.999812 0)
(0.000281146 -1.00119 0)
(0.000235052 -1.00179 0)
(0.000157783 -1.00205 0)
(6.19742e-05 -1.00209 0)
(-4.12144e-05 -1.00189 0)
(-0.00013351 -1.00133 0)
(-0.000184976 -0.999984 0)
(-0.000195281 -0.995032 0)
(0.000245221 -0.994512 0)
(0.000307398 -0.999754 0)
(0.000325545 -1.00122 0)
(0.000290961 -1.00186 0)
(0.000217888 -1.00216 0)
(0.000119501 -1.00221 0)
(3.45408e-06 -1.00202 0)
(-0.000108941 -1.00144 0)
(-0.00017836 -1.00001 0)
(-0.000196389 -0.994803 0)
(0.000263489 -0.994163 0)
(0.000354178 -0.999669 0)
(0.000396252 -1.00122 0)
(0.000380164 -1.00193 0)
(0.000315774 -1.00227 0)
(0.000210857 -1.00235 0)
(7.00065e-05 -1.00218 0)
(-8.58514e-05 -1.00159 0)
(-0.000200551 -1.00008 0)
(-0.000222785 -0.994544 0)
(0.000292103 -0.993763 0)
(0.000426686 -0.999542 0)
(0.00050652 -1.00119 0)
(0.000521198 -1.00197 0)
(0.000476369 -1.00237 0)
(0.000368107 -1.00251 0)
(0.000192355 -1.00239 0)
(-3.61955e-05 -1.00181 0)
(-0.000221735 -1.00016 0)
(-0.000164501 -0.994224 0)
(0.000334408 -0.99329 0)
(0.000534405 -0.999352 0)
(0.000672634 -1.00111 0)
(0.000739043 -1.00197 0)
(0.000730469 -1.00245 0)
(0.000630142 -1.0027 0)
(0.000391616 -1.00269 0)
(-1.83043e-05 -1.00224 0)
(-0.000633473 -1.00086 0)
(-0.000856425 -0.996654 0)
(0.000396754 -0.992697 0)
(0.000690011 -0.999062 0)
(0.000919787 -1.00094 0)
(0.00107738 -1.00189 0)
(0.00115812 -1.00248 0)
(0.00115838 -1.00287 0)
(0.00103707 -1.00308 0)
(0.000936193 -1.00285 0)
(0.00184627 -1.0008 0)
(0.00931356 -0.981581 0)
(0.000483677 -0.991946 0)
(0.000901508 -0.998626 0)
(0.00126287 -1.00062 0)
(0.00155528 -1.00167 0)
(0.00177906 -1.00236 0)
(0.00195062 -1.00284 0)
(0.00207547 -1.00304 0)
(0.00203337 -1.00269 0)
(0.00256893 -0.999168 0)
(0.0169006 -0.963399 0)
(0.000594245 -0.990986 0)
(0.00116912 -0.997994 0)
(0.00169982 -1.00011 0)
(0.00216397 -1.00124 0)
(0.00256339 -1.00201 0)
(0.00293151 -1.00254 0)
(0.00333205 -1.0027 0)
(0.00363717 -1.0018 0)
(0.00375223 -0.996353 0)
(0.0209713 -0.948156 0)
(0.000728539 -0.98977 0)
(0.00149359 -0.997117 0)
(0.00223039 -0.999355 0)
(0.00290231 -1.00057 0)
(0.00351337 -1.0014 0)
(0.00410713 -1.00195 0)
(0.00481893 -1.00194 0)
(0.00576603 -1.00025 0)
(0.0060318 -0.991927 0)
(0.0245364 -0.931163 0)
(0.000887809 -0.988248 0)
(0.0018784 -0.99595 0)
(0.00285942 -0.998312 0)
(0.00377582 -0.999606 0)
(0.00463626 -1.00049 0)
(0.00548903 -1.001 0)
(0.00649931 -1.00073 0)
(0.00804792 -0.997982 0)
(0.00885858 -0.98593 0)
(0.0269694 -0.911977 0)
(0.00107456 -0.986366 0)
(0.00232992 -0.99444 0)
(0.00359607 -0.996932 0)
(0.0047945 -0.998305 0)
(0.00593893 -0.99922 0)
(0.00708192 -0.999662 0)
(0.0083951 -0.999025 0)
(0.0104733 -0.995013 0)
(0.012097 -0.978743 0)
(0.029057 -0.893566 0)
(0.00129287 -0.984062 0)
(0.00285802 -0.992531 0)
(0.0044561 -0.995162 0)
(0.00598019 -0.996618 0)
(0.00744835 -0.997565 0)
(0.00891841 -0.997907 0)
(0.010557 -0.996827 0)
(0.0130938 -0.991397 0)
(0.015688 -0.970667 0)
(0.0305482 -0.876594 0)
(0.00154801 -0.981264 0)
(0.00347655 -0.990159 0)
(0.00546401 -0.992939 0)
(0.00736911 -0.994488 0)
(0.00921471 -0.995466 0)
(0.0110672 -0.995692 0)
(0.0130918 -0.994112 0)
(0.0160651 -0.987178 0)
(0.0196556 -0.962052 0)
(0.0327742 -0.861452 0)
(0.0018494 -0.977881 0)
(0.00421165 -0.987232 0)
(0.00664827 -0.990181 0)
(0.00900562 -0.991834 0)
(0.0112985 -0.992845 0)
(0.0136074 -0.992936 0)
(0.0161138 -0.990798 0)
(0.0195714 -0.982268 0)
(0.0240251 -0.952924 0)
(0.0365694 -0.847574 0)
(0.00220658 -0.973808 0)
(0.00507549 -0.983707 0)
(0.00804448 -0.9868 0)
(0.0109358 -0.98856 0)
(0.0137545 -0.989603 0)
(0.0165952 -0.989537 0)
(0.019662 -0.98678 0)
(0.0236465 -0.976565 0)
(0.0288236 -0.943267 0)
(0.0407797 -0.835361 0)
(0.00262097 -0.968929 0)
(0.00608175 -0.979378 0)
(0.0096936 -0.98268 0)
(0.0132058 -0.984557 0)
(0.0166374 -0.985633 0)
(0.0200872 -0.985398 0)
(0.0237734 -0.981997 0)
(0.0283044 -0.970101 0)
(0.0342234 -0.93328 0)
(0.0451154 -0.825073 0)
(0.00310474 -0.963107 0)
(0.00726351 -0.97416 0)
(0.0116276 -0.977695 0)
(0.0158661 -0.979704 0)
(0.0200131 -0.980821 0)
(0.0241647 -0.980423 0)
(0.0285393 -0.976393 0)
(0.0336688 -0.962901 0)
(0.0402949 -0.923112 0)
(0.0498866 -0.81671 0)
(0.0036695 -0.956178 0)
(0.00864756 -0.967901 0)
(0.0138878 -0.971695 0)
(0.0189777 -0.973857 0)
(0.023961 -0.975036 0)
(0.0289274 -0.974498 0)
(0.034079 -0.96989 0)
(0.0398816 -0.954972 0)
(0.0469956 -0.913177 0)
(0.0553866 -0.810074 0)
(0.00432589 -0.947953 0)
(0.0102617 -0.960424 0)
(0.0165232 -0.964508 0)
(0.022609 -0.966848 0)
(0.0285697 -0.968116 0)
(0.0344846 -0.96748 0)
(0.0405281 -0.962391 0)
(0.0470676 -0.946372 0)
(0.0545458 -0.903557 0)
(0.0619233 -0.804902 0)
(0.00508444 -0.938219 0)
(0.0121344 -0.951526 0)
(0.0195835 -0.955936 0)
(0.0268303 -0.958481 0)
(0.0339312 -0.959871 0)
(0.0409521 -0.959198 0)
(0.0480287 -0.953771 0)
(0.0554058 -0.937058 0)
(0.0632417 -0.894208 0)
(0.0698491 -0.800918 0)
(0.00595411 -0.926743 0)
(0.0142909 -0.940981 0)
(0.0231144 -0.945756 0)
(0.0317074 -0.948533 0)
(0.0401341 -0.950081 0)
(0.0484444 -0.949444 0)
(0.0567265 -0.943859 0)
(0.0650911 -0.926907 0)
(0.0733916 -0.884969 0)
(0.0795341 -0.797794 0)
(0.00694282 -0.913274 0)
(0.0167522 -0.928541 0)
(0.0271546 -0.933724 0)
(0.0372965 -0.936757 0)
(0.0472539 -0.938498 0)
(0.0570609 -0.937975 0)
(0.0667525 -0.932428 0)
(0.0763036 -0.915707 0)
(0.0852756 -0.875551 0)
(0.0913308 -0.7951 0)
(0.00803676 -0.89749 0)
(0.0195143 -0.913909 0)
(0.031729 -0.91956 0)
(0.0436369 -0.922875 0)
(0.0553427 -0.92484 0)
(0.0668703 -0.924507 0)
(0.0782011 -0.919193 0)
(0.0891811 -0.903152 0)
(0.0991179 -0.865536 0)
(0.105542 -0.792296 0)
(0.00924361 -0.879791 0)
(0.0225504 -0.897192 0)
(0.0367497 -0.903346 0)
(0.0505904 -0.90696 0)
(0.0642202 -0.909165 0)
(0.0776555 -0.909079 0)
(0.0908283 -0.904164 0)
(0.103473 -0.88917 0)
(0.114702 -0.854639 0)
(0.121996 -0.788803 0)
(0.0105949 -0.8595 0)
(0.0258777 -0.878286 0)
(0.0421925 -0.884967 0)
(0.0581132 -0.888888 0)
(0.0738225 -0.89134 0)
(0.089334 -0.891539 0)
(0.104539 -0.887145 0)
(0.119085 -0.873466 0)
(0.131948 -0.842371 0)
(0.140629 -0.783972 0)
(0.0120735 -0.836376 0)
(0.0295046 -0.856686 0)
(0.0481156 -0.863926 0)
(0.0662951 -0.868161 0)
(0.0842588 -0.870859 0)
(0.10203 -0.871363 0)
(0.119473 -0.867578 0)
(0.136176 -0.855404 0)
(0.151045 -0.827981 0)
(0.161655 -0.777027 0)
(0.0136602 -0.810117 0)
(0.0333973 -0.832163 0)
(0.0544707 -0.840015 0)
(0.0750645 -0.844576 0)
(0.0954278 -0.847515 0)
(0.115609 -0.848327 0)
(0.135461 -0.84519 0)
(0.154544 -0.834613 0)
(0.171757 -0.810914 0)
(0.18481 -0.767225 0)
(0.0153468 -0.780465 0)
(0.0375348 -0.804503 0)
(0.0612082 -0.813046 0)
(0.0843362 -0.817961 0)
(0.107203 -0.821142 0)
(0.129896 -0.822252 0)
(0.152274 -0.819762 0)
(0.173904 -0.81077 0)
(0.193732 -0.790676 0)
(0.209659 -0.753866 0)
(0.0171273 -0.747217 0)
(0.0418959 -0.773539 0)
(0.0682739 -0.782885 0)
(0.0940153 -0.788204 0)
(0.119438 -0.791641 0)
(0.144686 -0.793039 0)
(0.16964 -0.791158 0)
(0.193901 -0.783657 0)
(0.216514 -0.766894 0)
(0.235619 -0.73638 0)
(0.0189976 -0.710188 0)
(0.046461 -0.739147 0)
(0.0756132 -0.749451 0)
(0.104004 -0.75526 0)
(0.131982 -0.758991 0)
(0.15976 -0.760674 0)
(0.187259 -0.75935 0)
(0.21414 -0.753183 0)
(0.239582 -0.739363 0)
(0.261995 -0.714395 0)
(0.0209582 -0.669199 0)
(0.0512183 -0.701227 0)
(0.0831813 -0.71271 0)
(0.114214 -0.719142 0)
(0.144686 -0.723247 0)
(0.174901 -0.725237 0)
(0.204832 -0.724419 0)
(0.234218 -0.719399 0)
(0.262393 -0.708072 0)
(0.288057 -0.687799 0)
(0.0230158 -0.624069 0)
(0.0561711 -0.659704 0)
(0.0909507 -0.672676 0)
(0.12457 -0.679931 0)
(0.157418 -0.68454 0)
(0.189909 -0.6869 0)
(0.22208 -0.686561 0)
(0.25376 -0.682508 0)
(0.284444 -0.673215 0)
(0.313116 -0.656761 0)
(0.0251864 -0.5746 0)
(0.0613422 -0.61452 0)
(0.0989168 -0.629416 0)
(0.135021 -0.637776 0)
(0.170069 -0.643082 0)
(0.204608 -0.645923 0)
(0.238759 -0.646072 0)
(0.27244 -0.642839 0)
(0.305303 -0.635164 0)
(0.336596 -0.621709 0)
(0.0274958 -0.520562 0)
(0.0667754 -0.565631 0)
(0.107096 -0.583047 0)
(0.145528 -0.592896 0)
(0.182536 -0.599158 0)
(0.21884 -0.602641 0)
(0.254657 -0.603333 0)
(0.289992 -0.600822 0)
(0.324639 -0.594424 0)
(0.358072 -0.583261 0)
(0.0299827 -0.461671 0)
(0.0725293 -0.513003 0)
(0.115507 -0.533752 0)
(0.156045 -0.545591 0)
(0.194706 -0.553127 0)
(0.232437 -0.557451 0)
(0.269566 -0.558775 0)
(0.306182 -0.556938 0)
(0.342197 -0.551562 0)
(0.377268 -0.542129 0)
(0.0326765 -0.39759 0)
(0.0786591 -0.456645 0)
(0.124132 -0.481793 0)
(0.166456 -0.496238 0)
(0.206389 -0.505413 0)
(0.245162 -0.510794 0)
(0.283236 -0.512852 0)
(0.320767 -0.511671 0)
(0.357759 -0.507135 0)
(0.394006 -0.499015 0)
(0.0357237 -0.327877 0)
(0.0851197 -0.396651 0)
(0.132766 -0.427613 0)
(0.176472 -0.445371 0)
(0.217243 -0.456534 0)
(0.256645 -0.463147 0)
(0.295298 -0.46601 0)
(0.333417 -0.465463 0)
(0.371063 -0.461631 0)
(0.408115 -0.454521 0)
(0.0390574 -0.252677 0)
(0.0917566 -0.333438 0)
(0.140821 -0.371392 0)
(0.18535 -0.393377 0)
(0.226539 -0.406977 0)
(0.266211 -0.414968 0)
(0.305148 -0.418643 0)
(0.343614 -0.41867 0)
(0.381697 -0.415415 0)
(0.419318 -0.409091 0)
(0.03976 -0.169678 0)
(0.0962476 -0.270118 0)
(0.147106 -0.315268 0)
(0.192159 -0.341201 0)
(0.233257 -0.357226 0)
(0.272819 -0.366587 0)
(0.31183 -0.371003 0)
(0.350531 -0.371494 0)
(0.388983 -0.368674 0)
(0.427115 -0.362945 0)
(0.0332354 -0.0823037 0)
(0.0910757 -0.19564 0)
(0.146039 -0.256255 0)
(0.193564 -0.289137 0)
(0.235252 -0.307908 0)
(0.274799 -0.318376 0)
(0.313898 -0.32325 0)
(0.352909 -0.323975 0)
(0.391863 -0.3214 0)
(0.430653 -0.316082 0)
(0.0206476 -0.0170973 0)
(0.0718269 -0.116789 0)
(0.12959 -0.190245 0)
(0.182017 -0.233682 0)
(0.22713 -0.257519 0)
(0.268491 -0.269805 0)
(0.308703 -0.275086 0)
(0.348683 -0.275778 0)
(0.388646 -0.273188 0)
(0.428528 -0.268081 0)
(0.00839936 0.0224945 0)
(0.0458743 -0.0465739 0)
(0.097786 -0.119871 0)
(0.151729 -0.171358 0)
(0.201416 -0.201983 0)
(0.247257 -0.218069 0)
(0.291027 -0.224889 0)
(0.333829 -0.225981 0)
(0.376168 -0.223464 0)
(0.418178 -0.218546 0)
(-0.00520615 0.0415263 0)
(0.0212059 0.00140107 0)
(0.0586216 -0.0571261 0)
(0.104697 -0.106518 0)
(0.154176 -0.139739 0)
(0.204114 -0.159254 0)
(0.253265 -0.168721 0)
(0.301299 -0.171466 0)
(0.348286 -0.169901 0)
(0.394386 -0.165677 0)
(-0.0208753 0.0423282 0)
(-0.00849108 0.01979 0)
(0.0151649 -0.0148054 0)
(0.047912 -0.0507137 0)
(0.0902512 -0.0782047 0)
(0.139697 -0.0955564 0)
(0.193053 -0.10463 0)
(0.247117 -0.108233 0)
(0.30035 -0.107742 0)
(0.352499 -0.104454 0)
(-0.0258143 0.0119031 0)
(-0.0437266 0.00072304 0)
(-0.0484507 -0.0154254 0)
(-0.0230508 -0.0297231 0)
(0.0106431 -0.0410666 0)
(0.0559921 -0.0466317 0)
(0.108333 -0.0501626 0)
(0.169861 -0.0528664 0)
(0.232084 -0.0533856 0)
(0.29195 -0.0517334 0)
(-0.0404072 -0.156844 0)
(-0.120028 0.0121118 0)
(-0.105728 0.0176238 0)
(-0.0909352 0.019374 0)
(-0.0743289 0.0215729 0)
(-0.0552228 0.0229816 0)
(-0.0347449 0.0234794 0)
(-0.0155253 0.0236609 0)
(0.00367505 0.0234719 0)
(0.0224278 0.022004 0)
(0.0399144 0.0206033 0)
(0.0577996 0.0189215 0)
(0.0725126 0.0163493 0)
(0.08458 0.0133376 0)
(0.0939678 0.0101669 0)
(0.100333 0.00706555 0)
(0.103484 0.00410505 0)
(0.103116 0.000502719 0)
(0.0990018 -0.00346852 0)
(0.0907952 -0.00759335 0)
(0.0783167 -0.0117005 0)
(0.0616543 -0.0154066 0)
(0.0411945 -0.0171417 0)
(0.0187092 -0.0145487 0)
(0.00406752 -0.00755613 0)
(-0.0236207 -0.231707 0)
(-0.072903 -0.0114722 0)
(-0.079749 0.0187777 0)
(-0.0760016 0.0276449 0)
(-0.0664954 0.0332683 0)
(-0.0535939 0.0370779 0)
(-0.038595 0.0391798 0)
(-0.0222773 0.0399136 0)
(-0.00538757 0.0393689 0)
(0.0111177 0.0375066 0)
(0.0264622 0.0346773 0)
(0.0403258 0.0309162 0)
(0.0524113 0.0261405 0)
(0.062595 0.0207648 0)
(0.0706766 0.0150348 0)
(0.0764499 0.00900419 0)
(0.0797575 0.00262866 0)
(0.0806751 -0.00411162 0)
(0.0792699 -0.0112199 0)
(0.0754265 -0.0187138 0)
(0.0689817 -0.0264358 0)
(0.0596559 -0.0337821 0)
(0.0473617 -0.038866 0)
(0.0298948 -0.0380057 0)
(0.0120359 -0.0278145 0)
(-0.0033965 -0.307888 0)
(-0.0529878 -0.044881 0)
(-0.0669101 0.0134995 0)
(-0.0682603 0.0335838 0)
(-0.062842 0.0451253 0)
(-0.0532834 0.0525168 0)
(-0.0411898 0.0568075 0)
(-0.0275639 0.0585552 0)
(-0.0132465 0.0581713 0)
(0.000999605 0.0559221 0)
(0.0145282 0.0520389 0)
(0.0268569 0.0466832 0)
(0.0376646 0.0400392 0)
(0.0467374 0.0324265 0)
(0.0538919 0.0241337 0)
(0.0589962 0.0153539 0)
(0.061992 0.00618187 0)
(0.0629128 -0.00340564 0)
(0.0618555 -0.0134886 0)
(0.0589081 -0.0241009 0)
(0.0541368 -0.0351521 0)
(0.0474834 -0.0461637 0)
(0.0387905 -0.0555584 0)
(0.0271098 -0.0592911 0)
(0.0139471 -0.0516282 0)
(0.00747613 -0.38126 0)
(-0.0450664 -0.0847195 0)
(-0.0635341 0.00248257 0)
(-0.0677163 0.0359483 0)
(-0.0644978 0.0544241 0)
(-0.0567554 0.0660881 0)
(-0.0463739 0.0730927 0)
(-0.0344122 0.0763483 0)
(-0.0216736 0.0764376 0)
(-0.00882344 0.0737839 0)
(0.0035621 0.0687449 0)
(0.014986 0.0616557 0)
(0.0250564 0.052877 0)
(0.0334859 0.0428285 0)
(0.0400852 0.0319092 0)
(0.044767 0.0204298 0)
(0.0475396 0.00858705 0)
(0.0484892 -0.00353808 0)
(0.0477408 -0.0159668 0)
(0.0454292 -0.0287692 0)
(0.0416775 -0.0419616 0)
(0.0365285 -0.055308 0)
(0.0298232 -0.0677585 0)
(0.021327 -0.0761306 0)
(0.0129445 -0.0776615 0)
(0.0167529 -0.441746 0)
(-0.0362997 -0.134595 0)
(-0.0606704 -0.0160494 0)
(-0.0685054 0.034181 0)
(-0.0681055 0.0612166 0)
(-0.0620036 0.0775982 0)
(-0.0531234 0.0874179 0)
(-0.042528 0.0922907 0)
(-0.0310023 0.0930594 0)
(-0.0191634 0.0902712 0)
(-0.0075609 0.084369 0)
(0.0032999 0.075793 0)
(0.012971 0.0650456 0)
(0.0211015 0.0526915 0)
(0.0274727 0.0392908 0)
(0.0320132 0.0253101 0)
(0.0347785 0.0110646 0)
(0.0359085 -0.00329514 0)
(0.0355684 -0.0177627 0)
(0.0339228 -0.0324062 0)
(0.0311207 -0.0472779 0)
(0.0272426 -0.0622563 0)
(0.0221699 -0.0766529 0)
(0.0155468 -0.0884023 0)
(0.0103233 -0.0951042 0)
(0.0252213 -0.489292 0)
(-0.0249032 -0.187751 0)
(-0.0527061 -0.0423086 0)
(-0.0665402 0.0267666 0)
(-0.0697452 0.0643579 0)
(-0.0664165 0.0864403 0)
(-0.059599 0.0995582 0)
(-0.0507553 0.106325 0)
(-0.0406392 0.108089 0)
(-0.029877 0.10553 0)
(-0.0190144 0.0991344 0)
(-0.00858827 0.0893892 0)
(0.000890343 0.0768907 0)
(0.00898757 0.0623681 0)
(0.0154174 0.0465947 0)
(0.0200842 0.0302469 0)
(0.023065 0.0137924 0)
(0.0245434 -0.00254179 0)
(0.0247267 -0.018737 0)
(0.0238083 -0.0348904 0)
(0.021956 -0.0511084 0)
(0.0192717 -0.0673583 0)
(0.0157133 -0.0831822 0)
(0.0107282 -0.097305 0)
(0.00762175 -0.107362 0)
(0.0305405 -0.525884 0)
(-0.0116383 -0.238638 0)
(-0.0413672 -0.0754621 0)
(-0.0602017 0.012701 0)
(-0.0677964 0.0621768 0)
(-0.068415 0.0914148 0)
(-0.0646728 0.108619 0)
(-0.0582468 0.117894 0)
(-0.0500157 0.121211 0)
(-0.0406576 0.119431 0)
(-0.0307172 0.11307 0)
(-0.0207596 0.102607 0)
(-0.0113785 0.0886935 0)
(-0.00311654 0.0722131 0)
(0.00363028 0.054185 0)
(0.00868699 0.0355668 0)
(0.0121099 0.0170298 0)
(0.0141097 -0.00110079 0)
(0.0149351 -0.0187969 0)
(0.0148126 -0.0361987 0)
(0.0139335 -0.0534824 0)
(0.0124214 -0.0707154 0)
(0.0102966 -0.0876362 0)
(0.00692333 -0.103465 0)
(0.00548426 -0.115946 0)
(0.0345757 -0.554572 0)
(0.000722512 -0.283887 0)
(-0.0296033 -0.110707 0)
(-0.051208 -0.00753744 0)
(-0.0632595 0.0539055 0)
(-0.0681095 0.0909597 0)
(-0.0681634 0.113344 0)
(-0.0646594 0.126172 0)
(-0.0588468 0.131807 0)
(-0.051342 0.131534 0)
(-0.042653 0.125938 0)
(-0.0333267 0.115424 0)
(-0.0240267 0.100614 0)
(-0.0154367 0.0825162 0)
(-0.00811863 0.0624163 0)
(-0.00239058 0.0416025 0)
(0.00171997 0.0210419 0)
(0.00442139 0.00121752 0)
(0.00600412 -0.017823 0)
(0.00673915 -0.036277 0)
(0.00684989 -0.0544011 0)
(0.00648387 -0.0723652 0)
(0.00569784 -0.0900844 0)
(0.0038561 -0.107128 0)
(0.00384292 -0.121392 0)
(0.0383202 -0.577188 0)
(0.0108632 -0.323991 0)
(-0.0183862 -0.146585 0)
(-0.0415127 -0.0323339 0)
(-0.057074 0.0397935 0)
(-0.0660128 0.084977 0)
(-0.0697826 0.113357 0)
(-0.0698931 0.130399 0)
(-0.0670369 0.139151 0)
(-0.061889 0.141239 0)
(-0.054897 0.137324 0)
(-0.0464965 0.127675 0)
(-0.0373568 0.112745 0)
(-0.0283079 0.0935671 0)
(-0.0201339 0.0716711 0)
(-0.0133988 0.0487369 0)
(-0.00830584 0.0261351 0)
(-0.00469898 0.00461049 0)
(-0.00224258 -0.0157104 0)
(-0.000598308 -0.0350871 0)
(0.000507477 -0.0538816 0)
(0.00124974 -0.0723788 0)
(0.00170322 -0.0906558 0)
(0.00128543 -0.10856 0)
(0.00245619 -0.124227 0)
(0.0420316 -0.595336 0)
(0.0193905 -0.359505 0)
(-0.00807922 -0.181845 0)
(-0.0320232 -0.0599608 0)
(-0.050299 0.0210999 0)
(-0.0628059 0.074047 0)
(-0.0704357 0.108258 0)
(-0.0741813 0.129954 0)
(-0.0746878 0.142586 0)
(-0.072326 0.147897 0)
(-0.0675285 0.146666 0)
(-0.0605213 0.139017 0)
(-0.0517722 0.12506 0)
(-0.0422251 0.105639 0)
(-0.0329072 0.0824099 0)
(-0.0247358 0.0574574 0)
(-0.0182521 0.0326955 0)
(-0.0134608 0.00932274 0)
(-0.00998338 -0.0123375 0)
(-0.00737291 -0.0325988 0)
(-0.00526998 -0.0519604 0)
(-0.00345646 -0.0708511 0)
(-0.00185438 -0.0895205 0)
(-0.000950091 -0.10805 0)
(0.00113865 -0.124833 0)
(0.045785 -0.610197 0)
(0.0267995 -0.391042 0)
(0.00122959 -0.216005 0)
(-0.0230618 -0.0894775 0)
(-0.0433842 -0.00154537 0)
(-0.059015 0.0581682 0)
(-0.0702661 0.0981661 0)
(-0.0777146 0.124688 0)
(-0.081824 0.141652 0)
(-0.0827464 0.150867 0)
(-0.0804599 0.153303 0)
(-0.0755177 0.148886 0)
(-0.0676731 0.137303 0)
(-0.0578191 0.11889 0)
(-0.0471773 0.095141 0)
(-0.037072 0.0684159 0)
(-0.0286038 0.0412793 0)
(-0.0221793 0.0157016 0)
(-0.0174394 -0.00753057 0)
(-0.0137613 -0.0287434 0)
(-0.0106379 -0.0486398 0)
(-0.00777054 -0.0678454 0)
(-0.00507953 -0.0868165 0)
(-0.00295166 -0.10589 0)
(-5.51018e-05 -0.123425 0)
(0.0500513 -0.6228 0)
(0.0335785 -0.419403 0)
(0.0097079 -0.248976 0)
(-0.014662 -0.12022 0)
(-0.0365289 -0.0272955 0)
(-0.0548057 0.0380172 0)
(-0.0693356 0.0832335 0)
(-0.0803529 0.114435 0)
(-0.0881349 0.135836 0)
(-0.0927436 0.149705 0)
(-0.0937808 0.156258 0)
(-0.091179 0.156487 0)
(-0.0851676 0.148828 0)
(-0.0756726 0.133113 0)
(-0.0638953 0.110232 0)
(-0.0514798 0.0823944 0)
(-0.0402339 0.0526797 0)
(-0.0313832 0.0242628 0)
(-0.0248918 -0.00103737 0)
(-0.0199288 -0.0234204 0)
(-0.0157057 -0.0438872 0)
(-0.011777 -0.063379 0)
(-0.00804166 -0.0826353 0)
(-0.00477892 -0.102253 0)
(-0.00121554 -0.120149 0)
(0.0550115 -0.634043 0)
(0.0402272 -0.445386 0)
(0.0177317 -0.280885 0)
(-0.00657937 -0.151804 0)
(-0.0296352 -0.0555489 0)
(-0.0500977 0.0141859 0)
(-0.06746 0.0639343 0)
(-0.0817199 0.0994354 0)
(-0.0929904 0.125032 0)
(-0.101239 0.143347 0)
(-0.106214 0.155321 0)
(-0.106957 0.160346 0)
(-0.103593 0.158417 0)
(-0.0958114 0.147389 0)
(-0.0838555 0.12751 0)
(-0.0693578 0.100189 0)
(-0.0545463 0.0683233 0)
(-0.041802 0.0361873 0)
(-0.0324482 0.00777452 0)
(-0.0257262 -0.0163988 0)
(-0.0202692 -0.0377191 0)
(-0.0153236 -0.0575432 0)
(-0.0106582 -0.0770863 0)
(-0.00640882 -0.0972557 0)
(-0.00208234 -0.11516 0)
(0.06096 -0.644537 0)
(0.0473148 -0.469652 0)
(0.0258709 -0.311922 0)
(0.00166427 -0.183992 0)
(-0.022313 -0.0857847 0)
(-0.0445173 -0.0127146 0)
(-0.0642494 0.040827 0)
(-0.0813374 0.080148 0)
(-0.0957684 0.109577 0)
(-0.107481 0.132009 0)
(-0.116164 0.14879 0)
(-0.121267 0.159783 0)
(-0.121691 0.163728 0)
(-0.11712 0.159811 0)
(-0.106982 0.145648 0)
(-0.0918587 0.121778 0)
(-0.0736869 0.0899369 0)
(-0.0554282 0.053784 0)
(-0.0409785 0.0203301 0)
(-0.0313352 -0.00697687 0)
(-0.0242512 -0.0298926 0)
(-0.0182896 -0.0504216 0)
(-0.0128119 -0.0703508 0)
(-0.00774423 -0.0910661 0)
(-0.00282281 -0.108733 0)
(0.0683625 -0.654658 0)
(0.0554888 -0.492715 0)
(0.0348405 -0.342287 0)
(0.0107461 -0.216632 0)
(-0.0139223 -0.117591 0)
(-0.0374926 -0.0420857 0)
(-0.0591596 0.0145361 0)
(-0.0786033 0.0571235 0)
(-0.0957686 0.0898869 0)
(-0.11062 0.115901 0)
(-0.122927 0.136889 0)
(-0.132142 0.153178 0)
(-0.137423 0.163747 0)
(-0.137509 0.167074 0)
(-0.131501 0.161703 0)
(-0.118693 0.1449 0)
(-0.0998593 0.117298 0)
(-0.0766461 0.0802065 0)
(-0.0540421 0.0398023 0)
(-0.0382341 0.00604966 0)
(-0.0281962 -0.0199708 0)
(-0.0207981 -0.0419293 0)
(-0.014471 -0.0625718 0)
(-0.00869128 -0.0838352 0)
(-0.00335517 -0.101236 0)
(0.0777082 -0.664567 0)
(0.0654195 -0.514911 0)
(0.0454118 -0.372119 0)
(0.0214498 -0.249584 0)
(-0.00370171 -0.15059 0)
(-0.0283166 -0.073412 0)
(-0.0514754 -0.0143256 0)
(-0.0727758 0.0310002 0)
(-0.0921591 0.0665664 0)
(-0.109626 0.0955089 0)
(-0.125089 0.119864 0)
(-0.138191 0.140432 0)
(-0.148173 0.156797 0)
(-0.153934 0.167464 0)
(-0.153919 0.170774 0)
(-0.146759 0.164807 0)
(-0.13176 0.146383 0)
(-0.108475 0.115292 0)
(-0.0788706 0.0718876 0)
(-0.0515993 0.0274599 0)
(-0.0340173 -0.00644453 0)
(-0.0233503 -0.0316141 0)
(-0.0156118 -0.0536233 0)
(-0.00907186 -0.0757523 0)
(-0.0035906 -0.0932863 0)
(0.0894666 -0.674204 0)
(0.0777643 -0.536365 0)
(0.0583722 -0.401462 0)
(0.034623 -0.28269 0)
(0.00918985 -0.18445 0)
(-0.0161686 -0.106208 0)
(-0.0404274 -0.0451267 0)
(-0.063123 0.00249758 0)
(-0.0841698 0.0403939 0)
(-0.103626 0.0716587 0)
(-0.121539 0.0985224 0)
(-0.137794 0.122185 0)
(-0.151916 0.14279 0)
(-0.163033 0.159556 0)
(-0.169843 0.170921 0)
(-0.170582 0.174845 0)
(-0.163475 0.169387 0)
(-0.147371 0.151169 0)
(-0.119546 0.116237 0)
(-0.0830822 0.0669951 0)
(-0.0493431 0.0177219 0)
(-0.0285139 -0.0176534 0)
(-0.0163592 -0.0426797 0)
(-0.00797579 -0.0654585 0)
(-0.00300136 -0.0858687 0)
(0.104057 -0.683286 0)
(0.0931253 -0.55698 0)
(0.0744707 -0.430217 0)
(0.0510913 -0.315749 0)
(0.0255863 -0.218855 0)
(-0.000235913 -0.140038 0)
(-0.0252629 -0.0773495 0)
(-0.0489435 -0.0277303 0)
(-0.0711563 0.0121595 0)
(-0.0919945 0.04529 0)
(-0.111615 0.0739592 0)
(-0.130111 0.0996394 0)
(-0.147324 0.122907 0)
(-0.162773 0.143559 0)
(-0.175579 0.160733 0)
(-0.184264 0.172946 0)
(-0.187458 0.177805 0)
(-0.18242 0.174602 0)
(-0.166513 0.157725 0)
(-0.136639 0.121336 0)
(-0.0939861 0.0690688 0)
(-0.0507701 0.0124648 0)
(-0.0204647 -0.0307345 0)
(-0.00434189 -0.0577831 0)
(-0.00120806 -0.0832577 0)
(0.121394 -0.691171 0)
(0.111572 -0.576053 0)
(0.0939258 -0.457566 0)
(0.0711706 -0.347826 0)
(0.0458564 -0.252773 0)
(0.0198587 -0.173832 0)
(-0.00562357 -0.109876 0)
(-0.0299456 -0.058508 0)
(-0.0529155 -0.0168613 0)
(-0.0746211 0.0178201 0)
(-0.0952925 0.0478065 0)
(-0.115165 0.074707 0)
(-0.134323 0.0993875 0)
(-0.152622 0.122045 0)
(-0.169646 0.142345 0)
(-0.184622 0.159504 0)
(-0.196273 0.172318 0)
(-0.202595 0.178788 0)
(-0.203122 0.177954 0)
(-0.191636 0.162861 0)
(-0.16388 0.131248 0)
(-0.121373 0.0847528 0)
(-0.0676584 0.0325622 0)
(-0.0160726 -0.0142615 0)
(0.0189773 -0.0525417 0)
(0.141471 -0.697288 0)
(0.133229 -0.593133 0)
(0.116995 -0.483122 0)
(0.0952172 -0.378558 0)
(0.0704057 -0.285827 0)
(0.0445102 -0.207188 0)
(0.0188339 -0.142281 0)
(-0.00587526 -0.0893673 0)
(-0.0293302 -0.0460817 0)
(-0.051556 -0.009991 0)
(-0.072794 0.0210651 0)
(-0.0933793 0.0487387 0)
(-0.113557 0.0740636 0)
(-0.133421 0.0974866 0)
(-0.152899 0.118975 0)
(-0.171731 0.138131 0)
(-0.189424 0.154251 0)
(-0.205158 0.166288 0)
(-0.217563 0.172921 0)
(-0.224198 0.173735 0)
(-0.223908 0.15888 0)
(-0.210939 0.132189 0)
(-0.186329 0.09736 0)
(-0.147277 0.0585382 0)
(-0.110517 0.0103598 0)
(0.164574 -0.70108 0)
(0.158523 -0.607942 0)
(0.144279 -0.506853 0)
(0.123996 -0.408094 0)
(0.100118 -0.318288 0)
(0.0746747 -0.240424 0)
(0.0490934 -0.174914 0)
(0.0242397 -0.120651 0)
(0.00051285 -0.075798 0)
(-0.0220126 -0.0382952 0)
(-0.0435242 -0.00620546 0)
(-0.0643725 0.02208 0)
(-0.0849013 0.0476889 0)
(-0.105341 0.0712265 0)
(-0.125806 0.0928197 0)
(-0.146323 0.112206 0)
(-0.166885 0.128864 0)
(-0.18746 0.142103 0)
(-0.207924 0.150898 0)
(-0.227742 0.153418 0)
(-0.246068 0.146757 0)
(-0.260017 0.126298 0)
(-0.267304 0.0890417 0)
(-0.273817 0.0357769 0)
(-0.277361 -0.0265094 0)
(0.190443 -0.701708 0)
(0.187277 -0.619621 0)
(0.175746 -0.527947 0)
(0.15764 -0.435729 0)
(0.135284 -0.349584 0)
(0.110767 -0.273093 0)
(0.0856489 -0.207403 0)
(0.0609378 -0.152069 0)
(0.0371682 -0.105771 0)
(0.014518 -0.0668449 0)
(-0.0070955 -0.03364 0)
(-0.0279477 -0.00467551 0)
(-0.0483898 0.0211949 0)
(-0.0687086 0.0447044 0)
(-0.0890545 0.0661097 0)
(-0.109481 0.0851827 0)
(-0.130053 0.101327 0)
(-0.150903 0.113808 0)
(-0.172194 0.121874 0)
(-0.194099 0.12466 0)
(-0.216597 0.120833 0)
(-0.238483 0.109146 0)
(-0.255323 0.086357 0)
(-0.26536 0.0514047 0)
(-0.266752 0.00621288 0)
(0.218589 -0.698303 0)
(0.219022 -0.62718 0)
(0.211028 -0.545391 0)
(0.195944 -0.460532 0)
(0.17588 -0.378927 0)
(0.152933 -0.304571 0)
(0.128787 -0.239273 0)
(0.104613 -0.183246 0)
(0.0810992 -0.13572 0)
(0.0585494 -0.0954494 0)
(0.036986 -0.0610595 0)
(0.0162421 -0.0312568 0)
(-0.00394248 -0.00493432 0)
(-0.0238361 0.0187429 0)
(-0.0435685 0.0401995 0)
(-0.0631033 0.0593067 0)
(-0.0823677 0.0754458 0)
(-0.101374 0.0878798 0)
(-0.120044 0.0957654 0)
(-0.138442 0.0980222 0)
(-0.156242 0.093823 0)
(-0.172597 0.0831357 0)
(-0.185494 0.0659225 0)
(-0.191946 0.0435025 0)
(-0.189456 0.0170609 0)
(0.248301 -0.690074 0)
(0.252971 -0.629605 0)
(0.249353 -0.558024 0)
(0.238255 -0.481341 0)
(0.22144 -0.405278 0)
(0.200915 -0.333997 0)
(0.178447 -0.269848 0)
(0.155364 -0.213666 0)
(0.132531 -0.165251 0)
(0.110412 -0.123806 0)
(0.0891564 -0.0882754 0)
(0.0686967 -0.0575547 0)
(0.04884 -0.0306082 0)
(0.0293928 -0.00654125 0)
(0.0103319 0.0152847 0)
(-0.00835001 0.0349724 0)
(-0.0265049 0.051826 0)
(-0.0441364 0.0650046 0)
(-0.0611474 0.0736407 0)
(-0.0770061 0.0771421 0)
(-0.0911039 0.0755078 0)