/*--------------------------------*- C++ -*----------------------------------*\
| =========                 |                                                 |
| \\      /  F ield         | OpenFOAM: The Open Source CFD Toolbox           |
|  \\    /   O peration     | Version:  v2012                                 |
|   \\  /    A nd           | Website:  www.openfoam.com                      |
|    \\/     M anipulation  |                                                 |
\*---------------------------------------------------------------------------*/
FoamFile
{
    version     2.0;
    format      ascii;
    class       volScalarField;
    location    "621";
    object      age;
}
// * * * * * * * * * * * * * * * * * * * * * * * * * * * * * * * * * * * * * //

dimensions      [0 0 1 0 0 0 0];


internalField   nonuniform List<scalar> 
6057
(
0.48929
0.464144
0.438997
0.413852
0.38871
0.363572
0.33844
0.313315
0.288196
0.263085
0.237982
0.212888
0.187802
0.162726
0.13766
0.112606
0.0875619
0.0625301
0.0375103
0.0125019
0.487427
0.462448
0.437461
0.41247
0.387475
0.362477
0.337479
0.312479
0.287479
0.262479
0.237479
0.212479
0.18748
0.162482
0.137484
0.112486
0.0874897
0.0624934
0.0374971
0.0124996
0.486961
0.462025
0.43708
0.41213
0.387174
0.362214
0.337251
0.312285
0.287317
0.262346
0.237372
0.212397
0.187419
0.162439
0.137456
0.112471
0.0874828
0.0624917
0.0374972
0.0124997
0.486788
0.461868
0.436939
0.412004
0.387063
0.362118
0.337169
0.312216
0.28726
0.262301
0.237338
0.212372
0.187402
0.162428
0.13745
0.112469
0.0874826
0.0624922
0.0374977
0.0124998
0.486735
0.461818
0.436893
0.411962
0.387025
0.362085
0.337141
0.312193
0.287241
0.262286
0.237327
0.212364
0.187397
0.162425
0.137449
0.112469
0.0874831
0.0624927
0.0374979
0.0124999
0.486758
0.461835
0.436905
0.41197
0.387031
0.362089
0.337143
0.312194
0.287242
0.262286
0.237327
0.212364
0.187397
0.162425
0.137449
0.112469
0.0874831
0.0624927
0.0374979
0.0124999
0.486858
0.461919
0.436975
0.412029
0.38708
0.362129
0.337176
0.312221
0.287263
0.262303
0.237339
0.212372
0.187402
0.162428
0.137451
0.112469
0.0874827
0.0624922
0.0374977
0.0124998
0.487081
0.462108
0.437138
0.412169
0.3872
0.362231
0.337262
0.312293
0.287321
0.262349
0.237374
0.212398
0.18742
0.162439
0.137456
0.112471
0.0874829
0.0624917
0.0374973
0.0124997
0.487594
0.462571
0.43754
0.412523
0.387509
0.3625
0.337493
0.312489
0.287485
0.262483
0.237481
0.212481
0.187481
0.162482
0.137484
0.112486
0.0874897
0.0624934
0.0374971
0.0124996
0.485486
0.465258
0.438873
0.413971
0.38874
0.363603
0.338458
0.313326
0.288203
0.26309
0.237985
0.212889
0.187803
0.162727
0.137661
0.112606
0.0875619
0.0625301
0.0375103
0.0125019
1.02377
0.995775
0.968455
0.941691
0.915382
0.889442
0.863798
0.838389
0.81316
0.788068
0.763075
0.73815
0.713268
0.688409
0.663559
0.638708
0.61385
0.588981
0.564102
0.539212
0.514313
1.01605
0.988504
0.961606
0.93524
0.909308
0.883725
0.858421
0.833334
0.808412
0.783612
0.758896
0.734233
0.709601
0.68498
0.660357
0.635721
0.611069
0.586397
0.561707
0.537
0.512279
1.01259
0.985436
0.958881
0.932812
0.907139
0.881781
0.856673
0.831756
0.806984
0.782315
0.757713
0.733153
0.70861
0.684069
0.659517
0.634947
0.610355
0.585739
0.5611
0.536442
0.511767
1.01098
0.984003
0.957595
0.931655
0.906096
0.880841
0.855827
0.830998
0.806306
0.781711
0.757178
0.732678
0.70819
0.683696
0.659185
0.634649
0.610085
0.585493
0.560875
0.536236
0.511578
1.00991
0.983039
0.95673
0.930883
0.905411
0.88024
0.855304
0.830548
0.805923
0.78139
0.756912
0.732462
0.708015
0.683556
0.659073
0.634557
0.610008
0.585425
0.560813
0.536177
0.511522
1.00926
0.98249
0.956272
0.930507
0.905107
0.879997
0.855116
0.830407
0.805825
0.781328
0.756883
0.732462
0.708039
0.683598
0.659126
0.634617
0.610067
0.585481
0.560861
0.536216
0.511553
1.0094
0.982775
0.956656
0.930952
0.905582
0.880479
0.855586
0.830855
0.806242
0.781711
0.757232
0.732779
0.70833
0.683867
0.659376
0.634847
0.610277
0.585667
0.561023
0.536354
0.51167
1.01194
0.985247
0.959018
0.933173
0.907641
0.882361
0.85728
0.83235
0.807528
0.782783
0.758093
0.733441
0.708814
0.68422
0.659679
0.635134
0.610567
0.585962
0.561313
0.536627
0.511917
1.01059
0.984661
0.959524
0.934972
0.910814
0.886999
0.863329
0.839048
0.814298
0.789154
0.763813
0.738664
0.713425
0.688111
0.662783
0.637538
0.612375
0.587297
0.5623
0.537375
0.512521
1.04863
1.03408
1.0208
1.00777
0.993964
0.978427
0.960431
0.939562
0.91568
0.888904
0.859622
0.828328
0.795572
0.761933
0.727966
0.694126
0.660653
0.627686
0.595307
0.563412
0.531877
10.5934
11.1019
11.6356
12.8301
3.05742
1.90666
1.69459
1.56794
1.48103
1.41267
1.35555
1.30584
1.2614
1.22088
1.18337
1.14824
1.11501
1.08331
1.05288
9.73369
11.2149
11.2803
7.02476
2.18597
1.77674
1.63493
1.53121
1.45496
1.39216
1.3385
1.2911
1.24831
1.20903
1.17251
1.13819
1.10565
1.07456
1.04467
9.33842
10.8134
7.92178
3.37172
1.89861
1.69956
1.5905
1.50312
1.43475
1.37658
1.32592
1.28063
1.23942
1.20138
1.16587
1.1324
1.10057
1.07011
1.04075
8.52225
8.11089
4.42031
2.07313
1.80115
1.65563
1.56259
1.48511
1.4218
1.36689
1.31841
1.27466
1.23458
1.19741
1.16256
1.1296
1.09818
1.06803
1.03893
7.1955
5.49594
2.69887
1.88642
1.74848
1.62949
1.54514
1.47372
1.41371
1.36102
1.31399
1.27123
1.23184
1.19515
1.16064
1.12793
1.09671
1.06671
1.03775
6.0782
3.7742
2.10868
1.83743
1.71809
1.61295
1.53391
1.46637
1.40856
1.35734
1.31125
1.2691
1.2301
1.19366
1.15934
1.12678
1.09569
1.06583
1.03698
5.27524
2.88056
1.97746
1.8135
1.69889
1.6022
1.52671
1.4618
1.4055
1.35518
1.30953
1.26759
1.22873
1.19246
1.15835
1.12603
1.09519
1.06558
1.03695
4.66161
2.43998
1.9356
1.79919
1.68629
1.59533
1.5221
1.45862
1.4028
1.35265
1.30731
1.26607
1.22818
1.19289
1.15956
1.12782
1.09739
1.068
1.03948
4.21444
2.26469
1.91515
1.78953
1.67818
1.591
1.51906
1.45665
1.40225
1.35441
1.31166
1.27195
1.23358
1.19621
1.16086
1.12766
1.09621
1.06632
1.03776
3.89736
2.18848
1.90507
1.78288
1.67324
1.58858
1.51785
1.45708
1.40376
1.35415
1.30455
1.25418
1.20798
1.17573
1.15154
1.12804
1.10608
1.08544
1.06565
14.8414
22.8882
32.0507
41.8286
51.6422
60.9798
69.4281
76.696
82.6193
87.1501
90.3182
92.6306
94.147
95.0181
95.4809
95.7794
95.9687
96.1194
96.5131
96.7439
94.9607
62.5371
77.5774
90.313
100.516
107.957
112.858
115.629
116.857
117.055
116.853
116.442
115.812
115.063
114.297
113.59
112.992
112.537
112.264
112.097
111.982
111.921
107.984
118.116
124.505
128.088
129.803
130.428
130.441
130.043
129.154
127.606
125.605
123.287
120.829
118.417
116.218
114.378
113.011
112.162
111.747
111.585
111.504
136.088
141.776
145.723
148.603
150.593
151.581
151.431
150.119
147.771
144.512
140.499
135.932
131.063
126.182
121.607
117.668
114.656
112.735
111.804
111.474
111.362
158.374
164.683
169.893
173.748
176.047
176.747
175.909
173.622
169.967
165.057
159.048
152.153
144.66
136.94
129.458
122.756
117.394
113.797
111.993
111.401
111.194
182.963
190.868
196.996
201.211
203.524
203.978
202.604
199.451
194.588
188.118
180.191
171.018
160.894
150.229
139.582
129.69
121.411
115.533
112.4
111.396
111.074
209.521
218.396
225.126
229.721
232.174
232.461
230.584
226.585
220.533
212.539
202.756
191.397
178.752
165.231
151.431
138.202
126.664
118.016
113.068
111.443
110.989
236.62
246.427
253.936
259.068
261.729
261.86
259.456
254.56
247.26
237.692
226.038
212.528
197.456
181.224
164.414
147.906
132.982
121.229
114.044
111.537
110.911
263.993
275.005
283.496
289.273
292.187
292.152
289.157
283.26
274.586
263.319
249.692
233.98
216.503
197.661
178.005
158.383
140.122
125.095
115.334
111.68
110.841
291.813
304.291
313.94
320.478
323.696
323.472
319.791
312.744
302.512
289.354
273.583
255.542
235.604
214.183
191.805
169.253
147.808
129.495
116.921
111.867
110.778
320.252
334.446
345.456
352.898
356.478
356.027
351.537
343.142
331.111
315.811
297.665
277.115
254.6
230.568
205.534
180.21
155.778
134.28
118.774
112.094
110.719
349.446
365.644
378.266
386.783
390.791
390.065
384.603
374.613
360.483
342.729
321.926
298.638
273.394
246.683
219.011
191.032
163.808
139.298
120.846
112.354
110.666
379.521
398.066
412.591
422.383
426.894
425.826
419.196
407.311
390.724
370.149
346.354
320.065
291.914
262.431
232.116
201.564
171.723
144.408
123.081
112.642
110.615
410.583
431.863
448.621
459.91
464.999
463.506
455.477
441.351
421.898
398.086
370.927
341.344
310.088
277.735
244.761
211.699
179.391
149.486
125.422
112.949
110.569
442.698
467.133
486.481
499.502
505.244
503.222
493.526
476.773
454.007
426.511
395.593
362.408
327.846
292.524
256.879
221.364
186.719
154.433
127.812
113.269
110.524
475.868
503.898
526.207
541.204
547.667
544.99
533.327
513.524
486.972
455.333
420.26
383.169
345.107
306.727
268.41
230.503
193.639
159.166
130.198
113.594
110.482
510.021
542.086
567.735
584.953
592.195
588.711
574.748
551.447
520.621
484.385
444.783
403.512
361.778
320.271
279.299
239.074
200.106
163.625
132.53
113.917
110.442
544.998
581.53
610.893
630.572
638.633
634.164
617.538
590.269
554.687
513.427
468.964
423.287
377.753
333.081
289.491
247.038
206.085
167.763
134.767
114.23
110.403
580.561
621.962
655.391
677.752
686.651
680.988
661.312
629.6
588.802
542.144
492.556
442.315
392.913
345.078
298.935
254.362
211.552
171.546
136.87
114.528
110.366
616.383
663.004
700.814
726.049
735.774
728.679
705.544
668.93
622.506
570.152
515.264
460.388
407.121
356.179
307.579
261.014
216.487
174.949
138.805
114.804
110.329
652.046
704.161
746.61
774.866
785.369
776.571
749.563
707.621
655.248
597.009
536.76
477.28
420.233
366.297
315.373
266.964
220.871
177.954
140.544
115.052
110.294
687.024
744.811
792.077
823.443
834.629
823.829
792.545
744.92
686.397
622.225
556.687
492.749
432.097
375.345
322.267
272.181
224.687
180.546
142.061
115.268
110.259
720.672
784.181
836.334
870.812
882.524
869.413
833.51
779.967
715.257
645.28
574.679
506.55
442.562
383.233
328.21
276.636
227.916
182.713
143.334
115.447
110.224
752.275
821.363
878.302
915.752
927.752
912.048
871.332
811.82
741.098
665.643
590.37
518.444
451.476
389.875
333.155
280.3
230.539
184.443
144.343
115.585
110.19
781.105
855.376
916.742
956.812
968.755
950.246
904.764
839.495
763.189
682.797
603.41
528.201
458.698
395.185
337.051
283.141
232.535
185.722
145.069
115.676
110.157
806.473
885.291
950.419
992.425
1003.81
982.424
932.53
862.036
780.841
696.268
613.482
535.618
464.096
399.083
339.85
285.128
233.879
186.536
145.494
115.717
110.123
827.727
910.083
977.876
1020.99
1030.88
1007.12
953.455
878.59
793.463
705.653
620.318
540.516
467.557
401.494
341.503
286.224
234.545
186.866
145.606
115.702
110.09
844.301
929.274
999.434
1040.42
1047.28
1023.2
966.618
888.495
800.602
710.644
623.71
542.755
468.983
402.351
341.961
286.393
234.501
186.688
145.398
115.611
110.056
855.797
942.103
1012.13
1046.84
1052.31
1030.08
971.459
891.346
801.98
711.048
623.52
542.235
468.299
401.595
341.175
285.597
233.718
185.982
144.871
115.412
110.022
861.862
947.894
1016.65
1048.18
1050.98
1027.9
967.796
887.019
797.51
706.795
619.686
538.899
465.451
399.176
339.103
283.793
232.155
184.716
144.009
115.109
109.987
862.386
946.603
1012.98
1044.68
1046.34
1017.33
955.773
875.573
787.257
697.927
612.224
532.739
460.414
395.056
335.696
280.933
229.766
182.85
142.789
114.702
109.953
857.385
938.299
1000.85
1032.87
1032.36
997.598
935.843
857.485
771.522
684.628
601.237
523.799
453.187
389.206
330.909
276.963
226.503
180.345
141.183
114.187
109.917
847.052
923.335
980.736
1009.48
1005.1
969.219
908.967
833.42
750.756
667.197
586.904
512.168
443.8
381.612
324.7
271.827
222.309
177.166
139.176
113.571
109.88
831.743
902.322
953.64
977.505
970.232
934.243
876.183
804.161
725.543
646.032
569.477
497.986
432.308
372.273
317.03
265.468
217.13
173.273
136.757
112.866
109.841
811.941
876.048
920.785
939.432
929.631
894.03
838.639
770.624
696.558
621.606
549.263
481.43
418.793
361.201
307.864
257.828
210.912
168.634
133.918
112.093
109.8
788.219
845.393
883.411
897.031
884.995
850.03
797.518
733.745
664.519
594.441
526.612
462.71
403.359
348.421
297.17
248.852
203.608
163.229
130.669
111.281
109.755
761.198
811.254
842.684
851.61
837.63
803.46
753.898
694.433
630.152
565.079
501.896
442.059
386.129
333.969
284.924
238.494
195.187
157.061
127.048
110.471
109.706
731.515
774.5
799.666
804.319
788.671
755.39
708.75
653.537
594.157
534.052
475.49
419.72
367.237
317.885
271.108
226.727
185.653
150.175
123.134
109.673
109.663
699.796
735.944
755.289
756.102
739.049
706.721
662.927
611.824
557.173
501.854
447.75
395.932
346.817
300.212
255.719
213.559
175.059
142.675
119.073
109
109.702
666.63
696.309
710.338
707.753
689.549
658.218
617.158
569.954
519.753
468.915
418.999
370.922
324.992
280.994
238.781
199.06
163.545
134.758
115.138
108.573
109.821
632.548
656.212
665.456
659.906
640.792
610.499
572.041
528.46
482.336
435.586
389.516
344.885
301.866
260.281
220.383
183.415
151.39
126.768
111.905
108.489
110.047
598.01
616.168
621.142
613.048
593.266
564.044
528.019
487.718
445.234
402.137
359.526
317.972
277.514
238.161
200.731
166.987
139.071
119.258
109.479
108.401
110.418
563.402
576.58
577.807
567.569
547.334
519.18
485.361
447.947
408.645
368.76
329.187
290.268
252.004
214.831
180.25
150.401
127.34
113.016
108.15
108.578
111.031
529.028
537.751
535.723
523.706
503.194
476.048
444.159
409.23
372.68
335.579
298.576
261.803
225.472
190.723
159.694
134.631
117.282
109.186
108.001
109.439
111.866
495.104
499.873
495.041
481.562
460.88
434.621
404.375
371.573
337.389
302.625
267.675
232.627
198.291
166.681
140.28
121.057
110.444
107.736
109.08
111.248
112.797
461.744
463.024
455.784
441.081
420.26
394.747
365.91
334.944
302.744
269.824
236.434
202.999
171.33
144.124
123.691
111.47
107.621
109.095
111.838
113.669
113.771
428.959
427.16
417.827
402.059
381.113
356.262
328.67
299.254
268.606
237.043
204.98
173.724
146.198
125.107
112.014
107.577
109.245
113.12
116.384
116.861
114.841
396.665
392.122
380.942
364.26
343.258
319.044
292.524
264.302
234.769
204.312
174.031
146.56
125.34
112.047
107.428
109.437
114.818
120.668
123.082
120.877
115.987
364.74
357.731
344.952
327.552
306.589
282.941
257.216
229.814
201.203
172.273
145.401
124.345
111.569
107.178
109.658
116.727
125.796
131.912
131.626
125.434
117.299
333.094
323.908
309.811
291.869
270.932
247.652
222.413
195.748
168.559
142.789
122.363
110.641
106.976
109.931
118.576
130.79
141.579
145.772
141.068
130.042
118.482
301.765
290.697
275.477
256.996
235.946
212.832
188.094
162.891
138.817
119.452
109.285
106.65
110.081
120.121
134.847
150.012
160.04
160.371
150.226
134.17
119.375
270.854
258.03
241.666
222.547
201.355
178.566
155.261
133.553
115.808
107.446
106.223
110.169
121.271
137.479
155.569
170.954
178.123
173.4
157.785
137.315
119.932
240.19
225.52
208.021
188.422
167.539
146.12
126.778
111.917
105.286
105.591
110.439
122.142
138.528
157.31
175.841
189.398
192.585
182.667
162.619
139.148
120.143
209.286
193.012
174.788
155.447
136.215
118.953
107.739
103.413
104.793
111.152
123.1
138.139
155.283
173.632
190.924
201.543
201.604
186.699
163.835
139.142
120.224
178.381
161.45
143.178
125.942
111.386
103.581
102.047
104.591
112.477
124.171
136.686
150
165.72
182.421
197.008
205.191
198.703
183.675
160.99
137.105
120.301
149.397
132.462
115.701
104.8
100.226
101.085
105.692
114.975
125.806
134.388
142.897
154.075
167.803
180.96
190.452
193.464
187.902
174.039
154.018
133.298
120.38
124.192
107.902
98.888
98.2079
101.457
109.073
118.888
127.38
131.64
134.938
141.922
150.664
160.005
168.573
174.315
175.237
170.182
159.087
143.775
128.565
120.465
102.763
94.107
96.7725
105.574
115.65
124.468
127.207
127.327
128.855
131.688
135.505
140.325
145.447
149.929
152.665
152.601
149.058
142.025
132.818
124.311
120.565
87.0871
97.2498
110.989
124.308
125.979
125.343
125.117
125.13
125.411
126.111
127.288
128.85
130.567
132.073
132.92
132.703
131.146
128.284
124.719
121.73
120.689
82.1611
125.219
124.93
124.491
124.331
124.078
123.853
123.651
123.467
123.309
123.174
123.055
122.948
122.847
122.748
122.644
122.439
122.078
121.645
121.371
121.388
3.67807
2.14843
1.90091
1.7786
1.67079
1.58805
1.51855
1.45812
1.40216
1.34771
1.29941
1.27281
1.27774
1.3637
1.59838
2.11227
3.14757
5.14612
8.80877
3.52764
2.12616
1.90016
1.77649
1.67059
1.58948
1.52049
1.45789
1.39722
1.34393
1.32132
1.3813
1.65649
2.35236
4.12795
8.55597
17.3136
30.1334
45.949
3.42387
2.11424
1.90166
1.77654
1.67256
1.59231
1.52109
1.45185
1.3872
1.35604
1.42865
1.7757
2.9714
7.10087
16.7735
32.8108
53.1866
74.185
93.2245
3.34968
2.10865
1.90484
1.77861
1.67629
1.59519
1.51887
1.44473
1.39344
1.39352
1.551
3.16654
9.29087
23.1315
44.4493
69.6363
93.8366
113.359
127.214
3.29495
2.10726
1.90944
1.78256
1.68112
1.5968
1.51352
1.43962
1.4159
1.52641
2.56721
9.27005
24.9799
49.5683
78.4958
105.431
126.332
140.796
150.791
3.2539
2.1089
1.91538
1.78807
1.68624
1.59686
1.50935
1.44879
1.45378
1.6241
6.71404
22.1842
47.9508
79.7822
110.115
133.762
150.474
162.943
173.561
3.22307
2.11288
1.92256
1.79481
1.69123
1.59611
1.50825
1.47019
1.55251
3.46041
15.7695
40.4781
73.8391
107.996
135.793
155.983
171.636
185.597
198.457
3.20017
2.11875
1.93088
1.80241
1.69574
1.5954
1.51564
1.49782
1.62187
7.92046
28.8764
61.4634
98.7758
131.771
156.6
175.893
193.291
209.712
224.379
3.18361
2.1262
1.94023
1.81065
1.7001
1.59633
1.52737
1.56488
2.68434
15.5476
44.4661
82.5782
120.749
151.46
175.041
195.85
215.869
234.338
250.457
3.17222
2.13501
1.95049
1.81931
1.70472
1.60154
1.55229
1.61735
5.2306
25.5464
60.9263
102.161
139.457
168.538
192.904
216.312
238.698
258.893
276.637
3.16511
2.145
1.96154
1.82846
1.71042
1.60995
1.57734
1.66541
9.32967
36.7996
77.0211
119.528
155.522
184.346
210.826
236.896
261.311
283.356
303.109
3.1616
2.15601
1.9733
1.83791
1.71634
1.62523
1.61983
2.03479
14.8972
48.4384
92.0063
134.675
169.781
199.635
228.748
257.207
283.626
307.881
330.023
3.16114
2.16792
1.98568
1.84788
1.72446
1.64084
1.65854
3.04791
21.5235
59.8338
105.561
147.93
182.903
214.651
246.41
277.074
305.727
332.584
357.47
3.16325
2.18064
1.99862
1.85851
1.73476
1.66112
1.69005
4.64902
28.5219
70.6022
117.649
159.698
195.292
229.363
263.606
296.48
327.696
357.521
385.511
3.16757
2.19406
2.01209
1.86989
1.74703
1.68351
1.72054
6.74114
35.5106
80.5405
128.374
170.319
207.128
243.647
280.226
315.458
349.566
382.694
414.174
3.17381
2.20811
2.02607
1.8821
1.76092
1.70649
1.75114
9.20777
42.25
89.5689
137.893
180.038
218.452
257.383
296.229
334.024
371.317
408.073
443.442
3.18173
2.22272
2.04053
1.89511
1.77618
1.7299
1.78181
11.9312
48.5919
97.689
146.369
189.01
229.24
270.482
311.598
352.161
392.893
433.586
473.244
3.19111
2.23785
2.05547
1.90898
1.79239
1.7525
1.81199
14.7919
54.4518
104.945
153.947
197.326
239.451
282.893
326.317
369.825
414.206
459.122
503.445
3.20179
2.25344
2.07086
1.9234
1.80971
1.7788
1.95229
17.7315
59.7918
111.402
160.743
205.04
249.051
294.586
340.363
386.947
435.141
484.526
533.845
3.2136
2.26945
2.08666
1.93826
1.82954
1.80874
2.18627
20.5599
64.604
117.129
166.847
212.175
258.011
305.541
353.7
403.438
455.56
509.601
564.179
3.22643
2.28585
2.10285
1.95378
1.84866
1.83516
2.48239
23.1858
68.897
122.188
172.326
218.738
266.307
315.739
366.281
419.197
475.297
534.104
594.116
3.24016
2.3026
2.11943
1.96998
1.86773
1.85948
2.81325
25.5723
72.6896
126.633
177.224
224.732
273.922
325.158
378.037
434.087
494.138
557.725
623.24
3.25469
2.31969
2.13638
1.98679
1.887
1.88304
3.15586
27.7031
76.0051
130.512
181.576
230.152
280.836
333.764
388.888
447.957
511.84
580.104
651.048
3.26995
2.33707
2.15368
2.00414
1.90649
1.90622
3.49139
29.5717
78.8676
133.866
185.406
234.994
287.037
341.529
398.762
460.672
528.176
600.882
677.016
3.28588
2.35475
2.17132
2.02197
1.92618
1.92915
3.80485
31.1772
81.3003
136.729
188.734
239.256
292.517
348.43
407.596
472.107
542.931
619.716
700.632
3.30242
2.37269
2.18927
2.04022
1.94604
1.95189
4.08468
32.5225
83.325
139.128
191.573
242.939
297.271
354.447
415.335
482.151
555.909
636.291
721.413
3.31951
2.39089
2.20753
2.05885
1.96606
1.97448
4.32235
33.6126
84.9614
141.088
193.937
246.044
301.299
359.565
421.933
490.711
566.944
650.328
738.929
3.33713
2.40934
2.22608
2.07784
1.98615
1.99694
4.51196
34.4537
86.2269
142.627
195.836
248.577
304.602
363.773
427.354
497.711
575.896
661.596
752.803
3.35526
2.42802
2.2449
2.09714
2.00668
2.01929
4.64987
35.053
87.1374
143.763
197.281
250.542
307.185
367.067
431.573
503.094
582.66
669.915
762.751
3.37388
2.44695
2.264
2.11675
2.02745
2.04156
4.73453
35.4176
87.7057
144.509
198.281
251.946
309.053
369.444
434.574
506.822
587.166
675.163
768.571
3.39292
2.46611
2.28336
2.13665
2.04832
2.06374
4.76509
35.5565
87.9464
144.879
198.843
252.796
310.212
370.907
436.351
508.877
589.372
677.269
770.179
3.41242
2.48545
2.30299
2.15682
2.06931
2.08576
4.77185
35.4661
87.8562
144.872
198.975
253.098
310.671
371.463
436.907
509.259
589.282
676.248
767.578
3.43193
2.50544
2.32278
2.17726
2.09044
2.10762
4.75838
35.154
87.4424
144.489
198.684
252.866
310.436
371.118
436.257
507.988
586.927
672.15
760.868
3.45147
2.52615
2.34274
2.19796
2.1117
2.12934
4.72633
34.6308
86.7125
143.734
197.972
252.107
309.512
369.883
434.422
505.101
582.367
665.084
750.247
3.47105
2.54755
2.36286
2.21891
2.13311
2.15093
4.67735
33.9085
85.6731
142.61
196.844
250.83
307.91
367.774
431.432
500.649
575.693
655.21
735.997
3.49066
2.56962
2.38315
2.24011
2.15467
2.1724
4.61324
33.0007
84.3304
141.12
195.301
249.042
305.642
364.808
427.32
494.696
567.022
642.734
718.469
3.51033
2.59236
2.40361
2.26157
2.17639
2.19377
4.53595
31.9223
82.6904
139.267
193.345
246.748
302.719
361.004
422.126
487.322
556.494
627.895
698.06
3.53007
2.61576
2.42426
2.28328
2.19829
2.21506
4.44747
30.6898
80.7599
137.05
190.976
243.956
299.155
356.384
415.894
478.614
544.267
610.96
675.197
3.54987
2.63985
2.44511
2.30525
2.22037
2.23628
4.34988
29.3206
78.5461
134.47
188.193
240.671
294.964
350.969
408.672
468.669
530.51
592.211
650.319
3.56977
2.66462
2.46617
2.32747
2.24265
2.25745
4.24529
27.8338
76.0584
131.527
184.994
236.9
290.163
344.786
400.508
457.586
515.403
571.937
623.857
3.58975
2.69008
2.48744
2.34995
2.26515
2.27859
4.13579
26.2497
73.308
128.222
181.376
232.647
284.768
337.86
391.453
445.466
499.125
550.42
596.218
3.60984
2.71624
2.50895
2.37268
2.28788
2.29972
4.02342
24.5898
70.3096
124.555
177.337
227.918
278.798
330.222
381.556
432.405
481.845
527.923
567.77
3.63004
2.7431
2.53071
2.39567
2.31085
2.32086
3.91017
22.8764
67.081
120.53
172.872
222.717
272.271
321.901
370.867
418.493
463.719
504.683
538.835
3.65037
2.77066
2.55273
2.41892
2.33409
2.34203
3.79788
21.1328
63.6444
116.155
167.98
217.046
265.206
312.93
359.433
403.808
444.879
480.902
509.679
3.67083
2.79894
2.57502
2.44242
2.35761
2.36326
3.68829
19.3826
60.0272
111.44
162.66
210.908
257.623
303.345
347.3
388.417
425.428
456.735
480.498
3.69144
2.82791
2.5976
2.46617
2.38142
2.38458
3.58295
17.6496
56.2603
106.401
156.913
204.305
249.539
293.182
334.516
372.374
405.445
432.286
451.416
3.7122
2.85758
2.62047
2.49017
2.40554
2.40602
3.48322
15.9571
52.3859
101.064
150.747
197.24
240.972
282.48
321.129
355.731
384.983
407.612
422.48
3.73313
2.88794
2.64366
2.51442
2.42998
2.4276
3.39024
14.3259
48.4248
95.4589
144.175
189.716
231.938
271.279
307.193
338.54
364.082
382.73
393.67
3.75423
2.91896
2.66717
2.53891
2.45474
2.44935
3.30492
12.7982
44.4055
89.6252
137.219
181.745
222.456
259.618
292.768
320.865
342.787
357.648
364.936
3.77551
2.95062
2.69101
2.56364
2.47985
2.47131
3.22792
11.4087
40.3863
83.6111
129.917
173.346
212.544
247.54
277.923
302.783
321.161
332.392
336.239
3.79698
2.98282
2.71516
2.58858
2.50528
2.4935
3.15968
10.1673
36.4351
77.4781
122.318
164.551
202.228
235.086
262.729
284.389
299.295
307.028
307.605
3.81865
3.01579
2.73971
2.61375
2.53105
2.51596
3.10044
9.07381
32.62
71.3017
114.489
155.409
191.546
222.305
247.262
265.78
277.3
281.647
279.141
3.84051
3.04933
2.76475
2.63911
2.55715
2.5387
3.05019
8.12289
29.0041
65.1696
106.519
145.994
180.554
209.254
231.595
247.052
255.28
256.349
250.923
3.86258
3.08316
2.79028
2.66468
2.58355
2.56175
3.00877
7.30613
25.6419
59.1783
98.5149
136.409
169.342
196.011
215.809
228.292
233.299
231.216
222.697
3.88486
3.11714
2.81627
2.69045
2.61024
2.58512
2.97582
6.61306
22.5758
53.4271
90.6044
126.786
158.032
182.689
200.006
209.567
211.474
206.007
193.963
3.90735
3.15117
2.84271
2.71639
2.63719
2.60881
2.95088
6.03193
19.834
48.0113
82.927
117.286
146.791
169.448
184.338
191.023
189.829
180.331
165.485
3.93004
3.18511
2.86954
2.7425
2.66437
2.63283
2.93334
5.55042
17.4294
43.0139
75.6259
108.094
135.831
156.515
169.007
173.028
168.134
155.376
140.089
3.95294
3.21887
2.8967
2.76877
2.69176
2.65717
2.92256
5.15612
15.3606
38.5
68.8379
99.4088
125.398
144.186
154.454
155.58
147.547
134.686
119.528
3.97599
3.25232
2.92413
2.79518
2.7193
2.68181
2.91784
4.83715
13.6118
34.5064
62.6722
91.411
115.749
132.773
141.332
139.077
132.095
119.974
102.041
3.99962
3.28536
2.95176
2.82169
2.74698
2.70678
2.91861
4.58209
12.1663
31.0661
57.238
84.2933
107.171
122.724
129.776
126.514
124.59
108.333
87.5234
4.01826
3.31447
2.9765
2.84542
2.77175
2.72898
2.9226
4.40398
11.0855
28.4074
52.9716
78.6842
100.459
115.138
120.191
122.109
122.611
98.9317
81.2397
4.0367
3.33975
2.9983
2.86633
2.79356
2.74972
2.92909
4.27367
10.2982
26.414
49.7356
74.4385
95.4532
109.887
112.796
125.342
121.913
93.5047
79.8594
4.05497
3.36473
3.02011
2.88727
2.8154
2.77043
2.93787
4.16754
9.63976
24.7094
46.9513
70.8147
91.2864
105.733
108.972
132.499
121.795
94.7472
79.7102
79.6529
79.09
78.7779
78.6327
78.5261
78.4328
78.338
78.2353
78.1217
77.9972
77.8641
77.727
77.5937
77.4753
77.3658
77.2374
77.1058
77.984
80.8739
92.8634
142.16
97.4286
95.2757
93.8493
93.3611
92.9963
92.6636
92.2108
91.5787
90.7285
89.6448
88.3258
86.7842
85.052
83.2048
81.3461
79.5686
77.9522
76.6992
76.3012
76.4661
78.3774
130.935
128.394
127.128
126.682
126.324
125.79
124.845
123.361
121.257
118.495
115.065
110.983
106.295
101.084
95.4973
89.7837
84.3531
79.7939
76.7587
75.6333
75.4042
170.1
169.902
170.263
170.757
170.9
170.421
169.053
166.631
163.052
158.264
152.254
145.046
136.705
127.347
117.174
106.534
96.0224
86.581
79.4875
75.9577
75.0869
211.375
215.133
218.278
220.578
221.772
221.663
220.018
216.669
211.516
204.516
195.678
185.055
172.75
158.924
143.829
127.872
111.746
96.6045
84.2239
76.8852
74.951
253.473
262.027
268.734
273.496
276.234
276.821
275.057
270.798
263.97
254.563
242.633
228.296
211.731
193.185
172.989
151.618
129.814
108.825
90.7277
78.5764
74.837
295.859
309.689
320.509
328.265
332.991
334.577
332.858
327.73
319.153
307.164
291.886
273.521
252.359
228.777
203.24
176.332
148.855
122.076
98.2172
80.9377
74.7408
338.118
357.481
372.781
383.94
391.009
393.861
392.353
386.421
376.066
361.384
342.573
319.937
293.894
264.976
233.829
201.213
168.044
135.605
106.115
83.6934
74.6563
379.889
404.885
424.888
439.757
449.45
453.793
452.648
445.977
433.831
416.381
393.915
366.851
335.739
301.277
264.307
225.81
186.898
148.935
114.084
86.6541
74.5801
420.858
451.516
476.386
495.213
507.777
513.816
513.163
505.79
491.815
471.5
445.261
413.648
377.359
337.245
294.34
249.857
205.159
161.779
121.854
89.6894
74.5101
460.774
497.118
527.029
550.058
565.748
573.693
573.646
565.576
549.676
526.342
496.159
459.858
418.304
372.503
323.648
273.165
222.688
173.997
129.275
92.7048
74.4447
499.46
541.541
576.7
604.21
623.321
633.405
634.078
625.283
607.304
580.719
546.348
505.166
458.244
406.744
351.995
295.586
239.405
185.528
136.269
95.6387
74.3829
536.792
584.694
625.345
657.663
680.536
693.026
694.54
684.97
664.709
634.573
595.698
549.38
496.949
439.744
379.196
317.004
255.26
196.351
142.802
98.452
74.3239
572.675
626.508
672.919
710.412
737.429
752.622
755.115
744.706
721.923
687.886
644.139
592.383
534.272
471.343
405.113
337.329
270.219
206.464
148.866
101.121
74.2673
607.025
666.9
719.347
762.399
793.971
812.194
815.814
804.5
778.934
740.618
691.603
634.086
570.109
501.435
429.651
356.496
284.262
215.879
154.466
103.632
74.2124
639.738
705.757
764.496
813.492
850.038
871.637
876.551
864.263
835.642
792.661
737.983
674.393
604.376
529.943
452.742
374.459
297.374
224.608
159.614
105.978
74.1591
670.689
742.913
808.164
863.461
905.401
930.735
937.121
923.795
891.847
843.82
783.114
713.181
636.988
556.808
474.343
391.191
309.55
232.667
164.327
108.155
74.1071
699.716
778.153
850.075
911.982
959.712
989.144
997.196
982.776
947.232
893.807
826.761
750.284
667.845
581.975
494.422
406.673
320.789
240.073
168.622
110.163
74.0562
726.625
811.21
889.875
958.627
1012.51
1046.4
1056.32
1040.76
1001.37
942.236
868.619
785.494
696.827
605.385
512.956
420.898
331.095
246.842
172.519
112.005
74.0063
751.187
841.766
927.14
1002.87
1063.2
1101.9
1113.92
1097.18
1053.71
988.625
908.314
818.559
723.791
626.974
529.924
433.865
340.478
252.993
176.035
113.682
73.9572
773.149
869.457
961.379
1044.1
1111.07
1154.92
1169.28
1151.35
1103.59
1032.41
945.425
849.199
748.575
646.671
545.309
445.585
348.954
258.545
179.19
115.199
73.9089
792.252
893.893
992.045
1081.59
1155.31
1204.58
1221.55
1202.43
1150.24
1072.97
979.506
877.136
771.038
664.427
559.119
456.082
356.548
263.521
182.003
116.562
73.8611
808.238
914.675
1018.55
1114.57
1194.93
1249.84
1269.68
1249.45
1192.8
1109.65
1010.15
902.158
791.108
680.257
571.402
465.405
363.297
267.945
184.491
117.775
73.8139
820.876
931.434
1040.34
1142.22
1228.88
1289.44
1312.38
1291.23
1230.37
1141.85
1037
924.109
808.744
694.185
582.21
473.605
369.234
271.839
186.672
118.843
73.7673
829.979
943.876
1056.95
1163.86
1256.22
1322.19
1348.1
1326.45
1262.16
1169.08
1059.8
942.835
823.87
706.191
591.558
480.71
374.384
275.219
188.557
119.77
73.7211
835.427
951.806
1068.07
1178.99
1276.11
1346.22
1373.37
1353.33
1287.46
1190.93
1078.26
958.153
836.383
716.227
599.438
486.732
378.761
278.096
190.156
120.558
73.6753
837.156
955.134
1073.53
1187.29
1287.94
1360.78
1388.54
1371.21
1305.53
1206.92
1092.05
969.855
846.148
724.218
605.818
491.663
382.367
280.474
191.474
121.208
73.6299
835.161
953.841
1073.26
1188.53
1291.28
1366.83
1400.93
1380.64
1315.66
1216.59
1100.88
977.725
853.022
730.074