/*--------------------------------*- C++ -*----------------------------------*\
| =========                 |                                                 |
| \\      /  F ield         | OpenFOAM: The Open Source CFD Toolbox           |
|  \\    /   O peration     | Version:  v2012                                 |
|   \\  /    A nd           | Website:  www.openfoam.com                      |
|    \\/     M anipulation  |                                                 |
\*---------------------------------------------------------------------------*/
FoamFile
{
    version     2.0;
    format      ascii;
    class       volScalarField;
    location    "621";
    object      k;
}
// * * * * * * * * * * * * * * * * * * * * * * * * * * * * * * * * * * * * * //

dimensions      [0 2 -2 0 0 0 0];


internalField   nonuniform List<scalar> 
6057
(
0.0463012
0.0499635
0.0541255
0.0588815
0.0643549
0.070706
0.0781461
0.0869585
0.0975313
0.110408
0.126374
0.146595
0.172873
0.208116
0.257264
0.329249
0.44148
0.631147
0.98721
1.75461
0.113668
0.122873
0.133286
0.145133
0.158697
0.174335
0.192508
0.213819
0.23907
0.26935
0.30616
0.351625
0.408827
0.482367
0.579325
0.710968
0.895855
1.16549
1.57405
2.21025
0.151225
0.163475
0.177309
0.193008
0.210928
0.231515
0.255338
0.283122
0.315819
0.354685
0.401417
0.458336
0.528695
0.617131
0.730417
0.878656
1.07725
1.35014
1.73523
2.29384
0.173093
0.187116
0.20293
0.220849
0.241261
0.264649
0.291623
0.322953
0.359632
0.402946
0.454596
0.51686
0.592847
0.686879
0.805098
0.956456
1.15438
1.41977
1.7868
2.31561
0.183395
0.198261
0.215011
0.233972
0.255545
0.280228
0.308642
0.341569
0.380002
0.425222
0.478897
0.543233
0.6212
0.716884
0.836045
0.98707
1.18269
1.44322
1.80312
2.32503
0.183327
0.19821
0.214973
0.233944
0.255524
0.280212
0.30863
0.34156
0.379996
0.425218
0.478894
0.54323
0.621199
0.716883
0.836044
0.987069
1.18269
1.44322
1.80312
2.32503
0.172889
0.186967
0.202821
0.220769
0.241202
0.264607
0.291592
0.322932
0.359616
0.402934
0.454587
0.516854
0.592843
0.686876
0.805096
0.956455
1.15438
1.41977
1.7868
2.31561
0.150888
0.163244
0.177143
0.19289
0.210844
0.231456
0.255295
0.283092
0.315796
0.354669
0.401405
0.458328
0.528688
0.617127
0.730414
0.878654
1.07725
1.35014
1.73523
2.29384
0.113205
0.122594
0.133095
0.145003
0.158606
0.17427
0.192461
0.213785
0.239046
0.269332
0.306147
0.351615
0.40882
0.482362
0.579321
0.710966
0.895854
1.16549
1.57405
2.21025
0.046167
0.0498789
0.0540676
0.058841
0.064326
0.0706851
0.0781308
0.0869474
0.0975231
0.110402
0.12637
0.146591
0.17287
0.208114
0.257262
0.329248
0.441479
0.631147
0.98721
1.75461
0.0145617
0.015356
0.016169
0.0170048
0.0178679
0.0187636
0.0196978
0.0206774
0.0217102
0.0228053
0.0239728
0.0252244
0.0265734
0.028035
0.0296264
0.0313635
0.0332624
0.0353498
0.0376575
0.0402221
0.0430861
0.0326859
0.0346772
0.0367347
0.0388672
0.0410837
0.0433945
0.0458118
0.04835
0.051026
0.0538596
0.0568742
0.0600968
0.063559
0.0672972
0.0713533
0.0757662
0.0805982
0.0859129
0.0917836
0.0982957
0.105549
0.044379
0.0468632
0.0494467
0.0521427
0.0549643
0.0579261
0.0610448
0.0643397
0.0678331
0.071551
0.0755236
0.079786
0.0843787
0.0893488
0.0947455
0.100635
0.107089
0.11419
0.122033
0.130727
0.140404
0.0517534
0.0544208
0.0572164
0.0601558
0.0632545
0.0665295
0.0699999
0.0736877
0.077618
0.0818199
0.0863272
0.0911789
0.0964202
0.102103
0.108287
0.115045
0.122455
0.13061
0.139615
0.149593
0.160692
0.0559631
0.0586003
0.0613857
0.0643367
0.0674704
0.0708054
0.0743631
0.0781671
0.0822447
0.086627
0.0913494
0.0964526
0.101983
0.107995
0.114555
0.121735
0.129614
0.138285
0.147855
0.158455
0.170238
0.0575103
0.0599234
0.0624916
0.0652333
0.068167
0.0713135
0.0746964
0.0783426
0.0822818
0.0865474
0.0911762
0.0962096
0.101694
0.107684
0.114253
0.121463
0.129385
0.1381
0.147708
0.15834
0.170148
0.0567278
0.0587356
0.0608855
0.0631938
0.0656791
0.0683639
0.0712747
0.074443
0.0779044
0.0816991
0.0858681
0.0904564
0.0955121
0.101096
0.107284
0.114135
0.121714
0.13003
0.139164
0.149246
0.160423
0.0541112
0.0556011
0.0571942
0.0588974
0.0607209
0.0626812
0.0648023
0.067116
0.0696678
0.0725096
0.0756997
0.0793018
0.0833762
0.0879811
0.0932048
0.0991091
0.105753
0.113138
0.12125
0.130143
0.13996
0.0506192
0.0516754
0.0527862
0.0539343
0.055104
0.0562846
0.0574715
0.0586691
0.0598927
0.0611706
0.0625533
0.0641923
0.066194
0.0686563
0.071662
0.0753099
0.0796534
0.0848275
0.0908165
0.0975528
0.105022
0.0472819
0.0481669
0.0490824
0.0499896
0.0508485
0.0516168
0.0522453
0.0526748
0.0528324
0.0526334
0.0519873
0.0508122
0.049001
0.0464367
0.0438785
0.0417267
0.0401982
0.0394729
0.0396991
0.0408561
0.0429231
0.00102823
0.000906166
0.000925518
0.0011989
0.00225128
0.00329276
0.00427572
0.00519536
0.00604075
0.00684851
0.00763445
0.00840673
0.00917081
0.00993065
0.0106894
0.0114499
0.0122148
0.0129865
0.0137679
0.00181552
0.00224202
0.00380644
0.00574815
0.00723721
0.00851355
0.00987749
0.0114817
0.0131887
0.0148647
0.0165369
0.0182159
0.0199091
0.0216231
0.0233642
0.0251385
0.026952
0.0288106
0.0307202
0.00276479
0.0052917
0.00717258
0.00901269
0.0105948
0.0123406
0.0145186
0.0169839
0.0194394
0.0218025
0.0240917
0.0263212
0.0285119
0.0306849
0.0328605
0.0350577
0.0372935
0.0395835
0.0419418
0.00411387
0.00799841
0.00995561
0.0117286
0.0136228
0.016037
0.0189481
0.0220012
0.0249229
0.0276661
0.0302453
0.0326908
0.0350427
0.0373406
0.0396215
0.0419176
0.0442571
0.0466637
0.0491577
0.00559305
0.0105232
0.0124116
0.014292
0.0166383
0.0196596
0.0230685
0.0264485
0.0295887
0.0324614
0.0350901
0.037524
0.0398209
0.0420368
0.0442221
0.0464201
0.0486666
0.0509911
0.0534177
0.00681082
0.0127222
0.0147182
0.0168431
0.01965
0.0231137
0.0267863
0.0302791
0.0334356
0.0362434
0.0387415
0.0409957
0.0430783
0.045058
0.0469953
0.0489413
0.0509368
0.0530144
0.0551997
0.00776145
0.0146876
0.0169258
0.0193769
0.0225681
0.0262918
0.030034
0.0334673
0.0364775
0.039068
0.0412939
0.0432348
0.0449746
0.0465924
0.0481565
0.0497228
0.0513349
0.0530253
0.0548178
0.00858612
0.0164308
0.0190297
0.0218305
0.0252984
0.0291155
0.0327753
0.0360103
0.0387431
0.0409941
0.0428333
0.0443529
0.0456487
0.0468094
0.047911
0.0490138
0.0501618
0.0513842
0.0526983
0.00929674
0.0179838
0.0210101
0.0241369
0.0277681
0.0315439
0.0349988
0.0379244
0.0402735
0.0420871
0.0434507
0.0444721
0.0452619
0.0459231
0.0465426
0.0471875
0.0479025
0.0487113
0.0496198
0.00990056
0.0193808
0.0228467
0.0262422
0.0299338
0.0335581
0.036713
0.0392378
0.0411191
0.0424221
0.0432526
0.0437397
0.0440169
0.0442079
0.0444157
0.0447152
0.0451497
0.0457328
0.0464532
0.0438643
0.0445365
0.045173
0.0457405
0.0462182
0.0465972
0.0468691
0.0470236
0.0470393
0.046862
0.046345
0.0456087
0.0446418
0.0433392
0.0414836
0.0386069
0.0339361
0.0265848
0.0188625
0.0129352
0.00776533
0.0387889
0.0384342
0.0377806
0.0367997
0.0354866
0.033852
0.0319127
0.0296886
0.0272193
0.0248937
0.0228543
0.0208305
0.0186439
0.0164973
0.014512
0.0127494
0.0107329
0.00815702
0.00557849
0.00305651
0.00132831
0.0313564
0.0294355
0.0271157
0.0244982
0.0217276
0.0189693
0.0164044
0.0142797
0.0128247
0.0116744
0.0107683
0.00992826
0.00910934
0.00832362
0.0075447
0.00673468
0.00583956
0.00481892
0.00369836
0.00240473
0.00103528
0.0229598
0.0200807
0.0171992
0.0145614
0.0123725
0.0107505
0.00970954
0.0091447
0.00878964
0.00852681
0.00829648
0.00804884
0.0077509
0.00737628
0.00689754
0.00629945
0.00558361
0.00473037
0.00370887
0.00249846
0.00116864
0.0159365
0.0133562
0.0112869
0.00981913
0.00891466
0.00845106
0.00829111
0.00825728
0.0082646
0.008269
0.00824154
0.00815556
0.00798407
0.00769785
0.00726912
0.00670157
0.00598445
0.00509682
0.00401079
0.00275156
0.0013304
0.0115379
0.00991493
0.0088909
0.0083472
0.00813627
0.00813161
0.00823184
0.0083592
0.00847876
0.00856753
0.00860477
0.00856844
0.00843414
0.00817486
0.0077641
0.00719766
0.00646182
0.00552899
0.00438267
0.00304236
0.00149645
0.00936007
0.00854686
0.00816215
0.00806082
0.0081275
0.00828252
0.00846956
0.00865341
0.0088145
0.00893585
0.00899948
0.00898529
0.00887044
0.00862998
0.00823511
0.00767512
0.00693171
0.00596962
0.00477243
0.00334247
0.00166164
0.0084441
0.00810934
0.00804446
0.00813899
0.00831834
0.00853504
0.0087566
0.00896415
0.00914347
0.00927982
0.00935705
0.0093564
0.00925611
0.00903213
0.0086569
0.00811098
0.00737155
0.0063968
0.00516064
0.00364346
0.00182441
0.00811947
0.00804496
0.0081387
0.00832435
0.00855411
0.00879812
0.00903605
0.00925516
0.00944317
0.00958711
0.00967212
0.00968062
0.00959196
0.00938299
0.00902786
0.0085009
0.00777342
0.00680014
0.00553851
0.00394296
0.00198453
0.00805948
0.00812856
0.00830559
0.00853802
0.00879357
0.00905237
0.00929978
0.009525
0.00971722
0.00986461
0.00995337
0.00996715
0.00988669
0.00969001
0.00935293
0.0088468
0.00813746
0.00717611
0.00590242
0.00424061
0.00214226
0.00811942
0.0082722
0.00849734
0.00875719
0.00902889
0.00929794
0.00955174
0.00978058
0.00997451
0.0101225
0.0102116
0.0102269
0.0101505
0.00996236
0.00963914
0.009153
0.00846606
0.00752478
0.00625152
0.00453683
0.00229809
0.00823626
0.00844204
0.00869846
0.00897742
0.00926171
0.0095391
0.00979794
0.0100291
0.0102231
0.0103694
0.0104561
0.0104693
0.010393
0.0102089
0.00989576
0.00942677
0.00876385
0.00784842
0.00658654
0.00483234
0.00245258
0.00838287
0.00862555
0.00890512
0.00919981
0.00949516
0.00977993
0.010043
0.0102756
0.0104683
0.0106113
0.0106933
0.0107014
0.0106213
0.0104369
0.0101295
0.00967477
0.00903573
0.00815024
0.00690908
0.00512802
0.00260636
0.00854776
0.00881865
0.00911754
0.00942628
0.00973157
0.0100229
0.0102895
0.0105224
0.0107128
0.0108511
0.0109264
0.010927
0.01084
0.0106515
0.0103458
0.00990212
0.00928619
0.00843366
0.00722118
0.00542482
0.00276004
0.00872641
0.00902076
0.00933668
0.0096579
0.00997204
0.0102689
0.0105377
0.0107699
0.0109567
0.0110889
0.0111562
0.0111477
0.0110515
0.0108558
0.0105484
0.0101129
0.00951917
0.00870203
0.00752506
0.00572377
0.00291431
0.00891733
0.00923196
0.00956281
0.00989492
0.0102164
0.0105172
0.0107866
0.0110164
0.0111982
0.0113232
0.0113816
0.0113628
0.011256
0.0110511
0.0107396
0.0103102
0.00973795
0.00895845
0.00782295
0.00602592
0.00306985
0.00911974
0.00945194
0.0097956
0.0101366
0.0104633
0.0107657
0.0110336
0.0112591
0.0114345
0.0115513
0.0116
0.0115704
0.0114523
0.0112374
0.0109203
0.0104958
0.00994508
0.00920563
0.00811706
0.00633237
0.0032274
0.00933278
0.00967992
0.0100339
0.0103813
0.0107105
0.0110119
0.0112756
0.0114947
0.011662
0.0117696
0.0118082
0.0117677
0.0116385
0.0114134
0.0110907
0.0106709
0.0101425
0.0094459
0.00840947
0.00664426
0.00338775
0.00955503
0.00991433
0.0102759
0.0106266
0.0109552
0.0112524
0.0115092
0.0117196
0.0118772
0.0119746
0.0120028
0.0119518
0.011812
0.0115777
0.0112501
0.0108359
0.0103315
0.00968127
0.00870217
0.00696274
0.0035518
0.00978403
0.0101526
0.0105187
0.0108695
0.0111943
0.011484
0.011731
0.0119305
0.0120767
0.012163
0.0121806
0.0121196
0.0119705
0.0117285
0.0113976
0.010991
0.0105133
0.00991346
0.00899704
0.00728901
0.00372053
0.010016
0.0103913
0.0107591
0.0111068
0.0114243
0.0117033
0.0119379
0.0121243
0.0122579
0.0123322
0.0123392
0.0122689
0.0121119
0.0118642
0.0115325
0.0111361
0.0106887
0.010144
0.0092959
0.00762431
0.00389508
0.0102461
0.0106263
0.0109932
0.0113351
0.0116425
0.0119078
0.0121275
0.012299
0.0124185
0.0124804
0.0124767
0.0123979
0.0122347
0.0119837
0.0116541
0.0112715
0.0108586
0.0103745
0.00960051
0.00796997
0.00407679
0.0104698
0.0108531
0.0112177
0.0115513
0.011846
0.0120952
0.012298
0.0124531
0.0125576
0.0126064
0.0125922
0.0125058
0.0123382
0.0120865
0.0117623
0.0113973
0.0110239
0.0106063
0.0099126
0.00832742
0.00426725
0.0106829
0.0110685
0.0114295
0.0117532
0.0120331
0.0122644
0.0124486
0.0125861
0.0126747
0.0127101
0.0126857
0.0125927
0.0124226
0.0121729
0.0118575
0.0115144
0.0111858
0.010841
0.0102339
0.00869797
0.00446836
0.0108861
0.0112705
0.0116258
0.0119391
0.0122025
0.0124147
0.0125792
0.012698
0.0127702
0.0127922
0.0127582
0.01266
0.0124893
0.0122441
0.011941
0.0116242
0.0113459
0.0110803
0.010566
0.0090829
0.00468249
0.0110794
0.0114599
0.0118065
0.0121066
0.0123536
0.0125456
0.0126897
0.0127895
0.0128453
0.0128544
0.0128117
0.0127097
0.0125404
0.0123023
0.0120147
0.0117286
0.0115062
0.0113262
0.0109106
0.00948293
0.00491267
0.0112626
0.0116364
0.0119717
0.0122562
0.0124842
0.0126566
0.0127804
0.0128618
0.0129019
0.0128992
0.0128494
0.0127454
0.0125793
0.0123507
0.0120815
0.0118302
0.0116692
0.0115807
0.0112693
0.00989898
0.00516286
0.0114352
0.0117996
0.0121211
0.0123877
0.0125953
0.012747
0.012852
0.0129163
0.0129427
0.0129303
0.0128756
0.0127716
0.0126105
0.0123932
0.0121451
0.0119326
0.011838
0.0118465
0.0116456
0.0103382
0.00542944
0.0115967
0.0119492
0.0122547
0.0125017
0.0126879
0.0128195
0.0129068
0.0129565
0.012972
0.012953
0.012896
0.012794
0.0126394
0.0124349
0.0122105
0.0120398
0.0120158
0.0121278
0.0120448
0.0108046
0.00570788
0.0117476
0.0120856
0.0123735
0.0126
0.0127649
0.0128775
0.0129491
0.0129877
0.0129963
0.0129746
0.0129186
0.0128206
0.0126735
0.012482
0.0122813
0.0121544
0.0122051
0.0124274
0.0124712
0.011298
0.00599968
0.0118892
0.0122104
0.0124785
0.0126841
0.0128299
0.0129266
0.0129863
0.0130182
0.0130245
0.013004
0.0129517
0.0128591
0.0127194
0.01254
0.0123624
0.0122804
0.0124097
0.0127481
0.0129276
0.0118233
0.00630465
0.0120208
0.0123238
0.0125728
0.0127597
0.0128896
0.0129738
0.0130271
0.0130574
0.013066
0.0130504
0.013004
0.0129173
0.012784
0.0126147
0.012459
0.0124225
0.0126336
0.0130936
0.0134145
0.0123824
0.00662278
0.0121456
0.0124302
0.0126616
0.0128331
0.0129512
0.0130281
0.0130808
0.0131149
0.0131305
0.0131231
0.0130842
0.013003
0.012874
0.0127121
0.0125762
0.0125854
0.0128807
0.0134671
0.0139363
0.012977
0.00695419
0.0122675
0.0125345
0.012751
0.012911
0.013022
0.0130984
0.0131569
0.0132005
0.0132275
0.0132312
0.0132004
0.0131232
0.0129954
0.0128375
0.0127191
0.012774
0.0131551
0.013871
0.0144936
0.0136076
0.00729802
0.0123914
0.0126423
0.0128472
0.0130008
0.0131106
0.0131942
0.0132651
0.013324
0.0133667
0.0133832
0.01336
0.013284
0.0131533
0.0129953
0.012892
0.0129927
0.0134605
0.0143071
0.0150861
0.0142727
0.00765208
0.0125229
0.01276
0.0129577
0.0131111
0.0132267
0.0133253
0.0134154
0.0134952
0.0135567
0.0135868
0.013569
0.0134899
0.013351
0.0131883
0.0130981
0.0132449
0.0137993
0.0147751
0.0157095
0.0149669
0.00801246
0.012668
0.0128946
0.0130904
0.0132508
0.0133805
0.013502
0.013618
0.0137231
0.0138053
0.0138475
0.013831
0.0137429
0.0135895
0.0134175
0.0133391
0.013533
0.0141725
0.0152719
0.0163544
0.0156799
0.00837297
0.0128338
0.0130539
0.0132538
0.0134283
0.0135828
0.0137349
0.0138827
0.0140161
0.0141184
0.0141688
0.0141469
0.0140418
0.0138667
0.0136812
0.0136146
0.0138571
0.0145784
0.0157891
0.017002
0.0163943
0.00872466
0.0130288
0.0132472
0.0134584
0.0136566
0.0138452
0.014035
0.0142184
0.0143802
0.0144988
0.0145501
0.0145132
0.0143813
0.0141767
0.0139745
0.0139217
0.0142151
0.0150119
0.0163109
0.01762
0.0170851
0.00905573
0.0132631
0.0134856
0.0137164
0.0139484
0.0141795
0.0144121
0.0146322
0.0148186
0.0149454
0.014986
0.0149213
0.0147507
0.0145091
0.0142892
0.0142547
0.0146019
0.0154637
0.0168149
0.0181794
0.017722
0.0093504
0.013548
0.0137823
0.0140432
0.014318
0.0145976
0.0148748
0.015128
0.0153301
0.0154515
0.0154653
0.0153565
0.0151344
0.0148494
0.0146144
0.0146058
0.01501
0.0159218
0.0172797
0.0186877
0.0182682
0.00958258
0.0138965
0.0141525
0.014459
0.0147817
0.0151113
0.0154292
0.0157056
0.0159076
0.0160036
0.0159695
0.0157977
0.0155114
0.0151803
0.0149381
0.0149666
0.0154298
0.0163728
0.0177242
0.0191341
0.0187161
0.00975278
0.0143235
0.0146119
0.0149734
0.0153522
0.0157302
0.0160776
0.0163586
0.0165364
0.0165806
0.016473
0.0162181
0.015858
0.0154845
0.0152512
0.0153306
0.015851
0.0167904
0.0181334
0.0195067
0.0190544
0.00984035
0.0148462
0.0151815
0.0156074
0.0160433
0.0164596
0.0168162
0.0170725
0.017193
0.0171523
0.0169432
0.0165876
0.0161513
0.0157506
0.0155538
0.015697
0.0162676
0.0171864
0.0184871
0.0197786
0.0192256
0.00984654
0.0154854
0.0158905
0.0163819
0.0168646
0.017297
0.0176302
0.0178221
0.017843
0.0176802
0.0173436
0.0168778
0.0163782
0.0159856
0.0158411
0.0160665
0.0166597
0.0175399
0.018754
0.0199119
0.0191939
0.00977043
0.0162632
0.0167574
0.0173089
0.0178158
0.0182272
0.0184902
0.0185674
0.0184412
0.0181198
0.017639
0.0170717
0.0165472
0.016207
0.0161609
0.0164621
0.0170255
0.0178181
0.018888
0.0198585
0.0189393
0.0096213
0.0172075
0.0177944
0.0183901
0.0188824
0.0192182
0.0193494
0.0192525
0.0189328
0.0184278
0.0178081
0.01718
0.0167098
0.0164709
0.01654
0.0168733
0.0173316
0.0179589
0.0188214
0.0195491
0.0183346
0.00936907
0.018368
0.0190251
0.0196172
0.0200314
0.0202168
0.0201417
0.0198094
0.0192613
0.0185765
0.0178653
0.0172641
0.0169085
0.0168384
0.0169908
0.0172309
0.0174802
0.0178547
0.0184586
0.0188897
0.0175019
0.00902269
0.0197373
0.0204361
0.0209526
0.0211994
0.0211422
0.0207819
0.0201658
0.0193884
0.0185797
0.0178855
0.0174373
0.0172929
0.0173465
0.017432
0.0173898
0.0172989
0.0173575
0.0176965
0.0178531
0.0164475
0.00853474
0.0213304
0.021991
0.0223223
0.022286
0.0218843
0.0211729
0.0202654
0.0193246
0.0185259
0.0180149
0.0178401
0.0178616
0.0178507
0.0175881
0.0170839
0.0165686
0.0163389
0.0164688
0.0165899
0.0152619
0.00794453
0.0231213
0.0236009
0.0236011
0.0231466
0.0223097
0.0212298
0.0201087
0.0191705
0.0185933
0.0184253
0.0184725
0.0184216
0.017977
0.0170941
0.0160302
0.0151739
0.0148098
0.0148753
0.0151188
0.0139917
0.00728819
0.0250039
0.0251047
0.0245947
0.023594
0.0222898
0.0209343
0.019808
0.0191361
0.0190058
0.0191238
0.0190663
0.0184152
0.0171588
0.0155994
0.0141755
0.0132158
0.0129139
0.0131718
0.0136029
0.0126966
0.00659197
0.0267918
0.0262529
0.0250422
0.0234382
0.0217762
0.0204142
0.0196111
0.0195178
0.0197659
0.0196993
0.0188521
0.0171646
0.0150883
0.0132138
0.0118335
0.0110715
0.0109468
0.0115333
0.0121439
0.0114145
0.00586715
0.0281246
0.026668
0.0246631
0.0225894
0.0209208
0.0199693
0.0199098
0.0202745
0.0202461
0.0191964
0.0170206
0.0143782
0.0121114
0.0105238
0.00955849
0.0091701
0.00935556
0.0101173
0.0107623
0.0100547
0.00519361
0.028481
0.0259352
0.0233152
0.0212236
0.0200929
0.0201079
0.0205351
0.0205607
0.0193151
0.0165784
0.013341
0.0107229
0.00908828
0.00821997
0.00778288
0.00776136
0.00816118
0.00888567
0.00938794
0.00863438
0.00457936
0.0272592
0.0238296
0.0212239
0.0198389
0.0199403
0.0203999
0.0203878
0.0189195
0.0156414
0.0118156
0.00896939
0.00738903
0.00677836
0.00663493
0.00660962
0.00675903
0.00719287
0.00775156
0.0080298
0.00722779
0.00399358
0.0241125
0.0206529
0.0191251
0.019139
0.0195308
0.019356
0.0174336
0.0138224
0.00973542
0.00675278
0.00559719
0.00534085
0.00542858
0.00559193
0.00573896
0.00595094
0.00629371
0.00664299
0.00670399
0.00591846
0.00341514
0.0193281
0.0173736
0.0172074
0.0173464
0.0166479
0.01438
0.0103002
0.00700474
0.00482479
0.00391713
0.00387909
0.00410821
0.00438047
0.00462066
0.00483703
0.00506401
0.00532093
0.00552341
0.00547995
0.00480659
0.00281803
0.0141217
0.0131267
0.0130612
0.0115208
0.0089317
0.00649845
0.00427933
0.00281231
0.00228958
0.0023203
0.00255468
0.00284171
0.00313172
0.00340802
0.00367451
0.00394266
0.0042078
0.004413
0.00441975
0.00389584
0.00215789
0.00816782
0.00260861
0.00243815
0.00225678
0.00186301
0.00140405
0.00101717
0.000900185
0.000959254
0.00108516
0.00123126
0.00138315
0.00153808
0.0016986
0.00187197
0.00207167
0.00226481
0.00240086
0.00240822
0.00216017
0.00131498
0.0104452
0.0206953
0.0245977
0.0281913
0.0318504
0.0352201
0.0379803
0.0400151
0.0413457
0.0420686
0.0423209
0.0422616
0.0420541
0.0418457
0.0417499
0.0418355
0.0421231
0.0425919
0.043193
0.0109133
0.0218411
0.0261351
0.0298484
0.0333848
0.0364286
0.0387351
0.0402315
0.0409767
0.0411048
0.0407924
0.0402346
0.0396214
0.0391073
0.0387853
0.0386744
0.0387249
0.0388386
0.0388972
0.0113209
0.0228147
0.0274439
0.0312
0.0345359
0.0372032
0.0390177
0.0399519
0.0401084
0.0396646
0.0388384
0.0378578
0.03692
0.0361498
0.0355707
0.0351063
0.0346088
0.0339067
0.0328514
0.0116608
0.0236017
0.0285239
0.0322486
0.0353246
0.0375825
0.0388857
0.0392573
0.0388483
0.0378841
0.0366203
0.0352993
0.0340923
0.03305
0.0320922
0.0310436
0.0297032
0.0279205
0.0256472
0.0119353
0.0242161
0.0293705
0.0329945
0.0357829
0.0376132
0.0384054
0.0382369
0.0373118
0.0359021
0.0342899
0.0327031
0.0312481
0.029875
0.0284091
0.0266398
0.0244283
0.0217793
0.0188563
0.0121496
0.0246652
0.0299731
0.0334652
0.035948
0.0373486
0.0376495
0.0369853
0.035615
0.0338506
0.031979
0.030182
0.028474
0.0267117
0.0246871
0.0222644
0.019481
0.0165549
0.0138085
0.0123076
0.0249603
0.030353
0.0336924
0.0358617
0.0368463
0.036693
0.0355958
0.0338665
0.0318427
0.0297899
0.0278157
0.02584
0.0236706
0.0211587
0.0183395
0.0154521
0.0128369
0.0107709
0.0124137
0.0251169
0.030539
0.0337099
0.0355692
0.036165
0.0356088
0.0341543
0.0321586
0.0299651
0.0277907
0.0256538
0.0234032
0.0208683
0.0180445
0.0151606
0.0125692
0.0105546
0.00920643
0.0124723
0.0251515
0.0305587
0.0335523
0.0351156
0.0353607
0.0344636
0.0327342
0.0305625
0.0282752
0.0260178
0.0237215
0.0212084
0.0184031
0.0154835
0.0128099
0.0107066
0.00929021
0.00848198
0.0124885
0.025081
0.0304386
0.0332539
0.0345436
0.0344844
0.0333139
0.0313924
0.0291266
0.0268032
0.0244828
0.0220269
0.0192857
0.0163321
0.0135048
0.0111905
0.00958323
0.00863659
0.00818459
0.0124669
0.0249214
0.0302042
0.0328464
0.0338918
0.0335793
0.0322048
0.0301693
0.0278779
0.0255575
0.0231794
0.0205655
0.0176464
0.0146624
0.0120493
0.0101269
0.00893566
0.00832283
0.00810084
0.0124126
0.0246881
0.0298787
0.0323586
0.0331931
0.0326804
0.0311689
0.0290891
0.0268259
0.0245306
0.022091
0.0193249
0.0162847
0.0133623
0.0110155
0.00944981
0.00857817
0.0081977
0.00812663
0.0123302
0.0243952
0.0294829
0.0318154
0.0324744
0.0318138
0.0302276
0.0281626
0.0259666
0.0237054
0.0211955
0.0182879
0.0151795
0.0123759
0.0102988
0.0090305
0.00839688
0.00817987
0.00821153
0.0122239
0.0240553
0.0290352
0.0312375
0.031757
0.030998
0.0293923
0.0273899
0.0252867
0.0230579
0.0204672
0.0174325
0.0142995
0.0116428
0.00981225
0.00878163
0.00832575
0.00822652
0.00833145
0.012098
0.0236794
0.0285507
0.0306416
0.0310565
0.0302444
0.0286664
0.0267632
0.024767
0.022561
0.0198691
0.0167301
0.0136107
0.0111085
0.0094916
0.00864781
0.00832655
0.00831498
0.00847505
0.011956
0.0232769
0.0280423
0.0300409
0.0303836
0.0295587
0.0280474
0.0262697
0.024385
0.0221608
0.0193547
0.0161526
0.0130814
0.0107289
0.00929143
0.00859529
0.00837757
0.00843336
0.00863702
0.0118011
0.0228558
0.0275202
0.0294451
0.0297454
0.0289423
0.0275288
0.0258933
0.0241094
0.0218363
0.0189196
0.0156744
0.0126775
0.0104693
0.0091813
0.00860246
0.00846592
0.00857526
0.00881477
0.0116363
0.0224226
0.0269924
0.0288614
0.0291458
0.0283936
0.0271012
0.0256166
0.0238977
0.0215712
0.0185569
0.015284
0.0123766
0.0103041
0.00914017
0.00865544
0.00858386
0.00873692
0.00900666
0.0114639
0.0219827
0.0264652
0.0282945
0.028586
0.0279087
0.0267535
0.0254198
0.0237408
0.0213593
0.0182604
0.0149729
0.0121615
0.0102139
0.00915319
0.00874486
0.00872613
0.00891553
0.00921098
0.011286
0.0215404
0.0259431
0.0277477
0.028066
0.0274821
0.0264742
0.0252859
0.0236308
0.0211957
0.0180242
0.0147331
0.0120177
0.0101832
0.00920969
0.00886359
0.00888792
0.00910774
0.00942508
0.0111045
0.0210989
0.0254296
0.0272224
0.0275839
0.0271073
0.0262515
0.0251911
0.0235586
0.0210758
0.0178437
0.014559
0.0119283
0.0101971
0.00929981
0.00900414
0.00906315
0.00930854
0.00964472
0.0109206
0.0206608
0.0249269
0.0267194
0.0271374
0.0267775
0.0260741
0.0251251
0.0235182
0.0209956
0.0177146
0.0144432
0.011886
0.0102462
0.00941388
0.00915768
0.00924414
0.00951142
0.00986422
0.0107358
0.0202281
0.0244367
0.0262387
0.0267236
0.0264864
0.0259322
0.0250834
0.0235056
0.0209513
0.0176333
0.01438
0.0118871
0.0103208
0.00954042
0.00931593
0.00942501
0.00971049
0.0100781
0.0105508
0.0198021
0.0239598
0.0257795
0.0263393
0.0262278
0.0258181
0.0250618
0.0235175
0.0209406
0.0175965
0.0143638
0.0119257
0.0104176
0.00967788
0.00947882
0.00960616
0.0099062
0.0102848
0.0103665
0.019384
0.0234966
0.0253408
0.0259813
0.0259961
0.0257254
0.0250569
0.0235511
0.0209614
0.0176012
0.01439
0.0119975
0.0105343
0.00982528
0.00964573
0.00978718
0.0100983
0.0104846
0.0101835
0.0189744
0.0230474
0.0249215
0.0256464
0.0257864
0.0256486
0.0250655
0.0236038
0.0210117
0.0176445
0.0144546
0.0120989
0.0106688
0.00998186
0.00981622
0.00996771
0.0102865
0.0106775
0.0100023
0.0185737
0.0226118
0.0245202
0.0253317
0.0255943
0.0255836
0.0250849
0.0236734
0.0210895
0.0177238
0.0145542
0.0122272
0.01082
0.0101472
0.00999
0.0101475
0.0104705
0.0108631
0.00982308
0.0181822
0.0221897
0.0241355
0.0250345
0.0254164
0.0255266
0.0251126
0.0237579
0.021193
0.0178368
0.0146864
0.0123804
0.010987
0.0103209
0.0101669
0.0103262
0.01065
0.0110409
0.00964605
0.0178
0.0217803
0.023766
0.0247522
0.0252493
0.0254749
0.0251465
0.0238551
0.0213206
0.0179813
0.0148488
0.0125571
0.0111692
0.010503
0.010347
0.0105039
0.0108246
0.0112108
0.00947131
0.0174266
0.0213834
0.0234103
0.0244828
0.0250905
0.0254258
0.0251844
0.0239633
0.0214705
0.0181556
0.0150398
0.0127563
0.0113665
0.0106939
0.0105305
0.0106806
0.0109946
0.0113727
0.00929949
0.0170622
0.0209981
0.0230673
0.0242241
0.0249376
0.0253773
0.025224
0.0240802
0.0216411
0.0183585
0.0152584
0.0129777
0.0115794
0.0108941
0.0107184
0.0108575
0.0111611
0.0115285
0.00913035
0.0167074
0.0206239
0.0227361
0.0239747
0.0247886
0.0253257
0.02526
0.0242003
0.0218322
0.0185939
0.0155061
0.0132225
0.0118095
0.0111057
0.0109135
0.0110379
0.0113267
0.0116775
0.0089676
0.0163609
0.0202595
0.0224146
0.0237324
0.0246414
0.0252698
0.0252907
0.0243191
0.022034
0.0188533
0.0157866
0.013497
0.012063
0.0113356
0.0111203
0.011223
0.0114913
0.0118217
0.00881047
0.0160223
0.0199046
0.022102
0.0234961
0.0244948
0.0252086
0.0253151
0.0244352
0.0222437
0.0191348
0.016097
0.0138013
0.0123425
0.0115854
0.0113402
0.011415
0.0116575
0.0119642
0.00865829
0.0156917
0.0195586
0.0217973
0.0232645
0.0243476
0.0251414
0.0253323
0.0245473
0.0224595
0.019436
0.0164359
0.0141352
0.0126487
0.0118566
0.0115754
0.0116164
0.0118286
0.0121092
0.00851052
0.0153691
0.0192211
0.0214999
0.0230366
0.024199
0.0250677
0.0253416
0.0246542
0.0226796
0.0197547
0.0168014
0.0144982
0.0129824
0.0121511
0.0118286
0.0118307
0.0120088
0.0122614
0.00836668
0.0150542
0.0188913
0.021209
0.0228117
0.0240482
0.0249871
0.0253423
0.0247547
0.022902
0.0200887
0.0171919
0.01489
0.0133446
0.0124711
0.0121032
0.0120622
0.0122032
0.0124266
0.00822635
0.0147463
0.0185689
0.020924
0.0225892
0.0238948
0.0248996
0.025334
0.0248478
0.0231248
0.0204356
0.0176056
0.0153102
0.0137366
0.0128194
0.0124031
0.0123159
0.0124176
0.012611
0.00808915
0.0144453
0.0182535
0.0206446
0.0223684
0.0237385
0.0248051
0.0253164
0.0249326
0.023346
0.0207931
0.0180411
0.0157583
0.0141599
0.0131989
0.0127327
0.0125975
0.0126585
0.0128217
0.00795474
0.0141506
0.0179447
0.0203701
0.0221491
0.0235793
0.0247038
0.0252896
0.0250084
0.0235637
0.0211567
0.0184968
0.0162349
0.0146161
0.0136133
0.013097
0.0129131
0.0129326
0.0130677
0.00782282
0.0138622
0.0176422
0.0201002
0.0219309
0.023417
0.024596
0.0252535
0.0250745
0.0237759
0.0215238
0.0189696
0.0167401
0.0151065
0.0140658
0.013501
0.0132687
0.0132482
0.0133591
0.00769312
0.0135798
0.0173455
0.0198345
0.0217137
0.0232519
0.0244821
0.0252083
0.0251306
0.023981
0.0218915
0.0194552
0.0172726
0.0156334
0.0145598
0.0139497
0.0136708
0.0136151
0.0137072
0.00756539
0.0133031
0.0170545
0.0195728
0.0214974
0.0230842
0.0243627
0.0251546
0.0251766
0.0241775
0.0222574
0.0199511
0.0178299
0.0161969
0.0150981
0.0144472
0.0141277
0.0140433
0.0141243
0.00743945
0.0130318
0.0167687
0.0193149
0.0212821
0.0229143
0.0242385
0.025093
0.0252126
0.0243642
0.0226191
0.0204547
0.0184101
0.016797
0.0156826
0.0149979
0.0146471
0.0145438
0.0146245
0.0073151
0.012766
0.0164881
0.0190606
0.021068
0.0227429
0.0241103
0.0250242
0.0252391
0.0245406
0.0229745
0.0209631
0.019011
0.0174334
0.0163131
0.0156075
0.0152379
0.0151287
0.015224
0.00719219
0.0125052
0.0162124
0.0188099
0.0208554
0.0225706
0.0239792
0.0249493
0.0252571
0.0247065
0.0233223
0.0214741
0.0196302
0.018104
0.0169926
0.0162816
0.0159094
0.0158121
0.0159413
0.00707059
0.0122495
0.0159415
0.0185628
0.0206446
0.0223982
0.0238463
0.0248698
0.0252676
0.0248624
0.0236614
0.0219858
0.0202668
0.0188052
0.0177226
0.0170266
0.0166731
0.0166105
0.0167992
0.00695019
0.0119986
0.0156752
0.0183193
0.0204361
0.0222268
0.023713
0.0247869
0.0252725
0.0250094
0.0239922
0.0224972
0.0209178
0.0195397
0.0185079
0.0178511
0.0175428
0.0175448
0.0178271
0.00683091
0.0117525
0.0154135
0.0180797
0.0202304
0.0220572
0.0235808
0.0247026
0.0252739
0.0251497
0.0243156
0.023009
0.0215796
0.0203082
0.019354
0.0187663
0.018537
0.0186415
0.0190558
0.00671271
0.0115112
0.0151563
0.017844
0.020028
0.0218906
0.0234512
0.0246188
0.025274
0.0252858
0.0246339
0.0235217
0.0222563
0.0211155
0.0202696
0.0197877
0.0196803
0.0199364
0.0205425
0.00659555
0.0112746
0.0149038
0.0176124
0.0198296
0.021728
0.0233256
0.0245374
0.0252758
0.025421
0.0249507
0.0240361
0.0229515
0.0219684
0.0212674
0.0209367
0.0210053
0.0214714
0.0223091
0.00647944
0.0110426
0.0146559
0.0173853
0.0196356
0.0215702
0.023205
0.0244607
0.0252819
0.025559
0.02527
0.024557
0.0236719
0.0228775
0.0223652
0.0222428
0.0225556
0.0233072
0.0243052
0.0063644
0.0108154
0.0144127
0.0171627
0.0194464
0.0214167
0.0230868
0.0243905
0.0252952
0.0257037
0.0255964
0.025092
0.0244266
0.0238572
0.0235877
0.0237452
0.0243845
0.0254995
0.0264757
0.00625051
0.0105931
0.0141743
0.016945
0.0192623
0.0212682
0.0229727
0.0243284
0.0253183
0.0258592
0.0259344
0.0256489
0.0252274
0.0249271
0.0249681
0.025494
0.0265447
0.0278848
0.0285657
0.00613784
0.0103756
0.0139409
0.0167323
0.0190835
0.0211251
0.0228641
0.0242757
0.0253536
0.0260288
0.0262893
0.0262359
0.0260883
0.0261119
0.0265483
0.0275472
0.0291302
0.0303244
0.0301635
0.00602651
0.0101632
0.0137127
0.0165247
0.01891
0.0209877
0.0227622
0.0242335
0.0254029
0.0262158
0.0266673
0.0268625
0.0270252
0.0274409
0.0283719
0.0299156