/*--------------------------------*- C++ -*----------------------------------*\
| =========                 |                                                 |
| \\      /  F ield         | OpenFOAM: The Open Source CFD Toolbox           |
|  \\    /   O peration     | Version:  v2012                                 |
|   \\  /    A nd           | Website:  www.openfoam.com                      |
|    \\/     M anipulation  |                                                 |
\*---------------------------------------------------------------------------*/
FoamFile
{
    version     2.0;
    format      ascii;
    class       volScalarField;
    location    "621";
    object      nut;
}
// * * * * * * * * * * * * * * * * * * * * * * * * * * * * * * * * * * * * * //

dimensions      [0 2 -1 0 0 0 0];


internalField   nonuniform List<scalar> 
6057
(
0.000483215
0.000501962
0.000522451
0.000544922
0.000569686
0.000597135
0.000627766
0.000662217
0.00070132
0.000746183
0.000798313
0.000859812
0.000933701
0.00102446
0.00113903
0.00128857
0.00149211
0.00178406
0.00223126
0.00297464
0.00266564
0.00276291
0.00286756
0.00298072
0.00310349
0.00323703
0.0033829
0.00354303
0.0037199
0.00391671
0.0041377
0.00438861
0.00467744
0.00501561
0.00542017
0.00591747
0.00655065
0.00739509
0.00859611
0.0104808
0.00453625
0.00469144
0.00485746
0.0050354
0.00522651
0.00543248
0.00565512
0.00589661
0.00615968
0.00644773
0.00676511
0.00711739
0.00751183
0.00795795
0.00846822
0.0090587
0.00974896
0.0105595
0.0115013
0.0125417
0.0057159
0.00590446
0.00610525
0.00631928
0.00654778
0.00679211
0.00705384
0.00733477
0.00763684
0.00796226
0.0083135
0.0086933
0.00910459
0.00955036
0.0100333
0.0105548
0.0111136
0.0117028
0.0123055
0.0128912
0.00627734
0.00648136
0.0066979
0.00692791
0.00717252
0.00743289
0.00771027
0.00800589
0.00832096
0.00865659
0.00901357
0.00939225
0.00979218
0.0102117
0.0106474
0.0110934
0.0115416
0.011982
0.012408
0.01283
0.00627371
0.00647883
0.00669613
0.00692668
0.00717165
0.00743229
0.00770985
0.0080056
0.00832077
0.00865646
0.00901349
0.0093922
0.00979214
0.0102117
0.0106473
0.0110934
0.0115416
0.011982
0.012408
0.01283
0.00570501
0.00589703
0.00610012
0.00631575
0.00654535
0.00679046
0.00705276
0.00733405
0.00763636
0.00796194
0.00831329
0.00869316
0.0091045
0.0095503
0.0100332
0.0105547
0.0111136
0.0117028
0.0123055
0.0128912
0.00451841
0.00467995
0.00484973
0.00503024
0.00522312
0.00543025
0.00565363
0.00589561
0.00615901
0.00644729
0.00676482
0.0071172
0.0075117
0.00795787
0.00846817
0.00905867
0.00974895
0.0105595
0.0115013
0.0125417
0.00264465
0.0027512
0.00286007
0.002976
0.00310039
0.00323498
0.00338153
0.00354211
0.00371928
0.0039163
0.00413743
0.00438843
0.00467732
0.00501553
0.00542011
0.00591744
0.00655063
0.00739508
0.00859611
0.0104808
0.000482514
0.000501537
0.000522171
0.000544734
0.000569558
0.000597047
0.000627705
0.000662175
0.000701291
0.000746163
0.000798299
0.000859803
0.000933694
0.00102446
0.00113902
0.00128856
0.00149211
0.00178406
0.00223126
0.00297464
0.000270988
0.000278281
0.000285553
0.00029284
0.00030018
0.000307611
0.000315176
0.000322918
0.000330885
0.000339127
0.000347699
0.00035666
0.000366073
0.000376006
0.00038653
0.000397701
0.000409563
0.000422219
0.000435783
0.000450377
0.000466137
0.00127335
0.00134147
0.00140857
0.00147454
0.00153925
0.00160264
0.00166472
0.00172556
0.00178532
0.00184425
0.00190267
0.00196096
0.00201963
0.0020792
0.00214028
0.00220317
0.00226921
0.00233895
0.00241291
0.00249164
0.00257568
0.00232346
0.00243255
0.00253842
0.00264127
0.0027413
0.00283882
0.00293418
0.00302782
0.00312024
0.00321199
0.00330371
0.00339608
0.00348984
0.00358579
0.00368447
0.00378727
0.00389514
0.00400881
0.00412899
0.00425644
0.00439189
0.00310728
0.00322642
0.00334175
0.00345396
0.00356371
0.00367162
0.00377833
0.00388448
0.00399072
0.0040977
0.0042061
0.00431661
0.00442998
0.00454698
0.00466834
0.00479534
0.00492869
0.00506906
0.00521718
0.00537381
0.00553971
0.00358611
0.00369383
0.0037986
0.00390152
0.00400351
0.0041054
0.00420799
0.00431198
0.00441805
0.00452686
0.004639
0.00475508
0.00487572
0.00500152
0.00513354
0.00527248
0.00541869
0.00557255
0.0057346
0.00590554
0.00608611
0.00378011
0.00386002
0.00393842
0.00401664
0.0040958
0.00417688
0.00426078
0.00434831
0.0044402
0.00453708
0.00463956
0.00474817
0.00486341
0.00498598
0.00511724
0.00525726
0.00540575
0.00556214
0.00572631
0.00589908
0.00608118
0.0037232
0.00376159
0.00379965
0.0038388
0.00388028
0.0039252
0.00397457
0.00402933
0.0040903
0.00415823
0.00423377
0.00431748
0.00440993
0.0045124
0.00462687
0.00475396
0.00489414
0.00504118
0.00519446
0.00535558
0.00552526
0.00347027
0.00345944
0.0034489
0.0034399
0.00343353
0.00343081
0.00343268
0.00344008
0.00345397
0.0034752
0.00350443
0.00354218
0.00358873
0.00364417
0.00371081
0.00378915
0.0038782
0.00398537
0.00410707
0.00423553
0.00437173
0.00311835
0.00306344
0.0030084
0.00295352
0.00289898
0.002845
0.00279194
0.00274028
0.00269068
0.00264382
0.00260056
0.00256335
0.00253278
0.00250763
0.00248488
0.0024641
0.00244679
0.00244339
0.00246475
0.00251482
0.00257735
0.00277365
0.00269234
0.00261001
0.00252549
0.00243754
0.00234485
0.00224606
0.00213976
0.00202456
0.00189928
0.00176331
0.00161699
0.00146085
0.00129591
0.00113673
0.00099039
0.000861579
0.000752694
0.000664319
0.000591889
0.000530322
7.20093e-05
6.76001e-05
6.83182e-05
7.77563e-05
0.000106552
0.000110402
0.00010337
0.000156084
0.000174538
0.000185841
0.000196215
0.000205901
0.000215054
0.000223786
0.000232178
0.000240296
0.000248192
0.000255912
0.000263498
0.000120865
0.000223892
0.000299475
0.00031589
0.000319697
0.000351944
0.000398462
0.000455403
0.000519218
0.000583922
0.000649548
0.000716164
0.000783766
0.000852303
0.00092167
0.000991698
0.00106216
0.00113278
0.00120328
0.000149153
0.000440492
0.000466119
0.000473947
0.00051225
0.00057907
0.000679819
0.000802691
0.000933371
0.00106609
0.00119925
0.00133186
0.00146338
0.0015934
0.00172157
0.00184753
0.00197097
0.00209159
0.00220917
0.000181939
0.000568222
0.000610646
0.00064539
0.000717076
0.000838459
0.00100151
0.00118624
0.00137681
0.00156634
0.00175126
0.00192978
0.00210113
0.00226508
0.00242169
0.00257123
0.00271408
0.00285069
0.00298162
0.000212142
0.000686583
0.000726405
0.000829199
0.000948999
0.00112631
0.00134344
0.00157658
0.00180982
0.00203473
0.00224666
0.00244384
0.00262612
0.00279425
0.00294951
0.0030934
0.00322749
0.00335337
0.0034725
0.0002341
0.000707958
0.000845831
0.00102631
0.00120009
0.00142697
0.00168451
0.00194859
0.00220351
0.00244015
0.00265406
0.00284433
0.00301218
0.00315993
0.00329041
0.00340656
0.0035112
0.00360689
0.00369592
0.000249904
0.000761492
0.000975968
0.00123273
0.00145587
0.00172394
0.00200693
0.00228381
0.00253983
0.00276649
0.00296061
0.00312294
0.00325645
0.00336525
0.00345372
0.0035261
0.00358621
0.00363733
0.00368225
0.000262846
0.000846572
0.00111469
0.00144142
0.00170523
0.00200216
0.00229776
0.00257088
0.00281017
0.00300902
0.00316636
0.00328507
0.00337016
0.00342749
0.00346292
0.00348175
0.00348854
0.00348702
0.00348017
0.000273506
0.000949052
0.00125524
0.00164518
0.00193967
0.00225229
0.00254807
0.00280456
0.0030131
0.00317113
0.0032803
0.003346
0.00337552
0.00337664
0.00335667
0.00332194
0.00327751
0.00322718
0.00317356
0.000282249
0.00105414
0.00139281
0.00183099
0.00215366
0.00246986
0.00275347
0.00298387
0.00315211
0.00326122
0.00331653
0.00332646
0.0033009
0.00324977
0.0031819
0.00310445
0.00302253
0.0029393
0.00285623
0.00248527
0.00239659
0.00230774
0.00221802
0.0021272
0.00203543
0.00194299
0.00185015
0.00175689
0.00166254
0.00156473
0.00146519
0.00136295
0.00125534
0.00113816
0.00100392
0.000831968
0.000535168
0.000339182
0.000228305
0.000137221
0.00222632
0.00211886
0.00200684
0.00189038
0.00177048
0.00164839
0.00152613
0.00140568
0.00128891
0.00118167
0.00108666
0.000993872
0.000897192
0.000802636
0.000714213
0.000634182
0.000548031
0.000427329
0.000320078
0.000222985
0.000101332
0.00195269
0.00181195
0.00166589
0.00151918
0.00137793
0.0012491
0.00114014
0.0010584
0.00100516
0.000963016
0.000927997
0.000891056
0.000848807
0.000800857
0.000743933
0.000675819
0.000595999
0.00048059
0.000368252
0.000246382
8.946e-05
0.00168516
0.00153166
0.0013911
0.00127531
0.00119519
0.00115733
0.00115913
0.00117618
0.00119239
0.00119887
0.0011905
0.00116418
0.00111684
0.00104458
0.000947748
0.000796442
0.000657891
0.000527195
0.000405347
0.0002476
9.50471e-05
0.0014969
0.00138914
0.00132778
0.00131966
0.00135753
0.00142031
0.00147491
0.00150871
0.00151898
0.00150727
0.00147342
0.00141677
0.00133654
0.00122232
0.00104052
0.000889492
0.000749573
0.000611664
0.000438351
0.000262521
0.000101412
0.00145335
0.00144251
0.0014899
0.00157561
0.00166815
0.00173734
0.00177359
0.0017859
0.00177528
0.00174376
0.00169096
0.00161581
0.0015172
0.00137974
0.00118714
0.00102265
0.000866106
0.0006896
0.000482434
0.000283657
0.000107555
0.00155629
0.00163756
0.00175067
0.0018589
0.00194045
0.00198764
0.00200617
0.00200393
0.00198244
0.00194147
0.00187969
0.00179552
0.00168725
0.00155228
0.001342
0.00115861
0.000984923
0.000769072
0.000533546
0.00030813
0.000113336
0.001746
0.00187733
0.00200216
0.00209701
0.00215855
0.00219157
0.00220173
0.00219351
0.00216718
0.00212147
0.00205475
0.00196514
0.00185048
0.00170855
0.00149864
0.00129668
0.00110607
0.000854155
0.000589515
0.000334856
0.000118757
0.0019604
0.0021031
0.00221652
0.00229568
0.00234554
0.002372
0.00237861
0.00236763
0.00233824
0.00228908
0.00221851
0.00212457
0.00200493
0.00185689
0.00165693
0.00143672
0.00121837
0.000942324
0.000648899
0.000363331
0.000123859
0.00216471
0.00230081
0.00240177
0.00247119
0.00251549
0.00253918
0.00254409
0.0025308
0.00249839
0.00244561
0.00237099
0.00227275
0.00214857
0.00199549
0.00180996
0.00157822
0.00132806
0.00103163
0.000710633
0.00039327
0.000128687
0.0023488
0.00247596
0.00256865
0.00263324
0.00267533
0.00269793
0.00270125
0.00268531
0.00264926
0.00259208
0.00251265
0.00240954
0.00228069
0.0021231
0.00193265
0.00170443
0.00143392
0.00112046
0.000773866
0.000424489
0.000133285
0.00251526
0.00263583
0.0027243
0.00278721
0.00282893
0.00285082
0.00285225
0.00283303
0.00279248
0.00272989
0.00264462
0.00253572
0.00240161
0.0022395
0.00204506
0.00181229
0.00153448
0.00120751
0.000837891
0.000456848
0.000137693
0.00266873
0.00278584
0.0028731
0.00293643
0.00297857
0.00299971
0.00299884
0.00297567
0.00292969
0.00286063
0.00276833
0.00265252
0.0025122
0.00234512
0.00214701
0.00191118
0.00162875
0.00129175
0.000902105
0.000490239
0.000141944
0.00281326
0.00292961
0.00301796
0.00308293
0.00312577
0.00314603
0.00314242
0.00311461
0.00306233
0.0029857
0.00288518
0.00276118
0.00261353
0.00244068
0.00223882
0.00200086
0.00171607
0.0013724
0.000965992
0.000524568
0.000146069
0.00295182
0.00306972
0.00316069
0.00322784
0.0032715
0.0032907
0.00328392
0.00325082
0.00319137
0.00310615
0.00299622
0.00286278
0.00270658
0.00252701
0.002321
0.00208146
0.00179613
0.00144887
0.00102911
0.000559752
0.000150095
0.00308669
0.00320774
0.00330209
0.00337173
0.00341623
0.00343414
0.00342374
0.00338473
0.00331733
0.00322255
0.00310211
0.00295806
0.00279214
0.00260488
0.00239416
0.00215329
0.00186885
0.00152077
0.00109108
0.000595709
0.000154049
0.00321905
0.00334425
0.00344244
0.00351469
0.00355992
0.00357623
0.00356177
0.00351627
0.0034402
0.00333501
0.0032031
0.00304739
0.00287073
0.00267488
0.0024589
0.00221676
0.00193431
0.00158787
0.00115158
0.000632355
0.000157952
0.00334938
0.0034793
0.0035815
0.00365632
0.00370205
0.00371642
0.00369743
0.0036449
0.00355953
0.00344322
0.00329904
0.00313084
0.00294262
0.00273745
0.00251572
0.00227232
0.00199274
0.00165006
0.00121035
0.000669599
0.000161829
0.00347756
0.00361246
0.00371864
0.00379579
0.00384173
0.00385373
0.00382977
0.00376972
0.00367452
0.00354652
0.00338948
0.00320818
0.00300784
0.00279286
0.00256505
0.0023204
0.00204441
0.00170732
0.00126714
0.000707335
0.0001657
0.00360298
0.00374286
0.00385279
0.00393197
0.00397771
0.00398692
0.00395755
0.00388955
0.00378411
0.00364402
0.00347373
0.003279
0.00306624
0.00284124
0.00260721
0.00236142
0.00208964
0.00175973
0.00132177
0.000745432
0.00016959
0.00372444
0.0038692
0.00398259
0.00406342
0.00410857
0.0041145
0.00407931
0.00400304
0.00388707
0.00373465
0.00355095
0.00334273
0.00311756
0.00288259
0.00264246
0.00239575
0.00212879
0.00180739
0.00137407
0.000783738
0.000173523
0.00384021
0.00398978
0.00410639
0.00418851
0.00423275
0.00423487
0.00419352
0.0041087
0.00398204
0.00381725
0.00362022
0.00339871
0.00316146
0.00291688
0.002671
0.00242376
0.0021622
0.00185047
0.0014239
0.000822064
0.000177525
0.00390886
0.00410259
0.00422228
0.00430539
0.00434833
0.00434634
0.00429856
0.00420505
0.00406767
0.00389062
0.00368058
0.00344628
0.00319757
0.00294404
0.00269301
0.00244578
0.00219022
0.00188917
0.00147113
0.000860193
0.000181624
0.00383198
0.00409804
0.0043282
0.00441212
0.00445342
0.00444723
0.0043929
0.00429064
0.00414262
0.00395362
0.0037311
0.00348478
0.00322553
0.00296401
0.00270867
0.00246214
0.00221321
0.00192368
0.00151564
0.000897805
0.000185855
0.00375708
0.00401754
0.00427271
0.00450468
0.0045464
0.004536
0.00447507
0.00436407
0.00420561
0.00400513
0.00377092
0.00351363
0.00324508
0.00297678
0.00271817
0.00247315
0.00223151
0.0019542
0.00155728
0.000934491
0.000190256
0.0036906
0.00394544
0.0041932
0.00443086
0.00461859
0.0046112
0.00454372
0.00442407
0.00425547
0.00404415
0.00379927
0.00353235
0.003256
0.00298237
0.00272174
0.00247918
0.00224547
0.00198092
0.00159587
0.000969524
0.000194876
0.00363408
0.00388503
0.00413066
0.00436401
0.00456279
0.00467162
0.00459765
0.00446945
0.00429114
0.00406982
0.00381555
0.00354063
0.00325821
0.00298093
0.00271964
0.00248056
0.00225541
0.00200401
0.00163125
0.00100211
0.000199776
0.00359153
0.00383987
0.00408591
0.00432473
0.00452755
0.00464901
0.00463585
0.00449918
0.00431169
0.00408147
0.00381938
0.0035383
0.00325179
0.00297265
0.00271221
0.00247769
0.00226167
0.0020236
0.00166451
0.00103404
0.000204869
0.00356386
0.00381183
0.0040606
0.00430966
0.00452654
0.00465442
0.0046577
0.00451237
0.00431647
0.00407872
0.00381062
0.00352546
0.00323694
0.00295811
0.00270053
0.00247165
0.00226554
0.00204177
0.00169712
0.0010666
0.000210057
0.00354898
0.00379825
0.00405221
0.00431505
0.00455098
0.00469589
0.00466255
0.00450983
0.00430701
0.00406354
0.00379143
0.00350413
0.00321535
0.00293813
0.00268428
0.00246206
0.00226672
0.00205812
0.0017292
0.00109986
0.000215359
0.00354324
0.00379404
0.00405424
0.00433358
0.00459182
0.0047567
0.00465298
0.00449334
0.00428471
0.00403697
0.00376243
0.00347459
0.003187
0.00291265
0.00266364
0.00244904
0.0022653
0.0020726
0.00176064
0.00113402
0.000220765
0.00354202
0.00379414
0.00406242
0.00436346
0.00464801
0.00474057
0.00462977
0.00446398
0.00425058
0.00399988
0.00372434
0.00343738
0.00315231
0.00288199
0.00263885
0.00243281
0.00226139
0.00208519
0.00179111
0.00116889
0.000226266
0.00354271
0.00379575
0.00407442
0.00440079
0.00471759
0.00471145
0.0045939
0.00442265
0.0042055
0.00395307
0.00367788
0.00339309
0.0031117
0.00284646
0.00261016
0.00241352
0.00225505
0.00209578
0.00182046
0.00120432
0.000231858
0.00354368
0.00379732
0.00408987
0.00444264
0.00473655
0.00466995
0.00454614
0.00437018
0.00415028
0.0038973
0.00362368
0.00334221
0.00306553
0.00280632
0.00257776
0.00239132
0.00224629
0.00210415
0.00184828
0.00124011
0.000237521
0.0035447
0.00379985
0.00410992
0.00448826
0.0046902
0.00461668
0.00448719
0.00430731
0.00408566
0.00383326
0.00356229
0.00328512
0.00301401
0.00276167
0.00254172
0.00236628
0.00223505
0.00210996
0.00187396
0.00127584
0.000243214
0.00354557
0.00380395
0.00413338
0.00453979
0.00463255
0.00455242
0.00441781
0.00423478
0.00401233
0.00376147
0.00349407
0.00322198
0.00295719
0.00271251
0.00250205
0.00233837
0.00222117
0.0021127
0.00189657
0.00131089
0.000248875
0.00354405
0.00380704
0.00415474
0.00458289
0.00456445
0.00447804
0.0043388
0.00415332
0.00393087
0.00368235
0.00341917
0.00315275
0.00289489
0.00265864
0.00245861
0.00230749
0.00220434
0.00211163
0.00191481
0.00134431
0.000254413
0.00353267
0.0038068
0.00416855
0.00452424
0.00448698
0.00439452
0.00425106
0.00406367
0.00384179
0.00359607
0.00333749
0.00307711
0.0028267
0.00259971
0.00241117
0.00227341
0.00218415
0.00210567
0.00192679
0.00137487
0.000259701
0.00351679
0.0037979
0.00417315
0.00444605
0.00440147
0.00430306
0.00415558
0.00396654
0.00374541
0.00350259
0.00324866
0.00299448
0.00275203
0.00253526
0.00235942
0.00223586
0.00216001
0.00209332
0.00184207
0.00140106
0.000264582
0.00350151
0.00378657
0.0041596
0.00436153
0.00430948
0.00420499
0.00405336
0.00386248
0.00364184
0.00340157
0.003152
0.00290407
0.00267017
0.00246479
0.00230306
0.00219453
0.00213122
0.00201881
0.0016352
0.00142232
0.000268853
0.00348655
0.00377102
0.00413176
0.00427159
0.00421262
0.00410155
0.00394514
0.00375168
0.00353072
0.00329223
0.00304654
0.00280491
0.00258038
0.00238793
0.00224196
0.00214924
0.00209708
0.00176318
0.00148303
0.00136018
0.00027217
0.0034707
0.00374888
0.0040901
0.00417755
0.00411196
0.00399358
0.00383102
0.0036336
0.00341101
0.00317326
0.00293096
0.00269599
0.00248217
0.00230467
0.00217632
0.00210001
0.00200431
0.0015694
0.00137208
0.00128562
0.000274576
0.0034536
0.00371862
0.00403286
0.00408244
0.00400789
0.00388069
0.00370991
0.00350657
0.00328077
0.00304279
0.00280379
0.0025765
0.00237553
0.00221571
0.00210691
0.00204721
0.00175593
0.00142253
0.00128888
0.00122218
0.000275806
0.00343503
0.0036817
0.00396545
0.00398634
0.00389953
0.00376034
0.00357919
0.00336774
0.00313732
0.00289866
0.00266375
0.00244631
0.00226146
0.00212286
0.00203532
0.00199176
0.00157385
0.00131699
0.00123269
0.00119376
0.000275893
0.00341345
0.00364123
0.00389582
0.0038876
0.0037841
0.00362898
0.00343452
0.0032135
0.00297771
0.00273908
0.00251053
0.00230671
0.00214276
0.00202806
0.00196365
0.00181845
0.00144271
0.00125193
0.00120738
0.00120258
0.000274825
0.003386
0.00359618
0.00383002
0.00378287
0.00365716
0.00348195
0.00327156
0.00303994
0.00279983
0.00256365
0.00234573
0.00216138
0.00202355
0.00193664
0.00189549
0.00163943
0.00135785
0.00122736
0.0012162
0.00123852
0.000272719
0.00335302
0.00354823
0.0037602
0.003666
0.00351246
0.00331391
0.00308649
0.00284495
0.00260307
0.00237454
0.00217415
0.00201751
0.00191039
0.00185305
0.00183275
0.00151044
0.00131724
0.00124476
0.00126308
0.00129138
0.000269121
0.00331896
0.00350586
0.00365809
0.00352813
0.00334271
0.00311976
0.00287665
0.00262873
0.0023908
0.00217799
0.00200465
0.00188166
0.00181006
0.00178066
0.00166139
0.00142186
0.00132246
0.00131011
0.00135225
0.00135018
0.000264099
0.0032742
0.00347186
0.00353137
0.00335982
0.0031412
0.00289594
0.00264184
0.00239481
0.00217074
0.00198496
0.0018488
0.0017657
0.0017272
0.00171774
0.00148947
0.00138563
0.00138262
0.00143439
0.00148659
0.00130725
0.000256859
0.00322301
0.00344555
0.00336698
0.00315197
0.00290319
0.0026419
0.00238575
0.00215139
0.0019551
0.00180923
0.00171747
0.00167142
0.00165615
0.00150389
0.00139894
0.00142401
0.00151291
0.0016144
0.00166147
0.00125603
0.000247818
0.00317209
0.00336586
0.00315308
0.00289855
0.00262793
0.0023618
0.00211763
0.00191229
0.00175939
0.00166263
0.00161165
0.00158992
0.00147491
0.00138164
0.00141279
0.0015464
0.00165411
0.00169974
0.00163174
0.00119272
0.000237361
0.00311623
0.00314575
0.00288249
0.00259902
0.00232054
0.00206642
0.00185328
0.00169525
0.00159757
0.00154531
0.00144762
0.00129928
0.00128482
0.00137023
0.00148888
0.00152757
0.0015921
0.00164118
0.0015593
0.00111888
0.000225739
0.00303263
0.0028572
0.00255578
0.00226027
0.0019941
0.00177433
0.00161313
0.00151715
0.00146861
0.00123322
0.00113289
0.00114472
0.00123384
0.00135928
0.00139046
0.00145461
0.00153502
0.00157354
0.00146876
0.00103288
0.000212967
0.00283008
0.00250204
0.00218211
0.00189846
0.00167095
0.00150938
0.00141781
0.00125931
0.00104436
0.000991574
0.00102388
0.00109729
0.00119326
0.00124472
0.00131057
0.00139892
0.00147041
0.00147698
0.0013354
0.000899334
0.000200371
0.00244864
0.00209085
0.00178066
0.00154035
0.00137929
0.00129623
0.00101618
0.000886701
0.000879465
0.00092477
0.000967516
0.00098632
0.00102436
0.00114437
0.0012382
0.00132084
0.00134654
0.00131245
0.00114234
0.000739337
0.000188149
0.00200377
0.00164609
0.00138403
0.0012208
0.00106442
0.00081433
0.000763512
0.000800175
0.000848622
0.000836458
0.000780333
0.000749162
0.000801935
0.000966521
0.00109736
0.0011426
0.00114595
0.00108688
0.000913224
0.000582094
0.000175703
0.00151327
0.0012059
0.00103697
0.000760985
0.00064844
0.000674689
0.000750463
0.000791805
0.000712301
0.000577555
0.000536671
0.000569604
0.000659261
0.000807978
0.000889678
0.000909794
0.000897692
0.000832316
0.000686097
0.00044681
0.000162481
0.00101103
0.000825541
0.000530776
0.000523742
0.000614317
0.000721029
0.000706638
0.000595519
0.000454026
0.000392329
0.000414095
0.00047301
0.000557793
0.000618317
0.000652558
0.000661856
0.000647245
0.000596624
0.000497591
0.000344183
0.000139968
0.000566972
0.000328328
0.000398988
0.000527747
0.000625112
0.000601143
0.000452221
0.000305562
0.000242237
0.000239152
0.000261422
0.000294372
0.000332371
0.000370631
0.000402867
0.000420452
0.000421795
0.000403408
0.000356861
0.000270956
0.000116041
0.000158181
0.000121865
0.000117816
0.000113349
0.000102987
8.94056e-05
7.60974e-05
7.15879e-05
7.38993e-05
7.85997e-05
8.37237e-05
8.87378e-05
9.35759e-05
9.83376e-05
0.000103234
0.000108601
0.000113551
0.000116912
0.000108404
0.000110552
9.31276e-05
0.000289908
0.00116913
0.00153424
0.00198532
0.00235253
0.00266117
0.00292132
0.0031149
0.00323662
0.00329115
0.00328985
0.00324493
0.00316934
0.00307521
0.00297259
0.0028686
0.00276727
0.00267002
0.00257643
0.000296333
0.00128995
0.00167625
0.00213518
0.00252245
0.00281473
0.00304372
0.00319497
0.00326719
0.00326911
0.00321571
0.00312417
0.00301042
0.00288794
0.00276626
0.00265028
0.00254076
0.00243569
0.00233185
0.000301817
0.00141868
0.00182177
0.00228755
0.00266279
0.00293232
0.00312537
0.00323207
0.00325559
0.00320939
0.00311244
0.00298547
0.00284656
0.00270851
0.00257772
0.00245456
0.00233526
0.00221452
0.00208777
0.000306313
0.00149569
0.00197639
0.00244957
0.00277518
0.00301782
0.00317274
0.00323538
0.00321368
0.00312585
0.00299507
0.00284412
0.00269089
0.00254508
0.00240801
0.00227508
0.00213957
0.00199618
0.00184349
0.000309898
0.00154652
0.00214354
0.00256051
0.0028623
0.00307575
0.00319253
0.00321367
0.00315206
0.00303049
0.00287542
0.00271025
0.00255002
0.00239942
0.0022547
0.00210862
0.00195582
0.00179663
0.00163886
0.000312667
0.00158768
0.00224552
0.0026426
0.00292721
0.0031108
0.00319113
0.00317485
0.00307974
0.00293267
0.00276202
0.00258972
0.00242623
0.00227082
0.00211688
0.00195905
0.0017991
0.00164855
0.00152637
0.000314694
0.00161956
0.0023104
0.00270706
0.00297312
0.00312758
0.00317439
0.0031257
0.00300397
0.00283926
0.0026602
0.00248529
0.00231962
0.00215865
0.00199695
0.00183644
0.00169084
0.00158252
0.00153395
0.000316047
0.00164293
0.00236161
0.00275604
0.00300324
0.00313033
0.00314739
0.00307182
0.0029303
0.00275495
0.00257282
0.00239764
0.0022296
0.00206358
0.00190016
0.00175305
0.00164712
0.00160728
0.00164454
0.000316793
0.00165866
0.00240067
0.00279172
0.00302062
0.00312282
0.00311439
0.00301762
0.00286276
0.00268261
0.002501
0.0023263
0.00215569
0.00198749
0.00183255
0.00171691
0.00166951
0.00170531
0.00181334
0.000316998
0.00166762
0.00242908
0.0028162
0.00302801
0.0031083
0.00307883
0.00296641
0.00280402
0.00262366
0.00244465
0.00227035
0.00209768
0.0019324
0.00179782
0.00172777
0.00174538
0.00184671
0.00200137
0.000316725
0.00167066
0.00244828
0.0028314
0.00302781
0.00308942
0.00304341
0.00292057
0.00275565
0.00257845
0.00240293
0.00222866
0.00205555
0.00189955
0.00179554
0.00177794
0.00185596
0.00200667
0.0021854
0.000316034
0.00166863
0.0024596
0.00283908
0.00302209
0.00306834
0.0030101
0.00288158
0.00271829
0.00254651
0.0023746
0.0022001
0.00202885
0.00188835
0.00182149
0.00185622
0.0019847
0.00216817
0.0023562
0.000314983
0.00166229
0.00246429
0.00284075
0.00301253
0.00304672
0.00298026
0.00285025
0.00269187
0.00252686
0.00235817
0.00218339
0.00201656
0.00189657
0.00186941
0.00195173
0.00211992
0.0023233
0.00251374
0.000313623
0.00165237
0.00246345
0.00283773
0.00300051
0.00302576
0.00295476
0.00282679
0.00267577
0.00251806
0.00235184
0.00217714
0.00201726
0.00192097
0.00193282
0.00205651
0.00225462
0.00246958
0.00266041
0.000312003
0.00163951
0.00245805
0.00283111
0.00298707
0.00300631
0.00293401
0.00281097
0.00266888
0.00251805
0.00229131
0.0021795
0.00202911
0.00195799
0.00200618
0.00216541
0.0023856
0.0026076
0.00279904
0.000310166
0.00162426
0.00244893
0.00282177
0.00297302
0.00298893
0.00291808
0.00280216
0.00266963
0.00235225
0.00215864
0.00218824
0.00204993
0.00200442
0.00208578
0.00227457
0.00251121
0.00273872
0.00293192
0.000308151
0.00160714
0.00243681
0.00281044
0.00295895
0.00297391
0.00290681
0.00279945
0.00264765
0.00221051
0.00206411
0.00213217
0.00207748
0.00205743
0.00216861
0.0023819
0.00263163
0.00286436
0.00306069
0.000305991
0.00158856
0.0024223
0.00279768
0.00294528
0.00296136
0.0028998
0.00280173
0.00248663
0.0021096
0.00199857
0.00207773
0.00211023
0.00211472
0.00225273
0.00248685
0.00274741
0.00298561
0.00318632
0.000303717
0.00156888
0.0024059
0.00278395
0.00293227
0.00295125
0.00289656
0.00280776
0.00236587
0.00203761
0.00195195
0.00203846
0.0021469
0.00217445
0.00233708
0.00258935
0.00285906
0.0031031
0.00330914
0.000301351
0.00154841
0.00238802
0.00276958
0.00292008
0.00294343
0.0028965
0.00281649
0.00227865
0.00198629
0.00191916
0.00201151
0.00218628
0.00223556
0.00242044
0.00268847
0.00296652
0.0032168
0.00342882
0.000298917
0.00152739
0.00236902
0.00275483
0.00290879
0.00293768
0.002899
0.00274493
0.00221567
0.00195063
0.00189737
0.00199404
0.00217552
0.00229698
0.00250128
0.00278288
0.00306894
0.00332585
0.00354436
0.000296433
0.00150604
0.00234917
0.00273988
0.00289839
0.00293373
0.00290342
0.00266378
0.00217055
0.00192641
0.00188362
0.00198328
0.002161
0.00235721
0.00257788
0.00284341
0.0031141
0.00339588
0.00365401
0.000293913
0.00148451
0.00232869
0.00272486
0.00288885
0.00293132
0.00290926
0.00260371
0.00213907
0.0019109
0.00187588
0.00197728
0.00215124
0.00234805
0.0025632
0.00280588
0.00306557
0.00333686
0.00362047
0.00029137
0.00146295
0.00230777
0.00270986
0.00288009
0.00293016
0.00291612
0.00256067
0.00211817
0.00190253
0.00187275
0.00197361
0.00214278
0.00233159
0.00253436
0.00276337
0.00301249
0.00327495
0.00355012
0.000288815
0.00144145
0.00228655
0.00269493
0.00287203
0.00293003
0.00292373
0.00253085
0.0021057
0.00190001
0.00187326
0.00197148
0.0021345
0.00231482
0.00250634
0.00272281
0.00296115
0.00321554
0.00348386
0.000286254
0.00142009
0.00226513
0.00268011
0.00286457
0.00293069
0.00293183
0.00251167
0.00210021
0.00190228
0.00187676
0.00197096
0.00212699
0.00229896
0.00248049
0.00268582
0.00291437
0.0031612
0.00342322
0.000283695
0.00139894
0.00224361
0.0026654
0.00285761
0.00293195
0.00294027
0.00250134
0.00210066
0.00190857
0.00188281
0.00197211
0.0021209
0.00228482
0.00245743
0.00265337
0.00287405
0.00311495
0.00337182
0.000281142
0.00137804
0.00222205
0.0026508
0.00285105
0.00293365
0.0029489
0.0024985
0.00210627
0.00191835
0.00189116
0.00197499
0.00211662
0.00227305
0.00243793
0.00262631
0.00284124
0.00307843
0.00333242
0.000278597
0.00135741
0.00220048
0.00263628
0.00284479
0.00293563
0.00295761
0.0025021
0.00211648
0.00193125
0.00190168
0.00197965
0.00211443
0.00226413
0.00242254
0.00260516
0.00281636
0.00305195
0.00330543
0.000276062
0.00133705
0.00217896
0.00262184
0.00283874
0.00293779
0.00296631
0.00251133
0.00213086
0.00194703
0.0019143
0.0019862
0.00211457
0.00225835
0.00241151
0.00258997
0.00279912
0.00303482
0.00328955
0.000273547
0.00131697
0.00215747
0.00260744
0.00283281
0.00294
0.00297491
0.00252548
0.00214905
0.00196556
0.0019291
0.00199474
0.00211714
0.00225582
0.00240481
0.00258042
0.00278876
0.00302557
0.00328244
0.000271048
0.0012973
0.00213598
0.00259302
0.00282685
0.00294203
0.00298309
0.00254359
0.00217058
0.00198691
0.00194664
0.00200566
0.00212242
0.00225671
0.00240234
0.00257611
0.00278444
0.00302253
0.00328059
0.000268621
0.00127711
0.00211404
0.00257823
0.00282064
0.00294373
0.00299082
0.00256515
0.0021949
0.00201033
0.00196626
0.00201957
0.00213139
0.00226191
0.00240497
0.00257704
0.00278482
0.00302328
0.0032816
0.000266257
0.00125647
0.00209167
0.00256306
0.00281412
0.00294505
0.00299807
0.00258978
0.00222187
0.00203564
0.00198788
0.00203625
0.00214393
0.00227151
0.00241237
0.00258246
0.00278888
0.0030266
0.00328399
0.000263948
0.00123558
0.00206889
0.0025475
0.00280723
0.00294591
0.00300482
0.00261714
0.00225136
0.00206285
0.00201148
0.00205553
0.00215974
0.0022851
0.002424
0.00259171
0.00279587
0.00303168
0.00328698
0.000261686
0.00121455
0.00204572
0.00253151
0.00279991
0.00294628
0.00301105
0.00264684
0.00228326
0.00209196
0.00203704
0.00207726
0.00217853
0.00230224
0.00243936
0.00260426
0.00280518
0.00303782
0.00328976
0.000259465
0.00119346
0.00202213
0.00251506
0.00279212
0.00294609
0.00301676
0.00267844
0.00231738
0.00212295
0.00206452
0.0021013
0.00220003
0.00232255
0.00245806
0.0026197
0.00281624
0.0030441
0.00329113
0.00025728
0.00117233
0.00199815
0.00249813
0.00278381
0.00294533
0.00302194
0.00271147
0.00235349
0.00215574
0.00209387
0.00212748
0.00222396
0.0023457
0.00247979
0.00263776
0.00282871
0.00305009
0.00329041
0.000255125
0.00115119
0.0019738
0.0024807
0.00277494
0.00294396
0.00302658
0.0027454
0.00239129
0.00219023
0.00212501
0.00215576
0.0022501
0.0023715
0.00250442
0.00265849
0.00284278
0.00305641
0.00328385
0.000252997
0.00113008
0.0019491
0.00246273
0.00276548
0.00294197
0.00303069
0.0027796
0.00243043
0.00222624
0.00215759
0.00218597
0.00227844
0.00239984
0.0025321
0.00268211
0.0028595
0.00306181
0.00327193
0.00025089
0.00110903
0.00192407
0.00244423
0.0027554
0.00293933
0.00303428
0.00281335
0.00247039
0.00226352
0.00219141
0.00221779
0.0023089
0.00243053
0.00256275
0.00270921
0.00287923
0.00305886
0.00326074
0.000248802
0.00108809
0.00189872
0.00242517
0.00274467