/*--------------------------------*- C++ -*----------------------------------*\
| =========                 |                                                 |
| \\      /  F ield         | OpenFOAM: The Open Source CFD Toolbox           |
|  \\    /   O peration     | Version:  v2012                                 |
|   \\  /    A nd           | Website:  www.openfoam.com                      |
|    \\/     M anipulation  |                                                 |
\*---------------------------------------------------------------------------*/
FoamFile
{
    version     2.0;
    format      ascii;
    class       volScalarField;
    location    "621";
    object      omega;
}
// * * * * * * * * * * * * * * * * * * * * * * * * * * * * * * * * * * * * * //

dimensions      [0 0 -1 0 0 0 0];


internalField   nonuniform List<scalar> 
6057
(
95.819
99.5364
103.599
108.055
112.966
118.409
124.483
131.314
139.068
147.964
158.301
170.496
185.148
203.146
225.863
255.516
295.877
353.77
442.446
589.855
42.6417
44.4724
46.4806
48.6906
51.1352
53.8565
56.9061
60.3491
64.268
68.7695
73.9927
80.122
87.4041
96.1731
106.883
120.147
136.758
157.603
183.112
210.885
33.3371
34.8455
36.5024
38.3303
40.3573
42.6169
45.1516
48.0144
51.272
55.0093
59.3363
64.3967
70.3816
77.549
86.2539
96.9958
110.499
127.859
150.872
182.898
30.2828
31.6905
33.2387
34.9484
36.8462
38.9642
41.3424
44.0305
47.0917
50.607
54.6817
59.455
65.1152
71.9218
80.243
90.6185
103.871
121.319
145.203
179.627
29.2155
30.5893
32.1013
33.7724
35.6283
37.7011
40.03
42.6647
45.6681
49.1213
53.1307
57.8384
63.4384
70.2024
78.5213
88.9778
102.472
120.449
145.319
181.218
29.2214
30.5934
32.1041
33.7743
35.6297
37.702
40.0307
42.6651
45.6684
49.1215
53.1308
57.8385
63.4385
70.2024
78.5214
88.9778
102.472
120.449
145.319
181.218
30.3047
31.7053
33.2487
34.9553
36.8509
38.9674
41.3444
44.0318
47.0926
50.6076
54.682
59.4553
65.1154
71.9219
80.2431
90.6186
103.871
121.319
145.203
179.627
33.394
34.8816
36.5263
38.3461
40.3674
42.6235
45.156
48.0173
51.2739
55.0106
59.3371
64.3972
70.382
77.5493
86.2541
96.9959
110.499
127.86
150.872
182.898
42.805
44.56
46.5357
48.7242
51.1568
53.8705
56.9153
60.3551
64.272
68.7721
73.9945
80.1232
87.4049
96.1736
106.884
120.147
136.758
157.603
183.112
210.885
95.68
99.452
103.544
108.018
112.94
118.391
124.471
131.306
139.062
147.96
158.298
170.494
185.147
203.145
225.862
255.515
295.877
353.77
442.446
589.855
53.7356
55.1817
56.6236
58.0686
59.524
60.9977
62.4977
64.0329
65.6127
67.2471
68.9469
70.7239
72.5904
74.5599
76.6469
78.862
81.2142
83.7239
86.4135
89.3074
92.4324
25.6692
25.8502
26.0795
26.3589
26.6907
27.0768
27.5192
28.0199
28.5808
29.2041
29.8919
30.6466
31.4707
32.3668
33.3383
34.3896
35.5182
36.7314
38.0385
39.4501
40.9793
19.1004
19.2651
19.4793
19.7416
20.0504
20.405
20.8047
21.2495
21.7397
22.2762
22.8602
23.4936
24.1784
24.9174
25.7148
26.5718
27.493
28.4848
29.5551
30.7128
31.969
16.6555
16.8672
17.1217
17.4164
17.7496
18.1199
18.5267
18.9697
19.4496
19.9672
20.5243
21.1228
21.7654
22.4552
23.196
23.9909
24.8454
25.7661
26.7605
27.8374
29.0072
15.6055
15.8644
16.1601
16.4902
16.8528
17.2469
17.6719
18.1279
18.6156
19.1363
19.6916
20.2841
20.9165
21.5924
22.3149
23.0887
23.9199
24.8154
25.783
26.8316
27.9715
15.2139
15.5241
15.8672
16.2408
16.6432
17.0734
17.5312
18.0168
18.5311
19.0756
19.6519
20.2624
20.91
21.5974
22.327
23.1038
23.9348
24.8286
25.7947
26.8415
27.9794
15.2363
15.6146
16.024
16.4618
16.9264
17.4167
17.9327
18.4753
19.0461
19.6475
20.2817
20.9512
21.6584
22.4041
23.1872
24.0085
24.8693
25.7936
26.7908
27.8674
29.0345
15.5928
16.0723
16.5833
17.1218
17.6847
18.2701
18.878
19.51
20.1703
20.8648
21.6011
22.3878
23.2328
24.143
25.1171
26.156
27.2685
28.3883
29.5223
30.7264
32.0148
16.2327
16.8685
17.5463
18.261
19.0081
19.7837
20.5848
21.4099
22.2594
23.1372
24.0538
25.0423
26.1349
27.3789
28.8392
30.5629
32.5543
34.7171
36.8461
38.7912
40.7481
17.0468
17.8903
18.8054
19.794
20.8606
22.0128
23.2609
24.6172
26.0958
27.7123
29.4827
31.424
33.5429
35.8333
38.6007
42.1316
46.6565
52.4421
59.7591
69.0265
80.9379
14.2792
13.4048
13.5472
15.4186
21.1285
25.5526
29.1179
32.0969
34.6099
36.8514
38.9085
40.829
42.6441
44.3756
46.0397
47.6494
49.2151
50.746
52.2503
15.021
10.0139
12.7104
18.1967
22.0204
23.9358
24.789
25.2123
25.4011
25.4567
25.4591
25.4354
25.4019
25.3702
25.3498
25.349
25.3748
25.4335
25.5303
18.5366
12.0131
15.3879
18.851
20.6829
21.3111
21.3565
21.1587
20.8271
20.4508
20.0889
19.7627
19.4836
19.2575
19.0876
18.9754
18.9214
18.9251
18.9853
22.6112
14.0762
16.3034
18.1729
18.9977
19.1268
18.9195
18.547
18.1019
17.6629
17.2706
16.9402
16.6781
16.4854
16.361
16.3025
16.3065
16.3693
16.4869
26.3647
15.3134
16.4148
17.2359
17.5325
17.4549
17.1712
16.7759
16.349
15.9537
15.6188
15.3545
15.1634
15.044
14.993
15.0062
15.0788
15.2059
15.3831
29.0936
15.9888
16.1987
16.4114
16.3738
16.1977
15.9016
15.539
15.1738
14.8529
14.5971
14.4131
14.3014
14.2592
14.2825
14.3668
14.5069
14.6981
14.9353
31.0577
16.3065
15.8631
15.7187
15.5014
15.251
14.9651
14.6541
14.3622
14.1219
13.9478
13.8443
13.8109
13.8452
13.9434
14.1013
14.3145
14.5781
14.887
32.666
16.3876
15.5003
15.1451
14.8358
14.542
14.264
14.007
13.7868
13.6238
13.5276
13.5013
13.545
13.657
13.8355
14.0774
14.379
14.7358
15.1425
33.9909
16.3422
15.1523
14.6713
14.3159
14.0053
13.7354
13.5224
13.3661
13.2719
13.246
13.2911
13.4089
13.6002
13.8657
14.2048
14.6155
15.0941
15.6354
35.0774
16.2476
14.8347
14.2771
13.899
13.5871
13.3333
13.15
13.0449
13.0081
13.0415
13.149
13.3348
13.6034
13.9588
14.4036
14.9377
15.5591
16.2638
17.6497
18.5832
19.5745
20.6223
21.7273
22.8931
24.1221
25.4162
26.7742
28.1869
29.6186
31.1283
32.7538
34.524
36.448
38.456
40.3298
41.4863
40.3686
37.4316
31.6942
17.4229
18.1391
18.8259
19.4668
20.0435
20.5364
20.9109
21.1205
21.1181
21.0665
21.0317
20.9589
20.7802
20.5539
20.3189
20.1037
19.5845
18.3567
16.3954
13.7073
13.1085
16.0581
16.2452
16.277
16.1259
15.7683
15.1864
14.388
13.4918
12.7589
12.1227
11.6038
11.1421
10.7319
10.3934
10.1416
9.96522
9.79793
9.60293
9.55369
9.76016
11.5726
13.6247
13.1105
12.3637
11.418
10.3519
9.28908
8.37658
7.77491
7.37147
7.11238
6.96893
6.91377
6.94006
7.0615
7.2665
7.55796
7.95502
8.47531
9.14985
10.0907
12.2954
10.6464
9.61472
8.50062
7.44065
6.56684
5.95015
5.62144
5.47306
5.4409
5.48607
5.59347
5.75646
5.97367
6.25258
6.59714
7.02163
7.55463
8.23951
9.14971
10.4813
13.1188
7.93884
6.87337
5.96743
5.29777
4.87743
4.6805
4.64133
4.68067
4.77601
4.91324
5.0887
5.30287
5.55901
5.86432
6.23169
6.68308
7.25633
8.01767
9.08449
10.7255
13.9133
6.01433
5.21926
4.66229
4.33633
4.18847
4.16701
4.22175
4.31821
4.44629
4.60262
4.78775
5.00428
5.25733
5.5561
5.91737
6.36852
6.95522
7.76211
8.94474
10.8476
14.6612
4.83625
4.3196
4.0179
3.88123
3.85367
3.89449
3.97715
4.08667
4.21906
4.37424
4.55386
4.76119
5.002
5.28643
5.63288
6.07289
6.65877
7.48905
8.75405
10.8807
15.3625
4.14174
3.82528
3.67183
3.62609
3.64697
3.70916
3.79888
3.90903
4.03858
4.18819
4.35974
4.55651
4.7842
5.05308
5.38206
5.80518
6.38018
7.21635
8.53525
10.8523
16.0225
3.72312
3.53292
3.45811
3.45502
3.49577
3.56507
3.65544
3.76363
3.88939
4.0336
4.19798
4.38551
4.60152
4.85595
5.16748
5.57065
6.12735
6.95609
8.30586
10.7829
16.647
3.45683
3.341
3.3081
3.32564
3.37487
3.44632
3.53604
3.64225
3.76502
3.90516
4.06408
4.24432
4.45064
4.69237
4.98753
5.37012
5.90413
6.7158
8.07829
10.6878
17.2419
3.27452
3.2028
3.19292
3.22094
3.27393
3.34609
3.43516
3.54005
3.66094
3.79847
3.95374
4.12872
4.32751
4.55855
4.83887
5.20158
5.71128
6.49967
7.86085
10.5776
17.812
3.14115
3.09621
3.09948
3.133
3.18782
3.26029
3.34897
3.45319
3.57319
3.70945
3.86271
4.03442
4.22787
4.45047
4.71794
5.06221
5.54766
6.30943
7.65885
10.4603
18.3619
3.03838
3.01017
3.02109
3.05757
3.11334
3.1859
3.27438
3.37841
3.49827
3.63435
3.78708
3.95737
4.14766
4.36415
4.62109
4.94893
5.41131
6.14519
7.47541
10.3415
18.8955
2.95628
2.93863
2.954
2.99207
3.04816
3.12059
3.20889
3.31298
3.43323
3.56998
3.72345
3.89401
4.0832
4.29591
4.54476
4.85858
5.29982
6.00608
7.3122
10.2256
19.4164
2.88896
2.87803
2.89598
2.93467
2.99054
3.06254
3.15053
3.25473
3.37567
3.51375
3.66899
3.84131
4.03131
4.24248
4.48573
4.78812
5.21068
5.89072
7.16991
10.1156
19.9278
2.83305
2.82633
2.84554
2.88406
2.93919
3.01035
3.09778
3.20201
3.32379
3.46363
3.6215
3.79683
3.98933
4.20108
4.44114
4.73476
5.1414
5.79745
7.0486
10.014
20.4327
2.78642
2.78215
2.8016
2.83927
2.89312
2.96303
3.04958
3.15364
3.27628
3.41818
3.57928
3.75866
3.95514
4.16936
4.40855
4.69604
5.08971
5.72458
6.94799
9.92274
20.9342
2.74762
2.74448
2.76335
2.79956
2.85164
2.91987
3.0052
3.10888
3.23231
3.37642
3.54119
3.7254
3.92709
4.14546
4.38591
4.66985
5.05355
5.67043
6.86758
9.84363
21.4351
2.71554
2.71253
2.73015
2.7644
2.81425
2.88041
2.96422
3.06731
3.19143
3.3378
3.5065
3.69613
3.90398
4.12795
4.37158
4.65441
5.03115
5.63353
6.80684
9.77822
21.9383
2.68927
2.68566
2.70152
2.73337
2.78061
2.84442
2.92646
3.02878
3.1535
3.30212
3.4749
3.67032
3.88507
4.11581
4.36431
4.64829
5.02103
5.61254
6.76525
9.72814
22.447
2.66812
2.66337
2.67711
2.70623
2.75057
2.81184
2.89197
2.99341
3.11864
3.26947
3.44639
3.64781
3.86996
4.10838
4.3632
4.6504
5.022
5.60639
6.74241
9.69507
22.9647
2.65164
2.64543
2.65678
2.683
2.72427
2.78285
2.86097
2.96147
3.08717
3.24019
3.42124
3.62877
3.85862
4.1054
4.36771
4.65998
5.03321
5.61425
6.73807
9.68087
23.495
2.63974
2.63183
2.64069
2.66384
2.70198
2.75775
2.83381
2.93339
3.05958
3.21479
3.39997
3.61364
3.85134
4.10689
4.37762
4.67661
5.05409
5.63555
6.75216
9.68804
24.0422
2.63243
2.62265
2.62904
2.64913
2.684
2.73693
2.81094
2.90967
3.03646
3.19396
3.38331
3.6031
3.84868
4.11322
4.39303
4.70015
5.08439
5.67001
6.78488
9.71963
24.6116
2.62966
2.61781
2.62171
2.63892
2.67065
2.72068
2.7928
2.8909
3.01854
3.17852
3.37215
3.59809
3.85147
4.12502
4.41435
4.73083
5.12418
5.71764
6.83674
9.78101
25.2092
2.63129
2.61718
2.61849
2.63283
2.66174
2.70926
2.77977
2.8777
3.00663
3.16947
3.36764
3.59976
3.8608
4.14324
4.44231
4.76916
5.17386
5.77877
6.90837
9.87816
25.8432
2.63704
2.62048
2.61911
2.63059
2.65693
2.70262
2.77232
2.87082
3.00176
3.16805
3.37113
3.60951
3.87803
4.16906
4.47793
4.81601
5.23418
5.85417
6.99645
9.99786
26.502
2.64664
2.62748
2.62344
2.63227
2.65652
2.70118
2.77106
2.87133
3.00523
3.17575
3.38423
3.62902
3.90475
4.20367
4.52151
4.87117
5.30372
5.93987
7.09718
10.13
27.173
2.66001
2.6382
2.63168
2.63841
2.6615
2.70609
2.77725
2.87985
3.01748
3.19293
3.40731
3.6587
3.94158
4.24829
4.57527
4.93668
5.38449
6.03825
7.21212
10.2722
27.859
2.67742
2.65309
2.64446
2.64964
2.67229
2.71756
2.79096
2.89723
3.03977
3.22123
3.44238
3.7009
3.99104
4.30535
4.64118
5.01437
5.47818
6.15078
7.34259
10.426
28.5582
2.69983
2.67287
2.66235
2.66655
2.6896
2.73675
2.81377
2.92507
3.07394
3.26271
3.49163
3.7579
4.05545
4.37709
4.72136
5.10624
5.58663
6.27934
7.48953
10.5933
29.2699
2.72778
2.69821
2.68618
2.69016
2.71471
2.7652
2.84743
2.9654
3.12221
3.31973
3.55754
3.83219
4.13728
4.46594
4.81818
5.21455
5.71192
6.42582
7.65535
10.7754
29.9933
2.76207
2.73006
2.71705
2.72183
2.74926
2.80483
2.89407
3.02059
3.18715
3.39496
3.64282
3.92649
4.2392
4.57451
4.93419
5.34183
5.85637
6.59224
7.84168
10.973
30.7258
2.80373
2.76958
2.75637
2.76325
2.79531
2.85795
2.95621
3.09336
3.27161
3.49135
3.7504
4.04369
4.36405
4.70557
5.07216
5.49076
6.02245
6.78075
8.05039
11.1869
31.4623
2.85401
2.8182
2.80585
2.81655
2.85517
2.92708
3.03667
3.18675
3.37877
3.61208
3.88343
4.18683
4.51476
4.86202
5.23496
5.66415
6.21265
6.99348
8.28313
11.4174
32.1947
2.91433
2.87753
2.86744
2.88415
2.93146
3.01515
3.13866
3.30413
3.51203
3.76052
4.04515
4.35903
4.69432
5.04675
5.42547
5.86481
6.42936
7.23229
8.54098
11.6639
32.911
2.98685
2.94951
2.94325
2.96807
3.02715
3.12547
3.26571
3.44911
3.67495
3.94008
4.2388
4.56333
4.90562
5.26257
5.64648
6.0953
6.67465
7.49838
8.824
11.9243
33.595
3.07393
3.03709
3.03565
3.07163
3.14558
3.26163
3.42153
3.62538
3.87108
4.15409
4.46746
4.80259
5.15134
5.51205
5.90047
6.35779
6.94995
7.79185
9.13079
12.1944
34.2265
3.17762
3.14313
3.14856
3.19804
3.2903
3.42738
3.60989
3.83656
4.1038
4.40563
4.73392
5.07934
5.43377
5.79735
6.18946
6.65378
7.25582
8.11402
9.45939
12.4599
34.7789
3.30004
3.27032
3.28624
3.3519
3.46521
3.62662
3.83458
4.08619
4.37629
4.69752
5.04064
5.39569
5.75475
6.12014
6.51476
6.98388
7.59235
8.46717
9.80258
12.6951
35.2081
3.44343
3.4217
3.45443
3.53836
3.67495
3.86351
4.09958
4.3779
4.69176
5.03253
5.38994
5.75353
6.11575
6.48168
6.87701
7.34748
7.96054
8.84628
10.1483
12.9188
35.5194
3.6101
3.59986
3.6526
3.76054
3.9248
4.14297
4.40943
4.71584
5.05387
5.41378
5.78435
6.15484
6.51832
6.88318
7.27631
7.7427
8.35652
9.23767
10.4824
13.1297
35.6785
3.80287
3.80941
3.88741
4.02457
4.22092
4.47198
4.76992
5.1052
5.46718
5.8452
6.22714
6.60234
6.96481
7.32681
7.71234
8.16744
8.76992
9.61772
10.7778
13.2895
35.6897
4.02556
4.05903
4.16678
4.33806
4.57096
4.85818
5.18911
5.55249
5.93753
6.33189
6.72283
7.10026
7.46028
7.81099
8.18199
8.61566
9.1826
9.95565
10.9986
13.3696
35.5515
4.28269
4.3534
4.49792
4.7096
4.98397
5.3103
5.67539
6.06631
6.47175
6.8804
7.27779
7.65585
8.00921
8.34483
8.68492
9.07336
9.56415
10.2114
11.1064
13.3603
35.2791
4.58234
4.69886
4.89073
5.15068
5.47145
5.83883
6.23768
6.65488
7.07925
7.49958
7.90196
8.28239
8.62175
8.92583
9.20653
9.50917
9.86806
10.337
11.0625
13.2149
34.8136
4.94611
5.11548
5.36269
5.67761
6.04802
6.45617
6.88628
7.32723
7.77001
8.20265
8.61203
8.98596
9.3027
9.54185
9.71484
9.86811
10.0283
10.2783
10.8211
12.9626
34.164
5.37895
5.61911
5.93328
6.30967
6.7306
7.17623
7.63323
8.096
8.55916
9.0105
9.43168
9.7938
10.0431
10.1482
10.1352
10.0537
9.96007
9.987
10.3696
12.5818
33.2274
5.91253
6.23893
6.62977
7.0705
7.53803
8.01427
8.49434
8.98236
9.47571
9.95723
10.3874
10.6865
10.7784
10.6449
10.3353
9.94338
9.5953
9.44609
9.8327
12.151
32.0579
6.58688
7.01186
7.48509
7.98556
8.48946
8.98883
9.49584
10.0249
10.568
11.082
11.4619
11.5865
11.3765
10.8553
10.1546
9.46231
8.95331
8.75149
9.26548
11.7309
30.7051
7.44516
7.98052
8.53244
9.07805
9.60543
10.1307
10.688
11.2881
11.8967
12.3754
12.5602
12.3084
11.5925
10.5708
9.52087
8.65153
8.11122
8.02579
8.72373
11.3476
29.2017
8.54868
9.18833
9.79824
10.3696
10.9203
11.5053
12.1572
12.8648
13.4589
13.7144
13.4054
12.4761
11.131
9.72118
8.51052
7.61128
7.13134
7.3295
8.26812
11.0511
27.5496
9.93776
10.6585
11.3024
11.8988
12.5203
13.2302
14.0427
14.7646
15.083
14.6597
13.4274
11.7137
9.95929
8.45478
7.2934
6.55514
6.36254
6.84995
8.05919
11.1801
25.92
11.6314
12.4042
13.0935
13.7784
14.5676
15.5126
16.3611
16.6931
16.0384
14.3428
12.1827
10.1588
8.46072
7.18297
6.28566
5.87606
6.06086
6.77028
8.21817
11.6785
24.339
13.6039
14.4765
15.3348
16.2508
17.3912
18.3404
18.5177
17.3678
15.0003
12.3353
10.1762
8.51722
7.29187
6.50509
6.02322
5.91551
6.2768
7.13194
8.7928
12.4169
22.7291
15.9341
17.1265
18.4433
19.8353
20.7369
20.3799
18.1552
14.7837
11.9147
9.75113
8.62427
7.80455
7.15209
6.68266
6.45061
6.54098
7.01099
7.98134
9.7712
13.246
21.0187
19.1173
21.0451
22.9855
23.2451
21.307
17.3402
12.6953
10.4251
9.47086
8.94931
8.56759
8.15159
7.75328
7.47296
7.41242
7.65123
8.22089
9.25777
11.0129
13.9652
19.093
24.9072
26.2805
25.8231
19.3118
13.5696
10.8102
9.46292
9.20372
9.45183
9.70219
9.77223
9.65346
9.42236
9.19517
9.1209
9.37719
9.97594
10.9393
12.385
14.3781
16.7076
37.8773
21.4058
20.6946
19.91
18.0898
15.7042
13.3666
12.5745
12.9806
13.8062
14.7062
15.5869
16.4367
17.2731
18.1332
19.076
19.9453
20.5357
20.5671
19.4791
14.1203
36.0293
16.1297
14.5342
13.9274
13.5388
13.2348
13.001
12.8464
12.7743
12.7824
12.8641
13.0239
13.2691
13.6074
14.045
14.584
15.2219
15.9519
16.7647
36.8278
16.0107
14.2643
13.6269
13.2351
12.9421
12.7263
12.5921
12.5419
12.5737
12.6853
12.8785
13.1614
13.5416
14.0208
14.5926
15.2414
15.9456
16.6808
37.5093
15.8969
14.0177
13.3605
12.9698
12.6873
12.4842
12.3611
12.3198
12.3589
12.4784
12.6807
12.97
13.3467
13.7993
14.3025
14.8201
15.3111
15.7352
38.0681
15.7798
13.7857
13.1162
12.7288
12.4535
12.2562
12.1337
12.0884
12.1196
12.2269
12.4113
12.6695
12.9858
13.3273
13.6451
13.8828
13.987
13.9124
38.5136
15.6584
13.5634
12.8859
12.5014
12.229
12.0298
11.8982
11.8373
11.847
11.9252
12.0665
12.2541
12.4509
12.6
12.6337
12.49
12.1223
11.5058
38.8578
15.5354
13.3479
12.6637
12.2806
12.0061
11.7982
11.6495
11.5643
11.5426
11.5781
11.6545
11.7359
11.763
11.662
11.3649
10.8282
10.0421
9.04663
39.1097
15.4118
13.1376
12.4461
12.062
11.7811
11.5591
11.3881
11.2739
11.2152
11.1984
11.1921
11.1398
10.9654
10.5955
9.98643
9.13873
8.11167
7.02168
39.2779
15.2878
12.9315
12.2313
11.8436
11.5531
11.3138
11.1186
10.9745
10.8768
10.8016
10.6996
10.4966
10.1126
9.49632
8.64811
7.63103
6.56673
5.59817
39.3706
15.1638
12.7292
12.0185
11.6253
11.3233
11.0659
10.8477
10.6759
10.5402
10.403
10.1971
9.83832
9.25947
8.44916
7.46106
6.41299
5.44783
4.67756
39.396
15.04
12.5309
11.8081
11.4081
11.0943
10.8203
10.5826
10.3874
10.216
10.0149
9.702
9.1938
8.45169
7.51174
6.47683
5.49063
4.67674
4.08949
39.3621
14.9171
12.3369
11.6008
11.1935
10.8691
10.5818
10.33
10.1166
9.91197
9.64633
9.22777
8.58474
7.71891
6.71071
5.69585
4.81459
4.14758
3.70681
39.2762
14.7955
12.1478
11.3976
10.9835
10.6508
10.3548
10.0949
9.86867
9.63304
9.30305
8.78367
8.02655
7.07617
6.04755
5.0909
4.32216
3.78093
3.44905
39.1455
14.6756
11.9641
11.1996
10.7798
10.442
10.1426
9.88076
9.64631
9.38136
8.9881
8.37589
7.52742
6.5254
5.50912
4.62692
3.96095
3.52079
3.26666
38.9766
14.558
11.7864
11.0079
10.5839
10.2447
9.94744
9.68938
9.45027
9.15701
8.70264
8.00706
7.0886
6.06091
5.07666
4.27016
3.69275
3.33114
3.13164
38.7752
14.443
11.6152
10.8232
10.397
10.0603
9.7704
9.52099
9.2799
8.95969
8.44648
7.6761
6.70772
5.67344
4.73119
3.99362
3.49034
3.18874
3.02784
38.547
14.3307
11.4508
10.6461
10.2198
9.88938
9.6116
9.37482
9.13422
8.78855
8.21618
7.38154
6.3814
5.35261
4.45466
3.77887
3.33607
3.0793
2.94586
38.2965
14.2214
11.2935
10.4771
10.0527
9.73207
9.47047
9.24942
9.01103
8.6405
8.01135
7.12295
6.10233
5.08853
4.23373
3.6116
3.21699
2.99378
2.87999
38.0281
14.1151
11.1433
10.3162
9.89575
9.58803
9.34587
9.14313
8.90813
8.51237
7.83059
6.89728
5.86506
4.87256
4.05738
3.48049
3.12434
2.92635
2.82666
37.7454
14.0118
11.0001
10.1634
9.74877
9.45657
9.23632
9.05342
8.82278
8.40211
7.6723
6.70169
5.66471
4.69726
3.91651
3.37724
3.0521
2.8731
2.7835
37.4514
13.9113
10.8638
10.0187
9.61135
9.33675
9.14006
8.97781
8.75237
8.30787
7.53484
6.53361
5.49686
4.55512
3.80496
3.29689
2.99607
2.8313
2.74878
37.149
13.8137
10.7342
9.8817
9.48295
9.22744
9.05537
8.91428
8.69445
8.22796
7.41671
6.39162
5.35732
4.43937
3.71802
3.23555
2.95319
2.79885
2.72115
36.8402
13.7186
10.611
9.75205
9.36293
9.12747
8.98047
8.86091
8.64707
8.16083
7.31642
6.27348
5.2428
4.34676
3.6518
3.18984
2.92101
2.77408
2.69956
36.527
13.626
10.4937
9.62937
9.25061
9.03568
8.9137
8.81588
8.60857
8.10478
7.23253
6.17777
5.15207
4.2753
3.60225
3.1564
2.89761
2.75588
2.68323
36.211
13.5357
10.3822
9.51321
9.1453
8.95097
8.85358
8.77753
8.57759
8.059
7.16438
6.10228
5.08261
4.2223
3.56695
3.13359
2.88216
2.74389
2.67208
35.8934
13.4476
10.276
9.40314
9.0463
8.87231
8.79883
8.7445
8.55297
8.02274
7.111
6.0451
5.03216
4.18556
3.54427
3.12039
2.87409
2.73784
2.666
35.5752
13.3614
10.1748
9.2987
8.95295
8.79875
8.74831
8.7156
8.53369
7.99525
7.07133
6.00454
4.99873
4.16338
3.53297
3.11603
2.87296
2.73748
2.66487
35.2571
13.277
10.0783
9.19946
8.86464
8.72947
8.70109
8.6898
8.51885
7.97582
7.04434
5.97903
4.98066
4.15439
3.53212
3.11988
2.87836
2.74256
2.6685
34.9399
13.1943
9.98613
9.10501
8.78079
8.66375
8.65633
8.6662
8.50763
7.96377
7.02902
5.96721
4.97648
4.15749
3.54096
3.13141
2.88993
2.75277
2.67662
34.6236
13.1132
9.89797
9.01496
8.70091
8.60096
8.61334
8.64402
8.49927
7.95842
7.02441
5.96781
4.98496
4.1718
3.55892
3.15022
2.90735
2.76784
2.68895
34.3086
13.0336
9.81362
8.92896
8.62453
8.54059
8.57153
8.62257
8.49308
7.9591
7.02966
5.9797
5.00503
4.19659
3.58556
3.17603
2.93042
2.7876
2.70534
33.996
12.9557
9.73274
8.84672
8.55127
8.48218
8.53044
8.6012
8.48831
7.96518
7.04409
6.00195
5.03583
4.23129
3.62053
3.20863
2.95911
2.81211
2.72583
33.6854
12.8786
9.65545
8.7682
8.48106
8.42569
8.48974
8.57866
8.48299
7.97581
7.06835
6.03418
5.07677
4.27556
3.66342
3.24788
2.99372
2.84203
2.75167
33.3838
12.8109
9.58333
8.69381
8.41385
8.37082
8.4491
8.55456
8.47601
7.98802
7.09874
6.07571
5.12806
4.32983
3.71653
3.29672
3.03635
2.87866
2.78336
33.09
12.7518
9.51614
8.62327
8.34935
8.31729
8.40827
8.52859
8.46703
8.00049
7.13387
6.12556
5.18876
4.39447
3.78002
3.3551
3.08729
2.92253
2.82159
32.803
12.6999
9.45366
8.55636
8.28734
8.26488
8.36702
8.50056
8.45574
8.01274
7.1729
6.18278
5.25809
4.46886
3.85357
3.42311
3.147
2.97435
2.86728
32.5219
12.6541
9.39576
8.49291
8.22762
8.21341
8.32522
8.47032
8.4419
8.02433
7.21511
6.2465
5.33528
4.55237
3.93686
3.50092
3.21607
3.03503
2.92156
32.2459
12.6139
9.34228
8.43278
8.17004
8.16273
8.28277
8.43779
8.42534
8.03481
7.25983
6.31596
5.41959
4.64437
4.02962
3.58874
3.29522
3.10569
2.98579
31.9743
12.5786
9.29305
8.37587
8.11448
8.11277
8.23961
8.40297
8.40593
8.04379
7.30646
6.3906
5.51028
4.74429
4.13158
3.68684
3.38524
3.18758
3.06163
31.7066
12.5481
9.24789
8.32208
8.06086
8.06347
8.19575
8.36589
8.38362
8.05092
7.35439
6.47021
5.60677
4.8518
4.24263
3.79551
3.48698
3.28215
3.15094
31.4421
12.5218
9.20666
8.27133
8.00913
8.01481
8.1512
8.32668
8.3584
8.05582
7.40161
6.55369
5.70934
4.96654
4.36336
3.91521
3.6014
3.39068
3.25573
31.1802
12.4994
9.1692
8.22352
7.95925
7.9668
8.10605
8.28548
8.33035
8.05817
7.44731
6.63957
5.81793
5.08818
4.49348
4.04632
3.72942
3.51491
3.37751
30.9207
12.4804
9.13536
8.17861
7.91122
7.91949
8.06041
8.24251
8.29963
8.05777
7.49094
6.72546
5.93121
5.21763
4.63302
4.1896
3.87199
3.65576
3.51797
30.6629
12.4643
9.10502
8.13654
7.86503
7.87295
8.01442
8.19805
8.26644
8.0545
7.53206
6.81065
6.04769
5.35389
4.78206
4.34501
4.02973
3.81417
3.67873
30.4066
12.4508
9.07799
8.09725
7.82073
7.82729
7.96828
8.1524
8.23112
8.04838
7.57033
6.89451
6.16632
5.49608
4.94048
4.51297
4.20263
3.99116
3.86157
30.1514
12.4394
9.0541
8.06071
7.77836
7.78263
7.9222
8.10596
8.19406
8.03958
7.60558
6.97651
6.28627
5.6441
5.10796
4.69317
4.39139
4.188
4.0687
29.897
12.4295
9.03314
8.02685
7.73796
7.73913
7.87646
8.05915
8.15579
8.02845
7.63784
7.05638
6.40702
5.79703
5.28472
4.88588
4.59703
4.40653
4.30313
29.6432
12.4208
9.01485
7.9956
7.69961
7.69696
7.83136
8.01246
8.11693
8.01553
7.66739
7.13414
6.52927
5.95545
5.47029
5.09211
4.82136
4.64973
4.56971
29.3898
12.4124
8.99895
7.96685
7.66334
7.65629
7.78721
7.96643
8.07821
8.00156
7.69484
7.21028
6.65284
6.12027
5.66616
5.31398
5.06761
4.92261
4.87706
29.1365
12.4038
8.98507
7.94049
7.62921
7.61732
7.74438
7.92165
8.04045
7.9875
7.72116
7.28642
6.78003
6.2922
5.87472
5.55504
5.34108
5.2332
5.23731
28.8833
12.3942
8.97281
7.91634
7.59721
7.58022
7.70324
7.87877
8.00459
7.97452
7.7477
7.36387
6.91312
6.47413
6.09982
5.82086
5.6501
5.59525
5.68084
28.6301
12.3827
8.96169
7.89418
7.56733
7.54513
7.66412
7.83844
7.9716
7.96395
7.77648
7.44601
7.05489
6.67024
6.34715
6.11978
6.00753
6.03023
6.24187
28.377
12.3686
8.95115
7.87372
7.53947
7.51214
7.62734
7.80127
7.94247
7.95728
7.8097
7.53715
7.20913
6.8861
6.62474
6.46414
6.43412
6.58131
6.95406
28.124
12.3508
8.94057
7.85466
7.5135
7.48127
7.59325
7.76791
7.91816
7.95603
7.84945
7.64011
7.38095
7.12937
6.9438
6.87237
6.96348
7.32743
7.89963
27.8712
12.3284
8.92929
7.83656
7.4892
7.45248
7.56211
7.73882
7.89954
7.96178
7.89954
7.7581
7.57569
7.40842
7.3197
7.37192
7.65048
8.30129
9.13203
27.6189
12.3004
8.91656
7.81897
7.46629
7.42567
7.53399
7.71437
7.88731
7.97593
7.96395
7.89479
7.79916
7.73384
7.77284
8.0049
8.63089
9.62686
10.7068
27.3672
12.266
8.90166
7.80135
7.44438
7.40062
7.50884
7.69467
7.8819
7.99932
8.04355
8.05323
8.05724
8.11822
8.32838
8.8151
9.88156
11.313
12.5688
27.1167
12.2242
8.88383
7.78313
7.42304
7.37702
7.48644
7.67958
7.88331
8.03221
8.13835
8.23512
8.35507
8.57453
9.01745
9.91522
11.5145
13.293
14.5613
26.8676
12.1743
8.86236
7.76371
7.40178
7.35449
7.46642
7.66868
7.89109
8.07416
8.24722
8.44009
8.69465
9.10894
9.84893
11.255
13.4356
15.1964
16.5158
26.6205
12.1157
8.83665
7.74255
7.3801
7.33254
7.44822
7.66123
7.90429
8.12382
8.36734
8.66419
9.06994
9.70803
10.7851
12.6961
15.2826
16.5829
18.6413
26.376
12.0473
8.80627
7.71924
7.35761
7.31077
7.43123
7.65618
7.92116
8.17833
8.49296
8.89723
9.46026
10.3267
11.7339
14.042
16.6022
17.6002
21.3157
26.185
11.9876
8.77855
7.69874
7.33859
7.29295
7.41787
7.65312
7.93655
8.22497
8.59687
9.08891
9.77784
10.819
12.4855
14.9557
17.4503
18.9238
23.8864
25.9962
11.9237
8.74777
7.67652
7.31868
7.27479
7.40457
7.65034
7.95225
8.27119
8.69659
9.26781
10.057
11.203
12.9601
15.2531
17.9393
19.2893
17.7841
25.8096
11.8553
8.71364
7.65216
7.29735
7.25571
7.39066
7.64714
7.96752
8.31622
8.7906
9.42812
10.2805
11.4386
13.0524
14.9977
17.7209
17.9204
17.6016
17.2302
16.141
15.7819
15.7639
15.8853
16.0682
16.2681
16.4625
16.6389
16.7898
16.9097
16.9934
17.0337
17.0194
16.9293
16.7221
16.3167
15.5724
14.3838
12.3153
5.46802
6.97575
6.24297
6.15248
6.15879
6.20246
6.26096
6.33177
6.41612
6.51611
6.63427
6.77369
6.93844
7.13392
7.36709
7.64641
7.98018
8.3689
8.77952
9.11433
9.16452
8.37375
5.12749
4.79374
4.71072
4.70831
4.75189
4.82173
4.91341
5.02617
5.16081
5.31914
5.50398
5.71951
5.97179
6.2698
6.62695
7.06285
7.60319
8.27285
9.0761
9.94826
10.1966
4.42158
4.19111
4.12042
4.12222
4.16544
4.23316
4.32271
4.43407
4.56749
4.72438
4.90742
5.12091
5.37147
5.66941
6.03084
6.48101
7.05842
7.81786
8.83738
10.1775
11.5074
3.96923
3.79951
3.73816
3.73632
3.77034
3.83127
3.91272
4.01576
4.14049
4.28814
4.46127
4.6642
4.90374
5.19074
5.54264
5.98788
6.57282
7.37435
8.51794
10.1709
12.5033
3.65128
3.5021
3.44229
3.43424
3.45972
3.51228
3.58591
3.68081
3.79694
3.93535
4.09847
4.29046
4.51809
4.79221
5.13056
5.56267
6.1393
6.95174
8.15446
10.0428
13.3104
3.40101
3.26299
3.20311
3.18861
3.20702
3.2526
3.32087
3.40953
3.51878
3.64952
3.80397
3.98608
4.20238
4.46354
4.78711
5.20289
5.76397
6.56677
7.79747
9.86002
13.996
3.19975
3.06872
3.00822
2.98912
3.00252
3.0431
3.10741
3.19145
3.29537
3.41987
3.56694
3.74027
3.9461
4.19479
4.5036
4.90238
5.44453
6.2321
7.47389
9.66874
14.5981
3.03848
2.91186
2.85022
2.82842
2.83881
2.87627
2.93729
3.01789
3.11762
3.23697
3.37767
3.54317
3.73938
3.9763
4.27087
4.65267
5.17572
5.94559
7.18881
9.4861
15.1366
2.91066
2.78559
2.72285
2.69993
2.70888
2.74447
2.80313
2.88111
2.97748
3.09247
3.22761
3.38607
3.57345
3.79936
4.08037
4.44584
4.95013
5.70153
6.94062
9.3186
15.6251
2.80981
2.68411
2.62101
2.59814
2.60677
2.64139
2.6984
2.77435
2.86791
2.97913
3.10936
3.26149
3.44078
3.65646
3.9247
4.27462
4.76085
5.49382
6.72545
9.16781
16.0731
2.7307
2.60339
2.54046
2.51836
2.52735
2.56161
2.61746
2.69173
2.78287
2.89079
3.01664
3.16307
3.33501
3.54123
3.79753
4.13279
4.60183
5.31685
6.53903
9.03332
16.4881
2.66936
2.54011
2.4776
2.45661
2.46629
2.50049
2.55546
2.62826
2.71723
2.82219
2.94414
3.08549
3.25078
3.44836
3.69357
4.01508
4.46793
5.16576
6.37738
8.91395
16.8755
2.62265
2.49142
2.42934
2.40948
2.41991
2.45413
2.50831
2.57971
2.66665
2.76893
2.88741
3.02428
3.18366
3.37341
3.60841
3.91712
4.35483
5.03642
6.237
8.80833
17.24
2.58825
2.45494
2.3931
2.37415
2.38515
2.41926
2.47259
2.54255
2.62754
2.72735
2.84278
2.97575
3.12997
3.31273
3.53841
3.83528
4.25895
4.92538
6.11489
8.71513
17.5854
2.56456
2.42886
2.36677
2.34826
2.35947
2.39321
2.44551
2.5139
2.59694
2.69446
2.8072
2.93686
3.0867
3.26335
3.48062
3.76662
4.17735
4.82977
6.00852
8.63312
17.9149
2.55018
2.41169
2.34863
2.32993
2.34085
2.37384
2.42482
2.49146
2.5725
2.66783
2.77821
2.90513
3.05137
3.22282
3.43261
3.70872
4.10761
4.7472
5.91576
8.56125
18.2311
2.54399
2.40218
2.33731
2.31766
2.32769
2.35946
2.40879
2.47347
2.55236
2.64555
2.75384
2.87855
3.02198
3.18916
3.39245
3.65964
4.04779
4.67573
5.83482
8.49861
18.5366
2.54484
2.39924
2.3317
2.31027
2.31876
2.34882
2.39616
2.45858
2.53516
2.62617
2.73254
2.85551
2.99689
3.1608
3.35859
3.61786
3.99629
4.61372
5.76416
8.44438
18.8334
2.5517
2.40193
2.3309
2.3069
2.31318
2.34105
2.38599
2.44584
2.51989
2.60862
2.71315
2.83472
2.9748
3.13651
3.32984
3.58213
3.95181
4.55977
5.70245
8.39787
19.1236
2.56364
2.40946
2.33418
2.30689
2.31038
2.33555
2.37768
2.43464
2.50589
2.59213
2.69472
2.81514
2.95462
3.11525
3.30527
3.55141
3.9132
4.51266
5.64851
8.3584
19.409
2.57959
2.42129
2.34114
2.30987
2.30993
2.33193
2.37088
2.42462
2.49271
2.57613
2.67654
2.79595
2.93539
3.09559
3.28351
3.52469
3.87934
4.47127
5.60127
8.32535
19.6914
2.59857
2.43709
2.35167
2.31554
2.31168
2.3301
2.3655
2.41563
2.48011
2.5602
2.65836
2.77676
2.9159
3.07588
3.26281
3.50053
3.84921
4.43459
5.55981
8.29815
19.9725
2.6208
2.45628
2.36538
2.32398
2.31571
2.33013
2.36153
2.40751
2.46789
2.54436
2.63969
2.75639
2.89509
3.05531
3.24209
3.47787
3.8221
4.40182
5.52336
8.27635
20.2541
2.64667
2.47865
2.38219
2.33521
2.32198
2.33185
2.35873
2.40005
2.45573
2.52784
2.61965
2.73421
2.87247
3.03345
3.22086
3.45616
3.79752
4.3724
5.49137
8.25964
20.538
2.67649
2.50452
2.40221
2.34914
2.33028
2.33484
2.35648
2.39247
2.44291
2.5102
2.59809
2.71018
2.84793
3.01017
3.19923
3.43517
3.77484
4.34595
5.46345
8.24791
20.8258
2.71085
2.53426
2.42557
2.36569
2.34031
2.33871
2.35436
2.38455
2.42947
2.49173
2.57544
2.68475
2.82179
2.98558
3.17716
3.41483
3.7539
4.32228
5.43941
8.24132
21.1196
2.74954
2.56855
2.4528
2.38514
2.35223
2.3436
2.35271
2.37682
2.4161
2.47324
2.55256
2.65867
2.7946
2.95992
3.15467
3.3951
3.73463
4.30134
5.41922
8.2403
21.4215
2.79111
2.60593
2.48323
2.4074
2.36635
2.35014
2.35229
2.37013
2.40373
2.45566
2.5304
2.63283
2.76702
2.93355
3.13178
3.3759
3.71698
4.28315
5.40297
8.24553
21.7337
2.8351
2.64541
2.51606
2.43208
2.38265
2.35865
2.35381
2.36546
2.3935
2.44023
2.50996
2.60816
2.7398
2.90689
3.10861
3.35713
3.70089
4.26781
5.39085
8.25801
22.059
2.88174
2.6872
2.55084
2.45889
2.40126
2.36952
2.35778