/*--------------------------------*- C++ -*----------------------------------*\
| =========                 |                                                 |
| \\      /  F ield         | OpenFOAM: The Open Source CFD Toolbox           |
|  \\    /   O peration     | Version:  v2012                                 |
|   \\  /    A nd           | Website:  www.openfoam.com                      |
|    \\/     M anipulation  |                                                 |
\*---------------------------------------------------------------------------*/
FoamFile
{
    version     2.0;
    format      ascii;
    class       volScalarField;
    location    "621";
    object      p;
}
// * * * * * * * * * * * * * * * * * * * * * * * * * * * * * * * * * * * * * //

dimensions      [0 2 -2 0 0 0 0];


internalField   nonuniform List<scalar> 
6057
(
0.320136
0.32069
0.321165
0.321577
0.321941
0.322268
0.322568
0.322849
0.323116
0.323375
0.323626
0.323873
0.324117
0.324361
0.324607
0.324857
0.325117
0.325439
0.325971
0.326745
0.32014
0.320702
0.321181
0.321593
0.321957
0.322285
0.322586
0.32287
0.32314
0.323403
0.32366
0.323913
0.324164
0.324416
0.324669
0.324923
0.325177
0.325452
0.325774
0.326058
0.320183
0.320739
0.321208
0.32161
0.321963
0.322282
0.322577
0.322855
0.323123
0.323384
0.32364
0.323893
0.324145
0.324398
0.324652
0.324899
0.325138
0.325379
0.325588
0.325687
0.320325
0.320855
0.321297
0.321673
0.322003
0.322303
0.322584
0.322853
0.323113
0.323368
0.32362
0.32387
0.324119
0.324368
0.324616
0.324853
0.325082
0.325301
0.325472
0.325531
0.320573
0.321055
0.32145
0.321783
0.322079
0.322353
0.322615
0.32287
0.32312
0.323369
0.323616
0.323863
0.324109
0.324356
0.324599
0.324833
0.325057
0.325264
0.325418
0.325464
0.320934
0.321333
0.321659
0.321931
0.322183
0.322424
0.322663
0.322902
0.323142
0.323383
0.323625
0.323869
0.324114
0.324359
0.324601
0.324834
0.325058
0.325265
0.325419
0.325465
0.32143
0.321688
0.321917
0.32211
0.322306
0.32251
0.322724
0.322946
0.323175
0.323409
0.323647
0.323888
0.324131
0.324376
0.324621
0.324856
0.325084
0.325303
0.325473
0.325532
0.322115
0.322115
0.32221
0.322301
0.322435
0.3226
0.32279
0.322998
0.323218
0.323447
0.323682
0.323921
0.324164
0.32441
0.324659
0.324904
0.325142
0.325382
0.32559
0.325689
0.322983
0.322581
0.322476
0.322456
0.322534
0.322668
0.322842
0.323039
0.323253
0.323477
0.323709
0.323946
0.324186
0.32443
0.324679
0.324929
0.325181
0.325455
0.325776
0.32606
0.323841
0.32299
0.322596
0.322506
0.322548
0.322666
0.32283
0.323021
0.32323
0.323449
0.323675
0.323905
0.324138
0.324374
0.324616
0.324863
0.325121
0.325442
0.325974
0.326747
0.4124
0.393319
0.376568
0.362114
0.349884
0.339763
0.331605
0.325239
0.320477
0.317119
0.314957
0.313778
0.313378
0.313565
0.314161
0.315007
0.315977
0.316963
0.317899
0.318747
0.319492
0.412383
0.393261
0.376446
0.361921
0.34962
0.339432
0.331216
0.324804
0.320009
0.316636
0.314477
0.313322
0.312963
0.313205
0.313866
0.314786
0.31582
0.316862
0.317839
0.318714
0.31948
0.409685
0.390709
0.374037
0.359654
0.347496
0.337455
0.329388
0.32313
0.318495
0.31529
0.313309
0.312338
0.312165
0.312584
0.313411
0.314479
0.315643
0.316786
0.317828
0.318738
0.31952
0.404369
0.385686
0.369324
0.355265
0.343442
0.333745
0.326029
0.320126
0.31585
0.313007
0.311391
0.310781
0.310954
0.311696
0.312817
0.314139
0.31551
0.316807
0.317937
0.318881
0.319671
0.396394
0.378171
0.362305
0.348768
0.337484
0.328339
0.321186
0.315848
0.312134
0.309838
0.308768
0.3087
0.309383
0.310591
0.312131
0.313814
0.315469
0.316972
0.318209
0.31917
0.319944
0.38578
0.368194
0.353016
0.3402
0.329661
0.321283
0.31491
0.310336
0.307345
0.305762
0.305436
0.306117
0.307497
0.309317
0.311399
0.313557
0.315578
0.31735
0.318709
0.319627
0.320342
0.372607
0.355836
0.341534
0.329637
0.320044
0.312629
0.307206
0.303508
0.301377
0.30077
0.301446
0.303087
0.305417
0.308048
0.310775
0.313491
0.315957
0.31806
0.319521
0.320243
0.320848
0.357066
0.34129
0.328052
0.317259
0.308783
0.30247
0.29812
0.295532
0.294576
0.29511
0.29686
0.299579
0.303044
0.306769
0.310302
0.313622
0.316576
0.31898
0.320521
0.320995
0.321461
0.339589
0.325009
0.313026
0.303507
0.296291
0.2912
0.288051
0.286679
0.286885
0.288408
0.291157
0.295021
0.299663
0.304448
0.308921
0.313027
0.316544
0.319348
0.321678
0.322787
0.322047
0.320995
0.307836
0.29729
0.289179
0.283311
0.279498
0.277587
0.277442
0.278822
0.28141
0.285273
0.290334
0.296194
0.302415
0.308646
0.314501
0.319575
0.323514
0.327032
0.327477
0.319758
0.769617
0.768345
0.767616
0.767673
0.767513
0.765564
0.757952
0.742034
0.719785
0.693559
0.664735
0.634355
0.603255
0.57213
0.541572
0.512077
0.484067
0.457912
0.433928
0.769038
0.767338
0.767136
0.768006
0.768242
0.765442
0.755883
0.739175
0.71751
0.69187
0.663531
0.633545
0.602753
0.57186
0.541466
0.512078
0.484129
0.457993
0.433962
0.769348
0.767342
0.767311
0.767824
0.766427
0.760793
0.749155
0.732035
0.710659
0.685618
0.657953
0.628578
0.598305
0.567835
0.53778
0.508667
0.480947
0.455003
0.431127
0.771479
0.769003
0.768015
0.766267
0.7618
0.753312
0.740176
0.722652
0.701267
0.676597
0.649457
0.620619
0.590829
0.560772
0.531067
0.502259
0.474817
0.449141
0.425533
0.774756
0.771324
0.768115
0.763392
0.75582
0.744853
0.730189
0.71187
0.690153
0.665512
0.638585
0.610037
0.58055
0.550785
0.521361
0.492838
0.465701
0.440363
0.417134
0.777404
0.772246
0.766451
0.758776
0.748413
0.735184
0.718886
0.699501
0.677179
0.652274
0.625288
0.596799
0.567436
0.53784
0.50863
0.480377
0.453582
0.428665
0.405942
0.777587
0.770378
0.762277
0.751921
0.739117
0.723858
0.705966
0.685417
0.66231
0.636914
0.609639
0.581001
0.551589
0.522034
0.492961
0.464958
0.438539
0.414127
0.392035
0.774091
0.765138
0.755186
0.742605
0.727759
0.710725
0.691338
0.669598
0.645584
0.619518
0.591754
0.562769
0.533139
0.503496
0.474487
0.44672
0.42072
0.396911
0.375591
0.767202
0.756505
0.745064
0.73076
0.714257
0.695692
0.674929
0.652013
0.627021
0.60015
0.571732
0.542235
0.512242
0.482413
0.453429
0.425925
0.400436
0.377377
0.357011
0.756827
0.744522
0.731964
0.71637
0.698549
0.678694
0.6567
0.63266
0.60666
0.578899
0.549711
0.519585
0.489143
0.459099
0.430184
0.403065
0.378279
0.35621
0.337061
0.302127
0.290752
0.281933
0.275431
0.271012
0.268466
0.267634
0.268377
0.270452
0.273595
0.277757
0.282888
0.288684
0.294783
0.300613
0.305613
0.309801
0.313812
0.316915
0.314366
0.302654
0.285072
0.275889
0.269083
0.264377
0.261541
0.260391
0.260806
0.262688
0.265845
0.270016
0.275007
0.280827
0.28723
0.293704
0.299469
0.304097
0.307868
0.31127
0.313094
0.311136
0.306372
0.271597
0.264554
0.259585
0.256444
0.254948
0.254945
0.256293
0.25888
0.262536
0.26695
0.272021
0.277798
0.284058
0.290438
0.296406
0.301475
0.305519
0.308573
0.309887
0.308602
0.306084
0.261616
0.256384
0.252887
0.250906
0.250267
0.250822
0.252453
0.255124
0.258776
0.263248
0.268386
0.274081
0.28015
0.28628
0.292089
0.29725
0.301532
0.304699
0.306251
0.305839
0.304428
0.254278
0.250302
0.247669
0.246215
0.245844
0.246502
0.248157
0.250797
0.25436
0.258743
0.263832
0.269479
0.275477
0.281519
0.287278
0.292476
0.296867
0.300161
0.302084
0.302478
0.301774
0.24835
0.245026
0.242754
0.241475
0.241175
0.241851
0.243495
0.246093
0.249585
0.25388
0.258866
0.2644
0.270276
0.276204
0.281891
0.287096
0.291576
0.295046
0.297348
0.298375
0.298142
0.242902
0.239871
0.237747
0.236538
0.236265
0.236937
0.238546
0.241077
0.244475
0.248657
0.253514
0.258906
0.264637
0.270439
0.276048
0.281259
0.285818
0.289453
0.292057
0.293532
0.293606
0.237528
0.234641
0.232596
0.231427
0.231164
0.231814
0.23337
0.235817
0.239104
0.243155
0.247866
0.253101
0.258679
0.264356
0.269889
0.275084
0.279691
0.28345
0.286266
0.288024
0.288292
0.232116
0.229324
0.227339
0.226201
0.225938
0.226555
0.228047
0.230398
0.233563
0.237471
0.242024
0.247095
0.252514
0.258064
0.263511
0.268668
0.27329
0.277122
0.280064
0.281978
0.282356
0.226677
0.22397
0.222042
0.22093
0.220661
0.221238
0.222659
0.224907
0.227942
0.231699
0.236087
0.240988
0.246243
0.251657
0.257009
0.262105
0.266708
0.270563
0.273558
0.275536
0.27597
0.221265
0.218642
0.21677
0.215682
0.215405
0.215939
0.217284
0.219425
0.222324
0.225923
0.230142
0.234867
0.239955
0.245225
0.250471
0.255486
0.260038
0.263875
0.266865
0.268844
0.269297
0.215937
0.2134
0.211585
0.210521
0.210234
0.210724
0.211991
0.214021
0.216781
0.22022
0.224263
0.22881
0.233726
0.238845
0.24397
0.248888
0.253364
0.257153
0.260099
0.262038
0.262487
0.210747
0.208299
0.206541
0.205502
0.205206
0.205651
0.20684
0.208758
0.211379
0.214655
0.218521
0.222885
0.227625
0.232584
0.237575
0.242383
0.246768
0.250487
0.253366
0.255242
0.255676
0.205739
0.203381
0.201683
0.200671
0.200367
0.200769
0.20188
0.203689
0.20617
0.209284
0.212972
0.217152
0.221712
0.226506
0.231353
0.23604
0.240326
0.243962
0.246762
0.248564
0.248979
0.200951
0.198686
0.197048
0.196065
0.195755
0.196117
0.197154
0.198856
0.201201
0.204156
0.207668
0.211664
0.216043
0.220669
0.225366
0.229926
0.234106
0.237654
0.240374
0.242099
0.242498
0.196413
0.194241
0.192667
0.191715
0.191402
0.191727
0.192694
0.194294
0.196508
0.199308
0.202649
0.206466
0.210666
0.215122
0.219669
0.224099
0.228172
0.231633
0.234276
0.235929
0.236317
0.192147
0.19007
0.188561
0.187642
0.18733
0.187623
0.188524
0.190029
0.19212
0.194773
0.19795
0.201593
0.205619
0.20991
0.214308
0.218612
0.22258
0.225958
0.228533
0.230122
0.230509
0.18817
0.186189
0.184747
0.183864
0.183557
0.183821
0.184665
0.186081
0.188058
0.190574
0.193597
0.197076
0.200937
0.20507
0.209326
0.213508
0.217379
0.220681
0.2232
0.224737
0.225136
0.184494
0.18261
0.181237
0.180393
0.180093
0.180335
0.181127
0.182464
0.184337
0.186728
0.189609
0.192937
0.196645
0.200632
0.204755
0.208826
0.21261
0.215848
0.218326
0.219824
0.220249
0.181127
0.179342
0.178039
0.177236
0.176948
0.177173
0.177921
0.179188
0.180968
0.183247
0.186001
0.189194
0.192763
0.196618
0.200624
0.204597
0.208308
0.211496
0.21395
0.215425
0.215897
0.17808
0.176392
0.175159
0.174399
0.174126
0.174339
0.175049
0.176256
0.177956
0.180137
0.182781
0.185856
0.189306
0.193048
0.196954
0.200848
0.204504
0.207659
0.210109
0.21158
0.21212
0.175363
0.173771
0.172606
0.171887
0.17163
0.171835
0.172515
0.173672
0.175303
0.177403
0.179954
0.182931
0.186283
0.189934
0.193763
0.197599
0.201222
0.204366
0.206834
0.208324
0.20895
0.172948
0.171474
0.170386
0.169706
0.169464
0.169663
0.170318
0.171433
0.17301
0.175043
0.177521
0.180421
0.183699
0.187284
0.191061
0.194867
0.198482
0.201639
0.204154
0.205684
0.206411
0.170814
0.169461
0.168479
0.167859
0.16763
0.167821
0.168455
0.169537
0.171071
0.173054
0.175479
0.178326
0.181556
0.185103
0.188858
0.192663
0.196302
0.199502
0.202089
0.203676
0.204532
0.169002
0.16773
0.166842
0.166313
0.166125
0.16631
0.166921
0.167977
0.169481
0.171431
0.173824
0.176643
0.179853
0.183392
0.18716
0.191
0.194698
0.197974
0.200658
0.202317
0.203361
0.167533
0.166323
0.165489
0.165029
0.164909
0.165114
0.165709
0.166744
0.16823
0.170166
0.172549
0.175365
0.178585
0.182153
0.18597
0.189885
0.193684
0.197073
0.199897
0.2017
0.202944
0.166393
0.165242
0.16445
0.164023
0.163947
0.164196
0.1648
0.165826
0.167309
0.169249
0.171644
0.174486
0.177749
0.181382
0.185291
0.189325
0.193267
0.196811
0.19984
0.201893
0.203314
0.165568
0.164467
0.163714
0.163313
0.163255
0.163531
0.164162
0.165204
0.166704
0.168669
0.171101
0.173999
0.17734
0.181078
0.185123
0.189326
0.193461
0.197221
0.20051
0.202724
0.204436
0.165043
0.163982
0.163262
0.162886
0.16284
0.163124
0.163782
0.164867
0.166405
0.168415
0.17091
0.173892
0.177347
0.181233
0.185464
0.189891
0.194283
0.198343
0.201925
0.204275
0.206351
0.164811
0.16378
0.163085
0.162728
0.162691
0.162982
0.163675
0.164814
0.166405
0.168481
0.171062
0.174159
0.177765
0.181844
0.186316
0.191027
0.195739
0.200142
0.203984
0.206685
0.209153
0.16487
0.163859
0.163181
0.162835
0.162799
0.163113
0.163858
0.165047
0.166701
0.168859
0.171551
0.174793
0.178588
0.182909
0.187677
0.192737
0.197838
0.202619
0.206812
0.209916
0.212867
0.165221
0.164221
0.163554
0.163214
0.163178
0.163526
0.164326
0.165565
0.16729
0.169546
0.172369
0.175787
0.179811
0.184422
0.189545
0.195023
0.200583
0.205827
0.21052
0.214031
0.217503
0.16587
0.164873
0.164207
0.163864
0.163841
0.16423
0.165069
0.166363
0.168168
0.170536
0.173512
0.177135
0.181426
0.186376
0.191917
0.197882
0.203976
0.209765
0.214994
0.218994
0.223069
0.166823
0.16582
0.165148
0.164794
0.164792
0.165223
0.166092
0.167441
0.169333
0.171825
0.174973
0.178828
0.183425
0.188764
0.194782
0.201306
0.208009
0.21442
0.220242
0.224793
0.229547
0.168087
0.167068
0.166385
0.16602
0.166034
0.166495
0.167392
0.168798
0.17078
0.173406
0.176744
0.180857
0.185794
0.19157
0.198125
0.205276
0.212656
0.219757
0.226224
0.231377
0.236881
0.16967
0.168625
0.167923
0.167551
0.167573
0.168043
0.168968
0.170431
0.172507
0.175275
0.178816
0.183209
0.188519
0.194774
0.201919
0.209757
0.217873
0.225727
0.232878
0.238651
0.24495
0.17158
0.1705
0.169766
0.169392
0.16942
0.169877
0.170823
0.172339
0.17451
0.177424
0.181179
0.185869
0.191577
0.198346
0.206126
0.214697
0.223593
0.232263
0.240104
0.246452
0.253548
0.173835
0.172709
0.171935
0.171551
0.171568
0.172002
0.172958
0.174522
0.176784
0.179845
0.183818
0.188815
0.194938
0.202244
0.210686
0.220009
0.229716
0.239262
0.247705
0.254529
0.262368
0.176445
0.175262
0.174446
0.174031
0.174008
0.174414
0.175372
0.176976
0.179323
0.182528
0.186717
0.192022
0.198562
0.206409
0.215507
0.225562
0.23608
0.246469
0.255334
0.262559
0.270988
0.179421
0.178167
0.177299
0.176828
0.176746
0.177114
0.178067
0.179701
0.182124
0.185463
0.189859
0.195459
0.202399
0.210758
0.220461
0.231172
0.242427
0.253425
0.26257
0.270118
0.278848
0.182773
0.181432
0.180497
0.179948
0.179788
0.180108
0.181041
0.182693
0.185179
0.188637
0.19322
0.199089
0.206386
0.21519
0.225388
0.236618
0.248399
0.259676
0.269021
0.276686
0.285297
0.186514
0.185069
0.184044
0.183398
0.183141
0.183396
0.184298
0.185953
0.188485
0.19204
0.196776
0.202867
0.210455
0.219615
0.230101
0.241645
0.253604
0.264895
0.274278
0.281855
0.289939
0.190662
0.189091
0.187951
0.187182
0.18681
0.186985
0.18784
0.189483
0.19204
0.195661
0.200501
0.206737
0.214522
0.223901
0.234373
0.245888
0.257659
0.268764
0.277931
0.285423
0.292914
0.195235
0.19351
0.192225
0.191306
0.1908
0.190879
0.191674
0.193288
0.195845
0.199496
0.204375
0.210673
0.218484
0.227612
0.237915
0.24899
0.260175
0.270831
0.279568
0.286976
0.293773
0.200253
0.198341
0.196873
0.195775
0.195117
0.195087
0.195807
0.197376
0.199906
0.203532
0.20836
0.214663
0.222226
0.230732
0.240427
0.250616
0.260856
0.270686
0.278811
0.286011
0.292152
0.20574
0.203599
0.201904
0.200597
0.199767
0.199616
0.200255
0.201764
0.204233
0.207751
0.212398
0.218483
0.225302
0.233175
0.241686
0.250523
0.259499
0.268173
0.275523
0.282294
0.288506
0.211726
0.209301
0.207328
0.205776
0.204755
0.204479
0.205037
0.206477
0.20884
0.212182
0.216603
0.221899
0.22795
0.234657
0.241582
0.248712
0.256151
0.263499
0.270053
0.276367
0.28284
0.218237
0.215462
0.213145
0.211305
0.210084
0.209687
0.210173
0.211527
0.21375
0.216961
0.221039
0.225149
0.230099
0.235091
0.240109
0.245429
0.251232
0.257294
0.263151
0.268919
0.275344
0.22529
0.222069
0.219335
0.217161
0.215741
0.215246
0.215668
0.21694
0.219132
0.222139
0.224941
0.228037
0.231384
0.234481
0.237609
0.241245
0.245539
0.250462
0.255684
0.260849
0.26721
0.232885
0.229081
0.225845
0.2233
0.221696
0.221132
0.221529
0.222893
0.225071
0.226688
0.228556
0.230708
0.232123
0.233259
0.234703
0.236861
0.239906
0.243844
0.248365
0.252966
0.259212
0.240985
0.236435
0.232582
0.229643
0.227879
0.227317
0.227928
0.229469
0.230297
0.231346
0.232642
0.232809
0.232325
0.231805
0.231824
0.232754
0.234792
0.237891
0.241755
0.245802
0.251516
0.249469
0.243968
0.239362
0.236039
0.234188
0.23388
0.234927
0.235315
0.235752
0.236454
0.235871
0.234277
0.232257
0.230372
0.229258
0.229278
0.230556
0.232995
0.23639
0.239957
0.245005
0.258105
0.251372
0.245917
0.242315
0.240555
0.24066
0.24093
0.241058
0.241466
0.240574
0.238411
0.235412
0.232161
0.229308
0.227414
0.226782
0.22754
0.229614
0.232758
0.235938
0.240512
0.266506
0.258184
0.2519
0.248212
0.246459
0.246231
0.246361
0.246771
0.245993
0.243735
0.24029
0.236314
0.23238
0.228931
0.22649
0.225468
0.225969
0.227955
0.231046
0.234121
0.238463
0.273969
0.263548
0.256498
0.252483
0.251019
0.250936
0.251383
0.250945
0.248995
0.245744
0.241665
0.237264
0.232942
0.229139
0.226444
0.225311
0.225814
0.227978
0.231311
0.234777
0.23921
0.279289
0.265976
0.258209
0.254499
0.253769
0.254144
0.254114
0.252885
0.250463
0.247084
0.242912
0.238297
0.233723
0.229786
0.22714
0.226204
0.227048
0.229701
0.233656
0.238069
0.242797
0.280282
0.264796
0.257482
0.254808
0.25446
0.254535
0.25426
0.253274
0.251278
0.248121
0.243963
0.239288
0.234705
0.230928
0.228619
0.228125
0.229572
0.233001
0.237998
0.243706
0.248513
0.27493
0.259727
0.254557
0.253298
0.253128
0.253317
0.253609
0.253296
0.251685
0.248671
0.244638
0.240177
0.235906
0.232533
0.230722
0.230839
0.233084
0.237556
0.243954
0.25074
0.254628
0.259334
0.251425
0.251199
0.250768
0.251349
0.252462
0.253101
0.252821
0.251329
0.24861
0.244957
0.240863
0.236969
0.234024
0.232792
0.233729
0.237048
0.242745
0.250321
0.256821
0.258729
0.245936
0.247582
0.248329
0.249324
0.250609
0.251789
0.252305
0.251941
0.250595
0.248245
0.245042
0.241382
0.237911
0.235502
0.234993
0.23689
0.24115
0.247372
0.254787
0.259755
0.2602
0.742023
0.728707
0.715448
0.698937
0.680091
0.65914
0.63605
0.610934
0.583909
0.555194
0.525157
0.494342
0.463451
0.433281
0.404634
0.378208
0.354522
0.333889
0.316414
0.722822
0.708955
0.695433
0.678375
0.658793
0.63696
0.612923
0.586815
0.558797
0.529132
0.498258
0.466824
0.435658
0.405681
0.377773
0.352641
0.330732
0.312223
0.297052
0.700344
0.686327
0.672788
0.655516
0.635463
0.612982
0.588187
0.56124
0.532356
0.501874
0.470349
0.438587
0.407585
0.378399
0.351955
0.328888
0.309472
0.293653
0.281138
0.675477
0.661488
0.648052
0.63076
0.610465
0.587562
0.562202
0.534607
0.505059
0.474009
0.442183
0.410586
0.380404
0.352784
0.328598
0.308282
0.291824
0.278884
0.268959
0.648849
0.635007
0.621754
0.604537
0.584219
0.561101
0.535398
0.507395
0.477468
0.446224
0.414597
0.383815
0.35521
0.329916
0.308608
0.291399
0.277946
0.267661
0.259922
0.620958
0.607398
0.59437
0.577326
0.557172
0.534045
0.508244
0.480124
0.450182
0.419216
0.388388
0.359117
0.332781
0.310361
0.292203
0.278048
0.267258
0.259098
0.25293
0.592295
0.579141
0.56639
0.549646
0.529798
0.506865
0.481228
0.453315
0.423774
0.393607
0.364184
0.337032
0.313448
0.294123
0.279016
0.267522
0.258815
0.252135
0.246926
0.56335
0.5507
0.538312
0.521975
0.502557
0.480017
0.454807
0.427443
0.39873
0.369865
0.342366
0.317756
0.297124
0.280797
0.268356
0.258954
0.25171
0.245952
0.241273
0.534565
0.522499
0.510557
0.494717
0.475854
0.453903
0.42938
0.402895
0.375408
0.348268
0.323057
0.301184
0.28344
0.269778
0.259481
0.251595
0.245305
0.24009
0.235704
0.506324
0.494898
0.483472
0.468214
0.450031
0.428853
0.405257
0.379947
0.354014
0.328904
0.306169
0.287014
0.271899
0.260452
0.251776
0.244931
0.239243
0.234353
0.230149
0.478946
0.468201
0.457345
0.44275
0.425365
0.405121
0.382656
0.358758
0.334614
0.311704
0.29147
0.274856
0.262006
0.252309
0.244808
0.238664
0.233362
0.228689
0.224626
0.452691
0.442654
0.43241
0.418548
0.402056
0.382877
0.361701
0.339382
0.317161
0.296496
0.278664
0.26432
0.25334
0.244981
0.238318
0.23265
0.227616
0.223113
0.219186
0.42776
0.418444
0.408844
0.395768
0.380241
0.362221
0.342438
0.321788
0.301523
0.283045
0.267446
0.255071
0.245586
0.238229
0.232164
0.226837
0.222011
0.217668
0.213879
0.404299
0.395704
0.386765
0.37451
0.359994
0.343187
0.324848
0.305882
0.287511
0.271086
0.257554
0.246858
0.238526
0.231913
0.226286
0.221222
0.216581
0.212397
0.208752
0.382401
0.374516
0.366242
0.354825
0.341338
0.325762
0.308867
0.291532
0.274904
0.260413
0.248808
0.239486
0.23202
0.225958
0.220666
0.215822
0.21136
0.207341
0.203843
0.362117
0.354921
0.347303
0.336723
0.324259
0.309902
0.294412
0.278618
0.263622
0.250938
0.240949
0.232736
0.225974
0.220328
0.215305
0.210662
0.206381
0.20253
0.199182
0.343459
0.336922
0.329941
0.320182
0.308718
0.295541
0.281389
0.267014
0.253652
0.242583
0.233739
0.226441
0.220305
0.214996
0.210213
0.205766
0.201668
0.197989
0.194792
0.326408
0.320495
0.314123
0.305157
0.294651
0.282603
0.269715
0.256653
0.244833
0.235119
0.227118
0.220563
0.214955
0.209955
0.205401
0.20115
0.197239
0.193734
0.19069
0.310922
0.305595
0.299798
0.291586
0.281987
0.270997
0.259296
0.247488
0.236979
0.228329
0.221052
0.215101
0.209929
0.205219
0.200884
0.19683
0.193109
0.189779
0.186888
0.296942
0.29216
0.2869
0.279396
0.270641
0.260624
0.249984
0.239372
0.229991
0.222154
0.215504
0.210036
0.205244
0.200809
0.196675
0.192815
0.189285
0.186134
0.183396
0.284397
0.280121
0.275354
0.268507
0.260529
0.251396
0.241683
0.232168
0.223768
0.216569
0.210452
0.205369
0.200904
0.196728
0.192779
0.189111
0.185776
0.182806
0.180224
0.273214
0.269398
0.265085
0.258841
0.25157
0.243246
0.234371
0.225789
0.218194
0.211539
0.205883
0.20112
0.196907
0.19296
0.189208
0.185734
0.182585
0.179791
0.177373
0.263318
0.259918
0.256014
0.250321
0.243689
0.236097
0.227985
0.220173
0.213219
0.207043
0.201785
0.197298
0.193287
0.18954
0.185997
0.182713
0.179729
0.177086
0.174817
0.254629
0.251602
0.248068
0.242872
0.23681
0.229869
0.222438
0.215268
0.208835
0.203074
0.198154
0.193913
0.19009
0.186527
0.183174
0.180063
0.177231
0.17472
0.172566
0.24707
0.244378
0.241175
0.236423
0.230864
0.224492
0.21766
0.211032
0.205032
0.199626
0.194992
0.190968
0.187327
0.183933
0.180748
0.177793
0.175102
0.172715
0.170666
0.240568
0.238175
0.235266
0.230909
0.225793
0.219914
0.213601
0.207431
0.20179
0.196687
0.192296
0.188463
0.184987
0.181749
0.178715
0.1759
0.173339
0.171067
0.169117
0.235055
0.232927
0.230283
0.226273
0.221542
0.21609
0.210223
0.204439
0.199096
0.194247
0.190061
0.186393
0.183065
0.179967
0.177068
0.17438
0.171935
0.169766
0.167905
0.23047
0.228581
0.226171
0.222464
0.218065
0.212979
0.207495
0.202033
0.196933
0.192297
0.188281
0.184755
0.181556
0.178583
0.175802
0.173225
0.170881
0.168801
0.167016
0.226752
0.225053
0.222888
0.219436
0.215321
0.210548
0.205388
0.200194
0.195291
0.190828
0.186953
0.183546
0.180457
0.17759
0.174911
0.172429
0.17017
0.168165
0.166442
0.223876
0.222445
0.220402
0.217145
0.213275
0.208766
0.20388
0.198907
0.19416
0.189835
0.18607
0.18276
0.179764
0.176985
0.17439
0.171986
0.169795
0.167848
0.166173
0.221812
0.22063
0.218626
0.215556
0.211896
0.207608
0.202951
0.19816
0.193532
0.18931
0.18563
0.182395
0.179472
0.176764
0.174236
0.171891
0.169752
0.167848
0.166206
0.220435
0.219343
0.217479
0.214629
0.211152
0.207051
0.202586
0.197941
0.1934
0.189253
0.185631
0.18245
0.179581
0.176926
0.174446
0.172144
0.170041
0.168163
0.166542
0.219729
0.21866
0.21699
0.214343
0.211022
0.207081
0.202772
0.198241
0.193761
0.189662
0.186074
0.182926
0.180091
0.17747
0.175022
0.172746
0.170663
0.168799
0.167187
0.219713
0.218715
0.217194
0.21469
0.211495
0.207685
0.2035
0.199054
0.194611
0.190537
0.186962
0.183825
0.181005
0.178402
0.175968
0.173703
0.171625
0.169762
0.168146
0.220394
0.219483
0.218064
0.215656
0.212559
0.208854
0.204766
0.200379
0.19595
0.19188
0.188298
0.185152
0.182329
0.179725
0.177291
0.175021
0.172935
0.17106
0.169428
0.221723
0.220936
0.21956
0.21722
0.214203
0.210579
0.206564
0.202216
0.197783
0.193694
0.190085
0.186912
0.184068
0.181449
0.178999
0.17671
0.174601
0.1727
0.171039
0.223645
0.223003
0.221641
0.219363
0.216413
0.212853
0.208891
0.204565
0.200112
0.195986
0.192331
0.189114
0.186233
0.183583
0.181102
0.178781
0.176635
0.174693
0.17299
0.226128
0.225593
0.224272
0.222066
0.219175
0.215667
0.211745
0.207429
0.202945
0.198766
0.195049
0.19177
0.188836
0.18614
0.183615
0.181247
0.17905
0.177054
0.175295
0.229165
0.228706
0.227445
0.225315
0.222479
0.219017
0.215126
0.210811
0.20629
0.202045
0.19825
0.194895
0.191892
0.189136
0.186553
0.184123
0.181862
0.179797
0.177971
0.232752
0.232364
0.231162
0.229103
0.226319
0.222899
0.219034
0.214718
0.210156
0.205837
0.201952
0.198507
0.19542
0.192588
0.189932
0.187427
0.185084
0.182939
0.181032
0.236877
0.236559
0.235412
0.23342
0.230689
0.227313
0.223472
0.219155
0.214555
0.210156
0.206173
0.202625
0.199441
0.196518
0.193774
0.191176
0.188739
0.1865
0.184488
0.241519
0.241269
0.240176
0.238254
0.235581
0.232253
0.22844
0.22413
0.219498
0.215022
0.210934
0.207274
0.203979
0.200951
0.198101
0.195395
0.192852
0.190495
0.188354
0.246655
0.246472
0.245437
0.243592
0.240986
0.237717
0.233941
0.229648
0.225
0.220453
0.21626
0.212481
0.209064
0.205914
0.202941
0.200117
0.197447
0.194942
0.192648
0.252261
0.252145
0.251175
0.249418
0.246893
0.243698
0.239974
0.235717
0.231074
0.226471
0.222179
0.218278
0.214729
0.211442
0.208336
0.205379
0.20255
0.199867
0.197392
0.258312
0.258266
0.257369
0.255713
0.253287
0.250189
0.246538
0.24234
0.237732
0.233098
0.228721
0.224701
0.221015
0.217579
0.214332
0.211216
0.208193
0.205301
0.202613
0.264778
0.264805
0.263992
0.262454
0.260151
0.257176
0.253627
0.249522
0.244985
0.240355
0.235918
0.23179
0.227965
0.224385
0.220984
0.21767
0.21442
0.211284
0.208343
0.271627
0.27173
0.271013
0.269613
0.267461
0.264643
0.261233
0.25726
0.252843
0.248263
0.243803
0.239593
0.23564
0.231921
0.228345
0.2248
0.221288
0.217865
0.214622
0.278819
0.279002
0.278395
0.277157
0.275188
0.272568
0.26934
0.265548
0.261311
0.256841
0.25241
0.248152
0.244108
0.240257
0.236478
0.232679
0.228868
0.225101
0.221492
0.286309
0.286577
0.286097
0.285046
0.283294
0.280918
0.277925
0.274375
0.270385
0.266101
0.261768
0.257518
0.25343
0.24946
0.24547
0.241398
0.237241
0.23306
0.228997
0.294048
0.294405
0.294068
0.293231
0.291735
0.289651
0.286954
0.283718
0.280056
0.276043
0.271896
0.267743
0.263665
0.259598
0.255414
0.25105
0.246492
0.241807
0.237173
0.301978
0.30243
0.302252
0.301656
0.300456
0.298713
0.296381
0.293544
0.290295
0.286657
0.282799
0.278851
0.274864
0.27075
0.266401
0.261732
0.256702
0.251393
0.246031
0.310039
0.31059
0.310587
0.310259
0.309391
0.30803
0.306144
0.303808
0.301057
0.297906
0.294466
0.290844
0.28705
0.282979
0.278513
0.273525
0.267938
0.261844
0.255544
0.318164
0.318816
0.319002
0.318966
0.318473
0.317536
0.31617
0.314426
0.312266
0.309722
0.306845
0.30369
0.300222
0.296313
0.291801
0.286489
0.280232
0.273146
0.265605
0.326282
0.327037
0.327423
0.3277
0.327618
0.327158
0.326363
0.325274
0.323813
0.321999
0.319834
0.317309
0.31433
0.31073
0.306268
0.300635
0.293566
0.285242
0.275988
0.334319
0.335175
0.335769
0.336371
0.336727
0.336787
0.336602
0.336223
0.335556
0.33459
0.33328
0.331553
0.329251
0.326136
0.321847
0.315899
0.307868
0.298063
0.286308
0.3422
0.343154
0.343957
0.344888
0.345691
0.346298
0.346751
0.347124
0.347321
0.347299
0.346969
0.3462
0.344769
0.342336
0.338378
0.332141
0.323059
0.311586
0.295978
0.349848
0.350894
0.351901
0.353153
0.354399
0.35556
0.356664
0.357805
0.358901
0.359881
0.360622
0.360946
0.360563
0.359014
0.355556
0.349148
0.339004
0.325217
0.303008
0.35719
0.358323
0.35952
0.361075
0.362742
0.364443
0.366184
0.368075
0.370062
0.372054
0.373904
0.3754
0.376196
0.375711
0.372953
0.366695
0.355393
0.337031
0.302936
0.364153
0.365377
0.36674
0.368566
0.370614
0.372819
0.375155
0.377741
0.380562
0.383513
0.386434
0.389093
0.391099
0.391781
0.389989
0.384464
0.372257
0.348472
0.299067
0.370662
0.372009
0.373493
0.37555
0.377924
0.380573
0.383432
0.386621
0.390169
0.39396
0.397825
0.401523
0.404624
0.406409
0.405844
0.401591
0.390591
0.366327
0.301843
0.376287
0.37754
0.379046
0.381269
0.383869
0.386845
0.390086
0.393705
0.39777
0.402153
0.406679
0.411096
0.414947
0.41753
0.418172
0.415311
0.407456
0.380891
0.314037
0.380974
0.382012
0.383546
0.385871
0.38862
0.391824
0.395329
0.39923
0.403629
0.408386
0.413315
0.418145
0.422394
0.42547
0.427105
0.426519
0.422385
0.386345
0.30154
0.385122
0.386089
0.387698
0.390091
0.392949
0.39632
0.400018
0.404109
0.40872
0.413696
0.418834
0.423828
0.428185
0.43147
0.43377
0.436109
0.435037
0.397056
0.295504
0.39701
0.405955
0.409824
0.411559
0.41271
0.413884
0.41538
0.417356
0.41989
0.423012
0.426723
0.431
0.435803
0.441049
0.446515
0.451768
0.456385
0.460103
0.461944
0.46181
0.461591
0.411168
0.41095
0.411658
0.412133
0.412704
0.413537
0.414791
0.41656
0.4189
0.42183
0.425338
0.42939
0.433932
0.438881
0.44407
0.44922
0.454022
0.458093
0.460702
0.46152
0.461501
0.418263
0.415015
0.413427
0.412748
0.412674
0.413106
0.414089
0.415652
0.417815
0.420572
0.423899
0.427747
0.432046
0.436698
0.441556
0.44643
0.451109
0.455334
0.458758
0.460804
0.461102
0.421224
0.417015
0.414337
0.412851
0.412229
0.412278
0.412972
0.414303
0.416259
0.418817
0.421937
0.425561
0.429611
0.433983
0.438546
0.443147
0.447613
0.451801
0.455647
0.458635
0.459637
0.421725
0.417392
0.414323
0.412402
0.411393
0.411138
0.41158
0.412691
0.414439
0.416788
0.419689
0.423076
0.426864
0.430949
0.435213
0.439526
0.443743
0.447778
0.451661
0.455006
0.456522
0.420755
0.416626
0.413501
0.411389
0.410159
0.409688
0.409926
0.410839
0.412389
0.414532
0.417213
0.420363
0.423894
0.427704
0.431678
0.435697
0.439636
0.443429
0.447127
0.450436
0.452081
0.418907
0.415085
0.412061
0.409916
0.408586
0.407976
0.408058
0.408803
0.410171
0.412118
0.414587
0.417505
0.420788
0.424332
0.428028
0.431758
0.435403
0.438893
0.442262
0.445291
0.446867
0.416541
0.413038
0.410193
0.408115
0.406752
0.406061
0.406029
0.406633
0.40784
0.409604
0.41187
0.414567
0.417611
0.420901
0.424327
0.427775
0.431125
0.434291
0.437274
0.439913
0.441316
0.413877
0.410682
0.408055
0.406088
0.404734
0.404003
0.403889
0.404378
0.405441
0.407038
0.409113
0.411601
0.414416
0.417464
0.420633
0.423807
0.426868
0.429713
0.432311
0.434541
0.435729
0.411058
0.408156
0.405757
0.40391
0.402598
0.401854
0.401684
0.40208
0.403017
0.404461
0.40636
0.40865
0.411251
0.414067
0.416992
0.419907
0.422691
0.425233
0.427475
0.429327
0.430298
0.4082
0.405569
0.403384
0.401656
0.400402
0.399665
0.399458
0.399776
0.400604
0.401909
0.403645
0.405751
0.408151