/*--------------------------------*- C++ -*----------------------------------*\
| =========                 |                                                 |
| \\      /  F ield         | OpenFOAM: The Open Source CFD Toolbox           |
|  \\    /   O peration     | Version:  v2012                                 |
|   \\  /    A nd           | Website:  www.openfoam.com                      |
|    \\/     M anipulation  |                                                 |
\*---------------------------------------------------------------------------*/
FoamFile
{
    version     2.0;
    format      ascii;
    class       surfaceScalarField;
    location    "621";
    object      phi;
}
// * * * * * * * * * * * * * * * * * * * * * * * * * * * * * * * * * * * * * //

dimensions      [0 3 -1 0 0 0 0];
oriented        oriented;


internalField   nonuniform List<scalar> 
11870
(
-0.000198832
-2.19246e-08
0.000198854
-0.000198829
-3.18498e-09
-0.000198842
1.29581e-08
-0.000198868
2.57655e-08
-0.000198904
3.61866e-08
-0.000198948
4.42853e-08
-0.000198999
5.06314e-08
-0.000199054
5.5723e-08
-0.000199114
6.00226e-08
-0.000199178
6.39094e-08
-0.000199246
6.76951e-08
-0.000199318
7.16382e-08
-0.000199394
7.59347e-08
-0.000199474
8.06744e-08
-0.00019956
8.57753e-08
-0.000199651
9.08439e-08
-0.000199746
9.49245e-08
-0.000199844
9.81104e-08
-0.00019994
9.57722e-08
6.03062e-08
-0.000200157
-9.37418e-08
0.000200229
-0.000200104
-5.61422e-08
-0.000200066
-2.50149e-08
-0.00020004
-3.58504e-10
-0.000200023
1.86798e-08
-0.000200012
3.31017e-08
-0.000200005
4.40489e-08
-0.000200002
5.24275e-08
-0.000200001
5.91183e-08
-0.000200002
6.47956e-08
-0.000200004
6.99844e-08
-0.000200008
7.5087e-08
-0.000200012
8.03703e-08
-0.000200017
8.58976e-08
-0.000200023
9.13333e-08
-0.000200028
9.59338e-08
-0.000200032
9.88455e-08
-0.000200032
9.82167e-08
-0.00020002
8.40118e-08
4.02243e-08
-0.000200508
-1.78734e-07
0.000200593
-0.000200443
-1.2142e-07
-0.000200392
-7.53872e-08
-0.000200353
-3.96635e-08
-0.000200321
-1.29542e-08
-0.000200295
6.80045e-09
-0.000200272
2.13281e-08
-0.000200252
3.19437e-08
-0.000200233
3.99801e-08
-0.000200214
4.63569e-08
-0.000200196
5.17583e-08
-0.000200178
5.66768e-08
-0.000200159
6.14334e-08
-0.000200139
6.61782e-08
-0.000200118
7.05383e-08
-0.000200096
7.32822e-08
-0.000200071
7.4309e-08
-0.000200044
7.10193e-08
-0.000200016
5.64654e-08
2.39585e-08
-0.000200637
-2.68011e-07
0.000200726
-0.000200569
-1.89052e-07
-0.000200516
-1.28006e-07
-0.000200474
-8.17584e-08
-0.000200439
-4.83915e-08
-0.000200408
-2.44506e-08
-0.000200379
-7.37925e-09
-0.000200352
4.55114e-09
-0.000200325
1.30768e-08
-0.000200298
1.93368e-08
-0.00020027
2.41447e-08
-0.000200241
2.80715e-08
-0.000200211
3.14876e-08
-0.00020018
3.45671e-08
-0.000200146
3.71144e-08
-0.000200112
3.86088e-08
-0.000200076
3.88689e-08
-0.000200041
3.62403e-08
-0.000200013
2.77538e-08
1.11856e-08
-0.000200661
-3.56186e-07
0.000200749
-0.000200598
-2.52243e-07
-0.00020055
-1.76421e-07
-0.000200511
-1.20739e-07
-0.000200477
-8.19406e-08
-0.000200446
-5.50997e-08
-0.000200417
-3.68054e-08
-0.000200388
-2.45177e-08
-0.000200359
-1.62874e-08
-0.000200328
-1.07991e-08
-0.000200297
-7.15632e-09
-0.000200264
-4.73247e-09
-0.00020023
-3.11736e-09
-0.000200193
-2.04814e-09
-0.000200155
-1.34838e-09
-0.000200115
-8.82229e-10
-0.000200076
-5.59088e-10
-0.000200039
-3.34217e-10
-0.000200011
-1.74816e-10
-5.80029e-11
-0.00020061
-4.3953e-07
0.000200693
-0.000200558
-3.03986e-07
-0.00020052
-2.1458e-07
-0.00020049
-1.51106e-07
-0.000200463
-1.09013e-07
-0.000200437
-8.11382e-08
-0.00020041
-6.29859e-08
-0.000200384
-5.1375e-08
-0.000200356
-4.41651e-08
-0.000200327
-3.99323e-08
-0.000200296
-3.77877e-08
-0.000200264
-3.70926e-08
-0.000200229
-3.74267e-08
-0.000200193
-3.84639e-08
-0.000200154
-3.96811e-08
-0.000200115
-4.02923e-08
-0.000200076
-3.99332e-08
-0.000200039
-3.68729e-08
-0.000200011
-2.80768e-08
-1.12921e-08
-0.000200479
-5.1825e-07
0.000200558
-0.000200449
-3.34233e-07
-0.000200428
-2.35356e-07
-0.000200412
-1.67122e-07
-0.000200396
-1.2502e-07
-0.000200379
-9.85468e-08
-0.00020036
-8.21816e-08
-0.000200339
-7.23013e-08
-0.000200316
-6.67647e-08
-0.000200292
-6.40546e-08
-0.000200266
-6.34522e-08
-0.000200239
-6.4401e-08
-0.00020021
-6.65135e-08
-0.000200179
-6.94987e-08
-0.000200146
-7.27268e-08
-0.000200111
-7.47298e-08
-0.000200076
-7.52213e-08
-0.000200041
-7.15575e-08
-0.000200013
-5.671e-08
-2.40381e-08
-0.00020023
-5.94788e-07
0.000200306
-0.00020024
-3.2385e-07
-0.000200247
-2.28481e-07
-0.000200253
-1.61233e-07
-0.000200253
-1.24296e-07
-0.00020025
-1.02424e-07
-0.000200242
-8.97016e-08
-0.000200232
-8.25848e-08
-0.000200219
-7.91466e-08
-0.000200205
-7.79782e-08
-0.00020019
-7.86223e-08
-0.000200174
-8.07592e-08
-0.000200156
-8.40968e-08
-0.000200138
-8.83421e-08
-0.000200117
-9.29518e-08
-0.000200095
-9.69948e-08
-0.000200071
-9.95128e-08
-0.000200044
-9.86434e-08
-0.000200016
-8.41358e-08
-4.02625e-08
-0.000199725
-6.24943e-07
0.000199755
-0.000199809
-2.39951e-07
-0.000199865
-1.71995e-07
-0.000199906
-1.20456e-07
-0.000199933
-9.68481e-08
-0.000199952
-8.34513e-08
-0.000199966
-7.62006e-08
-0.000199976
-7.25236e-08
-0.000199984
-7.1118e-08
-0.000199991
-7.11778e-08
-0.000199997
-7.24417e-08
-0.000200003
-7.47478e-08
-0.000200009
-7.79748e-08
-0.000200015
-8.20129e-08
-0.000200022
-8.66569e-08
-0.000200027
-9.14168e-08
-0.000200031
-9.5292e-08
-0.000200032
-9.83581e-08
-0.00020002
-9.57968e-08
-6.03169e-08
-0.000198161
0.000197536
-0.000198401
-0.000198573
-0.000198694
-0.000198791
-0.000198874
-0.00019895
-0.000199023
-0.000199094
-0.000199165
-0.000199237
-0.000199312
-0.00019939
-0.000199472
-0.000199559
-0.00019965
-0.000199746
-0.000199844
-0.00019994
-0.000177389
4.95351e-06
0.000172436
-0.000181692
4.30295e-06
-0.000185394
3.70112e-06
-0.000188537
3.14298e-06
-0.000191166
2.62966e-06
-0.000193328
2.16211e-06
-0.000195069
1.741e-06
-0.000196436
1.36649e-06
-0.000197474
1.03828e-06
-0.00019823
7.55817e-07
-0.000198748
5.18393e-07
-0.000199073
3.24932e-07
-0.000199246
1.73267e-07
-0.000199306
5.99062e-08
-0.000199288
-1.87887e-08
-0.000199222
-6.59953e-08
-0.000199133
-8.90863e-08
-0.000199041
-9.16953e-08
-0.00019896
-8.09505e-08
-0.000198897
-6.32353e-08
-4.26753e-08
-0.000181784
9.55757e-06
0.00017718
-0.00018578
8.29874e-06
-0.000189198
7.11962e-06
-0.00019208
6.02433e-06
-0.000194467
5.01683e-06
-0.000196404
4.09965e-06
-0.000197938
3.27434e-06
-0.000199113
2.54138e-06
-0.000199975
1.90029e-06
-0.000200569
1.35005e-06
-0.00020094
8.89375e-07
-0.000201131
5.16298e-07
-0.000201185
2.26761e-07
-0.000201139
1.41967e-08
-0.000201029
-1.2936e-07
-0.000200882
-2.12731e-07
-0.000200724
-2.47348e-07
-0.000200571
-2.44398e-07
-0.000200435
-2.16744e-07
-0.000200321
-1.77189e-07
-1.34517e-07
-0.000183337
1.40346e-05
0.00017886
-0.000187216
1.21781e-05
-0.000190531
1.04347e-05
-0.00019332
8.81308e-06
-0.000195623
7.31993e-06
-0.000197483
5.95975e-06
-0.000198944
4.73546e-06
-0.000200051
3.64811e-06
-0.000200848
2.69717e-06
-0.000201379
1.88137e-06
-0.000201689
1.19927e-06
-0.000201822
6.48831e-07
-0.000201819
2.2415e-07
-0.000201721
-8.43076e-08
-0.000201561
-2.88998e-07
-0.000201371
-4.03262e-07
-0.000201174
-4.4354e-07
-0.000200991
-4.27929e-07
-0.000200831
-3.76089e-07
-0.0002007
-3.09033e-07
-2.41202e-07
-0.000184298
1.84596e-05
0.000179873
-0.00018813
1.60103e-05
-0.000191402
1.3706e-05
-0.000194149
1.156e-05
-0.00019641
9.58178e-06
-0.000198229
7.77809e-06
-0.000199647
6.15351e-06
-0.000200709
4.70983e-06
-0.000201458
3.44617e-06
-0.000201938
2.36151e-06
-0.000202193
1.45442e-06
-0.000202268
7.24242e-07
-0.000202208
1.6408e-07
-0.000202054
-2.38155e-07
-0.000201843
-5.00525e-07
-0.000201606
-6.39796e-07
-0.000201372
-6.77907e-07
-0.000201159
-6.40482e-07
-0.000200981
-5.54273e-07
-0.000200839
-4.5127e-07
-3.54253e-07
-0.000185024
2.28577e-05
0.000180625
-0.00018883
1.98167e-05
-0.000192076
1.69521e-05
-0.000194798
1.42818e-05
-0.000197034
1.18179e-05
-0.000198825
9.56899e-06
-0.000200213
7.54134e-06
-0.000201241
5.73786e-06
-0.000201952
4.1571e-06
-0.000202389
2.79902e-06
-0.000202595
1.66052e-06
-0.000202614
7.42961e-07
-0.000202494
4.39421e-08
-0.000202281
-4.51033e-07
-0.000202013
-7.68833e-07
-0.000201725
-9.27988e-07
-0.000201448
-9.54492e-07
-0.000201205
-8.84055e-07
-0.000201009
-7.4975e-07
-0.000200862
-5.97982e-07
-4.67159e-07
-0.00018541
2.72234e-05
0.000181045
-0.000189187
2.35938e-05
-0.000192409
2.0174e-05
-0.000195113
1.69851e-05
-0.000197336
1.40409e-05
-0.000199117
1.13501e-05
-0.000200495
8.91918e-06
-0.000201512
6.75501e-06
-0.000202213
4.85839e-06
-0.000202638
3.22382e-06
-0.000202825
1.84759e-06
-0.000202811
7.29483e-07
-0.000202645
-1.22352e-07
-0.000202384
-7.12022e-07
-0.000202068
-1.08468e-06
-0.000201733
-1.26345e-06
-0.000201417
-1.27005e-06
-0.000201145
-1.15669e-06
-0.000200936
-9.58733e-07
-0.000200796
-7.37446e-07
-5.70065e-07
-0.000185066
3.14999e-05
0.000180789
-0.000188765
2.72936e-05
-0.000191928
2.33368e-05
-0.000194596
1.96526e-05
-0.000196809
1.6254e-05
-0.000198606
1.3147e-05
-0.000200019
1.03328e-05
-0.000201076
7.81222e-06
-0.000201818
5.59985e-06
-0.000202296
3.70215e-06
-0.000202543
2.09404e-06
-0.000202584
7.70418e-07
-0.000202455
-2.50629e-07
-0.000202197
-9.70258e-07
-0.000201878
-1.40422e-06
-0.000201542
-1.59928e-06
-0.000201219
-1.59275e-06
-0.000200939
-1.43691e-06
-0.000200733
-1.16439e-06
-0.000200632
-8.38185e-07
-6.44559e-07
-0.000183173
3.55115e-05
0.000179161
-0.00018663
3.07507e-05
-0.000189589
2.62961e-05
-0.000192107
2.21708e-05
-0.000194236
1.8383e-05
-0.000196019
1.49299e-05
-0.000197489
1.18023e-05
-0.000198679
9.0025e-06
-0.000199617
6.53801e-06
-0.00020031
4.3954e-06
-0.000200777
2.56086e-06
-0.000201042
1.0354e-06
-0.000201122
-1.70833e-07
-0.000201066
-1.02571e-06
-0.000200955
-1.51588e-06
-0.000200793
-1.76132e-06
-0.000200602
-1.78309e-06
-0.000200422
-1.61683e-06
-0.000200294
-1.29328e-06
-0.000200299
-8.33039e-07
-6.3718e-07
-0.000178232
3.88245e-05
0.000174919
-0.000181003
3.3522e-05
-0.000183322
2.86151e-05
-0.000185277
2.4126e-05
-0.000186951
2.00567e-05
-0.000188416
1.63952e-05
-0.000189736
1.31216e-05
-0.000190953
1.02203e-05
-0.000192092
7.67618e-06
-0.000193162
5.46617e-06
-0.000194157
3.55586e-06
-0.000195062
1.93963e-06
-0.000195856
6.23491e-07
-0.000196573
-3.08256e-07
-0.000197247
-8.42126e-07
-0.00019783
-1.17803e-06
-0.000198305
-1.3082e-06
-0.000198711
-1.2116e-06
-0.000199012
-9.91429e-07
-0.000199241
-6.04574e-07
-1.23223e-07
-0.000168108
0.000166308
4.06249e-05
-0.000169309
3.47229e-05
-0.00017003
2.93357e-05
-0.000170385
2.44814e-05
-0.000170484
2.01551e-05
-0.000170427
1.63389e-05
-0.000170316
1.30101e-05
-0.000170246
1.01506e-05
-0.00017032
7.75019e-06
-0.000170682
5.82787e-06
-0.000171394
4.26798e-06
-0.000172503
3.04883e-06
-0.000174046
2.16647e-06
-0.000176041
1.68613e-06
-0.000178463
1.58024e-06
-0.000181252
1.61089e-06
-0.000184273
1.7125e-06
-0.000187408
1.92337e-06
-0.000190353
1.95394e-06
-0.000192658
1.70019e-06
4.7554e-06
7.4965e-06
-7.49652e-06
9.28159e-06
-1.7851e-06
6.41715e-06
2.86442e-06
3.44357e-07
6.07279e-06
-1.00462e-05
1.03906e-05
-2.54252e-05
1.5379e-05
-4.31973e-05
1.77721e-05
-6.03809e-05
1.71836e-05
-7.59716e-05
1.55907e-05
-9.01708e-05
1.41992e-05
-0.000103147
1.29763e-05
-0.000115016
1.18693e-05
-0.000125865
1.08486e-05
-0.000135758
9.89254e-06
-0.000144745
8.98699e-06
-0.000152868
8.12322e-06
-0.000160165
7.29729e-06
-0.000166674
6.50934e-06
5.76159e-06
4.37757e-06
-1.18741e-05
2.34051e-06
2.51949e-07
-4.42902e-06
9.63394e-06
-1.6536e-05
1.81797e-05
-3.24329e-05
2.62875e-05
-4.8569e-05
3.15151e-05
-6.31696e-05
3.23727e-05
-7.67004e-05
3.07144e-05
-8.97315e-05
2.86219e-05
-0.00010204
2.65077e-05
-0.000113532
2.44682e-05
-0.000124204
2.25413e-05
-0.000134069
2.07131e-05
-0.000143141
1.89649e-05
-0.000151436
1.72818e-05
-0.000158968
1.56557e-05
-0.000165756
1.40849e-05
-0.000171819
1.25727e-05
1.11226e-05
-9.63144e-07
-1.0911e-05
-7.34549e-06
6.63429e-06
-1.80759e-05
2.03644e-05
-3.21777e-05
3.22815e-05
-4.6832e-05
4.09418e-05
-6.01045e-05
4.47876e-05
-7.231e-05
4.45782e-05
-8.4237e-05
4.26414e-05
-9.58877e-05
4.02726e-05
-0.000107087
3.77073e-05
-0.000117741
3.51218e-05
-0.00012778
3.25805e-05
-0.000137163
3.00958e-05
-0.000145863
2.76648e-05
-0.000153864
2.52832e-05
-0.00016116
2.29514e-05
-0.000167751
2.06759e-05
-0.000173645
1.84673e-05
1.63373e-05
-6.47578e-06
-4.4352e-06
-1.62749e-05
1.64335e-05
-2.89031e-05
3.29925e-05
-4.25445e-05
4.59229e-05
-5.51948e-05
5.3592e-05
-6.66019e-05
5.61947e-05
-7.7617e-05
5.55932e-05
-8.86209e-05
5.36453e-05
-9.94596e-05
5.11114e-05
-0.000110004
4.82517e-05
-0.000120148
4.52658e-05
-0.000129801
4.22339e-05
-0.000138896
3.91908e-05
-0.000147383
3.61514e-05
-0.000155226
3.31258e-05
-0.000162402
3.01273e-05
-0.0001689
2.71739e-05
-0.00017472
2.42874e-05
2.14908e-05
-1.06198e-05
6.18465e-06
-2.28179e-05
2.86315e-05
-3.60167e-05
4.61913e-05
-4.86509e-05
5.85572e-05
-5.99643e-05
6.49053e-05
-7.05029e-05
6.67334e-05
-8.09467e-05
6.60371e-05
-9.14057e-05
6.41044e-05
-0.000101755
6.14608e-05
-0.000111894
5.83906e-05
-0.000121715
5.50866e-05
-0.000131123
5.16417e-05
-0.000140038
4.81065e-05
-0.000148398
4.45108e-05
-0.000156152
4.08798e-05
-0.000163265
3.72407e-05
-0.000169718
3.36262e-05
-0.000175502
3.00719e-05
2.66143e-05
-1.33949e-05
1.95795e-05
-2.7001e-05
4.22376e-05
-4.01271e-05
5.93174e-05
-5.19421e-05
7.03722e-05
-6.2597e-05
7.55601e-05
-7.2803e-05
7.69394e-05
-8.29725e-05
7.62066e-05
-9.31247e-05
7.42566e-05
-0.000103185
7.15212e-05
-0.000113073
6.82781e-05
-0.00012269
6.47037e-05
-0.000131943
6.08948e-05
-0.000140747
5.69103e-05
-0.000149027
5.27914e-05
-0.000156724
4.85768e-05
-0.000163793
4.43099e-05
-0.000170207
4.00402e-05
-0.000175956
3.58204e-05
3.1703e-05
-1.50419e-05
3.46214e-05
-2.92625e-05
5.64582e-05
-4.211e-05
7.21649e-05
-5.34574e-05
8.17196e-05
-6.38804e-05
8.59831e-05
-7.39922e-05
8.70512e-05
-8.40346e-05
8.6249e-05
-9.40211e-05
8.4243e-05
-0.000103913
8.14129e-05
-0.000113644
7.80099e-05
-0.00012313
7.4189e-05
-0.000132276
7.00416e-05
-0.000140994
6.56277e-05
-0.000149199
6.09965e-05
-0.000156823
5.62003e-05
-0.000163813
5.13006e-05
-0.000170141
4.63676e-05
-0.000175796
4.14756e-05
3.66962e-05
-1.59792e-05
5.06006e-05
-3.01756e-05
7.06547e-05
-4.27163e-05
8.47056e-05
-5.38492e-05
9.28526e-05
-6.42393e-05
9.63732e-05
-7.43444e-05
9.71563e-05
-8.43283e-05
9.62329e-05
-9.42217e-05
9.41363e-05
-0.000104007
9.11977e-05
-0.000113629
8.76318e-05
-0.000123007
8.35671e-05
-0.000132046
7.90808e-05
-0.000140646
7.42284e-05
-0.000148714
6.90645e-05
-0.000156171
6.36566e-05
-0.000162959
5.80888e-05
-0.00016905
5.24586e-05
-0.000174443
4.68684e-05
4.14146e-05
-1.62224e-05
6.6823e-05
-3.01836e-05
8.46159e-05
-4.2463e-05
9.6985e-05
-5.35013e-05
0.000103891
-6.39138e-05
0.000106786
-7.40262e-05
0.000107269
-8.3971e-05
0.000106178
-9.37937e-05
0.000103959
-0.000103486
0.00010089
-0.000112995
9.71412e-05
-0.000122237
9.28084e-05
-0.000131103
8.79467e-05
-0.000139476
8.26017e-05
-0.000147244
7.68327e-05
-0.000154313
7.0726e-05
-0.000160621
6.43969e-05
-0.000166143
5.79806e-05
-0.000170893
5.16182e-05
4.54401e-05
-1.58863e-05
8.27092e-05
-2.95838e-05
9.83134e-05
-4.16614e-05
0.000109063
-5.26398e-05
0.000114869
-6.30539e-05
0.0001172
-7.31469e-05
0.000117362
-8.30355e-05
0.000116066
-9.27691e-05
0.000113693
-0.000102338
0.000110459
-0.000111679
0.000106483
-0.000120689
0.000101818
-0.000129232
9.64894e-05
-0.000137157
9.0527e-05
-0.000144321
8.39961e-05
-0.000150605
7.70104e-05
-0.000155938
6.97299e-05
-0.000160302
6.23443e-05
-0.000163732
5.50483e-05
4.8016e-05
-0.000160388
3.99323e-05
0.000161081
-0.000158944
3.32787e-05
-0.000156876
2.72677e-05
-0.000154283
2.18882e-05
-0.000151231
1.71037e-05
-0.000147758
1.28657e-05
-0.00014387
9.12208e-06
-0.000139541
5.82167e-06
-0.00013472
2.92899e-06
-0.000129356
4.63849e-07
-0.000123398
-1.68952e-06
-0.000116782
-3.56758e-06
-0.000109481
-5.13443e-06
-0.000101436
-6.35945e-06
-9.25382e-05
-7.3171e-06
-8.26321e-05
-8.29514e-06
-7.1584e-05
-9.33562e-06
-5.98309e-05
-9.82972e-06
-4.76484e-05
-1.02286e-05
-3.15689e-05
-1.43793e-05
-2.68135e-05
-0.000136053
3.64765e-05
0.000139508
-0.000131955
2.91811e-05
-0.000127368
2.26806e-05
-0.000122398
1.69186e-05
-0.000117113
1.18183e-05
-0.000111549
7.30157e-06
-0.000105725
3.29791e-06
-9.96463e-05
-2.56672e-07
-9.33194e-05
-3.39789e-06
-8.67165e-05
-6.13903e-06
-7.9783e-05
-8.62302e-06
-7.24549e-05
-1.08957e-05
-6.47091e-05
-1.28802e-05
-5.63975e-05
-1.4671e-05
-4.72401e-05
-1.64745e-05
-3.72371e-05
-1.82982e-05
-2.67688e-05
-1.98038e-05
-1.6075e-05
-2.05235e-05
-5.2255e-06
-2.10781e-05
3.06164e-06
-2.26664e-05
-2.37519e-05
-0.000110863
3.13977e-05
0.000115942
-0.000105619
2.39371e-05
-0.000100394
1.7455e-05
-9.53108e-05
1.18358e-05
-9.0445e-05
6.9525e-06
-8.58225e-05
2.67913e-06
-8.14176e-05
-1.10698e-06
-7.71361e-05
-4.53821e-06
-7.28152e-05
-7.71873e-06
-6.82282e-05
-1.07261e-05
-6.32681e-05
-1.35831e-05
-5.79083e-05
-1.62556e-05
-5.20452e-05
-1.87432e-05
-4.56103e-05
-2.11059e-05
-3.86905e-05
-2.33943e-05
-3.14458e-05
-2.55429e-05
-2.39437e-05
-2.73059e-05
-1.59837e-05
-2.84835e-05
-7.88249e-06
-2.91793e-05
-1.50864e-06
-2.90402e-05
-2.52605e-05
-8.98555e-05
2.6596e-05
9.46572e-05
-8.56005e-05
1.96821e-05
-8.1994e-05
1.38486e-05
-7.90085e-05
8.8502e-06
-7.64994e-05
4.44347e-06
-7.42398e-05
4.19491e-07
-7.19703e-05
-3.37643e-06
-6.94795e-05
-7.02904e-06
-6.66264e-05
-1.05718e-05
-6.33278e-05
-1.40246e-05
-5.95411e-05
-1.73699e-05
-5.52071e-05
-2.05895e-05
-5.02787e-05
-2.36717e-05
-4.47701e-05
-2.66145e-05
-3.87456e-05
-2.94189e-05
-3.22614e-05
-3.20271e-05
-2.53687e-05
-3.41986e-05
-1.81133e-05
-3.57389e-05
-1.08382e-05
-3.64544e-05
-4.42823e-06
-3.54503e-05
-2.96888e-05
-7.58109e-05
2.36613e-05
7.87456e-05
-7.37961e-05
1.76673e-05
-7.24769e-05
1.25294e-05
-7.15298e-05
7.90309e-06
-7.06362e-05
3.54982e-06
-6.95531e-05
-6.63571e-07
-6.81325e-05
-4.79709e-06
-6.62932e-05
-8.86835e-06
-6.39771e-05
-1.28879e-05
-6.11481e-05
-1.68536e-05
-5.77737e-05
-2.07443e-05
-5.38262e-05
-2.4537e-05
-4.929e-05
-2.82079e-05
-4.41761e-05
-3.17284e-05
-3.85425e-05
-3.50525e-05
-3.24834e-05
-3.80862e-05
-2.60509e-05
-4.06311e-05
-1.93126e-05
-4.24772e-05
-1.24656e-05
-4.33013e-05
-5.90624e-06
-4.20097e-05
-3.5595e-05
-6.78124e-05
2.2818e-05
6.86557e-05
-6.75932e-05
1.7448e-05
-6.7597e-05
1.25332e-05
-6.75165e-05
7.82259e-06
-6.7165e-05
3.19833e-06
-6.64436e-05
-1.38492e-06
-6.52983e-05
-5.94238e-06
-6.36906e-05
-1.0476e-05
-6.15915e-05
-1.4987e-05
-5.89801e-05
-1.94649e-05
-5.58369e-05
-2.38875e-05
-5.21468e-05
-2.82271e-05
-4.79041e-05
-3.24506e-05
-4.31227e-05
-3.65098e-05
-3.78525e-05
-4.03227e-05
-3.21772e-05
-4.37615e-05
-2.6139e-05
-4.66693e-05
-1.97897e-05
-4.88265e-05
-1.32422e-05
-4.98488e-05
-6.6261e-06
-4.86258e-05
-4.22211e-05
-6.30825e-05
2.32809e-05
6.26197e-05
-6.36809e-05
1.80464e-05
-6.41328e-05
1.29851e-05
-6.42919e-05
7.98161e-06
-6.40887e-05
2.99517e-06
-6.34854e-05
-1.98824e-06
-6.24538e-05
-6.97395e-06
-6.09691e-05
-1.19607e-05
-5.90119e-05
-1.69442e-05
-5.65663e-05
-2.19106e-05
-5.36183e-05
-2.68355e-05
-5.01592e-05
-3.16862e-05
-4.61896e-05
-3.64202e-05
-4.17228e-05
-4.09766e-05
-3.679e-05
-4.52554e-05
-3.14525e-05
-4.90991e-05
-2.5755e-05
-5.23667e-05
-1.97296e-05
-5.4852e-05
-1.34411e-05
-5.61373e-05
-6.88705e-06
-5.51799e-05
-4.91081e-05
-5.95524e-05
2.42732e-05
5.856e-05
-6.03848e-05
1.88788e-05
-6.093e-05
1.35304e-05
-6.11347e-05
8.18628e-06
-6.0971e-05
2.83142e-06
-6.04179e-05
-2.5413e-06
-5.94565e-05
-7.93532e-06
-5.80687e-05
-1.33485e-05
-5.62384e-05
-1.87746e-05
-5.39507e-05
-2.41983e-05
-5.11926e-05
-2.95936e-05
-4.79566e-05
-3.49222e-05
-4.42441e-05
-4.01328e-05
-4.00667e-05
-4.5154e-05
-3.54448e-05
-4.98774e-05
-3.04165e-05
-5.41273e-05
-2.50248e-05
-5.77584e-05
-1.92951e-05
-6.05817e-05
-1.32599e-05
-6.21725e-05
-6.86888e-06
-6.15709e-05
-5.5977e-05
-5.63301e-05
2.53888e-05
5.52146e-05
-5.71771e-05
1.97258e-05
-5.77088e-05
1.4062e-05
-5.79037e-05
8.38124e-06
-5.7747e-05
2.67469e-06
-5.72248e-05
-3.06351e-06
-5.63232e-05
-8.83688e-06
-5.50275e-05
-1.46442e-05
-5.33224e-05
-2.04797e-05
-5.11923e-05
-2.63284e-05
-4.86228e-05
-3.21631e-05
-4.56042e-05
-3.79408e-05
-4.21355e-05
-4.36014e-05
-3.82269e-05
-4.90626e-05
-3.38958e-05
-5.42084e-05
-2.91585e-05
-5.88646e-05
-2.40502e-05
-6.28668e-05
-1.86035e-05
-6.60283e-05
-1.28333e-05
-6.79427e-05
-6.68003e-06
-6.77242e-05
-6.2657e-05
-5.31473e-05
2.64731e-05
5.20629e-05
-5.39412e-05
2.05197e-05
-5.44271e-05
1.45479e-05
-5.45944e-05
8.54861e-06
-5.44344e-05
2.51468e-06
-5.39378e-05
-3.56012e-06
-5.30939e-05
-9.6808e-06
-5.18896e-05
-1.58485e-05
-5.03096e-05
-2.20597e-05
-4.8337e-05
-2.8301e-05
-4.59552e-05
-3.45449e-05
-4.31505e-05
-4.07455e-05
-3.99172e-05
-4.68347e-05
-3.62617e-05
-5.27181e-05
-3.22004e-05
-5.82697e-05
-2.77415e-05
-6.33235e-05
-2.29095e-05
-6.76987e-05
-1.77431e-05
-7.11947e-05
-1.22528e-05
-7.3433e-05
-6.38795e-06
-7.35891e-05
-6.9045e-05
-4.99509e-05
2.74765e-05
4.89475e-05
-5.06708e-05
2.12397e-05
-5.11001e-05
1.49772e-05
-5.12339e-05
8.68236e-06
-5.10674e-05
2.34823e-06
-5.05948e-05
-4.03276e-06
-4.98073e-05
-1.04682e-05
-4.86931e-05
-1.69628e-05
-4.72366e-05
-2.35161e-05
-4.54199e-05
-3.01177e-05
-4.32237e-05
-3.67411e-05
-4.06306e-05
-4.33386e-05
-3.76293e-05
-4.98361e-05
-3.42187e-05
-5.61287e-05
-3.041e-05
-6.20784e-05
-2.62166e-05
-6.75169e-05
-2.16595e-05
-7.22558e-05
-1.6776e-05
-7.60783e-05
-1.15795e-05
-7.86294e-05
-6.03519e-06
-7.91334e-05
-7.50802e-05
-4.67473e-05
2.83837e-05
4.584e-05
-4.73867e-05
2.1879e-05
-4.7756e-05
1.53466e-05
-4.78545e-05
8.78078e-06
-4.76805e-05
2.17428e-06
-4.72305e-05
-4.48271e-06
-4.64977e-05
-1.12011e-05
-4.54708e-05
-1.79897e-05
-4.41345e-05
-2.48524e-05
-4.24698e-05
-3.17824e-05
-4.04551e-05
-3.87558e-05
-3.80693e-05
-4.57244e-05
-3.52957e-05
-5.26098e-05
-3.21264e-05
-5.9298e-05
-2.85659e-05
-6.56389e-05
-2.463e-05
-7.14528e-05
-2.03447e-05
-7.65411e-05
-1.57462e-05
-8.06768e-05
-1.08539e-05
-8.35217e-05
-5.64882e-06
-8.43385e-05
-8.0729e-05
-4.35572e-05
2.91911e-05
4.27498e-05
-4.41147e-05
2.24366e-05
-4.44239e-05
1.56559e-05
-4.4487e-05
8.84388e-06
-4.4305e-05
1.99223e-06
-4.38761e-05
-4.91159e-06
-4.31949e-05
-1.18823e-05
-4.22512e-05
-1.89334e-05
-4.10301e-05
-2.60736e-05
-3.95117e-05
-3.33008e-05
-3.76727e-05
-4.05947e-05
-3.54886e-05
-4.79086e-05
-3.29374e-05
-5.51609e-05
-3.00056e-05
-6.22298e-05
-2.66922e-05
-6.89523e-05
-2.30122e-05
-7.51328e-05
-1.89965e-05
-8.05568e-05
-1.46842e-05
-8.49891e-05
-1.01023e-05
-8.81036e-05
-5.24601e-06
-8.91948e-05
-8.5975e-05
-4.04028e-05
2.98992e-05
3.96947e-05
-4.08798e-05
2.29136e-05
-4.11302e-05
1.59063e-05
-4.11585e-05
8.87222e-06
-4.09677e-05
1.80147e-06
-4.05578e-05
-5.32151e-06
-3.99246e-05
-1.25155e-05
-3.90591e-05
-1.97989e-05
-3.79467e-05
-2.71859e-05
-3.65676e-05
-3.46799e-05
-3.48971e-05
-4.22652e-05
-3.29078e-05
-4.98979e-05
-3.05736e-05
-5.74952e-05
-2.78751e-05
-6.49283e-05
-2.48067e-05
-7.20207e-05
-2.13822e-05
-7.85574e-05
-1.7635e-05
-8.4304e-05
-1.36098e-05
-8.90143e-05
-9.34165e-06
-9.23717e-05
-4.83746e-06
-9.3699e-05
-9.08125e-05
-3.73044e-05
3.05104e-05
3.66932e-05
-3.77034e-05
2.33125e-05
-3.78967e-05
1.60996e-05
-3.7891e-05
8.86649e-06
-3.76907e-05
1.60122e-06
-3.72973e-05
-5.7149e-06
-3.6708e-05
-1.31048e-05
-3.59148e-05
-2.05921e-05
-3.49041e-05
-2.81966e-05
-3.36562e-05
-3.59277e-05
-3.21458e-05
-4.37756e-05
-3.03435e-05
-5.17002e-05
-2.82194e-05
-5.96193e-05
-2.57496e-05
-6.73982e-05
-2.29237e-05
-7.48465e-05
-1.97533e-05
-8.17278e-05
-1.62738e-05
-8.77834e-05
-1.25357e-05
-9.27524e-05
-8.58225e-06
-9.63252e-05
-4.42969e-06
-9.78516e-05
-9.52422e-05
-3.42792e-05
3.10282e-05
3.37613e-05
-3.46028e-05
2.36361e-05
-3.4741e-05
1.62378e-05
-3.47018e-05
8.82725e-06
-3.44911e-05
1.39049e-06
-3.41115e-05
-6.09444e-06
-3.35616e-05
-1.36547e-05
-3.28347e-05
-2.13191e-05
-3.1918e-05
-2.91133e-05
-3.07927e-05
-3.70531e-05
-2.94331e-05
-4.51351e-05
-2.78088e-05
-5.33245e-05
-2.58872e-05
-6.15409e-05
-2.36401e-05
-6.96453e-05
-2.1053e-05
-7.74336e-05
-1.81346e-05
-8.46462e-05
-1.49215e-05
-9.09966e-05
-1.14697e-05
-9.62042e-05
-7.83017e-06
-9.99647e-05
-4.0264e-06
-0.000101655
-9.92686e-05
-3.134e-05
3.14562e-05
3.09121e-05
-3.15911e-05
2.38873e-05
-3.16757e-05
1.63224e-05
-3.16032e-05
8.75473e-06
-3.13808e-05
1.16805e-06
-3.10123e-05
-6.4629e-06
-3.04974e-05
-1.41696e-05
-2.98306e-05
-2.19859e-05
-2.90003e-05
-2.99436e-05
-2.79885e-05
-3.80649e-05
-2.677e-05
-4.63535e-05
-2.53139e-05
-5.47806e-05
-2.35859e-05
-6.32689e-05
-2.15545e-05
-7.16766e-05
-1.92013e-05
-7.97868e-05
-1.65319e-05
-8.73157e-05
-1.35831e-05
-9.39454e-05
-1.04159e-05
-9.93714e-05
-7.08844e-06
-0.000103292
-3.62944e-06
-0.000105114
-0.000102898
-2.8496e-05
3.17974e-05
2.81548e-05
-2.86767e-05
2.4068e-05
-2.87087e-05
1.63544e-05
-2.86027e-05
8.64875e-06
-2.83671e-05
9.32457e-07
-2.80069e-05
-6.8231e-06
-2.75228e-05
-1.46537e-05
-2.69102e-05
-2.25985e-05
-2.61588e-05
-3.0695e-05
-2.52515e-05
-3.89723e-05
-2.41641e-05
-4.74409e-05
-2.28659e-05
-5.60788e-05
-2.13217e-05
-6.48131e-05
-1.94979e-05
-7.35004e-05
-1.73725e-05
-8.19122e-05
-1.4948e-05
-8.97402e-05
-1.22607e-05
-9.66327e-05
-9.37577e-06
-0.000102256
-6.35798e-06
-0.00010631
-3.23937e-06
-0.000108233
-0.000106137
-2.57517e-05
3.20542e-05
2.54949e-05
-2.58636e-05
2.41798e-05
-2.58435e-05
1.63344e-05
-2.57035e-05
8.50876e-06
-2.54532e-05
6.82112e-07
-2.50985e-05
-7.17778e-06
-2.4641e-05
-1.51112e-05
-2.40772e-05
-2.31624e-05
-2.33975e-05
-3.13747e-05
-2.2586e-05
-3.97837e-05
-2.16198e-05
-4.84071e-05
-2.04689e-05
-5.72297e-05
-1.90982e-05
-6.61838e-05
-1.74729e-05
-7.51257e-05
-1.55681e-05
-8.3817e-05
-1.33834e-05
-9.19249e-05
-1.09541e-05
-9.9062e-05
-8.34877e-06
-0.000104862
-5.63813e-06
-0.000109021
-2.85599e-06
-0.000111015
-0.000108993
-2.31069e-05
3.22289e-05
2.29323e-05
-2.3151e-05
2.42239e-05
-2.30791e-05
1.62625e-05
-2.29044e-05
8.3341e-06
-2.26378e-05
4.15469e-07
-2.22861e-05
-7.52943e-06
-2.18518e-05
-1.55456e-05
-2.13316e-05
-2.36825e-05
-2.0717e-05
-3.19892e-05
-1.99932e-05
-4.05076e-05
-1.91383e-05
-4.9262e-05
-1.8124e-05
-5.82441e-05
-1.69161e-05
-6.73917e-05
-1.54793e-05
-7.65624e-05
-1.37872e-05
-8.55091e-05
-1.18365e-05
-9.38757e-05
-9.6613e-06
-0.000101237
-7.33263e-06
-0.00010719
-4.92694e-06
-0.000111426
-2.47863e-06
-0.000113463
-0.000111472
-2.05545e-05
3.23249e-05
2.04585e-05
-2.05332e-05
2.42026e-05
-2.04103e-05
1.61396e-05
-2.02008e-05
8.12458e-06
-1.99167e-05
1.31425e-07
-1.95661e-05
-7.88007e-06
-1.91517e-05
-1.596e-05
-1.86708e-05
-2.41634e-05
-1.81151e-05
-3.25449e-05
-1.74709e-05
-4.11518e-05
-1.6718e-05
-5.00149e-05
-1.58297e-05
-5.91323e-05
-1.47736e-05
-6.84478e-05
-1.35151e-05
-7.78209e-05
-1.20269e-05
-8.69974e-05
-1.03037e-05
-9.55988e-05
-8.37846e-06
-0.000103162
-6.32365e-06
-0.000109245
-4.22123e-06
-0.000113529
-2.10648e-06
-0.000115578
-0.000113578
-1.80779e-05
3.23525e-05
1.80503e-05
-1.79981e-05
2.41228e-05
-1.78277e-05
1.59692e-05
-1.75847e-05
7.88155e-06
-1.72831e-05
-1.70155e-07
-1.69322e-05
-8.23099e-06
-1.65352e-05
-1.6357e-05
-1.60895e-05
-2.46091e-05
-1.55871e-05
-3.30473e-05
-1.50149e-05
-4.1724e-05
-1.43546e-05
-5.06752e-05
-1.35818e-05
-5.99051e-05
-1.26664e-05
-6.93632e-05
-1.15755e-05
-7.89118e-05
-1.02821e-05
-8.82909e-05
-8.77971e-06
-9.71011e-05
-7.1001e-06
-0.000104842
-5.31683e-06
-0.000111028
-3.517e-06
-0.000115329
-1.73918e-06
-0.000117356
-0.000115318
-1.56592e-05
3.23167e-05
1.56949e-05
-1.55298e-05
2.39934e-05
-1.53197e-05
1.57591e-05
-1.50468e-05
7.6086e-06
-1.47288e-05
-4.88112e-07
-1.43771e-05
-8.58268e-06
-1.39956e-05
-1.67385e-05
-1.35813e-05
-2.50234e-05
-1.31262e-05
-3.35024e-05
-1.26184e-05
-4.22319e-05
-1.20413e-05
-5.12522e-05
-1.13734e-05
-6.0573e-05
-1.05876e-05
-7.01491e-05
-9.6536e-06
-7.98458e-05
-8.54551e-06
-8.93989e-05
-7.25696e-06
-9.83897e-05
-5.81896e-06
-0.00010628
-4.30572e-06
-0.000112542
-2.80917e-06
-0.000116825
-1.37162e-06
-0.000118794
-0.000116689
-1.33026e-05
3.22116e-05
1.34078e-05
-1.31215e-05
2.38123e-05
-1.28762e-05
1.55138e-05
-1.25788e-05
7.31129e-06
-1.22465e-05
-8.20442e-07
-1.18938e-05
-8.93542e-06
-1.15256e-05
-1.71067e-05
-1.11385e-05
-2.54105e-05
-1.07245e-05
-3.39164e-05
-1.02728e-05
-4.26836e-05
-9.76935e-06
-5.17557e-05
-9.19562e-06
-6.11467e-05
-8.52814e-06
-7.08165e-05
-7.74004e-06
-8.06339e-05
-6.80786e-06
-9.03311e-05
-5.72618e-06
-9.94713e-05
-4.52626e-06
-0.00010748
-3.28241e-06
-0.000113785
-2.09102e-06
-0.000118016
-1.00157e-06
-0.000119883
-0.000117691
-1.10287e-05
3.20359e-05
1.12044e-05
-1.07885e-05
2.35721e-05
-1.05001e-05
1.52254e-05
-1.0177e-05
6.98818e-06
-9.83147e-06
-1.16597e-06
-9.47651e-06
-9.29038e-06
-9.11836e-06
-1.74648e-05
-8.75308e-06
-2.57758e-05
-8.37268e-06
-3.42968e-05
-7.96794e-06
-4.30883e-05
-7.52763e-06
-5.2196e-05
-7.03689e-06
-6.16375e-05
-6.47633e-06
-7.13771e-05
-5.82317e-06
-8.12871e-05
-5.05741e-06
-9.10969e-05
-4.17605e-06
-0.000100353
-3.21181e-06
-0.000108444
-2.23856e-06
-0.000114759
-1.35418e-06
-0.000118901
-6.13306e-07
-0.000120624
-0.000118304
-8.84529e-06
3.17942e-05
9.08694e-06
-8.54783e-06
2.32747e-05
-8.21022e-06
1.48878e-05
-7.85011e-06
6.62808e-06
-7.48409e-06
-1.53199e-06
-7.12233e-06
-9.65214e-06
-6.76805e-06
-1.78191e-05
-6.4165e-06
-2.61273e-05
-6.05999e-06
-3.46533e-05
-5.69146e-06
-4.34568e-05
-5.30293e-06
-5.25845e-05
-4.88348e-06
-6.20569e-05
-4.41815e-06
-7.18424e-05
-3.88883e-06
-8.18164e-05
-3.28006e-06
-9.17057e-05
-2.59273e-06
-0.00010104
-1.86254e-06
-0.000109174
-1.16364e-06
-0.000115458
-5.97516e-07
-0.000119467
-2.11796e-07
-0.00012101
-0.000118516
-6.74921e-06
3.14907e-05
7.05277e-06
-6.39821e-06
2.29237e-05
-6.01311e-06
1.45027e-05
-5.61009e-06
6.22505e-06
-5.21025e-06
-1.93183e-06
-4.82935e-06
-1.0033e-05
-4.46821e-06
-1.81803e-05
-4.11886e-06
-2.64767e-05
-3.77379e-06
-3.49984e-05
-3.42889e-06
-4.38017e-05
-3.07965e-06
-5.29338e-05
-2.71916e-06
-6.24174e-05
-2.33702e-06
-7.22246e-05
-1.92035e-06
-8.2233e-05
-1.45931e-06
-9.21667e-05
-9.60161e-07
-0.000101539
-4.62167e-07
-0.000109672
-4.03824e-08
-0.000115879
1.96116e-07
-0.000119703