/*--------------------------------*- C++ -*----------------------------------*\
| =========                 |                                                 |
| \\      /  F ield         | OpenFOAM: The Open Source CFD Toolbox           |
|  \\    /   O peration     | Version:  v2012                                 |
|   \\  /    A nd           | Website:  www.openfoam.com                      |
|    \\/     M anipulation  |                                                 |
\*---------------------------------------------------------------------------*/
FoamFile
{
    version     2.0;
    format      ascii;
    class       volVectorField;
    location    "621";
    object      U;
}
// * * * * * * * * * * * * * * * * * * * * * * * * * * * * * * * * * * * * * //

dimensions      [0 1 -1 0 0 0 0];


internalField   nonuniform List<vector> 
6057
(
(3.96994e-05 -0.994193 0)
(8.64105e-05 -0.994134 0)
(0.000127229 -0.994162 0)
(0.000155448 -0.994262 0)
(0.000181956 -0.994419 0)
(0.000204013 -0.994622 0)
(0.000222517 -0.994861 0)
(0.000238549 -0.995128 0)
(0.000253242 -0.995418 0)
(0.000267599 -0.995728 0)
(0.000282482 -0.996056 0)
(0.000298597 -0.996405 0)
(0.000316384 -0.996773 0)
(0.00033584 -0.997164 0)
(0.000356397 -0.997579 0)
(0.000376233 -0.998023 0)
(0.000390138 -0.998502 0)
(0.000385522 -0.999001 0)
(0.000313344 -0.999444 0)
(7.8769e-05 -0.999746 0)
(-0.000227352 -1.00094 0)
(-0.000114655 -1.00064 0)
(-1.92178e-05 -1.00041 0)
(5.82374e-05 -1.00026 0)
(0.000118627 -1.00015 0)
(0.000164981 -1.00008 0)
(0.000200609 -1.00004 0)
(0.000228568 -1.00001 0)
(0.000251586 -1 0)
(0.000271859 -1.00001 0)
(0.000291156 -1.00001 0)
(0.000310864 -1.00003 0)
(0.0003319 -1.00005 0)
(0.000354592 -1.00007 0)
(0.000378704 -1.0001 0)
(0.000402395 -1.00013 0)
(0.000418058 -1.00015 0)
(0.00042435 -1.00017 0)
(0.000377445 -1.00014 0)
(0.000203644 -1.00003 0)
(-0.000537317 -1.00273 0)
(-0.000348744 -1.00236 0)
(-0.000194934 -1.00207 0)
(-7.40253e-05 -1.00185 0)
(1.82526e-05 -1.00168 0)
(8.69627e-05 -1.00154 0)
(0.000138117 -1.00142 0)
(0.000176487 -1.00131 0)
(0.000206296 -1.00121 0)
(0.000230736 -1.00112 0)
(0.000252236 -1.00103 0)
(0.00027262 -1.00093 0)
(0.000293179 -1.00084 0)
(0.000314448 -1.00075 0)
(0.000333957 -1.00064 0)
(0.000345611 -1.00054 0)
(0.000351989 -1.00042 0)
(0.000342516 -1.00029 0)
(0.000285165 -1.00014 0)
(0.000138308 -1.00003 0)
(-0.000891426 -1.00338 0)
(-0.000620693 -1.00299 0)
(-0.000406368 -1.0027 0)
(-0.000241626 -1.00247 0)
(-0.00012116 -1.00228 0)
(-3.29976e-05 -1.00211 0)
(3.15676e-05 -1.00196 0)
(7.7461e-05 -1.00183 0)
(0.000111302 -1.00169 0)
(0.000137243 -1.00156 0)
(0.000158299 -1.00142 0)
(0.000176587 -1.00128 0)
(0.000193436 -1.00113 0)
(0.000209286 -1.00098 0)
(0.000222963 -1.00082 0)
(0.000231686 -1.00065 0)
(0.000233411 -1.00047 0)
(0.000217829 -1.00029 0)
(0.000168584 -1.00012 0)
(7.09395e-05 -1.00002 0)
(-0.00125281 -1.0035 0)
(-0.00088977 -1.00313 0)
(-0.000615215 -1.00286 0)
(-0.000410109 -1.00264 0)
(-0.000264017 -1.00247 0)
(-0.000160802 -1.00231 0)
(-8.91348e-05 -1.00216 0)
(-3.98384e-05 -1.00201 0)
(-5.66789e-06 -1.00187 0)
(1.83533e-05 -1.00172 0)
(3.5694e-05 -1.00157 0)
(4.8777e-05 -1.00141 0)
(5.91691e-05 -1.00124 0)
(6.77025e-05 -1.00106 0)
(7.4337e-05 -1.00087 0)
(7.83228e-05 -1.00068 0)
(7.88598e-05 -1.00048 0)
(7.28214e-05 -1.00028 0)
(5.47764e-05 -1.00011 0)
(2.16884e-05 -1.00001 0)
(-0.00160191 -1.00322 0)
(-0.00112768 -1.0029 0)
(-0.00079451 -1.00269 0)
(-0.000553674 -1.00252 0)
(-0.000389414 -1.00238 0)
(-0.000278224 -1.00225 0)
(-0.000204104 -1.00212 0)
(-0.000155502 -1.00199 0)
(-0.000124134 -1.00185 0)
(-0.000104424 -1.00171 0)
(-9.27268e-05 -1.00156 0)
(-8.64884e-05 -1.0014 0)
(-8.40085e-05 -1.00123 0)
(-8.40184e-05 -1.00106 0)
(-8.50718e-05 -1.00087 0)
(-8.5347e-05 -1.00067 0)
(-8.3317e-05 -1.00047 0)
(-7.54876e-05 -1.00028 0)
(-5.61611e-05 -1.00011 0)
(-2.21422e-05 -1.00001 0)
(-0.00193056 -1.00256 0)
(-0.00130398 -1.0023 0)
(-0.000918847 -1.00219 0)
(-0.000651195 -1.0021 0)
(-0.00047947 -1.00202 0)
(-0.000368726 -1.00194 0)
(-0.000298456 -1.00185 0)
(-0.00025477 -1.00175 0)
(-0.000228776 -1.00164 0)
(-0.000214995 -1.00152 0)
(-0.000209815 -1.0014 0)
(-0.000210665 -1.00127 0)
(-0.000215874 -1.00112 0)
(-0.000224014 -1.00097 0)
(-0.000232666 -1.00081 0)
(-0.000238035 -1.00064 0)
(-0.000237399 -1.00047 0)
(-0.000220187 -1.00029 0)
(-0.000169754 -1.00012 0)
(-7.13226e-05 -1.00002 0)
(-0.00222004 -1.00132 0)
(-0.00136237 -1.00115 0)
(-0.000947944 -1.00123 0)
(-0.000672892 -1.00125 0)
(-0.000511324 -1.00127 0)
(-0.000412833 -1.00126 0)
(-0.000353596 -1.00123 0)
(-0.000319025 -1.00119 0)
(-0.00030118 -1.00113 0)
(-0.000293261 -1.00106 0)
(-0.000293345 -1.00099 0)
(-0.000299698 -1.00091 0)
(-0.000310946 -1.00083 0)
(-0.000326005 -1.00074 0)
(-0.000341639 -1.00064 0)
(-0.000350787 -1.00054 0)
(-0.000355218 -1.00042 0)
(-0.00034437 -1.00029 0)
(-0.000285996 -1.00014 0)
(-0.000138557 -1.00003 0)
(-0.00248036 -0.998917 0)
(-0.00119713 -0.99881 0)
(-0.000834946 -0.999214 0)
(-0.000589662 -0.99944 0)
(-0.000461715 -0.999608 0)
(-0.000388264 -0.99972 0)
(-0.000347111 -0.999799 0)
(-0.000325264 -0.999857 0)
(-0.000315675 -0.999901 0)
(-0.000313978 -0.999937 0)
(-0.000318671 -0.999969 0)
(-0.000328895 -0.999999 0)
(-0.000343764 -1.00003 0)
(-0.000362401 -1.00006 0)
(-0.000383794 -1.00009 0)
(-0.000405652 -1.00012 0)
(-0.000420204 -1.00015 0)
(-0.000425972 -1.00017 0)
(-0.000377551 -1.00014 0)
(-0.000203703 -1.00003 0)
(-0.0020958 -0.992287 0)
(-0.000539921 -0.99148 0)
(-0.000534654 -0.992471 0)
(-0.000386729 -0.993192 0)
(-0.000335673 -0.993724 0)
(-0.000304508 -0.994169 0)
(-0.000288918 -0.994564 0)
(-0.00028256 -0.994934 0)
(-0.000282448 -0.995291 0)
(-0.000286908 -0.995645 0)
(-0.00029524 -0.996003 0)
(-0.000307029 -0.99637 0)
(-0.000321963 -0.996752 0)
(-0.000339584 -0.997151 0)
(-0.000358943 -0.997571 0)
(-0.000377886 -0.998019 0)
(-0.000391151 -0.9985 0)
(-0.000386018 -0.999 0)
(-0.000313397 -0.999444 0)
(-7.87897e-05 -0.999746 0)
(0.0119317 -0.875443 0)
(0.0103752 -0.89847 0)
(0.00894623 -0.918418 0)
(0.00761552 -0.935466 0)
(0.00638827 -0.949835 0)
(0.00526734 -0.961752 0)
(0.00425524 -0.971449 0)
(0.00335317 -0.979158 0)
(0.00256118 -0.985111 0)
(0.00187853 -0.989539 0)
(0.00130403 -0.99267 0)
(0.000835405 -0.994727 0)
(0.00046845 -0.995925 0)
(0.000197229 -0.996466 0)
(1.48206e-05 -0.996533 0)
(-8.27467e-05 -0.996291 0)
(-0.000138364 -0.995881 0)
(-0.000141422 -0.995416 0)
(-0.000114468 -0.994978 0)
(-7.24944e-05 -0.994615 0)
(-1.92313e-05 -0.994351 0)
(0.0293173 -0.898197 0)
(0.0254804 -0.919647 0)
(0.0218975 -0.938128 0)
(0.0185693 -0.953818 0)
(0.0155065 -0.966929 0)
(0.0127162 -0.977681 0)
(0.0102029 -0.986299 0)
(0.00796814 -0.993011 0)
(0.00601042 -0.998046 0)
(0.00432704 -1.00163 0)
(0.00291455 -1.00399 0)
(0.00176707 -1.00534 0)
(0.000871736 -1.00591 0)
(0.000206305 -1.00588 0)
(-0.000252565 -1.00546 0)
(-0.000528401 -1.00478 0)
(-0.000651863 -1.004 0)
(-0.000658838 -1.00321 0)
(-0.000587428 -1.00249 0)
(-0.000475501 -1.00186 0)
(-0.000350766 -1.00135 0)
(0.0476484 -0.906265 0)
(0.0413528 -0.927105 0)
(0.0354471 -0.945039 0)
(0.029959 -0.960243 0)
(0.0249096 -0.972916 0)
(0.0203129 -0.983267 0)
(0.0161775 -0.991512 0)
(0.0125059 -0.997875 0)
(0.00929616 -1.00258 0)
(0.00654396 -1.00584 0)
(0.00424278 -1.00789 0)
(0.00238266 -1.00894 0)
(0.000943372 -1.00922 0)
(-0.000106947 -1.00892 0)
(-0.000809946 -1.00824 0)
(-0.00121181 -1.00733 0)
(-0.0013674 -1.00634 0)
(-0.00133567 -1.00538 0)
(-0.00118138 -1.00452 0)
(-0.000970477 -1.0038 0)
(-0.000749362 -1.0032 0)
(0.0656044 -0.911195 0)
(0.0569106 -0.931789 0)
(0.0487394 -0.949499 0)
(0.0411356 -0.964491 0)
(0.0341313 -0.976958 0)
(0.0277483 -0.987102 0)
(0.0220007 -0.995137 0)
(0.0168953 -1.00128 0)
(0.0124316 -1.00575 0)
(0.00860429 -1.00877 0)
(0.00540448 -1.01055 0)
(0.00282354 -1.01132 0)
(0.000837916 -1.01131 0)
(-0.000597582 -1.01073 0)
(-0.00154305 -1.00977 0)
(-0.00206063 -1.00862 0)
(-0.00222703 -1.00742 0)
(-0.00213065 -1.00628 0)
(-0.00186389 -1.00531 0)
(-0.00152841 -1.00451 0)
(-0.00119824 -1.00388 0)
(0.08342 -0.914887 0)
(0.0723372 -0.935351 0)
(0.0619031 -0.952934 0)
(0.0521802 -0.967802 0)
(0.0432127 -0.980144 0)
(0.0350315 -0.990156 0)
(0.0276606 -0.998047 0)
(0.0211141 -1.00403 0)
(0.0153866 -1.00833 0)
(0.0104627 -1.01114 0)
(0.00633422 -1.0127 0)
(0.00301289 -1.0132 0)
(0.000470213 -1.01289 0)
(-0.00134215 -1.01201 0)
(-0.00251254 -1.01076 0)
(-0.00312085 -1.00933 0)
(-0.00326205 -1.00789 0)
(-0.00305824 -1.00657 0)
(-0.00262765 -1.00547 0)
(-0.00212055 -1.00464 0)
(-0.00166159 -1.004 0)
(0.101145 -0.916898 0)
(0.0876722 -0.937205 0)
(0.074976 -0.954653 0)
(0.0631364 -0.969414 0)
(0.052209 -0.981679 0)
(0.0422343 -0.991636 0)
(0.0332449 -0.999479 0)
(0.0252511 -1.00541 0)
(0.0182198 -1.00966 0)
(0.0121458 -1.01243 0)
(0.00706271 -1.01388 0)
(0.00297236 -1.01429 0)
(-0.000149488 -1.01376 0)
(-0.00234902 -1.01265 0)
(-0.00373981 -1.01115 0)
(-0.00440696 -1.00949 0)
(-0.00447974 -1.00782 0)
(-0.00411319 -1.00632 0)
(-0.00344917 -1.00512 0)
(-0.00270688 -1.00429 0)
(-0.0021079 -1.00369 0)
(0.118674 -0.915387 0)
(0.102835 -0.935268 0)
(0.0879141 -0.952367 0)
(0.0740041 -0.966888 0)
(0.0611627 -0.979037 0)
(0.049422 -0.989005 0)
(0.0387921 -0.996985 0)
(0.0292701 -1.00317 0)
(0.0209292 -1.00758 0)
(0.01383 -1.01054 0)
(0.00784975 -1.01235 0)
(0.00293435 -1.01301 0)
(-0.000806929 -1.01273 0)
(-0.00339716 -1.01177 0)
(-0.00503427 -1.01017 0)
(-0.00580298 -1.00855 0)
(-0.00577322 -1.00684 0)
(-0.00520074 -1.00529 0)
(-0.00426571 -1.00408 0)
(-0.00324531 -1.00338 0)
(-0.00249771 -1.00296 0)
(0.135627 -0.906566 0)
(0.11749 -0.925156 0)
(0.100453 -0.94112 0)
(0.0846124 -0.954742 0)
(0.0700137 -0.966294 0)
(0.0566661 -0.976019 0)
(0.0445643 -0.984123 0)
(0.0337662 -0.99073 0)
(0.0243384 -0.996023 0)
(0.0162086 -1.00008 0)
(0.00924775 -1.00296 0)
(0.00348657 -1.00475 0)
(-0.000979348 -1.00554 0)
(-0.00411067 -1.00556 0)
(-0.00597811 -1.0051 0)
(-0.00682998 -1.00441 0)
(-0.00682243 -1.00348 0)
(-0.00617726 -1.00247 0)
(-0.00513551 -1.00171 0)
(-0.00380089 -1.00149 0)
(-0.00267176 -1.00154 0)
(0.150955 -0.883609 0)
(0.130631 -0.898698 0)
(0.111689 -0.911306 0)
(0.0942196 -0.92188 0)
(0.0782402 -0.930852 0)
(0.0637163 -0.938615 0)
(0.0505857 -0.945508 0)
(0.0388012 -0.951797 0)
(0.0283153 -0.957667 0)
(0.0190645 -0.963226 0)
(0.0111415 -0.96837 0)
(0.00458473 -0.973106 0)
(-0.000691804 -0.977322 0)
(-0.00461318 -0.981101 0)
(-0.00696403 -0.984617 0)
(-0.00839614 -0.987789 0)
(-0.00892348 -0.990477 0)
(-0.00846658 -0.992649 0)
(-0.00682124 -0.994233 0)
(-0.00368608 -0.995707 0)
(-0.00142788 -0.997748 0)
(0.162159 -0.836861 0)
(0.139612 -0.844202 0)
(0.118887 -0.848855 0)
(0.100076 -0.851403 0)
(0.0831846 -0.852409 0)
(0.0681611 -0.852396 0)
(0.05493 -0.85185 0)
(0.0434253 -0.851243 0)
(0.0335734 -0.851123 0)
(0.0252289 -0.852113 0)
(0.0181375 -0.854688 0)
(0.0121862 -0.859115 0)
(0.00746663 -0.865759 0)
(0.00476663 -0.874572 0)
(0.00416886 -0.885684 0)
(0.00452918 -0.898786 0)
(0.00558751 -0.913592 0)
(0.00675244 -0.929413 0)
(0.00782933 -0.943608 0)
(0.00843643 -0.957898 0)
(0.00632016 -0.976544 0)
(-0.0264084 0.0128452 0)
(-0.0212281 0.0457876 0)
(-0.00554588 0.045483 0)
(0.00806182 0.0261287 0)
(0.0201967 -0.0136051 0)
(0.0337377 -0.0808919 0)
(0.0411731 -0.174822 0)
(0.0404145 -0.264085 0)
(0.0367556 -0.343969 0)
(0.0334758 -0.417665 0)
(0.0306059 -0.485176 0)
(0.0279927 -0.547026 0)
(0.0255855 -0.603644 0)
(0.0233348 -0.65537 0)
(0.0212069 -0.702471 0)
(0.01918 -0.745171 0)
(0.017243 -0.783663 0)
(0.0153916 -0.818106 0)
(0.0136197 -0.848635 0)
(-0.0462696 0.00158754 0)
(-0.0105618 0.0229907 0)
(0.0204391 0.00562514 0)
(0.0453913 -0.0437616 0)
(0.0728813 -0.11834 0)
(0.0941219 -0.203111 0)
(0.100095 -0.283728 0)
(0.0950564 -0.350631 0)
(0.0876538 -0.417509 0)
(0.080662 -0.480894 0)
(0.074132 -0.540268 0)
(0.0680743 -0.59558 0)
(0.0624018 -0.646845 0)
(0.0570335 -0.694129 0)
(0.0519082 -0.737498 0)
(0.0469899 -0.777025 0)
(0.0422659 -0.812786 0)
(0.0377404 -0.844861 0)
(0.0334151 -0.873352 0)
(-0.0529806 -0.0151687 0)
(0.0130282 -0.0118672 0)
(0.0580384 -0.0552537 0)
(0.0990945 -0.122001 0)
(0.133445 -0.19819 0)
(0.151586 -0.269503 0)
(0.15267 -0.3325 0)
(0.145511 -0.391725 0)
(0.136616 -0.451207 0)
(0.127279 -0.508362 0)
(0.118074 -0.563038 0)
(0.109196 -0.614779 0)
(0.100635 -0.663335 0)
(0.0923451 -0.708536 0)
(0.0842868 -0.750279 0)
(0.0764428 -0.788507 0)
(0.0688214 -0.823203 0)
(0.0614499 -0.85438 0)
(0.05436 -0.8821 0)
(-0.0289588 -0.0298016 0)
(0.0456458 -0.0500091 0)
(0.105393 -0.108834 0)
(0.15571 -0.178708 0)
(0.18851 -0.246275 0)
(0.200962 -0.305684 0)
(0.199017 -0.360781 0)
(0.191228 -0.415874 0)
(0.181434 -0.470758 0)
(0.170571 -0.524295 0)
(0.159433 -0.57612 0)
(0.148309 -0.625679 0)
(0.137294 -0.672597 0)
(0.12641 -0.716581 0)
(0.115666 -0.75742 0)
(0.105086 -0.794972 0)
(0.0947162 -0.82915 0)
(0.0846183 -0.85992 0)
(0.0748604 -0.887309 0)
(0.00456313 -0.0420206 0)
(0.0885674 -0.080335 0)
(0.156896 -0.146163 0)
(0.207909 -0.213387 0)
(0.235601 -0.273115 0)
(0.243946 -0.326606 0)
(0.241176 -0.378629 0)
(0.233442 -0.431095 0)
(0.223132 -0.483262 0)
(0.21132 -0.534602 0)
(0.198797 -0.58462 0)
(0.185913 -0.632784 0)
(0.172841 -0.678666 0)
(0.159671 -0.721909 0)
(0.146472 -0.762229 0)
(0.133323 -0.799418 0)
(0.120318 -0.833336 0)
(0.10757 -0.863911 0)
(0.0951945 -0.891141 0)
(0.050334 -0.0487565 0)
(0.139449 -0.10041 0)
(0.209114 -0.16889 0)
(0.255799 -0.232192 0)
(0.278384 -0.287357 0)
(0.284516 -0.338676 0)
(0.28168 -0.389473 0)
(0.274012 -0.44041 0)
(0.263348 -0.49104 0)
(0.250823 -0.541032 0)
(0.237174 -0.589913 0)
(0.222783 -0.637195 0)
(0.207873 -0.682429 0)
(0.192588 -0.725213 0)
(0.177054 -0.76521 0)
(0.161407 -0.802158 0)
(0.145807 -0.835877 0)
(0.130427 -0.866269 0)
(0.115438 -0.893323 0)
(0.104377 -0.0526235 0)
(0.194905 -0.111442 0)
(0.260471 -0.180539 0)
(0.301252 -0.24073 0)
(0.319763 -0.293999 0)
(0.324564 -0.344844 0)
(0.321581 -0.395161 0)
(0.313783 -0.445292 0)
(0.302771 -0.495062 0)
(0.289607 -0.54423 0)
(0.274954 -0.59239 0)
(0.259192 -0.639087 0)
(0.242564 -0.683855 0)
(0.225249 -0.726251 0)
(0.207427 -0.765889 0)
(0.189301 -0.802464 0)
(0.171104 -0.835771 0)
(0.153082 -0.865709 0)
(0.135477 -0.892282 0)
(0.166657 -0.0557474 0)
(0.251498 -0.116364 0)
(0.310636 -0.18467 0)
(0.345568 -0.242915 0)
(0.360867 -0.29573 0)
(0.364551 -0.346687 0)
(0.361187 -0.396827 0)
(0.353094 -0.446534 0)
(0.341688 -0.495789 0)
(0.327899 -0.544406 0)
(0.312296 -0.592028 0)
(0.295219 -0.638201 0)
(0.276903 -0.682426 0)
(0.257552 -0.724205 0)
(0.237401 -0.763093 0)
(0.216733 -0.798745 0)
(0.19587 -0.830949 0)
(0.175156 -0.859625 0)
(0.154917 -0.884834 0)
(0.232719 -0.0570938 0)
(0.307394 -0.116895 0)
(0.3597 -0.183984 0)
(0.389393 -0.241158 0)
(0.402025 -0.29401 0)
(0.404565 -0.34515 0)
(0.400621 -0.395182 0)
(0.392109 -0.444592 0)
(0.380241 -0.493431 0)
(0.365788 -0.541538 0)
(0.349202 -0.588551 0)
(0.330752 -0.633973 0)
(0.310642 -0.677223 0)
(0.289097 -0.717707 0)
(0.266416 -0.754892 0)
(0.242983 -0.788378 0)
(0.219248 -0.817944 0)
(0.19568 -0.843563 0)
(0.172721 -0.865396 0)
(0.296012 -0.0560679 0)
(0.362184 -0.114295 0)
(0.4079 -0.180293 0)
(0.432961 -0.236847 0)
(0.443285 -0.289708 0)
(0.444592 -0.340857 0)
(0.439905 -0.390686 0)
(0.430849 -0.439726 0)
(0.418413 -0.488041 0)
(0.403177 -0.53544 0)
(0.385447 -0.581488 0)
(0.36539 -0.625567 0)
(0.34316 -0.666934 0)
(0.319001 -0.704824 0)
(0.293295 -0.738556 0)
(0.266572 -0.76764 0)
(0.239455 -0.79185 0)
(0.212595 -0.811236 0)
(0.186588 -0.826099 0)
(0.165316 -0.757351 0)
(0.140065 -0.752148 0)
(0.117177 -0.743747 0)
(0.0966917 -0.732682 0)
(0.0785426 -0.719345 0)
(0.0626045 -0.703978 0)
(0.0487305 -0.686661 0)
(0.0367916 -0.667339 0)
(0.0267581 -0.6459 0)
(0.0189988 -0.622056 0)
(0.0127119 -0.595413 0)
(0.00777659 -0.56585 0)
(0.00411781 -0.533094 0)
(0.00150907 -0.496984 0)
(-0.000554867 -0.457319 0)
(-0.0030698 -0.413582 0)
(-0.00605463 -0.364577 0)
(-0.00700782 -0.308383 0)
(-0.00965423 -0.248533 0)
(-0.0232222 -0.192257 0)
(-0.0360709 -0.148654 0)
(0.156592 -0.649211 0)
(0.128202 -0.631228 0)
(0.102656 -0.610648 0)
(0.0798087 -0.588067 0)
(0.0594251 -0.56389 0)
(0.0412636 -0.538348 0)
(0.0251082 -0.511534 0)
(0.0107589 -0.483473 0)
(-0.00194631 -0.454261 0)
(-0.0131817 -0.423953 0)
(-0.0232603 -0.392245 0)
(-0.0322868 -0.358505 0)
(-0.0398297 -0.323038 0)
(-0.0458019 -0.285291 0)
(-0.0508331 -0.245008 0)
(-0.0559591 -0.199764 0)
(-0.0607786 -0.151184 0)
(-0.0632911 -0.0985078 0)
(-0.0649999 -0.0464254 0)
(-0.0760361 -0.00341274 0)
(-0.104391 0.00895058 0)
(0.137805 -0.533942 0)
(0.107366 -0.509412 0)
(0.0804852 -0.484613 0)
(0.0568884 -0.460253 0)
(0.0362525 -0.436785 0)
(0.0182302 -0.414453 0)
(0.0024303 -0.393282 0)
(-0.0115939 -0.372923 0)
(-0.0241479 -0.352846 0)
(-0.0354159 -0.332411 0)
(-0.0459621 -0.309793 0)
(-0.0558947 -0.285507 0)
(-0.0650832 -0.259207 0)
(-0.0740021 -0.23013 0)
(-0.0829729 -0.198612 0)
(-0.0912027 -0.165302 0)
(-0.0974087 -0.130556 0)
(-0.100738 -0.0934519 0)
(-0.102597 -0.0547913 0)
(-0.103963 -0.0212623 0)
(-0.0967002 -0.00419303 0)
(0.11596 -0.433561 0)
(0.0863153 -0.412074 0)
(0.0610806 -0.393539 0)
(0.0395833 -0.378136 0)
(0.0210259 -0.365436 0)
(0.00459761 -0.354523 0)
(-0.0104031 -0.344189 0)
(-0.024508 -0.333126 0)
(-0.0380209 -0.320671 0)
(-0.0510951 -0.306284 0)
(-0.063549 -0.289664 0)
(-0.0752781 -0.270589 0)
(-0.0863522 -0.248765 0)
(-0.0968632 -0.224125 0)
(-0.106961 -0.196927 0)
(-0.116578 -0.167452 0)
(-0.124687 -0.135822 0)
(-0.13039 -0.10213 0)
(-0.133075 -0.0674386 0)
(-0.129896 -0.0356183 0)
(-0.109267 -0.0120031 0)
(0.099447 -0.362437 0)
(0.07341 -0.350988 0)
(0.0515857 -0.34351 0)
(0.0325942 -0.338595 0)
(0.0152872 -0.334612 0)
(-0.00109827 -0.330192 0)
(-0.0169693 -0.324393 0)
(-0.0324626 -0.316793 0)
(-0.047657 -0.307063 0)
(-0.0626018 -0.294992 0)
(-0.0772319 -0.280421 0)
(-0.0914314 -0.26319 0)
(-0.105112 -0.243195 0)
(-0.1182 -0.220462 0)
(-0.13062 -0.195069 0)
(-0.142105 -0.167423 0)
(-0.15169 -0.137945 0)
(-0.158508 -0.106802 0)
(-0.161433 -0.0744929 0)
(-0.156354 -0.0430298 0)
(-0.131106 -0.0160497 0)
(0.0922685 -0.320061 0)
(0.0697896 -0.318102 0)
(0.0499247 -0.318047 0)
(0.0313546 -0.318159 0)
(0.0133694 -0.317295 0)
(-0.00433409 -0.314841 0)
(-0.0218615 -0.310479 0)
(-0.0392372 -0.304037 0)
(-0.0564741 -0.295338 0)
(-0.0735425 -0.284273 0)
(-0.0903608 -0.270744 0)
(-0.106827 -0.25465 0)
(-0.122825 -0.235953 0)
(-0.138192 -0.214704 0)
(-0.152649 -0.190963 0)
(-0.165713 -0.165069 0)
(-0.176719 -0.13747 0)
(-0.184769 -0.108281 0)
(-0.188425 -0.0776605 0)
(-0.18313 -0.046643 0)
(-0.156977 -0.0180032 0)
(0.0923308 -0.295372 0)
(0.0712863 -0.298322 0)
(0.0513403 -0.301035 0)
(0.0318025 -0.302583 0)
(0.0124157 -0.302529 0)
(-0.00690578 -0.300654 0)
(-0.0261907 -0.296826 0)
(-0.0454397 -0.290926 0)
(-0.064642 -0.282842 0)
(-0.0837454 -0.272495 0)
(-0.102657 -0.259809 0)
(-0.121254 -0.244717 0)
(-0.139385 -0.227203 0)
(-0.156821 -0.207353 0)
(-0.173176 -0.185178 0)
(-0.187884 -0.160872 0)
(-0.200359 -0.134891 0)
(-0.209719 -0.107325 0)
(-0.214336 -0.0781147 0)
(-0.209861 -0.047781 0)
(-0.184588 -0.0186976 0)
(0.0957884 -0.277994 0)
(0.0744788 -0.282509 0)
(0.0535072 -0.285838 0)
(0.0326165 -0.287642 0)
(0.0117215 -0.287758 0)
(-0.00921245 -0.286081 0)
(-0.0301994 -0.28253 0)
(-0.0512316 -0.277018 0)
(-0.0722848 -0.269459 0)
(-0.093299 -0.25978 0)
(-0.114172 -0.247912 0)
(-0.134759 -0.233797 0)
(-0.15487 -0.217417 0)
(-0.174236 -0.198849 0)
(-0.19244 -0.178116 0)
(-0.208784 -0.155293 0)
(-0.22271 -0.130752 0)
(-0.233432 -0.104626 0)
(-0.23923 -0.076744 0)
(-0.236083 -0.0473391 0)
(-0.212536 -0.0186234 0)
(0.100256 -0.262747 0)
(0.0779668 -0.267444 0)
(0.0557292 -0.270718 0)
(0.0334513 -0.272447 0)
(0.0110918 -0.272545 0)
(-0.0113728 -0.27095 0)
(-0.0339544 -0.267609 0)
(-0.0566454 -0.262453 0)
(-0.0794194 -0.255405 0)
(-0.102215 -0.246393 0)
(-0.124922 -0.235343 0)
(-0.147377 -0.22219 0)
(-0.169353 -0.206904 0)
(-0.190542 -0.189531 0)
(-0.210494 -0.170132 0)
(-0.228484 -0.148718 0)
(-0.243893 -0.125509 0)
(-0.255989 -0.100708 0)
(-0.263078 -0.0741585 0)
(-0.261459 -0.0459002 0)
(-0.239981 -0.0180798 0)
(0.104771 -0.247897 0)
(0.0813134 -0.25234 0)
(0.0578029 -0.255365 0)
(0.0341952 -0.256913 0)
(0.0104604 -0.256932 0)
(-0.013424 -0.255386 0)
(-0.0374738 -0.252239 0)
(-0.0616886 -0.247433 0)
(-0.0860478 -0.240896 0)
(-0.110493 -0.232552 0)
(-0.134914 -0.222318 0)
(-0.159127 -0.210117 0)
(-0.182873 -0.195899 0)
(-0.205796 -0.179671 0)
(-0.227407 -0.1615 0)
(-0.247031 -0.141408 0)
(-0.263957 -0.119498 0)
(-0.277414 -0.0959864 0)
(-0.285823 -0.0707882 0)
(-0.285748 -0.0438465 0)
(-0.266408 -0.0172529 0)
(0.109012 -0.233044 0)
(0.0843839 -0.237107 0)
(0.0596597 -0.239818 0)
(0.0348095 -0.241148 0)
(0.00980625 -0.241068 0)
(-0.0153761 -0.23956 0)
(-0.0407624 -0.236602 0)
(-0.0663643 -0.232141 0)
(-0.0921725 -0.226108 0)
(-0.118138 -0.218424 0)
(-0.14415 -0.208997 0)
(-0.170019 -0.197738 0)
(-0.195454 -0.184574 0)
(-0.220053 -0.169475 0)
(-0.243282 -0.152467 0)
(-0.264483 -0.133601 0)
(-0.282906 -0.112967 0)
(-0.297703 -0.0907508 0)
(-0.307405 -0.0669309 0)
(-0.308792 -0.0414271 0)
(-0.291506 -0.0162597 0)
(0.112881 -0.218179 0)
(0.0871348 -0.221819 0)
(0.0612768 -0.224195 0)
(0.0352822 -0.225296 0)
(0.0091231 -0.225112 0)
(-0.0172338 -0.223638 0)
(-0.043826 -0.220861 0)
(-0.0706804 -0.216734 0)
(-0.0978035 -0.211191 0)
(-0.125159 -0.204149 0)
(-0.152644 -0.195512 0)
(-0.180064 -0.185174 0)
(-0.207108 -0.173041 0)
(-0.233334 -0.159053 0)
(-0.258162 -0.143198 0)
(-0.280893 -0.12552 0)
(-0.300754 -0.106128 0)
(-0.316846 -0.0852115 0)
(-0.327775 -0.0627914 0)
(-0.330496 -0.0388045 0)
(-0.315097 -0.0151743 0)
(0.116347 -0.203381 0)
(0.089554 -0.20659 0)
(0.0626493 -0.208628 0)
(0.0356111 -0.209501 0)
(0.00840822 -0.209213 0)
(-0.0190029 -0.207768 0)
(-0.0466744 -0.205162 0)
(-0.0746513 -0.201352 0)
(-0.102958 -0.196276 0)
(-0.131577 -0.189851 0)
(-0.160416 -0.181975 0)
(-0.189282 -0.17253 0)
(-0.217852 -0.161402 0)
(-0.245647 -0.148503 0)
(-0.272038 -0.133791 0)
(-0.296269 -0.117295 0)
(-0.317511 -0.0991344 0)
(-0.334835 -0.0795135 0)
(-0.346902 -0.0585066 0)
(-0.350805 -0.0360837 0)
(-0.337087 -0.014043 0)
(0.119407 -0.188749 0)
(0.0916436 -0.191532 0)
(0.0637805 -0.193239 0)
(0.035798 -0.193889 0)
(0.00765928 -0.193496 0)
(-0.0206911 -0.192075 0)
(-0.0493213 -0.189626 0)
(-0.0782958 -0.186112 0)
(-0.10766 -0.181475 0)
(-0.137417 -0.175636 0)
(-0.167491 -0.168487 0)
(-0.197699 -0.159901 0)
(-0.227708 -0.149748 0)
(-0.257009 -0.137914 0)
(-0.284919 -0.124331 0)
(-0.31061 -0.109013 0)
(-0.333182 -0.0920797 0)
(-0.351666 -0.0737536 0)
(-0.364767 -0.0541651 0)
(-0.369697 -0.0333311 0)
(-0.357435 -0.012894 0)
(0.12207 -0.174375 0)
(0.0934119 -0.176744 0)
(0.0646772 -0.17813 0)
(0.0358456 -0.178564 0)
(0.00687342 -0.178067 0)
(-0.0223077 -0.176662 0)
(-0.0517828 -0.174354 0)
(-0.0816365 -0.171112 0)
(-0.111937 -0.166885 0)
(-0.14271 -0.161594 0)
(-0.173903 -0.155132 0)
(-0.205344 -0.147367 0)
(-0.236701 -0.138154 0)
(-0.267438 -0.127357 0)
(-0.296815 -0.114887 0)
(-0.323923 -0.100739 0)
(-0.34777 -0.0850277 0)
(-0.367337 -0.0679949 0)
(-0.381362 -0.0498227 0)
(-0.387167 -0.0305875 0)
(-0.376133 -0.0117437 0)
(0.124349 -0.160338 0)
(0.0948701 -0.162307 0)
(0.065347 -0.163384 0)
(0.0357566 -0.163608 0)
(0.00604704 -0.163007 0)
(-0.0238633 -0.161608 0)
(-0.0540763 -0.159425 0)
(-0.0846975 -0.156431 0)
(-0.115819 -0.15258 0)
(-0.147491 -0.147799 0)
(-0.179686 -0.141981 0)
(-0.212252 -0.134992 0)
(-0.244859 -0.126678 0)
(-0.276954 -0.116887 0)
(-0.307739 -0.105508 0)
(-0.336213 -0.0925154 0)
(-0.36128 -0.0780203 0)
(-0.38185 -0.062277 0)
(-0.396688 -0.0455124 0)
(-0.403222 -0.0278765 0)
(-0.393193 -0.0106006 0)
(0.126257 -0.146698 0)
(0.0960299 -0.148283 0)
(0.0657973 -0.149061 0)
(0.0355327 -0.14908 0)
(0.00517566 -0.148371 0)
(-0.0253688 -0.146971 0)
(-0.0562199 -0.144895 0)
(-0.0875039 -0.142124 0)
(-0.119337 -0.138617 0)
(-0.151795 -0.134305 0)
(-0.184879 -0.129086 0)
(-0.21846 -0.122827 0)
(-0.252218 -0.115367 0)
(-0.285583 -0.106543 0)
(-0.317707 -0.0962265 0)
(-0.34749 -0.0843725 0)
(-0.373717 -0.0710822 0)
(-0.395211 -0.0566213 0)
(-0.41075 -0.0412513 0)
(-0.417878 -0.0252102 0)
(-0.408639 -0.0094677 0)
(0.127808 -0.133499 0)
(0.0969013 -0.134713 0)
(0.0660333 -0.1352 0)
(0.0351741 -0.135015 0)
(0.00425384 -0.134196 0)
(-0.0268358 -0.132783 0)
(-0.0582314 -0.130798 0)
(-0.09008 -0.128226 0)
(-0.122521 -0.125031 0)
(-0.15566 -0.12115 0)
(-0.189523 -0.116485 0)
(-0.224009 -0.110906 0)
(-0.258813 -0.104252 0)
(-0.293357 -0.0963531 0)
(-0.326741 -0.0870646 0)
(-0.35777 -0.0763255 0)
(-0.385093 -0.0642249 0)
(-0.407426 -0.0510365 0)
(-0.423557 -0.0370447 0)
(-0.431152 -0.0225925 0)
(-0.422498 -0.0083447 0)
(0.129014 -0.120766 0)
(0.0974916 -0.121617 0)
(0.0660581 -0.121818 0)
(0.034679 -0.121429 0)
(0.00327532 -0.120494 0)
(-0.0282756 -0.119059 0)
(-0.0601276 -0.11715 0)
(-0.0924489 -0.114754 0)
(-0.125403 -0.111842 0)
(-0.15912 -0.108354 0)
(-0.193659 -0.104199 0)
(-0.228942 -0.0992503 0)
(-0.264687 -0.0933519 0)
(-0.30031 -0.0863304 0)
(-0.33487 -0.0780315 0)
(-0.36707 -0.0683788 0)
(-0.395419 -0.0574486 0)
(-0.418507 -0.0455205 0)
(-0.435119 -0.0328896 0)
(-0.443061 -0.0200219 0)
(-0.434798 -0.00722881 0)
(0.129883 -0.108496 0)
(0.0978049 -0.108993 0)
(0.0658722 -0.108912 0)
(0.0340448 -0.108317 0)
(0.00223352 -0.107262 0)
(-0.0296987 -0.105795 0)
(-0.0619242 -0.103947 0)
(-0.094632 -0.101707 0)
(-0.128009 -0.0990504 0)
(-0.162211 -0.0959205 0)
(-0.197325 -0.0922319 0)
(-0.233302 -0.0878657 0)
(-0.269881 -0.0826713 0)
(-0.306482 -0.0764777 0)
(-0.342123 -0.0691256 0)
(-0.375413 -0.0605265 0)
(-0.404711 -0.0507441 0)
(-0.428466 -0.0400631 0)
(-0.445447 -0.0287759 0)
(-0.453619 -0.0174912 0)
(-0.445561 -0.00611675 0)
(0.130424 -0.0966548 0)
(0.0978465 -0.0968114 0)
(0.0654763 -0.0964539 0)
(0.0332686 -0.095656 0)
(0.00112264 -0.0944767 0)
(-0.0311146 -0.0929713 0)
(-0.0636347 -0.0911718 0)
(-0.0966484 -0.0890717 0)
(-0.130365 -0.0866449 0)
(-0.164965 -0.0838399 0)
(-0.200561 -0.0805767 0)
(-0.237133 -0.0767449 0)
(-0.274441 -0.0722027 0)
(-0.311913 -0.0667855 0)
(-0.348535 -0.0603343 0)
(-0.382823 -0.052753 0)
(-0.412985 -0.0440933 0)
(-0.437314 -0.0346465 0)
(-0.454548 -0.0246873 0)
(-0.462833 -0.0149871 0)
(-0.454807 -0.00501149 0)
(0.130678 -0.085152 0)
(0.09764 -0.0850086 0)
(0.0648798 -0.0843978 0)
(0.0323516 -0.0834058 0)
(-6.05212e-05 -0.0821048 0)
(-0.03253 -0.0805572 0)
(-0.0652704 -0.0787982 0)
(-0.0985151 -0.076822 0)
(-0.132495 -0.0746026 0)
(-0.167413 -0.0720907 0)
(-0.203405 -0.0692127 0)
(-0.240475 -0.0658677 0)
(-0.27841 -0.0619259 0)
(-0.316645 -0.057233 0)
(-0.354142 -0.051635 0)
(-0.389328 -0.0450332 0)
(-0.420259 -0.0374699 0)
(-0.445061 -0.0292458 0)
(-0.462426 -0.0206009 0)
(-0.470695 -0.0124903 0)
(-0.46257 -0.00393733 0)
(0.130641 -0.0738939 0)
(0.0972209 -0.073491 0)
(0.0641157 -0.0726846 0)
(0.0313077 -0.0715202 0)
(-0.00131352 -0.0701059 0)
(-0.0339487 -0.0685169 0)
(-0.0668401 -0.0667926 0)
(-0.100247 -0.064927 0)
(-0.134422 -0.0628926 0)
(-0.169586 -0.0606419 0)
(-0.205893 -0.0581084 0)
(-0.243373 -0.0552029 0)
(-0.281833 -0.0518094 0)
(-0.320722 -0.0477879 0)
(-0.358981 -0.042994 0)
(-0.394956 -0.0373323 0)
(-0.42655 -0.0308388 0)
(-0.451716 -0.0238276 0)
(-0.469081 -0.0164874 0)
(-0.477184 -0.00998389 0)
(-0.468859 -0.0028671 0)
(0.130354 -0.0629428 0)
(0.0965715 -0.062252 0)
(0.063193 -0.0612406 0)
(0.0301663 -0.059963 0)
(-0.00262431 -0.0584466 0)
(-0.0353703 -0.0568171 0)
(-0.0683513 -0.0551214 0)
(-0.10186 -0.0533521 0)
(-0.13617 -0.0514781 0)
(-0.171514 -0.0494542 0)
(-0.208064 -0.0472227 0)
(-0.245869 -0.0447077 0)
(-0.284755 -0.0418101 0)
(-0.324188 -0.0384066 0)
(-0.363091 -0.0343675 0)
(-0.399735 -0.0296062 0)
(-0.431873 -0.0241564 0)
(-0.457283 -0.0183507 0)
(-0.474513 -0.0123142 0)
(-0.482307 -0.00745014 0)
(-0.473668 -0.00177644 0)
(0.129799 -0.0524012 0)
(0.0957309 -0.0513997 0)
(0.0621006 -0.0501265 0)
(0.0289078 -0.0486895 0)
(-0.00397829 -0.0471129 0)
(-0.0367919 -0.0454374 0)
(-0.0698126 -0.0437559 0)
(-0.103373 -0.0420622 0)
(-0.137765 -0.040318 0)
(-0.173233 -0.038481 0)
(-0.209959 -0.0365048 0)
(-0.248006 -0.0343292 0)
(-0.287223 -0.0318735 0)
(-0.327087 -0.0290344 0)
(-0.36651 -0.0257004 0)
(-0.403692 -0.0217997 0)
(-0.43624 -0.0173697 0)
(-0.461761 -0.0127697 0)
(-0.478716 -0.00805148 0)
(-0.48604 -0.00486058 0)
(-0.476947 -0.000499951 0)
(0.128955 -0.0422714 0)
(0.0946532 -0.0409843 0)
(0.0608515 -0.0394645 0)
(0.0275229 -0.03779 0)
(-0.00541957 -0.0360862 0)
(-0.0382236 -0.0343754 0)
(-0.0712394 -0.0326777 0)
(-0.104809 -0.0310227 0)
(-0.139242 -0.0293662 0)
(-0.174783 -0.0276676 0)
(-0.21162 -0.0258943 0)
(-0.249832 -0.0240035 0)
(-0.289283 -0.0219341 0)
(-0.329463 -0.0196046 0)
(-0.369276 -0.0169258 0)
(-0.406854 -0.013846 0)
(-0.43966 -0.0104159 0)
(-0.465142 -0.00703228 0)
(-0.481655 -0.00366435 0)
(-0.488271 -0.00215527 0)
(-0.478614 0.000754508 0)
(0.12785 -0.0325423 0)
(0.0933414 -0.0309857 0)
(0.0593979 -0.0292345 0)
(0.0259966 -0.0273518 0)
(-0.00696478 -0.0254333 0)
(-0.0397225 -0.0236094 0)
(-0.0726669 -0.0218704 0)
(-0.10621 -0.0201961 0)
(-0.140644 -0.0185686 0)
(-0.17621 -0.0169494 0)
(-0.213097 -0.0153199 0)
(-0.251394 -0.0136553 0)
(-0.290982 -0.0119145 0)
(-0.331362 -0.0100389 0)
(-0.371426 -0.00796504 0)
(-0.409243 -0.00566732 0)
(-0.442141 -0.00322348 0)
(-0.467417 -0.00106479 0)
(-0.483282 0.000938929 0)
(-0.48899 0.000777479 0)
(-0.478597 0.0020238 0)
(0.126501 -0.0231716 0)
(0.0918163 -0.021352 0)
(0.0577466 -0.0193659 0)
(0.024287 -0.0172728 0)
(-0.00864624 -0.0151586 0)
(-0.0413185 -0.01314 0)
(-0.0741671 -0.0112865 0)
(-0.107634 -0.00952815 0)
(-0.14203 -0.00785557 0)
(-0.177569 -0.00624718 0)
(-0.214441 -0.00469739 0)
(-0.252743 -0.00319707 0)
(-0.292368 -0.00172474 0)
(-0.332827 -0.000246206 0)
(-0.372997 0.00127264 0)
(-0.410883 0.00282354 0)
(-0.443683 0.00428595 0)
(-0.468551 0.00522366 0)
(-0.483558 0.00584429 0)
(-0.488681 0.0038723 0)
(-0.476866 0.00325771 0)
(0.124912 -0.0140863 0)
(0.0900769 -0.0119943 0)
(0.0558974 -0.00975443 0)