/*--------------------------------*- C++ -*----------------------------------*\
| =========                 |                                                 |
| \\      /  F ield         | OpenFOAM: The Open Source CFD Toolbox           |
|  \\    /   O peration     | Version:  v2012                                 |
|   \\  /    A nd           | Website:  www.openfoam.com                      |
|    \\/     M anipulation  |                                                 |
\*---------------------------------------------------------------------------*/
FoamFile
{
    version     2.0;
    format      ascii;
    class       volScalarField;
    location    "5000";
    object      age;
}
// * * * * * * * * * * * * * * * * * * * * * * * * * * * * * * * * * * * * * //

dimensions      [0 0 1 0 0 0 0];


internalField   nonuniform List<scalar> 
6036
(
1.58642
1.48228
1.38372
1.28892
1.19657
1.10568
1.0155
0.925381
0.834899
0.744326
0.65585
0.571152
0.485792
0.401096
0.317638
0.237262
0.163074
0.0992844
0.0495754
0.0145832
0.736105
0.66966
0.61395
0.566024
0.52336
0.484221
0.447387
0.412015
0.377532
0.343562
0.309864
0.27619
0.242072
0.207507
0.172197
0.136601
0.101545
0.0683142
0.0385572
0.0125307
0.463729
0.432597
0.404438
0.378374
0.353654
0.329818
0.306556
0.283666
0.261014
0.238512
0.216087
0.193573
0.170141
0.147668
0.12505
0.102439
0.079881
0.0574459
0.0350485
0.0121047
0.38329
0.360911
0.339955
0.319914
0.300447
0.281347
0.262479
0.243757
0.225127
0.206554
0.188014
0.169488
0.150958
0.132408
0.113778
0.0949841
0.0758526
0.0560503
0.0350345
0.0122246
0.354707
0.335977
0.317994
0.300429
0.283098
0.265906
0.248794
0.231729
0.214691
0.197666
0.180644
0.163612
0.146542
0.129386
0.112045
0.0943414
0.0759775
0.0565121
0.0354041
0.0122944
0.348629
0.332011
0.315467
0.298843
0.282123
0.265315
0.248441
0.231522
0.214573
0.197602
0.18061
0.163593
0.146531
0.129379
0.112041
0.0943392
0.0759764
0.0565117
0.035404
0.0122944
0.361044
0.34653
0.330675
0.314061
0.296782
0.279076
0.261083
0.242909
0.224621
0.206258
0.187845
0.169392
0.150903
0.132374
0.113759
0.094974
0.0758481
0.0560488
0.0350343
0.0122246
0.406019
0.396236
0.381599
0.364093
0.344756
0.324299
0.303147
0.281572
0.259738
0.237744
0.215628
0.193298
0.169965
0.147573
0.124994
0.10241
0.0798682
0.0574414
0.0350475
0.0121046
0.546303
0.553939
0.542139
0.52163
0.495971
0.467394
0.437087
0.40573
0.373697
0.341209
0.308406
0.275327
0.241596
0.207251
0.172065
0.136532
0.101519
0.0683058
0.0385554
0.0125304
1.17996
1.25383
1.26116
1.21997
1.1555
1.08113
1.00068
0.916642
0.829829
0.741415
0.65377
0.570101
0.485125
0.400729
0.317442
0.237171
0.16304
0.0992752
0.0495739
0.014583
45.9009
38.1393
32.0594
27.152
23.1808
19.9149
17.1686
14.8347
12.842
11.1386
9.69307
8.49175
7.46653
6.57434
5.80847
5.15159
4.58588
4.09738
3.67473
3.30848
2.99089
2.71654
2.48578
2.28553
2.11093
1.95737
1.82103
1.69842
28.1321
23.3364
19.5972
16.5752
14.1399
12.1661
10.5305
9.15962
7.99708
6.99429
6.11783
5.38088
4.75834
4.21378
3.73793
3.32299
2.95886
2.63746
2.35228
2.09803
1.87052
1.66638
1.4827
1.31636
1.1667
1.03351
0.917103
0.817834
17.4609
14.5463
12.2719
10.4347
8.95309
7.75313
6.75661
5.91602
5.19543
4.56888
4.01987
3.54229
3.12893
2.76645
2.44544
2.16059
1.90658
1.67938
1.47593
1.29401
1.13207
0.989129
0.864619
0.758324
0.670036
0.600008
0.544295
0.499914
11.8207
9.9341
8.44886
7.24162
6.25776
5.44875
4.7658
4.18011
3.67261
3.22943
2.84126
2.50091
2.20017
1.9333
1.69658
1.48666
1.30079
1.137
0.993836
0.870194
0.765113
0.677541
0.606119
0.548974
0.50361
0.466981
0.435327
0.407806
8.7386
7.41089
6.34984
5.4759
4.75125
4.14364
3.62328
3.17303
2.78149
2.43966
2.13997
1.87648
1.64404
1.43926
1.25984
1.10359
0.968692
0.853532
0.756567
0.676149
0.610385
0.557082
0.513795
0.478023
0.447522
0.420642
0.396493
0.374697
6.89383
5.88222
5.06075
4.37557
3.79972
3.31108
2.8906
2.52672
2.21084
1.93569
1.69534
1.48537
1.30254
1.14441
1.00876
0.893504
0.796629
0.716076
0.649678
0.595155
0.550177
0.512516
0.480249
0.451951
0.426761
0.404243
0.384078
0.365758
5.67631
4.85917
4.18751
3.62305
3.14544
2.73848
2.38871
2.0871
1.82648
1.60086
1.40569
1.2376
1.09382
0.971798
0.869082
0.783289
0.712038
0.652949
0.603713
0.562206
0.526619
0.495585
0.468234
0.44412
0.423042
0.404797
0.388964
0.374773
4.81011
4.1247
3.55709
3.07868
2.6732
2.328
2.03266
1.77955
1.56246
1.37638
1.21749
1.08267
0.969015
0.87372
0.794128
0.727719
0.672106
0.625125
0.584938
0.550113
0.519668
0.493045
0.470019
0.450586
0.434897
0.423175
0.415406
0.410694
4.16323
3.57433
3.08491
2.67257
2.32378
2.02808
1.77678
1.56308
1.38142
1.22735
1.09727
0.987999
0.896472
0.819827
0.755468
0.701079
0.65466
0.614593
0.579679
0.549132
0.522532
0.499807
0.481319
0.468134
0.462334
0.466151
0.482282
0.512208
3.66465
3.15076
2.72344
2.36446
2.06219
1.8075
1.59266
1.41139
1.25854
1.12995
1.02207
0.931669
0.855742
0.791629
0.737075
0.690221
0.649628
0.614285
0.58359
0.557339
0.535802
0.520024
0.512604
0.519082
0.550065
0.623567
0.762877
0.973787
940.703
909.544
898.104
909.274
932.57
984.978
978.482
668.729
152.874
91.8664
71.0057
56.1469
763.682
747.17
768.933
796.101
840.529
938.444
673.169
228.27
75.4942
57.1542
43.4085
34.5237
665.228
685.994
745.388
800.02
831.89
666.737
249.661
65.7273
46.4696
34.5343
26.6177
21.3524
620.089
671.953
765.286
788.307
632.895
288.765
70.1655
37.7211
30.2022
22.3132
17.664
14.3116
585.992
651.36
726.587
606.576
325.044
91.5433
34.6971
26.6691
20.7845
15.766
12.7535
10.455
552.843
597.156
566.54
362.003
127.165
36.701
26.3249
20.0053
15.3005
12.0299
9.85554
8.17253
514.065
498.308
382.125
174.107
47.5567
27.0231
20.6969
15.5092
12.0077
9.68807
7.99748
6.69203
468.758
395.41
236.956
79.1782
29.9385
21.9169
16.5917
12.492
9.89215
8.08907
6.71569
5.65352
420.177
301.582
137.579
41.1817
24.3803
18.2398
13.619
10.45
8.42078
6.92916
5.78004
4.88389
375.136
227.996
82.1366
30.0161
20.673
15.398
11.495
9.00757
7.32742
6.05137
5.06718
4.29187
3.26499
2.8132
2.43826
2.12482
1.8625
1.64295
1.45901
1.30477
1.17541
1.06693
0.975918
0.899268
0.83428
0.778727
0.730864
0.689391
0.653418
0.622425
0.596212
0.575064
0.560153
0.554574
0.564968
0.603078
0.68555
0.823901
0.989409
1.18323
2.94204
2.54312
2.21332
1.93925
1.71134
1.52171
1.36359
1.23142
1.12069
1.02766
0.949144
0.882407
0.825221
0.775892
0.733197
0.69629
0.664607
0.638
0.616961
0.60317
0.602249
0.624563
0.688127
0.818712
1.04381
1.34091
2.32631
6.99133
2.68875
2.3342
2.04247
1.80145
1.60207
1.43678
1.29919
1.18412
1.08742
1.00573
0.93624
0.876735
0.825519
0.781384
0.743499
0.711385
0.684863
0.664163
0.654078
0.660636
0.692638
0.760001
0.873704
1.05722
1.41547
14.3385
84.3164
221.694
2.49041
2.1734
1.91384
1.70041
1.52442
1.37865
1.25715
1.15521
1.06915
0.996047
0.933561
0.88013
0.834475
0.795716
0.763336
0.737646
0.719906
0.707097
0.721617
0.76085
0.823755
0.90806
1.041
1.38858
19.4012
85.8138
190.838
219.782
2.33571
2.05059
1.8181
1.62751
1.47051
1.34029
1.23143
1.13975
1.06212
0.996153
0.939768
0.892202
0.852256
0.819202
0.793007
0.775712
0.77138
0.765865
0.812351
0.877534
0.946642
1.05667
1.40985
17.0619
71.7457
152.681
181.954
221.998
2.21589
1.95782
1.74799
1.57621
1.43458
1.31683
1.21811
1.13481
1.06437
1.00487
0.954031
0.912058
0.877469
0.849838
0.830294
0.823783
0.837066
0.833767
0.90349
0.974237
1.06062
1.39646
12.9935
60.3174
138.456
191.704
172.283
223.835
2.12406
1.88887
1.69795
1.54164
1.41254
1.30498
1.21471
1.13857
1.07454
1.02096
0.974779
0.937602
0.907706
0.885671
0.874488
0.881343
0.910791
0.892842
0.9643
1.07224
1.43087
8.05807
44.9243
118.57
189.873
198.44
171.449
226.295
2.0548
1.83893
1.66377
1.52025
1.40153
1.30252
1.21948
1.1496
1.09118
1.04275
1.00009
0.967042
0.942124
0.927433
0.926991
0.946844
0.984991
0.948341
1.07611
1.47064
3.74857
29.2674
94.4981
178.527
227.873
199.868
170.755
229.827
2.00382
1.80425
1.6423
1.50947
1.39949
1.30779
1.23102
1.16651
1.11285
1.06879
1.02901
1.00061
0.982726
0.978471
0.99073
1.02181
1.06468
1.01974
1.22738
1.92178
15.2607
66.4676
149.111
225.728
243.349
200.352
169.538
234.992
1.96776
1.78199
1.63116
1.50737
1.40486
1.31949
1.24812
1.18814
1.13852
1.09856
1.06214
1.04026
1.0323
1.04033
1.06304
1.09904
1.15103
1.16676
1.70503
5.87016
38.7097
111.607
200.465
259.533
244.896
197.562
167.966
239.744
1.94398
1.76992
1.62855
1.51249
1.41645
1.33656
1.26981
1.21369
1.16779
1.13237
1.10078
1.08774
1.09175
1.11201
1.14378
1.18886
1.27739
1.41272
2.12218
16.8703
71.2759
157.276
241.765
274.246
245.343
193.213
166.329
247.645
1.9304
1.76634
1.63307
1.52371
1.43329
1.35813
1.29537
1.24273
1.20075
1.17095
1.14624
1.14418
1.16121
1.19288
1.23321
1.29182
1.43092
1.79489
4.78652
35.6806
107.445
198.494
264.276
273.967
241.616
187.976
164.913
259.093
1.92537
1.7699
1.64364
1.54011
1.45457
1.38354
1.32434
1.2752
1.23787
1.21528
1.19976
1.21024
1.24029
1.28231
1.33306
1.41613
1.6235
2.15577
11.6666
59.6249
141.367
227.887
272.811
272.627
235.726
182.477
163.736
261.574
1.92757
1.77954
1.65938
1.56094
1.47969
1.41234
1.35657
1.31139
1.27993
1.26633
1.26192
1.28536
1.32728
1.37869
1.44127
1.54713
1.80075
2.44312
22.6675
84.0264
169.226
247.104
279.324
269.702
228.247
177.696
162.76
264.753
1.93595
1.79438
1.67956
1.58562
1.5082
1.4443
1.39216
1.35176
1.32756
1.32441
1.33204
1.36752
1.41906
1.4774
1.54975
1.68754
2.07474
4.67458
36.7182
105.611
189.552
258.197
282.862
263.283
220.425
173.241
161.777
272.713
1.94964
1.81372
1.70363
1.61371
1.53983
1.47938
1.43131
1.39667
1.38093
1.38898
1.40849
1.45419
1.51298
1.57691
1.66134
1.84028
2.35083
8.53494
50.5699
122.701
202.881
262.43
273.907
254.462
212.533
169.154
160.874
279.712
1.96794
1.837
1.73112
1.64487
1.57439
1.51755
1.47413
1.44615
1.43968
1.45893
1.48941
1.54343
1.6079
1.67811
1.77917
2.00327
2.62051
13.3895
62.4183
134.608
209.325
261.902
267.561
245.356
204.401
165.384
159.916
285.641
1.99027
1.86375
1.76168
1.67887
1.61175
1.5588
1.5206
1.49998
1.50309
1.53301
1.57326
1.63408
1.70378
1.78226
1.90358
2.17008
2.87856
18.5086
71.3628
141.402
210.201
256.928
259.874
235
196.412
161.932
158.907
292.193
2.01613
1.89358
1.79501
1.71548
1.65179
1.60303
1.57055
1.55771
1.57034
1.61008
1.65893
1.72562
1.80078
1.88846
2.02806
2.34476
3.2988
23.1982
77.1368
143.796
206.288
247.347
249.308
223.569
188.745
158.502
157.889
299.872
2.04511
1.92615
1.83086
1.75452
1.69437
1.65008
1.6237
1.6188
1.64058
1.68921
1.74569
1.81782
1.89892
1.99659
2.15626
2.53475
3.87486
26.787
79.9062
142.558
198.751
233.524
234.221
211.594
181.425
155.106
157.025
308.89
2.07684
1.96118
1.86898
1.79581
1.7393
1.69976
1.67968
1.68267
1.71309
1.76973
1.83314
1.91065
1.99838
2.10706
2.28776
2.71986
4.41555
28.8895
80.177
138.384
188.831
218.236
219.129
200.343
174.456
151.693
156.419
319.343
2.11101
1.99841
1.90918
1.83916
1.78644
1.75181
1.73811
1.7488
1.78729
1.85118
1.92108
2.00418
2.09922
2.21964
2.42065
2.89332
4.80243
29.6504
78.3082
132.077
177.557
203.276
205.051
189.808
167.832
148.404
156.197
331.19
2.14733
2.0376
1.95125
1.8844
1.83556
1.80596
1.79863
1.81671
1.86273
1.93329
2.00943
2.09841
2.20132
2.33382
2.55353
3.05591
5.02625
29.27
74.7895
124.365
165.687
189.076
191.992
179.981
161.599
145.62
156.365
344.514
2.18553
2.07852
1.99499
1.93135
1.88648
1.86197
1.86089
1.88606
1.93909
2.01588
2.09817
2.19336
2.30453
2.4491
2.68593
3.21131
5.16183
27.9327
70.1267
115.848
153.752
175.697
179.885
170.842
155.779
143.152
156.783
359.485
2.22537
2.12097
2.04023
1.97982
1.93899
1.91957
1.92463
1.95655
2.01619
2.0989
2.18732
2.289
2.40868
2.56519
2.81766
3.35589
5.23718
25.9372
64.7703
106.997
142.111
163.167
168.677
162.372
150.382
141.115
157.437
376.303
2.26661
2.16474
2.08677
2.02965
1.99291
1.97857
1.98961
2.028
2.09391
2.18234
2.27692
2.38533
2.5137
2.68198
2.94928
3.48927
5.27383
23.5936
59.1007
98.165
130.999
151.513
158.338
154.552
145.417
139.512
158.331
395.262
2.30901
2.20965
2.13447
2.08067
2.04808
2.03879
2.05567
2.10028
2.17221
2.26625
2.36705
2.48241
2.61959
2.79942
3.07972
3.61544
5.28946
21.1679
53.4311
89.627
120.568
140.749
148.839
147.366
140.891
137.857
159.649
416.767
2.3524
2.25552
2.18316
2.13276
2.10434
2.10009
2.1227
2.17335
2.25111
2.35071
2.45782
2.58033
2.72643
2.9176
3.20944
3.73739
5.2986
18.8572
48.0006
81.5755
110.911
130.887
140.165
140.8
136.789
136.289
161.544
441.289
2.39655
2.30218
2.2327
2.18577
2.16159
2.16239
2.19066
2.24721
2.33071
2.43587
2.54941
2.67926
2.83438
3.03669
3.3393
3.85819
5.31227
16.7872
42.9828
74.1407
102.075
121.924
132.294
134.838
133.106
134.783
164.174
469.427
2.44125
2.34946
2.28295
2.2396
2.21974
2.22563
2.25954
2.32194
2.41114
2.52192
2.64203
2.77941
2.94372
3.15709
3.47023
3.98277
5.3373
15.0206
38.4912
67.4149
94.0935
113.847
125.202
129.466
129.829
133.271
167.681
501.808
2.48632
2.39721
2.33381
2.29416
2.27876
2.28981
2.32939
2.39764
2.49258
2.6091
2.73593
2.88108
3.05479
3.27932
3.6032
4.11132
5.37917
13.5756
34.5875
61.4514
86.9791
106.639
118.866
124.671
126.945
132.165
172.147
540.163
2.53161
2.44533
2.38518
2.3494
2.33861
2.35496
2.40031
2.47449
2.57527
2.69769
2.83145
2.98464
3.16805
3.40405
3.73927
4.24612
5.44143
12.4412
31.2894
56.2713
80.7315
100.279
113.264
120.448
124.468
131.466
177.895
586.097
2.57695
2.49367
2.43698
2.40529
2.39932
2.42117
2.47246
2.55271
2.65951
2.78804
2.92899
3.09054
3.28406
3.53204
3.87954
4.38867
5.52675
11.5903
28.5834
51.8712
75.3393
94.7482
108.378
116.79
122.405
131.183
185.043
639.915
2.62218
2.54215
2.48917
2.46184
2.46097
2.48858
2.54604
2.6326
2.74565
2.88057
3.02901
3.19934
3.40349
3.66422
4.02519
4.54078
5.63714
10.9906
26.437
48.2297
70.7818
90.0241
104.194
113.691
120.767
131.348
193.969
703.559
2.66715
2.59067
2.54173
2.51909
2.52367
2.55738
2.62134
2.7145
2.83412
2.97576
3.13209
3.3117
3.52717
3.80168
4.17773
4.70373
5.77468
10.6114
24.8098
45.3144
67.0323
86.0844
100.696
111.149
119.567
132.019
205.409
779.948
2.71179
2.63921
2.59467
2.57713
2.58759
2.62783
2.69869
2.79885
2.92541
3.07419
3.23888
3.42841
3.65608
3.94569
4.33819
4.88022
5.94165
10.4276
23.6618
43.0885
64.0609
82.9065
97.872
109.167
118.827
133.284
220.396
871.803
2.75599
2.68774
2.64806
2.63612
2.65297
2.70027
2.77853
2.88615
3.02013
3.17655
3.35019
3.55042
3.79142
4.0977
4.50805
5.0719
6.14359
10.422
22.9595
41.5173
61.8383
80.4693
95.7126
107.749
118.577
135.262
240.365
980.549
2.79973
2.73631
2.70203
2.69628
2.72016
2.77513
2.86139
2.97703
3.11898
3.28365
3.46696
3.67888
3.93463
4.25942
4.68914
5.27732
6.3883
10.5891
22.6819
40.5719
60.3385
78.754
94.2105
106.904
118.85
138.149
267.615
1105.72
2.84299
2.78499
2.75677
2.75791
2.78957
2.85296
2.94791
3.07224
3.22281
3.39645
3.59033
3.81518
4.0875
4.43287
4.88353
5.49823
6.67312
10.9516
22.8193
40.2361
59.5407
77.7462
93.3631
106.651
119.659
142.696
308.63
1249.13
2.88584
2.83397
2.81257
2.82146
2.86177
2.93446
3.03892
3.17268
3.33264
3.51613
3.7217
3.96106
4.25218
4.62038
5.0934
5.73803
7.0122
11.5387
23.3767
40.4938
59.4352
77.4367
93.1736
107.014
121.088
148.937
384.001
1416.04
2.92843
2.88349
2.86984
2.88749
2.9375
3.02048
3.13538
3.27946
3.44971
3.64412
3.86278
4.11872
4.43137
4.82462
5.32059
6.00137
7.43183
12.3874
24.3881
41.3451
60.0046
77.8242
93.6541
108.042
123.239
159.255
543.937
1600.88
2.97097
2.93396
2.92915
2.95675
3.01768
3.11212
3.23853
3.39393
3.57553
3.78219
4.01578
4.29093
4.62826
5.04833
5.56715
6.2977
7.97525
13.5512
25.8942
42.8135
61.2515
78.9066
94.8279
109.788
126.296
177.724
822.314
1764.37
3.01385
2.98592
2.99127
3.03025
3.10352
3.21074
3.34986
3.51775
3.71198
3.93258
4.18349
4.48127
4.8468
5.29417
5.83302
6.63435
8.70739
15.1052
27.9492
44.9293
63.1903
80.6933
96.7428
112.429
131.384
210.723
1222.21
1865.4
3.0576
3.04015
3.05726
3.1093
3.19656
3.31806
3.47126
3.65299
3.86146
4.09818
4.36967
4.6944
5.09123
5.56265
6.11943
7.05546
9.73984
17.1459
30.6211
47.7307
65.8416
83.2014
99.4064
115.927
139.559
266.285
1580.24
1890.51
3.10298
3.09774
3.12853
3.19563
3.29876
3.43623
3.60507
3.80228
4.02704
4.2829
4.57941
4.93611
5.36456
5.85154
6.44018
7.64512
11.1989
19.7928
33.9896
51.261
69.2338
86.4888
102.911
120.379
151.77
412.947
1684.05
1848.74
3.1511
3.16017
3.20698
3.29147
3.41263
3.568
3.75431
3.96903
4.21287
4.49217
4.81965
5.21227
5.66622
6.16001
6.8366
8.52917
13.2434
23.1847
38.1401
55.5675
73.4049
90.5075
106.773
126.885
185.884
699.09
1702.49
1805.39
3.20347
3.22949
3.29513
3.39977
3.54142
3.71689
3.92286
4.15781
4.42481
4.73383
5.09884
5.52609
5.9912
6.50087
7.40115
9.89742
16.0804
27.4721
43.1605
60.715
78.4103
95.1898
111.357
138.019
302.566
1130.05
1673.51
1759.66
3.26224
3.3085
3.39643
3.5244
3.68934
3.88749
4.11595
4.37511
4.67165
5.01865
5.42449
5.87398
6.33625
6.92822
8.31127
12.0187
19.9503
32.8035
49.1368
66.7486
84.0682
99.958
118.349
169.412
566.801
1463.18
1602.45
1718.42
3.33044
3.40113
3.51544
3.67043
3.86193
4.08598
4.34102
4.6309
4.96655
5.35862
5.79697
6.24515
6.72463
7.5864
9.86592
15.239
25.1074
39.3357
56.1984
73.6885
90.0397
104.905
129.772
286.177
940.584
1525.01
1541.41
1684.28
3.41234
3.51264
3.65829
3.84473
4.06681
4.32121
4.60973
4.94127
5.32636
5.75894
6.20228
6.64083
7.26765
8.78169
12.5139
19.9675
31.8137
47.2158
64.2793
80.8743
95.5156
113.876
171.155
535.044
1289.06
1516.03
1494.72
1657.13
3.51386
3.65053
3.83382
4.05701
4.31473
4.60718
4.94219
5.32901
5.76133
6.2034
6.62576
7.14863
8.27673
11.0534
16.8425
26.6347
40.3088
56.5038
73.0989
87.8807
101.443
127.266
307.301
896.343
1488.94
1492.5
1457.62
1630.29
3.64422
3.8261
4.05375
4.3194
4.62235
4.9701
5.36947
5.80905
6.25039
6.66375
7.1463
8.10841
10.4044
15.2103
23.5523
35.684
50.73
66.7867
81.4329
93.7914
111.938
193.777
576.128
1247.64
1574.73
1477.53
1426.18
1605.78
3.81635
4.05162
4.33193
4.6566
5.03171
5.457
5.91002
6.34786
6.75298
7.23821
8.18986
10.3562
14.7454
22.2777
33.3017
47.221
62.4179
76.6295
88.5481
103.086
143.227
370.948
930.44
1488.89
1604.59
1460.82
1398.81
1582.65
4.0421
4.34912
4.71449
5.13538
5.59493
6.05673
6.48398
6.89385
7.44523
8.55075
10.9207
15.4149
22.7792
33.2765
46.3869
60.7158
74.2487
85.4663
96.5479
120.543
259.783
660.786
1241.99
1583.04
1589.81
1429.48
1373.67
1566.32
4.36634
4.79655
5.27763
5.77113
6.24155
6.68763
7.18303
7.91935
9.40343
12.447
17.658
25.5165
36.0446
48.5944
61.8267
73.9747
83.7338
92.71
111.323
208.129
487.838
960.565
1440.39
1615.73
1534.12
1376.56
1349.13
1558.12
4.86832
5.41963
5.96574
6.50511
7.09366
7.83938
9.08193
11.5647
16.109
22.8501
31.7021
42.4537
54.2542
65.9031
76.1954
84.6901
93.1505
113.646
194.41
400.486
749.872
1175.81
1505.03
1533.15
1438.42
1310.21
1326.62
1566.93
5.51525
6.26255
7.08757
8.14379
9.77746
12.7177
17.6075
24.4569
32.9065
42.3954
52.6176
62.8768
72.506
81.3047
89.9616
101.782
132.515
213.812
379.165
630.638
940.426
1232.99
1394.49
1392.33
1308.33
1240.71
1310.34
1606.53
6.92137
8.74154
11.3578
15.5003
21.7752
29.5785
38.3934
47.7411
57.2857
66.8524
76.6261
86.456
97.367
112.019
137.77
188.988
278.835
416.348
596.318
800.432
997.961
1141.89
1199.62
1197.51
1177.05
1199.08
1335.05
1673.08
13.287
21.8791
32.5889
45.2239
58.3661
70.6447
82.6712
95.8187
110.5
127.22
146.899
172.457
207.426
256.865
325.285
413.623
517.33
635.921
756.921
868.041
957.819
1017.26
1054.93
1086.44
1127.8
1205.84
1414.76
1766.45
69.9827
101.625
131.857
160.24
190.761
217.714
230.339
260.142
301.761
337.955
378.088
424.108
476.352
536.198
601.146
667.993
733.954
799.308
860.302
913.851
961.764
1008.03
1054.56
1106.22
1172.28
1282.5
1529.79
1866.37
333.481
169.732
52.459
25.0044
17.8464
13.161
9.93614
7.91009
6.46201
5.35306
4.49629
3.81615
294.657
127.662
38.96
21.6393
15.562
11.4227
8.75555
7.03536
5.76019
4.78629
4.03114
3.42936
261.232
99.4121
32.0694
19.068
13.7573
10.1135
7.85622
6.34041
5.20105
4.33474
3.6606
3.12312
233.902
80.4196
27.7541
17.0994
12.3288
9.11274
7.14708
5.77916
4.75116
3.97175
3.36398
2.88021
211.353
67.0494
24.7171
15.554
11.1939
8.3308
6.57369
5.32157
4.38644
3.67831
3.12603
2.6877
193.065
57.8522
22.4443
14.316
10.2862
7.70626
6.10282
4.94641
4.08924
3.44047
2.93526
2.53565
178.896
51.4993
20.6915
13.3108
9.55374
7.19823
5.71277
4.63779
3.84635
3.24771
2.78277
2.41631
169.347
47.1441
19.3217
12.4876
8.95682
6.77927
5.38823
4.38342
3.64772
3.09188
2.66159
2.32357
167.104
44.4212
18.2458
11.8071
8.4653
6.43042
5.11762
4.17367
3.48554
2.96655
2.56615
2.25258
166.836
45.037
17.3642
11.2351
8.056
6.138
4.89189
4.0009
3.35364
2.86656
2.49202
2.19945
153.373
41.4085
16.5245
10.7408
7.71113
5.89182
4.70377
3.85905
3.24713
2.78776
2.4356
2.1611
130.64
37.663
15.7321
10.3097
7.41837
5.68426
4.54746
3.74324
3.16202
2.72678
2.39401
2.13506
125.859
35.619
15.0829
9.93783
7.16966
5.50966
4.4183
3.64957
3.0951
2.68088
2.3649
2.11934
123.172
33.7865
14.5261
9.61977
6.95965
5.36382
4.31258
3.57487
3.04371
2.6478
2.34635
2.11233
113.448
31.9862
14.0454
9.35182
6.78435
5.2434
4.22725
3.51656
3.00567
2.62568
2.33681
2.11276
108.606
30.581
13.6518
9.13026
6.63999
5.14546
4.15973
3.47244
2.97916
2.61297
2.33499
2.11955
105.155
29.5021
13.3358
8.94998
6.52294
5.06736
4.10779
3.44067
2.96261
2.60837
2.3398
2.13183
102.577
28.6648
13.0841
8.80532
6.42977
5.00669
4.06947
3.41966
2.95473
2.61081
2.35037
2.14888
100.583
28.0085
12.8854
8.69113
6.35741
4.9613
4.04306
3.40803
2.95437
2.61933
2.36592
2.17008
99.0115
27.4906
12.7307
8.603
6.30311
4.92928
4.02704
3.40457
2.96055
2.63316
2.38583
2.19493
97.7631
27.0816
12.6126
8.53718
6.26446
4.90889
4.02006
3.40822
2.97242
2.65159
2.40953
2.22296
96.7722
26.7603
12.5252
8.49043
6.23933
4.89859
4.02093
3.41802
2.98921
2.67402
2.43653
2.25379
95.9897
26.5105
12.4635
8.45993
6.2258
4.89699
4.02855
3.43313
3.01026
2.69989
2.46639
2.28707
95.3766
26.3192
12.4232
8.44313
6.22211
4.9028
4.04193
3.45277
3.03493
2.72872
2.49872
2.32246
94.8993
26.1752
12.4006
8.43774
6.22666
4.91483
4.06014
3.47623
3.06266
2.76006
2.53315
2.35967
94.5288
26.069
12.3922
8.44162
6.23794
4.93196
4.08234
3.50282
3.09291
2.79347
2.56934
2.39842
94.238
25.992
12.3948
8.45273
6.25451
4.95312
4.10768
3.53191
3.1252
2.82856
2.60697
2.43844
94.0021
25.9363
12.4053
8.46913
6.27499
4.97729
4.1354
3.56289
3.15902
2.86495
2.64571
2.47948
93.7972
25.8943
12.4208
8.48895
6.29803
5.00345
4.16471
3.59516
3.19391
2.90225
2.68528
2.5213
93.6006
25.859
12.4385
8.51031
6.32231
5.03064
4.19487
3.62813
3.22942
2.9401
2.72537
2.56364
93.3901
25.8235
12.4553
8.53139
6.34652
5.05786
4.22512
3.66124
3.26508
2.97813
2.7657
2.60628
93.144
25.7811
12.4686
8.55037
6.36935
5.08416
4.25474
3.69391
3.30045
3.01601
2.80598
2.649
92.8413
25.7251
12.4756
8.56543
6.38952
5.10858
4.283
3.72558
3.3351
3.05338
2.84596
2.69159
92.4617
25.6493
12.4734
8.57479
6.40574
5.13017
4.30918
3.7557
3.36859
3.08991
2.88536
2.73385
91.9854
25.5474
12.4595
8.5767
6.41676
5.14801
4.33257
3.78372
3.4005
3.12525
2.92391
2.77556
91.3942
25.4137
12.4311
8.56947
6.42136
5.16119
4.3525
3.80912
3.43041
3.15911
2.96139
2.81657
90.6708
25.2428
12.3859
8.55146
6.4184
5.16887
4.36832
3.8314
3.45796
3.19118
2.99758
2.85673
89.7999
25.0298
12.3216
8.52119
6.4068
5.17025
4.37943
3.85012
3.48279
3.22121
3.0323
2.89594
88.7683
24.7704
12.2362
8.47731
6.38559
5.16464
4.3853
3.86485
3.50458
3.24897
3.06539
2.9341
87.5655
24.4614
12.1281
8.41868
6.35396
5.15142
4.38549
3.87526
3.52309
3.27427
3.09676
2.9712
86.1842
24.1005
11.996
8.34438
6.31125
5.13012
4.37962
3.88108
3.53811
3.29699
3.12634
3.00727
84.6211
23.6865
11.8391
8.25382
6.25705
5.10043
4.36746
3.88211
3.54952
3.31709
3.15416
3.04242
82.8767
23.2196
11.6573
8.14672
6.19116
5.06221
4.34891
3.8783
3.5573
3.33457
3.18033
3.07687
80.9565
22.7015
11.4507
8.02321
6.11366
5.01552
4.32401
3.86969
3.56151
3.34959
3.20507
3.11098
78.871
22.1353
11.2206
7.88382
6.02494
4.96064
4.29297
3.85645
3.56236
3.36238
3.22875
3.14528
76.6357
21.5258
10.9686
7.72954
5.92572
4.8981
4.25618
3.83892
3.56016
3.37335
3.25189
3.18052
74.2713
20.8791
10.6971
7.56182
5.81703
4.82863
4.21421
3.81757
3.5554
3.38306
3.27525
3.21779
71.8036
20.2029
10.4091
7.38254
5.70022
4.75322
4.16781
3.79305
3.54873
3.39228
3.29989
3.25861
69.2627
19.5058
10.1083
7.19402
5.57695
4.67307
4.1179
3.76617
3.541
3.4021
3.3273
3.30514
66.6825
18.7977
9.79882
6.99897
5.44914
4.58959
4.0656
3.73795
3.53329
3.41378
3.35961
3.36053
64.1001
18.089
9.48532
6.80043
5.31893
4.50432
4.01213
3.7094
3.52679
3.4303
3.39977
3.42916
61.5546
17.3905
9.17274
6.60167
5.18862
4.41894
3.95888
3.68225
3.52384
3.45238
3.45199
3.51745
59.0863
16.7133
8.86627
6.40615
5.06063
4.33531
3.90743
3.65732
3.52583
3.48495
3.52298
3.63618
56.7357
16.0682
8.57116
6.21738
4.93739
4.25504
3.8586
3.6366
3.54204
3.53382
3.62319
3.7967
54.5427
15.4658
8.29264
6.03887
4.82131
4.18015
3.81511
3.62416
3.56299
3.60606
3.75948
4.01514
52.5457
14.916
8.0358
5.87404
4.71464
4.1114
3.77579
3.62618
3.60107
3.70854
3.96069
4.35866
50.7811
14.4281
7.80545
5.72607
4.61947
4.05129
3.74709
3.63827
3.6608
3.86476
4.2625
4.83105
49.2819
14.0105
7.60609
5.59792
4.53754
4.00029
3.73104
3.65854
3.75165
4.06731
4.64026
5.56982
48.077
13.6703
7.44135
5.4919
4.47006
3.95896
3.72721
3.68787
3.84985
4.30612
5.32893
7.86424
47.1886
13.4137
7.31569
5.41097
4.41913
3.93062
3.73793
3.72067
3.91947
4.53498
8.77365
28.7622
46.7165
13.2623
7.23587
5.35905
4.38753
3.91712
3.7516
3.74942
3.98384
5.01688
14.211
36.0815
46.4711
13.1839
7.19389
5.33176
4.37208
3.91503
3.7664
3.77161
4.03432
5.60275
17.3198
36.1469
46.4371
13.1564
7.17803
5.32091
4.3678
3.9205
3.78258
3.79097
4.07169
5.90036
18.4171
35.8977
52.3569
308.624
308.123
307.284
311.333
312.969
315.318
320.818
324.503
328.326
332.523
337.209
342.323
347.926
354.213
361.437
369.978
380.43
393.549
410.302
432.023
460.619
498.193
547.764
621.764
739.187
925.024
1160.29
42.405
225.881
276.523
261.284
260.657
259.933
259.136
258.323
257.492
256.622
255.857
255.249
254.951
255.018
255.535
256.572
258.101
260.236
263.657
269.312
277.691
290.151
309.393
338.867
388.77
485.455
680.882
1018.45
35.348
140.287
257.466
265.37
267.159
267.269
266.354
264.156
261.239
258.188
255.134
252.189
249.389
246.76
244.342
242.403
241.371
240.531
239.541
239.16
240.255
243.271
250.673
263.295
283.954
321.635
401.794
553.052
29.7428
83.1222
218.139
281.031
304.804
319.54
322.127
319.819
314.069
306.838
298.886
290.708
282.476
274.383
266.493
258.966
252.076
246.335
240.908
236.684
234.227
233.475
234.428
240.198
253.362
276.382
314.322
368.987
25.0607
49.9041
154.399
269.01
332.131
369.198
386.429
391.53
388.296
379.915
368.527
355.483
341.524
327.22
312.818
298.601
284.792
271.635
259.439
248.562
239.568
233.22
230.442
230.246
236.278
253.036
284.826
326.839
20.76
34.0752
97.3179
219.427
329.186
400.567
444.217
467.234
473.814
469.173
456.944
439.687
419.504
397.781
375.344
352.895
330.92
309.799
289.863
271.475
255.12
241.56
231.969
228.007
228.057
237.601
263.92
303.606
17.0822
25.8965
58.867
156.43
286.335
399.179
478.3
530.707
558.252
565.5
557.961
539.622
514.162
484.479
452.593
420.052
387.957
357.103
328.07
301.291
277.159
256.221
239.47
228.665
225.304
228.987
249.166
288.061
13.9234
20.6969
36.5404
98.7337
218.089
355.976
474.729
564.192
623.563
654.081
659.863
646.858
619.825
583.53
541.973
498.163
454.289
411.911
372.133
335.688
303.03
274.507
250.677
232.96
224.537
223.977
238.253
276.729
11.2683
16.8078
25.7407
58.871
148.056
282.723
427.258
554.155
652.106
716.198
746.732
747.781
726.206
687.47
638.122
583.349
527.077
472.114
420.368
373.122
331.097
294.65
264.024
239.957
224.923
221.107
230.609
268.341
9.1259
13.7679
19.8751
35.8322
91.035
200.895
346.727
497.904
631.593
734.717
799.773
826.01
818.525
784.757
732.518
669.33
601.655
534.316
470.352
411.857
360.003
315.309
277.916
248.047
227.291
219.44
225.042
261.76
7.48745
11.308
15.9978
24.3366
53.3857
129.518
254.4
407.817
563.308
699.933
803.141
864.336
877.888
859.807
813.722
747.654
671.715
593.89
518.799
449.618
388.228
335.445
291.487
256.203
230.379
218.594
220.603
256.171
6.28662
9.30983
13.2018
18.4594
32.2657
77.2024
169.77
304.809
462.005
617.57
751.404
848.198
889.895
892.801
868.598
808.334
729.799
645.358
561.826
483.737
414
353.911
303.96
263.966
233.906
217.743
216.892
251.364
5.47179
7.7344
11.0033
14.9013
21.8129
44.7347
104.459
208.747
348.829
504.889
654.774
779.23
859.947
890.786
886.1
841.284
768.118
682.957
595.328
511.408
435.471
369.556
314.589
270.626
237.385
217.031
213.765
247.073
4.9586
6.55317
9.21185
12.4578
16.6629
27.2886
60.7111
131.91
243.053
382.961
532.328
670.561
778.084
843.678
863.166
838.731
779.85
701.465
615.465
529.98
450.888
381.282
322.764
275.763
240.126
216.828
211.096
243.165
4.65706
5.71774
7.77299
10.5524
13.6968
18.8888
35.2916
78.2188
157.062
270.009
404.399
541.802
662.453
750.651
795.975
797.582
760.787
697.212
619.261
537.287
458.79
388.179
327.952
279.113
241.874
216.692
208.799
239.522
4.49188
5.15991
6.66468
8.97854
11.6751
14.8402
22.257
45.0032
95.0721
177.531
287.496
411.713
532.547
632.784
698.922
724.953
712.502
668.92
605.098
531.93
458.097
389.516
329.7
280.44
242.491
216.344
206.801
236.06
4.41128
4.81506
5.85754
7.68901
10.0618
12.5538
16.1796
26.9203
55.2405
109.659
191.742
294.624
404.963
506.778
585.429
631.132
641.483
619.651
573.696
513.547
448.283
384.783
327.656
279.581
241.941
215.575
205.038
232.713
4.37712
4.61881
5.30537
6.67657
8.6923
10.9431
13.2566
18.0587
32.327
64.7116
120.631
198.954
291.668
386.082
468.341
526.971
555.645
554.425
527.744
483.341
429.638
373.935
321.681
276.401
240.156
214.295
203.435
229.449
4.37053
4.51694
4.95189
5.92539
7.54664
9.59062
11.5775
14.0073
20.5153
37.8186
72.5051
127.347
199.342
280.111
358.215
422.288
463.944
479.797
471.343
443.519
403.227
357.419
311.908
270.888
237.12
212.476
201.847
226.42
4.38096
4.47321
4.74228
5.4016
6.63382
8.40043
10.3029
12.0516
14.9899
23.3017
42.804
78.0628
129.803
193.901
262.271
325.112
373.572
401.971
409.014
396.956
370.644
336.004
298.67
263.177
232.854
210.121
200.195
223.704
4.40215
4.46366
4.63001
5.05994
5.94889
7.38526
9.16103
10.8215
12.4914
16.2101
26.1165
46.853
81.2406
128.551
184.184
240.803
290.382
326.349
345.131
346.753
333.814
310.729
282.436
253.43
227.391
207.206
198.473
221.198
4.4314
4.47379
4.57966
4.85342
5.46656
6.56845
8.12236
9.77947
11.1915
12.9951
17.5935
28.7003