/*--------------------------------*- C++ -*----------------------------------*\
| =========                 |                                                 |
| \\      /  F ield         | OpenFOAM: The Open Source CFD Toolbox           |
|  \\    /   O peration     | Version:  v2012                                 |
|   \\  /    A nd           | Website:  www.openfoam.com                      |
|    \\/     M anipulation  |                                                 |
\*---------------------------------------------------------------------------*/
FoamFile
{
    version     2.0;
    format      ascii;
    class       volScalarField;
    location    "5000";
    object      k;
}
// * * * * * * * * * * * * * * * * * * * * * * * * * * * * * * * * * * * * * //

dimensions      [0 2 -2 0 0 0 0];


internalField   nonuniform List<scalar> 
6036
(
0.00198174
0.00219863
0.00237078
0.00250093
0.00259603
0.00266351
0.00271013
0.00274153
0.0027621
0.00277528
0.00278457
0.00279579
0.00282198
0.00289149
0.00305955
0.00344562
0.00442396
0.0070499
0.012205
0.0175037
0.000312296
0.000345048
0.000370936
0.000390483
0.000404797
0.000415052
0.000422333
0.000427588
0.000431648
0.000435345
0.000439742
0.00044673
0.000460272
0.000488909
0.000549454
0.000681824
0.000994591
0.00176372
0.00358502
0.00854975
0.000105198
0.000114793
0.000122367
0.000128274
0.000133006
0.000137123
0.00014128
0.000146319
0.000153452
0.00016456
0.000182533
0.000212321
0.000263085
0.000354
0.000517546
0.00082235
0.00142196
0.00267969
0.00550989
0.0122512
5.50501e-05
5.87896e-05
6.19418e-05
6.50025e-05
6.84964e-05
7.31235e-05
7.99406e-05
9.06276e-05
0.000107965
0.000136657
0.000184027
0.000262506
0.000393495
0.000614558
0.000990398
0.00164009
0.0027917
0.00489346
0.00879552
0.0156744
4.27899e-05
4.4126e-05
4.54537e-05
4.76403e-05
5.13253e-05
5.74068e-05
6.73992e-05
8.38547e-05
0.000111036
0.000155995
0.000230196
0.000352727
0.000555527
0.000892243
0.00145313
0.00239335
0.00398095
0.00666027
0.0110437
0.0173812
5.22253e-05
5.11771e-05
5.00047e-05
5.05139e-05
5.31842e-05
5.86545e-05
6.82727e-05
8.44957e-05
0.000111532
0.000156408
0.000230576
0.00035311
0.000555919
0.000892659
0.00145358
0.00239385
0.00398149
0.00666079
0.0110441
0.0173814
9.48566e-05
8.80398e-05
8.03282e-05
7.64417e-05
7.57985e-05
7.79195e-05
8.31788e-05
9.28774e-05
0.000109572
0.000137852
0.000184969
0.000263302
0.000394224
0.000615275
0.000991143
0.00164088
0.00279252
0.00489425
0.00879617
0.0156747
0.000235127
0.000205716
0.000177033
0.000161829
0.000154293
0.000150924
0.000150361
0.000152359
0.0001575
0.000167294
0.000184396
0.00021362
0.000264037
0.000354758
0.000518198
0.000822946
0.00142252
0.00268021
0.00551032
0.0122515
0.000844897
0.000684677
0.000565373
0.000509448
0.000480525
0.000464148
0.000454513
0.000448805
0.000445659
0.000444584
0.000445842
0.000450733
0.00046292
0.000490727
0.000550744
0.000682752
0.000995271
0.00176421
0.00358531
0.00854988
0.00595358
0.00449532
0.00365061
0.00328848
0.00309943
0.00299039
0.00292454
0.00288293
0.0028554
0.00283665
0.00282507
0.00282249
0.00283945
0.00290333
0.0030678
0.00345134
0.00442795
0.00705263
0.0122064
0.0175041
3.28194e-07
5.54155e-07
8.80723e-07
1.33976e-06
1.97081e-06
2.81701e-06
3.90372e-06
5.19093e-06
7.43077e-06
3.76983e-05
1.61554e-05
1.98028e-05
2.70845e-05
3.73118e-05
5.09459e-05
6.91124e-05
9.35399e-05
0.000126453
0.000170791
0.00023034
0.000309799
0.000414646
0.000550679
0.000722946
0.000933833
0.00118044
0.00145157
0.00172674
5.2485e-08
8.81213e-08
1.39567e-07
2.11829e-07
3.11104e-07
4.44288e-07
6.17589e-07
8.4737e-07
1.37602e-06
4.80207e-06
2.75654e-06
3.18314e-06
4.30132e-06
5.91354e-06
8.07996e-06
1.09785e-05
1.48852e-05
2.01625e-05
2.72884e-05
3.68788e-05
4.96931e-05
6.66076e-05
8.85261e-05
0.000116187
0.000149838
0.000188812
0.000231123
0.000273485
1.84934e-08
3.05283e-08
4.78523e-08
7.21637e-08
1.05612e-07
1.5088e-07
2.11905e-07
3.00664e-07
4.87502e-07
1.18709e-06
9.63496e-07
1.11543e-06
1.49073e-06
2.04706e-06
2.808e-06
3.83871e-06
5.24028e-06
7.14874e-06
9.74294e-06
1.32498e-05
1.79411e-05
2.41133e-05
3.20398e-05
4.18837e-05
5.35762e-05
6.66908e-05
8.03886e-05
9.35577e-05
1.1115e-08
1.76237e-08
2.6928e-08
3.99737e-08
5.80221e-08
8.2834e-08
1.1729e-07
1.67909e-07
2.56222e-07
4.68312e-07
5.06167e-07
6.2493e-07
8.41239e-07
1.16057e-06
1.6056e-06
2.21875e-06
3.06292e-06
4.22259e-06
5.80629e-06
7.94591e-06
1.07886e-05
1.44758e-05
1.91053e-05
2.46748e-05
3.10191e-05
3.77693e-05
4.43786e-05
5.0263e-05
1.06276e-08
1.58917e-08
2.33235e-08
3.37084e-08
4.8139e-08
6.81931e-08
9.6318e-08
1.36688e-07
1.97684e-07
3.01682e-07
3.84984e-07
5.07889e-07
6.95326e-07
9.65856e-07
1.34567e-06
1.87386e-06
2.6049e-06
3.61026e-06
4.97906e-06
6.81542e-06
9.22967e-06
1.23201e-05
1.61432e-05
2.06724e-05
2.57508e-05
3.10503e-05
3.60587e-05
4.01429e-05
1.36512e-08
1.94762e-08
2.757e-08
3.87836e-08
5.4307e-08
7.58283e-08
1.05784e-07
1.47716e-07
2.06904e-07
2.92762e-07
3.96153e-07
5.39577e-07
7.44659e-07
1.03448e-06
1.43926e-06
2.00047e-06
2.77377e-06
3.8312e-06
5.26263e-06
7.17558e-06
9.69232e-06
1.29431e-05
1.70545e-05
2.21273e-05
2.81922e-05
3.51117e-05
4.23755e-05
4.87687e-05
1.93789e-08
2.6894e-08
3.71781e-08
5.12605e-08
7.0563e-08
9.70505e-08
1.33441e-07
1.83476e-07
2.52308e-07
3.4752e-07
4.74448e-07
6.492e-07
8.92587e-07
1.23043e-06
1.69652e-06
2.33601e-06
3.20868e-06
4.39257e-06
5.98871e-06
8.12776e-06
1.0981e-05
1.47791e-05
1.98435e-05
2.66311e-05
3.577e-05
4.80021e-05
6.37591e-05
8.16441e-05
2.75362e-08
3.76029e-08
5.11944e-08
6.95795e-08
9.44842e-08
1.28248e-07
1.74041e-07
2.36159e-07
3.20452e-07
4.35087e-07
5.90094e-07
8.01365e-07
1.0902e-06
1.48414e-06
2.01918e-06
2.74284e-06
3.71802e-06
5.02843e-06
6.7876e-06
9.15476e-06
1.2365e-05
1.67875e-05
2.30373e-05
3.2194e-05
4.61978e-05
6.85242e-05
0.000105019
0.000162897
3.7915e-08
5.12207e-08
6.89684e-08
9.26897e-08
1.24439e-07
1.66962e-07
2.23921e-07
3.00227e-07
4.02494e-07
5.39707e-07
7.23688e-07
9.70753e-07
1.30238e-06
1.74627e-06
2.33831e-06
3.12531e-06
4.16912e-06
5.55327e-06
7.39486e-06
9.8674e-06
1.32468e-05
1.80079e-05
2.50354e-05
3.61233e-05
5.51986e-05
9.16795e-05
0.000170314
0.000361261
5.02467e-08
6.73126e-08
8.98159e-08
1.19541e-07
1.58851e-07
2.10853e-07
2.79637e-07
3.70591e-07
4.90839e-07
6.49798e-07
8.59738e-07
1.13669e-06
1.50116e-06
1.97911e-06
2.60347e-06
3.41639e-06
4.47282e-06
5.84675e-06
7.64273e-06
1.00187e-05
1.32338e-05
1.77546e-05
2.45159e-05
3.5625e-05
5.65511e-05
0.000104339
0.000246631
0.000868278
2.04553e-10
1.84742e-09
6.19977e-09
1.0956e-08
1.25002e-08
9.598e-09
3.94156e-09
5.47587e-10
6.63525e-09
3.11077e-08
8.41446e-08
1.77964e-07
1.69171e-09
5.0458e-10
9.93755e-10
1.65655e-09
1.87472e-09
1.45654e-09
6.67525e-10
2.70101e-10
1.38128e-09
5.37903e-09
1.38585e-08
2.87443e-08
5.64276e-09
9.12338e-10
4.79753e-10
5.49853e-10
5.94935e-10
4.97161e-10
3.3022e-10
3.27433e-10
8.43654e-10
2.33358e-09
5.31238e-09
1.04265e-08
1.11458e-08
1.66292e-09
5.40832e-10
3.65406e-10
3.64271e-10
3.79692e-10
4.2191e-10
5.91852e-10
1.05757e-09
2.04019e-09
3.80179e-09
6.68529e-09
1.53029e-08
2.22615e-09
6.71218e-10
3.96838e-10
4.17321e-10
5.44258e-10
7.63252e-10
1.134e-09
1.76657e-09
2.8113e-09
4.45739e-09
6.956e-09
1.53384e-08
2.23114e-09
7.15225e-10
4.98069e-10
6.18775e-10
9.09218e-10
1.3606e-09
2.02799e-09
3.01072e-09
4.44772e-09
6.52222e-09
9.481e-09
1.05345e-08
1.63142e-09
6.77983e-10
6.62598e-10
9.57277e-10
1.47668e-09
2.24418e-09
3.33188e-09
4.85297e-09
6.96475e-09
9.87965e-09
1.38869e-08
3.61448e-09
9.2376e-10
7.43907e-10
9.7717e-10
1.47899e-09
2.27878e-09
3.44699e-09
5.08548e-09
7.33568e-09
1.03908e-08
1.45139e-08
2.00646e-08
3.272e-09
1.42788e-09
1.32647e-09
1.62171e-09
2.27655e-09
3.36884e-09
5.00319e-09
7.31231e-09
1.04724e-08
1.47222e-08
2.03875e-08
2.79142e-08
2.28574e-08
5.17521e-09
3.0471e-09
2.85954e-09
3.48242e-09
4.81841e-09
6.94908e-09
1.00228e-08
1.42487e-08
1.99137e-08
2.74103e-08
3.72759e-08
6.46098e-08
8.59048e-08
1.13663e-07
1.49889e-07
1.97194e-07
2.58963e-07
3.39558e-07
4.44609e-07
5.81361e-07
7.59094e-07
9.89552e-07
1.28745e-06
1.67095e-06
2.1623e-06
2.78872e-06
3.58377e-06
4.58969e-06
5.86143e-06
7.47435e-06
9.53913e-06
1.22348e-05
1.58862e-05
2.11472e-05
2.95472e-05
4.53938e-05
8.457e-05
0.000234608
0.00145015
8.06461e-08
1.06435e-07
1.3965e-07
1.82444e-07
2.37576e-07
3.08547e-07
3.99769e-07
5.16774e-07
6.6646e-07
8.57342e-07
1.09978e-06
1.40617e-06
1.79113e-06
2.27161e-06
2.86715e-06
3.60018e-06
4.49663e-06
5.58705e-06
6.90905e-06
8.51231e-06
1.04711e-05
1.29084e-05
1.60469e-05
2.03315e-05
2.67244e-05
3.75177e-05
5.95293e-05
0.000143708
9.73679e-08
1.27569e-07
1.65997e-07
2.14858e-07
2.7693e-07
3.5565e-07
4.55236e-07
5.80807e-07
7.38505e-07
9.35587e-07
1.18045e-06
1.4826e-06
1.85244e-06
2.30107e-06
2.83985e-06
3.4798e-06
4.23079e-06
5.10047e-06
6.09374e-06
7.20988e-06
8.44315e-06
9.77867e-06
1.11835e-05
1.25839e-05
1.37994e-05
1.44215e-05
1.43546e-05
2.68042e-05
1.14171e-07
1.48488e-07
1.91617e-07
2.4572e-07
3.13454e-07
3.98032e-07
5.03264e-07
6.33601e-07
7.9414e-07
9.90582e-07
1.22909e-06
1.51605e-06
1.85766e-06
2.25939e-06
2.72512e-06
3.25603e-06
3.84915e-06
4.49577e-06
5.17853e-06
5.86872e-06
6.52232e-06
7.07378e-06
7.42696e-06
7.44637e-06
6.979e-06
6.10121e-06
6.86084e-06
3.15339e-05
1.30476e-07
1.68433e-07
2.15545e-07
2.73827e-07
3.4571e-07
4.34038e-07
5.42058e-07
6.73388e-07
8.31933e-07
1.02173e-06
1.2467e-06
1.51027e-06
1.81485e-06
2.16111e-06
2.54699e-06
2.96653e-06
3.40854e-06
3.85488e-06
4.27869e-06
4.64252e-06
4.89735e-06
4.98262e-06
4.83078e-06
4.3898e-06
3.70914e-06
3.26465e-06
5.56906e-06
3.35051e-05
1.45766e-07
1.86754e-07
2.36988e-07
2.98263e-07
3.72686e-07
4.6264e-07
5.70719e-07
6.99637e-07
8.5208e-07
1.03048e-06
1.23672e-06
1.47166e-06
1.73464e-06
2.02269e-06
2.32969e-06
2.64548e-06
2.95488e-06
3.23686e-06
3.46396e-06
3.60276e-06
3.61611e-06
3.46829e-06
3.13746e-06
2.64762e-06
2.15007e-06
2.1759e-06
4.96925e-06
3.17724e-05
1.59615e-07
2.02938e-07
2.55367e-07
3.18415e-07
3.93806e-07
4.83411e-07
5.89142e-07
7.12819e-07
8.55984e-07
1.01965e-06
1.20395e-06
1.40777e-06
1.62814e-06
1.85973e-06
2.0942e-06
2.31969e-06
2.52041e-06
2.67672e-06
2.76583e-06
2.76384e-06
2.64967e-06
2.41179e-06
2.06131e-06
1.6572e-06
1.36087e-06
1.60853e-06
4.16681e-06
2.65568e-05
1.71699e-07
2.16628e-07
2.70321e-07
3.3397e-07
4.08891e-07
4.96432e-07
5.97844e-07
7.14122e-07
8.45807e-07
9.92726e-07
1.15368e-06
1.32609e-06
1.50554e-06
1.68548e-06
1.85682e-06
2.00784e-06
2.12434e-06
2.1904e-06
2.18984e-06
2.10891e-06
1.94021e-06
1.68882e-06
1.38174e-06
1.08325e-06
9.27356e-07
1.24417e-06
3.41283e-06
2.17007e-05
1.81803e-07
2.27616e-07
2.81691e-07
3.44881e-07
4.18094e-07
5.02176e-07
5.97775e-07
7.05172e-07
8.24081e-07
9.53412e-07
1.09101e-06
1.23338e-06
1.37542e-06
1.5102e-06
1.62897e-06
1.72131e-06
1.77575e-06
1.78081e-06
1.72683e-06
1.60834e-06
1.4274e-06
1.19779e-06
9.5052e-07
7.41733e-07
6.72829e-07
9.89605e-07
2.78941e-06
1.77472e-05
1.89814e-07
2.35835e-07
2.89496e-07
3.51316e-07
4.21813e-07
5.01379e-07
5.9014e-07
6.87789e-07
7.93395e-07
9.05216e-07
1.0205e-06
1.13535e-06
1.24444e-06
1.34117e-06
1.41777e-06
1.46574e-06
1.47661e-06
1.44317e-06
1.36103e-06
1.23059e-06
1.0593e-06
8.64103e-07
6.73982e-07
5.34025e-07
5.19797e-07
8.13506e-07
2.28218e-06
1.43131e-05
1.95716e-07
2.41334e-07
2.93896e-07
3.53602e-07
4.20615e-07
4.94934e-07
5.76253e-07
6.63803e-07
7.56193e-07
8.51268e-07
9.46051e-07
1.03645e-06
1.11742e-06
1.18309e-06
1.227e-06
1.2427e-06
1.22456e-06
1.16889e-06
1.07513e-06
9.47282e-07
7.95214e-07
6.35792e-07
4.94084e-07
4.0656e-07
4.35674e-07
7.3246e-07
1.99986e-06
1.17902e-05
1.99567e-07
2.44259e-07
2.95158e-07
3.52176e-07
4.15166e-07
4.83798e-07
5.57425e-07
6.34945e-07
7.1467e-07
7.94288e-07
8.70671e-07
9.39951e-07
9.97592e-07
1.03861e-06
1.05796e-06
1.05113e-06
1.01489e-06
9.48163e-07
8.52909e-07
7.3498e-07
6.04714e-07
4.77354e-07
3.74093e-07
3.27359e-07
4.04813e-07
8.08251e-07
2.4204e-06
1.29848e-05
2.01493e-07
2.44822e-07
2.93617e-07
3.47535e-07
4.06168e-07
4.68921e-07
5.34899e-07
6.02778e-07
6.70732e-07
7.36357e-07
7.96665e-07
8.4813e-07
8.86845e-07
9.08802e-07
9.10295e-07
8.88475e-07
8.4196e-07
7.71478e-07
6.80442e-07
5.7533e-07
4.65799e-07
3.64702e-07
2.89175e-07
2.68199e-07
3.84532e-07
1.02873e-06
4.90366e-06
4.44966e-05
2.01664e-07
2.43284e-07
2.89648e-07
3.40199e-07
3.94314e-07
4.51199e-07
5.09783e-07
5.68622e-07
6.25849e-07
6.79111e-07
7.25655e-07
7.62392e-07
7.86095e-07
7.9369e-07
7.82652e-07
7.51458e-07
7.00066e-07
6.30343e-07
5.46363e-07
4.54464e-07
3.63036e-07
2.82191e-07
2.23914e-07
2.04618e-07
2.55996e-07
4.79091e-07
1.42126e-06
9.02164e-06
2.00286e-07
2.39932e-07
2.83642e-07
3.30681e-07
3.8026e-07
4.31439e-07
4.8304e-07
5.33588e-07
5.81214e-07
6.2374e-07
6.58703e-07
6.83488e-07
6.9553e-07
6.92597e-07
6.73136e-07
6.3663e-07
5.83943e-07
5.17571e-07
4.41727e-07
3.62194e-07
2.85958e-07
2.20789e-07
1.7522e-07
1.60353e-07
1.96201e-07
3.44816e-07
9.3178e-07
5.46564e-06
1.97579e-07
2.3506e-07
2.75984e-07
3.1947e-07
3.64603e-07
4.10351e-07
4.55487e-07
4.98523e-07
5.37708e-07
5.71054e-07
5.96427e-07
6.1168e-07
6.14856e-07
6.04441e-07
5.79645e-07
5.40678e-07
4.88969e-07
4.27281e-07
3.59648e-07
2.91122e-07
2.27364e-07
1.74239e-07
1.37871e-07
1.25819e-07
1.53009e-07
2.7083e-07
7.64768e-07
4.74138e-06
1.93772e-07
2.28962e-07
2.67038e-07
3.07009e-07
3.47872e-07
3.88536e-07
4.27764e-07
4.64106e-07
4.95961e-07
5.21563e-07
5.39107e-07
5.46885e-07
5.43473e-07
5.27941e-07
5.0008e-07
4.60595e-07
4.11227e-07
3.54764e-07
2.94898e-07
2.35926e-07
1.82374e-07
1.38719e-07
1.09418e-07
1.00096e-07
1.2352e-07
2.2661e-07
6.71699e-07
4.28495e-06
1.89088e-07
2.21913e-07
2.57141e-07
2.93695e-07
3.30513e-07
3.66481e-07
4.00364e-07
4.30822e-07
4.56389e-07
4.75536e-07
4.86775e-07
4.88792e-07
4.80611e-07
4.61765e-07
4.3247e-07
3.93744e-07
3.47463e-07
2.96294e-07
2.43519e-07
1.92742e-07
1.47572e-07
1.11502e-07
8.78089e-08
8.10999e-08
1.0283e-07
1.9559e-07
5.94722e-07
3.82379e-06
1.83736e-07
2.14167e-07
2.46589e-07
2.79866e-07
3.129e-07
3.4457e-07
3.73686e-07
3.99011e-07
4.19237e-07
4.33063e-07
4.39291e-07
4.3695e-07
4.25429e-07
4.04619e-07
3.75032e-07
3.37867e-07
2.95012e-07
2.48938e-07
2.02507e-07
1.58715e-07
1.20515e-07
9.05334e-08
7.1316e-08
6.67608e-08
8.70274e-08
1.69691e-07
5.20948e-07
3.3518e-06
1.77907e-07
2.05949e-07
2.35644e-07
2.65812e-07
2.95338e-07
3.23107e-07
3.48006e-07
3.68892e-07
3.84621e-07
3.94104e-07
3.96402e-07
3.90833e-07
3.77079e-07
3.55298e-07
3.26195e-07
2.91059e-07
2.51711e-07
2.1039e-07
1.69563e-07
1.31752e-07
9.93219e-08
7.4248e-08
5.85653e-08
5.55606e-08
7.40261e-08
1.46397e-07
4.50574e-07
2.89672e-06
1.71772e-07
1.97458e-07
2.24526e-07
2.51767e-07
2.78061e-07
3.02325e-07
3.23512e-07
3.40588e-07
3.52559e-07
3.58531e-07
3.57791e-07
3.49893e-07
3.3475e-07
3.12711e-07
2.84604e-07
2.51732e-07
2.1581e-07
1.78837e-07
1.42932e-07
1.10245e-07
8.2573e-08
6.14601e-08
4.85311e-08
4.65176e-08
6.28713e-08
1.25175e-07
3.85075e-07
2.47259e-06
1.65474e-07
1.88862e-07
2.13418e-07
2.37921e-07
2.61257e-07
2.82386e-07
3.00325e-07
3.14147e-07
3.22999e-07
3.2616e-07
3.23106e-07
3.13586e-07
2.97688e-07
2.75895e-07
2.49097e-07
2.18572e-07
1.85902e-07
1.52852e-07
1.21294e-07
9.29411e-08
6.92032e-08
5.12902e-08
4.04895e-08
3.90366e-08
5.31535e-08
1.06046e-07
3.25707e-07
2.08895e-06
1.59137e-07
1.80298e-07
2.0247e-07
2.24426e-07
2.45067e-07
2.63399e-07
2.78507e-07
2.89563e-07
2.95842e-07
2.96772e-07
2.91989e-07
2.81395e-07
2.65212e-07
2.44009e-07
2.18698e-07
1.90501e-07
1.60856e-07
1.31348e-07
1.03577e-07
7.88925e-08
5.8418e-08
4.30983e-08
3.39425e-08
3.27564e-08
4.46796e-08
8.90675e-08
2.73034e-07
1.74942e-06
1.52861e-07
1.71881e-07
1.918e-07
2.11393e-07
2.29586e-07
2.4543e-07
2.58077e-07
2.66789e-07
2.70956e-07
2.70133e-07
2.64087e-07
2.52843e-07
2.36717e-07
2.16328e-07
1.92585e-07
1.66633e-07
1.39776e-07
1.13454e-07
8.89565e-08
6.73833e-08
4.96271e-08
3.64213e-08
2.85468e-08
2.7445e-08
3.7324e-08
7.41972e-08
2.26987e-07
1.45317e-06
1.46728e-07
1.637e-07
1.81497e-07
1.98905e-07
2.1488e-07
2.28513e-07
2.39022e-07
2.45753e-07
2.48193e-07
2.46007e-07
2.39068e-07
2.27495e-07
2.11669e-07
1.92234e-07
1.70072e-07
1.46243e-07
1.21965e-07
9.84605e-08
7.67967e-08
5.78711e-08
4.23917e-08
3.09227e-08
2.40603e-08
2.29405e-08
3.09775e-08
6.13082e-08
1.87144e-07
1.19716e-06
1.40799e-07
1.55822e-07
1.71629e-07
1.87021e-07
2.00983e-07
2.12652e-07
2.21306e-07
2.26363e-07
2.27398e-07
2.24165e-07
2.16624e-07
2.04962e-07
1.89604e-07
1.712e-07
1.50591e-07
1.28759e-07
1.06829e-07
8.58131e-08
6.66069e-08
4.99437e-08
3.63833e-08
2.63552e-08
2.03063e-08
1.91196e-08
2.55351e-08
5.02305e-08
1.52942e-07
9.77569e-07
1.35123e-07
1.48298e-07
1.62241e-07
1.75774e-07
1.87912e-07
1.97836e-07
2.04877e-07
2.0852e-07
2.08415e-07
2.04389e-07
1.96471e-07
1.84899e-07
1.70121e-07
1.52779e-07
1.33665e-07
1.13712e-07
9.38939e-08
7.50754e-08
5.80063e-08
4.32855e-08
3.13541e-08
2.25341e-08
1.71518e-08
1.58832e-08
2.08979e-08
4.07846e-08
1.23804e-07
7.90532e-07
1.29733e-07
1.41161e-07
1.53362e-07
1.65181e-07
1.75665e-07
1.84034e-07
1.89671e-07
1.9212e-07
1.91092e-07
1.86477e-07
1.78355e-07
1.67001e-07
1.52876e-07
1.36599e-07
1.18913e-07
1.00696e-07
8.2778e-08
6.59023e-08
5.06981e-08
3.76538e-08
2.71152e-08
1.93188e-08
1.44949e-08
1.31488e-08
1.69742e-08
3.28023e-08
9.92115e-08
6.32686e-07
1.24654e-07
1.34433e-07
1.45008e-07
1.55247e-07
1.64227e-07
1.71209e-07
1.7562e-07
1.77058e-07
1.75284e-07
1.70242e-07
1.62049e-07
1.51005e-07
1.37571e-07
1.22339e-07
1.06011e-07
8.93842e-08
7.31742e-08
5.80199e-08
4.44491e-08
3.28597e-08
2.35204e-08
1.66005e-08
1.22539e-08
1.08458e-08
1.36785e-08
2.61255e-08
7.87351e-08
5.01693e-07
1.19901e-07
1.28127e-07
1.37185e-07
1.45964e-07
1.53575e-07
1.59314e-07
1.62653e-07
1.6323e-07
1.60857e-07
1.55513e-07
1.4735e-07
1.36679e-07
1.23953e-07
1.09736e-07
9.46841e-08
7.95089e-08
6.48347e-08
5.12092e-08
3.90749e-08
2.87547e-08
2.04555e-08
1.42932e-08
1.03615e-08
8.91206e-09
1.09253e-08
2.05676e-08
6.17316e-08
3.93092e-07
1.15483e-07
1.22247e-07
1.29886e-07
1.37317e-07
1.43679e-07
1.48302e-07
1.50696e-07
1.5054e-07
1.47684e-07
1.42139e-07
1.34079e-07
1.2382e-07
1.11804e-07
9.85622e-08
8.46998e-08
7.08499e-08
5.75583e-08
4.52944e-08
3.44282e-08
2.52212e-08
1.78299e-08
1.23284e-08
8.7631e-09
7.29408e-09
8.63714e-09
1.59527e-08
4.75571e-08
3.02126e-07
1.11406e-07
1.16791e-07
1.23105e-07
1.29287e-07
1.34504e-07
1.3812e-07
1.39678e-07
1.38895e-07
1.3565e-07
1.29981e-07
1.22077e-07
1.12255e-07
1.00939e-07
8.86264e-08
7.58666e-08
6.32261e-08
5.11812e-08
4.01333e-08
3.03911e-08
2.2165e-08
1.55712e-08
1.06509e-08
7.41392e-09
5.94801e-09
6.75625e-09
1.2179e-08
3.59785e-08
2.27827e-07
1.07672e-07
1.11755e-07
1.16828e-07
1.2185e-07
1.26015e-07
1.28718e-07
1.29533e-07
1.28208e-07
1.24649e-07
1.18916e-07
1.11205e-07
1.0183e-07
9.1195e-08
7.97633e-08
6.8025e-08
5.64882e-08
4.55693e-08
3.56103e-08
2.68681e-08
1.95105e-08
1.36211e-08
9.21577e-09
6.27708e-09
4.8377e-09
5.23393e-09
9.16325e-09
2.68044e-08
1.69289e-07
1.04284e-07
1.07135e-07
1.11041e-07
1.14983e-07
1.18177e-07
1.20047e-07
1.20196e-07
1.18399e-07
1.14587e-07
1.08833e-07
1.0134e-07
9.24131e-08
8.24344e-08
7.18311e-08
6.10428e-08
5.05129e-08
4.06122e-08
3.1631e-08
2.37815e-08
1.7196e-08
1.1932e-08
7.98607e-09
5.32097e-09
3.92905e-09
4.01987e-09
6.79743e-09
1.96648e-08
1.23871e-07
1.0125e-07
1.02928e-07
1.05734e-07
1.08664e-07
1.10957e-07
1.12062e-07
1.1161e-07
1.09398e-07
1.05379e-07
9.96372e-08
9.23763e-08
8.38908e-08
7.45389e-08
6.4712e-08
5.48054e-08
4.51966e-08
3.62189e-08
2.81179e-08
2.10678e-08
1.51714e-08
1.0465e-08
6.93095e-09
4.51839e-09
3.19112e-09
3.06487e-09
4.97146e-09
1.41887e-08
8.90711e-08
9.85789e-08
9.91357e-08
1.00899e-07
1.02876e-07
1.04327e-07
1.04724e-07
1.03722e-07
1.01142e-07
9.69502e-08
9.12428e-08
8.42204e-08
7.61643e-08
6.74074e-08
5.83063e-08
4.92134e-08
4.04544e-08
3.23137e-08
2.50067e-08
1.86745e-08
1.3395e-08
9.18777e-09
6.02459e-09
3.846e-09
2.59684e-09
2.32556e-09
3.59006e-09
1.0078e-08
6.29879e-08
9.62943e-08
9.5771e-08
9.65382e-08
9.76112e-08
9.8268e-08
9.80019e-08
9.6491e-08
9.35755e-08
8.92372e-08
8.35773e-08
7.67927e-08
6.91493e-08
6.09542e-08
5.25294e-08
4.4187e-08
3.62093e-08
2.88334e-08
2.2244e-08
1.6558e-08
1.18322e-08
8.07317e-09
5.24503e-09
3.2836e-09
2.1225e-09
1.76478e-09
2.57087e-09
7.08806e-09
4.41498e-08
9.44358e-08
9.28627e-08
9.26697e-08
9.28758e-08
9.2774e-08
9.18776e-08
8.98859e-08
8.66577e-08
8.21871e-08
7.65796e-08
7.00255e-08
6.27741e-08
5.51062e-08
4.731e-08
3.96594e-08
3.23971e-08
2.57227e-08
1.97848e-08
1.46815e-08
1.04541e-08
7.09824e-09
4.57325e-09
2.81296e-09
1.74544e-09
1.34444e-09
1.83194e-09
4.95454e-09
3.08024e-08
9.30717e-08
9.04666e-08
8.93357e-08
8.86976e-08
8.78578e-08
8.63489e-08
8.38906e-08
8.03592e-08
7.576e-08
7.02004e-08
6.3863e-08
5.69789e-08
4.98022e-08
4.25881e-08
3.55742e-08
2.89669e-08
2.2932e-08
1.75898e-08
1.30142e-08
9.23587e-09
6.24333e-09
3.99276e-09
2.41799e-09
1.44533e-09
1.03025e-09
1.29855e-09
3.42943e-09
2.12737e-08
9.23164e-08
8.86814e-08
8.66173e-08
8.51382e-08
8.3561e-08
8.14377e-08
7.85088e-08
7.46678e-08
6.99299e-08
6.44033e-08
5.82609e-08
5.17143e-08
4.49907e-08
3.83128e-08
3.18836e-08
2.58756e-08
2.04238e-08
1.56231e-08
1.15283e-08
8.15641e-09
5.49161e-09
3.48944e-09
2.08509e-09
1.20558e-09
7.95625e-10
9.14119e-10
2.33279e-09
1.44009e-08
9.23586e-08
8.76746e-08
8.46562e-08
8.23106e-08
7.99673e-08
7.71996e-08
7.37707e-08
6.95918e-08
6.46876e-08
5.91652e-08
5.31862e-08
4.69412e-08
4.06294e-08
3.44414e-08
2.85469e-08
2.3086e-08
1.81656e-08
1.38573e-08
1.01988e-08
7.19635e-09
4.82868e-09
3.05142e-09
1.80322e-09
1.01359e-09
6.21987e-10
6.41972e-10
1.55341e-09
9.44524e-09
9.35074e-08
8.77232e-08
8.36889e-08
8.04063e-08
7.72227e-08
7.37382e-08
6.97424e-08
6.51662e-08
6.00433e-08
5.4478e-08
4.86176e-08
4.26297e-08
3.6684e-08
3.09384e-08
2.55293e-08
2.05663e-08
1.61294e-08
1.22688e-08
9.00645e-09
6.33912e-09
4.24121e-09
2.66871e-09
1.56355e-09
8.59991e-10
4.97246e-10
4.64033e-10
1.06362e-09
6.37996e-09
9.62689e-08
8.928e-08
8.41004e-08
7.9736e-08
7.55644e-08
7.12238e-08
6.65378e-08
6.14594e-08
5.60306e-08
5.03495e-08
4.45454e-08
3.87589e-08
3.31271e-08
2.77736e-08
2.28012e-08
1.82889e-08
1.42908e-08
1.08368e-08
7.93434e-09
5.5713e-09
3.71841e-09
2.33229e-09
1.35871e-09
7.37306e-10
4.11411e-10
3.62383e-10
8.15439e-10
4.92368e-09
1.01473e-07
9.30808e-08
8.65089e-08
8.07917e-08
7.53635e-08
6.99215e-08
6.43344e-08
5.85814e-08
5.27095e-08
4.68048e-08
4.09712e-08
3.53155e-08
2.99372e-08
2.49219e-08
2.03367e-08
1.62295e-08
1.26284e-08
9.54324e-09
6.96774e-09
4.88129e-09
3.25126e-09
2.03505e-09
1.18243e-09
6.39072e-10
3.54897e-10
3.14491e-10
7.22808e-10
4.42648e-09
1.10484e-07
1.00321e-07
9.18999e-08
8.43409e-08
7.7186e-08
7.02264e-08
6.33933e-08
5.66931e-08
5.01705e-08
4.38865e-08
3.79067e-08
3.22926e-08
2.70972e-08
2.23615e-08
1.81132e-08
1.43665e-08
1.11229e-08
8.37203e-09
6.09365e-09
4.25895e-09
2.832e-09
1.77099e-09
1.02967e-09
5.60089e-10
3.20153e-10
3.03707e-10
7.27502e-10
4.47909e-09
1.25565e-07
1.12946e-07
1.01841e-07
9.15703e-08
8.18802e-08
7.27127e-08
6.4082e-08
5.6016e-08
4.85359e-08
4.16534e-08
3.53718e-08
2.96878e-08
2.45927e-08
2.00728e-08
1.61098e-08
1.26804e-08
9.75722e-09
7.30878e-09
5.30056e-09
3.69538e-09
2.45392e-09
1.53501e-09
8.96304e-10
4.96387e-10
3.02452e-10
3.2356e-10
8.2215e-10
5.09628e-09
1.50504e-07
1.34144e-07
1.18825e-07
1.04305e-07
9.07016e-08
7.81964e-08
6.69023e-08
5.68401e-08
4.79611e-08
4.01784e-08
3.33915e-08
2.74999e-08
2.24099e-08
1.80373e-08
1.43073e-08
1.11533e-08
8.51583e-09
6.34071e-09
4.57835e-09
3.18285e-09
2.11123e-09
1.32274e-09
7.78788e-10
4.44622e-10
2.97991e-10
3.6977e-10
1.00809e-09
6.36225e-09
1.91717e-07
1.69188e-07
1.46845e-07
1.25345e-07
1.05489e-07
8.78142e-08
7.25183e-08
5.95311e-08
4.86319e-08
3.95441e-08
3.19922e-08
2.5727e-08
2.05344e-08
1.62362e-08
1.2687e-08
9.76862e-09
7.38486e-09
5.45666e-09
3.91834e-09
2.71478e-09
1.79899e-09
1.13043e-09
6.73981e-10
4.01467e-10
3.01747e-10
4.30951e-10
1.2445e-09
7.97628e-09
2.60272e-07
2.2693e-07
1.9234e-07
1.58997e-07
1.28914e-07
1.03122e-07
8.17866e-08
6.45342e-08
5.07625e-08
3.98396e-08
3.11989e-08
2.43643e-08
1.89499e-08
1.46508e-08
1.12315e-08
8.51152e-09
6.35236e-09
4.64732e-09
3.31346e-09
2.28585e-09
1.51325e-09
9.54982e-10
5.79092e-10
3.636e-10
3.07959e-10
4.92155e-10
1.47493e-09
9.53119e-09
3.75687e-07
3.22521e-07
2.65839e-07
2.11902e-07
1.64836e-07
1.26215e-07
9.57851e-08
7.23799e-08
5.45977e-08
4.11632e-08
3.10377e-08
2.34065e-08
1.76402e-08
1.32635e-08
9.92546e-09
7.36968e-09
5.40891e-09
3.90568e-09
2.75855e-09
1.89231e-09
1.25118e-09
7.94071e-10
4.91819e-10
3.28007e-10
3.1136e-10
5.40915e-10
1.65651e-09
1.07349e-08
5.73433e-07
4.82569e-07
3.84849e-07
2.94363e-07
2.18794e-07
1.59873e-07
1.15852e-07
8.37051e-08
6.04364e-08
4.36425e-08
3.15504e-08
2.2857e-08
1.65955e-08
1.20622e-08
8.75812e-09
6.33482e-09
4.54845e-09
3.22753e-09
2.25077e-09
1.53221e-09
1.01133e-09
6.4641e-10
4.10612e-10
2.92288e-10
3.07662e-10
5.6972e-10
1.77101e-09
1.14949e-08
9.20595e-07
7.5542e-07
5.79122e-07
4.22504e-07
2.98715e-07
2.07753e-07
1.43665e-07
9.9333e-08
6.87088e-08
4.74927e-08
3.28313e-08
2.27508e-08
1.58264e-08
1.10482e-08
7.72799e-09
5.40489e-09
3.76938e-09
2.61197e-09
1.78987e-09
1.20572e-09
7.93997e-10
5.12085e-10
3.35062e-10
2.5516e-10
2.94146e-10
5.73242e-10
1.80833e-09
1.17858e-08
1.55085e-06
1.2328e-06
9.00647e-07
6.21883e-07
4.16e-07
2.74757e-07
1.8149e-07
1.20521e-07
8.01811e-08
5.31518e-08
3.51072e-08
2.32012e-08
1.53903e-08
1.02513e-08
6.85014e-09
4.58732e-09
3.07557e-09
2.0616e-09
1.37823e-09
9.1526e-10
6.01448e-10
3.92943e-10
2.66265e-10
2.16561e-10
2.68676e-10
5.43894e-10
1.73923e-09
1.14083e-08
2.74954e-06
2.09844e-06
1.44342e-06
9.33945e-07
5.8764e-07
3.68073e-07
2.33008e-07
1.49685e-07
9.6461e-08
6.15659e-08
3.88935e-08
2.449e-08
1.54448e-08
9.7579e-09
6.16934e-09
3.90383e-09
2.47737e-09
1.58223e-09
1.02047e-09
6.65418e-10
4.38297e-10
2.93186e-10
2.07546e-10
1.78486e-10
2.31025e-10
4.74948e-10
1.52191e-09
9.97746e-09
5.18392e-06
3.74626e-06
2.38539e-06
1.42939e-06
8.41873e-07
5.00799e-07
3.06047e-07
1.925e-07
1.21262e-07
7.48211e-08
4.53372e-08
2.72737e-08
1.63677e-08
9.77407e-09
5.7884e-09
3.40039e-09
1.99333e-09
1.18191e-09
7.22483e-10
4.62893e-10
3.12229e-10
2.20629e-10
1.65933e-10
1.46735e-10
1.8627e-10
3.73868e-10
1.18065e-09
7.66975e-09
1.06166e-05
7.09824e-06
4.08877e-06
2.24414e-06
1.23798e-06
7.05153e-07
4.21656e-07
2.64367e-07
1.63939e-07
9.78697e-08
5.71854e-08
3.31793e-08
1.90982e-08
1.07991e-08
5.94496e-09
3.17438e-09
1.65574e-09
8.69795e-10
4.90217e-10
3.17269e-10
2.36689e-10
1.90289e-10
1.55645e-10
1.33665e-10
1.46466e-10
2.61648e-10
7.92329e-10
5.05794e-09
2.4541e-05
1.45972e-05
7.402e-06
3.71315e-06
1.94752e-06
1.08345e-06
6.46409e-07
4.13061e-07
2.51352e-07
1.44658e-07
8.24595e-08
4.69696e-08
2.63104e-08
1.42099e-08
7.27175e-09
3.46989e-09
1.53396e-09
6.56298e-10
3.29154e-10
2.46831e-10
2.42192e-10
2.37807e-10
2.10067e-10
1.66327e-10
1.33814e-10
1.65353e-10
4.34784e-10
2.65827e-09
6.85519e-05
3.41943e-05
1.49744e-05
7.04145e-06
3.64783e-06
2.03878e-06
1.23329e-06
8.19022e-07
4.79429e-07
2.66506e-07
1.51568e-07
8.64337e-08
4.77085e-08
2.48586e-08
1.19366e-08
5.10315e-09
1.84722e-09
5.62526e-10
2.49154e-10
3.1039e-10
4.30883e-10
4.82383e-10
4.37387e-10
3.24315e-10
1.98923e-10
1.21786e-10
1.80059e-10
9.6774e-10
0.000264142
0.000104283
4.04389e-05
1.90373e-05
1.01499e-05
5.77639e-06
3.53736e-06
2.45436e-06
1.34984e-06
7.42272e-07
4.29754e-07
2.46644e-07
1.34657e-07
6.83997e-08
3.1423e-08
1.23734e-08
3.72562e-09
6.97764e-10
3.07443e-10
8.25854e-10
1.35338e-09
1.5626e-09
1.40999e-09
1.01154e-09
5.59912e-10
2.21984e-10
7.44651e-11
1.91756e-10
0.00192552
0.000619021
0.000232203
0.00011407
6.23045e-05
3.57464e-05
2.19425e-05
1.56203e-05
8.16427e-06
4.55859e-06
2.67537e-06
1.53653e-06
8.3275e-07
4.17851e-07
1.8819e-07
7.13025e-08
1.93831e-08
2.28044e-09
1.17428e-09
5.2582e-09
8.93792e-09
1.03327e-08
9.26545e-09
6.55023e-09
3.50859e-09
1.26383e-09
2.258e-10
1.65929e-11
8.151e-08
1.50555e-08
6.79285e-09
5.08473e-09
5.316e-09
6.77351e-09
9.39796e-09
1.33171e-08
1.87627e-08
2.60668e-08
3.56873e-08
4.82501e-08
2.04821e-07
3.50546e-08
1.38027e-08
8.84473e-09
8.0664e-09
9.40437e-09
1.24499e-08
1.72424e-08
2.40122e-08
3.31255e-08
4.50942e-08
6.06176e-08
4.15704e-07
6.85533e-08
2.50526e-08
1.45279e-08
1.19195e-08
1.27871e-08
1.60909e-08
2.16906e-08
2.9781e-08
4.07422e-08
5.51197e-08
7.36588e-08
7.37487e-07
1.18985e-07
4.15548e-08
2.25847e-08
1.71357e-08
1.70752e-08
2.03895e-08
2.66499e-08
3.59738e-08
4.87288e-08
6.54656e-08
8.69396e-08
1.18695e-06
1.88777e-07
6.40846e-08
3.3446e-08
2.40088e-08
2.24514e-08
2.54291e-08
3.21119e-08
4.24926e-08
5.68924e-08
7.58315e-08
1.00033e-07
1.76853e-06
2.78569e-07
9.31233e-08
4.75846e-08
3.28993e-08
2.91388e-08
3.13073e-08
3.807e-08
4.92394e-08
6.50452e-08
8.59327e-08
1.12545e-07
2.47028e-06
3.86901e-07
1.29308e-07
6.58277e-08
4.43593e-08
3.74229e-08
3.81272e-08
4.45092e-08
5.61131e-08
7.30095e-08
9.55131e-08
1.24135e-07
3.23638e-06
5.11665e-07
1.75612e-07
9.02056e-08
5.93221e-08
4.76481e-08
4.59652e-08
5.13849e-08
6.30017e-08
8.062e-08
1.04354e-07
1.34532e-07
4.07644e-06
6.78433e-07
2.45635e-07
1.25685e-07
7.92513e-08
6.01289e-08
5.48019e-08
5.85907e-08
6.9772e-08
8.7723e-08
1.12278e-07
1.43532e-07
5.79851e-06
1.04937e-06
3.78197e-07
1.80736e-07
1.05595e-07
7.48556e-08
6.44206e-08
6.59309e-08
7.62645e-08
9.41782e-08
1.19151e-07
1.51007e-07
1.24197e-05
1.88803e-06
5.65275e-07
2.43941e-07
1.33879e-07
9.0199e-08
7.4161e-08
7.3088e-08
8.2298e-08
9.98649e-08
1.24884e-07
1.56898e-07
1.44478e-05
2.13801e-06
6.5285e-07
2.8589e-07
1.56702e-07
1.03884e-07
8.32045e-08
7.97176e-08
8.77054e-08
1.04695e-07
1.29438e-07
1.61208e-07
1.24454e-05
2.01276e-06
6.61952e-07
3.05226e-07
1.72194e-07
1.1494e-07
9.10962e-08
8.56065e-08
9.23862e-08
1.0863e-07
1.3282e-07
1.63996e-07
1.25641e-05
2.01117e-06
6.72262e-07
3.1888e-07
1.8421e-07
1.2421e-07
9.79882e-08
9.07664e-08
9.63408e-08
1.11691e-07
1.35088e-07
1.65367e-07
1.42558e-05
2.23189e-06
7.28535e-07
3.42372e-07
1.97862e-07
1.33354e-07
1.04429e-07
9.5394e-08
9.96627e-08
1.13957e-07
1.36339e-07
1.65463e-07