/*--------------------------------*- C++ -*----------------------------------*\
| =========                 |                                                 |
| \\      /  F ield         | OpenFOAM: The Open Source CFD Toolbox           |
|  \\    /   O peration     | Version:  v2012                                 |
|   \\  /    A nd           | Website:  www.openfoam.com                      |
|    \\/     M anipulation  |                                                 |
\*---------------------------------------------------------------------------*/
FoamFile
{
    version     2.0;
    format      ascii;
    class       volScalarField;
    location    "5000";
    object      nut;
}
// * * * * * * * * * * * * * * * * * * * * * * * * * * * * * * * * * * * * * //

dimensions      [0 2 -1 0 0 0 0];


internalField   nonuniform List<scalar> 
6036
(
1.23858e-07
1.37414e-07
1.48174e-07
1.56308e-07
1.62252e-07
1.66469e-07
1.69383e-07
1.71346e-07
1.72631e-07
1.73455e-07
1.74035e-07
1.74737e-07
1.76374e-07
1.80718e-07
1.91221e-07
2.15351e-07
2.76497e-07
4.40618e-07
7.6281e-07
1.09397e-06
1.17274e-07
1.29748e-07
1.39653e-07
1.47157e-07
1.52666e-07
1.56621e-07
1.59431e-07
1.61458e-07
1.63017e-07
1.64427e-07
1.66075e-07
1.68636e-07
1.73538e-07
1.84035e-07
2.06152e-07
2.54177e-07
3.66393e-07
6.37147e-07
1.27397e-06
3.38889e-06
1.15775e-07
1.26962e-07
1.35933e-07
1.42992e-07
1.48651e-07
1.53523e-07
1.58333e-07
1.64008e-07
1.71914e-07
1.84241e-07
2.03865e-07
2.35151e-07
2.84961e-07
3.80602e-07
5.50992e-07
8.62227e-07
1.46145e-06
2.71719e-06
5.8536e-06
1.87444e-05
1.21171e-07
1.30505e-07
1.38547e-07
1.46244e-07
1.54709e-07
1.65461e-07
1.80714e-07
2.03761e-07
2.40088e-07
3.02931e-07
4.06175e-07
5.74492e-07
8.49803e-07
1.31446e-06
2.09499e-06
3.43026e-06
5.82513e-06
1.05709e-05
2.22139e-05
7.21654e-05
1.38085e-07
1.42945e-07
1.48043e-07
1.55858e-07
1.68364e-07
1.88426e-07
2.20825e-07
2.73542e-07
3.60087e-07
5.0389e-07
7.39857e-07
1.12554e-06
1.75757e-06
2.80408e-06
4.54981e-06
7.53629e-06
1.29379e-05
2.38309e-05
5.11647e-05
0.000168817
1.76719e-07
1.70497e-07
1.65838e-07
1.67295e-07
1.75927e-07
1.93624e-07
2.24572e-07
2.76404e-07
3.62383e-07
5.05882e-07
7.41817e-07
1.12764e-06
1.75973e-06
2.80639e-06
4.55237e-06
7.5393e-06
1.29416e-05
2.38356e-05
5.11714e-05
0.00016883
2.30879e-07
2.06157e-07
1.8588e-07
1.75967e-07
1.739e-07
1.78212e-07
1.89449e-07
2.09981e-07
2.44555e-07
3.06292e-07
4.08969e-07
5.76979e-07
8.52096e-07
1.31673e-06
2.09737e-06
3.43284e-06
5.82803e-06
1.05742e-05
2.22181e-05
7.21728e-05
2.83093e-07
2.36199e-07
2.01146e-07
1.83117e-07
1.7419e-07
1.70126e-07
1.69281e-07
1.71304e-07
1.7681e-07
1.87563e-07
2.06169e-07
2.36809e-07
2.86148e-07
3.8155e-07
5.51816e-07
8.62993e-07
1.4622e-06
2.71794e-06
5.85441e-06
1.87455e-05
3.31758e-07
2.60549e-07
2.14302e-07
1.92838e-07
1.81759e-07
1.75491e-07
1.71802e-07
1.69615e-07
1.68403e-07
1.67977e-07
1.68422e-07
1.70188e-07
1.74564e-07
1.84738e-07
2.0665e-07
2.54535e-07
3.66656e-07
6.3734e-07
1.2741e-06
3.38897e-06
3.72098e-07
2.80957e-07
2.28163e-07
2.0553e-07
1.93714e-07
1.86899e-07
1.82784e-07
1.80183e-07
1.78462e-07
1.77291e-07
1.76567e-07
1.76405e-07
1.77465e-07
1.81458e-07
1.91737e-07
2.15708e-07
2.76746e-07
4.40788e-07
7.62898e-07
1.094e-06
2.05121e-11
3.46347e-11
5.50452e-11
8.37353e-11
1.23176e-10
1.76063e-10
2.43982e-10
3.24433e-10
4.64423e-10
2.35615e-09
1.00971e-09
1.23768e-09
1.69278e-09
2.33199e-09
3.18412e-09
4.31953e-09
5.84624e-09
7.90334e-09
1.06744e-08
1.43962e-08
1.93624e-08
2.59154e-08
3.44174e-08
4.51841e-08
5.83645e-08
7.37775e-08
9.07233e-08
1.07921e-07
1.98284e-11
3.329e-11
5.27221e-11
8.00145e-11
1.17507e-10
1.67806e-10
2.33284e-10
3.20243e-10
5.20144e-10
1.81229e-09
1.03735e-09
1.1999e-09
1.62198e-09
2.22963e-09
3.04556e-09
4.13645e-09
5.60575e-09
7.58891e-09
1.02644e-08
1.38619e-08
1.8664e-08
2.49968e-08
3.31968e-08
4.35407e-08
5.6127e-08
7.07208e-08
8.66034e-08
1.0257e-07
2.08525e-11
3.44242e-11
5.39499e-11
8.13377e-11
1.19002e-10
1.69959e-10
2.38662e-10
3.38681e-10
5.49024e-10
1.33329e-09
1.07836e-09
1.24854e-09
1.66789e-09
2.28786e-09
3.13362e-09
4.27599e-09
5.82469e-09
7.92653e-09
1.07734e-08
1.46075e-08
1.97179e-08
2.64195e-08
3.50049e-08
4.56585e-08
5.83349e-08
7.26321e-08
8.7725e-08
1.02474e-07
2.62492e-11
4.16992e-11
6.37211e-11
9.45415e-11
1.37114e-10
1.95549e-10
2.76582e-10
3.955e-10
6.02583e-10
1.09777e-09
1.18151e-09
1.45484e-09
1.95288e-09
2.6849e-09
3.69901e-09
5.08676e-09
6.98314e-09
9.56729e-09
1.30662e-08
1.77523e-08
2.39253e-08
3.18716e-08
4.17903e-08
5.36892e-08
6.72695e-08
8.18494e-08
9.64012e-08
1.09782e-07
4.27822e-11
6.40443e-11
9.39358e-11
1.35562e-10
1.93216e-10
2.73066e-10
3.84648e-10
5.44205e-10
7.84174e-10
1.19077e-09
1.51052e-09
1.98121e-09
2.69551e-09
3.71776e-09
5.13776e-09
7.0885e-09
9.75202e-09
1.3361e-08
1.8196e-08
2.45719e-08
3.28031e-08
4.31408e-08
5.56779e-08
7.02266e-08
8.61932e-08
1.02499e-07
1.1762e-07
1.2986e-07
8.36277e-11
1.19308e-10
1.68592e-10
2.3649e-10
3.29952e-10
4.58747e-10
6.36834e-10
8.84282e-10
1.23057e-09
1.72775e-09
2.3171e-09
3.12563e-09
4.26808e-09
5.85929e-09
8.04391e-09
1.10144e-08
1.50188e-08
2.03618e-08
2.73965e-08
3.65032e-08
4.80437e-08
6.22853e-08
7.92866e-08
9.87461e-08
1.19819e-07
1.40944e-07
1.59715e-07
1.72741e-07
1.66951e-10
2.3141e-10
3.18872e-10
4.37618e-10
5.98948e-10
8.18238e-10
1.11638e-09
1.52152e-09
2.07148e-09
2.82076e-09
3.80174e-09
5.12862e-09
6.9416e-09
9.40368e-09
1.27164e-08
1.71336e-08
2.29674e-08
3.05871e-08
4.04063e-08
5.28542e-08
6.83212e-08
8.70675e-08
1.09091e-07
1.33972e-07
1.60692e-07
1.87538e-07
2.1209e-07
2.28661e-07
3.14533e-10
4.2857e-10
5.8067e-10
7.83891e-10
1.05567e-09
1.41911e-09
1.90469e-09
2.55252e-09
3.41552e-09
4.56535e-09
6.08505e-09
8.10672e-09
1.07981e-08
1.43603e-08
1.9036e-08
2.51159e-08
3.29393e-08
4.28845e-08
5.53449e-08
7.06861e-08
8.91752e-08
1.10882e-07
1.35561e-07
1.62725e-07
1.9157e-07
2.20391e-07
2.4761e-07
2.70871e-07
5.4823e-10
7.38596e-10
9.88206e-10
1.31619e-09
1.74755e-09
2.31467e-09
3.05929e-09
4.0353e-09
5.31252e-09
6.98206e-09
9.15779e-09
1.19905e-08
1.56651e-08
2.03979e-08
2.64375e-08
3.40619e-08
4.35669e-08
5.52419e-08
6.93278e-08
8.59572e-08
1.05086e-07
1.26456e-07
1.49388e-07
1.73267e-07
1.97839e-07
2.23793e-07
2.53371e-07
2.89361e-07
8.85675e-10
1.18338e-09
1.56696e-09
2.06232e-09
2.70261e-09
3.52978e-09
4.59667e-09
5.96976e-09
7.73279e-09
9.99082e-09
1.28724e-08
1.65338e-08
2.11558e-08
2.69377e-08
3.40891e-08
4.28157e-08
5.32932e-08
6.56273e-08
7.97985e-08
9.55961e-08
1.12568e-07
1.29623e-07
1.4599e-07
1.61264e-07
1.76228e-07
1.94113e-07
2.21929e-07
2.71605e-07
1.27846e-14
1.15464e-13
3.87486e-13
6.84748e-13
7.81261e-13
5.99875e-13
2.46347e-13
3.42242e-14
4.14703e-13
1.94423e-12
5.25904e-12
1.11227e-11
1.65206e-13
1.62411e-13
3.70382e-13
6.2503e-13
7.08277e-13
5.5033e-13
2.52002e-13
1.00763e-13
5.21135e-13
2.03194e-12
5.23571e-12
1.08596e-11
5.51051e-13
4.84443e-13
4.62556e-13
6.01409e-13
6.66073e-13
5.58515e-13
3.67939e-13
3.56222e-13
9.23039e-13
2.6179e-12
5.97975e-12
1.17499e-11
1.08846e-12
9.64283e-13
7.81032e-13
7.35445e-13
8.12226e-13
8.67613e-13
9.65834e-13
1.34229e-12
2.40767e-12
4.70825e-12
8.82163e-12
1.56754e-11
1.49443e-12
1.30955e-12
1.10875e-12
1.09884e-12
1.44709e-12
2.05209e-12
2.95795e-12
4.42147e-12
6.93102e-12
1.11309e-11
1.77476e-11
2.78789e-11
1.49789e-12
1.31615e-12
1.23096e-12
1.59973e-12
2.79911e-12
4.84669e-12
7.78885e-12
1.19541e-11
1.80135e-11
2.68831e-11
3.96667e-11
5.79345e-11
1.02876e-12
9.62888e-13
1.178e-12
2.26663e-12
5.022e-12
9.89124e-12
1.70646e-11
2.69578e-11
4.05049e-11
5.91098e-11
8.45947e-11
1.19461e-10
3.52977e-13
5.44997e-13
1.27471e-12
3.41969e-12
8.39532e-12
1.76328e-11
3.20322e-11
5.22906e-11
7.96218e-11
1.16055e-10
1.64475e-10
2.28866e-10
3.19531e-13
8.41538e-13
2.27559e-12
5.75422e-12
1.35082e-11
2.85237e-11
5.33976e-11
8.98625e-11
1.3961e-10
2.05286e-10
2.90988e-10
4.02613e-10
2.23217e-12
3.05518e-12
5.31667e-12
1.02942e-11
2.12597e-11
4.32124e-11
8.15428e-11
1.40392e-10
2.2273e-10
3.3188e-10
4.7298e-10
6.53862e-10
1.35318e-09
1.79607e-09
2.35622e-09
3.06629e-09
3.96727e-09
5.10973e-09
6.55557e-09
8.38019e-09
1.06749e-08
1.35488e-08
1.71287e-08
2.15573e-08
2.69857e-08
3.35619e-08
4.14139e-08
5.06244e-08
6.11939e-08
7.29924e-08
8.5709e-08
9.86345e-08
1.10641e-07
1.20575e-07
1.27392e-07
1.30464e-07
1.30098e-07
1.28502e-07
1.30761e-07
1.41616e-07
1.95769e-09
2.58369e-09
3.35994e-09
4.32451e-09
5.52428e-09
7.01552e-09
8.86477e-09
1.11498e-08
1.396e-08
1.7396e-08
2.15661e-08
2.65794e-08
3.25347e-08
3.95033e-08
4.75063e-08
5.64831e-08
6.62523e-08
7.64491e-08
8.63327e-08
9.48617e-08
1.00859e-07
1.03111e-07
1.00518e-07
9.22723e-08
7.79788e-08
5.77779e-08
3.36364e-08
1.40339e-08
2.67407e-09
3.51228e-09
4.53117e-09
5.77163e-09
7.28329e-09
9.12408e-09
1.13598e-08
1.40633e-08
1.73133e-08
2.11909e-08
2.57731e-08
3.11233e-08
3.72762e-08
4.42187e-08
5.18647e-08
6.00248e-08
6.83274e-08
7.61195e-08
8.252e-08
8.65031e-08
8.70045e-08
8.30559e-08
7.40166e-08
5.99081e-08
4.18825e-08
2.28054e-08
8.23836e-09
2.6176e-09
3.47746e-09
4.5486e-09
5.82531e-09
7.34786e-09
9.16505e-09
1.13322e-08
1.39094e-08
1.69586e-08
2.05408e-08
2.47103e-08
2.95065e-08
3.49424e-08
4.09882e-08
4.75529e-08
5.44586e-08
6.13644e-08
6.77243e-08
7.28212e-08
7.58178e-08
7.5847e-08
7.21398e-08
6.42574e-08
5.24158e-08
3.76613e-08
2.22923e-08
9.99968e-09
4.0141e-09
3.07948e-09
4.33627e-09
5.65118e-09
7.18895e-09
8.9855e-09
1.10852e-08
1.35373e-08
1.63919e-08
1.96962e-08
2.34896e-08
2.77966e-08
3.26179e-08
3.79184e-08
4.3612e-08
4.95393e-08
5.54066e-08
6.07665e-08
6.50412e-08
6.75582e-08
6.76216e-08
6.46121e-08
5.81814e-08
4.85184e-08
3.64272e-08
2.35402e-08
1.24084e-08
5.53213e-09
3.28101e-09
3.27198e-09
5.21638e-09
6.77578e-09
8.5669e-09
1.06177e-08
1.2965e-08
1.56491e-08
1.87079e-08
2.21718e-08
2.60573e-08
3.03602e-08
3.50455e-08
4.00371e-08
4.51963e-08
5.02774e-08
5.49178e-08
5.86525e-08
6.09391e-08
6.12158e-08
5.89725e-08
5.38969e-08
4.60862e-08
3.61201e-08
2.51259e-08
1.49075e-08
7.44877e-09
3.77905e-09
2.93255e-09
3.10277e-09
6.08466e-09
7.88001e-09
9.90781e-09
1.21847e-08
1.47376e-08
1.75962e-08
2.07851e-08
2.43178e-08
2.81896e-08
3.23699e-08
3.67942e-08
4.13448e-08
4.58197e-08
4.99258e-08
5.32886e-08
5.54673e-08
5.60031e-08
5.4468e-08
5.05701e-08
4.43141e-08
3.60966e-08
2.66854e-08
1.73601e-08
9.67885e-09
4.81816e-09
2.81937e-09
2.46006e-09
2.59344e-09
6.91156e-09
8.92662e-09
1.11678e-08
1.36378e-08
1.63519e-08
1.93282e-08
2.25785e-08
2.61006e-08
2.9871e-08
3.38374e-08
3.79026e-08
4.19024e-08
4.56005e-08
4.8694e-08
5.08243e-08
5.16113e-08
5.06913e-08
4.77909e-08
4.28444e-08
3.61007e-08
2.80799e-08
1.96839e-08
1.21146e-08
6.4969e-09
3.32785e-09
2.1882e-09
2.0155e-09
2.11921e-09
7.67258e-09
9.88524e-09
1.23123e-08
1.49405e-08
1.77723e-08
2.08141e-08
2.4066e-08
2.75125e-08
3.11139e-08
3.47928e-08
3.84173e-08
4.17975e-08
4.46886e-08
4.67972e-08
4.78069e-08
4.74061e-08
4.5341e-08
4.15e-08
3.60135e-08
2.92327e-08
2.17846e-08
1.45791e-08
8.60185e-09
4.53845e-09
2.43983e-09
1.7434e-09
1.64771e-09
1.73313e-09
8.34889e-09
1.07331e-08
1.33163e-08
1.60681e-08
1.89772e-08
2.20392e-08
2.52438e-08
2.8564e-08
3.19414e-08
3.52717e-08
3.84031e-08
4.11387e-08
4.32379e-08
4.44366e-08
4.44677e-08
4.30978e-08
4.01891e-08
3.57823e-08
3.01086e-08
2.35955e-08
1.6918e-08
1.08961e-08
6.25276e-09
3.32134e-09
1.90907e-09
1.43544e-09
1.3483e-09
1.39776e-09
8.92738e-09
1.14547e-08
1.41638e-08
1.70062e-08
1.99569e-08
2.30009e-08
2.61193e-08
2.92726e-08
3.23805e-08
3.53221e-08
3.79398e-08
4.00373e-08
4.13941e-08
4.17821e-08
4.09896e-08
3.8867e-08
3.5391e-08
3.07026e-08
2.50867e-08
1.90312e-08
1.31918e-08
8.24603e-09
4.67071e-09
2.55839e-09
1.61341e-09
1.29384e-09
1.18161e-09
1.15139e-09
9.40033e-09
1.20415e-08
1.48467e-08
1.77493e-08
2.07104e-08
2.37047e-08
2.67063e-08
2.96597e-08
3.24677e-08
3.50034e-08
3.71083e-08
3.85997e-08
3.92839e-08
3.89718e-08
3.75124e-08
3.48413e-08
3.10269e-08
2.62549e-08
2.0867e-08
1.53683e-08
1.03488e-08
6.32796e-09
3.58456e-09
2.07498e-09
1.50561e-09
1.42847e-09
1.43003e-09
1.26805e-09
9.76493e-09
1.24906e-08
1.53633e-08
1.82986e-08
2.12432e-08
2.41617e-08
2.70211e-08
2.97525e-08
3.22465e-08
3.43746e-08
3.5987e-08
3.69216e-08
3.70125e-08
3.61147e-08
3.414e-08
3.11009e-08
2.71122e-08
2.24038e-08
1.73517e-08
1.24424e-08
8.17397e-09
4.91567e-09
2.7971e-09
1.70721e-09
1.43282e-09
1.81794e-09
2.89591e-09
4.34537e-09
1.00226e-08
1.28043e-08
1.57175e-08
1.86607e-08
2.15662e-08
2.43877e-08
2.70836e-08
2.95821e-08
3.17603e-08
3.34936e-08
3.46487e-08
3.50839e-08
3.46655e-08
3.32949e-08
3.09447e-08
2.76767e-08
2.36378e-08
1.90974e-08
1.44398e-08
1.01079e-08
6.49894e-09
3.85113e-09
2.17957e-09
1.30598e-09
9.54529e-10
8.46109e-10
8.37782e-10
8.81019e-10
1.01784e-08
1.29889e-08
1.59176e-08
1.88468e-08
2.16944e-08
2.44032e-08
2.6923e-08
2.91816e-08
3.10524e-08
3.24163e-08
3.31562e-08
3.31541e-08
3.2311e-08
3.05751e-08
2.79665e-08
2.45737e-08
2.05799e-08
1.62765e-08
1.20361e-08
8.24342e-09
5.19992e-09
3.04102e-09
1.71299e-09
1.02537e-09
7.31978e-10
6.09335e-10
5.49915e-10
5.33754e-10
1.02402e-08
1.30539e-08
1.5975e-08
1.8871e-08
2.1646e-08
2.42318e-08
2.65703e-08
2.85898e-08
3.01682e-08
3.11927e-08
3.15632e-08
3.11874e-08
3.0002e-08
2.79966e-08
2.52185e-08
2.17846e-08
1.7906e-08
1.38811e-08
1.00557e-08
6.75137e-09
4.18502e-09
2.41582e-09
1.35228e-09
8.05613e-10
5.71054e-10
4.78757e-10
4.51664e-10
4.63026e-10
1.02178e-08
1.30111e-08
1.59037e-08
1.87499e-08
2.14409e-08
2.38978e-08
2.60555e-08
2.78431e-08
2.91482e-08
2.98662e-08
2.99147e-08
2.92282e-08
2.7777e-08
2.55788e-08
2.27029e-08
1.9294e-08
1.55802e-08
1.18541e-08
8.42572e-09
5.55508e-09
3.38857e-09
1.93305e-09
1.07591e-09
6.4158e-10
4.61187e-10
4.00628e-10
3.96745e-10
4.18452e-10
1.01224e-08
1.28739e-08
1.57191e-08
1.85012e-08
2.10995e-08
2.34252e-08
2.54066e-08
2.69743e-08
2.80282e-08
2.84742e-08
2.82484e-08
2.7311e-08
2.56589e-08
2.33289e-08
2.04144e-08
1.70814e-08
1.35649e-08
1.01426e-08
7.08463e-09
4.59417e-09
2.7619e-09
1.56012e-09
8.65153e-10
5.20266e-10
3.84083e-10
3.45806e-10
3.51288e-10
3.73417e-10
9.96589e-09
1.26565e-08
1.54374e-08
1.81433e-08
2.06425e-08
2.28371e-08
2.46503e-08
2.6013e-08
2.68396e-08
2.70486e-08
2.65941e-08
2.54589e-08
2.36581e-08
2.12477e-08
1.83428e-08
1.51234e-08
1.18235e-08
8.69933e-09
5.98047e-09
3.82029e-09
2.26892e-09
1.2709e-09
7.03796e-10
4.28583e-10
3.25152e-10
3.00031e-10
3.07715e-10
3.27324e-10
9.7599e-09
1.2373e-08
1.50751e-08
1.76942e-08
2.00897e-08
2.21553e-08
2.381e-08
2.49855e-08
2.56094e-08
2.56154e-08
2.49742e-08
2.36852e-08
2.17792e-08
1.93317e-08
1.64746e-08
1.33955e-08
1.03211e-08
7.48233e-09
5.06989e-09
3.19669e-09
1.87905e-09
1.0451e-09
5.78746e-10
3.56912e-10
2.76637e-10
2.58854e-10
2.66148e-10
2.82883e-10
9.51568e-09
1.20374e-08
1.46481e-08
1.71716e-08
1.94601e-08
2.14001e-08
2.29072e-08
2.3914e-08
2.436e-08
2.41947e-08
2.34028e-08
2.19966e-08
2.00229e-08
1.75742e-08
1.47945e-08
1.18734e-08
9.0254e-09
6.45504e-09
4.31731e-09
2.69273e-09
1.56844e-09
8.67005e-10
4.80141e-10
2.99037e-10
2.34991e-10
2.21334e-10
2.27458e-10
2.41464e-10
9.24359e-09
1.16628e-08
1.41715e-08
1.65922e-08
1.87712e-08
2.05898e-08
2.19603e-08
2.2817e-08
2.31089e-08
2.28007e-08
2.18881e-08
2.03964e-08
1.83871e-08
1.59666e-08
1.32863e-08
1.05335e-08
7.90735e-09
5.5857e-09
3.69512e-09
2.28259e-09
1.31875e-09
7.24797e-10
4.00946e-10
2.51109e-10
1.9869e-10
1.8751e-10
1.9239e-10
2.03999e-10
8.953e-09
1.12609e-08
1.36595e-08
1.59714e-08
1.80396e-08
1.97408e-08
2.09852e-08
2.1709e-08
2.18688e-08
2.14422e-08
2.04352e-08
1.88856e-08
1.6868e-08
1.44989e-08
1.19338e-08
9.35398e-09
6.9413e-09
4.85001e-09
3.17791e-09
1.94626e-09
1.11606e-09
6.09815e-10
3.36304e-10
2.10764e-10
1.67017e-10
1.57485e-10
1.61276e-10
1.70842e-10
8.65215e-09
1.08427e-08
1.31248e-08
1.53233e-08
1.72796e-08
1.88675e-08
1.99954e-08
2.06014e-08
2.06487e-08
2.0125e-08
1.9047e-08
1.74634e-08
1.54601e-08
1.31609e-08
1.07217e-08
8.31518e-09
6.10552e-09
4.22615e-09
2.7454e-09
1.66831e-09
9.4996e-10
5.15782e-10
2.82901e-10
1.76555e-10
1.39512e-10
1.31188e-10
1.34076e-10
1.41911e-10
8.34811e-09
1.04173e-08
1.25784e-08
1.46603e-08
1.65043e-08
1.79825e-08
1.90022e-08
1.95035e-08
1.94552e-08
1.88535e-08
1.77248e-08
1.61279e-08
1.41576e-08
1.19421e-08
9.63535e-09
7.39898e-09
5.38279e-09
3.69452e-09
2.38146e-09
1.43684e-09
8.12613e-10
4.38138e-10
2.38428e-10
1.47513e-10
1.15774e-10
1.08395e-10
1.1054e-10
1.1691e-10
8.0468e-09
9.99282e-09
1.20303e-08
1.39932e-08
1.57249e-08
1.70965e-08
1.80153e-08
1.84232e-08
1.82937e-08
1.76306e-08
1.64689e-08
1.48763e-08
1.2954e-08
1.08326e-08
8.66153e-09
6.59108e-09
4.75587e-09
3.23932e-09
2.07332e-09
1.24266e-09
6.98124e-10
3.73521e-10
2.01198e-10
1.22897e-10
9.54203e-11
8.88047e-11
9.03375e-11
9.54657e-11
7.753e-09
9.57564e-09
1.14883e-08
1.33313e-08
1.49508e-08
1.62188e-08
1.70428e-08
1.73666e-08
1.71684e-08
1.64583e-08
1.52789e-08
1.37052e-08
1.18429e-08
9.82275e-09
7.78763e-09
5.87877e-09
4.21013e-09
2.84766e-09
1.81089e-09
1.07865e-09
6.01989e-10
3.19386e-10
1.69908e-10
1.02066e-10
7.80798e-11
7.21013e-11
7.31257e-11
7.72004e-11
7.47049e-09
9.17104e-09
1.09592e-08
1.26822e-08
1.41901e-08
1.53569e-08
1.60912e-08
1.63391e-08
1.60826e-08
1.53378e-08
1.41537e-08
1.26109e-08
1.0818e-08
8.90388e-09
7.00392e-09
5.24886e-09
3.73329e-09
2.5091e-09
1.58613e-09
9.39243e-10
5.2074e-10
2.73781e-10
1.4355e-10
8.44725e-11
6.34091e-11
5.79867e-11
5.85994e-11
6.17858e-11
7.2023e-09
8.78325e-09
1.04483e-08
1.20518e-08
1.34492e-08
1.4517e-08
1.5166e-08
1.53446e-08
1.50388e-08
1.42697e-08
1.30917e-08
1.15896e-08
9.87319e-09
8.06758e-09
6.3008e-09
4.69039e-09
3.31514e-09
2.2151e-09
1.39259e-09
8.20059e-10
4.51675e-10
2.35182e-10
1.21311e-10
6.96559e-11
5.10873e-11
4.6181e-11
4.65045e-11
4.89934e-11
6.95068e-09
8.41533e-09
9.95946e-09
1.14451e-08
1.27331e-08
1.3704e-08
1.42712e-08
1.43861e-08
1.40384e-08
1.32537e-08
1.20909e-08
1.06374e-08
9.00242e-09
7.30635e-09
5.66901e-09
4.19396e-09
2.94716e-09
1.95869e-09
1.22512e-09
7.17615e-10
3.9266e-10
2.02383e-10
1.02524e-10
5.72135e-11
4.07932e-11
3.6354e-11
3.6461e-11
3.83879e-11
6.71723e-09
8.06946e-09
9.49565e-09
1.08653e-08
1.20455e-08
1.29214e-08
1.34099e-08
1.34657e-08
1.30822e-08
1.22892e-08
1.11489e-08
9.75004e-09
8.20004e-09
6.61328e-09
5.10016e-09
3.75152e-09
2.62224e-09
1.73415e-09
1.07952e-09
6.29127e-10
3.41998e-10
1.74418e-10
8.66436e-11
4.67995e-11
3.22366e-11
2.81946e-11
2.80887e-11
2.95045e-11
6.50319e-09
7.74721e-09
9.05883e-09
1.03148e-08
1.1389e-08
1.21716e-08
1.25839e-08
1.25843e-08
1.21703e-08
1.1375e-08
1.02631e-08
8.92351e-09
7.46051e-09
5.9817e-09
4.58701e-09
3.35619e-09
2.33443e-09
1.53678e-09
9.52407e-10
5.52357e-10
2.98328e-10
1.50508e-10
7.32256e-11
3.81295e-11
2.52e-11
2.15225e-11
2.12498e-11
2.22487e-11
6.30947e-09
7.44959e-09
8.6502e-09
9.79514e-09
1.0765e-08
1.1456e-08
1.17941e-08
1.17424e-08
1.1302e-08
1.05093e-08
9.43051e-09
8.15359e-09
6.77847e-09
5.40536e-09
4.12331e-09
3.00211e-09
2.07873e-09
1.36269e-09
8.41018e-10
4.85493e-10
2.60549e-10
1.30017e-10
6.19006e-11
3.09678e-11
1.94986e-11
1.61902e-11
1.5831e-11
1.65321e-11
6.13681e-09
7.17726e-09
8.27041e-09
9.30686e-09
1.01741e-08
1.07749e-08
1.10407e-08
1.09394e-08
1.04761e-08
9.69009e-09
8.6481e-09
7.4361e-09
6.14878e-09
4.87831e-09
3.70366e-09
2.68429e-09
1.85095e-09
1.20869e-09
7.4309e-10
4.27068e-10
2.27772e-10
1.12428e-10
5.23539e-11
2.50915e-11
1.49399e-11
1.20063e-11
1.1614e-11
1.20968e-11
5.98595e-09
6.93063e-09
7.91966e-09
8.85003e-09
9.61628e-09
1.01279e-08
1.03228e-08
1.0174e-08
9.69087e-09
8.91477e-09
7.91252e-09
6.76696e-09
5.5667e-09
4.39549e-09
3.32294e-09
2.39839e-09
1.64757e-09
1.07208e-09
6.56764e-10
3.75886e-10
1.99278e-10
9.73169e-11
4.43218e-11
2.03015e-11
1.13346e-11
8.77637e-12
8.37965e-12
8.69835e-12
5.85776e-09
6.71015e-09
7.59799e-09
8.42431e-09
9.09075e-09
9.51414e-09
9.63912e-09
9.44459e-09
8.94394e-09
8.1806e-09
7.2204e-09
6.1422e-09
5.02779e-09
3.95232e-09
2.97632e-09
2.14072e-09
1.46556e-09
9.50634e-10
5.80492e-10
3.30964e-10
1.74481e-10
8.43453e-11
3.75936e-11
1.6438e-11
8.52747e-12
6.33284e-12
5.95171e-12
6.15117e-12
5.75356e-09
6.51654e-09
7.30551e-09
8.02925e-09
8.59656e-09
8.93203e-09
8.98775e-09
8.74882e-09
8.23281e-09
7.48461e-09
6.56834e-09
5.55801e-09
4.528e-09
3.54471e-09
2.66001e-09
1.90761e-09
1.30232e-09
8.42424e-10
5.12968e-10
2.91474e-10
1.52889e-10
7.32297e-11
3.19994e-11
1.33857e-11
6.43954e-12
4.53254e-12
4.18585e-12
4.3115e-12
5.67542e-09
6.35119e-09
7.04284e-09
7.6646e-09
8.13268e-09
8.37997e-09
8.3666e-09
8.08428e-09
7.55474e-09
6.82378e-09
5.95302e-09
5.01079e-09
4.06358e-09
3.169e-09
2.3707e-09
1.69592e-09
1.15544e-09
7.45799e-10
4.53063e-10
2.56693e-10
1.34061e-10
6.36985e-11
2.7353e-11
1.09855e-11
4.89791e-12
3.2289e-12
2.92584e-12
3.00805e-12
5.62684e-09
6.21672e-09
6.81151e-09
7.33079e-09
7.69849e-09
7.85648e-09
7.77361e-09
7.44858e-09
6.90708e-09
6.19526e-09
5.37134e-09
4.49722e-09
3.63112e-09
2.82189e-09
2.10544e-09
1.5032e-09
1.02261e-09
6.59219e-10
3.99792e-10
2.25988e-10
1.17599e-10
5.54987e-11
2.34751e-11
9.08616e-12
3.75077e-12
2.28837e-12
2.02518e-12
2.07751e-12
5.61352e-09
6.11784e-09
6.61485e-09
7.02957e-09
7.29427e-09
7.36069e-09
7.20718e-09
6.83967e-09
6.28755e-09
5.59653e-09
4.82054e-09
4.01436e-09
3.22757e-09
2.50046e-09
1.8616e-09
1.32728e-09
9.02171e-10
5.81213e-10
3.52222e-10
1.98799e-10
1.03157e-10
4.84116e-11
2.02177e-11
7.57304e-12
2.89539e-12
1.61061e-12
1.37756e-12
1.40633e-12
5.64468e-09
6.06261e-09
6.45906e-09
6.76495e-09
6.92199e-09
6.893e-09
6.66667e-09
6.25637e-09
5.69463e-09
5.02578e-09
4.29852e-09
3.55979e-09
2.85037e-09
2.20213e-09
1.63686e-09
1.16622e-09
7.92609e-10
5.10701e-10
3.09498e-10
1.74595e-10
9.04366e-11
4.22562e-11
1.74652e-11
6.36289e-12
2.26263e-12
1.13078e-12
9.17304e-13
9.22387e-13
5.73557e-09
6.06459e-09
6.3549e-09
6.54448e-09
6.58623e-09
6.45578e-09
6.15309e-09
5.69888e-09
5.12802e-09
4.48225e-09
3.80401e-09
3.1318e-09
2.49745e-09
1.92476e-09
1.42919e-09
1.0183e-09
6.92587e-10
4.46721e-10
2.70977e-10
1.52924e-10
7.91566e-11
3.68835e-11
1.51275e-11
5.39546e-12
1.80813e-12
8.17e-13
6.28065e-13
6.23043e-13
5.91098e-09
6.14583e-09
6.31999e-09
6.38079e-09
6.29527e-09
6.05413e-09
5.66959e-09
5.16926e-09
4.58901e-09
3.96656e-09
3.33689e-09
2.72955e-09
2.16746e-09
1.66669e-09
1.23691e-09
8.82006e-10
6.00912e-10
3.8841e-10
2.36086e-10
1.33431e-10
6.90992e-11
3.21585e-11
1.31308e-11
4.62332e-12
1.49554e-12
6.37814e-13
4.81503e-13
4.80828e-13
6.2103e-09
6.34106e-09
6.38154e-09
6.29323e-09
6.0619e-09
5.6964e-09
5.22185e-09
4.67167e-09
4.08074e-09
3.48084e-09
2.89831e-09
2.35326e-09
1.85983e-09
1.42687e-09
1.05875e-09
7.56128e-10
5.16558e-10
3.35006e-10
2.04313e-10
1.15803e-10
6.00831e-11
2.79788e-11
1.14122e-11
4.00538e-12
1.28998e-12
5.53583e-13
4.26804e-13
4.32274e-13
6.69478e-09
6.70294e-09
6.57925e-09
6.30892e-09
5.90357e-09
5.39382e-09
4.81772e-09
4.2121e-09
3.60791e-09
3.02865e-09
2.49062e-09
2.00415e-09
1.57486e-09
1.20491e-09
8.93948e-10
6.39759e-10
4.38693e-10
2.85852e-10
1.75205e-10
9.97581e-11
5.19487e-11
2.42574e-11
9.92237e-12
3.5087e-12
1.1637e-12
5.34763e-13
4.29576e-13
4.37411e-13
7.45554e-09
7.30472e-09
6.96645e-09
6.46202e-09
5.84064e-09
5.15884e-09
4.46568e-09
3.79711e-09
3.17589e-09
2.61423e-09
2.11696e-09
1.68425e-09
1.3136e-09
1.00111e-09
7.42271e-10
5.32394e-10
3.66728e-10
2.40426e-10
1.48373e-10
8.50487e-11
4.45544e-11
2.09186e-11
8.62014e-12
3.10818e-12
1.09944e-12
5.69862e-13
4.8546e-13
4.97683e-13
8.6211e-09
8.23906e-09
7.60036e-09
6.78591e-09
5.89214e-09
5.00149e-09
4.17213e-09
3.43179e-09
2.78911e-09
2.2414e-09
1.78038e-09
1.39585e-09
1.07759e-09
8.16336e-10
6.0406e-10
4.33981e-10
3.0039e-10
1.98382e-10
1.23516e-10
7.1463e-11
3.77747e-11
1.78955e-11
7.47016e-12
2.783e-12
1.08352e-12
6.51363e-13
5.95249e-13
6.21314e-13
1.03617e-08
9.61365e-09
8.53457e-09
7.29833e-09
6.06055e-09
4.92375e-09
3.93782e-09
3.11724e-09
2.44931e-09
1.9122e-09
1.48293e-09
1.14078e-09
8.68373e-10
6.51781e-10
4.80106e-10
3.44928e-10
2.3977e-10
1.59616e-10
1.00454e-10
5.88402e-11
3.15027e-11
1.51284e-11
6.4403e-12
2.5128e-12
1.09845e-12
7.59307e-13
7.34853e-13
7.78934e-13
1.28781e-08
1.1535e-08
9.80695e-09
7.99996e-09
6.33143e-09
4.90832e-09
3.75443e-09
2.84873e-09
2.15424e-09
1.62594e-09
1.22482e-09
9.19772e-10
6.86949e-10
5.08529e-10
3.71403e-10
2.65995e-10
1.85324e-10
1.24299e-10
7.91758e-11
4.70963e-11
2.56577e-11
1.25645e-11
5.49993e-12
2.27735e-12
1.12611e-12
8.67559e-13
8.70937e-13
9.30781e-13
1.63715e-08
1.40781e-08
1.1417e-08
8.85965e-09
6.66974e-09
4.9264e-09
3.59963e-09
2.61567e-09
1.89773e-09
1.37918e-09
1.00423e-09
7.3209e-10
5.33361e-10
3.87145e-10
2.78789e-10
1.98052e-10
1.37761e-10
9.28785e-11
5.98729e-11
3.62579e-11
2.02026e-11
1.01626e-11
4.61892e-12
2.05457e-12
1.14875e-12
9.54189e-13
9.78181e-13
1.04833e-12
2.09997e-08
1.72598e-08
1.33119e-08
9.80876e-09
7.01727e-09
4.93722e-09
3.44734e-09
2.40088e-09
1.67132e-09
1.16673e-09
8.17821e-10
5.75677e-10
4.06549e-10
2.87363e-10
2.02574e-10
1.4174e-10
9.78023e-11
6.59561e-11
4.29225e-11
2.64872e-11
1.51679e-11
7.90527e-12
3.77269e-12
1.81975e-12
1.13733e-12
1.00521e-12
1.04581e-12
1.12255e-12
2.6851e-08
2.1032e-08
1.53872e-08
1.07449e-08
7.29804e-09
4.89274e-09
3.27012e-09
2.18889e-09
1.46666e-09
9.83305e-10
6.61727e-10
4.47654e-10
3.04529e-10
2.08018e-10
1.42301e-10
9.71473e-11
6.58746e-11
4.40676e-11
2.8781e-11
1.80643e-11
1.06698e-11
5.81743e-12
2.95664e-12
1.56347e-12
1.08401e-12
1.01105e-12
1.06784e-12
1.15096e-12
3.39737e-08
2.53019e-08
1.74954e-08
1.15398e-08
7.4278e-09
4.74639e-09
3.04523e-09
1.96905e-09
1.2768e-09
8.24951e-10
5.3237e-10
3.44884e-10
2.24731e-10
1.47187e-10
9.67173e-11
6.36455e-11
4.18537e-11
2.74209e-11
1.77898e-11
1.12946e-11
6.89183e-12
3.9715e-12
2.18696e-12
1.28356e-12
9.80721e-13
9.58013e-13
1.027e-12
1.11409e-12
4.24683e-08
2.99538e-08
1.94455e-08
1.20468e-08
7.32697e-09
4.46498e-09
2.76223e-09
1.73913e-09
1.09988e-09
6.88809e-10
4.26781e-10
2.64334e-10
1.6434e-10
1.02457e-10
6.39356e-11
3.99283e-11
2.49907e-11
1.57304e-11
9.98071e-12
6.35761e-12
4.01482e-12
2.47619e-12
1.50608e-12
9.89928e-13
8.2395e-13
8.33464e-13
8.98542e-13
9.74361e-13
5.26082e-08
3.48284e-08
2.09814e-08
1.21104e-08
6.94153e-09
4.04432e-09
2.43103e-09
1.50827e-09
9.38514e-10
5.72163e-10
3.42325e-10
2.03208e-10
1.20539e-10
7.11957e-11
4.16992e-11
2.42316e-11
1.40432e-11
8.24082e-12
4.99988e-12
3.18004e-12
2.11015e-12
1.42975e-12
9.79858e-13
7.14645e-13
6.27833e-13
6.48969e-13
6.96712e-13
7.48999e-13
6.49297e-08
3.9614e-08
2.17532e-08
1.16026e-08
6.27878e-09
3.5271e-09
2.0871e-09
1.29782e-09
7.99136e-10
4.73999e-10
2.75237e-10
1.58688e-10
9.07e-11
5.0787e-11
2.76589e-11
1.46214e-11
7.53556e-12
3.91844e-12
2.20252e-12
1.43124e-12
1.07014e-12
8.48095e-13
6.64163e-13
5.10695e-13
4.29598e-13
4.38623e-13
4.66576e-13
4.9394e-13
8.01715e-08
4.36377e-08
2.13582e-08
1.05202e-08
5.4558e-09
3.01189e-09
1.78699e-09
1.13713e-09
6.89576e-10
3.95719e-10
2.25013e-10
1.27878e-10
7.14629e-11
3.84811e-11
1.96044e-11
9.26303e-12
4.03138e-12
1.70049e-12
8.52297e-13
6.47652e-13
6.46171e-13
6.34284e-13
5.53057e-13
4.19311e-13
2.92113e-13
2.46518e-13
2.53123e-13
2.59597e-13
9.86793e-08
4.57364e-08
1.96364e-08
9.15467e-09
4.71928e-09
2.62921e-09
1.58693e-09
1.05218e-09
6.15137e-10
3.4161e-10
1.94129e-10
1.10631e-10
6.10274e-11
3.17783e-11
1.52467e-11
6.50743e-12
2.34378e-12
6.97076e-13
3.08725e-13
3.93922e-13
5.491e-13
6.14837e-13
5.5639e-13
4.09301e-13
2.42244e-13
1.24327e-13
9.72187e-14
9.45059e-14
1.18739e-07
4.50447e-08
1.7363e-08
8.15568e-09
4.34298e-09
2.46978e-09
1.5117e-09
1.04851e-09
5.76508e-10
3.16959e-10
1.83483e-10
1.05291e-10
5.74788e-11
2.91939e-11
1.34106e-11
5.28009e-12
1.58946e-12
2.97439e-13
1.31061e-13
3.52307e-13
5.77427e-13
6.66689e-13
6.01514e-13
4.31372e-13
2.38246e-13
9.26139e-14
2.50802e-14
1.87262e-14
1.35858e-07
4.36761e-08
1.63834e-08
8.04839e-09
4.39599e-09
2.52215e-09
1.54819e-09
1.10211e-09
5.76043e-10
3.21639e-10
1.88765e-10
1.08413e-10
5.8756e-11
2.94822e-11
1.3278e-11
5.03087e-12
1.3676e-12
1.609e-13
8.28536e-14
3.71001e-13
6.3063e-13
7.2904e-13
6.53739e-13
4.62162e-13
2.47554e-13
8.91717e-14
1.59317e-14
1.35934e-15
7.95996e-12
8.89232e-12
1.19606e-11
1.85316e-11
3.31297e-11
6.31936e-11
1.17987e-10
2.0588e-10
3.32792e-10
5.03324e-10
7.23313e-10
1.00197e-09
2.00021e-11
2.07083e-11
2.43841e-11
3.27573e-11
5.11268e-11
9.02299e-11
1.6398e-10
2.86745e-10
4.69704e-10
7.20167e-10
1.04448e-09
1.45194e-09
4.05961e-11
4.05013e-11
4.43208e-11
5.42458e-11
7.64325e-11
1.25127e-10
2.1925e-10
3.80412e-10
6.27328e-10
9.72114e-10
1.42196e-09
1.98467e-09
7.20203e-11
7.03006e-11
7.35668e-11
8.46645e-11
1.1085e-10
1.69553e-10
2.84802e-10
4.86173e-10
8.01815e-10
1.25096e-09
1.84262e-09
2.58167e-09
1.15913e-10
1.11542e-10
1.13502e-10
1.25709e-10
1.56876e-10
2.25647e-10
3.61971e-10
6.03567e-10
9.89311e-10
1.54767e-09
2.29082e-09
3.21981e-09
1.72708e-10
1.64602e-10
1.64981e-10
1.79163e-10
2.16506e-10
2.95632e-10
4.52214e-10
7.32232e-10
1.18612e-09
1.85323e-09
2.75033e-09
3.87431e-09
2.41238e-10
2.28619e-10
2.29131e-10
2.48136e-10
2.93236e-10
3.82473e-10
5.57143e-10
8.71741e-10
1.38867e-09
2.15909e-09
3.20566e-09
4.52121e-09
3.16053e-10
3.02349e-10
3.11216e-10
3.4029e-10
3.93394e-10
4.90239e-10
6.78197e-10
1.02118e-09
1.59325e-09
2.4574e-09
3.6429e-09
5.13908e-09
3.98089e-10
4.00926e-10
4.35347e-10
4.74412e-10
5.26938e-10
6.23481e-10
8.155e-10
1.17835e-09
1.7956e-09
2.74089e-09
4.05015e-09
5.70993e-09
5.6626e-10
6.20272e-10
6.70456e-10
6.82594e-10
7.03485e-10
7.80525e-10
9.65275e-10
1.33884e-09
1.99065e-09
3.00288e-09
4.41766e-09
6.21967e-09
1.21286e-09
1.11572e-09
1.00212e-09
9.21658e-10
8.93061e-10
9.4382e-10
1.11749e-09
1.4957e-09
2.17267e-09
3.23747e-09
4.73804e-09
6.65824e-09
1.41092e-09
1.26327e-09
1.15731e-09
1.0803e-09
1.04603e-09
1.08939e-09
1.2601e-09
1.64138e-09
2.33629e-09
3.44009e-09
5.00636e-09
7.01948e-09
1.21537e-09
1.18936e-09
1.17347e-09
1.15338e-09
1.14973e-09
1.20674e-09
1.38426e-09
1.7704e-09
2.47784e-09
3.60807e-09
5.22037e-09
7.30097e-09
1.22696e-09
1.18846e-09
1.19171e-09
1.20482e-09
1.22983e-09
1.30456e-09
1.49165e-09
1.88241e-09
2.59672e-09
3.74124e-09
5.3805e-09
7.50369e-09
1.39217e-09
1.31888e-09