/*--------------------------------*- C++ -*----------------------------------*\
| =========                 |                                                 |
| \\      /  F ield         | OpenFOAM: The Open Source CFD Toolbox           |
|  \\    /   O peration     | Version:  v2012                                 |
|   \\  /    A nd           | Website:  www.openfoam.com                      |
|    \\/     M anipulation  |                                                 |
\*---------------------------------------------------------------------------*/
FoamFile
{
    version     2.0;
    format      ascii;
    class       volScalarField;
    location    "5000";
    object      omega;
}
// * * * * * * * * * * * * * * * * * * * * * * * * * * * * * * * * * * * * * //

dimensions      [0 0 -1 0 0 0 0];


internalField   nonuniform List<scalar> 
6036
(
16000
16000
16000
16000
16000
16000
16000
16000
16000
16000
16000
16000
16000
16000
16000
16000
16000
16000
16000.1
16000.1
2662.95
2659.37
2656.13
2653.52
2651.52
2650.04
2648.99
2648.29
2647.86
2647.65
2647.86
2649.09
2652.29
2656.61
2665.29
2682.48
2714.55
2768.15
2814.04
2522.87
908.639
904.157
900.204
897.072
894.753
893.173
892.298
892.141
892.612
893.183
895.363
902.913
923.232
930.107
939.298
953.751
972.98
986.199
941.281
653.594
454.318
450.478
447.081
444.481
442.744
441.937
442.359
444.774
449.691
451.116
453.074
456.936
463.043
467.536
472.746
478.125
479.252
462.918
395.947
217.201
309.88
308.692
307.029
305.665
304.847
304.665
305.216
306.551
308.358
309.582
311.136
313.385
316.077
318.194
319.382
317.577
307.696
279.481
215.846
102.959
295.527
300.165
301.527
301.946
302.308
302.929
304.012
305.697
307.773
309.178
310.826
313.142
315.911
318.081
319.303
317.517
307.65
279.447
215.825
102.952
410.851
427.053
432.15
434.409
435.875
437.23
439.056
442.313
448.046
450.065
452.282
456.345
462.652
467.275
472.566
477.994
479.154
462.847
395.902
217.183
830.562
870.944
880.119
883.744
885.774
887.132
888.237
889.405
890.789
891.935
894.395
902.08
922.73
929.781
939.077
953.595
972.867
986.118
941.226
653.568
2546.73
2627.82
2638.21
2641.85
2643.75
2644.86
2645.55
2646.03
2646.39
2646.69
2647.18
2648.44
2651.86
2656.34
2665.11
2682.35
2714.45
2768.08
2813.99
2522.85
16000
16000
16000
16000
16000
16000
16000
16000
16000
16000
16000
16000
16000
16000
16000
16000
16000
16000
16000.1
16000.1
16000
16000
16000
16000
16000
16000
16000
16000
16000
16000
16000
16000
16000
16000
16000
16000
16000
16000
16000
16000
16000
16000
16000
16000
16000
16000
16000
16000
2646.97
2647.08
2647.22
2647.38
2647.54
2647.62
2647.37
2646.02
2645.47
2649.72
2657.29
2652.84
2651.89
2652.25
2653.03
2654.08
2655.35
2656.83
2658.54
2660.45
2662.51
2664.65
2666.71
2668.47
2669.62
2669.83
2668.75
2666.32
886.869
886.826
886.977
887.211
887.481
887.742
887.889
887.751
887.943
890.344
893.487
893.386
893.782
894.749
896.088
897.736
899.667
901.876
904.352
907.054
909.888
912.71
915.294
917.326
918.424
918.2
916.371
912.99
423.442
422.64
422.592
422.816
423.168
423.597
424.069
424.549
425.207
426.604
428.405
429.554
430.768
432.259
434.062
436.182
438.617
441.357
444.373
447.6
450.927
454.191
457.171
459.587
461.117
461.449
460.353
457.842
248.411
248.136
248.292
248.657
249.146
249.731
250.406
251.17
252.093
253.35
254.869
256.352
257.958
259.795
261.918
264.352
267.113
270.209
273.634
277.366
281.366
285.578
289.939
294.367
298.757
302.934
306.569
309.124
163.238
163.243
163.531
163.997
164.59
165.295
166.11
167.046
168.137
169.447
170.969
172.63
174.472
176.555
178.926
181.624
184.686
188.156
192.091
196.574
201.74
207.804
215.099
224.082
235.29
249.117
265.319
282.322
116.075
116.218
116.593
117.135
117.811
118.609
119.531
120.588
121.801
123.2
124.798
126.584
128.585
130.845
133.412
136.341
139.706
143.609
148.212
153.777
160.726
169.744
181.9
198.781
222.6
255.959
300.622
357.053
87.5463
87.7404
88.1644
88.7617
89.5015
90.3721
91.3749
92.5199
93.8224
95.3021
96.9744
98.852
100.963
103.35
106.071
109.207
112.875
117.255
122.642
129.513
138.66
151.4
169.94
197.843
241.154
310.921
424.13
601.381
69.1589
69.3488
69.7915
70.4228
71.2079
72.132
73.1938
74.4001
75.7633
77.299
79.0243
80.9599
83.1388
85.6104
88.4466
91.7537
95.6946
100.526
106.665
114.794
126.057
142.405
167.587
208.484
279.007
409.663
672.193
1248.48
56.7326
56.8817
57.3185
57.9645
58.7769
59.7355
60.8346
62.078
63.4751
65.0395
66.7892
68.7492
70.9572
73.4701
76.3726
79.7929
83.9286
89.0902
95.7754
104.803
117.563
136.971
167.929
220.911
320.898
537.519
1111.3
3196.85
16000
16000
16000
16000
16000
16000
16000
16000
16000
16000
16000
16000
10240
3106.8
2683.05
2650.34
2646.87
2646.66
2648.89
2680.55
2650.53
2647.24
2646.92
2646.91
10240
1883.27
1037.18
914.275
893.198
890.149
897.485
919.183
913.996
891.392
888.395
887.371
10240
1724.51
692.457
496.85
448.485
437.629
436.835
440.928
439.252
433.322
430.963
426.482
10240
1699.94
605.38
361.144
288.386
265.221
258.034
256.477
254.879
252.567
251.155
249.508
10240
1695.2
581.03
311.346
221.062
187.596
174.685
169.648
167.137
165.447
164.426
163.65
10240
1694.29
575.539
292.327
190.617
149.292
131.511
123.596
119.812
117.827
116.788
116.246
10240
1694.98
583.591
285.748
176.169
129.235
107.61
97.2541
92.1315
89.5337
88.2434
87.6697
10240
1696.75
582.911
281.83
168.531
118.107
93.6969
81.3722
75.0119
71.7158
70.063
69.3327
10240
1693.92
573.122
277.781
163.804
111.505
85.22
71.3912
63.9731
60.0028
57.9524
57.0087
47.7465
47.8292
48.2396
48.8827
49.7054
50.6804
51.7969
53.0548
54.4607
56.0268
57.7715
59.722
61.9199
64.4274
67.3377
70.7914
75.0024
80.3019
87.2061
96.7119
110.581
131.754
166.001
226.478
348.92
658.121
1794.18
10240
41.1945
41.1948
41.5632
42.1883
43.0059
43.9807
45.0963
46.3484
47.7407
49.2838
50.9958
52.9046
55.0528
57.5042
60.353
63.7391
67.8714
73.082
80.0281
89.7339
103.819
125.188
159.643
220.342
342.714
649.343
1769.79
10240
36.4119
36.3208
36.6344
37.2267
38.0226
38.9793
40.0744
41.2995
42.6553
44.1505
45.8018
47.6362
49.6949
52.0383
54.7549
57.9727
61.9193
67.006
73.8456
83.3482
97.0427
117.736
151.095
210.052
329.478
632.372
1742.41
10240
32.8317
32.6448
32.8939
33.441
34.2011
35.1239
36.1817
37.3617
38.6617
40.0879
41.6549
43.3871
45.3218
47.5131
50.0402
53.0606
56.8356
61.7371
68.3024
77.3758
90.4122
110.085
141.693
197.72
313.068
610.14
1709.19
10240
30.0894
29.805
29.9827
30.4744
31.1865
32.0623
33.0686
34.1887
35.4171
36.7574
38.2213
39.8295
41.6136
43.6241
45.9691
48.8186
52.4059
57.0602
63.2741
71.8522
84.1737
102.696
132.615
186.481
298.92
590.124
1697.36
10240
27.944
27.562
27.6632
28.0912
28.7456
29.5634
30.5068
31.5553
32.7002
33.9419
35.2889
36.7575
38.3802
40.2305
42.4213
45.1043
48.4892
52.8763
58.7386
66.8453
78.4641
96.0211
124.87
177.603
288.648
575.78
1694.52
10240
26.2324
25.7535
25.7744
26.1323
26.7211
27.4725
28.3444
29.3126
30.3653
31.4998
32.7213
34.0495
35.5337
37.2499
39.2993
41.8208
45.0048
49.1431
54.693
62.3693
73.4048
90.3789
118.738
171.219
282.446
570.526
1693.78
10240
24.8423
24.2676
24.2054
24.4885
25.0057
25.6844
26.4785
27.3604
28.3153
29.3381
30.4381
31.647
33.016
34.6138
36.5341
38.9031
41.9075
45.8329
51.1113
58.4173
69.0963
85.7974
114.056
166.733
278.665
568.58
1693.29
10240
23.6951
23.0258
22.8788
23.0836
23.5251
24.1267
24.8389
25.631
26.4859
27.4026
28.399
29.5085
30.7779
32.2711
34.0739
36.3098
39.1642
42.9111
47.9495
55.0187
65.5232
82.1578
110.502
163.433
275.768
567.629
1692.89
10240
22.7353
21.9727
21.7399
21.8642
22.2273
22.7494
23.3777
24.0788
24.8391
25.6641
26.5734
27.5982
28.7812
30.1816
31.8832
34.0097
36.7415
40.3319
45.2041
52.1537
62.6142
79.3039
107.79
160.786
272.278
566.73
1692.63
10240
21.9231
21.0685
20.7498
20.7925
21.0761
21.5181
22.0623
22.6766
23.3533
24.1001
24.9356
25.887
26.9948
28.3158
29.9345
31.9731
34.6009
38.0712
42.8566
49.7752
60.2809
77.1029
105.784
158.913
270.032
566.111
1692.5
10240
21.2298
20.2848
19.8804
19.8417
20.0463
20.4094
20.8724
21.4077
22.0117
22.6917
23.463
24.3512
25.3944
26.6502
28.2029
30.1691
32.7101
36.1137
40.8736
47.8243
58.4334
75.4358
104.362
157.765
268.87
565.816
1692.56
10240
20.6343
19.6005
19.1116
18.9925
19.1199
19.4077
19.7956
20.2598
20.8002
21.4215
22.1375
22.9711
23.9607
25.1643
26.6636
28.5675
31.0546
34.4352
39.2147
46.2393
56.9856
74.1917
103.384
157.098
268.374
565.875
1693.31
10240
20.1209
19.0001
18.4283
18.2307
18.2839
18.5011
18.8226
19.2219
19.7054
20.2759
20.9432
21.7305
22.6766
23.8382
25.2919
27.1513
29.6163
33.0068
37.8373
44.9615
55.8608
73.2748
102.733
156.678
268.191
566.228
1696.46
10240
19.6775
18.472
17.8194
17.5458
17.528
17.6796
17.9415
18.2851
18.7172
19.2415
19.8667
20.6155
21.5261
22.6523
24.0694
25.907
28.3745
31.7986
36.7003
43.9373
54.9928
72.6037
102.289
156.385
268.043
565.888
1694.41
10240
19.2945
18.0069
17.276
16.9291
16.8439
16.9344
17.1427
17.4371
17.8237
18.3073
18.8963
19.6131
20.4938
21.5898
22.9849
24.8193
27.3075
30.7814
35.7657
43.1204
54.328
72.1243
101.955
156.178
267.941
565.695
1693.23
10240
18.9642
17.5974
16.791
16.3739
16.2247
16.2582
16.4174
16.6686
17.0152
17.4633
18.0215
18.7109
19.5656
20.6397
22.0272
23.8724
26.3942
29.9277
34.9997
42.4703
53.8204
71.7615
101.698
156.015
267.83
565.638
1693.02
10240
18.6801
17.2374
16.3585
15.8743
15.6645
15.6447
15.7582
15.9716
16.2832
16.7006
17.232
17.8973
18.7308
19.7937
21.1846
23.0511
25.6148
29.2129
34.3729
41.9536
53.4311
71.4705
101.495
155.882
267.73
565.606
1692.98
10240
18.4365
16.9215
15.9735
15.4254
15.1581
15.0881
15.1595
15.3389
15.6201
16.0105
16.5183
17.1629
17.9824
19.043
20.4457
22.3407
24.9513
28.6158
33.8614
41.5454
53.1156
71.2354
101.331
155.771
267.652
565.579
1692.96
10240
18.2284
16.645
15.6314
15.0225
14.7009
14.5838
14.6159
14.7642
15.0187
15.3854
15.8725
16.5011
17.3138
18.3791
19.7999
21.728
24.388
28.1182
33.4451
41.2151
52.8574
71.0437
101.193
155.67
267.593
565.559
1692.95
10240
18.0514
16.4037
15.328
14.6618
14.2888
14.1273
14.1227
14.2422
14.4728
14.8186
15.2884
15.9067
16.7184
17.7937
19.2371
21.2014
23.9114
27.7051
33.1068
40.9418
52.6464
70.8878
101.077
155.558
267.547
565.549
1692.94
10240
17.9015
16.1936
15.0596
14.3393
13.918
13.7148
13.6758
13.7681
13.9773
14.3049
14.7617
15.3746
16.19
17.2795
18.7485
20.7503
23.51
27.3649
32.8255
40.7174
52.4765
70.7649
100.985
155.457
267.519
565.55
1692.95
10240
17.7747
16.0109
14.8226
14.0517
13.585
13.3429
13.2716
13.3384
13.528
13.8406
14.2885
14.9
15.7229
16.8295
18.3259
20.3657
23.1738
27.082
32.5928
40.5354
52.3429
70.6744
100.928
155.417
267.514
565.561
1692.96
10240
17.6674
15.8523
14.6136
13.7955
13.2865
13.0081
12.9068
12.9501
13.1222
13.4227
13.865
14.4785
15.3115
16.4373
17.9621
20.0396
22.8935
26.8457
32.402
40.3901
52.2413
70.6137
100.907
155.447
267.533
565.579
1692.98
10240
17.5761
15.7142
14.4292
13.5676
13.0196
12.7075
12.5787
12.6004
12.7572
13.0483
13.4878
14.1057
14.9509
16.0972
17.6508
19.7653
22.6583
26.6504
32.2478
40.2767
52.1671
70.5774
100.912
155.514
267.568
565.603
1692.99
10240
17.4975
15.5934
14.2665
13.3651
12.7812
12.4383
12.2843
12.2869
12.4304
12.7145
13.1535
13.7778
14.6367
15.8041
17.3862
19.5354
22.4625
26.4911
32.1257
40.1909
52.1158
70.559
100.927
155.575
267.607
565.629
1693.01
10240
17.4284
15.487
14.1223
13.185
12.5687
12.1979
12.0213
12.0069
12.1395
12.4186
12.8589
13.4911
14.3648
15.5536
17.1637
19.3428
22.3019
26.3638
32.0318
40.1293
52.0842
70.5544
100.947
155.617
267.647
565.657
1693.03
10240
17.366
15.392
13.9939
13.0247
12.3794
11.9838
11.7873
11.7583
11.8819
12.158
12.6013
13.2426
14.1315
15.3415
16.978
19.1843
22.1729
26.2653
31.9634
40.0895
52.0704
70.5631
100.974
155.658
267.693
565.687
1693.05
10240
17.3075
15.3056
13.8787
12.8816
12.211
11.7937
11.5799
11.5388
11.6555
11.9303
12.378
13.0293
13.9338
15.1643
16.825
19.0569
22.0727
26.1929
31.9182
40.0699
52.0738
70.5858
101.012
155.705
267.748
565.72
1693.06
10240
17.2502
15.2255
13.7743
12.7535
12.0611
11.6254
11.3973
11.3464
11.4584
11.7336
12.1869
12.8489
13.7688
15.0192
16.702
18.9579
21.999
26.1447
31.8948
40.0699
52.0947
70.6246
101.065
155.768
267.822
565.758
1693.08
10240
17.1921
15.1493
13.6785
12.6382
11.928
11.4772
11.2377
11.1796
11.2889
11.5662
12.0262
12.6995
13.6346
14.9037
16.6073
18.8857
21.95
26.1191
31.8922
40.0892
52.1345
70.683
101.14
155.858
267.929
565.806
1693.1
10240
17.1309
15.0752
13.5895
12.5341
11.81
11.3477
11.0998
11.0371
11.146
11.4269
11.8948
12.5796
13.5297
14.8162
16.5394
18.8387
21.9245
26.1152
31.9098
40.1281
52.195
70.7663
101.248
155.995
268.106
565.873
1693.13
10240
17.0651
15.0015
13.5058
12.4398
11.706
11.2359
10.9829
10.9183
11.0289
11.3152
11.792
12.4889
13.4536
14.7563
16.4977
18.8162
21.9217
26.1323
31.9471
40.1869
52.2785
70.881
101.406
156.217
268.427
565.977
1693.15
10240
16.9932
14.927
13.4263
12.3546
11.6154
11.1414
10.8867
10.8232
10.9379
11.2314
11.7182
12.4276
13.4066
14.7246
16.4818
18.8179
21.9412
26.1698
32.0036
40.2653
52.3858
71.0328
101.635
156.589
269.069
566.154
1693.19
10240
16.9146
14.8511
13.3508
12.2783
11.5384
11.0646
10.8119
10.7527
10.874
11.1766
11.6747
12.3971
13.3902
14.7224
16.4931
18.8446
21.9832
26.2274
32.0783
40.3615
52.5147
71.2205
101.945
157.187
270.4
566.46
1693.24
10240
16.8288
14.774
13.2797
12.2118
11.4761
11.0072
10.7605
10.709
10.8398
11.1536
11.6642
12.4002
13.407
14.7524
16.535
18.8976
22.0488
26.3053
32.1702
40.4725
52.6576
71.4277
102.305
157.977
272.715
566.896
1693.29
10240
16.7365
14.6966
13.2144
12.157
11.4311
10.972
10.7358
10.6958
10.8392
11.1666
11.6913
12.4414
13.4616
14.8191
16.6115
18.9815
22.14
26.4047
32.2788
40.5945
52.8041
71.6244
102.614
158.564
274.054
567.202
1693.34
10240
16.6394
14.6213
13.158
12.1175
11.4076
10.9639
10.7434
10.7193
10.8789
11.2224
11.763
12.5278
13.561
14.929
16.729
19.103
22.2622
26.5284
32.405
40.726
52.948
71.7953
102.839
158.886
274.492
567.357
1693.37
10240
16.5407
14.5521
13.1154
12.0993
11.4123
10.9908
10.7917
10.7885
10.9685
11.3313
11.8896
12.6698
13.7154
15.092
16.8963
19.2702
22.4249
26.6828
32.5525
40.8688
53.0899
71.9433
103.002
159.069
274.676
567.458
1693.4
10240
16.4454
14.4955
13.0944
12.1114
11.4557
11.0639
10.8931
10.9169
11.122
11.5077
12.086
12.8823
13.9395
15.3223
17.127
19.4952
22.6385
26.8802
32.7301
41.0283
53.2354
72.0787
103.132
159.194
274.79
567.562
1693.42
10240
16.362
14.4615
13.1066
12.1672
11.5526
11.1997
11.0656
11.1233
11.3594
11.7723
12.3731
13.1865
14.2541
15.6401
17.44
19.7955
22.9188
27.1339
32.9527
41.2174
53.393
72.2125
103.246
159.297
274.896
567.724
1693.45
10240
16.3031
14.4648
13.1692
12.2861
11.7249
11.422
11.3345
11.4349
11.7089
12.1542
12.7806
13.6119
14.6886
16.0739
17.8628
20.1968
23.2887
27.4641
33.237
41.4528
53.58
72.3549
103.358
159.392
275.006
567.972
1693.49
10240
16.2865
14.5269
13.307
12.4963
12.0034
11.7645
11.7359
11.8894
12.2097
12.6935
13.3494
14.1997
15.2838
16.6639
18.434
20.7356
23.7819
27.9004
33.6079
41.7541
53.8127
72.5249
103.475
159.475
275.092
568.164
1693.53
10240
16.3394
14.6791
13.5561
12.8379
12.4323
12.2747
12.3202
12.5397
12.9167
13.4464
14.1363
15.0071
16.0967
17.4661
19.2082
21.464
24.4471
28.4868
34.1033
42.1518
54.1128
72.7354
103.611
159.553
275.119
568.101
1693.54
10240
16.503
14.9667
13.9681
13.3685
13.0745
13.0198
13.1584
13.4596
13.9057
14.4905
15.2198
16.1129
17.2061
18.5586
20.262
22.4561
25.3546
29.2879
34.7802
42.6928
54.5154
73.0082
103.773
159.629
275.116
567.929
1693.54
10240
16.8419
15.4621
14.6187
14.1705
14.019
14.0948
14.3499
14.7523
15.2826
15.9334
16.7088
17.6267
18.7216
20.0506
21.7034
23.8178
26.6061
30.3993
35.7246
43.4502
55.0771
73.3803
103.978
159.703
275.097
567.786
1693.55
10240
17.4576
16.2814
15.6342
15.3708
15.3937
15.6346
16.0355
16.5628
17.1958
17.9256
18.7553
19.7012
20.7963
22.0954
23.6852
25.7
28.3492
31.962
37.067
44.5385
55.89
73.9147
104.253
159.764
275.02
567.687
1693.56
10240
18.5026
17.5987
17.2059
17.1745
17.4058
17.8348
18.4158
19.0974
19.8553
20.6799
21.5736
22.5521
23.647
24.9106
26.4254
28.3208
30.7997
34.1862
39.0064
46.1381
57.106
74.7225
104.651
159.769
274.703
567.558
1693.54
10240
20.2104
19.6732
19.6126
19.8747
20.3609
21.0096
21.784
22.6537
23.564
24.5024
25.4722
26.4895
27.5856
28.8101
30.2408
31.9988
34.277
37.3882
41.8494
48.5357
58.9784
76.0061
105.291
159.659
273.47
567.287
1693.5
10240
22.9476
22.9093
23.2846
23.9176
24.714
25.6201
26.6097
27.6717
28.7699
29.8462
30.9072
31.9722
33.0737
34.2598
35.602
37.2108
39.263
42.0515
46.0735
52.1902
61.9315
78.1368
106.479
159.648
271.042
566.885
1693.45
10240
27.3068
27.9591
28.9102
30.0102
31.1794
32.3811
33.6062
34.8644
36.1609
37.4059
38.5786
39.7045
40.8205
41.9753
43.2343
44.6934
46.5066
48.9345
52.4381
57.8473
66.6757
81.7695
108.838
160.62
270.513
566.767
1693.43
10240
34.2853
35.9177
37.6366
39.3214
40.9308
42.4615
43.9327
45.3805
46.8473
48.2991
49.6146
50.8224
51.9701
53.1116
54.3074
55.6361
57.2206
59.2719
62.1894
66.7464
74.4152
88.026
113.325
163.201
271.348
566.977
1693.44
10240
45.6484
48.7237
51.4789
53.8901
56.0058
57.8875
59.5983
61.2077
62.7984
64.4303
65.9451
67.2725
68.4834
69.648
70.8264
72.0761
73.4838
75.1837
77.4733
81.035
87.2697
98.9408
121.751
168.718
273.957
567.731
1693.52
10240
64.7432
70.056
74.2292
77.5268
80.2023
82.4356
84.355
86.0689
87.7011
89.3803
91.1322
92.6477
93.9809
95.2392
96.4931
97.771
99.1319
100.584
102.244
104.665
109.17
118.402
137.805
180.302
280.387
569.849
1693.76
10240
98.5382
107.563
113.691
118.03
121.281
123.828
125.892
127.629
129.206
130.769
132.439
134.216
135.787
137.285
138.813
140.328
141.942
143.421
144.5
145.562
147.966
154.313
169.344
205.326
296.687
576.096
1694.6
10240
163.509
179.185
187.961
193.417
197.169
199.924
202.029
203.701
205.145
206.477
207.768
209.085
210.565
212.634
214.938
217.105
219.724
221.975
222.571
221.674
221.176
224.372
234.348
261.731
340.938
596.522
1698.18
10240
306.106
334.508
346.565
352.953
356.963
359.725
361.731
363.248
364.501
365.559
366.466
367.299
368.168
369.269
370.925
374.596
380.505
385.947
386.197
381.116
374.811
374.922
379.828
396.667
458.089
670.753
1717.68
10240
694.694
747.639
762.585
769.165
772.963
775.435
777.156
778.404
779.387
780.146
780.758
781.279
781.756
782.252
782.899
784.204
788.139
806.979
807.041
787.948
784.709
784.57
786.117
792.362
821.168
979.565
1852.11
10240
2224.55
2315.1
2329.02
2334.24
2337.08
2338.83
2339.99
2340.8
2341.41
2341.85
2342.2
2342.49
2342.73
2342.94
2343.14
2343.4
2343.95
2345.91
2345.8
2344.13
2343.81
2343.83
2344.07
2344.95
2350.14
2396.87
2969.07
10240
14173
14173
14173
14173
14173
14173
14173
14173
14173
14173
14173
14173
14173
14173
14173
14173
14173
14173
14173
14173
14173
14173
14173
14173
14173
14173
14173
12206.5
10240
1693.09
567.938
274.382
160.46
107.187
79.6527
64.6839
56.3795
51.7893
49.3386
48.1554
10240
1692.78
566.053
270.008
157.772
104.227
75.9231
60.1313
51.122
45.9969
43.1739
41.7495
10240
1692.62
565.256
267.815
155.949
102.193
73.3904
57.0187
47.4727
41.9109
38.7632
37.1139
10240
1692.51
564.858
266.755
154.583
100.708
71.592
54.8156
44.8654
38.953
35.5286
33.6757
10240
1692.44
564.611
266.06
153.043
99.4977
70.2517
53.2036
42.9517
36.7599
33.1023
31.068
10240
1692.38
564.447
265.593
151.956
98.5645
69.231
51.9917
41.5129
35.0983
31.2445
29.049
10240
1692.34
564.341
265.289
151.275
97.8445
68.4334
51.0578
40.4077
33.8149
29.7951
27.4562
10240
1692.3
564.278
265.084
150.795
97.1935
67.7756
50.3191
39.543
32.807
28.6458
26.1781
10240
1692.17
564.228
264.928
150.4
96.4406
67.2004
49.7226
38.8572
32.0053
27.7219
25.1372
10240
1691.79
564.088
264.778
150.103
95.9041
66.7381
49.2448
38.3114
31.3627
26.9714
24.2789
10240
1692.21
564.077
264.676
149.91
95.568
66.3639
48.8655
37.8787
30.8466
26.3578
23.5645
10240
1692.44
564.111
264.639
149.807
95.3601
66.03
48.5675
37.5405
30.4338
25.8546
22.9658
10240
1692.3
564.097
264.635
149.769
95.2483
65.8084
48.3543
37.2849
30.1075
25.4427
22.4622
10240
1692.25
564.116
264.671
149.784
95.2115
65.691
48.2182
37.101
29.8541
25.107
22.0381
10240
1692.27
564.167
264.734
149.837
95.2264
65.6426
48.1437
36.9767
29.6621
24.8355
21.6814
10240
1692.32
564.242
264.82
149.916
95.2762
65.6392
48.1156
36.9003
29.5208
24.6182
21.3821
10240
1692.39
564.334
264.923
150.015
95.3516
65.6689
48.1211
36.8609
29.4209
24.4466
21.1322
10240
1692.46
564.434
265.038
150.129
95.4457
65.7227
48.1471
36.8482
29.3538
24.313
20.9248
10240
1692.53
564.538
265.159
150.253
95.552
65.79
48.173
36.8513
29.3118
24.2108
20.7537
10240
1692.6
564.64
265.283
150.381
95.6649
65.8628
48.1822
36.8627
29.2887
24.1344
20.6137
10240
1692.66
564.739
265.405
150.51
95.7812
65.9414
48.1962
36.8834
29.2813
24.0794
20.5003
10240
1692.72
564.833
265.522
150.636
95.8983
66.0272
48.2297
36.9155
29.287
24.0419
20.4092
10240
1692.77
564.92
265.632
150.757
96.0136
66.1182
48.2804
36.9568
29.3027
24.0183
20.3367
10240
1692.82
564.999
265.734
150.87
96.1238
66.2097
48.3403
37.0014
29.3238
24.0045
20.2789
10240
1692.86
565.069
265.824
150.972
96.2254
66.2967
48.4
37.0383
29.3447
23.9963
20.232
10240
1692.9
565.128
265.902
151.061
96.3153
66.3745
48.452
37.0568
29.3604
23.99
20.1927
10240
1692.92
565.175
265.966
151.136
96.3909
66.4401
48.4939
37.0628
29.3694
23.9828
20.1579
10240
1692.94
565.21
266.014
151.193
96.4502
66.4914
48.5251
37.0634
29.372
23.9725
20.1247
10240
1692.95
565.232
266.046
151.232
96.4913
66.5264
48.5443
37.0589
29.3666
23.9569
20.0906
10240
1692.96
565.24
266.06
151.251
96.5126
66.5434
48.5491
37.0454
29.3493
23.9329
20.0529
10240
1692.95
565.234
266.056
151.25
96.5124
66.5402
48.5366
37.018
29.3128
23.8972
20.009
10240
1692.94
565.212
266.031
151.226
96.4891
66.5148
48.5042
36.9729
29.2542
23.8475
19.9568
10240
1692.91
565.173
265.986
151.178
96.4411
66.4655
48.4501
36.909
29.1777
23.7831
19.8949
10240
1692.88
565.117
265.919
151.106
96.3669
66.3906
48.3727
36.8254
29.0859
23.7035
19.8218
10240
1692.83
565.043
265.828
151.007
96.265
66.2887
48.2705
36.7209
28.978
23.6064
19.7364
10240
1692.77
564.95
265.712
150.879
96.1337
66.1581
48.142
36.5939
28.8519
23.4884
19.6377
10240
1692.7
564.835
265.57
150.722
95.9714
65.9971
47.9859
36.4432
28.7064
23.3513
19.5263
10240
1692.61
564.698
265.399
150.533
95.7762
65.8044
47.8007
36.268
28.5418
23.1995
19.4037
10240
1692.51
564.537
265.199
150.31
95.5462
65.5782
47.5856
36.068
28.3587
23.0359
19.2715
10240
1692.39
564.35
264.965
150.051
95.2795
65.3172
47.3398
35.8432
28.1585
22.8628
19.133
10240
1692.26
564.134
264.697
149.754
94.9743
65.0203
47.0633
35.5951
27.9437
22.6848
18.9969
10240
1692.1
563.888
264.391
149.416
94.6289
64.687
46.757
35.3263
27.7193
22.5094
18.8749
10240
1691.93
563.609
264.045
149.036
94.2422
64.3177
46.4235
35.0421
27.4936
22.348
18.7823
10240
1691.73
563.296
263.657
148.611
93.8141
63.9146
46.0681
34.7515
27.2797
22.2184
18.7417
10240
1691.5
562.945
263.226
148.142
93.3462
63.4826
45.7002
34.4695
27.099
22.1486
18.7873
10240
1691.26
562.558
262.75
147.629
92.8427
63.0308
45.3357
34.2204
26.9852
22.182
18.9726
10240
1690.98
562.133
262.232
147.076
92.312
62.5752
45.001
34.043
26.991
22.3861
19.3812
10240
1690.69
561.673
261.676
146.491
91.7695
62.1423
44.7381
33.9984
27.1985
22.8655
20.1436
10240
1690.37
561.184
261.088
145.889
91.24
61.7751
44.614
34.1823
27.7341
23.7842
21.4606
10240
1690.04
560.674
260.484
145.291
90.7634
61.5408
44.7342
34.7416
28.7935
25.4002
23.6486
10240
1689.71
560.158
259.885
144.732
90.4006
61.5437
45.2617
35.8946
30.6887
28.1258
27.2178
10240
1689.38
559.657
259.32
144.264
90.2411
61.9404
46.4363
37.9675
33.9108
32.6308
33.0162
10240
1689.08
559.201
258.833
143.955
90.4096
62.9535
48.5296
41.4755
39.248
40.0345
42.5137
10240
1688.83
558.827
258.479
143.895
91.0653
64.8214
51.9588
47.2003
47.9729
52.2688
58.3988
10240
1688.66
558.583
258.324
144.195
92.4196
67.7315
57.2898
56.2955
62.1589
72.7975
85.9355
10240
1688.61
558.521
258.439
144.967
94.7568
72.1138
65.3602
70.4216
85.1898
108.098
136.35
10240
1688.71
558.692
258.878
146.231
97.8083
78.2488
77.0259
91.7516
122.5
170.82
236.23
10240
1689
559.143
259.695
148.048
101.697
86.2109
92.806
122.629
182.387
286.727
457.336
10240
1689.48
559.903
260.917
150.445
106.261
95.5158
112.224
164.259
275.787
510.009
1030.16
10240
1690.17
560.97
262.522
153.372
111.008
104.77
132.697
213.185
409.932
952.4
2903.77
10240
1690.94
562.154
264.191
156.139
114.779
111.421
146.97
249.88
539.227
1662.81
10240
10240
1691.73
563.378
265.835
158.531
117.678
115.665
154.128
263.357
567.049
1714.45
10240
10240
1692.65
564.756
267.548
160.633
119.806
117.663
154.561
257.186
534.882
1604.64
10240
14173
14173
14173
14173
14173
14173
14173
14173
14173
14173
14173
14173
14173
14173
14173
14173
14173
14173
14173
14173
14173
14173
14173
14173
14173
14173
14173
12206.5
2335.84
2363.01
2348.43
2344.48
2343.77
2343.52
2343.57
2343.4
2343.33
2343.3
2343.29
2343.28
2343.28
2343.28
2343.28
2343.28
2343.28
2343.28
2343.29
2343.31
2343.35
2343.44
2343.71
2344.71
2350.27
2398.38
2973.81
10240
795.461
825.949
800.91
789.495
785.586
784.171
783.674
783.341
783.124
782.952
782.825
782.747
782.705
782.676
782.656
782.644
782.642
782.659
782.709
782.825
783.096
783.806
785.953
793.594
825.288
989.588
1915.79
10240
394.734
406.379
395.766
386.834
379.019
373.603
372.226
371.532
370.917
370.276
369.758
369.453
369.288
369.191
369.127
369.09
369.094
369.172
369.375
369.821
370.827
373.371
380.486
403.24
463.169
688.352
1725.99
10240
239.685
243.139
236.45
229.391
223.676
219.836
217.933
216.894
216
214.345
212.86
212.108
211.736
211.531
211.395
211.306
211.325
211.54
212.08
213.197
215.526
221.008
234.24
264.196
344.85
601.304
1699.96
10240
164.617
164.623
159.437
153.638
148.813
145.366
143.219
141.854
140.864
139.849
138.967
138.399
138.062
137.85
137.663
137.476
137.501
137.936
139.018
141.122
144.9
152.59
169.22
206.744
300.271
578.226
1695.57
10240
122.721
121.229
116.83
111.908
107.631
104.369
102.082
100.51
99.3792
98.4954
97.8037
97.3136
96.9992
96.8178
96.742
96.8004
97.1241
97.9043
99.4383
102.259
107.437
117.43
137.648
180.881
281.985
571.198
1694.62
10240
96.9182
94.7852
90.9103
86.6382
82.7855
79.6819
77.347
75.6385
74.3902
73.4626
72.7989
72.3331
72.0375
71.9005
71.9308
72.1831
72.784
73.9473
76.0368
79.7143
86.2605
98.2981
121.358
168.067
274.682
568.792
1694.34
10240
79.8624
77.4601
73.9888
70.2234
66.7334
63.797
61.4732
59.6952
58.3554
57.3599
56.6464
56.1797
55.9025
55.8183
55.9577
56.3951
57.2728
58.8353
61.5024
66.022
73.7825
87.477
112.609
161.49
271.473
567.84
1694.23
10240
67.9893
65.4608
62.315
58.9608
55.7905
53.0316
50.7615
48.9603
47.5657
46.5116
45.7497
45.2513
44.9959
44.9707
45.2223
45.8424
46.9925
48.9443
52.1577
57.4307
66.1997
81.1707
107.792
158.226
269.953
567.391
1694.15
10240
59.4041
56.8028
53.8929
50.8808
47.9954
45.4182
43.2313
41.4435
40.0247
38.9342
38.1385
37.6181
37.3736
37.4099
37.7732
38.5698
39.9771
42.2875
45.9855
51.8938
61.4618
77.3802
105.037
156.497
269.153
567.125
1694.07
10240
53.0187
50.3669
47.6131
44.8627
42.2324
39.8353
37.7506
36.0039
34.5881
33.4832
32.6708
32.1435
31.9109
32.0054
32.4753
33.4356
35.0758
37.7017
41.8102
48.2321
58.4124
75.0156
103.376
155.492
268.667
566.924
1693.99
10240
48.1649
45.4723
42.823
40.2545
37.8329
35.6103
33.6389
31.9535
30.5629
29.4634
28.6509
28.1296
27.9189
28.0616
28.6301
29.737
31.5802
34.4733
38.9175
45.7426
56.3814
73.472
102.306
154.843
268.32
566.744
1693.89
10240
44.4105
41.6801
39.1025
36.6635
34.3932
32.3229
30.4701
28.8597
27.5112
26.4337
25.6351
25.1303
24.9485
25.1411
25.792
27.0241
29.0379
32.1507
36.862
43.9972
54.9745
72.4103
101.568
154.374
268.037
566.566
1693.78
10240
41.4656
38.6964
36.1672
33.8242
31.6666
29.7109
27.9682
26.4414
25.1473
24.1044
23.3307
22.8505
22.7017
22.9431
23.665
25.0032
27.1565
30.4425
35.3607
42.7316
53.9566
71.6367
101.018
154.001
267.781
566.384
1693.66
10240
39.1271
36.3174
33.8191
31.5484
29.4793
27.6125
25.9555
24.511
23.2793
22.2801
21.5393
21.0895
20.9756
21.2634
22.0486
23.4718
25.7392
29.1636
34.2415
41.7841
53.1874
71.0396
100.579
153.684
267.54
566.198
1693.54
10240
37.2392
34.3978
31.9174
29.7013
27.7032
25.9094
24.3211
22.9431
21.7761
20.8264
20.1239
19.7077
19.6294
19.9599
20.7999
22.2932
24.6504
28.1835
33.3849
41.0592
52.5962
70.5737
100.217
153.411
267.309
566.011
1693.41
10240
35.6861
32.8277
30.3596
28.1845
26.2438
24.5116
22.9819
21.6584
20.5468
19.6493
18.9879
18.6071
18.5633
18.9326
19.8193
21.3701
23.7968
27.4148
32.7115
40.4875
52.1273
70.2026
99.9336
153.205
267.133
565.855
1693.29
10240
34.3793
31.5224
29.0684
26.9254
25.0314
23.3516
21.8732
20.597
19.5311
18.6827
18.0629
17.7173
17.7066
18.1105
19.0365
20.6338
23.1157
26.7982
32.1692
40.0252
51.7477
69.9054
99.7156
153.062
266.994
565.736
1693.21
10240
33.2549
30.418
27.9831
25.8689
24.0133
22.3783
20.9453
19.7116
18.6854
17.8787
17.2994
16.9879
17.008
17.4423
18.4012
20.036
22.5614
26.2941
31.7233
39.6446
51.4388
69.6749
99.571
153.009
266.896
565.634
1693.15
10240
32.2715
29.4633
27.0566
24.9711
23.1499
21.5532
20.1604
18.9653
17.975
17.2038
16.6619
16.3821
16.4302
16.8911
17.8773
19.5421
22.1018
25.8743
31.35
39.3277
51.19
69.5125
99.5255
153.122
266.86
565.547
1693.08
10240
31.4
28.6206
26.2518
24.1978
22.4089
20.8471
19.4898
18.3298
17.3726
16.6331
16.1242
15.8729
15.946
16.4299
17.4387
19.1274
21.7142
25.5187
31.0336
39.0614
50.9929
69.4196
99.6125
153.559
266.923
565.481
1693.02
10240
30.6177
27.8659
25.5385
23.5215
21.765
20.2357
18.9112
17.7833
16.8572
16.1479
15.6663
15.4398
15.5349
16.0384
17.0658
18.7737
21.3819
25.2124
30.7609
38.8351
50.8363
69.3815
99.8197
154.451
267.105
565.445
1692.96
10240
29.9078
27.1828
24.8943
22.9198
21.198
19.7003
18.4068
17.3091
16.4123
15.7308
15.2722
15.0672
15.1814
15.7018
16.7445
18.4676
21.0927
24.9443
30.5218
38.6384
50.7056
69.3592
99.9827
154.923
267.34
565.45
1692.91
10240
29.2574
26.5585
24.3056
22.3743
20.691
19.2256
17.962
16.8931
16.024
15.3674
14.9288
14.7427
14.8736
15.4083
16.4637
18.1987
20.837
24.7056
30.3079
38.4632
50.5936
69.3521
100.146
155.332
267.921
565.604
1692.88
10240
28.6567
25.9831
23.7631
21.8719
20.2301
18.7989
17.5651
16.5238
15.6806
15.0463
14.6256
14.4564
14.602
15.1492
16.2149
17.9592
20.6075
24.4893
30.1121
38.3024
50.4949
69.3688
100.39
156.05