/*--------------------------------*- C++ -*----------------------------------*\
| =========                 |                                                 |
| \\      /  F ield         | OpenFOAM: The Open Source CFD Toolbox           |
|  \\    /   O peration     | Version:  v2012                                 |
|   \\  /    A nd           | Website:  www.openfoam.com                      |
|    \\/     M anipulation  |                                                 |
\*---------------------------------------------------------------------------*/
FoamFile
{
    version     2.0;
    format      ascii;
    class       volScalarField;
    location    "5000";
    object      p;
}
// * * * * * * * * * * * * * * * * * * * * * * * * * * * * * * * * * * * * * //

dimensions      [0 2 -2 0 0 0 0];


internalField   nonuniform List<scalar> 
6036
(
5.61999
5.72774
5.84645
5.97343
6.10651
6.24396
6.38443
6.52693
6.67068
6.8151
6.95965
7.10392
7.24767
7.39171
7.54019
7.70321
7.89218
8.14532
8.74513
10.0957
5.63207
5.73686
5.85311
5.97814
6.10978
6.2462
6.38596
6.52799
6.67149
6.8159
6.96082
7.10604
7.25171
7.39912
7.55273
7.72049
7.90995
8.15109
8.57082
9.19344
5.63493
5.73784
5.85319
5.9778
6.1093
6.24576
6.38563
6.5278
6.67152
6.8163
6.96197
7.10869
7.25697
7.40843
7.56727
7.73996
7.93325
8.15865
8.43015
8.6715
5.61707
5.72131
5.83965
5.96725
6.1014
6.2401
6.38173
6.52522
6.66998
6.81574
6.96271
7.11156
7.26301
7.41789
7.57915
7.75247
7.94248
8.14884
8.34681
8.4501
5.58027
5.69269
5.81888
5.95222
6.09068
6.23267
6.37668
6.52181
6.66769
6.8142
6.96162
7.11086
7.26279
7.41715
7.58016
7.75756
7.94637
8.14122
8.30676
8.36646
5.51866
5.64396
5.78287
5.92779
6.07447
6.22184
6.3694
6.51695
6.66451
6.81217
6.96029
7.10985
7.26198
7.41652
7.57968
7.75728
7.94621
8.14112
8.30669
8.3664
5.43659
5.58248
5.73851
5.89761
6.05453
6.20867
6.36065
6.51115
6.66068
6.80967
6.95869
7.10869
7.26091
7.41639
7.57805
7.75176
7.94206
8.14856
8.34659
8.4499
5.34244
5.52715
5.70595
5.87773
6.04212
6.20087
6.3557
6.50789
6.65831
6.80755
6.95613
7.10468
7.25419
7.40652
7.56595
7.73906
7.93264
8.15823
8.42981
8.67118
5.25045
5.4933
5.69175
5.87133
6.03912
6.19939
6.35491
6.50739
6.65784
6.80684
6.95475
7.1019
7.24885
7.39716
7.55137
7.71954
7.90928
8.15059
8.57042
9.19305
5.20227
5.49174
5.69251
5.87406
6.04206
6.20167
6.35651
6.50845
6.65845
6.80699
6.95421
7.10015
7.24506
7.38992
7.53895
7.70233
7.89154
8.14482
8.74471
10.0953
5.3342
5.33135
5.32828
5.32497
5.32137
5.3174
5.31292
5.3074
5.29963
5.29923
5.30143
5.29484
5.28749
5.28116
5.27538
5.27003
5.26532
5.26158
5.25925
5.25911
5.26231
5.27016
5.28433
5.30685
5.34006
5.38637
5.44795
5.52601
5.33577
5.33312
5.33028
5.32723
5.32392
5.32034
5.31641
5.31205
5.30743
5.30505
5.30334
5.29902
5.29382
5.28889
5.28434
5.28027
5.27693
5.27471
5.27413
5.27591
5.28094
5.29041
5.30584
5.32902
5.36202
5.40704
5.46626
5.54129
5.33758
5.33517
5.33259
5.32984
5.32688
5.32372
5.32033
5.31676
5.31327
5.31072
5.30844
5.30512
5.30133
5.29767
5.29435
5.29159
5.28966
5.28891
5.28985
5.29307
5.29936
5.30971
5.32537
5.34788
5.37905
5.42095
5.4761
5.54717
5.33932
5.33714
5.33481
5.33234
5.32971
5.32693
5.32402
5.32104
5.31816
5.31571
5.31345
5.31077
5.30785
5.30505
5.30259
5.30068
5.29956
5.29954
5.30101
5.30446
5.31048
5.31985
5.33353
5.35282
5.37944
5.41544
5.46417
5.53065
5.34108
5.33912
5.33704
5.33483
5.33252
5.33009
5.32758
5.32504
5.32258
5.32033
5.3182
5.31593
5.31357
5.31133
5.30937
5.30786
5.30698
5.30695
5.30803
5.31051
5.31478
5.32132
5.33076
5.34413
5.36318
5.38997
5.42904
5.49031
5.34286
5.3411
5.33924
5.33729
5.33525
5.33312
5.33094
5.32874
5.32657
5.32451
5.32251
5.32046
5.31837
5.31636
5.3145
5.3129
5.31166
5.31087
5.31061
5.31096
5.31203
5.314
5.31709
5.3219
5.33035
5.3442
5.36826
5.42064
5.3446
5.34302
5.34137
5.33963
5.33781
5.33592
5.33398
5.332
5.33002
5.32805
5.32609
5.32406
5.32196
5.31981
5.31764
5.31545
5.31324
5.31095
5.30849
5.30568
5.30233
5.29836
5.29348
5.28751
5.28274
5.27963
5.28018
5.31963
5.34625
5.34483
5.34334
5.34177
5.34012
5.33839
5.33659
5.33472
5.3328
5.33081
5.32873
5.32651
5.32411
5.32149
5.3186
5.31536
5.31165
5.30729
5.30201
5.29534
5.2868
5.27607
5.26221
5.24416
5.22542
5.20371
5.17464
5.18995
5.34777
5.34647
5.3451
5.34364
5.34209
5.34044
5.33868
5.33681
5.3348
5.33264
5.33029
5.32766
5.3247
5.32131
5.31738
5.31274
5.3072
5.30045
5.29208
5.2814
5.2677
5.25078
5.22968
5.20103
5.16728
5.12692
5.05951
5.02447
5.34911
5.34789
5.34659
5.34518
5.34365
5.34199
5.34017
5.33818
5.33596
5.33349
5.33069
5.32747
5.32374
5.31936
5.31417
5.30795
5.30043
5.2913
5.28007
5.266
5.2486
5.22637
5.19797
5.16069
5.11526
5.05793
4.94413
4.81689
5.35417
5.35409
5.35362
5.3527
5.35136
5.3497
5.3479
5.3459
5.3438
5.34166
5.33934
5.33685
5.35414
5.35408
5.35362
5.35276
5.35158
5.35016
5.34853
5.34675
5.34482
5.34275
5.34056
5.33824
5.35435
5.35429
5.35383
5.35303
5.35196
5.35068
5.34921
5.3476
5.34585
5.34397
5.34196
5.33984
5.35488
5.35477
5.35426
5.35349
5.35249
5.35129
5.34994
5.34846
5.34686
5.34514
5.34331
5.34138
5.35572
5.35545
5.35489
5.3541
5.35314
5.35201
5.35075
5.34939
5.34792
5.34635
5.3447
5.34294
5.35683
5.3563
5.35567
5.35485
5.35389
5.35281
5.35163
5.35037
5.34903
5.34761
5.34611
5.34453
5.35808
5.35732
5.35655
5.35568
5.35471
5.35367
5.35256
5.35139
5.35016
5.34887
5.34751
5.34609
5.35942
5.35843
5.35749
5.35656
5.35558
5.35456
5.3535
5.35241
5.35127
5.3501
5.34887
5.34759
5.36081
5.35956
5.35846
5.35747
5.35646
5.35545
5.35443
5.3534
5.35235
5.35127
5.35016
5.34899
5.3621
5.36072
5.35944
5.35836
5.35732
5.35631
5.35532
5.35434
5.35335
5.35235
5.35132
5.35024
5.35025
5.34907
5.34779
5.34637
5.34479
5.34303
5.34105
5.33882
5.33627
5.33333
5.32993
5.32596
5.32128
5.31574
5.30915
5.30126
5.29177
5.28043
5.26672
5.24962
5.22853
5.20312
5.17081
5.12845
5.07449
5.00103
4.8469
4.54356
5.35113
5.34993
5.34859
5.34709
5.34538
5.34342
5.34118
5.33858
5.33556
5.33204
5.32791
5.32306
5.31734
5.31058
5.30261
5.29315
5.28196
5.26886
5.25295
5.23401
5.21163
5.18556
5.15296
5.11209
5.06121
4.99479
4.88207
4.7161
5.35164
5.35037
5.34893
5.34727
5.34535
5.34312
5.34052
5.33748
5.33391
5.32973
5.32482
5.31906
5.31232
5.30445
5.2953
5.28459
5.27202
5.25752
5.24106
5.22175
5.19954
5.17399
5.14359
5.1073
5.06407
5.01138
4.93919
4.86158
5.35177
5.35038
5.34877
5.3469
5.34471
5.34214
5.33912
5.33557
5.33141
5.32654
5.32085
5.31424
5.30658
5.29778
5.28768
5.27592
5.26244
5.2477
5.23138
5.21239
5.19116
5.16734
5.14016
5.10904
5.07354
5.03306
4.9858
4.93901
5.35149
5.34993
5.34812
5.34598
5.34347
5.34051
5.33703
5.33296
5.3282
5.32266
5.31624
5.30887
5.30046
5.29092
5.28008
5.26779
5.25426
5.23972
5.22357
5.20563
5.18604
5.1646
5.14096
5.11489
5.08645
5.05573
5.02468
4.99714
5.35079
5.34903
5.34696
5.34453
5.34166
5.3383
5.33435
5.32976
5.32443
5.31827
5.31123
5.30323
5.29425
5.2842
5.27301
5.26073
5.2475
5.23326
5.21788
5.20134
5.18369
5.16483
5.14464
5.12316
5.10066
5.07752
5.0567
5.04423
5.34966
5.34767
5.34534
5.34259
5.33935
5.33558
5.33118
5.3261
5.32025
5.31358
5.30602
5.29757
5.28823
5.27794
5.26677
5.25475
5.24194
5.2284
5.21414
5.19916
5.18351
5.16717
5.15016
5.13264
5.115
5.09796
5.08361
5.07894
5.34812
5.34589
5.34327
5.3402
5.33661
5.33244
5.32763
5.32211
5.31585
5.30878
5.30083
5.29209
5.28257
5.27235
5.26141
5.2498
5.23765
5.22505
5.21203
5.19865
5.18494
5.17094
5.15673
5.14252
5.12861
5.11667
5.10721
5.10454
5.34619
5.34371
5.34081
5.33743
5.3335
5.32897
5.3238
5.31795
5.31138
5.30401
5.29578
5.28686
5.2775
5.26751
5.25691
5.24589
5.23455
5.22299
5.21127
5.19943
5.18752
5.17561
5.16381
5.1523
5.14115
5.13278
5.12683
5.12442
5.3439
5.34118
5.33801
5.33433
5.3301
5.32527
5.31981
5.3137
5.30693
5.29925
5.29088
5.28222
5.27308
5.26336
5.25328
5.24296
5.23252
5.22203
5.21156
5.20116
5.19089
5.18081
5.17104
5.16177
5.1529
5.14628
5.14236
5.1403
5.34128
5.33834
5.33492
5.33099
5.3265
5.32143
5.31574
5.30944
5.30241
5.29469
5.2866
5.27818
5.26923
5.25995
5.25048
5.24093
5.23139
5.22195
5.21266
5.20359
5.19476
5.18626
5.1782
5.17076
5.16392
5.15808
5.15515
5.1523
5.33839
5.33524
5.33161
5.32747
5.32277
5.31751
5.31167
5.3052
5.29815
5.29068
5.28286
5.27457
5.26598
5.25723
5.24843
5.23966
5.23101
5.22257
5.21438
5.20648
5.19892
5.19177
5.18513
5.17915
5.17408
5.1693
5.16715
5.16292
5.33526
5.33194
5.32813
5.32382
5.31899
5.31363
5.30773
5.30118
5.29423
5.28705
5.27942
5.27144
5.26333
5.25516
5.24704
5.23904
5.23125
5.22373
5.21653
5.20967
5.20321
5.1972
5.19172
5.18691
5.18327
5.18021
5.17974
5.18069
5.33194
5.32848
5.32455
5.32012
5.3152
5.30979
5.30386
5.29747
5.29073
5.28369
5.27635
5.26882
5.26123
5.25366
5.24621
5.23896
5.23198
5.22531
5.21898
5.21304
5.20752
5.20245
5.19793
5.19407
5.19146
5.18991
5.19079
5.19676
5.32848
5.32491
5.3209
5.31641
5.31144
5.30604
5.30023
5.29406
5.28754
5.28074
5.27376
5.26669
5.25963
5.25267
5.24587
5.23933
5.23308
5.22717
5.22163
5.21648
5.21176
5.2075
5.20375
5.20069
5.19875
5.19791
5.19868
5.20228
5.32491
5.32129
5.31723
5.31274
5.3078
5.30246
5.2969
5.29096
5.28461
5.27815
5.27158
5.26499
5.25847
5.2521
5.24594
5.24005
5.23447
5.22925
5.2244
5.21993
5.21589
5.2123
5.20921
5.20683
5.20529
5.20458
5.20502
5.20678
5.32127
5.31764
5.3136
5.30915
5.30431
5.29918
5.29375
5.28796
5.282
5.27592
5.26979
5.26369
5.2577
5.25189
5.24632
5.24104
5.23608
5.23146
5.22721
5.22334
5.21987
5.21684
5.21431
5.21248
5.21116
5.21042
5.21081
5.21196
5.31761
5.314
5.31002
5.30566
5.30101
5.29612
5.29081
5.28524
5.27968
5.27402
5.26834
5.26273
5.25726
5.25199
5.24697
5.24224
5.23783
5.23375
5.23002
5.22665
5.22367
5.2211
5.21902
5.21757
5.21642
5.21573
5.21617
5.21714
5.31393
5.3104
5.30651
5.3023
5.2979
5.29318
5.28806
5.2829
5.2777
5.27244
5.26721
5.26208
5.25711
5.25234
5.24783
5.2436
5.23967
5.23607
5.23279
5.22986
5.22729
5.22511
5.22336
5.22216
5.22121
5.22069
5.22116
5.22203
5.31028
5.30685
5.3031
5.29911
5.29494
5.29039
5.28557
5.28081
5.27599
5.27114
5.26636
5.26169
5.25718
5.25289
5.24884
5.24506
5.24157
5.23838
5.2355
5.23294
5.23072
5.22885
5.22736
5.22634
5.2256
5.22528
5.22577
5.22659
5.30666
5.30338
5.29983
5.2961
5.29209
5.28776
5.28338
5.27897
5.27453
5.2701
5.26574
5.26151
5.25745
5.2536
5.24997
5.2466
5.2435
5.24068
5.23814
5.23589
5.23395
5.23234
5.23106
5.23019
5.22964
5.22949
5.23
5.2308
5.30309
5.29998
5.29663
5.29317
5.28943
5.2854
5.2814
5.27735
5.27329
5.26927
5.26534
5.26153
5.25788
5.25443
5.25119
5.24818
5.24542
5.24292
5.24068
5.2387
5.23701
5.23561
5.23453
5.23379
5.23337
5.23333
5.23386
5.23465
5.29957
5.29668
5.29361
5.29036
5.28687
5.28325
5.27961
5.27593
5.27226
5.26864
5.2651
5.26169
5.25843
5.25534
5.25246
5.24978
5.24733
5.2451
5.24312
5.24137
5.2399
5.23868
5.23776
5.23714
5.23682
5.23686
5.23741
5.23818
5.29611
5.29346
5.29071
5.28771
5.28448
5.28126
5.27799
5.27469
5.27141
5.26817
5.26502
5.26198
5.25907
5.25633
5.25376
5.25138
5.24919
5.24722
5.24545
5.24391
5.24262
5.24155
5.24076
5.24023
5.24
5.2401
5.24066
5.24141
5.29272
5.29034
5.28786
5.28518
5.28231
5.27945
5.27654
5.27361
5.2707
5.26784
5.26505
5.26236
5.25979
5.25735
5.25507
5.25295
5.25101
5.24925
5.24768
5.24631
5.24516
5.24423
5.24354
5.24311
5.24295
5.24308
5.24364
5.24438
5.28942
5.28736
5.28513
5.28273
5.28027
5.27777
5.27523
5.27267
5.27013
5.26763
5.26518
5.26282
5.26055
5.2584
5.25638
5.2545
5.25277
5.2512
5.24979
5.24858
5.24754
5.24675
5.24614
5.24578
5.24567
5.24583
5.24639
5.24709
5.28616
5.28443
5.28251
5.28042
5.27834
5.27621
5.27404
5.27185
5.26967
5.26751
5.26539
5.26334
5.26135
5.25946
5.25768
5.25601
5.25447
5.25307
5.2518
5.25074
5.24982
5.2491
5.24857
5.24827
5.24819
5.24837
5.24891
5.24958
5.28291
5.28152
5.28001
5.27827
5.27654
5.27478
5.27297
5.27114
5.2693
5.26747
5.26566
5.26389
5.26217
5.26052
5.25895
5.25747
5.2561
5.25484
5.25372
5.25276
5.25196
5.2513
5.25083
5.25057
5.25052
5.25072
5.25123
5.25186
5.27982
5.27872
5.2775
5.27617
5.27483
5.27343
5.27199
5.27051
5.26901
5.26749
5.26598
5.26447
5.263
5.26156
5.26019
5.25888
5.25766
5.25654
5.25553
5.25465
5.25394
5.25335
5.25293
5.25271
5.25268
5.25288
5.25337
5.25395
5.2768
5.27598
5.27503
5.27415
5.2732
5.27218
5.27109
5.26996
5.26878
5.26757
5.26633
5.26507
5.26382
5.26259
5.26138
5.26023
5.25915
5.25814
5.25723
5.25643
5.25578
5.25525
5.25488
5.25469
5.25467
5.25486
5.25533
5.25589
5.27371
5.27327
5.27273
5.27222
5.27164
5.27099
5.27027
5.26947
5.2686
5.26768
5.2667
5.26568
5.26463
5.26358
5.26254
5.26152
5.26056
5.25965
5.25882
5.25811
5.25751
5.25703
5.2567
5.25652
5.25651
5.25669
5.25715
5.25769
5.27063
5.27061
5.27048
5.27035
5.27015
5.26987
5.2695
5.26903
5.26846
5.26781
5.26708
5.26628
5.26543
5.26454
5.26365
5.26276
5.2619
5.26108
5.26034
5.25968
5.25913
5.25869
5.25839
5.25823
5.25822
5.25839
5.25882
5.25932
5.26758
5.26798
5.26825
5.26852
5.26871
5.26879
5.26877
5.26862
5.26835
5.26796
5.26747
5.26687
5.2662
5.26547
5.26471
5.26393
5.26317
5.26244
5.26176
5.26116
5.26065
5.26024
5.25996
5.25981
5.25981
5.25996
5.26035
5.2608
5.26454
5.26529
5.26602
5.26671
5.2673
5.26776
5.26808
5.26825
5.26827
5.26813
5.26786
5.26746
5.26695
5.26637
5.26572
5.26505
5.26437
5.26371
5.2631
5.26254
5.26207
5.26169
5.26143
5.26128
5.26127
5.26141
5.26175
5.26216
5.26147
5.26262
5.26381
5.26493
5.26592
5.26675
5.26742
5.2679
5.26819
5.2683
5.26824
5.26802
5.26767
5.26722
5.26669
5.26611
5.26551
5.26492
5.26435
5.26384
5.2634
5.26304
5.26279
5.26265
5.26263
5.26275
5.26305
5.26341
5.25836
5.25999
5.26162
5.26316
5.26455
5.26577
5.26678
5.26756
5.26813
5.26847
5.26861
5.26857
5.26837
5.26804
5.26761
5.26711
5.26658
5.26605
5.26553
5.26505
5.26464
5.2643
5.26406
5.26392
5.26389
5.26399
5.26425
5.26456
5.2552
5.25733
5.25942
5.26139
5.2632
5.2648
5.26615
5.26724
5.26807
5.26864
5.26898
5.2691
5.26903
5.26881
5.26848
5.26806
5.2676
5.26711
5.26664
5.26619
5.2658
5.26548
5.26525
5.2651
5.26506
5.26514
5.26537
5.26559
5.25198
5.25461
5.25718
5.25962
5.26185
5.26383
5.26553
5.26693
5.26802
5.26881
5.26933
5.2696
5.26967
5.26956
5.26931
5.26896
5.26856
5.26812
5.26768
5.26726
5.26689
5.26659
5.26635
5.2662
5.26615
5.2662
5.2664
5.26657
5.24866
5.25182
5.2549
5.25781
5.26049
5.26287
5.26492
5.26661
5.26796
5.26897
5.26967
5.27009
5.27028
5.27026
5.27009
5.26981
5.26946
5.26906
5.26866
5.26827
5.26792
5.26762
5.26739
5.26723
5.26716
5.26718
5.26735
5.26754
5.24522
5.24894
5.25256
5.25598
5.25911
5.2619
5.2643
5.2663
5.2679
5.26913
5.27
5.27056
5.27086
5.27094
5.27084
5.27062
5.27032
5.26996
5.26958
5.26922
5.26888
5.26859
5.26836
5.26819
5.2681
5.26808
5.26823
5.26847
5.24164
5.24596
5.25015
5.2541
5.25771
5.26092
5.26368
5.26599
5.26785
5.26927
5.27031
5.27101
5.27142
5.27158
5.27156
5.27139
5.27113
5.2708
5.27046
5.27011
5.26979
5.2695
5.26927
5.2691
5.26898
5.26893
5.26905
5.26927
5.23787
5.24284
5.24765
5.25216
5.25627
5.25992
5.26306
5.26568
5.26779
5.26942
5.27062
5.27145
5.27195
5.2722
5.27224
5.27212
5.2719
5.27161
5.27128
5.27095
5.27064
5.27036
5.27013
5.26995
5.26983
5.26977
5.26983
5.26995
5.23388
5.23955
5.24502
5.25014
5.2548
5.2589
5.26243
5.26536
5.26773
5.26956
5.27093
5.27188
5.27248
5.2728
5.27289
5.27282
5.27263
5.27237
5.27207
5.27175
5.27145
5.27118
5.27095
5.27076
5.27063
5.27056
5.27056
5.27059
5.22961
5.23606
5.24226
5.24804
5.25326
5.25786
5.26179
5.26505
5.26767
5.26971
5.27123
5.2723
5.27299
5.27338
5.27352
5.27349
5.27334
5.2731
5.27282
5.27252
5.27222
5.27195
5.27172
5.27153
5.27139
5.2713
5.27125
5.27123
5.225
5.23231
5.23932
5.24582
5.25167
5.25679
5.26114
5.26474
5.26763
5.26986
5.27153
5.27272
5.27349
5.27394
5.27414
5.27415
5.27402
5.2738
5.27353
5.27325
5.27296
5.27269
5.27246
5.27226
5.27211
5.272
5.27191
5.27185
5.21996
5.22826
5.23617
5.24347
5.25001
5.25569
5.26049
5.26444
5.26759
5.27003
5.27185
5.27314
5.274
5.27451
5.27475
5.27479
5.27468
5.27448
5.27423
5.27394
5.27366
5.2734
5.27316
5.27296
5.2728
5.27268
5.27255
5.27244
5.2144
5.22382
5.23277
5.24098
5.24827
5.25456
5.25984
5.26416
5.26759
5.27023
5.27219
5.27359
5.27452
5.27508
5.27536
5.27542
5.27533
5.27515
5.2749
5.27462
5.27434
5.27407
5.27383
5.27362
5.27346
5.27333
5.27318
5.27303
5.20819
5.21893
5.22907
5.2383
5.24644
5.25341
5.25921
5.26391
5.26762
5.27047
5.27257
5.27406
5.27506
5.27567
5.27597
5.27606
5.27598
5.2758
5.27555
5.27527
5.27499
5.27472
5.27447
5.27426
5.27408
5.27395
5.27378
5.27366
5.20116
5.21347
5.22502
5.23544
5.24454
5.25225
5.25861
5.26372
5.26772
5.27076
5.273
5.27458
5.27564
5.27628
5.27661
5.2767
5.27663
5.27645
5.2762
5.27591
5.27562
5.27534
5.27509
5.27486
5.27468
5.27453
5.27437
5.2743
5.19311
5.20732
5.22056
5.23239
5.24258
5.25111
5.25807
5.26361
5.2679
5.27114
5.27351
5.27517
5.27627
5.27694
5.27728
5.27737
5.27729
5.2771
5.27684
5.27654
5.27624
5.27594
5.27567
5.27544
5.27525
5.27509
5.27496
5.27491
5.18376
5.20037
5.21566
5.22914
5.24059
5.25005
5.25765
5.26363
5.26821
5.27164
5.27412
5.27585
5.27698
5.27766
5.27799
5.27807
5.27797
5.27776
5.27748
5.27716
5.27683
5.27652
5.27624
5.27599
5.27579
5.27564
5.27553
5.27548
5.17279
5.19245
5.21031
5.22576
5.23866
5.24913
5.25742
5.26384
5.26871
5.2723
5.27488
5.27664
5.27778
5.27845
5.27876
5.27881
5.27868
5.27844
5.27812
5.27777
5.27741
5.27708
5.27677
5.27651
5.2763
5.27617
5.27607
5.27601
5.15977
5.18348
5.20455
5.22238
5.23693
5.24849
5.25748
5.26434
5.26947
5.27319
5.27582
5.27759
5.27871
5.27934
5.27961
5.27961
5.27943
5.27913
5.27877
5.27837
5.27798
5.27761
5.27728
5.277
5.27677
5.27664
5.27656
5.27652
5.14425
5.17343
5.19858
5.21923
5.23563
5.24833
5.258
5.26525
5.27058
5.27438
5.277
5.27874
5.2798
5.28036
5.28055
5.28048
5.28022
5.27986
5.27943
5.27897
5.27853
5.27811
5.27775
5.27744
5.27721
5.27704
5.27698
5.277
5.12577
5.16257
5.19285
5.21678
5.23515
5.24895
5.2592
5.26673
5.27217
5.27595
5.2785
5.28013
5.28108
5.28153
5.2816
5.28142
5.28106
5.2806
5.28009
5.27956
5.27905
5.27858
5.27817
5.27784
5.27759
5.2774
5.27735
5.2774
5.10408
5.1516
5.1882
5.21576
5.23605
5.25076
5.26134
5.26898
5.27437
5.278
5.28036
5.28181
5.28258
5.28285
5.28277
5.28244
5.28195
5.28137
5.28075
5.28013
5.27954
5.27901
5.27854
5.27817
5.2779
5.27771
5.27766
5.27772
5.07959
5.14235
5.18629
5.21737
5.23913
5.25426
5.26477
5.2722
5.27732
5.28061
5.28265
5.2838
5.28431
5.28435
5.28406
5.28354
5.28289
5.28216
5.28141
5.28068
5.27999
5.27938
5.27886
5.27843
5.27813
5.27794
5.27789
5.27795
5.05613
5.14089
5.1913
5.22417
5.24597
5.26045
5.27007
5.27681
5.28133
5.28396
5.28548
5.28621
5.28635
5.28608
5.28551
5.28475
5.28387
5.28296
5.28206
5.28119
5.28039
5.27968
5.27909
5.27863
5.27828
5.27807
5.27801
5.27807
5.05744
5.16483
5.21169
5.24065
5.25922
5.27085
5.27806
5.28357
5.28717
5.28855
5.28919
5.28928
5.28891
5.28819
5.28724
5.28616
5.285
5.28384
5.28274
5.28169
5.28075
5.27992
5.27923
5.27869
5.27831
5.27808
5.27802
5.27807
5.11497
5.21206
5.23623
5.25911
5.27369
5.28162
5.28519
5.2902
5.29395
5.29327
5.29278
5.2922
5.29129
5.29014
5.28883
5.28746
5.2861
5.28474
5.28338
5.28215
5.28103
5.28006
5.27927
5.27866
5.27825
5.27802
5.27797
5.27802
5.36333
5.36188
5.36041
5.35923
5.35815
5.35713
5.35615
5.35521
5.35428
5.35334
5.35237
5.35134
5.36452
5.36295
5.3613
5.36003
5.3589
5.35786
5.35689
5.35597
5.35507
5.35416
5.35321
5.35221
5.36556
5.36384
5.36205
5.36069
5.3595
5.35844
5.35746
5.35655
5.35565
5.35474
5.35379
5.35277
5.36639
5.36453
5.3626
5.36116
5.35992
5.35883
5.35783
5.3569
5.35599
5.35506
5.35407
5.35299
5.36697
5.36498
5.36294
5.36141
5.36012
5.35899
5.35796
5.357
5.35605
5.35507
5.35401
5.35283
5.3673
5.36517
5.36302
5.36142
5.36007
5.35889
5.35782
5.35681
5.35581
5.35475
5.3536
5.35229
5.36745
5.36509
5.36283
5.36115
5.35973
5.35849
5.35737
5.35631
5.35523
5.35408
5.35281
5.35135
5.36755
5.36477
5.36236
5.36057
5.35908
5.35779
5.35661
5.35548
5.35431
5.35305
5.35164
5.35002
5.36807
5.3642
5.36154
5.35964
5.35809
5.35674
5.35551
5.3543
5.35304
5.35167
5.35011
5.3483
5.36948
5.36329
5.36029
5.35832
5.35673
5.35534
5.35406
5.35278
5.35143
5.34993
5.34821
5.34622
5.36587
5.36117
5.35842
5.35653
5.35498
5.35359
5.35226
5.35092
5.34947
5.34785
5.34598
5.34381
5.35875
5.35812
5.35604
5.35434
5.35287
5.3515
5.35015
5.34874
5.3472
5.34546
5.34344
5.34111
5.3549
5.35527
5.35347
5.35189
5.35048
5.34912
5.34773
5.34627
5.34464
5.34278
5.34063
5.33814
5.35224
5.35263
5.35081
5.34926
5.34786
5.34648
5.34506
5.34352
5.34181
5.33985
5.33758
5.33496
5.35107
5.35008
5.34806
5.34645
5.34502
5.34361
5.34214
5.34054
5.33875
5.3367
5.33433
5.3316
5.34898
5.34722
5.34506
5.34342
5.34195
5.3405
5.33899
5.33734
5.33548
5.33336
5.33091
5.32811
5.34581
5.34389
5.34176
5.34013
5.33865
5.33717
5.33563
5.33394
5.33203
5.32985
5.32736
5.32451
5.34209
5.34021
5.33818
5.33659
5.33512
5.33363
5.33207
5.33036
5.32842
5.32622
5.3237
5.32084
5.33808
5.33627
5.33435
5.33282
5.33137
5.3299
5.32834
5.32662
5.32468
5.32247
5.31996
5.31712
5.33383
5.33212
5.33032
5.32885
5.32745
5.326
5.32446
5.32275
5.32083
5.31864
5.31617
5.31339
5.32939
5.3278
5.32611
5.32472
5.32336
5.32195
5.32044
5.31877
5.31688
5.31475
5.31235
5.30965
5.3248
5.32332
5.32175
5.32043
5.31913
5.31778
5.31631
5.31469
5.31287
5.31082
5.30851
5.30593
5.3201
5.31873
5.31727
5.31602
5.31478
5.31349
5.31209
5.31054
5.3088
5.30685
5.30466
5.30224
5.31531
5.31405
5.31269
5.31151
5.31034
5.30911
5.30778
5.30632
5.30469
5.30286
5.30083
5.29858
5.31046
5.30928
5.30801
5.30691
5.3058
5.30465
5.30341
5.30205
5.30054
5.29886
5.297
5.29496
5.30556
5.30446
5.30327
5.30223
5.30119
5.30012
5.29897
5.29773
5.29637
5.29486
5.2932
5.29138
5.30062
5.29959
5.29846
5.29748
5.29651
5.29552
5.29449
5.29338
5.29217
5.29085
5.28941
5.28785
5.29566
5.29467
5.2936
5.29267
5.29177
5.29087
5.28995
5.28898
5.28795
5.28685
5.28564
5.28433
5.29068
5.28972
5.28868
5.2878
5.28697
5.28616
5.28536
5.28455
5.28371
5.28283
5.28189
5.28088
5.28569
5.28473
5.28371
5.28287
5.2821
5.28138
5.28071
5.28007
5.27944
5.27881
5.27815
5.27747
5.28066
5.2797
5.27868
5.27787
5.27715
5.27654
5.276
5.27554
5.27513
5.27476
5.2744
5.27404
5.27562
5.27462
5.27359
5.27279
5.27213
5.27161
5.27122
5.27095
5.27077
5.27067
5.27062
5.2706
5.27053
5.26948
5.26841
5.26762
5.26701
5.26659
5.26635
5.26628
5.26635
5.26655
5.26682
5.26715
5.26538
5.26425
5.26313
5.26233
5.26177
5.26145
5.26137
5.26151
5.26185
5.26236
5.263
5.26375
5.26016
5.25893
5.25773
5.25692
5.2564
5.25618
5.25626
5.25663
5.25726
5.25811
5.25913
5.26031
5.25484
5.25349
5.25218
5.25134
5.25086
5.25075
5.251
5.25161
5.25254
5.25374
5.25516
5.25673
5.24939
5.24788
5.24644
5.24557
5.24512
5.24512
5.24556
5.24642
5.24767
5.24925
5.25108
5.2531
5.24378
5.24208
5.24049
5.23956
5.23915
5.23926
5.23989
5.24103
5.24262
5.2446
5.24688
5.24937
5.23795
5.23603
5.23426
5.23328
5.23289
5.23312
5.23396
5.23539
5.23735
5.23976
5.24252
5.24553
5.23187
5.2297
5.22772
5.22665
5.22629
5.22665
5.22772
5.22946
5.23182
5.23469
5.23797
5.24153
5.22546
5.223
5.22078
5.21963
5.2193
5.21979
5.2211
5.22319
5.22597
5.22935
5.23319
5.23733
5.21867
5.21588
5.21339
5.21213
5.21183
5.21246
5.21403
5.21649
5.21975
5.22367
5.22812
5.23291
5.21139
5.20824
5.20544
5.20408
5.2038
5.20459
5.20644
5.2093
5.21307
5.21759
5.22269
5.22819
5.20355
5.19998
5.19684
5.19536
5.19511
5.19606
5.19822
5.20152
5.20583
5.21101
5.21685
5.22313
5.19502
5.19099
5.18748
5.18586
5.18564
5.18677
5.18926
5.19302
5.19793
5.20382
5.21047
5.21762
5.18566
5.18113
5.17721
5.17545
5.17525
5.17657
5.17939
5.18365
5.18921
5.19589
5.20345
5.21158
5.17532
5.17024
5.16589
5.16397
5.16379
5.16529
5.16846
5.17324
5.17949
5.18704
5.19561
5.20486
5.16382
5.15816
5.15334
5.15124
5.15107
5.15273
5.15624
5.16155
5.16854
5.17703
5.18675
5.19729
5.15094
5.14468
5.13936
5.13707
5.13687
5.13866
5.14247
5.14829
5.15604
5.16557
5.17658
5.18865
5.13647
5.12957
5.12375
5.12123
5.12094
5.12279
5.12683
5.1331
5.1416
5.15223
5.16474
5.17862
5.12014
5.11262
5.10626
5.10348
5.10303
5.10481
5.10893
5.11552
5.1247
5.13649
5.15069
5.16677
5.10168
5.09356
5.08667
5.08356
5.08281
5.08432
5.08829
5.09497
5.10467
5.11759
5.1337
5.15254
5.08082
5.07216
5.06475
5.06121
5.05996
5.06092
5.06437
5.07074
5.08061
5.09451
5.11275
5.13509
5.0573
5.04819
5.04028
5.03619
5.03418
5.03416
5.03652
5.04195
5.05139
5.06587
5.08633
5.1132
5.03089
5.02147
5.0131
5.0083
5.00516
5.00358
5.00406
5.00757
5.01555
5.02977
5.05221
5.08499
5.00146
4.99192
4.98314
4.97743
4.97271
4.96882
4.96633
4.9665
4.97139
4.98371
5.00714
5.04747
4.96898
4.95954
4.95043
4.9436
4.93678
4.92969
4.92283
4.91771
4.91703
4.92467
4.94673
4.99661
4.93356
4.92451
4.9152
4.90704
4.89759
4.88631
4.87347
4.86059
4.85094
4.84946
4.86528
4.92533
4.89554
4.88719
4.87784
4.86822
4.8557
4.83938
4.81891
4.79555
4.77257
4.755
4.75248
4.82189
4.85546
4.84814
4.83899
4.82793
4.81217
4.79041
4.76111
4.7251
4.68468
4.6434
4.60449
4.64449
4.8186
4.81244
4.80376
4.79164
4.77321
4.74702
4.70936
4.6618
4.6038
4.53248
4.43426
4.26318
4.78595
4.78097
4.77296
4.7602
4.73992
4.71083
4.66653
4.61189
4.54491
4.45793
4.3486
4.21664
4.75329
4.74968
4.74253
4.72945
4.70783
4.67662
4.62981
4.57146
4.49969
4.40927
4.30335
4.216
4.0499
4.14518
4.22203
4.26562
4.2932
4.31915
4.33766
4.34801
4.3573
4.36534
4.37221
4.37812
4.38321
4.38763
4.39147
4.39479
4.39763
4.40003
4.402
4.40356
4.40472
4.4055
4.40591
4.40597
4.40575
4.40532
4.40479
4.4043
4.16488
4.20077
4.24349
4.27472
4.29927
4.31956
4.33547
4.3473
4.35678
4.36471
4.37152
4.37737
4.38241
4.38679
4.39061
4.39391
4.39674
4.39912
4.4011
4.40268
4.40387
4.4047
4.40518
4.40534
4.40522
4.4049
4.40443
4.40398
4.23666
4.24788
4.26883
4.28939
4.30747
4.32303
4.33665
4.34763
4.3568
4.36466
4.37127
4.37694
4.38184
4.38614
4.38989
4.39315
4.39594
4.39831
4.40028
4.40186
4.40308
4.40395
4.4045
4.40474
4.40472
4.40449
4.40406
4.4036
4.27647
4.27927
4.29039
4.30377
4.31709
4.32965
4.34065
4.34986
4.35823
4.36541
4.37154
4.37702
4.38181
4.38599
4.38964
4.39282
4.39555
4.39788
4.39983
4.40141
4.40264
4.40353
4.40411
4.4044
4.40442
4.40422
4.40376
4.40324
4.30448
4.30326
4.30888
4.31736
4.32689
4.33652
4.34543
4.35338
4.36062
4.36693
4.37262
4.37771
4.38225
4.38624
4.38975
4.39281
4.39547
4.39774
4.39965
4.40121
4.40244
4.40334
4.40394
4.40425
4.4043
4.40409
4.40358
4.40299
4.32647
4.32289
4.32493
4.32995
4.33648
4.34361
4.35065
4.35724
4.36338
4.36912
4.37436
4.37897
4.38313
4.38685
4.39016
4.39308
4.39564
4.39784
4.3997
4.40123
4.40244
4.40335
4.40396
4.40428
4.40434
4.40413
4.40356
4.4029
4.34405
4.33913
4.33883
4.34138
4.34562
4.35075
4.35617
4.36155
4.36676
4.37171
4.37625
4.38046
4.38431
4.38775
4.39085
4.39361
4.39604
4.39816
4.39996
4.40145
4.40265
4.40355
4.40416
4.40449
4.40455
4.40434
4.40375
4.40303
4.35838
4.35272
4.35089
4.35167
4.35417
4.3577
4.36177
4.36604
4.37034
4.37453
4.3785
4.38224
4.38572
4.38889
4.39177
4.39436
4.39667
4.39869
4.40042
4.40188
4.40305
4.40394
4.40455
4.40489
4.40496
4.40475
4.40414
4.4034
4.37038
4.36431
4.36145
4.36095
4.3621
4.36436
4.36729
4.37059
4.37406
4.37756
4.38098
4.38427
4.38737
4.39025
4.39291
4.39533
4.3975
4.39942
4.40108
4.40248
4.40363
4.4045
4.40512
4.40546
4.40555
4.40535
4.40476
4.40403
4.3806
4.37432
4.37078
4.36933
4.36945
4.37068
4.37266
4.37512
4.37786
4.38074
4.38363
4.38648
4.38923
4.39182
4.39425
4.39649
4.39852
4.40033
4.40192
4.40327
4.40438
4.40525
4.40586
4.40622
4.40632
4.40615
4.4056
4.4049
4.38935
4.38304
4.37905
4.37692
4.37625
4.37666
4.37786
4.37959
4.38169
4.384
4.38642
4.38886
4.39126
4.39357
4.39577
4.39783
4.39971
4.40142
4.40292
4.40422
4.4053
4.40615
4.40677
4.40715
4.40728
4.40715
4.40665
4.40601
4.39684
4.39066
4.38643
4.38382
4.38254
4.3823
4.38285
4.38397
4.38551
4.38732
4.38929
4.39135
4.39343
4.39548
4.39746
4.39933
4.40107
4.40267
4.40409
4.40533
4.40637
4.40722
4.40785
4.40824
4.40841
4.40833
4.40791
4.40735
4.40324
4.39734
4.39302
4.39009
4.38837
4.38762
4.38763
4.38824
4.38929
4.39066
4.39223
4.39395
4.39573
4.39752
4.39928
4.40098
4.40258
4.40407
4.40541
4.4066
4.40759
4.40846
4.4091
4.40949
4.4097
4.40969
4.40936
4.4089
4.40881
4.40325
4.39893
4.39581
4.39376
4.39262
4.39221
4.39238
4.39302
4.39399
4.39522
4.39662
4.39812
4.39967
4.40123
4.40276
4.40423
4.40561
4.40687
4.40801
4.40897
4.40984
4.41048
4.41088
4.41115
4.4112
4.41099
4.41064
4.41381
4.40851
4.40425
4.40103
4.39876
4.39731
4.39656
4.39639
4.39667
4.39731
4.39823
4.39934
4.40059
4.40192
4.40329
4.40466
4.406
4.40727
4.40846
4.40953
4.4105
4.41129
4.41193
4.41243
4.41274
4.41287
4.41277
4.41255
4.41805
4.41313
4.40903
4.40579
4.40338
4.40172
4.40071
4.40024
4.40023
4.40059
4.40123
4.40209
4.40312
4.40425
4.40544
4.40666
4.40787
4.40904
4.41015
4.41118
4.41211
4.41285
4.41354
4.41411
4.41444
4.41466
4.4147
4.4146
4.42171
4.4172
4.41331
4.41012
4.40765
4.40584
4.40463
4.40394
4.40369
4.4038
4.40421
4.40486
4.40568
4.40662
4.40766
4.40874
4.40983
4.41091
4.41195
4.41292
4.41381
4.41457
4.41526
4.41586
4.41628
4.41658
4.41674
4.4168
4.42496
4.42075
4.41714
4.41405
4.41157
4.40967
4.40833
4.40746
4.40702
4.40694
4.40715
4.4076
4.40825
4.40903
4.40992
4.41088
4.41186
4.41285
4.41382
4.41474
4.4156
4.41637
4.41706
4.4177
4.41821
4.41859
4.41889
4.41909
4.42778
4.42385
4.42048
4.41758
4.41515
4.41323
4.4118
4.41081
4.41022
4.40997
4.41002
4.41032
4.41081
4.41145
4.41221
4.41305
4.41394
4.41485
4.41575
4.41663
4.41746
4.41824
4.41895
4.41961
4.42018
4.42066
4.4211
4.42145
4.43015
4.42668
4.42351
4.42078
4.41843
4.41652
4.41504
4.41396
4.41326
4.41289
4.41281
4.41297
4.41333
4.41385
4.4145
4.41524
4.41604
4.41687
4.41772
4.41856
4.41937
4.42014
4.42088
4.42157
4.4222
4.42277
4.42336
4.42385
4.43216
4.42918
4.42624
4.42365
4.42141
4.41954
4.41805
4.41692
4.41614
4.41568
4.41549
4.41554
4.41579
4.41621
4.41676
4.41742
4.41814
4.41891
4.4197
4.4205
4.4213
4.42207
4.42282
4.42355
4.42424
4.42491
4.42563
4.42627
4.43388
4.43125
4.42862
4.42622
4.4241
4.4223
4.42082
4.41967
4.41885
4.41831
4.41805
4.41801
4.41818
4.41851
4.41898
4.41956
4.42022
4.42093
4.42168
4.42245
4.42323
4.424
4.42477
4.42553
4.42629
4.42705
4.42791
4.4287
4.43533
4.43302
4.43071
4.42851
4.42652
4.42479
4.42335
4.42221
4.42136
4.42078
4.42046
4.42036
4.42046
4.42072
4.42113
4.42164
4.42224
4.42291
4.42362
4.42437
4.42513
4.42591
4.42669
4.42749
4.42831
4.42916
4.43016
4.43109
4.43656
4.43456
4.4325
4.43051
4.42867
4.42704
4.42565
4.42453
4.42368
4.42307