/*--------------------------------*- C++ -*----------------------------------*\
| =========                 |                                                 |
| \\      /  F ield         | OpenFOAM: The Open Source CFD Toolbox           |
|  \\    /   O peration     | Version:  v2012                                 |
|   \\  /    A nd           | Website:  www.openfoam.com                      |
|    \\/     M anipulation  |                                                 |
\*---------------------------------------------------------------------------*/
FoamFile
{
    version     2.0;
    format      ascii;
    class       surfaceScalarField;
    location    "5000";
    object      phi;
}
// * * * * * * * * * * * * * * * * * * * * * * * * * * * * * * * * * * * * * //

dimensions      [0 3 -1 0 0 0 0];
oriented        oriented;


internalField   nonuniform List<scalar> 
11821
(
-5.07146e-05
2.97915e-06
4.77355e-05
-5.30376e-05
2.32297e-06
-5.47681e-05
1.73045e-06
-5.60206e-05
1.25245e-06
-5.69058e-05
8.85247e-07
-5.75176e-05
6.11753e-07
-5.79316e-05
4.13952e-07
-5.82053e-05
2.73636e-07
-5.83812e-05
1.75934e-07
-5.84953e-05
1.14084e-07
-5.85928e-05
9.74453e-08
-5.87614e-05
1.68659e-07
-5.91925e-05
4.3099e-07
-6.02789e-05
1.08645e-06
-6.27977e-05
2.51872e-06
-6.82728e-05
5.47516e-06
-7.95754e-05
1.13026e-05
-0.00010224
2.26645e-05
-0.000144632
4.23924e-05
5.53677e-05
-0.000135183
9.77245e-06
0.000128389
-0.000140389
7.52926e-06
-0.000144212
5.5538e-06
-0.000146947
3.98743e-06
-0.000148864
2.80144e-06
-0.000150181
1.9294e-06
-0.000151075
1.30733e-06
-0.000151676
8.7518e-07
-0.000152087
5.86352e-07
-0.000152394
4.20926e-07
-0.000152702
4.05217e-07
-0.000153185
6.5241e-07
-0.000154174
1.41908e-06
-0.000156246
3.15915e-06
-0.000160337
6.60929e-06
-0.000167767
1.29052e-05
-0.000179861
2.3397e-05
-0.000196248
3.90512e-05
-0.000208314
5.44578e-05
4.70541e-05
-0.000202496
1.85004e-05
0.000193768
-0.000208963
1.39963e-05
-0.000213566
1.0156e-05
-0.00021678
7.20187e-06
-0.000218992
5.01347e-06
-0.000220493
3.42975e-06
-0.000221504
2.31814e-06
-0.000222189
1.56041e-06
-0.000222667
1.06494e-06
-0.000223031
7.8477e-07
-0.000223364
7.3818e-07
-0.000223771
1.05913e-06
-0.000224419
2.06677e-06
-0.000225542
4.28272e-06
-0.000227338
8.40494e-06
-0.000229686
1.52528e-05
-0.000231451
2.51625e-05
-0.000229117
3.67174e-05
-0.000218243
4.35833e-05
2.88113e-05
-0.000251776
2.75777e-05
0.000242699
-0.000258092
2.03118e-05
-0.000262315
1.43796e-05
-0.000265137
1.00231e-05
-0.000267012
6.88926e-06
-0.000268246
4.66316e-06
-0.000269058
3.13019e-06
-0.000269602
2.10448e-06
-0.000269975
1.43793e-06
-0.000270228
1.03792e-06
-0.000270358
8.68154e-07
-0.000270285
9.85471e-07
-0.000269825
1.60667e-06
-0.000268629
3.08667e-06
-0.00026608
5.85659e-06
-0.000261001
1.01737e-05
-0.000251593
1.5754e-05
-0.000236226
2.13511e-05
-0.000215729
2.30854e-05
1.30827e-05
-0.000282026
3.56482e-05
0.000273955
-0.000286855
2.51407e-05
-0.00028967
1.71947e-05
-0.000291388
1.17408e-05
-0.00029244
7.94156e-06
-0.000293079
5.30178e-06
-0.000293469
3.51965e-06
-0.000293708
2.34342e-06
-0.000293838
1.56787e-06
-0.000293851
1.05155e-06
-0.000293678
6.94743e-07
-0.000293132
4.40141e-07
-0.000291808
2.81677e-07
-0.000288914
1.93534e-07
-0.000283187
1.29465e-07
-0.000273109
9.51925e-08
-0.000257429
7.45422e-08
-0.000236129
5.0292e-08
-0.000213073
2.94084e-08
9.99774e-09
-0.00029178
4.14388e-05
0.00028599
-0.000294075
2.74349e-05
-0.000294797
1.79168e-05
-0.000294917
1.18613e-05
-0.000294814
7.83874e-06
-0.000294663
5.1505e-06
-0.000294526
3.38205e-06
-0.000294412
2.22948e-06
-0.000294303
1.4596e-06
-0.000294154
9.02468e-07
-0.000293872
4.12757e-07
-0.000293263
-1.68945e-07
-0.000291899
-1.08242e-06
-0.000288973
-2.73245e-06
-0.000283228
-5.61592e-06
-0.000273136
-9.99662e-06
-0.000257442
-1.56191e-05
-0.000236133
-2.12589e-05
-0.000213073
-2.30305e-05
-1.30634e-05
-0.00027991
4.37481e-05
0.0002776
-0.000278855
2.63803e-05
-0.000277025
1.6087e-05
-0.000275244
1.00798e-05
-0.000273824
6.41936e-06
-0.000272801
4.12714e-06
-0.000272098
2.67869e-06
-0.000271625
1.75639e-06
-0.000271311
1.14639e-06
-0.000271099
6.90176e-07
-0.00027092
2.33968e-07
-0.000270657
-4.32313e-07
-0.000270078
-1.66147e-06
-0.000268798
-4.01203e-06
-0.000266195
-8.2191e-06
-0.000261073
-1.51192e-05
-0.000251629
-2.50634e-05
-0.000236239
-3.66481e-05
-0.00021573
-4.354e-05
-2.87934e-05
-0.000244502
4.07282e-05
0.000247522
-0.000238853
2.07317e-05
-0.000234148
1.13818e-05
-0.000230709
6.64091e-06
-0.00022832
4.02983e-06
-0.000226708
2.51572e-06
-0.000225638
1.60825e-06
-0.000224933
1.05115e-06
-0.00022448
6.93725e-07
-0.00022422
4.30335e-07
-0.000224142
1.55757e-07
-0.000224287
-2.87612e-07
-0.000224766
-1.18267e-06
-0.000225775
-3.0031e-06
-0.000227491
-6.5027e-06
-0.000229781
-1.28291e-05
-0.000231503
-2.33416e-05
-0.000229139
-3.90117e-05
-0.000218248
-5.44314e-05
-4.70413e-05
-0.000181253
2.92676e-05
0.000192714
-0.000170801
1.02791e-05
-0.000164272
4.85298e-06
-0.000160212
2.58158e-06
-0.000157637
1.45401e-06
-0.000155988
8.67304e-07
-0.000154922
5.42036e-07
-0.000154224
3.53138e-07
-0.000153769
2.38753e-07
-0.0001535
1.6073e-07
-0.000153428
8.39927e-08
-0.000153666
-4.92557e-08
-0.000154495
-3.53732e-07
-0.000156462
-1.03672e-06
-0.000160479
-2.48517e-06
-0.000167857
-5.45098e-06
-0.000179914
-1.12847e-05
-0.000196274
-2.26517e-05
-0.000208322
-4.23836e-05
-5.53634e-05
-8.03545e-05
0.000109622
-7.00754e-05
-6.52224e-05
-6.26408e-05
-6.11868e-05
-6.03195e-05
-5.97774e-05
-5.94243e-05
-5.91856e-05
-5.90248e-05
-5.89408e-05
-5.89901e-05
-5.93438e-05
-6.03806e-05
-6.28657e-05
-6.83167e-05
-7.96014e-05
-0.000102253
-0.000144637
-7.2603e-07
1.79317e-07
5.47437e-07
-9.28366e-07
2.03033e-07
-1.15672e-06
2.29318e-07
-1.41374e-06
2.57693e-07
-1.70034e-06
2.87545e-07
-2.01166e-06
3.11755e-07
-2.31042e-06
2.99536e-07
-2.4252e-06
1.14903e-07
-1.811e-06
-6.13956e-07
-2.35241e-06
5.4106e-07
-4.13721e-06
1.78442e-06
-5.23358e-06
1.09572e-06
-6.24158e-06
1.00736e-06
-7.32256e-06
1.08032e-06
-8.54315e-06
1.2199e-06
-9.94554e-06
1.40183e-06
-1.15666e-05
1.62051e-06
-1.34425e-05
1.87548e-06
-1.56138e-05
2.17087e-06
-1.81186e-05
2.50455e-06
-2.09842e-05
2.86538e-06
-2.42268e-05
3.24245e-06
-2.78378e-05
3.61093e-06
-3.17689e-05
3.9311e-06
-3.59182e-05
4.14919e-06
-4.01201e-05
4.20194e-06
-4.41442e-05
4.02398e-06
3.59128e-06
-2.60512e-06
7.41046e-07
2.04542e-06
-3.23796e-06
8.37884e-07
-3.9509e-06
9.4409e-07
-4.75169e-06
1.06054e-06
-5.64796e-06
1.18522e-06
-6.64439e-06
1.30976e-06
-7.75232e-06
1.40828e-06
-9.06633e-06
1.42975e-06
-1.11169e-05
1.43654e-06
-1.28974e-05
2.32111e-06
-1.44284e-05
3.31432e-06
-1.68435e-05
3.50953e-06
-1.96318e-05
3.79416e-06
-2.2786e-05
4.23294e-06
-2.63739e-05
4.80626e-06
-3.0475e-05
5.50149e-06
-3.51723e-05
6.31651e-06
-4.05499e-05
7.252e-06
-4.6687e-05
8.30711e-06
-5.3651e-05
9.46776e-06
-6.14849e-05
1.06989e-05
-7.01845e-05
1.19416e-05
-7.96731e-05
1.30993e-05
-8.97718e-05
1.40296e-05
-0.000100175
1.45518e-05
-0.000110443
1.44706e-05
-0.000120031
1.36113e-05
1.19498e-05
-4.87264e-06
1.71075e-06
3.90506e-06
-5.96622e-06
1.9332e-06
-7.19907e-06
2.17864e-06
-8.58798e-06
2.45095e-06
-1.01537e-05
2.75209e-06
-1.19243e-05
3.08129e-06
-1.395e-05
3.43446e-06
-1.6338e-05
3.81808e-06
-1.92359e-05
4.33432e-06
-2.22255e-05
5.31021e-06
-2.53456e-05
6.43368e-06
-2.91409e-05
7.30387e-06
-3.35621e-05
8.21424e-06
-3.86209e-05
9.2906e-06
-4.43839e-05
1.05682e-05
-5.09423e-05
1.20588e-05
-5.83972e-05
1.37705e-05
-6.68502e-05
1.57041e-05
-7.63916e-05
1.78478e-05
-8.70872e-05
2.01628e-05
-9.89581e-05
2.25693e-05
-0.000111951
2.49339e-05
-0.000125903
2.70518e-05
-0.000140509
2.86348e-05
-0.000155288
2.93311e-05
-0.000169599
2.87815e-05
-0.000182674
2.6686e-05
2.30442e-05
-7.43057e-06
3.1008e-06
6.04231e-06
-8.99662e-06
3.50075e-06
-1.07599e-05
3.94334e-06
-1.2745e-05
4.43726e-06
-1.49829e-05
4.99089e-06
-1.75141e-05
5.61318e-06
-2.03965e-05
6.31725e-06
-2.37106e-05
7.13242e-06
-2.75119e-05
8.13565e-06
-3.16544e-05
9.45259e-06
-3.61855e-05
1.09643e-05
-4.13865e-05
1.25042e-05
-4.73439e-05
1.41709e-05
-5.4117e-05
1.60628e-05
-6.17836e-05
1.82338e-05
-7.04377e-05
2.0712e-05
-8.01789e-05
2.35108e-05
-9.11018e-05
2.66262e-05
-0.000103282
3.00273e-05
-0.000116759
3.36394e-05
-0.000131514
3.73233e-05
-0.000147436
4.08564e-05
-0.000164298
4.39128e-05
-0.000181707
4.6044e-05
-0.000199082
4.67058e-05
-0.00021566
4.53589e-05
-0.000230516
4.1542e-05
3.52273e-05
-1.02019e-05
4.91542e-06
8.38912e-06
-1.22412e-05
5.54133e-06
-1.45313e-05
6.23474e-06
-1.71031e-05
7.00993e-06
-1.99937e-05
7.88214e-06
-2.32491e-05
8.869e-06
-2.69257e-05
9.99416e-06
-3.10866e-05
1.12934e-05
-3.57733e-05
1.28223e-05
-4.09604e-05
1.46394e-05
-4.67042e-05
1.67077e-05
-5.31677e-05
1.89672e-05
-6.04595e-05
2.14621e-05
-6.86598e-05
2.42625e-05
-7.78473e-05
2.74206e-05
-8.81033e-05
3.09673e-05
-9.95054e-05
3.49122e-05
-0.000112118
3.92377e-05
-0.000125977
4.38865e-05
-0.00014108
4.87414e-05
-0.000157357
5.36008e-05
-0.000174659
5.81579e-05
-0.000192729
6.19824e-05
-0.000211174
6.44893e-05
-0.000229413
6.49443e-05
-0.00024667
6.2616e-05
-0.000261931
5.68027e-05
4.72521e-05
-1.31083e-05
7.14872e-06
1.08764e-05
-1.56099e-05
8.04408e-06
-1.84094e-05
9.03534e-06
-2.15412e-05
1.01425e-05
-2.50455e-05
1.1387e-05
-2.89695e-05
1.27934e-05
-3.3366e-05
1.4391e-05
-3.82892e-05
1.62168e-05
-4.37815e-05
1.83146e-05
-4.98647e-05
2.07225e-05
-5.65963e-05
2.34392e-05
-6.40822e-05
2.64528e-05
-7.24142e-05
2.97937e-05
-8.16639e-05
3.35117e-05
-9.18907e-05
3.76469e-05
-0.000103144
4.22202e-05
-0.000115459
4.7226e-05
-0.000128845
5.26238e-05
-0.000143283
5.83243e-05
-0.000158711
6.41684e-05
-0.000175012
6.99014e-05
-0.000192009
7.51547e-05
-0.000209467
7.944e-05
-0.000227088
8.21103e-05
-0.000244415
8.22715e-05
-0.000260786
7.89866e-05
-0.000275183
7.11994e-05
5.80588e-05
-1.60713e-05
9.78585e-06
1.34357e-05
-1.90129e-05
1.09867e-05
-2.22906e-05
1.23138e-05
-2.59397e-05
1.37923e-05
-3.00008e-05
1.54486e-05
-3.45189e-05
1.73117e-05
-3.95417e-05
1.9414e-05
-4.51163e-05
2.17915e-05
-5.12836e-05
2.44818e-05
-5.80771e-05
2.75159e-05
-6.55452e-05
3.0907e-05
-7.3755e-05
3.46623e-05
-8.27662e-05
3.88046e-05
-9.26194e-05
4.33645e-05
-0.000103336
4.83626e-05
-0.000114913
5.37976e-05
-0.000127325
5.96374e-05
-0.000140511
6.58093e-05
-0.000154375
7.21885e-05
-0.000168787
7.85797e-05
-0.000183579
8.46935e-05
-0.000198555
9.01302e-05
-0.000213509
9.43941e-05
-0.00022832
9.6921e-05
-0.000242785
9.67364e-05
-0.000256547
9.27489e-05
-0.000268848
8.34998e-05
6.68111e-05
-1.90149e-05
1.28016e-05
1.60002e-05
-2.2363e-05
1.43357e-05
-2.60746e-05
1.60262e-05
-3.01841e-05
1.79023e-05
-3.47289e-05
1.99939e-05
-3.97491e-05
2.23322e-05
-4.52848e-05
2.495e-05
-5.1374e-05
2.78809e-05
-5.8049e-05
3.11568e-05
-6.53368e-05
3.48037e-05
-7.32664e-05
3.88364e-05
-8.18681e-05
4.32639e-05
-9.11604e-05
4.80966e-05
-0.000101139
5.33424e-05
-0.00011177
5.89936e-05
-0.000122989
6.50165e-05
-0.000134693
7.13416e-05
-0.00014674
7.78553e-05
-0.000158945
8.43934e-05
-0.000171094
9.07289e-05
-0.000182961
9.65602e-05
-0.00019433
0.000101498
-0.000204972
0.000105036
-0.000214923
0.000106872
-0.000224231
0.000106044
-0.000233101
0.000101619
-0.000241681
9.20797e-05
7.2652e-05
-2.1867e-05
1.61627e-05
1.85072e-05
-2.55782e-05
1.80477e-05
-2.96685e-05
2.01173e-05
-3.41686e-05
2.2403e-05
-3.91105e-05
2.49362e-05
-4.45261e-05
2.7748e-05
-5.04449e-05
3.08691e-05
-5.6892e-05
3.4328e-05
-6.38846e-05
3.81495e-05
-7.1432e-05
4.2351e-05
-7.95358e-05
4.69401e-05
-8.81873e-05
5.19151e-05
-9.73577e-05
5.72668e-05
-0.000106989
6.29738e-05
-0.000116989
6.89928e-05
-0.000127222
7.52492e-05
-0.000137508
8.16276e-05
-0.00014762
8.79666e-05
-0.000157285
9.40583e-05
-0.000166193
9.96366e-05
-0.000174002
0.000104369
-0.000180448
0.000107945
-0.00018535
0.000109938
-0.00018865
0.000110172
-0.000190368
0.000107763
-0.000191055
0.000102305
-0.000191926
9.29511e-05
7.34394e-05
-2.45618e-05
2.08981e-05
1.98272e-05
-2.8584e-05
2.20706e-05
-3.29884e-05
2.45224e-05
-3.77998e-05
2.72149e-05
-4.30418e-05
3.01786e-05
-4.87356e-05
3.34421e-05
-5.48971e-05
3.70307e-05
-6.15342e-05
4.09653e-05
-6.86444e-05
4.52598e-05
-7.62123e-05
4.99189e-05
-8.42073e-05
5.4935e-05
-9.25793e-05
6.0287e-05
-0.000101251
6.59388e-05
-0.000110112
7.18342e-05
-0.000119009
7.78892e-05
-0.000127743
8.39835e-05
-0.000136067
8.99518e-05
-0.000143684
9.55832e-05
-0.000150256
0.00010063
-0.000155421
0.000104802
-0.00015871
0.000107657
-0.000159755
0.00010899
-0.000158137
0.00010832
-0.000153522
0.000105556
-0.000145878
0.000100118
-0.000135127
9.15549e-05
-0.000121434
7.92576e-05
6.16275e-05
2.37626e-08
-2.37183e-08
6.54627e-08
-4.15323e-08
1.01627e-07
-3.60159e-08
1.21784e-07
-1.99603e-08
1.18663e-07
3.28818e-09
8.88872e-08
3.00197e-08
3.75314e-08
5.15622e-08
-3.84232e-08
7.62614e-08
-1.37623e-07
9.94773e-08
-2.53918e-07
1.1666e-07
-3.90401e-07
1.36911e-07
1.5746e-07
4.79288e-08
-7.15038e-08
1.18569e-07
-1.11778e-07
1.67336e-07
-8.43373e-08
1.69066e-07
-2.12562e-08
1.11076e-07
6.18033e-08
-9.45277e-09
1.51073e-07
-1.94993e-07
2.37764e-07
-4.4266e-07
3.24595e-07
-7.51423e-07
4.09054e-07
-1.12159e-06
4.87741e-07
-1.55179e-06
5.68229e-07
6.51951e-07
5.03162e-08
-1.21666e-07
1.10108e-07
-1.71162e-07
1.26295e-07
-1.00093e-07
6.76951e-08
3.77963e-08
-8.13096e-08
2.11304e-07
-3.27028e-07
3.97335e-07
-6.73126e-07
5.84477e-07
-1.11804e-06
7.70187e-07
-1.66114e-06
9.52916e-07
-2.30513e-06
1.13261e-06
-3.05125e-06
1.31548e-06
1.50641e-06
3.7137e-08
-1.58666e-07
5.72662e-08
-1.90873e-07
8.01652e-09
-5.04188e-08
-1.44388e-07
1.90657e-07
-4.15288e-07
4.82683e-07
-8.13761e-07
7.96349e-07
-1.34409e-06
1.11539e-06
-2.00706e-06
1.43383e-06
-2.80389e-06
1.75047e-06
-3.73828e-06
2.06784e-06
-4.81495e-06
2.39314e-06
2.73457e-06
1.71608e-08
-1.75672e-07
-2.51975e-08
-1.48105e-07
-1.67531e-07
9.23386e-08
-4.38956e-07
4.62526e-07
-8.57026e-07
9.01224e-07
-1.43094e-06
1.37078e-06
-2.16562e-06
1.85063e-06
-3.06372e-06
2.33255e-06
-4.12842e-06
2.81585e-06
-5.36513e-06
3.30533e-06
-6.78144e-06
3.81045e-06
4.34276e-06
-1.56815e-08
-1.59852e-07
-1.28895e-07
-3.44818e-08
-3.81401e-07
3.45265e-07
-7.92799e-07
8.74358e-07
-1.37766e-06
1.48654e-06
-2.14458e-06
2.1382e-06
-3.09881e-06
2.8054e-06
-4.24431e-06
3.47864e-06
-5.58596e-06
4.15815e-06
-7.13103e-06
4.85113e-06
-8.88971e-06
5.56995e-06
6.3301e-06
-5.10512e-08
-1.08647e-07
-2.48777e-07
1.63655e-07
-6.22904e-07
7.19811e-07
-1.18752e-06
1.43941e-06
-1.95245e-06
2.25192e-06
-2.9243e-06
3.11052e-06
-4.10781e-06
3.98942e-06
-5.50756e-06
4.87894e-06
-7.12963e-06
5.78082e-06
-8.98285e-06
6.70501e-06
-1.10793e-05
7.66724e-06
8.68684e-06
-8.86079e-08
-1.98978e-08
-3.78383e-07
4.53839e-07
-8.81688e-07
1.22353e-06
-1.60712e-06
2.16526e-06
-2.55963e-06
3.20486e-06
-3.7427e-06
4.29404e-06
-5.15965e-06
5.40685e-06
-6.81482e-06
6.53463e-06
-8.71484e-06
7.6814e-06
-1.08694e-05
8.86022e-06
-1.3292e-05
1.00904e-05
1.13956e-05
-1.32352e-07
1.12607e-07
-5.12846e-07
8.34751e-07
-1.14754e-06
1.85864e-06
-2.03694e-06
3.05509e-06
-3.1796e-06
4.34795e-06
-4.57497e-06
5.68986e-06
-6.22407e-06
7.05642e-06
-8.13023e-06
8.4413e-06
-1.02998e-05
9.85151e-06
-1.27427e-05
1.13037e-05
-1.54725e-05
1.28209e-05
1.44306e-05
-1.68962e-07
2.81714e-07
-6.43131e-07
1.30934e-06
-1.41061e-06
2.62654e-06
-2.46376e-06
4.10865e-06
-3.7948e-06
5.67941e-06
-5.39871e-06
7.29419e-06
-7.27357e-06
8.93174e-06
-9.42092e-06
1.05891e-05
-1.1846e-05
1.22771e-05
-1.4558e-05
1.40162e-05
-1.75698e-05
1.58332e-05
1.77593e-05
-2.88133e-05
2.40013e-05
2.46403e-05
-3.33634e-05
2.66213e-05
-3.83092e-05
2.94687e-05
-4.3668e-05
3.25742e-05
-4.94537e-05
3.59647e-05
-5.56741e-05
3.96628e-05
-6.23282e-05
4.3685e-05
-6.9403e-05
4.80401e-05
-7.68702e-05
5.2727e-05
-8.46828e-05
5.77314e-05
-9.27711e-05
6.30233e-05
-0.000101038
6.8554e-05
-0.000109353
7.42535e-05
-0.000117544
8.00253e-05
-0.000125396
8.57406e-05
-0.000132644
9.12314e-05
-0.000138973
9.62809e-05
-0.000144014
0.000100624
-0.000147372
0.000103988
-0.000148575
0.000106004
-0.000147131
0.000106214
-0.000142644
0.000104503
-0.000134633
0.000100309
-0.00012228
9.3204e-05
-0.000104787
8.26251e-05
-8.08463e-05
6.76139e-05
-4.71476e-05
4.55592e-05
1.44799e-05
-3.12927e-05
2.84008e-05
2.68938e-05
-3.60519e-05
3.1381e-05
-4.11813e-05
3.45987e-05
-4.66874e-05
3.80807e-05
-5.257e-05
4.18476e-05
-5.88199e-05
4.5913e-05
-6.54161e-05
5.02813e-05
-7.23218e-05
5.4946e-05
-7.94815e-05
5.98867e-05
-8.68165e-05
6.50665e-05
-9.42216e-05
7.04284e-05
-0.00010156
7.58926e-05
-0.00010866
8.13534e-05
-0.00011531
8.66751e-05
-0.000121258
9.16882e-05
-0.000126212
9.61857e-05
-0.000129844
9.9913e-05
-0.000131728
0.000102508
-0.000131491
0.000103751
-0.000128744
0.000103257
-0.000123221
0.00010069
-0.000114446
9.57277e-05
-0.000102027
8.78898e-05
-8.56174e-05
7.67942e-05
-6.50347e-05
6.20424e-05
-4.05612e-05
4.31405e-05
-1.48084e-05
1.98065e-05
-3.28488e-07
-3.34027e-05
3.29592e-05
2.8845e-05
-3.82923e-05
3.6271e-05
-4.35135e-05
3.98203e-05
-4.90601e-05
4.36276e-05
-5.49169e-05
4.77047e-05
-6.10571e-05
5.20533e-05
-6.74389e-05
5.66632e-05
-7.40024e-05
6.15096e-05
-8.06662e-05
6.65506e-05
-8.73238e-05
7.17242e-05
-9.38406e-05
7.69451e-05
-0.00010005
8.21022e-05
-0.000105753
8.70564e-05
-0.000110716
9.16383e-05
-0.000114676
9.56477e-05
-0.000117341
9.88506e-05
-0.000118351
0.000100923
-0.000117398
0.000101555
-0.000114219
0.000100573
-0.000108546
9.75836e-05
-0.000100143
9.22875e-05
-8.88338e-05
8.44189e-05
-7.46256e-05
7.36815e-05
-5.77754e-05
5.99442e-05
-3.90414e-05
4.33084e-05
-2.02475e-05
2.43467e-05
-5.56337e-06
5.12271e-06
-5.89181e-06
-3.51086e-05
3.76084e-05
3.04598e-05
-4.00503e-05
4.12131e-05
-4.52737e-05
4.50441e-05
-5.07593e-05
4.91135e-05
-5.64767e-05
5.34223e-05
-6.23816e-05
5.79584e-05
-6.84128e-05
6.26946e-05
-7.44896e-05
6.75865e-05
-8.05087e-05
7.25698e-05
-8.6342e-05
7.75575e-05
-9.18342e-05
8.24373e-05
-9.68017e-05
8.70698e-05
-0.000101034
9.12884e-05
-0.000104296
9.49005e-05
-0.000106333
9.7685e-05
-0.000106849
9.93662e-05
-0.000105581
9.96555e-05
-0.000102395
9.8369e-05
-9.70537e-05
9.52316e-05
-8.94102e-05
8.99403e-05
-7.94441e-05
8.23216e-05
-6.72686e-05
7.22435e-05
-5.32452e-05
5.96583e-05
-3.80691e-05
4.47681e-05
-2.29453e-05
2.81849e-05
-9.87782e-06
1.12795e-05
-1.91279e-06
-2.84232e-06
-7.80461e-06
-3.63901e-05
4.22823e-05
3.17167e-05
-4.13091e-05
4.61324e-05
-4.6451e-05
5.01862e-05
-5.17834e-05
5.44461e-05
-5.72612e-05
5.89003e-05
-6.28242e-05
6.35215e-05
-6.83944e-05
6.82649e-05
-7.3874e-05
7.30662e-05
-7.91438e-05
7.78396e-05
-8.40618e-05
8.24755e-05
-8.84626e-05
8.68382e-05
-9.21585e-05
9.07657e-05
-9.49428e-05
9.40729e-05
-9.65963e-05
9.6554e-05
-9.68829e-05
9.79716e-05
-9.55934e-05
9.80768e-05
-9.2601e-05
9.66633e-05
-8.77609e-05
9.35291e-05
-8.09784e-05
8.84494e-05
-7.22921e-05
8.12542e-05
-6.18596e-05
7.18892e-05
-5.00093e-05
6.03934e-05
-3.7315e-05
4.69641e-05
-2.46422e-05
3.20956e-05
-1.31997e-05
1.67423e-05
-4.50604e-06
2.58573e-06
-1.36631e-07
-7.21164e-06
-7.94125e-06
-3.72413e-05
4.69177e-05
3.2606e-05
-4.20685e-05
5.09597e-05
-4.70539e-05
5.51719e-05
-5.21531e-05
5.95455e-05
-5.73079e-05
6.40553e-05
-6.24447e-05
6.86584e-05
-6.74722e-05
7.32926e-05
-7.22808e-05
7.78749e-05
-7.67415e-05
8.23004e-05
-8.07074e-05
8.64414e-05
-8.40138e-05
9.01447e-05
-8.64808e-05
9.32327e-05
-8.79197e-05
9.55119e-05
-8.81384e-05
9.67728e-05
-8.69688e-05
9.68022e-05
-8.42919e-05
9.54e-05
-8.0015e-05
9.23865e-05
-7.40892e-05
8.76035e-05
-6.65598e-05
8.09203e-05
-5.7591e-05
7.22856e-05
-4.74712e-05
6.17697e-05
-3.66487e-05
4.95712e-05
-2.57643e-05
3.60801e-05
-1.56524e-05
2.19837e-05
-7.30338e-06
8.39359e-06
-1.7275e-06
-2.9899e-06
5.62111e-07
-9.50134e-06
-7.37913e-06
-3.7669e-05
5.14578e-05
3.31292e-05
-4.23433e-05
5.56342e-05
-4.71082e-05
5.99371e-05
-5.19087e-05
6.43461e-05
-5.66759e-05
6.88225e-05
-6.13259e-05
7.33085e-05
-6.57587e-05
7.77255e-05
-6.9858e-05
8.19742e-05
-7.34923e-05
8.59347e-05
-7.65175e-05
8.94668e-05
-7.87795e-05
9.24068e-05
-8.01162e-05
9.45695e-05
-8.03633e-05
9.57591e-05
-7.93847e-05
9.57943e-05
-7.70787e-05
9.44963e-05
-7.33759e-05
9.16974e-05
-6.82543e-05
8.72651e-05
-6.17605e-05
8.11099e-05
-5.40352e-05
7.31953e-05
-4.53273e-05
6.35779e-05
-3.59956e-05
5.24383e-05
-2.65232e-05
4.00992e-05
-1.75182e-05
2.70752e-05
-9.68246e-06
1.41484e-05
-3.73811e-06
2.44942e-06
-2.89996e-07
-6.43808e-06
6.85579e-07
-1.04769e-05
-6.69357e-06
-3.76917e-05
5.58519e-05
3.32976e-05
-4.21612e-05
6.01037e-05
-4.66537e-05
6.44297e-05
-5.11054e-05
6.87978e-05
-5.54395e-05
7.31568e-05
-5.95658e-05
7.74349e-05
-6.33801e-05
8.15399e-05
-6.6765e-05
8.53591e-05
-6.95925e-05
8.87623e-05
-7.17286e-05
9.16029e-05
-7.30364e-05
9.37147e-05
-7.33693e-05
9.49024e-05
-7.26147e-05
9.50047e-05
-7.06936e-05
9.38732e-05
-6.75474e-05
9.13503e-05
-6.31623e-05
8.73125e-05
-5.75853e-05
8.16883e-05
-5.09334e-05
7.44582e-05
-4.34092e-05
6.56714e-05
-3.53049e-05
5.5474e-05
-2.69982e-05
4.4132e-05
-1.89483e-05
3.20496e-05
-1.16775e-05
1.98048e-05
-5.72569e-06
8.19687e-06
-1.57131e-06
-1.70462e-06
4.58748e-07
-8.46768e-06
5.9802e-07
-1.06157e-05
-6.09548e-06
-3.73374e-05
6.00578e-05
3.31317e-05
-4.15604e-05
6.43267e-05
-4.5741e-05
6.86103e-05
-4.98092e-05
7.2866e-05
-5.36833e-05
7.7031e-05
-5.72705e-05
8.10221e-05
-6.04672e-05
8.47365e-05
-6.31606e-05
8.80526e-05
-6.5232e-05
9.08337e-05
-6.65631e-05
9.2934e-05
-6.70138e-05
9.41655e-05
-6.64923e-05
9.43809e-05
-6.49476e-05
9.34601e-05
-6.23252e-05
9.1251e-05
-5.86092e-05
8.76344e-05
-5.38415e-05
8.2545e-05
-4.81209e-05
7.59679e-05
-4.16111e-05
6.79486e-05
-3.45466e-05
5.86072e-05
-2.72301e-05
4.81579e-05
-2.00218e-05
3.6924e-05
-1.33244e-05
2.53527e-05
-7.5554e-06
1.40362e-05
-3.09681e-06
3.73873e-06
-2.234e-07
-4.57734e-06
9.36056e-07
-9.62653e-06
6.00299e-07
-1.028e-05
-5.49513e-06
-3.66415e-05
6.40409e-05
3.26582e-05
-4.05863e-05
6.82716e-05
-4.4428e-05
7.2452e-05
-4.80925e-05
7.65305e-05
-5.14961e-05
8.04347e-05
-5.45468e-05
8.40729e-05
-5.7146e-05
8.73357e-05
-5.91914e-05
9.0098e-05
-6.05788e-05
9.22212e-05
-6.1171e-05
9.35262e-05
-6.08863e-05
9.38809e-05
-5.97021e-05
9.31968e-05
-5.75652e-05
9.13233e-05
-5.44547e-05
8.81406e-05
-5.04046e-05
8.35845e-05
-4.54971e-05
7.76376e-05
-3.98661e-05
7.03371e-05
-3.37007e-05
6.17834e-05
-2.72445e-05
5.21512e-05
-2.07872e-05
4.17009e-05
-1.4651e-05
3.07881e-05
-9.16991e-06
1.9872e-05
-4.66001e-06
9.52672e-06
-1.37406e-06
4.53393e-07
5.54574e-07
-6.50555e-06
1.18952e-06
-1.02612e-05
7.04464e-07
-9.79369e-06
-4.79061e-06
-3.56446e-05
6.77759e-05
3.19096e-05
-3.92899e-05
7.19168e-05
-4.27771e-05
7.59392e-05
-4.60305e-05
7.97839e-05
-4.8967e-05
8.33711e-05
-5.14976e-05
8.66034e-05
-5.35313e-05
8.93695e-05
-5.4978e-05
9.15447e-05
-5.57252e-05
9.29684e-05
-5.56893e-05
9.34903e-05
-5.48508e-05
9.30424e-05
-5.31622e-05
9.15083e-05
-5.05997e-05
8.87609e-05
-4.71896e-05
8.47305e-05
-4.29985e-05
7.93935e-05
-3.81364e-05
7.27756e-05
-3.27575e-05
6.49583e-05
-2.70597e-05
5.60857e-05
-2.12788e-05
4.63705e-05
-1.56783e-05
3.61008e-05
-1.05337e-05
2.56437e-05
-6.11065e-06
1.54493e-05
-2.63659e-06
6.05308e-06
-2.60319e-07
-1.92257e-06
9.84648e-07
-7.74994e-06
1.30214e-06
-1.05774e-05
9.18495e-07
-9.41036e-06
-3.87202e-06
-3.4391e-05
7.12449e-05
3.09216e-05
-3.77244e-05
7.52501e-05
-4.08521e-05
7.90669e-05
-4.36987e-05
8.26304e-05
-4.61835e-05
8.58559e-05
-4.8222e-05
8.86419e-05
-4.97285e-05
9.08759e-05
-5.06212e-05
9.24374e-05
-5.0825e-05
9.31722e-05
-5.03103e-05
9.29756e-05
-4.9037e-05
9.17691e-05
-4.69731e-05
8.94445e-05
-4.41372e-05
8.5925e-05
-4.05831e-05
8.11764e-05
-3.64007e-05
7.52112e-05
-3.17168e-05
6.80918e-05
-2.6694e-05
5.99356e-05
-2.15264e-05
5.09182e-05
-1.64322e-05
4.12765e-05
-1.1642e-05
3.13107e-05
-7.3832e-06
2.13851e-05
-3.86078e-06
1.19271e-05
-1.23187e-06
3.42434e-06
4.3148e-07
-3.58556e-06
1.18727e-06
-8.50538e-06
1.30869e-06
-1.06993e-05
1.38415e-06
-9.48444e-06
-2.48782e-06
-3.29262e-05
7.44385e-05
2.97325e-05
-3.5944e-05
7.82678e-05
-3.87163e-05
8.18391e-05
-4.11699e-05
8.50839e-05
-4.32293e-05
8.79153e-05
-4.48184e-05
9.0231e-05
-4.58634e-05
9.19209e-05
-4.6283e-05
9.2857e-05
-4.60457e-05
9.29348e-05
-4.51394e-05
9.20693e-05
-4.35257e-05
9.01554e-05
-4.12068e-05
8.71256e-05
-3.82231e-05
8.29413e-05
-3.46473e-05
7.76006e-05
-3.05836e-05
7.11476e-05
-2.61668e-05
6.3675e-05
-2.15583e-05
5.53271e-05
-1.69406e-05
4.63005e-05
-1.25086e-05
3.68445e-05
-8.45806e-06
2.72602e-05
-4.97177e-06
1.78988e-05
-2.20279e-06
9.15804e-06
-2.55315e-07
1.47686e-06
8.34253e-07
-4.67529e-06
1.14213e-06
-8.8135e-06
8.50433e-07
-1.04067e-05
3.07843e-07
-8.94227e-06
-2.18001e-06
-3.1296e-05
7.73534e-05
2.83808e-05
-3.40017e-05
8.09732e-05
-3.64297e-05
8.42669e-05
-3.85107e-05
8.71648e-05
-4.01765e-05
8.9581e-05
-4.13609e-05
9.14153e-05
-4.19926e-05
9.25525e-05
-4.2031e-05
9.28954e-05
-4.14536e-05
9.23574e-05
-4.02338e-05
9.08495e-05
-3.83751e-05
8.82967e-05
-3.59026e-05
8.46531e-05
-3.28713e-05
7.991e-05
-2.93657e-05
7.4095e-05
-2.54971e-05
6.72791e-05
-2.14009e-05
5.95788e-05
-1.7231e-05
5.11572e-05
-1.31537e-05
4.22231e-05
-9.33837e-06
3.30291e-05
-5.94737e-06
2.38691e-05
-3.12351e-06
1.50748e-05
-9.76912e-07
7.01117e-06
4.28728e-07
7.08439e-08
1.08923e-06
-5.33623e-06
1.05082e-06
-8.77549e-06
4.29049e-07
-9.78595e-06
-6.33421e-07
-7.88015e-06
-2.8135e-06
-2.9545e-05
7.99929e-05
2.69052e-05
-3.1948e-05
8.3376e-05
-3.40486e-05
8.63674e-05
-3.57817e-05
8.88979e-05
-3.7085e-05
9.08841e-05
-3.79041e-05
9.22343e-05
-3.81932e-05
9.28416e-05
-3.79195e-05
9.26216e-05
-3.70679e-05
9.15057e-05
-3.56267e-05
8.94082e-05
-3.36139e-05
8.62838e-05
-3.10733e-05
8.21125e-05
-2.80725e-05
7.69092e-05
-2.47032e-05
7.07256e-05
-2.10786e-05
6.36544e-05
-1.73296e-05
5.58297e-05
-1.35989e-05
4.74264e-05
-1.0034e-05
3.86582e-05
-6.77949e-06
2.97744e-05
-3.96677e-06
2.10561e-05
-1.70434e-06
1.2812e-05
-6.67257e-08
5.37316e-06
9.15995e-07
-9.12341e-07
1.26322e-06
-5.684e-06
1.03681e-06
-8.54982e-06
4.33389e-07
-9.18292e-06
-1.67699e-07
-7.27967e-06
-2.9813e-06
-2.77159e-05
8.23652e-05
2.53432e-05
-2.98309e-05
8.54908e-05
-3.16263e-05
8.81626e-05
-3.30424e-05
9.03139e-05
-3.40236e-05
9.18652e-05
-3.45209e-05
9.27316e-05
-3.45282e-05
9.28487e-05
-3.40154e-05
9.21088e-05
-3.29507e-05
9.0441e-05
-3.13539e-05
8.78114e-05
-2.92574e-05
8.41873e-05
-2.67154e-05
7.95705e-05
-2.38028e-05
7.39966e-05
-2.06144e-05
6.75371e-05
-1.72612e-05
6.03012e-05
-1.38664e-05
5.24348e-05
-1.05592e-05
4.41191e-05
-7.46846e-06
3.55673e-05
-4.71492e-06
2.70206e-05
-2.40321e-06
1.87441e-05
-6.13243e-07
1.10216e-05
6.08437e-07
4.15103e-06
1.25704e-06
-1.56142e-06
1.37428e-06
-5.80177e-06
1.05291e-06
-8.22889e-06
5.0576e-07
-8.63648e-06
5.34309e-08
-6.82799e-06
-2.92795e-06
-2.58482e-05
8.44827e-05
2.37304e-05
-2.76938e-05
8.73362e-05
-2.921e-05
8.96786e-05
-3.03435e-05
9.14472e-05
-3.10474e-05
9.2569e-05
-3.12981e-05
9.29821e-05
-3.10668e-05
9.26174e-05
-3.03412e-05
9.13831e-05
-2.91227e-05
8.92224e-05
-2.74302e-05
8.61188e-05
-2.53066e-05
8.20637e-05
-2.28135e-05
7.70772e-05
-2.00295e-05
7.12125e-05
-1.70491e-05
6.45566e-05
-1.39784e-05
5.72304e-05
-1.09309e-05
4.93871e-05
-8.02166e-06
4.12097e-05
-5.36128e-06
3.29067e-05
-3.0493e-06
2.47084e-05
-1.16728e-06
1.68618e-05
2.28e-07
9.62595e-06
1.1113e-06
3.2673e-06
1.4958e-06
-1.94634e-06
1.4354e-06
-5.74175e-06
1.0564e-06
-7.85034e-06
5.4677e-07
-8.12733e-06
1.37894e-07
-6.41947e-06
-2.79012e-06
-2.3978e-05
8.63606e-05
2.20997e-05
-2.55751e-05
8.8933e-05
-2.68391e-05
9.09424e-05
-2.7724e-05
9.2332e-05
-2.81938e-05
9.30386e-05
-2.82386e-05
9.30268e-05
-2.78208e-05
9.21996e-05
-2.69315e-05
9.04936e-05
-2.56017e-05
8.78926e-05
-2.38597e-05
8.43766e-05
-2.17523e-05
7.99562e-05
-1.93442e-05
7.46691e-05
-1.67152e-05
6.85834e-05
-1.39564e-05
6.17978e-05
-1.11674e-05
5.44413e-05
-8.45107e-06
4.66706e-05
-5.90834e-06
3.86667e-05
-3.63302e-06
3.06311e-05
-1.70586e-06
2.27809e-05
-1.88985e-07
1.53445e-05
8.79659e-07
8.55692e-06
1.49143e-06
2.65515e-06
1.67014e-06
-2.12537e-06
1.47659e-06
-5.54851e-06
1.05599e-06
-7.42999e-06
5.64191e-07
-7.6358e-06
1.65561e-07
-6.02129e-06
-2.62461e-06
-2.21368e-05
8.80162e-05
2.04809e-05
-2.35074e-05
9.03034e-05
-2.45459e-05
9.19807e-05
-2.52132e-05
9.29991e-05
-2.54936e-05
9.33189e-05
-2.53522e-05
9.28853e-05
-2.47761e-05
9.16233e-05
-2.37804e-05
8.94978e-05
-2.23874e-05
8.64995e-05
-2.06356e-05
8.26247e-05
-1.85776e-05
7.78981e-05
-1.62799e-05
7.23713e-05
-1.38208e-05
6.61241e-05
-1.12872e-05
5.92641e-05
-8.77077e-06
5.19248e-05
-6.36359e-06
4.42632e-05
-4.15335e-06
3.64563e-05
-2.21856e-06
2.86961e-05
-6.23766e-07
2.11858e-05
5.85095e-07
1.41353e-05
1.38504e-06
7.75663e-06
1.78008e-06
2.25979e-06
1.80387e-06
-2.14943e-06
1.52674e-06
-5.27157e-06
1.075e-06
-6.97845e-06
5.77682e-07
-7.13881e-06
1.76198e-07
-5.61994e-06
-2.44844e-06
-2.03529e-05
8.94677e-05
1.8901e-05
-2.15195e-05
9.14697e-05
-2.23591e-05
9.28201e-05
-2.28408e-05
9.34807e-05
-2.29544e-05
9.34324e-05
-2.26664e-05
9.25971e-05
-2.19725e-05
9.09294e-05
-2.09009e-05
8.84261e-05
-1.94784e-05
8.50769e-05
-1.77471e-05
8.08934e-05
-1.57623e-05
7.59132e-05
-1.35908e-05
7.01996e-05
-1.1308e-05
6.38413e-05
-8.99563e-06
5.69515e-05
-6.73706e-06
4.9666e-05
-4.61392e-06
4.21399e-05
-2.70159e-06
3.45437e-05
-1.06514e-06
2.70594e-05
2.44733e-07
1.98756e-05
1.1954e-06
1.31844e-05
1.77578e-06
7.17596e-06
1.99968e-06
2.03563e-06
1.90553e-06
-2.05549e-06
1.57062e-06
-4.93684e-06
1.09431e-06
-6.50229e-06
5.8613e-07
-6.63072e-06
1.80138e-07
-5.21424e-06
-2.26834e-06
-1.86501e-05
9.07343e-05
1.73833e-05
-1.96357e-05
9.24551e-05
-2.03061e-05
9.34903e-05
-2.06364e-05
9.38107e-05
-2.05971e-05
9.33929e-05
-2.01834e-05
9.21833e-05
-1.94092e-05
9.01551e-05
-1.82933e-05
8.73101e-05
-1.68683e-05
8.36518e-05
-1.51798e-05
7.92047e-05
-1.32842e-05
7.40175e-05
-1.12471e-05
6.81624e-05
-9.14058e-06
6.17346e-05
-7.04013e-06
5.48509e-05
-5.0212e-06
4.76469e-05
-3.15553e-06
4.02741e-05
-1.50745e-06
3.28954e-05
-1.30323e-07
2.5682e-05
9.36722e-07
1.88083e-05
1.67195e-06
1.24489e-05
2.07386e-06
6.7738e-06
2.16103e-06
1.94824e-06
1.97476e-06
-1.8694e-06
1.59354e-06
-4.55573e-06
1.0968e-06
-6.00567e-06
5.83283e-07
-6.11746e-06
1.78679e-07
-4.80969e-06
-2.08967e-06
-1.70472e-05