/*--------------------------------*- C++ -*----------------------------------*\
| =========                 |                                                 |
| \\      /  F ield         | OpenFOAM: The Open Source CFD Toolbox           |
|  \\    /   O peration     | Version:  v2012                                 |
|   \\  /    A nd           | Website:  www.openfoam.com                      |
|    \\/     M anipulation  |                                                 |
\*---------------------------------------------------------------------------*/
FoamFile
{
    version     2.0;
    format      ascii;
    class       volVectorField;
    location    "5000";
    object      U;
}
// * * * * * * * * * * * * * * * * * * * * * * * * * * * * * * * * * * * * * //

dimensions      [0 1 -1 0 0 0 0];


internalField   nonuniform List<vector> 
6036
(
(0.00228742 -0.246851 0)
(0.00183698 -0.260069 0)
(0.00139709 -0.27009 0)
(0.0010297 -0.277418 0)
(0.000738203 -0.282649 0)
(0.000514419 -0.286301 0)
(0.000348036 -0.288795 0)
(0.00022502 -0.290461 0)
(0.000131173 -0.291543 0)
(5.64968e-05 -0.292228 0)
(7.5795e-07 -0.292691 0)
(-1.31737e-05 -0.29322 0)
(0.000102285 -0.294457 0)
(0.000566447 -0.297798 0)
(0.00186171 -0.305792 0)
(0.00484618 -0.323081 0)
(0.0117091 -0.362619 0)
(0.0341388 -0.454727 0)
(0.0980011 -0.596685 0)
(0.115189 -0.709133 0)
(0.0238432 -0.66088 0)
(0.0186142 -0.690702 0)
(0.0138787 -0.712936 0)
(0.0100482 -0.728982 0)
(0.00710454 -0.740322 0)
(0.00491307 -0.74818 0)
(0.00333047 -0.753534 0)
(0.00221382 -0.757141 0)
(0.00144796 -0.759569 0)
(0.000983503 -0.761263 0)
(0.000896285 -0.762657 0)
(0.00151399 -0.764372 0)
(0.00360646 -0.767602 0)
(0.00864566 -0.774543 0)
(0.0193045 -0.788646 0)
(0.0404135 -0.815394 0)
(0.0798367 -0.864906 0)
(0.147537 -0.944582 0)
(0.221462 -1.01948 0)
(0.222381 -1.00143 0)
(0.0555097 -0.993585 0)
(0.0425665 -1.03114 0)
(0.0312604 -1.05822 0)
(0.0223681 -1.07723 0)
(0.0156752 -1.0904 0)
(0.0107754 -1.09939 0)
(0.00729838 -1.10544 0)
(0.00490219 -1.10953 0)
(0.0033219 -1.11232 0)
(0.00244094 -1.11434 0)
(0.00238853 -1.11599 0)
(0.00374081 -1.1177 0)
(0.00780477 -1.12015 0)
(0.0168283 -1.1244 0)
(0.0340832 -1.13157 0)
(0.0638153 -1.14237 0)
(0.109426 -1.15543 0)
(0.166864 -1.1602 0)
(0.211832 -1.12468 0)
(0.161169 -1.04265 0)
(0.0921922 -1.23992 0)
(0.06875 -1.27753 0)
(0.0492574 -1.30298 0)
(0.0346043 -1.31995 0)
(0.0239195 -1.33126 0)
(0.0162824 -1.33873 0)
(0.0109809 -1.34364 0)
(0.00740776 -1.34689 0)
(0.00510419 -1.34911 0)
(0.00383419 -1.35066 0)
(0.00366166 -1.35168 0)
(0.00512569 -1.35196 0)
(0.00945618 -1.35095 0)
(0.0185009 -1.34753 0)
(0.0339884 -1.33922 0)
(0.0582305 -1.32196 0)
(0.0909499 -1.28802 0)
(0.124853 -1.22587 0)
(0.138227 -1.12919 0)
(0.0840324 -1.02838 0)
(0.128944 -1.39447 0)
(0.0945064 -1.42509 0)
(0.0665593 -1.44293 0)
(0.0460618 -1.45361 0)
(0.0314567 -1.46014 0)
(0.0211806 -1.46414 0)
(0.0141658 -1.46658 0)
(0.00948917 -1.46808 0)
(0.00641313 -1.46899 0)
(0.00441647 -1.46941 0)
(0.00311741 -1.46918 0)
(0.00242035 -1.46767 0)
(0.00281271 -1.46363 0)
(0.00513012 -1.45495 0)
(0.0118997 -1.43466 0)
(0.022945 -1.39697 0)
(0.0349504 -1.33368 0)
(0.0453965 -1.23767 0)
(0.0467168 -1.11706 0)
(0.025558 -1.01825 0)
(0.155779 -1.44956 0)
(0.105871 -1.46718 0)
(0.0703031 -1.47297 0)
(0.047497 -1.47466 0)
(0.0318985 -1.47442 0)
(0.0211285 -1.47368 0)
(0.013915 -1.47294 0)
(0.00920699 -1.47232 0)
(0.00610551 -1.47181 0)
(0.00399638 -1.47126 0)
(0.00244567 -1.47037 0)
(0.0010842 -1.46845 0)
(-0.00059134 -1.46417 0)
(-0.0036206 -1.45533 0)
(-0.0108995 -1.43488 0)
(-0.022197 -1.39715 0)
(-0.0343591 -1.33377 0)
(-0.0449957 -1.23771 0)
(-0.046482 -1.11707 0)
(-0.0254781 -1.01825 0)
(0.174913 -1.39924 0)
(0.111733 -1.39838 0)
(0.0710118 -1.3896 0)
(0.0457707 -1.38023 0)
(0.0296666 -1.37216 0)
(0.0192885 -1.36613 0)
(0.0126032 -1.36193 0)
(0.00827245 -1.35909 0)
(0.00535441 -1.3572 0)
(0.00313457 -1.35596 0)
(0.000927174 -1.35511 0)
(-0.00215532 -1.3542 0)
(-0.00751484 -1.35246 0)
(-0.0171856 -1.34856 0)
(-0.0330676 -1.33991 0)
(-0.0575729 -1.32242 0)
(-0.0904657 -1.28828 0)
(-0.124519 -1.22598 0)
(-0.138025 -1.12922 0)
(-0.0839596 -1.02837 0)
(0.173664 -1.2342 0)
(0.0976973 -1.20771 0)
(0.0569415 -1.18072 0)
(0.0344852 -1.16072 0)
(0.0214553 -1.14651 0)
(0.0136036 -1.13683 0)
(0.0087691 -1.13036 0)
(0.00574215 -1.12609 0)
(0.00376328 -1.12329 0)
(0.002276 -1.12155 0)
(0.000718249 -1.1207 0)
(-0.00173117 -1.1208 0)
(-0.00650489 -1.12223 0)
(-0.0159683 -1.1258 0)
(-0.0334976 -1.13251 0)
(-0.0633954 -1.14297 0)
(-0.109121 -1.15578 0)
(-0.166647 -1.16037 0)
(-0.211691 -1.12473 0)
(-0.161103 -1.04265 0)
(0.147654 -0.931063 0)
(0.06679 -0.876063 0)
(0.0343536 -0.83419 0)
(0.0190309 -0.809158 0)
(0.0111051 -0.793354 0)
(0.0067652 -0.783266 0)
(0.00426962 -0.776773 0)
(0.00278573 -0.772541 0)
(0.0018662 -0.769755 0)
(0.00121775 -0.767969 0)
(0.000557816 -0.767058 0)
(-0.000556394 -0.767273 0)
(-0.00298764 -0.769532 0)
(-0.00824606 -0.775838 0)
(-0.0190351 -0.789512 0)
(-0.0402216 -0.815957 0)
(-0.0796966 -0.865249 0)
(-0.147438 -0.944769 0)
(-0.221392 -1.01955 0)
(-0.222346 -1.00144 0)
(0.0866157 -0.432404 0)
(0.0188843 -0.371517 0)
(0.00623746 -0.33466 0)
(0.00293301 -0.318007 0)
(0.00150043 -0.308809 0)
(0.000832809 -0.303347 0)
(0.00050044 -0.299996 0)
(0.000323748 -0.297855 0)
(0.000229321 -0.296426 0)
(0.000182788 -0.29544 0)
(0.000157847 -0.294812 0)
(0.000108381 -0.294615 0)
(-4.16233e-05 -0.295365 0)
(-0.000523695 -0.298408 0)
(-0.00183286 -0.306207 0)
(-0.00482457 -0.323353 0)
(-0.0116915 -0.362788 0)
(-0.0341264 -0.454821 0)
(-0.0979953 -0.596722 0)
(-0.115185 -0.709142 0)
(6.20253e-05 -0.00315428 0)
(6.95491e-05 -0.00410353 0)
(7.85167e-05 -0.00517649 0)
(8.88464e-05 -0.00638592 0)
(0.00010069 -0.00774241 0)
(0.00011046 -0.0092397 0)
(8.88536e-05 -0.0108084 0)
(-9.5926e-05 -0.0121536 0)
(-0.000634032 -0.0135124 0)
(-0.000537302 -0.00347583 0)
(0.000720288 -0.0188463 0)
(0.000554178 -0.0237726 0)
(0.000435761 -0.0286142 0)
(0.000392485 -0.0337412 0)
(0.000414476 -0.0394663 0)
(0.000483232 -0.0459817 0)
(0.0005655 -0.0534992 0)
(0.000668104 -0.0622031 0)
(0.000856762 -0.0722872 0)
(0.00111308 -0.0839441 0)
(0.00136641 -0.0973497 0)
(0.001642 -0.112627 0)
(0.00194601 -0.129806 0)
(0.00225902 -0.148759 0)
(0.00254628 -0.169123 0)
(0.00275773 -0.190231 0)
(0.00281616 -0.211065 0)
(0.00264991 -0.230327 0)
(0.001496 -0.0115362 0)
(0.00169143 -0.0145081 0)
(0.00190525 -0.0178606 0)
(0.00213521 -0.0216312 0)
(0.00237257 -0.025859 0)
(0.00257297 -0.0305794 0)
(0.0025792 -0.035851 0)
(0.00184166 -0.0420641 0)
(-0.00079449 -0.05068 0)
(0.00474181 -0.0581757 0)
(0.0106913 -0.0684044 0)
(0.00824488 -0.0780205 0)
(0.0082233 -0.0907829 0)
(0.00899256 -0.105536 0)
(0.0101793 -0.122307 0)
(0.0116788 -0.141438 0)
(0.013476 -0.163339 0)
(0.0155688 -0.188432 0)
(0.0179543 -0.217133 0)
(0.0206196 -0.249824 0)
(0.023508 -0.286802 0)
(0.0265031 -0.328192 0)
(0.0293951 -0.373826 0)
(0.0318636 -0.4231 0)
(0.0334836 -0.47482 0)
(0.0337684 -0.527123 0)
(0.0322374 -0.57745 0)
(0.0287314 -0.622839 0)
(0.00447693 -0.0217925 0)
(0.00506259 -0.0269293 0)
(0.00570715 -0.0327256 0)
(0.00641894 -0.0392563 0)
(0.00719648 -0.0466153 0)
(0.0080198 -0.0549257 0)
(0.00882686 -0.064386 0)
(0.0095263 -0.0754239 0)
(0.0104459 -0.0886386 0)
(0.0140473 -0.102747 0)
(0.0181568 -0.118459 0)
(0.0201373 -0.135668 0)
(0.0223317 -0.156061 0)
(0.025151 -0.179647 0)
(0.0286276 -0.206589 0)
(0.0327588 -0.237271 0)
(0.0375594 -0.272181 0)
(0.0430378 -0.311834 0)
(0.0491745 -0.356724 0)
(0.0558778 -0.407263 0)
(0.0629407 -0.4637 0)
(0.0700024 -0.525992 0)
(0.0764888 -0.59365 0)
(0.0815728 -0.665541 0)
(0.0842237 -0.739719 0)
(0.0833594 -0.813374 0)
(0.0780513 -0.882838 0)
(0.0682108 -0.943954 0)
(0.0091975 -0.0334698 0)
(0.0103923 -0.0408335 0)
(0.0117132 -0.0491295 0)
(0.0131845 -0.0584679 0)
(0.0148261 -0.068987 0)
(0.0166539 -0.0808652 0)
(0.0186867 -0.0943475 0)
(0.0209986 -0.109788 0)
(0.0239472 -0.127526 0)
(0.0284283 -0.147179 0)
(0.033568 -0.168896 0)
(0.0382625 -0.193139 0)
(0.0432908 -0.22091 0)
(0.0490936 -0.252618 0)
(0.0558522 -0.288595 0)
(0.0636529 -0.32927 0)
(0.0725457 -0.375135 0)
(0.0825331 -0.426688 0)
(0.093538 -0.484372 0)
(0.105343 -0.5485 0)
(0.117519 -0.619157 0)
(0.12936 -0.69606 0)
(0.139806 -0.778413 0)
(0.147387 -0.864706 0)
(0.150319 -0.95253 0)
(0.146825 -1.03856 0)
(0.135453 -1.11844 0)
(0.116158 -1.18689 0)
(0.0156124 -0.0462081 0)
(0.0176188 -0.0558107 0)
(0.0198414 -0.0666009 0)
(0.0223258 -0.0787161 0)
(0.025119 -0.0923256 0)
(0.0282743 -0.107637 0)
(0.0318661 -0.124906 0)
(0.0360268 -0.144434 0)
(0.0410231 -0.166486 0)
(0.0472198 -0.191063 0)
(0.0542996 -0.218329 0)
(0.0618219 -0.248746 0)
(0.0700785 -0.28302 0)
(0.079407 -0.321639 0)
(0.090024 -0.364999 0)
(0.102056 -0.413502 0)
(0.115557 -0.467555 0)
(0.130492 -0.527523 0)
(0.146693 -0.593678 0)
(0.163777 -0.666125 0)
(0.181058 -0.74471 0)
(0.197461 -0.828914 0)
(0.21144 -0.91776 0)
(0.220892 -1.00967 0)
(0.223243 -1.10224 0)
(0.215991 -1.19225 0)
(0.197028 -1.27523 0)
(0.166113 -1.34458 0)
(0.0237187 -0.0596408 0)
(0.026722 -0.0714429 0)
(0.0300494 -0.0846581 0)
(0.0337697 -0.0994422 0)
(0.0379568 -0.115982 0)
(0.0426954 -0.134495 0)
(0.0480935 -0.155232 0)
(0.0542983 -0.178464 0)
(0.0615107 -0.204434 0)
(0.0699234 -0.233293 0)
(0.0794608 -0.265253 0)
(0.0899873 -0.300705 0)
(0.10166 -0.340156 0)
(0.114724 -0.384025 0)
(0.129371 -0.432642 0)
(0.145714 -0.486284 0)
(0.163771 -0.54517 0)
(0.183433 -0.609424 0)
(0.204411 -0.679034 0)
(0.226146 -0.753809 0)
(0.247711 -0.833315 0)
(0.267722 -0.91682 0)
(0.284283 -1.00332 0)
(0.294839 -1.0915 0)
(0.296082 -1.17952 0)
(0.284734 -1.26501 0)
(0.257492 -1.34426 0)
(0.212038 -1.40892 0)
(0.0334793 -0.073403 0)
(0.0376403 -0.0873118 0)
(0.0422445 -0.10282 0)
(0.047383 -0.120091 0)
(0.0531528 -0.139316 0)
(0.059662 -0.160708 0)
(0.0670363 -0.1845 0)
(0.0754241 -0.210931 0)
(0.0849906 -0.240225 0)
(0.0958761 -0.272565 0)
(0.108108 -0.308155 0)
(0.121686 -0.347284 0)
(0.136725 -0.390279 0)
(0.153392 -0.437401 0)
(0.171819 -0.488807 0)
(0.192054 -0.544555 0)
(0.214032 -0.604579 0)
(0.237534 -0.668665 0)
(0.262133 -0.73643 0)
(0.287113 -0.807311 0)
(0.311366 -0.880554 0)
(0.333325 -0.955218 0)
(0.350988 -1.03032 0)
(0.361704 -1.10496 0)
(0.361571 -1.17828 0)
(0.346415 -1.24972 0)
(0.311129 -1.31848 0)
(0.252169 -1.37301 0)
(0.0448143 -0.0871392 0)
(0.0502618 -0.103011 0)
(0.0562757 -0.120621 0)
(0.0629656 -0.14013 0)
(0.0704457 -0.161718 0)
(0.0788388 -0.185581 0)
(0.0882773 -0.211919 0)
(0.0989038 -0.240933 0)
(0.11086 -0.272798 0)
(0.124264 -0.307665 0)
(0.139178 -0.345673 0)
(0.155642 -0.386976 0)
(0.173731 -0.431705 0)
(0.193531 -0.479903 0)
(0.215076 -0.531484 0)
(0.238306 -0.58621 0)
(0.263026 -0.643668 0)
(0.288871 -0.703244 0)
(0.315266 -0.764117 0)
(0.341361 -0.825292 0)
(0.365938 -0.885626 0)
(0.387335 -0.943913 0)
(0.403514 -0.999301 0)
(0.412748 -1.0507 0)
(0.411446 -1.09835 0)
(0.394556 -1.14362 0)
(0.356121 -1.19146 0)
(0.283076 -1.23275 0)
(0.0576056 -0.100514 0)
(0.0644314 -0.118158 0)
(0.0719425 -0.137626 0)
(0.0802613 -0.159063 0)
(0.0895126 -0.182628 0)
(0.0998238 -0.208482 0)
(0.111324 -0.236782 0)
(0.124142 -0.267666 0)
(0.138394 -0.301244 0)
(0.154172 -0.337584 0)
(0.171527 -0.376716 0)
(0.190481 -0.418628 0)
(0.211045 -0.463236 0)
(0.233199 -0.510334 0)
(0.256848 -0.559551 0)
(0.281783 -0.610325 0)
(0.30764 -0.661875 0)
(0.333872 -0.713175 0)
(0.359733 -0.76297 0)
(0.384243 -0.809825 0)
(0.406172 -0.852092 0)
(0.424256 -0.88785 0)
(0.436569 -0.916362 0)
(0.441967 -0.937343 0)
(0.436212 -0.949035 0)
(0.417522 -0.952993 0)
(0.379599 -0.962386 0)
(0.298956 -0.975881 0)
(0.071702 -0.113217 0)
(0.0799568 -0.132402 0)
(0.089003 -0.153438 0)
(0.0989695 -0.176447 0)
(0.109983 -0.201552 0)
(0.122164 -0.228868 0)
(0.13563 -0.258488 0)
(0.150481 -0.290478 0)
(0.1668 -0.324854 0)
(0.184636 -0.361575 0)
(0.203995 -0.400531 0)
(0.224836 -0.441527 0)
(0.247078 -0.484253 0)
(0.270568 -0.528248 0)
(0.295056 -0.572857 0)
(0.320156 -0.61721 0)
(0.345305 -0.660197 0)
(0.369761 -0.70044 0)
(0.39261 -0.736342 0)
(0.412745 -0.766181 0)
(0.428815 -0.787908 0)
(0.439199 -0.799086 0)
(0.442454 -0.79824 0)
(0.43874 -0.783193 0)
(0.425189 -0.751708 0)
(0.400227 -0.703236 0)
(0.361677 -0.651704 0)
(0.290698 -0.610152 0)
(-2.86613e-05 3.95869e-05 0)
(-4.90059e-05 0.000225298 0)
(-5.52333e-05 0.000433507 0)
(-6.41141e-05 0.000581886 0)
(-3.30269e-05 0.000625595 0)
(2.57032e-05 0.000548065 0)
(3.50055e-05 0.000344152 0)
(7.6556e-05 2.30527e-05 0)
(8.98888e-05 -0.000411338 0)
(4.91662e-05 -0.000953463 0)
(4.99394e-05 -0.0015865 0)
(5.5553e-05 -0.00231755 0)
(-0.000189968 8.90232e-05 0)
(-0.000314245 0.000428417 0)
(-0.00026046 0.000758088 0)
(-0.000119797 0.000906467 0)
(5.90681e-05 0.000775893 0)
(0.000251687 0.000332364 0)
(0.000435777 -0.000432876 0)
(0.00062177 -0.00151654 0)
(0.000809724 -0.002909 0)
(0.000978125 -0.00460707 0)
(0.00114496 -0.00660477 0)
(0.00131539 -0.00890974 0)
(-0.000393184 0.000119616 0)
(-0.000585016 0.000424092 0)
(-0.000416806 0.00066816 0)
(-4.52209e-05 0.000588719 0)
(0.000439763 8.25773e-05 0)
(0.000954646 -0.00089797 0)
(0.00146698 -0.00237682 0)
(0.00197355 -0.00435464 0)
(0.00246791 -0.00682377 0)
(0.00294755 -0.00978914 0)
(0.00343325 -0.0132594 0)
(0.00393818 -0.0172508 0)
(-0.000576491 0.000125724 0)
(-0.000775284 0.000279323 0)
(-0.000379747 0.000278678 0)
(0.000351841 -0.000202035 0)
(0.00125319 -0.00124512 0)
(0.0022229 -0.00291069 0)
(0.00320465 -0.00522977 0)
(0.00418035 -0.0082117 0)
(0.00514432 -0.011858 0)
(0.00610202 -0.0161808 0)
(0.00707935 -0.0212002 0)
(0.00810203 -0.0269477 0)
(-0.000690453 9.44232e-05 0)
(-0.000747573 8.4182e-05 0)
(-1.60591e-05 -0.000341471 0)
(0.00117742 -0.0013403 0)
(0.00261115 -0.00305051 0)
(0.00415044 -0.00552213 0)
(0.00572051 -0.00878908 0)
(0.00729212 -0.0128676 0)
(0.00886111 -0.0177692 0)
(0.0104418 -0.0235145 0)
(0.0120671 -0.0301352 0)
(0.0137762 -0.0376786 0)
(-0.00069926 -1.4251e-05 0)
(-0.000437581 -0.000181095 0)
(0.000761076 -0.00109588 0)
(0.00252836 -0.00272551 0)
(0.00460279 -0.00520336 0)
(0.00681947 -0.00857467 0)
(0.00908806 -0.0128721 0)
(0.011372 -0.0181161 0)
(0.01367 -0.0243265 0)
(0.0160055 -0.0315324 0)
(0.0184218 -0.0397768 0)
(0.0209727 -0.0491199 0)
(-0.000573721 -5.16229e-05 0)
(0.000173971 -0.000528177 0)
(0.00200632 -0.00194895 0)
(0.00447172 -0.00428103 0)
(0.00729399 -0.00759504 0)
(0.01029 -0.0119301 0)
(0.0133588 -0.017313 0)
(0.0164608 -0.0237648 0)
(0.0195994 -0.0313102 0)
(0.0228083 -0.0399854 0)
(0.0261434 -0.049842 0)
(0.0296743 -0.0609512 0)
(-0.000291005 -7.48358e-05 0)
(0.00114443 -0.000908995 0)
(0.00375766 -0.00286948 0)
(0.00704826 -0.00594067 0)
(0.0107258 -0.0101309 0)
(0.0145982 -0.0154655 0)
(0.0185605 -0.021961 0)
(0.0225746 -0.0296347 0)
(0.0266515 -0.0385126 0)
(0.0308365 -0.0486349 0)
(0.0351997 -0.0600587 0)
(0.039827 -0.0728614 0)
(0.000149617 -0.00015015 0)
(0.00248655 -0.00130574 0)
(0.00603376 -0.00381815 0)
(0.0102783 -0.00764351 0)
(0.0149175 -0.0127256 0)
(0.0197584 -0.0190699 0)
(0.0246985 -0.0266785 0)
(0.0297066 -0.0355608 0)
(0.0348042 -0.0457402 0)
(0.0400501 -0.0572567 0)
(0.0455293 -0.0701691 0)
(0.0513436 -0.084556 0)
(0.000751399 -0.000138439 0)
(0.00420065 -0.00169125 0)
(0.00884127 -0.00475294 0)
(0.0141674 -0.00933283 0)
(0.0198706 -0.0153027 0)
(0.0257648 -0.0226439 0)
(0.0317572 -0.0313411 0)
(0.0378282 -0.0413926 0)
(0.0440126 -0.0528149 0)
(0.0503843 -0.0656439 0)
(0.0570434 -0.079935 0)
(0.0641071 -0.0957626 0)
(0.0874012 -0.125341 0)
(0.0971381 -0.145843 0)
(0.107755 -0.168165 0)
(0.119378 -0.192392 0)
(0.132128 -0.218601 0)
(0.146107 -0.246845 0)
(0.161405 -0.277143 0)
(0.178084 -0.309468 0)
(0.196174 -0.343726 0)
(0.21566 -0.379744 0)
(0.236473 -0.417254 0)
(0.258476 -0.45587 0)
(0.281462 -0.495062 0)
(0.305127 -0.534126 0)
(0.329043 -0.572153 0)
(0.35263 -0.608021 0)
(0.375121 -0.640371 0)
(0.395571 -0.667567 0)
(0.412943 -0.687772 0)
(0.425885 -0.699213 0)
(0.432118 -0.699109 0)
(0.432052 -0.685424 0)
(0.423053 -0.656818 0)
(0.403872 -0.610161 0)
(0.372449 -0.539951 0)
(0.32571 -0.440316 0)
(0.255922 -0.31328 0)
(0.143963 -0.173195 0)
(0.104613 -0.136492 0)
(0.115836 -0.158027 0)
(0.127999 -0.181284 0)
(0.141217 -0.206304 0)
(0.15559 -0.233105 0)
(0.171193 -0.261668 0)
(0.18807 -0.291926 0)
(0.20623 -0.323747 0)
(0.225632 -0.356918 0)
(0.246177 -0.391129 0)
(0.267695 -0.425952 0)
(0.28993 -0.460824 0)
(0.31253 -0.495022 0)
(0.335026 -0.527646 0)
(0.356817 -0.557605 0)
(0.377141 -0.583624 0)
(0.395044 -0.604244 0)
(0.409357 -0.61774 0)
(0.418756 -0.622037 0)
(0.42192 -0.615491 0)
(0.417466 -0.596197 0)
(0.403987 -0.563267 0)
(0.379546 -0.5137 0)
(0.342259 -0.446372 0)
(0.289818 -0.35886 0)
(0.218359 -0.249963 0)
(0.121844 -0.130762 0)
(0.0236186 -0.0303939 0)
(0.122597 -0.146075 0)
(0.135214 -0.168301 0)
(0.148793 -0.192094 0)
(0.163428 -0.217442 0)
(0.179189 -0.244296 0)
(0.196107 -0.272563 0)
(0.214173 -0.302085 0)
(0.233328 -0.332625 0)
(0.253448 -0.363857 0)
(0.274336 -0.395342 0)
(0.295709 -0.426516 0)
(0.317182 -0.456675 0)
(0.338261 -0.48496 0)
(0.358329 -0.510349 0)
(0.37664 -0.531665 0)
(0.392307 -0.547611 0)
(0.404207 -0.55677 0)
(0.410566 -0.557116 0)
(0.411217 -0.54772 0)
(0.404178 -0.527279 0)
(0.388164 -0.494283 0)
(0.361933 -0.448088 0)
(0.323827 -0.387886 0)
(0.272632 -0.314351 0)
(0.2076 -0.229131 0)
(0.128906 -0.137178 0)
(0.040859 -0.0548981 0)
(-0.0215426 -0.00559845 0)
(0.141079 -0.153928 0)
(0.154955 -0.176503 0)
(0.16977 -0.200438 0)
(0.185591 -0.225663 0)
(0.202445 -0.252066 0)
(0.220314 -0.279473 0)
(0.239123 -0.30764 0)
(0.258736 -0.336236 0)
(0.27894 -0.364832 0)
(0.299436 -0.392886 0)
(0.319826 -0.419733 0)
(0.339605 -0.444577 0)
(0.358153 -0.466487 0)
(0.374739 -0.484404 0)
(0.388507 -0.497169 0)
(0.398426 -0.503609 0)
(0.403061 -0.502064 0)
(0.401833 -0.491613 0)
(0.393397 -0.472 0)
(0.376516 -0.441486 0)
(0.350173 -0.399985 0)
(0.313512 -0.347645 0)
(0.265803 -0.285406 0)
(0.207188 -0.21567 0)
(0.139243 -0.142548 0)
(0.0663954 -0.0731885 0)
(-0.000224861 -0.020599 0)
(-0.0311535 -0.00186796 0)
(0.15979 -0.15995 0)
(0.174749 -0.182541 0)
(0.190581 -0.206245 0)
(0.207314 -0.230935 0)
(0.224928 -0.256432 0)
(0.243345 -0.28249 0)
(0.262422 -0.308788 0)
(0.281941 -0.334915 0)
(0.301599 -0.360361 0)
(0.321001 -0.384512 0)
(0.339646 -0.406648 0)
(0.356923 -0.425933 0)
(0.372121 -0.441432 0)
(0.384429 -0.45213 0)
(0.392914 -0.456999 0)
(0.396444 -0.45486 0)
(0.394178 -0.444862 0)
(0.385153 -0.42662 0)
(0.368423 -0.399344 0)
(0.343011 -0.362818 0)
(0.308446 -0.317555 0)
(0.264535 -0.264613 0)
(0.21161 -0.206037 0)
(0.151155 -0.145163 0)
(0.0865014 -0.0867741 0)
(0.0240915 -0.0376826 0)
(-0.0226293 -0.00517802 0)
(-0.0322255 0.00165237 0)
(0.178468 -0.164102 0)
(0.194307 -0.1864 0)
(0.210906 -0.209533 0)
(0.22825 -0.233321 0)
(0.246267 -0.257525 0)
(0.264817 -0.281837 0)
(0.283684 -0.30587 0)
(0.302573 -0.329154 0)
(0.321098 -0.351127 0)
(0.33878 -0.371139 0)
(0.355035 -0.388455 0)
(0.369175 -0.402259 0)
(0.380433 -0.411671 0)
(0.387968 -0.415801 0)
(0.390827 -0.413742 0)
(0.388168 -0.404801 0)
(0.379149 -0.388528 0)
(0.363066 -0.36454 0)
(0.339186 -0.332767 0)
(0.307059 -0.293681 0)
(0.26673 -0.24834 0)
(0.218705 -0.198431 0)
(0.164223 -0.146498 0)
(0.105753 -0.09602 0)
(0.0475877 -0.0513441 0)
(-0.00334441 -0.0177547 0)
(-0.0353014 0.000787895 0)
(-0.0311462 0.00429145 0)
(0.196872 -0.166401 0)
(0.213367 -0.188126 0)
(0.230465 -0.210393 0)
(0.248107 -0.232972 0)
(0.266166 -0.255574 0)
(0.284439 -0.27784 0)
(0.302643 -0.299338 0)
(0.32041 -0.31956 0)
(0.337286 -0.33792 0)
(0.352729 -0.353766 0)
(0.3661 -0.366397 0)
(0.376664 -0.375057 0)
(0.383642 -0.378973 0)
(0.38619 -0.377392 0)
(0.383584 -0.369762 0)
(0.375037 -0.355688 0)
(0.359934 -0.334913 0)
(0.337771 -0.307479 0)
(0.308208 -0.273796 0)
(0.271272 -0.234773 0)
(0.227488 -0.191833 0)
(0.177942 -0.146947 0)
(0.124509 -0.102699 0)
(0.070218 -0.0622213 0)
(0.0196735 -0.0290005 0)
(-0.0205225 -0.00644869 0)
(-0.040951 0.00289637 0)
(-0.0282606 0.00425327 0)
(0.214787 -0.166915 0)
(0.231702 -0.187826 0)
(0.249026 -0.20898 0)
(0.266654 -0.230108 0)
(0.284405 -0.250878 0)
(0.302017 -0.2709 0)
(0.319148 -0.289715 0)
(0.335368 -0.306799 0)
(0.350173 -0.321571 0)
(0.362987 -0.333412 0)
(0.373141 -0.341686 0)
(0.379883 -0.345718 0)
(0.382406 -0.344822 0)
(0.380154 -0.338608 0)
(0.372389 -0.326747 0)
(0.358539 -0.309005 0)
(0.338192 -0.285471 0)
(0.311129 -0.256511 0)
(0.277388 -0.222864 0)
(0.237395 -0.185695 0)
(0.192071 -0.146586 0)
(0.142912 -0.107519 0)
(0.0921564 -0.0708359 0)
(0.0430264 -0.0391037 0)
(-3.37695e-05 -0.0149879 0)
(-0.0308638 0.000112861 0)
(-0.0427646 0.00367226 0)
(-0.0256694 0.00251807 0)
(0.232025 -0.165754 0)
(0.249123 -0.185651 0)
(0.266405 -0.2055 0)
(0.283721 -0.224998 0)
(0.30084 -0.243789 0)
(0.31745 -0.261461 0)
(0.333158 -0.277552 0)
(0.347491 -0.291548 0)
(0.359915 -0.302896 0)
(0.369842 -0.311046 0)
(0.376574 -0.315449 0)
(0.379299 -0.315291 0)
(0.377622 -0.310501 0)
(0.370836 -0.300772 0)
(0.358411 -0.285835 0)
(0.339966 -0.265791 0)
(0.315329 -0.24096 0)
(0.28456 -0.211948 0)
(0.248015 -0.179689 0)
(0.206435 -0.145458 0)
(0.161028 -0.110828 0)
(0.11353 -0.0776187 0)
(0.0663183 -0.0477972 0)
(0.0225549 -0.0233091 0)
(-0.0136872 -0.00613224 0)
(-0.0369125 0.00404906 0)
(-0.0421426 0.00456532 0)
(-0.0232743 0.0012974 0)
(0.248432 -0.163065 0)
(0.265485 -0.181791 0)
(0.282471 -0.200194 0)
(0.299199 -0.217948 0)
(0.315399 -0.234683 0)
(0.330716 -0.249983 0)
(0.344724 -0.263398 0)
(0.356924 -0.274443 0)
(0.366765 -0.282629 0)
(0.373607 -0.287544 0)
(0.376696 -0.288224 0)
(0.375747 -0.284803 0)
(0.370071 -0.277088 0)
(0.359169 -0.264723 0)
(0.342668 -0.247804 0)
(0.320405 -0.226602 0)
(0.292432 -0.201615 0)
(0.259052 -0.173602 0)
(0.220872 -0.143586 0)
(0.178861 -0.112836 0)
(0.134399 -0.0828113 0)
(0.0893257 -0.0550858 0)
(0.0459964 -0.0312227 0)
(0.00735952 -0.0125999 0)
(-0.0229835 -0.00053323 0)
(-0.0402942 0.00568629 0)
(-0.0403318 0.00553692 0)
(-0.0206621 0.00106657 0)
(0.26389 -0.159016 0)
(0.280682 -0.176458 0)
(0.297138 -0.193325 0)
(0.313036 -0.209279 0)
(0.328069 -0.223946 0)
(0.341856 -0.236918 0)
(0.353953 -0.247765 0)
(0.363853 -0.256048 0)
(0.370965 -0.261397 0)
(0.374562 -0.263106 0)
(0.37436 -0.261033 0)
(0.369847 -0.25519 0)
(0.36051 -0.245179 0)
(0.345958 -0.231068 0)
(0.326017 -0.213079 0)
(0.300709 -0.191622 0)
(0.270283 -0.167317 0)
(0.235237 -0.140995 0)
(0.196364 -0.113688 0)
(0.154775 -0.086586 0)
(0.111935 -0.0609786 0)
(0.0696791 -0.0381679 0)
(0.030241 -0.0193458 0)
(-0.00371725 -0.00542528 0)
(-0.0290724 0.00300944 0)
(-0.0421084 0.00607587 0)
(-0.0385919 0.00669898 0)
(-0.0178374 0.00116426 0)
(0.278311 -0.153795 0)
(0.294646 -0.16988 0)
(0.310368 -0.185169 0)
(0.325227 -0.199319 0)
(0.338891 -0.211961 0)
(0.35096 -0.222705 0)
(0.360987 -0.231146 0)
(0.368484 -0.236889 0)
(0.372775 -0.239562 0)
(0.373381 -0.238797 0)
(0.370008 -0.2347 0)
(0.362213 -0.226843 0)
(0.349578 -0.215269 0)
(0.331893 -0.200149 0)
(0.309142 -0.181818 0)
(0.281509 -0.160785 0)
(0.249401 -0.137734 0)
(0.213468 -0.11351 0)
(0.174623 -0.0890962 0)
(0.134055 -0.0655644 0)
(0.09324 -0.044013 0)
(0.0539417 -0.0254842 0)
(0.0182108 -0.0108565 0)
(-0.0116478 -0.000724 0)
(-0.0329287 0.00497561 0)
(-0.0427602 0.00614017 0)
(-0.0380229 0.00858006 0)
(-0.0150566 0.00121844 0)
(0.291643 -0.147597 0)
(0.307348 -0.162293 0)
(0.32216 -0.176001 0)
(0.335809 -0.188386 0)
(0.34795 -0.199096 0)
(0.358172 -0.207767 0)
(0.366028 -0.214042 0)
(0.371003 -0.21764 0)
(0.372593 -0.217979 0)
(0.370437 -0.215371 0)
(0.364133 -0.209482 0)
(0.35334 -0.200191 0)
(0.337827 -0.187647 0)
(0.317527 -0.172109 0)
(0.292558 -0.153992 0)
(0.263239 -0.133862 0)
(0.2301 -0.112421 0)
(0.193895 -0.0904864 0)
(0.155608 -0.0689593 0)
(0.11645 -0.0487742 0)
(0.0778618 -0.0308396 0)
(0.0414979 -0.0159663 0)
(0.00921371 -0.00478583 0)
(-0.0169783 0.00233391 0)
(-0.0349512 0.0055948 0)
(-0.0422062 0.00494654 0)
(-0.0360814 0.00334256 0)
(-0.00323775 -0.000454978 0)
(0.30386 -0.140621 0)
(0.318788 -0.153926 0)
(0.332546 -0.166087 0)
(0.344856 -0.17678 0)
(0.355368 -0.185676 0)
(0.363672 -0.19245 0)
(0.369318 -0.196837 0)
(0.371854 -0.198398 0)
(0.370899 -0.19719 0)
(0.366101 -0.192964 0)
(0.3571 -0.185716 0)
(0.343666 -0.175474 0)
(0.325709 -0.162442 0)
(0.303286 -0.146945 0)
(0.276633 -0.129447 0)
(0.246174 -0.110534 0)
(0.212532 -0.0908925 0)
(0.176524 -0.0712867 0)
(0.139164 -0.0525176 0)
(0.101647 -0.0353798 0)
(0.065345 -0.0206062 0)
(0.0317847 -0.00880861 0)
(0.00262709 -0.000420809 0)
(-0.0203766 0.00435879 0)
(-0.0354234 0.00582753 0)
(-0.0405462 0.00369819 0)
(-0.0338445 -0.00162928 0)
(-0.0123206 -0.00087166 0)
(0.314963 -0.133063 0)
(0.328993 -0.145006 0)
(0.341583 -0.15568 0)
(0.352456 -0.164777 0)
(0.361271 -0.171997 0)
(0.36764 -0.17704 0)
(0.371096 -0.17971 0)
(0.371309 -0.179756 0)
(0.367965 -0.177141 0)
(0.360702 -0.171743 0)
(0.349279 -0.163578 0)
(0.333565 -0.152798 0)
(0.313578 -0.139666 0)
(0.289482 -0.124555 0)
(0.26161 -0.107953 0)
(0.230468 -0.0904404 0)
(0.196738 -0.0726673 0)
(0.161273 -0.0553267 0)
(0.125081 -0.0391165 0)
(0.0893174 -0.0246978 0)
(0.055264 -0.0126477 0)
(0.0243133 -0.00341081 0)
(-0.00205813 0.00274187 0)
(-0.0223219 0.00579047 0)
(-0.0348293 0.0060478 0)
(-0.0380201 0.00357136 0)
(-0.0304791 0.000118512 0)
(-0.0120937 -0.000420078 0)
(0.324976 -0.12511 0)
(0.338011 -0.135743 0)
(0.349351 -0.145017 0)
(0.358722 -0.152642 0)
(0.365797 -0.158349 0)
(0.370218 -0.161891 0)
(0.37165 -0.162996 0)
(0.369688 -0.161972 0)
(0.364074 -0.158203 0)
(0.354562 -0.151922 0)
(0.340996 -0.143182 0)
(0.323341 -0.132191 0)
(0.301702 -0.119256 0)
(0.276331 -0.104778 0)
(0.247635 -0.0892464 0)
(0.21618 -0.0732179 0)
(0.182683 -0.0572942 0)
(0.148003 -0.0420911 0)
(0.113123 -0.0282054 0)
(0.0791404 -0.0161774 0)
(0.0472388 -0.00645137 0)
(0.0186753 0.000663054 0)
(-0.00524419 0.00502491 0)
(-0.0231686 0.00675991 0)
(-0.0336429 0.00615845 0)
(-0.0356627 0.00372638 0)
(-0.028221 0.00102211 0)
(-0.0118833 -7.17203e-05 0)
(0.333942 -0.11694 0)
(0.345912 -0.126336 0)
(0.355947 -0.134312 0)
(0.363786 -0.140608 0)
(0.369121 -0.144986 0)
(0.371644 -0.147224 0)
(0.371136 -0.147341 0)
(0.367162 -0.145071 0)
(0.359458 -0.140497 0)
(0.347932 -0.133607 0)
(0.332507 -0.124567 0)
(0.313228 -0.113621 0)
(0.290277 -0.101101 0)
(0.263973 -0.0874186 0)
(0.234783 -0.0730495 0)
(0.203307 -0.0585171 0)
(0.170278 -0.0443663 0)
(0.136544 -0.0311357 0)
(0.103049 -0.019328 0)
(0.0708182 -0.00937747 0)
(0.0409378 -0.00161765 0)
(0.0145332 0.00374809 0)
(-0.00725028 0.00667886 0)
(-0.0232534 0.00740312 0)
(-0.0322317 0.0061033 0)
(-0.0335352 0.00381278 0)
(-0.0264855 0.00141229 0)
(-0.0114389 8.11749e-05 0)
(0.341916 -0.108716 0)
(0.352775 -0.116958 0)
(0.361479 -0.123749 0)
(0.367789 -0.128861 0)
(0.37143 -0.132076 0)
(0.372226 -0.133259 0)
(0.369807 -0.132532 0)
(0.363889 -0.129339 0)
(0.354316 -0.12412 0)
(0.34102 -0.116847 0)
(0.324007 -0.107723 0)
(0.303395 -0.097012 0)
(0.27943 -0.0850581 0)
(0.252487 -0.0722669 0)
(0.223068 -0.0590926 0)
(0.191797 -0.0460169 0)
(0.159406 -0.0335261 0)
(0.126716 -0.0220853 0)
(0.0946231 -0.0121118 0)
(0.0640789 -0.0039485 0)
(0.03607 0.00216266 0)
(0.0116006 0.00610309 0)
(-0.00832979 0.0079101 0)
(-0.0226968 0.00784528 0)
(-0.03061 0.00604272 0)
(-0.0315357 0.00384832 0)
(-0.0248792 0.00155908 0)
(-0.0108355 0.000125732 0)
(0.348966 -0.100583 0)
(0.358687 -0.107763 0)
(0.366057 -0.113486 0)
(0.370861 -0.117547 0)
(0.372883 -0.119739 0)
(0.371983 -0.120192 0)
(0.367779 -0.118454 0)
(0.360076 -0.114731 0)
(0.348831 -0.109084 0)
(0.333997 -0.10163 0)
(0.315647 -0.0925948 0)
(0.293963 -0.0822597 0)
(0.269243 -0.0709686 0)
(0.241902 -0.0591144 0)
(0.212469 -0.0471221 0)
(0.181573 -0.0354298 0)
(0.149933 -0.0244659 0)
(0.118337 -0.0146274 0)
(0.0876273 -0.00625654 0)
(0.0586787 0.00038154 0)
(0.0323845 0.00511951 0)
(0.00963723 0.00790721 0)
(-0.00868094 0.00883155 0)
(-0.0217102 0.00818592 0)
(-0.0288508 0.00617101 0)
(-0.0295603 0.00389818 0)
(-0.0232831 0.00162431 0)
(-0.0101492 0.000140271 0)
(0.355161 -0.092671 0)
(0.363738 -0.0988861 0)
(0.369785 -0.103657 0)
(0.37313 -0.106788 0)
(0.373672 -0.108164 0)
(0.371099 -0.107888 0)
(0.365206 -0.105475 0)
(0.355907 -0.101313 0)
(0.343168 -0.0954065 0)
(0.327005 -0.087927 0)
(0.307542 -0.0791107 0)
(0.285012 -0.0692463 0)
(0.259756 -0.0586718 0)
(0.232216 -0.0477611 0)
(0.202935 -0.0369072 0)
(0.172538 -0.0265034 0)
(0.141721 -0.0169242 0)
(0.111234 -0.00850495 0)
(0.081861 -0.00152257 0)
(0.054404 0.00382252 0)
(0.0296667 0.00742381 0)
(0.00843741 0.00928583 0)
(-0.00852492 0.00952476 0)
(-0.0204819 0.0084376 0)
(-0.0269898 0.0063354 0)
(-0.0275472 0.00392916 0)
(-0.0216668 0.00165097 0)
(-0.00943305 0.000144267 0)
(0.360579 -0.0850924 0)
(0.368021 -0.0904403 0)
(0.372782 -0.0943753 0)
(0.374728 -0.0967304 0)
(0.373778 -0.0974909 0)
(0.369665 -0.096391 0)
(0.362239 -0.0935721 0)
(0.351505 -0.0891015 0)
(0.33745 -0.0830768 0)
(0.320146 -0.0756898 0)
(0.299768 -0.067184 0)
(0.276589 -0.0578486 0)
(0.250979 -0.0480108 0)
(0.223401 -0.0380218 0)
(0.194398 -0.0282411 0)
(0.164586 -0.0190196 0)
(0.134632 -0.0106816 0)
(0.105243 -0.0035081 0)
(0.077145 0.0022795 0)
(0.0510697 0.00653426 0)
(0.0277362 0.00919859 0)
(0.00783891 0.0103187 0)
(-0.00793305 0.0100136 0)
(-0.0190278 0.00858879 0)
(-0.0250374 0.0064038 0)
(-0.0254985 0.00389666 0)
(-0.0200418 0.00163877 0)
(-0.00871267 0.000140997 0)
(0.365293 -0.0779394 0)
(0.371617 -0.0825071 0)
(0.375127 -0.0856906 0)
(0.375752 -0.0872973 0)
(0.373374 -0.0875327 0)
(0.367807 -0.0859158 0)
(0.359004 -0.0827677 0)
(0.346978 -0.0781045 0)
(0.331768 -0.0720678 0)
(0.313495 -0.0648584 0)
(0.292376 -0.0567226 0)
(0.268714 -0.0479449 0)
(0.242902 -0.0388378 0)
(0.21541 -0.0297281 0)
(0.186781 -0.0209424 0)
(0.15761 -0.0127915 0)
(0.128534 -0.00555488 0)
(0.100215 0.00053365 0)
(0.0733222 0.00529895 0)
(0.0485208 0.00863647 0)
(0.0264526 0.0105268 0)
(0.00774358 0.0110348 0)
(-0.00702351 0.0103148 0)
(-0.0174189 0.0086429 0)
(-0.0230115 0.00634555 0)
(-0.0234452 0.00381175 0)