/*--------------------------------*- C++ -*----------------------------------*\
| =========                 |                                                 |
| \\      /  F ield         | OpenFOAM: The Open Source CFD Toolbox           |
|  \\    /   O peration     | Version:  v2012                                 |
|   \\  /    A nd           | Website:  www.openfoam.com                      |
|    \\/     M anipulation  |                                                 |
\*---------------------------------------------------------------------------*/
FoamFile
{
    version     2.0;
    format      ascii;
    class       volVectorField;
    location    "0";
    object      C;
}
// * * * * * * * * * * * * * * * * * * * * * * * * * * * * * * * * * * * * * //

dimensions      [0 1 0 0 0 0 0];


internalField   nonuniform List<vector> 
6084
(
(0.01 1.0125 -0.005)
(0.01 1.0375 -0.005)
(0.01 1.0625 -0.005)
(0.01 1.0875 -0.005)
(0.01 1.1125 -0.005)
(0.01 1.1375 -0.005)
(0.01 1.1625 -0.005)
(0.01 1.1875 -0.005)
(0.01 1.2125 -0.005)
(0.01 1.2375 -0.005)
(0.01 1.2625 -0.005)
(0.01 1.2875 -0.005)
(0.01 1.3125 -0.005)
(0.01 1.3375 -0.005)
(0.01 1.3625 -0.005)
(0.01 1.3875 -0.005)
(0.01 1.4125 -0.005)
(0.01 1.4375 -0.005)
(0.01 1.4625 -0.005)
(0.01 1.4875 -0.005)
(0.03 1.0125 -0.005)
(0.03 1.0375 -0.005)
(0.03 1.0625 -0.005)
(0.03 1.0875 -0.005)
(0.03 1.1125 -0.005)
(0.03 1.1375 -0.005)
(0.03 1.1625 -0.005)
(0.03 1.1875 -0.005)
(0.03 1.2125 -0.005)
(0.03 1.2375 -0.005)
(0.03 1.2625 -0.005)
(0.03 1.2875 -0.005)
(0.03 1.3125 -0.005)
(0.03 1.3375 -0.005)
(0.03 1.3625 -0.005)
(0.03 1.3875 -0.005)
(0.03 1.4125 -0.005)
(0.03 1.4375 -0.005)
(0.03 1.4625 -0.005)
(0.03 1.4875 -0.005)
(0.05 1.0125 -0.005)
(0.05 1.0375 -0.005)
(0.05 1.0625 -0.005)
(0.05 1.0875 -0.005)
(0.05 1.1125 -0.005)
(0.05 1.1375 -0.005)
(0.05 1.1625 -0.005)
(0.05 1.1875 -0.005)
(0.05 1.2125 -0.005)
(0.05 1.2375 -0.005)
(0.05 1.2625 -0.005)
(0.05 1.2875 -0.005)
(0.05 1.3125 -0.005)
(0.05 1.3375 -0.005)
(0.05 1.3625 -0.005)
(0.05 1.3875 -0.005)
(0.05 1.4125 -0.005)
(0.05 1.4375 -0.005)
(0.05 1.4625 -0.005)
(0.05 1.4875 -0.005)
(0.07 1.0125 -0.005)
(0.07 1.0375 -0.005)
(0.07 1.0625 -0.005)
(0.07 1.0875 -0.005)
(0.07 1.1125 -0.005)
(0.07 1.1375 -0.005)
(0.07 1.1625 -0.005)
(0.07 1.1875 -0.005)
(0.07 1.2125 -0.005)
(0.07 1.2375 -0.005)
(0.07 1.2625 -0.005)
(0.07 1.2875 -0.005)
(0.07 1.3125 -0.005)
(0.07 1.3375 -0.005)
(0.07 1.3625 -0.005)
(0.07 1.3875 -0.005)
(0.07 1.4125 -0.005)
(0.07 1.4375 -0.005)
(0.07 1.4625 -0.005)
(0.07 1.4875 -0.005)
(0.09 1.0125 -0.005)
(0.09 1.0375 -0.005)
(0.09 1.0625 -0.005)
(0.09 1.0875 -0.005)
(0.09 1.1125 -0.005)
(0.09 1.1375 -0.005)
(0.09 1.1625 -0.005)
(0.09 1.1875 -0.005)
(0.09 1.2125 -0.005)
(0.09 1.2375 -0.005)
(0.09 1.2625 -0.005)
(0.09 1.2875 -0.005)
(0.09 1.3125 -0.005)
(0.09 1.3375 -0.005)
(0.09 1.3625 -0.005)
(0.09 1.3875 -0.005)
(0.09 1.4125 -0.005)
(0.09 1.4375 -0.005)
(0.09 1.4625 -0.005)
(0.09 1.4875 -0.005)
(0.11 1.0125 -0.005)
(0.11 1.0375 -0.005)
(0.11 1.0625 -0.005)
(0.11 1.0875 -0.005)
(0.11 1.1125 -0.005)
(0.11 1.1375 -0.005)
(0.11 1.1625 -0.005)
(0.11 1.1875 -0.005)
(0.11 1.2125 -0.005)
(0.11 1.2375 -0.005)
(0.11 1.2625 -0.005)
(0.11 1.2875 -0.005)
(0.11 1.3125 -0.005)
(0.11 1.3375 -0.005)
(0.11 1.3625 -0.005)
(0.11 1.3875 -0.005)
(0.11 1.4125 -0.005)
(0.11 1.4375 -0.005)
(0.11 1.4625 -0.005)
(0.11 1.4875 -0.005)
(0.13 1.0125 -0.005)
(0.13 1.0375 -0.005)
(0.13 1.0625 -0.005)
(0.13 1.0875 -0.005)
(0.13 1.1125 -0.005)
(0.13 1.1375 -0.005)
(0.13 1.1625 -0.005)
(0.13 1.1875 -0.005)
(0.13 1.2125 -0.005)
(0.13 1.2375 -0.005)
(0.13 1.2625 -0.005)
(0.13 1.2875 -0.005)
(0.13 1.3125 -0.005)
(0.13 1.3375 -0.005)
(0.13 1.3625 -0.005)
(0.13 1.3875 -0.005)
(0.13 1.4125 -0.005)
(0.13 1.4375 -0.005)
(0.13 1.4625 -0.005)
(0.13 1.4875 -0.005)
(0.15 1.0125 -0.005)
(0.15 1.0375 -0.005)
(0.15 1.0625 -0.005)
(0.15 1.0875 -0.005)
(0.15 1.1125 -0.005)
(0.15 1.1375 -0.005)
(0.15 1.1625 -0.005)
(0.15 1.1875 -0.005)
(0.15 1.2125 -0.005)
(0.15 1.2375 -0.005)
(0.15 1.2625 -0.005)
(0.15 1.2875 -0.005)
(0.15 1.3125 -0.005)
(0.15 1.3375 -0.005)
(0.15 1.3625 -0.005)
(0.15 1.3875 -0.005)
(0.15 1.4125 -0.005)
(0.15 1.4375 -0.005)
(0.15 1.4625 -0.005)
(0.15 1.4875 -0.005)
(0.17 1.0125 -0.005)
(0.17 1.0375 -0.005)
(0.17 1.0625 -0.005)
(0.17 1.0875 -0.005)
(0.17 1.1125 -0.005)
(0.17 1.1375 -0.005)
(0.17 1.1625 -0.005)
(0.17 1.1875 -0.005)
(0.17 1.2125 -0.005)
(0.17 1.2375 -0.005)
(0.17 1.2625 -0.005)
(0.17 1.2875 -0.005)
(0.17 1.3125 -0.005)
(0.17 1.3375 -0.005)
(0.17 1.3625 -0.005)
(0.17 1.3875 -0.005)
(0.17 1.4125 -0.005)
(0.17 1.4375 -0.005)
(0.17 1.4625 -0.005)
(0.17 1.4875 -0.005)
(0.19 1.0125 -0.005)
(0.19 1.0375 -0.005)
(0.19 1.0625 -0.005)
(0.19 1.0875 -0.005)
(0.19 1.1125 -0.005)
(0.19 1.1375 -0.005)
(0.19 1.1625 -0.005)
(0.19 1.1875 -0.005)
(0.19 1.2125 -0.005)
(0.19 1.2375 -0.005)
(0.19 1.2625 -0.005)
(0.19 1.2875 -0.005)
(0.19 1.3125 -0.005)
(0.19 1.3375 -0.005)
(0.19 1.3625 -0.005)
(0.19 1.3875 -0.005)
(0.19 1.4125 -0.005)
(0.19 1.4375 -0.005)
(0.19 1.4625 -0.005)
(0.19 1.4875 -0.005)
(0.01 0.722083 -0.005)
(0.01 0.74625 -0.005)
(0.01 0.770417 -0.005)
(0.01 0.794583 -0.005)
(0.01 0.81875 -0.005)
(0.01 0.842917 -0.005)
(0.01 0.867083 -0.005)
(0.01 0.89125 -0.005)
(0.01 0.915417 -0.005)
(0.01 0.939583 -0.005)
(0.01 0.96375 -0.005)
(0.01 0.987917 -0.005)
(0.03 0.722083 -0.005)
(0.03 0.74625 -0.005)
(0.03 0.770417 -0.005)
(0.03 0.794583 -0.005)
(0.03 0.81875 -0.005)
(0.03 0.842917 -0.005)
(0.03 0.867083 -0.005)
(0.03 0.89125 -0.005)
(0.03 0.915417 -0.005)
(0.03 0.939583 -0.005)
(0.03 0.96375 -0.005)
(0.03 0.987917 -0.005)
(0.05 0.722083 -0.005)
(0.05 0.74625 -0.005)
(0.05 0.770417 -0.005)
(0.05 0.794583 -0.005)
(0.05 0.81875 -0.005)
(0.05 0.842917 -0.005)
(0.05 0.867083 -0.005)
(0.05 0.89125 -0.005)
(0.05 0.915417 -0.005)
(0.05 0.939583 -0.005)
(0.05 0.96375 -0.005)
(0.05 0.987917 -0.005)
(0.07 0.722083 -0.005)
(0.07 0.74625 -0.005)
(0.07 0.770417 -0.005)
(0.07 0.794583 -0.005)
(0.07 0.81875 -0.005)
(0.07 0.842917 -0.005)
(0.07 0.867083 -0.005)
(0.07 0.89125 -0.005)
(0.07 0.915417 -0.005)
(0.07 0.939583 -0.005)
(0.07 0.96375 -0.005)
(0.07 0.987917 -0.005)
(0.09 0.722083 -0.005)
(0.09 0.74625 -0.005)
(0.09 0.770417 -0.005)
(0.09 0.794583 -0.005)
(0.09 0.81875 -0.005)
(0.09 0.842917 -0.005)
(0.09 0.867083 -0.005)
(0.09 0.89125 -0.005)
(0.09 0.915417 -0.005)
(0.09 0.939583 -0.005)
(0.09 0.96375 -0.005)
(0.09 0.987917 -0.005)
(0.11 0.722083 -0.005)
(0.11 0.74625 -0.005)
(0.11 0.770417 -0.005)
(0.11 0.794583 -0.005)
(0.11 0.81875 -0.005)
(0.11 0.842917 -0.005)
(0.11 0.867083 -0.005)
(0.11 0.89125 -0.005)
(0.11 0.915417 -0.005)
(0.11 0.939583 -0.005)
(0.11 0.96375 -0.005)
(0.11 0.987917 -0.005)
(0.13 0.722083 -0.005)
(0.13 0.74625 -0.005)
(0.13 0.770417 -0.005)
(0.13 0.794583 -0.005)
(0.13 0.81875 -0.005)
(0.13 0.842917 -0.005)
(0.13 0.867083 -0.005)
(0.13 0.89125 -0.005)
(0.13 0.915417 -0.005)
(0.13 0.939583 -0.005)
(0.13 0.96375 -0.005)
(0.13 0.987917 -0.005)
(0.15 0.722083 -0.005)
(0.15 0.74625 -0.005)
(0.15 0.770417 -0.005)
(0.15 0.794583 -0.005)
(0.15 0.81875 -0.005)
(0.15 0.842917 -0.005)
(0.15 0.867083 -0.005)
(0.15 0.89125 -0.005)
(0.15 0.915417 -0.005)
(0.15 0.939583 -0.005)
(0.15 0.96375 -0.005)
(0.15 0.987917 -0.005)
(0.17 0.722083 -0.005)
(0.17 0.74625 -0.005)
(0.17 0.770417 -0.005)
(0.17 0.794583 -0.005)
(0.17 0.81875 -0.005)
(0.17 0.842917 -0.005)
(0.17 0.867083 -0.005)
(0.17 0.89125 -0.005)
(0.17 0.915417 -0.005)
(0.17 0.939583 -0.005)
(0.17 0.96375 -0.005)
(0.17 0.987917 -0.005)
(0.19 0.722083 -0.005)
(0.19 0.74625 -0.005)
(0.19 0.770417 -0.005)
(0.19 0.794583 -0.005)
(0.19 0.81875 -0.005)
(0.19 0.842917 -0.005)
(0.19 0.867083 -0.005)
(0.19 0.89125 -0.005)
(0.19 0.915417 -0.005)
(0.19 0.939583 -0.005)
(0.19 0.96375 -0.005)
(0.19 0.987917 -0.005)
(0.01 0.0126786 -0.005)
(0.01 0.0380357 -0.005)
(0.01 0.0633929 -0.005)
(0.01 0.08875 -0.005)
(0.01 0.114107 -0.005)
(0.01 0.139464 -0.005)
(0.01 0.164821 -0.005)
(0.01 0.190179 -0.005)
(0.01 0.215536 -0.005)
(0.01 0.240893 -0.005)
(0.01 0.26625 -0.005)
(0.01 0.291607 -0.005)
(0.01 0.316964 -0.005)
(0.01 0.342321 -0.005)
(0.01 0.367679 -0.005)
(0.01 0.393036 -0.005)
(0.01 0.418393 -0.005)
(0.01 0.44375 -0.005)
(0.01 0.469107 -0.005)
(0.01 0.494464 -0.005)
(0.01 0.519821 -0.005)
(0.01 0.545179 -0.005)
(0.01 0.570536 -0.005)
(0.01 0.595893 -0.005)
(0.01 0.62125 -0.005)
(0.01 0.646607 -0.005)
(0.01 0.671964 -0.005)
(0.01 0.697321 -0.005)
(0.03 0.0126786 -0.005)
(0.03 0.0380357 -0.005)
(0.03 0.0633929 -0.005)
(0.03 0.08875 -0.005)
(0.03 0.114107 -0.005)
(0.03 0.139464 -0.005)
(0.03 0.164821 -0.005)
(0.03 0.190179 -0.005)
(0.03 0.215536 -0.005)
(0.03 0.240893 -0.005)
(0.03 0.26625 -0.005)
(0.03 0.291607 -0.005)
(0.03 0.316964 -0.005)
(0.03 0.342321 -0.005)
(0.03 0.367679 -0.005)
(0.03 0.393036 -0.005)
(0.03 0.418393 -0.005)
(0.03 0.44375 -0.005)
(0.03 0.469107 -0.005)
(0.03 0.494464 -0.005)
(0.03 0.519821 -0.005)
(0.03 0.545179 -0.005)
(0.03 0.570536 -0.005)
(0.03 0.595893 -0.005)
(0.03 0.62125 -0.005)
(0.03 0.646607 -0.005)
(0.03 0.671964 -0.005)
(0.03 0.697321 -0.005)
(0.05 0.0126786 -0.005)
(0.05 0.0380357 -0.005)
(0.05 0.0633929 -0.005)
(0.05 0.08875 -0.005)
(0.05 0.114107 -0.005)
(0.05 0.139464 -0.005)
(0.05 0.164821 -0.005)
(0.05 0.190179 -0.005)
(0.05 0.215536 -0.005)
(0.05 0.240893 -0.005)
(0.05 0.26625 -0.005)
(0.05 0.291607 -0.005)
(0.05 0.316964 -0.005)
(0.05 0.342321 -0.005)
(0.05 0.367679 -0.005)
(0.05 0.393036 -0.005)
(0.05 0.418393 -0.005)
(0.05 0.44375 -0.005)
(0.05 0.469107 -0.005)
(0.05 0.494464 -0.005)
(0.05 0.519821 -0.005)
(0.05 0.545179 -0.005)
(0.05 0.570536 -0.005)
(0.05 0.595893 -0.005)
(0.05 0.62125 -0.005)
(0.05 0.646607 -0.005)
(0.05 0.671964 -0.005)
(0.05 0.697321 -0.005)
(0.07 0.0126786 -0.005)
(0.07 0.0380357 -0.005)
(0.07 0.0633929 -0.005)
(0.07 0.08875 -0.005)
(0.07 0.114107 -0.005)
(0.07 0.139464 -0.005)
(0.07 0.164821 -0.005)
(0.07 0.190179 -0.005)
(0.07 0.215536 -0.005)
(0.07 0.240893 -0.005)
(0.07 0.26625 -0.005)
(0.07 0.291607 -0.005)
(0.07 0.316964 -0.005)
(0.07 0.342321 -0.005)
(0.07 0.367679 -0.005)
(0.07 0.393036 -0.005)
(0.07 0.418393 -0.005)
(0.07 0.44375 -0.005)
(0.07 0.469107 -0.005)
(0.07 0.494464 -0.005)
(0.07 0.519821 -0.005)
(0.07 0.545179 -0.005)
(0.07 0.570536 -0.005)
(0.07 0.595893 -0.005)
(0.07 0.62125 -0.005)
(0.07 0.646607 -0.005)
(0.07 0.671964 -0.005)
(0.07 0.697321 -0.005)
(0.09 0.0126786 -0.005)
(0.09 0.0380357 -0.005)
(0.09 0.0633929 -0.005)
(0.09 0.08875 -0.005)
(0.09 0.114107 -0.005)
(0.09 0.139464 -0.005)
(0.09 0.164821 -0.005)
(0.09 0.190179 -0.005)
(0.09 0.215536 -0.005)
(0.09 0.240893 -0.005)
(0.09 0.26625 -0.005)
(0.09 0.291607 -0.005)
(0.09 0.316964 -0.005)
(0.09 0.342321 -0.005)
(0.09 0.367679 -0.005)
(0.09 0.393036 -0.005)
(0.09 0.418393 -0.005)
(0.09 0.44375 -0.005)
(0.09 0.469107 -0.005)
(0.09 0.494464 -0.005)
(0.09 0.519821 -0.005)
(0.09 0.545179 -0.005)
(0.09 0.570536 -0.005)
(0.09 0.595893 -0.005)
(0.09 0.62125 -0.005)
(0.09 0.646607 -0.005)
(0.09 0.671964 -0.005)
(0.09 0.697321 -0.005)
(0.11 0.0126786 -0.005)
(0.11 0.0380357 -0.005)
(0.11 0.0633929 -0.005)
(0.11 0.08875 -0.005)
(0.11 0.114107 -0.005)
(0.11 0.139464 -0.005)
(0.11 0.164821 -0.005)
(0.11 0.190179 -0.005)
(0.11 0.215536 -0.005)
(0.11 0.240893 -0.005)
(0.11 0.26625 -0.005)
(0.11 0.291607 -0.005)
(0.11 0.316964 -0.005)
(0.11 0.342321 -0.005)
(0.11 0.367679 -0.005)
(0.11 0.393036 -0.005)
(0.11 0.418393 -0.005)
(0.11 0.44375 -0.005)
(0.11 0.469107 -0.005)
(0.11 0.494464 -0.005)
(0.11 0.519821 -0.005)
(0.11 0.545179 -0.005)
(0.11 0.570536 -0.005)
(0.11 0.595893 -0.005)
(0.11 0.62125 -0.005)
(0.11 0.646607 -0.005)
(0.11 0.671964 -0.005)
(0.11 0.697321 -0.005)
(0.13 0.0126786 -0.005)
(0.13 0.0380357 -0.005)
(0.13 0.0633929 -0.005)
(0.13 0.08875 -0.005)
(0.13 0.114107 -0.005)
(0.13 0.139464 -0.005)
(0.13 0.164821 -0.005)
(0.13 0.190179 -0.005)
(0.13 0.215536 -0.005)
(0.13 0.240893 -0.005)
(0.13 0.26625 -0.005)
(0.13 0.291607 -0.005)
(0.13 0.316964 -0.005)
(0.13 0.342321 -0.005)
(0.13 0.367679 -0.005)
(0.13 0.393036 -0.005)
(0.13 0.418393 -0.005)
(0.13 0.44375 -0.005)
(0.13 0.469107 -0.005)
(0.13 0.494464 -0.005)
(0.13 0.519821 -0.005)
(0.13 0.545179 -0.005)
(0.13 0.570536 -0.005)
(0.13 0.595893 -0.005)
(0.13 0.62125 -0.005)
(0.13 0.646607 -0.005)
(0.13 0.671964 -0.005)
(0.13 0.697321 -0.005)
(0.15 0.0126786 -0.005)
(0.15 0.0380357 -0.005)
(0.15 0.0633929 -0.005)
(0.15 0.08875 -0.005)
(0.15 0.114107 -0.005)
(0.15 0.139464 -0.005)
(0.15 0.164821 -0.005)
(0.15 0.190179 -0.005)
(0.15 0.215536 -0.005)
(0.15 0.240893 -0.005)
(0.15 0.26625 -0.005)
(0.15 0.291607 -0.005)
(0.15 0.316964 -0.005)
(0.15 0.342321 -0.005)
(0.15 0.367679 -0.005)
(0.15 0.393036 -0.005)
(0.15 0.418393 -0.005)
(0.15 0.44375 -0.005)
(0.15 0.469107 -0.005)
(0.15 0.494464 -0.005)
(0.15 0.519821 -0.005)
(0.15 0.545179 -0.005)
(0.15 0.570536 -0.005)
(0.15 0.595893 -0.005)
(0.15 0.62125 -0.005)
(0.15 0.646607 -0.005)
(0.15 0.671964 -0.005)
(0.15 0.697321 -0.005)
(0.17 0.0126786 -0.005)
(0.17 0.0380357 -0.005)
(0.17 0.0633929 -0.005)
(0.17 0.08875 -0.005)
(0.17 0.114107 -0.005)
(0.17 0.139464 -0.005)
(0.17 0.164821 -0.005)
(0.17 0.190179 -0.005)
(0.17 0.215536 -0.005)
(0.17 0.240893 -0.005)
(0.17 0.26625 -0.005)
(0.17 0.291607 -0.005)
(0.17 0.316964 -0.005)
(0.17 0.342321 -0.005)
(0.17 0.367679 -0.005)
(0.17 0.393036 -0.005)
(0.17 0.418393 -0.005)
(0.17 0.44375 -0.005)
(0.17 0.469107 -0.005)
(0.17 0.494464 -0.005)
(0.17 0.519821 -0.005)
(0.17 0.545179 -0.005)
(0.17 0.570536 -0.005)
(0.17 0.595893 -0.005)
(0.17 0.62125 -0.005)
(0.17 0.646607 -0.005)
(0.17 0.671964 -0.005)
(0.17 0.697321 -0.005)
(0.19 0.0126786 -0.005)
(0.19 0.0380357 -0.005)
(0.19 0.0633929 -0.005)
(0.19 0.08875 -0.005)
(0.19 0.114107 -0.005)
(0.19 0.139464 -0.005)
(0.19 0.164821 -0.005)
(0.19 0.190179 -0.005)
(0.19 0.215536 -0.005)
(0.19 0.240893 -0.005)
(0.19 0.26625 -0.005)
(0.19 0.291607 -0.005)
(0.19 0.316964 -0.005)
(0.19 0.342321 -0.005)
(0.19 0.367679 -0.005)
(0.19 0.393036 -0.005)
(0.19 0.418393 -0.005)
(0.19 0.44375 -0.005)
(0.19 0.469107 -0.005)
(0.19 0.494464 -0.005)
(0.19 0.519821 -0.005)
(0.19 0.545179 -0.005)
(0.19 0.570536 -0.005)
(0.19 0.595893 -0.005)
(0.19 0.62125 -0.005)
(0.19 0.646607 -0.005)
(0.19 0.671964 -0.005)
(0.19 0.697321 -0.005)
(0.210625 0.722083 -0.005)
(0.210625 0.74625 -0.005)
(0.210625 0.770417 -0.005)
(0.210625 0.794583 -0.005)
(0.210625 0.81875 -0.005)
(0.210625 0.842917 -0.005)
(0.210625 0.867083 -0.005)
(0.210625 0.89125 -0.005)
(0.210625 0.915417 -0.005)
(0.210625 0.939583 -0.005)
(0.210625 0.96375 -0.005)
(0.210625 0.987917 -0.005)
(0.231875 0.722083 -0.005)
(0.231875 0.74625 -0.005)
(0.231875 0.770417 -0.005)
(0.231875 0.794583 -0.005)
(0.231875 0.81875 -0.005)
(0.231875 0.842917 -0.005)
(0.231875 0.867083 -0.005)
(0.231875 0.89125 -0.005)
(0.231875 0.915417 -0.005)
(0.231875 0.939583 -0.005)
(0.231875 0.96375 -0.005)
(0.231875 0.987917 -0.005)
(0.253125 0.722083 -0.005)
(0.253125 0.74625 -0.005)
(0.253125 0.770417 -0.005)
(0.253125 0.794583 -0.005)
(0.253125 0.81875 -0.005)
(0.253125 0.842917 -0.005)
(0.253125 0.867083 -0.005)
(0.253125 0.89125 -0.005)
(0.253125 0.915417 -0.005)
(0.253125 0.939583 -0.005)
(0.253125 0.96375 -0.005)
(0.253125 0.987917 -0.005)
(0.274375 0.722083 -0.005)
(0.274375 0.74625 -0.005)
(0.274375 0.770417 -0.005)
(0.274375 0.794583 -0.005)
(0.274375 0.81875 -0.005)
(0.274375 0.842917 -0.005)
(0.274375 0.867083 -0.005)
(0.274375 0.89125 -0.005)
(0.274375 0.915417 -0.005)
(0.274375 0.939583 -0.005)
(0.274375 0.96375 -0.005)
(0.274375 0.987917 -0.005)
(0.295625 0.722083 -0.005)
(0.295625 0.74625 -0.005)
(0.295625 0.770417 -0.005)
(0.295625 0.794583 -0.005)
(0.295625 0.81875 -0.005)
(0.295625 0.842917 -0.005)
(0.295625 0.867083 -0.005)
(0.295625 0.89125 -0.005)
(0.295625 0.915417 -0.005)
(0.295625 0.939583 -0.005)
(0.295625 0.96375 -0.005)
(0.295625 0.987917 -0.005)
(0.316875 0.722083 -0.005)
(0.316875 0.74625 -0.005)
(0.316875 0.770417 -0.005)
(0.316875 0.794583 -0.005)
(0.316875 0.81875 -0.005)
(0.316875 0.842917 -0.005)
(0.316875 0.867083 -0.005)
(0.316875 0.89125 -0.005)
(0.316875 0.915417 -0.005)
(0.316875 0.939583 -0.005)
(0.316875 0.96375 -0.005)
(0.316875 0.987917 -0.005)
(0.338125 0.722083 -0.005)
(0.338125 0.74625 -0.005)
(0.338125 0.770417 -0.005)
(0.338125 0.794583 -0.005)
(0.338125 0.81875 -0.005)
(0.338125 0.842917 -0.005)
(0.338125 0.867083 -0.005)
(0.338125 0.89125 -0.005)
(0.338125 0.915417 -0.005)
(0.338125 0.939583 -0.005)
(0.338125 0.96375 -0.005)
(0.338125 0.987917 -0.005)
(0.359375 0.722083 -0.005)
(0.359375 0.74625 -0.005)
(0.359375 0.770417 -0.005)
(0.359375 0.794583 -0.005)
(0.359375 0.81875 -0.005)
(0.359375 0.842917 -0.005)
(0.359375 0.867083 -0.005)
(0.359375 0.89125 -0.005)
(0.359375 0.915417 -0.005)
(0.359375 0.939583 -0.005)
(0.359375 0.96375 -0.005)
(0.359375 0.987917 -0.005)
(0.380625 0.722083 -0.005)
(0.380625 0.74625 -0.005)
(0.380625 0.770417 -0.005)
(0.380625 0.794583 -0.005)
(0.380625 0.81875 -0.005)
(0.380625 0.842917 -0.005)
(0.380625 0.867083 -0.005)
(0.380625 0.89125 -0.005)
(0.380625 0.915417 -0.005)
(0.380625 0.939583 -0.005)
(0.380625 0.96375 -0.005)
(0.380625 0.987917 -0.005)
(0.401875 0.722083 -0.005)
(0.401875 0.74625 -0.005)
(0.401875 0.770417 -0.005)
(0.401875 0.794583 -0.005)
(0.401875 0.81875 -0.005)
(0.401875 0.842917 -0.005)
(0.401875 0.867083 -0.005)
(0.401875 0.89125 -0.005)
(0.401875 0.915417 -0.005)
(0.401875 0.939583 -0.005)
(0.401875 0.96375 -0.005)
(0.401875 0.987917 -0.005)
(0.423125 0.722083 -0.005)
(0.423125 0.74625 -0.005)
(0.423125 0.770417 -0.005)
(0.423125 0.794583 -0.005)
(0.423125 0.81875 -0.005)
(0.423125 0.842917 -0.005)
(0.423125 0.867083 -0.005)
(0.423125 0.89125 -0.005)
(0.423125 0.915417 -0.005)
(0.423125 0.939583 -0.005)
(0.423125 0.96375 -0.005)
(0.423125 0.987917 -0.005)
(0.444375 0.722083 -0.005)
(0.444375 0.74625 -0.005)
(0.444375 0.770417 -0.005)
(0.444375 0.794583 -0.005)
(0.444375 0.81875 -0.005)
(0.444375 0.842917 -0.005)
(0.444375 0.867083 -0.005)
(0.444375 0.89125 -0.005)
(0.444375 0.915417 -0.005)
(0.444375 0.939583 -0.005)
(0.444375 0.96375 -0.005)
(0.444375 0.987917 -0.005)
(0.465625 0.722083 -0.005)
(0.465625 0.74625 -0.005)
(0.465625 0.770417 -0.005)
(0.465625 0.794583 -0.005)
(0.465625 0.81875 -0.005)
(0.465625 0.842917 -0.005)
(0.465625 0.867083 -0.005)
(0.465625 0.89125 -0.005)
(0.465625 0.915417 -0.005)
(0.465625 0.939583 -0.005)
(0.465625 0.96375 -0.005)
(0.465625 0.987917 -0.005)
(0.486875 0.722083 -0.005)
(0.486875 0.74625 -0.005)
(0.486875 0.770417 -0.005)
(0.486875 0.794583 -0.005)
(0.486875 0.81875 -0.005)
(0.486875 0.842917 -0.005)
(0.486875 0.867083 -0.005)
(0.486875 0.89125 -0.005)
(0.486875 0.915417 -0.005)
(0.486875 0.939583 -0.005)
(0.486875 0.96375 -0.005)
(0.486875 0.987917 -0.005)
(0.508125 0.722083 -0.005)
(0.508125 0.74625 -0.005)
(0.508125 0.770417 -0.005)
(0.508125 0.794583 -0.005)
(0.508125 0.81875 -0.005)
(0.508125 0.842917 -0.005)
(0.508125 0.867083 -0.005)
(0.508125 0.89125 -0.005)
(0.508125 0.915417 -0.005)
(0.508125 0.939583 -0.005)
(0.508125 0.96375 -0.005)
(0.508125 0.987917 -0.005)
(0.529375 0.722083 -0.005)
(0.529375 0.74625 -0.005)
(0.529375 0.770417 -0.005)
(0.529375 0.794583 -0.005)
(0.529375 0.81875 -0.005)
(0.529375 0.842917 -0.005)
(0.529375 0.867083 -0.005)
(0.529375 0.89125 -0.005)
(0.529375 0.915417 -0.005)
(0.529375 0.939583 -0.005)
(0.529375 0.96375 -0.005)
(0.529375 0.987917 -0.005)
(0.550625 0.722083 -0.005)
(0.550625 0.74625 -0.005)
(0.550625 0.770417 -0.005)
(0.550625 0.794583 -0.005)
(0.550625 0.81875 -0.005)
(0.550625 0.842917 -0.005)
(0.550625 0.867083 -0.005)
(0.550625 0.89125 -0.005)
(0.550625 0.915417 -0.005)
(0.550625 0.939583 -0.005)
(0.550625 0.96375 -0.005)
(0.550625 0.987917 -0.005)
(0.571875 0.722083 -0.005)
(0.571875 0.74625 -0.005)
(0.571875 0.770417 -0.005)
(0.571875 0.794583 -0.005)
(0.571875 0.81875 -0.005)
(0.571875 0.842917 -0.005)
(0.571875 0.867083 -0.005)
(0.571875 0.89125 -0.005)
(0.571875 0.915417 -0.005)
(0.571875 0.939583 -0.005)
(0.571875 0.96375 -0.005)
(0.571875 0.987917 -0.005)
(0.593125 0.722083 -0.005)
(0.593125 0.74625 -0.005)
(0.593125 0.770417 -0.005)
(0.593125 0.794583 -0.005)
(0.593125 0.81875 -0.005)
(0.593125 0.842917 -0.005)
(0.593125 0.867083 -0.005)
(0.593125 0.89125 -0.005)
(0.593125 0.915417 -0.005)
(0.593125 0.939583 -0.005)
(0.593125 0.96375 -0.005)
(0.593125 0.987917 -0.005)
(0.614375 0.722083 -0.005)
(0.614375 0.74625 -0.005)
(0.614375 0.770417 -0.005)
(0.614375 0.794583 -0.005)
(0.614375 0.81875 -0.005)
(0.614375 0.842917 -0.005)
(0.614375 0.867083 -0.005)
(0.614375 0.89125 -0.005)
(0.614375 0.915417 -0.005)
(0.614375 0.939583 -0.005)
(0.614375 0.96375 -0.005)
(0.614375 0.987917 -0.005)
(0.635625 0.722083 -0.005)
(0.635625 0.74625 -0.005)
(0.635625 0.770417 -0.005)
(0.635625 0.794583 -0.005)
(0.635625 0.81875 -0.005)
(0.635625 0.842917 -0.005)
(0.635625 0.867083 -0.005)
(0.635625 0.89125 -0.005)
(0.635625 0.915417 -0.005)
(0.635625 0.939583 -0.005)
(0.635625 0.96375 -0.005)
(0.635625 0.987917 -0.005)
(0.656875 0.722083 -0.005)
(0.656875 0.74625 -0.005)
(0.656875 0.770417 -0.005)
(0.656875 0.794583 -0.005)
(0.656875 0.81875 -0.005)
(0.656875 0.842917 -0.005)
(0.656875 0.867083 -0.005)
(0.656875 0.89125 -0.005)
(0.656875 0.915417 -0.005)
(0.656875 0.939583 -0.005)
(0.656875 0.96375 -0.005)
(0.656875 0.987917 -0.005)
(0.678125 0.722083 -0.005)
(0.678125 0.74625 -0.005)
(0.678125 0.770417 -0.005)
(0.678125 0.794583 -0.005)
(0.678125 0.81875 -0.005)
(0.678125 0.842917 -0.005)
(0.678125 0.867083 -0.005)
(0.678125 0.89125 -0.005)
(0.678125 0.915417 -0.005)
(0.678125 0.939583 -0.005)
(0.678125 0.96375 -0.005)
(0.678125 0.987917 -0.005)
(0.699375 0.722083 -0.005)
(0.699375 0.74625 -0.005)
(0.699375 0.770417 -0.005)
(0.699375 0.794583 -0.005)
(0.699375 0.81875 -0.005)
(0.699375 0.842917 -0.005)
(0.699375 0.867083 -0.005)
(0.699375 0.89125 -0.005)
(0.699375 0.915417 -0.005)
(0.699375 0.939583 -0.005)
(0.699375 0.96375 -0.005)
(0.699375 0.987917 -0.005)
(0.720625 0.722083 -0.005)
(0.720625 0.74625 -0.005)
(0.720625 0.770417 -0.005)
(0.720625 0.794583 -0.005)
(0.720625 0.81875 -0.005)
(0.720625 0.842917 -0.005)
(0.720625 0.867083 -0.005)
(0.720625 0.89125 -0.005)
(0.720625 0.915417 -0.005)
(0.720625 0.939583 -0.005)
(0.720625 0.96375 -0.005)
(0.720625 0.987917 -0.005)
(0.741875 0.722083 -0.005)
(0.741875 0.74625 -0.005)
(0.741875 0.770417 -0.005)
(0.741875 0.794583 -0.005)
(0.741875 0.81875 -0.005)
(0.741875 0.842917 -0.005)
(0.741875 0.867083 -0.005)
(0.741875 0.89125 -0.005)
(0.741875 0.915417 -0.005)
(0.741875 0.939583 -0.005)
(0.741875 0.96375 -0.005)
(0.741875 0.987917 -0.005)
(0.763125 0.722083 -0.005)
(0.763125 0.74625 -0.005)
(0.763125 0.770417 -0.005)
(0.763125 0.794583 -0.005)
(0.763125 0.81875 -0.005)
(0.763125 0.842917 -0.005)
(0.763125 0.867083 -0.005)
(0.763125 0.89125 -0.005)
(0.763125 0.915417 -0.005)
(0.763125 0.939583 -0.005)
(0.763125 0.96375 -0.005)
(0.763125 0.987917 -0.005)
(0.784375 0.722083 -0.005)
(0.784375 0.74625 -0.005)
(0.784375 0.770417 -0.005)
(0.784375 0.794583 -0.005)
(0.784375 0.81875 -0.005)
(0.784375 0.842917 -0.005)
(0.784375 0.867083 -0.005)
(0.784375 0.89125 -0.005)
(0.784375 0.915417 -0.005)
(0.784375 0.939583 -0.005)
(0.784375 0.96375 -0.005)
(0.784375 0.987917 -0.005)
(0.805625 0.722083 -0.005)
(0.805625 0.74625 -0.005)
(0.805625 0.770417 -0.005)
(0.805625 0.794583 -0.005)
(0.805625 0.81875 -0.005)
(0.805625 0.842917 -0.005)
(0.805625 0.867083 -0.005)
(0.805625 0.89125 -0.005)
(0.805625 0.915417 -0.005)
(0.805625 0.939583 -0.005)
(0.805625 0.96375 -0.005)
(0.805625 0.987917 -0.005)
(0.826875 0.722083 -0.005)
(0.826875 0.74625 -0.005)
(0.826875 0.770417 -0.005)
(0.826875 0.794583 -0.005)
(0.826875 0.81875 -0.005)
(0.826875 0.842917 -0.005)
(0.826875 0.867083 -0.005)
(0.826875 0.89125 -0.005)
(0.826875 0.915417 -0.005)
(0.826875 0.939583 -0.005)
(0.826875 0.96375 -0.005)
(0.826875 0.987917 -0.005)
(0.848125 0.722083 -0.005)
(0.848125 0.74625 -0.005)
(0.848125 0.770417 -0.005)
(0.848125 0.794583 -0.005)
(0.848125 0.81875 -0.005)
(0.848125 0.842917 -0.005)
(0.848125 0.867083 -0.005)
(0.848125 0.89125 -0.005)
(0.848125 0.915417 -0.005)
(0.848125 0.939583 -0.005)
(0.848125 0.96375 -0.005)
(0.848125 0.987917 -0.005)
(0.869375 0.722083 -0.005)
(0.869375 0.74625 -0.005)
(0.869375 0.770417 -0.005)
(0.869375 0.794583 -0.005)
(0.869375 0.81875 -0.005)
(0.869375 0.842917 -0.005)
(0.869375 0.867083 -0.005)
(0.869375 0.89125 -0.005)
(0.869375 0.915417 -0.005)
(0.869375 0.939583 -0.005)
(0.869375 0.96375 -0.005)
(0.869375 0.987917 -0.005)
(0.890625 0.722083 -0.005)
(0.890625 0.74625 -0.005)
(0.890625 0.770417 -0.005)
(0.890625 0.794583 -0.005)
(0.890625 0.81875 -0.005)
(0.890625 0.842917 -0.005)
(0.890625 0.867083 -0.005)
(0.890625 0.89125 -0.005)
(0.890625 0.915417 -0.005)
(0.890625 0.939583 -0.005)
(0.890625 0.96375 -0.005)
(0.890625 0.987917 -0.005)
(0.911875 0.722083 -0.005)
(0.911875 0.74625 -0.005)
(0.911875 0.770417 -0.005)
(0.911875 0.794583 -0.005)
(0.911875 0.81875 -0.005)
(0.911875 0.842917 -0.005)
(0.911875 0.867083 -0.005)
(0.911875 0.89125 -0.005)
(0.911875 0.915417 -0.005)
(0.911875 0.939583 -0.005)
(0.911875 0.96375 -0.005)
(0.911875 0.987917 -0.005)
(0.933125 0.722083 -0.005)
(0.933125 0.74625 -0.005)
(0.933125 0.770417 -0.005)
(0.933125 0.794583 -0.005)
(0.933125 0.81875 -0.005)
(0.933125 0.842917 -0.005)
(0.933125 0.867083 -0.005)
(0.933125 0.89125 -0.005)
(0.933125 0.915417 -0.005)
(0.933125 0.939583 -0.005)
(0.933125 0.96375 -0.005)
(0.933125 0.987917 -0.005)
(0.954375 0.722083 -0.005)
(0.954375 0.74625 -0.005)
(0.954375 0.770417 -0.005)
(0.954375 0.794583 -0.005)
(0.954375 0.81875 -0.005)
(0.954375 0.842917 -0.005)
(0.954375 0.867083 -0.005)
(0.954375 0.89125 -0.005)
(0.954375 0.915417 -0.005)
(0.954375 0.939583 -0.005)
(0.954375 0.96375 -0.005)
(0.954375 0.987917 -0.005)
(0.975625 0.722083 -0.005)
(0.975625 0.74625 -0.005)
(0.975625 0.770417 -0.005)
(0.975625 0.794583 -0.005)
(0.975625 0.81875 -0.005)
(0.975625 0.842917 -0.005)
(0.975625 0.867083 -0.005)
(0.975625 0.89125 -0.005)
(0.975625 0.915417 -0.005)
(0.975625 0.939583 -0.005)
(0.975625 0.96375 -0.005)
(0.975625 0.987917 -0.005)
(0.996875 0.722083 -0.005)
(0.996875 0.74625 -0.005)
(0.996875 0.770417 -0.005)
(0.996875 0.794583 -0.005)
(0.996875 0.81875 -0.005)
(0.996875 0.842917 -0.005)
(0.996875 0.867083 -0.005)
(0.996875 0.89125 -0.005)
(0.996875 0.915417 -0.005)
(0.996875 0.939583 -0.005)
(0.996875 0.96375 -0.005)
(0.996875 0.987917 -0.005)
(1.01812 0.722083 -0.005)
(1.01813 0.74625 -0.005)
(1.01812 0.770417 -0.005)
(1.01813 0.794583 -0.005)
(1.01813 0.81875 -0.005)
(1.01812 0.842917 -0.005)
(1.01812 0.867083 -0.005)
(1.01813 0.89125 -0.005)
(1.01812 0.915417 -0.005)
(1.01812 0.939583 -0.005)
(1.01813 0.96375 -0.005)
(1.01813 0.987917 -0.005)
(1.03938 0.722083 -0.005)
(1.03938 0.74625 -0.005)
(1.03937 0.770417 -0.005)
(1.03938 0.794583 -0.005)
(1.03938 0.81875 -0.005)
(1.03938 0.842917 -0.005)
(1.03938 0.867083 -0.005)
(1.03938 0.89125 -0.005)
(1.03938 0.915417 -0.005)
(1.03938 0.939583 -0.005)
(1.03938 0.96375 -0.005)
(1.03938 0.987917 -0.005)
(1.06063 0.722083 -0.005)
(1.06062 0.74625 -0.005)
(1.06063 0.770417 -0.005)
(1.06063 0.794583 -0.005)
(1.06063 0.81875 -0.005)
(1.06063 0.842917 -0.005)
(1.06063 0.867083 -0.005)
(1.06062 0.89125 -0.005)
(1.06063 0.915417 -0.005)
(1.06063 0.939583 -0.005)
(1.06063 0.96375 -0.005)
(1.06063 0.987917 -0.005)
(1.08187 0.722083 -0.005)
(1.08188 0.74625 -0.005)
(1.08188 0.770417 -0.005)
(1.08187 0.794583 -0.005)
(1.08187 0.81875 -0.005)
(1.08187 0.842917 -0.005)
(1.08188 0.867083 -0.005)
(1.08188 0.89125 -0.005)
(1.08188 0.915417 -0.005)
(1.08187 0.939583 -0.005)
(1.08187 0.96375 -0.005)
(1.08188 0.987917 -0.005)
(1.10312 0.722083 -0.005)
(1.10312 0.74625 -0.005)
(1.10313 0.770417 -0.005)
(1.10312 0.794583 -0.005)
(1.10312 0.81875 -0.005)
(1.10312 0.842917 -0.005)
(1.10312 0.867083 -0.005)
(1.10313 0.89125 -0.005)
(1.10312 0.915417 -0.005)
(1.10312 0.939583 -0.005)
(1.10312 0.96375 -0.005)
(1.10312 0.987917 -0.005)
(1.12438 0.722083 -0.005)
(1.12438 0.74625 -0.005)
(1.12438 0.770417 -0.005)
(1.12437 0.794583 -0.005)
(1.12438 0.81875 -0.005)
(1.12438 0.842917 -0.005)
(1.12437 0.867083 -0.005)
(1.12438 0.89125 -0.005)
(1.12437 0.915417 -0.005)
(1.12438 0.939583 -0.005)
(1.12438 0.96375 -0.005)
(1.12437 0.987917 -0.005)
(1.14563 0.722083 -0.005)
(1.14562 0.74625 -0.005)
(1.14563 0.770417 -0.005)
(1.14563 0.794583 -0.005)
(1.14562 0.81875 -0.005)
(1.14563 0.842917 -0.005)
(1.14563 0.867083 -0.005)
(1.14562 0.89125 -0.005)
(1.14563 0.915417 -0.005)
(1.14563 0.939583 -0.005)
(1.14562 0.96375 -0.005)
(1.14563 0.987917 -0.005)
(1.16687 0.722083 -0.005)
(1.16688 0.74625 -0.005)
(1.16688 0.770417 -0.005)
(1.16688 0.794583 -0.005)
(1.16688 0.81875 -0.005)
(1.16688 0.842917 -0.005)
(1.16688 0.867083 -0.005)
(1.16688 0.89125 -0.005)
(1.16688 0.915417 -0.005)
(1.16688 0.939583 -0.005)
(1.16688 0.96375 -0.005)
(1.16688 0.987917 -0.005)
(1.18812 0.722083 -0.005)
(1.18812 0.74625 -0.005)
(1.18812 0.770417 -0.005)
(1.18813 0.794583 -0.005)
(1.18812 0.81875 -0.005)
(1.18812 0.842917 -0.005)
(1.18812 0.867083 -0.005)
(1.18813 0.89125 -0.005)
(1.18812 0.915417 -0.005)
(1.18812 0.939583 -0.005)
(1.18812 0.96375 -0.005)
(1.18813 0.987917 -0.005)
(1.20938 0.722083 -0.005)
(1.20937 0.74625 -0.005)
(1.20937 0.770417 -0.005)
(1.20938 0.794583 -0.005)
(1.20938 0.81875 -0.005)
(1.20938 0.842917 -0.005)
(1.20937 0.867083 -0.005)
(1.20938 0.89125 -0.005)
(1.20938 0.915417 -0.005)
(1.20938 0.939583 -0.005)
(1.20938 0.96375 -0.005)
(1.20937 0.987917 -0.005)
(1.23063 0.722083 -0.005)
(1.23062 0.74625 -0.005)
(1.23063 0.770417 -0.005)
(1.23063 0.794583 -0.005)
(1.23063 0.81875 -0.005)
(1.23063 0.842917 -0.005)
(1.23063 0.867083 -0.005)
(1.23062 0.89125 -0.005)
(1.23063 0.915417 -0.005)
(1.23062 0.939583 -0.005)
(1.23062 0.96375 -0.005)
(1.23063 0.987917 -0.005)
(1.25187 0.722083 -0.005)
(1.25188 0.74625 -0.005)
(1.25188 0.770417 -0.005)
(1.25187 0.794583 -0.005)
(1.25188 0.81875 -0.005)
(1.25187 0.842917 -0.005)
(1.25188 0.867083 -0.005)
(1.25187 0.89125 -0.005)
(1.25188 0.915417 -0.005)