/*--------------------------------*- C++ -*----------------------------------*\
| =========                 |                                                 |
| \\      /  F ield         | OpenFOAM: The Open Source CFD Toolbox           |
|  \\    /   O peration     | Version:  v2012                                 |
|   \\  /    A nd           | Website:  www.openfoam.com                      |
|    \\/     M anipulation  |                                                 |
\*---------------------------------------------------------------------------*/
FoamFile
{
    version     2.0;
    format      ascii;
    class       volScalarField;
    location    "2000";
    object      age;
}
// * * * * * * * * * * * * * * * * * * * * * * * * * * * * * * * * * * * * * //

dimensions      [0 0 1 0 0 0 0];


internalField   nonuniform List<scalar> 
6502
(
0.0135307
0.0122258
0.0123531
0.0124365
0.0124522
0.0124522
0.0124365
0.0123531
0.0122257
0.01353
0.0433959
0.0364911
0.0360081
0.0366143
0.036827
0.0368268
0.036614
0.0360074
0.036488
0.043391
0.0812589
0.0618774
0.0584497
0.0595761
0.0602026
0.0602021
0.0595754
0.0584463
0.0618606
0.0812312
0.128466
0.0892907
0.0800927
0.0813112
0.0824632
0.0824623
0.08131
0.0800813
0.0892356
0.128369
0.184752
0.118839
0.101407
0.102033
0.103692
0.103692
0.102033
0.101373
0.118695
0.184496
0.248514
0.149944
0.122665
0.122009
0.124044
0.124045
0.12201
0.12259
0.149631
0.247952
0.317811
0.183454
0.144273
0.141475
0.14369
0.143695
0.141478
0.144122
0.182859
0.316715
0.391018
0.216674
0.166081
0.160636
0.162785
0.162797
0.160637
0.165804
0.215581
0.389082
0.467009
0.250268
0.188124
0.179625
0.181451
0.181474
0.179612
0.187631
0.248355
0.463772
0.545129
0.284282
0.210158
0.198495
0.199786
0.199823
0.19846
0.209389
0.281101
0.540072
0.62511
0.318905
0.233234
0.217347
0.217858
0.217915
0.217243
0.231809
0.313743
0.616988
0.706615
0.354159
0.256923
0.236245
0.235723
0.235808
0.235979
0.254658
0.346117
0.695963
0.793251
0.390289
0.280453
0.255207
0.253431
0.253537
0.254656
0.277589
0.377875
0.778124
0.882021
0.427459
0.303373
0.274205
0.271022
0.271124
0.273232
0.299209
0.408784
0.859692
0.9721
0.466134
0.326523
0.293269
0.288529
0.288586
0.291667
0.320402
0.438715
0.938007
1.06362
0.506926
0.350124
0.312453
0.305982
0.305935
0.309922
0.341157
0.467291
1.01155
1.1573
0.550651
0.374358
0.331833
0.323414
0.323179
0.32795
0.361298
0.493902
1.0776
1.25383
0.598364
0.399464
0.35151
0.340872
0.340324
0.345689
0.380552
0.51755
1.13293
1.35449
0.651349
0.425739
0.371635
0.358424
0.357386
0.363078
0.398601
0.537042
1.16699
1.46011
0.711467
0.45371
0.392343
0.376163
0.374395
0.380074
0.414873
0.547735
1.15088
1.57326
0.781158
0.484647
0.414234
0.394339
0.391491
0.396779
0.428997
0.545749
1.00993
1.69563
0.861131
0.51964
0.437719
0.413286
0.408802
0.413382
0.44209
0.541264
0.910191
1.82885
0.951826
0.559745
0.462183
0.432976
0.426419
0.430022
0.455034
0.538296
0.834058
1.97534
1.0538
0.606382
0.488517
0.453567
0.444494
0.44685
0.46824
0.537571
0.774571
2.13742
1.16789
0.661173
0.517269
0.475276
0.46318
0.46399
0.481926
0.539169
0.728628
2.31882
1.29577
0.726084
0.549004
0.498374
0.48265
0.48155
0.496309
0.543058
0.693669
2.52302
1.43937
0.803725
0.58471
0.523207
0.503114
0.499685
0.510999
0.549036
0.667895
2.75652
1.60144
0.897224
0.627139
0.550254
0.524761
0.518563
0.526647
0.556931
0.64982
3.02478
1.78524
1.00757
0.678936
0.580395
0.547893
0.538387
0.543229
0.566722
0.638348
3.34663
1.99712
1.1375
0.743225
0.614354
0.572883
0.559415
0.560863
0.578518
0.632712
3.72858
2.2446
1.29101
0.82499
0.654936
0.600386
0.581948
0.579753
0.591987
0.632207
4.18731
2.53754
1.47354
0.927659
0.705813
0.631208
0.606234
0.600136
0.607456
0.636258
4.74971
2.88982
1.69241
1.05548
0.772246
0.668132
0.632916
0.622247
0.624993
0.644534
5.45666
3.32154
1.95797
1.21479
0.859025
0.714846
0.663417
0.64647
0.644644
0.657026
6.3833
3.86496
2.28398
1.41339
0.972376
0.776347
0.700361
0.673648
0.666808
0.671092
7.63011
4.57148
2.69682
1.6645
1.12033
0.858783
0.747711
0.705518
0.691881
0.690264
9.60466
5.52969
3.211
1.97942
1.31453
0.971538
0.811657
0.745208
0.720895
0.713659
12.2174
7.07759
3.97078
2.38648
1.56097
1.12245
0.900485
0.798283
0.756386
0.741276
24.1555
8.52555
4.91576
2.96456
1.90205
1.32683
1.02331
0.872141
0.80313
0.774848
140.396
33.9707
6.45226
3.64297
2.34518
1.61101
1.19642
0.976427
0.867762
0.818333
136.163
75.3053
16.4965
4.44955
2.82545
1.98337
1.44949
1.13155
0.961186
0.877831
129.218
119.472
51.6113
11.157
3.40727
2.36432
1.77534
1.36478
1.10682
0.966177
126.94
109.869
92.2347
37.0505
8.16008
2.78592
2.09397
1.66255
1.33088
1.11004
124.468
97.7492
97.9184
75.0885
29.5249
6.65814
2.39451
1.92966
1.60699
1.33131
122.386
94.0829
90.3334
89.8044
64.7166
25.8228
6.14022
2.17257
1.82889
1.58389
120.439
91.3475
87.888
89.5119
88.3102
59.4238
24.4323
6.16741
2.1011
1.78366
118.565
89.2237
86.8071
90.476
95.4953
88.1209
57.982
24.9599
6.79318
2.23971
117.133
87.808
86.2354
93.256
100.687
104.168
91.0589
59.6935
27.1148
8.18325
115.379
86.8065
85.6373
95.3689
108.805
116.962
115.876
97.3306
64.0775
31.1069
113.502
85.8687
85.0344
96.8586
114.096
129.689
136.454
130.028
106.322
70.9297
112.643
85.0385
84.3424
96.9035
116.586
137.399
153.046
157.249
145.352
117.051
112.259
84.2347
83.3275
95.4208
115.735
139.393
161.19
176.97
176.093
158.97
112.261
83.4096
81.9115
92.4629
111.556
135.347
159.776
180.424
195.41
188.41
113.366
82.8691
80.2686
88.3306
104.432
125.667
149.125
171.386
188.407
195.97
117.4
82.837
78.9106
83.5596
95.3457
111.918
131.128
150.742
168.083
180.075
124.518
83.5055
78.1566
79.1081
85.8667
96.7351
110.062
124.252
137.684
148.53
138.667
86.2729
77.9578
76.3843
78.1819
83.2499
90.5136
98.7559
107.098
114.444
171.508
95.3042
79.7169
75.6802
74.6563
74.7165
76.5414
79.3634
82.8057
86.2648
247.54
120.747
85.4822
78.1294
74.3875
72.4483
71.5497
70.9608
70.4473
70.2763
427.127
168.362
96.8509
84.0742
78.4458
74.7855
72.2292
70.3112
68.7816
67.5091
28.6521
68.7392
68.4812
68.582
69.8456
71.3285
72.8824
74.3577
75.7605
77.0813
78.4211
79.9089
81.6814
83.9445
86.9966
91.2824
97.3689
106.046
118.225
136.552
163.743
202.522
262.343
333.448
430.705
24.0948
63.6587
58.7527
58.5842
58.3673
58.1396
57.9367
57.7148
57.4714
57.2086
56.9536
56.7425
56.6316
56.6867
56.9546
57.4358
58.3137
60.0819
63.3331
69.7971
84.7023
115.295
183.776
319.242
460.569
17.5897
59.4131
61.5527
63.165
62.8223
61.8518
60.717
59.656
58.7086
57.8307
56.9696
56.1195
55.269
54.4654
53.8608
53.4934
53.2178
53.1005
53.4758
54.6762
57.5223
63.1949
79.5913
140.343
284.196
11.505
54.0914
66.2393
72.6066
74.5789
74.1662
72.8403
71.114
69.258
67.3486
65.4082
63.4172
61.3754
59.3063
57.2712
55.3849
53.7005
52.4329
51.7089
51.5316
52.2801
54.8881
60.2511
70.5505
97.2836
7.11209
45.4696
69.309
80.6187
85.9133
87.5426
87.1684
85.69
83.5812
81.0764
78.2808
75.229
71.9503
68.4918
64.9318
61.3883
58.02
55.0238
52.6435
51.1271
50.6291
51.1987
54.0745
60.6496
74.613
4.48384
34.9243
68.4863
86.1605
96.1006
101.091
102.751
102.319
100.547
97.8258
94.3773
90.3218
85.7549
80.7853
75.5458
70.204
64.9634
60.0612
55.7735
52.4308
50.4276
49.8759
50.9181
55.065
64.2752
2.93381
24.6255
62.622
88.6175
104.009
113.577
118.519
120.187
119.552
117.202
113.473
108.592
102.746
96.1373
88.9994
81.5952
74.2185
67.1771
60.7921
55.4131
51.4623
49.5168
49.2992
51.6284
57.458
2.00375
15.8747
52.7117
86.8174
108.61
123.792
133.297
138.324
139.903
138.775
135.392
130.069
123.101
114.805
105.552
95.7574
85.864
76.3112
67.5158
59.8782
53.8292
49.8831
48.5376
49.3513
53.2258
1.445
9.13343
39.9258
79.4802
109.185
130.45
145.732
155.472
160.585
161.822
159.727
154.653
146.962
137.1
125.601
113.094
100.239
87.6903
76.0307
65.7541
57.3129
51.2389
48.3243
47.9547
50.4203
1.10907
5.08895
26.9046
66.7767
104.227
132.493
154.26
170.024
180.127
185.153
185.583
181.819
174.16
163.137
149.46
134.008
117.747
101.642
86.558
73.1697
61.9971
53.5388
48.4977
47.1174
48.397
0.90987
2.98669
16.067
50.8628
92.7846
128.681
157.323
180.062
196.571
206.969
211.479
210.359
203.927
192.569
177.118
158.717
138.709
118.49
99.3413
82.2458
67.8706
56.714
49.3887
46.7139
46.8943
0.796546
1.89766
8.40434
33.9584
75.3051
117.567
153.562
183.51
207.491
224.712
234.98
238.213
234.542
224.21
207.898
186.958
163.149
138.402
114.572
93.1278
75.011
60.7582
50.8965
46.4169
45.7746
0.736747
1.31316
4.30599
19.5343
54.4921
98.8374
141.521
178.68
210.266
235.44
252.946
262.29
263.129
255.638
240.038
217.619
190.481
161.159
132.224
105.844
83.4367
65.6989
53.0415
46.3884
44.9451
0.709766
1.00016
2.4159
9.63382
34.0954
74.4728
120.48
164.16
202.913
235.966
261.833
278.705
285.91
283.029
270.347
248.392
219.166
185.865
151.854
120.203
93.0458
71.4472
55.7536
46.7222
44.3795
0.702134
0.844476
1.52471
4.40269
17.7831
48.827
92.2309
139.347
184.176
224.257
258.089
283.795
299.212
301.289
294.026
275.565
246.425
210.647
172.343
135.619
103.549
77.8506
58.9565
47.3893
43.9333
0.706955
0.776324
1.08421
2.28161
7.74944
26.7162
61.4114
106.192
153.875
199.389
239.926
273.493
296.904
306.439
305.106
294.274
268.216
232.479
191.686
150.926
114.345
84.6129
62.4909
48.3829
43.5401
0.718641
0.753124
0.883504
1.40377
3.2399
11.7398
34.2844
70.3184
114.936
162.127
207.151
246.861
278.166
297.76
304.491
299.783
279.707
247.312
206.931
164.254
124.42
91.2509
66.1293
49.6004
43.1985
0.738384
0.753588
0.808278
1.01021
1.69731
4.28814
14.9889
38.6513
74.0269
116.894
162.056
205.004
241.988
269.73
285.972
288.515
276.388
250.689
214.443
173.091
132.296
97.0149
69.5695
50.9102
42.8985
0.764549
0.767064
0.789463
0.860866
1.11332
1.85669
5.11566
16.5882
39.1963
71.8587
111.071
152.33
191.236
223.884
247.06
258.052
255.392
238.839
210.48
174.32
135.874
100.711
72.2266
52.1114
42.6292
0.797457
0.791013
0.797202
0.822336
0.893155
1.15627
1.73186
5.15557
15.9781
35.8957
64.0983
97.8178
133.237
166.307
193.274
210.931
217.166
210.873
192.605
165.097
132.862
100.905
73.3653
52.9079
42.3777
0.839806
0.823639
0.819488
0.826372
0.845217
0.913755
1.08759
1.28767
4.0923
12.6604
28.8523
51.5913
78.6579
106.968
133.089
153.741
166.197
168.976
161.436
144.68
121.586
96.0629
72.0791
52.9065
42.1047
0.897574
0.866243
0.8525
0.849146
0.853312
0.86494
0.914247
1.00213
1.13735
2.60683
8.12558
19.7815
36.5522
56.5985
77.5091
96.6157
111.373
119.743
120.846
114.515
101.851
85.0887
67.2145
51.3566
41.4977
0.986491
0.92547
0.896489
0.883831
0.880112
0.879246
0.885897
0.917667
0.961137
1.11053
1.22004
3.80174
10.1551
21.0552
34.6321
48.9702
62.0913
72.2109
78.007
78.998
75.2446
67.5486
57.4739
47.0907
39.7541
1.1356
1.02002
0.958943
0.929687
0.91728
0.911969
0.907427
0.913054
0.928531
0.970726
1.01965
1.14619
1.26528
3.48412
8.27062
15.6116
24.3811
32.8284
39.6554
43.9962
45.5543
44.5835
41.6198
37.7933
35.177
1.3586
1.18244
1.06581
0.99983
0.967254
0.953184
0.945298
0.941428
0.94407
0.952728
0.975157
1.01824
1.06603
1.16527
1.24814
2.08709
4.25323
7.54301
11.498
15.4451
18.5038
20.3344
21.109
21.2281
21.3618
1.58613
1.40363
1.24329
1.12545
1.0519
1.0125
0.993245
0.983384
0.979882
0.979048
0.985991
0.998788
1.02225
1.05938
1.09944
1.16934
1.24036
1.31237
1.49808
2.13169
3.01634
3.95377
4.82215
5.59751
6.36167
1.80533
1.61456
1.45659
1.31332
1.1976
1.11705
1.06818
1.04119
1.02794
1.02187
1.0211
1.0239
1.03333
1.04716
1.06786
1.09767
1.13334
1.17273
1.21982
1.27505
1.32932
1.38395
1.4394
1.49599
1.55296
2.55671
1.8912
1.67493
1.52223
1.39232
1.28199
1.197
1.13836
1.10199
1.08165
1.07181
1.06841
1.06992
1.07521
1.08491
1.09868
1.1169
1.1401
1.16821
1.19948
1.23311
1.26837
1.30634
1.34367
1.38167
10.6903
3.25794
2.08954
1.7797
1.60122
1.47564
1.3733
1.28921
1.22459
1.17915
1.15007
1.13343
1.12559
1.12387
1.12684
1.13343
1.14329
1.15664
1.17352
1.19337
1.21597
1.24081
1.26843
1.29753
1.32765
37.6046
14.9457
4.71723
2.48968
1.96322
1.71895
1.57362
1.47204
1.39123
1.32548
1.27434
1.23732
1.2127
1.19813
1.19129
1.19028
1.19373
1.20081
1.21107
1.22417
1.23987
1.25789
1.27807
1.30016
1.32389
80.6233
46.6361
20.897
7.58306
3.28042
2.28536
1.90697
1.70413
1.58489
1.50239
1.43773
1.38528
1.34386
1.31295
1.29158
1.27841
1.27198
1.27096
1.27435
1.28138
1.29147
1.30422
1.31927
1.33631
1.35514
128.339
91.7425
56.3744
28.6156
12.1255
4.73649
2.79515
2.19951
1.90334
1.73721
1.63634
1.56653
1.51282
1.46972
1.43549
1.40941
1.39083
1.37892
1.37282
1.37167
1.37469
1.38126
1.39088
1.40308
1.41752
168.705
137.585
101.149
65.8163
37.7181
18.2426
7.9845
3.88231
2.67475
2.21162
1.9585
1.81341
1.72401
1.6629
1.61723
1.58144
1.55329
1.53178
1.51629
1.50626
1.50115
1.50039
1.50348
1.50992
1.51933
189.141
168.989
139.588
105.775
73.2422
45.7582
25.6304
12.9303
6.40045
3.68704
2.73154
2.31685
2.08194
1.94275
1.85616
1.79867
1.75797
1.72784
1.70525
1.68867
1.67726
1.67047
1.66784
1.669
1.67363
183.584
174.942
156.948
131.914
103.675
75.9243
51.6072
32.5476
19.1312
10.7061
6.14807
3.91095
2.98666
2.55154
2.30538
2.15004
2.05155
1.98798
1.94594
1.91777
1.89912
1.88748
1.88133
1.87971
1.88206
154.944
155.273
148.2
134.464
115.764
94.6195
73.3761
54.0216
37.8224
25.3151
16.498
10.5232
6.88425
4.80063
3.68827
3.10421
2.76759
2.55602
2.41537
2.31964
2.25404
2.20973
2.18127
2.1646
2.15694
119.876
122.56
121.678
116.451
107.368
95.2621
81.371
67.019
53.3375
41.1315
30.9597
22.8501
16.7224
12.2403
9.06462
6.91376
5.48259
4.55108
3.96684
3.58736
3.32993
3.14917
3.01991
2.92747
2.86255
89.2458
91.3155
92.0298
90.9537
87.7003
82.4862
75.7897
68.0544
59.7035
51.3138
43.3853
36.2045
29.9475
24.673
20.3345
16.8526
14.0875
11.8858
10.1699
8.85178
7.84586
7.07162
6.49461
6.06812
5.75211
70.2724
70.3041
70.2326
69.8594
68.8694
67.0845
64.7097
61.7674
58.2367
54.2768
50.1561
45.9877
41.9201
38.1306
34.6711
31.5683
28.8299
26.4425
24.3855
22.6315
21.1577
19.9034
18.8441
17.9624
17.243
66.4718
65.5889
64.7118
63.8265
62.8854
61.8654
60.7853
59.6857
58.4395
57.0659
55.5581
53.8854
52.0455
50.276
48.5865
46.9858
45.4934
44.1326
42.9122
41.8347
40.8992
40.0995
39.4282
38.8779
38.4405
34.5673
34.7165
34.8731
21.9458
22.654
23.106
7.14002
7.86093
8.46783
1.62998
1.72948
1.83927
1.41907
1.45582
1.49296
1.35662
1.38425
1.4123
1.3473
1.37003
1.39342
1.37414
1.393
1.41275
1.43275
1.44838
1.46516
1.53037
1.54255
1.55629
1.68066
1.68953
1.70036
1.88729
1.89476
1.90444
2.15583
2.15942
2.16667
2.82068
2.79461
2.77893
5.53097
5.37362
5.25515
16.6907
16.2754
15.9438
38.1402
37.9179
37.7645
2143.02
2095.32
1928.44
1370.78
781.08
596.392
542.436
508.85
485.635
468.294
454.524
443.784
434.305
426.077
418.603
413.144
405.048
397.859
392.537
387.959
383.857
380.107
376.628
373.367
370.289
367.367
364.581
361.916
359.361
356.904
354.537
352.253
350.046
347.909
345.837
343.828
341.876
339.978
338.133
336.337
334.587
332.883
331.223
329.604
328.026
326.488
324.988
323.527
322.103
320.714
319.359
318.037
316.746
315.484
314.25
313.04
311.852
310.682
309.527
308.381
307.248
306.266
305.434
304.777
304.326
304.13
304.265
304.793
305.813
307.695
310.927
316.26
324.695
337.016
355.572
385.347
432.782
504.533
627.851
775.749
1819.7
1695.5
1320.64
847.663
583.709
510.806
474.512
447.332
427.489
412.624
400.096
389.512
380.602
373.406
367.923
363.793
357.984
350.538
344.682
339.725
335.453
331.861
328.711
325.928
323.449
321.225
319.206
317.362
315.667
314.07
312.539
311.078
309.678
308.335
307.043
305.798
304.595
303.43
302.301
301.205
300.137
299.097
298.079
297.082
296.1
295.126
294.147
293.148
292.141
291.248
290.458
289.779
289.111
288.419
287.737
287.073
286.433
285.823
285.244
284.698
284.14
283.486
282.72
281.82
280.755
279.524
278.327
277.436
276.611
275.814
275.007
274.095
273.598
274.52
277.568
285.926
309.662
360.35
473.767
688.71
1522.05
1269.7
868.789
585.075
485.84
448.385
419.212
396.709
379.582
366.494
355.765
347.148
340.619
335.722
331.985
329.032
326.42
324.033
322.149
320.664
319.465
318.426
317.394
316.471
315.796
315.303
314.721
314.145
313.581
313.031
312.509
312.011
311.572
311.236
310.997
310.851
310.796
310.833
310.96
311.18
311.494
311.908
312.425
313.053
313.796
314.661
315.65
316.75
317.932
319.172
320.442
321.713
322.954
324.132
325.199
326.099
326.762
327.109
327.06
326.538
325.491
323.87
321.615
318.677
315.026
310.663
305.628
300.017
294.029
288.103
282.475
276.93
271.864
268.303
266.89
266.53
269.253
279.088
302.457
353.634
1297.22
969.525
629.204
478.717
434.068
403.544
378.966
360.869
347.999
339.773
334.522
331.225
329.032
327.271
325.819
324.809
324.143
323.518
323.003
322.683
322.686
322.958
323.502
324.311
325.336
326.537
327.966
329.632
331.483
333.487
335.64
337.932
340.332
342.821
345.396
348.053
350.789
353.605
356.499
359.468
362.512
365.633
368.831
372.106
375.455
378.87
382.34
385.852
389.391
392.936
396.434
399.826
403.036
405.978
408.561
410.683
412.218
413.019
412.934
411.832
409.608
406.154
401.365
395.15
387.465
378.322
367.799
356.048
343.297
329.857
316.137
302.629
289.908
278.679
269.835
264.391
262.705
264.645
274.034
291.783
1129.99
778.331
514.894
432.293
399.501
372.475
353.863
342.126
335.732
332.493
330.539
329.243
328.589
328.136
328.152
328.865
330.172
332.227
335.071
338.498
342.363
346.608
351.157
355.937
360.893
365.996
371.21
376.48
381.78
387.139
392.539
397.969
403.421
408.893
414.39
419.915
425.477
431.082
436.737
442.443
448.203
454.028
459.931
465.918
471.987
478.139
484.367
490.653
496.955
503.204
509.316
515.184
520.675
525.634
529.909
533.341
535.717
536.768
536.213
533.817
529.414
522.869
514.012
502.704
488.913
472.71
454.278
433.918
412.049
389.189
365.944
342.983
321.034
300.896
283.509
270.077
262.191
260.103
263.738
275.269
1005.17
657.294
458.265
404.374
374.961
353.317
341.297
335.238
332.727
331.711
331.407
331.717
333.288
336.337
340.767
346.263
352.71
359.941
367.704
375.887
384.405
393.156
402.061
411.062
420.116
429.193
438.268
447.328
456.369
465.388
474.381
483.349
492.299
501.238
510.178
519.134
528.123
537.166
546.276
555.456
564.697
574.02
583.451
592.993
602.64
612.384
622.218
632.117
642.006
651.764
661.239
670.26
678.607
686.027
692.283
697.152
700.308
701.302
699.683
695.09
687.318
676.195
661.474
642.972
620.694
594.804
565.646
533.744
499.793
464.63
429.192
394.464
361.423
331.017
304.202
282.083
266.199
258.884
258.116
265.277
911.896
581.693
427.654
384.559
358.531
343.02
336.316
333.949
333.448
334.173
336.928
341.993
349.138
358.002
368.141
379.33
391.303
403.841
416.78
430.016
443.451
457.007
470.628
484.278
497.928
511.56
525.161
538.723
552.24
565.712
579.139
592.527
605.883
619.219
632.549
645.891
659.271
672.723
686.267
699.895
713.584
727.35
741.232
755.227
769.31
783.463
797.688
811.965
826.175
840.105
853.504
866.102
877.595
887.634
895.884
902.019
905.576
905.937
902.486
894.751
882.402
865.173
842.763
814.991
781.911
743.807
701.219
654.938
606.001
555.639
505.216
456.142
409.769
367.312
329.832
298.354
274.192
259.465
255.259
258.877
839.886
532.698
407.373
369.927
348.136
338.303
335.515
335.131
337.294
342.728
351.323
362.635
376.108
391.166
407.383
424.472
442.182
460.35
478.855
497.602
516.518
535.547
554.649
573.789
592.941
612.084
631.201
650.277
669.301
688.266
707.169
726.011
744.795
763.528
782.223
800.895
819.576
838.327
857.167
876.048
894.956
913.906
932.926
952.006
971.107
990.202
1009.3
1028.37
1047.23
1065.56
1083.02
1099.22
1113.77
1126.27
1136.24
1143.19
1146.5
1145.43
1139.25
1127.35
1109.25
1084.52
1052.84
1014.06
968.287
915.946
857.774
794.85
728.571
660.605
592.799
527.065
465.233
408.909
359.372
317.632
284.762
262.582
254.015
254.352
783.093
498.856
392.163
359.158
342.289
337.283
336.599
339.51
346.922
358.602
373.875
391.88
411.883
433.321
455.815
479.097
502.981
527.337
552.068
577.094
602.35
627.78
653.337
678.975
704.653
730.336
755.99
781.587
807.103
832.519
857.82
882.997
908.048
932.973
957.776
982.471
1007.09
1031.73
1056.38
1080.96
1105.47
1129.94
1154.37
1178.74
1203.03
1227.18
1251.19
1274.94
1298.2
1320.58
1341.67
1361.01
1378.12
1392.49
1403.51
1410.5
1412.69
1409.24
1399.31
1382.17
1357.2
1323.85
1281.79
1230.87
1171.28
1103.56
1028.63
947.835
862.909
775.936
689.252
605.299
526.45
454.807
392.009
339.177
297.155
267.335
253.084
251.027
739.18
474.462
380.396
351.61
339.978
337.821
340.226
348.377
362.213
380.809
403.004
427.784
454.434
482.471
511.582
541.55
572.224
603.488
635.245
667.407
699.896
732.634
765.551
798.577
831.647
864.703
897.69
930.559
963.267
995.78
1028.07
1060.11
1091.89
1123.41
1154.66
1185.65
1216.43
1247.06
1277.52
1307.74
1337.72
1367.5
1397.05
1426.37
1455.41
1484.12
1512.41
1540.1
1566.88
1592.37
1616.1
1637.55
1656.14
1671.25
1682.14
1688
1687.93
1680.95
1666.21
1642.84
1610.11
1567.45
1514.49
1451.13
1377.61
1294.57
1203.08
1104.66
1001.31
895.441
789.811
687.358
590.999
503.388
426.646
362.184
310.796
273.385
252.894
248.493
701.474
454.641
371.042
346.642
339.829
339.865
347.076
361.529
382.344
407.992
437.097
468.691
502.157
537.105
573.272
610.471
648.553
687.387
726.852
766.83
807.209
847.88
888.736
929.68
970.616
1011.46
1052.13
1092.55
1132.67
1172.42
1211.77
1250.67
1289.11
1327.06
1364.53
1401.52
1438.05
1474.16
1509.81
1544.99
1579.68
1613.9
1647.63
1680.84
1713.48
1745.46
1776.64
1806.77
1835.55
1862.55
1887.27
1909.14
1927.51
1941.64
1950.71
1953.81
1949.89
1937.95
1917.19
1886.8
1845.89
1793.87
1730.38
1655.36
1569.11
1472.34
1366.17
1252.24
1132.63
1009.96
887.224
767.767
654.976
552.038
461.63
385.599
324.907
280.131
253.527
246.613
670.552
438.06
363.794
344.249
340.239
344.074
357.055
378.339
406.214
438.802
474.743
513.198
553.66
595.799
639.374
684.189
730.066
776.834
824.329
872.391
920.864
969.601
1018.46
1067.31
1116.03
1164.5
1212.61
1260.29
1307.43
1353.96
1399.83
1444.98
1489.37
1532.97
1575.77
1617.75
1658.93
1699.3
1738.85
1777.56
1815.41
1852.41
1888.54
1923.73
1957.94
1991.03
2022.82
2053.05
2081.39
2107.41
2130.58
2150.31
2165.92
2176.66
2181.67
2180.01
2170.63
2152.21
2123.27
2085.44
2036.74
1976.32
1903.92
1819.48
1723.34
1616.21
1499.23
1373.98
1242.51
1107.39
971.678
838.889
712.743
596.862
494.465
407.931
338.609
287.03
254.695
245.098
645.645
424.776
358.309
343.316
341.773
350.424
369.767
397.967
432.701
471.999
514.641
559.927
607.423
656.816
707.85
760.286
813.894
868.451
923.739
979.552
1035.69
1091.97
1148.21
1204.25
1259.93
1315.12
1369.67
1423.48
1476.41
1528.39
1579.32
1629.12
1677.72
1725.09
1771.19
1815.98
1859.46
1901.62
1942.44
1981.93
2020.07
2056.87
2092.29
2126.27
2158.62
2189.15
2217.73
2244.09
2267.92
2288.84
2306.39
2320.05
2329.22
2333.18
2331.06
2322.25
2307.21
2285.58
2251.26
2206.84
2151.78
2085.28
2007.05
1917.07
1815.65
1703.45
1581.5
1451.21
1314.43
1173.5
1031.28
891.172
756.984
632.606
521.667
427.072
350.714
293.402
256.174
243.661
623.539
413.6
354.527
343.534
344.657
358.758
384.63
419.506
460.709
506.361
555.411
607.26
661.496
717.787
775.824
835.309
895.948
957.462
1019.58
1082.05
1144.63
1207.1
1269.25
1330.87
1391.79
1451.83
1510.83
1568.64
1625.12
1680.15
1733.61
1785.42
1835.51
1883.83
1930.33
1975.02
2017.91
2059.02
2098.41
2136.15
2172.27
2206.74
2239.13
2267.41
2291.8
2314.7
2335.3
2353.6
2369.37
2382.34
2392.19
2398.62
2401.52
2396.66
2385.4
2368.13
2344.09
2312.13
2271.93
2222.73
2163.78
2094.55
2014.75
1924.36
1823.61
1713.03
1593.42
1465.91
1332
1193.65
1053.3
913.99
779.258
652.916
538.772
440.186
359.625
298.393
257.558
242.33
604.386
404.135
352.33
344.101
348.738
368.753
400.962
442.007
489.089
540.506
595.354
653.076
713.242
775.465
839.37
904.59
970.773
1037.58
1104.7
1171.84
1238.71
1305.05
1370.64
1435.23
1498.6
1560.57
1620.94
1679.54
1736.21
1790.81
1843.23
1893.35
1941.17
1986.59
2029.6
2070.2
2108.41
2144.33
2178.16
2209.54
2238.38
2264.76
2288.94
2304.43
2313.2
2323.3
2333.05
2340.47
2345.51
2348.03
2347.51
2343.52
2335.3
2322.3
2304.1
2280.21
2250.11
2213.29
2169.24
2117.49
2057.64
1989.39
1912.57
1827.15
1733.24
1631.17
1521.44
1404.82
1282.37
1155.55
1026.27
896.964
770.595
650.551
540.442
443.71
363.23
300.966
258.32
241.038
587.056
396.086
350.825
344.717
353.694
379.975
417.968
464.386
516.454
572.664
632.2
694.502
759.093
825.519
893.338
962.122
1031.47
1100.99
1170.33
1239.16
1307.18
1374.1
1439.64
1503.55
1565.61
1625.58
1683.28
1738.51
1791.12
1840.95
1887.86
1932.16
1973.19
2011.09
2045.89
2077.63
2106.19
2132.93
2153.48
2170.73
2186.35
2200.21
2211.37
2219.48
2224.26
2226.07
2225.06
2221
2213.9
2203.76
2190.48
2173.88
2153.79
2129.97
2102.16
2070.1
2033.48
1992
1945.38
1893.32
1835.58
1771.94
1702.26
1626.45
1544.52
1456.59
1362.92
1263.95
1160.34
1053.02
943.292
832.857
723.882
618.981
521.144
433.48
358.864
299.646
257.858
239.692
567.842
389.003
349.943
346.229
360.113
391.786
434.644
485.248
540.945
600.393
662.821
727.645
794.331
862.365
931.252
1000.52
1069.73
1138.47
1206.35
1273.03
1338.19
1401.51
1462.74
1521.59
1577.85
1631.3
1681.75
1729.03
1773.01
1813.47
1851.01
1883.13
1912.96
1939.41
1962.26
1981.55
1997.17
2010.45
2020.45
2026.45
2028.77
2027.94
2024.17
2017.58
2008.3
1996.45
1982.11
1965.37
1946.28
1924.87
1901.15
1875.07
1846.58
1815.61
1782.04
1745.76
1706.61
1664.45
1619.12
1570.48
1518.37
1462.68
1403.32
1340.23
1273.42
1202.96
1128.99
1051.76
971.642
889.175
805.087
720.359
636.269
554.44
476.852
405.783
343.615
292.641
255.298
238.037
549.636
382.702
349.764
348.394
367.217
403.223
449.47
502.469
559.755
620.127
682.838
747.271
812.853
879.039
945.315
1011.19
1076.2
1139.94
1202.04
1262.14
1319.93
1375.12
1427.45
1476.7
1522.67
1565.17
1604.07
1639.23
1670.64
1697.98
1722.31
1742.07
1757.86
1769.89
1778.25
1782.99
1784.17
1781.95
1776.48
1767.96
1756.59
1742.57
1726.09
1707.35
1686.53
1663.77
1639.24
1613.05
1585.32
1556.12
1525.52
1493.56
1460.27
1425.64
1389.67
1352.35
1313.62
1273.47
1231.84
1188.7
1144.03
1097.81
1050.04
1000.76
950.02
897.909
844.554
790.123
734.827
678.933
622.774
566.771
511.465
457.564
405.991
357.897
314.635
277.783
249.462
235.559
531.398
377.286
350.141
350.953
374.05
412.61
459.918
512.703
568.724
626.879
686.416
746.731
807.26
867.468
926.858
984.964
1041.36
1095.66
1147.53
1196.65
1242.76
1285.61
1325.03
1360.82
1392.88
1421.08
1445.37
1465.72
1482.13
1494.6
1503.25
1508.06
1509.09
1506.49
1500.42
1491.12
1478.8
1463.69
1446.01
1425.96
1403.78
1379.67
1353.83
1326.47
1297.76
1267.87
1236.97
1205.19
1172.67
1139.52
1105.85
1071.75
1037.31
1002.58
967.62
932.485
897.21
861.834
826.393
790.928
755.484
720.114
684.881
649.861
615.141
580.821
547.016
513.848
481.451
449.963
419.533
390.314
362.491
336.267
311.871
289.571
269.657
252.494
238.729
232.279
514.18
373.306
350.757
353.014
378.711
416.622
461.552
510.517
561.509
613.487
665.745
717.723
768.913
818.845
867.086
913.24
956.951
997.909
1035.84
1070.53
1101.77
1129.43
1153.39
1173.58
1189.97
1202.54
1211.34
1216.35
1217.62
1215.29
1209.5
1200.47
1188.42
1173.53
1156
1136.05
1113.88
1089.71
1063.75
1036.23
1007.36
977.347
946.397
914.712
882.485
849.905
817.147
784.378
751.751
719.405
687.465
656.035
625.193
595.006
565.533
536.83
508.946
481.929
455.819
430.657
406.482
383.331
361.245
340.269
320.45
301.846
284.518
268.54
254
241
229.673
220.182
212.779
207.625
204.965
205.109
208.278
214.197
220.876
226.985
498.958
370.221
351.406
353.54
376.911
410.692
449.067
489.793
531.402
572.956
613.811
653.47
691.515
727.576
761.322
792.467
820.764
846.008
868.037
886.73
902.007
913.825
922.194
927.056
928.471
926.542
921.373
913.156
902.039
888.17
871.705
852.819
831.703
808.567
783.639
757.158
729.385
700.566
670.933
640.715
610.146
579.461
548.888
518.642
488.921
459.899
431.727
404.53
378.407
353.428
329.676
307.048
285.514
265.123
245.923
227.938
211.172
195.612
181.232
168.003
155.887
144.85
134.856
125.879
117.894
110.891
104.869
99.8477
95.8698
93.0045
91.4218
91.387
93.2035
97.4634
105.009
117.03
135.074
160.711
191.272
217.413
498.459
379.082
352.122
352.8
361.727
381.537
406.796
434.407
462.64
490.441
517.119
542.198
565.317
586.192
604.6
620.372
633.378
643.522
650.761
655.203
656.806
655.525
651.323
644.267
634.403
621.811
606.625
589.029
569.255
547.573
524.283
499.705
474.165
447.986
421.485
394.94
368.688
342.671
317.042
292.077
268.035
245.118
223.47
203.184
184.306
166.85
150.796
136.106
122.723
110.581
99.6065
89.7048
80.9098
73.1826
66.4094
60.472
55.2651
50.6983
46.6952
43.1909
40.1315
37.4722
35.1769
33.2176
31.5743
30.236
29.2012
28.482
28.0992
28.1694
28.7729
30.0589
32.3474
36.1768
42.4744
52.9688
70.6895
101.163
150.394
200.698
384.92
383.232
373.151
367.596
365.625
368.119
374.192
382.738
392.748
403.39
413.729
422.925
430.559
436.472
440.133
441.175
439.506
435.135
428.123
418.475
406.461
392.017
375.382
356.908
336.992
316.049
294.48
272.666
250.949
229.63
208.961
189.15
170.354
152.691
136.234
121.024
107.081
94.3368
83.0164
73.1275
64.5319
57.0699
50.5931
44.9707
40.0888
35.8483
32.1637
28.9607
26.1752
23.7516
21.6418
19.8047
18.2038
16.8082
15.5917
14.5321
13.6102
12.8098
12.1169
11.5199
11.0093
10.5772
10.2177
9.9266
9.70174
9.5431
9.45382
9.4384
9.52387
9.68545
9.93916
10.31
10.8955
11.9557
14.0032
18.1656
27.253
46.7348
92.7332
175.569
34.1831
43.8873
61.7325
82.0942
102.458
122.025
138.806
151.988
161.746
168.457
172.5
173.997
173.069
169.798
164.633
157.985
150.133
141.328
131.818
121.835
111.627
101.287
91.3173
81.9347
73.2417
65.2809
58.0584
51.5559
45.739
40.5635
35.9795
31.9352
28.3786
25.2597
22.531
20.1483
18.071
16.2629
14.6898
13.3219
12.1334
11.1015
10.2064
9.43026
8.75779
8.17544
7.67142
7.23551
6.85881
6.53363
6.25331
6.01206
5.80492
5.62762
5.47653
5.34856
5.24109
5.15192
5.07921
5.02149
4.97758
4.94659
4.92798
4.92148
4.92723
4.94588
4.9781
5.0288
5.09318
5.17295
5.27228
5.39748
5.55972
5.77341
6.09594
6.46266
7.95762
13.1447
27.5105
80.2327
23.2488
23.2675
23.2876
23.343
23.361
23.4504
23.6031
23.685
23.5588
23.2983
22.9084
22.3928
21.7608
21.0254
20.2029
19.3091
18.3558
17.3626
16.3497
15.3356
14.3367
13.3669
12.4369
11.5547
10.7263
9.95528
9.2436
8.59147
7.99789
7.46088
6.97774
6.54529
6.16002
5.8183
5.51645
5.25085
5.01804
4.81473
4.63786
4.48455
4.35215
4.2383
4.14089
4.05806
3.98815
3.92969
3.8814
3.84214
3.8109
3.78682
3.76909
3.75693
3.74982
3.7473
3.74898
3.75453
3.76366
3.77614
3.79177
3.81042
3.832
3.85648
3.88389
3.91432
3.94797