/*--------------------------------*- C++ -*----------------------------------*\
| =========                 |                                                 |
| \\      /  F ield         | OpenFOAM: The Open Source CFD Toolbox           |
|  \\    /   O peration     | Version:  v2012                                 |
|   \\  /    A nd           | Website:  www.openfoam.com                      |
|    \\/     M anipulation  |                                                 |
\*---------------------------------------------------------------------------*/
FoamFile
{
    version     2.0;
    format      ascii;
    class       volScalarField;
    location    "2000";
    object      k;
}
// * * * * * * * * * * * * * * * * * * * * * * * * * * * * * * * * * * * * * //

dimensions      [0 2 -2 0 0 0 0];


internalField   nonuniform List<scalar> 
6502
(
0.044608
0.0578746
0.0814159
0.0908859
0.0935887
0.09359
0.0908898
0.0814222
0.0578787
0.0446097
0.0246538
0.0277711
0.0547859
0.0744409
0.082502
0.0825107
0.0744621
0.054808
0.0277797
0.0246623
0.014893
0.0143084
0.0362248
0.0588804
0.0709636
0.0709852
0.0589239
0.0362593
0.0143201
0.0149114
0.00925031
0.00804911
0.0246234
0.0461549
0.0599563
0.0599944
0.046222
0.0246674
0.00806297
0.00927851
0.00643541
0.00498147
0.0174594
0.0363659
0.050145
0.0502013
0.0364566
0.017512
0.00499749
0.00647294
0.00507017
0.00338467
0.0129139
0.0289926
0.0417792
0.0418524
0.0291041
0.0129751
0.00340312
0.0051194
0.00433921
0.00249322
0.0099149
0.0234209
0.0348097
0.0349005
0.0235538
0.00998435
0.00251469
0.00440461
0.00390457
0.00195571
0.00783747
0.0191578
0.0290608
0.02917
0.0193106
0.00791688
0.00198108
0.00399134
0.00362721
0.00160638
0.00633288
0.0158332
0.0243349
0.0244622
0.0160082
0.00642367
0.00163685
0.00374261
0.00343299
0.00136307
0.00519952
0.0131932
0.0204452
0.0205907
0.0133928
0.00530331
0.00140018
0.00358699
0.00328072
0.00118309
0.00431823
0.0110596
0.0172291
0.0173959
0.0112871
0.00443681
0.00122873
0.00348579
0.00314994
0.00104334
0.00361594
0.00931223
0.0145566
0.0147458
0.00957156
0.0037517
0.00109999
0.00342253
0.00302993
0.00093071
0.00304566
0.00786525
0.0123258
0.0125336
0.00816812
0.00320304
0.00100228
0.0033932
0.00291307
0.00083767
0.00257601
0.00665579
0.0104531
0.0106759
0.00700576
0.00276687
0.000935295
0.00339734
0.00279273
0.000764294
0.00218724
0.00563758
0.00887347
0.00911048
0.00603354
0.0024195
0.000895304
0.0034398
0.00266227
0.00070008
0.00186136
0.00477485
0.00753473
0.00778675
0.00521735
0.00213889
0.000870002
0.00353159
0.00251625
0.000638576
0.00158375
0.00403925
0.00639535
0.00666345
0.00453022
0.00191141
0.000860093
0.00369384
0.00235084
0.000578477
0.0013444
0.00340854
0.00542188
0.00570677
0.00395056
0.00172913
0.000870901
0.00396625
0.0021642
0.00051931
0.00113648
0.00286552
0.00458723
0.00488851
0.00346042
0.00158723
0.000912176
0.00445583
0.00195712
0.000460744
0.000955163
0.0023969
0.00386968
0.00418535
0.0030455
0.00148053
0.000953808
0.00487248
0.00173297
0.000402501
0.00079605
0.00199016
0.00324834
0.00357602
0.00269284
0.00139387
0.0007362
0.00103222
0.00150035
0.00034555
0.000657986
0.00164125
0.00271341
0.00305049
0.0023909
0.00133052
0.000656035
0.000455925
0.00127165
0.000291324
0.000539245
0.00134452
0.0022549
0.00259649
0.00212572
0.00127711
0.000646932
0.000346716
0.00105778
0.000241357
0.000438189
0.00109458
0.00186485
0.00220442
0.00188841
0.00122416
0.000664227
0.000345766
0.000865047
0.00019673
0.000353083
0.000885865
0.00153532
0.00186624
0.00167403
0.00116666
0.000686075
0.000376094
0.000695561
0.000157847
0.000282107
0.000712859
0.00125853
0.00157513
0.00147935
0.00110299
0.000702247
0.000413771
0.000549219
0.000124601
0.000223467
0.000570383
0.00102722
0.00132506
0.00130158
0.00103316
0.000708488
0.000449302
0.00042502
9.66545e-05
0.00017546
0.000453748
0.000834745
0.00111064
0.00113934
0.000958188
0.00070333
0.000478043
0.000321551
7.35617e-05
0.000136512
0.000358794
0.000675156
0.000927128
0.000991738
0.000879244
0.000686596
0.000497341
0.000236988
5.48097e-05
0.000105205
0.000281908
0.000543274
0.000770351
0.000858148
0.000799318
0.00065973
0.000506095
0.000169337
3.98681e-05
8.02839e-05
0.000220009
0.000434669
0.000636716
0.000737919
0.000719771
0.000624651
0.000504535
0.000116578
2.82181e-05
6.06525e-05
0.000170487
0.000345595
0.000523124
0.000630281
0.000642033
0.00058318
0.000493493
7.66763e-05
1.93566e-05
4.53533e-05
0.000131133
0.000272883
0.000426911
0.000534447
0.00056739
0.000537751
0.00047452
4.76004e-05
1.27815e-05
3.35333e-05
0.000100057
0.000213837
0.000345761
0.000449588
0.000496762
0.000489953
0.000449256
2.73697e-05
7.98852e-06
2.44456e-05
7.56589e-05
0.000166164
0.000277668
0.000374889
0.000430755
0.000441329
0.000419316
1.41389e-05
4.86568e-06
1.77262e-05
5.67783e-05
0.000128017
0.000220935
0.000309589
0.000369739
0.000393125
0.000386423
6.17357e-06
2.88378e-06
1.28297e-05
4.23535e-05
9.78139e-05
0.000174096
0.00025299
0.000313919
0.000346247
0.00035181
1.96213e-06
1.69596e-06
9.28985e-06
3.14433e-05
7.41621e-05
0.000135838
0.00020444
0.000263417
0.000301377
0.000316491
3.10223e-07
1.0531e-06
6.75076e-06
2.32618e-05
5.58405e-05
0.000104963
0.000163297
0.000218286
0.000259038
0.000281248
2.52018e-07
7.63229e-07
4.94285e-06
1.71737e-05
4.17974e-05
8.03593e-05
0.000128906
0.000178513
0.000219651
0.000246687
9.82098e-07
6.74004e-07
3.65924e-06
1.26717e-05
3.11389e-05
6.10075e-05
0.000100588
0.000144008
0.000183579
0.00021333
2.00894e-06
6.88766e-07
2.74814e-06
9.3582e-06
2.31193e-05
4.59778e-05
7.76337e-05
0.000114589
0.000151117
0.000181672
3.09179e-06
7.66283e-07
2.11257e-06
6.93733e-06
1.71358e-05
3.44469e-05
5.93242e-05
8.99739e-05
0.00012248
0.000152201
3.99855e-06
8.31622e-07
1.64488e-06
5.16649e-06
1.27251e-05
2.57725e-05
4.50903e-05
6.99924e-05
9.80429e-05
0.000125693
4.5815e-06
8.67905e-07
1.29501e-06
3.85408e-06
9.44699e-06
1.92278e-05
3.40501e-05
5.38804e-05
7.73905e-05
0.000102109
5.01381e-06
8.93832e-07
1.03353e-06
2.87022e-06
7.0001e-06
1.42963e-05
2.55524e-05
4.10679e-05
6.02667e-05
8.15972e-05
5.35494e-06
9.13753e-07
8.41491e-07
2.15224e-06
5.18203e-06
1.06087e-05
1.90897e-05
3.10538e-05
4.63834e-05
6.42265e-05
5.48886e-06
9.12381e-07
6.96824e-07
1.62604e-06
3.8453e-06
7.87372e-06
1.42335e-05
2.33599e-05
3.53781e-05
4.99149e-05
5.50102e-06
8.98259e-07
5.87078e-07
1.2417e-06
2.87691e-06
5.84717e-06
1.06185e-05
1.75379e-05
2.68352e-05
3.8431e-05
5.44476e-06
8.74807e-07
5.01806e-07
9.59828e-07
2.17441e-06
4.38687e-06
7.93775e-06
1.31725e-05
2.03018e-05
2.94032e-05
5.16393e-06
8.21506e-07
4.2859e-07
7.47145e-07
1.65355e-06
3.30896e-06
5.95389e-06
9.88229e-06
1.53112e-05
2.23603e-05
4.64494e-06
7.348e-07
3.60329e-07
5.82783e-07
1.25516e-06
2.48395e-06
4.44474e-06
7.33935e-06
1.14224e-05
1.67965e-05
3.93302e-06
6.1982e-07
2.93163e-07
4.48407e-07
9.43035e-07
1.83947e-06
3.24926e-06
5.32442e-06
8.27082e-06
1.22606e-05
3.04438e-06
4.79601e-07
2.23493e-07
3.30928e-07
6.82456e-07
1.31245e-06
2.28989e-06
3.71138e-06
5.70772e-06
8.44845e-06
2.06305e-06
3.27405e-07
1.54284e-07
2.26901e-07
4.60154e-07
8.70817e-07
1.49876e-06
2.4027e-06
3.66389e-06
5.3895e-06
1.16896e-06
1.89686e-07
9.36058e-08
1.40286e-07
2.79567e-07
5.18194e-07
8.76649e-07
1.3868e-06
2.09342e-06
3.05555e-06
5.63663e-07
9.32461e-08
5.00126e-08
7.88558e-08
1.53636e-07
2.76876e-07
4.57638e-07
7.09428e-07
1.05081e-06
1.50651e-06
1.20531e-07
2.57543e-08
2.44697e-08
5.11696e-08
9.8309e-08
1.73977e-07
2.82698e-07
4.26541e-07
6.07148e-07
8.27434e-07
8.20909e-09
6.23174e-09
2.57636e-08
8.65e-08
1.57984e-07
2.92729e-07
4.91698e-07
7.45889e-07
1.0419e-06
1.3651e-06
1.20732e-09
8.61552e-09
9.48746e-08
5.05967e-07
8.47025e-07
1.67052e-06
2.8964e-06
4.46223e-06
6.27917e-06
8.24922e-06
0.000564574
0.000181473
0.000175452
0.000136801
9.77143e-05
7.11785e-05
5.29165e-05
4.12136e-05
3.30377e-05
2.69797e-05
2.21699e-05
1.80894e-05
1.44658e-05
1.11918e-05
8.26543e-06
5.73926e-06
3.67753e-06
2.12401e-06
1.07052e-06
4.52542e-07
1.32221e-07
2.07562e-08
2.73627e-09
3.79265e-09
2.19687e-09
0.000179939
5.75e-05
3.21246e-05
2.21675e-05
1.5596e-05
1.12647e-05
8.36659e-06
6.47084e-06
5.15888e-06
4.19334e-06
3.4328e-06
2.79416e-06
2.23312e-06
1.73107e-06
1.28543e-06
9.0202e-07
5.88729e-07
3.50673e-07
1.86129e-07
8.54281e-08
3.10384e-08
8.4904e-09
2.0594e-09
1.08176e-09
4.36599e-09
0.000149089
5.6831e-05
2.48136e-05
1.28443e-05
7.59799e-06
4.92933e-06
3.41825e-06
2.50677e-06
1.92059e-06
1.51709e-06
1.21866e-06
9.82238e-07
7.84501e-07
6.13815e-07
4.65457e-07
3.38461e-07
2.33405e-07
1.50812e-07
9.00185e-08
4.87671e-08
2.33696e-08
9.62954e-09
3.35706e-09
1.20913e-09
1.35612e-09
0.000166923
7.63135e-05
3.50196e-05
1.76227e-05
9.60906e-06
5.64306e-06
3.56694e-06
2.40447e-06
1.71501e-06
1.28239e-06
9.94218e-07
7.89288e-07
6.33472e-07
5.07711e-07
4.01669e-07
3.1018e-07
2.31137e-07
1.64102e-07
1.09318e-07
6.69994e-08
3.68609e-08
1.78851e-08
8.49724e-09
7.82723e-09
3.2395e-08
0.000200201
0.000104103
5.2599e-05
2.78675e-05
1.56492e-05
9.23701e-06
5.72949e-06
3.7645e-06
2.61198e-06
1.90701e-06
1.45579e-06
1.15066e-06
9.3011e-07
7.58478e-07
6.15382e-07
4.89943e-07
3.77466e-07
2.77248e-07
1.90884e-07
1.20797e-07
6.89969e-08
3.62889e-08
2.27472e-08
3.48467e-08
1.8115e-07
0.000239406
0.000136657
7.63347e-05
4.25046e-05
2.48131e-05
1.50755e-05
9.50412e-06
6.23956e-06
4.31066e-06
3.13051e-06
2.38092e-06
1.8815e-06
1.52653e-06
1.25376e-06
1.02697e-06
8.26514e-07
6.4387e-07
4.78032e-07
3.32576e-07
2.12979e-07
1.24268e-07
6.98225e-08
5.43686e-08
1.1167e-07
6.68285e-07
0.000279799
0.000172225
0.00010429
6.18761e-05
3.72793e-05
2.32454e-05
1.49459e-05
9.9158e-06
6.83447e-06
4.94457e-06
3.74795e-06
2.95731e-06
2.40272e-06
1.98147e-06
1.63323e-06
1.32467e-06
1.04098e-06
7.80154e-07
5.48386e-07
3.55653e-07
2.11617e-07
1.2341e-07
1.00823e-07
2.05492e-07
1.20733e-06
0.000317998
0.000208797
0.00013503
8.58002e-05
5.3435e-05
3.41233e-05
2.23393e-05
1.50032e-05
1.03773e-05
7.46626e-06
5.63112e-06
4.43127e-06
3.60127e-06
2.98116e-06
2.47363e-06
2.02415e-06
1.60744e-06
1.21896e-06
8.68299e-07
5.72348e-07
3.48788e-07
2.12551e-07
1.86237e-07
3.96858e-07
2.37349e-06
0.000351242
0.000244243
0.000167198
0.000112484
7.41105e-05
4.83171e-05
3.21643e-05
2.18635e-05
1.5231e-05
1.09367e-05
8.1975e-06
6.42768e-06
5.2249e-06
4.34145e-06
3.62916e-06
2.9999e-06
2.41131e-06
1.85366e-06
1.34073e-06
8.99962e-07
5.62456e-07
3.57496e-07
3.31824e-07
7.27217e-07
4.37232e-06
0.000377369
0.000276413
0.000199141
0.000140985
9.78605e-05
6.6532e-05
4.50236e-05
3.10047e-05
2.17935e-05
1.57274e-05
1.17242e-05
9.15519e-06
7.43799e-06
6.2054e-06
5.22571e-06
4.36552e-06
3.55388e-06
2.77137e-06
2.03656e-06
1.39252e-06
8.9179e-07
5.87895e-07
5.68385e-07
1.26177e-06
7.58849e-06
0.000395073
0.000303392
0.000229015
0.000169866
0.000123577
8.8099e-05
6.16229e-05
4.30555e-05
3.0607e-05
2.22576e-05
1.667e-05
1.29351e-05
1.04873e-05
8.77266e-06
7.44158e-06
6.27987e-06
5.17652e-06
4.09381e-06
3.05524e-06
2.12624e-06
1.39266e-06
9.47441e-07
9.44397e-07
2.10847e-06
1.26608e-05
0.000403868
0.000323728
0.00025502
0.000197457
0.000150024
0.000111739
8.1657e-05
5.87611e-05
4.2336e-05
3.11016e-05
2.34437e-05
1.82181e-05
1.47198e-05
1.2329e-05
1.05172e-05
8.95852e-06
7.47105e-06
5.9873e-06
4.5333e-06
3.20581e-06
2.14155e-06
1.49619e-06
1.52801e-06
3.42067e-06
2.04925e-05
0.000403996
0.000336542
0.000275603
0.000222008
0.00017564
0.000136304
0.000103808
7.78113e-05
5.77494e-05
4.29552e-05
3.26966e-05
2.55914e-05
2.06179e-05
1.72631e-05
1.47822e-05
1.26885e-05
1.06936e-05
8.67544e-06
6.65559e-06
4.7726e-06
3.23977e-06
2.3117e-06
2.40792e-06
5.40151e-06
3.22792e-05
0.000396334
0.000341698
0.000289727
0.000241942
0.000198711
0.000160275
0.000126941
9.89358e-05
7.62394e-05
5.8528e-05
4.51067e-05
3.56458e-05
2.8924e-05
2.41039e-05
2.06621e-05
1.78399e-05
1.51756e-05
1.24519e-05
9.66842e-06
7.0151e-06
4.81822e-06
3.48798e-06
3.68954e-06
8.3003e-06
4.94986e-05
0.000382061
0.000339663
0.000296993
0.000256114
0.000217641
0.000181943
0.000149526
0.000120958
9.66611e-05
7.67613e-05
6.10392e-05
4.90419e-05
4.00696e-05
3.34652e-05
2.86722e-05
2.4862e-05
2.1324e-05
1.76873e-05
1.38917e-05
1.0182e-05
7.04421e-06
5.13196e-06
5.48355e-06
1.23938e-05
7.38117e-05
0.000362683
0.00033139
0.000297684
0.000264019
0.000231243
0.000199698
0.000169836
0.000142298
0.000117748
9.66702e-05
7.92485e-05
6.53495e-05
5.45466e-05
4.61502e-05
3.94067e-05
3.42574e-05
2.95937e-05
2.48157e-05
1.97212e-05
1.4596e-05
1.01329e-05
7.35945e-06
7.88405e-06
1.79541e-05
0.000106961
0.000339581
0.000318119
0.00029261
0.000265861
0.000238987
0.000212362
0.000186271
0.000161209
0.000137843
0.000116832
9.86521e-05
8.34931e-05
7.12328e-05
6.14343e-05
5.33388e-05
4.64864e-05
4.0395e-05
3.42807e-05
2.76034e-05
2.06591e-05
1.43666e-05
1.02954e-05
1.09239e-05
2.51451e-05
0.000150418
0.000313971
0.000301113
0.000282889
0.000262391
0.000241076
0.00021945
0.000197712
0.000176131
0.000155194
0.000135521
0.000117708
0.000102177
8.90922e-05
7.83108e-05
6.92999e-05
6.11332e-05
5.38638e-05
4.64201e-05
3.79556e-05
2.88552e-05
2.01269e-05
1.40901e-05
1.44997e-05
3.36976e-05
0.000203335
0.000286813
0.000281476
0.000269691
0.000254685
0.000238274
0.000221227
0.000203784
0.000186071
0.00016834
0.000151027
0.000134668
0.000119765
0.000106676
9.55209e-05
8.6056e-05
7.76171e-05
6.91673e-05
6.06117e-05
5.08897e-05
3.96662e-05
2.79058e-05
1.89851e-05
1.83828e-05
4.27099e-05
0.000260853
0.000258813
0.000260052
0.000254034
0.000243874
0.000231671
0.000218529
0.000204879
0.000190839
0.000176498
0.000162085
0.000147969
0.000134589
0.000122356
0.000111542
0.000102138
9.37277e-05
8.53123e-05
7.61231e-05
6.54899e-05
5.26093e-05
3.81307e-05
2.54669e-05
2.23446e-05
5.07554e-05
0.000315299
0.000230504
0.000237421
0.000236652
0.000230908
0.000222384
0.000212491
0.000201947
0.000191011
0.000179752
0.000168256
0.000156715
0.000145422
0.000134722
0.000124918
0.000116153
0.000108268
0.000100615
9.18285e-05
8.10762e-05
6.7318e-05
5.05283e-05
3.38327e-05
2.63196e-05
5.51408e-05
0.000353341
0.000202352
0.000213983
0.000217989
0.000216414
0.000211297
0.000204219
0.000196179
0.000187677
0.000178893
0.000169903
0.000160792
0.000151707
0.000142869
0.000134523
0.000126857
0.000119882
0.000113259
0.000106043
9.63574e-05
8.30017e-05
6.51017e-05
4.46489e-05
3.0428e-05
5.06622e-05
0.000325265
0.000174843
0.000190091
0.000198307
0.00020071
0.000198937
0.000194525
0.000188653
0.000182057
0.000175136
0.000168051
0.000160886
0.00015372
0.000146666
0.00013988
0.000133515
0.000127652
0.000122162
0.000116492
0.000109315
9.81989e-05
8.14449e-05
5.92793e-05
3.73791e-05
3.5896e-05
0.000180531
0.000148846
0.000166473
0.000178112
0.000184162
0.000185691
0.000183979
0.000180234
0.000175354
0.000169813
0.000164059
0.000158252
0.000152474
0.000146799
0.000141319
0.000136133
0.000131317
0.000126852
0.00012247
0.000117404
0.000110052
9.78789e-05
7.91542e-05
5.62499e-05
3.86113e-05
5.49028e-05
0.000124521
0.000143279
0.000157405
0.000166606
0.000171327
0.000172435
0.000170935
0.000167776
0.000163605
0.000158966
0.000154102
0.000149253
0.000144507
0.000139936
0.000135609
0.000131582
0.000127874
0.000124378
0.000120722
0.000116046
0.000108827
9.71932e-05
7.99509e-05
5.98285e-05
4.51165e-05
0.000102303
0.000121024
0.000136581
0.000148206
0.000155789
0.000159722
0.000160686
0.000159489
0.000156835
0.000153326
0.000149397
0.000145209
0.000141015
0.000136977
0.00013315
0.000129579
0.000126291
0.000123257
0.000120319
0.000117076
0.000112747
0.000106148
9.60414e-05
8.22128e-05
6.66192e-05
8.25922e-05
0.000100303
0.000116229
0.000129373
0.000139228
0.00014575
0.000149248
0.000150261
0.000149398
0.000147226
0.00014426
0.000140823
0.000137248
0.000133589
0.00012997
0.000126573
0.000123419
0.000120509
0.000117783
0.000115077
0.000112041
0.00010809
0.000102466
9.45658e-05
8.45353e-05
6.56428e-05
8.1654e-05
9.70183e-05
0.000110723
0.000122053
0.000130647
0.000136471
0.000139762
0.000140924
0.000140419
0.000138723
0.000136233
0.000133282
0.000130078
0.000126818
0.000123609
0.000120422
0.000117425
0.000114622
0.000111953
0.000109279
0.000106346
0.0001028
9.82638e-05
9.2554e-05
5.15109e-05
6.54431e-05
7.95595e-05
9.29632e-05
0.000104892
0.000114823
0.000122485
0.000127846
0.000131075
0.000132461
0.000132366
0.00013115
0.000129142
0.000126609
0.000123729
0.000120719
0.000117715
0.000114786
0.0001119
0.000109085
0.000106357
0.000103629
0.000100761
9.75867e-05
9.39747e-05
4.00191e-05
5.17506e-05
6.41894e-05
7.66303e-05
8.83783e-05
9.8866e-05
0.000107703
0.000114676
0.000119745
0.000123014
0.00012469
0.000125034
0.000124321
0.000122813
0.000120726
0.000118246
0.000115534
0.00011263
0.000109748
0.000106971
0.000104223
0.000101484
9.87281e-05
9.59174e-05
9.30252e-05
3.07988e-05
4.03957e-05
5.09592e-05
6.19942e-05
7.29459e-05
8.32923e-05
9.26107e-05
0.000100591
0.000107052
0.000111944
0.00011532
0.000117318
0.00011812
0.000117931
0.00011695
0.000115356
0.000113314
0.000110942
0.000108357
0.000105655
0.000102848
0.000100048
9.73378e-05
9.46549e-05
9.19745e-05
2.33628e-05
3.09982e-05
3.96634e-05
4.90539e-05
5.87777e-05
6.84143e-05
7.75702e-05
8.59108e-05
9.31848e-05
9.92359e-05
0.000104001
0.000107498
0.000109807
0.00011105
0.000111372
0.000110921
0.000109843
0.000108271
0.000106314
0.000104071
0.000101621
9.90377e-05
9.63856e-05
9.36843e-05
9.09576e-05
1.72223e-05
2.30969e-05
2.99389e-05
3.75889e-05
4.58022e-05
5.42788e-05
6.27002e-05
7.07616e-05
7.81981e-05
8.48035e-05
9.04392e-05
9.50341e-05
9.85773e-05
0.000101107
0.000102696
0.000103442
0.000103453
0.000102838
0.000101701
0.00010014
9.82419e-05
9.6083e-05
9.37255e-05
9.12271e-05
8.8648e-05
1.20231e-05
1.63101e-05
2.14259e-05
2.73042e-05
3.38151e-05
4.07721e-05
4.79497e-05
5.51072e-05
6.20106e-05
6.84525e-05
7.42644e-05
7.93238e-05
8.35561e-05
8.69309e-05
8.94559e-05
9.11685e-05
9.21278e-05
9.24067e-05
9.20851e-05
9.1244e-05
8.99633e-05
8.83174e-05
8.63734e-05
8.41964e-05
8.18588e-05
7.66452e-06
1.04976e-05
1.40129e-05
1.81449e-05
2.28458e-05
2.80204e-05
3.35291e-05
3.9209e-05
4.48855e-05
5.03881e-05
5.55607e-05
6.02711e-05
6.4417e-05
6.79289e-05
7.07681e-05
7.29239e-05
7.44097e-05
7.52582e-05
7.55173e-05
7.52439e-05
7.45005e-05
7.33512e-05
7.18597e-05
7.00896e-05
6.81124e-05
4.32254e-06
5.94468e-06
7.98577e-06
1.04604e-05
1.33958e-05
1.672e-05
2.03411e-05
2.41754e-05
2.81144e-05
3.20478e-05
3.58629e-05
3.9453e-05
4.27256e-05
4.56075e-05
4.80451e-05
5.00019e-05
5.14617e-05
5.24287e-05
5.29235e-05
5.29795e-05
5.26391e-05
5.19498e-05
5.09623e-05
4.97302e-05
4.83138e-05
2.09686e-06
2.84364e-06
3.80683e-06
4.98944e-06
6.40335e-06
8.04127e-06
9.89454e-06
1.19101e-05
1.40156e-05
1.61742e-05
1.83303e-05
2.04237e-05
2.2399e-05
2.42098e-05
2.58186e-05
2.71838e-05
2.82815e-05
2.91049e-05
2.96601e-05
2.99623e-05
3.00331e-05
2.98984e-05
2.95872e-05
2.91314e-05
2.85681e-05
1.08652e-06
1.38442e-06
1.73311e-06
2.13653e-06
2.5881e-06
3.0898e-06
3.64834e-06
4.25721e-06
4.90916e-06
5.61582e-06
6.37038e-06
7.1719e-06
8.01861e-06
8.91265e-06
9.86065e-06
1.08247e-05
1.1793e-05
1.27609e-05
1.37228e-05
1.46706e-05
1.55946e-05
1.64838e-05
1.73275e-05
1.81181e-05
1.88568e-05
1.69213e-06
2.00401e-06
2.27491e-06
2.4471e-06
2.4722e-06
2.3647e-06
2.17534e-06
1.91461e-06
1.59954e-06
1.34296e-06
1.21288e-06
1.31454e-06
1.7459e-06
2.59476e-06
3.96384e-06
5.83328e-06
8.22175e-06
1.11126e-05
1.44496e-05
1.81454e-05
2.20931e-05
2.61734e-05
3.02627e-05
3.42412e-05
3.79984e-05
1.022e-05
1.20961e-05
1.37166e-05
1.46452e-05
1.43739e-05
1.30324e-05
1.11167e-05
8.63473e-06
5.70582e-06
2.92459e-06
8.82205e-07
4.21902e-07
2.31903e-06
7.1718e-06
1.54912e-05
2.75562e-05
4.35005e-05
6.31382e-05
8.59948e-05
0.00011137
0.000138437
0.000166288
0.000194003
0.000220711
0.000245633
0.000258043
0.000279193
0.000250152
4.94299e-05
4.88237e-05
4.25706e-05
5.42149e-05
4.44679e-05
3.66251e-05
7.44305e-05
6.47858e-05
5.61241e-05
8.64197e-05
7.989e-05
7.32688e-05
9.02427e-05
8.61916e-05
8.18566e-05
9.02693e-05
8.74082e-05
8.43892e-05
8.9525e-05
8.70711e-05
8.45464e-05
8.84959e-05
8.60959e-05
8.37034e-05
8.62586e-05
8.38761e-05
8.14586e-05
7.96232e-05
7.73418e-05
7.49783e-05
6.61646e-05
6.4142e-05
6.20174e-05
4.68903e-05
4.54009e-05
4.3827e-05
2.79779e-05
2.73444e-05
2.66561e-05
1.9488e-05
2.00303e-05
2.04848e-05
4.12116e-05
4.3987e-05
4.64182e-05
0.000266784
0.000284502
0.000299831
6.53774e-11
1.42068e-10
1.25156e-10
8.49327e-11
8.79835e-10
3.84475e-09
1.04746e-08
2.20387e-08
3.9377e-08
6.26504e-08
9.12288e-08
1.23223e-07
1.56187e-07
1.94189e-07
2.77911e-07
6.32852e-07
1.68491e-06
5.07845e-07
5.33129e-07
6.55338e-07
7.85277e-07
9.10952e-07
1.03461e-06
1.15869e-06
1.28479e-06
1.41383e-06
1.5463e-06
1.68245e-06
1.8224e-06
1.96624e-06
2.11401e-06
2.26584e-06
2.42189e-06
2.58237e-06
2.7476e-06
2.91797e-06
3.09392e-06
3.27595e-06
3.46457e-06
3.66036e-06
3.86407e-06
4.07662e-06
4.29907e-06
4.53249e-06
4.77797e-06
5.03649e-06
5.30882e-06
5.59523e-06
5.89522e-06
6.20733e-06
6.52896e-06
6.85623e-06
7.18389e-06
7.5054e-06
7.81275e-06
8.09588e-06
8.34233e-06
8.53756e-06
8.66375e-06
8.71031e-06
8.66398e-06
8.50413e-06
8.21903e-06
7.80291e-06
7.25641e-06
6.58648e-06
5.81128e-06
4.95961e-06
4.06951e-06
3.1859e-06
2.35608e-06
1.62395e-06
1.02409e-06
5.78639e-07
2.78708e-07
1.0299e-07
2.54816e-08
2.7399e-09
7.46742e-10
5.34148e-10
1.68067e-10
3.4272e-11
3.00017e-11
6.1008e-11
2.45431e-10
7.76801e-10
1.87358e-09
3.72362e-09
6.44941e-09
1.00751e-08
1.45162e-08
1.96101e-08
2.55043e-08
3.43808e-08
5.56678e-08
1.06563e-07
1.92009e-07
9.88217e-08
9.00781e-08
1.04347e-07
1.23228e-07
1.4252e-07
1.61754e-07
1.81106e-07
2.00777e-07
2.20905e-07
2.41564e-07
2.62797e-07
2.84623e-07
3.07055e-07
3.30107e-07
3.53795e-07
3.78146e-07
4.03195e-07
4.28993e-07
4.55599e-07
4.83084e-07
5.11523e-07
5.41e-07
5.71611e-07
6.03475e-07
6.36735e-07
6.71552e-07
7.08094e-07
7.46522e-07
7.86982e-07
8.29576e-07
8.74326e-07
9.21132e-07
9.69742e-07
1.01973e-06
1.07045e-06
1.12109e-06
1.17057e-06
1.2176e-06
1.26057e-06
1.29752e-06
1.3262e-06
1.34411e-06
1.34932e-06
1.34006e-06
1.31341e-06
1.26759e-06
1.20183e-06
1.11637e-06
1.01254e-06
8.93229e-07
7.62883e-07
6.27258e-07
4.93038e-07
3.67162e-07
2.56021e-07
1.64605e-07
9.57844e-08
4.86547e-08
2.02509e-08
6.48281e-09
1.48482e-09
3.96352e-10
6.62897e-10
6.07778e-11
2.46009e-11
3.75396e-11
8.30664e-11
1.98124e-10
4.40159e-10
8.74238e-10
1.55344e-09
2.51635e-09
3.78223e-09
5.36342e-09
7.31891e-09
9.92313e-09
1.40679e-08
2.17064e-08
3.23734e-08
4.44784e-08
3.51313e-08
3.32581e-08
3.66731e-08
4.21374e-08
4.82278e-08
5.45185e-08
6.09308e-08
6.74782e-08
7.4187e-08
8.10772e-08
8.8161e-08
9.54456e-08
1.02936e-07
1.10636e-07
1.18554e-07
1.26697e-07
1.3508e-07
1.43718e-07
1.52632e-07
1.61844e-07
1.71382e-07
1.81275e-07
1.91556e-07
2.02266e-07
2.13454e-07
2.25169e-07
2.37463e-07
2.50384e-07
2.63971e-07
2.78244e-07
2.93191e-07
3.08761e-07
3.2485e-07
3.41294e-07
3.57863e-07
3.74258e-07
3.90105e-07
4.04949e-07
4.18242e-07
4.29344e-07
4.37557e-07
4.42173e-07
4.42629e-07
4.3833e-07
4.28482e-07
4.12603e-07
3.90528e-07
3.62422e-07
3.28815e-07
2.90674e-07
2.49395e-07
2.06726e-07
1.64627e-07
1.25075e-07
8.98709e-08
6.04165e-08
3.74963e-08
2.10468e-08
1.03991e-08
4.52382e-09
1.95565e-09
1.55995e-09
5.06152e-09
5.00935e-10
1.34776e-10
1.09958e-10
1.60965e-10
2.86059e-10
5.07821e-10
8.52443e-10
1.34281e-09
1.99856e-09
2.83839e-09
3.88967e-09
5.21161e-09
6.93791e-09
9.32506e-09
1.26706e-08
1.62366e-08
1.94519e-08
1.95476e-08
2.03301e-08
2.23595e-08
2.51882e-08
2.84211e-08
3.18619e-08
3.54373e-08
3.91276e-08
4.29319e-08
4.68535e-08
5.08955e-08
5.506e-08
5.93488e-08
6.37637e-08
6.83079e-08
7.29858e-08
7.78036e-08
8.27697e-08
8.78947e-08
9.31911e-08
9.86733e-08
1.04358e-07
1.10264e-07
1.16414e-07
1.22832e-07
1.29544e-07
1.36574e-07
1.43944e-07
1.51668e-07
1.5975e-07
1.68175e-07
1.76907e-07
1.85883e-07
1.95007e-07
2.0415e-07
2.13149e-07
2.21803e-07
2.29874e-07
2.37085e-07
2.4313e-07
2.47693e-07
2.50476e-07
2.5121e-07
2.49442e-07
2.44806e-07
2.37051e-07
2.26057e-07
2.11854e-07
1.94649e-07
1.74854e-07
1.531e-07
1.30215e-07
1.07137e-07
8.48029e-08
6.41372e-08
4.59657e-08
3.09072e-08
1.92905e-08
1.1172e-08
6.41571e-09
4.95088e-09
8.76868e-09
4.64927e-08
4.10271e-09
7.57351e-10
3.68462e-10
3.57307e-10
5.14008e-10
8.17456e-10
1.27304e-09
1.88943e-09
2.67587e-09
3.64393e-09
4.81138e-09
6.20776e-09
7.87806e-09
9.87368e-09
1.22014e-08
1.45827e-08
1.68346e-08
1.86331e-08
2.0585e-08
2.29455e-08
2.56844e-08
2.87041e-08
3.19302e-08
3.53219e-08
3.8861e-08
4.254e-08
4.63561e-08
5.03076e-08
5.4393e-08
5.86111e-08
6.29613e-08
6.74438e-08
7.20598e-08
7.68126e-08
8.17071e-08
8.67505e-08
9.19525e-08
9.73248e-08
1.02882e-07
1.08639e-07
1.14614e-07
1.20828e-07
1.27302e-07
1.34058e-07
1.41114e-07
1.48485e-07
1.56178e-07
1.64189e-07
1.72498e-07
1.81063e-07
1.8982e-07
1.98679e-07
2.07523e-07
2.16209e-07
2.24568e-07
2.32411e-07
2.39528e-07
2.45702e-07
2.50725e-07
2.54106e-07
2.5537e-07
2.54118e-07
2.50004e-07
2.42733e-07
2.32105e-07
2.18066e-07
2.00746e-07
1.80504e-07
1.57939e-07
1.33873e-07
1.0931e-07
8.5392e-08
6.33081e-08
4.4165e-08
2.88623e-08
1.80351e-08
1.21934e-08
1.27084e-08
2.86753e-08
1.67861e-07
1.47842e-08
2.491e-09
9.97815e-10
7.58716e-10
9.33164e-10
1.38859e-09
2.09966e-09
3.06007e-09
4.26707e-09
5.72012e-09
7.42215e-09
9.37991e-09
1.16014e-08
1.40874e-08
1.68162e-08
1.96997e-08
2.26847e-08
2.57474e-08
2.90167e-08
3.25801e-08
3.6452e-08
4.06107e-08
4.50299e-08
4.96896e-08
5.4577e-08
5.96839e-08
6.5004e-08
7.05319e-08
7.62625e-08
8.21908e-08
8.83123e-08
9.46233e-08
1.01122e-07
1.07807e-07
1.14683e-07
1.21754e-07
1.29029e-07
1.36522e-07
1.44249e-07
1.52229e-07
1.60483e-07
1.69034e-07
1.77911e-07
1.87143e-07
1.96762e-07
2.06795e-07
2.17267e-07
2.28197e-07
2.39587e-07
2.51417e-07
2.63639e-07
2.76179e-07
2.88936e-07
3.01768e-07
3.14508e-07
3.26964e-07
3.38917e-07
3.50113e-07
3.60125e-07
3.68115e-07
3.7339e-07
3.75297e-07
3.73193e-07
3.66446e-07
3.54524e-07
3.37075e-07
3.14021e-07
2.85648e-07
2.52674e-07
2.1628e-07
1.78093e-07
1.40096e-07
1.04457e-07
7.32848e-08
4.83861e-08
3.11477e-08
2.29215e-08
2.75741e-08
6.86408e-08
4.16033e-07
3.73138e-08
6.0627e-09
2.22407e-09
1.47202e-09
1.61297e-09
2.27814e-09
3.38464e-09
4.90495e-09
6.82112e-09
9.11715e-09
1.17797e-08
1.47988e-08
1.81667e-08
2.18744e-08
2.59082e-08
3.02437e-08
3.48717e-08
3.98035e-08
4.50813e-08
5.07409e-08
5.67965e-08
6.32466e-08
7.00829e-08
7.72957e-08
8.48759e-08
9.28147e-08
1.01103e-07
1.09731e-07
1.1869e-07
1.27967e-07
1.37555e-07
1.47442e-07
1.57623e-07
1.68091e-07
1.78845e-07
1.8989e-07
2.01234e-07
2.12893e-07
2.2489e-07
2.3725e-07
2.50001e-07
2.63174e-07
2.7681e-07
2.90958e-07
3.05667e-07
3.20988e-07
3.36974e-07
3.53679e-07
3.71138e-07
3.89354e-07
4.08291e-07
4.27872e-07
4.47981e-07
4.68441e-07
4.89027e-07
5.09478e-07
5.2949e-07
5.4868e-07
5.65972e-07
5.80294e-07
5.90574e-07
5.95724e-07
5.94622e-07
5.86157e-07
5.69343e-07
5.43461e-07
5.08217e-07
4.63912e-07
4.11585e-07
3.53107e-07
2.91173e-07
2.29153e-07
1.70792e-07
1.19773e-07
7.92749e-08
5.17942e-08
3.99997e-08
5.20395e-08
1.3681e-07
8.48631e-07
7.66433e-08
1.22277e-08
4.28993e-09
2.62186e-09
2.63932e-09
3.56289e-09
5.2115e-09
7.52685e-09
1.04723e-08
1.40133e-08
1.81177e-08
2.2759e-08
2.79178e-08
3.35815e-08
3.97428e-08
4.63995e-08
5.35588e-08
6.12386e-08
6.94649e-08
7.82614e-08
8.76432e-08
9.76168e-08
1.08182e-07
1.19336e-07
1.3107e-07
1.43375e-07
1.56238e-07
1.69646e-07
1.83582e-07
1.98027e-07
2.12965e-07
2.28376e-07
2.44246e-07
2.60562e-07
2.77316e-07
2.94506e-07
3.12139e-07
3.30236e-07
3.48827e-07
3.67941e-07
3.87614e-07
4.07886e-07
4.28816e-07
4.50477e-07
4.72938e-07
4.96275e-07
5.20573e-07
5.45934e-07
5.72439e-07
6.00115e-07
6.28923e-07
6.58764e-07
6.89475e-07
7.20819e-07
7.52474e-07
7.84051e-07
8.15052e-07
8.44813e-07
8.71517e-07
8.93769e-07
9.10035e-07
9.1866e-07
9.17906e-07
9.06035e-07
8.81461e-07
8.42964e-07
7.89936e-07
7.22655e-07
6.42548e-07
5.52375e-07
4.56262e-07
3.59507e-07
2.68112e-07
1.88074e-07
1.24651e-07
8.20469e-08
6.48837e-08
8.72931e-08
2.33184e-07
1.45011e-06
1.36997e-07
2.16732e-08
7.44868e-09
4.34843e-09
4.11484e-09
5.33604e-09
7.68321e-09
1.10548e-08
1.53906e-08
2.06332e-08
2.67277e-08
3.36271e-08
4.12978e-08
4.97204e-08
5.88891e-08
6.88101e-08
7.94998e-08
9.09824e-08
1.03286e-07
1.16436e-07
1.30454e-07
1.45354e-07
1.61143e-07
1.77821e-07
1.95384e-07
2.13821e-07
2.33116e-07
2.53249e-07
2.74196e-07
2.95929e-07
3.18419e-07
3.41637e-07
3.65555e-07
3.90149e-07
4.15398e-07
4.41289e-07
4.67817e-07
4.95013e-07
5.22912e-07
5.51538e-07
5.80927e-07
6.11132e-07
6.42228e-07
6.74305e-07
7.07456e-07
7.41782e-07
7.77399e-07
8.1445e-07
8.53053e-07
8.93252e-07
9.35008e-07
9.78191e-07
1.02258e-06
1.06786e-06
1.11359e-06
1.15921e-06
1.20401e-06
1.24642e-06
1.28437e-06
1.31606e-06
1.33938e-06
1.35205e-06
1.35158e-06
1.33547e-06
1.30134e-06
1.24725e-06
1.17203e-06
1.07571e-06
9.5996e-07
8.28425e-07
6.86895e-07
5.43123e-07
4.06194e-07
2.85476e-07
1.8942e-07
1.24998e-07
9.99333e-08
1.37213e-07
3.71886e-07
2.32598e-06
2.23145e-07
3.53702e-08
1.21139e-08
6.87159e-09
6.17482e-09
7.707e-09
1.09192e-08
1.56411e-08
2.17774e-08
2.9241e-08
3.79477e-08
4.78254e-08
5.88209e-08
7.09039e-08
8.40658e-08
9.83166e-08
1.13681e-07
1.30191e-07
1.47886e-07
1.668e-07
1.86967e-07
2.0841e-07
2.31145e-07
2.55179e-07
2.80512e-07
3.07133e-07
3.35025e-07
3.6416e-07
3.94505e-07
4.26022e-07
4.58666e-07
4.92393e-07
5.27156e-07
5.62912e-07
5.99622e-07
6.37255e-07
6.75787e-07
7.15237e-07
7.55639e-07
7.97008e-07
8.3937e-07
8.82779e-07
9.27314e-07
9.73071e-07
1.02016e-06
1.06871e-06
1.11887e-06
1.17079e-06
1.2246e-06
1.28036e-06
1.33802e-06
1.39744e-06
1.45833e-06
1.52028e-06
1.58272e-06
1.64488e-06
1.70576e-06
1.76255e-06
1.81335e-06
1.85589e-06
1.88755e-06
1.90533e-06
1.90596e-06
1.886e-06
1.84207e-06
1.77118e-06
1.67119e-06
1.5414e-06
1.38326e-06
1.20098e-06
1.002e-06
7.96975e-07
5.99054e-07
4.22432e-07
2.80478e-07
1.84616e-07
1.47334e-07
2.03731e-07
5.57203e-07
3.49865e-06
3.57403e-07
5.6792e-08
1.92359e-08
1.05018e-08
8.94789e-09
1.07766e-08
1.50503e-08
2.14709e-08
2.98853e-08
4.01662e-08
5.21947e-08
6.58678e-08
8.11091e-08
9.78734e-08
1.16147e-07
1.35941e-07
1.57291e-07
1.80241e-07
2.04845e-07
2.31154e-07
2.59216e-07
2.8907e-07
3.20746e-07