/*--------------------------------*- C++ -*----------------------------------*\
| =========                 |                                                 |
| \\      /  F ield         | OpenFOAM: The Open Source CFD Toolbox           |
|  \\    /   O peration     | Version:  v2012                                 |
|   \\  /    A nd           | Website:  www.openfoam.com                      |
|    \\/     M anipulation  |                                                 |
\*---------------------------------------------------------------------------*/
FoamFile
{
    version     2.0;
    format      ascii;
    class       volScalarField;
    location    "2000";
    object      nut;
}
// * * * * * * * * * * * * * * * * * * * * * * * * * * * * * * * * * * * * * //

dimensions      [0 2 -1 0 0 0 0];


internalField   nonuniform List<scalar> 
6502
(
1.38226e-05
0.000121603
0.000724213
0.00172138
0.00220363
0.00220388
0.00172196
0.000724527
0.000121629
1.38231e-05
7.64087e-06
4.28923e-05
0.000284841
0.00097853
0.00171626
0.00171722
0.000979742
0.000285171
4.29177e-05
7.64351e-06
4.61617e-06
2.13844e-05
0.000157106
0.000614397
0.00127794
0.00127953
0.000615784
0.000157419
2.14104e-05
4.62187e-06
2.86734e-06
1.23844e-05
0.000102051
0.000427738
0.000961748
0.000963783
0.000429282
0.000102376
1.24127e-05
2.87608e-06
1.99485e-06
7.9811e-06
7.3112e-05
0.000320017
0.000742755
0.00074515
0.000321762
7.34716e-05
8.01292e-06
2.00649e-06
1.57168e-06
5.61833e-06
5.57422e-05
0.000251569
0.00058914
0.000591787
0.00025352
5.61554e-05
5.65529e-06
1.58694e-06
1.3451e-06
4.24342e-06
4.42652e-05
0.000204505
0.000477859
0.000480799
0.000206712
4.47413e-05
4.28674e-06
1.36537e-06
1.21037e-06
3.38365e-06
3.60946e-05
0.000169922
0.000394202
0.000397516
0.000172452
3.66464e-05
3.43496e-06
1.23727e-06
1.1244e-06
2.80729e-06
2.99047e-05
0.000142996
0.000329288
0.000333008
0.000145928
3.05492e-05
2.86908e-06
1.16017e-06
1.06419e-06
2.39579e-06
2.50119e-05
0.000121213
0.000277544
0.000281711
0.000124603
2.57624e-05
2.47104e-06
1.11193e-06
1.01699e-06
2.08607e-06
2.10434e-05
0.000103135
0.000235382
0.000240067
0.00010705
2.19126e-05
2.17841e-06
1.08056e-06
9.76452e-07
1.84279e-06
1.77727e-05
8.78887e-05
0.00020043
0.000205719
9.24205e-05
1.8779e-05
1.95717e-06
1.06095e-06
9.39252e-07
1.6451e-06
1.50473e-05
7.48962e-05
0.000171053
0.000176873
8.02546e-05
1.62249e-05
1.78985e-06
1.05186e-06
9.03027e-07
1.48172e-06
1.27629e-05
6.37493e-05
0.000146066
0.000152325
6.99544e-05
1.41961e-05
1.69009e-06
1.05314e-06
8.65723e-07
1.37504e-06
1.08945e-05
5.41929e-05
0.000124645
0.00013133
6.1158e-05
1.25993e-05
1.65332e-06
1.0663e-06
8.25283e-07
1.2757e-06
9.31116e-06
4.595e-05
0.000106167
0.000113295
5.36397e-05
1.12818e-05
1.62137e-06
1.09476e-06
7.80018e-07
1.16746e-06
7.92312e-06
3.87777e-05
9.01379e-05
9.77371e-05
4.72195e-05
1.01964e-05
1.61048e-06
1.14505e-06
7.28745e-07
1.05675e-06
6.69825e-06
3.25094e-05
7.61722e-05
8.4263e-05
4.17588e-05
9.33098e-06
1.63749e-06
1.22949e-06
6.70888e-07
9.46364e-07
5.62079e-06
2.70365e-05
6.39789e-05
7.25487e-05
3.7146e-05
8.68871e-06
1.72538e-06
1.38125e-06
6.06696e-07
8.37091e-07
4.67902e-06
2.22853e-05
5.33471e-05
6.23525e-05
3.33611e-05
8.32744e-06
1.84427e-06
1.5104e-06
5.37213e-07
7.29073e-07
3.8585e-06
1.81818e-05
4.40916e-05
5.35253e-05
3.0745e-05
8.87982e-06
2.12077e-06
1.17162e-06
4.65102e-07
6.24415e-07
3.15747e-06
1.47211e-05
3.61951e-05
4.59473e-05
2.89278e-05
9.95425e-06
2.78004e-06
1.19941e-06
3.94207e-07
5.25692e-07
2.56672e-06
1.18542e-05
2.95605e-05
3.94045e-05
2.7471e-05
1.12633e-05
3.79387e-06
1.58532e-06
3.27908e-07
4.35419e-07
2.07418e-06
9.51055e-06
2.40559e-05
3.37189e-05
2.60886e-05
1.26021e-05
5.08604e-06
2.32041e-06
2.68162e-07
3.55102e-07
1.66622e-06
7.60921e-06
1.95263e-05
2.87562e-05
2.46228e-05
1.38046e-05
6.53867e-06
3.33844e-06
2.15622e-07
2.85171e-07
1.32992e-06
6.07262e-06
1.58173e-05
2.44208e-05
2.30065e-05
1.47507e-05
8.02688e-06
4.54875e-06
1.70257e-07
2.25382e-07
1.05423e-06
4.83363e-06
1.27893e-05
2.0642e-05
2.1231e-05
1.53526e-05
9.43929e-06
5.86404e-06
1.31756e-07
1.75089e-07
8.29538e-07
3.83613e-06
1.03215e-05
1.73618e-05
1.93315e-05
1.55653e-05
1.06366e-05
7.183e-06
9.96805e-08
1.33473e-07
6.47563e-07
3.03406e-06
8.31161e-06
1.4528e-05
1.7364e-05
1.5381e-05
1.15405e-05
8.38048e-06
7.3466e-08
9.96223e-08
5.01226e-07
2.39019e-06
6.67569e-06
1.20931e-05
1.5392e-05
1.4842e-05
1.2109e-05
9.38421e-06
5.24945e-08
7.25965e-08
3.84501e-07
1.8746e-06
5.34556e-06
1.00135e-05
1.34752e-05
1.40068e-05
1.23288e-05
1.01441e-05
3.61392e-08
5.14765e-08
2.9223e-07
1.46309e-06
4.26587e-06
8.24851e-06
1.16624e-05
1.29512e-05
1.22101e-05
1.06272e-05
2.37696e-08
3.536e-08
2.19909e-07
1.1357e-06
3.39113e-06
6.75974e-06
9.98844e-06
1.17558e-05
1.1794e-05
1.08235e-05
1.47561e-08
2.32871e-08
1.63299e-07
8.75229e-07
2.68293e-06
5.51055e-06
8.47389e-06
1.04963e-05
1.11347e-05
1.07412e-05
8.48459e-09
1.41359e-08
1.18303e-07
6.66954e-07
2.10916e-06
4.46687e-06
7.12679e-06
9.23653e-06
1.0299e-05
1.04071e-05
4.38304e-09
8.60211e-09
8.60927e-08
5.0632e-07
1.65008e-06
3.60188e-06
5.9475e-06
8.02594e-06
9.35559e-06
9.86768e-06
1.91381e-09
5.10828e-09
6.27909e-08
3.83605e-07
1.28631e-06
2.89133e-06
4.93019e-06
6.89948e-06
8.36722e-06
9.17696e-06
6.0826e-10
3.01033e-09
4.58658e-08
2.9004e-07
9.99697e-07
2.31204e-06
4.06386e-06
5.87833e-06
7.38575e-06
8.39214e-06
9.61693e-11
1.87279e-09
3.3629e-08
2.18886e-07
7.74768e-07
1.84261e-06
3.33399e-06
4.97183e-06
6.44937e-06
7.56589e-06
7.81257e-11
1.36014e-09
2.48483e-08
1.65017e-07
5.98942e-07
1.46409e-06
2.7244e-06
4.18031e-06
5.58278e-06
6.7414e-06
3.0445e-10
1.20407e-09
1.85685e-08
1.24406e-07
4.62038e-07
1.1602e-06
2.2188e-06
3.49806e-06
4.79915e-06
5.95017e-06
6.22772e-10
1.23436e-09
1.40876e-08
9.39427e-08
3.55932e-07
9.17218e-07
1.8018e-06
2.9158e-06
4.10283e-06
5.21245e-06
9.58456e-10
1.42292e-09
1.10965e-08
7.1589e-08
2.74444e-07
7.23834e-07
1.45936e-06
2.42248e-06
3.49207e-06
4.53916e-06
1.23955e-09
1.55302e-09
8.73505e-09
5.44538e-08
2.11355e-07
5.70611e-07
1.18097e-06
2.01068e-06
2.96729e-06
3.94156e-06
1.42026e-09
1.62257e-09
6.91541e-09
4.12594e-08
1.61946e-07
4.47568e-07
9.51561e-07
1.66281e-06
2.51255e-06
3.40918e-06
1.55428e-09
1.67128e-09
5.53759e-09
3.11001e-08
1.23304e-07
3.48652e-07
7.61889e-07
1.368e-06
2.11828e-06
2.93675e-06
1.66003e-09
1.70968e-09
4.52326e-09
2.35589e-08
9.34637e-08
2.69979e-07
6.06105e-07
1.11901e-06
1.77749e-06
2.51979e-06
1.70155e-09
1.70817e-09
3.75645e-09
1.79556e-08
7.08004e-08
2.0824e-07
4.79597e-07
9.1034e-07
1.48454e-06
2.15414e-06
1.70532e-09
1.68177e-09
3.17068e-09
1.38114e-08
5.39245e-08
1.60101e-07
3.78014e-07
7.36974e-07
1.23392e-06
1.83441e-06
1.68787e-09
1.63813e-09
2.71646e-09
1.07527e-08
4.14192e-08
1.23782e-07
2.967e-07
5.92792e-07
1.01772e-06
1.54998e-06
1.60082e-09
1.53887e-09
2.32425e-09
8.41982e-09
3.19296e-08
9.56189e-08
2.31068e-07
4.69394e-07
8.23745e-07
1.28359e-06
1.43993e-09
1.377e-09
1.96147e-09
6.61081e-09
2.44541e-08
7.2674e-08
1.75531e-07
3.57363e-07
6.36979e-07
1.01248e-06
1.21924e-09
1.16234e-09
1.61661e-09
5.1329e-09
1.84593e-08
5.3592e-08
1.26168e-07
2.52458e-07
4.48409e-07
7.23421e-07
9.43758e-10
8.99863e-10
1.24086e-09
3.79732e-09
1.32239e-08
3.6927e-08
8.3094e-08
1.59343e-07
2.74025e-07
4.38187e-07
6.39544e-10
6.14425e-10
8.54427e-10
2.57216e-09
8.54959e-09
2.2348e-08
4.68883e-08
8.47137e-08
1.39487e-07
2.16977e-07
3.62378e-10
3.55821e-10
5.09398e-10
1.52201e-09
4.65585e-09
1.09605e-08
2.09931e-08
3.54898e-08
5.58355e-08
8.41484e-08
1.74735e-10
1.74587e-10
2.63153e-10
7.56883e-10
1.98761e-09
4.07207e-09
7.09976e-09
1.12888e-08
1.6995e-08
2.47096e-08
3.73648e-11
4.74524e-11
1.12416e-10
3.43674e-10
7.45507e-10
1.36744e-09
2.2479e-09
3.40973e-09
4.87364e-09
6.67096e-09
2.54482e-12
9.51721e-12
6.58719e-11
2.4127e-10
4.46051e-10
8.28115e-10
1.39185e-09
2.11237e-09
2.95243e-09
3.87113e-09
3.74269e-13
4.07553e-12
4.488e-11
2.39345e-10
4.00681e-10
7.90233e-10
1.37013e-09
2.11083e-09
2.97033e-09
3.90225e-09
2.7824e-07
8.94363e-08
8.64689e-08
6.74205e-08
4.8157e-08
3.50793e-08
2.60791e-08
2.03115e-08
1.62822e-08
1.32965e-08
1.09261e-08
8.91511e-09
7.12926e-09
5.51571e-09
4.0735e-09
2.82851e-09
1.81242e-09
1.04679e-09
5.27588e-10
2.23029e-10
6.51634e-11
1.02294e-11
1.34853e-12
1.86915e-12
7.84124e-13
4.02993e-07
1.53664e-07
9.40552e-08
6.59542e-08
4.669e-08
3.37813e-08
2.50877e-08
1.93922e-08
1.54524e-08
1.25562e-08
1.02777e-08
8.366e-09
6.68716e-09
5.18461e-09
3.8504e-09
2.70195e-09
1.76318e-09
1.04969e-09
5.56548e-10
2.54838e-10
9.20248e-11
2.4482e-11
5.18172e-12
1.60526e-12
1.22149e-12
7.11577e-07
3.50279e-07
1.86719e-07
1.07418e-07
6.66971e-08
4.41489e-08
3.08464e-08
2.26791e-08
1.73906e-08
1.37428e-08
1.10455e-08
8.90912e-09
7.12094e-09
5.57452e-09
4.22692e-09
3.07011e-09
2.11049e-09
1.35365e-09
7.9379e-10
4.12698e-10
1.84871e-10
6.38908e-11
1.41551e-11
1.94648e-12
3.7941e-13
1.25551e-06
7.53001e-07
4.48628e-07
2.71875e-07
1.65202e-07
1.02101e-07
6.6284e-08
4.53052e-08
3.25562e-08
2.44496e-08
1.90098e-08
1.51198e-08
1.21433e-08
9.72124e-09
7.65935e-09
5.86289e-09
4.297e-09
2.96001e-09
1.86549e-09
1.0315e-09
4.68861e-10
1.58765e-10
4.0089e-11
1.31558e-11
9.06332e-12
2.0317e-06
1.36305e-06
9.21637e-07
6.20292e-07
4.12456e-07
2.70276e-07
1.77545e-07
1.20655e-07
8.53615e-08
6.30005e-08
4.83393e-08
3.82257e-08
3.07648e-08
2.48296e-08
1.97754e-08
1.52756e-08
1.12207e-08
7.64791e-09
4.67964e-09
2.45602e-09
1.0443e-09
3.47877e-10
1.09471e-10
5.86666e-11
5.06812e-11
2.99519e-06
2.15125e-06
1.5945e-06
1.17197e-06
8.50683e-07
6.02146e-07
4.19278e-07
2.91731e-07
2.08434e-07
1.53868e-07
1.17436e-07
9.21143e-08
7.33901e-08
5.84913e-08
4.58287e-08
3.46356e-08
2.47174e-08
1.62398e-08
9.51698e-09
4.78322e-09
1.98164e-09
6.86723e-10
2.68431e-10
1.88207e-10
1.86969e-10
4.0938e-06
3.082e-06
2.41794e-06
1.90322e-06
1.47667e-06
1.11889e-06
8.23062e-07
5.95018e-07
4.29522e-07
3.16571e-07
2.39171e-07
1.8469e-07
1.4441e-07
1.12717e-07
8.63634e-08
6.37625e-08
4.44388e-08
2.85441e-08
1.64123e-08
8.15741e-09
3.39277e-09
1.21165e-09
4.96024e-10
3.46293e-10
3.3778e-10
5.26484e-06
4.10988e-06
3.34609e-06
2.7682e-06
2.25581e-06
1.80077e-06
1.39145e-06
1.03994e-06
7.62697e-07
5.59045e-07
4.16613e-07
3.15996e-07
2.42399e-07
1.85817e-07
1.40131e-07
1.02129e-07
7.05191e-08
4.50832e-08
2.59565e-08
1.30277e-08
5.544e-09
2.07518e-09
9.14933e-10
6.67859e-10
6.64043e-10
6.43093e-06
5.18095e-06
4.33588e-06
3.70412e-06
3.15435e-06
2.6173e-06
2.10339e-06
1.62485e-06
1.21194e-06
8.88286e-07
6.53917e-07
4.88741e-07
3.69762e-07
2.80313e-07
2.09848e-07
1.52429e-07
1.05333e-07
6.76936e-08
3.93886e-08
2.01209e-08
8.81033e-09
3.45882e-09
1.62433e-09
1.2223e-09
1.22327e-09
7.51287e-06
6.23501e-06
5.34065e-06
4.67113e-06
4.10142e-06
3.53487e-06
2.93713e-06
2.34102e-06
1.78736e-06
1.32317e-06
9.68331e-07
7.17244e-07
5.38284e-07
4.06106e-07
3.03582e-07
2.2096e-07
1.53484e-07
9.94842e-08
5.86246e-08
3.05082e-08
1.37364e-08
5.62601e-09
2.76862e-09
2.1179e-09
2.12307e-09
8.43875e-06
7.21021e-06
6.31048e-06
5.62698e-06
5.0523e-06
4.49133e-06
3.86877e-06
3.18397e-06
2.50194e-06
1.88763e-06
1.39708e-06
1.03006e-06
7.70233e-07
5.80462e-07
4.34765e-07
3.17762e-07
2.22089e-07
1.45138e-07
8.64864e-08
4.57335e-08
2.10983e-08
8.96097e-09
4.57363e-09
3.53349e-09
3.54218e-09
9.16857e-06
8.05279e-06
7.19613e-06
6.52895e-06
5.96881e-06
5.43152e-06
4.83893e-06
4.13922e-06
3.36591e-06
2.61762e-06
1.97292e-06
1.46909e-06
1.09919e-06
8.29958e-07
6.23802e-07
4.58144e-07
3.21998e-07
2.11776e-07
1.27204e-07
6.80449e-08
3.1983e-08
1.399e-08
7.35413e-09
5.7223e-09
5.73327e-09
9.68355e-06
8.7175e-06
7.95095e-06
7.3343e-06
6.81206e-06
6.31697e-06
5.77818e-06
5.13482e-06
4.36521e-06
3.52396e-06
2.73663e-06
2.08549e-06
1.57239e-06
1.19347e-06
9.0161e-07
6.6564e-07
4.70114e-07
3.10511e-07
1.87299e-07
1.00795e-07
4.79154e-08
2.14031e-08
1.15175e-08
9.01842e-09
9.03091e-09
9.96227e-06
9.18137e-06
8.53661e-06
8.00323e-06
7.54373e-06
7.1095e-06
6.64278e-06
6.08548e-06
5.39794e-06
4.58664e-06
3.71e-06
2.91961e-06
2.25831e-06
1.72618e-06
1.31347e-06
9.76162e-07
6.92922e-07
4.58991e-07
2.77083e-07
1.49129e-07
7.10743e-08
3.20763e-08
1.75504e-08
1.38307e-08
1.38485e-08
1.00013e-05
9.44739e-06
8.92885e-06
8.5028e-06
8.12896e-06
7.77318e-06
7.39246e-06
6.93842e-06
6.36795e-06
5.66176e-06
4.8428e-06
3.98318e-06
3.18511e-06
2.49147e-06
1.92011e-06
1.44214e-06
1.03125e-06
6.85337e-07
4.13147e-07
2.2119e-07
1.04682e-07
4.71099e-08
2.59772e-08
2.06126e-08
2.06506e-08
9.81518e-06
9.50945e-06
9.14545e-06
8.81851e-06
8.5425e-06
8.27823e-06
7.99309e-06
7.65001e-06
7.21118e-06
6.64805e-06
5.95468e-06
5.15787e-06
4.34277e-06
3.54948e-06
2.78942e-06
2.13236e-06
1.54439e-06
1.03347e-06
6.22307e-07
3.30201e-07
1.5374e-07
6.79212e-08
3.72833e-08
2.98107e-08
2.99249e-08
9.43306e-06
9.37581e-06
9.18427e-06
8.96927e-06
8.77645e-06
8.60619e-06
8.42019e-06
8.18856e-06
7.88118e-06
7.47056e-06
6.93826e-06
6.28337e-06
5.53986e-06
4.76533e-06
3.94876e-06
3.11367e-06
2.30475e-06
1.56772e-06
9.4707e-07
4.97925e-07
2.26438e-07
9.6506e-08
5.17653e-08
4.17059e-08
4.2083e-08
8.89641e-06
9.06818e-06
9.0535e-06
8.9627e-06
8.85752e-06
8.75857e-06
8.66391e-06
8.53652e-06
8.35016e-06
8.08194e-06
7.71091e-06
7.22231e-06
6.61996e-06
5.95296e-06
5.19883e-06
4.31025e-06
3.35383e-06
2.36801e-06
1.45027e-06
7.61195e-07
3.37093e-07
1.36158e-07
6.93146e-08
5.59179e-08
5.6888e-08
8.2528e-06
8.6194e-06
8.77252e-06
8.80918e-06
8.79714e-06
8.7711e-06
8.74053e-06
8.69453e-06
8.60756e-06
8.45869e-06
8.22775e-06
7.89685e-06
7.46289e-06
6.95481e-06
6.34739e-06
5.57585e-06
4.56407e-06
3.39444e-06
2.19093e-06
1.17696e-06
5.09845e-07
1.92718e-07
8.9456e-08
7.10598e-08
7.29801e-08
7.54906e-06
8.06871e-06
8.3698e-06
8.52862e-06
8.60969e-06
8.65526e-06
8.68482e-06
8.69552e-06
8.66754e-06
8.6004e-06
8.47781e-06
8.28336e-06
8.01528e-06
7.67758e-06
7.24698e-06
6.65644e-06
5.78315e-06
4.56512e-06
3.12248e-06
1.75028e-06
7.74108e-07
2.77834e-07
1.11899e-07
8.48802e-08
8.82125e-08
6.82584e-06
7.45587e-06
7.87865e-06
8.14765e-06
8.31736e-06
8.4311e-06
8.51529e-06
8.57588e-06
8.60092e-06
8.5913e-06
8.54579e-06
8.45531e-06
8.31433e-06
8.11896e-06
7.85126e-06
7.45727e-06
6.81785e-06
5.7458e-06
4.21383e-06
2.50683e-06
1.14213e-06
3.97753e-07
1.37018e-07
9.33978e-08
9.88557e-08
6.11459e-06
6.81621e-06
7.33241e-06
7.69546e-06
7.94632e-06
8.12384e-06
8.25726e-06
8.35975e-06
8.42789e-06
8.46542e-06
8.47692e-06
8.45903e-06
8.40735e-06
8.31756e-06
8.1776e-06
7.95078e-06
7.54449e-06
6.77029e-06
5.37757e-06
3.47392e-06
1.6748e-06
5.79099e-07
1.64808e-07
8.72347e-08
9.10008e-08
5.43717e-06
6.17797e-06
6.7606e-06
7.19996e-06
7.52275e-06
7.75964e-06
7.93846e-06
8.07632e-06
8.17774e-06
8.25024e-06
8.30161e-06
8.33257e-06
8.34091e-06
8.3238e-06
8.27416e-06
8.17039e-06
7.95273e-06
7.47766e-06
6.47322e-06
4.68085e-06
2.52047e-06
9.29048e-07
2.33021e-07
6.58042e-08
5.05081e-08
4.81496e-06
5.56966e-06
6.19458e-06
6.692e-06
7.07606e-06
7.36753e-06
7.58991e-06
7.76104e-06
7.88732e-06
7.98348e-06
8.05991e-06
8.12035e-06
8.16494e-06
8.19267e-06
8.20003e-06
8.17574e-06
8.08707e-06
7.84882e-06
7.27034e-06
6.0438e-06
4.03943e-06
1.95002e-06
6.72325e-07
1.90562e-07
9.42744e-08
4.24449e-06
4.99441e-06
5.64198e-06
6.181e-06
6.61588e-06
6.95775e-06
7.22251e-06
7.42644e-06
7.57775e-06
7.69288e-06
7.78433e-06
7.86087e-06
7.92472e-06
7.97665e-06
8.01566e-06
8.03675e-06
8.02422e-06
7.93552e-06
7.66851e-06
7.02024e-06
5.731e-06
3.82534e-06
1.93432e-06
7.66613e-07
2.86096e-07
3.72604e-06
4.45802e-06
5.11263e-06
5.67822e-06
6.15299e-06
6.54005e-06
6.84751e-06
7.08684e-06
7.26481e-06
7.39824e-06
7.50352e-06
7.58854e-06
7.65995e-06
7.72158e-06
7.77401e-06
7.81572e-06
7.84024e-06
7.82878e-06
7.73464e-06
7.45668e-06
6.81811e-06
5.63232e-06
3.96054e-06
2.31033e-06
1.17695e-06
3.25923e-06
3.96483e-06
4.61485e-06
5.19384e-06
5.69676e-06
6.12166e-06
6.46945e-06
6.74452e-06
6.95372e-06
7.10876e-06
7.22742e-06
7.32192e-06
7.401e-06
7.46611e-06
7.52014e-06
7.56671e-06
7.60363e-06
7.62354e-06
7.60714e-06
7.51129e-06
7.25188e-06
6.69839e-06
5.73202e-06
4.41089e-06
3.06171e-06
2.84375e-06
3.52097e-06
4.15869e-06
4.7396e-06
5.25748e-06
5.7085e-06
6.08555e-06
6.39122e-06
6.63232e-06
6.81777e-06
6.95881e-06
7.06758e-06
7.15439e-06
7.2243e-06
7.28207e-06
7.33016e-06
7.36682e-06
7.39359e-06
7.40388e-06
7.381e-06
7.29105e-06
7.07502e-06
6.653e-06
5.96585e-06
5.06071e-06
2.47557e-06
3.12661e-06
3.75536e-06
4.33387e-06
4.84787e-06
5.30444e-06
5.69907e-06
6.0307e-06
6.30222e-06
6.51919e-06
6.68938e-06
6.82164e-06
6.92438e-06
7.00432e-06
7.06587e-06
7.11433e-06
7.15289e-06
7.18247e-06
7.19961e-06
7.19945e-06
7.17145e-06
7.09337e-06
6.93139e-06
6.64746e-06
6.2246e-06
2.13799e-06
2.75462e-06
3.36781e-06
3.94426e-06
4.46094e-06
4.91652e-06
5.322e-06
5.67391e-06
5.97195e-06
6.21867e-06
6.41874e-06
6.57823e-06
6.70363e-06
6.80109e-06
6.87568e-06
6.93181e-06
6.97322e-06
7.00041e-06
7.01815e-06
7.02674e-06
7.02013e-06
6.99061e-06
6.92656e-06
6.81324e-06
6.63924e-06
1.80938e-06
2.37503e-06
2.95699e-06
3.51969e-06
4.03832e-06
4.50381e-06
4.92349e-06
5.29576e-06
5.61932e-06
5.89506e-06
6.1256e-06
6.31492e-06
6.46772e-06
6.58892e-06
6.68319e-06
6.75462e-06
6.80703e-06
6.8429e-06
6.86469e-06
6.87405e-06
6.86967e-06
6.85216e-06
6.82024e-06
6.76717e-06
6.68756e-06
1.45857e-06
1.95225e-06
2.4779e-06
3.0084e-06
3.52018e-06
3.99809e-06
4.43645e-06
4.83195e-06
5.1828e-06
5.48884e-06
5.75135e-06
5.97275e-06
6.15629e-06
6.30565e-06
6.42463e-06
6.51688e-06
6.58579e-06
6.63432e-06
6.66474e-06
6.67902e-06
6.6784e-06
6.66363e-06
6.63508e-06
6.59147e-06
6.53159e-06
1.06465e-06
1.45904e-06
1.90013e-06
2.36893e-06
2.84514e-06
3.31111e-06
3.75406e-06
4.16538e-06
4.53964e-06
4.87399e-06
5.16752e-06
5.42083e-06
5.63553e-06
5.81395e-06
5.95879e-06
6.07289e-06
6.15904e-06
6.21985e-06
6.25761e-06
6.27431e-06
6.27168e-06
6.25099e-06
6.21316e-06
6.15902e-06
6.08968e-06
6.57453e-07
9.22243e-07
1.23625e-06
1.59125e-06
1.97514e-06
2.37379e-06
2.77318e-06
3.16105e-06
3.52768e-06
3.86612e-06
4.17178e-06
4.44206e-06
4.67588e-06
4.87338e-06
5.0355e-06
5.16367e-06
5.25956e-06
5.32505e-06
5.36206e-06
5.37252e-06
5.35831e-06
5.32121e-06
5.26293e-06
5.18535e-06
5.09103e-06
3.23056e-07
4.59265e-07
6.31515e-07
8.36767e-07
1.07221e-06
1.33209e-06
1.60823e-06
1.89145e-06
2.17271e-06
2.44432e-06
2.69963e-06
2.93313e-06
3.14078e-06
3.31996e-06
3.46917e-06
3.5874e-06
3.67443e-06
3.73089e-06
3.75809e-06
3.75784e-06
3.73228e-06
3.68381e-06
3.61501e-06
3.52879e-06
3.42877e-06
1.2263e-07
1.73954e-07
2.40241e-07
3.22414e-07
4.21942e-07
5.36776e-07
6.63745e-07
7.99506e-07
9.39785e-07
1.08144e-06
1.22051e-06
1.35282e-06
1.47472e-06
1.58351e-06
1.67714e-06
1.7527e-06
1.80854e-06
1.84437e-06
1.86084e-06
1.85927e-06
1.84139e-06
1.80923e-06
1.76502e-06
1.71127e-06
1.65097e-06
3.49038e-08
4.81546e-08
6.57804e-08
8.7721e-08
1.14328e-07
1.45596e-07
1.81395e-07
2.20498e-07
2.61116e-07
3.0366e-07
3.47031e-07
3.89807e-07
4.30756e-07
4.69151e-07
5.04641e-07
5.34472e-07
5.5765e-07
5.74085e-07
5.84063e-07
5.88065e-07
5.86704e-07
5.8069e-07
5.70833e-07
5.58125e-07
5.43946e-07
8.80531e-09
1.12934e-08
1.42599e-08
1.77584e-08
2.16736e-08
2.60358e-08
3.08934e-08
3.61043e-08
4.13363e-08
4.73412e-08
5.39158e-08
6.09722e-08
6.84943e-08
7.66481e-08
8.60022e-08
9.50631e-08
1.03826e-07
1.12374e-07
1.2071e-07
1.28781e-07
1.3651e-07
1.4381e-07
1.50612e-07
1.56961e-07
1.6344e-07
4.80288e-09
5.69435e-09
6.47577e-09
6.98838e-09
7.07803e-09
6.77949e-09
6.24082e-09
5.47703e-09
4.44411e-09
3.72132e-09
3.36358e-09
3.64995e-09
4.85498e-09
7.24725e-09
1.1406e-08
1.68839e-08
2.38221e-08
3.21991e-08
4.18542e-08
5.25302e-08
6.39119e-08
7.56496e-08
8.7384e-08
9.87716e-08
1.09505e-07
4.83451e-09
5.72199e-09
6.48855e-09
6.92783e-09
6.79951e-09
6.1649e-09
5.25871e-09
4.08461e-09
2.69911e-09
1.38346e-09
4.17323e-10
1.99579e-10
1.097e-09
3.39258e-09
7.32805e-09
1.30353e-08
2.05777e-08
2.98672e-08
4.06794e-08
5.2683e-08
6.54867e-08
7.86615e-08
9.17721e-08
1.04406e-07
1.16195e-07
1.22066e-07
1.3207e-07
1.18333e-07
1.63833e-07
1.44088e-07
1.2872e-07
6.37604e-07
4.33137e-07
3.40505e-07
2.10344e-06
1.53039e-06
1.19998e-06
4.18875e-06
3.45163e-06
2.88896e-06
5.73804e-06
5.21961e-06
4.71822e-06
6.42373e-06
6.16483e-06
5.87401e-06
6.5888e-06
6.46554e-06
6.31705e-06
6.46288e-06
6.38159e-06
6.28579e-06
6.0136e-06
5.92672e-06
5.82727e-06
4.99166e-06
4.8823e-06
4.76122e-06
3.3274e-06
3.22001e-06
3.10523e-06
1.59166e-06
1.53057e-06
1.4667e-06
5.30244e-07
5.15858e-07
5.00247e-07
1.69686e-07
1.74771e-07
1.78689e-07
1.18671e-07
1.26564e-07
1.33448e-07
1.262e-07
1.34582e-07
1.41833e-07
2.39199e-14
7.00164e-14
6.16812e-14
4.18579e-14
4.33614e-13
1.89483e-12
5.16224e-12
1.08615e-11
1.94064e-11
3.08764e-11
4.49608e-11
6.07287e-11
7.69747e-11
9.57035e-11
1.36965e-10
3.11892e-10
8.30382e-10
2.50284e-10
2.62745e-10
3.22974e-10
3.87013e-10
4.4895e-10
5.09893e-10
5.71046e-10
6.33192e-10
6.96786e-10
7.62072e-10
8.29171e-10
8.98146e-10
9.69031e-10
1.04186e-09
1.11669e-09
1.19359e-09
1.27268e-09
1.35412e-09
1.43808e-09
1.52479e-09
1.6145e-09
1.70746e-09
1.80396e-09
1.90435e-09
2.0091e-09
2.11873e-09
2.23377e-09
2.35475e-09
2.48216e-09
2.61637e-09
2.75753e-09
2.90537e-09
3.05919e-09
3.2177e-09
3.37899e-09
3.54047e-09
3.69893e-09
3.8504e-09
3.98994e-09
4.1114e-09
4.20761e-09
4.2698e-09
4.29275e-09
4.26992e-09
4.19114e-09
4.05063e-09
3.84555e-09
3.57621e-09
3.24605e-09
2.864e-09
2.44427e-09
2.0056e-09
1.57013e-09
1.16116e-09
8.0034e-10
5.04707e-10
2.85174e-10
1.37357e-10
5.07571e-11
1.25582e-11
1.35032e-12
3.68021e-13
1.95431e-13
4.88953e-14
5.25053e-14
7.85466e-14
1.71964e-13
7.23657e-13
2.30683e-12
5.57311e-12
1.10805e-11
1.91934e-11
2.99841e-11
4.3203e-11
5.8367e-11
7.59163e-11
1.02353e-10
1.65811e-10
3.17691e-10
5.72007e-10
2.93372e-10
2.67523e-10
3.10183e-10
3.66519e-10
4.24025e-10
4.81323e-10
5.38954e-10
5.97528e-10
6.57451e-10
7.18957e-10
7.82166e-10
8.47143e-10
9.13924e-10
9.82547e-10
1.05306e-09
1.12555e-09
1.20012e-09
1.27691e-09
1.3561e-09
1.4379e-09
1.52253e-09
1.61026e-09
1.70135e-09
1.79615e-09
1.8951e-09
1.99868e-09
2.10737e-09
2.22166e-09
2.34199e-09
2.46866e-09
2.60175e-09
2.74097e-09
2.88558e-09
3.03433e-09
3.18537e-09
3.33621e-09
3.48374e-09
3.62413e-09
3.75262e-09
3.86343e-09
3.94985e-09
4.00445e-09
4.02162e-09
3.99498e-09
3.91642e-09
3.78075e-09
3.5856e-09
3.33159e-09
3.0226e-09
2.66719e-09
2.27857e-09
1.87392e-09
1.4732e-09
1.0972e-09
7.65068e-10
4.91801e-10
2.86028e-10
1.45073e-10
6.00677e-11
1.87829e-11
3.74863e-12
5.84034e-13
1.92855e-13
1.7682e-14
4.2301e-14
1.66259e-13
5.60189e-13
1.56878e-12
3.69602e-12
7.60228e-12
1.36536e-11
2.21922e-11
3.33971e-11
4.73867e-11
6.46933e-11
8.776e-11
1.24509e-10
1.92297e-10
2.86951e-10
3.93894e-10
3.10411e-10
2.93768e-10
3.24135e-10
3.72689e-10
4.26783e-10
4.8263e-10
5.39535e-10
5.97624e-10
6.57135e-10
7.18251e-10
7.81082e-10
8.45691e-10
9.12123e-10
9.80418e-10
1.05063e-09
1.12285e-09
1.19717e-09
1.27375e-09
1.35275e-09
1.43439e-09
1.5189e-09
1.60652e-09
1.69757e-09
1.79239e-09
1.89139e-09
1.99504e-09
2.10378e-09
2.21804e-09
2.33818e-09
2.4644e-09
2.59664e-09
2.7345e-09
2.87711e-09
3.02311e-09
3.17056e-09
3.31688e-09
3.45887e-09
3.59261e-09
3.71336e-09
3.81554e-09
3.89295e-09
3.93916e-09
3.94835e-09
3.91414e-09
3.83022e-09
3.69234e-09
3.49873e-09
3.25051e-09
2.95207e-09
2.61181e-09
2.24223e-09
1.85929e-09
1.48083e-09
1.12456e-09
8.06757e-10
5.40222e-10
3.32092e-10
1.81746e-10
8.33932e-11
3.07188e-11
8.61749e-12
2.69962e-12
1.47254e-12
1.45736e-13
2.36462e-13
5.4603e-13
1.49986e-12
3.76077e-12
7.90512e-12
1.43957e-11
2.35242e-11
3.55887e-11
5.09243e-11
7.00516e-11
9.40974e-11
1.2563e-10
1.69841e-10
2.32976e-10
2.99682e-10
3.58986e-10
3.5992e-10
3.73707e-10
4.11195e-10
4.63808e-10
5.2396e-10
5.87926e-10
6.54338e-10
7.22846e-10
7.93447e-10
8.66211e-10
9.41202e-10
1.01846e-09
1.09802e-09
1.17992e-09
1.2642e-09
1.35094e-09
1.44026e-09
1.5323e-09
1.62725e-09
1.72533e-09
1.82681e-09
1.932e-09
2.04125e-09
2.15494e-09
2.27353e-09
2.39751e-09
2.52733e-09
2.66344e-09
2.80615e-09
2.95561e-09
3.11167e-09
3.27383e-09
3.44109e-09
3.61191e-09
3.78416e-09
3.95503e-09
4.12104e-09
4.27798e-09
4.42096e-09
4.54441e-09
4.64226e-09
4.70834e-09
4.73422e-09
4.7121e-09
4.63518e-09
4.49818e-09
4.2977e-09
4.03288e-09
3.70618e-09
3.3245e-09
2.90087e-09
2.45611e-09
2.01249e-09
1.58298e-09
1.18311e-09
8.28769e-10
5.32823e-10
3.03788e-10
1.46515e-10
5.92463e-11
2.44094e-11
1.53601e-11
1.3526e-11
1.19359e-12
1.33205e-12
1.91521e-12
3.70693e-12
8.41626e-12
1.77388e-11
3.24734e-11
5.26045e-11
7.80003e-11
1.08803e-10
1.45543e-10
1.89254e-10
2.41573e-10
3.04463e-10
3.78325e-10
4.53567e-10
5.24089e-10
5.79887e-10
6.40457e-10
7.14248e-10
8.00285e-10
8.9533e-10
9.96928e-10
1.10376e-09
1.21523e-09
1.33112e-09
1.45135e-09
1.57585e-09
1.7046e-09
1.83754e-09
1.97465e-09
2.1159e-09
2.26134e-09
2.41103e-09
2.56512e-09
2.72381e-09
2.88739e-09
3.05623e-09
3.23078e-09
3.41153e-09
3.59904e-09
3.79393e-09
3.99694e-09
4.20881e-09
4.43028e-09
4.66198e-09
4.90443e-09
5.15791e-09
5.42225e-09
5.69675e-09
5.98001e-09
6.26991e-09
6.56346e-09
6.85675e-09
7.14503e-09
7.4228e-09
7.68363e-09
7.91982e-09
8.12245e-09
8.26991e-09
8.34744e-09
8.34132e-09
8.23796e-09
8.02406e-09
7.68889e-09
7.2266e-09
6.63909e-09
5.93878e-09
5.14959e-09
4.30272e-09
3.43201e-09
2.57943e-09
1.79354e-09
1.12428e-09
6.15023e-10
2.87785e-10
1.23867e-10
6.54031e-11
5.03058e-11
4.88353e-11
4.30112e-12
4.38321e-12
5.23384e-12
8.1392e-12
1.66677e-11
3.54339e-11
6.79123e-11
1.14833e-10
1.75019e-10
2.47108e-10
3.30464e-10
4.25252e-10
5.32086e-10
6.51352e-10
7.82099e-10
9.19651e-10
1.06123e-09
1.20586e-09
1.36015e-09
1.52876e-09
1.71251e-09
1.91032e-09
2.12081e-09
2.34297e-09
2.57616e-09
2.81997e-09
3.07412e-09
3.33833e-09
3.61235e-09
3.89592e-09
4.18879e-09
4.49073e-09
4.80159e-09
5.12131e-09
5.44994e-09
5.78769e-09
6.135e-09
6.4925e-09
6.86104e-09
7.24156e-09
7.63502e-09
8.04264e-09
8.46601e-09
8.90696e-09
9.36739e-09
9.84932e-09
1.03549e-08
1.08865e-08
1.14457e-08
1.20336e-08
1.26497e-08
1.32927e-08
1.39598e-08
1.46458e-08
1.53439e-08
1.60463e-08
1.67425e-08
1.74173e-08
1.80382e-08
1.85551e-08
1.89301e-08
1.91242e-08
1.90944e-08
1.87944e-08
1.81817e-08
1.72247e-08
1.59118e-08
1.42593e-08
1.23172e-08
1.01707e-08
7.93827e-09
5.76969e-09
3.82972e-09
2.26692e-09
1.17041e-09
5.30642e-10
2.3846e-10
1.42723e-10
1.20409e-10
1.21036e-10
1.08556e-11
1.06697e-11
1.16959e-11
1.60225e-11
2.9911e-11
6.28621e-11
1.24767e-10
2.21292e-10
3.52043e-10
5.1291e-10
6.99506e-10
9.08955e-10
1.13992e-09
1.39178e-09
1.66372e-09
1.95401e-09
2.26212e-09
2.58926e-09
2.93895e-09
3.31432e-09
3.71675e-09
4.14628e-09
4.60236e-09
5.08431e-09
5.59152e-09
6.12337e-09
6.67928e-09
7.25857e-09
7.86053e-09
8.48438e-09
9.12934e-09
9.79468e-09
1.04797e-08
1.11841e-08
1.19074e-08
1.26498e-08
1.3412e-08
1.41951e-08
1.5001e-08
1.58317e-08
1.66891e-08
1.75757e-08
1.84952e-08
1.94523e-08
2.04518e-08
2.14991e-08
2.26009e-08
2.37649e-08
2.49987e-08
2.63077e-08
2.76948e-08
2.91602e-08
3.0701e-08
3.23089e-08
3.39705e-08
3.5669e-08
3.73812e-08
3.90683e-08
4.06138e-08
4.19279e-08
4.2912e-08
4.34567e-08
4.34403e-08
4.27356e-08
4.12268e-08
3.88322e-08
3.55304e-08
3.13857e-08
2.65672e-08
2.13513e-08
1.61049e-08
1.1239e-08
7.13173e-09
4.03669e-09
2.01011e-09
8.9971e-10
4.18113e-10
2.6938e-10
2.39919e-10
2.4689e-10
2.22977e-11
2.15218e-11
2.26025e-11
2.9016e-11
5.00406e-11
1.02451e-10
2.06619e-10
3.79748e-10
6.28704e-10
9.49103e-10
1.3306e-09
1.763e-09
2.23931e-09
2.75589e-09
3.31133e-09
3.90555e-09
4.53991e-09
5.21718e-09
5.94108e-09
6.71508e-09
7.54156e-09
8.42172e-09
9.35596e-09
1.03441e-08
1.13857e-08
1.24799e-08
1.36257e-08
1.48217e-08
1.60663e-08
1.73579e-08
1.86945e-08
2.00743e-08
2.14955e-08
2.29568e-08
2.44572e-08
2.59962e-08
2.75745e-08
2.91945e-08
3.086e-08
3.25749e-08
3.43429e-08
3.6169e-08
3.80613e-08
4.00299e-08
4.20856e-08
4.42403e-08
4.65093e-08
4.89123e-08
5.14694e-08
5.41955e-08
5.70987e-08
6.01807e-08
6.34358e-08
6.68474e-08
7.03859e-08
7.40085e-08
7.76485e-08
8.11968e-08
8.43885e-08
8.70397e-08
8.89253e-08
8.97854e-08
8.93365e-08
8.72975e-08
8.34348e-08
7.7621e-08
6.98987e-08
6.05337e-08
5.00354e-08
3.91238e-08
2.86339e-08
1.93673e-08
1.19249e-08
6.57604e-09
3.2152e-09
1.43265e-09
6.78304e-10
4.51524e-10
4.08801e-10
4.21877e-10
3.98561e-11
3.81498e-11
3.92817e-11
4.84456e-11
7.89091e-11
1.56912e-10
3.17564e-10
5.97145e-10
1.01996e-09
1.58986e-09
2.29291e-09
3.10769e-09
4.015e-09
5.00227e-09
6.06373e-09
7.19872e-09
8.41009e-09
9.70281e-09
1.10828e-08
1.25558e-08
1.41264e-08
1.5798e-08
1.75725e-08
1.9451e-08
2.14333e-08
2.35187e-08
2.57055e-08
2.79914e-08
3.03735e-08
3.28482e-08
3.54118e-08
3.80604e-08
4.07903e-08
4.3598e-08
4.6481e-08
4.94375e-08
5.24669e-08
5.55742e-08
5.87669e-08
6.205e-08
6.54301e-08
6.89172e-08
7.25262e-08
7.62758e-08
8.01868e-08
8.42826e-08
8.85936e-08
9.31583e-08
9.8015e-08
1.03192e-07
1.08705e-07
1.14556e-07
1.20729e-07
1.2719e-07
1.33874e-07
1.40679e-07
1.47448e-07
1.53835e-07
1.59434e-07
1.63872e-07
1.66691e-07
1.67371e-07
1.65365e-07
1.60167e-07
1.51415e-07
1.39013e-07
1.23247e-07
1.0485e-07
8.49813e-08
6.50853e-08
4.66524e-08
3.0937e-08
1.87177e-08
1.01758e-08
4.92554e-09
2.18664e-09
1.04414e-09
7.0923e-10
6.51801e-10
6.76692e-10
6.4919e-11
6.22637e-11
6.39165e-11
7.67761e-11
1.19123e-10
2.29521e-10
4.62581e-10
8.81564e-10
1.54007e-09
2.46377e-09
3.64458e-09
5.05087e-09
6.64477e-09
8.39563e-09
1.02853e-08
1.23072e-08
1.44635e-08
1.67615e-08
1.92109e-08
2.18215e-08
2.46023e-08
2.75603e-08
3.07009e-08
3.4027e-08
3.75399e-08
4.12393e-08
4.51229e-08
4.91872e-08
5.3427e-08
5.78363e-08
6.2408e-08
6.71347e-08
7.2009e-08
7.70239e-08
8.21734e-08
8.74529e-08
9.28598e-08
9.84007e-08
1.04087e-07
1.09924e-07
1.15922e-07
1.22097e-07
1.28474e-07
1.35081e-07
1.41954e-07
1.49136e-07
1.56678e-07
1.6464e-07
1.73078e-07
1.82035e-07
1.91535e-07
2.01575e-07
2.12123e-07
2.23102e-07
2.34379e-07
2.45743e-07
2.56872e-07
2.67003e-07
2.75608e-07
2.8202e-07
2.8544e-07
2.84974e-07
2.79714e-07
2.68873e-07
2.51974e-07
2.29055e-07
2.00844e-07
1.68825e-07
1.35116e-07
1.02169e-07
7.2334e-08
4.74232e-08
2.84042e-08
1.53067e-08
7.34987e-09
3.23757e-09
1.53957e-09
1.05262e-09
9.76411e-10
1.01785e-09
1.03978e-10
9.99796e-11