/*--------------------------------*- C++ -*----------------------------------*\
| =========                 |                                                 |
| \\      /  F ield         | OpenFOAM: The Open Source CFD Toolbox           |
|  \\    /   O peration     | Version:  v2012                                 |
|   \\  /    A nd           | Website:  www.openfoam.com                      |
|    \\/     M anipulation  |                                                 |
\*---------------------------------------------------------------------------*/
FoamFile
{
    version     2.0;
    format      ascii;
    class       volScalarField;
    location    "2000";
    object      omega;
}
// * * * * * * * * * * * * * * * * * * * * * * * * * * * * * * * * * * * * * //

dimensions      [0 0 -1 0 0 0 0];


internalField   nonuniform List<scalar> 
6502
(
3227.18
475.932
112.42
52.7984
42.4702
42.466
52.7829
112.38
475.862
3227.18
3226.56
647.461
192.338
76.0743
48.0709
48.049
76.0018
192.193
647.279
3226.56
3226.26
669.105
230.576
95.8345
55.5297
55.4778
95.6892
230.336
668.837
3226.26
3226.09
649.938
241.284
107.905
62.341
62.2489
107.673
240.95
649.572
3226.09
3226
624.159
238.803
113.638
67.5122
67.3707
113.303
238.35
623.679
3226.01
3225.96
602.433
231.672
115.247
70.9155
70.722
114.8
231.056
601.759
3225.96
3225.94
587.548
223.989
114.525
72.8452
72.5886
113.945
223.158
586.62
3225.94
3225.93
577.99
217.137
112.744
73.7206
73.3807
111.977
216.035
576.742
3225.93
3225.92
572.219
211.769
110.725
73.9016
73.4584
109.699
210.273
570.514
3225.92
3225.91
568.943
207.881
108.843
73.6647
73.0915
107.484
205.855
566.636
3225.92
3225.91
567.136
205.206
107.234
73.1963
72.4629
105.437
202.478
564.05
3225.91
3225.9
566.177
203.455
105.955
72.627
71.6794
103.565
199.782
562.032
3225.91
3225.9
565.747
202.406
105.015
72.0583
70.8623
101.777
197.415
559.983
3225.91
3225.9
565.337
201.835
104.406
71.5646
70.0866
100.148
194.903
553.399
3225.91
3225.89
555.833
200.765
104.028
71.1903
69.3711
98.655
192.034
541.518
3225.91
3225.89
548.783
199.906
103.914
70.9707
68.7301
97.2666
189.589
536.586
3225.91
3225.88
546.98
199.89
104.164
70.9507
68.1773
95.9396
187.459
534.059
3225.92
3225.88
547.412
200.709
104.848
71.1793
67.7257
94.6041
185.311
531.852
3225.93
3225.87
548.742
202.192
105.987
71.699
67.3824
93.1572
182.678
528.682
3225.94
3225.87
550.411
204.137
107.555
72.5379
67.124
91.2889
177.789
517.174
3225.96
3225.86
552.073
206.311
109.459
73.6726
66.8099
87.5862
156.97
347.138
881.019
3225.85
553.398
208.39
111.489
74.9662
66.391
82.6506
133.663
235.98
380.123
3225.85
554.173
210.091
113.421
76.2808
65.8934
77.3804
113.386
170.52
218.705
3225.84
554.309
211.259
115.091
77.5214
65.3764
72.3845
97.1389
130.598
149.011
3225.83
554.011
211.907
116.42
78.628
64.8986
67.9872
84.512
104.926
112.656
3225.83
553.517
212.122
117.389
79.5669
64.4997
64.3016
74.7755
87.4869
90.9638
3225.82
552.842
211.971
118.003
80.3188
64.1922
61.3055
67.2952
75.0573
76.6198
3225.82
552.032
211.515
118.283
80.8745
63.9705
58.9371
61.5592
66.1233
66.552
3225.82
551.134
210.809
118.255
81.2305
63.8167
57.1146
57.1644
59.4944
59.3452
3225.81
550.175
209.896
117.944
81.381
63.7016
55.7529
53.8552
54.4826
53.9304
3225.81
549.174
208.8
117.363
81.3141
63.5857
54.7613
51.3873
50.6659
49.7368
3225.81
548.174
207.55
116.526
81.0138
63.4204
54.044
49.5734
47.7619
46.4369
3225.81
547.414
206.237
115.464
80.4695
63.1549
53.5065
48.2646
45.5954
43.8415
3225.81
548.864
205.349
114.32
79.7026
62.7453
53.0556
47.3271
44.0024
41.8255
3225.81
565.123
206.636
113.439
78.782
62.1618
52.6027
46.636
42.8516
40.2912
3225.81
565.638
205.897
112.139
77.5823
61.3389
52.0537
46.0679
42.0203
39.1605
3225.81
564.53
204.325
110.409
76.0422
60.213
51.3146
45.4989
41.3813
38.3362
3225.81
563.379
202.544
108.41
74.1845
58.7525
50.3068
44.8115
40.8052
37.7129
3225.81
562.314
200.742
106.273
72.0738
56.9641
48.9794
43.9045
40.1648
37.1731
3225.81
561.141
198.921
104.073
69.7854
54.8868
47.3155
42.7031
39.3445
36.5928
3225.81
559.769
197.067
101.858
67.3946
52.5836
45.3344
41.1679
38.2524
35.8529
3225.81
557.996
195.076
99.616
64.9541
50.1275
43.0868
39.2994
36.8324
34.8535
3225.81
538.53
190.381
96.9049
62.4383
47.5895
40.6509
37.1412
35.0737
33.5307
3225.81
535.488
188.308
94.8784
60.2074
45.1664
38.1806
34.8103
33.0412
31.8892
3225.81
534.894
187.265
93.4108
58.3343
42.9607
35.7834
32.4033
30.8016
29.9512
3225.81
534.82
186.64
92.2898
56.7709
41.0045
33.5381
30.0204
28.4508
27.7849
3225.81
534.46
186.037
91.3556
55.4443
39.2945
31.4957
27.7512
26.0948
25.4889
3225.81
534.127
185.501
90.559
54.3119
37.8108
29.678
25.6606
23.831
23.1717
3225.81
534.116
185.158
89.904
53.3508
36.5217
28.0902
23.7971
21.748
20.9501
3225.81
534.028
184.727
89.264
52.4976
35.4404
26.7535
22.2211
19.9484
18.97
3225.81
533.839
184.4
88.7365
51.7872
34.6057
25.7668
21.0533
18.5873
17.4201
3225.81
533.622
183.703
88.1561
51.3269
34.1793
25.3217
20.5375
17.9322
16.5894
3225.81
533.254
181.345
87.3593
51.0872
34.3235
25.7535
21.0903
18.4448
16.9481
3225.81
532.971
180.111
87.1478
51.6076
35.5418
27.5578
23.2918
20.8292
19.2805
3225.81
532.865
180.571
88.2142
53.8218
38.9661
31.9644
28.3625
26.2668
24.8391
3225.81
533.095
183.758
92.1712
60.0463
47.2781
41.7588
39.0759
37.4926
36.3115
3225.81
534.097
190.051
104.185
77.2971
67.9939
64.4582
62.8435
61.8308
60.9686
3225.81
542.74
217.67
148.89
131.869
127.228
125.761
125.095
124.578
124.035
3225.81
654.787
391.116
358.519
354.185
353.489
353.268
353.105
352.897
352.636
3225.81
2113.96
2113.96
2113.96
2113.96
2113.96
2113.96
2113.96
2113.96
2113.96
2029.09
2029.08
2029.08
2029.08
2029.08
2029.08
2029.08
2029.08
2029.08
2029.08
2029.08
2029.08
2029.07
2029.07
2029.07
2029.07
2029.07
2029.07
2029.07
2029.07
2029.07
2029.07
2029.07
2029.07
2801.69
446.507
374.193
341.55
336.105
334.034
333.461
333.494
333.683
333.857
333.965
334.004
333.99
333.942
333.885
333.843
333.84
333.902
334.071
334.435
335.224
337.283
346.801
397.436
673.889
3574.3
209.519
162.245
132.893
119.572
113.918
111.652
110.815
110.532
110.439
110.392
110.331
110.251
110.168
110.111
110.117
110.244
110.592
111.411
113.403
118.167
126.41
150.719
237.163
621.189
3574.3
132.952
101.346
78.0595
64.8193
58.1654
55.2694
53.8129
53.0727
52.6785
52.4504
52.3003
52.2024
52.1665
52.227
52.4416
52.9056
53.7903
55.4397
58.5999
64.9535
78.6181
112.651
211.96
594.964
3574.3
98.5386
76.375
57.0713
44.9264
37.9414
34.1762
32.2707
31.2005
30.599
30.2698
30.1161
30.1019
30.2329
30.5473
31.1185
32.0736
33.6401
36.2515
40.7904
49.1841
66.0699
104.315
207.791
593.978
3574.3
79.9301
63.5243
47.8738
36.2678
29.1685
25.0363
22.6678
21.3881
20.6812
20.3454
20.2742
20.4257
20.8002
21.435
22.4089
23.8631
26.0493
29.4359
34.9456
44.5263
62.7096
101.675
202.542
593.333
3574.3
68.3469
55.8811
43.1318
32.5112
25.2455
20.7755
18.1589
16.6647
15.9118
15.6192
15.6706
16.0123
16.6382
17.5792
18.9111
20.7751
23.4251
27.3316
33.4132
43.5987
62.3729
101.853
203.262
593.407
3574.3
60.4003
50.8037
40.3546
30.995
23.6877
18.9493
16.0547
14.427
13.6061
13.3554
13.5164
14.0232
14.8568
16.0435
17.6523
19.8196
22.7944
27.0381
33.4521
43.9333
62.9127
102.425
203.553
594.224
3574.3
54.6175
47.1425
38.5615
30.3673
23.4947
18.4607
15.2917
13.4557
12.5675
12.3121
12.536
13.1515
14.1304
15.4879
17.2942
19.6806
22.8923
27.3831
34.0385
44.7278
63.8405
103.358
204.284
594.957
3574.3
50.2296
44.3324
37.2877
30.1821
23.8602
18.8216
15.3291
13.2441
12.1931
11.8861
12.1076
12.7644
13.818
15.2803
17.2135
19.7571
23.1547
27.8574
34.739
45.6443
64.9217
104.496
205.296
595.766
3574.3
46.8166
42.0781
36.2913
30.1877
24.4595
19.6154
15.9283
13.5226
12.2333
11.7913
11.932
12.5576
13.6157
15.1132
17.1163
19.7628
23.3083
28.2063
35.3262
46.492
66.0082
105.73
206.488
596.711
3574.3
44.0491
40.2007
35.4386
30.2433
25.1347
20.5723
16.875
14.1962
12.5779
11.8816
11.8828
12.401
13.3916
14.855
16.8598
19.5539
23.2022
28.2719
35.6381
47.1132
66.9591
106.947
207.776
597.779
3574.3
41.7198
38.6053
34.6629
30.2698
25.7836
21.5775
17.9655
15.1537
13.2294
12.1895
11.9478
12.2712
13.1125
14.4646
16.3954
19.0621
22.7469
27.9393
35.5346
47.3497
67.6144
108.008
209.065
598.942
3574.3
39.7835
37.2165
33.9393
30.2305
26.3412
22.5438
19.1096
16.2577
14.1238
12.7605
12.1581
12.2091
12.8078
13.9637
15.7309
18.2756
21.9009
27.1289
34.8936
47.0404
67.7913
108.74
210.225
600.134
3574.3
38.2012
35.9531
33.2622
30.1212
26.7736
23.4065
20.2268
17.433
15.1793
13.5579
12.6041
12.3122
12.5803
13.4319
14.9326
17.2397
20.6778
25.8082
33.624
46.0329
67.2913
108.936
211.091
601.274
3574.3
36.9512
34.8485
32.55
29.9392
27.0697
24.1233
21.2479
18.601
16.3285
14.5411
13.3086
12.6699
12.5603
13.002
14.1272
16.0655
19.162
24.012
31.6905
44.2034
65.9091
108.353
211.463
602.27
3574.3
35.999
33.9298
31.8599
29.6413
27.2305
24.6755
22.122
19.6871
17.4901
15.639
14.2186
13.2879
12.8582
12.8919
13.5077
14.9298
17.5269
21.8667
29.1461
41.4905
63.4462
106.681
211.027
602.915
3574.31
35.2919
33.2055
31.2463
29.2759
27.2171
25.0554
22.8202
20.6327
18.5857
16.7684
15.2651
14.1475
13.4581
13.1549
13.3299
14.1832
16.0604
19.603
26.1714
37.9077
59.7074
103.483
209.187
602.626
3574.31
34.7534
32.656
30.7427
28.9113
27.0854
25.2223
23.3148
21.401
19.5573
17.8547
16.3675
15.1661
14.2942
13.7345
13.5577
13.9202
15.1547
17.8561
23.2274
33.7022
54.7339
98.5127
205.496
601.042
3574.31
34.2841
32.2296
30.3513
28.5948
26.9082
25.2482
23.5905
21.9468
20.363
18.8462
17.4537
16.2481
15.2654
14.5282
14.0939
14.0807
14.7519
16.6749
20.9737
30.0576
49.2576
91.6622
199.686
597.966
3574.31
33.7694
31.8435
30.0371
28.3404
26.7373
25.2033
23.7157
22.2731
20.8992
19.5845
18.3382
17.1989
16.2036
15.3859
14.7942
14.5184
14.7576
15.9818
19.2405
26.8538
44.2403
85.0596
192.089
590.386
3574.31
33.0933
31.3933
29.7295
28.1222
26.5906
25.1383
23.7584
22.45
21.2264
20.0703
18.9682
17.9344
16.9933
16.1734
15.5128
15.078
15.0121
15.663
17.9184
23.8928
38.8713
77.1006
184.627
580.758
3574.31
32.1569
30.7692
29.3327
27.8766
26.4447
25.0688
23.7645
22.542
21.4162
20.3692
19.3801
18.4481
17.5839
16.8048
16.1364
15.6237
15.361
15.5786
16.8872
20.9789
32.3134
63.8066
160.411
545.497
3574.31
30.9131
29.8893
28.7528
27.5197
26.2421
24.9716
23.7466
22.5942
21.5299
20.5498
19.6345
18.7768
17.9793
17.2495
16.6015
16.0618
15.6857
15.6036
16.1484
18.2091
24.2309
40.5914
83.6647
202.619
582.372
29.3371
28.6879
27.8989
26.9546
25.8963
24.7832
23.6669
22.5917
21.5902
20.6641
19.7964
18.9869
18.235
17.5432
16.918
16.3726
15.936
15.6736
15.7426
16.5302
18.9892
25.4078
41.3329
78.0427
157.697
27.4562
27.1475
26.7144
26.1007
25.3192
24.4221
23.4663
22.5049
21.5884
20.7247
19.9102
19.1353
18.4094
17.7395
17.1276
16.5792
16.1081
15.7441
15.5559
15.7008
16.5364
18.8463
24.2496
35.5849
56.6033
25.341
25.2982
25.1858
24.9089
24.4398
23.8089
23.0696
22.279
21.4846
20.7106
19.96
19.233
18.5446
17.8927
17.283
16.7276
16.2315
15.8074
15.4832
15.3205
15.4499
16.1367
17.8761
21.4392
27.6105
23.0832
23.1908
23.329
23.3612
23.2151
22.8864
22.4255
21.8678
21.2481
20.5961
19.9349
19.2757
18.6294
18.0056
17.4151
16.863
16.3466
15.882
15.4814
15.1678
14.9881
15.0311
15.4517
16.471
18.2887
20.8077
20.931
21.1856
21.4504
21.6366
21.6466
21.4921
21.1993
20.7982
20.3187
19.7875
19.2256
18.6504
18.0758
17.5109
16.9684
16.4569
15.9814
15.5425
15.1518
14.8306
14.6092
14.5369
14.6803
15.0973
18.7181
18.7868
19.0597
19.4283
19.8116
20.1089
20.2374
20.2112
20.0512
19.7814
19.4259
19.0072
18.5453
18.0578
17.5584
17.0585
16.5682
16.089
15.6378
15.2233
14.8462
14.5171
14.2536
14.0781
14.0114
17.0218
17.0085
17.2335
17.6136
18.0634
18.4937
18.81
18.9946
19.0508
18.9894
18.8259
18.5779
18.263
17.8984
17.4991
17.0781
16.6466
16.2127
15.7847
15.3701
14.9713
14.6009
14.2719
13.9874
13.7531
16.0176
15.8782
16.0068
16.3057
16.6974
17.1118
17.4847
17.7797
17.9796
18.0796
18.0829
17.998
17.8365
17.6112
17.3351
17.0205
16.6788
16.3199
15.9517
15.5818
15.2164
14.8624
14.5267
14.213
13.9258
16.1766
15.8302
15.7563
15.8675
16.0984
16.3929
16.702
16.988
17.2256
17.3992
17.5015
17.5313
17.4921
17.3904
17.2344
17.0334
16.7969
16.5338
16.2524
15.9603
15.6644
15.3709
15.085
14.812
14.5571
18.2874
17.6853
17.3313
17.159
17.1203
17.176
17.2905
17.4332
17.5783
17.7058
17.8016
17.8574
17.8696
17.8379
17.765
17.6558
17.5162
17.3532
17.1734
16.9835
16.7895
16.5972
16.4117
16.2374
16.079
23.7251
22.8573
22.1893
21.6845
21.3073
21.0349
20.8485
20.7296
20.6588
20.6143
20.5809
20.5484
20.5099
20.4608
20.3992
20.3278
20.2507
20.1717
20.0946
20.0232
19.9611
19.9118
19.8781
19.8622
19.865
35.2487
34.1738
33.2407
32.4441
31.7478
31.1489
30.646
30.2379
29.9158
29.6344
29.3836
29.1635
28.972
28.8015
28.647
28.5285
28.4548
28.4264
28.4406
28.4948
28.5865
28.7138
28.8735
29.0603
29.2639
60.0756
59.0523
57.8718
56.8786
56.0084
55.2302
54.547
54.0148
53.6757
53.2642
52.8202
52.3945
51.9992
51.6033
51.1624
50.8611
50.7155
50.6978
50.7823
50.9506
51.1895
51.4877
51.8316
52.1951
52.5202
123.394
122.586
121.537
120.311
119.412
118.675
118.094
117.914
118.761
118.624
118.154
117.626
117.07
116.28
114.656
113.869
113.585
113.558
113.684
113.918
114.237
114.622
115.047
115.431
115.374
352.315
351.93
351.296
350.167
349.277
348.803
348.567
349.571
359.923
360.883
360.593
360.153
359.611
358.033
347.524
345.492
345.131
345.121
345.236
345.428
345.681
345.982
346.318
346.671
347
2113.96
2113.96
2113.96
2113.96
2113.96
2113.96
2113.96
2113.96
2113.96
2113.96
2113.96
2113.96
2113.96
2113.96
2113.96
2113.96
2113.97
2113.97
2113.97
2113.97
2113.97
2113.97
2113.97
2113.97
2113.97
2113.97
2113.97
2113.97
301.709
338.847
330.723
85.0292
102.665
107.561
35.3852
42.333
46.771
20.6314
23.1456
25.3617
15.7271
16.513
17.3491
14.0525
14.1785
14.3665
13.5874
13.4669
13.3838
13.693
13.4913
13.3163
14.3439
14.1522
13.9789
15.9512
15.8413
15.7477
19.8848
19.9198
19.9719
29.4601
29.6628
29.8815
52.7642
53.0076
53.2858
114.847
114.609
114.64
347.275
347.548
347.838
2113.97
2113.97
2113.97
2733.18
2029.07
2029.07
2029.07
2029.07
2029.07
2029.07
2029.07
2029.07
2029.07
2029.07
2029.07
2029.07
2029.07
2029.07
2029.07
2029.07
2029.07
2029.07
2029.07
2029.07
2029.07
2029.07
2029.07
2029.07
2029.07
2029.07
2029.07
2029.07
2029.07
2029.07
2029.07
2029.07
2029.07
2029.07
2029.07
2029.07
2029.07
2029.07
2029.07
2029.07
2029.07
2029.07
2029.07
2029.07
2029.07
2029.07
2029.07
2029.07
2029.07
2029.07
2029.07
2029.07
2029.07
2029.07
2029.07
2029.07
2029.07
2029.07
2029.07
2029.07
2029.07
2029.07
2029.07
2029.07
2029.07
2029.07
2029.07
2029.07
2029.07
2029.07
2029.07
2029.07
2029.07
2029.07
2029.07
2029.07
2029.07
2029.07
2733.18
3437.28
652.734
381.96
354.772
339.154
336.74
336.182
336.051
336.022
336.014
336.001
335.98
335.952
335.905
335.73
335.43
335.677
336.848
336.712
336.403
336.212
336.113
336.061
336.032
336.014
336.002
335.993
335.986
335.98
335.975
335.971
335.968
335.965
335.964
335.963
335.964
335.965
335.968
335.971
335.976
335.982
335.989
335.998
336.008
336.019
336.031
336.043
336.053
336.061
336.064
336.063
336.054
336.036
336.009
335.97
335.917
335.848
335.76
335.654
335.518
335.437
335.359
335.274
335.183
335.087
334.99
334.895
334.808
334.731
334.671
334.636
334.638
334.699
334.877
335.38
337.135
345.144
396.097
678.646
3437.28
3437.28
581.568
225.79
148.283
126.292
119.09
114.997
113.776
113.389
113.25
113.184
113.133
113.071
112.987
112.88
112.819
112.92
113.177
113.212
113.142
113.063
113.003
112.961
112.932
112.911
112.895
112.881
112.87
112.861
112.853
112.846
112.84
112.836
112.833
112.831
112.83
112.831
112.833
112.837
112.841
112.848
112.855
112.864
112.875
112.885
112.896
112.905
112.912
112.913
112.908
112.895
112.871
112.834
112.784
112.717
112.632
112.525
112.397
112.251
112.105
111.986
111.869
111.746
111.62
111.497
111.384
111.292
111.226
111.186
111.173
111.222
111.398
111.836
112.909
115.803
124.699
147.266
226.94
577.842
3437.28
3437.28
569.97
201.378
107.32
76.0637
64.2395
59.2153
57.0818
56.1571
55.7374
55.5258
55.3853
55.2249
54.9045
54.3857
54.1795
54.1856
54.3109
54.4011
54.3769
54.3074
54.2429
54.1937
54.1574
54.1298
54.1081
54.0901
54.075
54.0619
54.0506
54.0408
54.0326
54.0258
54.0205
54.0167
54.0144
54.0135
54.0139
54.0154
54.018
54.0219
54.0269
54.0327
54.0387
54.0443
54.0484
54.0497
54.0466
54.0369
54.0186
53.9898
53.9485
53.8931
53.8222
53.7342
53.6274
53.5008
53.3561
53.1984
53.0626
52.9366
52.8148
52.6993
52.5995
52.5317
52.5201
52.5956
52.7773
53.0168
53.2359
53.5715
54.2109
55.4626
58.0065
63.5
76.252
108.289
202.827
570.874
3437.28
3437.28
568.56
192.388
96.3891
61.0732
46.083
39.2026
35.9176
34.3059
33.4911
33.058
32.8012
32.6116
32.4298
32.251
32.1512
32.1217
32.1323
32.1411
32.1254
32.0941
32.0598
32.0286
32.0016
31.9783
31.9581
31.9401
31.924
31.9095
31.8965
31.8849
31.8747
31.866
31.8588
31.8531
31.8489
31.8462
31.8447
31.8442
31.8446
31.8458
31.8478
31.85
31.8517
31.8521
31.8501
31.8442
31.8326
31.813
31.7836
31.7425
31.6877
31.6179
31.5322
31.43
31.3104
31.1738
31.0237
30.8681
30.7266
30.5926
30.465
30.3478
30.2506
30.1871
30.1755
30.237
30.3941
30.6702
31.1137
31.8503
33.105
35.2978
39.283
46.9288
62.6687
98.4398
194.308
570.02
3437.28
3437.28
568.305
190.647
93.2175
55.9864
39.1882
30.9171
26.648
24.3806
23.1483
22.4598
22.0573
21.8036
21.628
21.5014
21.4208
21.3759
21.3519
21.3334
21.3115
21.2856
21.2586
21.2324
21.2079
21.1854
21.1647
21.1456
21.1279
21.1116
21.0966
21.083
21.0708
21.06
21.0507
21.043
21.0366
21.0316
21.0276
21.0244
21.0216
21.0193
21.0172
21.0147
21.0109
21.005
20.9958
20.982
20.9615
20.9324
20.8929
20.8415
20.7767
20.6977
20.6044
20.4972
20.3763
20.2429
20.1015
19.9646
19.8391
19.7247
19.6242
19.5446
19.4976
19.499
19.5692
19.7351
20.0325
20.5139
21.265
22.4347
24.2814
27.2753
32.3279
41.3411
58.6981
96.1231
193.201
570.063
3437.28
3437.28
568.217
190.157
91.8721
53.9255
36.2403
27.1276
22.165
19.3758
17.7754
16.84
16.2811
15.9368
15.7168
15.5725
15.4777
15.4154
15.3725
15.3392
15.3096
15.2812
15.2538
15.2276
15.2028
15.1794
15.1574
15.1368
15.1175
15.0995
15.0827
15.0673
15.0533
15.0407
15.0295
15.0197
15.0113
15.004
14.9977
14.9917
14.9858
14.9799
14.9737
14.9666
14.9575
14.9458
14.9303
14.9098
14.8824
14.8463
14.8
14.7425
14.6732
14.5917
14.4988
14.3957
14.2835
14.1646
14.0441
13.9355
13.8403
13.7624
13.7084
13.6882
13.7159
13.81
13.9951
14.3037
14.781
15.4922
16.538
18.0797
20.3891
23.9482
29.6712
39.4382
57.5677
95.667
193.182
570.235
3437.28
3437.28
568.152
189.799
90.3591
52.7436
34.7766
25.2227
19.8207
16.657
14.7648
13.6162
12.9092
12.4671
12.1853
12.0021
11.8804
11.7973
11.7379
11.6923
11.6546
11.6214
11.5911
11.5629
11.5366
11.5118
11.4884
11.4665
11.4458
11.4265
11.4085
11.3918
11.3766
11.3627
11.3501
11.3389
11.3288
11.3199
11.3116
11.3035
11.2952
11.2866
11.2772
11.2665
11.2535
11.2375
11.2177
11.1929
11.1615
11.1219
11.0732
11.0147
10.9464
10.8689
10.783
10.6907
10.5941
10.4967
10.4045
10.3274
10.2685
10.2337
10.2317
10.2747
10.3787
10.5647
10.86
11.3011
11.9381
12.8419
14.1187
15.9343
18.5625
22.4833
28.6
38.7693
57.2693
95.6558
193.33
570.41
3437.28
3437.28
568.107
189.622
89.7591
52.1466
34.0067
24.1942
18.5127
15.0894
12.978
11.6567
10.8206
10.2859
9.93956
9.7117
9.55866
9.45292
9.37691
9.31945
9.27348
9.23476
9.2008
9.17017
9.14203
9.11591
9.09152
9.06871
9.04737
9.02747
9.00898
8.99189
8.97618
8.96183
8.94877
8.93694
8.9262
8.91642
8.90725
8.89809
8.88861
8.8786
8.86763
8.85512
8.84035
8.82261
8.80113
8.77489
8.74265
8.70329
8.65622
8.60132
8.53899
8.47004
8.39579
8.31822
8.24016
8.16563
8.10232
8.05584
8.03101
8.03512
8.07814
8.17334
8.33801
8.59453
8.97213
9.50955
10.2595
11.2961
12.7283
14.7237
17.5558
21.7011
28.0543
38.4568
57.1646
95.7086
193.467
570.552
3437.28
3437.28
568.071
189.527
89.5017
51.8358
33.5786
23.605
17.7425
14.1405
11.8684
10.4121
9.46875
8.85222
8.44534
8.17343
7.98855
7.85981
7.76726
7.69802
7.64386
7.59959
7.56194
7.52894
7.49933
7.47237
7.44759
7.42471
7.40355
7.384
7.366
7.34948
7.3344
7.32069
7.30827
7.29703
7.28684
7.27751
7.26862
7.25972
7.25055
7.24083
7.23013
7.21792
7.2036
7.18654
7.16601
7.14118
7.11121
7.07543
7.03359
6.98579
6.93258
6.87493
6.81429
6.75282
6.69351
6.64052
6.60125
6.57946
6.58071
6.61275
6.68596
6.81396
7.01447
7.31057
7.73256
8.3208
9.13018
10.2376
11.7549
13.8524
16.8056
21.0903
27.5978
38.1609
57.023
95.6983
193.548
570.664
3437.28
3437.28
568.035
189.461
89.3507
51.6544
33.3253
23.2509
17.2704
13.5457
11.1569
9.59726
8.56728
7.88123
7.4204
7.10765
6.89239
6.74137
6.63271
6.55203
6.48996
6.4404
6.39942
6.3645
6.33402
6.30695
6.28262
6.26061
6.24064
6.22251
6.20611
6.19131
6.17804
6.16619
6.15565
6.14629
6.13794
6.13036
6.1232
6.11614
6.1089
6.10118
6.09257
6.08262
6.07082
6.0566
6.03937
6.01851
5.99346
5.96386
5.92962
5.89097
5.84847
5.8031
5.75628
5.71008
5.66729
5.63268
5.61092
5.60582
5.62288
5.66964
5.75616
5.89571
6.10581
6.40958
6.83787
7.43225
8.24983
9.37075
10.9111
13.0465
16.0571
20.4231
27.0369
37.7288
56.7339
95.5528
193.528
570.724
3437.28
3437.28
568.018
189.413
89.2559
51.5427
33.171
23.0342
16.977
13.1684
10.6957
9.05781
7.95906
7.21529
6.7078
6.35842
6.11513
5.94313
5.81911
5.72751
5.65796
5.60355
5.55973
5.52349
5.49284
5.46646
5.44349
5.42332
5.40558
5.38996
5.37628
5.36437
5.35409
5.34531
5.33787
5.33162
5.32638
5.32189
5.31789
5.3141
5.31024
5.30602
5.30109
5.29504
5.28744
5.27783
5.26574
5.25072
5.2324
5.21057
5.18522
5.1566
5.12522
5.09195
5.05804
5.02533
4.99643
4.97557
4.9654
4.96959
4.99318
5.04301
5.1283
5.26141
5.45896
5.74343
6.14549
6.70738
7.48807
8.57127
10.0786
12.1931
15.2035
19.5984
26.2776
37.0744
56.2208
95.2061
193.354
570.694
3437.28
3437.28
567.999
189.379
89.2105
51.4782
33.0814
22.9076
16.8021
12.9374
10.4052
8.709
7.55649
6.76558
6.21841
5.83679
5.5681
5.37664
5.23818
5.13623
5.05963
5.00079
4.9546
4.91758
4.88739
4.86244
4.84162
4.82418
4.80958
4.79745
4.78749
4.77948
4.77322
4.76854
4.76526
4.76319
4.76215
4.76189
4.76219
4.76279
4.76344
4.76387
4.76377
4.76278
4.76056
4.75674
4.75093
4.74282
4.73214
4.71875
4.70268
4.68411
4.66347
4.64145
4.61904
4.59793
4.5808
4.56947
4.56629
4.5744
4.59807
4.64315
4.71759
4.83234
5.00248
5.249
5.60138
6.10136
6.80866
7.80979
9.23214
11.268
14.2181
18.5832
25.2765
36.1418
55.4171
94.5869
192.959
570.523
3437.28
3437.28
567.973
189.348
89.1781
51.4432
33.0388
22.8485
16.7165
12.8169
10.2444
8.50604
7.31233
6.48347
5.90297
5.49323
5.20165
4.99219
4.84008
4.72821
4.64481
4.58176
4.53343
4.49595
4.46662
4.44355
4.42543
4.41131
4.40051
4.39253
4.38699
4.38358
4.38207
4.38221
4.3838
4.38664
4.39052
4.39522
4.40052
4.4062
4.41202
4.41773
4.42306
4.42773
4.43143
4.43387
4.43475
4.43382
4.4309
4.42586
4.41872
4.40962
4.39884
4.38693
4.37494
4.36413
4.35571
4.3511
4.35214
4.36131
4.38199
4.41884
4.47838
4.56977
4.70603
4.90582
5.19622
5.61676
6.22584
7.1104
8.40176
10.3029
13.1286
17.392
24.0282
34.9019
54.2664
93.6212
192.26
570.14
3437.28
3437.28
567.945
189.318
89.1571
51.4345
33.0394
22.8507
16.7107
12.7939
10.197
8.42971
7.20532
6.34633
5.73794
5.30361
4.99122
4.76483
4.59946
4.47767
4.3873
4.31979
4.26912
4.23102
4.20247
4.1813
4.16594
4.15526
4.14841
4.14476
4.14384
4.14525
4.14868
4.15386
4.16054
4.16848
4.17747
4.18728
4.19772
4.20856
4.2196
4.23061
4.24137
4.25162
4.2611
4.26958
4.27682
4.28264
4.28687
4.28943
4.29031
4.28964
4.28769
4.28486
4.28162
4.27867
4.27685
4.27719
4.28103
4.29018
4.30712
4.33537
4.38
4.44837
4.55121
4.70446
4.93202
5.27004
5.77369
6.52772
7.66317
9.38468
12.0172
16.0988
22.5881
33.3752
52.7412
92.2687
191.181
569.447
3437.28
3437.28
567.912
189.29
89.1543
51.4599
33.0919
22.9228
16.7918
12.8732
10.2652
8.48
7.23351
6.35063
5.71854
5.26207
4.93005
4.68697
4.50793
4.37542
4.27709
4.20413
4.15016
4.11055
4.08199
4.06199
4.04873
4.04088
4.0374
4.03754
4.04071
4.04642
4.05432
4.06404
4.07528
4.0878
4.10136
4.11574
4.13071
4.1461
4.16171
4.17733
4.19275
4.20776
4.22218
4.23583
4.24851
4.26006
4.27033
4.27926
4.28681
4.29299
4.29795
4.30188
4.30509
4.30802
4.31121
4.31535
4.32135
4.33036
4.34405
4.36488
4.39661
4.44483
4.518
4.6291
4.79823
5.05692
5.45516
6.0726
7.03684
8.55337
10.9571
14.8098
21.1067
31.7824
51.1481
90.7246
189.82
568.192
3437.28
3437.28
567.869
189.268
89.1873
51.5421
33.2222
23.0913
16.9853
13.0781
10.4696
8.67464
7.41204
6.50923
5.85552
5.37748
5.0253
4.76432
4.56975
4.42421
4.31563
4.23505
4.17571
4.1326
4.10221
4.08166
4.06884
4.06219
4.06051
4.0629
4.06863
4.07714
4.08797
4.10071
4.11503
4.13066
4.14735
4.16485
4.18292
4.20139
4.22019
4.23903
4.25769
4.27601
4.29378
4.31085
4.32711
4.34244
4.35674
4.36993
4.38195
4.39278
4.40247
4.41112
4.41892
4.42613
4.43313
4.44039
4.44844
4.45783
4.46935
4.48457
4.50616
4.53826
4.58724
4.66315
4.78205
4.97004
5.2702
5.75408
6.54126
7.8323
9.9658
13.5233
19.544
30.0356
49.4089
89.3077
189.208
567.364
3437.28
3437.28
567.82
189.274
89.3035
51.7352
33.4863
23.4111
17.3429
13.4557
10.8516
9.05044
7.77348
6.85077
6.17393
5.67119
5.29525
5.013
4.79861
4.63492
4.51173
4.41978
4.35164
4.30182
4.2663
4.24194
4.22638
4.21786
4.21502
4.21678
4.22228
4.23088
4.24207
4.25531
4.27017
4.28642
4.30394
4.32225
4.34104
4.36009
4.37912
4.39812
4.41702
4.43571
4.45409
4.47206
4.48953
4.50639
4.52255
4.53793
4.55243
4.566
4.57863
4.59035
4.60126
4.61158
4.62163
4.63182
4.64247
4.65331
4.66366
4.6747
4.68857
4.70834
4.73873
4.78717
4.86586
4.99526
5.21048
5.57244
6.18786
7.24435
9.07311
12.2644
17.8991
28.0829
47.4283
88.0852
191.609
566.505
3437.28
3437.28
567.791
189.375
89.6396
52.1635
33.9948
23.9813
17.9538
14.0852
11.4779
9.666
8.36917
7.4198
6.71225
6.17796
5.76882
5.45854
5.22216
5.04106
4.90238
4.79649
4.7161
4.65567
4.61104
4.57891
4.55677
4.54269
4.53523
4.53304
4.53505
4.54061
4.54936
4.56027
4.57269
4.58608
4.59995
4.61428
4.62894
4.6438
4.65874
4.67368
4.68854
4.70329
4.71786
4.73223
4.74635
4.76018
4.77371
4.78688
4.79968
4.81205
4.82399
4.83551
4.84668
4.85773
4.86915
4.88165
4.89403
4.90411
4.9117
4.91812
4.92513
4.93504
4.95127
4.97913
5.02744
5.11143
5.25808
5.51633
5.97606
6.8036
8.3081
11.0673
16.1793
25.8277
44.7923
85.4849
189.743
565.666
3437.28
3437.28
567.86
189.758
90.6043
53.0969
34.9448
24.9645
18.9625
15.0957
12.4723
10.6226
9.27729
8.27575
7.51373
6.93607
6.4935
6.15187
5.8864
5.67904
5.51666
5.38938
5.28977
5.21221
5.15244
5.10683
5.07253
5.04758
5.03087
5.02017
5.01398
5.01107
5.01033
5.01154
5.01437
5.01847
5.02351
5.02927
5.03561
5.04237
5.04945
5.05676
5.06425
5.07187
5.07959
5.08739
5.09526
5.10316
5.11111
5.11907
5.12703
5.13494
5.14278
5.15054
5.15832
5.1665
5.17641
5.18639
5.19364
5.19738
5.1985
5.19811
5.19751
5.19839
5.20314
5.21549
5.2416
5.29223
5.38705
5.56301
5.89116
6.5098
7.69049
9.9697
14.4174
23.2546
41.4541
81.9873
188.656
582.158
3437.28
3437.28
568.256
190.872
93.0296
55.0056
36.7551
26.7071
20.6208
16.6628
13.9431
11.9943
10.5459
9.463
8.64097
8.00819
7.51499
7.12665
6.81838
6.57221
6.37484
6.21588
6.08744
5.98376
5.90122
5.83474
5.78081
5.73659
5.69944
5.6685
5.6428
5.6214
5.60346
5.5884
5.57574
5.56509
5.55611
5.54855
5.5422
5.53689
5.53252
5.52897
5.52618
5.52409
5.52267
5.52189
5.52169
5.52201
5.52281
5.52402
5.52552
5.5271
5.52854
5.52972
5.53052
5.53068
5.52999
5.52714
5.52187
5.51456
5.50574
5.49607
5.48644
5.47804
5.47254
5.47252
5.48221
5.50901
5.56658
5.6813
5.90569
6.3464
7.22354
9.0006
12.6689
20.3817
37.0958
75.7546
179.193
557.731
3437.28
3437.28
569.572
194.239
96.7313
58.3248
39.7132
29.3734
23.0426
18.8667
15.9388
13.81
12.2372
11.0496
10.1351
9.41964
8.85221
8.39689
8.02797
7.72732
7.48187
7.27909
7.10995
6.96736
6.84504
6.74006
6.64963
6.57126
6.50284
6.44276
6.38974
6.3427
6.30073
6.26312
6.22927
6.19872
6.17107
6.146
6.12325
6.10262
6.08397
6.06714
6.05199
6.03843
6.02638
6.01574
6.00622
5.99752
5.98947
5.98184
5.97397
5.96478
5.95339
5.93978
5.92447
5.90792
5.8904
5.87193
5.85257
5.83252
5.81208
5.79171
5.77204
5.75392
5.73857
5.72782
5.72461
5.73399
5.76525
5.83652
5.98463
6.28626
6.91057
8.23365
11.104
17.4764
32.0706
67.5412
165.779
547.045
3437.29
3437.28
572.438
201.955
101.482
62.3576
43.3611
32.6967
26.0655
21.5928
18.4033
16.0799
14.3419
13.0101
11.969
11.1434
10.4789
9.93635
9.48789
9.1125
8.79394
8.52218
8.28887
8.08713
7.91134
7.75719
7.62126
7.50074
7.3933
7.29705
7.21042
7.1321
7.06103
6.99636
6.93741
6.8836
6.83441
6.78941
6.74825
6.7107
6.67651
6.64529
6.6166
6.59018
6.56586
6.54303
6.52025
6.49599
6.46987
6.4424
6.41401
6.3848
6.35476
6.3239
6.29232
6.26022
6.22775
6.19509
6.16241
6.1299
6.09786
6.06664
6.03674
6.00882
5.98381
5.96308
5.94871
5.94422
5.95594
5.99604
6.08792
6.28457
6.70577
7.62946
9.71469
14.5637
26.2584
56.281
146.775
517.94
3437.31
659.589
268.96
142.288
88.2715
60.7039
45.0182
35.3127
28.8881
24.368
21.0334
18.5439
16.6426
15.1597
13.9805
13.024
12.2363
11.5802
11.0278
10.5582
10.1555
9.80732
9.50421
9.23858
9.00429
8.79648
8.61122
8.4453
8.29609
8.16138
8.03928
7.92822
7.82694
7.73451
7.65017
7.57321
7.5028
7.4381
7.37859
7.32395
7.27353
7.2257
7.17831
7.13042
7.08244
7.03484
6.98769
6.9408
6.894
6.84728
6.80064
6.75412
6.70773
6.66148
6.61541
6.5696
6.52414
6.47915
6.43478
6.39121
6.34866
6.30744
6.26794
6.23068
6.19637
6.16605
6.14123
6.12441
6.11994
6.13477
6.18425
6.30189
6.56453
7.15425
8.51139
11.7162
19.461
38.6672
89.6869
237.733
731.611
219.832
144.122
99.2441
72.1959
55.1065
43.8024
36.0102
30.4378
26.3145
23.1612
20.6587
18.6704
17.0839
15.7967
14.7326
13.8412
13.0873
12.4442
11.8914
11.4128
10.9953
10.6288
10.3049
10.0172
9.76037
9.53023
9.32333
9.13677
8.96793
8.81446
8.67437
8.54622
8.42914
8.32237
8.22465
8.13364
8.04657
7.96208
7.88031
7.80158
7.72577
7.65246
7.58122
7.5118
7.44406
7.37789
7.31315
7.24971
7.18744
7.12624
7.06604
7.00676
6.94837
6.89084
6.83417
6.7784
6.72359
6.66981
6.61719
6.56588
6.51611
6.46815
6.42239
6.37937
6.33983
6.30485
6.27618
6.25646
6.25001
6.26589
6.32351
6.46709
6.80143
7.57958
9.4145
13.7744
24.0941
48.7117
105.588
225.704
96.1473
80.455
66.3531
54.9828
46.1117
39.2447
33.9168
29.7461
26.4408
23.7839
21.6151
19.8256
18.3341
17.0699
15.9751
15.0347
14.229
13.5354
12.9345
12.4106
11.9499
11.5422
11.1795
10.8553
10.5647
10.3036
10.0686
9.85643
9.6635
9.48598
9.32053
9.16531
9.01967
8.88319
8.75531
8.63514
8.52163
8.41382
8.31103