/*--------------------------------*- C++ -*----------------------------------*\
| =========                 |                                                 |
| \\      /  F ield         | OpenFOAM: The Open Source CFD Toolbox           |
|  \\    /   O peration     | Version:  v2012                                 |
|   \\  /    A nd           | Website:  www.openfoam.com                      |
|    \\/     M anipulation  |                                                 |
\*---------------------------------------------------------------------------*/
FoamFile
{
    version     2.0;
    format      ascii;
    class       volScalarField;
    location    "2000";
    object      p;
}
// * * * * * * * * * * * * * * * * * * * * * * * * * * * * * * * * * * * * * //

dimensions      [0 2 -2 0 0 0 0];


internalField   nonuniform List<scalar> 
6502
(
2.6648
2.42304
2.29153
2.23831
2.21616
2.21603
2.23793
2.2909
2.4222
2.66383
2.32042
2.26702
2.23315
2.21006
2.19515
2.19501
2.20963
2.23247
2.26613
2.31943
2.12844
2.13524
2.14029
2.14081
2.13724
2.13707
2.14033
2.13951
2.13415
2.12722
2.03544
2.04729
2.06204
2.06795
2.06909
2.06886
2.06725
2.0609
2.04583
2.03385
1.96809
1.98143
1.99811
2.00458
2.0069
2.00658
2.00361
1.99656
1.97949
1.96601
1.9123
1.9233
1.93743
1.94556
1.94894
1.94855
1.94435
1.93538
1.92072
1.90956
1.86572
1.87301
1.88377
1.89205
1.89477
1.8941
1.8901
1.88085
1.86949
1.86206
1.82511
1.82983
1.83703
1.84399
1.84576
1.8448
1.84131
1.83309
1.82503
1.8202
1.78737
1.79042
1.79459
1.79902
1.80052
1.79932
1.79563
1.78922
1.78396
1.78081
1.75125
1.75325
1.75554
1.75774
1.75809
1.75648
1.75283
1.74807
1.74455
1.74245
1.71652
1.7179
1.71917
1.71994
1.71854
1.716
1.71287
1.70898
1.70622
1.70472
1.68319
1.68417
1.68474
1.68465
1.68221
1.67857
1.67513
1.67109
1.66854
1.66737
1.65126
1.65199
1.65191
1.6509
1.64779
1.64322
1.63847
1.63376
1.63114
1.63016
1.62079
1.62135
1.62064
1.61834
1.61407
1.60831
1.60203
1.59646
1.59356
1.59269
1.59193
1.59239
1.59107
1.58725
1.58131
1.57391
1.56569
1.55882
1.55529
1.55441
1.56492
1.56534
1.56347
1.55808
1.55005
1.54036
1.52946
1.52046
1.51575
1.51464
1.54006
1.5405
1.53814
1.53115
1.52068
1.50798
1.4934
1.48107
1.47424
1.47248
1.51769
1.51825
1.51547
1.50688
1.49375
1.4773
1.45786
1.44051
1.42979
1.42649
1.49821
1.49899
1.49593
1.48592
1.47014
1.44918
1.42415
1.39977
1.38153
1.37477
1.482
1.4831
1.48003
1.46902
1.45104
1.4258
1.39561
1.36233
1.32958
1.30966
1.46933
1.47087
1.46818
1.4571
1.43839
1.41142
1.3788
1.34107
1.30022
1.26447
1.46047
1.46251
1.46066
1.45074
1.43333
1.4084
1.37952
1.34976
1.32527
1.31021
1.45545
1.45798
1.45716
1.44896
1.43378
1.41222
1.38852
1.36562
1.34923
1.34015
1.45407
1.45682
1.45694
1.45032
1.43708
1.41784
1.3963
1.37524
1.35898
1.34912
1.45575
1.45862
1.45949
1.45407
1.44224
1.42445
1.40277
1.3827
1.36632
1.35583
1.45987
1.46297
1.4644
1.45995
1.44925
1.43282
1.41145
1.39183
1.37505
1.36337
1.46608
1.46938
1.47127
1.46769
1.458
1.44271
1.42262
1.40225
1.38394
1.37029
1.47402
1.47746
1.47972
1.47693
1.46815
1.45353
1.43406
1.41325
1.39292
1.37702
1.48331
1.48684
1.48939
1.48731
1.47941
1.46538
1.44595
1.42418
1.40259
1.3846
1.49361
1.49718
1.49996
1.49855
1.49157
1.47834
1.45923
1.43602
1.41362
1.39353
1.50461
1.50818
1.51115
1.51039
1.5044
1.49216
1.47381
1.45053
1.42688
1.40424
1.51602
1.51955
1.52265
1.52252
1.51762
1.50659
1.48928
1.46661
1.44152
1.41691
1.52758
1.53103
1.53422
1.53467
1.53087
1.52125
1.50519
1.48335
1.4576
1.4317
1.53907
1.54239
1.54561
1.54658
1.54388
1.53582
1.52137
1.50081
1.4756
1.44891
1.55028
1.55344
1.55662
1.55803
1.55637
1.54996
1.53748
1.5187
1.49454
1.46735
1.56104
1.56401
1.5671
1.56884
1.56814
1.56336
1.55302
1.53648
1.51414
1.48745
1.5712
1.57398
1.57692
1.57889
1.57899
1.57575
1.56764
1.55368
1.53387
1.50915
1.58057
1.58327
1.586
1.58807
1.58882
1.58694
1.58097
1.56975
1.55281
1.53062
1.5892
1.5918
1.59427
1.59636
1.59757
1.59683
1.5928
1.58425
1.57043
1.55128
1.5973
1.59952
1.6017
1.60375
1.60527
1.6054
1.60301
1.59694
1.58625
1.57053
1.60481
1.60646
1.60833
1.61029
1.61197
1.61271
1.61163
1.60769
1.59993
1.5877
1.61122
1.61265
1.6143
1.61609
1.61776
1.61889
1.61876
1.61653
1.61131
1.60236
1.61689
1.61813
1.61956
1.62112
1.62272
1.62404
1.62455
1.62361
1.62045
1.61435
1.62216
1.62284
1.62403
1.62542
1.62691
1.62827
1.62916
1.62909
1.62747
1.62367
1.62652
1.62698
1.62796
1.62915
1.63047
1.63177
1.63282
1.63329
1.63274
1.63067
1.63012
1.63063
1.63146
1.63242
1.63353
1.63471
1.63579
1.63655
1.63668
1.63584
1.63349
1.63384
1.63446
1.63525
1.63617
1.63718
1.63819
1.63906
1.6396
1.63956
1.63652
1.63668
1.63707
1.63772
1.63846
1.63929
1.64018
1.64104
1.64178
1.64222
1.63906
1.63915
1.63946
1.63996
1.64051
1.64114
1.64188
1.64267
1.64346
1.64417
1.64144
1.64147
1.64163
1.64195
1.64234
1.64281
1.64339
1.64408
1.64486
1.64568
1.64365
1.64363
1.64362
1.64376
1.64404
1.64436
1.64482
1.6454
1.64613
1.64699
1.64565
1.64554
1.64546
1.64551
1.64564
1.64586
1.64622
1.64673
1.6474
1.64826
1.64745
1.64725
1.6471
1.64707
1.64716
1.64735
1.64763
1.64808
1.64872
1.64958
1.64904
1.64877
1.64855
1.64848
1.64857
1.64876
1.64903
1.64946
1.6501
1.65099
1.65035
1.65003
1.64978
1.64971
1.6498
1.64999
1.65031
1.65079
1.65148
1.65242
1.65126
1.65095
1.6507
1.65065
1.65076
1.65101
1.6514
1.65195
1.6527
1.65376
1.65187
1.65154
1.65129
1.65127
1.65142
1.65173
1.6522
1.65287
1.65375
1.6549
1.65207
1.65174
1.65152
1.65152
1.65171
1.65207
1.65262
1.6534
1.65442
1.65565
1.65181
1.65154
1.65133
1.65133
1.65154
1.65191
1.6525
1.65334
1.65444
1.6558
1.65142
1.65116
1.65093
1.65101
1.65123
1.65151
1.65209
1.65296
1.65411
1.65556
1.24085
1.28166
1.31112
1.32635
1.33552
1.34149
1.34564
1.34895
1.3516
1.35381
1.35571
1.35736
1.35879
1.36001
1.36101
1.36179
1.36233
1.36264
1.36272
1.36264
1.36244
1.36216
1.36185
1.36157
1.36141
1.30647
1.31628
1.32459
1.33128
1.33711
1.34188
1.34579
1.3488
1.35122
1.3533
1.35512
1.35673
1.35813
1.35933
1.36032
1.3611
1.36167
1.36201
1.36217
1.36215
1.36199
1.36174
1.36147
1.36123
1.36104
1.33563
1.3353
1.33638
1.33862
1.34119
1.34391
1.34662
1.34903
1.35119
1.35304
1.35471
1.35621
1.35756
1.35873
1.35972
1.36051
1.3611
1.36148
1.36166
1.36168
1.36156
1.36135
1.3611
1.36081
1.36051
1.34468
1.34369
1.34363
1.3443
1.34544
1.3468
1.34827
1.34988
1.35149
1.35308
1.35456
1.35592
1.35718
1.35833
1.35932
1.36013
1.36075
1.36117
1.36138
1.36141
1.36129
1.36106
1.36075
1.36036
1.35995
1.35119
1.34947
1.34865
1.34836
1.3486
1.34918
1.34998
1.35089
1.35193
1.35312
1.35435
1.35558
1.35676
1.35788
1.35889
1.35975
1.36042
1.3609
1.36115
1.3612
1.36108
1.36081
1.36042
1.35991
1.35938
1.35721
1.35406
1.35231
1.35134
1.35094
1.35093
1.35119
1.35166
1.35228
1.35309
1.35405
1.35509
1.3562
1.3573
1.35834
1.35927
1.36003
1.36059
1.36092
1.36102
1.3609
1.36061
1.36016
1.35956
1.35902
1.36215
1.35755
1.35494
1.35344
1.35257
1.35211
1.35196
1.35205
1.35235
1.35286
1.35356
1.35443
1.35543
1.35651
1.3576
1.35863
1.35952
1.36021
1.36066
1.36084
1.36076
1.36045
1.35994
1.35926
1.35868
1.36677
1.36062
1.357
1.35488
1.35359
1.35277
1.35228
1.35206
1.35207
1.35232
1.3528
1.35351
1.35442
1.35547
1.35661
1.35776
1.35882
1.3597
1.36032
1.36063
1.36063
1.36034
1.35978
1.35897
1.35822
1.37198
1.36392
1.35896
1.35599
1.35417
1.35297
1.35217
1.35167
1.35142
1.35143
1.3517
1.35226
1.35309
1.35413
1.35531
1.35661
1.35788
1.35901
1.35987
1.3604
1.36054
1.3603
1.35972
1.35879
1.35789
1.37832
1.36798
1.36127
1.35712
1.35455
1.35287
1.35171
1.35091
1.3504
1.35017
1.35024
1.35064
1.35137
1.35242
1.35368
1.35512
1.35666
1.3581
1.35929
1.36012
1.36049
1.36039
1.35981
1.35877
1.35772
1.38625
1.37331
1.36443
1.35869
1.35504
1.35267
1.35105
1.34989
1.34909
1.34861
1.34846
1.34867
1.34928
1.3503
1.35169
1.35332
1.35512
1.35695
1.35857
1.35981
1.36053
1.36065
1.36015
1.35902
1.3578
1.39625
1.38046
1.36899
1.3612
1.35609
1.35272
1.35043
1.3488
1.34763
1.34685
1.34646
1.34647
1.34694
1.34789
1.34932
1.35118
1.35332
1.35557
1.35772
1.35951
1.36071
1.36118
1.36085
1.35968
1.35831
1.40859
1.38987
1.3755
1.36523
1.35821
1.35346
1.35022
1.34793
1.34629
1.34513
1.34444
1.34422
1.34452
1.34538
1.34684
1.34885
1.35133
1.35408
1.35684
1.3593
1.36114
1.36213
1.3621
1.36095
1.35945
1.42351
1.40198
1.38457
1.37144
1.36204
1.35548
1.35092
1.3477
1.3454
1.34377
1.3427
1.34219
1.34229
1.34304
1.34449
1.34665
1.34944
1.35269
1.35613
1.35937
1.36203
1.36371
1.36413
1.3631
1.36154
1.44083
1.41707
1.39668
1.38047
1.36829
1.35947
1.35317
1.34869
1.34548
1.3432
1.34166
1.34081
1.34066
1.34127
1.34269
1.34496
1.34804
1.35178
1.35591
1.36002
1.36365
1.36625
1.36728
1.36652
1.36497
1.46059
1.43515
1.41213
1.39287
1.37767
1.36618
1.35772
1.35159
1.34716
1.344
1.34184
1.34055
1.34011
1.34056
1.34193
1.34429
1.34764
1.35186
1.35668
1.36166
1.36637
1.37013
1.37198
1.37164
1.37024
1.48246
1.45603
1.43102
1.40902
1.39079
1.37638
1.36538
1.35718
1.35118
1.34686
1.34387
1.34202
1.34121
1.34144
1.34278
1.34525
1.34887
1.35357
1.35913
1.36511
1.37087
1.37572
1.37865
1.37901
1.37801
1.50532
1.47907
1.45303
1.42896
1.40802
1.39068
1.3769
1.3663
1.35835
1.35254
1.34847
1.34586
1.34457
1.34454
1.34579
1.34837
1.35228
1.35749
1.36381
1.37084
1.37787
1.38421
1.38832
1.38956
1.3892
1.52835
1.50341
1.47747
1.45231
1.42933
1.4094
1.39288
1.37968
1.36948
1.36186
1.3564
1.3528
1.35084
1.35043
1.35154
1.35421
1.35842
1.36414
1.3712
1.37925
1.38775
1.39577
1.40167
1.40429
1.40466
1.55068
1.52802
1.50335
1.47826
1.45424
1.43243
1.41353
1.39781
1.38524
1.37554
1.3684
1.36352
1.36067
1.3597
1.36054
1.36321
1.36769
1.37394
1.38182
1.39099
1.4008
1.41028
1.41869
1.42359
1.42505
1.57135
1.55176
1.52942
1.50563
1.48177
1.45909
1.43855
1.42075
1.40594
1.3941
1.38507
1.37864
1.37461
1.37282
1.37318
1.37566
1.38027
1.38696
1.39563
1.40601
1.41747
1.42899
1.43956
1.44754
1.45174
1.58961
1.57355
1.55436
1.53296
1.51051
1.48818
1.46705
1.44792
1.43138
1.41761
1.40668
1.39854
1.39307
1.39015
1.3897
1.39168
1.39609
1.40292
1.41213
1.42354
1.43677
1.45096
1.46493
1.47773
1.48686
1.605
1.59256
1.57699
1.55881
1.53885
1.51811
1.49766
1.47835
1.46078
1.44548
1.43292
1.42316
1.41612
1.41179
1.41015
1.41119
1.41488
1.42126
1.43031
1.44199
1.45612
1.47237
1.49031
1.51026
1.52942
1.61728
1.60823
1.59633
1.58176
1.565
1.54675
1.52756
1.50993
1.4932
1.4767
1.46278
1.45167
1.44315
1.43728
1.43415
1.43378
1.43615
1.44127
1.44912
1.45965
1.47269
1.48799
1.50514
1.5238
1.54192
1.62666
1.62054
1.61204
1.60111
1.58797
1.57311
1.55711
1.54055
1.52402
1.50868
1.49508
1.48304
1.4731
1.46581
1.46115
1.45912
1.45971
1.46294
1.46874
1.47699
1.48744
1.49969
1.51308
1.52654
1.53808
1.63363
1.62987
1.62427
1.61665
1.60703
1.59561
1.58275
1.56877
1.5544
1.53997
1.52751
1.51628
1.50547
1.49686
1.49065
1.48694
1.48559
1.4866
1.48993
1.49537
1.50264
1.51131
1.52067
1.52972
1.53713
1.63864
1.63666
1.63338
1.62856
1.62209
1.61399
1.60442
1.59367
1.5822
1.57038
1.55869
1.54719
1.53729
1.52904
1.52199
1.51675
1.51336
1.51219
1.51302
1.5156
1.51972
1.525
1.53086
1.53659
1.54144
1.64216
1.64146
1.63991
1.6373
1.63347
1.62834
1.62191
1.6143
1.60574
1.5965
1.58688
1.57733
1.56825
1.55959
1.55233
1.54659
1.54213
1.53939
1.53795
1.53785
1.53912
1.54144
1.5443
1.54727
1.54995
1.64465
1.64479
1.64447
1.64351
1.64173
1.63901
1.63527
1.6305
1.62476
1.61819
1.61102
1.60354
1.59598
1.5886
1.5819
1.57578
1.57028
1.5659
1.5629
1.56122
1.56052
1.56045
1.56069
1.56125
1.56198
1.64647
1.64716
1.64766
1.64783
1.64755
1.64667
1.64508
1.64268
1.63945
1.63541
1.63065
1.6253
1.61955
1.6136
1.60773
1.60219
1.59702
1.59242
1.58829
1.58452
1.58171
1.57995
1.57863
1.57766
1.57688
1.64795
1.64895
1.64997
1.65091
1.65165
1.65209
1.65209
1.65154
1.65035
1.64846
1.64586
1.64258
1.63872
1.63439
1.62974
1.62498
1.62019
1.61562
1.61136
1.60731
1.60369
1.60041
1.59721
1.59445
1.59212
1.64929
1.65048
1.65181
1.65322
1.65464
1.65597
1.65709
1.65788
1.65822
1.65801
1.65718
1.6557
1.65357
1.65083
1.64756
1.64386
1.63986
1.63567
1.63145
1.62723
1.62311
1.61915
1.6153
1.61165
1.60827
1.65066
1.65195
1.65345
1.65515
1.65699
1.65889
1.66075
1.66245
1.66386
1.66488
1.66539
1.66532
1.66461
1.66324
1.66124
1.65865
1.65554
1.65201
1.64816
1.64408
1.63985
1.63559
1.63132
1.62711
1.62299
1.6521
1.65346
1.65507
1.65694
1.65902
1.66127
1.66358
1.66586
1.66798
1.66983
1.67127
1.67222
1.67257
1.67228
1.67131
1.66968
1.66741
1.66458
1.66124
1.65749
1.65342
1.64911
1.64464
1.64009
1.6355
1.65361
1.65502
1.65671
1.65868
1.66091
1.66335
1.66593
1.66855
1.6711
1.67346
1.6755
1.67712
1.6782
1.67867
1.67847
1.67758
1.676
1.67377
1.67092
1.66755
1.66372
1.65952
1.65505
1.65037
1.64557
1.65507
1.65656
1.65832
1.66036
1.66269
1.66525
1.66798
1.67079
1.67357
1.67621
1.6786
1.68061
1.68214
1.6831
1.68342
1.68304
1.68195
1.68017
1.67773
1.67468
1.67109
1.66705
1.66265
1.65796
1.65307
1.65628
1.65787
1.65974
1.66188
1.66426
1.66692
1.66976
1.67267
1.67556
1.67835
1.68091
1.68313
1.6849
1.68613
1.68675
1.68668
1.6859
1.68441
1.68224
1.67943
1.67604
1.67214
1.66781
1.66315
1.65823
1.65712
1.6589
1.66094
1.66315
1.66556
1.66829
1.67126
1.67424
1.67717
1.68003
1.68269
1.68498
1.68686
1.68823
1.68899
1.68907
1.68845
1.68712
1.6851
1.68242
1.67914
1.67533
1.67105
1.66641
1.66148
1.65741
1.65932
1.66151
1.66398
1.66669
1.66959
1.67266
1.67573
1.6787
1.68164
1.68441
1.68679
1.68877
1.69027
1.69111
1.69124
1.69067
1.68939
1.68741
1.68476
1.68149
1.67767
1.67337
1.66868
1.66368
1.65727
1.65923
1.66156
1.66433
1.66739
1.67045
1.67348
1.67674
1.68023
1.68343
1.68624
1.68879
1.69076
1.69205
1.69285
1.69309
1.69261
1.69137
1.68938
1.6867
1.68338
1.67949
1.67511
1.67032
1.66521
1.55026
1.54368
1.53786
1.54262
1.54112
1.53949
1.54102
1.54217
1.54281
1.54447
1.54603
1.54712
1.55176
1.55284
1.55364
1.56245
1.56263
1.56272
1.57599
1.57503
1.57406
1.59005
1.58829
1.58667
1.60522
1.60242
1.59975
1.61921
1.61574
1.61234
1.63125
1.62734
1.62348
1.64104
1.63682
1.63261
1.64839
1.64398
1.63954
1.65348
1.64896
1.64439
1.65667
1.65208
1.64743
1.65878
1.65409
1.64934
1.6602
1.65539
1.65051
1.55754
1.55752
1.55747
1.55742
1.55736
1.55731
1.55726
1.55721
1.55718
1.55715
1.55713
1.55712
1.55709
1.55701
1.5569
1.55702
1.55755
1.55784
1.55775
1.55774
1.55778
1.55787
1.55797
1.55809
1.55822
1.55837
1.55853
1.55869
1.55887
1.55906
1.55926
1.55947
1.55969
1.55992
1.56016
1.56042
1.56068
1.56096
1.56125
1.56156
1.56187
1.56221
1.56255
1.56292
1.5633
1.56369
1.56411
1.56455
1.56502
1.56551
1.56603
1.56658
1.56716
1.56777
1.56841
1.5691
1.56981
1.57056
1.57135
1.57217
1.57301
1.57387
1.57473
1.57561
1.57647
1.57732
1.57812
1.57888
1.57956
1.58015
1.58065
1.58103
1.5813
1.58145
1.58148
1.58142
1.58129
1.58113
1.58097
1.58085
1.55759
1.55757
1.55753
1.55748
1.55743
1.55738
1.55734
1.5573
1.55728
1.55726
1.55725
1.55724
1.55724
1.55724
1.55726
1.55734
1.55751
1.55765
1.55773
1.5578
1.55788
1.55797
1.55808
1.5582
1.55833
1.55847
1.55863
1.55879
1.55897
1.55916
1.55935
1.55956
1.55978
1.56001
1.56026
1.56051
1.56078
1.56105
1.56135
1.56165
1.56197
1.5623
1.56265
1.56301
1.56339
1.56379
1.56421
1.56465
1.56511
1.5656
1.56612
1.56666
1.56723
1.56783
1.56847
1.56913
1.56983
1.57056
1.57133
1.57211
1.57292
1.57375
1.57458
1.57542
1.57625
1.57706
1.57783
1.57855
1.57921
1.57979
1.58027
1.58065
1.58093
1.5811
1.58117
1.58114
1.58105
1.5809
1.58074
1.5806
1.55767
1.55763
1.55759
1.55754
1.5575
1.55746
1.55742
1.5574
1.55737
1.55736
1.55736
1.55736
1.55737
1.55739
1.55743
1.5575
1.5576
1.55771
1.5578
1.55788
1.55797
1.55807
1.55818
1.5583
1.55843
1.55857
1.55873
1.55889
1.55906
1.55925
1.55944
1.55965
1.55987
1.5601
1.56034
1.5606
1.56086
1.56114
1.56143
1.56173
1.56205
1.56239
1.56273
1.5631
1.56348
1.56387
1.56429
1.56473
1.56519
1.56567
1.56617
1.56671
1.56727
1.56786
1.56848
1.56913
1.5698
1.57051
1.57125
1.57201
1.57279
1.57359
1.57439
1.5752
1.576
1.57678
1.57753
1.57824
1.57888
1.57945
1.57994
1.58033
1.58062
1.58081
1.5809
1.5809
1.58082
1.58069
1.58051
1.58032
1.55776
1.5577
1.55764
1.55759
1.55755
1.55751
1.55748
1.55746
1.55744
1.55744
1.55744
1.55745
1.55746
1.55749
1.55754
1.5576
1.55768
1.55776
1.55785
1.55794
1.55803
1.55813
1.55824
1.55836
1.5585
1.55864
1.55879
1.55895
1.55912
1.55931
1.5595
1.55971
1.55992
1.56015
1.56039
1.56064
1.56091
1.56119
1.56148
1.56178
1.5621
1.56243
1.56277
1.56313
1.56351
1.5639
1.56432
1.56475
1.5652
1.56567
1.56617
1.56669
1.56724
1.56781
1.56841
1.56904
1.5697
1.57039
1.5711
1.57185
1.57261
1.57338
1.57417
1.57496
1.57575
1.57653
1.57728
1.57799
1.57864
1.57923
1.57973
1.58015
1.58046
1.58067
1.58077
1.58078
1.58071
1.58056
1.58032
1.58008
1.55785
1.55777
1.5577
1.55764
1.55759
1.55755
1.55752
1.5575
1.55749
1.55749
1.55749
1.5575
1.55753
1.55756
1.5576
1.55766
1.55773
1.5578
1.55789
1.55797
1.55807
1.55817
1.55828
1.5584
1.55853
1.55867
1.55882
1.55898
1.55915
1.55933
1.55953
1.55973
1.55995
1.56018
1.56042
1.56067
1.56093
1.56121
1.56149
1.5618
1.56211
1.56244
1.56278
1.56314
1.56351
1.5639
1.5643
1.56473
1.56516
1.56562
1.5661
1.5666
1.56714
1.5677
1.56828
1.56888
1.56952
1.5702
1.57091
1.57163
1.57236
1.57311
1.57388
1.57467
1.57545
1.57623
1.57699
1.57772
1.5784
1.57902
1.57956
1.58001
1.58036
1.58059
1.58072
1.58074
1.58067
1.58049
1.58021
1.57993
1.55791
1.55782
1.55773
1.55766
1.55761
1.55757
1.55754
1.55752
1.55751
1.55751
1.55752
1.55753
1.55756
1.55759
1.55763
1.55769
1.55775
1.55782
1.5579
1.55798
1.55808
1.55818
1.55829
1.5584
1.55853
1.55867
1.55882
1.55898
1.55915
1.55933
1.55953
1.55973
1.55995
1.56017
1.56041
1.56066
1.56092
1.56119
1.56148
1.56178
1.5621
1.56242
1.56276
1.56311
1.56348
1.56387
1.56426
1.56467
1.56509
1.56554
1.56601
1.5665
1.56702
1.56756
1.56812
1.56869
1.56929
1.56992
1.57059
1.57128
1.57201
1.57275
1.57352
1.5743
1.57509
1.57588
1.57666
1.57742
1.57814
1.5788
1.57939
1.57989
1.58029
1.58058
1.58074
1.58078
1.58071
1.58053
1.58021
1.57987
1.55794
1.55784
1.55773
1.55766
1.5576
1.55756
1.55753
1.55751
1.5575
1.5575
1.55751
1.55752
1.55755
1.55758
1.55762
1.55767
1.55773
1.5578
1.55788
1.55796
1.55805
1.55815
1.55826
1.55838
1.5585
1.55864
1.55879
1.55895
1.55912
1.5593
1.55949
1.5597
1.55991
1.56014
1.56038
1.56063
1.56089
1.56116
1.56144
1.56174
1.56205
1.56237
1.56271
1.56306
1.56342
1.5638
1.56418
1.56456
1.56497
1.5654
1.56586
1.56634
1.56684
1.56735
1.56788
1.56844
1.56901
1.5696
1.57022
1.57087
1.57158
1.57232
1.57308
1.57386
1.57466
1.57547
1.57628
1.57707
1.57784
1.57856
1.57922
1.57979
1.58026
1.58061
1.58083
1.58091
1.58086
1.58068
1.58033
1.57997
1.55794
1.55782
1.5577
1.55761
1.55755
1.55751
1.55747
1.55746
1.55745
1.55745
1.55746
1.55747
1.5575
1.55753
1.55757
1.55762
1.55768
1.55774
1.55782
1.5579
1.55799
1.55809
1.55819
1.55831
1.55844
1.55858
1.55872
1.55888
1.55905
1.55923
1.55943
1.55963
1.55985
1.56007
1.56031
1.56057
1.56082
1.56109
1.56137
1.56167
1.56197
1.56229
1.56262
1.56296
1.56331
1.56367
1.56405
1.56444
1.56484
1.56526
1.56569
1.56613
1.56659
1.56707
1.56757
1.56811
1.56867
1.56925
1.56984
1.57048
1.57115
1.57186
1.57261
1.57339
1.57419
1.57502
1.57586
1.5767
1.57752
1.57831
1.57905
1.57971
1.58026
1.5807
1.58099
1.58113
1.58113
1.58096
1.58061
1.58022
1.55789
1.55775
1.55762
1.55753
1.55746
1.55741
1.55738
1.55736
1.55735
1.55736
1.55737
1.55738
1.55741
1.55744
1.55748
1.55753
1.55759
1.55765
1.55772
1.5578
1.55789
1.55799
1.5581
1.55821
1.55834
1.55848
1.55863
1.55879
1.55896
1.55914
1.55933
1.55954
1.55975
1.55998
1.56022
1.56046
1.56073
1.561
1.56129
1.56158
1.56188
1.56219
1.56252
1.56285
1.56318
1.56354
1.56391
1.5643
1.5647
1.5651
1.5655
1.56592
1.56635
1.5668
1.56728
1.56778
1.5683
1.56885
1.56942
1.57004
1.57069
1.57139
1.57212
1.57289
1.57371
1.57455
1.57542
1.57631
1.5772
1.57807
1.5789
1.57965
1.58032
1.58086
1.58125
1.58148
1.58153
1.5814
1.58105
1.58065
1.55779
1.55763
1.55749
1.55739
1.55732
1.55727
1.55724
1.55722
1.55722
1.55722
1.55723
1.55725
1.55728
1.55731
1.55735
1.5574
1.55745
1.55752
1.55759
1.55767
1.55776
1.55786
1.55796
1.55808
1.55821
1.55835
1.5585
1.55866
1.55883
1.55901
1.55921
1.55942
1.55963
1.55986
1.5601
1.56035
1.56062
1.5609
1.56118
1.56147
1.56177
1.56208
1.5624
1.56273
1.56307
1.56342
1.56378
1.56415
1.56452
1.5649
1.56529
1.56569
1.5661
1.56653
1.56698
1.56745
1.56794
1.56847
1.56902
1.56961
1.57025
1.57092
1.57165
1.57242
1.57324
1.57411
1.57502
1.57596
1.57691
1.57787
1.57879
1.57966
1.58045
1.58112
1.58163
1.58197
1.58211
1.58204
1.58172
1.58132
1.55766
1.55747
1.5573
1.5572
1.55713
1.55708
1.55705
1.55703
1.55703
1.55703
1.55705
1.55707
1.5571
1.55713
1.55718
1.55723
1.55728
1.55735
1.55742
1.5575
1.55759
1.55769
1.5578
1.55792
1.55805
1.55819
1.55835
1.55851
1.55868
1.55887
1.55907
1.55928
1.5595
1.55973
1.55997
1.56023
1.5605
1.56077
1.56106
1.56135
1.56165
1.56196
1.56228
1.56261
1.56294
1.56328
1.56363
1.56398
1.56434
1.56471
1.56508
1.56546
1.56586
1.56627
1.5667
1.56714
1.56762
1.56812
1.56865
1.56923
1.56984
1.57051
1.57123
1.57201
1.57285
1.57374
1.57469
1.57568
1.57671
1.57775
1.57878
1.57978
1.5807
1.58152
1.58218
1.58265
1.58291
1.58292
1.58266
1.58229
1.55737
1.5572
1.55704
1.55693
1.55687
1.55682
1.5568
1.55679
1.55679
1.5568
1.55682
1.55685
1.55688
1.55692
1.55697
1.55702
1.55708
1.55715
1.55723
1.55731
1.55741
1.55751
1.55762
1.55774
1.55788
1.55802
1.55818
1.55834
1.55852
1.55871
1.55891
1.55913
1.55935
1.55959
1.55984
1.56009
1.56036
1.56064
1.56093
1.56122
1.56152
1.56184
1.56215
1.56248
1.56281
1.56314
1.56348
1.56383
1.56418
1.56453
1.56489
1.56526
1.56564
1.56604
1.56645
1.56688
1.56734
1.56782
1.56835
1.56891
1.56952
1.57019
1.57091
1.5717
1.57255
1.57348
1.57447
1.57552
1.57663
1.57777
1.57892
1.58005
1.58111
1.5821
1.58293
1.58356
1.58397
1.58411
1.58393
1.58362
1.55698
1.55685
1.5567
1.5566
1.55654
1.5565
1.55649
1.55649
1.5565
1.55653
1.55656
1.55659
1.55663
1.55668
1.55673
1.55679
1.55686
1.55693
1.55701
1.5571
1.5572
1.55731
1.55743
1.55755
1.55769
1.55784
1.558
1.55817
1.55836
1.55855
1.55876
1.55897
1.5592
1.55944
1.5597
1.55996
1.56023
1.56051
1.5608
1.5611
1.5614
1.56171
1.56203
1.56235
1.56268
1.56301
1.56335
1.56369
1.56403
1.56438
1.56473
1.56509
1.56547
1.56585
1.56625
1.56668
1.56712
1.5676
1.56812
1.56868
1.5693
1.56997
1.57071
1.57152
1.5724
1.57337
1.57441
1.57553
1.57672
1.57797
1.57925
1.58053
1.58177
1.58291
1.58394
1.58476
1.58534
1.58564
1.5856
1.58538
1.55661
1.55645
1.55628
1.55619
1.55614
1.55612
1.55612
1.55614
1.55617
1.55621
1.55626
1.55631
1.55636
1.55642
1.55648
1.55655
1.55662
1.55671
1.55679
1.55689
1.55699
1.55711
1.55723
1.55736
1.55751
1.55766
1.55783
1.558
1.55819
1.55839
1.5586
1.55883
1.55906
1.55931
1.55956
1.55983
1.5601
1.56039
1.56068
1.56098
1.56129
1.5616
1.56192
1.56224
1.56257
1.5629
1.56323
1.56357
1.56391
1.56426
1.56461
1.56496
1.56533
1.56571
1.56611
1.56654
1.56698
1.56747
1.56799
1.56856
1.56919
1.56988
1.57064
1.57148
1.5724
1.57342
1.57453
1.57573
1.57702
1.57838
1.5798
1.58124
1.58267
1.58402
1.58526
1.5863
1.58707
1.58757
1.58772
1.58764
1.55612
1.55594
1.55577
1.55569
1.55566
1.55567
1.5557
1.55575
1.55581
1.55587
1.55593
1.556
1.55607
1.55615
1.55622
1.55631
1.55639
1.55648
1.55658
1.55668
1.5568
1.55692
1.55705
1.55719
1.55734
1.5575
1.55767
1.55785
1.55804
1.55825
1.55847
1.55869
1.55893
1.55918
1.55944
1.55972
1.55999
1.56028
1.56058
1.56088
1.56119
1.56151
1.56183
1.56215
1.56248
1.56281
1.56314
1.56348
1.56382
1.56417
1.56452
1.56488
1.56525
1.56563
1.56603
1.56646
1.56692
1.56741
1.56795
1.56854
1.56919
1.5699
1.5707
1.57158
1.57256
1.57364
1.57483
1.57612
1.57752
1.57902
1.58058
1.5822
1.58382
1.58539
1.58687
1.58819
1.58923
1.58995
1.59035
1.59048
1.55548
1.55529
1.55514
1.55509
1.5551
1.55515
1.55523
1.55532
1.55541
1.55551
1.5556
1.5557
1.55579
1.55588
1.55598
1.55607
1.55617
1.55628
1.55638
1.5565
1.55662
1.55675
1.55688
1.55703
1.55719
1.55735
1.55753
1.55772
1.55792
1.55813
1.55835
1.55859
1.55883
1.55908
1.55935
1.55962
1.55991
1.5602
1.5605
1.56081
1.56112
1.56144
1.56176
1.56208
1.56241
1.56275
1.56308
1.56342
1.56376
1.56411
1.56446
1.56483
1.5652
1.5656
1.56601
1.56645
1.56692
1.56743
1.56799
1.56861
1.56929
1.57004
1.57088
1.57182
1.57286
1.57401
1.57529
1.57668
1.57821
1.57984
1.58158
1.5834
1.58524
1.58707
1.58881
1.59041
1.59175
1.59278
1.59351
1.59394
1.55468
1.5545
1.55437
1.55438
1.55446
1.55457
1.55471
1.55486
1.55501
1.55515
1.55528
1.55541
1.55553
1.55565
1.55576
1.55587
1.55599
1.5561
1.55622
1.55634
1.55647
1.55661
1.55676
1.55691
1.55707
1.55725
1.55743
1.55762
1.55783
1.55804
1.55827
1.55851
1.55876
1.55902
1.55929
1.55956
1.55985
1.56014
1.56045
1.56076
1.56107
1.56139
1.56171
1.56204
1.56237
1.56271
1.56304
1.56339
1.56373
1.56408
1.56444
1.56482
1.5652
1.5656
1.56603
1.56649
1.56698
1.56751
1.5681
1.56874
1.56946
1.57025
1.57114
1.57213
1.57324
1.57447
1.57584
1.57735
1.57899
1.58078
1.5827
1.58473
1.58683
1.58894
1.59099
1.59291
1.59458
1.59597
1.59713
1.59797
1.55364
1.55349
1.55343
1.55354
1.55372
1.55394
1.55417
1.5544
1.55462
1.55481
1.55499
1.55516
1.55531
1.55545
1.55559
1.55572
1.55585
1.55598
1.55611
1.55624
1.55638
1.55652
1.55668
1.55684
1.55701
1.55718
1.55737
1.55757
1.55778
1.558
1.55823
1.55847
1.55872
1.55898
1.55926
1.55954
1.55982
1.56012
1.56042
1.56073
1.56105
1.56137
1.56169
1.56202
1.56235
1.56269
1.56303
1.56337
1.56372
1.56408
1.56445
1.56483
1.56522
1.56564
1.56608
1.56655
1.56706
1.56762
1.56823
1.56891
1.56966
1.5705
1.57143
1.57248
1.57364
1.57495
1.5764
1.578
1.57977
1.58171
1.5838
1.58604
1.58838
1.59079
1.59318
1.59546
1.59752
1.59933
1.60105
1.60242
1.55224
1.55217
1.55226
1.55255
1.5529
1.55325
1.55363
1.55398
1.55428
1.55453
1.55476
1.55497
1.55515
1.55532
1.55548
1.55563
1.55577
1.55591
1.55605
1.5562
1.55634
1.55649
1.55665
1.55682
1.55699
1.55717
1.55737
1.55757
1.55778
1.558
1.55823
1.55848
1.55873
1.55899
1.55926
1.55954
1.55983
1.56013
1.56043
1.56074
1.56105
1.56137
1.5617
1.56202
1.56236
1.56269
1.56303
1.56338
1.56373
1.56409
1.56446
1.56485
1.56526
1.56568
1.56614
1.56662
1.56715
1.56773
1.56836
1.56906
1.56984
1.57071
1.57168
1.57276
1.57397
1.57533
1.57683
1.57851
1.58037
1.58241
1.58464
1.58705
1.58961
1.59229
1.59502
1.59767
1.60015
1.60244
1.60484
1.60689
1.55026
1.55039
1.55078
1.55139
1.55202
1.55261
1.55315
1.55361
1.554
1.55433
1.55461
1.55486
1.55508
1.55527
1.55545
1.55561
1.55577
1.55592
1.55607
1.55622
1.55638
1.55653
1.55669
1.55686
1.55704
1.55722
1.55742
1.55762
1.55783
1.55806
1.55829
1.55853
1.55878
1.55904
1.55931
1.55959
1.55987
1.56017
1.56046
1.56077
1.56108
1.5614
1.56172
1.56204
1.56237
1.5627
1.56304
1.56339
1.56374
1.5641
1.56447
1.56486
1.56527
1.56571
1.56617
1.56666
1.5672
1.56779
1.56843
1.56915
1.56994
1.57082
1.5718
1.5729
1.57412
1.57548
1.577
1.5787
1.58057
1.58264
1.58492
1.5874
1.59008
1.59293
1.59589
1.59885
1.60169
1.60443
1.60759
1.61036
1.5472
1.54788
1.54899
1.55018
1.55119
1.55205
1.55276
1.55335
1.55383
1.55424
1.55457
1.55486
1.5551
1.55532
1.55551
1.55569
1.55586
1.55602
1.55617
1.55633
1.55648
1.55664
1.55681
1.55698
1.55715
1.55734
1.55753
1.55773
1.55794
1.55816
1.55839
1.55863
1.55887
1.55913
1.55939
1.55967
1.55995
1.56023
1.56052
1.56082
1.56112
1.56143
1.56174
1.56206
1.56238
1.56271
1.56304
1.56338
1.56373
1.56409
1.56446
1.56484
1.56525
1.56568
1.56614
1.56664
1.56717
1.56776
1.5684
1.5691
1.56989
1.57075
1.57171
1.57278
1.57397
1.57528
1.57675
1.57837
1.58016
1.58213
1.5843
1.58667
1.58924
1.592
1.59492
1.5979
1.60081
1.60373
1.6076
1.61105
1.54155
1.54429
1.54705
1.54906
1.55051
1.55165
1.55255
1.55326
1.55382
1.55428
1.55466
1.55497
1.55524
1.55547
1.55568
1.55587
1.55604
1.5562
1.55636
1.55652
1.55667
1.55683
1.55699
1.55716
1.55733
1.55752
1.5577
1.5579
1.5581
1.55832
1.55854
1.55877
1.55901
1.55926
1.55951
1.55977
1.56004
1.56032
1.5606
1.56088
1.56117
1.56147
1.56177
1.56207
1.56238
1.5627
1.56302
1.56334
1.56368
1.56403
1.56439
1.56476
1.56516
1.56557
1.56602
1.5665
1.56702
1.56758
1.5682
1.56887
1.56961
1.57043
1.57133
1.57232
1.57341
1.57461
1.57592
1.57736
1.57892
1.58061
1.58244
1.58441
1.5865
1.5887
1.59097
1.59323
1.59533
1.59736
1.60112
1.60662
1.53309
1.5407
1.5457
1.54837
1.55016
1.55153
1.55257
1.55337
1.55399
1.55449
1.55489
1.55523
1.55551
1.55575
1.55596
1.55615
1.55633
1.55649
1.55665
1.5568
1.55695
1.55711
1.55726
1.55742
1.55759
1.55776
1.55794
1.55813
1.55832
1.55853
1.55874
1.55895
1.55918
1.55941
1.55965
1.5599
1.56015
1.56041
1.56067
1.56094
1.56122
1.56149
1.56177
1.56206
1.56235
1.56264
1.56295
1.56325
1.56357
1.56389
1.56423
1.56458
1.56496
1.56535
1.56577
1.56621
1.5667
1.56722
1.56778
1.5684
1.56907
1.56979
1.57059
1.57144
1.57237
1.57337
1.57443
1.57556
1.57674
1.57795
1.57917
1.58035
1.58143
1.58231
1.58284
1.58278
1.58172
1.57899
1.5752
1.576
1.53714
1.54275
1.54676
1.54894
1.55055
1.55188
1.55292
1.55373
1.55436
1.55487
1.55529
1.55563
1.55592
1.55616
1.55638
1.55656
1.55674
1.55689
1.55704
1.55719
1.55733
1.55748
1.55762
1.55777
1.55793
1.55809
1.55825
1.55842
1.5586
1.55878
1.55898
1.55918
1.55938
1.55959
1.55981
1.56004
1.56027
1.5605
1.56074
1.56099
1.56124
1.56149
1.56174
1.562
1.56227
1.56253
1.56281
1.56308
1.56337
1.56366
1.56397
1.56429
1.56462
1.56498
1.56535
1.56575
1.56617
1.56663
1.56712
1.56765
1.56821
1.56881
1.56945
1.57013
1.57084
1.57156
1.57229
1.57301
1.57367
1.57423
1.5746
1.57466
1.57423
1.57297
1.57033
1.56526
1.55566
1.53696
1.49939
1.42243
1.54066
1.54463
1.5477
1.54962
1.55116
1.55248
1.55352
1.55432
1.55495
1.55546
1.55588
1.55623
1.55651
1.55675
1.55696
1.55714
1.5573
1.55744
1.55758
1.55771
1.55783
1.55796
1.55808
1.55821
1.55835
1.55848
1.55862
1.55877
1.55893
1.55909
1.55925
1.55942
1.5596
1.55979
1.55998
1.56017
1.56037
1.56058
1.56079
1.561
1.56122
1.56144
1.56166
1.56189
1.56212
1.56235
1.56258
1.56282
1.56306
1.56332
1.56358
1.56385
1.56413
1.56443
1.56475
1.56508
1.56543
1.5658
1.5662
1.56661
1.56704
1.56749
1.56794
1.5684
1.56885
1.56926
1.56961
1.56986
1.56994
1.56979
1.56926
1.56818
1.56627
1.56308
1.55791
1.54957
1.53606
1.51408
1.47895
1.42598
1.5443
1.54686
1.54918
1.55095
1.55237
1.55357
1.55454
1.55531
1.55592
1.55641
1.55681
1.55713
1.5574
1.55761
1.55779
1.55794
1.55807
1.55819
1.55829
1.55839
1.55849
1.55858
1.55867
1.55877
1.55887
1.55897
1.55908
1.55919
1.55931
1.55944
1.55957
1.5597
1.55984
1.55999
1.56014
1.5603
1.56046
1.56062
1.5608