/*--------------------------------*- C++ -*----------------------------------*\
| =========                 |                                                 |
| \\      /  F ield         | OpenFOAM: The Open Source CFD Toolbox           |
|  \\    /   O peration     | Version:  v2012                                 |
|   \\  /    A nd           | Website:  www.openfoam.com                      |
|    \\/     M anipulation  |                                                 |
\*---------------------------------------------------------------------------*/
FoamFile
{
    version     2.0;
    format      ascii;
    class       surfaceScalarField;
    location    "2000";
    object      phi;
}
// * * * * * * * * * * * * * * * * * * * * * * * * * * * * * * * * * * * * * //

dimensions      [0 3 -1 0 0 0 0];
oriented        oriented;


internalField   nonuniform List<scalar> 
12722
(
2.97869e-05
0.000170213
1.71675e-05
0.000212619
8.59812e-06
0.000208569
3.72244e-06
0.000204876
1.95016e-08
0.000203703
-3.68462e-06
0.000203704
-8.56321e-06
0.000204879
-1.71381e-05
0.000208575
-2.97695e-05
0.000212631
0.00017023
3.55026e-05
0.00013471
3.26588e-05
0.000215463
2.05782e-05
0.00022065
9.49107e-06
0.000215963
6.17375e-08
0.000213132
-9.36982e-06
0.000213136
-2.04635e-05
0.000215972
-3.25629e-05
0.000220674
-3.54528e-05
0.000215521
0.000134778
2.62227e-05
0.000108488
3.19607e-05
0.000209725
2.29068e-05
0.000229704
1.13612e-05
0.000227508
1.08692e-07
0.000224385
-1.1151e-05
0.000224395
-2.27255e-05
0.000227547
-3.18156e-05
0.000229764
-2.6155e-05
0.000209861
0.000108623
1.74237e-05
9.1064e-05
2.67058e-05
0.000200443
2.1262e-05
0.000235148
1.11316e-05
0.000237639
1.68423e-07
0.000235348
-1.08049e-05
0.000235369
-2.09743e-05
0.000237716
-2.65002e-05
0.00023529
-1.73376e-05
0.000200698
9.1285e-05
1.08253e-05
8.02388e-05
2.04489e-05
0.00019082
1.86195e-05
0.000236977
1.03323e-05
0.000245926
2.52202e-07
0.000245428
-9.83891e-06
0.00024546
-1.81815e-05
0.000246059
-2.01611e-05
0.00023727
-1.07178e-05
0.000191255
8.05672e-05
6.5352e-06
7.37036e-05
1.50754e-05
0.000182279
1.5479e-05
0.000236573
9.02237e-06
0.000252383
3.44876e-07
0.000254106
-8.37057e-06
0.000254175
-1.4896e-05
0.000252584
-1.46798e-05
0.000237054
-6.38787e-06
0.000182963
7.41793e-05
4.08939e-06
6.96142e-05
1.09072e-05
0.000175462
1.22919e-05
0.000235189
7.63009e-06
0.000257045
4.8186e-07
0.000261254
-6.70762e-06
0.000261365
-1.15165e-05
0.000257393
-1.03884e-05
0.000235926
-3.89412e-06
0.000176469
7.02852e-05
2.65724e-06
6.69569e-05
7.8188e-06
0.0001703
9.593e-06
0.000233415
6.56731e-06
0.00026007
6.91587e-07
0.00026713
-5.23849e-06
0.000267295
-8.52799e-06
0.000260683
-7.14012e-06
0.000234538
-2.40323e-06
0.000171732
6.7882e-05
1.86658e-06
6.50903e-05
5.83023e-06
0.000166336
7.74308e-06
0.000231502
5.70855e-06
0.000262105
9.43761e-07
0.000271894
-3.92415e-06
0.000272163
-6.28569e-06
0.000263044
-4.91173e-06
0.000233164
-1.52335e-06
0.000168343
6.63586e-05
1.46141e-06
6.36289e-05
4.61577e-06
0.000163182
6.47751e-06
0.00022964
5.09018e-06
0.000263492
1.22045e-06
0.000275764
-2.73427e-06
0.000276118
-4.55489e-06
0.000264865
-3.39318e-06
0.000232002
-1.00272e-06
0.000165953
6.53559e-05
1.2551e-06
6.23738e-05
3.88847e-06
0.000160549
5.63353e-06
0.000227895
4.72245e-06
0.000264403
1.61276e-06
0.000278874
-1.63421e-06
0.000279364
-3.10574e-06
0.000266336
-2.27321e-06
0.00023117
-6.47953e-07
0.000164328
6.47079e-05
1.15599e-06
6.12179e-05
3.48592e-06
0.000158219
5.15115e-06
0.00022623
4.60923e-06
0.000264945
2.20154e-06
0.000281281
-4.93637e-07
0.00028206
-1.79294e-06
0.000267636
-1.33848e-06
0.000230715
-3.46147e-07
0.000163335
6.43618e-05
1.13068e-06
6.00872e-05
3.32321e-06
0.000156026
4.98177e-06
0.000224571
4.76245e-06
0.000265164
2.95329e-06
0.000283091
7.75928e-07
0.000284237
-4.79708e-07
0.000268891
-4.44355e-07
0.00023068
-4.3196e-08
0.000162934
6.43186e-05
1.17424e-06
5.89129e-05
3.38118e-06
0.000153819
5.14763e-06
0.000222805
5.28524e-06
0.000265027
3.97805e-06
0.000284398
2.19836e-06
0.000286017
9.18063e-07
0.000270171
4.96484e-07
0.000231101
2.92664e-07
0.000163138
6.46113e-05
1.2885e-06
5.76244e-05
3.66154e-06
0.000151446
5.67318e-06
0.000220793
6.23025e-06
0.00026447
5.36374e-06
0.000285264
3.87828e-06
0.000287502
2.50844e-06
0.000271541
1.57566e-06
0.000232034
7.00767e-07
0.000164013
6.5312e-05
1.47076e-06
5.61537e-05
4.1595e-06
0.000148757
6.56308e-06
0.000218389
7.61361e-06
0.000263419
7.18388e-06
0.000285694
5.96538e-06
0.000288721
4.45778e-06
0.000273049
2.93328e-06
0.000233559
1.25109e-06
0.000165695
6.65631e-05
1.71611e-06
5.44376e-05
4.86909e-06
0.000145604
7.82856e-06
0.00021543
9.49037e-06
0.000261757
9.58293e-06
0.000285601
8.66594e-06
0.000289638
6.99963e-06
0.000274715
4.78821e-06
0.00023577
2.07025e-06
0.000168413
6.86334e-05
2.0174e-06
5.24202e-05
5.77976e-06
0.000141842
9.47497e-06
0.000211735
1.19101e-05
0.000259322
1.26736e-05
0.000284838
1.21879e-05
0.000290123
1.04582e-05
0.000276445
7.52631e-06
0.000238702
3.40285e-06
0.000172537
7.20362e-05
2.35939e-06
5.00608e-05
6.86055e-06
0.000137341
1.14763e-05
0.000207119
1.48844e-05
0.000255914
1.65276e-05
0.000283195
1.66601e-05
0.000289991
1.52188e-05
0.000277886
1.17838e-05
0.000242137
5.88916e-06
0.000178431
7.79254e-05
2.71574e-06
4.7345e-05
8.04964e-06
0.000132007
1.37616e-05
0.000201407
1.83928e-05
0.000251283
2.12369e-05
0.000280351
2.23128e-05
0.000288915
2.1938e-05
0.000278261
1.9431e-05
0.000244644
1.41017e-05
0.00018376
9.20271e-05
3.07085e-06
4.42742e-05
9.31257e-06
0.000125765
1.62806e-05
0.000194439
2.23552e-05
0.000245208
2.67153e-05
0.000275991
2.92514e-05
0.000286379
3.06652e-05
0.000276847
3.05826e-05
0.000244727
2.87642e-05
0.000185579
0.000102723
1.80684e-05
3.31758e-06
4.09566e-05
1.03187e-05
0.000118764
1.84265e-05
0.000186331
2.58366e-05
0.000237798
3.16122e-05
0.000270215
3.54707e-05
0.00028252
3.78114e-05
0.000274507
3.76961e-05
0.000244842
3.30879e-05
0.000190187
0.000117984
1.78265e-05
3.44685e-06
3.75098e-05
1.10079e-05
0.000111203
2.00738e-05
0.000177265
2.86436e-05
0.000229229
3.55786e-05
0.00026328
4.03405e-05
0.000277758
4.29649e-05
0.000271882
4.21872e-05
0.00024562
3.61771e-05
0.000196197
0.000132058
2.21035e-05
3.44785e-06
3.40619e-05
1.13769e-05
0.000103274
2.12114e-05
0.000167431
3.07919e-05
0.000219648
3.87415e-05
0.00025533
4.43278e-05
0.000272172
4.72596e-05
0.00026895
4.62979e-05
0.000246581
3.99405e-05
0.000202554
0.000145172
2.68267e-05
3.37825e-06
3.06837e-05
1.15089e-05
9.51434e-05
2.19398e-05
0.000157
3.24196e-05
0.000209168
4.13435e-05
0.000246407
4.77706e-05
0.000265745
5.09694e-05
0.000265752
5.02699e-05
0.000247281
4.40129e-05
0.000208811
0.000157463
3.17214e-05
3.28949e-06
2.73942e-05
1.14784e-05
8.69545e-05
2.23461e-05
0.000146132
3.36216e-05
0.000197893
4.35005e-05
0.000236528
5.07709e-05
0.000258475
5.43973e-05
0.000262125
5.41728e-05
0.000247505
4.8431e-05
0.000214553
0.000168782
3.71119e-05
3.16978e-06
2.42244e-05
1.13155e-05
7.88088e-05
2.24787e-05
0.000134969
3.4439e-05
0.000185932
4.52437e-05
0.000225723
5.34292e-05
0.000250289
5.79135e-05
0.000257641
5.82777e-05
0.000247141
5.33039e-05
0.000219527
0.000179069
4.30175e-05
3.02888e-06
2.11955e-05
1.10485e-05
7.07892e-05
2.23811e-05
0.000123636
3.49186e-05
0.000173395
4.66223e-05
0.000214019
5.58522e-05
0.000241059
6.14688e-05
0.000252024
6.28109e-05
0.000245799
5.8675e-05
0.000223663
0.000188329
4.94151e-05
2.87423e-06
1.83213e-05
1.07014e-05
6.2962e-05
2.20922e-05
0.000112246
3.51034e-05
0.000160384
4.76735e-05
0.000201449
5.80265e-05
0.000230706
6.48837e-05
0.000245167
6.73586e-05
0.000243324
6.44117e-05
0.00022661
0.000196446
5.62942e-05
2.70884e-06
1.56124e-05
1.02867e-05
5.53842e-05
2.16297e-05
0.000100903
3.50023e-05
0.000147011
4.83824e-05
0.000188069
5.98898e-05
0.000219199
6.80579e-05
0.000236999
7.16675e-05
0.000239714
7.02843e-05
0.000227993
0.000203163
6.35676e-05
2.53291e-06
1.30795e-05
9.80687e-06
4.81102e-05
2.0995e-05
8.97145e-05
3.46e-05
0.000133406
4.87005e-05
0.000173969
6.13622e-05
0.000206537
7.09352e-05
0.000227426
7.60693e-05
0.00023458
7.63589e-05
0.000227703
0.000208331
7.11908e-05
2.34613e-06
1.07334e-05
9.26218e-06
4.11941e-05
2.01846e-05
7.87921e-05
3.38742e-05
0.000119717
4.8563e-05
0.00015928
6.23162e-05
0.000192784
7.33572e-05
0.000216385
8.03006e-05
0.000227637
8.23456e-05
0.000225658
0.000211659
7.90172e-05
2.14932e-06
8.58408e-06
8.65537e-06
3.46881e-05
1.91997e-05
6.82478e-05
3.28118e-05
0.000106105
4.7925e-05
0.000144167
6.26679e-05
0.000178041
7.5202e-05
0.000203851
8.40043e-05
0.000218835
8.79718e-05
0.000221691
0.000212856
8.67749e-05
1.94446e-06
6.63962e-06
7.99273e-06
2.86398e-05
1.80481e-05
5.81924e-05
3.14093e-05
9.27433e-05
4.67487e-05
0.000128827
6.23203e-05
0.000162469
7.62787e-05
0.000189893
8.69729e-05
0.00020814
9.31528e-05
0.000215511
0.000211705
9.43041e-05
1.73442e-06
4.9052e-06
7.28357e-06
2.30906e-05
1.67443e-05
4.87317e-05
2.96736e-05
7.9814e-05
4.5008e-05
0.000113493
6.11841e-05
0.000146293
7.64107e-05
0.000174666
8.89669e-05
0.000195584
9.7479e-05
0.000206999
0.000208085
0.000101099
1.52272e-06
3.38247e-06
6.54091e-06
1.80724e-05
1.53128e-05
3.99598e-05
2.76314e-05
6.74954e-05
4.27084e-05
9.84157e-05
5.92122e-05
0.000129789
7.54741e-05
0.000158404
8.97677e-05
0.00018129
0.000100583
0.000196183
0.000201905
0.000106764
1.30975e-06
2.07272e-06
5.78234e-06
1.35998e-05
1.37886e-05
3.19535e-05
2.53303e-05
5.59538e-05
3.98898e-05
8.38562e-05
5.63998e-05
0.000113279
7.33744e-05
0.00014143
8.91464e-05
0.000165518
0.000102126
0.000183204
0.000192982
0.000111049
1.12206e-06
9.50656e-07
5.03782e-06
9.68407e-06
1.22166e-05
2.47747e-05
2.28372e-05
4.53332e-05
3.66295e-05
7.00639e-05
5.28026e-05
9.71061e-05
7.01038e-05
0.000124128
8.69973e-05
0.000148625
0.000101901
0.0001683
0.000181438
0.000113445
9.54321e-07
-3.66836e-09
4.31253e-06
6.32585e-06
1.06333e-05
1.8454e-05
2.02282e-05
3.57382e-05
3.30367e-05
5.72553e-05
4.85378e-05
8.16051e-05
6.5745e-05
0.000106921
8.33177e-05
0.000131052
9.97565e-05
0.000151861
0.000167557
0.000113637
7.62508e-07
-7.6618e-07
3.59046e-06
3.4979e-06
9.06674e-06
1.29777e-05
1.75816e-05
2.72234e-05
2.92408e-05
4.55961e-05
4.37689e-05
6.7077e-05
6.04566e-05
9.02334e-05
7.82058e-05
0.000113303
9.56703e-05
0.000134397
0.000151773
0.000111455
5.32651e-07
-1.29883e-06
2.87717e-06
1.15337e-06
7.5615e-06
8.29334e-06
1.49856e-05
1.97992e-05
2.53849e-05
3.51968e-05
3.86946e-05
5.37673e-05
5.44688e-05
7.44593e-05
7.18761e-05
9.58958e-05
8.97816e-05
0.000116491
0.000134655
0.000106899
4.37085e-07
-1.73592e-06
2.34086e-06
-7.50417e-07
6.22678e-06
4.40742e-06
1.25468e-05
1.34792e-05
2.162e-05
2.61237e-05
3.35327e-05
4.18545e-05
4.80633e-05
5.99287e-05
6.46424e-05
7.93166e-05
8.23809e-05
9.87529e-05
0.000116867
0.000100169
3.67535e-07
-2.10346e-06
1.86237e-06
-2.24526e-06
5.01464e-06
1.25514e-06
1.02981e-05
8.19579e-06
1.80576e-05
1.83641e-05
2.84835e-05
3.14286e-05
4.15344e-05
4.68778e-05
5.68778e-05
6.39732e-05
7.38778e-05
8.17529e-05
9.91002e-05
9.16448e-05
1.85884e-07
-2.28935e-06
1.33048e-06
-3.38986e-06
3.845e-06
-1.25938e-06
8.12413e-06
3.91666e-06
1.45206e-05
1.19676e-05
2.32865e-05
2.26628e-05
3.45096e-05
3.56547e-05
4.80545e-05
5.04283e-05
6.35277e-05
6.62796e-05
8.23401e-05
8.02878e-05
1.15881e-07
-2.40523e-06
9.80005e-07
-4.25399e-06
2.97386e-06
-3.25324e-06
6.44626e-06
4.44257e-07
1.1735e-05
6.67888e-06
1.91162e-05
1.52816e-05
2.87566e-05
2.60143e-05
4.06602e-05
3.85247e-05
5.46248e-05
5.2315e-05
6.67392e-05
7.02257e-05
1.2448e-07
-2.52971e-06
7.65607e-07
-4.89512e-06
2.28899e-06
-4.77662e-06
5.04159e-06
-2.30834e-06
9.32755e-06
2.39292e-06
1.54184e-05
9.19073e-06
2.35197e-05
1.79129e-05
3.37275e-05
2.8317e-05
4.59844e-05
4.00581e-05
5.26725e-05
6.00511e-05
6.04875e-08
-2.59019e-06
5.37405e-07
-5.37203e-06
1.7057e-06
-5.94491e-06
3.85644e-06
-4.45909e-06
7.26788e-06
-1.01852e-06
1.21982e-05
4.26043e-06
1.88663e-05
1.12448e-05
2.74209e-05
1.97624e-05
3.79039e-05
2.95751e-05
4.03575e-05
5.02189e-05
-2.35127e-09
-2.58784e-06
3.20417e-07
-5.6948e-06
1.19402e-06
-6.8185e-06
2.8392e-06
-6.10427e-06
5.49601e-06
-3.67533e-06
9.40368e-06
3.52762e-07
1.4779e-05
5.86943e-06
2.17932e-05
1.27482e-05
3.05468e-05
2.08215e-05
2.98626e-05
4.10416e-05
9.04038e-09
-2.59688e-06
2.11559e-07
-5.89731e-06
7.86498e-07
-7.39344e-06
1.94888e-06
-7.26665e-06
3.93031e-06
-5.65677e-06
6.93678e-06
-2.6537e-06
1.11663e-05
1.63991e-06
1.67907e-05
7.12379e-06
2.39365e-05
1.36757e-05
2.11352e-05
3.26639e-05
-3.66167e-08
-2.56025e-06
4.17425e-09
-5.93809e-06
3.08742e-07
-7.698e-06
1.05768e-06
-8.01559e-06
2.44491e-06
-7.044e-06
4.65975e-06
-4.86856e-06
7.88393e-06
-1.58427e-06
1.22795e-05
2.72824e-06
1.79793e-05
7.97586e-06
1.40421e-05
2.50724e-05
-1.02191e-07
-2.45806e-06
-2.49826e-07
-5.79045e-06
-2.32892e-07
-7.71494e-06
1.18486e-07
-8.36697e-06
9.55842e-07
-7.88137e-06
2.46057e-06
-6.3733e-06
4.79317e-06
-3.91689e-06
8.10309e-06
-5.81681e-07
1.2521e-05
3.55797e-06
8.41707e-06
1.8146e-05
-1.58014e-07
-2.30004e-06
-4.68636e-07
-5.47982e-06
-7.59451e-07
-7.42413e-06
-8.48029e-07
-8.2784e-06
-5.44525e-07
-8.18488e-06
2.96392e-07
-7.21422e-06
1.81076e-06
-5.43126e-06
4.14335e-06
-2.91429e-06
7.41841e-06
2.82895e-07
4.0994e-06
1.17361e-05
-2.25574e-07
-2.07445e-06
-7.16555e-07
-4.98885e-06
-1.29407e-06
-6.84661e-06
-1.77557e-06
-7.79691e-06
-2.00414e-06
-7.95632e-06
-1.82079e-06
-7.39758e-06
-1.07316e-06
-6.17891e-06
3.63032e-07
-4.3505e-06
2.60446e-06
-1.95855e-06
9.5376e-07
5.75008e-06
-3.03872e-07
-1.7706e-06
-9.82746e-07
-4.30998e-06
-1.83921e-06
-5.99016e-06
-2.69488e-06
-6.94124e-06
-3.40473e-06
-7.24646e-06
-3.81444e-06
-6.98787e-06
-3.77616e-06
-6.2172e-06
-3.16381e-06
-4.96286e-06
-1.86542e-06
-3.25695e-06
-1.13118e-06
2.19504e-07
-3.79273e-07
-1.39135e-06
-1.22918e-06
-3.46008e-06
-2.3383e-06
-4.88104e-06
-3.53108e-06
-5.74842e-06
-4.64868e-06
-6.12883e-06
-5.55523e-06
-6.0813e-06
-6.12611e-06
-5.64632e-06
-6.24236e-06
-4.84662e-06
-5.79444e-06
-3.7049e-06
-2.26018e-06
-4.66546e-06
-4.20781e-07
-9.70564e-07
-1.38036e-06
-2.5005e-06
-2.6507e-06
-3.61065e-06
-4.06569e-06
-4.33338e-06
-5.48253e-06
-4.71191e-06
-6.77721e-06
-4.78661e-06
-7.83625e-06
-4.58727e-06
-8.55366e-06
-4.12923e-06
-8.84017e-06
-3.4184e-06
-2.54226e-06
-8.55812e-06
-4.16857e-07
-5.53674e-07
-1.37551e-06
-1.54185e-06
-2.67348e-06
-2.31265e-06
-4.16225e-06
-2.84446e-06
-5.71765e-06
-3.15649e-06
-7.23209e-06
-3.27211e-06
-8.605e-06
-3.21439e-06
-9.73835e-06
-2.9959e-06
-1.05398e-05
-2.61699e-06
-2.1575e-06
-1.09246e-05
-3.51318e-07
-2.02446e-07
-1.17134e-06
-7.21894e-07
-2.32611e-06
-1.15779e-06
-3.69831e-06
-1.47225e-06
-5.18046e-06
-1.67418e-06
-6.68551e-06
-1.7671e-06
-8.13152e-06
-1.76839e-06
-9.43524e-06
-1.69223e-06
-1.05052e-05
-1.54711e-06
-1.35878e-06
-1.13039e-05
-1.9798e-07
-4.53992e-09
-7.42744e-07
-1.77201e-07
-1.57096e-06
-3.29578e-07
-2.60826e-06
-4.34778e-07
-3.76011e-06
-5.22342e-07
-4.96473e-06
-5.62475e-07
-6.16609e-06
-5.67088e-07
-7.30449e-06
-5.53894e-07
-8.32823e-06
-5.23411e-07
-4.81867e-07
-9.20518e-06
-4.5629e-09
-1.81767e-07
-5.11333e-07
-9.46098e-07
-1.46844e-06
-2.03092e-06
-2.59802e-06
-3.15192e-06
-3.67534e-06
-4.15721e-06
-1.12883e-05
2.93567e-05
-1.73425e-05
6.05417e-06
-1.69669e-05
-3.7556e-07
-1.4791e-05
-2.17596e-06
-1.26326e-05
-2.15835e-06
-1.08665e-05
-1.76614e-06
-9.52423e-06
-1.34227e-06
-8.47381e-06
-1.05045e-06
-7.63252e-06
-8.41287e-07
-6.91708e-06
-7.15481e-07
-6.26567e-06
-6.514e-07
-5.63571e-06
-6.3001e-07
-5.00055e-06
-6.35136e-07
-4.34801e-06
-6.526e-07
-3.67806e-06
-6.69937e-07
-3.00114e-06
-6.77001e-07
-2.33542e-06
-6.65685e-07
-1.70535e-06
-6.30177e-07
-1.14039e-06
-5.64934e-07
-6.63825e-07
-4.76701e-07
-2.92244e-07
-3.71666e-07
-4.53769e-08
-2.47068e-07
6.72841e-08
-1.12854e-07
6.01054e-08
6.84343e-09
6.00605e-08
-4.58494e-06
5.17682e-05
-1.77648e-05
1.9234e-05
-2.30525e-05
4.91214e-06
-2.44243e-05
-8.04199e-07
-2.37934e-05
-2.78922e-06
-2.2402e-05
-3.15762e-06
-2.08558e-05
-2.88851e-06
-1.93799e-05
-2.52635e-06
-1.79846e-05
-2.23668e-06
-1.66361e-05
-2.06395e-06
-1.5292e-05
-1.99554e-06
-1.3915e-05
-2.00703e-06
-1.24816e-05
-2.06868e-06
-1.09853e-05
-2.14885e-06
-9.43807e-06
-2.2173e-06
-7.86782e-06
-2.24727e-06
-6.31646e-06
-2.21716e-06
-4.83479e-06
-2.11186e-06
-3.47586e-06
-1.92404e-06
-2.29486e-06
-1.65793e-06
-1.34143e-06
-1.32544e-06
-6.45076e-07
-9.43833e-07
-2.13532e-07
-5.45288e-07
-2.11414e-08
-1.86058e-07
3.88975e-08
3.81574e-06
7.00559e-05
-1.08488e-05
3.38985e-05
-1.98258e-05
1.38892e-05
-2.44895e-05
3.85942e-06
-2.64917e-05
-7.87064e-07
-2.69485e-05
-2.70082e-06
-2.6471e-05
-3.36607e-06
-2.55142e-05
-3.48315e-06
-2.42901e-05
-3.46084e-06
-2.29119e-05
-3.4421e-06
-2.13833e-05
-3.52423e-06
-1.97063e-05
-3.68405e-06
-1.7882e-05
-3.89307e-06
-1.59225e-05
-4.10833e-06
-1.38559e-05
-4.28403e-06
-1.17261e-05
-4.37708e-06
-9.59199e-06
-4.35135e-06
-7.52274e-06
-4.18119e-06
-5.59244e-06
-3.85443e-06
-3.87547e-06
-3.37509e-06
-2.43741e-06
-2.76368e-06
-1.32409e-06
-2.05764e-06
-5.55715e-07
-1.31375e-06
-1.2631e-07
-6.15762e-07
-8.7425e-08
1.04969e-05
8.63856e-05
-4.11282e-06
4.85083e-05
-1.46774e-05
2.44537e-05
-2.14301e-05
1.06121e-05
-2.53713e-05
3.15407e-06
-2.74181e-05
-6.54007e-07
-2.82516e-05
-2.53256e-06
-2.8241e-05
-3.49377e-06
-2.76357e-05
-4.0662e-06
-2.66116e-05
-4.46622e-06
-2.52665e-05
-4.86943e-06
-2.36332e-05
-5.31731e-06
-2.17365e-05
-5.78991e-06
-1.96062e-05
-6.23864e-06
-1.72846e-05
-6.60577e-06
-1.4829e-05
-6.8327e-06
-1.23128e-05
-6.8677e-06
-9.82164e-06
-6.67237e-06
-7.44907e-06
-6.22702e-06
-5.28914e-06
-5.53508e-06
-3.42803e-06
-4.62487e-06
-1.93468e-06
-3.55074e-06
-8.55539e-07
-2.39335e-06
-2.10181e-07
-1.2611e-06
-2.97596e-07
1.67495e-05
0.000101358
2.45997e-06
6.27978e-05
-8.88759e-06
3.58013e-05
-1.70051e-05
1.87296e-05
-2.24225e-05
8.57149e-06
-2.58226e-05
2.74608e-06
-2.77859e-05
-5.69318e-07
-2.87392e-05
-2.54054e-06
-2.89539e-05
-3.85149e-06
-2.85454e-05
-4.87476e-06
-2.76252e-05
-5.78969e-06
-2.62709e-05
-6.67163e-06
-2.45325e-05
-7.52834e-06
-2.24481e-05
-8.32315e-06
-2.00664e-05
-8.98761e-06
-1.74528e-05
-9.44629e-06
-1.46919e-05
-9.62873e-06
-1.1885e-05
-9.47923e-06
-9.14627e-06
-8.96596e-06
-6.59399e-06
-8.0873e-06
-4.34254e-06
-6.87634e-06
-2.49267e-06
-5.40103e-06
-1.12377e-06
-3.76187e-06
-2.99102e-07
-2.08568e-06
-5.96687e-07
2.32103e-05
0.000115259
9.23915e-06
7.67689e-05
-2.64339e-06
4.76838e-05
-1.1784e-05
2.78702e-05
-1.83992e-05
1.51867e-05
-2.29816e-05
7.32845e-06
-2.60227e-05
2.47178e-06
-2.79129e-05
-6.50351e-07
-2.89235e-05
-2.84096e-06
-2.9229e-05
-4.56933e-06
-2.89087e-05
-6.11002e-06
-2.8017e-05
-7.56337e-06
-2.66137e-05
-8.93169e-06
-2.47451e-05
-1.01918e-05
-2.24576e-05
-1.12752e-05
-1.9818e-05
-1.2086e-05
-1.69169e-05
-1.25298e-05
-1.38699e-05
-1.25264e-05
-1.08128e-05
-1.20231e-05
-7.89437e-06
-1.10058e-05
-5.26432e-06
-9.50653e-06
-3.06051e-06
-7.60451e-06
-1.39883e-06
-5.42355e-06
-3.59652e-07
-3.12467e-06
-9.56322e-07
3.00068e-05
0.00012827
1.63255e-05
9.04501e-05
4.0247e-06
5.99846e-05
-5.96605e-06
3.78609e-05
-1.36168e-05
2.28374e-05
-1.9262e-05
1.29737e-05
-2.33157e-05
6.52544e-06
-2.61369e-05
2.17082e-06
-2.79863e-05
-9.91603e-07
-2.90285e-05
-3.52714e-06
-2.93776e-05
-5.76097e-06
-2.90826e-05
-7.85841e-06
-2.81587e-05
-9.85556e-06
-2.66498e-05
-1.17008e-05
-2.45931e-05
-1.33319e-05
-2.20481e-05
-1.4631e-05
-1.91036e-05
-1.54743e-05
-1.5884e-05
-1.57461e-05
-1.25459e-05
-1.53611e-05
-9.27091e-06
-1.42809e-05
-6.25046e-06
-1.25269e-05
-3.66876e-06
-1.01862e-05
-1.68441e-06
-7.40763e-06
-4.16225e-07
-4.39265e-06
-1.37253e-06
3.72225e-05
0.000140463
2.3837e-05
0.000103836
1.121e-05
7.26116e-05
4.62428e-07
4.86085e-05
-8.13285e-06
3.14326e-05
-1.4772e-05
1.96128e-05
-1.97937e-05
1.15472e-05
-2.35285e-05
5.90554e-06
-2.62316e-05
1.71153e-06
-2.80712e-05
-1.68754e-06
-2.9144e-05
-4.68823e-06
-2.95094e-05
-7.49299e-06
-2.91864e-05
-1.01786e-05
-2.81673e-05
-1.272e-05
-2.64758e-05
-1.50233e-05
-2.41536e-05
-1.69533e-05
-2.12749e-05
-1.83529e-05
-1.79637e-05
-1.90574e-05
-1.4392e-05
-1.89329e-05
-1.07729e-05
-1.79e-05
-7.34559e-06
-1.59542e-05
-4.35333e-06
-1.31783e-05
-2.0193e-06
-9.74144e-06
-5.25591e-07
-5.88611e-06
-1.8981e-06
4.49544e-05
0.000151802
3.19254e-05
0.000116864
1.90658e-05
8.54712e-05
7.63552e-06
6.00388e-05
-1.85921e-06
4.09273e-05
-9.45834e-06
2.72119e-05
-1.54268e-05
1.75156e-05
-2.00655e-05
1.05442e-05
-2.36279e-05
5.27393e-06
-2.62896e-05
9.7419e-07
-2.81503e-05
-2.82757e-06
-2.9246e-05
-6.39735e-06
-2.95911e-05
-9.8334e-06
-2.91741e-05
-1.31371e-05
-2.79892e-05
-1.62082e-05
-2.60337e-05
-1.89088e-05
-2.33552e-05
-2.10313e-05
-2.00646e-05
-2.2348e-05
-1.63376e-05
-2.26599e-05
-1.24131e-05
-2.18245e-05
-8.5787e-06
-1.97884e-05
-5.14498e-06
-1.66119e-05
-2.41107e-06
-1.24751e-05
-6.33822e-07
-7.66311e-06
-2.5319e-06
5.3237e-05
0.000162133
4.07026e-05
0.000129399
2.77407e-05
9.84331e-05
1.57219e-05
7.20576e-05
5.36374e-06
5.12854e-05
-3.18313e-06
3.57587e-05
-1.00916e-05
2.4424e-05
-1.56304e-05
1.60831e-05
-2.0051e-05
9.69444e-06
-2.35408e-05
4.46401e-06
-2.62119e-05
-1.5646e-07
-2.81085e-05
-4.50082e-06
-2.92127e-05
-8.72922e-06
-2.94982e-05
-1.28515e-05
-2.89311e-05
-1.67753e-05
-2.74885e-05
-2.03514e-05
-2.51718e-05
-2.3348e-05
-2.20538e-05
-2.5466e-05
-1.82953e-05
-2.64183e-05
-1.41458e-05
-2.59739e-05
-9.93562e-06
-2.39985e-05
-6.04769e-06
-2.04997e-05
-2.87372e-06
-1.56488e-05
-7.6683e-07
-9.7698e-06
-3.29872e-06
6.20625e-05
0.000171261
5.02248e-05
0.000141237
3.7347e-05
0.000111311
2.48756e-05
8.4529e-05
1.37209e-05
6.24401e-05
4.23627e-06
4.52433e-05
-3.6164e-06
3.22767e-05
-1.0057e-05
2.25237e-05
-1.53321e-05
1.49695e-05
-1.96431e-05
8.775e-06
-2.31217e-05
3.32211e-06
-2.58264e-05
-1.79619e-06
-2.77547e-05
-6.80089e-06
-2.88491e-05
-1.17571e-05
-2.90323e-05
-1.65921e-05
-2.8248e-05
-2.11357e-05
-2.64674e-05
-2.51287e-05
-2.37147e-05
-2.82187e-05
-2.01019e-05
-3.00312e-05
-1.58648e-05
-3.02109e-05
-1.13596e-05
-2.85035e-05
-7.03986e-06
-2.48192e-05
-3.40394e-06
-1.92845e-05
-9.27005e-07
-1.22466e-05
-4.22571e-06
7.1353e-05
0.000178925
6.04798e-05
0.00015211
4.79409e-05
0.00012385
3.52156e-05
9.72544e-05
2.33807e-05
7.42749e-05
1.2997e-05
5.56271e-05
4.19391e-06
4.10797e-05
-3.15927e-06
2.98769e-05
-9.28941e-06
2.10997e-05
-1.4412e-05
1.38976e-05
-1.86829e-05
7.593e-06
-2.21859e-05
1.70675e-06
-2.49331e-05
-4.0537e-06
-2.68779e-05
-9.81229e-06
-2.79258e-05
-1.55442e-05
-2.79674e-05
-2.10941e-05
-2.69258e-05
-2.61702e-05
-2.47594e-05
-3.03851e-05
-2.15213e-05
-3.32692e-05
-1.73997e-05
-3.43325e-05
-1.27466e-05
-3.31566e-05
-8.07061e-06
-2.94951e-05
-3.98347e-06
-2.33715e-05
-1.10984e-06
-1.51201e-05
-5.33554e-06
8.09018e-05
0.000184799
7.13433e-05
0.000161668
5.94842e-05
0.000135709
4.6789e-05
0.000109949
3.44647e-05
8.65992e-05
2.32744e-05
6.68174e-05
1.35388e-05
5.08153e-05
5.25763e-06
3.8158e-05
-1.73986e-06
2.80972e-05
-7.66991e-06
1.98277e-05
-1.27162e-05
1.26393e-05
-1.69952e-05
5.98566e-06
-2.05495e-05
-4.99305e-07
-2.33504e-05
-7.01142e-06
-2.53095e-05
-1.35851e-05
-2.63016e-05
-2.0102e-05
-2.61829e-05
-2.62889e-05
-2.48441e-05
-3.17239e-05
-2.22525e-05
-3.58608e-05
-1.85166e-05
-3.80683e-05
-1.39414e-05
-3.77317e-05
-9.05708e-06
-3.43793e-05
-4.58175e-06
-2.78467e-05
-1.31162e-06
-1.83901e-05
-6.64716e-06
9.04801e-05
0.000188623
8.26035e-05
0.000169545
7.18306e-05
0.000146482
5.95411e-05
0.000122239
4.70136e-05
9.91267e-05
3.51889e-05
7.86421e-05
2.45913e-05
6.1413e-05
1.53852e-05
4.73641e-05
7.49856e-06
3.59838e-05
7.48527e-07
2.65777e-05
-5.06418e-06
1.84521e-05
-1.00941e-05
1.10156e-05
-1.44258e-05
3.83243e-06
-1.80668e-05
-3.3704e-06
-2.09513e-05
-1.07006e-05
-2.29522e-05
-1.81011e-05
-2.3898e-05
-2.5343e-05
-2.3608e-05
-3.20139e-05
-2.19523e-05
-3.75164e-05
-1.89269e-05
-4.10936e-05
-1.47384e-05
-4.19202e-05
-9.88168e-06
-3.9236e-05
-5.15018e-06
-3.25781e-05
-1.52243e-06
-2.20178e-05
-8.16958e-06
9.96894e-05
0.000190032
9.39146e-05
0.00017532
8.46972e-05
0.000155699
7.32807e-05
0.000133655
6.09469e-05
0.00011146
4.8767e-05
9.0822e-05
3.74607e-05
7.27193e-05
2.73828e-05
5.7442e-05
1.86e-05
4.47666e-05
1.10027e-05
3.4175e-05
4.40941e-06
2.50454e-05
-1.36037e-06
1.67854e-05
-6.43746e-06
8.90953e-06
-1.08806e-05
1.07277e-06
-1.46669e-05
-6.91428e-06
-1.76931e-05
-1.50749e-05
-1.97851e-05
-2.32509e-05
-2.07187e-05
-3.10803e-05
-2.02701e-05
-3.79649e-05
-1.83044e-05
-4.30594e-05
-1.48892e-05
-4.53353e-05
-1.03947e-05
-4.37304e-05
-5.62474e-06
-3.7348e-05
-1.72916e-06
-2.59133e-05
-9.89874e-06
0.000108039
0.000188756
0.000104788
0.000178571
9.76417e-05
0.000162845
8.76473e-05
0.00014365
7.60179e-05
0.00012309
6.38906e-05
0.000102949
5.21471e-05
8.44628e-05
4.13372e-05
6.82519e-05
3.16997e-05
5.44041e-05
2.32419e-05
4.26327e-05
1.58373e-05
3.245e-05
9.31008e-06
2.33126e-05
3.49785e-06
1.47218e-05
-1.71059e-06
6.28122e-06
-6.35342e-06
-2.27141e-06
-1.03792e-05
-1.10491e-05
-1.36428e-05
-1.99872e-05
-1.59131e-05
-2.881e-05
-1.68951e-05
-3.69829e-05
-1.63098e-05
-4.36446e-05
-1.41085e-05
-4.75365e-05
-1.04251e-05
-4.74138e-05
-5.93513e-06
-4.18379e-05
-1.92036e-06
-2.99281e-05
-1.18191e-05
0.000115124
0.000184681
0.000114702
0.000178993
0.000110102
0.000167445
0.000102109
0.000151643
9.17845e-05
0.000133415
8.0248e-05
0.000114486
6.84821e-05
9.62286e-05
5.72084e-05
7.95256e-05
4.68505e-05
6.4762e-05
3.75697e-05
5.19136e-05
2.93386e-05
4.06811e-05
2.20241e-05
3.06271e-05
1.5459e-05
2.12869e-05
9.49386e-06
1.22463e-05
4.03379e-06
3.18868e-06
-9.41146e-07
-6.07412e-06
-5.35012e-06
-1.55782e-05
-9.00478e-06
-2.51553e-05
-1.16051e-05
-3.43825e-05
-1.27736e-05
-4.24761e-05
-1.21732e-05
-4.81369e-05
-9.77562e-06
-4.98113e-05
-5.9807e-06
-4.56329e-05
-2.06904e-06
-3.38397e-05
-1.38881e-05
0.00012041
0.000177717
0.000123048
0.000176355
0.000121402
0.000169091
0.00011597
0.000157075
0.000107595
0.000141789
9.72936e-05
0.000124787
8.60681e-05
0.000107454
7.47575e-05
9.08362e-05
6.39546e-05
7.55649e-05
5.39914e-05
6.18768e-05
4.49779e-05
4.96946e-05
3.68673e-05
3.87377e-05
2.95262e-05
2.8628e-05
2.27949e-05
1.89776e-05
1.65347e-05
9.44892e-06
1.06618e-05
-2.01232e-07
5.17516e-06
-1.00916e-05
1.90768e-07
-2.01709e-05
-4.0457e-06
-3.01461e-05
-7.14754e-06
-3.93742e-05
-8.53891e-06
-4.67455e-05
-7.92301e-06
-5.04272e-05
-5.44626e-06
-4.81096e-05
-2.06387e-06
-3.72221e-05
-1.5952e-05
0.000123407
0.000167947
0.000129202
0.000170561
0.000130798
0.000167494
0.000128406
0.000159468
0.000122607
0.000147588
0.000114239
0.000133155
0.000104235
0.000117458
9.34767e-05
0.000101595
8.2677e-05
8.63646e-05
7.23276e-05
7.22262e-05
6.26938e-05
5.93285e-05
5.38518e-05
4.75796e-05
4.57447e-05
3.67351e-05
3.8241e-05
2.64814e-05
3.11866e-05
1.65034e-05
2.44503e-05
6.535e-06
1.79568e-05
-3.59809e-06
1.17307e-05
-1.39448e-05
5.93892e-06
-2.43543e-05
9.30792e-07
-3.43661e-05
-2.79969e-06
-4.30151e-05
-4.60796e-06
-4.86189e-05
-4.06919e-06
-4.86483e-05
-1.84075e-06
-3.94505e-05
-1.77928e-05
0.000123758
0.000155643
0.000132618
0.000161702
0.000137572
0.00016254
0.00013855
0.000158489
0.000135855
0.000150283
0.000130091
0.000138919
0.000122044
0.000125505
0.00011255
0.000111089
0.000102372
9.65425e-05
9.2117e-05
8.24809e-05
8.21952e-05
6.92502e-05
7.28226e-05
5.69523e-05
6.40526e-05
4.55052e-05
5.58216e-05
3.47123e-05
4.79984e-05
2.43265e-05
4.04297e-05
1.41038e-05
3.29839e-05
3.84766e-06
2.55893e-05
-6.55014e-06
1.82919e-05
-1.70569e-05
1.13214e-05
-2.73956e-05
5.16974e-06
-3.68634e-05
5.75174e-07
-4.40243e-05
-1.73166e-06
-4.63415e-05
-1.43326e-06
-3.97489e-05
-1.9226e-05
0.000121285
0.000141257
0.000132908
0.000150079
0.000141115
0.000154333
0.000145585
0.000154019
0.000146345
0.000149522
0.000143738
0.000141526
0.000138343
0.0001309
0.00013087
0.000118562
0.000122054
0.000105359
0.000112546
9.19883e-05
0.00010286
7.89363e-05
9.33414e-05
6.64713e-05
8.41677e-05
5.46789e-05
7.5374e-05
4.3506e-05
6.68894e-05
3.28111e-05
5.85774e-05
2.24159e-05
5.02753e-05
1.21497e-05
4.18363e-05
1.88885e-06
3.31793e-05
-8.39988e-06
2.43668e-05
-1.85831e-05
1.57235e-05
-2.82201e-05
7.96471e-06
-3.62655e-05
2.14638e-06
-4.05232e-05
-3.81934e-07
-3.72206e-05
-1.9608e-05
0.000116031
0.000125395
0.000129913
0.000136197
0.000141031
0.000143214
0.000148865
0.000146186
0.00015319
0.000145196
0.000154088
0.000140629
0.000151897
0.000133091
0.000147134
0.000123326
0.000140443
0.00011205
0.000132442
9.99888e-05
0.00012368
8.76989e-05
0.000114591
7.55593e-05
0.000105468
6.38026e-05
9.64522e-05
5.25216e-05
8.75631e-05
4.17002e-05
7.87195e-05
3.12595e-05
6.97707e-05
2.10985e-05
6.05285e-05
1.11311e-05
5.08076e-05
1.32102e-06
4.04862e-05
-8.26164e-06
2.96092e-05
-1.73431e-05
1.85972e-05
-2.52535e-05
8.61189e-06
-3.05379e-05
1.7347e-06
-3.03434e-05
-1.78733e-05
0.000108282
0.000108758
0.000123752
0.000120727
0.000137219
0.000129747
0.000148022
0.000135383
0.000155737
0.000137482
0.0001602
0.000136165
0.00016152
0.000131771
0.000160022
0.000124823
0.000156141
0.000115931
0.000150383
0.000105747
0.000143294
9.47879e-05
0.000135352
8.35013e-05
0.000126912
7.22426e-05
0.00011821
6.12236e-05
0.000109363
5.0547e-05
0.000100377
4.02458e-05
9.1161e-05
3.03143e-05
8.15512e-05
2.07409e-05
7.1329e-05
1.15432e-05
6.02621e-05
2.80529e-06
4.81649e-05
-5.24595e-06
3.50259e-05
-1.21145e-05
2.12563e-05
-1.67683e-05
8.11375e-06
-1.72009e-05
-9.75953e-06
9.66398e-05
9.24061e-05
0.000112599
0.000104768
0.000127366
0.00011498
0.000140235
0.000122514
0.000150664
0.000127052
0.000158331
0.000128499
0.000163201
0.0001269
0.000165177
0.000122848
0.000164405
0.000116703
0.00016148
0.000108672
0.000156817
9.94505e-05
0.000150846
8.9472e-05
0.000143927
7.91616e-05
0.000136352
6.87991e-05
0.000128314
5.85847e-05
0.000119911
4.8649e-05
0.000111147
3.90778e-05
0.000101951
2.99374e-05
9.21906e-05
2.13034e-05
8.16979e-05
1.3298e-05
7.03224e-05
6.12955e-06
5.80429e-05
1.64973e-07
4.5215e-05
-3.94038e-06
3.31167e-05
-5.10261e-06
-2.12428e-06
2.54815e-05
8.59879e-05
7.66439e-05
0.000101999
8.87569e-05
0.000117539
9.944e-05
0.000131909
0.000108143
0.000144501
0.000114461
0.000154837
0.000118162
0.000162575
0.000119163
0.000167773
0.00011765
0.000170532
0.000113944
0.000170854
0.00010835
0.000169064
0.000101241
0.00016554
9.29954e-05
0.000160615
8.40869e-05