/*--------------------------------*- C++ -*----------------------------------*\
| =========                 |                                                 |
| \\      /  F ield         | OpenFOAM: The Open Source CFD Toolbox           |
|  \\    /   O peration     | Version:  v2012                                 |
|   \\  /    A nd           | Website:  www.openfoam.com                      |
|    \\/     M anipulation  |                                                 |
\*---------------------------------------------------------------------------*/
FoamFile
{
    version     2.0;
    format      ascii;
    class       volVectorField;
    location    "2000";
    object      U;
}
// * * * * * * * * * * * * * * * * * * * * * * * * * * * * * * * * * * * * * //

dimensions      [0 1 -1 0 0 0 0];


internalField   nonuniform List<vector> 
6502
(
(0.0642677 -0.853548 0)
(0.0896386 -1.01296 0)
(0.0554915 -1.013 0)
(0.0246579 -1.00706 0)
(0.00729254 -1.00534 0)
(-0.00713797 -1.00534 0)
(-0.0245117 -1.00706 0)
(-0.0553616 -1.01301 0)
(-0.0895489 -1.01295 0)
(-0.0642281 -0.853576 0)
(0.108362 -0.746775 0)
(0.154833 -1.07833 0)
(0.108845 -1.06906 0)
(0.0565206 -1.0451 0)
(0.0177996 -1.03544 0)
(-0.0173079 -1.03545 0)
(-0.0560449 -1.04512 0)
(-0.108417 -1.06911 0)
(-0.1545 -1.07848 0)
(-0.108307 -0.746964 0)
(0.0721024 -0.610424 0)
(0.140338 -1.07188 0)
(0.116064 -1.12701 0)
(0.0670627 -1.10676 0)
(0.0218854 -1.09051 0)
(-0.0210204 -1.09054 0)
(-0.0662462 -1.10685 0)
(-0.115425 -1.12725 0)
(-0.139861 -1.07232 0)
(-0.0720379 -0.610898 0)
(0.0290936 -0.492735 0)
(0.113583 -1.02997 0)
(0.103215 -1.1701 0)
(0.0657948 -1.1656 0)
(0.0223725 -1.15001 0)
(-0.0210222 -1.15009 0)
(-0.0645387 -1.16587 0)
(-0.102197 -1.17042 0)
(-0.112978 -1.03087 0)
(-0.0289962 -0.49361 0)
(0.00981964 -0.421635 0)
(0.0806782 -0.977666 0)
(0.0866092 -1.18371 0)
(0.0607192 -1.21186 0)
(0.0215411 -1.20382 0)
(-0.0195196 -1.20394 0)
(-0.058816 -1.21235 0)
(-0.0850411 -1.18482 0)
(-0.0799631 -0.979333 0)
(-0.00965341 -0.422981 0)
(0.00350187 -0.381345 0)
(0.0519869 -0.93043 0)
(0.0711943 -1.18526 0)
(0.0522514 -1.24716 0)
(0.0196651 -1.25055 0)
(-0.0168934 -1.2508 0)
(-0.0498154 -1.24812 0)
(-0.0690591 -1.18712 0)
(-0.0509813 -0.933152 0)
(-0.00327491 -0.383313 0)
(0.00138846 -0.356632 0)
(0.0330552 -0.892492 0)
(0.0559753 -1.18048 0)
(0.0431202 -1.27668 0)
(0.0173486 -1.29023 0)
(-0.0135072 -1.29064 0)
(-0.0396487 -1.27764 0)
(-0.0532589 -1.18337 0)
(-0.0316737 -0.896618 0)
(-0.00110701 -0.359447 0)
(0.000640843 -0.340456 0)
(0.0216631 -0.862947 0)
(0.0417686 -1.17197 0)
(0.0362341 -1.29424 0)
(0.0156662 -1.32259 0)
(-0.0101873 -1.32328 0)
(-0.0311398 -1.29677 0)
(-0.0383457 -1.17649 0)
(-0.019782 -0.868908 0)
(-0.000290674 -0.344375 0)
(0.000488379 -0.32951 0)
(0.0152806 -0.840447 0)
(0.0316628 -1.16236 0)
(0.0311067 -1.30634 0)
(0.014483 -1.3489 0)
(-0.00698196 -1.34992 0)
(-0.0243385 -1.3101 0)
(-0.0269632 -1.16914 0)
(-0.0127077 -0.84886 0)
(-3.47314e-05 -0.334896 0)
(0.000554379 -0.321458 0)
(0.0118367 -0.823019 0)
(0.0252159 -1.15281 0)
(0.0270519 -1.31475 0)
(0.0136816 -1.37003 0)
(-0.00389596 -1.37177 0)
(-0.0182031 -1.32035 0)
(-0.0188651 -1.16264 0)
(-0.00841012 -0.834725 0)
(2.53115e-05 -0.32882 0)
(0.000655944 -0.314832 0)
(0.0099722 -0.80885 0)
(0.0212453 -1.14376 0)
(0.024234 -1.32037 0)
(0.0132733 -1.38754 0)
(-0.000508447 -1.38927 0)
(-0.0125142 -1.32843 0)
(-0.012845 -1.15757 0)
(-0.00545037 -0.824914 0)
(9.28789e-05 -0.324812 0)
(0.00076187 -0.3089 0)
(0.00902778 -0.796655 0)
(0.018902 -1.13526 0)
(0.0227223 -1.32386 0)
(0.0138479 -1.40146 0)
(0.00341475 -1.40457 0)
(-0.00715615 -1.33517 0)
(-0.00776268 -1.15427 0)
(-0.00299513 -0.818469 0)
(0.000225914 -0.322351 0)
(0.00088309 -0.303256 0)
(0.00873578 -0.785525 0)
(0.0178389 -1.12705 0)
(0.022288 -1.32567 0)
(0.0156322 -1.4116 0)
(0.00767741 -1.41636 0)
(-0.00152251 -1.34136 0)
(-0.00289973 -1.15299 0)
(-0.000618643 -0.815008 0)
(0.000435191 -0.321389 0)
(0.0010388 -0.297567 0)
(0.00902411 -0.774699 0)
(0.0180402 -1.11863 0)
(0.0231885 -1.32591 0)
(0.0189555 -1.41925 0)
(0.0126301 -1.426 0)
(0.00464704 -1.34758 0)
(0.00212558 -1.1539 0)
(0.00190733 -0.814475 0)
(0.000777409 -0.321977 0)
(0.00123966 -0.291484 0)
(0.00987378 -0.763424 0)
(0.0195189 -1.10936 0)
(0.0256873 -1.32427 0)
(0.0239733 -1.42462 0)
(0.0187748 -1.4341 0)
(0.0117119 -1.35414 0)
(0.00775444 -1.1572 0)
(0.00489425 -0.817063 0)
(0.0012577 -0.32435 0)
(0.00148338 -0.284658 0)
(0.0112577 -0.750947 0)
(0.02223 -1.0985 0)
(0.0299355 -1.32037 0)
(0.0307004 -1.42794 0)
(0.0266589 -1.44086 0)
(0.0202938 -1.36127 0)
(0.0146455 -1.16321 0)
(0.00880525 -0.823255 0)
(0.00197643 -0.329055 0)
(0.00176372 -0.276758 0)
(0.0131503 -0.736519 0)
(0.0261421 -1.0853 0)
(0.0360359 -1.31374 0)
(0.0395409 -1.4289 0)
(0.0370308 -1.44625 0)
(0.031283 -1.36915 0)
(0.0237509 -1.1724 0)
(0.0143822 -0.833951 0)
(0.00318225 -0.337032 0)
(0.00206842 -0.267483 0)
(0.0155075 -0.719402 0)
(0.0312156 -1.06889 0)
(0.0440595 -1.3037 0)
(0.0508626 -1.42695 0)
(0.0504365 -1.44997 0)
(0.0458305 -1.37774 0)
(0.0365494 -1.18509 0)
(0.0230218 -0.850395 0)
(0.00535553 -0.349873 0)
(0.00237146 -0.256583 0)
(0.0182207 -0.698895 0)
(0.0373096 -1.04834 0)
(0.0539449 -1.28936 0)
(0.064898 -1.4212 0)
(0.0670349 -1.45085 0)
(0.0651256 -1.38607 0)
(0.0551395 -1.20118 0)
(0.0370817 -0.874919 0)
(0.0111349 -0.372807 0)
(0.0026349 -0.243904 0)
(0.0210918 -0.674406 0)
(0.0441198 -1.02273 0)
(0.0654193 -1.26957 0)
(0.0816715 -1.41037 0)
(0.0876413 -1.44825 0)
(0.0904447 -1.39153 0)
(0.0841743 -1.21748 0)
(0.0674374 -0.902811 0)
(0.042068 -0.396456 0)
(0.00280937 -0.229399 0)
(0.0237934 -0.645463 0)
(0.0510044 -0.991131 0)
(0.0775835 -1.24303 0)
(0.0997155 -1.39287 0)
(0.111497 -1.44046 0)
(0.120391 -1.39004 0)
(0.122398 -1.22632 0)
(0.117827 -0.927702 0)
(0.107289 -0.501825 0)
(0.00283667 -0.213326 0)
(0.0258669 -0.612203 0)
(0.0569451 -0.953332 0)
(0.0886961 -1.20925 0)
(0.11606 -1.36744 0)
(0.133765 -1.42418 0)
(0.146833 -1.38022 0)
(0.151515 -1.22563 0)
(0.146035 -0.94125 0)
(0.11493 -0.55858 0)
(0.00270961 -0.196301 0)
(0.0270547 -0.575545 0)
(0.061242 -0.910139 0)
(0.0975208 -1.16903 0)
(0.129345 -1.33522 0)
(0.151772 -1.40195 0)
(0.167483 -1.36664 0)
(0.171832 -1.22547 0)
(0.162303 -0.963579 0)
(0.125132 -0.622446 0)
(0.002181 -0.178984 0)
(0.0274496 -0.536591 0)
(0.0638841 -0.86263 0)
(0.103983 -1.12341 0)
(0.139905 -1.29776 0)
(0.166419 -1.37578 0)
(0.18449 -1.3522 0)
(0.189254 -1.22992 0)
(0.177347 -0.995711 0)
(0.139419 -0.692852 0)
(0.00164239 -0.161839 0)
(0.0272901 -0.49626 0)
(0.0652178 -0.81176 0)
(0.108502 -1.07312 0)
(0.148327 -1.25554 0)
(0.178999 -1.34579 0)
(0.198572 -1.33665 0)
(0.205144 -1.23515 0)
(0.192856 -1.029 0)
(0.155979 -0.758056 0)
(0.00148662 -0.145116 0)
(0.0267438 -0.45531 0)
(0.0655678 -0.75833 0)
(0.111447 -1.01861 0)
(0.154885 -1.20854 0)
(0.189837 -1.3117 0)
(0.21124 -1.32082 0)
(0.219909 -1.23774 0)
(0.209075 -1.05938 0)
(0.174752 -0.816937 0)
(0.00139515 -0.128947 0)
(0.0259106 -0.414353 0)
(0.0651225 -0.703083 0)
(0.113034 -0.96039 0)
(0.159762 -1.1568 0)
(0.198769 -1.27315 0)
(0.223888 -1.30085 0)
(0.234866 -1.23745 0)
(0.226624 -1.08617 0)
(0.195796 -0.870781 0)
(0.00131099 -0.113429 0)
(0.0248811 -0.373848 0)
(0.0640353 -0.646694 0)
(0.113452 -0.899007 0)
(0.163223 -1.10048 0)
(0.206176 -1.22971 0)
(0.235919 -1.27553 0)
(0.25116 -1.23409 0)
(0.245989 -1.10898 0)
(0.21898 -0.919675 0)
(0.00123019 -0.0986514 0)
(0.0237193 -0.334155 0)
(0.0624367 -0.589752 0)
(0.112856 -0.835002 0)
(0.165395 -1.03975 0)
(0.212379 -1.18086 0)
(0.247042 -1.24453 0)
(0.266952 -1.22372 0)
(0.266423 -1.12751 0)
(0.243954 -0.963508 0)
(0.00114868 -0.0846765 0)
(0.0224508 -0.295573 0)
(0.0603949 -0.532787 0)
(0.111317 -0.768898 0)
(0.166235 -0.974792 0)
(0.21722 -1.12625 0)
(0.257259 -1.20715 0)
(0.281329 -1.20919 0)
(0.2867 -1.13842 0)
(0.270115 -1.00088 0)
(0.00106348 -0.0715549 0)
(0.0210779 -0.258374 0)
(0.0579246 -0.476324 0)
(0.108832 -0.701286 0)
(0.165634 -0.905959 0)
(0.220379 -1.06579 0)
(0.265898 -1.16292 0)
(0.295569 -1.18816 0)
(0.307414 -1.14168 0)
(0.29737 -1.03073 0)
(0.000974038 -0.0593399 0)
(0.0195997 -0.22283 0)
(0.0550248 -0.420906 0)
(0.10537 -0.632854 0)
(0.163446 -0.833803 0)
(0.221548 -0.999655 0)
(0.272321 -1.11142 0)
(0.308727 -1.15782 0)
(0.32744 -1.13534 0)
(0.324918 -1.05256 0)
(0.000881533 -0.048085 0)
(0.0180242 -0.189209 0)
(0.0517099 -0.367097 0)
(0.100922 -0.564387 0)
(0.159568 -0.759069 0)
(0.220481 -0.928252 0)
(0.276215 -1.05246 0)
(0.31969 -1.11854 0)
(0.345637 -1.12116 0)
(0.351505 -1.06399 0)
(0.000787922 -0.0378362 0)
(0.0163687 -0.157762 0)
(0.0480143 -0.315458 0)
(0.095513 -0.496728 0)
(0.153936 -0.682667 0)
(0.216904 -0.85223 0)
(0.277112 -0.986117 0)
(0.327396 -1.06986 0)
(0.361599 -1.09594 0)
(0.37669 -1.06481 0)
(0.000696646 -0.0286286 0)
(0.0146568 -0.128716 0)
(0.0439905 -0.266536 0)
(0.0892029 -0.430771 0)
(0.146541 -0.605674 0)
(0.210601 -0.772545 0)
(0.274517 -0.912914 0)
(0.331143 -1.01165 0)
(0.373831 -1.05922 0)
(0.398551 -1.05216 0)
(0.000610363 -0.0204894 0)
(0.0129192 -0.102257 0)
(0.0397162 -0.22084 0)
(0.0821076 -0.367427 0)
(0.137477 -0.529315 0)
(0.201516 -0.690462 0)
(0.268084 -0.833839 0)
(0.330243 -0.94429 0)
(0.381273 -1.01087 0)
(0.415595 -1.0287 0)
(0.000542002 -0.01341 0)
(0.0111827 -0.0785127 0)
(0.0352942 -0.178804 0)
(0.0744028 -0.307573 0)
(0.126946 -0.454893 0)
(0.189759 -0.607498 0)
(0.257645 -0.750294 0)
(0.324126 -0.868739 0)
(0.382551 -0.951142 0)
(0.42682 -0.990696 0)
(0.000781201 -0.00730495 0)
(0.00949073 -0.0575328 0)
(0.030855 -0.140776 0)
(0.0663153 -0.251999 0)
(0.115254 -0.383706 0)
(0.175633 -0.525346 0)
(0.243333 -0.664078 0)
(0.312619 -0.786555 0)
(0.377116 -0.881019 0)
(0.430619 -0.939242 0)
(0.00114851 -0.00211275 0)
(0.00785437 -0.0393441 0)
(0.0264905 -0.107001 0)
(0.058068 -0.201349 0)
(0.102785 -0.31695 0)
(0.159622 -0.445743 0)
(0.225585 -0.577254 0)
(0.295905 -0.699775 0)
(0.36476 -0.802093 0)
(0.426075 -0.875262 0)
(0.000947571 0.00212482 0)
(0.00628247 -0.0239078 0)
(0.0222496 -0.0775335 0)
(0.0498624 -0.156031 0)
(0.0899523 -0.255603 0)
(0.142333 -0.370315 0)
(0.205088 -0.491982 0)
(0.274541 -0.610805 0)
(0.345688 -0.716624 0)
(0.412857 -0.800457 0)
(0.000254076 0.00532991 0)
(0.00467624 -0.011057 0)
(0.0182382 -0.0521861 0)
(0.0419491 -0.116179 0)
(0.077209 -0.200346 0)
(0.124455 -0.300446 0)
(0.182729 -0.410355 0)
(0.249464 -0.522254 0)
(0.320652 -0.627414 0)
(0.391305 -0.717389 0)
(0.00026464 0.00779996 0)
(0.00379719 -0.000471114 0)
(0.0148318 -0.0307894 0)
(0.0346992 -0.081834 0)
(0.0650454 -0.151617 0)
(0.106714 -0.237209 0)
(0.159517 -0.33422 0)
(0.221899 -0.436699 0)
(0.290909 -0.537526 0)
(0.362451 -0.629231 0)
(0.000324789 0.00972666 0)
(0.00310508 0.00798141 0)
(0.0117073 -0.0133024 0)
(0.0281228 -0.0529351 0)
(0.0537396 -0.109591 0)
(0.0897167 -0.181305 0)
(0.136437 -0.265033 0)
(0.193198 -0.356438 0)
(0.258063 -0.449992 0)
(0.327932 -0.539462 0)
(-0.000535077 0.0110782 0)
(0.00206039 0.0144956 0)
(0.00890798 0.000721675 0)
(0.022291 -0.0292055 0)
(0.0436072 -0.0743666 0)
(0.0741214 -0.133425 0)
(0.114591 -0.204313 0)
(0.164972 -0.28398 0)
(0.224208 -0.368325 0)
(0.290177 -0.452407 0)
(-0.000601594 0.0118531 0)
(0.00143055 0.0194277 0)
(0.00671007 0.0119045 0)
(0.0174187 -0.00993438 0)
(0.0348545 -0.0452785 0)
(0.060275 -0.0931609 0)
(0.0946327 -0.152178 0)
(0.138326 -0.220235 0)
(0.190984 -0.294399 0)
(0.251348 -0.370931 0)
(-0.000191207 0.0124153 0)
(0.00124613 0.0231394 0)
(0.00507267 0.0205999 0)
(0.0134497 0.00550135 0)
(0.0274218 -0.0214869 0)
(0.0481824 -0.0596221 0)
(0.0767492 -0.10792 0)
(0.113779 -0.164953 0)
(0.159386 -0.228678 0)
(0.212998 -0.296381 0)
(-0.000184471 0.0128411 0)
(0.000682291 0.025846 0)
(0.00372486 0.0272244 0)
(0.0101168 0.0176247 0)
(0.0211245 -0.00240435 0)
(0.0377703 -0.0322438 0)
(0.0610561 -0.071158 0)
(0.091765 -0.118152 0)
(0.130317 -0.171821 0)
(0.176636 -0.230249 0)
(-0.000151307 0.012999 0)
(6.61564e-05 0.0278755 0)
(0.00251355 0.0323048 0)
(0.00725703 0.0270357 0)
(0.0157264 0.0126411 0)
(0.0287899 -0.0103141 0)
(0.0473826 -0.0412367 0)
(0.0723185 -0.079406 0)
(0.104177 -0.123847 0)
(0.143196 -0.173226 0)
(-6.60363e-05 0.0130123 0)
(4.17858e-05 0.0291874 0)
(0.00168868 0.0358876 0)
(0.00477955 0.0339917 0)
(0.010958 0.0241328 0)
(0.0208614 0.00682231 0)
(0.0353185 -0.0174107 0)
(0.05511 -0.0480151 0)
(0.0808611 -0.0842912 0)
(0.112974 -0.125305 0)
(-7.24386e-05 0.0129565 0)
(-0.000296463 0.0297853 0)
(0.000313172 0.0380716 0)
(0.00224138 0.0387252 0)
(0.00632053 0.0324711 0)
(0.0134468 0.0197504 0)
(0.0242817 0.00105599 0)
(0.0395532 -0.0231673 0)
(0.0598748 -0.0523966 0)
(0.0857118 -0.0859609 0)
(-0.00010567 0.012622 0)
(-0.000745862 0.0295427 0)
(-0.00136336 0.0389168 0)
(-0.000505957 0.0414766 0)
(0.00151508 0.0379937 0)
(0.00616606 0.0289703 0)
(0.0137599 0.0148241 0)
(0.0250353 -0.00407126 0)
(0.0405631 -0.0273061 0)
(0.0608159 -0.0543894 0)
(-0.000125994 0.0119722 0)
(-0.00123145 0.0283972 0)
(-0.00262227 0.0382135 0)
(-0.00349693 0.0421373 0)
(-0.00336797 0.0408264 0)
(-0.00108523 0.0347908 0)
(0.00349405 0.0243601 0)
(0.0111429 0.00990937 0)
(0.0223839 -0.00824075 0)
(0.0376725 -0.0297341 0)
(-0.000161482 0.01102 0)
(-0.001792 0.0263975 0)
(-0.00405684 0.0360302 0)
(-0.00642701 0.0406684 0)
(-0.00792315 0.0410027 0)
(-0.00829774 0.0373022 0)
(-0.00649423 0.0299399 0)
(-0.00220918 0.0192274 0)
(0.00512463 0.00541312 0)
(0.0159492 -0.0112451 0)
(-0.000214761 0.00969435 0)
(-0.00241399 0.0234636 0)
(-0.0056074 0.0324213 0)
(-0.00928422 0.0372824 0)
(-0.0125018 0.0385344 0)
(-0.0150398 0.0366339 0)
(-0.015896 0.0317987 0)
(-0.0146984 0.0242347 0)
(-0.0109413 0.0141348 0)
(-0.00417685 0.00168196 0)
(-0.00028387 0.00796804 0)
(-0.0029974 0.0195899 0)
(-0.00702938 0.0274321 0)
(-0.0118705 0.0320689 0)
(-0.0166938 0.0338834 0)
(-0.0209424 0.0332231 0)
(-0.0240546 0.0303343 0)
(-0.0255638 0.025339 0)
(-0.0250063 0.0183674 0)
(-0.0219081 0.00956139 0)
(-0.000330183 0.00596768 0)
(-0.00332378 0.0149799 0)
(-0.00790968 0.0213545 0)
(-0.0135087 0.0253951 0)
(-0.019387 0.0273771 0)
(-0.0250002 0.0275477 0)
(-0.0298761 0.0260842 0)
(-0.0335818 0.0230882 0)
(-0.0357235 0.0186626 0)
(-0.0358384 0.0129922 0)
(-0.000275842 0.00371369 0)
(-0.00331745 0.0100291 0)
(-0.00790969 0.0147465 0)
(-0.0136952 0.0179199 0)
(-0.0199852 0.0197093 0)
(-0.0263064 0.0202727 0)
(-0.0322524 0.0197318 0)
(-0.0374271 0.0181306 0)
(-0.0414306 0.01542 0)
(-0.0438983 0.0123363 0)
(-0.000209311 0.00180651 0)
(-0.00281563 0.00541761 0)
(-0.00678931 0.00837457 0)
(-0.0120229 0.0104933 0)
(-0.0179065 0.0118065 0)
(-0.0240399 0.0123836 0)
(-0.0300978 0.0123312 0)
(-0.035744 0.0117236 0)
(-0.0406156 0.010614 0)
(-0.0444595 0.00912433 0)
(-0.000110022 0.000345337 0)
(-0.00165832 0.00193049 0)
(-0.00444792 0.00335229 0)
(-0.00828946 0.00434986 0)
(-0.0128137 0.0050287 0)
(-0.0176381 0.00540165 0)
(-0.0225669 0.00547089 0)
(-0.027357 0.00533127 0)
(-0.0317759 0.00501067 0)
(-0.0356643 0.00457756 0)
(8.04483e-05 -0.000110066 0)
(-0.000255577 4.74598e-05 0)
(-0.00134172 0.000159331 0)
(-0.00272956 0.000233028 0)
(-0.00490657 0.000495361 0)
(-0.00708003 0.000553727 0)
(-0.0093664 0.000548254 0)
(-0.011661 0.000546744 0)
(-0.0138574 0.000542848 0)
(-0.0159012 0.000538993 0)
(0.0100893 -0.12862 0)
(-0.0616288 -0.0211184 0)
(-0.074393 0.00493779 0)
(-0.0644643 0.0105379 0)
(-0.0543406 0.00652797 0)
(-0.0465695 0.00345696 0)
(-0.0401372 0.00222504 0)
(-0.0354995 0.00152291 0)
(-0.031821 0.00105252 0)
(-0.0287838 0.00076719 0)
(-0.0261118 0.000609676 0)
(-0.0235971 0.000535689 0)
(-0.0211028 0.000513742 0)
(-0.0185532 0.000519847 0)
(-0.0159257 0.000534982 0)
(-0.0132418 0.000544303 0)
(-0.0105589 0.000536732 0)
(-0.00796907 0.000501268 0)
(-0.00558558 0.000405403 0)
(-0.00348786 0.000283467 0)
(-0.00179925 0.000224192 0)
(-0.000549632 0.000168065 0)
(0.000158125 4.41034e-05 0)
(0.000327914 -0.000135961 0)
(0.000141516 -0.000193157 0)
(0.0256597 -0.219485 0)
(-0.0541328 -0.0633104 0)
(-0.0866825 -0.00708906 0)
(-0.0966085 0.0114729 0)
(-0.0969912 0.0166512 0)
(-0.0918271 0.0157026 0)
(-0.0858087 0.0121437 0)
(-0.0797915 0.00977085 0)
(-0.0740522 0.00812184 0)
(-0.0686335 0.0070918 0)
(-0.0633303 0.00656788 0)
(-0.057961 0.0064122 0)
(-0.0524002 0.00649032 0)
(-0.0465869 0.00667418 0)
(-0.0405326 0.00684818 0)
(-0.034318 0.00691552 0)
(-0.0280847 0.00679882 0)
(-0.0220204 0.00644331 0)
(-0.0163366 0.00581948 0)
(-0.011253 0.00496193 0)
(-0.00698533 0.00388596 0)
(-0.00368905 0.00261929 0)
(-0.0014531 0.00130122 0)
(-0.000267582 0.000170712 0)
(3.9524e-05 -0.000372762 0)
(0.0516084 -0.318313 0)
(-0.0202095 -0.136696 0)
(-0.0657247 -0.0458703 0)
(-0.0910315 -0.00480741 0)
(-0.103078 0.0116862 0)
(-0.106943 0.0171859 0)
(-0.106618 0.0183203 0)
(-0.103355 0.0169182 0)
(-0.0989627 0.0154093 0)
(-0.0937529 0.01465 0)
(-0.0879757 0.0144777 0)
(-0.0816167 0.0147596 0)
(-0.0746677 0.0153319 0)
(-0.0671456 0.0159938 0)
(-0.0591279 0.0165427 0)
(-0.0507578 0.0167942 0)
(-0.042242 0.0165976 0)
(-0.0338386 0.0158479 0)
(-0.025837 0.0144963 0)
(-0.0185379 0.0125619 0)
(-0.0122271 0.010129 0)
(-0.00712914 0.00734638 0)
(-0.00337716 0.00445073 0)
(-0.00105316 0.00181032 0)
(-0.000101523 8.96633e-06 0)
(0.0752557 -0.412792 0)
(0.00893245 -0.21665 0)
(-0.0414697 -0.0992961 0)
(-0.074808 -0.0357974 0)
(-0.0949953 -0.00396151 0)
(-0.106164 0.010644 0)
(-0.111301 0.016775 0)
(-0.112697 0.0195498 0)
(-0.111257 0.0209296 0)
(-0.107878 0.0214522 0)
(-0.103175 0.0224775 0)
(-0.0972249 0.0239003 0)
(-0.0901968 0.0255378 0)
(-0.0821781 0.027144 0)
(-0.0733035 0.0284454 0)
(-0.0637687 0.0291755 0)
(-0.0538344 0.0291059 0)
(-0.0438199 0.028072 0)
(-0.0340859 0.0259946 0)
(-0.0250116 0.0228966 0)
(-0.0169618 0.018909 0)
(-0.0102442 0.0142743 0)
(-0.00509137 0.00935613 0)
(-0.00172742 0.0046701 0)
(-0.000170257 0.00092023 0)
(0.0977311 -0.495848 0)
(0.0357982 -0.29338 0)
(-0.0161606 -0.157705 0)
(-0.0543247 -0.0756698 0)
(-0.0804502 -0.0291129 0)
(-0.097298 -0.0038177 0)
(-0.107446 0.00964593 0)
(-0.11293 0.0170482 0)
(-0.115015 0.0217811 0)
(-0.114554 0.0255288 0)
(-0.111818 0.0287637 0)
(-0.107256 0.0320336 0)
(-0.101084 0.0353717 0)
(-0.0934613 0.0384895 0)
(-0.084551 0.0410527 0)
(-0.0745748 0.0427122 0)
(-0.0638294 0.0431526 0)
(-0.0526862 0.0421344 0)
(-0.0415785 0.0395305 0)
(-0.0309754 0.0353532 0)
(-0.0213458 0.0297696 0)
(-0.0131132 0.0231045 0)
(-0.00664523 0.0158354 0)
(-0.0023252 0.00858131 0)
(-0.000336391 0.00228408 0)
(0.121451 -0.57123 0)
(0.0630661 -0.367572 0)
(0.0104216 -0.218989 0)
(-0.0312895 -0.121391 0)
(-0.0620838 -0.0610668 0)
(-0.0837724 -0.0250527 0)
(-0.0984489 -0.00363497 0)
(-0.107913 0.00963664 0)
(-0.113478 0.0186751 0)
(-0.115898 0.0257318 0)
(-0.115883 0.0321458 0)
(-0.113375 0.0381782 0)
(-0.10879 0.0438455 0)
(-0.102259 0.0490941 0)
(-0.0939631 0.0535266 0)
(-0.0841182 0.0566967 0)
(-0.0730334 0.0581789 0)
(-0.0611187 0.0576277 0)
(-0.0488785 0.0548345 0)
(-0.0368865 0.049771 0)
(-0.0257433 0.042618 0)
(-0.0160225 0.033767 0)
(-0.00823952 0.0238034 0)
(-0.00295134 0.0134519 0)
(-0.000196833 0.00394708 0)
(0.146936 -0.641807 0)
(0.0913982 -0.440293 0)
(0.0383534 -0.282751 0)
(-0.00623288 -0.17187 0)
(-0.0409832 -0.0987447 0)
(-0.0669448 -0.0520762 0)
(-0.0857871 -0.0223848 0)
(-0.0991142 -0.00279706 0)
(-0.10817 0.0111967 0)
(-0.113787 0.022318 0)
(-0.116417 0.0321267 0)
(-0.116557 0.041404 0)
(-0.114071 0.0501581 0)
(-0.109218 0.0581661 0)
(-0.102102 0.065134 0)
(-0.0929071 0.0705001 0)
(-0.0819201 0.0736922 0)
(-0.0695626 0.0742112 0)
(-0.0563969 0.0717125 0)
(-0.0431041 0.066077 0)
(-0.0304362 0.0574604 0)
(-0.0191495 0.046309 0)
(-0.00995021 0.0333406 0)
(-0.00358048 0.0195073 0)
(1.85111e-05 0.00606393 0)
(0.174248 -0.708168 0)
(0.121261 -0.511607 0)
(0.0680833 -0.348485 0)
(0.0210764 -0.226528 0)
(-0.0172556 -0.141572 0)
(-0.0471667 -0.0844517 0)
(-0.0699491 -0.0462955 0)
(-0.087023 -0.020059 0)
(-0.0995798 -0.000768212 0)
(-0.108459 0.0147883 0)
(-0.114176 0.0284943 0)
(-0.116936 0.0412825 0)
(-0.117078 0.0535579 0)
(-0.114376 0.0649903 0)
(-0.108967 0.0751772 0)
(-0.100961 0.0834867 0)
(-0.0905524 0.0891739 0)
(-0.0781364 0.0915206 0)
(-0.0643033 0.0899725 0)
(-0.0498274 0.084245 0)
(-0.0356206 0.0744062 0)
(-0.0226513 0.0609199 0)
(-0.011881 0.0446282 0)
(-0.00433859 0.0267007 0)
(-0.000170112 0.00847385 0)
(0.20353 -0.77027 0)
(0.153216 -0.581265 0)
(0.100264 -0.415703 0)
(0.0512275 -0.285 0)
(0.00954003 -0.189193 0)
(-0.0241721 -0.121936 0)
(-0.0507856 -0.0752186 0)
(-0.0715446 -0.0420895 0)
(-0.0875966 -0.0172443 0)
(-0.0998018 0.00297087 0)
(-0.108702 0.0208391 0)
(-0.114559 0.0375814 0)
(-0.117344 0.0535519 0)
(-0.117309 0.068871 0)
(-0.114063 0.0829654 0)
(-0.107836 0.094953 0)
(-0.0985736 0.103997 0)
(-0.086599 0.109068 0)
(-0.0724849 0.10931 0)
(-0.0570609 0.104171 0)
(-0.0413857 0.093533 0)
(-0.0266602 0.0778037 0)
(-0.0141455 0.0579194 0)
(-0.00521588 0.0352669 0)
(-0.000238182 0.0115136 0)
(0.23473 -0.827559 0)
(0.187607 -0.648771 0)
(0.13544 -0.48386 0)
(0.084859 -0.34685 0)
(0.0400771 -0.241491 0)
(0.00262661 -0.164408 0)
(-0.027788 -0.10909 0)
(-0.052213 -0.0688569 0)
(-0.071748 -0.0382409 0)
(-0.0872876 -0.0132058 0)
(-0.0994263 0.00893748 0)
(-0.108466 0.0297623 0)
(-0.114441 0.0499638 0)
(-0.117195 0.0694014 0)
(-0.116728 0.0876232 0)
(-0.112686 0.104096 0)
(-0.105224 0.117379 0)
(-0.094336 0.126166 0)
(-0.0805037 0.129209 0)
(-0.0645465 0.125561 0)
(-0.0476251 0.114776 0)
(-0.0311702 0.0970785 0)
(-0.0167858 0.0734291 0)
(-0.00627989 0.045439 0)
(-0.000342616 0.0151762 0)
(0.267706 -0.879016 0)
(0.224536 -0.713212 0)
(0.173955 -0.552146 0)
(0.122511 -0.411508 0)
(0.0750435 -0.298211 0)
(0.0339796 -0.211867 0)
(-0.000257097 -0.147899 0)
(-0.0283657 -0.100356 0)
(-0.05138 -0.063739 0)
(-0.0702279 -0.0337288 0)
(-0.0855803 -0.00724401 0)
(-0.0978112 0.0176594 0)
(-0.107022 0.0419728 0)
(-0.113068 0.0659212 0)
(-0.115667 0.088963 0)
(-0.114548 0.110124 0)
(-0.10941 0.128406 0)
(-0.100389 0.141904 0)
(-0.087598 0.148886 0)
(-0.0717513 0.147861 0)
(-0.0540265 0.137862 0)
(-0.0360414 0.118743 0)
(-0.0197687 0.0913452 0)
(-0.00754616 0.0574655 0)
(-0.000476276 0.0196094 0)
(0.301973 -0.923702 0)
(0.263821 -0.773413 0)
(0.215904 -0.619429 0)
(0.164538 -0.478128 0)
(0.115025 -0.358898 0)
(0.070637 -0.264223 0)
(0.0326035 -0.191709 0)
(0.000749492 -0.136609 0)
(-0.0257695 -0.0937254 0)
(-0.0479051 -0.0585416 0)
(-0.0664164 -0.0276369 0)
(-0.0817805 0.00132596 0)
(-0.0941857 0.0296859 0)
(-0.103553 0.0579216 0)
(-0.109573 0.0857867 0)
(-0.11182 0.112408 0)
(-0.109911 0.13614 0)
(-0.103524 0.155178 0)
(-0.0927087 0.167267 0)
(-0.077862 0.170184 0)
(-0.0600518 0.162217 0)
(-0.0409829 0.142567 0)
(-0.0229786 0.111722 0)
(-0.00898662 0.0715381 0)
(-0.000620949 0.0249531 0)
(0.336585 -0.959689 0)
(0.304818 -0.827676 0)
(0.260961 -0.684147 0)
(0.210956 -0.545465 0)
(0.160368 -0.422783 0)
(0.113211 -0.321156 0)
(0.0715682 -0.240537 0)
(0.0359322 -0.177718 0)
(0.00582685 -0.12822 0)
(-0.0196121 -0.0876037 0)
(-0.0412346 -0.0521502 0)
(-0.0596475 -0.0191581 0)
(-0.0751643 0.0131085 0)
(-0.0878133 0.0454743 0)
(-0.0973479 0.0779453 0)
(-0.103322 0.109768 0)
(-0.105172 0.139445 0)
(-0.102352 0.16475 0)
(-0.0945296 0.183012 0)
(-0.0817974 0.19128 0)
(-0.0649256 0.186872 0)
(-0.0455371 0.167991 0)
(-0.0262132 0.134393 0)
(-0.0105506 0.0877438 0)
(-0.000801213 0.0313229 0)
(0.370703 -0.985612 0)
(0.346602 -0.874065 0)
(0.308385 -0.744292 0)
(0.261355 -0.611781 0)
(0.211049 -0.488636 0)
(0.162041 -0.382011 0)
(0.117247 -0.294177 0)
(0.0779383 -0.223757 0)
(0.044171 -0.167351 0)
(0.0153321 -0.120921 0)
(-0.00940608 -0.0807088 0)
(-0.0307909 -0.0436608 0)
(-0.0493018 -0.00766107 0)
(-0.0651236 0.0285162 0)
(-0.0781437 0.0652266 0)
(-0.087965 0.101986 0)
(-0.0939692 0.137434 0)
(-0.0954166 0.169327 0)
(-0.091632 0.194592 0)
(-0.0822722 0.209545 0)
(-0.0676426 0.210411 0)
(-0.0490745 0.194019 0)
(-0.0291689 0.158865 0)
(-0.0121493 0.105995 0)
(-0.00101947 0.0387946 0)
(0.402627 -0.999891 0)
(0.387655 -0.910641 0)
(0.3569 -0.797596 0)
(0.314774 -0.674865 0)
(0.266522 -0.554676 0)
(0.217032 -0.445639 0)
(0.169937 -0.352091 0)
(0.127333 -0.274617 0)
(0.0899566 -0.211227 0)
(0.057617 -0.158641 0)
(0.0296504 -0.113313 0)
(0.00528449 -0.0720699 0)
(-0.0161249 -0.0324434 0)
(-0.0349659 0.00721366 0)
(-0.0513227 0.0476575 0)
(-0.0649487 0.0887825 0)
(-0.0752757 0.129548 0)
(-0.0814817 0.167862 0)
(-0.0826286 0.200502 0)
(-0.0779119 0.22318 0)
(-0.066984 0.23099 0)
(-0.0508149 0.219132 0)
(-0.0314572 0.184215 0)
(-0.0136615 0.125953 0)
(-0.00127404 0.0473815 0)
(0.430387 -1.00051 0)
(0.426045 -0.934884 0)
(0.404649 -0.841356 0)
(0.369587 -0.732001 0)
(0.325558 -0.618507 0)
(0.277458 -0.510252 0)
(0.229425 -0.413209 0)
(0.184321 -0.329849 0)
(0.143658 -0.259805 0)
(0.107835 -0.200895 0)
(0.076525 -0.150117 0)
(0.0490584 -0.104404 0)
(0.0247204 -0.0611058 0)
(0.002956 -0.0182337 0)
(-0.0165494 0.0254229 0)
(-0.0338019 0.0701954 0)
(-0.0484134 0.115481 0)
(-0.0596177 0.15957 0)
(-0.066352 0.199405 0)
(-0.0674255 0.230377 0)
(-0.061589 0.246465 0)
(-0.0498231 0.241319 0)
(-0.0326669 0.209086 0)
(-0.0149462 0.147034 0)
(-0.00157407 0.0570493 0)
(0.452727 -0.986605 0)
(0.459873 -0.944941 0)
(0.449411 -0.872892 0)
(0.423567 -0.780141 0)
(0.386179 -0.677155 0)
(0.3418 -0.573349 0)
(0.29476 -0.47575 0)
(0.248516 -0.388434 0)
(0.205338 -0.312693 0)
(0.166332 -0.247684 0)
(0.131684 -0.191274 0)
(0.101001 -0.140803 0)
(0.073628 -0.0936657 0)
(0.0489025 -0.0476718 0)
(0.0263291 -0.0012464 0)
(0.00565537 0.0464125 0)
(-0.0130396 0.0952113 0)
(-0.0292288 0.143978 0)
(-0.0419225 0.190133 0)
(-0.0497878 0.229242 0)
(-0.0511806 0.254201 0)
(-0.0448567 0.258213 0)
(-0.0323005 0.231693 0)
(-0.0157118 0.168377 0)
(-0.00193295 0.067693 0)
(0.46767 -0.957556 0)
(0.486865 -0.939358 0)
(0.488595 -0.889828 0)
(0.473931 -0.816209 0)
(0.445651 -0.727265 0)
(0.407632 -0.631763 0)
(0.364045 -0.537126 0)
(0.318658 -0.448573 0)
(0.274358 -0.368876 0)
(0.232965 -0.298619 0)
(0.195305 -0.236787 0)
(0.161436 -0.181427 0)
(0.130936 -0.130254 0)
(0.103175 -0.0810885 0)
(0.0775353 -0.0321519 0)
(0.0535592 0.0177479 0)
(0.0310325 0.0690135 0)
(0.0101471 0.121076 0)
(-0.00838793 0.172045 0)
(-0.0232941 0.218064 0)
(-0.0330502 0.25267 0)
(-0.0338945 0.266187 0)
(-0.0285968 0.248912 0)
(-0.015192 0.188217 0)
(-0.00222285 0.0787891 0)
(0.47355 -0.913308 0)
(0.504796 -0.917202 0)
(0.519476 -0.890263 0)
(0.517536 -0.837386 0)
(0.50061 -0.765389 0)
(0.471655 -0.681869 0)
(0.434338 -0.593998 0)
(0.392388 -0.507571 0)
(0.34905 -0.426475 0)
(0.306743 -0.352614 0)
(0.266952 -0.286198 0)
(0.230306 -0.226218 0)
(0.196788 -0.170983 0)
(0.165971 -0.11858 0)
(0.137247 -0.067232 0)
(0.110034 -0.0155311 0)
(0.0838856 0.0373489 0)
(0.058639 0.0913997 0)
(0.0346186 0.145484 0)
(0.0127798 0.196702 0)
(-0.00489585 0.239545 0)
(-0.0164729 0.264604 0)
(-0.0194732 0.2575 0)
(-0.0132691 0.203739 0)
(-0.00237364 0.089354 0)
(0.469316 -0.854737 0)
(0.511871 -0.878391 0)
(0.539529 -0.873056 0)
(0.551195 -0.841448 0)
(0.547358 -0.788379 0)
(0.52991 -0.71994 0)
(0.501732 -0.642524 0)
(0.466166 -0.561919 0)
(0.426486 -0.482645 0)
(0.385472 -0.407639 0)
(0.345157 -0.338264 0)
(0.306766 -0.274561 0)
(0.270795 -0.215647 0)
(0.237179 -0.160133 0)
(0.205486 -0.10648 0)
(0.175121 -0.0532851 0)
(0.145498 0.000511939 0)
(0.116163 0.0553651 0)
(0.0869865 0.110825 0)
(0.0584424 0.164988 0)
(0.0318672 0.213413 0)
(0.00951241 0.247694 0)
(-0.00367261 0.254696 0)
(-0.0100233 0.211558 0)
(-0.00252803 0.0984114 0)
(0.454658 -0.783773 0)
(0.506981 -0.823941 0)
(0.546778 -0.83813 0)
(0.572067 -0.827125 0)
(0.582266 -0.793812 0)
(0.578158 -0.742623 0)
(0.561662 -0.678801 0)
(0.53544 -0.607625 0)
(0.502459 -0.53372 0)
(0.46555 -0.460658 0)
(0.427071 -0.390725 0)
(0.388733 -0.324953 0)
(0.351562 -0.263365 0)
(0.315952 -0.205283 0)
(0.281793 -0.149643 0)
(0.24864 -0.0952815 0)
(0.215877 -0.0411655 0)
(0.182863 0.0134026 0)
(0.149081 0.0684741 0)
(0.11439 0.123056 0)
(0.0793982 0.174211 0)
(0.0458228 0.215329 0)
(0.0182218 0.233356 0)
(-0.00050349 0.20753 0)
(-0.002605 0.104723 0)
(0.430111 -0.703268 0)
(0.489935 -0.756013 0)
(0.540143 -0.786654 0)
(0.578089 -0.7944 0)
(0.602271 -0.780402 0)
(0.612427 -0.747433 0)
(0.609442 -0.699373 0)
(0.595089 -0.64063 0)
(0.571757 -0.575544 0)
(0.542045 -0.507848 0)
(0.508324 -0.440348 0)
(0.472573 -0.374863 0)
(0.436245 -0.312296 0)
(0.400196 -0.252766 0)
(0.364725 -0.195845 0)
(0.329678 -0.140824 0)
(0.294574 -0.0869449 0)
(0.258725 -0.0335866 0)
(0.221356 0.0195243 0)
(0.18179 0.0719162 0)
(0.139723 0.121847 0)
(0.0957124 0.16493 0)
(0.0522801 0.191435 0)
(0.0174244 0.182656 0)
(-0.00138164 0.101324 0)
(0.397067 -0.616746 0)
(0.461598 -0.677758 0)
(0.519704 -0.721035 0)
(0.568354 -0.744628 0)
(0.605358 -0.74826 0)
(0.629535 -0.733205 0)
(0.640803 -0.702053 0)
(0.640065 -0.657898 0)
(0.628919 -0.604085 0)
(0.6093 -0.544857 0)
(0.583339 -0.483015 0)
(0.553114 -0.420698 0)
(0.520331 -0.359484 0)
(0.486169 -0.300244 0)
(0.451314 -0.243249 0)
(0.415994 -0.188379 0)
(0.380028 -0.135336 0)
(0.342896 -0.0838335 0)
(0.303832 -0.0337813 0)
(0.261897 0.0144914 0)
(0.216184 0.0597341 0)
(0.165993 0.0990093 0)
(0.111607 0.125969 0)
(0.0584518 0.127978 0)
(0.0145364 0.0734905 0)
(0.358028 -0.528987 0)
(0.424239 -0.593971 0)
(0.487174 -0.645619 0)
(0.543728 -0.681285 0)
(0.591317 -0.699631 0)
(0.628205 -0.700649 0)
(0.652906 -0.685119 0)
(0.668411 -0.656444 0)
(0.668897 -0.617001 0)
(0.661395 -0.568539 0)
(0.645742 -0.514686 0)
(0.623762 -0.458131 0)
(0.597318 -0.40081 0)
(0.567748 -0.343999 0)
(0.536006 -0.288545 0)
(0.502681 -0.234925 0)
(0.467974 -0.183371 0)
(0.431736 -0.134031 0)
(0.393536 -0.0871459 0)
(0.352756 -0.0432615 0)
(0.308675 -0.00349824 0)
(0.260735 0.0299307 0)
(0.209273 0.0527433 0)
(0.15777 0.057284 0)
(0.115034 0.0334057 0)
(0.315536 -0.443671 0)
(0.380552 -0.508848 0)
(0.445111 -0.564755 0)
(0.506294 -0.608467 0)
(0.561388 -0.63798 0)
(0.608224 -0.652349 0)
(0.645066 -0.651411 0)
(0.670874 -0.637028 0)
(0.687001 -0.611296 0)
(0.693349 -0.575724 0)
(0.689796 -0.532692 0)
(0.678659 -0.483961 0)