/*--------------------------------*- C++ -*----------------------------------*\
| =========                 |                                                 |
| \\      /  F ield         | OpenFOAM: The Open Source CFD Toolbox           |
|  \\    /   O peration     | Version:  v2012                                 |
|   \\  /    A nd           | Website:  www.openfoam.com                      |
|    \\/     M anipulation  |                                                 |
\*---------------------------------------------------------------------------*/
FoamFile
{
    version     2.0;
    format      ascii;
    class       volScalarField;
    location    "696";
    object      age;
}
// * * * * * * * * * * * * * * * * * * * * * * * * * * * * * * * * * * * * * //

dimensions      [0 0 1 0 0 0 0];


internalField   nonuniform List<scalar> 
6036
(
0.498795
0.472697
0.446646
0.420645
0.394696
0.368802
0.342963
0.317181
0.291457
0.265793
0.240188
0.214643
0.18916
0.163738
0.138378
0.113081
0.0878457
0.0626728
0.0375619
0.0125118
0.485241
0.460427
0.435603
0.41077
0.385929
0.361083
0.336231
0.311374
0.286511
0.261642
0.236768
0.211887
0.186999
0.162103
0.137199
0.112285
0.0873601
0.062422
0.037468
0.0124955
0.484408
0.45973
0.43503
0.410312
0.385575
0.36082
0.336049
0.31126
0.286455
0.261634
0.236796
0.211941
0.18707
0.162182
0.137277
0.112354
0.0874147
0.0624583
0.037486
0.0124987
0.484592
0.459907
0.4352
0.410473
0.385727
0.360964
0.336183
0.311385
0.286569
0.261736
0.236887
0.21202
0.187137
0.162237
0.13732
0.112387
0.0874369
0.0624717
0.0374919
0.0124995
0.484708
0.460012
0.435295
0.41056
0.385807
0.361036
0.336248
0.311444
0.286622
0.261784
0.236929
0.212056
0.187167
0.162262
0.137339
0.112401
0.0874461
0.0624767
0.0374936
0.0124996
0.484738
0.460033
0.43531
0.41057
0.385814
0.361041
0.336252
0.311446
0.286624
0.261785
0.236929
0.212057
0.187168
0.162262
0.137339
0.112401
0.0874461
0.0624767
0.0374936
0.0124996
0.484677
0.459967
0.435242
0.410503
0.385748
0.360978
0.336192
0.311391
0.286573
0.261739
0.236889
0.212022
0.187138
0.162237
0.13732
0.112387
0.087437
0.0624717
0.0374919
0.0124995
0.484531
0.459812
0.435089
0.410352
0.385604
0.360841
0.336063
0.31127
0.286462
0.261639
0.236799
0.211943
0.187071
0.162183
0.137277
0.112354
0.0874148
0.0624583
0.037486
0.0124987
0.485438
0.460617
0.435718
0.410852
0.385984
0.36112
0.336256
0.31139
0.286522
0.26165
0.236773
0.21189
0.187001
0.162105
0.1372
0.112285
0.0873602
0.0624221
0.037468
0.0124955
0.495568
0.473726
0.446589
0.420785
0.39475
0.368848
0.342992
0.317201
0.291471
0.265802
0.240194
0.214647
0.189162
0.163739
0.138379
0.113081
0.0878459
0.0626729
0.037562
0.0125118
24.1575
10.6881
1.67183
1.43267
1.29877
1.21772
1.15794
1.10962
1.06785
1.03026
0.995543
0.962902
0.931809
0.901898
0.872896
0.8446
0.816848
0.789514
0.762497
0.735715
0.709105
0.682618
0.656218
0.62988
0.603587
0.577334
0.551116
0.524935
8.64828
2.78942
1.40013
1.3025
1.21113
1.14995
1.09915
1.05607
1.01781
0.982984
0.950655
0.920198
0.891171
0.863252
0.836193
0.809801
0.78392
0.758426
0.733217
0.708211
0.68334
0.658551
0.633806
0.609075
0.58434
0.559592
0.534825
0.510041
2.03753
1.41466
1.2928
1.20888
1.14949
1.10215
1.06133
1.02544
0.992785
0.962457
0.933798
0.906364
0.879831
0.853964
0.828585
0.803557
0.778778
0.754164
0.729656
0.705203
0.680771
0.656335
0.631877
0.607387
0.582859
0.558293
0.533693
0.509063
1.39493
1.28037
1.22229
1.16197
1.11935
1.08105
1.04703
1.01567
0.986156
0.957978
0.930783
0.904336
0.878465
0.85304
0.82796
0.803139
0.778509
0.75401
0.729591
0.705213
0.680842
0.656453
0.632029
0.60756
0.583045
0.558485
0.533886
0.509253
1.28531
1.23467
1.1876
1.14363
1.10801
1.07427
1.04299
1.01312
0.984424
0.956674
0.929715
0.903417
0.877666
0.852356
0.827395
0.802696
0.778186
0.7538
0.729483
0.705191
0.680889
0.656552
0.632161
0.607711
0.583201
0.558636
0.534026
0.509381
1.25633
1.21591
1.17411
1.13755
1.10381
1.07143
1.0406
1.01093
0.982347
0.95472
0.92792
0.901815
0.876277
0.851188
0.826441
0.801943
0.777616
0.753392
0.729214
0.705038
0.680827
0.656555
0.632208
0.60778
0.583275
0.558703
0.53408
0.509422
1.24649
1.20621
1.16788
1.13308
1.09963
1.06772
1.03716
1.00777
0.979439
0.952063
0.925512
0.899654
0.874363
0.849517
0.825007
0.800735
0.776618
0.752584
0.728572
0.704537
0.680444
0.656283
0.632036
0.607687
0.583232
0.558678
0.534045
0.509369
1.24104
1.20247
1.16712
1.13343
1.10025
1.06766
1.03571
1.0048
0.975551
0.947762
0.921176
0.89557
0.870719
0.846408
0.82245
0.79869
0.77501
0.75132
0.727554
0.703671
0.679667
0.655589
0.631401
0.60712
0.582773
0.558383
0.533906
0.509227
1.23909
1.19978
1.15961
1.11759
1.07586
1.03712
1.00331
0.979713
0.958644
0.937729
0.917239
0.89698
0.87673
0.856284
0.835466
0.814134
0.792192
0.769593
0.746329
0.722432
0.698033
0.673242
0.648091
0.622488
0.595604
0.565029
0.53424
0.510643
1.22805
1.18022
1.13566
1.10381
1.08808
1.07628
1.09041
1.13733
1.22605
1.37153
1.58596
1.87256
2.2238
2.61975
3.02836
3.40997
3.72523
3.94604
4.05773
4.05139
3.78387
3.23274
2.54171
1.83537
1.21736
0.793471
0.579322
0.540301
18.5507
18.6239
18.8989
19.1411
19.3084
19.4573
19.6146
19.8771
20.5277
21.4184
22.2145
23.0596
17.9074
18.9554
20.7926
21.9209
21.9336
21.2672
20.5695
20.2831
20.5017
21.0241
22.4047
17.58
17.7787
20.909
25.7553
28.5169
28.083
25.6016
22.9553
21.1952
21.125
19.8076
13.0826
5.87831
17.6706
23.9348
32.1484
36.5137
34.9127
29.8242
24.6448
22.3982
19.6637
11.3917
4.4039
1.68091
17.5757
27.0686
37.361
41.8769
38.3846
30.8261
25.1006
20.1846
11.693
4.06346
1.52982
1.3878
17.4853
29.2409
39.5611
41.766
37.294
29.2314
21.7611
12.8374
4.55083
1.53589
1.3731
1.30495
17.3948
29.8823
39.5252
39.3918
33.3436
24.1729
14.4257
5.63424
1.74116
1.38713
1.33082
1.28552
17.2888
28.825
36.0025
34.59
26.718
16.3898
7.12711
2.24792
1.4431
1.36378
1.32066
1.28014
16.9316
26.8434
31.5701
27.7119
18.5588
9.01119
3.08225
1.56241
1.40456
1.35897
1.31842
1.27845
16.207
23.9507
25.776
20.0655
11.1959
4.26651
1.77334
1.46442
1.39718
1.35947
1.31734
1.27405
1.21073
1.17756
1.16701
1.1998
1.31945
1.6073
2.20964
3.42179
5.74357
9.58262
14.4271
19.9542
25.7323
31.2995
36.2441
40.2377
43.0566
44.6369
45.4132
45.3906
45.0113
44.5703
44.0931
43.5966
43.0283
42.2369
40.8201
38.3046
1.22101
1.23417
1.3542
1.69174
2.55301
4.72102
9.1289
15.7618
24.0948
32.8573
40.6645
47.1904
51.9335
54.907
56.407
56.8577
56.6436
55.9841
54.7689
53.1886
51.3816
49.5157
47.7834
46.3714
45.4168
44.9527
44.7849
44.877
1.28188
1.47254
2.07368
4.0137
8.67213
16.6057
27.1248
38.473
49.2976
58.3027
65.1692
70.1726
73.6555
75.9613
77.2315
77.4584
76.5675
74.5545
71.5662
67.7668
63.3731
58.6728
54.0421
49.9364
46.8249
45.0223
44.428
44.2685
1.49009
2.35441
5.52625
12.4589
23.3922
36.8779
50.9712
63.777
74.5305
83.2377
90.3506
96.135
100.615
103.655
105.096
104.86
102.958
99.4774
94.5279
88.2714
80.9426
72.89
64.6214
56.8406
50.4194
46.2017
44.5091
44.0664
2.43201
6.34875
14.9602
28.0567
44.2279
60.8963
76.1994
89.4471
100.907
110.942
119.612
126.7
131.954
135.197
136.361
135.441
132.475
127.516
120.648
112.002
101.793
90.3703
78.2948
66.4265
55.9735
48.3838
44.8168
43.9614
6.23134
15.4925
30.1579
48.4906
67.8232
85.9106
102.097
116.661
129.878
141.617
151.523
159.291
164.755
167.849
168.554
166.87
162.825
156.446
147.787
136.947
124.1
109.559
93.8769
77.9756
63.2766
51.7233
45.4316
43.8748
14.1991
29.3984
49.3913
71.2002
92.2321
111.504
129.255
145.696
160.58
173.459
183.992
192.01
197.442
200.248
200.406
197.911
192.773
185.008
174.659
161.798
146.559
129.207
110.244
90.581
71.7522
56.0554
46.4146
43.803
26.07
46.7766
70.6815
94.5887
116.975
137.87
157.501
175.578
191.579
205.118
216.008
224.157
229.492
231.955
231.507
228.137
221.853
212.68
200.664
185.875
168.424
148.526
126.609
103.52
80.816
61.0558
47.7812
43.7414
40.9472
66.1027
92.6163
118.057
142.023
164.761
186.041
205.29
222.059
236.13
247.376
255.679
260.922
263.011
261.889
257.55
250.015
239.341
225.603
208.89
189.315
167.056
142.466
116.285
90.0122
66.3672
49.4639
43.687
57.7003
86.1374
114.481
141.443
167.172
191.601
214.166
234.339
251.855
266.558
278.278
286.821
292.004
293.688
291.801
286.351
277.4
265.063
249.476
230.773
209.085
184.571
157.516
128.545
99.0349
71.7358
51.3168
43.6379
75.2991
106.102
135.992
164.594
192.039
217.89
241.552
262.692
281.139
296.689
309.068
317.976
323.144
324.376
321.589
314.826
304.224
289.994
272.366
251.549
227.707
200.988
171.616
140.102
107.679
77.0426
53.2497
43.5929
92.9793
125.594
157.004
187.278
216.267
243.383
268.202
290.546
310.221
326.904
340.18
349.611
354.809
355.511
351.636
343.288
330.724
314.299
294.381
271.28
245.207
216.299
184.717
150.859
115.808
82.1514
55.2018
43.551
110.258
144.423
177.381
209.255
239.653
268.067
294.286
318.18
339.453
357.621
372.082
382.213
387.476
387.531
382.313
372.034
357.123
338.136
315.627
290.034
261.628
230.529
196.821
160.789
123.36
86.9852
57.1235
43.5115
126.864
162.481
196.982
230.358
262.147
292.053
320.023
345.886
369.192
389.253
405.223
416.239
421.576
420.815
413.937
401.308
383.6
361.631
336.188
307.874
277.02
243.717
207.958
169.897
130.311
91.4984
58.98
43.474
142.657
179.688
215.686
250.511
283.798
315.496
345.63
373.93
399.758
422.16
439.982
452.057
457.447
455.648
446.728
431.273
410.266
384.86
356.124
324.846
291.425
255.908
218.167
178.211
136.665
95.6706
60.7472
43.4382
157.563
195.977
233.42
269.707
304.691
338.538
371.283
402.527
431.398
456.613
476.63
489.925
495.305
492.194
480.794
461.987
437.153
407.843
375.456
340.981
304.882
267.143
227.493
185.771
142.444
99.4976
62.4102
43.4036
171.543
211.301
250.152
287.981
324.915
361.285
397.105
431.816
464.265
492.764
515.313
529.96
535.229
530.482
516.118
493.404
464.207
430.544
394.171
356.289
317.419
277.465
235.982
192.619
147.676
102.986
63.9603
43.3702
184.576
225.633
265.881
305.377
344.53
383.798
423.148
461.843
498.393
530.638
556.037
572.144
577.16
570.408
552.561
525.375
491.298
452.869
412.221
370.764
329.06
286.913
243.682
198.802
152.395
106.149
65.3948
43.3377
196.655
238.966
280.626
321.933
363.565
406.081
449.392
492.556
533.701
570.125
598.668
616.312
620.898
611.739
589.869
557.658
518.228
474.682
429.536
384.388
339.824
295.529
250.644
204.368
156.642
109.006
66.7155
43.3059
207.784
251.308
294.411
337.671
382.015
428.085
475.735
523.8
569.984
610.984
642.937
662.168
666.114
654.117
627.684
589.932
544.746
495.817
446.026
397.134
349.729
303.356
256.919
209.368
160.456
111.581
67.9267
43.2747
217.978
262.676
307.254
352.585
399.827
449.7
501.997
555.318
606.917
652.838
688.432
709.273
712.345
697.069
665.558
621.817
570.564
516.086
461.592
408.975
358.792
310.432
262.554
213.846
163.876
113.903
69.0324
43.2441
227.254
273.084
319.153
366.63
416.888
470.728
527.89
586.732
644.042
695.168
734.592
757.042
758.997
740.014
702.963
652.883
595.376
535.293
476.134
419.881
367.029
316.794
267.59
217.841
166.93
115.988
70.0359
43.214
235.629
282.542
330.092
379.739
433.052
490.918
553.034
617.533
680.743
737.284
780.691
804.742
805.349
782.272
739.312
682.677
618.865
553.246
489.559
429.827
374.454
322.476
272.065
221.388
169.647
117.851
70.9415
43.1842
243.124
291.059
340.055
391.841
448.169
510.007
577.02
647.142
716.275
778.323
825.822
851.485
850.56
823.079
773.975
710.734
640.723
569.769
501.785
438.792
381.081
327.507
276.013
224.519
172.051
119.506
71.7546
43.1549
249.762
298.65
349.027
402.867
462.086
527.73
599.441
674.979
749.871
817.357
868.982
896.287
893.713
861.626
806.322
736.615
660.674
584.707
512.741
446.759
386.923
331.915
279.464
227.261
174.165
120.968
72.4804
43.1258
255.571
305.33
356.992
412.748
474.657
543.836
619.911
700.505
780.83
853.548
909.251
938.213
933.928
897.142
835.777
759.934
678.486
597.936
522.373
453.716
391.994
335.725
282.445
229.638
176.008
122.25
73.1235
43.097
260.582
311.115
363.938
421.422
485.75
558.1
638.087
723.235
808.532
886.174
945.846
976.462
970.451
928.967
861.845
780.365
693.962
609.349
530.633
459.652
396.306
338.957
284.979
231.669
177.596
123.363
73.6879
43.0685
264.82
316.023
369.854
428.839
495.256
570.331
653.674
742.752
832.41
914.491
977.873
1010.12
1002.41
956.461
884.065
797.609
706.926
618.854
537.483
464.561
399.867
341.63
287.084
233.373
178.941
124.316
74.1771
43.0402
268.313
320.068
374.734
434.957
503.084
580.371
666.426
758.687
851.938
937.863
1004.71
1038.08
1028.29
978.889
901.964
811.376
717.214
626.367
542.886
468.434
402.684
343.757
288.776
234.761
180.056
125.116
74.5932
43.0121
271.084
323.264
378.575
439.746
509.165
588.099
676.147
770.742
866.689
955.521
1023.75
1053.81
1045.15
995.466
915.098
821.403
724.678
631.812
546.809
471.262
404.761
345.347
290.066
235.844
180.946
125.769
74.9378
42.9843
273.153
325.626
381.379
443.187
513.452
593.428
682.696
778.689
876.269
966.769
1034.99
1062.31
1054.61
1005.51
923.098
827.481
729.2
635.126
549.222
473.034
406.098
346.407
290.96
236.628
181.617
126.278
75.2116
42.9566
274.538
327.168
383.149
445.272
515.918
596.307
685.983
782.372
880.37
971.266
1039.51
1068.37
1057.92
1008.76
925.712
829.467
730.692
636.256
550.097
473.736
406.69
346.935
291.46
237.115
182.072
126.644
75.4147
42.929
275.255
327.901
383.893
445.999
516.555
596.721
685.989
781.759
878.953
968.952
1036.55
1066.53
1055.04
1005.12
922.817
827.283
729.103
635.165
549.407
473.354
406.528
346.927
291.565
237.305
182.308
126.865
75.5454
42.9013
275.313
327.833
383.617
445.379
515.378
594.691
682.741
776.898
872.105
959.931
1025.89
1057.09
1045.97
994.532
914.374
820.904
724.4
631.821
547.126
471.865
405.599
346.377
291.27
237.192
182.322
126.939
75.6014
42.8733
274.721
326.973
382.335
443.429
512.414
590.263
676.322
767.93
860.064
944.558
1007.92
1037.93
1026.59
976.985
900.689
810.405
716.6
626.217
543.236
469.25
403.883
345.267
290.564
236.77
182.109
126.862
75.5809
42.8453
273.483
325.328
380.057
440.174
507.707
583.516
666.867
755.082
843.203
923.392
983.353
1011.47
1000.89
954.4
882.068
795.897
705.745
618.358
537.723
465.489
401.36
343.579
289.431
236.026
181.661
126.628
75.4807
42.814
271.602
322.904
376.799
435.642
501.314
574.551
654.546
738.633
821.962
897.079
952.969
978.992
969.263
926.188
858.713
777.571
691.915
608.268
530.585
460.564
398.006
341.289
287.85
234.943
180.965
126.232
75.3026
42.77
269.076
319.703
372.573
429.868
493.302
563.485
639.549
718.868
796.752
866.185
917.459
941.225
932.431
893.167
831.098
755.662
675.233
596.002
521.836
454.464
393.796
338.369
285.794
233.499
180.003
125.662
75.0402
42.7125
265.901
315.728
367.394
422.888
483.744
550.443
622.073
696.077
767.98
831.28
877.576
898.948
891.187
855.974
799.692
730.489
655.888
581.656
511.51
447.186
388.709
334.788
283.234
231.668
178.757
124.904
74.6868
42.6406
262.068
310.977
361.273
414.74
472.722
535.572
602.352
670.615
736.165
793.112
834.316
853.263
846.545
815.441
765.123
702.482
634.142
565.368
499.663
438.737
382.723
330.515
280.134
229.418
177.201
123.94
74.2326
42.5526
257.567
305.445
354.222
405.468
460.327
519.038
580.67
642.919
701.943
752.541
788.751
805.344
799.613
772.506
728.121
672.157
610.324
547.322
486.375
429.132
375.819
325.511
276.453
226.713
175.305
122.75
73.6661
42.4464
252.381
299.128
346.254
395.117
446.665
501.043
557.357
613.481
665.99
710.415
741.875
756.25
751.424
728.091
689.437
640.07
584.802
527.728
471.743
418.395
367.978
319.74
272.146
223.51
173.036
121.311
72.9791
42.3214
246.493
292.015
337.38
383.736
431.852
481.808
532.764
582.805
628.968
667.524
694.56
706.884
702.871
683.023
649.776
606.771
557.957
506.815
455.878
406.556
359.183
313.159
267.163
219.761
170.353
119.594
72.1567
42.1755
239.881
284.096
327.609
371.375
416.011
461.55
507.226
551.368
591.491
624.574
647.558
658.011
654.712
638.021
609.772
572.771
530.162
484.815
438.894
393.646
349.413
305.72
261.447
215.411
167.211
117.566
71.1831
42.0068
232.52
275.356
316.947
358.081
399.256
440.474
481.056
519.601
554.096
582.171
601.497
610.268
607.582
593.701
569.975
538.517
501.746
461.946
420.905
379.696
338.644
297.368
254.931
210.399
163.558
115.189
70.0393
41.8126
224.383
265.771
305.392
343.893
381.684
418.75
454.52
487.867
517.225
540.801
556.879
564.155
561.986
550.556
530.841
504.384
472.986
438.388
402.004
364.728
326.845
288.039
247.541
204.653
159.334
112.421
68.7045
41.5898
215.438
255.312
292.934
328.836
363.367
396.511
427.821
456.439
481.201
500.812
514.054
520.023
518.277
508.947
492.714
470.666
444.095
414.274
382.258
348.748
313.971
277.658
239.19
198.093
154.471
109.211
67.1554
41.3354
205.65
243.941
279.548
312.911
344.336
373.832
401.083
425.481
446.215
462.396
473.208
478.053
476.644
469.073
455.798
437.553
415.223
389.688
361.694
331.735
299.961
266.135
229.78
190.627
148.89
105.502
65.3657
41.0452
194.983
231.609
265.193
296.09
324.582
350.727
374.342
395.041
412.307
425.577
434.343
438.238
437.089
430.961
420.145
405.11
386.424
364.658
340.291
313.628
284.724
253.362
219.203
182.156
142.505
101.231
63.3083
40.7177
183.402
218.261
249.803
278.308
304.047
327.141
347.537
365.039
379.367
390.208
397.28
400.384
399.428
394.456
385.642
373.263
357.65
339.133
317.979
294.326
268.138
239.212
207.34
172.571
135.219
96.3308
60.9552
40.3511
170.881
203.831
233.287
259.455
282.61
302.937
320.502
335.269
347.136
355.974
361.661
364.113
363.292
359.229
352.017
341.797
328.732
312.974
294.623
273.683
250.049
223.544
194.069
161.762
126.932
90.7323
58.2822
39.945
157.404
188.254
215.527
239.376
260.082
277.892
292.969
305.399
315.214
322.409
326.97
328.885
328.154
324.794
318.845
310.359
299.383
285.941
270.011
251.508
230.289
206.217
179.273
149.622
117.547
84.3776
55.2764
39.5028
142.978
171.467
196.391
217.875
236.212
251.694
264.558
274.977
283.07
288.913
292.554
294.026
293.347
290.526
285.569
278.467
269.194
257.691
243.864
227.58
208.696
187.118
162.861
136.055
106.982
77.2382
51.9505
39.0355
127.645
153.429
175.749
194.739
210.705
223.971
234.817
243.468
250.089
254.797
257.675
258.774
258.118
255.709
251.529
245.537
237.667
227.822
215.88
201.704
185.168
166.199
144.787
121.006
95.2143
69.3626
48.3733
38.5695
111.504
134.161
153.535
169.811
183.313
194.377
203.302
210.329
215.635
219.351
221.564
222.331
221.672
219.581
216.031
210.97
204.323
195.995
185.869
173.821
159.734
143.514
125.089
104.522
82.3711
60.9625
44.7241
38.1587
94.7454
113.788
129.814
143.09
153.954
162.738
169.737
175.177
179.229
182.008
183.597
184.045
183.364
181.55
178.578
174.405
168.967
162.183
153.947
144.14
132.626
119.268
103.963
86.8872
68.8924
52.5355
41.3892
37.8865
77.6835
92.6106
104.891
114.88
122.913
129.302
134.316
138.152
140.952
142.811
143.796
143.942
143.267
141.772
139.439
136.235
132.106
126.97
120.722
113.231
104.347
93.9386
81.9895
68.9122
55.7631
44.9695
38.8935
37.7937
60.7819
71.199
79.4762
86.0176
91.1385
95.1172
98.1755
100.467
102.091
103.118
103.591
103.538
102.97
101.884
100.261
98.0638
95.238
91.7081
87.382
82.1598
75.9559
68.7504
60.7079
52.3878
44.7158
39.4723
37.5511
38.3541
44.6783
50.5363
54.9044
58.1951
60.6786
62.5512
63.9545
64.9797
65.6806
66.0977
66.2361
66.0802
65.6253
64.874
63.822
62.4584
60.7668
58.7275
56.3227
53.5465
50.423
47.0344
43.5819
40.3974
38.1062
37.0798
37.4373
40.0624
29.9753
32.1246
33.3865
34.1779
34.7298
35.1312
35.4254
35.6349
35.7724
35.8453
35.88
35.9145
35.9489
35.9836
36.0186
36.054
36.0901
36.127
36.1651
36.2048
36.2466
36.2915
36.3409
36.3979
36.4687
36.6027
38.4992
47.1722
15.1182
20.3523
19.4403
12.901
5.74847
2.15579
1.55045
1.44139
1.39938
1.35792
1.30969
1.25912
13.9348
16.4097
13.5155
7.40552
2.89804
1.67537
1.49666
1.43974
1.39975
1.34966
1.29549
1.2471
12.6989
12.8081
8.90319
4.08608
1.90706
1.57252
1.48413
1.44244
1.39374
1.33561
1.28214
1.25356
11.4566
9.75751
5.6743
2.4904
1.6865
1.54096
1.48585
1.43991
1.37977
1.31916
1.28366
1.30472
10.292
7.38213
3.72013
1.93134
1.62274
1.53505
1.48764
1.43061
1.3652
1.31678
1.30519
1.37729
9.28238
5.65205
2.68018
1.76975
1.6002
1.53795
1.48509
1.41815
1.35472
1.32616
1.37887
2.11348
8.38534
4.41492
2.18205
1.7112
1.59594
1.54067
1.47686
1.40459
1.35791
1.37375
1.63267
4.99902
7.6238
3.59332
1.98406
1.68647
1.59925
1.54041
1.46712
1.39852
1.37479
1.4418
3.31687
11.2715
7.00522
3.05759
1.89679
1.6773
1.60421
1.53662
1.45725
1.40352
1.43326
1.9345
7.31668
20.6828
6.51059
2.72487
1.85236
1.67719
1.60847
1.53129
1.45235
1.42325
1.49663
3.7553
13.9931
32.6062
6.12667
2.52958
1.8292
1.68188
1.61052
1.52485
1.45952
1.46359
1.7245
7.33136
22.7558
46.2501
5.83236
2.41015
1.81838
1.68855
1.61152
1.52305
1.47305
1.51544
2.8268
12.8314
33.0014
60.8356
5.60599
2.33343
1.8151
1.69602
1.61291
1.52619
1.49576
1.56056
4.95765
19.6344
44.1638
75.7112
5.43005
2.2828
1.81654
1.70358
1.61447
1.53571
1.5201
1.63865
8.16
27.2885
55.7489
90.397
5.2919
2.24929
1.82105
1.71135
1.61806
1.54738
1.56223
2.20104
12.4227
35.4064
67.3616
104.575
5.18255
2.22757
1.82764
1.71955
1.62434
1.5641
1.59381
3.23814
17.2304
43.6808
78.7046
118.05
5.09564
2.21426
1.83577
1.7284
1.63311
1.58379
1.62269
4.70905
22.2975
51.8724
89.568
130.714
5.02661
2.20717
1.84513
1.73806
1.64398
1.60441
1.65185
6.54878
27.4277
59.8047
99.8165
142.512
4.97207
2.20479
1.85553
1.74866
1.65649
1.62545
1.68089
8.67759
32.4757
67.3535
109.372
153.425
4.92945
2.20609
1.86682
1.75989
1.67034
1.64623
1.75647
11.0148
37.3327
74.4354
118.194
163.454
4.89671
2.21031
1.87885
1.77165
1.6865
1.6748
1.95258
13.4559
41.9202
80.9987
126.271
172.612
4.87229
2.2169
1.89159
1.78428
1.70229
1.7001
2.23947
15.8359
46.1877
87.0149
133.606
180.917
4.85491
2.22543
1.905
1.79777
1.71847
1.72244
2.58859
18.0867
50.1056
92.4731
140.212
188.394
4.84358
2.23558
1.91909
1.81202
1.73496
1.74372
2.97415
20.1716
53.6574
97.3735
146.111
195.067
4.83746
2.24711
1.93377
1.82689
1.75224
1.76455
3.37358
22.0682
56.8352
101.724
151.323
200.962
4.83587
2.25984
1.94895
1.84228
1.77012
1.78508
3.76771
23.7625
59.6373
105.536
155.875
206.11
4.83823
2.27362
1.9646
1.85812
1.78825
1.80539
4.1407
25.2468
62.0673
108.827
159.795
210.544
4.84411
2.28833
1.98066
1.87437
1.80652
1.82552
4.48014
26.5178
64.1321
111.615
163.111
214.292
4.85317
2.30389
1.99713
1.89098
1.82485
1.84551
4.77685
27.5762
65.841
113.919
165.849
217.384
4.86513
2.32022
2.01397
1.90793
1.84321
1.86538
5.02411
28.4249
67.2042
115.757
168.032
219.844
4.87979
2.33729
2.03117
1.92518
1.86159
1.88516
5.21726
29.0677
68.2319
117.146
169.683
221.697
4.897
2.35507
2.04872
1.94272
1.87998
1.90484
5.3535
29.509
68.9338
118.1
170.819
222.961
4.91668
2.3734
2.06662
1.96054
1.8984
1.92441
5.4308
29.754
69.3189
118.634
171.457
223.652
4.93727
2.39353
2.08485
1.97865
1.91685
1.94385
5.4548
29.8047
69.3943
118.755
171.607
223.781
4.9579
2.41649
2.10336
1.99694
1.93537
1.96304
5.44296
29.6523
69.1678
118.47
171.271
223.355
4.97859
2.44235
2.12212
2.01537
1.954
1.98198
5.39887
29.2994
68.6447
117.784
170.452
222.376
4.99935
2.47116
2.14132
2.03396
1.97275
2.00068
5.32481
28.7525
67.8283
116.699
169.151
220.846
5.02022
2.50294
2.1609
2.05271
1.99161
2.01917
5.22321
28.0196
66.7203
115.217
167.366
218.762
5.04122
2.53777
2.18085
2.07165
2.01062
2.03746
5.09684
27.1098
65.3215
113.337
165.092
216.116
5.06236
2.57577
2.2012
2.09078
2.02977
2.05556
4.94886
26.0341
63.6319
111.057
162.322
212.899
5.08368
2.61708
2.22197
2.11014
2.04908
2.07353
4.78277
24.8054
61.6523
108.373
159.046
209.095
5.1052
2.66193
2.24319
2.12974
2.06858
2.09138
4.60234
23.4387
59.3842
105.281
155.253
204.688
5.12696
2.71053
2.26492
2.14962
2.08829
2.10917
4.41156
21.9517
56.8319
101.778
150.933
199.659
5.14898
2.76316
2.28719
2.16979
2.10822
2.12695
4.21455
20.3649
54.0029
97.861
146.072
193.987
5.17131
2.82013
2.31007
2.1903
2.12841
2.14468
4.01556
18.7018
50.9096
93.5293
140.662
187.651
5.19399
2.88179
2.33361
2.21117
2.14889
2.16234
3.81874
16.9889
47.5709
88.7863
134.693
180.629
5.21706
2.94852
2.35789
2.23246
2.16969
2.17999
3.628
15.2559
44.014
83.6414
128.162
172.903
5.24057
3.02077
2.38302
2.25421
2.19085
2.19766
3.44695
13.5344
40.2742
78.1117
121.071
164.453
5.26459
3.09878
2.40894
2.27647
2.21241
2.21539
3.27868
11.8579
36.4024
72.2277
113.427
155.269
5.28917
3.18389
2.43671
2.2993
2.23441
2.23325
3.1257
10.2582
32.4401
66.0334
105.254
145.345
5.31439
3.27598
2.46786
2.32278
2.25688
2.25126
2.98978
8.78664
28.4266
59.5845
96.5901
134.69
5.34033
3.37366
2.50323
2.34703
2.27983
2.26949
2.87195
7.4977
24.4579
52.958
87.4956
123.335
5.36709
3.47655
2.54366
2.37219
2.30325
2.28798
2.77263
6.40379
20.6489
46.2611
78.0609
111.338
5.39477
3.58442
2.59004
2.39845
2.32714
2.30674
2.69161
5.4991
17.1137
39.6356
68.416
98.8
5.4235
3.697
2.64328
2.42597
2.35143
2.32579
2.62802
4.76885
13.9502
33.2534
58.7428
85.8767
5.45341
3.81403
2.70435
2.4553
2.37631
2.34509
2.58047
4.1936
11.2298
27.3051
49.2849
72.8081
5.48469
3.93519
2.77424
2.48641
2.40203
2.36458
2.5472
3.75165
8.98913
21.9784
40.3453
59.9357
5.51753
4.06017
2.85399
2.51922
2.42871
2.38389
2.52609
3.42087
7.22663
17.4308
32.2799
47.7086
5.55219
4.18865
2.94449
2.55334
2.4564
2.40428
2.51468
3.17964
5.90282
13.7612
25.4164
36.619
5.58909
4.32095
3.04824
2.59099
2.48513
2.42837
2.51158
3.00843
4.95865
10.9896
20.341
26.7838
5.61995
4.44143
3.15133
2.62809
2.51157
2.45144
2.51436
2.9
4.35683
9.1273
17.1487
23.0694
5.65219
4.55014
3.2502
2.66659
2.53561
2.47264
2.52098
2.83043
3.98877
7.93267
15.228
21.5764
5.68656
4.66099
3.35651
2.71062
2.56049
2.49438
2.53068
2.78005
3.72123
7.02383
13.7697
20.6049
64.5419
102.963
101.953
101.409
101.045
100.848
100.677
100.53
100.398
100.278
100.165
100.059
99.9554
99.8546
99.7552
99.6558
99.5547
99.4227
99.2556
99.0564
98.8402
98.6309
98.4623
98.2827
98.0927
99.1103
101.584
110.319
58.0218
102.813
102.063
101.861
102.049
102.714
103.9
105.603
107.685
109.891
112.022
113.94
115.537
116.731
117.464
117.683
117.351
116.431
114.923
112.839
110.239
107.24
104.128
101.196
98.6385
97.1891
96.9196
97.2176
48.8383
99.758
103.017
103.51
105.864
109.961
115.722
122.571
129.809
136.861
143.396
149.107
153.769
157.216
159.341
160.061
159.272
156.897
152.949
147.459
140.507
132.281
123.155
113.83
105.425
99.3393
96.6731
96.0387
40.7199
94.7583
104.811
107.269
113.767
123.404
135.525
148.941
162.613
175.754
187.77
198.193
206.671
212.941
216.803
218.09
216.665
212.466
205.485
195.766
183.44
168.777
152.294
134.947
118.365
104.974
97.5901
95.776
34.0665
89.1878
106.773
112.542
124.398
140.644
159.969
180.726
201.586
221.506
239.667
255.427
268.276
277.8
283.672
285.627
283.481
277.162
266.688
252.186
233.908
212.267
187.928
162.007
136.397
114.183
99.7282
95.6148
28.5372
82.105
108.514
118.275
136.005
159.28
186.175
214.675
243.181
270.416
295.354
317.139
335.03
348.387
356.675
359.479
356.529
347.728
333.178
313.177
288.222
259.005
226.451
191.845
157.192
125.887
103.28
95.4849
23.9285
73.5546
109.367
123.491
147.08
177.388
211.925
248.358
284.873
319.998
352.485
381.184
405.017
422.996
434.28
438.223
434.434
422.811
403.575
377.272
344.756
307.159
265.837
222.376
178.841
138.603
107.751
95.3745
20.2129
64.2443
108.387
127.462
156.528
193.566
235.595
280.009
324.837
368.438
409.282
445.823
476.522
499.937
514.831
520.271
515.709
501.049
476.657
443.379
402.514
355.741
305.009
252.405
200.192
151.548
112.674
95.277
17.1579
54.8097
104.96
129.722
163.653
206.875
256.037
308.321
361.64
414.175
464.044
509.211
547.587
577.192
596.322
603.685
598.535
580.773
550.942
510.251
460.502
403.986
343.334
281.288
220.51
164.035
117.735
95.1881
14.6105
45.7385
98.6611
130.335
168.039
216.734
272.477
332.319
394.089
455.768
515.076
569.438
616.164
652.68
676.721
686.536
681.097
660.287
624.884
576.544
517.644
451.126
380.319
308.688
239.464
175.703
122.696
95.1055
12.4719
37.3732
89.8612
128.84
169.577
222.839
284.43
351.294
421.197
491.923
560.79
624.686
680.324
724.476
754.197
767.116
761.805
738.096
697.088
641.009
572.912
496.413
415.514
334.38
256.916
186.377
127.412
95.0274
10.6738
29.9536
79.2754
124.661
168.421
225.085
291.659
364.778
442.212
521.57
599.811
673.347
738.329
790.839
827.11
843.939
839.306
812.938
766.361
702.569
625.407
539.183
448.52
358.205
272.826
196.006
131.797
94.9528
9.1643
23.6082
67.7598
117.529
164.658
223.574
294.109
372.549
456.643
543.92
631.049
714.065
788.638
850.164
893.92
915.615
912.371
883.698
831.676
760.307
674.385
578.892
479.013
380.042
287.203
204.6
135.811
94.8809
7.90349
18.4025
55.8209
107.518
158.219
218.606
291.9
374.584
464.291
558.498
653.737
745.77
829.905
900.922
953.064
980.689
979.724
949.288
892.096
813.43
719.236
615.117
506.747
399.81
300.081
212.203
139.44
94.8112
6.84693
14.5015
44.4135
95.1276
148.973
210.488
285.342
371.088
465.168
565.168
667.465
767.714
861.022
941.671
1002.89
1037.5
1039.87
1008.49
946.69
861.222
759.464
647.544
531.555
417.465
311.505
218.875
142.687
94.7432
5.96667
11.607
34.2884
81.2312
136.914
199.449
274.852
362.43
459.605
564.024
672.148
779.553
881.204
971.162
1041.77
1084.21
1091.07
1059.89
994.484
903.028
794.663
675.957
553.341
432.998
321.528
224.68
145.565
94.6767
5.25036
9.428
25.8374
66.8667
122.319
185.629
260.881
349.099
448.089
555.524
668.043
781.23
890.127
988.543
1068.25
1119.08
1131.61
1101.92
1034.45
938.251
824.516
700.219
572.07
446.432
330.211
229.683
148.09
94.6114
4.68432
7.77557
19.146
53.1127
105.876
169.184
243.831
331.656
431.226
540.303
655.742
773.229
887.821
993.364
1081.57
1141.04
1160.56
1133.12
1065.61
966.378
848.8
720.272
587.763
457.817
337.621
233.946
150.285
94.547
4.24529
6.52398
14.0966
40.4634
88.4586
150.438
224.043
310.67
409.696
519.118
636.024
756.28
874.949
985.915
1080.97
1148.91
1178.81
1152.49
1087.11
987.027
867.397
736.128
600.485
467.228
343.829
237.533
152.17
94.4835
3.91258
5.57004
10.6537
29.7193
71.1177
129.968
201.847
286.665
384.197
492.795
609.796
731.297
852.412
967.068
1067.18
1141.77
1176.35
1159.73
1098.4
999.999
880.307
747.87
610.342
474.76
348.91
240.499
153.769
94.4207
3.66512
4.84978
8.32285
21.2707
54.9432
108.643
177.676
260.105
355.391
462.172
578.047
699.382
821.422
938.155
1041.63
1121.11
1162.86
1156.52
1099.29
1005.34
887.672
755.662
617.479
480.523
352.942
242.902
155.103
94.3584
3.48638
4.32187
6.71461
15.0476
40.7793
87.5621
152.191
231.453
323.873
428.049
541.789
661.744
783.38
900.802