/*--------------------------------*- C++ -*----------------------------------*\
| =========                 |                                                 |
| \\      /  F ield         | OpenFOAM: The Open Source CFD Toolbox           |
|  \\    /   O peration     | Version:  v2012                                 |
|   \\  /    A nd           | Website:  www.openfoam.com                      |
|    \\/     M anipulation  |                                                 |
\*---------------------------------------------------------------------------*/
FoamFile
{
    version     2.0;
    format      ascii;
    class       volScalarField;
    location    "696";
    object      k;
}
// * * * * * * * * * * * * * * * * * * * * * * * * * * * * * * * * * * * * * //

dimensions      [0 2 -2 0 0 0 0];


internalField   nonuniform List<scalar> 
6036
(
0.00659792
0.00649474
0.00638143
0.00625725
0.00612151
0.00597353
0.00581273
0.00563853
0.00545049
0.00524821
0.00503142
0.00479998
0.00455386
0.00429318
0.00401824
0.00372976
0.00342934
0.00311888
0.0028006
0.00247758
0.00211235
0.00211286
0.00211237
0.00211096
0.00210873
0.0021058
0.00210226
0.00209827
0.00209398
0.00208959
0.00208535
0.00208159
0.00207874
0.00207737
0.00207826
0.00208224
0.00208972
0.00210094
0.0021162
0.00213578
0.00173715
0.00175307
0.00176926
0.00178576
0.00180261
0.00181985
0.00183755
0.00185575
0.0018745
0.00189386
0.00191388
0.00193462
0.00195614
0.00197849
0.00200174
0.00202592
0.00205101
0.00207702
0.00210391
0.00213169
0.0017008
0.00171899
0.00173759
0.00175661
0.00177606
0.00179597
0.00181634
0.00183721
0.00185857
0.00188045
0.00190287
0.00192585
0.0019494
0.00197353
0.00199827
0.00202363
0.00204963
0.00207628
0.0021036
0.00213162
0.00169785
0.00171635
0.00173526
0.0017546
0.00177435
0.00179455
0.00181519
0.00183629
0.00185788
0.00187995
0.00190253
0.00192563
0.00194928
0.00197348
0.00199827
0.00202366
0.00204966
0.00207631
0.00210363
0.00213164
0.00169781
0.00171632
0.00173524
0.00175458
0.00177434
0.00179454
0.00181518
0.00183629
0.00185787
0.00187994
0.00190253
0.00192563
0.00194928
0.00197348
0.00199827
0.00202366
0.00204966
0.00207631
0.00210363
0.00213164
0.00170102
0.0017191
0.00173765
0.00175664
0.00177607
0.00179597
0.00181634
0.0018372
0.00185857
0.00188045
0.00190287
0.00192585
0.00194939
0.00197353
0.00199827
0.00202363
0.00204963
0.00207628
0.0021036
0.00213162
0.00173965
0.00175463
0.00177029
0.00178644
0.00180306
0.00182015
0.00183774
0.00185587
0.00187457
0.0018939
0.0019139
0.00193463
0.00195614
0.00197849
0.00200174
0.00202592
0.00205101
0.00207702
0.00210391
0.00213169
0.00212889
0.00212362
0.00211968
0.00211583
0.00211195
0.00210788
0.00210361
0.00209913
0.00209453
0.00208993
0.00208556
0.00208172
0.00207881
0.00207741
0.00207828
0.00208226
0.00208973
0.00210095
0.0021162
0.00213578
0.00658445
0.00648733
0.0063764
0.00625384
0.00611921
0.00597199
0.0058117
0.00563785
0.00545004
0.00524792
0.00503124
0.00479986
0.00455379
0.00429313
0.00401821
0.00372975
0.00342933
0.00311888
0.0028006
0.00247758
0.000814919
0.00140095
0.00254883
0.00353392
0.0043674
0.00502235
0.00552874
0.0059251
0.00624029
0.00649262
0.00669365
0.00685165
0.00697401
0.00706493
0.00712883
0.00716956
0.0071905
0.00719467
0.00718469
0.00716278
0.00713076
0.00709003
0.00704158
0.00698598
0.00692344
0.00685383
0.00677676
0.00669168
0.00490936
0.00486536
0.00480418
0.0046923
0.00450163
0.00425007
0.00395795
0.00365805
0.00338071
0.00313221
0.002922
0.00274767
0.00260206
0.00248157
0.00238271
0.00230278
0.00223954
0.00219094
0.00215505
0.00212997
0.00211388
0.00210481
0.00210103
0.00210077
0.00210269
0.00210558
0.0021085
0.00211087
0.00531553
0.00473462
0.00423699
0.0037918
0.00337875
0.00300032
0.00267074
0.00239908
0.00218474
0.0020191
0.00189321
0.00179822
0.00172788
0.00167825
0.00164481
0.00162389
0.00161258
0.00160858
0.00161006
0.00161559
0.00162422
0.00163518
0.00164783
0.00166164
0.00167605
0.00169087
0.00170604
0.00172148
0.0047091
0.00396119
0.00338939
0.00294108
0.00257889
0.00228282
0.002055
0.00188705
0.0017666
0.00168141
0.00162184
0.00158072
0.00155303
0.00153523
0.00152553
0.00152339
0.00152685
0.00153432
0.00154461
0.00155686
0.00157045
0.00158498
0.00160019
0.00161593
0.0016321
0.00164867
0.00166564
0.00168302
0.0038298
0.0031765
0.00272343
0.00238956
0.00212975
0.00193404
0.00179543
0.00169983
0.00163445
0.00158968
0.00155901
0.0015382
0.00152455
0.00151633
0.00151238
0.0015134
0.00151894
0.00152779
0.00153898
0.0015518
0.00156576
0.00158052
0.00159589
0.00161176
0.00162808
0.00164486
0.00166209
0.00167976
0.00310979
0.00263466
0.00231536
0.00208152
0.00190513
0.00178175
0.00169812
0.0016412
0.00160166
0.00157356
0.0015533
0.0015388
0.00152883
0.00152265
0.00151968
0.00152019
0.00152498
0.00153294
0.00154319
0.0015551
0.00156822
0.00158228
0.00159705
0.00161244
0.00162843
0.001645
0.0016621
0.00167973
0.00263686
0.00231266
0.00209313
0.00192619
0.00180893
0.0017299
0.00167608
0.00163787
0.00160951
0.00158784
0.00157111
0.00155829
0.00154891
0.00154263
0.00153906
0.00153854
0.00154226
0.00154924
0.00155829
0.00156926
0.00158143
0.00159412
0.00160716
0.00162077
0.00163509
0.00165029
0.00166643
0.00168341
0.00236429
0.00214851
0.00199279
0.00187863
0.00180291
0.00175283
0.00171775
0.00169109
0.00166993
0.00165259
0.00163794
0.00162508
0.0016183
0.00161874
0.0016244
0.00163347
0.00164453
0.00165648
0.00166841
0.00167982
0.00169011
0.00169346
0.00169416
0.00169537
0.00169775
0.00170361
0.0017127
0.00172529
0.00225936
0.00213125
0.00204
0.00199111
0.00197691
0.00198592
0.00200915
0.00204494
0.0021082
0.0021948
0.00229617
0.00240093
0.00249601
0.00257042
0.00261921
0.00264244
0.00264294
0.00262687
0.00260133
0.00257483
0.00252686
0.00244286
0.00235711
0.00228271
0.00222108
0.00217472
0.00214176
0.00212516
0.00234609
0.00233268
0.00237126
0.0024731
0.00265328
0.00293502
0.00334759
0.00391565
0.0046473
0.0055333
0.0065398
0.00758815
0.00858225
0.0094494
0.010129
0.0105577
0.010694
0.0105376
0.0100754
0.00931851
0.00835093
0.00725645
0.00645284
0.0059559
0.00572697
0.00571938
0.00588025
0.00617296
0.00100765
0.00139572
0.00139038
0.00125645
0.00111329
0.000973099
0.000814916
0.000629918
0.00044751
0.000468964
0.000626118
0.000749369
0.00163176
0.00239754
0.00232499
0.00204175
0.00174471
0.00148374
0.00125342
0.00104108
0.000939725
0.00137897
0.00202818
0.0042089
0.00207516
0.00286369
0.002737
0.00237841
0.00205473
0.0017903
0.001571
0.0014632
0.00205688
0.00425117
0.00571827
0.00576977
0.00245529
0.00347782
0.00324854
0.00269314
0.00226895
0.00201717
0.00194087
0.00266152
0.00515151
0.00679791
0.00652499
0.00561878
0.0028086
0.0042698
0.00386858
0.00299262
0.00247135
0.00246852
0.00329297
0.00542466
0.00749873
0.0073675
0.00608167
0.00479463
0.00315771
0.00516898
0.00454744
0.0033913
0.00312351
0.00381184
0.0056028
0.00773091
0.00809602
0.006679
0.00503914
0.00386199
0.00352209
0.00605981
0.00524842
0.00432744
0.00451697
0.00582423
0.00763327
0.00840135
0.00729745
0.00548452
0.00405458
0.00316515
0.00392963
0.00686461
0.00617246
0.00569899
0.00631542
0.00763769
0.0084489
0.00777994
0.00605912
0.00441834
0.00333718
0.00271679
0.0043486
0.00766855
0.00732463
0.00715079
0.0078099
0.00854492
0.00814154
0.00665653
0.00493026
0.00364102
0.00288098
0.00247544
0.00475688
0.00847489
0.00836692
0.00824111
0.0085501
0.00845851
0.00724357
0.00553985
0.0040817
0.00314685
0.00265436
0.00243075
0.00267739
0.0028296
0.00307738
0.00346063
0.00402711
0.00481848
0.00585125
0.00708697
0.00844559
0.00979135
0.0109569
0.0117913
0.012186
0.0120935
0.0115181
0.0104673
0.008953
0.0077824
0.00692926
0.00634078
0.00588632
0.00548972
0.0051271
0.00475971
0.00423426
0.00358483
0.0028849
0.00167884
0.00320129
0.00353765
0.00403113
0.00473829
0.00568724
0.00684109
0.00807821
0.0091887
0.00995607
0.0102198
0.0099585
0.00926748
0.00831521
0.00729398
0.00650567
0.00596466
0.00566645
0.00558932
0.00551571
0.0054618
0.00539326
0.00527715
0.00507542
0.00472196
0.00425647
0.00368878
0.00292783
0.00129164
0.00381741
0.00433948
0.00507671
0.00603903
0.00713462
0.00815385
0.00883829
0.00901039
0.00866633
0.00796691
0.00714586
0.00639715
0.00583606
0.00549908
0.00536359
0.0053625
0.00542852
0.00549132
0.00552643
0.00552094
0.00545792
0.00531858
0.00507959
0.00470777
0.00421599
0.00360768
0.00281814
0.00145565
0.00445408
0.00516059
0.00607448
0.00706404
0.0078713
0.00823868
0.00807962
0.00753325
0.00684738
0.00623158
0.00579256
0.00555112
0.00548006
0.00552977
0.00564643
0.00578472
0.00590012
0.00597975
0.00601247
0.00598613
0.00588692
0.00569886
0.00540389
0.00498009
0.00444416
0.00380605
0.00304267
0.00183773
0.00508918
0.00593375
0.00683494
0.00751035
0.00771212
0.00742789
0.00687666
0.0063162
0.00589762
0.00566413
0.00560017
0.00566539
0.00581173
0.00599452
0.00617955
0.00634239
0.00646355
0.00653932
0.00655971
0.00651213
0.00638203
0.00615355
0.00581116
0.00534107
0.00475183
0.00406703
0.00329387
0.00219979
0.00569542
0.0065379
0.00716486
0.00732016
0.00701872
0.00651765
0.00606806
0.00578123
0.00566896
0.00570454
0.00584729
0.00605336
0.00628441
0.0065123
0.00671893
0.00688515
0.0070107
0.00708816
0.00710607
0.00704984
0.00690208
0.00664397
0.0062583
0.00573486
0.00507857
0.00432391
0.00351279
0.00251707
0.0062007
0.0068421
0.00703585
0.00677318
0.00632324
0.00594455
0.00573366
0.00568865
0.00577934
0.00596692
0.00621087
0.00647644
0.00673861
0.00698163
0.00719599
0.00736935
0.00750282
0.00758811
0.00761254
0.00755922
0.0074073
0.00713338
0.006715
0.00613795
0.00540773
0.00456184
0.00368566
0.00279694
0.00651586
0.0068125
0.00663098
0.00622395
0.00587813
0.00570138
0.00568772
0.00580531
0.00601699
0.00628451
0.0065749
0.00686443
0.00713833
0.00738808
0.00760853
0.00779088
0.00793504
0.00803231
0.00806902
0.0080264
0.00788042
0.00760279
0.00716437
0.00654306
0.00573829
0.00479206
0.00382906
0.0030458
0.00659806
0.00654881
0.00618955
0.00584654
0.0056703
0.00566113
0.00578509
0.00600572
0.00628598
0.00659341
0.00690425
0.00720355
0.00748288
0.00773765
0.00796446
0.00815666
0.00831272
0.00842355
0.00847489
0.00844667
0.0083124
0.00803952
0.00759213
0.00693865
0.00606825
0.00502066
0.00395615
0.00326747
0.00648341
0.00620718
0.00585064
0.00564454
0.00561598
0.00572893
0.00594569
0.0062294
0.00654712
0.00687404
0.00719417
0.00749848
0.00778241
0.00804337
0.00827579
0.00847791
0.00864574
0.00876978
0.00883545
0.00882198
0.00870127
0.00843757
0.00798914
0.00731478
0.00639069
0.00524801
0.0040747
0.00346512
0.00626007
0.00590318
0.00563962
0.00556575
0.00565007
0.00585037
0.00612846
0.00644992
0.00678799
0.00712482
0.00745001
0.00775826
0.00804709
0.00831454
0.00855409
0.00876576
0.00894422
0.00907973
0.00915764
0.009157
0.00904897
0.00879576
0.00835112
0.00766508
0.00669977
0.0054723
0.00418834
0.00364145
0.0060152
0.00568155
0.00553046
0.00556414
0.00573354
0.00599597
0.0063142
0.00665849
0.0070083
0.00735119
0.00768052
0.00799325
0.00828765
0.00856175
0.00880925
0.00902938
0.0092164
0.0093606
0.00944752
0.00945646
0.00935865
0.00911537
0.00867709
0.00798636
0.0069913
0.00569117
0.00429871
0.0037988
0.00580245
0.00554073
0.00549159
0.0056103
0.00584429
0.00615093
0.00649591
0.00685493
0.00721273
0.00756075
0.00789487
0.00821303
0.00851353
0.00879426
0.0090487
0.0092752
0.00946786
0.00961714
0.00970905
0.00972364
0.0096329
0.00939813
0.00896759
0.00827753
0.00726276
0.00590236
0.00440631
0.0039392
0.00564135
0.00546369
0.00550018
0.00568694
0.00597041
0.00630911
0.00667302
0.00704288
0.00740749
0.00776112
0.00810094
0.00842504
0.00873152
0.00901788
0.00927715
0.00950703
0.0097016
0.00985167
0.009944
0.0099599
0.00987292
0.00964516
0.00922346
0.00853864
0.00751298
0.00610409
0.00451108
0.00406445
0.00553154
0.00543394
0.00554209
0.00578425
0.00610632
0.00646936
0.00684804
0.00722726
0.00759884
0.00795877
0.00830472
0.00863458
0.00894601
0.00923594
0.009497
0.00972646
0.00991853
0.0100645
0.0101523
0.010165
0.0100785
0.00985666
0.00944533
0.00877038
0.00774175
0.0062952
0.00461278
0.00417611
0.00546561
0.00543975
0.00560892
0.00589705
0.00625025
0.00663313
0.00702466
0.00741298
0.00779193
0.00815846
0.00851032
0.00884497
0.00915941
0.00944979
0.00970878
0.00993339
0.0101181
0.0102548
0.0103328
0.0103376
0.0102486
0.0100321
0.00963359
0.00897365
0.00794952
0.00647513
0.0047111
0.00427559
0.00543576
0.00547364
0.00569585
0.00602305
0.00640257
0.0068029
0.00720655
0.00760405
0.00799047
0.00836327
0.00872004
0.00905769
0.0093726
0.0096592
0.00991164
0.0101266
0.0102987
0.0104207
0.0104834
0.0104757
0.0103813
0.0101707
0.00978847
0.00914943
0.00813706
0.00664366
0.00480578
0.00436412
0.00543593
0.00553103
0.00580024
0.00616164
0.00656461
0.00698118
0.00739667
0.00780319
0.00819659
0.00857451
0.00893426
0.0092722
0.00958425
0.00986254
0.0101037
0.010304
0.0104583
0.0105599
0.0106018
0.010577
0.0104754
0.0102717
0.00991094
0.0092986
0.0083051
0.00680063
0.00489657
0.0044428
0.00546178
0.00560898
0.00592058
0.00631286
0.00673753
0.00716966
0.00759662
0.00801154
0.00841067
0.00879171
0.00915164
0.00948625
0.00979082
0.0100572
0.0102825
0.0104633
0.0105945
0.0106702
0.0106859
0.0106401
0.0105316
0.0103411
0.0100067
0.00942335
0.00845446
0.00694576
0.0049836
0.00451253
0.00551014
0.0057052
0.00605536
0.00647579
0.00692083
0.00736794
0.00780589
0.00822813
0.00863118
0.00901279
0.00936966
0.0096971
0.00998997
0.0102402
0.0104454
0.0106019
0.0107049
0.0107494
0.0107342
0.0106676
0.0105569
0.0103828
0.0100783
0.00952729
0.00858647
0.00707988
0.00506956
0.0045741
0.00557823
0.00581698
0.00620136
0.00664658
0.00711045
0.00757227
0.00802109
0.00844955
0.00885464
0.00923415
0.0095847
0.00990129
0.0101785
0.0104087
0.0105896
0.0107174
0.0107875
0.0107963
0.0107501
0.0106659
0.0105549
0.0103993
0.0101276
0.0096123
0.00870215
0.00720465
0.00515694
0.00462821
0.00566288
0.00593962
0.00635141
0.00681691
0.00729934
0.0077769
0.00823669
0.00867047
0.00907622
0.00945129
0.00979262
0.0100951
0.0103532
0.0105599
0.0107127
0.0108078
0.0108411
0.0108137
0.0107388
0.0106383
0.0105283
0.0103927
0.0101563
0.00968011
0.00880231
0.00732006
0.00524194
0.00467546
0.00575948
0.00606549
0.00649878
0.00698501
0.0074848
0.00797623
0.00844622
0.00888629
0.00929125
0.00965994
0.00998978
0.0102755
0.0105115
0.0106915
0.0108128
0.0108723
0.0108678
0.0108057
0.0107031
0.0105873
0.0104793
0.0103652
0.0101661
0.00973222
0.00888776
0.00742595
0.00532212
0.00471644
0.00586145
0.00619029
0.0066453
0.007151
0.00766707
0.00817113
0.00864948
0.00909273
0.0094959
0.00985755
0.0101738
0.0104405
0.0106518
0.010802
0.0108894
0.0109117
0.0108707
0.0107745
0.010645
0.0105149
0.0104104
0.010319
0.0101588
0.00976969
0.00896134
0.00752332
0.00539765
0.00475167
0.00596397
0.00631472
0.00679023
0.00731435
0.00784575
0.0083612
0.00884625
0.00929075
0.00968956
0.0100415
0.0103432
0.0105888
0.0107727
0.0108908
0.0109428
0.0109286
0.0108507
0.0107208
0.0105656
0.0104231
0.0103236
0.0102562
0.010136
0.00979366
0.00902402
0.00761269
0.00546868
0.00478163
0.00606701
0.0064381
0.00693295
0.00747451
0.00802026
0.00854592
0.00903612
0.00948008
0.00987253
0.0102124
0.0104962
0.010718
0.0108727
0.0109578
0.010974
0.0109222
0.0108076
0.0106451
0.0104662
0.0103137
0.0102214
0.010179
0.0100994
0.00980521
0.0090766
0.00769458
0.00553531
0.00480673
0.00617002
0.00655981
0.00707282
0.0076308
0.00818983
0.00872441
0.00921807
0.00965936
0.010043
0.0103683
0.0106315
0.0108273
0.0109508
0.0110013
0.0109806
0.0108914
0.0107409
0.0105479
0.0103481
0.0101888
0.010106
0.0100896
0.0100507
0.00980538
0.00911976
0.00776959
0.00559861
0.00482736
0.0062725
0.00667922
0.0072091
0.00778237
0.00835344
0.00889535
0.00939034
0.00982633
0.0101981
0.0105055
0.0107452
0.0109125
0.0110034
0.0110185
0.010961
0.0108352
0.0106508
0.0104302
0.0102132
0.0100506
0.00997958
0.00999003
0.00999163
0.00979522
0.00915415
0.00783827
0.0056598
0.00484386
0.00637396
0.00679569
0.00734098
0.00792817
0.00850979
0.00905707
0.00955082
0.00997836
0.010335
0.0106211
0.0108346
0.0109714
0.0110287
0.0110083
0.0109147
0.0107538
0.0105381
0.0102935
0.0100635
0.00990122
0.00984447
0.00988236
0.00992367
0.00977574
0.00918036
0.00790094
0.00571921
0.00485655
0.00647391
0.00690851
0.00746752
0.00806706
0.00865741
0.00920772
0.00969726
0.010113
0.0104511
0.0107131
0.0108982
0.0110033
0.0110264
0.0109708
0.0108419
0.0106479
0.0104039
0.0101395
0.00990109
0.00974303
0.0097028
0.00976847
0.00984837
0.00974792
0.00919891
0.00795786
0.00577721
0.00486572
0.00657188
0.00701697
0.00758775
0.00819778
0.00879475
0.0093454
0.00982751
0.010228
0.0105444
0.0107799
0.0109348
0.0110074
0.0109961
0.0109056
0.0107428
0.0105181
0.0102497
0.00997024
0.00972822
0.00957829
0.00955666
0.00965016
0.00976718
0.0097127
0.00921031
0.00800921
0.00583412
0.00487168
0.00666742
0.00712035
0.0077007
0.00831913
0.00892035
0.00946828
0.0099394
0.0103212
0.0106129
0.0108197
0.0109432
0.0109825
0.0109369
0.0108122
0.0106173
0.0103651
0.0100769
0.00978777
0.00954729
0.0094093
0.00940808
0.00952917
0.00968148
0.00967097
0.00921499
0.00805511
0.00589031
0.00487471
0.00676033
0.00721822
0.00780564
0.00843027
0.00903342
0.00957474
0.0100306
0.0103898
0.0106539
0.01083
0.0109209
0.0109266
0.0108471
0.0106897
0.0104655
0.0101901
0.00988746
0.00959448
0.00936084
0.00923839
0.00925904
0.00940714
0.00959259
0.00962361
0.00921336
0.00809558
0.00594631
0.00487512
0.00685228
0.00731206
0.0079033
0.00852993
0.00912955
0.00966003
0.0100969
0.0104306
0.0106653
0.0108096
0.0108673
0.0108393
0.0107268
0.0105388
0.0102889
0.00999501
0.0096834
0.00939202
0.00916978
0.00906624
0.00911069
0.00928593
0.00950232
0.00957143
0.00920575
0.00813057
0.00600251
0.00487325
0.00694435
0.00740085
0.00799118
0.00861526
0.00920702
0.00972241
0.0101367
0.0104423
0.0106458
0.0107571
0.0107811
0.0107198
0.0105757
0.0103601
0.0100888
0.00978203
0.00946727
0.00918279
0.0089762
0.00889454
0.00896437
0.00916684
0.00941273
0.00951669
0.0091919
0.00815959
0.00605952
0.00486946
0.00703647
0.00748415
0.00806836
0.00868498
0.00926423
0.00976019
0.0101483
0.0104231
0.0105934
0.0106706
0.0106604
0.0105665
0.0103935
0.0101547
0.00986778
0.00955412
0.00924207
0.00896952
0.00878248
0.00872529
0.00882178
0.00905137
0.00932521
0.00946123
0.00917465
0.00818253
0.00611569
0.00486382
0.00712882
0.00756172
0.00813415
0.008738
0.00929981
0.00977185
0.01013
0.0103715
0.0105069
0.0105487
0.0105046
0.0103801
0.0101824
0.00992603
0.00962952
0.00931504
0.00901116
0.00875509
0.00859104
0.0085606
0.0086847
0.00894102
0.009241
0.00940608
0.00915474
0.00820113
0.00617078
0.00485574
0.00722181
0.0076336
0.00818816
0.00877355
0.00931275
0.00975632
0.0100811
0.0102873
0.0103872
0.0103944
0.0103182
0.0101662
0.0099477
0.00967899
0.00937859
0.00906866
0.00877774
0.00854222
0.00840427
0.00840255
0.00855497
0.00883734
0.00916139
0.00935218
0.00913267
0.00821561
0.00622489
0.00484542
0.00731613
0.00770017
0.00823038
0.00879134
0.00930265
0.00971342
0.0100023
0.0101722
0.0102372
0.0102101
0.0101033
0.00992717
0.00969392
0.00941774
0.00911836
0.00881802
0.00854459
0.00833346
0.00822456
0.00825334
0.00843451
0.00874197
0.00908768
0.00930049
0.00910897
0.00822604
0.006278
0.00483302
0.00741281
0.00776224
0.00826135
0.00879173
0.00926988
0.00964412
0.00989502
0.0100283
0.0100578
0.00999876
0.00986425
0.00966713
0.00942138
0.00914355
0.00885055
0.00856518
0.00831414
0.00813139
0.00805445
0.00811533
0.00832542
0.00865665
0.00902123
0.00925198
0.00908409
0.00823242
0.0063306
0.00481872
0.00751323
0.00782115
0.00828224
0.00877573
0.0092154
0.00954987
0.00976175
0.00985679
0.00985276
0.00976457
0.00960612
0.00939108
0.00913566
0.00885809
0.00857795
0.00831261
0.00808919
0.00793904
0.00789688
0.00799121
0.00823003
0.00858327
0.00896347
0.00920758
0.00905842
0.00823482
0.00638323
0.00480262
0.00761918
0.00787882
0.00829487
0.00874479
0.00914102
0.00943228
0.00960269
0.00966168
0.00962685
0.00951313
0.00933458
0.00910584
0.00884418
0.00856966
0.0083032
0.00806459
0.00787353
0.00776013
0.00775543
0.00788413
0.00815098
0.00852392
0.00891593
0.00916824
0.00903228
0.00823318
0.00643567
0.00478503
0.00773284
0.00793768
0.00830138
0.00870123
0.00904946
0.00929446
0.00942269
0.00944813
0.00938604
0.00925094
0.00905687
0.00881905
0.00855604
0.00828813
0.00803735
0.00782575
0.0076725
0.00759943
0.00763433
0.00779778
0.00809128
0.00848093
0.00888023
0.00913493
0.00900599
0.00822744
0.00648817
0.00476611
0.0078567
0.00800044
0.00830447
0.00864874
0.00894393
0.00913913
0.00922786
0.0092226
0.00913721
0.00898544
0.00878118
0.00853986
0.00828087
0.00802458
0.0077927
0.00760822
0.00749268
0.00746314
0.00753876
0.00773642
0.00805436
0.00845683
0.00885805
0.00910854
0.00897975
0.00821747
0.00654079
0.00474601
0.00799317
0.00806961
0.0083081
0.00859148
0.00882897
0.00897398
0.00902544
0.00899279
0.00888841
0.00872521
0.00851667
0.00827806
0.00802912
0.00778984
0.00758115
0.0074255
0.00734515
0.00735831
0.00747495
0.00770498
0.00804402
0.00845434
0.00885112
0.00908987
0.00895354
0.00820297
0.00659354
0.00472485
0.00814355
0.00814814
0.00831726
0.00853472
0.00871048
0.00880754
0.00882417
0.0087677
0.008649
0.00847999
0.00827342
0.00804405
0.00781145
0.0075948
0.00741375
0.00728946
0.00724326
0.0072934
0.00744967
0.007709
0.00806437
0.00847631
0.00886109
0.00907951
0.00892705
0.00818338
0.0066463
0.00470266
0.00830724
0.00824038
0.00833727
0.00848525
0.00859854
0.00864965
0.00863426
0.00855786
0.00842977
0.00826071
0.00806243
0.00784879
0.00763874
0.00745019
0.00730108
0.00721075
0.00719867
0.00728151
0.00746836
0.00775436
0.00811979
0.00852556
0.00888941
0.00907768
0.00889948
0.00815777
0.00669871
0.00467935
0.00848588
0.00835026
0.008374
0.00844966
0.00850367
0.00851154
0.00846754
0.00837546
0.00824307
0.00807971
0.00789584
0.00770409
0.00752235
0.00736685
0.00725349
0.00719932
0.00722132
0.00733376
0.00754384
0.00784584
0.00821452
0.00860464
0.008937
0.00908392
0.00886916
0.00812457
0.00675008
0.00465462
0.0086808
0.00848175
0.0084343
0.00843931
0.00843772
0.00840606
0.00833759
0.00823455
0.00810309
0.00795099
0.00778725
0.00762294
0.00747454
0.00735622
0.00728152
0.00726485
0.00732025
0.00745884
0.00768495
0.00799089
0.00835155
0.00871525
0.00900379
0.00909659
0.00883305
0.00808133
0.00679915
0.00462784
0.00889241
0.00863837
0.00852408
0.00846469
0.00841332
0.0083475
0.00825985
0.00815122
0.00802611
0.00789063
0.00775216
0.00762003
0.00750897
0.00743068
0.00739617
0.00741697
0.0075038
0.00766414
0.00789871
0.00819718
0.00853298
0.00885732
0.0090879
0.00911209
0.00878584
0.00802449
0.00684382
0.00459777
0.00912009
0.00882299
0.00865008
0.00853655
0.00844395
0.0083516
0.00825175
0.00814386
0.00803081
0.00791705
0.00780823
0.00771186
0.00764062
0.00760348
0.00760881
0.00766509
0.00777945
0.00795528
0.00818934
0.00846826
0.00876416
0.00902847
0.00918394
0.00912326
0.00872068
0.00794951
0.00688043
0.00456222
0.00936233
0.00903776
0.00882071
0.00866673
0.00854476
0.00843623
0.00833301
0.0082332
0.00813808
0.00805051
0.00797451
0.0079158
0.00788486
0.00788775
0.00793021
0.00801748
0.00815279
0.00833516
0.00855718
0.00880241
0.00904165
0.00922723
0.00928521
0.00911934
0.00863178
0.00785073
0.00690221
0.00451736
0.00961756
0.00928488
0.00904397
0.00886754
0.00873159
0.00861971
0.00852342
0.0084395
0.00836779
0.0083098
0.00826824
0.00824721
0.00825494
0.00829442
0.00836868
0.00847942
0.00862566
0.00880164
0.00899585
0.00918918
0.00935155
0.00943639
0.009375
0.00908578
0.00850445
0.00771854
0.006896
0.00445656
0.00988622
0.00956859
0.00932894
0.00915092
0.00901815
0.00891663
0.00883768
0.00877707
0.00873357
0.00870769
0.00870107
0.00871649
0.00875951
0.0088298
0.0089272
0.0090495
0.00919116
0.00934119
0.00948486
0.00960153
0.00966131
0.00961987
0.00941641
0.00898996
0.00831484
0.00753869
0.00683745
0.00436852
0.0101741
0.00989798
0.00968166
0.00952243
0.00940888
0.00932999
0.00927774
0.00924736
0.00923674
0.00924536
0.00927373
0.00932369
0.00939584
0.00948619
0.0095907
0.00970313
0.00981432
0.00990871
0.00996999
0.00997785
0.00990479
0.00971146
0.00934928
0.00878404
0.00803235
0.0072918
0.00668251
0.00423386
0.0104994
0.0102937
0.0101268
0.0100077
0.00993159
0.00989009
0.00987527
0.00988162
0.00990607
0.00994692
0.0100031
0.010075
0.0101524
0.0102295
0.0102997
0.0103553
0.0103872
0.0103838
0.0103257
0.0101924
0.00996144
0.00960233
0.00908606
0.00840793
0.00762352
0.00695012
0.00639889
0.0040274
0.0109058
0.0108034
0.0107107
0.0106492
0.0106222
0.0106237
0.0106443
0.0106768
0.0107168
0.010761
0.0108067
0.0108487
0.0108728
0.0108741
0.0108475
0.0107882
0.0106897
0.0105418
0.0103278
0.0100341
0.00964378
0.0091397
0.00851744
0.00779678
0.00705551
0.00646448
0.00593877
0.00370997
0.0114803
0.0115109
0.0115019
0.0114837
0.0114708
0.0114605
0.0114462
0.0114238
0.0113918
0.0113488
0.0112926
0.0112111
0.0110999
0.010954
0.010771
0.0105505
0.0102897
0.0099835
0.00962337
0.00920103
0.0087102
0.00815091
0.00753869
0.00689839
0.00629257
0.00577823
0.00520634
0.00322358
0.0122056
0.0121855
0.0120737
0.0119264
0.0117684
0.0115913
0.011392
0.0111744
0.0109448
0.0107067
0.010455
0.0101879
0.00990669
0.00961046
0.0092978
0.0089676
0.0086185
0.0082492
0.00785899
0.00744874
0.00702205
0.00658575
0.00615023
0.00571458
0.00525862
0.00475392
0.00402407
0.00238026
0.0111344
0.0101262
0.0094945
0.00904266
0.00869706
0.00841632
0.00817731
0.00796618
0.00777334
0.00759184
0.00741987
0.00725812
0.00710027
0.00694101
0.00677563
0.00659975
0.00640887
0.00619814
0.00596197
0.00569366
0.00538479
0.00502446
0.0045985
0.00408357
0.00343712
0.00260728
0.00157706
0.000764804
0.00512553
0.00919212
0.00910897
0.00880371
0.00855333
0.00775709
0.00617009
0.00460818
0.00350645
0.00289972
0.00264993
0.002607
0.00546563
0.00982849
0.00947319
0.00883078
0.00807599
0.00686968
0.00525142
0.0039767
0.00321608
0.00289147
0.00285276
0.00297513
0.00573468
0.0101666
0.00950543
0.00851424
0.00740316
0.00602579
0.00457687
0.0036185
0.00315983
0.00306975
0.0031987
0.00345243
0.00595684
0.0102811
0.00931233
0.00803487
0.00672104
0.00534309
0.00414504
0.00348497
0.00327767
0.00336211
0.00360356
0.0039553
0.00612722
0.0102532
0.00899597
0.00751616
0.0061248
0.00485227
0.00392071
0.0035191
0.00349991
0.0036922
0.00400289
0.0044472
0.00620621
0.0101325
0.00863038
0.00702858
0.00564988
0.00453944
0.00385696
0.00365912
0.00375847
0.004006
0.0043759
0.00493042
0.00625081
0.00994514
0.00826158
0.00660539
0.00529859
0.00437274
0.00390292
0.00384564
0.00400358
0.00428539
0.00473334
0.00540238
0.0062791
0.00971329
0.00791575
0.00625675
0.005056
0.00431208
0.00400886
0.00403143
0.00421288
0.00454008
0.00508747
0.00582869
0.00629089
0.0094672
0.00760585
0.00597958
0.0048986
0.00431306
0.00413238
0.0041896
0.00438995
0.00478842
0.00543205
0.00615463
0.00629225
0.00922529
0.0073356
0.00576446
0.00480292
0.0043464
0.00424368
0.00431248
0.00454946
0.00504196
0.00574267
0.00633848
0.00629245
0.00899336
0.00710303
0.00559963
0.00474829
0.00438979
0.00432933
0.00441278
0.00471077
0.00529979
0.00599088
0.00637667
0.00629731
0.00877342
0.00690362
0.00547327
0.0047182
0.00443018
0.00439002
0.00449752
0.00488825
0.00555232
0.00615913
0.00630292
0.00630958
0.00856645
0.0067322
0.00537512
0.00470112
0.0044616
0.00442924
0.00458736
0.00508479
0.0057878
0.00624762
0.0061674
0.00633038
0.00837261
0.00658382
0.00529679
0.0046886
0.0044804
0.00446133
0.00469727
0.00530363
0.00599815
0.00627164
0.00601502
0.00635997
0.00819138
0.00645397
0.00523165
0.00467489
0.004483
0.00449104
0.00483637
0.00554096
0.00617852
0.00625281
0.00587489
0.00639813
0.00802176
0.00633858
0.00517411
0.004656
0.00447581
0.00453355
0.00500422
0.00578131
0.00632005
0.00621133
0.00576095
0.00644361
0.00785871
0.00622678
0.00511487
0.00462802
0.00446619
0.00459969
0.00519747
0.00600188
0.00642475
0.00616296
0.00567755
0.00649518
0.00769715
0.00611675
0.00505313
0.00459297
0.00446006
0.00468655
0.00540167
0.00620496
0.00650289
0.00611902
0.00562426
0.00655225
0.00753957
0.00600898
0.00498904
0.00455339
0.00445664
0.00479404
0.00560454
0.00639211
0.00656325
0.00608634
0.00559878
0.00661423
0.00738749
0.00590392
0.00492355
0.00451181
0.00445954
0.0049202
0.0058051
0.00656518
0.00661312
0.00606846
0.0055984
0.00668053
0.00724191
0.00580192
0.00485783
0.00447085
0.00447464
0.00505528
0.00600365
0.00672667
0.00665831
0.00606669
0.00562052
0.00675054
0.00710341
0.00570321
0.00479266
0.00443228
0.00450434
0.00519308
0.00620034
0.00687912
0.00670316
0.0060796
0.00566244
0.00682363
0.00697227
0.00560796
0.0047285
0.00439668
0.00454225
0.00533268
0.00639477
0.00702483
0.00675063
0.00610397
0.00572098
0.00689915
0.00684855
0.00551624
0.00466575
0.00436406
0.00458743
0.00547277
0.00658677
0.00716586
0.00680264
0.00613968
0.00579231
0.00697646
0.00673218
0.00542806
0.00460469
0.0043325
0.00463914
0.00561234
0.00677648
0.00730404
0.00686049
0.00618585
0.00586862
0.00705493
0.00662301
0.0053435
0.00454545
0.00430231
0.00469583
0.00575073
0.00696418
0.00744105
0.00692508
0.00624122
0.00594869
0.00713393
0.0065209
0.00526173
0.0044881
0.00427451
0.00475537
0.00588748
0.00715019
0.00757834
0.00699698
0.00630472
0.0060319
0.00721286
0.00642558
0.00518284
0.00443274
0.00424864
0.00481317
0.00602256
0.00733478
0.00771716
0.0070765
0.00637547
0.00611767
0.00729113
0.00633676
0.00510711
0.00437932
0.00422424
0.00486844
0.00615526
0.00751811
0.00785853
0.00716381
0.00645281
0.00620551
0.00736819
0.00625421
0.00503461
0.00432773
0.00420086
0.00492049
0.00628477
0.00770029
0.00800327
0.00725901
0.0065362
0.00629501
0.00744349
0.00617773
0.00496545
0.00427787
0.00417802
0.00496859
0.00641034
0.00788134
0.00815204
0.00736219
0.00662528
0.00638581
0.00751654
0.00610711
0.00489949
0.00422964
0.00415502
0.00501208
0.00653118
0.00806119
0.00830539
0.0074735
0.00671984
0.00647767
0.00758682
0.00604221
0.00483724
0.0041831
0.0041319
0.00505029
0.00664646
0.00823958
0.00846373
0.00759316
0.0068199
0.00657054
0.00765283
0.00598325
0.00477816
0.00413815
0.00410758
0.00508369
0.00675593
0.00841345
0.00862514
0.00772201
0.00692664
0.00666585
0.00771342
0.00592916
0.00472261
0.00409581
0.00408502
0.00511379
0.00685771
0.00857659
0.00878512
0.00786017
0.00704351
0.00676673
0.00776808
0.00587993
0.00467081
0.00405599
0.00406404