/*--------------------------------*- C++ -*----------------------------------*\
| =========                 |                                                 |
| \\      /  F ield         | OpenFOAM: The Open Source CFD Toolbox           |
|  \\    /   O peration     | Version:  v2012                                 |
|   \\  /    A nd           | Website:  www.openfoam.com                      |
|    \\/     M anipulation  |                                                 |
\*---------------------------------------------------------------------------*/
FoamFile
{
    version     2.0;
    format      ascii;
    class       volScalarField;
    location    "696";
    object      nut;
}
// * * * * * * * * * * * * * * * * * * * * * * * * * * * * * * * * * * * * * //

dimensions      [0 2 -1 0 0 0 0];


internalField   nonuniform List<scalar> 
6036
(
0.000182231
0.000180798
0.000179211
0.000177455
0.000175516
0.000173377
0.000171022
0.000168434
0.000165595
0.000162486
0.000159087
0.000155375
0.000151328
0.00014692
0.000142123
0.00013691
0.00013126
0.000125155
0.000118569
0.000111488
0.00019249
0.000197362
0.000202674
0.000208478
0.000214832
0.000221795
0.000229427
0.000237784
0.000246907
0.000256811
0.00026745
0.000278671
0.000290122
0.000301121
0.000310611
0.000317951
0.000324653
0.00033187
0.000339692
0.000348107
0.000317006
0.000319888
0.000322783
0.000325665
0.00032851
0.000331293
0.00033399
0.00033658
0.000339042
0.000341355
0.0003435
0.000345461
0.000347227
0.000348793
0.000350168
0.000351388
0.000352527
0.000353611
0.000354635
0.000355591
0.000341198
0.000342007
0.000342815
0.000343617
0.00034441
0.000345194
0.000345968
0.000346732
0.000347487
0.000348234
0.000348974
0.000349711
0.000350444
0.000351178
0.000351914
0.000352654
0.0003534
0.000354153
0.000354914
0.000355684
0.000344061
0.000344647
0.000345236
0.000345828
0.000346424
0.000347023
0.000347626
0.000348232
0.000348842
0.000349455
0.000350072
0.000350692
0.000351317
0.000351945
0.000352577
0.000353214
0.000353854
0.000354499
0.000355148
0.000355801
0.000344028
0.000344623
0.00034522
0.000345818
0.000346417
0.000347019
0.000347624
0.000348231
0.000348841
0.000349454
0.000350071
0.000350692
0.000351317
0.000351945
0.000352577
0.000353214
0.000353854
0.000354499
0.000355148
0.000355801
0.000340916
0.000341832
0.000342706
0.000343549
0.000344369
0.000345169
0.000345953
0.000346723
0.000347482
0.000348231
0.000348973
0.00034971
0.000350444
0.000351177
0.000351913
0.000352654
0.0003534
0.000354153
0.000354914
0.000355684
0.000315321
0.000318798
0.000322059
0.00032519
0.000328201
0.000331095
0.000333866
0.000336503
0.000338994
0.000341326
0.000343482
0.000345451
0.000347221
0.00034879
0.000350166
0.000351387
0.000352526
0.000353611
0.000354635
0.000355591
0.000192577
0.000197371
0.000202636
0.000208419
0.000214765
0.000221729
0.000229366
0.00023773
0.000246861
0.000256772
0.000267419
0.000278646
0.000290101
0.000301104
0.000310597
0.000317941
0.000324647
0.000331867
0.00033969
0.000348107
0.000182045
0.000180695
0.00017914
0.000177407
0.000175483
0.000173355
0.000171007
0.000168424
0.000165589
0.000162482
0.000159084
0.000155373
0.000151327
0.00014692
0.000142123
0.00013691
0.00013126
0.000125155
0.000118569
0.000111488
6.36046e-05
8.36689e-05
0.000105287
6.28725e-05
5.7723e-05
5.88611e-05
7.93209e-05
0.000100631
0.000122693
0.000144273
0.000165088
0.000184922
0.000187363
0.000188583
0.000189435
0.000189977
0.000190254
0.00019031
0.000190177
0.000189887
0.000189461
0.000188918
0.00018827
0.000187524
0.000186681
0.000185739
0.00018469
0.000183524
0.000139397
0.000109749
9.98868e-05
0.000100252
0.000110631
0.000125309
0.000139382
0.000155276
0.000171904
0.000175989
0.000172584
0.000169211
0.000166004
0.000163495
0.000161814
0.000160907
0.000160692
0.000161099
0.000162063
0.000163525
0.00016543
0.000167723
0.000170359
0.000173302
0.000176536
0.000180059
0.000183875
0.000188008
0.000137826
0.000130623
0.000135637
0.000151359
0.00016769
0.000175475
0.000176098
0.000179435
0.000186126
0.000197226
0.000213569
0.000229553
0.000237173
0.000245322
0.000253644
0.000261783
0.000269434
0.000276389
0.00028254
0.000287872
0.000292449
0.000296389
0.000299831
0.000302939
0.000305821
0.000308597
0.00031136
0.000314159
0.000185979
0.000194328
0.000205376
0.000209396
0.000209505
0.000191015
0.000179951
0.000177916
0.000183067
0.000195268
0.000214563
0.000241955
0.000279222
0.000313918
0.000319163
0.000323321
0.000326591
0.000329159
0.000331185
0.000332805
0.000334126
0.000335237
0.000336203
0.000337071
0.000337908
0.000338738
0.000339563
0.000340383
0.000224862
0.000219247
0.000223442
0.00023378
0.000207422
0.000181624
0.000170919
0.000170071
0.000176426
0.000189034
0.000207894
0.000233998
0.000269023
0.000315391
0.000337082
0.000337491
0.000337876
0.000338287
0.000338733
0.000339209
0.000339706
0.000340214
0.000340729
0.000341256
0.000341795
0.000342347
0.000342909
0.000343481
0.000233372
0.000235961
0.000247433
0.000230376
0.000190594
0.000171162
0.000163973
0.00016485
0.000171914
0.000184362
0.000202365
0.000227024
0.000259812
0.000302388
0.000340493
0.000339727
0.00033933
0.000339226
0.000339334
0.000339586
0.000339935
0.000340348
0.000340839
0.000341365
0.000341897
0.000342418
0.000342923
0.000343451
0.000247662
0.000258407
0.00026491
0.00021022
0.000181326
0.000167196
0.000162117
0.000163824
0.000171072
0.000183214
0.000200266
0.000223286
0.000253759
0.000292978
0.000328998
0.000327711
0.000327146
0.000327168
0.0003276
0.000328379
0.000329376
0.000330802
0.000332581
0.000334444
0.000336198
0.000337695
0.000338909
0.00033995
0.000267369
0.000282634
0.000245956
0.000206198
0.000185512
0.000176371
0.000175832
0.00018333
0.000199553
0.000225347
0.00026347
0.00028276
0.00027563
0.000270324
0.000266731
0.000264661
0.00026394
0.000264347
0.000265646
0.000267644
0.000270304
0.000274731
0.000280513
0.000287295
0.000294652
0.000301602
0.00030728
0.000311632
0.000289677
0.000303983
0.000259434
0.000238758
0.00023865
0.000259127
0.000288697
0.000273864
0.00026026
0.000248531
0.000238633
0.000230167
0.000222695
0.000215888
0.000209626
0.000203976
0.000199054
0.000195042
0.000192114
0.000190404
0.000188634
0.000185598
0.000183045
0.0001817
0.000181684
0.000182898
0.000185244
0.000188605
0.000314932
0.000327183
0.000332423
0.000333194
0.00033281
0.000334524
0.000340713
0.000352194
0.00036823
0.000387067
0.000406366
0.000423049
0.000434505
0.000439509
0.000437538
0.000428252
0.000411992
0.000389991
0.000362881
0.000331514
0.00029699
0.000260411
0.000231375
0.000210369
0.000196307
0.000187771
0.000183079
0.00018101
7.08328e-05
7.22629e-05
8.33499e-05
7.91948e-05
7.44979e-05
6.95923e-05
5.55518e-05
4.95302e-05
4.6835e-05
4.79753e-05
5.56213e-05
6.09514e-05
9.17972e-05
0.000189447
0.000212909
0.000210157
0.000187502
0.000156733
0.000129678
0.000111209
0.000112968
0.000168892
0.000190303
0.000197616
0.000115426
0.000231231
0.000274105
0.0002763
0.000256743
0.000221485
0.000184598
0.000155217
0.000196771
0.000263348
0.000204546
0.00015925
0.00013886
0.00028919
0.000353613
0.000351878
0.000318243
0.000271326
0.000212703
0.000221954
0.000281738
0.000244169
0.000208995
0.000190222
0.000148546
0.000364098
0.000445676
0.000428683
0.000365408
0.000308925
0.000308654
0.000344262
0.000314246
0.000280506
0.000261505
0.000244673
0.000157534
0.000445981
0.000525981
0.000469715
0.000391974
0.000370289
0.000395912
0.000408948
0.000371963
0.000327476
0.000275927
0.000245184
0.000166397
0.000518561
0.000569398
0.000493208
0.000442467
0.000443091
0.000456193
0.000436991
0.000378508
0.000314131
0.000269539
0.000249187
0.000175782
0.000559868
0.000592242
0.000531219
0.000501754
0.000498022
0.000479463
0.000427833
0.000358361
0.00030031
0.000268041
0.000259645
0.000184934
0.00058206
0.000606299
0.00052688
0.000469837
0.000515502
0.000474528
0.000405471
0.000337939
0.000292223
0.000273676
0.00027618
0.000193437
0.000595428
0.000552706
0.00045758
0.00042491
0.000486644
0.000454155
0.000381127
0.000323277
0.000292287
0.000287199
0.000298634
0.00034826
0.000361958
0.000372818
0.000385626
0.00040424
0.000430349
0.000463328
0.000500297
0.000537918
0.000572233
0.000599509
0.00061715
0.000623657
0.000618647
0.000602371
0.000573853
0.000530324
0.000496812
0.000468346
0.000441978
0.000414856
0.000385957
0.00035385
0.000317675
0.000267257
0.000185014
0.000112803
4.24916e-05
0.00038807
0.000406871
0.000428346
0.000456794
0.000493251
0.000535254
0.000577983
0.000615217
0.000641915
0.000654866
0.000654182
0.00064228
0.000623062
0.000601382
0.000588792
0.000584601
0.000585484
0.000581675
0.000568622
0.000549133
0.000522919
0.000489273
0.000447051
0.000341582
0.000255239
0.000207889
0.000195787
0.000100564
0.000430991
0.000457721
0.000491705
0.000533693
0.000579664
0.000622438
0.000654895
0.000673154
0.000678003
0.000674456
0.000669769
0.000670241
0.000678939
0.000693997
0.000709495
0.000718597
0.000715102
0.00070188
0.000679574
0.000648228
0.000607684
0.000557817
0.000498601
0.000396206
0.000299622
0.000239377
0.000207838
0.000106796
0.000475881
0.000513057
0.000558432
0.000606797
0.000649459
0.000679316
0.000695237
0.000703025
0.00071194
0.000729839
0.000759224
0.00079623
0.000832948
0.000861922
0.000879102
0.000883775
0.00087402
0.000852908
0.000820377
0.000776135
0.000720029
0.000652216
0.000573399
0.000454551
0.000353889
0.000279994
0.000211205
8.66903e-05
0.000523921
0.000571507
0.000622333
0.00066656
0.000697197
0.000716068
0.000733206
0.000760017
0.000802286
0.000857768
0.000918231
0.000973983
0.00101808
0.00104788
0.00106328
0.00106413
0.00104967
0.0010217
0.000979802
0.000923405
0.000852161
0.000766266
0.000666905
0.000538381
0.00041736
0.000320546
0.000228275
0.000109593
0.000575106
0.000628687
0.000676359
0.000710494
0.000734591
0.000761924
0.000805174
0.000868177
0.0009456
0.00102696
0.00110171
0.00116316
0.00120897
0.00123913
0.00125403
0.00125076
0.00123242
0.00119884
0.00114913
0.00108231
0.000997601
0.000894778
0.000774914
0.000638783
0.000489727
0.000361478
0.000244161
0.000136867
0.00062658
0.00067915
0.000718666
0.000748258
0.000783379
0.000838628
0.000917388
0.0010128
0.00111311
0.00120683
0.00128659
0.00134972
0.00139611
0.00142613
0.00143975
0.0014343
0.00141272
0.00137444
0.00131835
0.0012431
0.00114736
0.00103019
0.000891871
0.00073531
0.000568066
0.000403787
0.000260814
0.000148237
0.000674226
0.000720728
0.000755687
0.000795185
0.000856945
0.000946028
0.00105546
0.00117272
0.00128511
0.00138391
0.00146549
0.00152941
0.00157605
0.00160552
0.00161757
0.00161006
0.00158531
0.00154273
0.0014811
0.00139888
0.00129432
0.00116571
0.00101213
0.000835092
0.00064151
0.000447349
0.000278161
0.00015471
0.000715527
0.000756697
0.000797877
0.000860537
0.000954037
0.00107289
0.00120442
0.00133466
0.00145294
0.00155403
0.00163672
0.00170128
0.00174792
0.00177646
0.00178657
0.00177658
0.00174832
0.00170122
0.00163413
0.00154553
0.00143349
0.00129574
0.00113015
0.000936179
0.000718662
0.00049425
0.00029623
0.000160255
0.000751221
0.000793651
0.000852415
0.000943928
0.00106662
0.00120856
0.00135483
0.0014925
0.00161399
0.00171676
0.0018007
0.00186607
0.00191285
0.00194077
0.00194768
0.00193457
0.00190214
0.00184984
0.00177672
0.00168146
0.00156227
0.00141668
0.00124157
0.00103422
0.000796293
0.000543104
0.000314942
0.000165043
0.000784687
0.000837231
0.000920314
0.00104007
0.00118702
0.00134602
0.00150196
0.00164429
0.00176828
0.00187295
0.00195844
0.00202476
0.00207168
0.00209862
0.00210252
0.0020857
0.00204827
0.00198977
0.00190957
0.00180678
0.00168
0.00152689
0.00134378
0.00112601
0.000871593
0.000592508
0.000334112
0.0001692
0.000819811
0.000889621
0.00099868
0.00114348
0.00130991
0.00148141
0.00164411
0.00179014
0.00191686
0.00202395
0.0021114
0.00217898
0.00222608
0.0022517
0.00225287
0.00223171
0.00218832
0.00212247
0.00203395
0.00192243
0.00178713
0.00162618
0.00143575
0.00120974
0.000942554
0.000641241
0.000353528
0.000172825
0.000859145
0.000950017
0.00108379
0.00125008
0.00143208
0.00161307
0.00178123
0.00193108
0.00206115
0.00217128
0.00226131
0.00233059
0.00237795
0.00240214
0.0024002
0.00237394
0.00232356
0.00224914
0.00215099
0.00202946
0.00188455
0.00171508
0.00151747
0.00128473
0.00100795
0.000688319
0.000372973
0.000175996
0.000903417
0.00101634
0.00117259
0.00135725
0.00155192
0.0017407
0.00191407
0.00206831
0.00220249
0.00231642
0.00240965
0.00248087
0.0025285
0.00255098
0.00254531
0.00251308
0.00245464
0.00237047
0.00226143
0.00212868
0.00197309
0.00179436
0.00158945
0.00135098
0.00106719
0.000733003
0.000392244
0.000178778
0.000952085
0.00108649
0.00126298
0.00146348
0.00166888
0.00186475
0.00204366
0.00220301
0.00234213
0.00246056
0.0025573
0.00263053
0.00267824
0.00269849
0.00268835
0.00264923
0.00258168
0.00248661
0.00236557
0.00222052
0.00205334
0.0018647
0.00165235
0.00140886
0.00112012
0.000774791
0.000411159
0.000181222
0.00100411
0.00115885
0.00135364
0.00156807
0.00178308
0.001986
0.00217106
0.00233632
0.00248099
0.00260426
0.00270462
0.00277974
0.00282712
0.00284439
0.0028289
0.00278193
0.00270426
0.0025973
0.00246327
0.00230506
0.00212559
0.00192665
0.00170683
0.00145896
0.00116688
0.000813388
0.000429564
0.000183372
0.00105847
0.00123234
0.00144382
0.00167084
0.00189494
0.00210523
0.00229709
0.00246884
0.00261941
0.00274758
0.00285142
0.00292813
0.00297479
0.00298791
0.00296611
0.00291037
0.00282169
0.00270196
0.00255413
0.00238207
0.00218992
0.00198058
0.00174423
0.00150191
0.00120783
0.000848659
0.000447328
0.000185265
0.00111437
0.00130625
0.00153314
0.00177187
0.00200497
0.00222304
0.00242222
0.00260078
0.00275725
0.00289005
0.00299689
0.0030746
0.00311991
0.00312782
0.00309884
0.00303351
0.00293305
0.0027998
0.0026375
0.00245116
0.00222081
0.00195888
0.00173354
0.00152965
0.00124336
0.000880577
0.000464366
0.00018693
0.00117121
0.00138013
0.00162143
0.00187133
0.0021135
0.0023397
0.00254648
0.00273184
0.00289387
0.0030307
0.00313975
0.00321742
0.00326007
0.00326259
0.00322577
0.00315021
0.00303734
0.00288997
0.00271269
0.0024505
0.00216677
0.00192477
0.00171538
0.00152676
0.001274
0.000909169
0.000480679
0.000188394
0.00122857
0.00145362
0.00170844
0.00196905
0.00222031
0.00245485
0.00266929
0.00286117
0.00302817
0.00316822
0.00327853
0.0033552
0.00339425
0.0033908
0.00334559
0.00325932
0.00313357
0.00297162
0.00268692
0.00237623
0.00211322
0.00188761
0.00169206
0.00151803
0.00130036
0.000934622
0.000496373
0.000189678
0.00128601
0.00152616
0.00179334
0.00206382
0.002324
0.00256707
0.0027893
0.00298732
0.00315861
0.00330098
0.00341161
0.00348636
0.00352102
0.00351102
0.00345702
0.00335973
0.00322083
0.00293848
0.00259746
0.00230682
0.00206008
0.00184793
0.00166531
0.00150515
0.00132293
0.000957294
0.000511454
0.000190798
0.00134292
0.00159647
0.00185317
0.00205515
0.00230298
0.0025887
0.0028984
0.00310816
0.00328324
0.00342715
0.00353724
0.00360926
0.00363886
0.00362187
0.00355886
0.00345048
0.00320283
0.00284041
0.0025164
0.00224036
0.00200707
0.00180803
0.00163684
0.00148886
0.00133885
0.00097741
0.000525683
0.000191771
0.00139807
0.0016196
0.00178391
0.0019885
0.00223715
0.0025201
0.0028285
0.00314752
0.00339993
0.0035447
0.00365361
0.00372225
0.00374628
0.00372206
0.00365006
0.00345849
0.00310235
0.00275208
0.00243998
0.0021758
0.0019558
0.001769
0.00160813
0.00147041
0.00133203
0.000995088
0.000538979
0.000192611
0.00141239
0.00156083
0.0017267
0.00193403
0.00218065
0.00245973
0.00276249
0.00307909
0.00336995
0.00362249
0.00375886
0.00382371
0.00384189
0.00381044
0.00366754
0.0033584
0.00300926
0.00266867
0.00236627
0.00211426
0.00190677
0.00173147
0.00157989
0.00145076
0.0013229
0.00101059
0.000551393
0.000193331
0.00136918
0.00151375
0.00168263
0.00188973
0.00213364
0.00240886
0.00270632
0.00301403
0.00329761
0.00354732
0.00375205
0.00387772
0.00389268
0.00378503
0.00356443
0.00326026
0.00291997
0.00258793
0.00229675
0.00205628
0.00186042
0.00169589
0.00155275
0.0014306
0.00131197
0.00102409
0.000562948
0.00019394
0.00133428
0.00147785
0.00164789
0.00185436
0.00209624
0.00236765
0.00265985
0.00295975
0.00323409
0.00347086
0.0036637
0.00377856
0.00378761
0.00367942
0.00346264
0.00316658
0.00283444
0.00251319
0.00223261
0.00200249
0.00181719
0.00166258
0.00152705
0.0014106
0.0012997
0.00103572
0.000573659
0.000194449
0.00130775
0.00145056
0.00162117
0.00182771
0.00206848
0.00233728
0.00262599
0.00292091
0.00318909
0.0034169
0.00359626
0.00369834
0.00369956
0.00358931
0.00337437
0.00308267
0.00275862
0.0024464
0.00217454
0.00195335
0.0017774
0.00163176
0.00150308
0.00139131
0.00128678
0.00104565
0.000583576
0.000194867
0.00128787
0.00143041
0.00160199
0.00180935
0.00205009
0.00231833
0.00260644
0.00290011
0.00316613
0.00338974
0.00356145
0.00365383
0.00364425
0.00352459
0.00330452
0.00301314
0.00269364
0.0023876
0.00212264
0.00190897
0.00174116
0.00160352
0.00148097
0.00137304
0.00127371
0.001054
0.000592742
0.0001952
0.00127346
0.00141648
0.00158967
0.00179861
0.00204061
0.00231039
0.00260062
0.00289609
0.00316256
0.00338359
0.00354848
0.00363054
0.0036085
0.00347707
0.00324906
0.00295518
0.00263755
0.00233586
0.00207652
0.00186929
0.00170853
0.00157792
0.00146081
0.00135596
0.00126076
0.00106087
0.000601155
0.000195456
0.00126379
0.00140804
0.00158344
0.00179477
0.00203936
0.00231246
0.00260676
0.00290584
0.00317364
0.00339165
0.0035484
0.00361854
0.00358296
0.00343913
0.00320255
0.00290522
0.00258847
0.00229033
0.00203589
0.00183428
0.00167958
0.00155502
0.00144266
0.0013402
0.00124815
0.00106634
0.000608808
0.000195641
0.0012583
0.00140444
0.00158265
0.00179719
0.00204555
0.00232336
0.00262308
0.0029267
0.00319574
0.00340952
0.00355643
0.00361323
0.00356347
0.00340731
0.00316243
0.00286172
0.00254569
0.00225081
0.00200082
0.00180409
0.00165444
0.0015349
0.00142652
0.00132583
0.00123606
0.00107047
0.000615684
0.000195761
0.00125649
0.00140515
0.00158676
0.0018053
0.00205849
0.00234214
0.00264826
0.00295691
0.00322665
0.0034347
0.00357013
0.00361251
0.00354845
0.00338057
0.0031282
0.00282463
0.00250947
0.00221769
0.00197168
0.00177899
0.0016333
0.00151766
0.00141242
0.00131283
0.00122451
0.00107329
0.000621764
0.000195822
0.001258
0.00140979
0.00159539
0.00181873
0.00207777
0.00236812
0.0026813
0.00299515
0.00326474
0.00346543
0.00358785
0.00361524
0.00353748
0.00335924
0.00310068
0.00279502
0.0024809
0.0021919
0.00194913
0.00175941
0.00161643
0.00150341
0.00140037
0.00130122
0.00121349
0.00107481
0.000627007
0.00019583
0.00126281
0.00141836
0.0016085
0.00183706
0.00210231
0.00240015
0.0027212
0.00304052
0.0033092
0.00350111
0.00360967
0.00362256
0.00353283
0.00334623
0.00308291
0.00277555
0.0024619
0.0021745
0.00193356
0.00174543
0.00160387
0.00149229
0.00139045
0.00129102
0.001203
0.00107504
0.000631335
0.000195793
0.00127099
0.00143055
0.00162548
0.00185976
0.00213202
0.00243851
0.00276869
0.00309432
0.00336174
0.00354407
0.00363915
0.00363973
0.00354111
0.00334836
0.00308063
0.00277035
0.00245508
0.00216691
0.0019256
0.00173724
0.00159565
0.00148433
0.00138279
0.00128235
0.00119292
0.00107385
0.000634712
0.000195716
0.0012823
0.00144612
0.0016462
0.00188686
0.00216739
0.00248463
0.00282695
0.0031623
0.00343079
0.00360622
0.00369118
0.00368278
0.00357678
0.00337729
0.00310198
0.00278424
0.00246283
0.00217014
0.0019256
0.00173496
0.00159181
0.00147955
0.00137741
0.00127528
0.00118364
0.00107114
0.000636965
0.000195603
0.0012965
0.00146487
0.0016706
0.00191861
0.0022094
0.00254115
0.00290185
0.00325429
0.00353345
0.00371586
0.00380013
0.00378236
0.00365923
0.0034434
0.00315258
0.0028199
0.00248594
0.00218415
0.0019334
0.00173848
0.00159236
0.00147801
0.00137436
0.00126985
0.0011754
0.0010673
0.00063866
0.00019544
0.0013134
0.00148663
0.00169859
0.00195516
0.00225876
0.00261023
0.00299631
0.00336918
0.00367705
0.00388151
0.00397248
0.00394167
0.00379337
0.00354408
0.0032273
0.00287432
0.0025229
0.00220812
0.0019486
0.00174774
0.00159737
0.00147981
0.0013737
0.00126614
0.00116836
0.00106225
0.000639772
0.000195232
0.00133271
0.00151108
0.00172981
0.00199609
0.00231498
0.00269052
0.00310164
0.00350581
0.00381476
0.00390365
0.00395006
0.00395696
0.00392465
0.00367171
0.00331652
0.00294006
0.00257127
0.00224173
0.00197137
0.00176297
0.00160709
0.00148513
0.00137555
0.00126419
0.00116241
0.00105591
0.00064025
0.000194981
0.00135413
0.00153773
0.00176349
0.00204012
0.00237664
0.00277739
0.00321556
0.0036118
0.00373877
0.00382191
0.00386375
0.00386677
0.00383249
0.00376127
0.00343046
0.0030183
0.00263025
0.00228589
0.00200287
0.00178496
0.001622
0.00149428
0.00138006
0.00126397
0.00115724
0.00104815
0.000640047
0.000194692
0.00137727
0.0015659
0.00179839
0.00208589
0.00244085
0.00285912
0.0033435
0.00353028
0.0036486
0.00372524
0.00376249
0.00376217
0.00372571
0.00365514
0.00355166
0.00312837
0.00270484
0.0023419
0.00204458
0.0018149
0.00164281
0.00150766
0.00138747
0.00126555
0.00115303
0.00103883
0.000639091
0.000194366
0.00140174
0.00159473
0.00183354
0.00213211
0.00249642
0.00295474
0.00328535
0.00343606
0.00354549
0.00361536
0.00364771
0.00364443
0.00360663
0.00353685
0.00343763
0.00327499
0.00281083
0.00241356
0.00209776
0.00185402
0.00167039
0.00152577
0.00139805
0.0012691
0.00115009
0.00102779
0.000637297
0.000194009
0.00142708
0.00162364
0.00186789
0.00216621
0.00255638
0.00301094
0.00319066
0.00333029
0.00343087
0.00349398
0.00352154
0.00351553
0.00347725
0.00340912
0.00331439
0.003196
0.00295094
0.00251178
0.00216536
0.00190352
0.00170559
0.00154916
0.00141207
0.00127472
0.00114836
0.00101483
0.000634564
0.000193625
0.00145302
0.00165211
0.00188812
0.00219704
0.00262485
0.00291968
0.00308574
0.00321433
0.00330623
0.00336286
0.00338607
0.00337788
0.00333989
0.00327456
0.0031852
0.00307542
0.00294851
0.00263934
0.00225321
0.00196494
0.00174895
0.00157829
0.00142983
0.00128253
0.00114785
0.00099971
0.000630768
0.000193215
0.00147981
0.00166742
0.00189707
0.00222682
0.00263127
0.00281891
0.00297174
0.00308958
0.00317315
0.00322381
0.00324336
0.00323388
0.00319711
0.00313568
0.00305287
0.00295234
0.00283781
0.002712
0.00236336
0.00204011
0.00180083
0.00161344
0.00145156
0.00129259
0.00114848
0.000982158
0.000625761
0.000192783
0.00149795
0.00166237
0.00190403
0.00225515
0.00253864
0.0027104
0.00285016
0.00295756
0.00303328
0.00307865
0.00309543
0.00308573
0.00305137
0.00299495
0.00291978
0.00282936
0.00272714
0.00261579
0.00247932
0.00212803
0.00186167
0.00165474
0.00147725
0.00130482
0.00114993
0.000961843
0.00061936
0.000192329
0.0014812
0.00165593
0.00190695
0.00225621
0.00243947
0.00259563
0.00272256
0.00281992
0.00288838
0.00292926
0.00294429
0.00293554
0.0029048
0.00285461
0.00278805
0.00270838
0.00261861
0.00252065
0.00241434
0.0022161
0.0019306
0.00170199
0.00150646
0.00131878
0.00115142
0.000938369
0.000611349
0.000191851
0.00146544
0.00164946
0.00190392
0.0021713
0.0023359
0.00247646
0.00259078
0.00267852
0.00274037
0.00277762
0.00279193
0.00278528
0.00275932
0.00271642
0.00265933
0.00259085
0.00251336
0.00242792
0.00233361
0.00222641
0.00199814
0.00175299
0.00153798
0.00133333
0.00115144
0.000911264
0.00060146
0.000191343
0.00145179
0.00164106
0.00189334
0.00208375
0.0022299
0.00235495
0.00245691
0.00253551
0.00259142
0.00262586
0.0026404
0.00263685
0.00261662
0.00258181
0.00253473
0.00247754
0.00241183
0.00233786
0.00225381
0.00215536
0.00203528
0.00180071
0.00156904
0.00134628
0.00114728
0.000879975
0.00058937
0.00019079
0.00143915
0.00162974
0.00185411
0.00199583
0.00212367
0.00223344
0.0023234
0.00239336
0.00244396
0.00247633
0.00249185
0.00249212
0.00247822
0.0024519
0.00241488
0.00236862
0.0023138
0.0022498
0.00217413
0.00208213
0.00196689
0.00181956
0.00159195
0.0013529
0.00112623
0.000843874
0.000574684
0.000190168
0.0014255
0.00161407
0.00178773
0.00190945
0.00201952
0.00211449
0.00219297
0.00225485
0.00230072
0.00233155
0.00234851
0.00235291
0.00234545
0.00232743
0.00229993
0.00226355
0.0022181
0.00216215
0.0020927
0.00200499
0.00189244
0.0017471
0.00156112
0.00133195
0.00106935
0.000802337
0.000556916
0.00018943
0.00140691
0.00159047
0.0017232
0.0018263
0.00191966
0.00200073
0.00206847
0.00212288
0.00216446
0.00219401
0.00221245
0.00222078
0.00221923
0.00220861
0.00218923
0.00216087
0.00212253
0.00207216
0.00200651
0.00192087
0.00180922
0.00166435
0.00147994
0.00125547
0.0010034
0.000754807
0.000535431
0.000188495
0.00137573
0.00154958
0.00166129
0.00174769
0.00182593
0.00189436
0.00195232
0.00199986
0.0020374
0.00206557
0.00208504
0.00209647
0.0020995
0.00209436
0.00208064
0.00205742
0.00202314
0.00197543
0.00191098
0.00182535
0.00171288
0.00156751
0.00138437
0.00116583
0.000927183
0.000700523
0.000509343
0.00018722
0.00131945
0.00147704
0.00160016
0.00167412
0.00173916
0.00179641
0.00184552
0.00188662
0.00192006
0.00194626
0.00196568
0.00197855
0.0019836
0.00198065
0.00196884
0.00194695
0.00191319
0.00186511
0.00179942
0.0017119
0.00159744
0.00145078
0.00126997
0.00106001
0.000839107
0.000638751
0.000477429
0.000185358
0.00122562
0.00136363
0.00145928
0.00151858
0.00155692
0.00158685
0.0016151
0.00164212
0.00166544
0.00168387
0.00169805
0.00171008
0.00172158
0.00173344
0.00174618
0.00175958
0.00177087
0.00173071
0.00166194
0.00157121
0.00145417
0.00130717
0.00113072
0.000934801
0.00073805
0.000569123
0.000407526
0.000169733
0.00108736
0.00120982
0.00128912
0.00132867
0.0013436
0.00135013
0.00135894
0.00137157
0.00138548
0.00139941
0.0014139
0.00143069
0.00144959
0.00147029
0.00149165
0.00151099
0.00152478
0.00152805
0.00148409
0.00138984
0.00127142
0.00112772
0.000962337
0.000788116
0.000624219
0.000491808
0.00033123
0.000137836
0.000912133
0.00102318
0.0011037
0.00114724
0.00116057
0.00116423
0.00117243
0.00118728
0.00120632
0.00122798
0.00125172
0.00127691
0.00130154
0.00132369
0.00134122
0.00135132
0.00135078
0.00132462
0.00124611
0.00115007
0.00103588
0.00090511
0.0007636
0.000623429
0.000500482
0.000386186
0.000270743
0.000111789
0.000730485
0.000822142
0.000897341
0.000955386
0.000992363
0.00102258
0.00105512
0.00108848
0.00112049
0.00115157
0.00118125
0.00120731
0.0012273
0.0012121
0.00116987
0.00111994
0.00106196
0.000995336
0.000919437
0.000834352
0.000741136
0.000642438
0.000543293
0.000451049
0.000374408
0.000279815
0.000229672
0.000131399
0.000622972
0.000729989
0.000834176
0.000907884
0.000951371
0.000945417
0.000920905
0.000896756
0.000872968
0.000849404
0.000823005
0.000792386
0.000758638
0.000722403
0.000683955
0.000643537
0.000601319
0.000557436
0.000512097
0.000465698
0.000418937
0.000372885
0.000329122
0.000289541
0.000231568
0.000184036
0.000191442
0.000136714
0.000216162
0.000239967
0.000232353
0.00022675
0.000222369
0.000218746
0.000215613
0.000212807
0.000210212
0.00020774
0.00020537
0.000203116
0.000200891
0.000198622
0.000196238
0.000193669
0.000190843
0.000187674
0.000184057
0.000179859
0.000174903
0.000168937
0.0001616
0.000123625
8.7287e-05
8.97187e-05
9.44124e-05
7.08749e-05
0.000200805
0.000543757
0.000479146
0.00040121
0.000394684
0.000471797
0.000428027
0.000360735
0.000317472
0.00030288
0.000311008
0.000329771
0.00020737
0.000487957
0.000413567
0.000361434
0.000377116
0.000472213
0.000404916
0.000349317
0.000322895
0.000324462
0.000343534
0.000367149
0.00021242
0.000431473
0.000366794
0.000336471
0.000369421
0.000455505
0.000389046
0.000348602
0.000339568
0.000354898
0.000380859
0.000406829
0.000216502
0.000388612
0.000337091
0.000322809
0.000368842
0.000437589
0.000382364
0.000358601
0.000365155
0.000389618
0.000418345
0.000446027
0.00021958
0.000359054
0.000320378
0.000318155
0.000372908
0.000426461
0.000385136
0.000377418
0.000395448
0.000424092
0.000453747
0.000485221
0.000171695
0.000342643
0.000313661
0.000320659
0.000378972
0.000422809
0.000396141
0.000401678
0.000426219
0.000456006
0.000487783
0.000526445
0.000139999
0.000337654
0.000315097
0.000328757
0.00038443
0.000426088
0.000413005
0.000427706
0.000454824
0.000485543
0.000522522
0.000570584
0.000139717
0.000342389
0.000322884
0.000340834
0.000387558
0.000428282
0.000432855
0.000452671
0.000480586
0.000514318
0.000559459
0.000616266
0.000150141
0.000351627
0.000335222
0.000355134
0.000388428
0.00041142
0.000453098
0.000475179
0.00050438
0.000544056
0.000598574
0.000660749
0.000159853
0.000363992
0.000351275
0.000370455
0.000388959
0.000404304
0.000469763
0.000495075
0.000527563
0.000575743
0.000638581
0.000701637
0.000170283
0.00038046
0.000370857
0.000386507
0.00039207
0.000410951
0.000488615
0.000513436
0.000551604
0.000609408
0.000677797
0.000738112
0.000181328
0.00040064
0.000393755
0.000404133
0.000400971
0.000431243
0.000503327
0.000530866
0.000577535
0.000644445
0.000714963
0.000771094
0.000192417
0.000423538
0.000419759
0.000424441
0.000416134
0.000462812
0.000516359
0.000548823
0.000605547
0.000680049
0.000749619
0.00080248
0.0002033
0.000448399
0.000448702
0.000448299
0.000440547
0.000506
0.000528699
0.000568389
0.000635816
0.000715563
0.00078205
0.00083416
0.000213899
0.00047475
0.000480817
0.00047713
0.000475908
0.000515143
0.000540729
0.000590191
0.000667997
0.000750406
0.000812907
0.00086737
0.000224109
0.000502309
0.000516687
0.00050881
0.000508082
0.000523237
0.000553484
0.000614046
0.000674523
0.000754451
0.000842863
0.000902592
0.000225186
0.000519496
0.000525378
0.000512522
0.000513789
0.000530796
0.000567698
0.000639365
0.000627965
0.000743644
0.000872435
0.000939789
0.000226086
0.00051885
0.000527085
0.000515594
0.000518595
0.000538228
0.000583029
0.000606604
0.000600811
0.00073956
0.000901981
0.000978672
0.000227079
0.000517671
0.000528289
0.000518069
0.000522684
0.000545497
0.000599303
0.000555813
0.00058661
0.000739964
0.000931698
0.00101888
0.000228151
0.000516081
0.000529072
0.000520036
0.000526251
0.000552852
0.000616288
0.000524923
0.000580517
0.000743068
0.000961646
0.00106005
0.000229293
0.00051418
0.000529507
0.00052159
0.000529486
0.000560645
0.000586763
0.000505756
0.000579528
0.000747597
0.000991779
0.00110187
0.000230493
0.000512045
0.000529653
0.000522807
0.000532523
0.000569008
0.000540724
0.000494791
0.000582014
0.000752842
0.00101089
0.00114401
0.000231739
0.000509737
0.000529559
0.000523741
0.000535427
0.000577509
0.000509319
0.000490116
0.000587099
0.000758639
0.00100625
0.00118603
0.00023302
0.000507304
0.000529267