/*--------------------------------*- C++ -*----------------------------------*\
| =========                 |                                                 |
| \\      /  F ield         | OpenFOAM: The Open Source CFD Toolbox           |
|  \\    /   O peration     | Version:  v2012                                 |
|   \\  /    A nd           | Website:  www.openfoam.com                      |
|    \\/     M anipulation  |                                                 |
\*---------------------------------------------------------------------------*/
FoamFile
{
    version     2.0;
    format      ascii;
    class       volScalarField;
    location    "696";
    object      omega;
}
// * * * * * * * * * * * * * * * * * * * * * * * * * * * * * * * * * * * * * //

dimensions      [0 0 -1 0 0 0 0];


internalField   nonuniform List<scalar> 
6036
(
36.2062
35.9226
35.6085
35.261
34.8772
34.454
33.9881
33.4761
32.9145
32.2994
31.6269
30.8929
30.0926
29.2211
28.2729
27.2425
26.1262
24.9202
23.62
22.2228
10.9739
10.7055
10.4225
10.1256
9.81572
9.49431
9.16309
8.82429
8.48084
8.1367
7.79716
7.4697
7.16504
6.89878
6.69089
6.54895
6.43678
6.33062
6.22977
6.13542
5.47988
5.48026
5.48128
5.48342
5.48722
5.49319
5.50181
5.51354
5.52882
5.54807
5.5717
5.6001
5.63359
5.67239
5.71652
5.76546
5.81804
5.87373
5.93262
5.99479
4.9848
5.02619
5.0686
5.11212
5.15683
5.20278
5.25004
5.29863
5.3486
5.39997
5.45276
5.50698
5.56264
5.61975
5.6783
5.73829
5.79974
5.86265
5.92707
5.99301
4.93472
4.98003
5.02632
5.07361
5.12192
5.17126
5.22167
5.27319
5.32584
5.37965
5.43468
5.49094
5.54849
5.60737
5.66761
5.72927
5.7924
5.85704
5.92326
5.99111
4.9351
4.98027
5.02647
5.0737
5.12197
5.17129
5.22169
5.2732
5.32584
5.37966
5.43468
5.49094
5.54849
5.60737
5.66761
5.72927
5.7924
5.85704
5.92326
5.99111
4.98956
5.0291
5.07038
5.1132
5.15747
5.20316
5.25026
5.29876
5.34867
5.40001
5.45278
5.50699
5.56265
5.61975
5.6783
5.73829
5.79974
5.86265
5.92707
5.99301
5.51706
5.5039
5.49679
5.49352
5.49377
5.49737
5.50442
5.51515
5.5298
5.54866
5.57205
5.6003
5.6337
5.67245
5.71656
5.76548
5.81805
5.87374
5.93262
5.99479
11.0547
10.7596
10.4605
10.1518
9.83376
9.50659
9.1714
8.8299
8.48464
8.13925
7.79887
7.47084
7.1658
6.8993
6.69126
6.54919
6.43691
6.33069
6.2298
6.13543
36.1693
35.9021
35.5945
35.2514
34.8707
34.4496
33.9851
33.4741
32.9131
32.2985
31.6264
30.8925
30.0924
29.221
28.2728
27.2424
26.1262
24.9202
23.62
22.2228
12.8123
16.7439
22.5384
26.5201
29.4719
31.5985
33.1493
34.3144
35.2133
35.9167
36.4675
36.8945
37.2219
37.4633
37.632
37.7392
37.7941
37.8051
37.7789
37.7214
37.6371
37.5297
37.4014
37.2538
37.0869
36.9004
36.6927
36.4621
27.5182
29.2219
29.0224
27.6399
25.677
23.6882
21.8401
20.2104
18.8756
17.7978
16.9308
16.2382
15.6747
15.1783
14.7249
14.3113
13.9368
13.6
13.2976
13.0254
12.7781
12.5493
12.3329
12.1221
11.9108
11.6938
11.467
11.2275
26.5471
24.9256
22.5399
19.9311
17.4169
15.1684
13.2525
11.6687
10.3856
9.34847
8.51051
7.83355
7.2853
6.84102
6.48472
6.20318
5.98508
5.82
5.69851
5.6122
5.55386
5.51701
5.49585
5.48507
5.48047
5.47923
5.47932
5.47964
21.7492
19.1448
16.5033
14.0456
11.8918
10.1008
8.67502
7.57208
6.73396
6.10475
5.63889
5.29965
5.05784
4.89055
4.77976
4.7117
4.6751
4.66133
4.66388
4.678
4.70018
4.72795
4.75959
4.79404
4.83002
4.8671
4.90526
4.94449
17.0318
14.4882
12.1885
10.2214
8.62538
7.39096
6.4743
5.81169
5.34193
5.0152
4.7936
4.64859
4.55895
4.50886
4.48669
4.48426
4.49556
4.51626
4.54334
4.57476
4.60916
4.64567
4.68375
4.72301
4.76332
4.80466
4.84703
4.89039
13.3254
11.1657
9.35752
7.92208
6.83459
6.04725
5.49572
5.11657
4.85979
4.68925
4.57951
4.51276
4.47663
4.46227
4.46317
4.47474
4.49408
4.51893
4.54772
4.57939
4.61328
4.649
4.68562
4.7235
4.76293
4.80406
4.84687
4.89073
10.647
8.94969
7.62643
6.64277
5.94511
5.47048
5.15499
4.94803
4.8152
4.73363
4.6875
4.66525
4.65949
4.66523
4.67804
4.6948
4.71427
4.7353
4.75668
4.7788
4.80129
4.81896
4.8324
4.84617
4.86347
4.88692
4.91703
4.95194
8.8428
7.60173
6.7068
6.10055
5.72245
5.5107
5.41362
5.39517
5.43456
5.51608
5.62526
5.74718
5.87129
5.98812
6.09002
6.17195
6.23067
6.2663
6.28058
6.27633
6.25261
6.16409
6.0395
5.90115
5.76189
5.64854
5.57374
5.5363
7.79956
7.01107
6.54645
6.35305
6.38158
6.59197
6.95937
7.46699
8.10038
8.83107
9.62219
10.4313
11.2082
11.9063
12.4946
12.9546
13.2775
13.4682
13.5406
13.5229
13.3956
13.1621
12.8772
12.563
12.225
11.8903
11.5619
11.2678
7.44952
7.12957
7.13325
7.42241
7.97237
8.77373
9.82524
11.1179
12.6206
14.2955
16.0934
17.9368
19.7518
21.4999
23.1501
24.653
25.9569
27.02
27.765
28.1089
28.1186
27.8654
27.8891
28.3117
29.1735
30.4593
32.1186
34.1029
14.2257
16.713
16.6813
15.8653
14.9439
13.9829
12.8122
11.2902
9.55505
9.77512
11.2568
12.2945
14.4268
12.6555
10.9201
9.71534
9.30504
9.46667
9.66562
9.36151
8.31852
8.16479
10.6576
21.2984
16.2605
12.3845
9.98521
8.60807
8.00307
8.08315
8.51035
8.85287
10.3035
16.1428
22.9539
26.1405
17.6818
12.0261
9.18673
7.65361
7.12961
7.43446
8.35353
10.85
16.7003
22.3134
24.3208
23.7355
18.9072
11.7271
8.68024
6.98097
6.76327
7.9907
10.6688
15.4671
20.7022
22.6603
21.7557
19.5961
20.0447
11.5901
8.64564
7.21991
7.96866
10.2942
14.1516
18.5958
20.9914
20.3954
18.2626
15.7514
21.1668
11.6858
9.21749
8.77406
10.2086
13.1445
16.7326
19.2255
19.2795
17.4594
15.0427
12.7019
22.3551
12.2611
10.4222
10.7281
12.5867
15.336
17.6216
18.1846
16.9079
14.7126
12.4502
10.4635
23.5143
13.1748
11.9955
12.6534
14.465
16.3538
17.1571
16.4168
14.5892
12.4597
10.527
8.96316
24.5914
14.2333
13.6191
14.246
15.5242
16.3057
15.9496
14.5354
12.626
10.7663
9.24221
8.13956
7.6879
7.81748
8.25438
8.97405
9.96218
11.1967
12.6287
14.1655
15.7005
17.1108
18.2765
19.106
19.5397
19.5484
19.1213
18.2403
16.8821
15.6647
14.7952
14.3464
14.1888
14.2237
14.4895
14.9829
15.5218
16.1869
16.8968
14.6324
8.24927
8.69476
9.41092
10.3729
11.5301
12.781
13.9766
14.9357
15.5099
15.6059
15.2228
14.429
13.3457
12.1287
11.0492
10.203
9.67823
9.609
9.70013
9.94621
10.3138
10.7857
11.3531
11.9938
12.6463
13.175
13.3279
12.844
8.85728
9.48061
10.3247
11.3156
12.3082
13.0999
13.4957
13.3853
12.7821
11.8124
10.6691
9.54456
8.59584
7.92379
7.55973
7.46246
7.59126
7.82374
8.13219
8.51698
8.98152
9.53463
10.1877
10.9506
11.8187
12.7364
13.5526
13.6302
9.35965
10.0585
10.8777
11.6415
12.1198
12.1279
11.6214
10.7155
9.61791
8.53829
7.62958
6.97175
6.57911
6.41562
6.42295
6.54547
6.75055
7.01101
7.32891
7.71274
8.17594
8.73768
9.42431
10.2716
11.3231
12.6216
14.1804
15.306
9.71363
10.3826
10.9828
11.2673
11.0616
10.3732
9.37889
8.3106
7.35102
6.60334
6.09887
5.81672
5.70851
5.72062
5.81177
5.96016
6.15772
6.40046
6.69493
7.0523
7.48923
8.03056
8.71362
9.59522
10.7611
12.3279
14.4294
16.7398
9.90325
10.3993
10.5933
10.3029
9.55459
8.5542
7.53633
6.65905
5.99509
5.55479
5.30747
5.20422
5.19817
5.25552
5.35786
5.50477
5.68855
5.9125
6.18387
6.51367
6.91868
7.42527
8.07612
8.94193
10.1415
11.8638
14.3872
17.9021
9.8961
10.0745
9.79015
9.05194
8.07175
7.08842
6.24999
5.61675
5.19206
4.94431
4.82739
4.79836
4.82671
4.89549
4.99808
5.13794
5.31091
5.52087
5.77431
6.08095
6.45597
6.92433
7.52912
8.34743
9.51955
11.2976
14.1314
18.8681
9.6642
9.45225
8.77477
7.82705
6.8594
6.02665
5.38887
4.9503
4.68209
4.54114
4.48648
4.48829
4.52925
4.60167
4.70367
4.83887
5.00535
5.20656
5.44799
5.73772
6.08847
6.52205
7.0785
7.83513
8.94498
10.7121
13.7657
19.6872
9.22127
8.65447
7.75753
6.79406
5.94348
5.27652
4.80321
4.49982
4.32639
4.24279
4.21836
4.23419
4.28103
4.35565
4.45795
4.59122
4.7547
4.95149
5.18617
5.46522
5.79873
6.20457
6.7178
7.41167
8.44381
10.1581
13.355
20.3892
8.63049
7.82105
6.8636
5.97984
5.2652
4.7403
4.38851
4.17381
4.05648
4.00408
3.99521
4.01832
4.06849
4.14442
4.24904
4.38232
4.54527
4.74083
4.97291
5.24662
5.56963
5.95587
6.4347
7.07278
8.02556
9.66299
12.9379
20.9953
7.97778
7.05084
6.12793
5.35131
4.75986
4.34643
4.08031
3.92263
3.83875
3.80407
3.80406
3.8317
3.88433
3.96191
4.06849
4.2028
4.36673
4.5632
4.79565
5.06813
5.3863
5.76057
6.21466
6.80733
7.68681
9.23582
12.5357
21.5216
7.3373
6.38649
5.53777
4.86598
4.37705
4.04748
3.84051
3.71952
3.65613
3.6321
3.63765
3.66834
3.72298
3.80235
3.91023
4.04594
4.21163
4.41023
4.64491
4.91902
5.23669
5.6054
6.04361
6.60169
7.4174
8.87524
12.1595
21.9806
6.75375
5.83225
5.06703
4.48796
4.08098
3.81319
3.64687
3.54979
3.49937
3.48216
3.49129
3.52401
3.58019
3.66101
3.76998
3.90709
4.07473
4.27592
4.51376
4.79125
5.11151
5.4797
5.90956
6.44299
7.20545
8.57503
11.814
22.3823
6.24446
5.37587
4.69063
4.19006
3.84712
3.62447
3.48631
3.40515
3.36324
3.35047
3.36188
3.396
3.45324
3.53507
3.6448
3.78301
3.95235
4.156
4.39721
4.67891
5.00377
5.37527
5.80292
6.32035
7.03996
8.3275
11.5007
22.7346
5.80993
5.00139
4.3881
3.95239
3.65894
3.46928
3.35087
3.28063
3.24442
3.23453
3.24745
3.28245
3.34026
3.42263
3.53265
3.67144
3.8419
4.04749
4.29171
4.57777
4.90836
5.28591
5.71631
6.22516
6.91156
8.12503
11.2189
23.0441
5.44324
4.69407
4.14357
3.7607
3.50532
3.33994
3.23559
3.17294
3.14066
3.13274
3.14659
3.18194
3.23984
3.32225
3.432
3.57069
3.74153
3.94825
4.19474
4.48477
4.8215
5.207
5.64414
6.15071
6.8126
7.96069
10.9672
23.3165
5.13547
4.44167
3.94499
3.60481
3.37877
3.23143
3.13725
3.08
3.05048
3.04387
3.05814
3.09334
3.15068
3.23276
3.34162
3.47948
3.64982
3.85671
4.10451
4.39771
4.7405
5.13522
5.58224
6.09187
6.73693
7.82842
10.7433
23.5562
4.87803
4.23429
3.78323
3.47748
3.27416
3.14038
3.05367
3.00033
2.97274
2.96691
2.98117
3.01575
3.07196
3.15316
3.26049
3.39672
3.56566
3.77168
4.01965
4.31509
4.66344
5.06798
5.52726
6.04448
6.67953
7.72293
10.5446
23.7671
4.66336
4.06411
3.65146
3.37346
3.18786
3.06435
2.98319
2.93266
2.90638
2.90089
2.91477
2.9484
3.00326
3.08257
3.18762
3.32146
3.48808
3.69215
3.93922
4.23596
4.58937
5.00349
5.47608
6.00479
6.63615
7.63969
10.3678
23.9526
4.48501
3.92484
3.54438
3.28879
3.11706
3.00138
2.92433
2.87579
2.8503
2.84475
2.85789
2.89017
2.9432
3.02
3.12214
3.25281
3.41619
3.61737
3.86276
4.15997
4.51712
4.94019
5.42701
5.97009
6.60314
7.57513
10.2132
24.1152
4.33762
3.81151
3.45799
3.22052
3.05957
2.94977
2.87566
2.82848
2.80334
2.79739
2.80943
2.84001
2.89078
2.96459
3.06322
3.18997
3.34928
3.54699
3.78992
4.0862
4.44589
4.8773
5.37879
5.9385
6.57792
7.52606
10.0829
24.2571
4.21685
3.72047
3.38958
3.16627
3.01329
2.9078
2.83592
2.78958
2.76441
2.75777
2.76843
2.79701
2.84519
2.9156
3.01014
3.13227
3.28705
3.48061
3.71989
4.01407
4.37532
4.81426
5.33051
5.90869
6.55863
7.48924
9.97168
24.3804
4.11959
3.64902
3.3359
3.12343
2.97681
2.87464
2.80418
2.7582
2.73277
2.72517
2.73422
2.76056
2.80586
2.87246
2.96236
3.07942
3.22907
3.41749
3.65202
3.94322
4.30511
4.75078
5.28161
5.8796
6.54382
7.46261
9.87444
24.4868
4.04296
3.59329
3.2943
3.09085
2.94935
2.84963
2.78
2.73401
2.70805
2.69936
2.70663
2.73047
2.77254
2.83484
2.91958
3.03102
3.17462
3.35681
3.58578
3.87327
4.23511
4.68676
5.23179
5.85065
6.53231
7.44448
9.78912
24.5779
3.98266
3.55046
3.26351
3.06763
2.93023
2.83225
2.76296
2.71659
2.6899
2.68006
2.6855
2.70663
2.74494
2.80234
2.88131
2.98616
3.12269
3.29784
3.5206
3.80393
4.16527
4.62226
5.18094
5.82132
6.52319
7.43365
9.71436
24.6552
3.93638
3.51906
3.24243
3.0529
2.91874
2.8219
2.75249
2.70538
2.67767
2.66646
2.66986
2.68802
2.72209
2.77384
2.84612
2.94354
3.07226
3.23977
3.45599
3.73503
4.09565
4.55744
5.12911
5.7913
6.51577
7.42917
9.64912
24.7197
3.90242
3.4978
3.23
3.04576
2.91408
2.81781
2.7478
2.69948
2.6703
2.65728
2.65817
2.67276
2.70192
2.74744
2.81247
2.90196
3.02243
3.18205
3.39172
3.66654
4.02643
4.4926
5.0765
5.76043
6.50947
7.43037
9.59363
24.7726
3.87934
3.4855
3.22521
3.0453
2.91539
2.8191
2.74791
2.69778
2.66656
2.65111
2.6488
2.65916
2.68286
2.72178
2.77931
2.86063
2.97272
3.12451
3.32779
3.59864
3.95789
4.42812
5.02344
5.72872
6.50391
7.43667
9.5485
24.8148
3.8659
3.48107
3.22707
3.05059
2.92177
2.82482
2.75179
2.69922
2.6653
2.64678
2.64068
2.6463
2.6642
2.69633
2.74622
2.81932
2.9231
3.06722
3.26443
3.53164
3.89043
4.36446
4.97035
5.69633
6.49884
7.44757
9.51371
24.8472
3.86101
3.48351
3.23464
3.06074
2.93231
2.83403
2.75852
2.70285
2.66563
2.64351
2.63319
2.63376
2.6457
2.67093
2.71314
2.77807
2.8737
3.01047
3.20201
3.46599
3.82455
4.30216
4.91772
5.66352
6.49415
7.46275
9.48938
24.8707
3.86372
3.49192
3.24704
3.0749
2.94615
2.8459
2.76726
2.70794
2.66693
2.64081
2.62598
2.62134
2.62721
2.64552
2.68009
2.737
2.82479
2.95465
3.14103
3.40225
3.76083
4.24181
4.86615
5.63069
6.48986
7.48196
9.47584
24.8859
3.87323
3.50551
3.2635
3.09227
2.9625
2.85966
2.77737
2.71394
2.66878
2.63837
2.61887
2.60892
2.60868
2.62006
2.6471
2.69629
2.77673
2.9003
3.08215
3.3411
3.69995
4.18409
4.81629
5.5983
6.48608
7.50508
9.47353
24.8936
3.88889
3.5236
3.28332
3.11209
2.98051
2.87463
2.78834
2.72057
2.67103
2.63614
2.61181
2.59646
2.59004
2.59453
2.61428
2.65626
2.73008
2.84816
3.02617
3.28338
3.64269
4.12976
4.76888
5.56695
6.48305
7.53209
9.48365
24.8946
3.91047
3.5459
3.30614
3.13416
3.00034
2.89084
2.80016
2.72775
2.67353
2.63385
2.60445
2.58347
2.57073
2.56838
2.58122
2.61662
2.68463
2.79813
2.97322
3.2295
3.58996
4.08041
4.72631
5.53769
6.4811
7.56305
9.50765
24.8899
3.93974
3.57329
3.33225
3.15831
3.02144
2.90779
2.81238
2.73506
2.67589
2.63114
2.59633
2.56946
2.55033
2.54147
2.54806
2.57782
2.64106
2.75095
2.92393
3.17984
3.5417
4.03547
4.68773
5.51277
6.48284
7.59844
9.54688
24.8802
3.97652
3.60548
3.36127
3.18413
3.04337
2.92506
2.82458
2.74213
2.67776
2.62755
2.587
2.55406
2.52881
2.51416
2.51557
2.54088
2.60049
2.70778
2.8794
3.13538
3.49878
3.99572
4.65382
5.4916
6.48746
7.63906
9.6013
24.8658
4.02085
3.64241
3.39303
3.21137
3.06586
2.94237
2.83657
2.74885
2.67898
2.62293
2.57641
2.53756
2.50693
2.48765
2.48517
2.50725
2.56434
2.66992
2.84084
3.09724
3.46225
3.96212
4.62552
5.47503
6.49565
7.68402
9.66208
24.8452
4.073
3.68428
3.42759
3.24
3.08885
2.95975
2.84873
2.75597
2.68033
2.61824
2.56598
2.52177
2.48664
2.46388
2.45867
2.4786
2.53408
2.6387
2.80945
3.06657
3.43318
3.93573
4.60386
5.4641
6.50837
7.73416
9.72986
24.8188
4.13349
3.73155
3.46533
3.27031
3.1127
2.97792
2.8622
2.76479
2.68358
2.61554
2.55776
2.50879
2.47001
2.44463
2.43762
2.45629
2.51095
2.6153
2.78641
3.04452
3.41275
3.91771
4.59
5.45999
6.52681
7.79048
9.80554
24.7871
4.20307
3.78502
3.50696
3.30301
3.1383
2.99814
2.87842
2.77655
2.69013
2.61617
2.55302
2.50005
2.45829
2.43097
2.42288
2.44119
2.49596
2.60083
2.7729
3.03234
3.40222
3.90934
4.58525
5.46407
6.55232
7.85423
9.89084
24.7505
4.28274
3.84584
3.55362
3.33934
3.16733
3.02231
2.8983
2.79207
2.70042
2.62119
2.55313
2.49619
2.45206
2.42346
2.41519
2.43407
2.49003
2.59644
2.77021
3.03141
3.40304
3.91209
4.59112
5.4779
6.58645
7.92699
9.98798
24.7092
4.3737
3.91549
3.60694
3.38124
3.20186
3.05153
2.92288
2.81185
2.71524
2.63131
2.55902
2.49856
2.4522
2.42297
2.41538
2.43608
2.49439
2.60349
2.77987
3.04334
3.41687
3.92767
4.60937
5.50332
6.63106
8.01055
10.0984
24.6639
4.47731
3.99584
3.66924
3.43124
3.24336
3.08689
2.95321
2.83703
2.73576
2.64768
2.57185
2.5086
2.46058
2.43116
2.42498
2.44861
2.51081
2.62373
2.80369
3.07004
3.44568
3.95809
4.64205
5.5425
6.68847
8.10722
10.2246
24.6152
4.5951
4.08934
3.74342
3.49144
3.29384
3.13018
2.99049
2.86921
2.76363
2.67196
2.59332
2.52817
2.47939
2.45058
2.44653
2.47388
2.54118
2.6595
2.84393
3.11379
3.49181
4.00572
4.69164
5.59806
6.7615
8.21986
10.3696
24.5633
4.72886
4.19875
3.8322
3.5644
3.3554
3.1835
3.03709
2.91068
2.80113
2.70649
2.62588
2.55979
2.51137
2.48426
2.48329
2.51512
2.58832
2.71324
2.90342
3.17736
3.55804
4.07343
4.76111
5.67318
6.85364
8.35198
10.5368
24.5086
4.88039
4.32671
3.93805
3.65318
3.43115
3.24954
3.09603
2.96451
2.85137
2.75445
2.67278
2.60685
2.55999
2.53587
2.53915
2.57637
2.65599
2.78822
2.98536
3.26415
3.64774
4.16465
4.85412
5.77181
6.96921
8.50802
10.7309
24.4511
5.05132
4.47499
4.06412
3.76084
3.52476
3.33239
3.17137
3.03479
2.91851
2.82007
2.73833
2.67371
2.6297
2.60988
2.6187
2.66238
2.74904
2.88874
3.09334
3.37834
3.76504
4.28363
4.9752
5.89888
7.1137
8.69356
10.9573
24.3905
5.24156
4.64576
4.21395
3.89153
3.64042
3.43697
3.26834
3.1269
3.00801
2.90886
2.8281
2.766
2.72616
2.71197
2.72757
2.77875
2.87318
3.02059
3.23269
3.52399
3.91496
4.4357
5.13005
6.06067
7.29409
8.91571
11.2228
24.3261
5.45209
4.8412
4.39057
4.05006
3.78391
3.56953
3.39352
3.24769
3.12689
3.02795
2.94927
2.89093
2.85656
2.84925
2.87271
2.93228
3.03514
3.19045
3.40975
3.70745
4.10338
4.62755
5.32601
6.26528
7.51933
9.18359
11.5363
24.2561
5.6837
5.06355
4.5974
4.24119
3.96168
3.7375
3.55507
3.40577
3.28405
3.18642
3.111
3.05765
3.02998
3.03058
3.06275
3.13135
3.24307
3.40659
3.63303
3.93692
4.3383
4.86782
5.57269
6.52339
7.80111
9.50911
11.9088
24.1774
5.93723
5.31495
4.83858
4.47068
4.18116
3.94969
3.76282
3.61172
3.49057
3.39562
3.32476
3.27758
3.25764
3.26689
3.30828
3.38632
3.50725
3.67933
3.91329
4.2236
4.63113
5.16768
5.88291
6.84956
8.15514
9.90794
12.3545
24.0839
6.2141
5.59781
5.1188
4.74551
4.45118
4.21658
4.02858
3.87832
3.75986
3.66931
3.60437
3.56441
3.55297
3.57137
3.62238
3.71031
3.84108
4.02244
4.26471
4.5825
4.99753
5.54405
6.27402
7.26367
8.60255
10.401
12.8909
23.9654
6.51718
5.91618
5.44394
5.07388
4.78199
4.55019
4.36578
4.22005
4.10709
4.02302
3.9655
3.93385
3.93185
3.96035
4.02217
4.12139
4.2635
4.45555
4.70746
5.03421
5.45953
6.01999
6.77202
7.79341
9.17236
11.0183
13.539
23.8039
6.85232
6.27781
5.82294
5.46612
5.18534
4.9636
4.78871
4.65226
4.5486
4.47405
4.42649
4.40549
4.41596
4.45804
4.53424
4.64805
4.80409
5.00838
5.27108
5.60869
6.04801
6.63082
7.41466
8.481
9.90916
11.8022
14.3214
23.568
7.23165
6.69841
6.27424
5.9425
5.68368
5.48191
5.32549
5.20639
5.11944
5.06139
5.03047
5.02755
5.05688
5.11764
5.21139
5.34068
5.5096
5.72523
5.99902
6.35042
6.81131
7.4294
8.26846
9.39669
10.8832
12.8123
15.2578
23.2026
7.68525
7.21223
6.83619
6.54581
6.32513
6.15954
6.03726
5.95018
5.89336
5.86379
5.85989
5.88567
5.93846
6.01842
6.12683
6.26684
6.44436
6.66962
6.95761
7.33353
7.83492
8.51482
9.44166
10.6684
12.2129
14.1318
16.3553
22.6309
8.29129
7.9073
7.601
7.37109
7.20803
7.09799
7.02766
6.98762
6.97228
6.97831
7.00407
7.05733
7.13242
7.23002
7.35323
7.50853
7.70556
7.95832
8.28797
8.7248
9.30977
10.0979
11.1543
12.5063
14.0974
15.8705
17.556
21.7227
9.26121
9.04052
8.86295
8.73826
8.66627
8.63175
8.62104
8.62727
8.64704
8.67825
8.72173
8.79841
8.90271
9.03721
9.20704
9.42059
9.68944
10.0303
10.4666
11.0278
11.7525
12.6875
13.8759
15.2941
16.8067
18.1618
18.6456
20.2521
11.466
11.6946
11.8428
11.9825
12.1284
12.2605
12.3705
12.4609
12.5374
12.6049
12.7034
12.8573
13.0585
13.3035
13.5942
13.9349
14.3327
14.7985
15.3467
15.9948
16.7616
17.6616
18.6868
19.7367
20.6173
20.9168
19.1511
17.4104
44.247
42.1983
40.8624
39.8795
39.1109
38.4754
37.9259
37.4337
36.9786
36.5449
36.1293
35.7339
35.3438
34.9458
34.5277
34.0774
33.5818
33.0261
32.392
31.6561
30.7873
29.7416
28.456
26.8197
24.6119
21.4472
16.704
10.7909
25.5249
15.3731
15.0176
15.2959
15.735
15.5009
14.4152
12.7744
11.0449
9.57381
8.52045
7.9055
26.3569
16.6755
16.0171
15.6794
15.2994
14.3761
12.9692
11.3842
9.96015
8.91158
8.30414
8.10333
26.9968
17.6749
16.56
15.5508
14.5317
13.2288
11.7643
10.38
9.30543
8.64966
8.39865
8.48621
27.514
18.3426
16.704
15.106
13.6631
12.2103
10.8405
9.71825
8.97609
8.62926
8.61387
8.86786
27.9042
18.7436
16.5543
14.5061
12.83
11.378
10.1801
9.32415
8.85048
8.70614
8.82185
9.16531
28.0833
18.8841
16.2137
13.8625
12.0984
10.7364
9.73632
9.10957
8.81816
8.78498
8.97098
9.3655
28.1839
18.7989
15.764
13.242
11.49
10.2625
9.45006
8.9913
8.80249
8.82597
9.05864
9.46816
28.2475
18.5366
15.2672
12.6792
11.0013
9.92059
9.26144
8.90586
8.76613
8.82738
9.09356
9.45807
28.274
18.1785
14.7675
12.1874
10.6157
9.67097
9.12027
8.81689
8.70365
8.80134
9.07498
9.31462
28.277
17.7785
14.2897
11.7661
10.3107
9.47816
8.99251
8.71076
8.62355
8.75732
8.99287
9.03385
28.2774
17.3611
13.8447
11.4071
10.0633
9.31321
8.86041
8.59461
8.54014
8.69663
8.83875
8.63917
28.2884
16.9428
13.4355
11.0987
9.8532
9.15881
8.72202
8.47203
8.46399
8.61565
8.61462
8.174
28.3159
16.5355
13.0612
10.8293
9.66631
9.00723
8.57782
8.35854
8.39702
8.51086
8.33439
7.68542
28.3624
16.1474
12.7192
10.5892
9.49211
8.85454
8.4383
8.26418
8.34146
8.38242
8.01949
7.21087
28.4286
15.7826
12.406
10.3709
9.32516
8.70244
8.30554
8.19458
8.29489
8.23357
7.69191
6.77322
28.5136
15.4429
12.118
10.169
9.16387
8.55408
8.19093
8.14958
8.25432
8.07039
7.36931
6.38267
28.6146
15.1276
11.852
9.9798
9.00762
8.41413
8.10234
8.12912
8.21889
7.89997
7.06409
6.0413
28.7288
14.835
11.6049
9.80061
8.85656
8.28657
8.03828
8.13142
8.18757
7.72897
6.78397
5.74682
28.8546
14.5644
11.3744
9.63006
8.71154
8.16986
7.99935
8.1531
8.15917
7.56296
6.53253
5.49504
28.9905
14.3146
11.159
9.46772
8.57349
8.06643
7.9836
8.19086
8.13339
7.40632
6.31049
5.28124
29.1353
14.0844
10.9572
9.31351
8.44376
7.98123
7.98816
8.24229
8.11075
7.26223
6.11698
5.10087
29.2874
13.8726
10.7678
9.16717
8.32316
7.91612
8.01114
8.30492
8.09209
7.13302
5.95035
4.94963
29.4453
13.6782
10.5899
9.02832
8.21154
7.86524
8.05013
8.37599
8.07824
7.02028
5.80843
4.82363
29.6076
13.4999
10.4224
8.89659
8.10823
7.8271
8.10188
8.45322
8.06991
6.92433
5.68926
4.72065
29.7728
13.3367
10.2646
8.77162
8.01094
7.80031
8.16352
8.53508
8.06782
6.84518
5.59203
4.63821
29.9396
13.1876
10.1159
8.65292
7.91953
7.78282
8.23283
8.62053
8.07261
6.78253
5.51475
4.57346
30.1066
13.0517
9.9746
8.54007
7.83445
7.77234
8.30802
8.70878
8.0848
6.73587
5.45544
4.52419
30.2725
12.9282
9.8405
8.43284
7.75518
7.76734
8.38758
8.79913
8.10475
6.70449
5.41238
4.48862
30.4361
12.8163
9.71343
8.33088
7.68099
7.76637
8.46964
8.89099
8.13263
6.68761
5.38411
4.46524
30.5963
12.7154
9.59313
8.2338
7.61117
7.76788
8.55248
8.98384
8.16841
6.68444
5.36938
4.45284
30.7521
12.6251
9.47943
8.14125
7.54502
7.77046
8.63466
9.07722
8.21197
6.69427
5.36714
4.45037
30.9024
12.5449
9.37195
8.05293
7.48166
7.77282
8.71497
9.17072
8.26313
6.71645
5.37658
4.457
31.0464
12.4746
9.27103
7.96874
7.42089
7.77377
8.79223
9.26387
8.32165
6.7505
5.39708
4.47212
31.1811
12.4234
9.17667
7.88851
7.36145
7.77311
8.8649
9.35346
8.38652
6.79702
5.42888
4.49555
31.3041
12.3929
9.0905
7.81314
7.30581
7.77193
8.92936
9.43422
8.45441
6.85542
5.47407
4.5299
31.4147
12.3824
9.01289
7.74249
7.25369
7.76916
8.98441
9.50601
8.52507
6.92496
5.53221
4.57497
31.512
12.3915
8.94426
7.6766
7.20486
7.76378
9.02898
9.56864
8.59807
7.00486
5.60292
4.63077
31.595
12.4197
8.88483
7.61552
7.15883
7.75495
9.06212
9.62184
8.67281
7.09435
5.6859
4.69746
31.6631
12.4667
8.83491
7.55931
7.11515
7.74196
9.08304
9.66527
8.74858
7.19265
5.78087
4.77532
31.7153
12.5326
8.7951
7.50815
7.07357
7.72421
9.09108
9.69855
8.82454
7.2989
5.8876
4.86479
31.7509
12.6173
8.76612
7.4623
7.03393
7.70121
9.08569
9.72119
8.89973
7.41221
6.0058
4.96634
31.769
12.721
8.74881
7.42216
6.99619
7.67259
9.06646
9.7326
8.97302
7.53159
6.13516
5.08055
31.7686
12.8439
8.74415
7.38819
6.9604
7.63812
9.03311
9.73211
9.04314
7.65595
6.27525
5.20794
31.7488
12.9861
8.75324
7.36101
6.92675
7.5978
8.98553
9.71893
9.10865
7.78401
6.42553
5.34901
31.7085
13.148
8.77733
7.34137
6.89553
7.55181
8.92385
9.69229
9.16795
7.91434
6.58526
5.50414
31.6466
13.3296
8.81778
7.33015
6.86709
7.50052
8.84859
9.65138
9.21927
8.04523
6.75346
5.67372
31.5618
13.5311
8.87598
7.32839
6.84192
7.44461
8.76052
9.59555
9.26072
8.17478
6.92891
5.8581
31.4532
13.7519
8.9533
7.33728
6.82167
7.3852
8.66052
9.52434
9.29039
8.30087
7.11134
6.05737
31.3195
13.9908
9.05098
7.3581
6.80873
7.32376
8.54984
9.43764
9.30642
8.4221
7.29936
6.27039
31.1593
14.2472
9.17017
7.39203
6.80249
7.26142
8.4303
9.33586
9.30734
8.53627
7.49174
6.49635
30.9712
14.5198
9.311
7.44032
6.8036
7.19989
8.30425
9.22017
9.29278
8.64364
7.68609
6.7352
30.7534
14.8073
9.47362
7.5041
6.81324
7.14113
8.17446
9.09262
9.26335
8.74303
7.88265
6.98773
30.5044
15.1083
9.65815
7.5843
6.8326
7.08711
8.04396
8.95605
9.22269
8.83503
8.08335
7.25629
30.2226
15.4209
9.86424
7.68147
6.86262
7.03964
7.91589
8.81495
9.17416
8.92401
8.29325
7.54587
29.9061
15.7432
10.091
7.79573
6.90391
7.00026
7.79308
8.67629
9.125
9.01869
8.52139
7.86568
29.5533
16.0735
10.3373
7.92679
6.95662
6.97002
7.67855
8.54545
9.08507
9.13249
8.78245
8.23798
29.1622
16.4106
10.6013
8.07389
7.0204
6.94926
7.57464
8.42771
9.06564
9.28373
9.10973
8.7229
28.7308
16.7544
10.8818
8.23606
7.09445
6.93738
7.48284
8.32661
9.07463
9.49359
9.58157
9.48093
28.2564
17.1065
11.178
8.41242
7.17773
6.93326
7.40184
8.24072
9.11126
9.79312
10.3715
10.9807
27.7352
17.4715
11.4903
8.60232
7.26926
6.93535
7.32831
8.16161
9.15792
10.1686
11.7566
15.1676
27.2833
17.7774
11.7509
8.76223
7.3468
6.93965
7.2714
8.09473
9.18212
10.4421
13.3759
35.1559
26.7966
18.1037
12.0255
8.93205
7.42988
6.94695
7.21518
8.01783
9.17127
10.5933
14.071
33.3257
26.2706
18.4529
12.3181
9.11448
7.52029
6.95663
7.15859
7.92779
9.11171
10.6054
14.0156
32.4898
25.1093
10.3408
7.65745
8.60219
9.62786
10.4892
11.2014
11.7913
12.2822
12.6924
13.0364
13.3266
13.5734
13.7863
13.9748
14.1495
14.3232
14.4658
14.5709
14.6326
14.647
14.6001
14.4631
14.177
13.6338
12.7119
11.0576
5.41909
22.1763
8.61184
6.47048
7.13448
7.48008
7.50483
7.33919
7.07947
6.78582
6.49443
6.22685
5.99636
5.81161
5.67878
5.60645
5.61011
5.70018
5.82727
5.97998
6.16765
6.39603
6.67348
7.00869
7.40576
7.84518
8.25047
8.46156
8.05004
20.8284
10.5852
6.39583
6.27351
6.21636
5.96783
5.62477
5.27384
4.96227
4.71068
4.52483
4.40309
4.34081
4.33251
4.37298
4.45723
4.58091
4.73603
4.92565
5.15502
5.43289
5.7723
6.19234
6.71899
7.3814
8.19831
9.16048
9.82092
19.5456
12.0295
6.58594
5.71895
5.43318
5.08632
4.72252
4.40154
4.14861
3.96664
3.84921
3.78714
3.77153
3.79492
3.85178
3.93886
4.05544
4.2024
4.38329
4.60436
4.87566
5.21282
5.64046
6.19703
6.94067
7.96668
9.38954
11.1351
18.3263
12.8689
6.89619
5.3421
4.91328
4.53516
4.18675
3.90229
3.69133
3.54664
3.45693
3.4118
3.40324
3.42579
3.47643
3.55424
3.66007
3.79558
3.96457
4.17325
4.43164
4.75604
5.17356
5.72991
6.50646
7.64703
9.3767
12.1536
17.1931
13.4757
7.34012
5.11401
4.55229
4.16422
3.83484
3.57567
3.38684
3.25708
3.17441
3.1296
3.11658
3.13192
3.17425
3.24378
3.34193
3.4695
3.62998
3.82901
4.07594
4.38646
4.78774
5.3291
6.10518
7.28584
9.23409
12.9794
16.1592
13.7051
8.02023
5.04737
4.30003
3.89996
3.58497
3.34097
3.16197
3.03601
2.95217
2.90296
2.88397
2.8931
2.92978
2.99455
3.08881
3.21231
3.368
3.56082
3.79912
4.09746
4.48188
5.00288
5.75598
6.94208
9.03924
13.677
15.2216
13.6578
8.85655
5.16833
4.13282
3.70517
3.39823
3.16264
2.98688
2.85983
2.77223
2.71813
2.69433
2.69945
2.73321
2.7961
2.88923
3.01156
3.16546
3.35508
3.58775
3.87664
4.24671
4.74548
5.47165
6.64484
8.83932
14.2799
14.3689
13.4588
9.6124
5.50319
4.04771
3.5613
3.25479
3.02307
2.84735
2.71736
2.62555
2.56726
2.54006
2.54296
2.5757
2.63859
2.73243
2.85561
3.00992
3.19876
3.42843
3.71087
4.06887
4.54839
5.24794
6.39912
8.65448
14.8106
13.5905
13.1726
10.1718
6.13956
4.07436
3.46336
3.1441
2.91252
2.73539
2.60199
2.50624
2.44454
2.41502
2.41684
2.44971
2.51372
2.60938
2.73474
2.89104
3.08097
3.30991
3.58832
3.93722
4.40053
5.07561
6.20128
8.49255
15.2844
12.8762
12.8296
10.5401
6.87506
4.30538
3.42299
3.0627
2.8256
2.64596
2.5092
2.40993
2.34541
2.3142
2.31556
2.34913
2.41482
2.5129
2.64127
2.80064
2.99313
3.22312
3.49967
3.84201
4.292
4.94534
6.04499
8.35541
15.7124
12.217
12.4505
10.7549
7.57344
4.74818
3.47924
3.01533
2.7603
2.57583
2.43565
2.33318
2.2662
2.2336
2.23474
2.26917
2.3367
2.43742
2.56921
2.73241
2.92856
3.16108
3.43755
3.77551
4.21476
4.84908
5.92371
8.24224
16.1032
11.6056
12.0486
10.8487
8.17851
5.32086
3.68013
3.02514
2.71975
2.52373
2.37897
2.27335
2.20403
2.17009
2.17095
2.20613
2.27535
2.3786
2.51393
2.68147
2.8822
3.11835
3.39628
3.73174
4.16244
4.78027
5.83157
8.15114
16.4634
11.0359
11.6325
10.8447
8.66807
5.9541
4.02114
3.11916
2.7187
2.49205
2.33825
2.22857
2.1567
2.12124
2.12155
2.15713
2.22765
2.33305
2.47189
2.64421
2.85003
3.09082
3.37153
3.70605
4.13008
4.73367
5.76361
8.07991
16.7984
10.5032
11.2087
10.7608
9.03922
6.58322
4.48366
3.31159
2.77041
2.49172
2.31551
2.1984
2.12285
2.0853
2.08456
2.11992
2.19102
2.29818
2.44061
2.61767
2.82907
3.07538
3.36001
3.69491
4.11383
4.70515
5.71576
8.02634
17.1124
10.0046
10.7821
10.6118
9.29855
7.15983
5.02842
3.61419
2.88989
2.5273
2.31856
2.18547
2.10246
2.06132
2.05857
2.09279
2.16374
2.27225
2.41783
2.59963
2.81707
3.06969
3.35922
3.69559
4.11068
4.6914
5.68467
7.98844
17.4092
9.53804
10.357
10.41
9.45671
7.65541
5.6094
4.01896
3.0916
2.61107
2.34934
2.19285
2.09804
2.0495
2.0429
2.07477
2.14467
2.25379
2.402
2.58854
2.81244
3.07207
3.36729
3.70597
4.11824
4.6898
5.66761
7.96443
17.6921
9.10312
9.93718
10.166
9.5244
8.0571
6.18046
4.5035
3.3845
2.75707
2.41685
2.2232
2.11026
2.05171
2.03797
2.06549
2.1331
2.24181
2.39212
2.58337
2.8141
3.08129
3.38283
3.72443
4.13463
4.69821
5.66234
7.95272
17.9637
8.7007
9.52654
9.88911
9.51302
8.36188
6.70599
5.03513
3.7641
2.97603
2.5318
2.28309
2.1423
2.06872
2.04543
2.06568
2.12882
2.23596
2.38774
2.58363
2.82143
3.09652
3.40474
3.74962
4.15829
4.71488
5.66698
7.95192
18.2268
8.33298
9.12915
9.58794
9.43373
8.57296
7.16277
5.57591
4.21451
3.27384
2.70556
2.38117
2.19956
2.10365
2.06673
2.0781
2.13475
2.23712
2.38911
2.58927
2.83405
3.11706
3.43212
3.78043
4.18791
4.73835
5.67996
7.96078
18.4835
8.00338
8.74974
9.27066
9.29714
8.69628
7.53836
6.09226
4.71048
3.64604
2.94611
2.52716
2.28921
2.16125
2.10499
2.10422
2.15297
2.25067
2.39963
2.60054
2.85168
3.14211
3.46397
3.81577
4.22233
4.76738
5.69994
7.9782
18.7361
7.71634
8.39365
8.94539
9.11373
8.73994
7.82808
6.55878
5.22083
4.07894
3.2566
2.73014
2.4192
2.24746
2.16434
2.14689
2.1852
2.27644
2.42119
2.62153
2.87401
3.17076
3.49922
3.85457
4.26055
4.80092
5.72583
8.00319
18.9867
7.47747
8.06699
8.6204
8.89389
8.71321
8.03255
6.95892
5.7161
4.55095
3.63089
2.99521
2.59724
2.36861
2.24973
2.20946
2.23332
2.31511
2.45315
2.65048
2.90312
3.20307
3.53644
3.89591
4.30174
4.83817
5.75674
8.03493
19.2374
7.29289
7.77661
8.30434
8.64812
8.62613
8.15568
7.2836
6.17233
5.03549
4.05507
3.32162
2.82975
2.53097
2.36633
2.29565