/*--------------------------------*- C++ -*----------------------------------*\
| =========                 |                                                 |
| \\      /  F ield         | OpenFOAM: The Open Source CFD Toolbox           |
|  \\    /   O peration     | Version:  v2012                                 |
|   \\  /    A nd           | Website:  www.openfoam.com                      |
|    \\/     M anipulation  |                                                 |
\*---------------------------------------------------------------------------*/
FoamFile
{
    version     2.0;
    format      ascii;
    class       volScalarField;
    location    "696";
    object      p;
}
// * * * * * * * * * * * * * * * * * * * * * * * * * * * * * * * * * * * * * //

dimensions      [0 2 -2 0 0 0 0];


internalField   nonuniform List<scalar> 
6036
(
0.629961
0.630959
0.631876
0.63273
0.633536
0.634306
0.63505
0.635775
0.636489
0.637194
0.637894
0.638591
0.639287
0.639995
0.640718
0.641419
0.64204
0.642774
0.644338
0.646888
0.630108
0.6311
0.632006
0.632847
0.633642
0.634405
0.635143
0.635863
0.63657
0.63727
0.637963
0.63865
0.639335
0.640024
0.64072
0.641387
0.641976
0.642605
0.64371
0.645053
0.630204
0.631178
0.63206
0.632878
0.633658
0.634411
0.635141
0.635857
0.636563
0.637262
0.637955
0.638645
0.639336
0.640031
0.640722
0.641385
0.642026
0.642748
0.643595
0.644096
0.630435
0.631372
0.632217
0.633002
0.633752
0.634478
0.63519
0.635891
0.636585
0.637273
0.637957
0.638637
0.639319
0.640001
0.640665
0.6413
0.641947
0.64267
0.643346
0.643635
0.63073
0.631602
0.63239
0.63313
0.633844
0.634544
0.635237
0.635925
0.636611
0.637295
0.637975
0.638655
0.639338
0.640019
0.640676
0.641303
0.641945
0.642629
0.643199
0.64343
0.631129
0.631895
0.632602
0.63328
0.633949
0.634617
0.635287
0.63596
0.636636
0.637312
0.637987
0.638664
0.639344
0.640023
0.640679
0.641305
0.641946
0.64263
0.6432
0.643431
0.631629
0.632241
0.632841
0.633445
0.63406
0.634689
0.635335
0.635992
0.636656
0.637323
0.637991
0.638662
0.639336
0.640013
0.640674
0.641306
0.641951
0.642673
0.643348
0.643638
0.632187
0.632581
0.633055
0.633579
0.634141
0.634736
0.635367
0.636017
0.636675
0.63734
0.63801
0.638684
0.639363
0.64005
0.640736
0.641395
0.642033
0.642753
0.643599
0.644099
0.632748
0.632916
0.63328
0.633742
0.634265
0.634834
0.63544
0.63607
0.636715
0.63737
0.638033
0.638699
0.639369
0.640049
0.640737
0.641399
0.641985
0.642611
0.643715
0.645058
0.632837
0.632969
0.633284
0.633715
0.634221
0.634782
0.635381
0.636006
0.636649
0.637306
0.637972
0.638645
0.639325
0.640021
0.640737
0.641432
0.64205
0.642781
0.644344
0.646894
0.910083
0.9095
0.908361
0.906034
0.898522
0.879893
0.851661
0.819595
0.787696
0.757863
0.730908
0.707158
0.686726
0.669564
0.655512
0.644365
0.635864
0.629715
0.6256
0.623185
0.622115
0.62207
0.622722
0.623792
0.625067
0.626392
0.627674
0.628868
0.910764
0.910318
0.908908
0.90403
0.891083
0.868367
0.840008
0.810015
0.780115
0.751849
0.726046
0.703155
0.683348
0.666653
0.652992
0.642188
0.633999
0.628136
0.624284
0.622125
0.621342
0.621562
0.622431
0.623666
0.625063
0.62647
0.627798
0.629012
0.909967
0.906223
0.899354
0.888147
0.87101
0.848355
0.822273
0.794826
0.767373
0.741138
0.716951
0.695352
0.676604
0.660797
0.647906
0.637793
0.630233
0.624951
0.621638
0.619992
0.619702
0.620396
0.621658
0.623204
0.62486
0.626443
0.627864
0.62911
0.90294
0.893743
0.881693
0.866916
0.848814
0.827277
0.803115
0.777674
0.752222
0.727815
0.70524
0.68504
0.667518
0.652801
0.640893
0.63169
0.624986
0.620521
0.618002
0.61711
0.61751
0.618834
0.6207
0.622774
0.6248
0.626594
0.628102
0.629363
0.889717
0.876617
0.861873
0.845465
0.826786
0.805636
0.782583
0.758627
0.73479
0.711966
0.690886
0.672092
0.655903
0.642454
0.63175
0.6237
0.618104
0.614705
0.613231
0.613356
0.614706
0.616895
0.619548
0.622299
0.62482
0.626887
0.628476
0.629716
0.872498
0.857197
0.840901
0.823337
0.804021
0.782897
0.760495
0.737638
0.715146
0.693756
0.674129
0.656801
0.642085
0.630091
0.620804
0.614123
0.60985
0.607714
0.607472
0.608816
0.611341
0.614622
0.618271
0.621906
0.625083
0.627488
0.629097
0.63023
0.853124
0.836378
0.818802
0.800116
0.780059
0.758703
0.736588
0.71449
0.693115
0.673033
0.654786
0.638897
0.625684
0.615223
0.607471
0.602332
0.599644
0.599037
0.6003
0.603227
0.60731
0.612043
0.61701
0.621856
0.625836
0.628585
0.630049
0.630912
0.83261
0.8145
0.79552
0.775542
0.754537
0.732712
0.710582
0.688979
0.668597
0.649787
0.632843
0.618397
0.606913
0.598342
0.592533
0.58935
0.58869
0.589888
0.592886
0.597663
0.603476
0.609818
0.616208
0.622329
0.627013
0.630169
0.631412
0.631746
0.811156
0.791447
0.770797
0.749275
0.72709
0.704535
0.681954
0.660439
0.640932
0.62336
0.607617
0.594866
0.58562
0.579208
0.575389
0.574052
0.575058
0.578056
0.582903
0.589467
0.597273
0.605694
0.614087
0.621818
0.628319
0.63283
0.634204
0.632824
0.788507
0.766792
0.744109
0.720637
0.696758
0.673031
0.6497
0.628566
0.610645
0.594833
0.581215
0.570521
0.56296
0.5583
0.556458
0.557406
0.560701
0.566091
0.573573
0.582974
0.593966
0.605692
0.617037
0.626963
0.63521
0.640232
0.639558
0.632468
0.913637
0.912594
0.90816
0.904002
0.902626
0.904397
0.907842
0.910428
0.911353
0.911416
0.91106
0.91051
0.912279
0.909818
0.904318
0.900467
0.900019
0.902661
0.906995
0.910509
0.911942
0.911961
0.911288
0.910783
0.908748
0.904354
0.898999
0.896309
0.896873
0.90037
0.905541
0.910242
0.91262
0.912857
0.912086
0.911305
0.903913
0.898678
0.894565
0.893085
0.894297
0.898301
0.904024
0.90942
0.912639
0.913278
0.911965
0.908784
0.899865
0.894848
0.892094
0.891424
0.892854
0.896816
0.902489
0.907985
0.911031
0.910997
0.907575
0.900329
0.897856
0.893406
0.891564
0.891113
0.892349
0.89584
0.900774
0.905216
0.906909
0.904613
0.897527
0.886331
0.898226
0.894177
0.892569
0.891888
0.892721
0.895226
0.898607
0.900968
0.899942
0.893878
0.882969
0.868895
0.900823
0.896773
0.894905
0.893723
0.893752
0.894788
0.895922
0.895065
0.889932
0.879789
0.865882
0.849841
0.90535
0.90097
0.898472
0.896492
0.89527
0.894276
0.892276
0.887147
0.877497
0.863839
0.847621
0.829917
0.911424
0.90667
0.903258
0.900155
0.897102
0.893236
0.887159
0.877328
0.863557
0.846973
0.828675
0.809154
0.763497
0.739137
0.713813
0.687959
0.662274
0.638299
0.61598
0.595825
0.579068
0.565576
0.555437
0.548401
0.544129
0.542204
0.542611
0.54562
0.550664
0.55748
0.566296
0.576754
0.588396
0.600628
0.612511
0.623174
0.632007
0.637343
0.635776
0.627877
0.73547
0.707941
0.679851
0.652508
0.626657
0.603196
0.583465
0.567595
0.555261
0.546222
0.540096
0.536487
0.535154
0.535631
0.537689
0.541413
0.546619
0.553681
0.562785
0.573477
0.585355
0.597785
0.609888
0.620837
0.629716
0.63444
0.633024
0.628961
0.705214
0.674983
0.645459
0.618163
0.59439
0.574791
0.559612
0.548371
0.540174
0.534385
0.530507
0.52826
0.52755
0.52831
0.530621
0.534555
0.540073
0.547309
0.556298
0.566834
0.578559
0.590922
0.603164
0.614483
0.623859
0.629481
0.629961
0.628061
0.673699
0.642173
0.61339
0.588836
0.569261
0.554406
0.543432
0.535391
0.529431
0.525027
0.521933
0.520117
0.519638
0.520578
0.523048
0.527087
0.53272
0.54
0.548866
0.559155
0.570575
0.582669
0.594798
0.606192
0.615904
0.622741
0.625864
0.626077
0.642759
0.612114
0.586327
0.56609
0.550975
0.539868
0.531565
0.525144
0.52006
0.516104
0.513273
0.511654
0.511341
0.51242
0.514974
0.519021
0.524599
0.531721
0.54032
0.550246
0.561249
0.572959
0.584858
0.596254
0.606326
0.61427
0.619405
0.621261
0.614374
0.586641
0.565049
0.549081
0.53739
0.528563
0.521554
0.51577
0.510992
0.507229
0.50457
0.503114
0.502942
0.504124
0.506711
0.510711
0.516154
0.523033
0.531283
0.54077
0.551279
0.562504
0.574024
0.585261
0.595555
0.604336
0.610784
0.613416
0.589873
0.566157
0.5487
0.536009
0.526432
0.518736
0.512238
0.506684
0.502067
0.498472
0.49599
0.494691
0.494632
0.49587
0.49843
0.502322
0.507566
0.514145
0.521998
0.531004
0.540978
0.551661
0.562705
0.573628
0.583897
0.59307
0.600202
0.603166
0.56961
0.549967
0.535806
0.525233
0.516764
0.509547
0.503249
0.497838
0.493387
0.489979
0.487673
0.486512
0.486538
0.487793
0.490283
0.494024
0.499025
0.505266
0.51269
0.521191
0.530606
0.540712
0.551208
0.561688
0.571693
0.580836
0.588144
0.591234
0.553131
0.536925
0.525042
0.515679
0.50773
0.500722
0.494565
0.489323
0.485068
0.481853
0.479711
0.478666
0.478747
0.479987
0.482375
0.485933
0.490662
0.49654
0.503517
0.5115
0.520345
0.529851
0.539751
0.549688
0.559244
0.568043
0.575176
0.578254
0.539595
0.525958
0.515508
0.506788
0.499095
0.49224
0.486259
0.481224
0.47718
0.474154
0.47216
0.47121
0.471324
0.472521
0.474786
0.47814
0.482577
0.488079
0.4946
0.50206
0.51033
0.519227
0.528506
0.537837
0.54682
0.555083
0.561828
0.56479
0.528141
0.516284
0.506695
0.498331
0.490824
0.484156
0.478396
0.473591
0.469762
0.466916
0.465055
0.464183
0.464311
0.465447
0.467575
0.47071
0.474847
0.479966
0.48603
0.492968
0.500665
0.508955
0.517604
0.5263
0.534649
0.542277
0.548519
0.551296
0.518089
0.507421
0.498362
0.490251
0.482952
0.476521
0.471013
0.466449
0.462832
0.460156
0.458416
0.457609
0.457737
0.458798
0.46078
0.463691
0.467524
0.472264
0.477876
0.484299
0.491433
0.499123
0.507149
0.515206
0.522904
0.529868
0.535558
0.538112
0.508975
0.49911
0.490427
0.482564
0.475522
0.469365
0.464125
0.459804
0.456393
0.45388
0.45225
0.451496
0.451616
0.452595
0.454426
0.457112
0.460646
0.465013
0.470185
0.476109
0.482696
0.489803
0.497221
0.504655
0.511716
0.518028
0.523162
0.525479
0.500523
0.491237
0.48288
0.475302
0.468557
0.462697
0.457732
0.453653
0.450443
0.448084
0.446556
0.445847
0.44595
0.446844
0.448525
0.45099
0.454233
0.458241
0.462991
0.468436
0.474498
0.481045
0.487881
0.494719
0.501174
0.506874
0.511478
0.513558
0.492587
0.483767
0.475742
0.468487
0.462067
0.456515
0.451828
0.447987
0.444971
0.442757
0.441323
0.440652
0.440734
0.441544
0.443078
0.445331
0.448296
0.451962
0.456311
0.461304
0.466867
0.472883
0.479173
0.485453
0.491342
0.496483
0.500601
0.502455
0.485101
0.476702
0.469033
0.46213
0.456051
0.450811
0.446398
0.44279
0.43996
0.437885
0.436538
0.435901
0.43596
0.436687
0.43808
0.440131
0.442834
0.44618
0.450153
0.454717
0.459812
0.465339
0.471131
0.476897
0.482262
0.486903
0.490586
0.492222
0.478043
0.470056
0.462765
0.456232
0.450499
0.445571
0.441427
0.438044
0.435393
0.433449
0.432183
0.431577
0.431612
0.432261
0.433521
0.435383
0.437841
0.440888
0.444506
0.448673
0.453347
0.458444
0.463785
0.469073
0.473953
0.478135
0.481409
0.482859
0.471409
0.463836
0.45694
0.450783
0.445397
0.440776
0.436896
0.43373
0.43125
0.429429
0.428241
0.427662
0.427675
0.428251
0.429388
0.431075
0.433305
0.436069
0.439363
0.443192
0.447519
0.452222
0.45712
0.461964
0.466401
0.470135
0.47297
0.47432
0.465201
0.458048
0.451551
0.44577
0.440727
0.436408
0.432784
0.429827
0.42751
0.425807
0.42469
0.424139
0.424131
0.424642
0.425666
0.427191
0.429206
0.431713
0.434747
0.438314
0.442323
0.446634
0.451101
0.455535
0.459572
0.462879
0.465281
0.466589
0.459426
0.45269
0.446585
0.441175
0.43647
0.432448
0.429072
0.426315
0.424154
0.422562
0.421515
0.420989
0.420965
0.421417
0.422337
0.423709
0.425529
0.427841
0.43069
0.434012
0.437692
0.441625
0.445701
0.449757
0.453439
0.456394
0.458524
0.459689
0.45409
0.447752
0.442024
0.436977
0.432614
0.428887
0.425751
0.423182
0.421167
0.419679
0.418696
0.418197
0.418158
0.418558
0.419381
0.420614
0.422291
0.42448
0.427153
0.43021
0.433573
0.437167
0.440888
0.444596
0.447971
0.450668
0.452656
0.453599
0.449188
0.443232
0.437887
0.433201
0.429148
0.425692
0.422796
0.420421
0.41854
0.417146
0.416223
0.415747
0.415696
0.416046
0.416781
0.417916
0.419517
0.421592
0.42406
0.42686
0.429942
0.433231
0.436632
0.440021
0.443134
0.445628
0.447459
0.448247
0.444736
0.439179
0.434225
0.429863
0.426069
0.42284
0.420161
0.417979
0.416249
0.414955
0.414085
0.413629
0.413563
0.413867
0.414543
0.415638
0.417176
0.419103
0.421368
0.423942
0.426772
0.429788
0.432904
0.43601
0.43889
0.441209
0.442868
0.44357
0.440779
0.435628
0.431018
0.426931
0.423375
0.420353
0.417848
0.415825
0.414243
0.413067
0.412266
0.411831
0.41175
0.41203
0.412693
0.413759
0.415197
0.416968
0.419055
0.421427
0.424035
0.426811
0.429676
0.432535
0.435204
0.437367
0.438875
0.439523
0.437327
0.432535
0.428215
0.424381
0.421052
0.418225
0.41588
0.41399
0.412521
0.411443
0.410721
0.410329
0.410265
0.41055
0.411201
0.412203
0.413529
0.415164
0.417094
0.419289
0.421703
0.42427
0.426918
0.429563
0.432044
0.434071
0.435444
0.436065
0.434334
0.429852
0.425796
0.4222
0.419081
0.416434
0.414241
0.412474
0.411102
0.410098
0.409436
0.409096
0.40907
0.409363
0.409979
0.41091
0.41214
0.413661
0.415457
0.417502
0.419751
0.422143
0.424606
0.427068
0.429386
0.431296
0.432555
0.433167
0.431776
0.427566
0.423753
0.420373
0.417443
0.414958
0.412901
0.411246
0.40996
0.409021
0.408408
0.408104
0.408098
0.408389
0.408976
0.409852
0.411009
0.412437
0.414124
0.416046
0.418159
0.420405
0.422717
0.425028
0.427209
0.429024
0.430197
0.430806
0.429643
0.425673
0.422075
0.418885
0.416119
0.413774
0.411834
0.410272
0.40906
0.408174
0.407599
0.40732
0.407326
0.407614
0.40818
0.409017
0.410118
0.411476
0.413079
0.414904
0.416909
0.419042
0.421232
0.423423
0.425493
0.427236
0.42835
0.428962
0.427924
0.42416
0.420747
0.417718
0.415091
0.412863
0.411018
0.409531
0.408375
0.407531
0.406986
0.406728
0.406745
0.407033
0.407586
0.408398
0.40946
0.410768
0.412309
0.414063
0.415989
0.418037
0.420138
0.42224
0.424224
0.42592
0.426996
0.427619
0.426607
0.423016
0.419756
0.41686
0.414344
0.412209
0.410438
0.409006
0.407892
0.40708
0.406559
0.40632
0.406349
0.406642
0.407191
0.407988
0.409028
0.410304
0.411807
0.413514
0.415389
0.417382
0.419424
0.421468
0.423393
0.425064
0.426122
0.426764
0.425682
0.422231
0.419091
0.416298
0.413868
0.411801
0.410082
0.408689
0.407605
0.406815
0.406314
0.406092
0.406135
0.406436
0.406988
0.407783
0.408815
0.41008
0.411565
0.413252
0.415103
0.41707
0.419085
0.4211
0.422993
0.424667
0.425723
0.42639
0.425144
0.421797
0.418747
0.416027
0.413655
0.411632
0.409945
0.408575
0.407508
0.406733
0.406246
0.40604
0.406098
0.406413
0.406976
0.40778
0.40882
0.410091
0.411583
0.413275
0.41513
0.417102
0.419118
0.421136
0.423023
0.424722
0.425796
0.426503
0.424988
0.421713
0.418719
0.416042
0.413701
0.411699
0.410025
0.408662
0.407599
0.406831
0.406355
0.406163
0.406238
0.40657
0.407151
0.407975
0.409038
0.410336
0.411858
0.413582
0.415472
0.417478
0.419529
0.421579
0.423488
0.425236
0.426336
0.427119
0.425214
0.421977
0.419007
0.416344
0.414008
0.412004
0.410322
0.40895
0.40788
0.407111
0.406641
0.406461
0.406553
0.406906
0.407513
0.408369
0.409472
0.410818
0.412396
0.414182
0.416136
0.418208
0.420323
0.422438
0.424398
0.426217
0.427364
0.428243
0.425826
0.422593
0.419617
0.416938
0.414581
0.41255
0.41084
0.409442
0.408352
0.407573
0.407103
0.406933
0.407042
0.407421
0.408063
0.408966
0.410129
0.411548
0.413209
0.415085
0.417135
0.419304
0.421515
0.423725
0.425766
0.42768
0.4289
0.429887
0.42683
0.423569
0.420555
0.417832
0.415425
0.413343
0.411582
0.410138
0.409015
0.408218
0.407743
0.40758
0.407709
0.408121
0.408811
0.409778
0.411023
0.41254
0.414311
0.416308
0.418483
0.420781
0.423122
0.425461
0.427612
0.429649
0.430972
0.432067
0.428238
0.424917
0.421833
0.419034
0.416549
0.414387
0.412548
0.411038
0.409865
0.40904
0.408562
0.408416
0.408574
0.409027
0.409779
0.410829
0.412177
0.413815
0.415724
0.417869
0.420201
0.422661
0.425166
0.427668
0.429962
0.432156
0.433607
0.434809
0.430068
0.426653
0.423468
0.420561
0.417965
0.415692
0.413746
0.412138
0.410893
0.410042
0.409582
0.409477
0.409683
0.410185
0.411002
0.412147
0.413617
0.415398
0.417469
0.419791
0.42231
0.424966
0.427669
0.430372
0.432848
0.435244
0.43683
0.438159
0.432338
0.428798
0.425478
0.422431
0.419693
0.417278
0.415191
0.413463
0.412162
0.411299
0.410837
0.410757
0.411032
0.411623
0.412519
0.41376
0.415364
0.417309
0.419566
0.422092
0.424832
0.427719
0.430661
0.433604
0.436305
0.438936
0.440686
0.44219
0.435076
0.431379
0.427893
0.424675
0.421764
0.419179
0.416928
0.415105
0.413774
0.412871
0.41236
0.412262
0.412585
0.4133
0.414334
0.415691
0.417435
0.419563
0.422033
0.424795
0.42779
0.430947
0.43417
0.437397
0.440366
0.443264
0.445231
0.446964
0.438313
0.434427
0.430745
0.427326
0.424215
0.421429
0.419034
0.417148
0.415738
0.414739
0.414164
0.414039
0.414374
0.415178
0.416397
0.417947
0.419853
0.422175
0.424884
0.427918
0.431207
0.434678
0.438229
0.441792
0.44508
0.448302
0.45052
0.45251
0.442085
0.437981
0.434072
0.430426
0.42709
0.424088
0.421568
0.419577
0.418022
0.416906
0.416259
0.416103
0.416448
0.417306
0.418675
0.420475
0.422626
0.425169
0.428138
0.431478
0.435106
0.43894
0.442873
0.446828
0.450496
0.454103
0.456621
0.458907
0.446435
0.442082
0.437919
0.434022
0.43042
0.427214
0.424545
0.422366
0.420635
0.419388
0.418657
0.418464
0.418817
0.419733
0.421214
0.423239
0.425707
0.42855
0.431813
0.435494
0.439509
0.443761
0.448137
0.452549
0.456669
0.460731
0.463609
0.46624
0.451409
0.446778
0.442337
0.438149
0.434257
0.430837
0.42795
0.425526
0.423594
0.422199
0.421367
0.421126
0.421486
0.422464
0.424064
0.426277
0.429056
0.432288
0.435919
0.439985
0.444438
0.44917
0.454058
0.459001
0.463657
0.468257
0.471566
0.474605
0.457063
0.452132
0.447376
0.442843
0.438652
0.434968
0.431776
0.429073
0.426915
0.425346
0.424396
0.424096
0.424458
0.425502
0.427232
0.429638
0.432697
0.43634
0.440441
0.444965
0.449912
0.45519
0.460669
0.46623
0.471519
0.476756
0.48058
0.484106
0.463471
0.458206
0.453078
0.448157
0.443629
0.439598
0.436042
0.433023
0.430605
0.428834
0.427747
0.427376
0.427736
0.428848
0.430719
0.433336
0.436679
0.44071
0.445335
0.450426
0.455945
0.461843
0.468002
0.474279
0.480319
0.486306
0.49075
0.494861
0.470724
0.465053
0.459481
0.454138
0.449205
0.444731
0.440761
0.437383
0.434667
0.432665
0.431418
0.430963
0.431316
0.4325
0.434523
0.437373
0.441028
0.445453
0.450596
0.456332
0.462531
0.469146
0.476083
0.483191
0.490115
0.496986
0.502178
0.506993
0.478888
0.472726
0.466644
0.460816
0.455381
0.450387
0.445944
0.442156
0.439098
0.436831
0.435402
0.434849
0.43519
0.43645
0.438637
0.441741
0.445739
0.450597
0.456266
0.462667
0.469652
0.477103
0.484937
0.493003
0.500966
0.50887
0.514963
0.520627
0.488021
0.481291
0.474628
0.468213
0.46216
0.45657
0.451589
0.447332
0.443887
0.441319
0.439683
0.439018
0.439342
0.440683
0.443048
0.446426
0.450798
0.456129
0.46237
0.469456
0.477281
0.485695
0.494564
0.503737
0.512908
0.522008
0.529185
0.535871
0.498232
0.490836
0.483484
0.476348
0.469557
0.463279
0.457681
0.452891
0.449008
0.446105
0.444236
0.443445
0.443748
0.445174
0.447731
0.451407
0.456184
0.46203
0.468896
0.47672
0.485424
0.494883
0.504929
0.515382
0.525933
0.536406
0.544886
0.5528
0.50967
0.501475
0.493268
0.485239
0.477574
0.470497
0.464191
0.458798
0.454425
0.451149
0.449025
0.448094
0.448373
0.44989
0.452651
0.456649
0.461864
0.468268
0.475816
0.484451
0.494099
0.504669
0.515998
0.527887
0.539988
0.552012
0.562071
0.571441
0.522532
0.513337
0.50404
0.494899
0.486195
0.478185
0.471069
0.464997
0.460081
0.456396
0.453995
0.452914
0.453166
0.454781
0.457763
0.462103
0.467789
0.474796
0.483087
0.49261
0.503298
0.515062
0.527762
0.541196
0.554977
0.568736
0.580691
0.591715
0.537076
0.526585
0.515866
0.505333
0.495376
0.486277
0.478234
0.471404
0.465893
0.461768
0.459071
0.457833
0.458059
0.459779
0.462993
0.467698
0.473889
0.48155
0.49065
0.501142
0.512965
0.526027
0.540183
0.555227
0.570766
0.5864
0.600496
0.613189
0.55366
0.541435
0.528838
0.516562
0.505101
0.494728
0.485627
0.47795
0.471789
0.467189
0.464174
0.462761
0.462952
0.464772
0.468226
0.473315
0.480051
0.488428
0.498415
0.509969
0.523022
0.537475
0.55316
0.569854
0.587142
0.604639
0.620775
0.634609
0.572766
0.558149
0.543036
0.528575
0.51532
0.503464
0.493162
0.484546
0.477677
0.472564
0.469204
0.467599
0.467748
0.469675
0.473386
0.478888
0.486196
0.495329
0.506277
0.518979
0.533354
0.549274
0.566539
0.584862
0.603768
0.622851
0.640303
0.653911
0.594972
0.576899
0.558345
0.541153
0.525777
0.512213
0.500571
0.490955
0.483357
0.477725
0.474027
0.472249
0.472384
0.474452
0.478452
0.484397
0.492307
0.502216
0.514134
0.528014
0.543768
0.561221
0.580097
0.599967
0.620217
0.640247
0.657644
0.669453
0.620912
0.597606
0.574421
0.553963
0.536124
0.520592
0.507473
0.496823
0.488518
0.482409
0.478423
0.476525
0.476706
0.478964
0.483282
0.489672
0.49817
0.508825
0.521686
0.536765
0.553969
0.573063
0.593647
0.615009
0.63625
0.656058
0.671211
0.680216
0.650912
0.61924
0.590295
0.566471
0.546104
0.528547
0.513974
0.502355
0.493404
0.486863
0.482608
0.48057
0.480713
0.483013
0.487496
0.494208
0.503205
0.514564
0.528396
0.544762
0.563583
0.584569
0.607111
0.630013
0.651779
0.669369
0.679181
0.683828
0.68467
0.639515
0.603702
0.576439
0.553448
0.533941
0.518161
0.505809
0.496356
0.489478
0.485026
0.482889
0.483031
0.485396
0.490057
0.497106
0.506632
0.518757
0.53363
0.551351
0.571876
0.59486
0.619392
0.643582
0.664673
0.677722
0.681506
0.682598
0.71964
0.66058
0.619504
0.588431
0.562188
0.540445
0.523253
0.509928
0.499746
0.492303
0.487396
0.484933
0.484833
0.487138
0.491852
0.499031
0.508805
0.521331
0.536779
0.555269
0.576759
0.60084
0.6264
0.650954
0.669945
0.679105
0.68135
0.681867
0.919119
0.914177
0.909553
0.904807
0.899023
0.891111
0.880119
0.865598
0.848203
0.828979
0.808441
0.78663
0.928633
0.923126
0.917103
0.909912
0.900246
0.887313
0.871138
0.852302
0.831646
0.809736
0.786509
0.761756
0.938066
0.932148
0.924368
0.91389
0.899553
0.881447
0.860634
0.838101
0.81438
0.789497
0.763048
0.73485
0.945541
0.939436
0.929445
0.91512
0.895958
0.873175
0.848518
0.8228
0.79605
0.767873
0.737836
0.706125
0.950341
0.942871
0.930544
0.912375
0.888925
0.862394
0.834674
0.806116
0.776285
0.74462
0.71104
0.676476
0.950534
0.941235
0.926683
0.905117
0.878362
0.849127
0.819001
0.787818
0.754875
0.719824
0.683341
0.647337
0.944161
0.933952
0.917551
0.893403
0.864467
0.833454
0.801407
0.767765
0.731853
0.693973
0.655823
0.620219
0.932029
0.921254
0.903409
0.877663
0.847582
0.815492
0.78188
0.746016
0.70757
0.667884
0.629674
0.59621
0.915743
0.903913
0.885005
0.858529
0.828102
0.795439
0.76057
0.722828
0.682551
0.642509
0.605839
0.575722
0.895199
0.88246
0.863162
0.836672
0.806455
0.773608
0.737846
0.698702
0.657935
0.618727
0.58482
0.558557
0.870409
0.857532
0.838622
0.812713
0.783116
0.750442
0.714212
0.673769
0.634296
0.597034
0.566655
0.544156
0.842624
0.830184
0.812172
0.787277
0.7586
0.72628
0.690142
0.650738
0.612036
0.577657
0.55105
0.531868
0.813307
0.801549
0.784644
0.761005
0.733472
0.701727
0.665972
0.628808
0.591504
0.560624
0.537568
0.521117
0.783508
0.772526
0.75679
0.734504
0.708282
0.677499
0.642001
0.606443
0.572678
0.545635
0.525752
0.511474
0.753952
0.743772
0.729217
0.70831
0.683433
0.654015
0.620225
0.586322
0.555942
0.532414
0.515241
0.50265
0.725188
0.715788
0.702385
0.682865
0.659313
0.631334
0.600339
0.568344
0.541183
0.520749
0.505775
0.494474
0.697617
0.688953
0.67663
0.658499
0.636344
0.609697
0.580789
0.551854
0.528054
0.510316
0.49712
0.486838
0.671506
0.663552
0.65224
0.635476
0.614849
0.589535
0.56281
0.537039
0.516312
0.500824
0.48911
0.47968
0.647053
0.639799
0.629453
0.613997
0.595046
0.571574
0.547047
0.523956
0.505784
0.492151
0.48168
0.472981
0.624399
0.617826
0.608403
0.594163
0.576834
0.555818
0.533056
0.512365
0.49632
0.484237
0.474805
0.46674
0.603617
0.597679
0.589121
0.576009
0.559985
0.541057
0.520296
0.502007
0.487783
0.477015
0.468464
0.460965
0.584719
0.57936
0.571587
0.55955
0.54466
0.527216
0.508769
0.49272
0.480068
0.470424
0.462641
0.455659
0.56768
0.562847
0.555785
0.544787
0.531049
0.515043
0.498658
0.484442
0.473132
0.464446
0.457324
0.450817
0.552451
0.548102
0.541687
0.531692
0.519044
0.504643
0.489884
0.47713
0.466959
0.459082
0.452509
0.446445
0.538964
0.53506
0.529228
0.52022
0.508739
0.495679
0.48223
0.470719
0.461521
0.454326
0.448217
0.442576
0.527135
0.523637
0.5183
0.510207
0.500094
0.487867
0.475565
0.465144
0.456775
0.450166
0.444473
0.439217
0.516869
0.513743
0.508834
0.501407
0.492371
0.480982
0.469831
0.460347
0.452682
0.446581
0.441264
0.436348
0.508076
0.505276
0.500771
0.493779
0.485377
0.475023
0.464974
0.456274
0.449211
0.443548
0.438563
0.433946
0.500669
0.498139
0.493999
0.487413
0.479537
0.4701
0.460942
0.45289
0.446344
0.44105
0.436352
0.431995
0.494574
0.492264
0.488433
0.482271
0.474911
0.46619
0.457702
0.45018
0.444063
0.439073
0.434619
0.430482
0.489726
0.487601
0.484015
0.478246
0.471349
0.463188
0.455219
0.448126
0.442355
0.437609
0.433355
0.429399
0.486062
0.484093
0.480695
0.475211
0.468741
0.46102
0.453461
0.446708
0.441205
0.436647
0.432552
0.428738
0.483533
0.481687
0.478445
0.473314
0.467059
0.459655
0.452409
0.445906
0.440599
0.436181
0.432206
0.428495
0.48209
0.480338
0.477184
0.472366
0.46622
0.459076
0.452051
0.445705
0.440531
0.43621
0.432315
0.428671
0.481681
0.480006
0.476851
0.472072
0.466167
0.459256
0.452367
0.446107
0.441008
0.436736
0.432882
0.429266
0.482281
0.480659
0.477493
0.47268
0.466972
0.460187
0.453351
0.447119
0.442041
0.437769
0.433912
0.430288
0.483876
0.4823
0.479146
0.474352
0.468677
0.461883
0.455014
0.448748
0.443636
0.439316
0.435416
0.431747
0.486461
0.484923
0.481766
0.477027
0.471244
0.464349
0.457373
0.451006
0.445802
0.441389
0.437408
0.43366
0.490027
0.488509
0.485291
0.48054
0.474615
0.467583
0.460437
0.453905
0.448554
0.444007
0.439908
0.436047
0.494564
0.493047
0.489714
0.484866
0.478795
0.471595
0.464221
0.457467
0.451917
0.447194
0.442941
0.438933
0.500068
0.498541
0.495071
0.49008
0.48383
0.476411
0.468751
0.461719
0.455919
0.450978
0.446535
0.44235
0.506547
0.505001
0.501384
0.496222
0.489751
0.482061
0.474063
0.466696
0.460596
0.455396
0.450728
0.446332
0.514008
0.512435
0.508657
0.503301
0.496576
0.488575
0.480195
0.472443
0.465991
0.460489
0.45556
0.450922
0.522455
0.520846
0.516895
0.511323
0.504319
0.495984
0.487192
0.479006
0.472152
0.466306
0.461081
0.456168
0.531889
0.530238
0.526106
0.520301
0.512998
0.504321
0.495108
0.486442
0.479138
0.472906
0.467346
0.462126
0.542306
0.540609
0.536298
0.530251
0.522628
0.513626
0.503998
0.494814
0.487016
0.480355
0.474422
0.468858
0.553697
0.551947
0.54747
0.541192
0.533198
0.523951
0.513916
0.504191
0.495864
0.488732
0.482381
0.476457
0.566044
0.56423
0.559612
0.553155
0.544763
0.535358
0.524915
0.514654
0.505776
0.498129
0.491341
0.485044
0.579306
0.57743
0.572703
0.566156
0.557586
0.547907
0.537056
0.526295
0.516861
0.508678
0.501453
0.494716
0.593419
0.5915
0.586711
0.580106
0.571563
0.561559
0.550391
0.539211
0.529235
0.520557
0.512873
0.505566
0.608307
0.606357
0.601543
0.594877
0.586361
0.576249
0.564962
0.5535
0.54307
0.533955
0.525738
0.517742
0.623875
0.621895
0.617074
0.610419
0.601987
0.591995
0.580803
0.569249
0.558564
0.549063
0.540227
0.53147
0.640014
0.638008
0.633216
0.626683
0.618476
0.608797
0.597929
0.586558
0.575867
0.566081
0.556643
0.547074
0.6566
0.654572
0.649854
0.643544
0.63572
0.626562
0.616289
0.60548
0.595117
0.585267
0.575391
0.564984
0.673493
0.671434
0.666824
0.660814
0.65352
0.645115
0.635766
0.625963
0.616403
0.606947
0.596981
0.585775
0.690539
0.688414
0.683925
0.67827
0.671628
0.664204
0.65614
0.647836
0.639722
0.631429
0.622019
0.610207
0.707571
0.705328
0.70094
0.695661
0.689751
0.683481
0.677031
0.670748
0.664889
0.658874
0.651163
0.639293
0.724416
0.721985
0.717647
0.712716
0.707542
0.702509
0.69789
0.694074
0.691335
0.689037
0.684988
0.674478
0.740915
0.738207
0.733822
0.729145
0.72462
0.72077
0.717996
0.716834
0.717844
0.72074
0.723442
0.717925
0.756853
0.753814
0.749248
0.744678
0.740609
0.737725
0.736525
0.737748
0.742424
0.751056
0.763988
0.772486
0.770938
0.767126
0.762183
0.757528
0.753602
0.751229
0.750906
0.753468
0.760237
0.772069
0.791566
0.822148
0.782878
0.778194
0.772827
0.767941
0.763918
0.761669
0.761559
0.764419
0.771326
0.782874
0.798084
0.823696
0.793748
0.78847
0.782719
0.777517
0.773241
0.770753
0.770485
0.772874
0.778334
0.787119
0.794769
0.806359
0.790096
0.792839
0.792879
0.792416
0.791267
0.789357
0.786838
0.783973
0.781023
0.778203
0.775674
0.773548
0.771897
0.770802
0.770345
0.770526
0.771315
0.772756
0.774878
0.777633
0.780975
0.784752
0.788635
0.792235
0.795267
0.796976
0.797071
0.796879
0.793911
0.794071
0.793561
0.792676
0.791216
0.789105
0.786478
0.783575
0.780623
0.777816
0.7753
0.77317
0.771484
0.770332
0.769831
0.769962
0.770609
0.771892
0.773847
0.776387
0.779482
0.783008
0.786747
0.790421
0.793698
0.795972
0.796811
0.796793
0.79615
0.795177
0.794315
0.792809
0.790789
0.788329
0.785549
0.782616
0.779701
0.776954
0.774494
0.77241
0.770762
0.769622
0.769072
0.769122
0.76973
0.770925
0.772718
0.775072
0.777925
0.781173
0.784658
0.788183
0.79152
0.794346
0.796109
0.796406
0.795846
0.795208
0.794304
0.792402
0.789977
0.787244
0.784337
0.781381
0.7785
0.775806
0.773394
0.771344
0.769718
0.76858
0.76798
0.767941
0.768459
0.769546
0.771188
0.77335
0.775973
0.778967
0.782205
0.785529
0.788789
0.791869
0.794296
0.795133
0.794743
0.794237
0.793389
0.79138
0.788784
0.785915
0.782942
0.779981
0.777132
0.774485
0.77212
0.770105
0.768501
0.767362
0.76673
0.766626
0.767052
0.768015
0.769497
0.771462
0.773852
0.776588
0.779565
0.782654
0.785747
0.788808
0.791472
0.792671
0.793594
0.79275
0.791883
0.789891
0.78726
0.784359
0.781381
0.778446
0.775644
0.773051
0.770735
0.76876
0.767178
0.766038
0.765374
0.765211
0.765548
0.76639
0.767716
0.769492
0.771661
0.774151
0.776869
0.779702
0.782563
0.785436
0.78804
0.789339
0.792208
0.790941
0.790031
0.788103
0.785504
0.782639
0.779704
0.776824
0.774085
0.771554
0.769295
0.767362
0.765805
0.764665
0.763975
0.763757
0.764009
0.764734
0.765912
0.767509
0.769472
0.771731
0.774199
0.776774
0.779367
0.781952
0.784316
0.785564
0.790599
0.789005
0.78794
0.786135
0.783615
0.780826
0.777969
0.775166
0.772501
0.770041
0.767841
0.765954
0.764424
0.763289
0.762576
0.762307
0.762481
0.763097
0.764138
0.765568
0.767337
0.76938
0.771613
0.773936
0.776255
0.77852
0.780567
0.781683
0.788999
0.787075
0.785782
0.784087
0.781665
0.778976
0.776218
0.773507
0.770928
0.768544
0.766409
0.764571
0.763071
0.761943
0.761213
0.7609
0.761002
0.761518
0.762431
0.763707
0.765298
0.76714