/*--------------------------------*- C++ -*----------------------------------*\
| =========                 |                                                 |
| \\      /  F ield         | OpenFOAM: The Open Source CFD Toolbox           |
|  \\    /   O peration     | Version:  v2012                                 |
|   \\  /    A nd           | Website:  www.openfoam.com                      |
|    \\/     M anipulation  |                                                 |
\*---------------------------------------------------------------------------*/
FoamFile
{
    version     2.0;
    format      ascii;
    class       surfaceScalarField;
    location    "696";
    object      phi;
}
// * * * * * * * * * * * * * * * * * * * * * * * * * * * * * * * * * * * * * //

dimensions      [0 3 -1 0 0 0 0];
oriented        oriented;


internalField   nonuniform List<scalar> 
11821
(
-0.000191618
3.18058e-07
0.0001913
-0.000191962
3.43739e-07
-0.000192329
3.66538e-07
-0.000192714
3.85739e-07
-0.000193116
4.0154e-07
-0.000193531
4.14749e-07
-0.000193957
4.26026e-07
-0.000194392
4.35829e-07
-0.000194837
4.44304e-07
-0.000195289
4.52068e-07
-0.000195748
4.59183e-07
-0.000196214
4.66129e-07
-0.000196687
4.73105e-07
-0.000197167
4.80026e-07
-0.000197653
4.85597e-07
-0.00019814
4.87546e-07
-0.000198628
4.87205e-07
-0.000199122
4.94941e-07
-0.000199624
5.01316e-07
3.76191e-07
-0.000201665
2.11333e-07
0.000201772
-0.000201576
2.54088e-07
-0.000201499
2.90278e-07
-0.000201433
3.18944e-07
-0.000201371
3.40343e-07
-0.000201313
3.56468e-07
-0.000201256
3.69075e-07
-0.000201199
3.78667e-07
-0.00020114
3.85754e-07
-0.00020108
3.91248e-07
-0.000201016
3.95366e-07
-0.000200948
3.98429e-07
-0.000200875
4.00381e-07
-0.000200797
4.01439e-07
-0.000200711
4.00345e-07
-0.000200618
3.93992e-07
-0.00020051
3.79343e-07
-0.000200374
3.5921e-07
-0.000200218
3.45349e-07
1.57812e-07
-0.000202579
2.11233e-08
0.000202769
-0.000202407
8.22536e-08
-0.000202248
1.31211e-07
-0.000202098
1.69316e-07
-0.000201956
1.986e-07
-0.00020182
2.201e-07
-0.000201686
2.35212e-07
-0.000201554
2.46098e-07
-0.000201422
2.53779e-07
-0.00020129
2.5921e-07
-0.000201157
2.62854e-07
-0.000201024
2.65034e-07
-0.000200889
2.66066e-07
-0.000200754
2.66162e-07
-0.000200618
2.6392e-07
-0.00020048
2.56325e-07
-0.000200345
2.44216e-07
-0.000200221
2.348e-07
-0.000200082
2.06539e-07
7.60684e-08
-0.000202544
-1.77814e-07
0.000202743
-0.000202367
-9.42473e-08
-0.000202206
-3.03637e-08
-0.000202054
1.74277e-08
-0.000201908
5.23676e-08
-0.000201765
7.72534e-08
-0.000201624
9.4753e-08
-0.000201485
1.07114e-07
-0.000201347
1.15806e-07
-0.00020121
1.2191e-07
-0.000201073
1.26089e-07
-0.000200937
1.28787e-07
-0.000200801
1.30418e-07
-0.000200666
1.31144e-07
-0.000200532
1.29958e-07
-0.000200401
1.25304e-07
-0.000200276
1.19097e-07
-0.000200156
1.14268e-07
-0.000200043
9.37822e-08
3.31298e-08
-0.000202456
-3.66446e-07
0.000202645
-0.00020229
-2.59775e-07
-0.000202138
-1.82826e-07
-0.000201993
-1.27499e-07
-0.000201852
-8.85771e-08
-0.000201713
-6.166e-08
-0.000201575
-4.31155e-08
-0.000201438
-3.01575e-08
-0.000201301
-2.10969e-08
-0.000201164
-1.47635e-08
-0.000201028
-1.03265e-08
-0.000200892
-7.21365e-09
-0.000200757
-5.02694e-09
-0.000200622
-3.49441e-09
-0.00020049
-2.41846e-09
-0.000200363
-1.65651e-09
-0.000200242
-1.10856e-09
-0.000200127
-7.05076e-10
-0.000200033
-3.92808e-10
-1.29192e-10
-0.000202386
-5.33614e-07
0.000202554
-0.00020224
-4.06278e-07
-0.000202102
-3.20891e-07
-0.000201968
-2.61795e-07
-0.000201834
-2.21784e-07
-0.000201701
-1.95003e-07
-0.000201567
-1.77189e-07
-0.000201432
-1.64845e-07
-0.000201297
-1.56202e-07
-0.000201162
-1.50182e-07
-0.000201026
-1.45862e-07
-0.000200891
-1.42601e-07
-0.000200756
-1.40041e-07
-0.000200621
-1.37831e-07
-0.000200489
-1.34586e-07
-0.000200362
-1.28474e-07
-0.000200242
-1.21219e-07
-0.000200127
-1.15617e-07
-0.000200033
-9.4535e-08
-3.3377e-08
-0.000202337
-6.68113e-07
0.000202472
-0.000202219
-5.2474e-07
-0.0002021
-4.39646e-07
-0.000201979
-3.82718e-07
-0.000201856
-3.45397e-07
-0.000201729
-3.21235e-07
-0.0002016
-3.06585e-07
-0.000201468
-2.96466e-07
-0.000201336
-2.88965e-07
-0.000201202
-2.83827e-07
-0.000201068
-2.80068e-07
-0.000200933
-2.7707e-07
-0.000200799
-2.74435e-07
-0.000200665
-2.71964e-07
-0.000200531
-2.67937e-07
-0.000200401
-2.59083e-07
-0.000200276
-2.46062e-07
-0.000200156
-2.35972e-07
-0.000200043
-2.07199e-07
-7.62806e-08
-0.000202246
-7.36973e-07
0.000202315
-0.000202182
-5.88625e-07
-0.000202096
-5.25769e-07
-0.000201996
-4.82746e-07
-0.000201884
-4.56807e-07
-0.000201767
-4.38652e-07
-0.000201648
-4.25707e-07
-0.000201527
-4.17355e-07
-0.000201403
-4.12725e-07
-0.000201277
-4.10051e-07
-0.000201148
-4.08523e-07
-0.000201018
-4.07652e-07
-0.000200886
-4.06749e-07
-0.000200752
-4.05825e-07
-0.000200616
-4.03396e-07
-0.000200479
-3.961e-07
-0.000200344
-3.8076e-07
-0.00020022
-3.60103e-07
-0.000200082
-3.45868e-07
-1.57961e-07
-0.000201165
-6.18464e-07
0.000201047
-0.000201229
-5.24772e-07
-0.000201256
-4.98611e-07
-0.000201261
-4.77424e-07
-0.000201252
-4.66372e-07
-0.000201231
-4.59848e-07
-0.000201199
-4.57174e-07
-0.000201159
-4.57202e-07
-0.000201113
-4.59172e-07
-0.000201061
-4.62388e-07
-0.000201003
-4.66368e-07
-0.000200939
-4.71107e-07
-0.00020087
-4.76483e-07
-0.000200793
-4.82355e-07
-0.000200709
-4.87225e-07
-0.000200617
-4.88672e-07
-0.000200509
-4.8794e-07
-0.000200374
-4.95412e-07
-0.000200218
-5.01636e-07
-3.76285e-07
-0.000191004
0.000190385
-0.000191528
-0.000192027
-0.000192504
-0.000192971
-0.000193431
-0.000193888
-0.000194345
-0.000194804
-0.000195267
-0.000195733
-0.000196204
-0.00019668
-0.000197163
-0.00019765
-0.000198139
-0.000198627
-0.000199122
-0.000199624
2.66926e-06
3.94895e-06
-6.61821e-06
-6.81867e-06
9.48793e-06
-2.29105e-05
1.60918e-05
-4.44568e-05
2.15463e-05
-6.83629e-05
2.39061e-05
-9.06926e-05
2.23297e-05
-0.000109515
1.88228e-05
-0.000124816
1.53005e-05
-0.000137324
1.25077e-05
-0.000147633
1.03091e-05
-0.000156186
8.55335e-06
-0.000163298
7.11173e-06
-0.000169194
5.8963e-06
-0.000174049
4.85474e-06
-0.000178005
3.95645e-06
-0.000181185
3.17958e-06
-0.000183696
2.51137e-06
-0.000185639
1.94301e-06
-0.000187107
1.46774e-06
-0.000188186
1.07938e-06
-0.000188965
7.78881e-07
-0.000189517
5.51706e-07
-0.000189915
3.9767e-07
-0.000190222
3.06996e-07
-0.000190485
2.63831e-07
-0.000190741
2.55268e-07
-0.000191009
2.68058e-07
2.91446e-07
-3.26057e-05
2.43196e-05
1.22351e-05
-5.77484e-05
3.46306e-05
-8.32992e-05
4.16426e-05
-0.000105658
4.3905e-05
-0.000122952
4.12005e-05
-0.00013631
3.56878e-05
-0.000147474
2.99868e-05
-0.0001573
2.51265e-05
-0.000165857
2.10647e-05
-0.000173239
1.76907e-05
-0.000179534
1.48482e-05
-0.000184838
1.24163e-05
-0.000189248
1.03062e-05
-0.000192853
8.45924e-06
-0.000195737
6.84082e-06
-0.000197987
5.42913e-06
-0.000199684
4.20846e-06
-0.000200908
3.1669e-06
-0.000201735
2.2953e-06
-0.00020224
1.58423e-06
-0.000202487
1.02602e-06
-0.000202547
6.11685e-07
-0.000202487
3.37566e-07
-0.000202361
1.80538e-07
-0.000202204
1.07374e-07
-0.000202045
9.581e-08
-0.000201899
1.2192e-07
1.64859e-07
-7.80717e-05
5.06342e-05
5.17571e-05
-0.000101628
5.8187e-05
-0.000120057
6.00717e-05
-0.000133227
5.7075e-05
-0.000143095
5.10686e-05
-0.000151736
4.43283e-05
-0.000159878
3.81286e-05
-0.000167453
3.2702e-05
-0.000174348
2.79592e-05
-0.000180477
2.38202e-05
-0.000185806
2.01772e-05
-0.000190343
1.69526e-05
-0.000194122
1.40856e-05
-0.000197197
1.1534e-05
-0.000199626
9.27021e-06
-0.000201476
7.27954e-06
-0.000202818
5.55004e-06
-0.000203721
4.0695e-06
-0.000204255
2.82926e-06
-0.000204495
1.82471e-06
-0.000204516
1.04684e-06
-0.000204381
4.76652e-07
-0.000204133
8.94645e-08
-0.000203824
-1.28712e-07
-0.000203513
-2.03403e-07
-0.000203231
-1.86329e-07
-0.000202984
-1.24658e-07
-5.01987e-08
-0.00010995
7.19877e-05
8.85962e-05
-0.000125537
7.37737e-05
-0.000136212
7.07475e-05
-0.000144077
6.49398e-05
-0.000151154
5.81451e-05
-0.000158266
5.14405e-05
-0.000165313
4.51763e-05
-0.000172023
3.94114e-05
-0.000178216
3.41525e-05
-0.000183774
2.93785e-05
-0.000188639
2.50421e-05
-0.000192793
2.11059e-05
-0.000196249
1.75424e-05
-0.000199048
1.43324e-05
-0.000201237
1.14593e-05
-0.00020287
8.91305e-06
-0.000204012
6.692e-06
-0.00020473
4.78684e-06
-0.00020509
3.18945e-06
-0.000205162
1.89706e-06
-0.000205016
9.00827e-07
-0.000204721
1.81314e-07
-0.000204346
-2.8522e-07
-0.000203951
-5.23767e-07
-0.000203576
-5.78445e-07
-0.000203248
-5.14156e-07
-0.000202974
-3.99179e-07
-2.81266e-07
-0.000126478
8.59398e-05
0.000112526
-0.000135826
8.31218e-05
-0.00014278
7.77018e-05
-0.00014914
7.12999e-05
-0.0001557
6.4705e-05
-0.000162436
5.81763e-05
-0.000169081
5.18211e-05
-0.000175408
4.5739e-05
-0.000181256
4.00005e-05
-0.000186513
3.46356e-05
-0.000191115
2.96441e-05
-0.000195033
2.5023e-05
-0.000198269
2.07792e-05
-0.000200857
1.69198e-05
-0.000202841
1.34435e-05
-0.000204274
1.03458e-05
-0.000205217
7.63549e-06
-0.00020574
5.30908e-06
-0.000205906
3.35629e-06
-0.000205789
1.77985e-06
-0.000205465
5.76247e-07
-0.000205009
-2.7417e-07
-0.000204494
-8.00495e-07
-0.000203982
-1.03528e-06
-0.000203526
-1.03502e-06
-0.000203155
-8.85191e-07
-0.00020287
-6.83925e-07
-5.06689e-07
-0.00013357
9.4704e-05
0.000124806
-0.000140209
8.97604e-05
-0.000146403
8.38953e-05
-0.00015284
7.77374e-05
-0.000159525
7.13899e-05
-0.000166236
6.48874e-05
-0.000172762
5.83469e-05
-0.00017892
5.18975e-05
-0.000184571
4.56511e-05
-0.00018962
3.96846e-05
-0.000194007
3.40311e-05
-0.000197699
2.87145e-05
-0.000200699
2.37798e-05
-0.000203045
1.92652e-05
-0.000204785
1.51843e-05
-0.000205978
1.15385e-05
-0.000206682
8.33995e-06
-0.000206971
5.59779e-06
-0.000206909
3.29377e-06
-0.000206564
1.43509e-06
-0.00020602
3.27087e-08
-0.000205363
-9.31278e-07
-0.000204672
-1.49147e-06
-0.000204013
-1.69433e-06
-0.000203455
-1.5932e-06
-0.000203035
-1.30538e-06
-0.000202755
-9.63959e-07
-7.07967e-07
-0.000136727
0.000101306
0.000130125
-0.000143008
9.60416e-05
-0.00014959
9.04772e-05
-0.000156453
8.45998e-05
-0.000163382
7.83194e-05
-0.000170199
7.17045e-05
-0.000176738
6.48851e-05
-0.000182823
5.79831e-05
-0.00018833
5.11581e-05
-0.000193187
4.45419e-05
-0.000197354
3.81979e-05
-0.000200804
3.21645e-05
-0.000203549
2.65247e-05
-0.000205634
2.13498e-05
-0.000207112
1.66627e-05
-0.000208043
1.24695e-05
-0.000208469
8.76544e-06
-0.00020848
5.60919e-06
-0.000208146
2.96016e-06
-0.000207516
8.04618e-07
-0.00020669
-7.93116e-07
-0.000205769
-1.8518e-06
-0.000204858
-2.40344e-06
-0.000204
-2.55179e-06
-0.000203327
-2.26624e-06
-0.00020286
-1.77239e-06
-0.000202616
-1.20774e-06
-8.52351e-07
-0.000138911
0.000107725
0.000132493
-0.000145739
0.00010287
-0.000152934
9.76717e-05
-0.000160264
9.19302e-05
-0.000167532
8.55868e-05
-0.000174575
7.8748e-05
-0.000181225
7.15344e-05
-0.000187298
6.40569e-05
-0.000192672
5.65322e-05
-0.000197303
4.9173e-05
-0.000201206
4.21008e-05
-0.000204354
3.53121e-05
-0.000206738
2.89089e-05
-0.000208436
2.30481e-05
-0.000209525
1.7751e-05
-0.000210086
1.30309e-05
-0.000210214
8.89373e-06
-0.000209889
5.28393e-06
-0.000209189
2.25983e-06
-0.000208253
-1.31403e-07
-0.000207131
-1.91483e-06
-0.000205938
-3.04458e-06
-0.000204809
-3.53232e-06
-0.000203746
-3.61495e-06
-0.000203007
-3.00503e-06
-0.000202525
-2.25459e-06
-0.000202344
-1.38948e-06
-8.81304e-07
-0.000141208
0.000114803
0.00013413
-0.000148824
0.000110486
-0.00015672
0.000105568
-0.000164636
9.98463e-05
-0.000172339
9.3289e-05
-0.000179575
8.59844e-05
-0.000186147
7.81062e-05
-0.000191812
6.97219e-05
-0.000196409
6.11291e-05
-0.000199971
5.27348e-05
-0.000202548
4.46787e-05
-0.00020445
3.72134e-05
-0.000205976
3.04355e-05
-0.000207163
2.42348e-05
-0.000207988
1.8576e-05
-0.000208435
1.34781e-05
-0.000208537
8.99538e-06
-0.000208346
5.09308e-06
-0.000207878
1.79166e-06
-0.000207121
-8.87964e-07
-0.000206097
-2.93884e-06
-0.000204886
-4.25549e-06
-0.000203621
-4.79804e-06
-0.000202432
-4.80369e-06
-0.000201459
-3.97816e-06
-0.000200819
-2.89497e-06
-0.000200605
-1.60303e-06
-4.39708e-07
-0.000143945
0.000135934
0.000122814
-0.000152394
0.000118935
-0.00016089
0.000114064
-0.000169014
0.000107971
-0.000176321
0.000100596
-0.000182286
9.19496e-05
-0.00018662
8.24407e-05
-0.000189559
7.26607e-05
-0.000191312
6.28817e-05
-0.000191795
5.32178e-05
-0.000191119
4.40027e-05
-0.000189521
3.56157e-05
-0.000187256
2.81708e-05
-0.000184703
2.16813e-05
-0.0001822
1.60726e-05
-0.000179947
1.12253e-05
-0.000178121
7.16935e-06
-0.000176834
3.80675e-06
-0.000176106
1.063e-06
-0.000176037
-9.57092e-07
-0.000176679
-2.29623e-06
-0.000177949
-2.98556e-06
-0.000179667
-3.07985e-06
-0.000181775
-2.69564e-06
-0.000183922
-1.83127e-06
-0.000185933
-8.84774e-07
-0.000187486
-4.93561e-08
2.45914e-06
8.96509e-06
-8.9651e-06
2.10014e-05
-1.20363e-05
2.85656e-05
-7.56421e-06
3.04637e-05
-1.89808e-06
2.76895e-05
2.7742e-06
2.15201e-05
6.16942e-06
1.38057e-05
7.71443e-06
7.39876e-06
6.40692e-06
4.91362e-06
2.48513e-06
5.97519e-06
-1.06158e-06
7.40362e-06
-1.42842e-06
7.85406e-07
1.23791e-05
-2.13442e-05
2.22603e-05
-2.19176e-05
2.75268e-05
-1.28307e-05
2.88118e-05
-3.18304e-06
2.68192e-05
4.76674e-06
2.25869e-05
1.04018e-05
1.7002e-05
1.32993e-05
1.14518e-05
1.19571e-05
7.79396e-06
6.14297e-06
5.2961e-06
1.43628e-06
-2.82487e-08
3.89592e-06
1.29923e-05
1.2247e-05
-3.35912e-05
1.90189e-05
-2.86895e-05
2.1655e-05
-1.54668e-05
2.16032e-05
-3.1312e-06
1.94998e-05
6.87013e-06
1.57556e-05
1.4146e-05
1.1191e-05
1.78639e-05
6.91546e-06
1.62326e-05
2.58836e-06
1.04701e-05
-7.56496e-06
1.15896e-05
-2.67801e-05
2.3111e-05
3.79694e-05
9.67703e-06
-4.32682e-05
1.31642e-05
-3.21767e-05
1.35693e-05
-1.58719e-05
1.22356e-05
-1.79751e-06
9.61884e-06
9.48689e-06
5.85856e-06
1.79063e-05
1.83511e-06
2.18874e-05
-2.80538e-06
2.0873e-05
-1.42027e-05
2.18674e-05
-3.5895e-05
3.32819e-05
-6.26859e-05
4.9902e-05
6.38796e-05
6.41442e-06
-4.96826e-05
7.24905e-06
-3.30113e-05
5.98118e-06
-1.4604e-05
3.44452e-06
7.39146e-07
-1.52389e-07
1.30838e-05
-4.30409e-06
2.2058e-05
-9.42606e-06
2.70094e-05
-2.00867e-05
3.15337e-05
-4.08635e-05
4.26442e-05
-6.74148e-05
5.98332e-05
-9.25666e-05
7.50538e-05
8.38388e-05
3.3802e-06
-5.30628e-05
2.27172e-06
-3.19029e-05
-3.06558e-07
-1.20258e-05
-4.08775e-06
4.52034e-06
-8.74307e-06
1.77391e-05
-1.4669e-05
2.79839e-05
-2.48293e-05
3.71696e-05
-4.3254e-05
4.99584e-05
-6.81595e-05
6.75496e-05
-9.24824e-05
8.41561e-05
-0.000111624
9.4195e-05
9.70216e-05
7.6386e-07
-5.38267e-05
-1.72469e-06
-2.94143e-05
-5.53776e-06
-8.21268e-06
-1.06131e-05
9.59572e-06
-1.73173e-05
2.44433e-05
-2.75043e-05
3.8171e-05
-4.40173e-05
5.36826e-05
-6.65749e-05
7.2516e-05
-8.98438e-05
9.08185e-05
-0.000108591
0.000102903
-0.000121517
0.000107121
0.00010563
-1.49292e-06
-5.23338e-05
-5.23025e-06
-2.5677e-05
-1.04478e-05
-2.99509e-06
-1.75276e-05
1.66755e-05
-2.77308e-05
3.46465e-05
-4.30168e-05
5.3457e-05
-6.35028e-05
7.41685e-05
-8.55273e-05
9.45405e-05
-0.000104106
0.000109397
-0.000117137
0.000115935
-0.000125821
0.000115804
0.000112302
-3.55134e-06
-4.87824e-05
-8.82756e-06
-2.04008e-05
-1.59144e-05
4.09177e-06
-2.59205e-05
2.66816e-05
-4.02205e-05
4.89465e-05
-5.9039e-05
7.22755e-05
-7.98774e-05
9.50069e-05
-9.84033e-05
0.000113066
-0.000111866
0.00012286
-0.000120829
0.000124897
-0.000127602
0.000122578
0.000118829
-5.88588e-06
-4.28965e-05
-1.29037e-05
-1.3383e-05
-2.24702e-05
1.36582e-05
-3.58481e-05
4.00596e-05
-5.33184e-05
6.64168e-05
-7.3044e-05
9.20011e-05
-9.15e-05
0.000113463
-0.000105638
0.000127204
-0.000115156
0.000132378
-0.000122102
0.000131844
-0.000128676
0.000129152
0.000126086
-0.000156211
0.00013221
0.000146816
-0.000165563
0.000128287
-0.000174113
0.000122613
-0.000181022
0.00011488
-0.000185642
0.000105216
-0.000187804
9.41115e-05
-0.000187292
8.19288e-05
-0.000184017
6.9385e-05
-0.000178363
5.72285e-05
-0.000171023
4.58775e-05
-0.000162789
3.57683e-05
-0.000154181
2.70077e-05
-0.000145504
1.94945e-05
-0.000136983
1.31598e-05
-0.00012879
7.87985e-06
-0.000121064
3.49898e-06
-0.000113768
-1.26796e-07
-0.000106612
-3.34939e-06
-9.93145e-05
-6.23404e-06
-9.15879e-05
-8.68378e-06
-8.3029e-05
-1.08551e-05
-7.3364e-05
-1.26506e-05
-6.25273e-05
-1.39165e-05
-5.07782e-05
-1.44448e-05
-3.86449e-05
-1.39645e-05
-2.73647e-05
-1.2165e-05
-1.6753e-05
-1.0661e-05
-1.42939e-05
-0.00015858
0.000141618
0.000149172
-0.000166692
0.000136399
-0.000172388
0.000128309
-0.000174873
0.000117365
-0.000173674
0.000104018
-0.000168748
8.91848e-05
-0.000160902
7.4083e-05
-0.000151312
5.97956e-05
-0.000141126
4.70424e-05
-0.000131445
3.61959e-05
-0.000122964
2.72871e-05
-0.000115982
2.00261e-05
-0.000110531
1.40437e-05
-0.000106326
8.95451e-06
-0.000102834
4.38747e-06
-9.94163e-05
8.1672e-08
-9.54603e-05
-4.08273e-06
-9.07906e-05
-8.01915e-06
-8.53068e-05
-1.17178e-05
-7.87221e-05
-1.52685e-05
-7.08953e-05
-1.86818e-05
-6.1671e-05
-2.18749e-05
-5.09163e-05
-2.46713e-05
-3.86439e-05
-2.67172e-05
-2.50674e-05
-2.7541e-05
-1.04945e-05
-2.67379e-05
2.04759e-06
-2.32031e-05
-1.22463e-05
-0.000157912
0.000149355
0.000150175
-0.000162576
0.000141064
-0.000163119
0.000128852
-0.000159185
0.00011343
-0.000151375
9.62085e-05
-0.000141127
7.8936e-05
-0.000130207
6.31631e-05
-0.000120214
4.98027e-05
-0.000112223
3.90516e-05
-0.000106613
3.0586e-05
-0.000103104
2.37776e-05
-0.000101056
1.79789e-05
-9.97133e-05
1.27007e-05
-9.83994e-05
7.64063e-06
-9.67042e-05
2.69221e-06
-9.44435e-05
-2.17903e-06
-9.15454e-05
-6.98083e-06
-8.78992e-05
-1.16653e-05
-8.33392e-05
-1.62779e-05
-7.77561e-05
-2.08515e-05
-7.10571e-05
-2.53808e-05
-6.3137e-05
-2.9795e-05
-5.39079e-05
-3.39003e-05
-4.33071e-05
-3.7318e-05
-3.1392e-05
-3.94561e-05
-1.86874e-05
-3.94425e-05
-7.00347e-06
-3.48871e-05
-1.92497e-05
-0.000152303
0.000153467
0.000148191
-0.000151732
0.000140493
-0.000146287
0.000123407
-0.000136994
0.000104136
-0.000125835
8.50497e-05
-0.000115051
6.8152e-05
-0.000106364
5.44758e-05
-0.000100533
4.39725e-05
-9.73705e-05
3.58886e-05
-9.60663e-05
2.92818e-05
-9.56727e-05
2.33839e-05
-9.54458e-05
1.7752e-05
-9.49405e-05
1.21955e-05
-9.39677e-05
6.66778e-06
-9.24596e-05
1.18408e-06
-9.03834e-05
-4.25519e-06
-8.77029e-05
-9.66137e-06
-8.43269e-05
-1.50412e-05
-8.01681e-05
-2.04367e-05
-7.51436e-05
-2.58761e-05
-6.91681e-05
-3.13564e-05
-6.21504e-05
-3.68127e-05
-5.39972e-05
-4.20535e-05
-4.46373e-05
-4.66779e-05
-3.41228e-05
-4.99706e-05
-2.2812e-05
-5.07534e-05
-1.12811e-05
-4.6418e-05
-3.05308e-05
-0.000141287
0.000152729
0.000142025
-0.000135396
0.000134602
-0.000125633
0.000113644
-0.00011437
9.28732e-05
-0.000104148
7.48281e-05
-9.67027e-05
6.07064e-05
-9.24732e-05
5.02463e-05
-9.08124e-05
4.23117e-05
-9.06125e-05
3.56887e-05
-9.08877e-05
2.95569e-05
-9.10386e-05
2.35348e-05
-9.08081e-05
1.75216e-05
-9.01331e-05
1.15204e-05
-8.90158e-05
5.55046e-06
-8.7447e-05
-3.84679e-07
-8.53942e-05
-6.30802e-06
-8.2811e-05
-1.22445e-05
-7.96295e-05
-1.82227e-05
-7.57852e-05
-2.42811e-05
-7.1214e-05
-3.04473e-05
-6.58478e-05
-3.67226e-05
-5.96083e-05
-4.30522e-05
-5.23948e-05
-4.92669e-05
-4.40909e-05
-5.49818e-05
-3.46386e-05
-5.94229e-05
-2.41721e-05
-6.12199e-05
-1.28485e-05
-5.77415e-05
-4.33793e-05
-0.000126231
0.000147315
0.000131645
-0.000116731
0.000125102
-0.000105722
0.000102635
-9.59891e-05
8.31403e-05
-8.9338e-05
6.8177e-05
-8.60343e-05
5.74028e-05
-8.51596e-05
4.93716e-05
-8.54578e-05
4.26099e-05
-8.59805e-05
3.62114e-05
-8.62542e-05
2.98306e-05
-8.61404e-05
2.34211e-05
-8.56401e-05
1.70212e-05
-8.47763e-05
1.06566e-05
-8.35523e-05
4.32647e-06
-8.19462e-05
-1.99073e-06
-7.9921e-05
-8.33328e-06
-7.74317e-05
-1.47338e-05
-7.44246e-05
-2.12298e-05
-7.08468e-05
-2.78589e-05
-6.66463e-05
-3.46478e-05
-6.17699e-05
-4.1599e-05
-5.61551e-05
-4.8667e-05
-4.97128e-05
-5.57092e-05
-4.23093e-05
-6.23853e-05
-3.37759e-05
-6.79563e-05
-2.40057e-05
-7.09901e-05
-1.29086e-05
-6.88387e-05
-5.62879e-05
-0.000109601
0.000138696
0.00011822
-9.90675e-05
0.000114568
-8.96194e-05
9.31871e-05
-8.32759e-05
7.67968e-05
-8.03447e-05
6.52458e-05
-7.98064e-05
5.68645e-05
-8.03145e-05
4.98797e-05
-8.09299e-05
4.32252e-05
-8.12504e-05
3.65319e-05
-8.12018e-05
2.9782e-05
-8.08194e-05
2.30388e-05
-8.01378e-05
1.63396e-05
-7.91652e-05
9.68402e-06
-7.78885e-05
3.04974e-06
-7.62801e-05
-3.59908e-06
-7.43057e-05
-1.03077e-05
-7.19237e-05
-1.71158e-05
-6.90876e-05
-2.40659e-05
-6.57503e-05
-3.11962e-05
-6.18666e-05
-3.85316e-05
-5.73918e-05
-4.60738e-05
-5.22755e-05
-5.37833e-05
-4.64421e-05
-6.15425e-05
-3.97637e-05
-6.90638e-05
-3.20315e-05
-7.56885e-05
-2.29839e-05
-8.00376e-05
-1.23714e-05
-7.94512e-05
-6.86592e-05
-9.38023e-05
0.000128932
0.000103566
-8.45118e-05
0.000105278
-7.80734e-05
8.67487e-05
-7.50809e-05
7.38043e-05
-7.45782e-05
6.47431e-05
-7.51536e-05
5.74398e-05
-7.58186e-05
5.05447e-05
-7.61767e-05
4.35834e-05
-7.61808e-05
3.65359e-05
-7.58859e-05
2.94871e-05
-7.53368e-05
2.24897e-05
-7.45482e-05
1.5551e-05
-7.35148e-05
8.65062e-06
-7.22193e-05
1.75423e-06
-7.06355e-05
-5.18281e-06
-6.8732e-05
-1.22112e-05
-6.64702e-05
-1.93776e-05
-6.3807e-05
-2.67292e-05
-6.06978e-05
-3.43053e-05
-5.70992e-05
-4.21301e-05
-5.29699e-05
-5.02031e-05
-4.82668e-05
-5.84864e-05
-4.29291e-05
-6.68803e-05
-3.6844e-05
-7.51488e-05
-2.98024e-05
-8.27302e-05
-2.14859e-05
-8.83541e-05
-1.15759e-05
-8.93612e-05
-8.02351e-05
-8.03721e-05
0.00011988
8.94234e-05
-7.35804e-05
9.84864e-05
-7.01698e-05
8.3338e-05
-6.9455e-05
7.30895e-05
-7.00022e-05
6.52903e-05
-7.07113e-05
5.8149e-05
-7.11244e-05
5.09579e-05
-7.11875e-05
4.36464e-05
-7.0967e-05
3.63154e-05
-7.05186e-05
2.90387e-05
-6.98658e-05
2.18369e-05
-6.90112e-05
1.46964e-05
-6.79466e-05
7.58605e-06
-6.66562e-05
4.6381e-07
-6.51163e-05
-6.72272e-06
-6.32984e-05
-1.40292e-05
-6.11664e-05
-2.15096e-05
-5.86793e-05
-2.92162e-05
-5.57931e-05
-3.71916e-05
-5.24632e-05
-4.546e-05
-4.86473e-05
-5.40189e-05
-4.4305e-05
-6.28287e-05
-3.93876e-05
-7.17977e-05
-3.38059e-05
-8.07304e-05
-2.73744e-05
-8.91618e-05
-1.97748e-05
-9.59536e-05
-1.06697e-05
-9.84663e-05
-9.09048e-05
-6.9778e-05
0.000112697
7.69611e-05
-6.56691e-05
9.43775e-05
-6.44855e-05
8.21545e-05
-6.48934e-05
7.34974e-05
-6.56424e-05
6.60393e-05
-6.61386e-05
5.86451e-05
-6.62804e-05
5.10996e-05
-6.61358e-05
4.35018e-05
-6.57728e-05
3.59524e-05
-6.52252e-05
2.84912e-05
-6.45044e-05
2.11161e-05
-6.36104e-05
1.38023e-05
-6.25362e-05
6.51184e-06
-6.12682e-05
-8.04159e-07
-5.97857e-05
-8.20519e-06
-5.8063e-05
-1.5752e-05
-5.60664e-05
-2.35061e-05
-5.37568e-05
-3.15258e-05
-5.10901e-05
-3.98583e-05
-4.80198e-05
-4.85303e-05
-4.45005e-05
-5.75382e-05
-4.04905e-05
-6.68386e-05
-3.59489e-05
-7.63394e-05
-3.08104e-05
-8.58689e-05
-2.49275e-05
-9.50446e-05
-1.80131e-05
-0.000102868
-9.72896e-06
-0.00010675
-0.000100634
-6.17058e-05
0.000107755
6.66484e-05
-5.97777e-05
9.24494e-05
-5.98728e-05
8.22496e-05
-6.06261e-05
7.42506e-05
-6.12318e-05
6.66451e-05
-6.14823e-05
5.88956e-05
-6.14285e-05
5.10459e-05
-6.11501e-05
4.32234e-05
-6.06933e-05
3.54956e-05
-6.00789e-05
2.78767e-05
-5.93146e-05
2.03518e-05
-5.84013e-05
1.2889e-05
-5.7334e-05
5.44457e-06
-5.61013e-05
-2.03685e-06
-5.46857e-05
-9.62081e-06
-5.30637e-05
-1.7374e-05
-5.12045e-05
-2.53653e-05
-4.90707e-05
-3.36597e-05
-4.66186e-05
-4.23104e-05
-4.38004e-05
-5.13485e-05
-4.05672e-05
-6.07714e-05
-3.68742e-05
-7.05316e-05
-3.26836e-05
-8.053e-05
-2.795e-05
-9.06024e-05
-2.25675e-05
-0.000100427
-1.62953e-05
-0.00010914
-8.80617e-06
-0.00011424
-0.00010944
-5.54997e-05
0.000104851
5.84033e-05
-5.50258e-05
9.19754e-05
-5.56769e-05
8.29008e-05
-5.63976e-05
7.49713e-05
-5.67915e-05
6.7039e-05
-5.68547e-05
5.89588e-05
-5.66726e-05
5.08637e-05
-5.63058e-05
4.28566e-05
-5.57854e-05
3.49752e-05
-5.5127e-05
2.72183e-05
-5.43384e-05
1.95632e-05
-5.34221e-05
1.19726e-05
-5.23747e-05
4.39716e-06
-5.1187e-05
-3.22451e-06
-4.98444e-05
-1.09634e-05
-4.83257e-05
-1.88927e-05
-4.66027e-05
-2.70883e-05
-4.46401e-05
-3.56223e-05
-4.23955e-05
-4.4555e-05
-3.98207e-05
-5.39233e-05
-3.68644e-05
-6.37277e-05
-3.34782e-05
-7.39178e-05
-2.96241e-05
-8.43841e-05
-2.5271e-05
-9.49555e-05
-2.03508e-05
-0.000105347
-1.46733e-05
-0.000114818
-7.93091e-06
-0.000120982
-0.000117371
-5.05061e-05
0.000103509
5.18483e-05
-5.08415e-05
9.23109e-05
-5.16266e-05
8.36859e-05
-5.21909e-05
7.55356e-05
-5.24054e-05
6.72535e-05
-5.23415e-05
5.88949e-05
-5.20746e-05
5.05968e-05
-5.16481e-05
4.24301e-05
-5.10856e-05
3.44128e-05
-5.04015e-05
2.65342e-05
-4.96044e-05
1.87662e-05
-4.8698e-05
1.10662e-05
-4.76805e-05
3.37972e-06
-4.65451e-05
-4.35997e-06
-4.52792e-05
-1.22293e-05
-4.38642e-05
-2.03077e-05
-4.22742e-05
-2.86783e-05
-4.04762e-05
-3.74203e-05
-3.84298e-05
-4.66014e-05
-3.60877e-05
-5.62654e-05
-3.33977e-05
-6.64177e-05
-3.03087e-05
-7.70069e-05
-2.67807e-05
-8.79121e-05
-2.27909e-05
-9.89453e-05
-1.83019e-05
-0.000109836
-1.31718e-05
-0.000119948
-7.11865e-06
-0.000127035
-0.000124489
-4.62364e-05
0.000103211
4.65338e-05
-4.69322e-05
9.30066e-05
-4.76579e-05
8.44116e-05
-4.80589e-05
7.59366e-05
-4.81437e-05
6.73383e-05
-4.79952e-05
5.87463e-05
-4.76714e-05
5.0273e-05
-4.72053e-05
4.19641e-05
-4.66177e-05
3.38252e-05
-4.59228e-05
2.58392e-05
-4.51297e-05
1.79731e-05
-4.42433e-05
1.01798e-05
-4.32635e-05
2.3999e-06
-4.21851e-05
-5.43835e-06
-4.0998e-05
-1.34164e-05
-3.96854e-05
-2.16203e-05
-3.8224e-05
-3.01397e-05
-3.65829e-05
-3.90614e-05
-3.4724e-05
-4.84603e-05
-3.26019e-05
-5.83876e-05
-3.01656e-05
-6.88539e-05
-2.73629e-05
-7.98096e-05
-2.41511e-05
-9.1124e-05
-2.05106e-05
-0.000102586
-1.64264e-05
-0.000113921
-1.17989e-05
-0.000124575
-6.37511e-06
-0.000132459
-0.000130865
-4.23896e-05
0.000103531
4.20702e-05
-4.31838e-05
9.38009e-05
-4.3788e-05
8.50158e-05
-4.40567e-05
7.62053e-05
-4.40522e-05
6.73337e-05
-4.38467e-05
5.85408e-05
-4.3485e-05
4.99113e-05
-4.29948e-05
4.14739e-05
-4.23955e-05
3.32259e-05
-4.17013e-05
2.5145e-05
-4.09221e-05
1.71938e-05
-4.00634e-05
9.32112e-06
-3.91266e-05
1.46312e-06
-3.81084e-05
-6.45653e-06
-3.70006e-05
-1.45243e-05
-3.57885e-05
-2.28324e-05
-3.44508e-05
-3.14774e-05
-3.29584e-05
-4.05537e-05
-3.12754e-05
-5.01434e-05
-2.93592e-05
-6.03037e-05
-2.71622e-05
-7.1051e-05
-2.46329e-05
-8.23389e-05
-2.17261e-05
-9.40308e-05
-1.84218e-05
-0.00010589
-1.47191e-05
-0.000117623
-1.05529e-05
-0.000128741
-5.69962e-06
-0.000137312
-0.000136564
-3.88075e-05
0.000104166
3.81727e-05
-3.95714e-05
9.45648e-05
-4.00524e-05
8.54968e-05
-4.02232e-05
7.63761e-05
-4.01574e-05
6.72679e-05
-3.99134e-05
5.82968e-05
-3.95277e-05
4.95256e-05
-3.90252e-05
4.09714e-05
-3.84246e-05
3.26253e-05
-3.774e-05
2.44605e-05
-3.69816e-05
1.64355e-05
-3.6156e-05
8.49551e-06
-3.52659e-05
5.72989e-07
-3.43096e-05
-7.41282e-06
-3.32808e-05
-1.55531e-05
-3.21667e-05
-2.39464e-05
-3.09476e-05
-3.26965e-05
-2.95959e-05
-4.19054e-05
-2.80772e-05
-5.16621e-05
-2.63525e-05
-6.20284e-05
-2.43786e-05
-7.30248e-05
-2.21075e-05
-8.46099e-05
-1.94923e-05
-9.6646e-05
-1.65116e-05
-0.000108871
-1.3169e-05
-0.000120966
-9.42668e-06
-0.000132484
-5.08883e-06
-0.00014165
-0.000141653
-3.54205e-05
0.000104928
3.46585e-05
-3.61042e-05
9.52484e-05
-3.64814e-05
8.58741e-05
-3.6582e-05
7.64767e-05
-3.64737e-05
6.71597e-05
-3.6204e-05
5.80271e-05
-3.58044e-05
4.9126e-05
-3.52982e-05
4.04652e-05
-3.47036e-05
3.20307e-05
-3.40348e-05
2.37916e-05
-3.33022e-05
1.57029e-05
-3.25132e-05
7.70659e-06
-3.1672e-05
-2.68257e-07
-3.07784e-05
-8.30647e-06
-2.98277e-05
-1.65037e-05
-2.88091e-05
-2.4965e-05
-2.7704e-05
-3.38017e-05
-2.64853e-05
-4.31241e-05
-2.51202e-05
-5.30272e-05
-2.35725e-05
-6.35761e-05
-2.18042e-05
-7.47931e-05
-1.97741e-05
-8.664e-05
-1.74379e-05
-9.89822e-05
-1.47682e-05
-0.00011154
-1.17643e-05
-0.00012397
-8.40833e-06
-0.00013584
-4.54285e-06
-0.000145516
-0.000146196
-3.22058e-05
0.00010571
3.14238e-05
-3.27987e-05
9.58413e-05
-3.30949e-05
8.61703e-05
-3.31454e-05
7.65272e-05
-3.30077e-05
6.70219e-05
-3.2721e-05
5.77404e-05
-3.23142e-05
4.87191e-05
-3.18099e-05
3.99609e-05
-3.1226e-05
3.14468e-05
-3.05766e-05
2.31422e-05
-2.98728e-05
1.4999e-05
-2.91228e-05
6.95655e-06
-2.83317e-05
-1.05934e-06
-2.7501e-05
-9.13715e-06
-2.66277e-05
-1.7377e-05
-2.57022e-05
-2.58904e-05
-2.47067e-05
-3.47972e-05
-2.36145e-05
-4.42163e-05
-2.23934e-05
-5.42484e-05
-2.101e-05
-6.49595e-05
-1.94345e-05
-7.63686e-05
-1.76331e-05
-8.84414e-05
-1.5563e-05
-0.000101052
-1.31863e-05
-0.000113917
-1.04982e-05
-0.000126658
-7.48563e-06
-0.000138852
-4.06586e-06
-0.000148935
-0.000150262
-2.91597e-05
0.000106456
2.84136e-05
-2.96683e-05
9.635e-05
-2.99036e-05
8.64056e-05
-2.99186e-05
7.65423e-05
-2.97598e-05
6.68631e-05
-2.94612e-05
5.74418e-05
-2.90507e-05
4.83086e-05
-2.85512e-05
3.94614e-05
-2.79803e-05
3.08759e-05
-2.73523e-05
2.25143e-05
-2.66789e-05
1.43256e-05
-2.59691e-05
6.24672e-06
-2.52291e-05
-1.79934e-06
-2.44617e-05
-9.90455e-06
-2.36652e-05
-1.81735e-05
-2.28311e-05
-2.67245e-05
-2.19416e-05
-3.56867e-05
-2.097e-05
-4.5188e-05
-1.98834e-05
-5.5335e-05
-1.86537e-05
-6.61892e-05
-1.72627e-05
-7.77596e-05
-1.56833e-05
-9.00208e-05
-1.38665e-05
-0.000102869
-1.17622e-05
-0.000116021
-9.36872e-06
-0.000129051
-6.66628e-06
-0.000141555
-3.64423e-06
-0.000151957
-0.000153906
-2.62828e-05
0.000107141
2.55973e-05
-2.67196e-05
9.67868e-05
-2.69098e-05
8.65958e-05
-2.68989e-05
7.65314e-05
-2.67235e-05
6.66877e-05
-2.64148e-05
5.71331e-05
-2.60016e-05
4.78954e-05
-2.55076e-05
3.89674e-05
-2.49505e-05
3.03188e-05
-2.43449e-05
2.19088e-05
-2.37031e-05
1.36837e-05
-2.30347e-05
5.57834e-06
-2.2347e-05
-2.48707e-06
-2.16437e-05
-1.06078e-05
-2.09241e-05
-1.88931e-05
-2.01801e-05
-2.74685e-05
-1.93939e-05
-3.64729e-05
-1.85364e-05
-4.60454e-05
-1.75758e-05
-5.62957e-05
-1.64941e-05
-6.72708e-05
-1.52794e-05
-7.89744e-05
-1.39059e-05
-9.13943e-05
-1.23249e-05
-0.00010445
-1.04783e-05
-0.000117868
-8.36191e-06
-0.000131168
-5.96491e-06
-0.000143952
-3.24762e-06
-0.000154675
-0.000157154
-2.35718e-05
0.000107758
2.29552e-05
-2.39451e-05
9.71602e-05
-2.40924e-05
8.67431e-05
-2.40535e-05
7.64925e-05
-2.38639e-05
6.64981e-05
-2.35523e-05
5.68215e-05
-2.31427e-05
4.74858e-05
-2.2657e-05
3.84817e-05
-2.21151e-05
2.97769e-05
-2.15335e-05
2.13272e-05
-2.09249e-05
1.30751e-05
-2.03e-05
4.95343e-06
-1.96668e-05
-3.12032e-06