/*--------------------------------*- C++ -*----------------------------------*\
| =========                 |                                                 |
| \\      /  F ield         | OpenFOAM: The Open Source CFD Toolbox           |
|  \\    /   O peration     | Version:  v2012                                 |
|   \\  /    A nd           | Website:  www.openfoam.com                      |
|    \\/     M anipulation  |                                                 |
\*---------------------------------------------------------------------------*/
FoamFile
{
    version     2.0;
    format      ascii;
    class       volVectorField;
    location    "696";
    object      U;
}
// * * * * * * * * * * * * * * * * * * * * * * * * * * * * * * * * * * * * * //

dimensions      [0 1 -1 0 0 0 0];


internalField   nonuniform List<vector> 
6036
(
(0.00159817 -0.957265 0)
(0.00166024 -0.958924 0)
(0.00171623 -0.960704 0)
(0.00176335 -0.962588 0)
(0.00180101 -0.96456 0)
(0.00183075 -0.966603 0)
(0.00185442 -0.968706 0)
(0.00187312 -0.970862 0)
(0.00188763 -0.973063 0)
(0.00189779 -0.975305 0)
(0.0019033 -0.977583 0)
(0.00190349 -0.979898 0)
(0.00189739 -0.982248 0)
(0.00188274 -0.984626 0)
(0.00185543 -0.987029 0)
(0.00180828 -0.989474 0)
(0.00173445 -0.992014 0)
(0.00160784 -0.994578 0)
(0.00127241 -0.996714 0)
(0.000617527 -0.998 0)
(0.00105625 -1.00857 0)
(0.00120238 -1.00809 0)
(0.00132946 -1.00768 0)
(0.00143425 -1.00732 0)
(0.00151963 -1.00701 0)
(0.00159228 -1.00671 0)
(0.00165595 -1.00642 0)
(0.00171197 -1.00614 0)
(0.00176007 -1.00585 0)
(0.00180531 -1.00555 0)
(0.00184827 -1.00524 0)
(0.00189245 -1.00492 0)
(0.00193805 -1.00457 0)
(0.00198607 -1.00419 0)
(0.00203007 -1.00377 0)
(0.00205783 -1.00333 0)
(0.00206805 -1.0029 0)
(0.0020948 -1.00238 0)
(0.00212312 -1.00126 0)
(0.000953099 -1.00027 0)
(0.000537977 -1.01335 0)
(0.000736864 -1.01245 0)
(0.000898491 -1.01163 0)
(0.00102298 -1.01086 0)
(0.0011144 -1.01013 0)
(0.00117812 -1.00944 0)
(0.0012205 -1.00876 0)
(0.00124757 -1.0081 0)
(0.00126319 -1.00744 0)
(0.00127013 -1.00678 0)
(0.00126967 -1.00612 0)
(0.00126247 -1.00545 0)
(0.00124986 -1.00478 0)
(0.00123237 -1.00411 0)
(0.00120381 -1.00343 0)
(0.00115417 -1.00275 0)
(0.00109395 -1.00209 0)
(0.00105862 -1.00138 0)
(0.00098004 -1.00063 0)
(0.000509297 -1.00012 0)
(-0.000332837 -1.01319 0)
(-3.69486e-05 -1.01226 0)
(0.000197218 -1.01142 0)
(0.000378339 -1.01064 0)
(0.000515338 -1.0099 0)
(0.00061553 -1.00918 0)
(0.000687889 -1.00847 0)
(0.000740972 -1.00777 0)
(0.000779841 -1.00708 0)
(0.000808521 -1.00639 0)
(0.000829113 -1.00571 0)
(0.00084289 -1.00503 0)
(0.000850877 -1.00434 0)
(0.00085257 -1.00366 0)
(0.000841291 -1.00299 0)
(0.000807038 -1.00235 0)
(0.000752193 -1.00169 0)
(0.000684802 -1.00102 0)
(0.000548653 -1.0004 0)
(0.000224093 -1.00007 0)
(-0.00110949 -1.01273 0)
(-0.00073134 -1.01185 0)
(-0.000451834 -1.01106 0)
(-0.00024844 -1.01032 0)
(-0.000103335 -1.00961 0)
(-1.91241e-06 -1.00891 0)
(6.79316e-05 -1.00822 0)
(0.000116382 -1.00753 0)
(0.000150222 -1.00685 0)
(0.000174315 -1.00616 0)
(0.000192031 -1.00548 0)
(0.000205867 -1.0048 0)
(0.000217854 -1.00412 0)
(0.000229032 -1.00344 0)
(0.00023789 -1.00278 0)
(0.000241377 -1.00214 0)
(0.000239033 -1.0015 0)
(0.000226866 -1.00086 0)
(0.00017807 -1.00032 0)
(6.66773e-05 -1.00006 0)
(-0.00182077 -1.01233 0)
(-0.0013413 -1.01156 0)
(-0.00100546 -1.01085 0)
(-0.00076773 -1.01017 0)
(-0.000601969 -1.00951 0)
(-0.000487869 -1.00884 0)
(-0.000410195 -1.00817 0)
(-0.000356012 -1.0075 0)
(-0.000317907 -1.00682 0)
(-0.000291664 -1.00615 0)
(-0.000274114 -1.00547 0)
(-0.00026322 -1.00479 0)
(-0.000257818 -1.00411 0)
(-0.000256799 -1.00344 0)
(-0.000257097 -1.00277 0)
(-0.000254528 -1.00214 0)
(-0.000247828 -1.0015 0)
(-0.000232455 -1.00086 0)
(-0.000181178 -1.00032 0)
(-6.76739e-05 -1.00006 0)
(-0.00242614 -1.01202 0)
(-0.00187837 -1.01139 0)
(-0.00153402 -1.0108 0)
(-0.00130316 -1.0102 0)
(-0.00115343 -1.00959 0)
(-0.0010588 -1.00897 0)
(-0.00100006 -1.00833 0)
(-0.000960236 -1.00767 0)
(-0.000933222 -1.00701 0)
(-0.000915912 -1.00634 0)
(-0.000904223 -1.00568 0)
(-0.000895361 -1.005 0)
(-0.000887399 -1.00433 0)
(-0.000877939 -1.00365 0)
(-0.000858864 -1.00299 0)
(-0.000819094 -1.00234 0)
(-0.00076027 -1.00169 0)
(-0.000689933 -1.00101 0)
(-0.000551499 -1.0004 0)
(-0.000224995 -1.00007 0)
(-0.00288996 -1.01142 0)
(-0.00232032 -1.01109 0)
(-0.0020019 -1.01071 0)
(-0.00178906 -1.01024 0)
(-0.00164799 -1.00971 0)
(-0.0015511 -1.00913 0)
(-0.00148217 -1.00853 0)
(-0.0014302 -1.00794 0)
(-0.00139024 -1.00733 0)
(-0.00135861 -1.0067 0)
(-0.0013313 -1.00607 0)
(-0.00130544 -1.00542 0)
(-0.00127973 -1.00476 0)
(-0.00125308 -1.00409 0)
(-0.00121811 -1.00342 0)
(-0.00116396 -1.00275 0)
(-0.00110049 -1.00209 0)
(-0.00106272 -1.00138 0)
(-0.000982297 -1.00063 0)
(-0.000510028 -1.00012 0)
(-0.00275247 -1.00562 0)
(-0.00224032 -1.00601 0)
(-0.0020805 -1.00624 0)
(-0.00195752 -1.00631 0)
(-0.00189406 -1.0063 0)
(-0.00185109 -1.00622 0)
(-0.00183204 -1.00608 0)
(-0.00183163 -1.0059 0)
(-0.00184416 -1.00569 0)
(-0.00186437 -1.00544 0)
(-0.00189009 -1.00516 0)
(-0.00192204 -1.00486 0)
(-0.00195817 -1.00453 0)
(-0.00199981 -1.00416 0)
(-0.00203976 -1.00375 0)
(-0.00206465 -1.00332 0)
(-0.00207259 -1.0029 0)
(-0.00209772 -1.00238 0)
(-0.00212505 -1.00126 0)
(-0.000953537 -1.00027 0)
(-0.00239609 -0.953885 0)
(-0.00207858 -0.956342 0)
(-0.00202435 -0.95891 0)
(-0.00197775 -0.961341 0)
(-0.00195191 -0.963694 0)
(-0.0019377 -0.966005 0)
(-0.00192892 -0.968295 0)
(-0.00192426 -0.970579 0)
(-0.00192246 -0.972868 0)
(-0.00192141 -0.975171 0)
(-0.00191927 -0.977492 0)
(-0.0019143 -0.979837 0)
(-0.00190482 -0.982207 0)
(-0.00188789 -0.984599 0)
(-0.00185891 -0.987011 0)
(-0.00181059 -0.989464 0)
(-0.00173595 -0.992008 0)
(-0.00160873 -0.994575 0)
(-0.00127299 -0.996713 0)
(-0.000617721 -0.997999 0)
(-0.00222363 0.0313857 0)
(0.005897 -0.00212151 0)
(0.0239612 -0.0660252 0)
(0.0433719 -0.157274 0)
(0.0547037 -0.283097 0)
(0.0521834 -0.40542 0)
(0.0438434 -0.507709 0)
(0.0356723 -0.590626 0)
(0.0293038 -0.658726 0)
(0.0243042 -0.714896 0)
(0.0203477 -0.761518 0)
(0.0171088 -0.800323 0)
(0.0143057 -0.832568 0)
(0.0118637 -0.859247 0)
(0.00977936 -0.881106 0)
(0.00798693 -0.898798 0)
(0.0064554 -0.912893 0)
(0.00516045 -0.923908 0)
(0.00408441 -0.93232 0)
(0.00322331 -0.938581 0)
(0.00262739 -0.94313 0)
(0.00213141 -0.94637 0)
(0.00178161 -0.94867 0)
(0.00158558 -0.950377 0)
(0.00148639 -0.951767 0)
(0.0014594 -0.953044 0)
(0.00148318 -0.954342 0)
(0.00153559 -0.955739 0)
(0.0462064 -0.102683 0)
(0.0852743 -0.223083 0)
(0.118099 -0.352603 0)
(0.136058 -0.477873 0)
(0.134086 -0.578424 0)
(0.118379 -0.653802 0)
(0.0990778 -0.711547 0)
(0.0818764 -0.764099 0)
(0.067872 -0.809653 0)
(0.0565022 -0.849289 0)
(0.0471292 -0.883279 0)
(0.0392639 -0.912111 0)
(0.0325631 -0.936263 0)
(0.0267694 -0.956169 0)
(0.0217239 -0.972269 0)
(0.0173364 -0.984989 0)
(0.0135481 -0.994748 0)
(0.0103145 -1.00195 0)
(0.00759885 -1.00699 0)
(0.00537065 -1.01023 0)
(0.00361855 -1.01202 0)
(0.0023401 -1.01271 0)
(0.00148981 -1.01265 0)
(0.000977758 -1.01214 0)
(0.000728478 -1.0114 0)
(0.000683112 -1.0106 0)
(0.00076298 -1.00983 0)
(0.000901774 -1.00915 0)
(0.150845 -0.325807 0)
(0.190722 -0.454924 0)
(0.209543 -0.561009 0)
(0.20659 -0.638983 0)
(0.187387 -0.693599 0)
(0.16191 -0.738368 0)
(0.13765 -0.779953 0)
(0.116712 -0.819445 0)
(0.098847 -0.85563 0)
(0.0836787 -0.888201 0)
(0.0706267 -0.916789 0)
(0.0592548 -0.941372 0)
(0.0492477 -0.962078 0)
(0.0404056 -0.979122 0)
(0.0326094 -0.992781 0)
(0.0257837 -1.00338 0)
(0.0198647 -1.01127 0)
(0.0148051 -1.01679 0)
(0.0105672 -1.0203 0)
(0.0071173 -1.02212 0)
(0.00441461 -1.02267 0)
(0.00240927 -1.02231 0)
(0.00105041 -1.02138 0)
(0.000270205 -1.01988 0)
(-5.06196e-05 -1.01828 0)
(-6.47714e-05 -1.01681 0)
(9.14053e-05 -1.01549 0)
(0.000312705 -1.01436 0)
(0.251911 -0.50379 0)
(0.27086 -0.596161 0)
(0.266777 -0.659344 0)
(0.246848 -0.702552 0)
(0.219822 -0.738178 0)
(0.192402 -0.773703 0)
(0.167299 -0.809531 0)
(0.144803 -0.844144 0)
(0.124692 -0.876529 0)
(0.106774 -0.905957 0)
(0.0907499 -0.932004 0)
(0.0763843 -0.954504 0)
(0.0634911 -0.973464 0)
(0.0519356 -0.989025 0)
(0.0416249 -1.00141 0)
(0.0325215 -1.01088 0)
(0.0245976 -1.01772 0)
(0.0178105 -1.02228 0)
(0.012131 -1.02489 0)
(0.00753907 -1.02588 0)
(0.00398688 -1.0256 0)
(0.00139131 -1.02441 0)
(-0.000331641 -1.02266 0)
(-0.00125975 -1.02069 0)
(-0.00154333 -1.01874 0)
(-0.00140782 -1.01699 0)
(-0.00106935 -1.01551 0)
(-0.000686227 -1.01426 0)
(0.322014 -0.604913 0)
(0.317781 -0.660269 0)
(0.298598 -0.697994 0)
(0.272893 -0.729567 0)
(0.2458 -0.761751 0)
(0.219379 -0.795478 0)
(0.194168 -0.829289 0)
(0.170468 -0.861934 0)
(0.148446 -0.892513 0)
(0.128123 -0.920343 0)
(0.109424 -0.945005 0)
(0.0922791 -0.966273 0)
(0.0766554 -0.984101 0)
(0.0625334 -0.998591 0)
(0.0498662 -1.00994 0)
(0.038617 -1.01839 0)
(0.028795 -1.02425 0)
(0.0203704 -1.02782 0)
(0.0133068 -1.02945 0)
(0.00759042 -1.02947 0)
(0.00319294 -1.02827 0)
(3.6773e-05 -1.02623 0)
(-0.00198611 -1.02372 0)
(-0.0029957 -1.02109 0)
(-0.00316795 -1.01865 0)
(-0.00278929 -1.0166 0)
(-0.00218085 -1.015 0)
(-0.00159454 -1.01375 0)
(0.364396 -0.650166 0)
(0.346688 -0.685731 0)
(0.322976 -0.716256 0)
(0.297692 -0.747583 0)
(0.272048 -0.780792 0)
(0.246181 -0.814663 0)
(0.220496 -0.848017 0)
(0.195508 -0.87992 0)
(0.1716 -0.90957 0)
(0.148994 -0.936396 0)
(0.12778 -0.960012 0)
(0.108005 -0.98018 0)
(0.0897362 -0.996848 0)
(0.0730426 -1.01014 0)
(0.0579494 -1.02027 0)
(0.0444456 -1.02751 0)
(0.032568 -1.03217 0)
(0.0223527 -1.03457 0)
(0.0137536 -1.03503 0)
(0.00678082 -1.0339 0)
(0.00147058 -1.03157 0)
(-0.00224482 -1.02847 0)
(-0.00448986 -1.025 0)
(-0.00542004 -1.02154 0)
(-0.00523853 -1.01847 0)
(-0.00439024 -1.01607 0)
(-0.00333391 -1.01441 0)
(-0.00246294 -1.01324 0)
(0.392709 -0.668292 0)
(0.371211 -0.699034 0)
(0.34819 -0.730947 0)
(0.324307 -0.764857 0)
(0.299214 -0.799696 0)
(0.273045 -0.834326 0)
(0.24637 -0.867956 0)
(0.219723 -0.899682 0)
(0.193609 -0.928762 0)
(0.168443 -0.954742 0)
(0.144433 -0.977331 0)
(0.121666 -0.996333 0)
(0.100373 -1.01174 0)
(0.0808222 -1.02374 0)
(0.0631352 -1.03257 0)
(0.0473561 -1.0385 0)
(0.0335557 -1.04179 0)
(0.0218238 -1.04282 0)
(0.0120095 -1.04191 0)
(0.00415581 -1.03936 0)
(-0.00164971 -1.0356 0)
(-0.00554254 -1.03113 0)
(-0.00766754 -1.02642 0)
(-0.00822658 -1.02186 0)
(-0.00747322 -1.01799 0)
(-0.0060474 -1.01525 0)
(-0.0044201 -1.01363 0)
(-0.00319236 -1.01272 0)
(0.417629 -0.678105 0)
(0.397154 -0.711011 0)
(0.375722 -0.746339 0)
(0.352617 -0.782991 0)
(0.32747 -0.819727 0)
(0.300726 -0.855773 0)
(0.272896 -0.890274 0)
(0.244387 -0.922219 0)
(0.2159 -0.95089 0)
(0.188139 -0.975943 0)
(0.161412 -0.997324 0)
(0.135806 -1.01492 0)
(0.111866 -1.02862 0)
(0.0900725 -1.03872 0)
(0.0704454 -1.04561 0)
(0.0529399 -1.04962 0)
(0.0375119 -1.051 0)
(0.0241498 -1.05113 0)
(0.0128454 -1.04776 0)
(0.00363976 -1.04383 0)
(-0.00338321 -1.03849 0)
(-0.00812049 -1.03263 0)
(-0.0106504 -1.02663 0)
(-0.0114139 -1.02099 0)
(-0.0105062 -1.01644 0)
(-0.0084399 -1.01347 0)
(-0.00577262 -1.01219 0)
(-0.00367582 -1.01167 0)
(0.444263 -0.687528 0)
(0.425967 -0.724557 0)
(0.405845 -0.763707 0)
(0.383073 -0.803569 0)
(0.357582 -0.842894 0)
(0.329681 -0.880609 0)
(0.299735 -0.915506 0)
(0.268127 -0.946283 0)
(0.236071 -0.971819 0)
(0.204728 -0.992242 0)
(0.174433 -1.00788 0)
(0.145677 -1.01781 0)
(0.11887 -1.02647 0)
(0.0940889 -1.03322 0)
(0.0713677 -1.03839 0)
(0.050847 -1.04146 0)
(0.0326867 -1.04277 0)
(0.0168556 -1.04255 0)
(0.00360346 -1.04086 0)
(-0.00691874 -1.03773 0)
(-0.0146409 -1.03323 0)
(-0.0193355 -1.02748 0)
(-0.0209136 -1.02112 0)
(-0.0209636 -1.01485 0)
(-0.0164059 -1.00914 0)
(-0.011553 -1.00495 0)
(-0.00596824 -1.00339 0)
(-0.00247827 -1.00439 0)
(0.474307 -0.698934 0)
(0.458119 -0.740559 0)
(0.438949 -0.783444 0)
(0.415915 -0.825576 0)
(0.388755 -0.864741 0)
(0.357671 -0.898545 0)
(0.323778 -0.924897 0)
(0.288194 -0.941655 0)
(0.251985 -0.953591 0)
(0.216175 -0.959577 0)
(0.181852 -0.958656 0)
(0.150329 -0.952646 0)
(0.121884 -0.942519 0)
(0.0963275 -0.930055 0)
(0.07355 -0.917005 0)
(0.0535318 -0.904845 0)
(0.0363574 -0.894547 0)
(0.0217597 -0.886689 0)
(0.00973397 -0.881599 0)
(0.000423822 -0.879315 0)
(-0.00614285 -0.880644 0)
(-0.00970195 -0.885624 0)
(-0.0105565 -0.893385 0)
(-0.00938884 -0.903171 0)
(-0.00668853 -0.91387 0)
(-0.00319007 -0.924213 0)
(-0.000273479 -0.934783 0)
(0.000530393 -0.946452 0)
(-0.0150993 0.0230866 0)
(-0.0279581 0.0704956 0)
(-0.0230522 0.126018 0)
(-0.0111355 0.152998 0)
(0.00149484 0.150603 0)
(0.0118819 0.129791 0)
(0.0172751 0.0936149 0)
(0.0149748 0.0506819 0)
(0.00567868 0.0221779 0)
(-0.0049816 0.0231785 0)
(-0.00978949 0.0337487 0)
(-0.00561011 0.0374346 0)
(-0.0611142 0.0340192 0)
(-0.0740453 0.0874891 0)
(-0.047183 0.125084 0)
(-0.0140308 0.145735 0)
(0.0134969 0.143129 0)
(0.0326326 0.128322 0)
(0.0423458 0.103481 0)
(0.0382594 0.0711555 0)
(0.0208094 0.0433805 0)
(0.00119411 0.0321525 0)
(-0.00423387 0.0152891 0)
(0.013528 -0.016551 0)
(-0.115599 0.0338192 0)
(-0.10813 0.0799738 0)
(-0.0614725 0.103252 0)
(-0.0161366 0.110443 0)
(0.0213492 0.106529 0)
(0.0483518 0.0917582 0)
(0.06233 0.0708263 0)
(0.0580744 0.0468842 0)
(0.0323522 0.0243529 0)
(0.0155468 -0.00324207 0)
(0.0432162 -0.0766564 0)
(0.0965799 -0.190467 0)
(-0.158811 0.0248913 0)
(-0.12574 0.0602918 0)
(-0.0651681 0.0677813 0)
(-0.0119215 0.0652206 0)
(0.0313796 0.0574544 0)
(0.0635714 0.0421183 0)
(0.0804452 0.021797 0)
(0.071964 0.00207038 0)
(0.0530631 -0.0300041 0)
(0.0798949 -0.115514 0)
(0.144095 -0.244695 0)
(0.20737 -0.382158 0)
(-0.189633 0.0135463 0)
(-0.132777 0.0387089 0)
(-0.0622203 0.0328382 0)
(-0.00307906 0.0235599 0)
(0.0447173 0.0108891 0)
(0.0799487 -0.00864055 0)
(0.095054 -0.0296822 0)
(0.095519 -0.0608957 0)
(0.120467 -0.14036 0)
(0.185221 -0.269218 0)
(0.254215 -0.405394 0)
(0.30206 -0.520893 0)
(-0.208194 0.00313945 0)
(-0.131052 0.0194968 0)
(-0.05398 0.00414513 0)
(0.0104253 -0.0100249 0)
(0.0611518 -0.0298023 0)
(0.0973527 -0.0548252 0)
(0.12131 -0.0887266 0)
(0.155821 -0.157506 0)
(0.219499 -0.274894 0)
(0.292296 -0.406948 0)
(0.344619 -0.518613 0)
(0.367068 -0.598406 0)
(-0.21593 -0.00560007 0)
(-0.12341 0.00302414 0)
(-0.0414587 -0.0183182 0)
(0.0274917 -0.0386013 0)
(0.0819457 -0.0665149 0)
(0.127032 -0.104917 0)
(0.175884 -0.168137 0)
(0.243411 -0.270684 0)
(0.320336 -0.394714 0)
(0.379827 -0.504229 0)
(0.407633 -0.582542 0)
(0.408103 -0.633239 0)
(-0.21411 -0.0126992 0)
(-0.111381 -0.0119126 0)
(-0.0238532 -0.038299 0)
(0.0504667 -0.0667574 0)
(0.114228 -0.107538 0)
(0.178683 -0.168607 0)
(0.253783 -0.260162 0)
(0.336621 -0.373984 0)
(0.40553 -0.481332 0)
(0.442464 -0.560419 0)
(0.448623 -0.611625 0)
(0.436561 -0.646936 0)
(-0.203913 -0.0187016 0)
(-0.0938768 -0.0266372 0)
(0.000175399 -0.0595222 0)
(0.0835194 -0.0995236 0)
(0.163328 -0.158831 0)
(0.249338 -0.242478 0)
(0.339729 -0.346968 0)
(0.419431 -0.45149 0)
(0.469064 -0.532951 0)
(0.484525 -0.586319 0)
(0.477573 -0.622369 0)
(0.461824 -0.653812 0)
(-0.186204 -0.0261139 0)
(-0.0697255 -0.0427588 0)
(0.0329433 -0.0843537 0)
(0.130333 -0.139834 0)
(0.22859 -0.217982 0)
(0.329117 -0.314606 0)
(0.42031 -0.415392 0)
(0.484827 -0.499744 0)
(0.513522 -0.557143 0)
(0.514491 -0.594825 0)
(0.503037 -0.626377 0)
(0.488896 -0.660427 0)
(0.509428 -0.712679 0)
(0.494542 -0.757636 0)
(0.474512 -0.800749 0)
(0.448213 -0.838182 0)
(0.415583 -0.866041 0)
(0.37738 -0.881174 0)
(0.335064 -0.88658 0)
(0.291064 -0.876628 0)
(0.247156 -0.855308 0)
(0.204519 -0.823517 0)
(0.164995 -0.786101 0)
(0.129808 -0.745976 0)
(0.0992187 -0.705035 0)
(0.0731573 -0.664506 0)
(0.0512269 -0.625002 0)
(0.032934 -0.586922 0)
(0.0182652 -0.552436 0)
(0.00621856 -0.518558 0)
(-0.00372473 -0.484667 0)
(-0.0110314 -0.449766 0)
(-0.016465 -0.411791 0)
(-0.0200067 -0.368821 0)
(-0.0212718 -0.320706 0)
(-0.0199786 -0.266821 0)
(-0.0159567 -0.20803 0)
(-0.0103539 -0.147064 0)
(-0.00955278 -0.106099 0)
(-0.015903 -0.108173 0)
(0.548204 -0.72502 0)
(0.531374 -0.76771 0)
(0.50553 -0.801559 0)
(0.469763 -0.82115 0)
(0.424853 -0.825014 0)
(0.373122 -0.810057 0)
(0.317572 -0.778289 0)
(0.262121 -0.736073 0)
(0.210028 -0.688072 0)
(0.163261 -0.640138 0)
(0.12313 -0.596922 0)
(0.089518 -0.560369 0)
(0.0616712 -0.531051 0)
(0.0388656 -0.509177 0)
(0.0198357 -0.491668 0)
(0.00316216 -0.476113 0)
(-0.0120337 -0.459891 0)
(-0.0263944 -0.438717 0)
(-0.0397965 -0.415454 0)
(-0.0522056 -0.387144 0)
(-0.0638221 -0.353273 0)
(-0.074191 -0.313196 0)
(-0.0825876 -0.266359 0)
(-0.0876277 -0.211546 0)
(-0.0876423 -0.148396 0)
(-0.0817563 -0.0810059 0)
(-0.0706887 -0.0222354 0)
(-0.0527302 0.0112952 0)
(0.584368 -0.727896 0)
(0.559134 -0.758724 0)
(0.519947 -0.771879 0)
(0.467663 -0.763808 0)
(0.40567 -0.734701 0)
(0.339472 -0.690234 0)
(0.275012 -0.637994 0)
(0.216983 -0.587252 0)
(0.168073 -0.544001 0)
(0.128824 -0.512054 0)
(0.0979416 -0.491279 0)
(0.0730814 -0.479107 0)
(0.0519125 -0.472016 0)
(0.0325286 -0.466562 0)
(0.0139181 -0.459652 0)
(-0.0043056 -0.450513 0)
(-0.0221916 -0.438451 0)
(-0.0392979 -0.423173 0)
(-0.0558977 -0.403968 0)
(-0.0722687 -0.380147 0)
(-0.0883442 -0.351269 0)
(-0.103836 -0.3169 0)
(-0.118019 -0.276615 0)
(-0.129542 -0.229649 0)
(-0.136169 -0.175557 0)
(-0.134243 -0.116986 0)
(-0.113762 -0.0615705 0)
(-0.0525263 -0.0167659 0)
(0.609821 -0.712362 0)
(0.568446 -0.721651 0)
(0.509816 -0.706939 0)
(0.438975 -0.670254 0)
(0.363776 -0.619185 0)
(0.292578 -0.565001 0)
(0.231581 -0.517574 0)
(0.183112 -0.483189 0)
(0.146026 -0.462795 0)
(0.117188 -0.453534 0)
(0.0930655 -0.450631 0)
(0.0710595 -0.449881 0)
(0.0497559 -0.448514 0)
(0.0286068 -0.445157 0)
(0.00761371 -0.439322 0)
(-0.0131554 -0.430906 0)
(-0.0337155 -0.419778 0)
(-0.0540325 -0.405608 0)
(-0.0742234 -0.387941 0)
(-0.0944309 -0.366382 0)
(-0.114644 -0.340534 0)
(-0.134572 -0.309991 0)
(-0.153408 -0.274336 0)
(-0.169569 -0.233001 0)
(-0.180463 -0.185792 0)
(-0.181946 -0.133969 0)
(-0.163646 -0.0807081 0)
(-0.0974594 -0.0290744 0)
(0.61721 -0.673357 0)
(0.554761 -0.657023 0)
(0.476953 -0.617671 0)
(0.394179 -0.56482 0)
(0.317291 -0.51137 0)
(0.253735 -0.468469 0)
(0.205499 -0.44131 0)
(0.169794 -0.428777 0)
(0.1418 -0.425834 0)
(0.117344 -0.427005 0)
(0.0939741 -0.428479 0)
(0.0707689 -0.428434 0)
(0.0475802 -0.426315 0)
(0.0244969 -0.42209 0)
(0.00158936 -0.415765 0)
(-0.0211983 -0.407271 0)
(-0.04396 -0.396425 0)
(-0.0667804 -0.382916 0)
(-0.0898115 -0.366432 0)
(-0.113164 -0.346673 0)
(-0.136841 -0.323329 0)
(-0.160607 -0.296056 0)
(-0.183725 -0.264454 0)
(-0.204559 -0.228002 0)
(-0.219944 -0.186185 0)
(-0.224702 -0.138928 0)
(-0.208662 -0.087371 0)
(-0.148928 -0.0337581 0)
(0.604086 -0.613166 0)
(0.521752 -0.575361 0)
(0.432327 -0.523341 0)
(0.349401 -0.471389 0)
(0.282243 -0.431569 0)
(0.232857 -0.408824 0)
(0.197186 -0.400629 0)
(0.169092 -0.400767 0)
(0.143824 -0.403557 0)
(0.119061 -0.405736 0)
(0.094182 -0.406143 0)
(0.0692581 -0.404662 0)
(0.0444348 -0.401437 0)
(0.0197604 -0.396531 0)
(-0.00481191 -0.389881 0)
(-0.029406 -0.38137 0)
(-0.0541491 -0.370799 0)
(-0.0791765 -0.357913 0)
(-0.104639 -0.342459 0)
(-0.130646 -0.324193 0)
(-0.157208 -0.30287 0)
(-0.18413 -0.278217 0)
(-0.210791 -0.249902 0)
(-0.235724 -0.217493 0)
(-0.255828 -0.180213 0)
(-0.265365 -0.136835 0)
(-0.253915 -0.0871545 0)
(-0.200852 -0.0342083 0)
(0.574195 -0.540361 0)
(0.47917 -0.491307 0)
(0.389246 -0.440774 0)
(0.316445 -0.402155 0)
(0.263892 -0.381102 0)
(0.226881 -0.374755 0)
(0.19803 -0.376237 0)
(0.171822 -0.379669 0)
(0.145797 -0.382082 0)
(0.119484 -0.382692 0)
(0.0930878 -0.381619 0)
(0.066817 -0.379093 0)
(0.0407219 -0.37521 0)
(0.0147433 -0.369931 0)
(-0.011239 -0.363155 0)
(-0.0373946 -0.354759 0)
(-0.0638692 -0.344555 0)
(-0.0908236 -0.33232 0)
(-0.118408 -0.317832 0)
(-0.146726 -0.300874 0)
(-0.17579 -0.281238 0)
(-0.205433 -0.2587 0)
(-0.235143 -0.232991 0)
(-0.263659 -0.20374 0)
(-0.288173 -0.170157 0)
(-0.303007 -0.130482 0)
(-0.29758 -0.0835864 0)
(-0.251311 -0.0329088 0)
(0.535422 -0.465689 0)
(0.437745 -0.416891 0)
(0.356821 -0.377916 0)
(0.298494 -0.356285 0)
(0.25847 -0.349952 0)
(0.228214 -0.351791 0)
(0.201025 -0.355524 0)
(0.173921 -0.35811 0)
(0.146381 -0.358902 0)
(0.118701 -0.358141 0)
(0.0911585 -0.356122 0)
(0.0638373 -0.352978 0)
(0.0366842 -0.348709 0)
(0.0095801 -0.343238 0)
(-0.0176343 -0.336477 0)
(-0.0451553 -0.328306 0)
(-0.0731544 -0.318549 0)
(-0.10181 -0.307003 0)
(-0.131276 -0.293459 0)
(-0.161649 -0.27771 0)
(-0.192933 -0.259557 0)
(-0.22498 -0.238802 0)
(-0.257366 -0.215222 0)
(-0.289055 -0.188516 0)
(-0.317605 -0.157968 0)
(-0.337714 -0.12175 0)
(-0.338738 -0.0782546 0)
(-0.299147 -0.0308432 0)
(0.496283 -0.397935 0)
(0.404917 -0.357917 0)
(0.337624 -0.333904 0)
(0.292268 -0.326004 0)
(0.259624 -0.327449 0)
(0.231319 -0.331352 0)
(0.203287 -0.334203 0)
(0.174691 -0.33525 0)
(0.14586 -0.334788 0)
(0.117156 -0.333168 0)
(0.0887204 -0.330568 0)
(0.0605284 -0.327033 0)
(0.0324721 -0.322534 0)
(0.00439737 -0.316996 0)
(-0.0238871 -0.310349 0)
(-0.0525991 -0.302484 0)
(-0.0819376 -0.293231 0)
(-0.1121 -0.282406 0)
(-0.143249 -0.269804 0)
(-0.17548 -0.255216 0)
(-0.208785 -0.238435 0)
(-0.243014 -0.219265 0)
(-0.277797 -0.19751 0)
(-0.312291 -0.172936 0)
(-0.344456 -0.14498 0)
(-0.369472 -0.111986 0)
(-0.37671 -0.0721116 0)
(-0.343543 -0.0284626 0)
(0.463086 -0.341754 0)
(0.383347 -0.314218 0)
(0.329366 -0.303199 0)
(0.29259 -0.303374 0)
(0.26272 -0.307291 0)
(0.233839 -0.310543 0)
(0.204335 -0.311981 0)
(0.174449 -0.311866 0)
(0.14464 -0.310612 0)
(0.115132 -0.308448 0)
(0.0859513 -0.305462 0)
(0.0570149 -0.301673 0)
(0.028183 -0.297054 0)
(-0.000725634 -0.291543 0)
(-0.0299347 -0.285084 0)
(-0.0596793 -0.277578 0)
(-0.0901891 -0.268866 0)
(-0.121684 -0.258777 0)
(-0.154342 -0.247112 0)
(-0.188263 -0.233656 0)
(-0.223433 -0.218188 0)
(-0.259688 -0.200498 0)
(-0.29667 -0.180398 0)
(-0.333666 -0.157705 0)
(-0.369004 -0.132032 0)
(-0.398417 -0.102019 0)
(-0.411404 -0.0657402 0)
(-0.384225 -0.0259668 0)
(0.438794 -0.297767 0)
(0.371929 -0.282218 0)
(0.328013 -0.279896 0)
(0.295424 -0.283424 0)
(0.265573 -0.287167 0)
(0.235291 -0.289172 0)
(0.20444 -0.289514 0)
(0.173552 -0.288654 0)
(0.142969 -0.28689 0)
(0.112787 -0.284356 0)
(0.0829646 -0.281111 0)
(0.0533875 -0.277172 0)
(0.0238914 -0.272519 0)
(-0.00573032 -0.267106 0)
(-0.0357315 -0.260888 0)
(-0.0663656 -0.253774 0)
(-0.0978932 -0.245621 0)
(-0.13056 -0.236268 0)
(-0.164566 -0.225523 0)
(-0.200024 -0.213169 0)
(-0.236921 -0.198972 0)
(-0.275074 -0.182705 0)
(-0.314107 -0.164169 0)
(-0.353367 -0.143213 0)
(-0.39147 -0.119612 0)
(-0.424706 -0.0923382 0)
(-0.442853 -0.0594982 0)
(-0.421178 -0.0235094 0)
(0.423471 -0.264023 0)
(0.367812 -0.25765 0)
(0.330035 -0.259909 0)
(0.298572 -0.264041 0)
(0.267563 -0.266791 0)
(0.235857 -0.26775 0)
(0.203919 -0.267369 0)
(0.172232 -0.266027 0)
(0.140994 -0.263917 0)
(0.110224 -0.261132 0)
(0.0798454 -0.257725 0)
(0.049718 -0.253719 0)
(0.0196552 -0.249101 0)
(-0.0105737 -0.24384 0)
(-0.0412473 -0.2379 0)
(-0.0726425 -0.231198 0)
(-0.105049 -0.223606 0)
(-0.138741 -0.214976 0)
(-0.173945 -0.205123 0)
(-0.210795 -0.193831 0)
(-0.249285 -0.180863 0)
(-0.289217 -0.165974 0)
(-0.330178 -0.148947 0)
(-0.37151 -0.129647 0)
(-0.412025 -0.107971 0)
(-0.448529 -0.0832122 0)
(-0.471221 -0.0535865 0)
(-0.45454 -0.0211739 0)
(0.415484 -0.237665 0)
(0.368058 -0.237165 0)
(0.333176 -0.241161 0)
(0.301181 -0.244738 0)
(0.268734 -0.246507 0)
(0.235808 -0.24674 0)
(0.202991 -0.245891 0)
(0.170625 -0.244224 0)
(0.138812 -0.241878 0)
(0.107526 -0.238933 0)
(0.0766631 -0.235444 0)
(0.0460642 -0.231439 0)
(0.0155204 -0.226911 0)
(-0.0152219 -0.221843 0)
(-0.0464628 -0.216207 0)
(-0.0785051 -0.209927 0)
(-0.111666 -0.20289 0)
(-0.14625 -0.194958 0)
(-0.182511 -0.185957 0)
(-0.220612 -0.17568 0)
(-0.26056 -0.163888 0)
(-0.302152 -0.150329 0)
(-0.344926 -0.134769 0)
(-0.388172 -0.117071 0)
(-0.430803 -0.0972127 0)
(-0.47008 -0.074765 0)
(-0.496727 -0.048106 0)
(-0.484538 -0.0190047 0)
(0.412667 -0.21608 0)
(0.370448 -0.218726 0)
(0.3363 -0.222913 0)
(0.30309 -0.225662 0)
(0.269289 -0.226686 0)
(0.235353 -0.22644 0)
(0.20179 -0.225278 0)
(0.168824 -0.223391 0)
(0.136499 -0.220893 0)
(0.104756 -0.217863 0)
(0.073474 -0.214357 0)
(0.0424722 -0.210407 0)
(0.0115223 -0.206011 0)
(-0.0196506 -0.201166 0)
(-0.051367 -0.195849 0)
(-0.0839554 -0.189993 0)
(-0.117761 -0.183497 0)
(-0.153117 -0.176235 0)
(-0.190307 -0.168043 0)
(-0.229521 -0.158722 0)
(-0.270793 -0.148045 0)
(-0.313918 -0.13576 0)
(-0.358391 -0.12162 0)
(-0.403415 -0.105477 0)
(-0.447918 -0.0873536 0)
(-0.489541 -0.067033 0)
(-0.519606 -0.0430927 0)
(-0.511434 -0.0170185 0)
(0.41306 -0.19739 0)
(0.373603 -0.201348 0)
(0.338981 -0.205077 0)
(0.304397 -0.207082 0)
(0.269419 -0.207588 0)
(0.234625 -0.207022 0)
(0.200404 -0.205647 0)
(0.1669 -0.203617 0)
(0.134114 -0.201035 0)
(0.101969 -0.197979 0)
(0.0703226 -0.194507 0)
(0.0389773 -0.190652 0)
(0.00768668 -0.18642 0)
(-0.0238441 -0.181817 0)
(-0.055955 -0.176829 0)
(-0.089 -0.171393 0)
(-0.123352 -0.165423 0)
(-0.159372 -0.1588 0)
(-0.197375 -0.151369 0)
(-0.237578 -0.142944 0)
(-0.28004 -0.133313 0)
(-0.324567 -0.122235 0)
(-0.370616 -0.109456 0)
(-0.417288 -0.0948233 0)
(-0.463464 -0.0783619 0)
(-0.507079 -0.0600001 0)
(-0.540084 -0.038544 0)
(-0.535498 -0.0152169 0)
(0.415198 -0.180449 0)
(0.376797 -0.184677 0)
(0.341139 -0.187781 0)
(0.305247 -0.189214 0)
(0.269258 -0.189366 0)
(0.233712 -0.188581 0)
(0.198899 -0.187066 0)
(0.164905 -0.184951 0)
(0.131707 -0.182338 0)
(0.0992053 -0.179301 0)
(0.0672423 -0.175899 0)
(0.0356054 -0.17217 0)
(0.00403143 -0.168123 0)
(-0.0277932 -0.163775 0)
(-0.0602265 -0.159118 0)
(-0.0936483 -0.154097 0)
(-0.128459 -0.148635 0)
(-0.165049 -0.142621 0)
(-0.203763 -0.135905 0)
(-0.244846 -0.128315 0)
(-0.288373 -0.119654 0)
(-0.334158 -0.109703 0)
(-0.381642 -0.0982169 0)
(-0.429837 -0.0850468 0)
(-0.477525 -0.0701818 0)
(-0.522841 -0.0536204 0)
(-0.558381 -0.0344373 0)
(-0.55699 -0.0135951 0)
(0.418128 -0.164659 0)
(0.379716 -0.168657 0)
(0.342835 -0.171179 0)
(0.305768 -0.172198 0)
(0.268896 -0.172104 0)
(0.232675 -0.17117 0)
(0.19732 -0.169564 0)
(0.162881 -0.167409 0)
(0.129311 -0.164801 0)
(0.0964938 -0.161815 0)
(0.0642569 -0.15851 0)
(0.032374 -0.154926 0)
(0.000568123 -0.151079 0)
(-0.031493 -0.146993 0)
(-0.064184 -0.142666 0)
(-0.09791 -0.138052 0)
(-0.1331 -0.133081 0)
(-0.17018 -0.127648 0)
(-0.209525 -0.121608 0)
(-0.251391 -0.114793 0)
(-0.29585 -0.107019 0)
(-0.342732 -0.0981039 0)
(-0.391514 -0.087853 0)
(-0.441112 -0.0760873 0)
(-0.490186 -0.0627541 0)
(-0.53699 -0.0478444 0)
(-0.574739 -0.0307458 0)
(-0.576183 -0.0121419 0)
(0.42129 -0.149763 0)
(0.382269 -0.15334 0)
(0.344162 -0.155387 0)
(0.306055 -0.15611 0)
(0.268394 -0.155844 0)
(0.231556 -0.154806 0)
(0.195702 -0.153145 0)
(0.160856 -0.150978 0)
(0.12695 -0.1484 0)
(0.0938545 -0.145485 0)
(0.0613817 -0.142292 0)
(0.0292945 -0.138865 0)
(-0.00269682 -0.135227 0)
(-0.0349419 -0.131407 0)
(-0.0678308 -0.127408 0)
(-0.101795 -0.123193 0)
(-0.137296 -0.1187 0)
(-0.174801 -0.113827 0)
(-0.214704 -0.108426 0)
(-0.257239 -0.102313 0)
(-0.302494 -0.095365 0)
(-0.350367 -0.0874539 0)
(-0.400323 -0.0783774 0)
(-0.451187 -0.0679191 0)
(-0.501546 -0.0560351 0)
(-0.549704 -0.0426572 0)
(-0.589384 -0.0274465 0)
(-0.593355 -0.0108249 0)
(0.424383 -0.135667 0)
(0.384463 -0.138793 0)
(0.345209 -0.140471 0)
(0.306175 -0.140984 0)
(0.267795 -0.140596 0)
(0.230381 -0.139483 0)
(0.194065 -0.137786 0)
(0.158846 -0.135622 0)
(0.124639 -0.133085 0)
(0.0912982 -0.130251 0)
(0.0586257 -0.127179 0)
(0.0263733 -0.123916 0)
(-0.00576016 -0.120492 0)
(-0.0381388 -0.116941 0)
(-0.0711695 -0.11327 0)
(-0.105311 -0.109449 0)
(-0.141069 -0.105428 0)
(-0.17894 -0.101097 0)
(-0.219301 -0.0962693 0)
(-0.262423 -0.0908223 0)
(-0.308417 -0.0846694 0)
(-0.357133 -0.0777266 0)
(-0.40808 -0.0697825 0)
(-0.460132 -0.0605423 0)
(-0.511695 -0.0499928 0)
(-0.561124 -0.0380836 0)
(-0.602205 -0.0245306 0)
(-0.608741 -0.00958937 0)
(0.42726 -0.122344 0)
(0.386343 -0.125054 0)
(0.346049 -0.126456 0)
(0.306176 -0.126818 0)
(0.267119 -0.126336 0)
(0.22916 -0.125162 0)
(0.192414 -0.123435 0)
(0.156856 -0.121277 0)
(0.122381 -0.118785 0)
(0.0888295 -0.116035 0)
(0.0559932 -0.113089 0)
(0.0236148 -0.109996 0)
(-0.00861787 -0.106793 0)
(-0.0410813 -0.103515 0)
(-0.0742017 -0.100173 0)
(-0.108471 -0.0967519 0)
(-0.144433 -0.0931984 0)
(-0.182579 -0.0893537 0)
(-0.223359 -0.0850761 0)
(-0.267048 -0.0802835 0)
(-0.313634 -0.0749009 0)
(-0.36302 -0.0688458 0)
(-0.414856 -0.0619473 0)
(-0.468018 -0.0538735 0)
(-0.520694 -0.0445717 0)
(-0.5713 -0.0340704 0)
(-0.613417 -0.0219737 0)
(-0.622482 -0.00843401 0)
(0.42987 -0.109772 0)
(0.387954 -0.112118 0)
(0.346706 -0.113283 0)
(0.306061 -0.113469 0)
(0.26639 -0.112893 0)
(0.227927 -0.111683 0)
(0.190766 -0.109973 0)
(0.15489 -0.107835 0)
(0.120177 -0.105397 0)
(0.0864505 -0.102738 0)
(0.0534881 -0.0999254 0)
(0.0210245 -0.0970112 0)
(-0.011263 -0.0940378 0)
(-0.0437644 -0.0910428 0)
(-0.0769292 -0.0880446 0)
(-0.111281 -0.0850332 0)
(-0.147364 -0.0819089 0)
(-0.185764 -0.0785271 0)
(-0.226965 -0.07481 0)
(-0.271096 -0.0706416 0)
(-0.31815 -0.0659694 0)
(-0.368121 -0.0607378 0)
(-0.420729 -0.0547917 0)
(-0.474907 -0.0478089 0)
(-0.528624 -0.0396669 0)
(-0.580266 -0.0304362 0)
(-0.623836 -0.0196704 0)
(-0.634689 -0.00742996 0)
(0.432184 -0.097914 0)
(0.389298 -0.0999039 0)
(0.347206 -0.10078 0)
(0.305864 -0.100789 0)
(0.265594 -0.100101 0)
(0.226655 -0.0988454 0)
(0.189147 -0.0971543 0)
(0.152997 -0.0951095 0)
(0.118055 -0.0927778 0)
(0.0841747 -0.0902349 0)
(0.0511207 -0.0875764 0)
(0.0186132 -0.08486 0)
(-0.013685 -0.0821351 0)
(-0.0461819 -0.0794447 0)
(-0.0793493 -0.0768116 0)
(-0.113712 -0.0741939 0)
(-0.149895 -0.0714719 0)
(-0.188563 -0.068584 0)
(-0.230092 -0.0653897 0)
(-0.274572 -0.0618067 0)
(-0.322039 -0.0578031 0)
(-0.372503 -0.0533252 0)
(-0.425776 -0.0482486 0)
(-0.480872 -0.0422776 0)
(-0.535586 -0.0351913 0)
(-0.588156 -0.0270722 0)
(-0.633249 -0.0175465 0)
(-0.645514 -0.00658231 0)
(0.434184 -0.0867074 0)