/*--------------------------------*- C++ -*----------------------------------*\
| =========                 |                                                 |
| \\      /  F ield         | OpenFOAM: The Open Source CFD Toolbox           |
|  \\    /   O peration     | Version:  v2012                                 |
|   \\  /    A nd           | Website:  www.openfoam.com                      |
|    \\/     M anipulation  |                                                 |
\*---------------------------------------------------------------------------*/
FoamFile
{
    version     2.0;
    format      ascii;
    class       volScalarField;
    location    "2000";
    object      age;
}
// * * * * * * * * * * * * * * * * * * * * * * * * * * * * * * * * * * * * * //

dimensions      [0 0 1 0 0 0 0];


internalField   nonuniform List<scalar> 
6502
(
0.013066
0.0123268
0.0124326
0.0124694
0.0124753
0.0124753
0.0124693
0.0124324
0.0123269
0.0130651
0.0406843
0.0365807
0.0367012
0.0370429
0.0371307
0.0371304
0.037042
0.0367002
0.0365788
0.0406781
0.0725451
0.0609519
0.060108
0.0609193
0.061195
0.061194
0.0609172
0.0601051
0.0609385
0.0725155
0.109833
0.086106
0.0827189
0.0839847
0.0845424
0.0845403
0.083982
0.0827106
0.0860572
0.109735
0.153416
0.112427
0.104681
0.106248
0.107163
0.10716
0.106246
0.104661
0.112297
0.15316
0.203425
0.140147
0.126226
0.127803
0.129109
0.129105
0.127803
0.126179
0.139854
0.202845
0.259268
0.168437
0.147406
0.148773
0.150463
0.15046
0.148782
0.147318
0.167842
0.258101
0.319901
0.20006
0.168809
0.169263
0.171305
0.171305
0.169289
0.168614
0.198948
0.317772
0.384341
0.230652
0.190291
0.18939
0.19171
0.191718
0.189444
0.189935
0.228861
0.380718
0.451844
0.261586
0.211844
0.209238
0.211748
0.21177
0.209331
0.211245
0.25857
0.445959
0.521882
0.293181
0.233507
0.228874
0.231473
0.23152
0.229013
0.23253
0.288272
0.512811
0.594336
0.325587
0.255289
0.248344
0.250925
0.251013
0.248541
0.253791
0.317801
0.580329
0.668544
0.358928
0.277398
0.26769
0.270139
0.270284
0.267949
0.274932
0.346948
0.64932
0.747226
0.393702
0.300534
0.287011
0.289136
0.289352
0.287289
0.296213
0.375526
0.720906
0.829707
0.430275
0.324163
0.306383
0.307933
0.308238
0.306522
0.317813
0.403507
0.791568
0.91483
0.469097
0.348132
0.325894
0.326549
0.326959
0.325619
0.339274
0.430581
0.857971
1.00288
0.510809
0.371895
0.345565
0.345017
0.345524
0.344561
0.360322
0.456317
0.919299
1.09453
0.556365
0.395837
0.365403
0.363373
0.363945
0.36333
0.380748
0.480003
0.970915
1.19112
0.60698
0.420618
0.385495
0.381661
0.382232
0.381909
0.400386
0.500984
1.01265
1.29388
0.664492
0.446762
0.405975
0.399942
0.400403
0.400296
0.418982
0.516853
1.01822
1.4053
0.731322
0.475469
0.427118
0.41837
0.418574
0.418606
0.436336
0.525367
0.956622
1.52846
0.80841
0.507787
0.449245
0.437076
0.43679
0.43692
0.45298
0.531482
0.905188
1.66483
0.896713
0.544977
0.472375
0.456009
0.45502
0.455235
0.469003
0.537216
0.853135
1.8198
0.998319
0.588834
0.497986
0.475625
0.473303
0.473591
0.484547
0.543158
0.803612
1.99599
1.11536
0.641488
0.525824
0.496465
0.491781
0.492016
0.499875
0.549598
0.760043
2.20422
1.25138
0.705827
0.555456
0.518486
0.510658
0.510518
0.516228
0.556888
0.723608
2.4579
1.4122
0.78586
0.588374
0.541957
0.530148
0.529145
0.53315
0.565398
0.694832
2.76706
1.605
0.887915
0.627651
0.567472
0.550562
0.548038
0.550554
0.575369
0.673803
3.1523
1.84001
1.0176
0.678375
0.595691
0.571861
0.567286
0.568473
0.586936
0.660178
3.64973
2.13099
1.17923
0.745979
0.629381
0.59544
0.587201
0.586867
0.600358
0.653508
4.32129
2.50986
1.38759
0.838924
0.667905
0.621497
0.608263
0.605985
0.613469
0.652614
5.30948
2.98118
1.63831
0.967161
0.718727
0.651296
0.630937
0.626025
0.629201
0.656518
6.90612
3.85278
2.02449
1.14023
0.786051
0.686378
0.655646
0.64718
0.64693
0.664879
10.6038
4.12926
2.41824
1.40383
0.901751
0.73163
0.684295
0.670072
0.666489
0.676831
92.9432
16.4023
3.22568
1.66543
1.04859
0.798798
0.719125
0.695145
0.688093
0.689108
99.3025
36.3837
5.71692
2.18672
1.23759
0.888105
0.764145
0.723964
0.712176
0.704086
97.029
69.983
16.6331
2.79231
1.5017
1.02071
0.831514
0.761261
0.739112
0.726264
94.2977
87.8685
41.6633
8.36825
1.89635
1.18753
0.924472
0.815741
0.773414
0.753814
93.2946
69.0418
60.5295
23.9318
4.63174
1.47281
1.04056
0.885261
0.82044
0.789319
91.9208
62.4059
62.6298
45.0519
15.284
2.76867
1.25913
0.972404
0.874537
0.832691
90.7323
60.3321
56.6913
55.1068
34.1863
10.5969
1.87941
1.1551
0.952092
0.881687
89.7443
58.9842
54.3019
55.1681
49.4152
27.2404
7.9634
1.41899
1.08131
0.955672
88.5705
57.905
53.4074
53.6587
54.2682
44.4874
22.94
6.53456
1.24246
1.05427
88.1429
57.2175
52.6796
53.1643
54.5159
54.5162
40.8322
20.3499
5.82326
1.18362
88.5647
56.782
52.1102
52.7927
55.0794
57.5186
54.1954
38.6232
19.2005
5.75183
88.6603
56.3217
51.5902
52.4344
55.8976
58.5745
60.4469
54.3866
38.1105
19.5848
88.5082
55.8543
51.0967
52.0411
56.215
60.9963
63.6354
63.7836
55.7385
39.3528
88.2451
55.3775
50.6131
51.6296
56.358
62.3425
67.5108
69.7692
68.0989
58.6746
87.566
54.83
50.1294
51.2016
56.2466
63.159
70.2118
75.4517
77.0589
73.7578
86.7153
54.2775
49.6485
50.7242
55.8309
63.2873
71.6608
79.3943
84.611
85.4748
86.0111
53.79
49.1734
50.1256
55.0217
62.592
71.6714
81.0514
89.1896
94.3249
85.7039
53.434
48.7087
49.3069
53.7152
60.9148
70.0295
80.1283
90.0915
98.4558
86.4465
53.3336
48.2885
48.3133
51.9108
58.194
66.5813
76.4464
87.0219
97.2862
89.3925
53.6905
47.9457
47.3484
49.7533
54.6369
61.5905
70.2083
80.0661
90.5272
95.5973
54.8119
47.8709
46.5399
47.5743
50.71
55.7178
62.2978
70.2396
79.2158
105.897
57.3444
48.5483
46.1865
45.8827
47.1626
49.985
54.126
59.4871
65.8624
125.572
63.4947
50.8243
46.5894
45.215
44.9354
45.6502
47.37
50.08
53.5696
162.639
82.0815
55.2488
48.9442
45.8604
44.3958
43.8502
43.6603
44.0387
45.0203
228.144
130.481
65.2716
54.3862
49.1487
46.0407
44.1496
42.9529
42.2234
41.8735
358.659
251.206
89.3998
63.9971
55.8551
50.7095
47.3944
45.0303
43.2828
41.9517
123.182
217.545
218.017
225.361
234.189
243.647
252.833
261.638
270.152
278.581
287.331
297.01
308.324
322.082
339.025
359.452
382.861
409.779
440.369
470.18
494.839
514.085
534.264
573.064
669.912
109.447
187.314
165.283
170.535
174.004
178.742
183.389
188.015
192.665
197.5
202.777
208.923
216.537
226.578
240.723
261.115
290.221
330.854
386.14
452.123
520.793
551.241
559.735
579.356
657.101
87.2059
173.086
154.349
156.127
157.307
159.614
162.112
164.748
167.424
170.146
172.996
176.11
179.657
183.855
189.397
198.06
213.419
241.302
293.443
375.454
487.509
583.735
593.686
595.716
660.846
64.4876
159.601
151.25
150.621
150.626
151.38
152.567
154.145
156.083
158.336
160.862
163.764
167.08
170.764
174.783
179.233
184.669
193
213.882
262.823
366.784
511.895
615.729
611.845
669.042
44.7256
143.165
150.537
148.891
148.565
148.416
148.437
148.619
149.049
149.901
151.243
153.199
155.98
159.674
164.21
169.534
175.256
181.155
187.827
200.077
244.689
357.602
539.218
662.707
685.85
28.3439
123.528
150.312
148.569
148.154
147.854
147.638
147.498
147.37
147.276
147.34
147.653
148.475
150.333
153.532
158.349
164.601
172.038
179.771
187.116
196.252
233.663
351.364
603.074
710.847
16.2229
98.1209
146.587
148.646
148.298
148.132
147.872
147.562
147.264
146.964
146.693
146.535
146.449
146.519
147.255
149.503
153.928
160.711
169.658
179.678
189.224
199.395
225.468
359.49
701.066
9.18488
70.6499
136.072
148.887
149.046
150.008
150.478
150.231
149.613
148.777
147.869
147
146.339
146.042
145.825
145.895
147.222
151.064
158.266
168.685
181.134
193.407
205.019
223.864
304.093
5.3095
46.1236
118.618
148.053
150.09
153.982
157.179
158.614
158.813
158.119
156.578
154.257
151.426
148.769
146.671
145.545
145.33
146.066
149.564
157.557
169.837
184.336
197.639
208.395
220.797
3.16673
26.9542
93.5922
141.283
150.703
157.399
164.325
168.713
171.369
172.527
172.145
170.101
166.327
161.106
155.17
149.784
146.289
145.04
145.503
149.225
159.083
174.294
190.564
202.94
211.396
1.99059
13.5613
64.7484
125.943
150.761
159.211
170.142
178.782
185.304
189.822
192.166
191.954
188.873
182.774
174.119
164.024
154.35
147.589
144.9
145.334
150.288
163.846
182.613
198.047
205.647
1.34527
6.7108
38.91
99.8702
143.062
159.7
172.781
186.859
198.493
207.87
214.571
217.926
217.216
211.999
202.174
188.568
173.009
158.373
148.21
144.806
145.54
154.198
173.805
193.453
202.17
1.00369
3.56194
20.0738
69.8706
124.034
155.385
172.305
190.506
208.343
223.625
236.026
244.535
248.045
245.608
236.715
221.522
201.454
179.298
159.398
147.206
144.291
147.38
164.411
188.447
199.84
0.837229
2.07698
8.71993
40.841
94.6958
140.64
167.647
188.684
211.964
233.951
252.759
267.542
276.728
278.905
273.111
258.875
236.872
209.315
180.314
156.205
144.882
143.768
155.402
182.782
198.211
0.766521
1.3339
4.05202
19.7651
62.1279
113.803
154.038
181.611
207.772
235.666
261.47
282.813
298.468
306.631
305.601
294.68
273.585
243.808
208.613
173.918
149.427
142.773
148.39
176.395
197.065
0.741703
0.980259
2.18852
7.85737
32.9991
78.9347
127.589
165.899
196.568
227.411
259.017
287.344
310.186
324.843
329.5
323.516
305.837
276.958
239.275
197.707
160.357
142.728
143.036
169.593
196.249
0.741496
0.836625
1.34827
3.33737
13.9278
45.46
91.4124
137.613
176.311
210.466
244.796
278.46
308.135
329.362
343.21
341.049
329.046
303.799
266.635
222.805
177.413
145.381
139.179
162.604
195.664
0.750706
0.79044
0.975699
1.78118
4.75087
19.9759
53.9816
98.8466
143.795
183.814
220.724
256.768
290.978
319.026
338.475
346.084
339.826
320.664
286.48
243.942
195.674
152.768
136.856
155.745
195.136
0.77308
0.78538
0.847555
1.13045
2.07559
6.6532
24.4303
58.2377
101.204
145.228
186.316
224.624
260.888
293.27
318.551
333.786
337.825
324.206
295.96
257.51
210.383
162.003
136.342
149.507
194.785
0.807719
0.799294
0.818804
0.891741
1.23529
2.26205
7.97756
26.5454
58.3421
98.4767
140.906
181.859
220.144
254.971
284.323
305.432
315.356
311.284
292.885
261.303
219.288
170.884
136.258
144.523
194.533
0.849184
0.829944
0.827099
0.845484
0.916846
1.2609
1.98041
8.0966
25.5383
54.2067
90.6202
130.217
169.429
206.067
238.3
263.934
280.274
284.905
276.071
253.56
219.286
176.441
136.189
140.13
194.324
0.901495
0.872022
0.854943
0.852926
0.864769
0.931507
1.04103
1.47008
6.65844
21.3458
46.0117
77.8439
113.297
149.105
182.593
211.384
233.049
245.188
245.825
233.659
209.097
175.183
136.201
134.765
194.143
0.975058
0.930813
0.900834
0.882497
0.876074
0.883541
0.913727
1.01316
1.10217
4.51473
15.1321
34.8422
61.2112
91.351
122.352
151.498
176.251
194.2
203.188
201.655
188.783
165.499
134.694
126.514
193.895
1.05139
0.999788
0.963318
0.933589
0.912809
0.899616
0.902251
0.923432
0.96181
1.04202
2.42963
8.86806
22.7555
43.0048
67.0744
92.4138
116.533
137.067
151.858
159.146
157.971
147.685
129.197
113.007
167.505
1.21311
1.06077
1.02723
0.997471
0.970215
0.946422
0.929706
0.926815
0.935945
0.955508
1.04587
1.11606
3.96045
11.6651
25.4815
43.184
62.5909
81.5534
98.0825
110.47
117.457
118.565
114.295
104.321
88.5569
6.42992
1.56693
1.13117
1.06522
1.03105
1.00537
0.983191
0.963302
0.954805
0.959273
0.972502
0.994227
1.0839
1.16919
4.08841
10.7443
21.5696
34.995
49.0063
61.9304
72.4668
79.7657
83.6036
84.2018
83.6826
21.5459
8.17868
2.31435
1.30306
1.13769
1.07633
1.04278
1.01934
1.00221
0.991259
0.985557
0.990386
1.00621
1.03226
1.11016
1.16999
2.85775
6.9482
13.52
22.2395
31.362
39.7925
46.8557
52.2373
56.3191
42.7159
25.2443
10.9785
3.68097
1.66181
1.27716
1.15093
1.09159
1.0604
1.04245
1.02959
1.0224
1.01893
1.02397
1.04126
1.06423
1.12814
1.18928
1.34426
2.85845
5.70942
9.73816
14.6792
19.9444
24.9457
63.7805
48.1773
30.4472
15.1724
6.03202
2.37629
1.53458
1.28318
1.17102
1.11542
1.08709
1.07258
1.06283
1.05772
1.05617
1.06238
1.07597
1.09955
1.13562
1.1877
1.23727
1.28725
1.73094
2.81508
4.46578
81.2178
70.9758
55.372
37.3537
21.2035
9.83276
3.96693
2.08476
1.54142
1.31762
1.20589
1.15011
1.1224
1.10908
1.1016
1.09868
1.0982
1.1052
1.11514
1.13511
1.16082
1.18694
1.23089
1.27249
1.31459
94.9138
90.2009
79.7345
64.1798
46.0846
29.1117
15.5319
7.2205
3.29297
2.04459
1.59322
1.37573
1.25955
1.19911
1.16843
1.15406
1.14763
1.14525
1.14692
1.1523
1.16232
1.17602
1.19441
1.21698
1.24195
105.128
105.143
100.137
89.6383
74.2973
56.3944
38.5698
23.5805
12.5876
6.16826
3.21977
2.15154
1.70395
1.47062
1.33928
1.26748
1.22985
1.21111
1.20321
1.20137
1.20361
1.20945
1.2177
1.23017
1.24352
105.983
113.754
113.189
108.97
99.1065
84.566
67.1621
49.3217
33.2209
20.3517
11.3465
6.05693
3.438
2.36882
1.88222
1.61672
1.46002
1.36813
1.31626
1.28846
1.27511
1.27065
1.2717
1.27638
1.28418
100.473
108.91
115.231
117.449
114.16
105.658
92.5657
76.5599
59.5757
43.4281
29.5862
18.8546
11.2597
6.59362
3.99023
2.76358
2.17106
1.84696
1.65052
1.52707
1.45067
1.40515
1.37949
1.36653
1.36208
88.5122
97.4198
105.332
111.213
113.72
113.866
106.521
95.4344
81.7827
66.8533
52.0426
38.5749
27.2213
18.4628
12.0149
7.71679
5.07993
3.53084
2.70158
2.24509
1.97112
1.79662
1.68154
1.60523
1.55576
72.8691
80.1298
87.3546
93.9919
99.2593
102.217
102.001
97.1948
89.7066
79.6403
68.1508
56.189
44.6686
34.3621
25.6255
18.6333
13.3716
9.50358
6.81214
5.0236
3.86095
3.10614
2.63633
2.33814
2.14098
57.6529
62.1487
66.9234
71.7304
76.1744
79.726
81.8716
82.1869
80.1987
76.1959
69.7569
62.3134
54.0831
45.7657
37.8352
30.6397
24.4342
19.2689
15.1085
11.8582
9.38801
7.50672
6.09978
5.0642
4.30972
46.4788
48.344
50.5281
52.9412
55.4355
57.7704
59.6701
60.9081
61.2489
60.4459
58.3326
55.2924
51.369
46.8535
41.9703
36.9864
32.2024
27.7969
23.8544
20.4104
17.4745
15.0125
12.9716
11.295
9.93335
41.5545
41.4227
41.5081
41.7634
42.1724
42.7068
43.2812
43.7745
44.0525
44.0436
43.6874
42.9166
41.7697
40.2253
38.2993
36.0692
33.6935
31.3212
29.0031
26.7661
24.6757
22.7884
21.1006
19.6022
18.2918
40.9441
40.1671
39.5613
39.1025
38.6747
38.2877
37.9328
37.6013
37.2825
36.968
36.6504
36.321
35.9463
35.4708
34.8548
34.1578
33.4264
32.6352
31.7997
30.9264
30.0028
29.1486
28.3605
27.6357
26.9816
265.982
303.273
321.696
99.9088
159.878
227.376
82.4627
79.592
78.1201
59.1804
61.1372
62.7266
29.2652
32.9539
36.315
6.38269
8.54618
10.9813
1.35338
1.39218
1.52885
1.26682
1.2917
1.32066
1.25853
1.27484
1.29319
1.29353
1.30402
1.3158
1.36295
1.36715
1.37376
1.52556
1.5083
1.49865
2.01236
1.92567
1.86217
3.78056
3.40875
3.12892
8.88377
8.07355
7.39494
17.2133
16.3352
15.5681
26.4548
26.0032
25.6076
5123.12
5057.86
5008.53
5000.53
5026.7
5074.74
5146.07
5237.71
5336.79
5381.66
5308.57
5073.4
4658.47
4061.6
3350.96
2663.96
2107.62
1718.15
1463.38
1290.58
1157.83
1042.04
933.752
831.216
736.062
650.561
576.122
512.786
459.648
415.37
378.587
348.065
322.76
301.956
285.326
272.497
261.771
252.474
244.687
238.118
232.565
227.862
223.863
220.5
217.614
215.156
213.026
211.177
209.57
208.148
206.879
205.781
204.808
203.935
203.188
202.496
201.827
201.19
200.646
200.127
199.609
199.144
198.714
198.355
198.125
197.904
197.838
198.135
199.124
200.924
204.02
208.706
216.588
230.098
250.071
277.682
316.114
367.078
402.689
463.204
4677.5
4571.13
4524.08
4554.26
4638
4754.84
4886.76
5027.23
5115.24
5013.69
4545.76
3670.58
2804.86
2109.45
1607.4
1270.38
1051.1
905.064
800.753
719.068
650.159
589.815
536.244
488.544
446.261
409.288
377.342
349.922
326.524
306.65
289.823
275.541
263.317
252.714
243.532
236.157
230.019
224.621
219.994
216.054
212.802
210.194
208.099
206.428
204.932
203.599
202.375
201.22
200.179
199.395
198.882
198.415
197.947
197.521
197.127
196.748
196.395
196.057
195.777
195.471
195.199
194.946
194.7
194.216
193.335
192.093
190.55
188.783
186.963
185.235
184.611
184.17
183.763
185.46
193.101
213.313
258.586
346.906
455.388
494.831
4191.23
4102.83
4131.23
4264.71
4431.48
4610.07
4732.33
4651.38
4135.84
3248.58
2331.83
1622.08
1159.67
882.294
719.064
618.408
550.056
498.841
457.829
423.661
394.509
369.264
347.223
327.777
310.469
295.144
281.634
269.718
259.22
249.993
241.903
234.821
228.638
223.327
219.002
215.56
212.859
210.768
209.117
207.781
206.705
205.836
205.28
204.985
204.656
204.423
204.502
205.051
206.15
207.836
210.1
213.001
216.623
220.893
225.515
230.286
235.006
239.421
243.257
246.22
248.04
248.462
247.352
244.754
240.647
235.111
228.316
220.534
212.141
203.635
195.732
189.263
183.918
180.665
179.877
180.477
189.209
237.56
357.951
518.645
3854.84
3810.75
3924.47
4125.04
4291.59
4228.19
3800.07
3028.11
2125.99
1375.6
895.387
649.281
525.114
457.06
413.744
382.304
357.4
336.865
319.639
304.971
292.269
281.098
271.17
262.224
254.069
246.68
240.028
234.059
228.779
224.321
220.618
217.594
215.197
213.36
211.9
210.583
209.533
208.784
208.332
208.025
207.848
208.197
209.097
210.634
213.21
217.254
222.65
229.292
237.174
246.206
256.254
267.109
278.451
289.899
301.104
311.832
321.659
330.185
337.011
341.762
344.116
343.805
340.64
334.514
325.45
313.629
299.394
283.244
265.818
247.871
230.245
213.847
199.63
188.459
181.312
178.609
178.543
182.61
219.115
340.097
3605.27
3579.85
3689.73
3744.64
3506.31
2918.56
2117.31
1346.73
807.233
538.841
428.119
380.779
347.587
325.447
308.699
295.057
283.401
273.523
265.035
257.631
251.071
245.196
239.91
235.122
230.781
226.916
223.6
220.817
218.524
216.667
215.058
213.626
212.514
211.628
210.982
210.682
210.44
210.669
211.456
213.146
216.31
220.917
227.102
235.101
245.033
256.759
270.043
284.972
301.388
319.056
337.683
356.917
376.362
395.591
414.133
431.468
447.019
460.205
470.429
477.108
479.745
477.955
471.441
460.076
443.936
423.362
398.942
371.491
342.03
311.734
281.863
253.685
228.409
207.159
190.973
180.806
177.387
177.387
182.332
198.689
3378.11
3312.06
3221.64
2896.26
2273.71
1522.44
888.747
531.743
391.469
347.375
318.087
300.23
286.598
275.901
266.714
258.952
252.333
246.661
241.726
237.387
233.541
230.124
227.096
224.421
222.079
220.093
218.438
216.949
215.704
214.651
213.808
213.241
212.921
212.721
213.033
214.063
216.334
219.999
225.277
232.491
241.737
252.938
266.437
282.239
300.297
320.518
342.826
367.105
393.117
420.564
449.076
478.203
507.41
536.07
563.462
588.8
611.257
629.987
644.124
652.832
655.433
651.451
640.537
622.548
597.573
566.096
528.985
487.394
442.794
396.885
351.495
308.439
269.382
235.754
208.737
189.348
178.575
175.621
176.913
184.311
3151.95
2961.21
2570.45
1936.58
1222.67
672.6
412.54
338.405
308.254
290.888
278.248
268.268
259.909
252.871
246.943
241.986
237.789
234.19
231.07
228.348
225.963
223.873
222.048
220.457
219.079
217.901
216.904
216.087
215.538
215.165
214.966
215.272
216.304
218.482
221.987
227.103
234.09
242.971
254.133
267.707
283.798
302.534
324.045
348.333
375.4
405.214
437.678
472.601
509.701
548.59
588.759
629.559
670.206
709.789
747.293
781.64
811.737
836.503
854.793
865.552
867.947
861.384
845.45
819.978
785.057
741.261
689.68
631.765
569.416
504.901
440.725
379.434
323.375
274.505
234.307
203.857
184.007
175.47
173.96
177.509
2918.27
2549.32
1893.5
1156.66
604.238
365.607
313.306
291.101
277.784
267.389
258.779
251.495
245.523
240.64
236.643
233.319
230.515
228.12
226.056
224.268
222.716
221.373
220.224
219.262
218.486
217.941
217.523
217.313
217.566
218.494
220.389
223.414
227.847
233.903
241.746
251.703
263.956
278.714
296.229
316.657
340.178
366.952
397.093
430.683
467.767
508.316
552.196
599.153
648.794
700.56
753.718
807.358
860.415
911.687
959.876
1003.63
1041.61
1072.49
1094.92
1107.69
1109.8
1100.53
1079.36
1046.09
1000.86
944.303
877.573
802.32
720.75
635.61
550.077
467.539
391.266
324.042
267.917
224.199
193.721
177.269
172.903
173.486
2677.35
2122.26
1310.2
652.267
360.728
300.579
283.568
271.687
261.929
253.618
246.868
241.462
237.206
233.805
231.04
228.748
226.828
225.207
223.837
222.688
221.745
221.002
220.507
220.057
219.888
220.14
220.99
222.622
225.171
228.857
233.832
240.35
248.655
258.965
271.53
286.616
304.461
325.326
349.453
377.077
408.434
443.731
483.145
526.806
574.764
626.953
683.168
743.03
805.966
871.198
937.745
1004.44
1069.96
1132.86
1191.59
1244.57
1290.22
1326.97
1353.3
1367.87
1369.55
1357.48
1331.09
1290.18
1234.94
1166.02
1084.61
992.402
891.737
785.6
677.639
572.011
473.031
384.632
309.832
250.493
207.568
181.596
172.418
170.997
2435.46
1716.77
864.975
406.07
300.805
280.286
269.726
259.545
251.079
244.381
239.275
235.375
232.361
229.981
228.074
226.538
225.309
224.347
223.626
223.177
222.751
222.688
223.037
223.916
225.414
227.646
230.754
234.865
240.196
246.936
255.295
265.52
277.855
292.562
309.922
330.216
353.739
380.793
411.679
446.707
486.169
530.331
579.408
633.53
692.708
756.8
825.478
898.198
974.191
1052.47
1131.83
1210.9
1288.15
1361.91
1430.45
1491.95
1544.62
1586.67
1616.44
1632.43
1633.4
1618.41
1586.89
1538.69
1474.05
1393.73
1298.93
1191.35
1073.27
947.651
818.235
689.604
566.96
455.547
359.794
282.594
225.283
188.494
172.726
169.414
2206.72
1375.33
586.141
324.82
283.454
269.979
259.669
250.345
243.37
238.268
234.552
231.796
229.729
228.185
227.06
226.281
225.842
225.494
225.578
226.093
227.11
228.658
230.793
233.595
237.189
241.698
247.269
254.074
262.314
272.201
283.973
297.888
314.219
333.263
355.333
380.758
409.885
443.072
480.687
523.095
570.634
623.597
682.194
746.513
816.483
891.844
972.147
1056.68
1144.5
1234.46
1325.2
1415.19
1502.72
1585.99
1663.05
1731.93
1790.61
1837.12
1869.61
1886.46
1886.31
1868.21
1831.67
1776.64
1703.5
1613.1
1506.74
1386.13
1253.45
1111.42
963.523
814.235
669.153
534.62
416.735
320.046
246.813
197.747
173.952
168.524
2016.62
1096.34
430.697
298.417
273.439
261.689
251.381
243.508
238.139
234.428
231.858
230.103
228.983
228.389
228.008
228.148
228.827
230.051
231.801
234.064
236.899
240.348
244.486
249.407
255.236
262.111
270.198
279.686
290.788
303.738
318.797
336.246
356.393
379.569
406.126
436.441
470.91
509.943
553.951
603.328
658.425
719.522
786.786
860.237
939.706
1024.8
1114.97
1209.34
1306.87
1406.32
1506.2
1604.9
1700.62
1791.4
1875.21
1949.87
2013.2
2063.02
2097.3
2114.27
2112.51
2091.05
2049.65
1988.51
1908.15
1809.52
1694
1563.29
1419.49
1265.09
1103.1
937.467
773.488
617.975
478.499
361.698
271.564
209.301
176.09
167.759
1924.09
912.995
364.567
284.637
265.749
254.242
244.906
238.772
234.88
232.418
230.992
230.378
230.093
230.653
231.949
233.926
236.468
239.593
243.26
247.486
252.311
257.793
264.017
271.093
279.151
288.348
298.866
310.909
324.709
340.52
358.627
379.337
402.988
429.943
460.591
495.344
534.632
578.892
628.548
683.992
745.552
813.459
887.809
968.53
1055.35
1147.78
1245.23
1346.7
1451.09
1557.08
1663.17
1767.71
1868.85
1964.59
2052.77
2131.05
2197.02
2248.3
2282.78
2298.76
2294.96
2270.51
2225.17
2158.89
2073.16
1968.81
1847.25
1710.09
1559.28
1397.09
1226.15
1049.69
872.193
700.096
541.734
405.756
298.58
222.741
179.301
167.124
1586.74
728.235
329.584
274.695
258.911
247.922
240.234
235.778
233.268
232.122
231.822
232.465
234.21
236.88
240.292
244.374
249.031
254.236
259.969
266.25
273.123
280.659
288.952
298.124
308.318
319.706
332.483
346.869
363.112
381.488
402.296
425.869
452.565
482.77
516.894
555.366
598.624
647.101
701.204
761.29
827.633
900.394
979.591
1065.07
1156.49
1253.28
1354.77
1459.93
1567.64
1676.57
1785.23
1891.97
1994.9
2091.93
2180.71
2258.63
2323.08
2371.72
2402.88
2415.81
2410.87
2387.85
2343.2
2273.73
2185.12
2078.28
1954.54
1815.28
1662.18
1497.26
1322.82
1141.52
956.888
774.307
601.899
449.657
326.55
237.391
183.617
166.59
1310.53
577.95
306.937
266.567
252.824
242.997
237.187
234.371
233.428
233.466
235.129
238.178
242.33
247.375
253.134
259.498
266.384
273.754
281.602
289.953
298.86
308.401
318.682
329.833
342.009
355.394
370.192
386.635
404.986
425.531
448.579
474.476
503.589
536.31
573.051
614.231
660.271
711.573
768.498
831.344
900.317
975.504
1056.85
1144.12
1236.9
1334.61
1436.47
1541.5
1648.56
1756.35
1863.39
1968.06
2068.49
2162.56
2247.89
2321.93
2382.15
2426.11
2450.95
2457.19
2446
2427.72
2390.34
2321.73
2233.65
2128.19
2006.58
1869.93
1719.6
1557.29
1384.97
1204.86
1019.68
833.588
653.579
490.014
353.724
252.337
188.77
166.133
1162.75
486.46
291.519
259.823
247.671
239.452
235.665
234.561
235.008
237.603
241.938
247.675
254.453
262.037
270.247
278.964
288.113
297.661
307.609
317.99
328.863
340.315
352.458
365.424
379.377
394.512
411.034
429.175
449.21
471.423
496.123
523.655
554.38
588.678
626.937
669.549
716.892
769.316
827.12
890.531
959.682
1034.58
1115.11
1200.97
1291.7
1386.68
1485.14
1586.07
1688.38
1790.81
1891.93
1990.21
2083.83
2170.85
2249.13
2316.45
2370.68
2410.68
2431.74
2436.88
2428.43
2405.21
2362.35
2296.86
2213.16
2113.17
1997.95
1868.43
1725.71
1571.17
1406.41
1233.25
1053.85
871.317
691.098
522.701
377.729
266.517
194.264
165.735
1023.94
426.338
280.038
254.175
243.467
237.373
235.725
236.122
239.398
244.945
252.233
260.807
270.3
280.467
291.135
302.189
313.566
325.241
337.22
349.542
362.269
375.494
389.326
403.898
419.373
435.952
453.833
473.235
494.435
517.706
543.347
571.685
603.058
637.816
676.309
718.881
765.853
817.51
874.082
935.724
1002.49
1074.34
1151.07
1232.36
1317.7
1406.49
1497.94
1591.07
1684.85
1778.07
1869.4
1957.43
2040.56
2117.09
2185.26
2243.33
2289.41
2323.42
2343.06
2347.12
2335.35
2307.19
2262.33
2201.28
2124.72
2033.35
1927.86
1809.07
1677.91
1535.49
1383.05
1222
1054
881.451
708.494
542.848
395.46
278.451
199.567
165.38
922.313
385.12
270.942
249.392
240.321
236.939
236.833
240.232
246.71
255.423
265.736
277.151
289.317
301.998
315.034
328.326
341.821
355.501
369.378
383.49
397.898
412.697
427.988
443.892
460.568
478.206
496.992
517.137
538.893
562.515
588.28
616.484
647.427
681.417
718.753
759.721
804.58
853.546
906.779
964.366
1026.3
1092.49
1162.69
1236.54
1313.55
1393.1
1474.47
1556.73
1638.9
1719.88
1798.5
1873.49
1943.51
2007.18
2063.1
2109.93
2146.35
2171.41
2184.18
2183.75
2169.71
2141.84
2100.11
2044.7
1975.92
1894.19
1800.04
1694.09
1577.06
1449.8
1313.21
1168.34
1016.41
859.286
700.268
545.179
403.191
286.112
203.894
165.056
838.381
354.343
263.334
245.251
238.71
237.48
240.133
246.971
256.801
268.668
281.896
295.997
310.653
325.651
340.853
356.176
371.576
387.041
402.584
418.237
434.059
450.132
466.547
483.414
500.876
519.097
538.247
558.521
580.135
603.318
628.313
655.373
684.755
716.714
751.495
789.324
830.394
874.86
922.82
974.303
1029.26
1087.54
1148.91
1213
1279.33
1347.32
1416.3
1485.47
1553.94
1620.74
1684.88
1745.28
1800.87
1850.56
1893.28
1928.04
1953.9
1970.07
1975.87
1970.8
1954.56
1926.99
1888.02
1837.75
1776.37
1704.18
1621.57
1529.02
1427.1
1316.43
1197.67
1071.6
939.203
801.985
662.479
525.008
396.535
286.673
206.037
164.747
748.548
328.849
256.454
242.147
238.598
239.519
245.803
256.18
269.236
284.003
299.828
316.273
333.064
350.02
367.029
384.022
400.963
417.841
434.666
451.465
468.285
485.19
502.255
519.577
537.275
555.481
574.344
594.028
614.713
636.593
659.871
684.753
711.448
740.157
771.071
804.356
840.152
878.557
919.621
963.333
1009.61
1058.29
1109.13
1161.8
1215.86
1270.8
1326.01
1380.83
1434.51
1486.27
1535.26
1580.66
1621.6
1657.27
1686.89
1709.73
1725.14
1732.58
1731.55
1721.76
1702.99
1675.12
1638.11
1592.05
1537.09
1473.5
1401.62
1321.83
1234.6
1140.41
1039.85
933.597
822.621
708.319
592.772
479.026
371.544
277.048
204.321
164.356
663.53
306.074
250.418
240.559
239.305
243.726
253.735
267.362
283.184
300.304
318.151
336.359
354.705
373.045
391.289
409.381
427.288
444.998
462.515
479.858
497.057
514.156
531.211
548.297
565.505
582.939
600.716
618.963
637.843
657.498
678.087
699.769
722.704
747.043
772.933
800.49
829.806
860.939
893.902
928.659
965.116
1003.12
1042.44
1082.78
1123.79
1165.04
1206.01
1246.19
1284.96
1321.72
1355.82
1386.63
1413.51
1435.86
1453.12
1464.79
1470.41
1469.57
1462.02
1447.53
1425.99
1397.32
1361.56
1318.8
1269.22
1213.07
1150.62
1082.24
1008.34
929.452
846.229
759.528
670.469
580.497
491.412
405.334
324.748
253.064
195.607
162.559
577.618
284.458
245.784
240.356
241.696
250.079
263.337
279.451
297.17
315.741
334.72
353.821
372.872
391.757
410.402
428.76
446.799
464.504
481.871
498.905
515.62
532.04
548.2
564.151
579.958
595.697
611.424
627.392
643.519
659.965
676.87
694.359
712.552
731.557
751.477
772.394
794.365
817.42
841.554
866.72
892.829
919.744
947.277
975.188
1003.19
1030.94
1058.06
1084.14
1108.73
1131.37
1151.59
1168.94
1182.96
1193.23
1199.37
1200.99
1197.8
1189.6
1176.21
1157.53
1133.49
1104.1
1069.38
1029.44
984.442
934.61
880.256
821.792
759.761
694.862
627.969
560.149
492.663
426.927
364.454
306.738
255.093
210.922
176.246
157.077
479.193
262.708
243.091
241.305
246.684
258.13
273.213
290.322
308.501
327.187
346.038
364.829
383.42
401.712
419.638
437.152
454.221
470.819
486.934
502.559
517.689
532.334
546.511
560.251
573.602
586.586
599.448
611.524
623.912
636.323
648.763
661.308
674.046
687.06
700.427
714.205
728.433
743.129
758.282
773.854
789.771
805.924
822.169
838.326
854.181
869.486
883.967
897.328
909.257
919.434
927.537
933.251
936.267
936.303
933.105
926.481
916.252
902.268
884.417
862.624
836.863
807.148
773.545
736.2
695.359
651.372
604.699
555.917
505.731
454.969
404.573
355.569
309.028
266.011
227.521
194.498
167.804
148.901
139.548
146.158
305.921
248.263
242.644
243.521
251.457
263.843
278.866
295.295
312.398
329.744
347.077
364.217
381.04
397.456
413.395
428.808
443.657
457.907
471.538
484.531
496.875
508.569
519.624
530.056
539.912
549.145
558.156
566.462
574.317
581.837
589.095
596.149
603.056
609.875
616.654
623.434
630.24
637.082
643.949
650.814
657.623
664.299
670.741
676.825
682.405
687.316
691.373
694.375
696.113
696.371
694.934
691.589
686.143
678.408
668.22
655.435
639.945
621.679
600.615
576.783
550.278
521.26
489.955
456.674
421.811
385.822
349.235
312.649
276.717
242.113
209.493
179.455
152.503
129.031
109.314
93.5707
81.9672
75.2225
73.1377
85.2867
258.957
250.036
246.477
251.295
258.692
267.481
277.89
289.789
302.795
316.419
330.257
344.021
357.509
370.593
383.176
395.188
406.573
417.283
427.287
436.561
445.09
452.87
459.907
466.215
471.82
476.745
481.043
484.752
487.91
490.564
492.781
494.607
496.082
497.246
498.134
498.774
499.183
499.368
499.324
499.029
498.449
497.531
496.206
494.39
491.986
488.88
484.954
480.082
474.139
467.001
458.552
448.686
437.312
424.364
409.805
393.634
375.889
356.656
336.064
314.292
291.567
268.157
244.358
220.518
196.874
173.679
151.364
130.36
111.023
93.614
78.2868