/*--------------------------------*- C++ -*----------------------------------*\
| =========                 |                                                 |
| \\      /  F ield         | OpenFOAM: The Open Source CFD Toolbox           |
|  \\    /   O peration     | Version:  v2012                                 |
|   \\  /    A nd           | Website:  www.openfoam.com                      |
|    \\/     M anipulation  |                                                 |
\*---------------------------------------------------------------------------*/
FoamFile
{
    version     2.0;
    format      ascii;
    class       volScalarField;
    location    "2000";
    object      k;
}
// * * * * * * * * * * * * * * * * * * * * * * * * * * * * * * * * * * * * * //

dimensions      [0 2 -2 0 0 0 0];


internalField   nonuniform List<scalar> 
6502
(
0.0672357
0.0910077
0.108954
0.113363
0.114315
0.114316
0.113366
0.10896
0.0910174
0.0672398
0.040011
0.0571936
0.0881631
0.100691
0.104152
0.104158
0.100711
0.0881988
0.0572203
0.0400247
0.0262826
0.0357527
0.0690667
0.0881636
0.0946538
0.0946723
0.0882169
0.0691435
0.0357927
0.0263151
0.0177348
0.0229153
0.0535302
0.0764374
0.0856776
0.085717
0.0765404
0.0536515
0.0229668
0.0177916
0.0123176
0.0152756
0.0417332
0.066001
0.0772634
0.077332
0.0661646
0.0418978
0.0153366
0.0123999
0.00912708
0.0106755
0.0330384
0.057036
0.0695028
0.0696092
0.0572716
0.0332476
0.0107453
0.00923747
0.00723335
0.00783555
0.0266705
0.0494629
0.0624449
0.0625977
0.0497809
0.0269246
0.00791505
0.00737503
0.00606117
0.00601207
0.0219515
0.0431135
0.0560923
0.0562997
0.0435224
0.0222534
0.00610479
0.0062404
0.00531498
0.0047883
0.0183936
0.0377896
0.0504155
0.0506843
0.0382995
0.0187484
0.00489631
0.0055439
0.00481484
0.00393615
0.0156614
0.0332907
0.0453587
0.0457012
0.0339234
0.016073
0.00406225
0.00510975
0.00445136
0.00332041
0.013517
0.0294674
0.0408568
0.041287
0.0302288
0.0139979
0.00346846
0.00483189
0.00416398
0.00285893
0.0117968
0.0261952
0.036851
0.0373796
0.0271055
0.0123581
0.00303398
0.00465541
0.00391872
0.0024995
0.0103709
0.0233681
0.0332818
0.0339147
0.02446
0.0110431
0.00270892
0.00455408
0.00369269
0.00220875
0.0091609
0.0209035
0.0300904
0.0308209
0.0222278
0.00996717
0.00246147
0.00451436
0.00347016
0.00196518
0.00811672
0.0187366
0.0272209
0.028052
0.0202969
0.00910591
0.00228677
0.00453267
0.00324142
0.00175471
0.00720282
0.0168159
0.0246236
0.025565
0.018613
0.0084124
0.00217872
0.00461708
0.0030003
0.00156764
0.00639048
0.0150843
0.022271
0.0233228
0.0171408
0.00785937
0.00212551
0.00478643
0.00274291
0.0013972
0.00565912
0.0135096
0.020126
0.0212919
0.0158508
0.00742945
0.00212595
0.00507194
0.00246767
0.00123864
0.00499371
0.0120653
0.0181584
0.0194423
0.0147167
0.00711017
0.0021877
0.00556324
0.00217624
0.00108891
0.00438404
0.0107323
0.0163465
0.0177474
0.013718
0.00689754
0.0023078
0.00593154
0.00187306
0.00094568
0.00382014
0.00948875
0.014654
0.0161703
0.0128274
0.00679937
0.00237649
0.0018979
0.0015695
0.000810112
0.00330399
0.00833853
0.0130857
0.0147054
0.0120243
0.00678481
0.00259897
0.00120765
0.00127944
0.000683612
0.00283505
0.00728022
0.0116302
0.0133378
0.0112768
0.00680015
0.00291297
0.00120287
0.00101362
0.000567825
0.00241298
0.00631425
0.0102837
0.0120579
0.0105638
0.00681021
0.00327022
0.00142724
0.000778749
0.000464116
0.00203681
0.00543996
0.00904529
0.010859
0.0098718
0.00679312
0.0036347
0.00175518
0.000578104
0.000373266
0.0017047
0.00465488
0.00791244
0.00973326
0.00918979
0.00673346
0.00397483
0.00212995
0.000412502
0.000295457
0.0014142
0.00395512
0.00688235
0.00867864
0.00851217
0.00661604
0.00426436
0.00251477
0.000280883
0.000230348
0.00116259
0.00333602
0.00595334
0.00771337
0.00784193
0.00643904
0.00448585
0.00288044
0.000180712
0.000177168
0.000947015
0.00279253
0.00511972
0.00682203
0.0071825
0.0062073
0.00462842
0.00320213
0.000108316
0.000134786
0.00076444
0.00231914
0.00437628
0.00600315
0.00653971
0.00592675
0.00469019
0.0034604
5.91985e-05
0.000101801
0.000611625
0.00190989
0.00371671
0.00525504
0.00592006
0.00560385
0.00467417
0.00364578
2.84893e-05
7.66747e-05
0.000485252
0.00155888
0.00313443
0.00457527
0.00532887
0.00525017
0.00458788
0.00375425
1.13558e-05
5.78397e-05
0.000381949
0.00126045
0.00262294
0.00396047
0.00477073
0.00487889
0.0044461
0.00379191
3.54348e-06
4.38755e-05
0.000298442
0.00100917
0.0021759
0.00340618
0.00424787
0.00450175
0.00426008
0.00376734
2.11037e-06
3.36971e-05
0.000231801
0.000800011
0.0017875
0.00290753
0.00376046
0.00412772
0.00404397
0.00369473
4.26089e-06
2.63228e-05
0.000179291
0.000628282
0.00145268
0.0024599
0.00330692
0.00376251
0.00381083
0.0035865
6.96905e-06
2.08046e-05
0.000138252
0.000489225
0.00116691
0.00205918
0.00288446
0.00340797
0.00356897
0.0034553
9.45752e-06
1.64389e-05
0.000105751
0.000377331
0.000925423
0.00170191
0.00249011
0.00306328
0.0033227
0.00331041
1.17379e-05
1.31327e-05
8.04407e-05
0.000288606
0.000724355
0.00138602
0.00212184
0.0027261
0.00307186
0.0031563
1.32466e-05
1.06062e-05
6.10988e-05
0.000219687
0.00056044
0.001111
0.00177968
0.00239428
0.00281309
0.00299178
1.33678e-05
8.51272e-06
4.62089e-05
0.000166319
0.000429156
0.000876274
0.00146571
0.00206782
0.00254222
0.00281125
1.31006e-05
6.8488e-06
3.48324e-05
0.000124568
0.000325329
0.000680273
0.00118333
0.00175002
0.00225705
0.00260697
1.26148e-05
5.5426e-06
2.62317e-05
9.30285e-05
0.000244569
0.000520667
0.000936484
0.00144809
0.00196039
0.00237313
1.14561e-05
4.46581e-06
1.97284e-05
6.95571e-05
0.000181681
0.000394457
0.000729882
0.00117527
0.00166597
0.00211444
1.01836e-05
3.58465e-06
1.47732e-05
5.18396e-05
0.000134946
0.000295061
0.000559567
0.000933632
0.00138188
0.0018362
9.20394e-06
2.90783e-06
1.10142e-05
3.83517e-05
9.94279e-05
0.000216182
0.000420438
0.000724064
0.00111518
0.00154921
8.43127e-06
2.40437e-06
8.23163e-06
2.82761e-05
7.3014e-05
0.000158152
0.000307252
0.000546218
0.000872661
0.00126448
7.84397e-06
2.05631e-06
6.20596e-06
2.08846e-05
5.35591e-05
0.000115279
0.000222679
0.000399578
0.000660757
0.000995524
7.44476e-06
1.80031e-06
4.75523e-06
1.55983e-05
3.95714e-05
8.42948e-05
0.000161222
0.00028715
0.000484386
0.000756034
7.06877e-06
1.59742e-06
3.7503e-06
1.19887e-05
2.97641e-05
6.23602e-05
0.00011744
0.00020653
0.000345643
0.000554824
6.56747e-06
1.41863e-06
3.05285e-06
9.54017e-06
2.31903e-05
4.72346e-05
8.65293e-05
0.000149577
0.000246829
0.000393896
5.82785e-06
1.23116e-06
2.53215e-06
7.77306e-06
1.85377e-05
3.68639e-05
6.56194e-05
0.000109526
0.000176326
0.000278933
4.78522e-06
1.01145e-06
2.07937e-06
6.30514e-06
1.47806e-05
2.8813e-05
5.01834e-05
8.1752e-05
0.000128194
0.000196759
3.50104e-06
7.59243e-07
1.62901e-06
4.9038e-06
1.13177e-05
2.17031e-05
3.72294e-05
5.97962e-05
9.24132e-05
0.000139581
2.17526e-06
4.99835e-07
1.16532e-06
3.49409e-06
7.94736e-06
1.50393e-05
2.55481e-05
4.07717e-05
6.2713e-05
9.42743e-05
1.07019e-06
2.734e-07
7.21219e-07
2.15551e-06
4.82829e-06
9.03206e-06
1.52571e-05
2.43267e-05
3.74886e-05
5.65189e-05
3.66979e-07
1.13461e-07
3.57816e-07
1.06303e-06
2.33753e-06
4.32433e-06
7.28266e-06
1.16402e-05
1.80331e-05
2.73585e-05
6.33194e-08
3.26946e-08
1.27155e-07
3.68793e-07
7.93961e-07
1.45909e-06
2.46352e-06
3.96382e-06
6.18805e-06
9.45455e-06
2.37968e-09
5.87774e-09
2.83479e-08
8.748e-08
2.04009e-07
4.05739e-07
7.31174e-07
1.2339e-06
1.98567e-06
3.0781e-06
9.92508e-10
1.84877e-09
2.55599e-08
1.46493e-07
4.61401e-07
1.0868e-06
2.16144e-06
3.86332e-06
6.41459e-06
1.00747e-05
0.000616571
0.000201613
0.000157003
0.000100685
6.36618e-05
4.04142e-05
2.67539e-05
1.84634e-05
1.30499e-05
9.32062e-06
6.62446e-06
4.59974e-06
3.05447e-06
1.89155e-06
1.05652e-06
5.05118e-07
1.86864e-07
4.3378e-08
9.36621e-09
2.44979e-08
3.98143e-08
3.7892e-08
2.32286e-08
8.40848e-09
1.48136e-09
0.000335425
8.64547e-05
3.58528e-05
1.94756e-05
1.17068e-05
7.35942e-06
4.83634e-06
3.3163e-06
2.34806e-06
1.69849e-06
1.24045e-06
9.02814e-07
6.46172e-07
4.48766e-07
2.97976e-07
1.92023e-07
1.20669e-07
7.53354e-08
4.81881e-08
3.20892e-08
2.11107e-08
1.24942e-08
5.96037e-09
2.82273e-09
9.64957e-09
0.000423296
0.000134349
5.26048e-05
2.46197e-05
1.3573e-05
8.2077e-06
5.28235e-06
3.60191e-06
2.61247e-06
2.01767e-06
1.64555e-06
1.39424e-06
1.20318e-06
1.0371e-06
8.77932e-07
7.21785e-07
5.68545e-07
4.22953e-07
2.92503e-07
1.842e-07
1.02124e-07
4.68494e-08
1.6219e-08
6.63298e-09
2.77751e-08
0.000606175
0.000245934
0.000107385
5.33293e-05
2.98073e-05
1.82169e-05
1.18096e-05
8.12423e-06
5.9995e-06
4.77933e-06
4.06251e-06
3.60368e-06
3.25362e-06
2.92454e-06
2.57086e-06
2.17858e-06
1.75556e-06
1.32598e-06
9.22665e-07
5.77532e-07
3.12957e-07
1.37081e-07
4.32119e-08
1.27391e-08
4.4872e-08
0.000855196
0.000414396
0.000197701
0.00010491
5.91662e-05
3.60943e-05
2.32344e-05
1.58778e-05
1.17133e-05
9.39686e-06
8.09997e-06
7.31234e-06
6.72312e-06
6.14922e-06
5.49343e-06
4.72195e-06
3.85088e-06
2.93489e-06
2.05198e-06
1.2828e-06
6.88913e-07
2.96424e-07
9.00361e-08
2.00681e-08
4.87509e-08
0.00115829
0.00063618
0.000339083
0.000186341
0.000107774
6.40945e-05
4.02258e-05
2.68494e-05
1.9477e-05
1.55347e-05
1.34573e-05
1.22933e-05
1.14726e-05
1.06611e-05
9.67653e-06
8.44678e-06
6.98913e-06
5.3957e-06
3.81135e-06
2.39821e-06
1.29048e-06
5.53714e-07
1.6569e-07
2.94008e-08
3.55904e-08
0.0015006
0.000907589
0.000539313
0.000306578
0.000180148
0.000107028
6.50092e-05
4.19468e-05
2.95737e-05
2.32151e-05
2.00812e-05
1.85107e-05
1.75296e-05
1.65719e-05
1.53203e-05
1.36287e-05
1.14929e-05
9.03712e-06
6.49163e-06
4.14272e-06
2.25271e-06
9.72751e-07
2.90641e-07
4.50639e-08
1.28197e-08
0.00186229
0.0012197
0.000789164
0.000484229
0.000287178
0.000171031
0.000102423
6.35167e-05
4.31363e-05
3.30089e-05
2.83252e-05
2.62731e-05
2.52422e-05
2.43095e-05
2.29436e-05
2.08647e-05
1.80007e-05
1.44837e-05
1.06381e-05
6.92755e-06
3.83113e-06
1.6755e-06
5.05233e-07
7.86176e-08
1.43215e-08
0.00222009
0.00155661
0.00108193
0.000719781
0.000440602
0.000264014
0.000157593
9.61295e-05
6.26816e-05
4.61975e-05
3.89721e-05
3.62079e-05
3.52433e-05
3.45857e-05
3.33638e-05
3.10698e-05
2.74843e-05
2.26947e-05
1.71081e-05
1.14214e-05
6.45764e-06
2.87651e-06
8.84259e-07
1.56648e-07
1.35851e-07
0.00254923
0.0018965
0.00140301
0.000999319
0.000659329
0.000399376
0.000238639
0.0001439
9.17262e-05
6.53128e-05
5.33906e-05
4.92558e-05
4.83862e-05
4.83224e-05
4.76363e-05
4.54472e-05
4.12525e-05
3.50017e-05
2.71381e-05
1.86349e-05
1.08209e-05
4.93744e-06
1.56226e-06
3.33533e-07
5.77142e-07
0.0028293
0.00221525
0.00173127
0.00131162
0.000930287
0.000598599
0.000360007
0.000216118
0.00013513
9.34213e-05
7.42633e-05
6.69003e-05
6.57907e-05
6.66478e-05
6.70438e-05
6.55034e-05
6.10039e-05
5.319e-05
4.24462e-05
3.00369e-05
1.79783e-05
8.45102e-06
2.77964e-06
7.26176e-07
1.80638e-06
0.00304605
0.00249104
0.00204186
0.00163555
0.00123895
0.00086278
0.000542925
0.000327522
0.000202411
0.000135801
0.000104311
9.19761e-05
8.91001e-05
9.09762e-05
9.32301e-05
9.31312e-05
8.89255e-05
7.96333e-05
6.53836e-05
4.77059e-05
2.9497e-05
1.43552e-05
4.95577e-06
1.56806e-06
4.75527e-06
0.00319289
0.00270709
0.0023103
0.00194406
0.00156428
0.00117058
0.000801161
0.000501574
0.000309559
0.000202578
0.000149321
0.000127156
0.000121184
0.000123075
0.000127903
0.000130638
0.000127872
0.000117479
9.91313e-05
7.45215e-05
4.76188e-05
2.4063e-05
8.78661e-06
3.31237e-06
1.115e-05
0.00327254
0.00285649
0.00251844
0.00220955
0.00187677
0.00150095
0.00110978
0.000756149
0.00048359
0.000311952
0.000220593
0.000179054
0.000165475
0.000165671
0.000173101
0.000180136
0.000180647
0.000170548
0.000147866
0.000114397
7.54591e-05
3.95835e-05
1.52988e-05
6.69763e-06
2.38649e-05
0.00329437
0.00294139
0.002658
0.00241077
0.00214463
0.00182147
0.00144696
0.00106728
0.000738155
0.000494792
0.000338486
0.000260924
0.000229872
0.000225125
0.000232157
0.000244586
0.000250934
0.000243133
0.000216777
0.000172528
0.000117302
6.3721e-05
2.59066e-05
1.27005e-05
4.716e-05
0.00327177
0.0029724
0.00273228
0.00253818
0.0023424
0.00209517
0.00177665
0.00141152
0.00105358
0.000753135
0.000534439
0.000398354
0.000329291
0.000308058
0.000311479
0.000327132
0.000341778
0.000339925
0.000311828
0.000255484
0.000178949
0.000100423
4.26372e-05
2.27079e-05
8.65401e-05
0.00321872
0.00296527
0.00275535
0.00259742
0.00245953
0.00229207
0.00205634
0.00174862
0.00140398
0.00107513
0.000804156
0.000610112
0.000490975
0.000433984
0.000421626
0.000432666
0.000455523
0.000463819
0.000438358
0.000370604
0.000267844
0.000155087
6.8193e-05
3.82903e-05
0.000148261
0.0031468
0.00293536
0.00274542
0.00260534
0.00250302
0.00239995
0.00225147
0.00203056
0.00174414
0.00142983
0.00113479
0.000894421
0.000723966
0.000622125
0.000578304
0.000574974
0.000594984
0.000614959
0.000598866
0.00052453
0.000392758
0.00023503
0.000106271
6.09985e-05
0.000238267
0.00306515
0.00289596
0.00272192
0.00258527
0.00249427
0.00242805
0.00234869
0.00221891
0.00202082
0.00176614
0.00148985
0.00123235
0.00102354
0.000877244
0.00079357
0.000763164
0.000764445
0.00078979
0.000789819
0.000719877
0.000562099
0.000349978
0.000162374
9.2119e-05
0.000357527
0.00297709
0.00285537
0.00269926
0.00255998
0.00246243
0.00240391
0.00236143
0.00230142
0.00219388
0.0020268
0.00181226
0.00157983
0.00136297
0.00118733
0.00106613
0.00100136
0.000983429
0.000989504
0.00100001
0.000951075
0.000782482
0.000512447
0.000245381
0.000133984
0.000499475
0.00287971
0.00281567
0.00268637
0.00254557
0.00243352
0.00236192
0.00232389
0.00229801
0.00225596
0.00217416
0.00204391
0.00187482
0.00169003
0.0015162
0.00137523
0.00128026
0.00123339
0.00121807
0.00122215
0.00119441
0.00105098
0.000736799
0.000369919
0.000194847
0.000681339
0.00276396
0.00277153
0.00268283
0.00255441
0.00242673
0.00233255
0.00227584
0.00224947
0.0022349
0.0022094
0.00215477
0.00206357
0.00194161
0.00180537
0.00167564
0.00157145
0.00150527
0.00147761
0.00146371
0.00144547
0.00133288
0.00102931
0.000562927
0.00029317
0.000999892
0.00261781
0.0027096
0.00268072
0.00258037
0.00245398
0.00233678
0.00225111
0.00220046
0.00217845
0.00217017
0.00215852
0.00212924
0.00207501
0.00199805
0.0019076
0.00182216
0.00175836
0.00172491
0.00171797
0.00170146
0.0016255
0.00136651
0.000862586
0.00044577
0.00135215
0.0024349
0.0026156
0.00266405
0.00261345
0.00250712
0.00238339
0.00227145
0.00218765
0.00213605
0.00211241
0.00210586
0.00210344
0.00209352
0.00206929
0.00202884
0.00197832
0.00193375
0.00190605
0.00190096
0.00190942
0.00188566
0.00174727
0.00133289
0.000672122
0.000353385
0.00221074
0.00247481
0.00261195
0.00263368
0.00257185
0.00246362
0.0023411
0.00223018
0.00214408
0.00208558
0.00205478
0.00204458
0.00204498
0.00204691
0.00204385
0.00203118
0.00201475
0.00200376
0.00200536
0.00202249
0.00204616
0.00202648
0.00186445
0.00142046
0.000822343
0.00195011
0.00227976
0.00250491
0.00261476
0.00262265
0.00255689
0.00244863
0.00232644
0.0022126
0.00211863
0.00205209
0.00200959
0.00198989
0.00198619
0.0019915
0.0019999
0.00200772
0.00201543
0.00202825
0.00205021
0.002082
0.00211459
0.00211759
0.00201464
0.0017192
0.00166366
0.0020321
0.00233054
0.00253123
0.0026274
0.00263158
0.00256749
0.00246155
0.00234017
0.00222168
0.00212011
0.00204033
0.00198427
0.00194946
0.00193441
0.00193412
0.00194401
0.00196142
0.00198295
0.00200928
0.00204224
0.00208088
0.00211822
0.00213593
0.0021049
0.0013668
0.00174342
0.0020887
0.00236691
0.00255561
0.00264946
0.00265854
0.00260167
0.00250276
0.00238349
0.00226217
0.00215132
0.00205798
0.00198612
0.0019353
0.00190193
0.001887
0.00188738
0.00190039
0.00192407
0.00195451
0.00198981
0.00202852
0.0020656
0.00209159
0.00107979
0.00143493
0.00179414
0.00212248
0.00238963
0.00257631
0.00267711
0.00269859
0.00265611
0.00256893
0.00245617
0.00233475
0.00221724
0.00211102
0.00202269
0.00195254
0.00190135
0.00186512
0.0018463
0.00184304
0.00185303
0.00187448
0.001905
0.00193812
0.0019704
0.000821458
0.00113322
0.0014746
0.00181819
0.00213414
0.00239634
0.002588
0.00270264
0.00274376
0.00272247
0.0026538
0.00255418
0.00243886
0.0023195
0.00220546
0.0021022
0.0020113
0.00193865
0.00188376
0.00184228
0.00181382
0.00180037
0.00179933
0.00180809
0.00182424
0.000602651
0.000860586
0.00116166
0.00148834
0.00181716
0.00212261
0.00238231
0.00258215
0.00271481
0.00278087
0.00278715
0.0027447
0.00266669
0.00256594
0.00245345
0.00233873
0.00222735
0.00212457
0.00203064
0.00195124
0.0018881
0.0018381
0.00179891
0.00176942
0.00175009
0.000425501
0.000627811
0.000878313
0.00116672
0.00147747
0.00178991
0.00208088
0.00233571
0.00254221
0.00269277
0.00278551
0.00282384
0.00281522
0.00276911
0.00269379
0.00259969
0.0024953
0.00238743
0.00228069
0.00217919
0.00208549
0.0019997
0.00192512
0.00186371
0.00181299
0.000295922
0.000437991
0.000632545
0.000873334
0.00114735
0.00144014
0.00173396
0.00200936
0.00225355
0.00245747
0.00261524
0.00272507
0.00278883
0.00281125
0.00279833
0.00275742
0.00269593
0.00262056
0.00253689
0.002449
0.00235674
0.00226407
0.00217444
0.00209064
0.00201174
0.000206511
0.000298941
0.00042853
0.000613216
0.000841572
0.00109739
0.00137048
0.00164529
0.00190881
0.00214661
0.00234962
0.00251421
0.00263875
0.00272439
0.00277419
0.00279262
0.00278494
0.00275656
0.00271253
0.00265714
0.00259316
0.00252351
0.00245067
0.00237531
0.0022978
0.000138781
0.000199567
0.000284161
0.000401072
0.000559105
0.000764047
0.00100303
0.00125261
0.00150721
0.001756
0.00198794
0.00219401
0.002366
0.00250448
0.00261041
0.00268562
0.00273303
0.00275634
0.00275948
0.00274621
0.00271972
0.00268289
0.00263819
0.00258746
0.00253242
8.34607e-05
0.000120269
0.000171422
0.000241938
0.000338007
0.000466855
0.000634533
0.000827071
0.00104327
0.00127234
0.00149543
0.00170947
0.00190758
0.00208462
0.00223762
0.0023622
0.00245833
0.00252941
0.00257836
0.00260805
0.0026212
0.0026203
0.0026076
0.00258508
0.00255466
4.0661e-05
5.89345e-05
8.44683e-05
0.000119874
0.000168492
0.000234305
0.000321784
0.000436485
0.000573888
0.00072619
0.000889115
0.00106206
0.00123658
0.00139883
0.00154904
0.00168385
0.00180043
0.00189802
0.00197663
0.00203697
0.00208019
0.00210747
0.00212011
0.00211958
0.00210758
1.41292e-05
2.05632e-05
2.95586e-05
4.20113e-05
5.90856e-05
8.22768e-05
0.000113412
0.000154785
0.00020898
0.000276524
0.000353057
0.000437425
0.000527198
0.000619015
0.000712261
0.000802272
0.00088161
0.000950857
0.00100958
0.00105743
0.00109422
0.00111994
0.00113503
0.00114024
0.00113656
4.59784e-06
6.62074e-06
9.33208e-06
1.29091e-05
1.75464e-05
2.34024e-05
3.05872e-05
3.91973e-05
4.93858e-05
6.16842e-05
7.68677e-05
9.40321e-05
0.000113006
0.000133464
0.000155006
0.000176399
0.000195981
0.000214209
0.000230615
0.000245232
0.000258116
0.000268666
0.000277223
0.000283975
0.000289044
1.5006e-05
2.13521e-05
2.94772e-05
3.96748e-05
5.22496e-05
6.70278e-05
8.29695e-05
9.82727e-05
0.000109968
0.000117566
0.000121294
0.00012131
0.000117079
0.000106667
9.04895e-05
7.03025e-05
4.89852e-05
3.07666e-05
1.79544e-05
1.48043e-05
2.7699e-05
5.21172e-05
8.87588e-05
0.000137431
0.000197145
0.000506571
0.000261529
0.000146129
0.000427747
0.000253665
0.000171416
0.00131733
0.000979506
0.00074909
0.00200966
0.00185373
0.00165906
0.00209502
0.00207208
0.00202097
0.00199514
0.00201198
0.00201827
0.00184254
0.0018619
0.00188044
0.00174075
0.00173678
0.00173695
0.00177473
0.00174237
0.00171466
0.00194701
0.0018889
0.001838
0.00222879
0.00216215
0.00209817
0.0024807
0.00242773
0.00237218
0.00252187
0.00248496
0.0024438
0.00208814
0.00206185
0.00202899
0.00112628
0.00111052
0.00108953
0.000292423
0.000294623
0.000295786
0.000261622
0.00032832
0.00039859
3.98786e-12
3.12108e-11
1.19848e-10
2.77916e-10
4.56893e-10
6.0558e-10
7.04084e-10
7.14608e-10
6.59787e-10
5.77018e-10
4.91919e-10
4.11292e-10
3.30738e-10
2.59789e-10
2.03989e-10
1.64126e-10
1.44861e-10
1.69196e-10
2.11639e-10
2.628e-10
3.28236e-10
4.18951e-10
5.52279e-10
7.56586e-10
1.07727e-09
1.58608e-09
2.39029e-09
3.649e-09
5.59121e-09
8.54233e-09
1.29708e-08
1.95733e-08
3.07665e-08
5.20884e-08
9.04344e-08
1.12915e-07
1.52645e-07
2.20151e-07
3.18923e-07
4.55015e-07
6.40691e-07
8.92065e-07
1.22938e-06
1.67764e-06
2.267e-06
3.03287e-06
4.01551e-06
5.25899e-06
6.8111e-06
8.72169e-06
1.10371e-05
1.37937e-05
1.70091e-05
2.06734e-05
2.47437e-05
2.91359e-05
3.37146e-05
3.82892e-05
4.26171e-05
4.6417e-05
4.93725e-05
5.11636e-05
5.15969e-05
5.04353e-05
4.75248e-05
4.30132e-05
3.72312e-05
3.06477e-05
2.37939e-05
1.7246e-05
1.15103e-05
6.93766e-06
3.66842e-06
1.62858e-06
5.69731e-07
1.62328e-07
1.71686e-08
1.49734e-08
1.33674e-08
5.3908e-09
3.94047e-11
1.89809e-11
6.89016e-11
1.81804e-10
3.56727e-10
5.87713e-10
8.66295e-10
1.17895e-09
1.51505e-09
1.86471e-09
2.21666e-09
2.55834e-09
2.87823e-09
3.16876e-09
3.42527e-09
3.64597e-09
3.83285e-09
3.99216e-09
4.12859e-09
4.25054e-09
4.37053e-09
4.50416e-09
4.66999e-09
4.89006e-09
5.19091e-09
5.60517e-09
6.1735e-09
6.94779e-09
7.99529e-09
9.40569e-09
1.13062e-08
1.39067e-08
1.76726e-08
2.3389e-08
3.14689e-08
3.91075e-08
4.9958e-08
6.60735e-08
8.88654e-08
1.20694e-07
1.62225e-07
2.16485e-07
2.87564e-07
3.80329e-07
5.00532e-07
6.54861e-07
8.50878e-07
1.09687e-06
1.40165e-06
1.77415e-06
2.22233e-06
2.75184e-06
3.36463e-06
4.05746e-06
4.82066e-06
5.63692e-06
6.48033e-06
7.31652e-06
8.10441e-06
8.79931e-06
9.35683e-06
9.74039e-06
9.93275e-06
9.89613e-06
9.58016e-06
8.98836e-06
8.15059e-06
7.11554e-06
5.9445e-06
4.71242e-06
3.52936e-06
2.50199e-06
1.65464e-06
1.00788e-06
5.5875e-07
2.78174e-07
1.16638e-07
3.87743e-08
9.08989e-09
1.53514e-08
1.62601e-10
7.06912e-11
3.0032e-10
9.04753e-10
1.94203e-09
3.41281e-09
5.27692e-09
7.46214e-09
9.8753e-09
1.24132e-08
1.4971e-08
1.74518e-08
1.97742e-08
2.18774e-08
2.37232e-08
2.52972e-08
2.66079e-08
2.76854e-08
2.85793e-08
2.93567e-08
3.01012e-08
3.09105e-08
3.18954e-08
3.31794e-08
3.48992e-08
3.72064e-08
4.02713e-08
4.42882e-08
4.94839e-08
5.61295e-08
6.45588e-08
7.51965e-08
8.85957e-08
1.05434e-07
1.26403e-07
1.52051e-07
1.8416e-07
2.24757e-07
2.76135e-07
3.40891e-07
4.20749e-07
5.18947e-07
6.39879e-07
7.88758e-07
9.71564e-07
1.19505e-06
1.46669e-06
1.79453e-06
2.18695e-06
2.65228e-06
3.1982e-06
3.83112e-06
4.55532e-06
5.3723e-06
6.28025e-06
7.2737e-06
8.34359e-06
9.47794e-06
1.06635e-05
1.1889e-05
1.31497e-05
1.44562e-05
1.57276e-05
1.67783e-05
1.74928e-05
1.77727e-05
1.75384e-05
1.67415e-05
1.53807e-05
1.35202e-05
1.13026e-05
8.92266e-06
6.57442e-06
4.4546e-06
2.71909e-06
1.44649e-06
6.28994e-07
1.9435e-07
3.14353e-08
1.21843e-08
3.35798e-10
1.79551e-10
8.81027e-10
2.82444e-09
6.34862e-09
1.15154e-08
1.81778e-08
2.60556e-08
3.47883e-08
4.39795e-08
5.32347e-08
6.2194e-08
7.05579e-08
7.8104e-08
8.46944e-08
9.02777e-08
9.48859e-08
9.86291e-08
1.01688e-07
1.04305e-07
1.06778e-07
1.09455e-07
1.12727e-07
1.17025e-07
1.22823e-07
1.30642e-07
1.41058e-07
1.5472e-07
1.72374e-07
1.94892e-07
2.23317e-07
2.58908e-07
3.03203e-07
3.58082e-07
4.25885e-07
5.09516e-07
6.12793e-07
7.40382e-07
8.97774e-07
1.09116e-06
1.32717e-06
1.61432e-06
1.96311e-06
2.38587e-06
2.89668e-06
3.51131e-06
4.24711e-06
5.12279e-06
6.15803e-06
7.37287e-06
8.787e-06
1.04187e-05
1.22835e-05
1.4393e-05
1.67533e-05
1.93635e-05
2.22142e-05
2.52864e-05
2.85518e-05
3.19747e-05
3.5518e-05
3.91541e-05
4.24338e-05
4.50654e-05
4.67993e-05
4.74109e-05
4.67213e-05
4.46255e-05
4.11263e-05
3.63656e-05
3.06396e-05
2.43802e-05
1.81035e-05
1.23433e-05
7.54909e-06
3.98887e-06
1.70033e-06
5.07539e-07
7.71092e-08
6.97324e-09
4.31954e-10
3.48338e-10
1.94954e-09
6.4586e-09
1.49424e-08
2.77697e-08
4.46627e-08
6.48896e-08
8.74571e-08
1.11267e-07
1.35237e-07
1.58395e-07
1.79939e-07
1.99282e-07
2.16067e-07
2.30163e-07
2.41661e-07
2.50851e-07
2.58201e-07
2.64337e-07
2.70021e-07
2.76135e-07
2.83665e-07
2.93693e-07
3.07402e-07
3.26077e-07
3.51135e-07
3.84158e-07
4.26949e-07
4.81601e-07
5.50593e-07
6.36906e-07
7.44156e-07
8.76777e-07
1.04028e-06
1.2415e-06
1.48881e-06
1.79234e-06
2.16401e-06
2.6177e-06
3.16958e-06
3.83897e-06
4.64881e-06
5.62564e-06
6.79955e-06
8.20405e-06
9.87574e-06
1.18537e-05
1.41786e-05
1.68913e-05
2.00308e-05
2.36316e-05
2.77205e-05
3.23126e-05
3.74068e-05
4.29814e-05
4.89889e-05
5.53523e-05
6.19626e-05
6.86814e-05
7.53469e-05
8.17844e-05
8.72147e-05
9.12842e-05
9.36254e-05
9.3901e-05
9.18478e-05
8.7312e-05
8.03023e-05
7.10436e-05
6.00137e-05
4.79433e-05
3.57619e-05
2.44779e-05
1.49935e-05
7.9019e-06
3.34409e-06
9.91228e-07
1.59419e-07
7.56793e-08
3.52189e-10
5.93854e-10
3.70509e-09
1.24903e-08
2.93825e-08
5.55052e-08
9.05533e-08
1.33079e-07
1.80918e-07
2.316e-07
2.82675e-07
3.31948e-07
3.77636e-07
4.18443e-07
4.53593e-07
4.82816e-07
5.06314e-07
5.24713e-07
5.39012e-07
5.50533e-07
5.6087e-07
5.71856e-07
5.85526e-07
6.041e-07
6.2998e-07
6.65765e-07
7.14294e-07
7.78709e-07
8.62562e-07
9.69952e-07
1.1057e-06
1.27559e-06
1.4866e-06
1.74727e-06
2.0681e-06
2.46192e-06
2.94431e-06
3.53394e-06
4.25289e-06
5.12715e-06
6.18719e-06
7.46878e-06
9.01347e-06
1.08687e-05
1.30875e-05
1.57282e-05
1.88534e-05
2.25285e-05
2.68188e-05
3.1787e-05
3.74877e-05
4.39621e-05
5.12313e-05
5.92883e-05
6.80915e-05
7.75567e-05
8.75524e-05
9.78962e-05
0.000108359
0.000118676
0.000128558
0.000137452
0.000144751
0.000149982
0.000152672
0.000152355
0.000148658
0.000141328
0.000130312
0.000115841
9.85197e-05
7.93561e-05
5.97323e-05
4.12518e-05
2.54617e-05
1.349e-05
5.72647e-06
1.70821e-06
3.05808e-07
3.33162e-07
1.53068e-10
9.68855e-10
6.43926e-09
2.18963e-08
5.19827e-08
9.91822e-08
1.63371e-07
2.42113e-07
3.31385e-07
4.26394e-07
5.22303e-07
6.14767e-07
7.00259e-07
7.76245e-07
8.41221e-07
8.94673e-07
9.36986e-07
9.69341e-07
9.936e-07
1.0122e-06
1.02807e-06
1.04454e-06
1.06527e-06
1.09426e-06
1.13577e-06
1.19438e-06
1.27506e-06
1.38324e-06
1.52502e-06
1.70735e-06
1.93839e-06
2.22781e-06
2.58726e-06
3.03088e-06
3.57588e-06
4.24315e-06
5.05784e-06
6.04996e-06
7.25499e-06
8.71463e-06
1.04776e-05
1.26001e-05
1.51468e-05
1.81901e-05
2.181e-05
2.60923e-05
3.11269e-05
3.70042e-05
4.38102e-05
5.16199e-05
6.04897e-05
7.04478e-05
8.14845e-05
9.35423e-05
0.000106508
0.00012021
0.000134423
0.000148853
0.000163167
0.000176987
0.000189922
0.000201358
0.000210724
0.000217438
0.00022096
0.000220658
0.00021596
0.0002064
0.000191728
0.000172048
0.000147966
0.000120697
9.20883e-05
6.44741e-05
4.03078e-05
2.15884e-05
9.24413e-06
2.7921e-06
5.65978e-07
9.69684e-07
1.73394e-10
1.58769e-09
1.05778e-08
3.60683e-08
8.60219e-08
1.65048e-07
2.7345e-07
4.07455e-07
5.60285e-07
7.23568e-07
8.8869e-07
1.04784e-06
1.19467e-06
1.32465e-06
1.43509e-06
1.52505e-06
1.59519e-06
1.6475e-06
1.68512e-06
1.71213e-06
1.73338e-06
1.75436e-06
1.78109e-06
1.82005e-06
1.87813e-06
1.96269e-06
2.08156e-06
2.24328e-06
2.45728e-06
2.73423e-06
3.0865e-06
3.5286e-06
4.07791e-06
4.75532e-06
5.58606e-06
6.60048e-06
7.83492e-06
9.33253e-06
1.11441e-05
1.33291e-05
1.59561e-05
1.9104e-05
2.28613e-05
2.73264e-05
3.26054e-05
3.881e-05
4.6053e-05
5.4443e-05
6.40762e-05
7.50275e-05
8.73396e-05
0.000101011
0.000115988
0.000132152
0.00014932
0.000167239
0.000185603
0.000204076
0.000222268
0.000239751
0.00025609
0.000270679
0.000282975
0.000292341
0.000298038
0.000299226
0.000295024
0.000284601
0.000267328
0.000242982
0.000211989
0.000175647
0.000136253
9.70218e-05
6.16528e-05
3.35029e-05
1.45211e-05
4.4557e-06
1.02076e-06
2.2941e-06
1.32248e-09
2.67135e-09
1.67331e-08
5.6957e-08
1.36078e-07
2.61794e-07
4.35065e-07
6.50244e-07
8.96591e-07
1.1605e-06
1.42775e-06
1.68535e-06
1.92271e-06
2.13223e-06
2.30943e-06
2.45271e-06
2.56302e-06
2.64344e-06
2.69884e-06
2.7355e-06
2.76087e-06
2.78333e-06
2.81203e-06
2.85675e-06
2.92786e-06
3.03626e-06
3.19355e-06
3.41214e-06
3.70558e-06
4.089e-06
4.57964e-06
5.19757e-06
5.96649e-06
6.91463e-06
8.07578e-06
9.49028e-06
1.12061e-05
1.32799e-05
1.5778e-05
1.87774e-05
2.23663e-05
2.66448e-05
3.17238e-05
3.77246e-05
4.47754e-05
5.30078e-05
6.25499e-05
7.35192e-05
8.60121e-05
0.000100093
0.000115782
0.000133045
0.000151786
0.000171842
0.000192987
0.000214937
0.000237366
0.000259916
0.000282196
0.000303782
0.000324232
0.000342956
0.000359484
0.000373119
0.000382943
0.000387818
0.000386436
0.000377419
0.000359509
0.000331865
0.000294435
0.000248363
0.000196307
0.000142488
9.22624e-05
5.10091e-05
2.24387e-05
7.00918e-06
1.79271e-06
4.77945e-06
5.07743e-09
4.56216e-09
2.57658e-08
8.7257e-08
2.0844e-07
4.01305e-07
6.67653e-07
9.99125e-07
1.37936e-06
1.78734e-06
2.20092e-06
2.59972e-06
2.96712e-06
3.29115e-06
3.56471e-06
3.78513e-06
3.95364e-06
4.07463e-06
4.15507e-06
4.204e-06
4.23208e-06
4.25129e-06
4.27469e-06
4.31618e-06
4.39044e-06
4.51285e-06
4.69956e-06
4.96768e-06
5.33563e-06
5.82361e-06
6.45428e-06
7.25359e-06
8.25174e-06
9.48426e-06
1.09932e-05
1.28285e-05
1.50488e-05
1.77233e-05
2.09322e-05
2.47678e-05
2.93352e-05
3.47521e-05
4.11473e-05
4.86591e-05
5.74311e-05
6.7607e-05
7.93209e-05
9.26901e-05
0.000107803
0.000124708
0.000143403
0.000163827
0.000185859
0.000209318
0.000233972
0.000259547
0.000285742
0.000312237
0.000338687
0.000364712
0.000389889
0.000413706
0.00043583
0.000455559
0.000471827
0.000483186
0.000487816
0.000483607
0.000468376
0.000440242
0.000398189
0.000342745
0.000276631
0.0002051
0.000135615
7.64611e-05
3.42164e-05
1.08941e-05
3.05697e-06
9.09212e-06
1.37629e-08
7.78148e-09
3.88858e-08
1.30663e-07
3.11632e-07
5.99582e-07
9.97245e-07
1.4923e-06
2.06053e-06
2.6707e-06
3.28982e-06
3.8875e-06
4.43887e-06
4.92602e-06
5.33817e-06
5.67106e-06
5.92598e-06
6.10866e-06
6.22842e-06
6.29735e-06
6.32976e-06
6.34178e-06
6.35095e-06
6.37607e-06
6.43691e-06
6.55416e-06
6.74944e-06
7.04541e-06
7.46612e-06
8.03748e-06
8.78801e-06
9.74969e-06
1.09591e-05
1.24585e-05
1.42975e-05
1.6534e-05
1.92358e-05
2.24817e-05
2.6363e-05
3.09835e-05
3.64605e-05
4.29234e-05
5.05126e-05
5.93758e-05
6.96634e-05
8.15231e-05
9.50819e-05
0.000110451
0.000127705
0.000146875
0.000167937
0.000190815
0.000215379
0.000241453
0.000268831
0.000297285
0.000326586
0.000356499
0.000386778
0.000417146
0.000447256
0.000476778
0.000505576
0.00053303
0.000558026
0.00057888
0.000593288
0.000598326
0.000590625
0.000566777
0.000524085
0.000461632
0.000381487
0.000289635
0.00019602
0.000112965
5.15368e-05
1.67328e-05
5.05161e-06
1.6107e-05
3.05634e-08
1.31754e-08
5.78665e-08
1.92258e-07
4.57121e-07
8.77877e-07
1.45813e-06