/*--------------------------------*- C++ -*----------------------------------*\
| =========                 |                                                 |
| \\      /  F ield         | OpenFOAM: The Open Source CFD Toolbox           |
|  \\    /   O peration     | Version:  v2012                                 |
|   \\  /    A nd           | Website:  www.openfoam.com                      |
|    \\/     M anipulation  |                                                 |
\*---------------------------------------------------------------------------*/
FoamFile
{
    version     2.0;
    format      ascii;
    class       volScalarField;
    location    "2000";
    object      nut;
}
// * * * * * * * * * * * * * * * * * * * * * * * * * * * * * * * * * * * * * //

dimensions      [0 2 -1 0 0 0 0];


internalField   nonuniform List<scalar> 
6502
(
4.56632e-05
0.000471502
0.00179301
0.00249989
0.00263954
0.00263963
0.00250029
0.00179378
0.000471736
4.5666e-05
2.72075e-05
0.000199812
0.00102812
0.00208743
0.00249986
0.00250049
0.00208939
0.00102988
0.000200053
2.72167e-05
1.78834e-05
0.000111168
0.000657101
0.00167864
0.00230304
0.00230482
0.00168264
0.000659289
0.000111412
1.79055e-05
1.2072e-05
6.93686e-05
0.000456686
0.00135006
0.0020798
0.00208327
0.00135608
0.00045919
6.96323e-05
1.21106e-05
8.38662e-06
4.69492e-05
0.0003397
0.00110594
0.00185882
0.00186432
0.00111382
0.000342525
4.72366e-05
8.44262e-06
6.21522e-06
3.39369e-05
0.00026708
0.000928031
0.00165707
0.00166489
0.000937943
0.000270327
3.42609e-05
6.29035e-06
4.92608e-06
2.58773e-05
0.000219086
0.000795695
0.00147978
0.00149021
0.000807948
0.000222892
2.62491e-05
5.02253e-06
4.12802e-06
2.05601e-05
0.000185155
0.000694398
0.00132641
0.00133972
0.000709301
0.000189664
2.09949e-05
4.25005e-06
3.61994e-06
1.68506e-05
0.000159791
0.00061427
0.00119429
0.00121072
0.000632319
0.000165185
1.73664e-05
3.77582e-06
3.27938e-06
1.41467e-05
0.000139901
0.000548683
0.0010799
0.00110004
0.000570529
0.000146374
1.47588e-05
3.4802e-06
3.03187e-06
1.21081e-05
0.000123668
0.000493327
0.000979771
0.00100447
0.00051978
0.000131468
1.28348e-05
3.29099e-06
2.83617e-06
1.05225e-05
0.00010997
0.000445236
0.000891321
0.000921285
0.000477435
0.000119391
1.13889e-05
3.17082e-06
2.66915e-06
9.24828e-06
9.80419e-05
0.000402498
0.00081236
0.000848063
0.000441887
0.000109482
1.02885e-05
3.10182e-06
2.51522e-06
8.18899e-06
8.73833e-05
0.00036375
0.000740906
0.00078219
0.000412486
0.000101277
9.4316e-06
3.07477e-06
2.36367e-06
7.28271e-06
7.77315e-05
0.000328103
0.000675365
0.000722455
0.000386349
9.46133e-05
8.80955e-06
3.08724e-06
2.20789e-06
6.48788e-06
6.89249e-05
0.000294974
0.000614523
0.000667775
0.000362782
8.9094e-05
8.43501e-06
3.14472e-06
2.04367e-06
5.77428e-06
6.08274e-05
0.000263803
0.000557474
0.000617254
0.000341714
8.47367e-05
8.27382e-06
3.26004e-06
1.86837e-06
5.12062e-06
5.33521e-05
0.000234287
0.000503329
0.00057011
0.000323082
8.15938e-05
8.33208e-06
3.45445e-06
1.68091e-06
4.51253e-06
4.64489e-05
0.000206295
0.000451516
0.000525608
0.000306808
7.97524e-05
8.65702e-06
3.78899e-06
1.48242e-06
3.94185e-06
4.01071e-05
0.00017989
0.000401818
0.000483105
0.000292896
7.95591e-05
9.32228e-06
4.03976e-06
1.27591e-06
3.40222e-06
3.43022e-05
0.0001551
0.000353932
0.000441847
0.000282039
8.40767e-05
1.23774e-05
3.69188e-06
1.06914e-06
2.9005e-06
2.91108e-05
0.000132425
0.00030871
0.000401853
0.000273612
9.21024e-05
1.76097e-05
4.66661e-06
8.71569e-07
2.44065e-06
2.45449e-05
0.00011213
0.000266739
0.00036303
0.000266272
0.000102334
2.50075e-05
7.35541e-06
6.90493e-07
2.02508e-06
2.05807e-05
9.43174e-05
0.000228509
0.000325438
0.000258816
0.000113858
3.46473e-05
1.21442e-05
5.30503e-07
1.65632e-06
1.71716e-05
7.89201e-05
0.000194284
0.000289248
0.000250268
0.000126
4.65081e-05
1.91981e-05
3.93823e-07
1.33504e-06
1.4259e-05
6.57608e-05
0.000164108
0.00025471
0.000239865
0.000137905
6.00919e-05
2.83821e-05
2.81012e-07
1.06053e-06
1.1784e-05
5.46111e-05
0.000137866
0.000222177
0.000227158
0.000147994
7.46215e-05
3.93776e-05
1.91349e-07
8.30856e-07
9.69251e-06
4.52319e-05
0.000115348
0.000192258
0.000212121
0.000155362
8.91311e-05
5.17061e-05
1.23109e-07
6.42924e-07
7.93617e-06
3.73917e-05
9.62419e-05
0.000165138
0.000195114
0.00015929
0.000102601
6.47088e-05
7.37899e-08
4.92609e-07
6.47038e-06
3.08694e-05
8.018e-05
0.000140978
0.000176812
0.00015933
0.000114043
7.76236e-05
4.03288e-08
3.75002e-07
5.25397e-06
2.54608e-05
6.6772e-05
0.000119819
0.000158055
0.000155438
0.000122586
8.96605e-05
1.94083e-08
2.8486e-07
4.25012e-06
2.09864e-05
5.56426e-05
0.000101584
0.000139683
0.00014809
0.000127586
9.99772e-05
7.73617e-09
2.16715e-07
3.42476e-06
1.72894e-05
4.64406e-05
8.60815e-05
0.0001224
0.000138153
0.000128827
0.000107869
2.414e-09
1.65694e-07
2.74817e-06
1.42349e-05
3.88458e-05
7.30391e-05
0.000106686
0.000126681
0.000126505
0.000112813
1.43769e-09
1.28307e-07
2.19835e-06
1.17141e-05
3.25796e-05
6.21485e-05
9.27916e-05
0.000114702
0.0001213
0.00011465
2.90273e-09
1.01134e-07
1.75547e-06
9.63762e-06
2.74052e-05
5.3095e-05
8.07672e-05
0.000103048
0.000114167
0.000113588
4.74766e-09
8.06825e-08
1.39929e-06
7.92434e-06
2.31169e-05
4.55736e-05
7.0512e-05
9.22662e-05
0.000106081
0.000110234
6.44293e-09
6.40226e-08
1.10024e-06
6.47642e-06
1.95154e-05
3.9291e-05
6.18304e-05
8.26329e-05
9.7859e-05
0.000105393
7.99641e-09
5.13025e-08
8.57431e-07
5.25701e-06
1.64621e-05
3.39997e-05
5.44896e-05
7.42056e-05
9.0049e-05
9.98591e-05
9.02424e-09
4.17087e-08
6.68628e-07
4.25317e-06
1.38722e-05
2.95096e-05
4.82619e-05
6.69079e-05
8.29278e-05
9.4246e-05
9.10682e-09
3.35792e-08
5.16059e-07
3.40775e-06
1.16392e-05
2.56461e-05
4.29319e-05
6.05999e-05
7.65662e-05
8.89218e-05
8.9248e-09
2.70306e-08
3.94154e-07
2.68005e-06
9.67137e-06
2.22504e-05
3.83048e-05
5.5132e-05
7.09151e-05
8.40311e-05
8.59383e-09
2.18854e-08
3.00266e-07
2.08614e-06
7.93519e-06
1.92061e-05
3.42313e-05
5.04198e-05
6.59389e-05
7.96019e-05
7.80447e-09
1.76446e-08
2.27446e-07
1.60927e-06
6.37334e-06
1.64289e-05
3.06535e-05
4.67676e-05
6.20303e-05
7.58391e-05
6.9376e-09
1.41669e-08
1.70788e-07
1.22404e-06
5.0285e-06
1.37721e-05
2.72621e-05
4.34134e-05
5.91518e-05
7.29787e-05
6.27018e-09
1.14955e-08
1.27613e-07
9.18423e-07
3.87728e-06
1.11583e-05
2.37546e-05
3.98598e-05
5.6217e-05
7.08952e-05
5.7438e-09
9.52515e-09
9.57971e-08
6.84698e-07
2.9445e-06
8.82155e-06
1.99071e-05
3.56609e-05
5.26822e-05
6.84431e-05
5.3437e-09
8.33779e-09
7.31879e-08
5.11751e-07
2.21618e-06
6.81747e-06
1.60876e-05
3.04857e-05
4.79975e-05
6.49918e-05
5.07174e-09
7.39852e-09
5.65881e-08
3.85747e-07
1.66988e-06
5.20411e-06
1.26384e-05
2.50181e-05
4.18926e-05
5.98806e-05
4.8156e-09
6.57694e-09
4.47978e-08
2.98797e-07
1.27335e-06
3.96115e-06
9.70134e-06
1.96456e-05
3.41124e-05
5.21832e-05
4.47408e-09
5.84542e-09
3.65855e-08
2.39647e-07
1.00436e-06
3.04209e-06
7.28338e-06
1.47328e-05
2.59681e-05
4.13569e-05
3.97022e-09
5.07729e-09
3.04604e-08
1.96768e-07
8.08985e-07
2.37119e-06
5.43631e-06
1.05112e-05
1.82074e-05
2.94701e-05
3.25993e-09
4.17522e-09
2.51103e-08
1.60479e-07
6.43289e-07
1.80563e-06
3.92259e-06
7.20484e-06
1.20079e-05
1.89826e-05
2.38508e-09
3.13674e-09
1.97242e-08
1.24668e-07
4.81557e-07
1.27571e-06
2.60516e-06
4.54865e-06
7.31553e-06
1.1307e-05
1.4819e-09
2.06525e-09
1.40925e-08
8.73729e-08
3.18524e-07
7.82766e-07
1.49758e-06
2.50266e-06
3.91885e-06
5.95834e-06
7.29064e-10
1.12495e-09
8.61181e-09
5.11574e-08
1.69886e-07
3.80485e-07
6.84841e-07
1.1087e-06
1.70939e-06
2.57661e-06
2.50004e-10
4.50211e-10
4.06303e-09
2.18895e-08
6.28874e-08
1.27355e-07
2.18766e-07
3.48511e-07
5.35231e-07
8.05896e-07
4.31364e-11
1.27497e-10
1.24928e-09
5.2436e-09
1.25478e-08
2.35588e-08
3.9716e-08
6.3428e-08
9.81718e-08
1.48803e-07
1.62116e-12
1.96579e-11
1.53005e-10
5.11873e-10
1.20602e-09
2.39711e-09
4.30872e-09
7.24901e-09
1.16275e-08
1.79653e-08
6.76146e-13
1.9219e-12
2.65709e-11
1.52287e-10
4.79651e-10
1.12979e-09
2.24693e-09
4.01613e-09
6.66832e-09
1.04732e-08
6.67744e-07
2.18353e-07
1.7004e-07
1.09046e-07
6.89483e-08
4.37703e-08
2.89757e-08
1.99967e-08
1.41336e-08
1.00947e-08
7.17459e-09
4.98172e-09
3.30813e-09
2.04864e-09
1.14426e-09
5.47066e-10
2.02383e-10
4.69803e-11
1.0144e-11
2.65323e-11
4.31207e-11
4.10388e-11
2.51577e-11
9.10677e-12
1.16194e-12
1.32525e-06
4.90746e-07
2.30475e-07
1.28981e-07
7.8038e-08
4.90316e-08
3.21472e-08
2.19939e-08
1.55448e-08
1.12303e-08
8.19477e-09
5.96018e-09
4.26103e-09
2.94521e-09
1.90264e-09
1.21646e-09
7.62957e-10
4.75644e-10
3.0372e-10
2.01746e-10
1.31993e-10
7.6475e-11
3.28383e-11
9.19313e-12
5.93283e-12
3.15227e-06
1.62523e-06
8.735e-07
4.60739e-07
2.66267e-07
1.63396e-07
1.05325e-07
7.16212e-08
5.17632e-08
3.98572e-08
3.24293e-08
2.7416e-08
2.35831e-08
2.01923e-08
1.68555e-08
1.37348e-08
1.07444e-08
7.92632e-09
5.41104e-09
3.32446e-09
1.73794e-09
6.78212e-10
1.52405e-10
2.43122e-11
1.70769e-11
6.43382e-06
4.17979e-06
2.84203e-06
1.8387e-06
1.17167e-06
7.59938e-07
5.03806e-07
3.48456e-07
2.57e-07
2.04053e-07
1.7276e-07
1.5252e-07
1.36811e-07
1.21785e-07
1.05576e-07
8.80374e-08
6.94857e-08
5.08933e-08
3.36571e-08
1.91963e-08
8.66995e-09
2.66052e-09
4.42177e-10
4.54462e-11
2.75886e-11
1.13273e-05
8.23471e-06
6.40426e-06
4.95943e-06
3.51941e-06
2.43821e-06
1.66679e-06
1.16537e-06
8.63508e-07
6.89681e-07
5.89145e-07
5.25269e-07
4.75198e-07
4.25662e-07
3.70172e-07
3.07283e-07
2.38952e-07
1.6991e-07
1.06685e-07
5.60278e-08
2.26103e-08
6.16571e-09
9.31704e-10
7.14975e-11
2.99734e-11
1.79024e-05
1.37273e-05
1.15618e-05
9.83981e-06
7.86567e-06
5.66961e-06
3.94001e-06
2.74247e-06
2.00455e-06
1.58113e-06
1.34017e-06
1.18929e-06
1.07166e-06
9.55502e-07
8.25802e-07
6.79205e-07
5.20989e-07
3.63103e-07
2.21619e-07
1.12264e-07
4.36426e-08
1.15714e-08
1.70993e-09
1.0463e-10
2.18819e-11
2.61038e-05
2.06062e-05
1.80651e-05
1.61549e-05
1.37594e-05
1.05538e-05
7.35471e-06
5.01903e-06
3.55906e-06
2.73062e-06
2.27137e-06
1.99345e-06
1.78464e-06
1.58502e-06
1.36713e-06
1.12413e-06
8.63588e-07
6.0399e-07
3.70771e-07
1.89426e-07
7.44985e-08
2.00159e-08
2.97857e-09
1.60131e-10
7.88191e-12
3.57309e-05
2.87578e-05
2.56448e-05
2.37023e-05
2.09537e-05
1.67804e-05
1.19654e-05
7.94221e-06
5.41132e-06
4.00344e-06
3.25503e-06
2.82859e-06
2.52813e-06
2.25265e-06
1.95612e-06
1.62457e-06
1.26524e-06
9.01241e-07
5.66595e-07
2.9816e-07
1.21221e-07
3.36158e-08
5.12569e-09
2.78757e-10
8.80527e-12
4.64631e-05
3.79757e-05
3.41548e-05
3.21082e-05
2.92452e-05
2.42265e-05
1.7758e-05
1.18338e-05
7.74583e-06
5.48957e-06
4.34914e-06
3.74792e-06
3.35973e-06
3.02083e-06
2.6564e-06
2.24025e-06
1.77709e-06
1.29472e-06
8.37338e-07
4.564e-07
1.93279e-07
5.58566e-08
8.85258e-09
5.53904e-10
8.35252e-11
5.78185e-05
4.79369e-05
4.33632e-05
4.10934e-05
3.85058e-05
3.30135e-05
2.50085e-05
1.68991e-05
1.09267e-05
7.49414e-06
5.73976e-06
4.88836e-06
4.3977e-06
3.99931e-06
3.56996e-06
3.06243e-06
2.47542e-06
1.84308e-06
1.22402e-06
6.89948e-07
3.04562e-07
9.22035e-08
1.53763e-08
1.17498e-09
3.54843e-10
6.92459e-05
5.82263e-05
5.29497e-05
5.04488e-05
4.81497e-05
4.31857e-05
3.41839e-05
2.38615e-05
1.54994e-05
1.04022e-05
7.75952e-06
6.44847e-06
5.79303e-06
5.32428e-06
4.82613e-06
4.21189e-06
3.46634e-06
2.63118e-06
1.78744e-06
1.03722e-06
4.75755e-07
1.51139e-07
2.67983e-08
2.54554e-09
1.11061e-09
8.01278e-05
6.84115e-05
6.25255e-05
5.9847e-05
5.78571e-05
5.39303e-05
4.54219e-05
3.34292e-05
2.23501e-05
1.48186e-05
1.07699e-05
8.77875e-06
7.7655e-06
7.18018e-06
6.60626e-06
5.8639e-06
4.90931e-06
3.79049e-06
2.62325e-06
1.55835e-06
7.38719e-07
2.45935e-07
4.67333e-08
5.46845e-09
2.92368e-09
8.9818e-05
7.7991e-05
7.16863e-05
6.88967e-05
6.72753e-05
6.44028e-05
5.77836e-05
4.59204e-05
3.23615e-05
2.17161e-05
1.54478e-05
1.22726e-05
1.07092e-05
9.84331e-06
9.16504e-06
8.27869e-06
7.05378e-06
5.53216e-06
3.8861e-06
2.34967e-06
1.14324e-06
3.97279e-07
8.14454e-08
1.16339e-08
6.85532e-09
9.77302e-05
8.64908e-05
8.00354e-05
7.71826e-05
7.59849e-05
7.41878e-05
6.95385e-05
6.01706e-05
4.63326e-05
3.25756e-05
2.29753e-05
1.77453e-05
1.51723e-05
1.37905e-05
1.29089e-05
1.18496e-05
1.02772e-05
8.19093e-06
5.82774e-06
3.56668e-06
1.76611e-06
6.34589e-07
1.39634e-07
2.38172e-08
1.46728e-08
0.000103402
9.34818e-05
8.72052e-05
8.43781e-05
8.35627e-05
8.28342e-05
8.01034e-05
7.3554e-05
6.23564e-05
4.82352e-05
3.50129e-05
2.65601e-05
2.21431e-05
1.99531e-05
1.84908e-05
1.71851e-05
1.51827e-05
1.23007e-05
8.85842e-06
5.46566e-06
2.73094e-06
1.00093e-06
2.31684e-07
4.48697e-08
2.89953e-08
0.000106603
9.8654e-05
9.29215e-05
9.02008e-05
8.97187e-05
8.99255e-05
8.89825e-05
8.51648e-05
7.73163e-05
6.55961e-05
5.21864e-05
4.05222e-05
3.30058e-05
2.92048e-05
2.69807e-05
2.51294e-05
2.26111e-05
1.86787e-05
1.36394e-05
8.47426e-06
4.24735e-06
1.5699e-06
3.75478e-07
7.95675e-08
5.32071e-08
0.000107397
0.00010188
9.70628e-05
9.45333e-05
9.42596e-05
9.51836e-05
9.57705e-05
9.44252e-05
8.9907e-05
8.17368e-05
7.06881e-05
5.89893e-05
4.92236e-05
4.30861e-05
3.95838e-05
3.67378e-05
3.3622e-05
2.84483e-05
2.11793e-05
1.3286e-05
6.66266e-06
2.45967e-06
5.96505e-07
1.33199e-07
9.11542e-08
0.000106151
0.000103233
9.96408e-05
9.74134e-05
9.72002e-05
9.85301e-05
0.00010025
0.000100965
9.94306e-05
9.48953e-05
8.7407e-05
7.80403e-05
6.86997e-05
6.11622e-05
5.65028e-05
5.32974e-05
4.91069e-05
4.28127e-05
3.28369e-05
2.09883e-05
1.05496e-05
3.86522e-06
9.33251e-07
2.11097e-07
1.46492e-07
0.000103481
0.000103023
0.000100855
9.90505e-05
9.87687e-05
0.000100137
0.00010248
0.00010468
0.000105559
0.000104266
0.000100436
9.44455e-05
8.73843e-05
8.0677e-05
7.54395e-05
7.21072e-05
6.81237e-05
6.20359e-05
4.97975e-05
3.31054e-05
1.68304e-05
6.11828e-06
1.45021e-06
3.18118e-07
2.19814e-07
0.000100049
0.000101736
0.000101034
9.97836e-05
9.93892e-05
0.000100461
0.000102848
0.000105826
0.000108382
0.000109586
0.000108982
0.000106411
0.000102362
9.77127e-05
9.33242e-05
9.01726e-05
8.75789e-05
8.21333e-05
7.10536e-05
5.11852e-05
2.70282e-05
9.81342e-06
2.26023e-06
4.62299e-07
3.07085e-07
9.64042e-05
9.99049e-05
0.000100618
0.000100003
9.95461e-05
0.000100133
0.000102064
0.000105063
0.000108428
0.000111309
0.000113003
0.000113214
0.000112112
0.000109921
0.000107173
0.000104751
0.000103034
9.96626e-05
9.09946e-05
7.2075e-05
4.29536e-05
1.60453e-05
3.57476e-06
6.71952e-07
4.18895e-07
9.2883e-05
9.79686e-05
0.000100018
0.000100214
9.97464e-05
9.98194e-05
0.000100976
0.000103357
0.000106642
0.000110212
0.000113369
0.000115515
0.000116337
0.000116074
0.000115247
0.000114369
0.000113825
0.000112783
0.000107372
9.20543e-05
6.16647e-05
2.64036e-05
5.91242e-06
1.0105e-06
6.14736e-07
8.9631e-05
9.61725e-05
9.95624e-05
0.000100657
0.0001005
0.000100133
0.000100427
0.000101785
0.00010426
0.00010755
0.000111137
0.000114411
0.000116814
0.000118211
0.000115661
0.000116207
0.000119489
0.000120467
0.000117756
0.000107837
8.29193e-05
4.17387e-05
1.06626e-05
1.57533e-06
8.31292e-07
8.67976e-05
9.46686e-05
9.94224e-05
0.00010157
0.000101961
0.000101513
0.000101092
0.000101343
0.000102591
0.000104873
0.000107934
0.000111316
0.000114462
0.000116986
0.000116039
0.000111361
0.000112329
0.000113253
0.00011162
0.000105506
9.32732e-05
7.05267e-05
2.82072e-05
5.27359e-06
1.04482e-06
8.44786e-05
9.34958e-05
9.96207e-05
0.000103006
0.000104236
0.000104081
0.000103315
0.000102685
0.000102687
0.000103551
0.000105376
0.000107957
0.000110885
0.000113735
0.000116334
0.000112417
0.000108992
0.000107952
0.000106299
0.000102707
9.60646e-05
8.49874e-05
6.80325e-05
3.05433e-05
9.35782e-06
8.2816e-05
9.26961e-05
0.00010012
0.000104877
0.00010724
0.000107777
0.000107144
0.000106022
0.000105021
0.000104546
0.000104901
0.000106046
0.000107909
0.000110191
0.000112652
0.00011517
0.000113544
0.000108462
0.000104993
0.000101489
9.71692e-05
9.14166e-05
8.35322e-05
7.21808e-05
5.10258e-05
8.15389e-05
9.22536e-05
0.000100812
0.000106985
0.000110729
0.000112354
0.00011236
0.000111307
0.000109807
0.000108339
0.000107326
0.000106956
0.000107303
0.000108268
0.000109766
0.00011168
0.000113891
0.000116264
0.000111324
0.000105422
0.000100514
9.59224e-05
9.12475e-05
8.61551e-05
8.12582e-05
7.95376e-05
9.16759e-05
0.000101481
0.000109033
0.000114313
0.000117366
0.000118486
0.000118102
0.000116735
0.000114869
0.000112948
0.000111308
0.00011016
0.000109622
0.000109675
0.000110239
0.000111371
0.000112981
0.000114925
0.000117054
0.000111886
0.000105063
9.9965e-05
9.59738e-05
9.30136e-05
7.60442e-05
8.98809e-05
0.000101402
0.000110571
0.000117447
0.000122121
0.000124739
0.000125575
0.000125006
0.000123451
0.000121325
0.000119011
0.000116812
0.000114902
0.000113472
0.000112553
0.000112202
0.000112359
0.000113073
0.000114259
0.000115772
0.000117449
0.000119066
0.00011215
0.000106997
6.98766e-05
8.5695e-05
9.93058e-05
0.000110531
0.000119314
0.000125622
0.000129953
0.000132425
0.000133252
0.000132732
0.0001312
0.000129007
0.000126482
0.000123878
0.000121419
0.000119212
0.00011733
0.000116002
0.000115257
0.000114976
0.000115121
0.000115708
0.000116607
0.000117638
0.00011863
5.94747e-05
7.71938e-05
9.33266e-05
0.00010717
0.000118463
0.000127036
0.000132746
0.000136895
0.000139454
0.000140533
0.000140331
0.000139104
0.000137133
0.000134685
0.00013199
0.000129252
0.000126605
0.0001242
0.000122039
0.000120323
0.000119127
0.000118361
0.000117941
0.000117803
0.000117921
4.42221e-05
6.22852e-05
8.06364e-05
9.75677e-05
0.000112155
0.000123338
0.000128255
0.000133224
0.000137444
0.000140519
0.000142412
0.00014338
0.000143909
0.000144229
0.000142273
0.000139925
0.00013737
0.000134761
0.000132204
0.000129809
0.000127643
0.000125709
0.0001241
0.000122875
0.000121957
2.88384e-05
4.24119e-05
5.96429e-05
7.83197e-05
9.63752e-05
0.000111972
0.000124179
0.000127969
0.000128191
0.000127774
0.000127055
0.000126232
0.000125486
0.00012497
0.000124861
0.000125428
0.000126834
0.000129362
0.000133148
0.000139096
0.000138023
0.000136043
0.000134113
0.000132313
0.000130613
1.70255e-05
2.50192e-05
3.62712e-05
5.20739e-05
7.03274e-05
8.82823e-05
0.00010444
0.000117754
0.000128255
0.000131452
0.00013026
0.000128457
0.00012648
0.00012464
0.000123141
0.000122168
0.000121813
0.000122173
0.000123313
0.000125334
0.000128397
0.00013252
0.000138131
0.000142198
0.000140806
8.89163e-06
1.30236e-05
1.89885e-05
2.75599e-05
3.95721e-05
5.52272e-05
7.22568e-05
8.82581e-05
0.00010264
0.000114895
0.000124842
0.000130578
0.000129403
0.000127756
0.000126021
0.000124429
0.00012314
0.000122286
0.000121963
0.000122186
0.000122999
0.000124459
0.000126581
0.000129455
0.000132992
3.82288e-06
5.57221e-06
8.09587e-06
1.17505e-05
1.70417e-05
2.46272e-05
3.51206e-05
4.7188e-05
6.03192e-05
7.34545e-05
8.53812e-05
9.60223e-05
0.000105184
0.000112831
0.000119052
0.000120881
0.000119956
0.000119052
0.000118379
0.000118002
0.000117936
0.000118219
0.000118862
0.000119872
0.000121264
1.19352e-06
1.73272e-06
2.50255e-06
3.60578e-06
5.19496e-06
7.48138e-06
1.074e-05
1.53705e-05
2.11899e-05
2.76782e-05
3.45976e-05
4.19011e-05
4.92168e-05
5.59655e-05
6.21534e-05
6.76317e-05
7.22852e-05
7.61151e-05
7.91605e-05
8.14752e-05
8.31143e-05
8.41309e-05
8.45792e-05
8.45146e-05
8.39947e-05
2.20981e-07
3.2031e-07
4.59759e-07
6.54716e-07
9.27298e-07
1.30983e-06
1.84549e-06
2.59641e-06
3.63817e-06
4.99376e-06
6.52799e-06
8.23923e-06
1.00917e-05
1.20268e-05
1.40298e-05
1.59904e-05
1.77313e-05
1.92559e-05
2.05506e-05
2.16007e-05
2.23935e-05
2.29239e-05
2.32034e-05
2.32505e-05
2.30887e-05
2.6752e-08
3.84167e-08
5.40163e-08
7.45556e-08
1.0118e-07
1.35099e-07
1.7738e-07
2.29323e-07
2.92234e-07
3.69561e-07
4.6618e-07
5.74378e-07
6.9432e-07
8.24952e-07
9.63908e-07
1.10301e-06
1.23095e-06
1.35028e-06
1.45809e-06
1.55414e-06
1.63808e-06
1.70567e-06
1.75939e-06
1.80043e-06
1.82952e-06
1.55995e-08
2.21966e-08
3.06431e-08
4.1244e-08
5.43161e-08
6.96787e-08
8.62508e-08
1.02159e-07
1.14317e-07
1.22215e-07
1.26091e-07
1.26107e-07
1.2171e-07
1.10885e-07
9.40681e-08
7.30829e-08
5.09226e-08
3.19835e-08
1.86645e-08
1.53899e-08
2.87945e-08
5.41785e-08
9.22691e-08
1.42865e-07
2.0494e-07
5.26589e-07
2.71869e-07
1.51908e-07
2.87417e-06
1.61029e-06
1.13966e-06
2.92181e-05
1.91787e-05
1.45596e-05
7.80416e-05
7.1284e-05
6.03758e-05
9.11736e-05
8.9946e-05
8.86921e-05
0.00010383
0.000101945
0.000100561
0.000119356
0.000119817
0.000119969
0.000118201
0.000118554
0.000118932
0.000121335
0.000120869
0.000120522
0.000129226
0.000128002
0.000126969
0.000139501
0.000138203
0.000136931
0.000137156
0.000141479
0.000142945
0.000122974
0.000124719
0.000126629
8.31723e-05
8.20649e-05
8.06754e-05
2.27793e-05
2.23462e-05
2.17962e-05
1.8471e-06
1.85658e-06
1.85887e-06
2.71965e-07
3.41299e-07
4.14345e-07
3.20639e-15
3.38027e-14
1.29801e-13
3.00995e-13
4.94836e-13
6.55871e-13
7.62555e-13
7.73953e-13
7.14579e-13
6.24937e-13
5.32771e-13
4.45449e-13
3.58205e-13
2.81363e-13
2.2093e-13
1.77755e-13
1.56891e-13
1.83247e-13
2.29214e-13
2.84624e-13
3.55495e-13
4.53743e-13
5.98144e-13
8.19417e-13
1.16674e-12
1.7178e-12
2.5888e-12
3.95204e-12
6.05554e-12
9.25174e-12
1.4048e-11
2.11988e-11
3.33215e-11
5.64141e-11
9.79446e-11
1.22292e-10
1.65322e-10
2.38434e-10
3.45408e-10
4.92803e-10
6.93897e-10
9.66147e-10
1.33148e-09
1.81696e-09
2.45526e-09
3.28474e-09
4.34898e-09
5.69572e-09
7.37673e-09
9.44598e-09
1.19537e-08
1.49392e-08
1.84216e-08
2.23902e-08
2.67985e-08
3.15554e-08
3.65144e-08
4.14688e-08
4.61561e-08
5.02716e-08
5.34725e-08
5.54123e-08
5.58816e-08
5.46235e-08
5.14714e-08
4.65852e-08
4.0323e-08
3.31928e-08
2.57698e-08
1.86782e-08
1.24662e-08
7.5138e-09
3.97307e-09
1.76382e-09
6.17044e-10
1.75808e-10
1.85944e-11
1.62169e-11
1.44775e-11
4.33441e-12
2.51929e-14
6.1366e-14
3.80396e-13
1.11496e-12
2.22873e-12
3.68561e-12
5.43757e-12
7.40184e-12
9.51231e-12
1.17079e-11
1.39178e-11
1.6063e-11
1.80711e-11
1.98952e-11
2.1506e-11
2.28919e-11
2.40656e-11
2.50661e-11
2.59228e-11
2.66883e-11
2.74411e-11
2.82792e-11
2.93189e-11
3.06986e-11
3.25846e-11
3.51813e-11
3.87437e-11
4.35965e-11
5.01606e-11
5.8997e-11
7.09013e-11
8.71871e-11
1.10778e-10
1.46651e-10
1.97571e-10
2.45071e-10
3.12609e-10
4.13249e-10
5.57369e-10
7.75874e-10
1.05049e-09
1.40311e-09
1.86266e-09
2.46098e-09
3.23483e-09
4.22666e-09
5.48433e-09
7.06018e-09
9.00991e-09
1.13896e-08
1.42498e-08
1.7628e-08
2.15388e-08
2.59656e-08
3.08529e-08
3.60994e-08
4.15513e-08
4.70018e-08
5.22001e-08
5.68678e-08
6.07198e-08
6.35113e-08
6.51113e-08
6.50572e-08
6.31435e-08
5.93874e-08
5.39638e-08
4.71652e-08
3.93344e-08
3.08021e-08
2.26233e-08
1.59893e-08
1.05549e-08
6.41303e-09
3.5417e-09
1.75067e-09
7.17924e-10
2.1422e-10
2.93765e-11
9.81469e-12
1.03957e-13
2.58956e-13
2.85579e-12
1.32183e-11
3.30855e-11
6.11483e-11
9.61575e-11
1.3679e-10
1.8143e-10
2.28263e-10
2.75407e-10
3.21096e-10
3.63849e-10
4.02564e-10
4.36545e-10
4.6552e-10
4.89643e-10
5.09466e-10
5.25889e-10
5.40141e-10
5.53753e-10
5.68517e-10
5.86462e-10
6.09846e-10
6.41161e-10
6.83165e-10
7.38943e-10
8.11999e-10
9.06399e-10
1.02698e-09
1.17966e-09
1.37188e-09
1.6133e-09
1.91606e-09
2.29474e-09
2.75324e-09
3.32529e-09
4.05057e-09
4.98126e-09
6.19581e-09
7.65945e-09
9.42451e-09
1.15743e-08
1.42014e-08
1.74078e-08
2.13071e-08
2.60252e-08
3.16992e-08
3.8475e-08
4.65028e-08
5.59322e-08
6.69058e-08
7.9548e-08
9.39567e-08
1.102e-07
1.2831e-07
1.48286e-07
1.70092e-07
1.93675e-07
2.18991e-07
2.46057e-07
2.75037e-07
3.03213e-07
3.26961e-07
3.44226e-07
3.52784e-07
3.50581e-07
3.36105e-07
3.08807e-07
2.69756e-07
2.2318e-07
1.74733e-07
1.27311e-07
8.47233e-08
5.00891e-08
2.49146e-08
9.16161e-09
1.83625e-09
1.14959e-10
7.78987e-12
2.14688e-13
6.64621e-13
9.33645e-12
5.66076e-11
1.80079e-10
3.86153e-10
6.57246e-10
9.74095e-10
1.32036e-09
1.68101e-09
2.04172e-09
2.3894e-09
2.7131e-09
3.00466e-09
3.25898e-09
3.47419e-09
3.65151e-09
3.79513e-09
3.9119e-09
4.01108e-09
4.10402e-09
4.20393e-09
4.32564e-09
4.48547e-09
4.70119e-09
4.99214e-09
5.37953e-09
5.8869e-09
6.54094e-09
7.37242e-09
8.41758e-09
9.71956e-09
1.13295e-08
1.33073e-08
1.57403e-08
1.87154e-08
2.23643e-08
2.68584e-08
3.24118e-08
3.92553e-08
4.74659e-08
5.72681e-08
6.89964e-08
8.30466e-08
9.98678e-08
1.1997e-07
1.43934e-07
1.72419e-07
2.06174e-07
2.46045e-07
2.92983e-07
3.4805e-07
4.12415e-07
4.87343e-07
5.74175e-07
6.74284e-07
7.88986e-07
9.19372e-07
1.06603e-06
1.22864e-06
1.40546e-06
1.59256e-06
1.76304e-06
1.9061e-06
2.00911e-06
2.05863e-06
2.04284e-06
1.95407e-06
1.79163e-06
1.56432e-06
1.29157e-06
9.98842e-07
7.11327e-07
4.5472e-07
2.50015e-07
1.09323e-07
3.2882e-08
5.2767e-09
2.84236e-10
4.45825e-12
2.76164e-13
1.29102e-12
2.10829e-11
1.41889e-10
5.23662e-10
1.29781e-09
2.45999e-09
3.90641e-09
5.5184e-09
7.19711e-09
8.86407e-09
1.04565e-08
1.19253e-08
1.32357e-08
1.43668e-08
1.5312e-08
1.60782e-08
1.6685e-08
1.71635e-08
1.75549e-08
1.79091e-08
1.82837e-08
1.87424e-08
1.93546e-08
2.01949e-08
2.13427e-08
2.28836e-08
2.49107e-08
2.75268e-08
3.08483e-08
3.50091e-08
4.01658e-08
4.65e-08
5.42209e-08
6.36133e-08
7.50152e-08
8.8853e-08
1.05648e-07
1.26006e-07
1.5056e-07
1.79886e-07
2.148e-07
2.56394e-07
3.05998e-07
3.65191e-07
4.35832e-07
5.20117e-07
6.20642e-07
7.4047e-07
8.83194e-07
1.05301e-06
1.25472e-06
1.49376e-06
1.77604e-06
2.1077e-06
2.49456e-06
2.94111e-06
3.44894e-06
4.01415e-06
4.62415e-06
5.25459e-06
5.86681e-06
6.38073e-06
6.76622e-06
6.98375e-06
6.99653e-06
6.77998e-06
6.32823e-06
5.65937e-06
4.81737e-06
3.86894e-06
2.89487e-06
1.97951e-06
1.2008e-06
6.16134e-07
2.47298e-07
6.82654e-08
1.03896e-08
5.86958e-10
4.83846e-11
2.25167e-13
2.20155e-12
4.02543e-11
2.81868e-10
1.11522e-09
3.03445e-09
6.31967e-09
1.08419e-08
1.61909e-08
2.191e-08
2.76225e-08
3.30537e-08
3.80152e-08
4.23869e-08
4.61058e-08
4.91583e-08
5.15753e-08
5.3427e-08
5.48186e-08
5.58853e-08
5.67882e-08
5.77093e-08
5.88476e-08
6.04158e-08
6.26373e-08
6.57457e-08
6.99855e-08
7.56148e-08
8.29112e-08
9.21797e-08
1.03764e-07
1.18056e-07
1.35511e-07
1.56658e-07
1.82169e-07
2.1288e-07
2.49805e-07
2.9415e-07
3.47303e-07
4.10824e-07
4.86493e-07
5.76584e-07
6.83998e-07
8.12322e-07
9.65916e-07
1.15005e-06
1.37109e-06
1.63666e-06
1.9559e-06
2.33958e-06
2.8002e-06
3.35194e-06
4.01018e-06
4.79059e-06
5.70728e-06
6.76973e-06
7.97798e-06
9.31637e-06
1.07463e-05
1.2199e-05
1.35767e-05
1.47243e-05
1.55625e-05
1.60247e-05
1.60488e-05
1.55943e-05
1.46597e-05
1.32839e-05
1.15473e-05
9.56692e-06
7.48658e-06
5.46183e-06
3.64307e-06
2.1562e-06
1.08044e-06
4.25158e-07
1.16149e-07
1.77807e-08
1.12358e-09
2.13003e-10
9.78622e-14
3.59222e-12
7.00688e-11
4.98734e-10
2.03603e-09
5.82786e-09
1.29344e-08
2.36712e-08
3.73786e-08
5.27973e-08
6.86137e-08
8.37826e-08
9.75985e-08
1.09647e-07
1.19738e-07
1.27847e-07
1.3408e-07
1.38647e-07
1.41844e-07
1.44037e-07
1.45651e-07
1.47155e-07
1.49052e-07
1.51866e-07
1.56136e-07
1.62409e-07
1.71239e-07
1.83191e-07
1.98851e-07
2.18845e-07
2.43859e-07
2.74668e-07
3.12169e-07
3.57421e-07
4.11738e-07
4.7675e-07
5.54442e-07
6.4719e-07
7.57819e-07
8.89693e-07
1.04691e-06
1.23462e-06
1.45931e-06
1.72902e-06
2.05363e-06
2.44521e-06
2.9184e-06
3.4908e-06
4.1833e-06
5.02017e-06
6.02874e-06
7.23834e-06
8.67788e-06
1.03715e-05
1.2332e-05
1.45511e-05
1.6989e-05
1.9563e-05
2.21415e-05
2.45471e-05
2.65825e-05
2.80377e-05
2.88447e-05
2.89344e-05
2.82645e-05
2.68311e-05
2.46869e-05
2.19378e-05
1.87401e-05
1.52902e-05
1.18098e-05
8.52508e-06
5.64363e-06
3.32838e-06
1.67053e-06
6.62629e-07
1.83643e-07
2.87554e-08
2.07391e-09
6.19955e-10
1.10857e-13
5.88739e-12
1.15202e-10
8.25043e-10
3.41821e-09
1.00483e-08
2.31768e-08
4.44028e-08
7.34255e-08
1.08013e-07
1.44963e-07
1.81218e-07
2.14503e-07
2.43433e-07
2.6737e-07
2.86212e-07
3.00234e-07
3.09973e-07
3.16157e-07
3.19657e-07
3.21447e-07
3.22578e-07
3.24149e-07
3.27277e-07
3.33081e-07
3.42663e-07
3.57099e-07
3.77448e-07
4.0477e-07
4.40156e-07
4.84777e-07
5.39944e-07
6.07181e-07
6.88313e-07
7.85593e-07
9.01822e-07
1.04045e-06
1.20572e-06
1.40278e-06
1.63802e-06
1.91934e-06
2.25666e-06
2.66239e-06
3.15195e-06
3.74429e-06
4.46255e-06
5.33465e-06
6.39377e-06
7.67843e-06
9.23187e-06
1.11e-05
1.33273e-05
1.59497e-05
1.89836e-05
2.24116e-05
2.61659e-05
3.01182e-05
3.40806e-05
3.78105e-05
4.104e-05
4.35261e-05
4.50686e-05
4.56156e-05
4.51101e-05
4.35248e-05
4.08846e-05
3.72809e-05
3.28756e-05
2.78986e-05
2.26353e-05
1.74043e-05
1.2526e-05
8.28645e-06
4.90062e-06
2.47878e-06
9.96917e-07
2.81751e-07
4.53379e-08
3.72871e-09
1.4667e-09
8.45509e-13
9.90699e-12
1.82371e-10
1.30648e-09
5.45257e-09
1.62622e-08
3.83755e-08
7.57767e-08
1.29664e-07
1.9728e-07
2.72704e-07
3.49003e-07
4.20247e-07
4.82462e-07
5.33632e-07
5.73261e-07
6.01881e-07
6.20678e-07
6.31252e-07
6.35462e-07
6.35336e-07
6.32998e-07
6.30614e-07
6.30336e-07
6.34263e-07
6.44401e-07
6.62654e-07
6.90826e-07
7.30655e-07
7.83877e-07
8.5231e-07
9.37967e-07
1.0432e-06
1.17084e-06
1.3244e-06
1.50831e-06
1.72805e-06
1.9905e-06
2.3042e-06
2.67982e-06
3.13072e-06
3.67362e-06
4.32934e-06
5.12364e-06
6.08807e-06
7.26081e-06
8.68731e-06
1.04204e-05
1.25195e-05
1.50477e-05
1.80664e-05
2.16266e-05
2.57544e-05
3.04346e-05
3.55917e-05
4.1077e-05
4.66677e-05
5.20819e-05
5.70041e-05
6.11267e-05
6.4191e-05
6.59916e-05
6.64688e-05
6.554e-05
6.31485e-05
5.92997e-05
5.40889e-05
4.7719e-05
4.05048e-05
3.28585e-05
2.52529e-05
1.81673e-05
1.20243e-05
7.13051e-06
3.63088e-06
1.47843e-06
4.257e-07
7.04285e-08
6.52569e-09
3.05568e-09
3.24619e-12
1.69217e-11
2.81023e-10
2.00624e-09
8.40376e-09
2.52732e-08
6.04748e-08
1.21792e-07
2.13503e-07
3.33377e-07
4.72346e-07
6.1739e-07
7.5572e-07
8.77794e-07
9.78235e-07
1.05527e-06
1.10964e-06
1.14364e-06
1.16044e-06
1.16368e-06
1.15723e-06
1.14506e-06
1.13109e-06
1.11918e-06
1.11299e-06
1.11593e-06
1.13118e-06
1.16164e-06
1.21004e-06
1.27898e-06
1.37113e-06
1.48942e-06
1.6372e-06
1.81854e-06
2.03855e-06
2.30361e-06
2.62182e-06
3.00335e-06
3.46102e-06
4.0109e-06
4.67314e-06
5.47284e-06
6.44116e-06
7.61629e-06
9.04463e-06
1.07815e-05
1.28915e-05
1.54476e-05
1.85281e-05
2.22114e-05
2.65661e-05
3.16368e-05
3.74267e-05
4.38786e-05
5.08607e-05
5.81617e-05
6.55017e-05
7.25544e-05
7.89747e-05
8.44276e-05
8.86083e-05
9.1254e-05
9.22604e-05
9.14619e-05
8.8702e-05
8.38924e-05
7.70691e-05
6.84395e-05
5.84083e-05
4.75677e-05
3.66411e-05
2.63848e-05
1.74693e-05
1.03713e-05
5.30159e-06
2.17796e-06
6.36965e-07
1.08134e-07
1.10864e-08
5.81293e-09
8.79913e-12