/*--------------------------------*- C++ -*----------------------------------*\
| =========                 |                                                 |
| \\      /  F ield         | OpenFOAM: The Open Source CFD Toolbox           |
|  \\    /   O peration     | Version:  v2012                                 |
|   \\  /    A nd           | Website:  www.openfoam.com                      |
|    \\/     M anipulation  |                                                 |
\*---------------------------------------------------------------------------*/
FoamFile
{
    version     2.0;
    format      ascii;
    class       volScalarField;
    location    "2000";
    object      omega;
}
// * * * * * * * * * * * * * * * * * * * * * * * * * * * * * * * * * * * * * //

dimensions      [0 0 -1 0 0 0 0];


internalField   nonuniform List<scalar> 
6502
(
1472.42
193.017
60.766
45.3472
43.3087
43.3074
45.341
60.7435
192.941
1472.42
1470.59
286.238
85.7516
48.2371
41.6633
41.6552
48.2011
85.6401
286.026
1470.59
1469.66
321.609
105.108
52.5207
41.0995
41.0758
52.4278
104.876
321.265
1469.67
1469.09
330.341
117.214
56.6178
41.1951
41.1454
56.4425
116.839
329.83
1469.09
1468.72
325.365
122.853
59.6789
41.5659
41.4799
59.4035
122.321
324.676
1468.73
1468.51
314.57
123.702
61.4591
41.9432
41.81
61.0608
122.99
313.631
1468.51
1468.38
302.797
121.735
62.1631
42.1987
42.0058
61.614
120.797
301.536
1468.39
1468.3
292.414
118.557
62.0876
42.2889
42.0234
61.3595
117.331
290.775
1468.31
1468.25
284.162
115.11
61.5196
42.2137
41.8629
60.57
113.499
281.942
1468.26
1468.22
278.238
111.946
60.6738
42.0025
41.545
59.4597
109.807
275.242
1468.24
1468.19
274.23
109.301
59.732
41.7004
41.1034
58.1569
106.474
270.24
1468.22
1468.17
271.697
107.272
58.8345
41.3443
40.5733
56.7731
103.509
266.397
1468.2
1468.15
270.266
105.78
58.0577
40.9693
39.9907
55.3536
100.867
263.295
1468.2
1468.14
269.722
104.836
57.4665
40.613
39.4034
53.8874
98.4145
260.981
1468.19
1468.12
269.842
104.42
57.1058
40.3054
38.8288
52.5352
96.2435
259.579
1468.2
1468.11
270.459
104.502
57.0082
40.0695
38.2839
51.3062
94.4217
258.295
1468.2
1468.09
271.487
105.059
57.1804
39.9498
37.7847
50.1614
92.7506
256.895
1468.21
1468.08
272.857
106.071
57.6625
39.9857
37.347
49.0611
91.0541
255.152
1468.23
1468.06
274.488
107.51
58.4856
40.2166
36.9902
47.9672
89.1531
252.708
1468.27
1468.04
276.245
109.308
59.6606
40.6813
36.7361
46.8356
86.697
247.558
1468.29
1468.02
277.959
111.367
61.1782
41.4033
36.5972
45.4808
80.871
192.003
514.075
1468
279.3
113.497
62.9677
42.3884
36.5941
43.9465
73.666
147.587
258.784
1467.98
280.094
115.505
64.9267
43.6014
36.7402
42.3507
66.4508
116.483
163.535
1467.96
280.396
117.245
66.9468
45.0035
37.0513
40.8158
59.813
94.3859
117.524
1467.94
280.209
118.615
68.93
46.5571
37.5421
39.4449
53.9136
78.1521
91.4246
1467.93
279.592
119.552
70.7851
48.2147
38.2131
38.3124
48.8268
66.1458
75.0458
1467.92
278.592
120.01
72.4233
49.9208
39.0619
37.4725
44.7047
57.1465
63.8629
1467.91
277.241
119.947
73.7538
51.6122
40.1199
36.9691
41.4455
50.3286
55.7079
1467.9
275.566
119.329
74.6833
53.1964
41.311
36.8117
38.9686
45.1109
49.4851
1467.9
273.617
118.144
75.1274
54.5807
42.5823
36.9868
37.198
41.1266
44.5792
1467.89
271.466
116.412
75.0128
55.6627
43.858
37.4556
36.052
38.1298
40.6621
1467.89
269.166
114.174
74.2805
56.3314
45.0391
38.1497
35.4526
35.9592
37.5511
1467.89
266.893
111.526
72.9031
56.4794
46.0084
38.9766
35.3152
34.5121
35.1529
1467.89
264.798
108.597
70.894
56.0138
46.635
39.8167
35.5362
33.6751
33.3946
1467.89
262.63
105.444
68.2949
54.8656
46.7837
40.5258
35.9865
33.3386
32.2261
1467.89
260.276
102.133
65.1905
53.0073
46.3302
40.9438
36.5123
33.3795
31.5745
1467.89
257.858
98.8015
61.7371
50.4785
45.1836
40.9074
36.9362
33.644
31.3453
1467.89
256.767
96.1162
58.2623
47.4203
43.3154
40.2732
37.071
33.954
31.4103
1467.89
255.986
93.8159
54.8993
44.0015
40.7656
38.9403
36.7371
34.1132
31.6075
1467.89
254.292
91.3794
51.6525
40.4003
37.6488
36.8755
35.7847
33.9221
31.7443
1467.89
253.512
89.5419
48.806
36.8717
34.1679
34.1403
34.1224
33.2029
31.6149
1467.89
253.372
88.3727
46.4796
33.6384
30.5736
30.8926
31.7424
31.8275
31.0238
1467.89
253.256
87.3617
44.5936
30.8208
27.1095
27.3576
28.7207
29.7305
29.8125
1467.89
253.098
86.7385
43.2228
28.5064
24.0099
23.8107
25.1299
26.8574
27.8806
1467.89
253.031
86.5002
42.3511
26.8363
21.4245
20.5254
21.5056
23.3615
25.1608
1467.89
252.954
86.3099
41.7582
25.6438
19.374
17.6992
18.1653
19.8371
21.8521
1467.89
252.423
85.9278
41.2972
24.7967
17.9279
15.4343
15.317
16.5646
18.4748
1467.89
246.625
84.7948
40.8101
24.1673
16.9094
13.8417
13.107
13.7665
15.3177
1467.89
243.333
84.0323
40.4365
23.6972
16.1977
12.7565
11.4777
11.5625
12.6257
1467.89
242.883
83.7162
40.1231
23.3747
15.7429
12.1055
10.5128
10.1325
10.6322
1467.89
242.692
83.4442
39.8093
23.0896
15.527
11.8804
10.1527
9.50508
9.52432
1467.89
242.483
83.1292
39.5038
22.9148
15.5466
12.0706
10.4199
9.6843
9.46495
1467.89
242.251
82.8094
39.2895
22.9766
15.9573
12.7934
11.3468
10.6758
10.3652
1467.89
242.048
82.5892
39.3347
23.5023
17.0125
14.2906
13.1459
12.6325
12.3446
1467.89
242.021
82.6908
39.9905
24.9506
19.2131
17.0596
16.2914
16.0029
15.8222
1467.89
243.033
83.7477
42.1348
28.4208
23.7383
22.2784
21.9417
21.931
21.9354
1467.89
252.018
88.0662
48.5636
37.1701
33.9549
33.2898
33.3998
33.6921
33.9479
1467.89
256.434
101.783
70.332
63.2749
61.9338
62.0283
62.4932
63.0329
63.5375
1467.89
299.002
185.274
170.902
169.159
169.262
169.697
170.217
170.773
171.336
1467.89
961.951
961.951
961.951
961.951
961.951
961.951
961.951
961.951
961.951
923.364
923.336
923.333
923.329
923.326
923.325
923.324
923.323
923.323
923.323
923.322
923.322
923.322
923.322
923.322
923.322
923.322
923.322
923.322
923.322
923.322
923.322
923.322
923.322
1274.9
253.103
176.17
155.56
150.996
150.014
150.095
150.444
150.783
151.051
151.242
151.371
151.474
151.647
152.371
156.612
157.853
158.16
158.386
158.659
159.058
159.939
163.376
181.507
307.047
1626.47
134.283
82.6644
60.223
53.4353
50.9752
50.2321
50.153
50.291
50.4697
50.6226
50.7426
50.8549
51.0186
51.361
52.0857
52.5515
52.9156
53.3606
54.0567
55.4077
58.7614
69.0778
106.42
272.825
1626.47
94.2169
58.8388
37.7847
29.0038
25.4399
23.9716
23.4408
23.3149
23.3443
23.422
23.5154
23.6276
23.7819
24.014
24.3509
24.7461
25.2651
26.054
27.4137
30.0855
36.0968
51.5242
97.7253
280.313
1626.47
75.4989
50.3231
30.8702
21.1537
16.8114
14.8036
13.9396
13.6246
13.5648
13.6249
13.7487
13.9211
14.148
14.4463
14.8402
15.3668
16.1157
17.2732
19.2341
22.8958
30.469
48.0762
96.636
280.682
1626.47
64.7005
46.3442
29.3279
18.9375
13.7018
11.3049
10.2096
9.7902
9.71638
9.82502
10.0414
10.3367
10.7055
11.1576
11.7177
12.4363
13.4151
14.86
17.1978
21.3622
29.5694
47.8519
96.8983
280.998
1626.47
57.4857
44.0445
29.8539
18.9774
13.0927
10.1412
8.83913
8.35754
8.3094
8.50178
8.84103
9.28576
9.82246
10.4553
11.2062
12.1239
13.3083
14.9624
17.5085
21.8698
30.2384
48.599
97.5773
281.419
1626.47
52.12
42.4127
30.7729
20.4296
13.7054
10.1923
8.55988
7.99736
7.9715
8.24514
8.70199
9.28841
9.98456
10.7915
11.7291
12.8432
14.227
16.0708
18.7755
23.2343
31.6044
49.8427
98.5687
282.029
1626.47
47.7818
40.9896
31.6772
22.4173
15.0658
10.8977
8.87448
8.12328
8.09231
8.4155
8.96087
9.6608
10.4899
11.4491
12.5598
13.8689
15.4659
17.5286
20.4316
25.0249
33.4109
51.4981
99.8871
282.807
1626.47
44.0902
39.5625
32.3548
24.3183
17.1229
12.0974
9.54231
8.51521
8.39471
8.71518
9.3019
10.0762
11.0026
12.0827
13.3436
14.8402
16.6648
18.9908
22.1713
27.0091
35.5294
53.5494
101.602
283.863
1626.47
40.8587
38.0455
32.6965
25.999
19.3207
13.861
10.5315
9.05721
8.7184
8.98093
9.57061
10.3746
11.3569
12.5177
13.8918
15.552
17.599
20.2152
23.7469
28.959
37.789
55.9154
103.725
285.274
1626.47
38.0149
36.4127
32.6564
27.3289
21.414
15.9981
11.9529
9.79749
9.05636
9.16428
9.68539
10.4771
11.4738
12.6705
14.1124
15.8821
18.1136
21.0087
24.9247
30.6131
39.9299
58.3697
106.044
286.747
1626.47
35.5484
34.7103
32.2279
28.2171
23.2519
18.1759
13.8648
10.9227
9.56566
9.32846
9.66619
10.3609
11.3158
12.5034
13.9556
15.7801
18.1282
21.2357
25.5092
31.7157
41.6526
60.5695
107.883
284.715
1626.47
33.4855
33.0265
31.4666
28.6276
24.6992
20.2318
15.9592
12.5668
10.4374
9.57623
9.60129
10.0902
10.9064
12.0134
13.4095
15.2018
17.5775
20.8216
25.3728
32.0739
42.7262
62.3766
109.564
281.21
1626.47
31.8597
31.4648
30.4798
28.571
25.6649
21.9894
18.0637
14.5102
11.8377
10.2579
9.66745
9.8239
10.3812
11.2827
12.5552
14.2325
16.5277
19.7658
24.4713
31.5658
42.9529
63.6616
111.819
283.052
1626.47
30.6912
30.1295
29.4042
28.1392
26.1083
23.2989
19.9663
16.574
13.6269
11.4814
10.241
9.83051
9.97677
10.5482
11.5445
13.0179
15.1155
18.1986
22.8623
30.1482
42.1319
63.9679
113.555
285.391
1626.48
29.9704
29.1054
28.3873
27.4762
26.0931
24.0805
21.4716
18.5185
15.6159
13.1535
11.3761
10.3428
9.97438
10.0725
10.6515
11.7771
13.5484
16.304
20.6975
27.8943
40.2008
63.0519
114.321
287.467
1626.48
29.6446
28.4343
27.5532
26.7452
25.7512
24.3575
22.4586
20.1115
17.5412
15.0674
12.9829
11.461
10.5381
10.1717
10.235
10.788
12.1161
14.364
18.2376
24.9915
37.2298
60.8064
113.872
288.959
1626.49
29.6204
28.1097
26.9884
26.1005
25.2536
24.2474
22.9185
21.197
19.1441
16.9388
14.8337
13.0483
11.7131
10.8735
10.5193
10.5837
11.2214
12.7312
15.8606
21.745
33.3979
57.2019
111.966
289.575
1626.49
29.7564
28.0664
26.7164
25.6553
24.7756
23.9288
22.9603
21.7471
20.2421
18.4951
16.6291
14.8465
13.3152
12.1512
11.4239
11.1049
11.2291
12.0475
14.0741
18.5811
28.9506
52.219
108.565
289.821
1626.5
29.8712
28.1835
26.6987
25.4549
24.4461
23.5878
22.769
21.8726
20.8061
19.5327
18.0872
16.56
15.0745
13.7935
12.8318
12.222
11.9707
12.2219
13.431
16.5717
24.4678
45.9198
103.481
289.971
1626.52
29.7575
28.29
26.8235
25.4896
24.329
23.3677
22.5385
21.764
20.9571
20.0469
19.0066
17.864
16.6895
15.5537
14.5396
13.7401
13.2245
13.1013
13.6321
15.7024
21.615
38.9836
95.2109
290.124
1626.54
29.2065
28.1744
26.925
25.6353
24.4178
23.3366
22.4155
21.6187
20.8943
20.1782
19.4221
18.6104
17.7633
16.9024
16.0453
15.2672
14.6564
14.3185
14.4428
15.5837
19.6034
32.7397
80.8985
282.968
1626.56
28.0526
27.629
26.7953
25.7305
24.589
23.4787
22.4691
21.5867
20.8211
20.1425
19.5107
18.8961
18.2902
17.6883
17.067
16.4498
15.9017
15.5097
15.4083
15.8964
17.9611
24.7745
47.2535
127.451
338.225
26.1692
26.4697
26.219
25.5682
24.6733
23.6703
22.6598
21.7187
20.8797
20.1406
19.4996
18.9388
18.4424
17.9972
17.5688
17.1377
16.7294
16.3959
16.2194
16.3448
17.1141
19.6524
27.0751
46.5064
87.8776
23.5475
24.5939
25.0192
24.9318
24.4558
23.724
22.8536
21.943
21.0681
20.2651
19.5621
18.9503
18.4405
18.025
17.6783
17.3648
17.077
16.8333
16.6733
16.6648
16.9314
17.7386
19.7366
24.5128
33.6929
20.4033
22.0273
23.1177
23.6596
23.7282
23.4223
22.8506
22.1149
21.3116
20.5067
19.7539
19.0763
18.4921
18.0059
17.623
17.3185
17.069
16.8704
16.7329
16.6819
16.7644
17.0635
17.7302
19.0191
21.1354
17.1843
19.0172
20.5821
21.7083
22.3562
22.5742
22.4375
22.0289
21.4396
20.7496
20.0283
19.3276
18.6817
18.1179
17.6457
17.2528
16.9433
16.7054
16.536
16.4375
16.4229
16.5171
16.7612
17.2141
17.9171
14.1995
15.9648
17.6934
19.1956
20.3465
21.0965
21.4618
21.4899
21.2479
20.8093
20.2446
19.6179
18.9812
18.3724
17.8254
17.3478
16.9457
16.5998
16.3283
16.1303
16.006
15.9599
15.9995
16.1377
16.382
11.7558
13.2239
14.8491
16.4496
17.8868
19.0758
19.9149
20.4089
20.5909
20.5111
20.2271
19.7987
19.2822
18.724
18.1641
17.6341
17.1422
16.7122
16.344
16.0231
15.7558
15.5596
15.4307
15.3699
15.3775
10.1329
11.1484
12.4473
13.8877
15.3395
16.7088
17.9463
18.8623
19.4674
19.788
19.8612
19.7313
19.4461
19.0514
18.5881
18.0943
17.5929
17.1061
16.6392
16.2167
15.8495
15.5295
15.2526
15.0202
14.8412
9.62191
10.0796
10.8923
11.9581
13.1735
14.4563
15.7487
16.9832
17.9554
18.6563
19.1025
19.3197
19.3398
19.1993
18.9339
18.5791
18.1649
17.7161
17.2512
16.7876
16.3385
15.9074
15.5126
15.1676
14.8658
10.2614
10.3271
10.6055
11.1509
11.905
12.8615
13.9635
15.1429
16.2366
17.1607
17.8925
18.4249
18.7632
18.9233
18.9274
18.8011
18.5715
18.2636
17.9001
17.4988
17.0749
16.6423
16.2135
15.8008
15.4023
12.1295
11.9484
11.8146
11.7759
11.9665
12.4305
13.1222
13.9723
14.883
15.7716
16.5817
17.2754
17.8305
18.2383
18.5005
18.6265
18.6313
18.5325
18.3487
18.0971
17.7933
17.452
17.0855
16.7043
16.3189
15.608
15.3235
14.9649
14.5528
14.1287
13.8346
13.8815
14.1926
14.6845
15.2835
15.9236
16.5517
17.1284
17.6262
18.0282
18.3268
18.522
18.6189
18.6264
18.5554
18.4177
18.225
17.9885
17.7186
17.427
21.8319
21.5837
21.1741
20.5896
19.8341
18.9569
18.0673
17.5271
17.2958
17.3215
17.5148
17.8028
18.1356
18.4757
18.7953
19.0767
19.3083
19.4826
19.5963
19.6508
19.6504
19.6014
19.5106
19.3856
19.2349
34.0681
34.0127
33.7529
33.245
32.4337
31.3184
29.9613
28.3976
27.0831
26.2369
25.6988
25.3469
25.1251
24.9945
24.9229
24.8974
24.9074
24.9362
24.9699
25.0011
25.028
25.0499
25.0666
25.0795
25.0918
63.9387
64.1978
64.2915
64.1672
63.718
62.815
61.4536
59.6149
57.4409
55.374
54.0836
53.0905
52.2409
51.4696
50.7679
50.1722
49.7205
49.3801
49.1264
48.9533
48.8633
48.8547
48.9165
49.0416
49.2257
171.869
172.34
172.764
173.147
173.418
173.224
172.439
170.927
168.994
166.912
164.888
163.711
162.758
161.783
160.81
159.925
159.212
158.64
158.162
157.792
157.572
157.513
157.568
157.726
157.989
961.952
961.952
961.953
961.953
961.954
961.955
961.956
961.957
961.958
961.958
961.959
961.959
961.958
961.958
961.957
961.955
961.954
961.953
961.952
961.952
961.952
961.954
961.957
961.96
961.964
961.985
961.968
961.96
148.824
157.527
150.41
45.0861
51.0726
51.45
23.6886
26.0049
27.4788
18.7519
19.6465
20.4461
16.6874
17.0484
17.4287
15.4373
15.5396
15.6744
14.727
14.6497
14.6046
14.6267
14.4154
14.227
15.0667
14.7568
14.476
15.9769
15.6448
15.3229
17.1539
16.8764
16.595
19.0839
18.9236
18.7561
25.1062
25.1247
25.15
49.4431
49.696
49.9872
158.315
158.691
159.121
961.968
961.973
961.977
1243.72
923.322
923.322
923.322
923.322
923.322
923.322
923.322
923.322
923.322
923.322
923.322
923.322
923.322
923.322
923.322
923.322
923.322
923.322
923.322
923.322
923.322
923.322
923.322
923.322
923.322
923.322
923.322
923.322
923.322
923.322
923.322
923.322
923.322
923.322
923.322
923.322
923.322
923.322
923.322
923.322
923.322
923.322
923.322
923.322
923.322
923.322
923.322
923.322
923.323
923.323
923.323
923.323
923.323
923.324
923.324
923.324
923.325
923.325
923.325
923.325
923.325
923.325
923.325
923.325
923.325
923.324
923.324
923.324
923.323
923.323
923.322
923.322
923.322
923.322
923.322
923.322
923.322
923.322
1243.72
1564.12
309.307
181.131
163.059
160.058
159.462
159.316
159.278
159.272
159.269
159.268
159.27
159.272
159.272
159.271
159.269
159.267
159.265
159.265
159.266
159.269
159.275
159.282
159.293
159.306
159.322
159.342
159.366
159.394
159.427
159.464
159.504
159.532
159.488
159.279
159.576
159.81
159.888
159.437
155.559
154.428
154.289
154.383
154.544
154.732
154.936
155.147
155.36
155.568
155.769
155.955
156.107
156.212
156.263
156.247
156.15
155.96
155.665
155.256
154.733
154.098
153.365
152.55
152.114
151.72
151.351
151.038
150.864
151.127
152.99
156.006
156.479
156.765
157.162
157.763
158.896
162.466
181.002
309.427
1564.12
1564.12
272.985
105.162
68.4471
58.6973
55.8121
54.8779
54.552
54.4303
54.3809
54.3596
54.3509
54.3473
54.345
54.3432
54.3418
54.3413
54.3421
54.3448
54.3501
54.3585
54.3704
54.3861
54.4062
54.4313
54.4618
54.4985
54.5422
54.5939
54.6548
54.7267
54.8125
54.9157
55.0264
55.0836
55.2263
55.3815
55.4877
55.4347
55.0196
54.9321
55.0636
55.2844
55.5408
55.812
56.0869
56.3564
56.611
56.8407
57.0347
57.18
57.2614
57.265
57.1784
56.9896
56.6883
56.267
55.7226
55.0591
54.2899
53.4415
52.5609
51.8698
51.3159
50.8176
50.3783
50.0267
49.8102
49.8069
50.12
50.6437
51.0646
51.6407
52.5782
54.285
58.0577
68.6554
105.84
273.448
1564.12
1564.12
270.156
94.3642
49.895
35.2546
29.8208
27.6576
26.7485
26.3476
26.1625
26.0734
26.0291
26.0064
25.9943
25.988
25.9853
25.9854
25.9883
25.9944
26.0041
26.0179
26.0365
26.0602
26.0898
26.126
26.1696
26.2213
26.2821
26.3531
26.4353
26.5298
26.6378
26.7624
26.9088
27.057
27.2244
27.4005
27.5661
27.6989
27.7964
27.9606
28.1889
28.4524
28.7293
29.0052
29.2682
29.5074
29.7113
29.8681
29.9656
29.9915
29.9344
29.7843
29.5337
29.1781
28.7171
28.1553
27.504
26.7833
26.0244
25.2714
24.5857
24.0685
23.6427
23.2935
23.0303
22.8708
22.8372
22.9547
23.2469
23.7228
24.4085
25.4503
27.1448
30.1945
36.4869
51.7103
96.1849
271.286
1564.12
1564.12
269.816
92.4699
45.5187
28.5344
21.3974
18.1557
16.6111
15.8483
15.4599
15.2568
15.148
15.0888
15.0564
15.0393
15.0315
15.0304
15.0345
15.0436
15.0577
15.0773
15.1028
15.1349
15.1743
15.2218
15.2782
15.3444
15.4215
15.5103
15.6119
15.7271
15.8569
16.0033
16.1705
16.3532
16.55
16.7559
16.9651
17.1738
17.3865
17.62
17.8723
18.1315
18.3845
18.6192
18.8239
18.9875
19.0991
19.1482
19.1253
19.0225
18.8341
18.5575
18.1936
17.7477
17.2301
16.6566
16.0491
15.436
14.8527
14.3393
13.9402
13.6684
13.4912
13.4062
13.4211
13.5469
13.7972
14.1893
14.7474
15.5117
16.5615
18.066
20.3846
24.3348
31.9529
48.9867
95.406
271.603
1564.12
1564.12
269.744
92.0421
44.3127
26.3468
18.2917
14.3288
12.2745
11.174
10.5705
10.2335
10.0427
9.93381
9.87199
9.83811
9.82167
9.81699
9.82112
9.83265
9.85111
9.87653
9.90926
9.94987
9.99904
10.0576
10.1264
10.2063
10.2984
10.4034
10.5224
10.656
10.805
10.9703
11.1535
11.3526
11.5648
11.7864
12.0141
12.2455
12.4801
12.7179
12.9535
13.1776
13.3798
13.5493
13.6761
13.7507
13.7649
13.7117
13.5866
13.3875
13.1154
12.7753
12.376
11.9306
11.4564
10.9743
10.508
10.0834
9.72833
9.46901
9.33505
9.30127
9.35943
9.513
9.76989
10.1406
10.6391
11.2851
12.1085
13.1595
14.5292
16.3961
19.1317
23.566
31.7295
49.3027
96.0714
272.173
1564.12
1564.12
269.709
91.8992
43.9038
25.5314
17.0186
12.6307
10.2282
8.86561
8.07604
7.61223
7.33764
7.17489
7.07946
7.0255
6.99798
6.98825
6.99143
7.00489
7.02737
7.05845
7.09818
7.14697
7.2054
7.27419
7.35414
7.44608
7.55082
7.66913
7.80164
7.94881
8.11091
8.288
8.47985
8.68484
8.90016
9.12241
9.34804
9.57351
9.7951
10.0081
10.2056
10.3794
10.5205
10.6202
10.6708
10.6658
10.6005
10.4726
10.2825
10.0335
9.73259
9.38992
9.01914
8.63672
8.26124
7.91237
7.60889
7.36928
7.2101
7.14462
7.18167
7.30545
7.51486
7.81758
8.22394
8.74797
9.40842
10.2309
11.2522
12.5291
14.1579
16.3172
19.371
24.1287
32.5799
50.3375
97.0984
272.903
1564.12
1564.12
269.677
91.8194
43.7169
25.1657
16.4255
11.7984
9.17634
7.63066
6.69888
6.13046
5.78219
5.5695
5.44154
5.36741
5.32839
5.31316
5.31498
5.33001
5.35615
5.39243
5.43855
5.49467
5.56119
5.63866
5.72775
5.82908
5.94327
6.07079
6.21197
6.36684
6.53512
6.71613
6.90866
7.11062
7.31905
7.53029
7.74023
7.94429
8.13732
8.31336
8.46561
8.58675
8.66967
8.70803
8.69681
8.63281
8.51501
8.34496
8.12702
7.86844
7.57929
7.27212
6.96138
6.66262
6.39147
6.1625
5.98804
5.87848
5.84189
5.88359
6.00593
6.20347
6.48062
6.84754
7.31879
7.91353
8.65689
9.58212
10.7347
12.1803
14.0225
16.4429
19.7979
24.8722
33.6065
51.5389
98.2775
273.756
1564.12
1564.12
269.643
91.7528
43.5959
24.9568
16.0984
11.337
8.58105
6.91474
5.8825
5.23554
4.82904
4.57519
4.41949
4.32776
4.27852
4.25835
4.25896
4.27538
4.30474
4.34553
4.39706
4.45919
4.53211
4.61616
4.71176
4.81934
4.93922
5.07159
5.21638
5.37321
5.54131
5.71942
5.90572
6.09767
6.29201
6.48482
6.67165
6.84751
7.00697
7.14415
7.253
7.32763
7.36285
7.35462
7.30054
7.20015
7.0553
6.87025
6.65171
6.40866
6.15191
5.89358
5.64628
5.42225
5.23254
5.0863
4.99052
4.95045
4.96971
5.05105
5.19696
5.4083
5.693
6.06416
6.53996
7.14446
7.90919
8.87571
10.0998
11.6595
13.6709
16.3259
19.9829
25.4104
34.5022
52.71
99.522
274.716
1564.12
1564.12
269.604
91.6856
43.4928
24.8032
15.8787
11.0402
8.20352
6.46061
5.36131
4.65954
4.21083
3.92622
3.74935
3.64402
3.58689
3.563
3.56286
3.58059
3.61267
3.65706
3.71273
3.77925
3.85655
3.94474
4.04402
4.15456
4.27642
4.40948
4.55334
4.70726
4.87008
5.04017
5.2153
5.39267
5.56885
5.73985
5.90117
6.04797
6.17511
6.27742
6.34991
6.38818
6.38881
6.34975
6.27063
6.15294
6.0003
5.81835
5.61458
5.39796
5.17837
4.96595
4.77039
4.60025
4.4625
4.36236
4.30349
4.28855
4.31982
4.40014
4.53356
4.72391
4.98086
5.31924
5.7596
6.32959
7.0662
8.019
9.25507
10.8673
12.9902
15.8352
19.7758
25.58
35.1067
53.7179
100.746
275.741
1564.12
1564.12
269.554
91.6093
43.3889
24.6655
15.7011
10.8174
7.93277
6.14304
5.00147
4.26414
3.78738
3.48199
3.2907
3.17613
3.11377
3.0876
3.08727
3.10622
3.14038
3.18733
3.24571
3.31483
3.39438
3.48427
3.58447
3.69492
3.81546
3.9457
4.08499
4.23234
4.38635
4.54513
4.70631
4.86698
5.02373
5.17269
5.30964
5.43013
5.52966
5.60391
5.64901
5.66186
5.64047
5.58426
5.49428
5.37299
5.22486
5.05581
4.87305
4.6845
4.49836
4.32243
4.1636
4.02748
3.91822
3.83868
3.79086
3.77652
3.79791
3.85859
3.96351
4.11724
4.32953
4.61524
4.99541
5.49924
6.16716
7.05514
8.24104
9.83418
11.9921
14.9549
19.1263
25.2943
35.3053
54.4417
101.858
276.802
1564.12
1564.12
269.42
91.4923
43.2657
24.5226
15.5353
10.6264
7.71519
5.89906
4.73321
3.97514
3.48187
3.16422
2.96451
2.84471
2.77959
2.75245
2.75238
2.77234
2.80787
2.85625
2.91588
2.98583
3.06562
3.15496
3.25365
3.36146
3.47803
3.60281
3.73498
3.87339
4.01652
4.16242
4.3087
4.45252
4.59065
4.7195
4.83525
4.93402
5.01199
5.06568
5.09219
5.08941
5.05632
4.99318
4.90264
4.78657
4.64974
4.49775
4.33691
4.17384
4.01494
3.86599
3.73178
3.61593
3.52095
3.44852
3.40001
3.37701
3.38202
3.4191
3.49298
3.60772
3.77185
3.99867
4.30759
4.72672
5.29671
6.07658
7.15205
8.64782
10.7469
13.726
18.0353
24.5079
35.0088
54.7668
102.753
277.849
1564.12
1564.12
268.375
91.0888
43.0549
24.3512
15.3648
10.4473
7.52466
5.69661
4.51957
3.75189
3.25105
2.92794
2.72468
2.60291
2.53701
2.50991
2.51035
2.53098
2.56711
2.61582
2.67531
2.74451
2.82279
2.90972
3.00497
3.10819
3.21891
3.33646
3.45996
3.5882
3.71966
3.85242
3.9842
4.11235
4.23391
4.34567
4.44427
4.52638
4.58884
4.62889
4.64436
4.63388
4.59708
4.53492
4.45049
4.34397
4.22136
4.08737
3.94715
3.80598
3.66881
3.53993
3.42274
3.31972
3.23257
3.16252
3.11076
3.07895
3.06975
3.08734
3.13547
3.21721
3.33914
3.51186
3.75147
4.08226
4.54127
5.1854
6.10226
7.42643
9.36384
12.2325
16.5443
23.2072
34.1474
54.5825
103.316
278.797
1564.12
1564.12
256.045
88.5672
42.3253
24.0368
15.1552
10.2641
7.34724
5.5193
4.34104
3.5721
3.0704
2.74693
2.54378
2.42248
2.35723
2.33081
2.33179
2.3527
2.3887
2.43674
2.49493
2.56208
2.63747
2.72059
2.81102
2.90835
3.01204
3.1214
3.23552
3.35325
3.47311
3.59333
3.7118
3.82614
3.93369
4.03165
4.11711
4.18727
4.23951
4.27162
4.28198
4.26968
4.23472
4.17833
4.10231
4.00883
3.90188
3.78557
3.66418
3.54192
3.42269
3.30981
3.20588
3.11281
3.03197
2.96448
2.91158
2.87498
2.85736
2.86282
2.89383
2.9525
3.04341
3.17412
3.35651
3.60932
3.96265
4.46569
5.19962
6.2983
7.97999
10.5988
14.7385
21.4133
32.6658
53.7712
103.412
279.563
1564.12
1564.12
268.655
90.6699
42.5598
23.9244
14.9872
10.0939
7.18282
5.36111
4.18836
3.42414
2.92643
2.60627
2.40583
2.28664
2.22297
2.19757
2.19903
2.21981
2.25505
2.30166
2.35766
2.42184
2.49339
2.57178
2.65655
2.74724
2.84333
2.94415
3.04882
3.15625
3.26511
3.37381
3.48046
3.58296
3.67901
3.76616
3.84194
3.90398
3.95011
3.97854
3.98799
3.97785
3.94824
3.90016
3.83525
3.75558
3.66436
3.56496
3.46087
3.35547
3.25195
3.1532
3.06135
2.97805
2.90458
2.8421
2.79191
2.75575
2.73623
2.73724
2.7601
2.80623
2.87854
2.9819
3.12421
3.31834
3.58596
3.96471
4.52148
5.37636
6.74068
8.98287
12.7528
19.1978
30.5281
52.1922
102.85
280.009
1564.13
1564.12
260.041
89.2451
42.1578
23.6965
14.8004
9.92587
7.02916
5.21995
4.05806
3.30302
2.81276
2.49846
2.30243
2.18643
2.12488
2.10069
2.10251
2.12289
2.15698
2.20167
2.25499
2.31566
2.38288
2.4561
2.53485
2.61865
2.70701
2.79942
2.89492
2.9926
3.09125
3.1895
3.28573
3.37813
3.46471
3.5434
3.6121
3.66879
3.71167
3.73924
3.75045
3.74481
3.72244
3.68412
3.63117
3.56542
3.48957
3.40634
3.31853
3.22876
3.13953
3.05457
2.97533
2.90323
2.83954
2.78547
2.74238
2.71207
2.697
2.70037
2.72285
2.76548
2.83007
2.91953
3.03863
3.19541
3.40382
3.68925
4.10006
4.73338
5.77239
7.55761
10.7686
16.6932
27.7476
49.708
101.4
279.956
1564.13
1564.12
258.703
88.7018
41.8573
23.4771
14.6166
9.76588
6.88928
5.09784
3.95124
3.20879
2.72849
2.42176
2.23126
2.1191
2.06003
2.03719
2.03941
2.05932
2.09215
2.13483
2.18537
2.24247
2.30531
2.3733
2.44618
2.52331
2.60432
2.68865
2.77555
2.86413
2.95336
3.04208
3.12895
3.21247
3.29098
3.36274
3.42597
3.47899
3.52025
3.54849
3.56278
3.56267
3.54821
3.51996
3.47885
3.42612
3.36492
3.2973
3.22547
3.15169
3.07834
3.00792
2.94227
2.8829
2.83112
2.78821
2.75554
2.735
2.72922
2.74013
2.76841
2.81476
2.88022
2.96644
3.07621
3.21444
3.38997
3.61934
3.9349
4.40232
5.15696
6.48508
9.01355
14.1401
24.4433
46.2453
98.7337
279.095
1564.13
1564.12
258.403
88.4483
41.6302
23.2761
14.4427
9.6194
6.76888
5.00062
3.87345
3.14651
2.67809
2.38012
2.19589
2.08804
2.03177
2.01055
2.01337
2.03302
2.06485
2.10581
2.15399
2.20795
2.26688
2.3302
2.39753
2.46851
2.54278
2.61988
2.69912
2.77952
2.86006
2.9399
3.01806
3.09336
3.16448
3.22999
3.28843
3.33838
3.37857
3.40784
3.42535
3.43064
3.42357
3.40485
3.37543
3.33661
3.29033
3.23838
3.18246
3.1243
3.06632
3.01098
2.96017
2.91543
2.87807
2.84927
2.82999
2.82218
2.82942
2.8525
2.89184
2.94769
3.02043
3.11078
3.21998
3.35089
3.50934
3.70583
3.96143
4.3213
4.88522
5.87958
7.82584
11.9238
20.92
41.8057
94.4595
276.953
1564.13
1564.12
258.215
88.2219
41.4031
23.0738
14.2769
9.49225
6.67738
4.93933
3.83628
3.12772
2.67281
2.38452
2.20706
2.10389
2.05077
2.03163
2.03552
2.05518
2.08651
2.12653
2.17312
2.22483
2.28071
2.34018
2.40288
2.46853
2.53702
2.60825
2.6818
2.75572
2.82828
2.89965
2.96935
3.03654
3.10028
3.15948
3.21294
3.2595
3.29831
3.32798
3.34777
3.35762
3.35765
3.34836
3.33056
3.30533
3.27404
3.23797
3.19792
3.15351
3.10925
3.06914
3.03475
3.00714
2.9874
2.9768
2.97682
2.98977
3.01679
3.05706
3.11078
3.17811
3.25942
3.3554
3.46742
3.59758
3.7484
3.9262
4.1441
4.43203
4.8607
5.60195
7.08202
10.3668
18.1162
37.1631
88.4129
272.829
1564.14
1564.12
257.991
87.9299
41.1271
22.8517
14.1192
9.39538
6.63174
4.93388
3.86078
3.17372
2.73379
2.45575
2.28529
2.18692
2.13678
2.12037
2.12714
2.14973
2.18346
2.2252
2.27279
2.32476
2.38008
2.43808
2.49829
2.56035
2.62396
2.68875
2.75421
2.81947
2.88375
2.94673
3.00799
3.06684
3.12272
3.17515
3.22292
3.26479
3.30035
3.32896
3.3502
3.36397
3.37043
3.37002
3.36343
3.35156
3.33547
3.31626
3.29493
3.27245
3.25089
3.23251
3.21909
3.2121
3.21302
3.22345
3.2453
3.28101
3.32708
3.38357
3.45054
3.5281
3.61658
3.71681
3.83041
3.9599
4.10734
4.2744
4.46803
4.707
5.03872
5.58649
6.681
9.22776
15.7213
33.0915
82.898
265.426
1564.14
1564.12
257.626
87.4577
40.7279
22.5792
13.9712
9.34949
6.66258
5.01929
3.98358
3.3212
2.89716
2.6291
2.4648
2.37107
2.32613
2.31437
2.32539
2.35211
2.38979
2.43521
2.48612
2.54096
2.5986
2.65825
2.71931
2.78133
2.84382
2.90628
2.96829
3.02936
3.08908
3.14727
3.20363
3.25691
3.30702
3.35367
3.39631
3.43439
3.46757
3.49556
3.51821
3.53557
3.54787
3.55553
3.55915
3.55951
3.5575
3.55408
3.55024
3.54708
3.54597
3.54846
3.55603
3.57026
3.59298
3.62632
3.67183
3.72481
3.78539
3.85362
3.92958
4.01342
4.10559
4.20713
4.32
4.44742
4.59211
4.7515
4.92757
5.13159
5.39369
5.79644
6.5779
8.45231
13.6133
28.8641
76.6653
259.542
1564.14
1564.12
256.543
86.316
39.9432
22.1587
13.8257
9.39074
6.82437
5.25637
4.26637
3.63064
3.22156
2.96037
2.80234
2.71366
2.67256
2.66431
2.67891
2.70952
2.75147
2.80143
2.85704
2.91658
2.97876
3.04269
3.1077
3.17335
3.23886
3.30333
3.36648
3.42796
3.48741
3.54452
3.59895
3.65025
3.69817
3.74251
3.78306
3.81965
3.8522
3.88068
3.90518
3.92595
3.94333
3.9578
3.96997
3.98059
3.99047
4.00045
4.01141
4.02434
4.04045
4.06123
4.08784
4.12215
4.16706
4.21955
4.27658
4.33857
4.40581
4.47845
4.5567
4.64073
4.73148
4.83055
4.94056
5.06538
5.20619
5.35536
5.51378
5.68882
5.89906
6.19548
6.73295
8.01881
11.7964
24.2493
68.2601
249.944
1564.13
1564.12
248.285
81.4689
37.6774
21.2756
13.653
9.58747
7.21404
5.7463
4.80805
4.1942
3.79683
3.54269
3.38588
3.29602
3.25298
3.24319
3.25716
3.28827
3.33187
3.38449
3.44356
3.50713
3.57388
3.64274
3.71278
3.78319
3.85319
3.92207
3.98932
4.05451
4.11719
4.17696
4.23346
4.28638
4.33551
4.38073
4.42198
4.45928
4.49281
4.5228
4.54957
4.57348
4.59501
4.61473
4.63333
4.65174
4.67079
4.69119
4.71362
4.73893
4.76876
4.80615
4.84993
4.89851
4.94903
5.00257
5.05944
5.11991
5.18423
5.25264
5.32554
5.4036
5.48818
5.58199
5.68887
5.8102
5.93692
6.06608
6.20014
6.34442
6.51044
6.72707
7.08051
7.8686
10.2345
18.8979
54.7903
226.785
1564.14
306.513
115.467
54.8028
30.6514
19.3981
13.4958
10.0945
7.99259
6.63183
5.74486
5.15559
4.76083
4.49803
4.32724
4.22173
4.16361
4.14047
4.14342
4.16601
4.20347
4.25156
4.30777
4.37018
4.4373
4.50774
4.5802
4.65353
4.72675
4.79907
4.86993
4.93895
5.00541
5.06869
5.12833
5.18397
5.23538
5.28247
5.32532
5.3641
5.39907
5.43062
5.45919
5.48527
5.50941
5.53226
5.55472
5.57878
5.60527
5.63422
5.66583
5.70021
5.73675
5.7733
5.81123
5.85115
5.89314
5.93742
5.98418
6.03373
6.08649
6.14316
6.20471
6.27291
6.3508
6.44139
6.53659
6.63204
6.72722
6.82311
6.9219
7.02743
7.14684
7.29513
7.51026
7.9094
8.91515
12.1958
24.6795
77.1259
304.195
95.2435
57.7221
36.8237
24.9533
18.157
13.9876
11.2624
9.42105
8.17102
7.30471
6.69561
6.26416
5.9586
5.74467
5.59863
5.50385
5.44845
5.42348
5.42169
5.43804
5.4685
5.51021
5.56102
5.61931
5.68321
5.75079
5.82039
5.89068
5.96069
6.03012
6.0994
6.1669
6.23154
6.29249
6.34913
6.40112
6.44842
6.49119
6.52971
6.56431
6.59546
6.62368
6.64959
6.67383
6.69707
6.71983
6.74159
6.76258
6.78343
6.8043
6.82546
6.84712
6.86929
6.89219
6.9161
6.94129
6.96809
6.99702
7.02897
7.06545
7.1083
7.15574
7.2064
7.25946
7.31414
7.36842
7.42157
7.47396
7.52648
7.58071
7.63929
7.70652
7.78977
7.90346
8.08232
8.43061
9.30834
12.0269
21.3696
54.2393
44.3053
35.8265
28.4898
22.8351
18.6942
15.6166
13.3438
11.6924
10.48
9.57946
8.90436
8.39551
8.01137
7.72228
7.50656
7.34811
7.2349
7.15781
7.10993
7.08594
7.08175
7.09345
7.11849
7.15711
7.20541
7.25968
7.31729
7.37644
7.43589
7.49463
7.55148
7.60712
7.66087
7.71126