/*--------------------------------*- C++ -*----------------------------------*\
| =========                 |                                                 |
| \\      /  F ield         | OpenFOAM: The Open Source CFD Toolbox           |
|  \\    /   O peration     | Version:  v2012                                 |
|   \\  /    A nd           | Website:  www.openfoam.com                      |
|    \\/     M anipulation  |                                                 |
\*---------------------------------------------------------------------------*/
FoamFile
{
    version     2.0;
    format      ascii;
    class       volScalarField;
    location    "2000";
    object      p;
}
// * * * * * * * * * * * * * * * * * * * * * * * * * * * * * * * * * * * * * //

dimensions      [0 2 -2 0 0 0 0];


internalField   nonuniform List<scalar> 
6502
(
1.56563
1.44003
1.37568
1.34807
1.33611
1.33596
1.34763
1.37497
1.43909
1.5645
1.40531
1.36695
1.34945
1.33392
1.32439
1.32422
1.33343
1.34863
1.36588
1.40411
1.30846
1.30262
1.30071
1.29628
1.29208
1.29188
1.2957
1.29977
1.30134
1.30699
1.2525
1.25326
1.25433
1.254
1.25246
1.25221
1.25327
1.25316
1.25169
1.25065
1.20257
1.2062
1.2113
1.21406
1.21391
1.21358
1.2131
1.20977
1.20409
1.20017
1.15754
1.16404
1.17287
1.1767
1.17722
1.17676
1.17535
1.17068
1.16118
1.1544
1.12237
1.12956
1.13932
1.14228
1.14281
1.1422
1.14047
1.13642
1.12575
1.11823
1.09439
1.10038
1.10784
1.11045
1.11104
1.11024
1.10809
1.10411
1.09534
1.08891
1.07015
1.07442
1.07935
1.08137
1.08184
1.08082
1.07832
1.07419
1.06773
1.06297
1.04817
1.05104
1.05447
1.05595
1.05545
1.05387
1.05126
1.04734
1.04217
1.03877
1.02796
1.02983
1.03217
1.03334
1.03164
1.02948
1.02706
1.02281
1.01816
1.01566
1.00914
1.0103
1.01138
1.01158
1.00928
1.00668
1.00413
0.999224
0.994958
0.993063
0.991488
0.992187
0.992032
0.990808
0.987902
0.984453
0.980965
0.97585
0.972017
0.970478
0.974939
0.9753
0.974301
0.971765
0.967613
0.962961
0.958227
0.95275
0.948987
0.947553
0.959627
0.959772
0.958036
0.954321
0.948609
0.942449
0.936211
0.929776
0.925495
0.923979
0.945735
0.945769
0.943315
0.938366
0.931344
0.923052
0.914697
0.90654
0.901131
0.899321
0.933451
0.933417
0.930339
0.92387
0.915231
0.904511
0.893466
0.882692
0.875381
0.872975
0.922991
0.922932
0.91929
0.911095
0.900093
0.886866
0.872627
0.858113
0.847626
0.843949
0.914585
0.914567
0.910487
0.900733
0.887256
0.871105
0.853122
0.833479
0.817445
0.811172
0.90846
0.908573
0.904287
0.893396
0.877858
0.858967
0.836857
0.811026
0.785213
0.771052
0.904786
0.905093
0.900899
0.889434
0.872475
0.851526
0.826806
0.797791
0.766234
0.743701
0.90375
0.904198
0.900436
0.889077
0.871769
0.85031
0.826387
0.80118
0.778824
0.766874
0.905262
0.905921
0.902832
0.892124
0.875353
0.854553
0.832129
0.809836
0.791721
0.781495
0.909013
0.910048
0.90766
0.897709
0.881443
0.860878
0.838418
0.815876
0.796545
0.78438
0.914731
0.916135
0.914389
0.905142
0.889171
0.868388
0.84477
0.82169
0.801009
0.787371
0.922093
0.9238
0.922659
0.914173
0.898529
0.877544
0.853155
0.829757
0.807853
0.792487
0.930743
0.932692
0.932149
0.924552
0.909372
0.888225
0.863893
0.839677
0.815878
0.798198
0.940321
0.942452
0.942494
0.935953
0.92169
0.900961
0.876189
0.850692
0.824742
0.804489
0.950475
0.952727
0.953321
0.947965
0.934987
0.915078
0.889531
0.862158
0.834995
0.812142
0.960874
0.963183
0.964246
0.960083
0.948482
0.92939
0.90386
0.874724
0.846945
0.821435
0.97122
0.973524
0.974956
0.971969
0.961991
0.944176
0.919494
0.890015
0.86109
0.832459
0.981247
0.98351
0.985207
0.983346
0.975238
0.95928
0.93597
0.907008
0.876282
0.845669
0.990694
0.992955
0.994796
0.993921
0.987749
0.974058
0.952529
0.924471
0.892465
0.861177
0.999426
1.00169
1.00355
1.00348
0.999158
0.988011
0.968888
0.942607
0.911087
0.87894
1.00753
1.0096
1.01139
1.01193
1.00927
1.00077
0.98462
0.960884
0.930848
0.897586
1.01504
1.01667
1.01831
1.01928
1.01799
1.012
0.999101
0.978507
0.950904
0.918046
1.02177
1.02299
1.02439
1.0256
1.02532
1.02151
1.01189
0.994991
0.970844
0.940581
1.02735
1.02845
1.02973
1.03098
1.03134
1.02927
1.02267
1.00966
0.989483
0.962588
1.03215
1.03306
1.03422
1.03539
1.03614
1.03536
1.03129
1.022
1.00611
0.983314
1.03654
1.037
1.03794
1.03901
1.03995
1.04002
1.0379
1.03185
1.02024
1.00211
1.04015
1.04042
1.04116
1.04209
1.04304
1.04358
1.04279
1.0393
1.03151
1.01811
1.04301
1.04332
1.04393
1.04469
1.04556
1.04629
1.04631
1.04463
1.03993
1.03079
1.04557
1.04577
1.0462
1.04683
1.04759
1.04836
1.04881
1.04828
1.04581
1.04017
1.04777
1.04781
1.04805
1.04859
1.04925
1.04996
1.05056
1.05065
1.0496
1.04649
1.04945
1.04945
1.04964
1.05009
1.05062
1.05123
1.05181
1.05217
1.05191
1.05043
1.05083
1.05085
1.051
1.05132
1.05174
1.05223
1.05273
1.05315
1.05327
1.05271
1.05204
1.05206
1.05213
1.05233
1.05265
1.05301
1.0534
1.05376
1.05399
1.0539
1.05307
1.05307
1.05309
1.05321
1.05342
1.05364
1.05388
1.05413
1.05434
1.05441
1.05401
1.05399
1.05397
1.05401
1.05408
1.05417
1.05426
1.05438
1.05449
1.05457
1.05492
1.05487
1.05482
1.05477
1.05472
1.05468
1.05462
1.05459
1.05458
1.05459
1.05579
1.05571
1.05562
1.05551
1.05538
1.05523
1.05506
1.05489
1.05474
1.05464
1.05665
1.05653
1.0564
1.05625
1.05607
1.05587
1.05562
1.05533
1.05507
1.05486
1.05745
1.0573
1.05714
1.05697
1.05677
1.05654
1.05629
1.05596
1.05561
1.05533
1.05817
1.05799
1.0578
1.05765
1.05747
1.05725
1.057
1.05672
1.05638
1.05608
1.05872
1.05853
1.05834
1.05821
1.05808
1.05792
1.05773
1.05751
1.05726
1.05704
1.05908
1.05888
1.05871
1.05861
1.05853
1.05844
1.05834
1.05823
1.05811
1.05802
1.05921
1.05904
1.05889
1.05881
1.05877
1.05874
1.05873
1.05873
1.05876
1.05883
1.05916
1.05901
1.05888
1.05882
1.05879
1.05879
1.05883
1.05891
1.05905
1.05928
1.05899
1.05886
1.05874
1.05865
1.05859
1.05858
1.05862
1.05871
1.05888
1.05916
1.05879
1.05867
1.05855
1.05843
1.05834
1.05828
1.05828
1.05834
1.05849
1.05875
0.732772
0.753383
0.766312
0.772309
0.775731
0.777769
0.779193
0.780252
0.781035
0.781619
0.782055
0.782372
0.782588
0.78271
0.782744
0.782706
0.782616
0.782484
0.78231
0.782114
0.781921
0.78175
0.781631
0.781579
0.781579
0.764594
0.768263
0.771056
0.773635
0.775993
0.777834
0.77913
0.780084
0.780813
0.781376
0.781806
0.782126
0.782348
0.782483
0.782537
0.782519
0.782435
0.782304
0.782148
0.781983
0.781824
0.781693
0.781599
0.781549
0.781545
0.777466
0.775923
0.775528
0.776265
0.777306
0.778394
0.779359
0.780127
0.780738
0.781229
0.781622
0.781924
0.782141
0.782278
0.78234
0.782331
0.782262
0.782147
0.782007
0.781855
0.781708
0.781578
0.78148
0.781422
0.781412
0.779896
0.77878
0.778306
0.778419
0.778837
0.779358
0.779911
0.780424
0.78087
0.78124
0.781554
0.781809
0.782005
0.782136
0.7822
0.782197
0.782134
0.782022
0.781877
0.781716
0.781555
0.78141
0.781292
0.781214
0.781186
0.782243
0.780878
0.780274
0.780074
0.780154
0.780356
0.780591
0.780819
0.781043
0.781278
0.781495
0.781682
0.781843
0.781964
0.782032
0.782041
0.781988
0.781881
0.781731
0.781555
0.781371
0.781197
0.781046
0.780935
0.780858
0.785541
0.782953
0.781909
0.781445
0.781296
0.781262
0.781248
0.78124
0.781256
0.781306
0.781385
0.781486
0.781599
0.781704
0.781782
0.781814
0.781787
0.781698
0.781552
0.781363
0.781151
0.780937
0.780739
0.780573
0.780435
0.7889
0.784867
0.783267
0.782587
0.782249
0.782022
0.781806
0.781585
0.781386
0.78124
0.781159
0.781145
0.78119
0.781273
0.781368
0.781442
0.781468
0.781425
0.781307
0.78112
0.780883
0.780622
0.780366
0.780124
0.779908
0.792583
0.786845
0.784442
0.783468
0.782941
0.782546
0.782148
0.781727
0.781316
0.780958
0.780688
0.780528
0.780482
0.780534
0.780655
0.7808
0.780923
0.780979
0.780937
0.780789
0.780546
0.780241
0.779915
0.779581
0.779261
0.797227
0.789266
0.785604
0.784073
0.7833
0.782722
0.782148
0.781527
0.78089
0.780297
0.779806
0.77946
0.779286
0.779289
0.779443
0.779695
0.779975
0.780212
0.780334
0.780297
0.780098
0.779772
0.779371
0.778923
0.778508
0.803201
0.792472
0.786976
0.784487
0.783288
0.782461
0.78168
0.780844
0.779961
0.779097
0.778334
0.777746
0.77739
0.777299
0.777477
0.77787
0.778378
0.778906
0.779323
0.779526
0.779469
0.779176
0.778714
0.778136
0.77761
0.810799
0.796854
0.788884
0.784907
0.782951
0.781737
0.780677
0.779581
0.778418
0.777242
0.776148
0.775248
0.774633
0.774373
0.774531
0.775079
0.775874
0.776801
0.777677
0.778301
0.778549
0.778403
0.777928
0.777213
0.77654
0.820644
0.802978
0.791831
0.785695
0.782503
0.780631
0.779168
0.77774
0.776248
0.774715
0.773238
0.771953
0.771001
0.770494
0.770505
0.771138
0.772264
0.773658
0.775151
0.776409
0.777194
0.777382
0.776998
0.776165
0.775329
0.832932
0.811334
0.796453
0.78742
0.782355
0.779402
0.777316
0.77545
0.773567
0.771636
0.769736
0.768013
0.766646
0.765798
0.765601
0.766177
0.767458
0.76932
0.771553
0.773661
0.775254
0.77604
0.775925
0.775035
0.774045
0.847883
0.822499
0.803509
0.790846
0.783143
0.778529
0.775459
0.772982
0.770635
0.768278
0.765942
0.763766
0.761941
0.760674
0.760151
0.76057
0.761979
0.764179
0.766992
0.770054
0.772684
0.774355
0.774752
0.773925
0.772815
0.86552
0.836985
0.813749
0.796877
0.785743
0.778734
0.774159
0.770768
0.767834
0.76503
0.762294
0.759715
0.75748
0.755823
0.754952
0.75507
0.756318
0.758721
0.762074
0.765936
0.769654
0.772444
0.773626
0.773035
0.771852
0.885669
0.854891
0.827731
0.806421
0.791195
0.780976
0.774205
0.76944
0.76567
0.762335
0.759221
0.756328
0.75379
0.751818
0.750655
0.750492
0.751534
0.753878
0.757451
0.761911
0.766604
0.770637
0.772868
0.772699
0.771487
0.908033
0.87628
0.845755
0.820213
0.800562
0.786395
0.776615
0.769828
0.764807
0.760731
0.757175
0.754003
0.751267
0.749129
0.747796
0.747452
0.748295
0.75051
0.754115
0.758906
0.764339
0.769476
0.772903
0.773333
0.772208
0.931535
0.899497
0.867627
0.838795
0.814773
0.796172
0.782602
0.772991
0.766092
0.760875
0.756678
0.753171
0.750271
0.74805
0.746674
0.746341
0.747151
0.749289
0.752882
0.757848
0.763771
0.769708
0.774173
0.775457
0.774623
0.955374
0.924392
0.892788
0.861929
0.834259
0.8113
0.793429
0.780192
0.770619
0.763636
0.758381
0.754314
0.751175
0.748905
0.747574
0.74733
0.748322
0.750643
0.754409
0.759608
0.765985
0.772588
0.777867
0.780181
0.779631
0.978408
0.950576
0.920043
0.888863
0.858797
0.832169
0.810077
0.792728
0.779709
0.770171
0.763213
0.758131
0.754482
0.752048
0.750778
0.750731
0.75203
0.754742
0.758974
0.764713
0.771689
0.779213
0.785952
0.788748
0.788257
0.999101
0.975322
0.947044
0.917642
0.888389
0.858805
0.832733
0.81142
0.794633
0.78184
0.772402
0.765643
0.760995
0.758083
0.756722
0.756866
0.75857
0.761917
0.766903
0.773496
0.781339
0.78975
0.797324
0.800496
0.800231
1.01662
0.99764
0.97384
0.945377
0.918322
0.891026
0.861543
0.836539
0.816239
0.799931
0.787355
0.77816
0.771841
0.76793
0.766121
0.766269
0.768354
0.772436
0.778529
0.786505
0.795917
0.805519
0.813122
0.815818
0.812268
1.03046
1.01644
0.997977
0.975094
0.948577
0.92143
0.893929
0.86754
0.844456
0.824987
0.80916
0.797015
0.788349
0.782768
0.779933
0.779642
0.781812
0.786471
0.793697
0.803441
0.815398
0.82846
0.839836
0.843024
0.833594
1.04041
1.03083
1.01724
0.999623
0.977827
0.953049
0.927459
0.902066
0.878308
0.856525
0.837607
0.822534
0.811284
0.803477
0.798929
0.79752
0.799137
0.803766
0.811494
0.822417
0.836487
0.853398
0.871808
0.888307
0.90696
1.04696
1.04094
1.03172
1.01892
1.00245
0.982615
0.960321
0.935893
0.914055
0.893605
0.872193
0.854407
0.840661
0.830403
0.823655
0.820434
0.820648
0.824242
0.831229
0.841636
0.855417
0.872283
0.891609
0.912156
0.933658
1.05095
1.04753
1.04185
1.03337
1.02181
1.00717
0.989936
0.970683
0.949758
0.927995
0.908385
0.891693
0.876352
0.863484
0.854355
0.848905
0.847016
0.848633
0.853725
0.862236
0.874008
0.888691
0.905657
0.923835
0.94155
1.05314
1.0514
1.04826
1.0432
1.03581
1.02587
1.01343
0.998823
0.982088
0.964331
0.945559
0.929183
0.915002
0.901292
0.890514
0.882728
0.878373
0.877362
0.879715
0.885347
0.893949
0.905078
0.918076
0.931948
0.945336
1.05416
1.05341
1.05188
1.0492
1.04499
1.03894
1.03087
1.02081
1.0089
0.995775
0.981574
0.96712
0.952146
0.939156
0.928898
0.920352
0.914452
0.910718
0.909951
0.912171
0.917002
0.924103
0.932903
0.942548
0.952078
1.05453
1.05427
1.05366
1.05247
1.05043
1.04728
1.04277
1.03678
1.02927
1.0204
1.01041
0.999662
0.988532
0.977958
0.967023
0.957674
0.951092
0.946073
0.943754
0.943395
0.944591
0.947674
0.952335
0.957867
0.963654
1.05459
1.05455
1.05441
1.05405
1.05334
1.0521
1.05012
1.04725
1.04335
1.03837
1.03235
1.02549
1.01801
1.01037
1.00259
0.995385
0.989044
0.982808
0.977762
0.975005
0.974339
0.975317
0.977054
0.978903
0.981102
1.0546
1.05461
1.05467
1.05475
1.05478
1.05467
1.05432
1.05358
1.05234
1.05047
1.0479
1.04461
1.04064
1.03614
1.03128
1.02619
1.02156
1.01752
1.01373
1.00991
1.00614
1.00374
1.00297
1.00279
1.00317
1.05474
1.05473
1.05486
1.05512
1.05553
1.05606
1.05665
1.05726
1.05777
1.0581
1.05811
1.05772
1.05684
1.05544
1.05354
1.05115
1.04851
1.04565
1.04277
1.04027
1.0378
1.03534
1.03278
1.02976
1.02713
1.05515
1.05509
1.05521
1.05554
1.05612
1.05697
1.0581
1.05948
1.06107
1.0628
1.06456
1.06624
1.06772
1.06886
1.06959
1.06982
1.06952
1.06868
1.06738
1.06576
1.0637
1.06134
1.05902
1.05649
1.0537
1.05587
1.05579
1.05589
1.05624
1.05688
1.05789
1.05928
1.06109
1.0633
1.06586
1.0687
1.07171
1.07477
1.07773
1.08043
1.08274
1.08454
1.08572
1.08624
1.08607
1.0852
1.0837
1.08169
1.07911
1.07597
1.05688
1.05682
1.05694
1.05731
1.058
1.05909
1.06062
1.06264
1.06517
1.06818
1.07163
1.07543
1.07946
1.08356
1.08758
1.09134
1.09469
1.09745
1.09952
1.10079
1.10122
1.1008
1.09955
1.0975
1.09471
1.058
1.05805
1.05828
1.05875
1.05951
1.06065
1.06227
1.06443
1.06714
1.07039
1.07415
1.07836
1.08292
1.08768
1.09247
1.09713
1.10147
1.10531
1.10846
1.1108
1.11226
1.11276
1.11231
1.11093
1.10865
1.05898
1.05922
1.05964
1.06028
1.06119
1.06247
1.06423
1.06652
1.06937
1.07274
1.07663
1.08103
1.08584
1.09091
1.09608
1.10121
1.10611
1.11057
1.11437
1.11738
1.11951
1.12068
1.12082
1.11995
1.11811
1.0596
1.06006
1.06068
1.06153
1.06272
1.06431
1.06632
1.06867
1.07144
1.07475
1.07876
1.08338
1.08837
1.09356
1.09885
1.10414
1.10929
1.11405
1.11814
1.12146
1.12394
1.12548
1.12596
1.12539
1.12382
1.05957
1.06014
1.06091
1.06192
1.06327
1.06505
1.06723
1.06982
1.0729
1.07653
1.08072
1.08543
1.0905
1.09575
1.10105
1.10634
1.11154
1.11639
1.12059
1.12401
1.12667
1.12841
1.129
1.12851
1.12704
1.05916
1.05973
1.06052
1.06157
1.06294
1.06477
1.06714
1.07008
1.07356
1.0775
1.08172
1.08625
1.09126
1.09684
1.10279
1.10857
1.11369
1.11825
1.12239
1.12589
1.12837
1.12978
1.13035
1.13001
1.12863
0.943319
0.955453
0.961727
0.951516
0.960564
0.966529
0.954816
0.962906
0.968483
0.955996
0.963435
0.96882
0.959996
0.965907
0.970425
0.968725
0.972732
0.975922
0.983344
0.985191
0.986626
1.00378
1.0038
1.00327
1.02546
1.0241
1.02258
1.05106
1.04825
1.04498
1.07278
1.06965
1.06623
1.09161
1.08833
1.08464
1.10583
1.10265
1.09897
1.11558
1.11258
1.10902
1.1215
1.11865
1.11519
1.1248
1.122
1.11858
1.1264
1.12361
1.12019
0.981763
0.981763
0.981762
0.981757
0.981748
0.981737
0.981723
0.981708
0.981691
0.981673
0.981655
0.981635
0.981613
0.981589
0.981565
0.981539
0.981511
0.981482
0.98145
0.981415
0.981376
0.981335
0.981289
0.98124
0.981187
0.98113
0.981067
0.981
0.980927
0.980849
0.980764
0.980672
0.980569
0.980453
0.980357
0.980255
0.980119
0.97998
0.979838
0.97969
0.979535
0.979377
0.979216
0.979055
0.978898
0.978749
0.978613
0.978497
0.978407
0.97835
0.978336
0.978382
0.978501
0.978705
0.979007
0.979418
0.979951
0.980614
0.981413
0.982347
0.983415
0.984614
0.985921
0.987292
0.988691
0.990088
0.99144
0.992694
0.993801
0.994722
0.995429
0.995911
0.996172
0.996231
0.996134
0.995987
0.995803
0.995576
0.995396
0.995319
0.981763
0.981763
0.981762
0.981756
0.981748
0.981737
0.981725
0.981711
0.981696
0.981679
0.981661
0.981641
0.98162
0.981598
0.981575
0.981549
0.981521
0.981492
0.98146
0.981425
0.981388
0.981347
0.981304
0.981257
0.981206
0.981151
0.981092
0.981029
0.980961
0.980888
0.98081
0.980726
0.980634
0.980535
0.980434
0.980328
0.980212
0.980089
0.979961
0.979828
0.979689
0.979546
0.979401
0.979256
0.979114
0.978978
0.978854
0.978747
0.978665
0.978616
0.978611
0.978658
0.978768
0.978955
0.97923
0.979608
0.980098
0.98071
0.981452
0.982325
0.983328
0.984455
0.985687
0.986996
0.988348
0.989705
0.991023
0.992254
0.993352
0.994275
0.994995
0.9955
0.995796
0.995906
0.995868
0.995733
0.995549
0.995365
0.995221
0.995139
0.981768
0.981769
0.981767
0.981761
0.981753
0.981743
0.981731
0.981717
0.981702
0.981686
0.981668
0.981649
0.981629
0.981607
0.981584
0.981559
0.981532
0.981503
0.981472
0.981438
0.981402
0.981363
0.981321
0.981277
0.981228
0.981177
0.981122
0.981063
0.980999
0.980932
0.98086
0.980783
0.9807
0.980613
0.980521
0.980424
0.980321
0.980212
0.980098
0.979978
0.979854
0.979725
0.979594
0.979461
0.979329
0.979201
0.979081
0.978973
0.978883
0.97882
0.978791
0.978807
0.978879
0.979018
0.979239
0.979553
0.979974
0.980513
0.981179
0.981978
0.982909
0.983968
0.985141
0.986404
0.987725
0.989069
0.990391
0.991643
0.992775
0.993743
0.994515
0.995073
0.995418
0.995573
0.995572
0.995464
0.995301
0.995124
0.994961
0.994818
0.981781
0.98178
0.981776
0.98177
0.981761
0.981751
0.981739
0.981726
0.981711
0.981695
0.981678
0.981659
0.981639
0.981618
0.981596
0.981572
0.981545
0.981517
0.981487
0.981455
0.98142
0.981383
0.981344
0.981301
0.981256
0.981208
0.981156
0.981101
0.981043
0.98098
0.980914
0.980844
0.980769
0.98069
0.980606
0.980517
0.980423
0.980323
0.980217
0.980105
0.979986
0.979861
0.97973
0.979593
0.979452
0.979309
0.979166
0.979028
0.9789
0.978787
0.9787
0.978649
0.978645
0.978702
0.978835
0.979058
0.979387
0.979834
0.980414
0.981134
0.981997
0.982999
0.98413
0.985373
0.986698
0.988071
0.989445
0.990773
0.991999
0.993075
0.993959
0.994622
0.995058
0.99528
0.995322
0.995231
0.995061
0.994855
0.994635
0.994423
0.9818
0.981797
0.98179
0.981782
0.981773
0.981761
0.981749
0.981736
0.981721
0.981706
0.981689
0.981671
0.981652
0.981632
0.98161
0.981587
0.981562
0.981535
0.981506
0.981476
0.981443
0.981408
0.981371
0.981331
0.981289
0.981244
0.981196
0.981146
0.981092
0.981036
0.980976
0.980912
0.980844
0.980772
0.980695
0.980612
0.980524
0.980428
0.980325
0.980213
0.98009
0.979957
0.979811
0.979654
0.979483
0.979301
0.97911
0.978912
0.978712
0.978519
0.978341
0.978189
0.978078
0.978024
0.978042
0.978152
0.978364
0.978695
0.979172
0.979807
0.980588
0.981517
0.982594
0.983811
0.985142
0.986551
0.987998
0.989431
0.990796
0.992035
0.993095
0.993933
0.994526
0.994874
0.995
0.99495
0.994779
0.994541
0.994257
0.993982
0.981826
0.981818
0.981808
0.981798
0.981786
0.981774
0.981761
0.981748
0.981733
0.981718
0.981702
0.981685
0.981667
0.981647
0.981627
0.981605
0.981581
0.981556
0.981529
0.9815
0.981469
0.981436
0.981402
0.981365
0.981326
0.981285
0.981242
0.981196
0.981148
0.981097
0.981042
0.980984
0.980922
0.980855
0.980783
0.980704
0.980617
0.980521
0.980413
0.980291
0.980154
0.979998
0.979822
0.979624
0.979402
0.979157
0.97889
0.978605
0.978307
0.978005
0.97771
0.977434
0.977195
0.977012
0.976901
0.976878
0.976956
0.977157
0.977523
0.978049
0.97873
0.979581
0.980584
0.981751
0.983075
0.984511
0.986026
0.987574
0.9891
0.99054
0.99183
0.99291
0.993734
0.994279
0.99455
0.994584
0.994439
0.994175
0.993825
0.993498
0.981855
0.981842
0.981828
0.981815
0.981802
0.981788
0.981774
0.98176
0.981746
0.981731
0.981716
0.9817
0.981682
0.981664
0.981645
0.981624
0.981602
0.981578
0.981553
0.981526
0.981498
0.981468
0.981436
0.981403
0.981368
0.981331
0.981292
0.981251
0.981208
0.981162
0.981113
0.98106
0.981003
0.98094
0.980869
0.98079
0.9807
0.980596
0.980475
0.980334
0.980169
0.979976
0.979753
0.979495
0.979202
0.978873
0.97851
0.978117
0.977702
0.977273
0.976845
0.976433
0.976056
0.975731
0.97547
0.975299
0.975262
0.975364
0.975597
0.975985
0.976558
0.977324
0.978238
0.979326
0.980611
0.982043
0.9836
0.985243
0.986923
0.988574
0.990124
0.991496
0.992617
0.993435
0.993927
0.994107
0.994029
0.993761
0.993351
0.992961
0.981886
0.981868
0.981849
0.981832
0.981817
0.981802
0.981787
0.981773
0.981759
0.981744
0.981729
0.981714
0.981698
0.981681
0.981663
0.981643
0.981623
0.981601
0.981578
0.981554
0.981528
0.981502
0.981474
0.981444
0.981413
0.981381
0.981347
0.981312
0.981274
0.981233
0.981189
0.981141
0.981086
0.981025
0.980954
0.98087
0.980771
0.980653
0.980511
0.980341
0.980137
0.979895
0.97961
0.979279
0.9789
0.978473
0.978001
0.977489
0.976948
0.976388
0.975825
0.975276
0.974762
0.974301
0.97391
0.973615
0.973448
0.973417
0.973525
0.97379
0.974237
0.974878
0.975712
0.976729
0.977932
0.979322
0.98088
0.982577
0.984372
0.986208
0.988009
0.989689
0.991152
0.992309
0.993097
0.993498
0.993546
0.993309
0.99285
0.992394
0.981917
0.981893
0.981868
0.981848
0.98183
0.981813
0.981798
0.981783
0.981769
0.981755
0.981741
0.981727
0.981712
0.981696
0.981679
0.981662
0.981644
0.981624
0.981604
0.981583
0.98156
0.981537
0.981513
0.981488
0.981462
0.981435
0.981407
0.981377
0.981345
0.98131
0.98127
0.981226
0.981174
0.981112
0.981037
0.980946
0.980834
0.980696
0.980527
0.98032
0.980069
0.979768
0.979413
0.979
0.978528
0.977998
0.977413
0.976782
0.976117
0.975431
0.974742
0.974068
0.97343
0.972849
0.972344
0.971938
0.97165
0.971495
0.971488
0.971644
0.971977
0.972496
0.973212
0.974131
0.975249
0.976572
0.978091
0.979791
0.981644
0.983606
0.985612
0.987572
0.989378
0.99091
0.992059
0.992756
0.993001
0.992843
0.992355
0.991842
0.981945
0.981916
0.981885
0.98186
0.981839
0.981821
0.981804
0.981789
0.981775
0.981762
0.981749
0.981736
0.981722
0.981708
0.981693
0.981678
0.981662
0.981645
0.981628
0.98161
0.981592
0.981573
0.981554
0.981534
0.981514
0.981493
0.981472
0.981448
0.981422
0.981393
0.981359
0.981318
0.981268
0.981205
0.981125
0.981024
0.980896
0.980734
0.980533
0.980284
0.979982
0.979619
0.97919
0.978694
0.97813
0.977498
0.976806
0.976065
0.975287
0.974489
0.973688
0.972906
0.972163
0.971479
0.970876
0.970373
0.969988
0.969737
0.969633
0.969693
0.969926
0.970343
0.970954
0.971767
0.972788
0.974022
0.97547
0.977128
0.97898
0.980999
0.983134
0.98531
0.987416
0.989315
0.990856
0.991913
0.992427
0.992407
0.991923
0.991362
0.98197
0.981933
0.981894
0.981865
0.981841
0.981821
0.981804
0.981788
0.981775
0.981762
0.98175
0.981738
0.981726
0.981714
0.981701
0.981689
0.981676
0.981662
0.981649
0.981636
0.981622
0.981609
0.981596
0.981583
0.98157
0.981556
0.981542
0.981526
0.981508
0.981486
0.981457
0.981421
0.981372
0.981307
0.981222
0.98111
0.980964
0.980778
0.980543
0.980252
0.979897
0.979472
0.978972
0.978396
0.977745
0.977019
0.976237
0.9754
0.974527
0.973635
0.972744
0.971875
0.971048
0.970284
0.969604
0.969025
0.968565
0.968239
0.968061
0.968042
0.968195
0.968527
0.96905
0.969772
0.970701
0.971845
0.97321
0.974799
0.976608
0.978624
0.980816
0.983126
0.985458
0.987673
0.989597
0.991048
0.991892
0.992075
0.991638
0.991037
0.981994
0.981942
0.981894
0.981859
0.981832
0.98181
0.981792
0.981777
0.981764
0.981752
0.981741
0.981731
0.981721
0.981711
0.981701
0.981692
0.981682
0.981673
0.981665
0.981657
0.98165
0.981643
0.981637
0.981633
0.981628
0.981624
0.981619
0.981612
0.981603
0.981589
0.981568
0.981536
0.98149
0.981425
0.981334
0.981211
0.981049
0.980839
0.980572
0.980241
0.979838
0.979356
0.978792
0.978151
0.977437
0.976637
0.975764
0.974843
0.973895
0.97293
0.971969
0.971034
0.970145
0.969322
0.968586
0.967953
0.96744
0.96706
0.966826
0.966751
0.966843
0.967112
0.967567
0.968217
0.969071
0.970138
0.971427
0.972946
0.974697
0.976679
0.978875
0.981248
0.983727
0.986188
0.988452
0.990301
0.991517
0.99196
0.99162
0.990991
0.982021
0.981939
0.981877
0.981836
0.981806
0.981783
0.981765
0.981751
0.981739
0.981728
0.981719
0.981711
0.981703
0.981696
0.98169
0.981684
0.98168
0.981676
0.981673
0.981672
0.981673
0.981674
0.981678
0.981683
0.981689
0.981696
0.981702
0.981707
0.981709
0.981705
0.981693
0.981668
0.981626
0.981562
0.981468
0.981336
0.981159
0.980928
0.980634
0.980269
0.979825
0.979297
0.978683
0.977982
0.977197
0.976338
0.975413
0.974439
0.973431
0.972412
0.971401
0.970419
0.969487
0.968624
0.96785
0.967181
0.966632
0.966217
0.965947
0.965833
0.965885
0.96611
0.966519
0.96712
0.967922
0.968936
0.97017
0.971635
0.973339
0.975285
0.977469
0.979869
0.982436
0.985071
0.987609
0.989832
0.991452
0.992204
0.992018
0.991401
0.981957
0.981895
0.981832
0.981789
0.981758
0.981735
0.981718
0.981705
0.981694
0.981686
0.981679
0.981674
0.981669
0.981666
0.981664
0.981663
0.981664
0.981667
0.981672
0.98168
0.981689
0.981701
0.981716
0.981733
0.981752
0.981771
0.981792
0.98181
0.981825
0.981834
0.981833
0.981817
0.981782
0.981721
0.981626
0.981489
0.981302
0.981054
0.980738
0.980345
0.979869
0.979304
0.978647
0.9779
0.97707
0.976168
0.975202
0.974191
0.973148
0.972095
0.971052
0.970041
0.969083
0.968197
0.9674
0.966709
0.96614
0.965703
0.965412
0.965276
0.965304
0.965505
0.965888
0.966463
0.967238
0.968224
0.969433
0.970875
0.972561
0.974499
0.976688
0.979119
0.981758
0.984526
0.987268
0.989791
0.991841
0.992971
0.993019
0.992474
0.981868
0.981824
0.981759
0.981713
0.981682
0.98166
0.981644
0.981634
0.981626
0.981621
0.981617
0.981616
0.981615
0.981617
0.98162
0.981626
0.981634
0.981645
0.981659
0.981676
0.981697
0.981722
0.98175
0.981781
0.981815
0.98185
0.981886
0.98192
0.98195
0.981974
0.981987
0.981983
0.981957
0.981902
0.981809
0.981671
0.981477
0.98122
0.980889
0.980477
0.979977
0.979387
0.978704
0.977931
0.977076
0.976147
0.975154
0.974116
0.973052
0.97198
0.970921
0.969896
0.968925
0.968027
0.96722
0.96652
0.96594
0.965495
0.965194
0.96505
0.965069
0.965262
0.965638
0.966207
0.966979
0.967967
0.969182
0.970638
0.972346
0.974319
0.97656
0.979067
0.981816
0.98475
0.987732
0.990564
0.992941
0.994501
0.994854
0.994457
0.981819
0.981737
0.981656
0.981605
0.981573
0.981553
0.98154
0.981533
0.981529
0.981528
0.98153
0.981533
0.981538
0.981546
0.981556
0.98157
0.981586
0.981607
0.981632
0.981661
0.981695
0.981733
0.981777
0.981825
0.981874
0.981926
0.98198
0.982034
0.982084
0.982124
0.982153
0.982163
0.982149
0.982102
0.982015
0.981879
0.981685
0.981422
0.981083
0.980661
0.980149
0.979544
0.978847
0.97806
0.977191
0.976249
0.975246
0.974199
0.973128
0.97205
0.970988
0.96996
0.968987
0.968087
0.967278
0.966577
0.965996
0.96555
0.96525
0.965106
0.965127
0.965326
0.965711
0.966294
0.967087
0.968103
0.969357
0.970865
0.972643
0.974705
0.977061
0.979711
0.982638
0.985801
0.989112
0.992355
0.99522
0.997148
0.997794
0.997632
0.981703
0.9816
0.981506
0.981451
0.981421
0.981404
0.981397
0.981396
0.981399
0.981405
0.981413
0.981423
0.981436
0.981451
0.98147
0.981493
0.981519
0.981551
0.981588
0.981631
0.981679
0.981733
0.981793
0.981858
0.981928
0.982002
0.982076
0.982149
0.982219
0.982278
0.982324
0.98235
0.982349
0.982314
0.982236
0.982106
0.981915
0.981653
0.981312
0.980887
0.980371
0.979762
0.979061
0.978272
0.977401
0.976458
0.975458
0.974415
0.973348
0.972276
0.97122
0.970199
0.969233
0.968341
0.967539
0.966844
0.966271
0.965831
0.965539
0.965406
0.96544
0.965656
0.966064
0.966676
0.967509
0.968577
0.969899
0.971494
0.973384
0.975587
0.978121
0.980994
0.984196
0.987686
0.991367
0.995083
0.998602
1.00115
1.0022
1.00234
0.981521
0.9814
0.981292
0.981238
0.981214
0.981207
0.98121
0.98122
0.981234
0.981249
0.981267
0.981286
0.981308
0.981333
0.981362
0.981395
0.981434
0.981478
0.981528
0.981584
0.981649
0.981721
0.981798
0.981883
0.981974
0.982069
0.982164
0.982258
0.982347
0.982426
0.982491
0.982534
0.982549
0.982527
0.98246
0.982338
0.982154
0.981897
0.981561
0.981138
0.980626
0.980021
0.979325
0.978543
0.97768
0.976748
0.97576
0.974731
0.973679
0.972623
0.971583
0.970578
0.969627
0.968749
0.967961
0.967279
0.966719
0.966294
0.966017
0.965901
0.965958
0.9662
0.966642
0.967299
0.968188
0.969329
0.970745
0.972461
0.974502
0.976898
0.979673
0.982847
0.986424
0.990372
0.994598
0.998903
1.003
1.00654
1.0085
1.00898
0.981258
0.981116
0.980996
0.980949
0.980942
0.980954
0.980976
0.981004
0.981034
0.981063
0.981094
0.981126
0.98116
0.981196
0.981236
0.981281
0.981332
0.981389
0.981453
0.981524
0.981606
0.981696
0.981792
0.981895
0.982006
0.982121
0.982236
0.982351
0.98246
0.982559
0.982642
0.982703
0.982733
0.982725
0.98267
0.982559
0.982383
0.982134
0.981806
0.981392
0.980888
0.980294
0.979611
0.978842
0.977996
0.977083
0.976116
0.975109
0.974081
0.973049
0.972033
0.971051
0.970123
0.969266
0.968499
0.967837
0.967297
0.966893
0.966639
0.966547
0.966633
0.966911
0.967397
0.96811
0.969069
0.9703
0.971829
0.973689
0.975914
0.978542
0.98161
0.985154
0.9892
0.993743
0.99871
1.0039
1.00895
1.01356
1.01666
1.01784
0.98088
0.980716
0.980589
0.980566
0.980596
0.980643
0.980697
0.980752
0.980805
0.980855
0.980904
0.980951
0.980999
0.981048
0.981101
0.981158
0.981221
0.981291
0.981369
0.981455
0.981552
0.981656
0.981769
0.981892
0.982021
0.982154
0.982289
0.982423
0.982551
0.982668
0.982767
0.982843
0.982888
0.982893
0.982849
0.982748
0.982583
0.982344
0.982026
0.981623
0.981132
0.980553
0.979886
0.979138
0.978315
0.977427
0.976487
0.97551
0.974512
0.973512
0.972527
0.971576
0.970678
0.96985
0.969111
0.968478
0.967965
0.96759
0.967365
0.967306
0.96743
0.967751
0.96829
0.969066
0.970105
0.971434
0.973087
0.975103
0.977525
0.980404
0.983793
0.987747
0.992318
0.997544
1.0034
1.00972
1.0161
1.02193
1.0264
1.0288
0.980358
0.980162
0.980029
0.980063
0.980168
0.980279
0.98038
0.980474
0.980564
0.980644
0.980713
0.980778
0.98084
0.980903
0.980968
0.981037
0.981111
0.981193
0.981283
0.981382
0.981491
0.98161
0.981739
0.981876
0.982021
0.982171
0.982322
0.982472
0.982615
0.982746
0.98286
0.982948
0.983004
0.98302
0.982986
0.982895
0.982738
0.982509
0.982202
0.981811
0.981335
0.980773
0.980128
0.979403
0.978607
0.977749
0.976843
0.975901
0.974941
0.973979
0.973032
0.97212
0.97126
0.97047
0.969768
0.969171
0.968695
0.968356
0.968169
0.968151
0.96832
0.968694
0.969291
0.970136
0.971256
0.972684
0.974458
0.976623
0.979232
0.982347
0.98604
0.990384
0.995464
1.00137
1.00817
1.01583
1.02395
1.03172
1.03831
1.04208
0.979772
0.979379
0.979251
0.979435
0.97969
0.979885
0.980057
0.980218
0.980348
0.980456
0.980547
0.98063
0.980706
0.980781
0.980857
0.980936
0.98102
0.981111
0.98121
0.981319
0.981439
0.981569
0.98171
0.981861
0.982018
0.982179
0.982343
0.982504