/*--------------------------------*- C++ -*----------------------------------*\
| =========                 |                                                 |
| \\      /  F ield         | OpenFOAM: The Open Source CFD Toolbox           |
|  \\    /   O peration     | Version:  v2012                                 |
|   \\  /    A nd           | Website:  www.openfoam.com                      |
|    \\/     M anipulation  |                                                 |
\*---------------------------------------------------------------------------*/
FoamFile
{
    version     2.0;
    format      ascii;
    class       surfaceScalarField;
    location    "2000";
    object      phi;
}
// * * * * * * * * * * * * * * * * * * * * * * * * * * * * * * * * * * * * * //

dimensions      [0 3 -1 0 0 0 0];
oriented        oriented;


internalField   nonuniform List<scalar> 
12722
(
1.70908e-05
0.000182909
8.8917e-06
0.000208199
4.473e-06
0.000204419
2.0106e-06
0.000202462
2.30993e-08
0.000201988
-1.96633e-06
0.000201989
-4.43438e-06
0.000202468
-8.86309e-06
0.000204429
-1.70653e-05
0.000208202
0.000182935
2.40071e-05
0.000158902
1.9225e-05
0.000212981
1.16102e-05
0.000212033
5.38929e-06
0.000208683
7.21177e-08
0.000207305
-5.24887e-06
0.00020731
-1.14789e-05
0.000208698
-1.91077e-05
0.000212058
-2.39336e-05
0.000213028
0.000159001
2.21428e-05
0.000136759
2.06587e-05
0.000214465
1.38619e-05
0.00021883
6.80241e-06
0.000215743
1.28495e-07
0.000213979
-6.55123e-06
0.00021399
-1.36269e-05
0.000215774
-2.04592e-05
0.00021889
-2.20325e-05
0.000214601
0.000136969
1.91388e-05
0.00011762
2.05964e-05
0.000213008
1.44114e-05
0.000225015
7.21051e-06
0.000222944
1.96983e-07
0.000220992
-6.82435e-06
0.000221011
-1.40494e-05
0.000222999
-2.02988e-05
0.000225139
-1.89775e-05
0.00021328
0.000117991
1.4887e-05
0.000102733
1.89231e-05
0.000208972
1.38139e-05
0.000230124
7.1245e-06
0.000229633
2.82309e-07
0.000227834
-6.5735e-06
0.000227867
-1.33155e-05
0.000229741
-1.8511e-05
0.000230335
-1.46853e-05
0.000209454
0.000103306
1.07179e-05
9.20155e-05
1.61102e-05
0.000203579
1.24648e-05
0.00023377
6.67517e-06
0.000235423
3.95723e-07
0.000234114
-5.90117e-06
0.000234164
-1.17578e-05
0.000235597
-1.55532e-05
0.00023413
-1.04587e-05
0.00020436
9.28471e-05
7.40742e-06
8.46081e-05
1.31151e-05
0.000197872
1.11282e-05
0.000235757
6.18113e-06
0.00024037
5.46353e-07
0.000239749
-5.10865e-06
0.000239819
-1.01393e-05
0.000240628
-1.23679e-05
0.000236359
-7.08126e-06
0.000199073
8.57659e-05
5.11822e-06
7.94899e-05
1.06574e-05
0.000192333
9.85044e-06
0.000236564
5.74342e-06
0.000244477
7.41743e-07
0.00024475
-4.28793e-06
0.000244849
-8.53401e-06
0.000244874
-9.67229e-06
0.000237497
-4.7063e-06
0.000194107
8.10596e-05
3.65151e-06
7.58384e-05
8.74664e-06
0.000187237
8.75103e-06
0.000236559
5.32129e-06
0.000247907
9.7536e-07
0.000249096
-3.44091e-06
0.000249265
-6.99762e-06
0.000248431
-7.45287e-06
0.000237952
-3.10113e-06
0.000189756
7.79584e-05
2.77975e-06
7.30586e-05
7.33798e-06
0.000182679
7.86675e-06
0.000236031
5.06367e-06
0.00025071
1.30884e-06
0.000252851
-2.51679e-06
0.000253091
-5.58613e-06
0.0002515
-5.65501e-06
0.000238021
-2.06069e-06
0.000186161
7.58977e-05
2.26443e-06
7.07942e-05
6.35007e-06
0.000178594
7.23782e-06
0.000235143
5.11119e-06
0.000252836
1.79567e-06
0.000256166
-1.60498e-06
0.000256491
-4.20948e-06
0.000254105
-4.16151e-06
0.000237973
-1.336e-06
0.000183336
7.45618e-05
1.98783e-06
6.88064e-05
5.72867e-06
0.000174853
6.93439e-06
0.000233937
5.31793e-06
0.000254453
2.37565e-06
0.000259109
-7.24711e-07
0.000259592
-2.88516e-06
0.000256265
-2.86685e-06
0.000237955
-7.76376e-07
0.000181245
7.37854e-05
1.87634e-06
6.693e-05
5.39893e-06
0.00017133
6.9108e-06
0.000232425
5.7094e-06
0.000255654
3.11598e-06
0.000261702
3.13549e-07
0.000262394
-1.60793e-06
0.000258187
-1.695e-06
0.000238042
-3.03721e-07
0.000179854
7.34817e-05
1.90708e-06
6.5023e-05
5.3955e-06
0.000167842
7.20108e-06
0.00023062
6.37708e-06
0.000256478
4.08488e-06
0.000263994
1.55049e-06
0.000264929
-2.50772e-07
0.000259988
-5.4722e-07
0.000238338
1.43909e-07
0.000179163
7.36256e-05
2.03314e-06
6.29898e-05
5.62921e-06
0.000164246
7.77185e-06
0.000228477
7.3497e-06
0.0002569
5.30648e-06
0.000266038
3.03032e-06
0.000267205
1.28352e-06
0.000261735
6.81091e-07
0.000238941
6.39838e-07
0.000179204
7.42654e-05
2.22847e-06
6.07613e-05
6.06439e-06
0.00016041
8.60149e-06
0.00022594
8.6015e-06
0.0002569
6.94967e-06
0.000267689
4.88677e-06
0.000269268
3.14082e-06
0.000263481
2.12896e-06
0.000239953
1.25226e-06
0.000180081
7.55177e-05
2.4888e-06
5.82725e-05
6.71682e-06
0.000156182
9.75191e-06
0.000222905
1.0264e-05
0.000256388
9.12203e-06
0.000268831
7.2747e-06
0.000271115
5.50142e-06
0.000265254
3.97903e-06
0.000241475
2.09716e-06
0.000181963
7.76148e-05
2.80519e-06
5.54674e-05
7.57718e-06
0.00015141
1.12705e-05
0.000219211
1.24528e-05
0.000255206
1.18161e-05
0.000269468
1.03048e-05
0.000272626
8.5825e-06
0.000266976
6.51905e-06
0.000243539
3.37567e-06
0.000185106
8.09905e-05
3.16287e-06
5.23045e-05
8.62582e-06
0.000145947
1.31513e-05
0.000214686
1.51645e-05
0.000253193
1.51629e-05
0.00026947
1.41037e-05
0.000273685
1.26221e-05
0.000268458
1.01418e-05
0.000246019
5.3796e-06
0.000189868
8.63701e-05
3.53076e-06
4.87737e-05
9.79625e-06
0.000139681
1.53156e-05
0.000209167
1.83273e-05
0.000250181
1.91371e-05
0.00026866
1.88242e-05
0.000273998
1.79925e-05
0.000269289
1.59474e-05
0.000248064
1.12938e-05
0.000194522
9.76639e-05
3.90798e-06
4.48657e-05
1.10913e-05
0.000132498
1.77974e-05
0.000202461
2.20113e-05
0.000245967
2.38637e-05
0.000266808
2.45514e-05
0.000273311
2.48308e-05
0.00026901
2.41839e-05
0.000248711
2.18652e-05
0.00019684
0.000107487
1.20421e-05
4.14621e-06
4.07195e-05
1.22028e-05
0.000124441
2.01273e-05
0.000194536
2.56203e-05
0.000240474
2.85888e-05
0.000263839
3.00962e-05
0.000271803
3.10247e-05
0.000268082
3.03993e-05
0.000249336
2.60267e-05
0.000201213
0.000122039
1.14751e-05
4.26212e-06
3.64574e-05
1.3106e-05
0.000115597
2.22309e-05
0.000185411
2.89995e-05
0.000233705
3.30174e-05
0.000259821
3.51668e-05
0.000269654
3.62816e-05
0.000266967
3.52788e-05
0.000250339
2.98671e-05
0.000206625
0.000135708
1.61979e-05
4.29977e-06
3.21576e-05
1.37621e-05
0.000106135
2.40208e-05
0.000175152
3.2081e-05
0.000225645
3.71793e-05
0.000254723
4.00094e-05
0.000266824
4.13518e-05
0.000265624
4.03092e-05
0.000251382
3.45945e-05
0.00021234
0.000148771
2.1531e-05
4.25315e-06
2.79045e-05
1.4172e-05
9.62163e-05
2.54946e-05
0.00016383
3.48956e-05
0.000216244
4.11775e-05
0.000248441
4.48314e-05
0.00026317
4.64239e-05
0.000264032
4.55856e-05
0.00025222
3.97872e-05
0.000218138
0.000161466
2.70926e-05
4.14111e-06
2.37634e-05
1.43491e-05
8.60083e-05
2.66388e-05
0.00015154
3.74155e-05
0.000205468
4.50049e-05
0.000240852
4.95818e-05
0.000258593
5.15714e-05
0.000262042
5.10864e-05
0.000252705
4.54769e-05
0.000223748
0.000173624
3.33188e-05
3.97199e-06
1.97914e-05
1.42963e-05
7.5684e-05
2.74215e-05
0.000138415
3.95906e-05
0.000193298
4.86683e-05
0.000231774
5.42569e-05
0.000253004
5.69347e-05
0.000259364
5.69511e-05
0.000252688
5.17726e-05
0.000228926
0.000185102
4.02941e-05
3.74927e-06
1.60421e-05
1.40087e-05
6.54245e-05
2.77925e-05
0.000124631
4.13122e-05
0.000179779
5.19706e-05
0.000221115
5.8883e-05
0.000246092
6.24787e-05
0.000255769
6.32195e-05
0.000251948
5.86923e-05
0.000233453
0.00019579
4.80042e-05
3.47603e-06
1.25661e-05
1.34811e-05
5.54195e-05
2.7691e-05
0.000110421
4.24384e-05
0.000165031
5.47224e-05
0.000208831
6.33034e-05
0.000237511
6.81145e-05
0.000250958
6.96009e-05
0.000250461
6.61354e-05
0.000236919
0.000205471
5.64551e-05
3.16173e-06
9.40437e-06
1.27315e-05
4.58497e-05
2.71057e-05
9.60471e-05
4.29184e-05
0.000149219
5.69027e-05
0.000194847
6.73115e-05
0.000227102
7.36766e-05
0.000244593
7.5989e-05
0.000248149
7.39138e-05
0.000238994
0.00021383
6.55546e-05
2.81893e-06
6.58544e-06
1.17922e-05
3.68764e-05
2.60443e-05
8.1795e-05
4.26787e-05
0.000132584
5.83138e-05
0.000179212
7.06852e-05
0.000214731
7.88678e-05
0.00023641
8.25661e-05
0.000244451
8.20713e-05
0.000239489
0.000220684
7.52177e-05
2.45198e-06
4.13347e-06
1.06943e-05
2.86342e-05
2.45166e-05
6.79727e-05
4.16352e-05
0.000115466
5.87444e-05
0.000162103
7.31487e-05
0.000200326
8.34066e-05
0.000226152
8.90635e-05
0.000238794
9.01854e-05
0.000238367
0.00022559
8.52791e-05
2.0978e-06
2.03566e-06
9.49083e-06
2.12411e-05
2.25691e-05
5.48944e-05
3.97627e-05
9.8272e-05
5.80532e-05
0.000143812
7.44683e-05
0.000183911
8.706e-05
0.00021356
9.50155e-05
0.000230838
9.79234e-05
0.000235459
0.000228087
9.5426e-05
1.78508e-06
2.50582e-07
8.23748e-06
1.47887e-05
2.02855e-05
4.28465e-05
3.71022e-05
8.14552e-05
5.61549e-05
0.00012476
7.43968e-05
0.00016567
8.94313e-05
0.000198526
9.99449e-05
0.000220325
0.000105233
0.000230171
0.000227999
0.000105321
1.44579e-06
-1.1952e-06
6.94844e-06
9.28608e-06
1.77621e-05
3.20328e-05
3.37498e-05
6.54675e-05
5.30305e-05
0.000105479
7.27245e-05
0.000145976
9.01272e-05
0.000181123
0.000103416
0.000207036
0.000111627
0.00022196
0.000225265
0.000114361
1.0617e-06
-2.2569e-06
5.64834e-06
4.69944e-06
1.51088e-05
2.25724e-05
2.98655e-05
5.07108e-05
4.87733e-05
8.65711e-05
6.93716e-05
0.000125377
8.8866e-05
0.000161629
0.000105011
0.00019089
0.000116423
0.000210549
0.000219521
0.000122167
6.47228e-07
-2.90413e-06
4.34167e-06
1.005e-06
1.24466e-05
1.44674e-05
2.56673e-05
3.74901e-05
4.35945e-05
6.86439e-05
6.43989e-05
0.000104573
8.54534e-05
0.000140574
0.000104241
0.000172103
0.000118904
0.000195886
0.000210159
0.000128266
5.16248e-07
-3.42038e-06
3.42462e-06
-1.90337e-06
1.00479e-05
7.84415e-06
2.14401e-05
2.60979e-05
3.78116e-05
5.22724e-05
5.80361e-05
8.43484e-05
7.9896e-05
0.000118714
0.000100835
0.000151163
0.000118648
0.000178073
0.000197025
0.000131783
4.27156e-07
-3.84753e-06
2.63916e-06
-4.11537e-06
7.85808e-06
2.62523e-06
1.73596e-05
1.65964e-05
3.17718e-05
3.78602e-05
5.06662e-05
6.54539e-05
7.24384e-05
9.69423e-05
9.47651e-05
0.000128837
0.000115281
0.000157558
0.000180244
0.000132062
1.16819e-07
-3.96435e-06
1.70713e-06
-5.70568e-06
5.81181e-06
-1.47945e-06
1.35504e-05
8.85779e-06
2.58111e-05
2.55995e-05
4.27695e-05
4.84955e-05
6.35316e-05
7.61802e-05
8.62567e-05
0.000106111
0.000108673
0.000135142
0.000160289
0.000128627
-2.64218e-08
-3.93793e-06
1.02758e-06
-6.75968e-06
4.10081e-06
-4.55269e-06
1.0187e-05
2.77164e-06
2.02514e-05
1.55351e-05
3.48671e-05
3.38798e-05
5.37975e-05
5.72498e-05
7.584e-05
8.40689e-05
9.90797e-05
0.000111902
0.000138
0.000121369
2.25163e-09
-3.94018e-06
6.49131e-07
-7.40655e-06
2.79111e-06
-6.69467e-06
7.37271e-06
-1.80996e-06
1.53313e-05
7.57653e-06
2.7432e-05
2.17791e-05
4.39333e-05
4.07485e-05
6.42895e-05
6.37127e-05
8.7139e-05
8.90529e-05
0.000114542
0.000110597
-1.06285e-07
-3.83389e-06
2.21057e-07
-7.7339e-06
1.68346e-06
-8.15707e-06
5.04567e-06
-5.17217e-06
1.11477e-05
1.4745e-06
2.08056e-05
1.21212e-05
3.45813e-05
2.69728e-05
5.2484e-05
4.581e-05
7.37792e-05
6.77578e-05
9.12653e-05
9.70557e-05
-2.30426e-07
-3.60347e-06
-1.54831e-07
-7.80949e-06
7.99485e-07
-9.11138e-06
3.17606e-06
-7.54874e-06
7.6458e-06
-2.99525e-06
1.49629e-05
4.80407e-06
2.5803e-05
1.61327e-05
4.05389e-05
3.10742e-05
5.90023e-05
4.92944e-05
6.98918e-05
8.03757e-05
-1.79947e-07
-3.42352e-06
-2.11792e-07
-7.77764e-06
3.46086e-07
-9.66926e-06
1.96837e-06
-9.17102e-06
5.20851e-06
-6.23538e-06
1.06973e-05
-6.84737e-07
1.91029e-05
7.72706e-06
3.09716e-05
1.92055e-05
4.65284e-05
3.37375e-05
5.09292e-05
6.54911e-05
-1.46615e-07
-3.27691e-06
-2.35242e-07
-7.68901e-06
8.62539e-08
-9.99076e-06
1.17837e-06
-1.02631e-05
3.47727e-06
-8.53428e-06
7.49019e-06
-4.69766e-06
1.37994e-05
1.41783e-06
2.29893e-05
1.00156e-05
3.5499e-05
2.12279e-05
3.49779e-05
5.14503e-05
-1.33612e-07
-3.14329e-06
-2.57608e-07
-7.56502e-06
-7.69662e-08
-1.01714e-05
6.7112e-07
-1.10112e-05
2.29306e-06
-1.01562e-05
5.18157e-06
-7.58616e-06
9.80537e-06
-3.20598e-06
1.6693e-05
3.12804e-06
2.63479e-05
1.15729e-05
2.22036e-05
3.91222e-05
-9.00686e-08
-3.05322e-06
-1.91957e-07
-7.46313e-06
-1.07827e-07
-1.02555e-05
3.62287e-07
-1.14813e-05
1.46371e-06
-1.12576e-05
3.50636e-06
-9.62881e-06
6.84472e-06
-6.54434e-06
1.18964e-05
-1.92362e-06
1.91194e-05
4.34989e-06
1.23859e-05
2.89371e-05
-7.22045e-08
-2.98102e-06
-1.92957e-07
-7.34237e-06
-2.26337e-07
-1.02221e-05
9.79905e-09
-1.17175e-05
7.12514e-07
-1.19604e-05
2.11871e-06
-1.1035e-05
4.49965e-06
-8.92527e-06
8.16951e-06
-5.59347e-06
1.34832e-05
-9.63827e-07
5.04509e-06
2.0824e-05
-8.79814e-08
-2.89304e-06
-2.88262e-07
-7.14209e-06
-4.87484e-07
-1.00229e-05
-5.00523e-07
-1.17044e-05
-1.62936e-07
-1.22979e-05
7.09944e-07
-1.19079e-05
2.35032e-06
-1.05656e-05
4.98259e-06
-8.22574e-06
8.86599e-06
-4.84722e-06
-3.79443e-07
1.42905e-05
-1.30636e-07
-2.7624e-06
-4.56751e-07
-6.81598e-06
-8.60624e-07
-9.61904e-06
-1.18873e-06
-1.13763e-05
-1.26023e-06
-1.22264e-05
-8.87112e-07
-1.2281e-05
9.75906e-08
-1.15504e-05
1.8797e-06
-1.00079e-05
4.66002e-06
-7.62753e-06
-4.36178e-06
8.64236e-06
-2.04705e-07
-2.55769e-06
-7.13496e-07
-6.30718e-06
-1.3873e-06
-8.94524e-06
-2.06918e-06
-1.06944e-05
-2.58401e-06
-1.17116e-05
-2.76813e-06
-1.20969e-05
-2.43347e-06
-1.1885e-05
-1.42059e-06
-1.10207e-05
4.21339e-07
-9.46946e-06
-7.19084e-06
3.2504e-06
-3.01007e-07
-2.25669e-06
-1.02819e-06
-5.58e-06
-2.00709e-06
-7.96634e-06
-3.06684e-06
-9.63469e-06
-4.04325e-06
-1.07352e-05
-4.79281e-06
-1.13473e-05
-5.14911e-06
-1.15287e-05
-4.92956e-06
-1.12403e-05
-3.99697e-06
-1.04021e-05
-8.96558e-06
-2.22223e-06
-3.99755e-07
-1.85693e-06
-1.34076e-06
-4.63899e-06
-2.6146e-06
-6.69249e-06
-4.04784e-06
-8.20146e-06
-5.48508e-06
-9.29796e-06
-6.77483e-06
-1.00576e-05
-7.8003e-06
-1.05032e-05
-8.40475e-06
-1.06358e-05
-8.42622e-06
-1.03806e-05
-9.66721e-06
-7.72459e-06
-4.73181e-07
-1.38375e-06
-1.5695e-06
-3.54267e-06
-3.062e-06
-5.19999e-06
-4.78708e-06
-6.47637e-06
-6.61053e-06
-7.47451e-06
-8.40747e-06
-8.26063e-06
-1.00512e-05
-8.85946e-06
-1.1428e-05
-9.25907e-06
-1.23951e-05
-9.41347e-06
-9.25295e-06
-1.28094e-05
-4.94707e-07
-8.89041e-07
-1.63621e-06
-2.40117e-06
-3.20704e-06
-3.62915e-06
-5.06692e-06
-4.6165e-06
-7.1108e-06
-5.43062e-06
-9.24543e-06
-6.126e-06
-1.13756e-05
-6.72932e-06
-1.33985e-05
-7.23615e-06
-1.52004e-05
-7.61157e-06
-7.79616e-06
-1.66572e-05
-4.4521e-07
-4.43831e-07
-1.49061e-06
-1.35577e-06
-2.95872e-06
-2.16104e-06
-4.74414e-06
-2.83108e-06
-6.77451e-06
-3.40025e-06
-8.99021e-06
-3.9103e-06
-1.13317e-05
-4.38782e-06
-1.37307e-05
-4.83717e-06
-1.61019e-05
-5.24037e-06
-5.56214e-06
-1.83359e-05
-3.25823e-07
-1.18007e-07
-1.12901e-06
-5.52577e-07
-2.30509e-06
-9.84964e-07
-3.78893e-06
-1.34724e-06
-5.53474e-06
-1.65443e-06
-7.50904e-06
-1.936e-06
-9.68401e-06
-2.21285e-06
-1.20293e-05
-2.49185e-06
-1.45014e-05
-2.76828e-06
-3.02747e-06
-1.70361e-05
-1.4938e-07
3.13738e-08
-5.98933e-07
-1.03022e-07
-1.3371e-06
-2.46795e-07
-2.32395e-06
-3.60386e-07
-3.52651e-06
-4.51875e-07
-4.92491e-06
-5.37593e-07
-6.51158e-06
-6.26179e-07
-8.28424e-06
-7.19186e-07
-1.02348e-05
-8.17701e-07
-9.18683e-07
-1.23436e-05
3.1374e-08
-7.16482e-08
-3.18443e-07
-6.78828e-07
-1.1307e-06
-1.66829e-06
-2.29447e-06
-3.01366e-06
-3.83136e-06
-4.75004e-06
-1.45985e-05
2.66406e-05
-1.74619e-05
2.8634e-06
-1.51755e-05
-2.28641e-06
-1.22762e-05
-2.8993e-06
-9.82198e-06
-2.45418e-06
-7.95928e-06
-1.8627e-06
-6.56512e-06
-1.39416e-06
-5.49139e-06
-1.07373e-06
-4.63334e-06
-8.58054e-07
-3.91457e-06
-7.18763e-07
-3.28265e-06
-6.31919e-07
-2.70466e-06
-5.77995e-07
-2.1632e-06
-5.41454e-07
-1.6533e-06
-5.099e-07
-1.18142e-06
-4.71887e-07
-7.57033e-07
-4.24381e-07
-3.88447e-07
-3.68585e-07
-8.5468e-08
-3.02978e-07
1.2782e-07
-2.13287e-07
2.48567e-07
-1.20746e-07
2.81807e-07
-3.32387e-08
2.37814e-07
4.39936e-08
1.50509e-07
8.73061e-08
5.4175e-08
9.63346e-08
5.41751e-08
-8.49618e-06
4.66119e-05
-1.81617e-05
1.25289e-05
-2.05613e-05
1.13273e-07
-1.98368e-05
-3.6238e-06
-1.80121e-05
-4.27893e-06
-1.59987e-05
-3.8761e-06
-1.41317e-05
-3.26119e-06
-1.24603e-05
-2.74506e-06
-1.09619e-05
-2.35645e-06
-9.59078e-06
-2.0899e-06
-8.30358e-06
-1.91911e-06
-7.07024e-06
-1.81134e-06
-5.87682e-06
-1.73486e-06
-4.72568e-06
-1.66104e-06
-3.63109e-06
-1.56648e-06
-2.61864e-06
-1.43682e-06
-1.72207e-06
-1.26515e-06
-9.75877e-07
-1.04917e-06
-3.98236e-07
-7.90926e-07
-4.08082e-09
-5.14899e-07
2.08149e-07
-2.45467e-07
2.67103e-07
-1.49576e-08
2.0428e-07
1.50132e-07
8.22779e-08
2.18339e-07
1.36453e-07
-7.85913e-07
6.35957e-05
-1.25777e-05
2.43207e-05
-1.82821e-05
5.8177e-06
-2.0166e-05
-1.7399e-06
-2.01665e-05
-4.27841e-06
-1.92545e-05
-4.78814e-06
-1.79474e-05
-4.56827e-06
-1.65162e-05
-4.17626e-06
-1.50644e-05
-3.80823e-06
-1.36052e-05
-3.54916e-06
-1.2132e-05
-3.39234e-06
-1.06382e-05
-3.30513e-06
-9.126e-06
-3.24704e-06
-7.61124e-06
-3.17579e-06
-6.12336e-06
-3.05436e-06
-4.70434e-06
-2.85584e-06
-3.40374e-06
-2.56576e-06
-2.26974e-06
-2.18317e-06
-1.33824e-06
-1.72242e-06
-6.36813e-07
-1.21633e-06
-1.73081e-07
-7.09197e-07
6.52654e-08
-2.53301e-07
1.16953e-07
9.84465e-08
6.0483e-08
2.74811e-07
1.96936e-07
5.48658e-06
7.96401e-05
-7.04044e-06
3.68477e-05
-1.46007e-05
1.3378e-05
-1.84162e-05
2.07551e-06
-1.98895e-05
-2.80507e-06
-2.00993e-05
-4.57834e-06
-1.96267e-05
-5.0409e-06
-1.8813e-05
-4.98992e-06
-1.77948e-05
-4.82645e-06
-1.66067e-05
-4.7372e-06
-1.52705e-05
-4.72852e-06
-1.37976e-05
-4.7781e-06
-1.22021e-05
-4.84253e-06
-1.05116e-05
-4.86623e-06
-8.76975e-06
-4.79623e-06
-7.03476e-06
-4.59083e-06
-5.37483e-06
-4.22568e-06
-3.85996e-06
-3.69804e-06
-2.55294e-06
-3.02943e-06
-1.50332e-06
-2.26594e-06
-7.38786e-07
-1.47373e-06
-2.58678e-07
-7.33407e-07
-2.50732e-08
-1.35155e-07
3.05844e-08
2.19155e-07
2.27521e-07
1.15584e-05
9.51744e-05
-1.65415e-06
5.00602e-05
-1.04838e-05
2.22077e-05
-1.57096e-05
7.30126e-06
-1.85159e-05
1.28624e-09
-1.98341e-05
-3.2602e-06
-2.0314e-05
-4.56096e-06
-2.02714e-05
-5.03253e-06
-1.9849e-05
-5.24888e-06
-1.91402e-05
-5.44593e-06
-1.81595e-05
-5.7093e-06
-1.69073e-05
-6.03029e-06
-1.53983e-05
-6.35151e-06
-1.36637e-05
-6.60082e-06
-1.17556e-05
-6.7043e-06
-9.7476e-06
-6.59885e-06
-7.73031e-06
-6.24298e-06
-5.80323e-06
-5.62512e-06
-4.06368e-06
-4.76898e-06
-2.59499e-06
-3.73463e-06
-1.45444e-06
-2.61427e-06
-6.63497e-07
-1.52435e-06
-2.02724e-07
-5.95926e-07
-1.44266e-08
3.086e-08
2.13094e-07
1.81584e-05
0.000110335
4.20517e-06
6.40135e-05
-5.91054e-06
3.23234e-05
-1.24724e-05
1.38631e-05
-1.65075e-05
4.03645e-06
-1.89427e-05
-8.25048e-07
-2.03938e-05
-3.10987e-06
-2.12026e-05
-4.22368e-06
-2.15466e-05
-4.90491e-06
-2.1485e-05
-5.5075e-06
-2.10241e-05
-6.17018e-06
-2.01579e-05
-6.89651e-06
-1.88855e-05
-7.62394e-06
-1.72273e-05
-8.25899e-06
-1.52335e-05
-8.69809e-06
-1.2987e-05
-8.84537e-06
-1.06007e-05
-8.62925e-06
-8.20917e-06
-8.01666e-06
-5.95451e-06
-7.02364e-06
-3.96862e-06
-5.72052e-06
-2.35449e-06
-4.2284e-06
-1.17094e-06
-2.7079e-06
-4.23922e-07
-1.34294e-06
-6.65954e-08
-3.26465e-07
1.46499e-07
2.54316e-05
0.000125197
1.07554e-05
7.86897e-05
-7.49835e-07
4.38286e-05
-8.71481e-06
2.18281e-05
-1.40089e-05
9.33055e-06
-1.75422e-05
2.70821e-06
-1.99795e-05
-6.72567e-07
-2.17114e-05
-2.49176e-06
-2.29115e-05
-3.70477e-06
-2.36257e-05
-4.79336e-06
-2.38435e-05
-5.95235e-06
-2.35318e-05
-7.20819e-06
-2.26613e-05
-8.4944e-06
-2.12265e-05
-9.69381e-06
-1.92598e-05
-1.06648e-05
-1.68409e-05
-1.12643e-05
-1.40974e-05
-1.13728e-05
-1.11985e-05
-1.09155e-05
-8.34023e-06
-9.88191e-06
-5.72012e-06
-8.34063e-06
-3.50823e-06
-6.44029e-06
-1.82103e-06
-4.3951e-06
-7.04728e-07
-2.45924e-06
-1.31578e-07
-8.99613e-07
1.49217e-08
3.34756e-05
0.000139726
1.81588e-05
9.40065e-05
5.22487e-06
5.67625e-05
-4.2572e-06
3.13101e-05
-1.08899e-05
1.59633e-05
-1.55703e-05
7.38861e-06
-1.90227e-05
2.77975e-06
-2.16957e-05
1.81306e-07
-2.37969e-05
-1.60354e-06
-2.53768e-05
-3.21355e-06
-2.64035e-05
-4.92558e-06
-2.68104e-05
-6.80136e-06
-2.65271e-05
-8.77762e-06
-2.55046e-05
-1.07164e-05
-2.37361e-05
-1.24333e-05
-2.12772e-05
-1.37232e-05
-1.8252e-05
-1.4398e-05
-1.48522e-05
-1.43153e-05
-1.13281e-05
-1.3406e-05
-7.95829e-06
-1.17104e-05
-5.00643e-06
-9.39215e-06
-2.67698e-06
-6.72454e-06
-1.08236e-06
-4.05385e-06
-2.26805e-07
-1.75517e-06
-2.11883e-07
4.24192e-05
0.000153762
2.66292e-05
0.000109796
1.23187e-05
7.1073e-05
1.17543e-06
4.24533e-05
-6.91254e-06
2.40513e-05
-1.28057e-05
1.32818e-05
-1.72906e-05
7.2646e-06
-2.09029e-05
3.79365e-06
-2.39136e-05
1.40712e-06
-2.63994e-05
-7.27691e-07
-2.83211e-05
-3.00393e-06
-2.95839e-05
-5.5385e-06
-3.00746e-05
-8.28699e-06
-2.96878e-05
-1.11031e-05
-2.83518e-05
-1.37692e-05
-2.60718e-05
-1.60032e-05
-2.29412e-05
-1.75286e-05
-1.91422e-05
-1.81143e-05
-1.49628e-05
-1.75854e-05
-1.07663e-05
-1.5907e-05
-6.93509e-06
-1.32233e-05
-3.80127e-06
-9.85836e-06
-1.58262e-06
-6.27249e-06
-3.45604e-07
-2.99218e-06
-5.57487e-07
5.23136e-05
0.000167003
3.6343e-05
0.000125767
2.08133e-05
8.66027e-05
7.9319e-06
5.53348e-05
-1.78216e-06
3.37653e-05
-8.98169e-06
2.04813e-05
-1.45221e-05
1.2805e-05
-1.90452e-05
8.31671e-06
-2.29207e-05
5.28261e-06
-2.6284e-05
2.63565e-06
-2.91151e-05
-1.72881e-07
-3.13059e-05
-3.34771e-06
-3.2713e-05
-6.87984e-06
-3.31835e-05
-1.06326e-05
-3.25566e-05
-1.43961e-05
-3.0752e-05
-1.78079e-05
-2.78096e-05
-2.04709e-05
-2.38497e-05
-2.20742e-05
-1.91551e-05
-2.228e-05
-1.41506e-05
-2.09115e-05
-9.3492e-06
-1.80247e-05
-5.25369e-06
-1.39539e-05
-2.24611e-06
-9.28007e-06
-5.08655e-07
-4.72963e-06
-1.06614e-06
6.31158e-05
0.000179105
4.73733e-05
0.00014151
3.09262e-05
0.00010305
1.63581e-05
6.99029e-05
4.84516e-06
4.52783e-05
-3.81541e-06
2.91419e-05
-1.04623e-05
1.94519e-05
-1.5862e-05
1.37164e-05
-2.05142e-05
9.93488e-06
-2.46551e-05
6.77654e-06
-2.83198e-05
3.49185e-06
-3.14151e-05
-2.52504e-07
-3.37768e-05
-4.51813e-06
-3.52174e-05
-9.19191e-06
-3.55598e-05
-1.40537e-05
-3.46016e-05
-1.87661e-05
-3.22338e-05
-2.28387e-05
-2.8502e-05
-2.5806e-05
-2.36076e-05
-2.71744e-05
-1.79752e-05
-2.65438e-05
-1.22272e-05
-2.37727e-05
-7.06605e-06
-1.9115e-05
-3.10974e-06
-1.32364e-05
-7.3464e-07
-7.10472e-06
-1.80078e-06
7.47298e-05
0.000189654
5.97111e-05
0.000156528
4.2798e-05
0.000119963
2.67502e-05
8.59507e-05
1.33526e-05
5.86758e-05
3.00837e-06
3.94861e-05
-4.87267e-06
2.7333e-05
-1.11522e-05
1.99959e-05
-1.64895e-05
1.52723e-05
-2.12634e-05
1.15504e-05
-2.56101e-05
7.83853e-06
-2.94947e-05
3.63217e-06
-3.27689e-05
-1.244e-06
-3.52177e-05
-6.74306e-06
-3.66102e-05
-1.26613e-05
-3.67343e-05
-1.86421e-05
-3.53793e-05
-2.41937e-05
-3.23933e-05
-2.87921e-05
-2.77871e-05
-3.17806e-05
-2.19081e-05
-3.24228e-05
-1.54185e-05
-3.02623e-05
-9.20513e-06
-2.53284e-05
-4.1832e-06
-1.82583e-05
-1.02885e-06
-1.02591e-05
-2.82963e-06
8.68857e-05
0.000198194
7.31882e-05
0.000170226
5.64259e-05
0.000136725
3.93101e-05
0.000103067
2.40972e-05
7.38888e-05
1.1862e-05
5.17213e-05
2.49766e-06
3.66974e-05
-4.76749e-06
2.7261e-05
-1.07523e-05
2.12571e-05
-1.60183e-05
1.68164e-05
-2.0851e-05
1.26712e-05
-2.53232e-05
8.10439e-06
-2.93621e-05
2.7949e-06
-3.27885e-05
-3.31669e-06
-3.53503e-05
-1.00994e-05
-3.67483e-05
-1.7244e-05
-3.66102e-05
-2.43318e-05
-3.47318e-05
-3.06705e-05
-3.09764e-05
-3.5536e-05
-2.54121e-05
-3.79872e-05
-1.8606e-05
-3.70684e-05
-1.15395e-05
-3.23949e-05
-5.43852e-06
-2.43593e-05
-1.39394e-06
-1.43037e-05
-4.22356e-06
9.92276e-05
0.000204288
8.74876e-05
0.000181966
7.16226e-05
0.00015259
5.40755e-05
0.000120614
3.73488e-05
9.06155e-05
2.31417e-05
6.59283e-05
1.19818e-05
4.78573e-05
3.44933e-06
3.57935e-05
-3.28898e-06
2.79954e-05
-8.98789e-06
2.25153e-05
-1.41312e-05
1.78145e-05
-1.89388e-05
1.2912e-05
-2.34508e-05
7.30684e-06
-2.75755e-05
8.08103e-07
-3.11191e-05
-6.5559e-06
-3.37763e-05
-1.45868e-05
-3.51611e-05
-2.2947e-05
-3.48191e-05
-3.10125e-05
-3.2408e-05
-3.79471e-05
-2.78149e-05
-4.25802e-05
-2.13184e-05
-4.35649e-05
-1.38235e-05
-3.98898e-05
-6.79267e-06
-3.13901e-05
-1.81692e-06
-1.92794e-05
-6.04049e-06
0.000111248
0.000207401
0.000102123
0.00019109
8.79913e-05
0.000166722
7.08581e-05
0.000137747
5.32074e-05
0.000108266
3.71865e-05
8.19492e-05
2.40002e-05
6.10436e-05
1.37874e-05
4.60062e-05
5.95295e-06
3.58299e-05
-3.31591e-07
2.87998e-05
-5.7602e-06
2.32431e-05
-1.07594e-05
1.79112e-05
-1.55194e-05
1.20668e-05
-2.0064e-05
5.35268e-06
-2.42883e-05
-2.33158e-06
-2.79555e-05
-1.09195e-05
-3.07212e-05
-2.01813e-05
-3.20766e-05
-2.9657e-05
-3.14794e-05
-3.85443e-05
-2.84887e-05
-4.5571e-05
-2.30286e-05
-4.90249e-05
-1.57285e-05
-4.71899e-05
-8.10995e-06
-3.90087e-05
-2.27463e-06
-2.51147e-05
-8.31511e-06
0.000122278
0.00020729
0.000116398
0.00019697
0.000104873
0.000178247
8.91668e-05
0.000153453
7.14895e-05
0.000125944
5.41663e-05
9.92723e-05
3.89681e-05
7.62418e-05
2.67076e-05
5.82668e-05
1.72674e-05
4.527e-05
9.96986e-06
3.60974e-05
4.02206e-06
2.91909e-05
-1.21309e-06
2.31463e-05
-6.12762e-06
1.69814e-05
-1.09016e-05
1.01267e-05
-1.55516e-05
2.3184e-06
-1.99562e-05
-6.51486e-06
-2.3843e-05
-1.62946e-05
-2.67598e-05
-2.67402e-05
-2.80679e-05
-3.72362e-05
-2.70556e-05
-4.65834e-05
-2.3283e-05
-5.27975e-05
-1.69064e-05
-5.35665e-05
-9.22003e-06
-4.66951e-05
-2.7382e-06
-3.15965e-05
-1.10533e-05
0.000131757
0.000203799
0.000129664
0.000199062
0.000121477
0.000186435
0.000108229
0.000166701
9.16456e-05
0.000142527
7.39218e-05
0.000116996
5.71396e-05
9.30239e-05
4.27264e-05
7.268e-05
3.12029e-05
5.67936e-05
2.23006e-05
4.49997e-05
1.53261e-05
3.61654e-05
9.52986e-06
2.89426e-05
4.32863e-06
2.21826e-05
-6.41854e-07
1.50971e-05
-5.55424e-06
7.23079e-06
-1.04294e-05
-1.63972e-06
-1.51211e-05
-1.16029e-05
-1.92895e-05
-2.25717e-05
-2.2352e-05
-3.41737e-05
-2.34696e-05
-4.54658e-05
-2.17863e-05
-5.44807e-05
-1.70499e-05
-5.83029e-05
-9.9565e-06
-5.37885e-05
-3.16106e-06
-3.8392e-05
-1.42144e-05
0.000139068
0.000196514
0.000140896
0.000197234
0.000136769
0.000190562
0.000126995
0.000176474
0.000112743
0.000156779
9.58459e-05
0.000133893
7.83895e-05
0.00011048
6.2196e-05
8.88736e-05
4.84114e-05
7.05781e-05
3.73615e-05
5.60496e-05
2.87096e-05
4.48173e-05
2.17869e-05
3.58653e-05
1.59031e-05
2.80664e-05
1.052e-05
2.04802e-05
5.29757e-06
1.24533e-05
7.72083e-08
3.58064e-06
-5.16324e-06
-6.36248e-06
-1.02455e-05
-1.74894e-05
-1.47413e-05
-2.9678e-05
-1.78687e-05
-4.23384e-05
-1.84738e-05
-5.38756e-05
-1.59396e-05
-6.0837e-05
-1.02142e-05
-5.95139e-05
-3.5003e-06
-4.51059e-05
-1.77147e-05
0.000143352
0.000185224
0.000149263
0.000191323
0.000149642
0.000190183
0.000144181
0.000181935
0.000133468
0.000167493
0.000118814
0.000148547
0.00010202
0.000127275
8.49943e-05
0.000105899
6.93237e-05
8.62487e-05
5.59439e-05
6.94294e-05
4.50672e-05
5.5694e-05
3.63515e-05
4.4581e-05
2.91866e-05
3.52313e-05
2.29492e-05
2.67177e-05
1.71466e-05
1.82559e-05
1.14578e-05
9.26941e-06
5.72509e-06
-6.29743e-07
-5.78398e-08
-1.17065e-05
-5.6731e-06
-2.40627e-05
-1.05772e-05
-3.74343e-05
-1.37016e-05
-5.07513e-05
-1.35978e-05
-6.09407e-05
-9.7808e-06
-6.3331e-05
-3.66548e-06
-5.12212e-05
-2.13801e-05
0.000143768
0.000170083
0.000154096
0.000180995
0.000159088
0.000185192
0.000158494
0.000182529
0.000152296
0.00017369
0.000141241
0.000159602
0.000126664
0.000141852
0.000110257
0.000122306
9.37409e-05
0.000102765
7.84866e-05
8.46836e-05
6.52795e-05
6.89011e-05
5.42863e-05
5.55742e-05
4.52084e-05
4.43092e-05
3.75171e-05
3.4409e-05
3.06609e-05
2.51121e-05
2.41864e-05
1.57439e-05
1.77901e-05
5.76651e-06
1.12993e-05
-5.21573e-06
4.72674e-06
-1.74901e-05
-1.64741e-06
-3.10601e-05
-7.07821e-06
-4.53205e-05
-9.8122e-06
-5.82068e-05
-8.52015e-06
-6.4623e-05
-3.76979e-06
-5.59716e-05
-2.51499e-05
0.00013991
0.000151541
0.000154535
0.00016637
0.000164438
0.000175289
0.000168829
0.000178138
0.000167696
0.000174823
0.000161339
0.000165959
0.000150445
0.000152746
0.000136319
0.000136431
0.000120528
0.000118557
0.000104576
0.000100635
8.96484e-05
8.38292e-05
7.64286e-05
6.87939e-05
6.50874e-05
5.56504e-05
5.5399e-05
4.40974e-05
4.69253e-05
3.35857e-05
3.91823e-05
2.3487e-05
3.17455e-05
1.32033e-05
2.43072e-05
2.22259e-06
1.66815e-05
-9.86449e-06
8.92647e-06
-2.33051e-05
1.49099e-06
-3.7885e-05
-4.4644e-06
-5.22514e-05
-6.7895e-06
-6.2298e-05
-3.8879e-06
-5.88732e-05
-2.90378e-05
0.000131654
0.000130484
0.000149958
0.000148066
0.000164346
0.000160901
0.000174177
0.000168307
0.000178641
0.000170359
0.00017744
0.00016716
0.000171291
0.000158895
0.000161001
0.000146721
0.000147695
0.000131863
0.000132735
0.000115595
0.000117422
9.91412e-05
0.000102784
8.34321e-05
8.94453e-05
6.89894e-05
7.76032e-05
5.59395e-05
6.71099e-05
4.40791e-05
5.76072e-05
3.29897e-05
4.86542e-05
2.21563e-05
3.98275e-05
1.10493e-05
3.0768e-05
-8.04979e-07
2.12479e-05
-1.3785e-05
1.13794e-05
-2.80165e-05
2.05093e-06
-4.29229e-05
-4.39096e-06
-5.58561e-05
-4.4638e-06
-5.88003e-05
-3.35016e-05
0.000119391
0.000108149
0.000140347
0.00012711
0.000158493
0.000142756
0.000172734
0.000154065
0.000182489
0.000160604
0.000187362
0.000162287
0.000186961
0.000159296
0.000181774
0.000151908
0.000172592
0.000141045
0.000160477
0.00012771
0.000146595
0.000113023
0.000132058
9.79693e-05
0.000117776
8.32718e-05
0.000104324
6.93916e-05
9.1918e-05
5.64845e-05
8.04748e-05
4.44329e-05
6.96892e-05
3.29419e-05
5.91171e-05
2.16214e-05
4.82542e-05
1.00579e-05
3.65845e-05
-2.11533e-06
2.37143e-05
-1.51463e-05
9.77188e-06
-2.89804e-05
-3.4112e-06
-4.2673e-05
-1.01597e-05
-5.20518e-05
-4.36613e-05
0.000102156
8.63692e-05
0.000123967
0.000105298
0.000144387
0.000122336
0.000162145
0.000136307
0.000176322
0.000146427
0.000186263
0.000152346
0.000191662
0.000153897
0.000192244
0.000151327
0.000188418
0.000144871
0.000180902
0.000135225
0.000170454
0.000123471
0.000158091
0.000110332
0.00014479
9.65737e-05
0.000131304
8.28775e-05
0.000118131
6.96573e-05
0.00010549
5.70738e-05
9.33309e-05
4.5101e-05
8.13689e-05
3.35834e-05
6.91213e-05
2.23055e-05
5.59339e-05
1.10721e-05
4.10115e-05
-2.23844e-07
2.34777e-05
-1.14467e-05
2.80919e-06
-2.20044e-05
-1.9095e-05
-3.01477e-05
-2.76644e-05
-3.50918e-05
8.59024e-05
6.59579e-05
0.000107563
8.36379e-05
0.000129198
0.000100701
0.000149503
0.000116001
0.000167359
0.000128572
0.000181926
0.000137779
0.00019259
0.000143233
0.000199226
0.00014469
0.000201321
0.000142776
0.000198821