/*--------------------------------*- C++ -*----------------------------------*\
| =========                 |                                                 |
| \\      /  F ield         | OpenFOAM: The Open Source CFD Toolbox           |
|  \\    /   O peration     | Version:  v2012                                 |
|   \\  /    A nd           | Website:  www.openfoam.com                      |
|    \\/     M anipulation  |                                                 |
\*---------------------------------------------------------------------------*/
FoamFile
{
    version     2.0;
    format      ascii;
    class       volVectorField;
    location    "2000";
    object      U;
}
// * * * * * * * * * * * * * * * * * * * * * * * * * * * * * * * * * * * * * //

dimensions      [0 1 -1 0 0 0 0];


internalField   nonuniform List<vector> 
6502
(
(0.0282774 -0.919707 0)
(0.0504032 -1.00916 0)
(0.0288596 -1.00675 0)
(0.0131638 -1.00373 0)
(0.0040067 -1.00299 0)
(-0.00382487 -1.00299 0)
(-0.0129966 -1.00373 0)
(-0.0287195 -1.00676 0)
(-0.0503176 -1.00918 0)
(-0.0282082 -0.919749 0)
(0.0690306 -0.848934 0)
(0.100449 -1.05262 0)
(0.0600284 -1.03734 0)
(0.0316823 -1.02353 0)
(0.010495 -1.01923 0)
(-0.00991986 -1.01925 0)
(-0.0311357 -1.02357 0)
(-0.0595423 -1.03741 0)
(-0.100017 -1.05261 0)
(-0.0688888 -0.849194 0)
(0.0759559 -0.746015 0)
(0.0972478 -1.07541 0)
(0.0702518 -1.07648 0)
(0.0397384 -1.05875 0)
(0.0135607 -1.0507 0)
(-0.0125371 -1.05074 0)
(-0.0387557 -1.05886 0)
(-0.0693537 -1.07668 0)
(-0.0965945 -1.07589 0)
(-0.075761 -0.746727 0)
(0.0608643 -0.633528 0)
(0.0925036 -1.07282 0)
(0.0728445 -1.11155 0)
(0.0423541 -1.09694 0)
(0.0145708 -1.0871 0)
(-0.0130017 -1.08718 0)
(-0.0408397 -1.09714 0)
(-0.0714639 -1.11196 0)
(-0.0915344 -1.07376 0)
(-0.060628 -0.634939 0)
(0.0367878 -0.542943 0)
(0.083654 -1.05647 0)
(0.0690562 -1.13826 0)
(0.0415828 -1.13243 0)
(0.0145574 -1.12263 0)
(-0.0123089 -1.12275 0)
(-0.0394286 -1.1328 0)
(-0.0672093 -1.13914 0)
(-0.0823029 -1.05826 0)
(-0.0365753 -0.545247 0)
(0.0175343 -0.482025 0)
(0.0709556 -1.03237 0)
(0.0604912 -1.16291 0)
(0.038592 -1.16381 0)
(0.0140555 -1.15561 0)
(-0.0108936 -1.15581 0)
(-0.0355734 -1.16449 0)
(-0.0578971 -1.16407 0)
(-0.0691815 -1.0354 0)
(-0.0172353 -0.485489 0)
(0.0063131 -0.439136 0)
(0.0561955 -1.0041 0)
(0.0520176 -1.17553 0)
(0.0354838 -1.1905 0)
(0.0135427 -1.18545 0)
(-0.00917862 -1.18575 0)
(-0.0312936 -1.19158 0)
(-0.048324 -1.178 0)
(-0.0540776 -1.0089 0)
(-0.00576814 -0.444038 0)
(0.00173861 -0.408507 0)
(0.0422933 -0.975233 0)
(0.045207 -1.18178 0)
(0.0325857 -1.21316 0)
(0.013147 -1.21205 0)
(-0.00722496 -1.21246 0)
(-0.0269089 -1.21467 0)
(-0.0403192 -1.18546 0)
(-0.0396195 -0.982502 0)
(-0.00102115 -0.415199 0)
(0.000263766 -0.387088 0)
(0.0313715 -0.948279 0)
(0.039871 -1.18368 0)
(0.0296345 -1.23138 0)
(0.0128947 -1.23539 0)
(-0.00509306 -1.23605 0)
(-0.0223642 -1.23404 0)
(-0.0333398 -1.18932 0)
(-0.02778 -0.958786 0)
(0.000687177 -0.396165 0)
(9.77707e-06 -0.371521 0)
(0.0238404 -0.924213 0)
(0.0357773 -1.18219 0)
(0.0271084 -1.24789 0)
(0.0131029 -1.25563 0)
(-0.00264703 -1.25658 0)
(-0.0173837 -1.25022 0)
(-0.0272918 -1.19041 0)
(-0.019118 -0.938933 0)
(0.00119755 -0.38374 0)
(0.000200831 -0.359251 0)
(0.0189387 -0.902733 0)
(0.0324659 -1.1784 0)
(0.0259483 -1.2597 0)
(0.0141668 -1.27315 0)
(0.000136116 -1.27456 0)
(-0.012468 -1.26518 0)
(-0.0216516 -1.19018 0)
(-0.0127019 -0.922914 0)
(0.00132097 -0.375529 0)
(0.000575242 -0.348803 0)
(0.0161335 -0.883285 0)
(0.0299637 -1.17305 0)
(0.0260032 -1.26862 0)
(0.0158343 -1.28863 0)
(0.0030668 -1.29061 0)
(-0.00809786 -1.27625 0)
(-0.0159596 -1.18975 0)
(-0.00777588 -0.910632 0)
(0.0013564 -0.370348 0)
(0.00099417 -0.339284 0)
(0.0148678 -0.865301 0)
(0.028319 -1.16627 0)
(0.0271263 -1.27572 0)
(0.0181793 -1.30244 0)
(0.00659526 -1.30527 0)
(-0.00357836 -1.28624 0)
(-0.0102549 -1.18978 0)
(-0.00385704 -0.901939 0)
(0.00142321 -0.367688 0)
(0.00143818 -0.329939 0)
(0.0146781 -0.847945 0)
(0.0284164 -1.15802 0)
(0.0291619 -1.28086 0)
(0.021492 -1.31454 0)
(0.0110607 -1.31861 0)
(0.00155549 -1.29555 0)
(-0.00440254 -1.19068 0)
(-0.000395074 -0.896732 0)
(0.00163198 -0.367291 0)
(0.00187445 -0.320181 0)
(0.0153524 -0.830404 0)
(0.0295245 -1.14815 0)
(0.0325812 -1.28395 0)
(0.0257161 -1.3253 0)
(0.0166241 -1.33064 0)
(0.00765718 -1.30438 0)
(0.00179145 -1.19281 0)
(0.00319848 -0.89504 0)
(0.00214831 -0.36919 0)
(0.00228659 -0.309603 0)
(0.016719 -0.811996 0)
(0.0315369 -1.13656 0)
(0.0370392 -1.28506 0)
(0.0314961 -1.33522 0)
(0.0237368 -1.34147 0)
(0.015277 -1.31302 0)
(0.00895167 -1.19669 0)
(0.00746644 -0.897178 0)
(0.00295397 -0.373773 0)
(0.00269791 -0.297876 0)
(0.0186227 -0.79201 0)
(0.0349033 -1.12279 0)
(0.0425767 -1.28388 0)
(0.0394702 -1.34172 0)
(0.0329778 -1.3512 0)
(0.025038 -1.32176 0)
(0.0178604 -1.20287 0)
(0.0130481 -0.903839 0)
(0.00431169 -0.3819 0)
(0.00311533 -0.2847 0)
(0.0210017 -0.769698 0)
(0.0395574 -1.10616 0)
(0.0498423 -1.27983 0)
(0.0495513 -1.34628 0)
(0.0446115 -1.35972 0)
(0.0376119 -1.33055 0)
(0.0295893 -1.2117 0)
(0.0210398 -0.915918 0)
(0.00655641 -0.394761 0)
(0.00351427 -0.26982 0)
(0.02376 -0.744285 0)
(0.0453498 -1.08584 0)
(0.0589602 -1.27207 0)
(0.0619654 -1.34813 0)
(0.0590783 -1.36614 0)
(0.0537195 -1.33875 0)
(0.045542 -1.22309 0)
(0.0327534 -0.934997 0)
(0.0105108 -0.416839 0)
(0.00383902 -0.253083 0)
(0.0266915 -0.715098 0)
(0.0519397 -1.06094 0)
(0.0696116 -1.25976 0)
(0.0765159 -1.34642 0)
(0.0765231 -1.37047 0)
(0.0742508 -1.34511 0)
(0.0685647 -1.23525 0)
(0.0543689 -0.958745 0)
(0.032501 -0.437363 0)
(0.00402115 -0.234442 0)
(0.0295373 -0.681522 0)
(0.0588728 -1.03055 0)
(0.0812864 -1.24192 0)
(0.0926982 -1.34 0)
(0.096471 -1.36918 0)
(0.09843 -1.34702 0)
(0.0980412 -1.24363 0)
(0.0894739 -0.981235 0)
(0.0808464 -0.522408 0)
(0.00352072 -0.214237 0)
(0.0319677 -0.643414 0)
(0.0655184 -0.994061 0)
(0.0930998 -1.2178 0)
(0.109393 -1.32817 0)
(0.116818 -1.36412 0)
(0.121542 -1.34393 0)
(0.123238 -1.24642 0)
(0.114872 -0.996733 0)
(0.0902334 -0.579414 0)
(0.00275634 -0.193109 0)
(0.0336665 -0.60105 0)
(0.0712344 -0.951413 0)
(0.104046 -1.18716 0)
(0.125152 -1.31064 0)
(0.135971 -1.35469 0)
(0.142432 -1.3382 0)
(0.14406 -1.2489 0)
(0.134177 -1.01781 0)
(0.102528 -0.64193 0)
(0.00243752 -0.171602 0)
(0.0345208 -0.55508 0)
(0.0757526 -0.902849 0)
(0.113768 -1.15007 0)
(0.13984 -1.28778 0)
(0.154279 -1.34205 0)
(0.162515 -1.33158 0)
(0.164444 -1.2539 0)
(0.153719 -1.04622 0)
(0.119682 -0.710482 0)
(0.0022504 -0.150154 0)
(0.034623 -0.506409 0)
(0.0790565 -0.848775 0)
(0.12225 -1.10644 0)
(0.15366 -1.25945 0)
(0.172272 -1.32608 0)
(0.182318 -1.32422 0)
(0.185307 -1.25933 0)
(0.174571 -1.07644 0)
(0.139783 -0.776548 0)
(0.00210738 -0.129106 0)
(0.0341054 -0.455889 0)
(0.0811373 -0.789614 0)
(0.129387 -1.05606 0)
(0.166476 -1.22499 0)
(0.189794 -1.30564 0)
(0.202177 -1.31603 0)
(0.206678 -1.26297 0)
(0.196794 -1.10528 0)
(0.162731 -0.838643 0)
(0.00197547 -0.108762 0)
(0.0330437 -0.404349 0)
(0.081941 -0.7259 0)
(0.134999 -0.998701 0)
(0.1781 -1.18352 0)
(0.206941 -1.28016 0)
(0.222416 -1.30457 0)
(0.229047 -1.26426 0)
(0.220823 -1.1323 0)
(0.188672 -0.897611 0)
(0.00183662 -0.0893957 0)
(0.0314728 -0.352663 0)
(0.0813729 -0.658378 0)
(0.138713 -0.934395 0)
(0.188078 -1.13433 0)
(0.223207 -1.25003 0)
(0.242818 -1.28919 0)
(0.252627 -1.26278 0)
(0.246898 -1.15684 0)
(0.2175 -0.953204 0)
(0.00168237 -0.0712718 0)
(0.0294207 -0.301769 0)
(0.0793502 -0.588082 0)
(0.140152 -0.863543 0)
(0.195681 -1.07702 0)
(0.237704 -1.21116 0)
(0.263201 -1.26851 0)
(0.276443 -1.25655 0)
(0.274346 -1.17763 0)
(0.248937 -1.00465 0)
(0.0015189 -0.0546249 0)
(0.0269698 -0.252615 0)
(0.0759317 -0.516271 0)
(0.139201 -0.786881 0)
(0.200619 -1.01134 0)
(0.250052 -1.16388 0)
(0.282873 -1.24099 0)
(0.300057 -1.2477 0)
(0.302338 -1.19145 0)
(0.282377 -1.05006 0)
(0.00135291 -0.0396413 0)
(0.0242239 -0.206062 0)
(0.0712348 -0.444328 0)
(0.135742 -0.70541 0)
(0.20241 -0.937205 0)
(0.259392 -1.10718 0)
(0.300455 -1.20503 0)
(0.323522 -1.23402 0)
(0.331383 -1.19875 0)
(0.317673 -1.08815 0)
(0.00119322 -0.0264448 0)
(0.0212579 -0.162871 0)
(0.0653988 -0.373751 0)
(0.129679 -0.620559 0)
(0.200479 -0.855063 0)
(0.264806 -1.04029 0)
(0.314618 -1.15924 0)
(0.345729 -1.21076 0)
(0.360117 -1.19615 0)
(0.353743 -1.11868 0)
(0.00141321 -0.0150186 0)
(0.0181745 -0.123644 0)
(0.058661 -0.306109 0)
(0.121128 -0.534216 0)
(0.19448 -0.766099 0)
(0.265524 -0.963108 0)
(0.324394 -1.10235 0)
(0.365238 -1.17713 0)
(0.387035 -1.18721 0)
(0.389144 -1.13725 0)
(0.00208546 -0.0052709 0)
(0.0151011 -0.0889289 0)
(0.0513464 -0.242949 0)
(0.110428 -0.448589 0)
(0.184359 -0.672123 0)
(0.260847 -0.876124 0)
(0.328565 -1.03336 0)
(0.379993 -1.13137 0)
(0.411361 -1.16767 0)
(0.42299 -1.14394 0)
(0.00204444 0.00278358 0)
(0.0121201 -0.0590169 0)
(0.0437633 -0.185566 0)
(0.0980528 -0.366013 0)
(0.170367 -0.575553 0)
(0.250326 -0.780699 0)
(0.325985 -0.952065 0)
(0.38819 -1.07206 0)
(0.43106 -1.13423 0)
(0.453272 -1.13585 0)
(0.000999446 0.00901399 0)
(0.00926422 -0.0338242 0)
(0.0361906 -0.134776 0)
(0.0846135 -0.288691 0)
(0.153135 -0.479294 0)
(0.234043 -0.679159 0)
(0.315922 -0.859309 0)
(0.388343 -0.998419 0)
(0.443853 -1.08547 0)
(0.478128 -1.11674 0)
(0.000219635 0.013233 0)
(0.00601824 -0.0133138 0)
(0.0288802 -0.0909254 0)
(0.0708397 -0.218432 0)
(0.133645 -0.386454 0)
(0.212651 -0.574687 0)
(0.298137 -0.757111 0)
(0.379198 -0.91067 0)
(0.446985 -1.0203 0)
(0.495135 -1.07902 0)
(0.00037053 0.016133 0)
(0.0046905 0.0032267 0)
(0.0227647 -0.0539292 0)
(0.057707 -0.156575 0)
(0.113178 -0.300022 0)
(0.18739 -0.471087 0)
(0.27318 -0.648737 0)
(0.360311 -0.810532 0)
(0.438985 -0.938746 0)
(0.501362 -1.02274 0)
(-4.29976e-05 0.0184009 0)
(0.00408198 0.0160292 0)
(0.0171994 -0.0245003 0)
(0.0455667 -0.104338 0)
(0.0928626 -0.222643 0)
(0.159867 -0.372374 0)
(0.242437 -0.538444 0)
(0.332151 -0.70121 0)
(0.419182 -0.842145 0)
(0.494581 -0.947667 0)
(-0.00131554 0.0197517 0)
(0.00207707 0.0253161 0)
(0.0119488 -0.00148346 0)
(0.0344878 -0.0614795 0)
(0.0735942 -0.155862 0)
(0.131827 -0.282094 0)
(0.207952 -0.430956 0)
(0.296195 -0.587212 0)
(0.387869 -0.733593 0)
(0.473632 -0.855012 0)
(-0.00130586 0.0199263 0)
(0.000765556 0.0317301 0)
(0.00775569 0.0163225 0)
(0.0249978 -0.0270826 0)
(0.0562552 -0.100091 0)
(0.10497 -0.202794 0)
(0.172158 -0.330791 0)
(0.254925 -0.473904 0)
(0.346724 -0.617924 0)
(0.438913 -0.748071 0)
(-0.000608728 0.0198328 0)
(0.000553618 0.0359489 0)
(0.00481262 0.0291582 0)
(0.0173652 -0.000644976 0)
(0.041421 -0.0552295 0)
(0.0806557 -0.135933 0)
(0.13746 -0.24162 0)
(0.211454 -0.366723 0)
(0.298732 -0.501104 0)
(0.392412 -0.632024 0)
(-0.000440932 0.0195446 0)
(-0.000519636 0.0381973 0)
(0.00234608 0.0379049 0)
(0.0110857 0.0188393 0)
(0.0290982 -0.0204657 0)
(0.0596644 -0.0817768 0)
(0.105801 -0.165767 0)
(0.168929 -0.270309 0)
(0.247697 -0.38937 0)
(0.337647 -0.513422 0)
(-0.000387381 0.0186442 0)
(-0.00172699 0.0391286 0)
(0.000375959 0.0437705 0)
(0.00632163 0.0328671 0)
(0.0194743 0.00552165 0)
(0.0426319 -0.0398023 0)
(0.0788279 -0.104492 0)
(0.130444 -0.188503 0)
(0.198099 -0.289113 0)
(0.279829 -0.400318 0)
(-0.000257923 0.0175847 0)
(-0.00145316 0.0391132 0)
(-0.000329293 0.0473508 0)
(0.00334007 0.042606 0)
(0.0126182 0.0244514 0)
(0.0296595 -0.00820752 0)
(0.0571638 -0.0567644 0)
(0.0977746 -0.122118 0)
(0.153269 -0.203676 0)
(0.22371 -0.298448 0)
(-0.000209844 0.016739 0)
(-0.00114157 0.038716 0)
(-0.000809252 0.0493562 0)
(0.00160989 0.0491437 0)
(0.0079708 0.0379473 0)
(0.0202317 0.0150955 0)
(0.0405384 -0.0204619 0)
(0.071375 -0.0698573 0)
(0.114975 -0.133572 0)
(0.172687 -0.210681 0)
(-0.000180047 0.0160367 0)
(-0.000956592 0.038169 0)
(-0.00121739 0.0506019 0)
(0.000601124 0.0535935 0)
(0.00493453 0.0474816 0)
(0.0136459 0.0319539 0)
(0.0283645 0.0063474 0)
(0.0511359 -0.0302185 0)
(0.0841649 -0.0785849 0)
(0.12935 -0.138931 0)
(-0.000104182 0.0154776 0)
(-0.000650165 0.0375993 0)
(-0.00101251 0.0512289 0)
(0.000155011 0.0565732 0)
(0.0028858 0.0541145 0)
(0.00894159 0.0439692 0)
(0.0194648 0.0257893 0)
(0.0360084 -0.000972183 0)
(0.0603969 -0.0370258 0)
(0.0945257 -0.0829446 0)
(-6.09067e-05 0.0150956 0)
(-0.000558458 0.0370833 0)
(-0.00105222 0.0513531 0)
(-0.000781727 0.0582775 0)
(0.000910555 0.0585367 0)
(0.00486283 0.0523903 0)
(0.0122668 0.039741 0)
(0.0241863 0.0203132 0)
(0.0419943 -0.00634868 0)
(0.0672352 -0.04076 0)
(-5.1383e-05 0.0147257 0)
(-0.000712573 0.0363452 0)
(-0.00160227 0.0508545 0)
(-0.0023787 0.0589287 0)
(-0.00166225 0.0611291 0)
(0.000367997 0.0580347 0)
(0.00532705 0.049612 0)
(0.0137097 0.0357299 0)
(0.0266291 0.0161138 0)
(0.0451674 -0.00953884 0)
(-6.08971e-05 0.0142075 0)
(-0.00106845 0.0350873 0)
(-0.00262805 0.0494086 0)
(-0.00432606 0.0581173 0)
(-0.00529952 0.061842 0)
(-0.00490375 0.0610817 0)
(-0.0023099 0.0561014 0)
(0.00307581 0.0465954 0)
(0.012112 0.0324586 0)
(0.0255972 0.0134702 0)
(-0.000103651 0.0133945 0)
(-0.00165916 0.0330505 0)
(-0.00413193 0.0467669 0)
(-0.00705195 0.0556343 0)
(-0.00973208 0.0604179 0)
(-0.0111552 0.0616852 0)
(-0.0112415 0.0593675 0)
(-0.00856961 0.0535315 0)
(-0.00295607 0.0438803 0)
(0.00632917 0.0302428 0)
(-0.000174045 0.0121402 0)
(-0.00241246 0.029975 0)
(-0.00593556 0.0426458 0)
(-0.0102544 0.0512846 0)
(-0.0145936 0.0566758 0)
(-0.0181311 0.0592678 0)
(-0.0206162 0.0594313 0)
(-0.0211415 0.0566072 0)
(-0.0188587 0.0508028 0)
(-0.0135343 0.0416817 0)
(-0.000256022 0.010374 0)
(-0.00317764 0.025765 0)
(-0.00771492 0.0369596 0)
(-0.0133813 0.0449961 0)
(-0.0193698 0.0505971 0)
(-0.025052 0.0541503 0)
(-0.0297788 0.0558218 0)
(-0.0333529 0.055695 0)
(-0.034783 0.0531024 0)
(-0.033493 0.0478946 0)
(-0.000323112 0.00814981 0)
(-0.00374349 0.0205728 0)
(-0.00901509 0.0299125 0)
(-0.0156973 0.0369553 0)
(-0.0230258 0.0423014 0)
(-0.0304849 0.0463066 0)
(-0.0375734 0.0490844 0)
(-0.0438128 0.0505724 0)
(-0.0487387 0.0505611 0)
(-0.0516536 0.0485987 0)
(-0.000346803 0.00566956 0)
(-0.00390784 0.0148337 0)
(-0.00940281 0.0220634 0)
(-0.0164866 0.0277742 0)
(-0.0245001 0.0323946 0)
(-0.0330548 0.0362288 0)
(-0.0417875 0.0394045 0)
(-0.0503125 0.0418753 0)
(-0.0581955 0.0434267 0)
(-0.0648781 0.0437453 0)
(-0.000288078 0.00325302 0)
(-0.00353976 0.00920026 0)
(-0.00860315 0.0142409 0)
(-0.0152899 0.0183914 0)
(-0.02309 0.0218956 0)
(-0.0317455 0.0249937 0)
(-0.0410342 0.0278224 0)
(-0.0507104 0.0303834 0)
(-0.0604695 0.0325409 0)
(-0.0699062 0.034047 0)
(-0.000197483 0.00124569 0)
(-0.0026231 0.0044118 0)
(-0.00658668 0.00740068 0)
(-0.0120384 0.00993104 0)
(-0.0186231 0.0121017 0)
(-0.0261841 0.014086 0)
(-0.0346116 0.0160084 0)
(-0.0437997 0.0179076 0)
(-0.0536084 0.0197368 0)
(-0.0638196 0.021381 0)
(-9.85305e-05 1.51771e-05 0)
(-0.0012576 0.00122756 0)
(-0.0036409 0.00256909 0)
(-0.00718027 0.00368556 0)
(-0.0116402 0.00461344 0)
(-0.0169171 0.00546174 0)
(-0.0229648 0.00631841 0)
(-0.0297718 0.00722105 0)
(-0.037324 0.00816652 0)
(-0.0455687 0.0091179 0)
(0.000107981 -0.000139064 0)
(5.50163e-05 2.84211e-05 0)
(-0.000668238 0.000134833 0)
(-0.00192599 0.00018615 0)
(-0.00358144 0.000220622 0)
(-0.00558827 0.000297195 0)
(-0.00794007 0.000405978 0)
(-0.0106589 0.00051031 0)
(-0.0137686 0.000624588 0)
(-0.0172843 0.000753552 0)
(-0.00796845 -0.119498 0)
(-0.0691945 -0.011772 0)
(-0.0700886 0.0105157 0)
(-0.0548018 0.0109852 0)
(-0.0438013 0.00632749 0)
(-0.0349336 0.00342833 0)
(-0.0284675 0.00217507 0)
(-0.0236972 0.00146536 0)
(-0.0199431 0.00102718 0)
(-0.0168638 0.000762588 0)
(-0.0142171 0.000607177 0)
(-0.0118365 0.00051676 0)
(-0.00962372 0.000460763 0)
(-0.00753976 0.000412803 0)
(-0.00559052 0.000329867 0)
(-0.00380362 0.000250912 0)
(-0.00221365 0.000249775 0)
(-0.000865287 0.000312775 0)
(0.000159761 0.000227482 0)
(0.000825292 0.000121502 0)
(0.00112082 2.12552e-05 0)
(0.00107603 -0.000203426 0)
(0.000792977 -0.00028506 0)
(0.000418215 -0.000229213 0)
(7.72402e-05 -0.000111462 0)
(0.0024922 -0.197572 0)
(-0.0633934 -0.0365245 0)
(-0.0814201 0.00954359 0)
(-0.0816494 0.0195731 0)
(-0.0753341 0.0201971 0)
(-0.0674742 0.0165641 0)
(-0.0596396 0.0128213 0)
(-0.0525748 0.0101839 0)
(-0.0463156 0.00834379 0)
(-0.0406646 0.00711681 0)
(-0.0354254 0.00633352 0)
(-0.0304461 0.00583659 0)
(-0.0256387 0.00549173 0)
(-0.0209805 0.00518825 0)
(-0.0165067 0.00484017 0)
(-0.0123019 0.00439222 0)
(-0.00848915 0.00380811 0)
(-0.0052031 0.00307321 0)
(-0.00255684 0.00219172 0)
(-0.000624422 0.00127617 0)
(0.000558249 0.000398052 0)
(0.00108159 -0.000273029 0)
(0.00102346 -0.000700267 0)
(0.000596234 -0.000865895 0)
(0.000118985 -0.000518265 0)
(0.0287921 -0.286244 0)
(-0.0343676 -0.093066 0)
(-0.065462 -0.0120232 0)
(-0.0785275 0.017042 0)
(-0.0811135 0.0241194 0)
(-0.0786341 0.0241394 0)
(-0.073989 0.0215205 0)
(-0.0683938 0.0187369 0)
(-0.0626386 0.0165069 0)
(-0.0568597 0.0149311 0)
(-0.0510525 0.0139129 0)
(-0.0451719 0.0132694 0)
(-0.0392031 0.0128056 0)
(-0.0331795 0.0123335 0)
(-0.0271914 0.0116965 0)
(-0.0213842 0.0107866 0)
(-0.0159456 0.00954862 0)
(-0.0110756 0.00797723 0)
(-0.0069463 0.00612462 0)
(-0.0036892 0.00412815 0)
(-0.00138099 0.00216735 0)
(-1.3553e-05 0.000438935 0)
(0.000518663 -0.000859602 0)
(0.000398765 -0.00141428 0)
(0.000139497 -0.000912188 0)
(0.0538102 -0.376829 0)
(-0.00864922 -0.159468 0)
(-0.0472323 -0.0484032 0)
(-0.0682451 0.00123804 0)
(-0.0775669 0.0205477 0)
(-0.0800955 0.0259486 0)
(-0.0792306 0.0263949 0)
(-0.0763997 0.025085 0)
(-0.0727943 0.0234293 0)
(-0.0683595 0.0223097 0)
(-0.0633451 0.0216957 0)
(-0.0577629 0.0214268 0)
(-0.0516595 0.0212819 0)
(-0.0451107 0.0210071 0)
(-0.0382568 0.0203707 0)
(-0.0313023 0.0191984 0)
(-0.0245042 0.0173947 0)
(-0.0181437 0.0149552 0)
(-0.0124918 0.0119772 0)
(-0.00777889 0.00866534 0)
(-0.00416558 0.005304 0)
(-0.00171084 0.00223451 0)
(-0.000358962 -0.000166737 0)
(0.000142318 -0.00146557 0)
(0.00014467 -0.00116793 0)
(0.0778574 -0.460999 0)
(0.015383 -0.227846 0)
(-0.0282765 -0.0919868 0)
(-0.0547522 -0.0228948 0)
(-0.0696486 0.00900449 0)
(-0.0770953 0.0221359 0)
(-0.080164 0.0265397 0)
(-0.0809491 0.0273771 0)
(-0.0798412 0.0273734 0)
(-0.0775501 0.0275229 0)
(-0.0742382 0.0280269 0)
(-0.0697871 0.0288206 0)
(-0.0642898 0.0296439 0)
(-0.0578196 0.0301677 0)
(-0.0505373 0.0300684 0)
(-0.0426938 0.0290828 0)
(-0.0346204 0.0270505 0)
(-0.026703 0.0239457 0)
(-0.019343 0.0198946 0)
(-0.0129103 0.0151772 0)
(-0.00769455 0.0102046 0)
(-0.00386048 0.00548556 0)
(-0.00142845 0.00159019 0)
(-0.000169412 -0.000856528 0)
(1.88146e-05 -0.0012224 0)
(0.103864 -0.541256 0)
(0.0412597 -0.299184 0)
(-0.00730597 -0.141711 0)
(-0.0393378 -0.0539046 0)
(-0.0593497 -0.00903319 0)
(-0.0714556 0.0121317 0)
(-0.0787644 0.021406 0)
(-0.0829973 0.0255114 0)
(-0.0851724 0.0277752 0)
(-0.0857099 0.0297334 0)
(-0.0846802 0.0320179 0)
(-0.0820514 0.0345958 0)
(-0.0778014 0.037149 0)
(-0.0719569 0.0392476 0)
(-0.0646521 0.0404373 0)
(-0.05615 0.040318 0)
(-0.046844 0.0386128 0)
(-0.0372351 0.0352252 0)
(-0.0278872 0.0302763 0)
(-0.0193619 0.0241165 0)
(-0.0121417 0.0173035 0)
(-0.00655833 0.0105531 0)
(-0.00274909 0.00467405 0)
(-0.000610217 0.000528034 0)
(-3.11958e-05 -0.00102774 0)
(0.132734 -0.620066 0)
(0.0698162 -0.374513 0)
(0.0162781 -0.198448 0)
(-0.0217513 -0.0920449 0)
(-0.0471112 -0.0335162 0)
(-0.0638719 -0.00353217 0)
(-0.0752369 0.0112231 0)
(-0.0832539 0.0188418 0)
(-0.0889707 0.0237583 0)
(-0.0927537 0.028141 0)
(-0.0946249 0.0328312 0)
(-0.0944687 0.0378995 0)
(-0.0921413 0.043002 0)
(-0.087557 0.0475871 0)
(-0.080758 0.0510211 0)
(-0.0719617 0.0526964 0)
(-0.0615809 0.0521372 0)
(-0.0502144 0.0490917 0)
(-0.0386053 0.0436057 0)
(-0.0275611 0.0360659 0)
(-0.0178383 0.0271867 0)
(-0.0100217 0.0179409 0)
(-0.00443678 0.00945435 0)
(-0.00116713 0.00290103 0)
(-8.35218e-05 -0.000527371 0)
(0.164615 -0.697594 0)
(0.101543 -0.453633 0)
(0.0433062 -0.262784 0)
(-0.00117286 -0.137716 0)
(-0.0322767 -0.0647582 0)
(-0.0539358 -0.0250722 0)
(-0.0695277 -0.004259 0)
(-0.0813806 0.00725961 0)
(-0.0907374 0.0151079 0)
(-0.0980331 0.022185 0)
(-0.10325 0.0296949 0)
(-0.106158 0.0378448 0)
(-0.10646 0.046278 0)
(-0.103896 0.0543148 0)
(-0.0983372 0.0611006 0)
(-0.0898662 0.0657399 0)
(-0.0788387 0.0674506 0)
(-0.0658829 0.0657003 0)
(-0.051894 0.0603301 0)
(-0.0379584 0.0516715 0)
(-0.0251943 0.04057 0)
(-0.0145591 0.0283025 0)
(-0.00669 0.0164152 0)
(-0.00192596 0.00654731 0)
(-0.00021187 0.000381326 0)
(0.199732 -0.773117 0)
(0.137143 -0.535795 0)
(0.0748301 -0.334596 0)
(0.0236601 -0.191782 0)
(-0.0138454 -0.103297 0)
(-0.0407662 -0.0527734 0)
(-0.0607365 -0.0251063 0)
(-0.0764328 -0.00929055 0)
(-0.089416 0.00164087 0)
(-0.100305 0.0115039 0)
(-0.109112 0.0220126 0)
(-0.115525 0.0336053 0)
(-0.119104 0.0459687 0)
(-0.119392 0.0583305 0)
(-0.11601 0.0696118 0)
(-0.108783 0.0785518 0)
(-0.0979226 0.0839474 0)
(-0.0839527 0.0848409 0)
(-0.0678147 0.0806641 0)
(-0.0508419 0.0715061 0)
(-0.0345749 0.0582379 0)
(-0.0204833 0.0424519 0)
(-0.0096961 0.0262419 0)
(-0.00296453 0.0119146 0)
(-0.000188824 0.00181795 0)
(0.238023 -0.845376 0)
(0.177092 -0.619853 0)
(0.111777 -0.413405 0)
(0.0540978 -0.254959 0)
(0.00946639 -0.149811 0)
(-0.0232737 -0.087049 0)
(-0.0478446 -0.051415 0)
(-0.0673424 -0.0307173 0)
(-0.0837795 -0.0165424 0)
(-0.0980951 -0.00394206 0)
(-0.110442 0.00949948 0)
(-0.120518 0.0245855 0)
(-0.127792 0.041151 0)
(-0.131652 0.0584226 0)
(-0.131471 0.0751921 0)
(-0.126644 0.0897617 0)
(-0.117164 0.100418 0)
(-0.103273 0.105683 0)
(-0.0857759 0.104303 0)
(-0.0660868 0.0958198 0)
(-0.0461478 0.0808766 0)
(-0.028057 0.0612804 0)
(-0.0136638 0.0397733 0)
(-0.00437094 0.0195794 0)
(-0.000177132 0.00402712 0)
(0.27916 -0.912416 0)
(0.221413 -0.703873 0)
(0.154708 -0.498031 0)
(0.0913075 -0.327323 0)
(0.0391664 -0.205439 0)
(-0.000245409 -0.128453 0)
(-0.029814 -0.0833398 0)
(-0.0531265 -0.0568184 0)
(-0.0727357 -0.0390684 0)
(-0.0900688 -0.0238105 0)
(-0.105589 -0.00769478 0)
(-0.119109 0.0106287 0)
(-0.130095 0.031251 0)
(-0.137832 0.0534904 0)
(-0.141437 0.076293 0)
(-0.140455 0.0975931 0)
(-0.133869 0.114968 0)
(-0.121622 0.126558 0)
(-0.104246 0.130092 0)
(-0.0828607 0.124178 0)
(-0.0596539 0.108765 0)
(-0.0373553 0.0855545 0)
(-0.0187573 0.057904 0)
(-0.00625434 0.0302204 0)
(-0.000262275 0.00722303 0)
(0.322532 -0.972888 0)
(0.269869 -0.785611 0)
(0.203853 -0.586529 0)
(0.136188 -0.40827 0)
(0.0767186 -0.27093 0)
(0.0297914 -0.178086 0)
(-0.00558604 -0.121268 0)
(-0.0329505 -0.0874512 0)
(-0.0555242 -0.0654072 0)
(-0.0753604 -0.047418 0)
(-0.0934249 -0.0289484 0)
(-0.10984 -0.00786174 0)
(-0.124183 0.0164005 0)
(-0.135749 0.043352 0)
(-0.143627 0.0717761 0)
(-0.146594 0.100042 0)
(-0.144546 0.125408 0)
(-0.135907 0.145021 0)
(-0.120728 0.155872 0)
(-0.0994369 0.155142 0)
(-0.0741732 0.141397 0)
(-0.0480806 0.115616 0)
(-0.0249947 0.0814352 0)
(-0.00869465 0.0446141 0)
(-0.000384933 0.0117884 0)
(0.366995 -1.02345 0)
(0.321582 -0.861957 0)
(0.258801 -0.676069 0)
(0.189118 -0.496236 0)
(0.123329 -0.346427 0)
(0.0684513 -0.237257 0)
(0.0261052 -0.166173 0)
(-0.00606688 -0.122802 0)
(-0.0317092 -0.095141 0)
(-0.0536548 -0.0739438 0)
(-0.0735438 -0.0533204 0)
(-0.0920163 -0.0301002 0)
(-0.108998 -0.00302754 0)
(-0.123972 0.0278911 0)
(-0.136139 0.0617155 0)
(-0.144119 0.0964288 0)
(-0.147201 0.129595 0)
(-0.142972 0.158311 0)
(-0.132093 0.178758 0)
(-0.113261 0.186185 0)
(-0.0880074 0.177154 0)
(-0.0594018 0.151002 0)
(-0.0321402 0.110802 0)
(-0.0116963 0.0634739 0)
(-0.000554592 0.0181028 0)
(0.411215 -1.06283 0)
(0.37513 -0.929823 0)
(0.318451 -0.763011 0)
(0.24974 -0.588456 0)
(0.179658 -0.431056 0)
(0.117205 -0.306844 0)
(0.066889 -0.219769 0)
(0.0284974 -0.163827 0)
(-0.00100565 -0.128304 0)
(-0.025112 -0.102753 0)
(-0.0463225 -0.0797065 0)
(-0.0659617 -0.0548002 0)
(-0.0844718 -0.0259102 0)
(-0.101714 0.00756988 0)
(-0.117113 0.0451629 0)
(-0.129658 0.0855837 0)
(-0.137991 0.126831 0)
(-0.140697 0.16483 0)
(-0.135158 0.195671 0)
(-0.121346 0.213908 0)
(-0.0988185 0.21317 0)
(-0.0699157 0.19009 0)
(-0.0396185 0.145728 0)
(-0.0151373 0.0872652 0)
(-0.000781811 0.0265238 0)
(0.453042 -1.08763 0)
(0.428429 -0.985636 0)
(0.380968 -0.843142 0)
(0.316794 -0.680996 0)
(0.245502 -0.522526 0)
(0.177039 -0.386809 0)
(0.118462 -0.283635 0)
(0.0723277 -0.212587 0)
(0.0372696 -0.166039 0)
(0.00999486 -0.133899 0)
(-0.0127294 -0.107448 0)
(-0.0331639 -0.0807156 0)
(-0.0524375 -0.0505478 0)
(-0.0709039 -0.0155622 0)
(-0.0883961 0.0244032 0)
(-0.104258 0.0685673 0)
(-0.117379 0.115418 0)
(-0.126024 0.162187 0)
(-0.127993 0.204152 0)
(-0.121169 0.234654 0)
(-0.104174 0.245674 0)
(-0.0778673 0.230016 0)
(-0.0465539 0.184914 0)
(-0.0187506 0.115941 0)
(-0.00116716 0.0373176 0)
(0.490161 -1.09562 0)
(0.478799 -1.02587 0)
(0.443574 -0.911834 0)
(0.387865 -0.768887 0)
(0.319413 -0.616923 0)
(0.247944 -0.475527 0)
(0.18216 -0.358592 0)
(0.12738 -0.271343 0)
(0.0847744 -0.210787 0)
(0.0523211 -0.168953 0)
(0.0267271 -0.136917 0)
(0.0049984 -0.107486 0)
(-0.0148917 -0.0760882 0)
(-0.0340147 -0.0403201 0)
(-0.0526887 0.000717691 0)
(-0.0707459 0.0469607 0)
(-0.0874714 0.0975557 0)
(-0.101437 0.150579 0)
(-0.110435 0.202179 0)
(-0.111641 0.245569 0)
(-0.102271 0.27083 0)
(-0.0814861 0.267031 0)
(-0.0519339 0.225963 0)
(-0.0221788 0.148715 0)
(-0.00183768 0.0505699 0)
(0.520678 -1.08661 0)
(0.523939 -1.04787 0)
(0.503318 -0.964557 0)
(0.459692 -0.846382 0)
(0.398579 -0.708688 0)
(0.328409 -0.569234 0)
(0.25823 -0.443662 0)
(0.195396 -0.341669 0)
(0.143855 -0.26543 0)
(0.103853 -0.210749 0)
(0.0730829 -0.17013 0)
(0.0483799 -0.135968 0)
(0.0269768 -0.10246 0)
(0.00702195 -0.0660011 0)
(-0.0124407 -0.0247152 0)
(-0.031801 0.022185 0)
(-0.0509063 0.0745547 0)
(-0.0688525 0.131469 0)
(-0.0838166 0.19035 0)
(-0.0929515 0.245343 0)
(-0.0924671 0.285443 0)
(-0.0792628 0.297235 0)
(-0.0548105 0.265803 0)
(-0.0250879 0.184213 0)
(-0.00258753 0.0662107 0)
(0.541931 -1.0588 0)
(0.560487 -1.04756 0)
(0.556161 -0.998073 0)
(0.527979 -0.908504 0)
(0.478889 -0.791625 0)
(0.415196 -0.662204 0)
(0.345133 -0.535328 0)
(0.276916 -0.423107 0)
(0.216734 -0.332101 0)
(0.16751 -0.262661 0)
(0.12896 -0.210344 0)
(0.0987458 -0.168548 0)
(0.0739238 -0.130966 0)
(0.0519565 -0.0928855 0)
(0.031124 -0.0513346 0)
(0.0105735 -0.00461901 0)
(-0.0100915 0.0480673 0)
(-0.0307427 0.106671 0)
(-0.0502307 0.169962 0)
(-0.0661983 0.233856 0)
(-0.0747376 0.288684 0)
(-0.0706796 0.317172 0)
(-0.0543573 0.301058 0)
(-0.0271991 0.220612 0)
(-0.00328327 0.0840261 0)
(0.550783 -1.01 0)
(0.585268 -1.02867 0)
(0.598174 -1.00811 0)
(0.587952 -0.949334 0)
(0.555041 -0.85884 0)
(0.503238 -0.747264 0)
(0.439046 -0.627553 0)
(0.370241 -0.512216 0)
(0.30414 -0.410565 0)
(0.24596 -0.327055 0)
(0.197941 -0.261167 0)
(0.159579 -0.208792 0)
(0.128697 -0.164365 0)
(0.102643 -0.122689 0)
(0.079117 -0.0798297 0)
(0.0565456 -0.0331502 0)
(0.0340748 0.0190849 0)
(0.0112843 0.0777839 0)
(-0.0115461 0.142907 0)
(-0.0330075 0.212331 0)
(-0.0499978 0.278941 0)
(-0.0574963 0.323859 0)
(-0.0490915 0.326496 0)
(-0.028254 0.25491 0)
(-0.00380496 0.103106 0)
(0.544246 -0.94006 0)
(0.595358 -0.98581 0)
(0.626219 -0.994299 0)
(0.635039 -0.966197 0)
(0.621318 -0.90431 0)
(0.586156 -0.816501 0)
(0.533839 -0.712319 0)
(0.470713 -0.60251 0)
(0.403887 -0.497169 0)
(0.3398 -0.403549 0)
(0.282889 -0.324829 0)
(0.234982 -0.260243 0)
(0.195606 -0.206303 0)
(0.162887 -0.158439 0)
(0.134509 -0.11233 0)
(0.10841 -0.0645357 0)
(0.0831488 -0.0125104 0)
(0.0578056 0.0455675 0)
(0.0319047 0.110646 0)
(0.00595487 0.182154 0)
(-0.0182869 0.255771 0)
(-0.0367579 0.317813 0)
(-0.0386877 0.339515 0)
(-0.0291351 0.283755 0)
(-0.0039469 0.121689 0)
(0.521224 -0.850507 0)
(0.588074 -0.91962 0)
(0.636581 -0.955077 0)
(0.667239 -0.955746 0)
(0.671878 -0.925002 0)
(0.65706 -0.863637 0)
(0.622094 -0.780958 0)
(0.571045 -0.685045 0)
(0.510146 -0.584583 0)
(0.445848 -0.487737 0)
(0.383687 -0.400242 0)
(0.327453 -0.324514 0)
(0.278788 -0.259884 0)
(0.237425 -0.203576 0)
(0.201863 -0.151898 0)
(0.170129 -0.10119 0)
(0.140375 -0.0483038 0)
(0.111228 0.00932291 0)
(0.0816132 0.0735643 0)
(0.0510965 0.14511 0)
(0.0203717 0.222063 0)
(-0.00732886 0.295886 0)
(-0.0253496 0.341447 0)
(-0.0291261 0.305618 0)
(-0.00474274 0.140815 0)
(0.482228 -0.744853 0)
(0.561653 -0.831922 0)
(0.627525 -0.890587 0)
(0.674225 -0.918784 0)
(0.707624 -0.915245 0)
(0.709706 -0.884832 0)
(0.695756 -0.827518 0)
(0.66262 -0.751335 0)
(0.614399 -0.663605 0)
(0.556945 -0.571687 0)
(0.495774 -0.482138 0)
(0.435576 -0.399498 0)
(0.37969 -0.325726 0)
(0.329734 -0.260427 0)
(0.285695 -0.201504 0)
(0.24643 -0.146013 0)
(0.210242 -0.0908195 0)
(0.175397 -0.0329863 0)
(0.140447 0.030001 0)
(0.104027 0.0998721 0)
(0.0656303 0.176625 0)
(0.0265075 0.255473 0)
(-0.00795457 0.318437 0)
(-0.0258031 0.319177 0)
(-0.0176738 0.170722 0)
(0.429692 -0.628807 0)
(0.51696 -0.726918 0)
(0.596007 -0.803593 0)
(0.660701 -0.8543 0)
(0.708415 -0.878216 0)
(0.73884 -0.874073 0)
(0.746745 -0.845507 0)
(0.735438 -0.793595 0)
(0.706083 -0.724698 0)
(0.662669 -0.645337 0)
(0.609973 -0.561683 0)
(0.552636 -0.478859 0)
(0.494749 -0.400482 0)
(0.43935 -0.328358 0)
(0.388009 -0.262447 0)
(0.340899 -0.201282 0)
(0.29717 -0.142594 0)
(0.255275 -0.0837896 0)
(0.213346 -0.0223111 0)
(0.16948 0.0439942 0)
(0.121634 0.1162 0)
(0.0688574 0.193166 0)
(0.0141699 0.266399 0)
(-0.0378981 0.303918 0)
(-0.0603937 0.207237 0)
(0.36863 -0.510834 0)
(0.458263 -0.612366 0)
(0.545139 -0.700265 0)
(0.623637 -0.768429 0)
(0.688559 -0.813797 0)
(0.738201 -0.835271 0)
(0.769374 -0.831797 0)
(0.7818 -0.80617 0)
(0.774357 -0.760438 0)
(0.750656 -0.698714 0)
(0.713453 -0.627595 0)
(0.666338 -0.551892 0)
(0.613479 -0.475498 0)
(0.558587 -0.401465 0)
(0.504275 -0.331494 0)
(0.451938 -0.265839 0)
(0.401883 -0.203675 0)
(0.353419 -0.143502 0)
(0.304976 -0.083562 0)
(0.2543 -0.0222355 0)
(0.198516 0.0415893 0)
(0.134536 0.107491 0)
(0.0585264 0.171863 0)
(-0.039385 0.21944 0)
(-0.129251 0.193304 0)
(0.304534 -0.398209 0)
(0.390914 -0.496009 0)
(0.479797 -0.587548 0)
(0.565983 -0.666453 0)
(0.644103 -0.727817 0)
(0.710391 -0.769093 0)
(0.762228 -0.788772 0)