/*--------------------------------*- C++ -*----------------------------------*\
| =========                 |                                                 |
| \\      /  F ield         | OpenFOAM: The Open Source CFD Toolbox           |
|  \\    /   O peration     | Version:  v2012                                 |
|   \\  /    A nd           | Website:  www.openfoam.com                      |
|    \\/     M anipulation  |                                                 |
\*---------------------------------------------------------------------------*/
FoamFile
{
    version     2.0;
    format      ascii;
    class       volScalarField;
    location    "569";
    object      k;
}
// * * * * * * * * * * * * * * * * * * * * * * * * * * * * * * * * * * * * * //

dimensions      [0 2 -2 0 0 0 0];


internalField   nonuniform List<scalar> 
6598
(
1.32832
1.66118
1.72017
1.73492
1.74114
1.74114
1.73492
1.72017
1.66118
1.32832
0.779256
1.21677
1.33218
1.36772
1.37873
1.37873
1.36772
1.33219
1.21677
0.779256
0.511984
0.921065
1.05694
1.1063
1.12247
1.12247
1.1063
1.05695
0.921065
0.511984
0.364682
0.720167
0.857027
0.913194
0.933229
0.933229
0.913194
0.857028
0.720168
0.364682
0.2754
0.579216
0.708468
0.766515
0.788754
0.788754
0.766516
0.708469
0.579217
0.2754
0.217156
0.477028
0.595613
0.65255
0.675588
0.675589
0.652551
0.595615
0.47703
0.217157
0.176907
0.400683
0.508093
0.562293
0.585136
0.585136
0.562295
0.508096
0.400686
0.176908
0.147795
0.342112
0.438922
0.489621
0.511642
0.511643
0.489624
0.438925
0.342116
0.147796
0.125949
0.296128
0.38331
0.430255
0.451106
0.451107
0.430259
0.383315
0.296134
0.125951
0.109058
0.259297
0.337911
0.381136
0.400654
0.400657
0.381141
0.337919
0.259306
0.109061
0.0956712
0.229283
0.300343
0.340033
0.358177
0.358179
0.34004
0.300353
0.229295
0.095675
0.0848413
0.204454
0.268877
0.305288
0.322086
0.32209
0.305298
0.268892
0.20447
0.0848465
0.0759261
0.183643
0.242238
0.27565
0.291171
0.291177
0.275664
0.242258
0.183665
0.0759332
0.0684777
0.165999
0.219468
0.250162
0.264495
0.264503
0.250181
0.219495
0.166029
0.0684873
0.062175
0.150888
0.199838
0.22808
0.24132
0.24133
0.228107
0.199876
0.150929
0.0621881
0.0567826
0.13783
0.182785
0.20882
0.221062
0.221076
0.208858
0.182837
0.137886
0.0568005
0.0521242
0.126455
0.167866
0.191917
0.203253
0.203272
0.191969
0.167939
0.126531
0.0521485
0.0480652
0.116474
0.154732
0.176999
0.187515
0.18754
0.17707
0.154833
0.116578
0.0480982
0.0445016
0.107659
0.143102
0.163765
0.173539
0.173573
0.16386
0.143241
0.107806
0.0445466
0.0413519
0.0998324
0.132756
0.151976
0.161083
0.161128
0.152104
0.132942
0.100012
0.0414111
0.0386199
0.0930056
0.123711
0.141655
0.150172
0.150231
0.141826
0.123961
0.0932682
0.0386772
0.0361689
0.0868638
0.115572
0.132365
0.14035
0.140428
0.13259
0.115905
0.0872301
0.0370861
0.0339582
0.0813061
0.108202
0.123951
0.131455
0.131556
0.124239
0.108633
0.0818587
0.0364532
0.0319546
0.0762551
0.101503
0.116302
0.12337
0.123494
0.116653
0.102011
0.0771292
0.0368311
0.0301304
0.0716455
0.0953895
0.109323
0.115996
0.116141
0.109721
0.095971
0.0730702
0.0382949
0.0284623
0.0674221
0.0897905
0.102933
0.109247
0.109415
0.103371
0.090507
0.0696912
0.0407144
0.0269303
0.0635351
0.0846397
0.0970579
0.103046
0.103241
0.0975778
0.0856135
0.0669021
0.043864
0.0254726
0.0598372
0.0797494
0.0914878
0.0971736
0.0974095
0.0921487
0.0811307
0.0646175
0.0475963
0.0241266
0.0564171
0.0752289
0.0863429
0.0917573
0.0920473
0.0872048
0.0771628
0.0628926
0.0514798
0.0228789
0.0532453
0.0710439
0.0815872
0.0867607
0.0871204
0.0827105
0.073666
0.0616148
0.0545672
0.0217178
0.0502939
0.0671563
0.0771782
0.0821399
0.0825857
0.0786217
0.0705865
0.0606708
0.0569168
0.0206326
0.0475369
0.0635332
0.0730787
0.0778566
0.0784047
0.0748972
0.0678693
0.0599472
0.0585814
0.0196143
0.0449516
0.0601454
0.0692563
0.0738767
0.0745429
0.0714979
0.0654521
0.0592805
0.059608
0.0186545
0.0425178
0.056967
0.0656819
0.0701701
0.0709686
0.0683863
0.0632757
0.0585899
0.0600512
0.0177458
0.040218
0.0539749
0.0623299
0.0667098
0.0676529
0.0655266
0.0612833
0.0578217
0.0599693
0.0168814
0.0380363
0.0511486
0.0591777
0.0634715
0.0645695
0.0628859
0.0594274
0.0569393
0.0594227
0.0160552
0.0359587
0.0484698
0.0562048
0.0604338
0.0616945
0.0604341
0.057671
0.0559249
0.0584745
0.0152614
0.0339729
0.0459224
0.0533932
0.0575772
0.0590063
0.0581457
0.0559865
0.0547782
0.0571925
0.014495
0.0320682
0.043492
0.0507268
0.0548844
0.0564859
0.0559993
0.0543563
0.0535151
0.0556502
0.0137513
0.0302352
0.0411656
0.0481911
0.0523398
0.0541165
0.053978
0.0527729
0.0521652
0.0539276
0.013026
0.0284661
0.0389317
0.0457723
0.0499286
0.051883
0.052069
0.0512368
0.0507685
0.0521105
0.0123154
0.0267536
0.0367793
0.0434573
0.0476365
0.049771
0.0502618
0.0497541
0.0493701
0.0502868
0.0116159
0.0250913
0.0346974
0.0412322
0.0454481
0.0477653
0.0485464
0.0483323
0.0480136
0.0485402
0.0109242
0.0234731
0.0326746
0.0390817
0.0433457
0.0458482
0.0469104
0.0469752
0.0467336
0.0469413
0.0102375
0.0218933
0.0306984
0.0369879
0.0413078
0.0439976
0.0453357
0.0456777
0.0455484
0.0455366
0.0095528
0.0203466
0.0287549
0.0349293
0.0393081
0.0421843
0.0437952
0.0444213
0.0444533
0.0443392
0.0088674
0.0188276
0.0268287
0.0328807
0.0373136
0.0403712
0.0422508
0.0431708
0.0434172
0.0433224
0.00817842
0.0173304
0.0249026
0.0308126
0.0352849
0.0385119
0.0406522
0.0418733
0.0423821
0.0424191
0.00748261
0.0158492
0.0229584
0.0286919
0.0331764
0.0365513
0.0389372
0.0404596
0.0412662
0.0415278
0.00677602
0.0143777
0.0209772
0.0264832
0.0309383
0.034428
0.037035
0.0388485
0.0399717
0.0405232
0.00605305
0.0129058
0.0189403
0.0241527
0.0285216
0.0320803
0.0348726
0.0369545
0.0383944
0.0392715
0.00530534
0.0114189
0.0168315
0.0216756
0.0258884
0.0294565
0.0323857
0.0346999
0.0364378
0.0376479
0.0045116
0.00992581
0.0146481
0.0190455
0.0230254
0.026533
0.029538
0.0320339
0.0340328
0.0355567
0.00365064
0.00856434
0.0125187
0.0163495
0.019989
0.0233456
0.0263488
0.0289588
0.0311594
0.0329508
0.00273756
0.00738377
0.0107011
0.0138713
0.01702
0.0200824
0.0229611
0.0255788
0.0278904
0.0298673
0.00174314
0.00623185
0.00923428
0.0118707
0.0144801
0.017112
0.0197036
0.0221735
0.0244517
0.0264866
0.00100103
0.00480423
0.00779321
0.0102492
0.012522
0.0147686
0.0170088
0.0191985
0.0212802
0.0231971
0.000797379
0.00300495
0.00605365
0.00862059
0.0108716
0.0129563
0.0149415
0.0168335
0.0186174
0.0202717
0.000831233
0.00198238
0.00440474
0.00687129
0.00917754
0.0112122
0.0130213
0.0146277
0.0160477
0.0173154
0.000918243
0.0015993
0.00238627
0.00354946
0.00478256
0.00599975
0.00687638
0.00763629
0.00830081
0.00885963
0.00822073
0.00317843
0.00314971
0.00316888
0.0031351
0.00300352
0.00272689
0.00247078
0.00224059
0.00202996
0.00183519
0.00165999
0.00150307
0.00136199
0.00123303
0.00111719
0.0010152
0.000921714
0.000833101
0.000746556
0.000659446
0.00056886
0.000469016
0.00035237
0.00020011
0.0160967
0.00711457
0.00630492
0.00610917
0.00592206
0.00558689
0.00504221
0.00440621
0.00385061
0.0033853
0.00299977
0.00268682
0.00243534
0.0022313
0.00206148
0.00190478
0.00174437
0.00157881
0.0014095
0.00124004
0.00107634
0.000923926
0.000794548
0.000667146
0.000371549
0.0247606
0.0124653
0.00894376
0.00772112
0.00694646
0.00617255
0.00530974
0.00438499
0.00364957
0.00310522
0.00270049
0.00240317
0.0021839
0.00202438
0.00190684
0.00181164
0.00171514
0.00161003
0.00149054
0.00135411
0.00120376
0.00104832
0.000906046
0.000775935
0.000428589
0.0345271
0.0190874
0.0121942
0.0095617
0.00786325
0.00643789
0.00517448
0.00408792
0.00318913
0.00257736
0.00215514
0.00187475
0.00169081
0.00158019
0.00151976
0.00148885
0.0014622
0.00142635
0.00137112
0.00128968
0.00118058
0.00104975
0.00091342
0.000775357
0.00043365
0.0442525
0.0277311
0.0168159
0.0120667
0.00910183
0.00686272
0.00513117
0.00384691
0.00290942
0.00223649
0.00176203
0.00145792
0.0012743
0.00118445
0.00115854
0.00116834
0.00119449
0.00121055
0.00120379
0.0011662
0.00109446
0.000991495
0.000869114
0.000729706
0.000409933
0.0517769
0.0370023
0.0233122
0.0155642
0.0108476
0.00760508
0.0053303
0.00379521
0.00277054
0.0020712
0.00157882
0.00124074
0.00103307
0.000934413
0.000917355
0.00094606
0.000996705
0.00103734
0.00105421
0.00103992
0.000991182
0.000909302
0.000801895
0.000667207
0.000373634
0.0570439
0.046032
0.0305426
0.0198839
0.0132132
0.00873145
0.00579979
0.00395122
0.00279602
0.00205089
0.00154123
0.00118731
0.000960117
0.000840349
0.00080439
0.000822117
0.00086641
0.000906839
0.000927758
0.000921636
0.000885884
0.000821628
0.000732305
0.000610407
0.000337732
0.060987
0.0534425
0.0376145
0.0247715
0.0160921
0.0102491
0.00653736
0.00431174
0.00298183
0.00216499
0.00162739
0.00125597
0.00100303
0.000847891
0.000774417
0.000760082
0.000779869
0.000806759
0.000821967
0.000818222
0.000794652
0.000755129
0.000704322
0.000627652
0.000384082
0.0639101
0.0592849
0.044194
0.0300289
0.0194731
0.0121824
0.00756388
0.00488859
0.00333965
0.00242012
0.00183599
0.00144116
0.0011618
0.000965276
0.000839669
0.000775115
0.000758763
0.00077023
0.000782804
0.000790922
0.000797285
0.000810842
0.000843964
0.000921887
0.00122596
0.0659856
0.0636054
0.0501445
0.0354308
0.0230916
0.0143629
0.00884223
0.00566524
0.00387805
0.00283054
0.00217857
0.00175335
0.00146013
0.00124594
0.00108918
0.000985281
0.000936728
0.000946305
0.000982131
0.00104497
0.00114917
0.0013232
0.001609
0.00202648
0.00249213
0.0673557
0.066645
0.0550464
0.0400817
0.0266236
0.0166823
0.0103025
0.00664558
0.00461307
0.00342377
0.00268247
0.00220859
0.00190278
0.0017026
0.00157243
0.00149626
0.00147215
0.00151051
0.00159983
0.00174231
0.00194304
0.00219871
0.00248393
0.00276128
0.00301262
0.068088
0.0686128
0.0588121
0.0440862
0.0300199
0.0190917
0.0119275
0.00781129
0.00554189
0.00421353
0.00337548
0.00282985
0.00247719
0.00226011
0.00214253
0.00209909
0.00211361
0.0021718
0.00226987
0.0024053
0.0025743
0.00277234
0.0030013
0.00329
0.00362221
0.0682674
0.0696602
0.061476
0.0475316
0.0333165
0.0215663
0.0136862
0.00912533
0.00663246
0.00517721
0.00425907
0.00365278
0.00323925
0.00296181
0.00279611
0.00272222
0.00272666
0.00278014
0.0028811
0.00302311
0.00320393
0.00342708
0.00370284
0.00404626
0.00443414
0.0679318
0.0699129
0.0631515
0.0504013
0.0362215
0.0240551
0.0155619
0.0105564
0.00784266
0.00626669
0.00528243
0.00465723
0.00423472
0.00393769
0.00373985
0.003629
0.00359942
0.00362241
0.00370331
0.00384119
0.00404401
0.00430174
0.00458878
0.00490995
0.00524617
0.0671151
0.0694898
0.0640372
0.0527004
0.0389121
0.0266756
0.0175988
0.0120987
0.0091182
0.0074597
0.00642627
0.00577075
0.00535287
0.00507421
0.00488752
0.00477298
0.00470478
0.00470018
0.00475831
0.00487558
0.00504461
0.00525326
0.00549264
0.00575425
0.00602502
0.0658591
0.0684925
0.0642537
0.0544156
0.0414498
0.0292781
0.0198781
0.0137976
0.0104436
0.00866673
0.00762096
0.00695028
0.00652398
0.00624533
0.0060616
0.00593186
0.00585086
0.00582533
0.00585404
0.00593308
0.00605632
0.00621497
0.00639896
0.00659864
0.00680501
0.064213
0.0670009
0.0638764
0.0555091
0.0439072
0.0319632
0.022347
0.0157804
0.0119166
0.0098567
0.00875581
0.00809688
0.00768265
0.00741389
0.00722371
0.00708997
0.00700663
0.00697027
0.0069772
0.00702287
0.00710225
0.00720938
0.00733776
0.00748087
0.0076334
0.0622335
0.0650839
0.0629747
0.0560784
0.0460241
0.034762
0.0250347
0.0180252
0.0136568
0.0112053
0.0098832
0.00915514
0.0087205
0.00845092
0.00828029
0.0081747
0.00811662
0.00809582
0.00810492
0.00813703
0.00819056
0.00826225
0.00834935
0.00844904
0.00855886
0.059986
0.0628045
0.0615885
0.0561191
0.0476025
0.0376612
0.0279949
0.0206063
0.0156847
0.0127565
0.0111228
0.0102254
0.00972041
0.00943259
0.00927459
0.00919812
0.00917467
0.0091872
0.009224
0.00927506
0.00933573
0.00939966
0.00946854
0.00954298
0.00962329
0.057548
0.0602316
0.0597637
0.0556383
0.0486441
0.0400909
0.031319
0.0236401
0.0181804
0.0147045
0.0126622
0.011513
0.0108797
0.0105334
0.0103568
0.0102854
0.0102809
0.0103202
0.0103877
0.0104717
0.0105604
0.0106452
0.0107236
0.010795
0.0108627
0.0550099
0.0574487
0.0575547
0.0546399
0.0491193
0.0419772
0.034323
0.0271605
0.021254
0.0172139
0.0146718
0.0131727
0.0123235
0.0118636
0.0116353
0.0115476
0.0115496
0.0116087
0.0117015
0.0118105
0.0119232
0.0120325
0.012129
0.0122094
0.012274
0.0524749
0.0545603
0.0550402
0.05315
0.0490045
0.0432642
0.0367975
0.0304299
0.0248148
0.0204153
0.0173036
0.0153693
0.0142135
0.0135562
0.0132144
0.0130707
0.0130522
0.013111
0.0132139
0.0133375
0.0134648
0.0135846
0.0136911
0.0137803
0.0138489
0.050052
0.0516927
0.0523343
0.0512362
0.0482956
0.0438951
0.0386558
0.0332347
0.0281838
0.0239017
0.0205853
0.0182444
0.0167076
0.0157648
0.0152401
0.014981
0.0148931
0.014914
0.0149994
0.0151168
0.0152438
0.0153664
0.0154763
0.0155693
0.0156464
0.0478457
0.0489858
0.0495883
0.0490191
0.0470521
0.0438493
0.0398097
0.0354125
0.0311076
0.0272425
0.024029
0.0215516
0.0197712
0.0185756
0.017829
0.0174031
0.0171981
0.0171391
0.0171704
0.0172495
0.0173488
0.0174547
0.0175579
0.0176525
0.0177376
0.0459396
0.0465756
0.0469786
0.046674
0.0454039
0.0431804
0.0402212
0.0368456
0.0333837
0.0301208
0.0272599
0.0249104
0.0230983
0.021784
0.0208868
0.0203135
0.0199785
0.0198054
0.0197437
0.0197535
0.0198061
0.0198854
0.0199787
0.0200786
0.0201785
0.0443788
0.0445678
0.0446791
0.0444131
0.0435526
0.0420367
0.0399546
0.0374923
0.0348721
0.0323039
0.029955
0.0279369
0.0263011
0.0250465
0.0241315
0.0234904
0.0230608
0.022789
0.0226404
0.0225884
0.0226075
0.0226737
0.0227691
0.0228811
0.0230003
0.0431566
0.0430115
0.0428227
0.042446
0.0417451
0.0406524
0.0391884
0.0374454
0.0355547
0.0336558
0.0318724
0.0302975
0.0289853
0.0279469
0.0271581
0.0265654
0.0261324
0.0258488
0.0256903
0.0256304
0.0256461
0.0257171
0.0258261
0.0259593
0.0261057
0.0422079
0.0418795
0.0414624
0.0409253
0.0402177
0.0393062
0.0381949
0.0369264
0.0355716
0.0342139
0.0329339
0.031798
0.0308501
0.0301017
0.0295357
0.0290945
0.0287791
0.0285804
0.0284843
0.0284745
0.0285343
0.0286473
0.0287989
0.0289772
0.0291712
0.0414151
0.0410658
0.0405483
0.0398963
0.0391245
0.0382439
0.0372731
0.0362442
0.0352003
0.0341909
0.0332644
0.0324628
0.0318146
0.0313277
0.030987
0.0307417
0.0305872
0.030518
0.0305272
0.0306055
0.0307416
0.0309242
0.0311422
0.0313855
0.0316436
0.0406229
0.0404004
0.0399312
0.0392748
0.0384803
0.0375914
0.0366504
0.0356987
0.0347762
0.0339206
0.033165
0.0325359
0.0320509
0.0317144
0.0315161
0.0314191
0.0313936
0.0314349
0.0315366
0.0316922
0.0318945
0.0321357
0.0324076
0.0327022
0.0330101
0.0396602
0.0396786
0.0393931
0.0388634
0.0381478
0.037305
0.0363918
0.0354612
0.0345604
0.0337289
0.0329983
0.0323914
0.0319223
0.0315955
0.0314062
0.0313377
0.0313615
0.0314385
0.031567
0.0317414
0.0319548
0.0322013
0.0324747
0.0327691
0.033077
0.0383648
0.0386951
0.038691
0.0384013
0.0378797
0.0371832
0.0363707
0.0354996
0.034622
0.0337828
0.0330179
0.0323536
0.0318071
0.0313866
0.0310928
0.0309197
0.0308548
0.030878
0.0309667
0.031089
0.0312437
0.031427
0.0316351
0.0318631
0.0321048
0.0366039
0.0372726
0.0376005
0.0376239
0.0373851
0.0369317
0.0363156
0.0355899
0.0348058
0.0340094
0.0332397
0.0325276
0.0318953
0.0313571
0.0309199
0.0305849
0.0303487
0.0302031
0.0301367
0.0301341
0.0301833
0.0302721
0.0303789
0.0304995
0.0306311
0.0342959
0.0352874
0.035951
0.036311
0.0363978
0.0362474
0.0359011
0.0354032
0.0347983
0.0341292
0.033434
0.032745
0.0320878
0.0314816
0.0309389
0.030467
0.0300691
0.0297445
0.0294896
0.0292985
0.0291643
0.0290788
0.0290308
0.0290125
0.0290175
0.0314424
0.0327021
0.0336609
0.0343328
0.0347373
0.0348994
0.0348498
0.0346228
0.0342548
0.033782
0.0332385
0.0326548
0.0320569
0.0314656
0.0308972
0.0303631
0.0298712
0.029426
0.0290292
0.0286808
0.0283787
0.0281199
0.0278999
0.0277143
0.0275592
0.0281832
0.0296157
0.0307859
0.0316971
0.0323608
0.0327928
0.0330137
0.0330487
0.0329258
0.032674
0.0323218
0.0318958
0.0314198
0.0309144
0.0303965
0.0298796
0.0293742
0.0288877
0.0284255
0.0279908
0.0275854
0.0272097
0.0268632
0.026545
0.0262544
0.0248454
0.0262954
0.027541
0.0285755
0.0293891
0.0299915
0.0303987
0.0306283
0.0307009
0.0306386
0.0304638
0.0301981
0.0298617
0.0294728
0.0290474
0.0285987
0.028138
0.0276739
0.0272135
0.026762
0.026323
0.0258992
0.0254922
0.0251032
0.024734
0.0217146
0.0230106
0.024154
0.0251383
0.0259575
0.0266015
0.0270672
0.0273737
0.027538
0.0275776
0.0275097
0.0273515
0.0271189
0.0268268
0.0264886
0.026116
0.0257191
0.0253064
0.0248847
0.0244598
0.024036
0.0236168
0.0232048
0.022802
0.0224113
0.0183941
0.019348
0.0201817
0.0208918
0.0214662
0.0219159
0.0222436
0.022459
0.0225728
0.0225959
0.0225396
0.0224149
0.0222323
0.0220019
0.0217326
0.0214328
0.0211094
0.0207688
0.0204163
0.0200564
0.0196926
0.0193281
0.0189653
0.0186062
0.0182534
0.00931346
0.00971011
0.0100604
0.0103676
0.0106226
0.0108303
0.0109936
0.011115
0.0111977
0.0112446
0.0112591
0.0112446
0.0112044
0.0111417
0.0110597
0.0109614
0.0108495
0.0107265
0.0105947
0.0104562
0.0103126
0.0101654
0.0100161
0.00986572
0.00971521
0.000408608
0.000991298
0.00199514
0.00229374
0.00249407
0.00264606
0.00286632
0.00300223
0.00339904
0.00333134
0.00369073
0.00419551
0.00405283
0.00447658
0.00490717
0.00484492
0.00520124
0.00553342
0.0055795
0.00586375
0.00612456
0.00628591
0.00651083
0.00672121
0.00700642
0.00718558
0.0073578
0.00778678
0.0079282
0.00806823
0.00867242
0.00878075
0.00889121
0.00970589
0.00978597
0.00986928
0.0109264
0.0109857
0.0110459
0.0123261
0.01237
0.0124118
0.0138982
0.0139357
0.0139683
0.0157038
0.0157475
0.0157837
0.0178079
0.0178654
0.017915
0.0202672
0.0203453
0.0204164
0.0231122
0.0232165
0.0233157
0.0262469
0.026384
0.0265184
0.0293578
0.0295427
0.0297276
0.0318879
0.0321315
0.032377
0.0332979
0.0335857
0.0338771
0.0333642
0.0336538
0.0339491
0.0323321
0.0325643
0.0328038
0.0307577
0.0308899
0.0310292
0.029038
0.0290707
0.0291136
0.0274421
0.0273436
0.0272599
0.0260154
0.025796
0.0255916
0.0244197
0.0241215
0.0238349
0.0220731
0.0217461
0.0214268
0.0179459
0.0176452
0.0173492
0.00958349
0.00945322
0.00932447
0.000111033
0.000250467
0.000382475
0.000493519
0.000592546
0.000680997
0.00076219
0.000837688
0.000908535
0.000975444
0.00103894
0.00109943
0.00115727
0.00121277
0.00126622
0.00131788
0.00136802
0.00141689
0.00146471
0.00151173
0.00155817
0.00160426
0.00165021
0.00169627
0.00174266
0.00178964
0.00183749
0.00188649
0.001937
0.00198941
0.0020442
0.00210192
0.0021633
0.00222923
0.00229864
0.00237088
0.0024461
0.00252462
0.00260668
0.00269204
0.00278106
0.00287428
0.00297197
0.00307443
0.00318198
0.00329491
0.00341353
0.00353809
0.00366883
0.00380587
0.00394921
0.00409855
0.00425323
0.0044119
0.00457219
0.00473017
0.00487928
0.00500904
0.00510613
0.00516606
0.00519829
0.00520641
0.00518807
0.00510756
0.00497459
0.00478442
0.00453005
0.00423453
0.00391421
0.00357751
0.00323478
0.00289056
0.00258616
0.00230289
0.00203066
0.00176294
0.0014933
0.00121024
0.00089883
0.00051377
0.000415806
0.000775827
0.000979133
0.00115444
0.00134101
0.00153238
0.00171902
0.00190138
0.00207867
0.00225039
0.00241612
0.00257563
0.00272892
0.00287613
0.00301756
0.00315363
0.00328479
0.00341159
0.00353455
0.00365424
0.0037712
0.00388599
0.00399913
0.00411115
0.00422256
0.00433385
0.00444553
0.00455807
0.00467198
0.00478773
0.00490582
0.00502674
0.00515085
0.0052788
0.00541312
0.00555378
0.00570027
0.00585274
0.00601119
0.0061757
0.00634715
0.00652616
0.00671323
0.00690886
0.00711354
0.00732773
0.00755189
0.00778636
0.0080314
0.00828706
0.00855312
0.0088289
0.00911301
0.00940306
0.0096951
0.00998285
0.0102571
0.0105056
0.0107127
0.0108497
0.0109065
0.0108753
0.0107455
0.010484
0.0100868
0.00958406
0.00898584
0.00834378
0.00768578
0.00703201
0.00640386
0.00579505
0.00514171
0.00445764
0.00376658
0.00310346
0.00250549
0.00201049
0.00159176
0.000861041
0.000641402
0.00122676
0.0014971
0.00175657
0.00203719
0.00232085
0.0025957
0.00285907
0.00310974
0.00334779
0.00357381
0.00378858
0.00399291
0.00418764
0.00437355
0.00455142
0.004722
0.00488601
0.00504417
0.00519717
0.0053457
0.00549041
0.00563195
0.00577095
0.00590802
0.00604378
0.00617882
0.00631371
0.00644905
0.0065854
0.00672333
0.00686341
0.00700615
0.00715208
0.00730171
0.00745794
0.00762009
0.00778787
0.00796143
0.00814121
0.00832765
0.00852125
0.00872244
0.00893162
0.00914915
0.0093753
0.00961022
0.00985389
0.0101061
0.0103662
0.0106332
0.0109056
0.0111807
0.0114549
0.011723
0.0119777
0.0122094
0.0124058
0.0125515
0.0126169
0.0125852
0.012446
0.012188
0.0118034
0.0112872
0.0106304
0.00987265
0.00908888
0.00829211
0.00749996
0.00677012
0.00610784
0.00546298
0.00479835
0.00411222
0.00342322
0.00277087
0.00220935
0.00173681
0.000925261
0.000842854
0.00164832
0.00200981
0.00235545
0.00270796
0.00305206
0.00337753
0.00368374
0.00397195
0.00424419
0.00450237
0.00474814
0.00498276
0.0052072
0.00542227
0.00562863
0.0058269
0.00601769
0.00620159
0.0063792
0.00655113
0.00671798
0.00688037
0.00703891
0.00719421
0.00734686
0.00749749
0.00764668
0.00779502
0.0079431
0.00809151
0.00824083
0.0083916
0.0085444
0.00869977
0.00885829
0.00902266
0.00919207
0.00936642
0.00954586
0.00973065
0.00992108
0.0101174
0.0103197
0.0105282
0.0107427
0.0109628
0.011188
0.0114174
0.0116495
0.0118825
0.0121138
0.0123398
0.012556
0.0127567
0.0129343
0.0130793
0.0131805
0.0132233
0.0131865
0.0130409
0.0127796
0.0123953
0.0118907
0.011274
0.0105585
0.00976308
0.00890844
0.00801365
0.00709028
0.00626014
0.00553842
0.00492016
0.00433192
0.00374899
0.00316645
0.00260124
0.00208877
0.00162802
0.000860241
0.00104147
0.00207097
0.00252874
0.00294215
0.00334163
0.00371476
0.00405926
0.00438134
0.0046855
0.00497531
0.00525315
0.00552056
0.00577845
0.00602738
0.00626768
0.00649961
0.00672342
0.0069394
0.00714789
0.00734929
0.00754405
0.00773266
0.00791563
0.00809351
0.00826686
0.00843624
0.00860223
0.00876541
0.00892637
0.00908569
0.00924394
0.0094017
0.00955954
0.00971802
0.00987772
0.0100392
0.0102036
0.0103727
0.0105459
0.010723
0.0109041
0.0110894
0.0112787
0.0114722
0.0116696
0.0118704
0.0120739
0.0122791
0.0124845
0.0126879
0.0128869
0.0130779
0.0132566
0.0134178
0.0135555
0.0136622
0.0137285
0.0137431
0.0136925
0.0135613
0.0133337
0.012996
0.012531
0.0119442
0.0112523
0.0104742
0.00962586
0.00871516
0.00775148
0.00675611
0.00578326
0.00489268
0.00416678
0.00361093
0.00313288
0.00268818
0.00225819
0.00184483
0.00144132
0.000738281
0.00129251
0.00252541
0.00305854
0.00351047
0.00392542
0.00430167
0.00464228
0.00496465
0.00527397
0.00557411
0.00586676
0.00615258
0.00643164
0.0067037
0.00696844
0.00722558
0.00747493
0.0077164
0.00795004
0.00817603
0.00839462
0.00860615
0.00881103
0.00900971
0.00920269
0.00939048
0.00957362
0.00975267
0.00992819
0.0101008
0.010271
0.0104394
0.0106066
0.0107731
0.0109397
0.0111067
0.0112748
0.011446
0.0116208
0.0117988
0.01198
0.0121642
0.0123515
0.0125418
0.0127346
0.0129294
0.0131253
0.0133211
0.0135149
0.0137045
0.013887
0.0140584
0.0142141
0.0143481
0.0144538
0.0145233
0.0145495
0.0145195
0.0144218
0.01424
0.0139598
0.0135699
0.0130625
0.0124375
0.0117062
0.0108883
0.0100084
0.00907081
0.00807347
0.00701285
0.00590597
0.00480557
0.00381211
0.00306685
0.00258083
0.0022247
0.00191286
0.00159835
0.00124266
0.00063864
0.00163233
0.00311541
0.00362045
0.00406198
0.0044578
0.00481011
0.00513406
0.00544981
0.00576065
0.00606896
0.00637502
0.00667827
0.00697772
0.00727234
0.00756113
0.00784328
0.00811814
0.0083853
0.00864452
0.00889574
0.00913902
0.00937455
0.00960263
0.0098236
0.0100379
0.0102459
0.0104483
0.0106454
0.0108379
0.0110263
0.0112112
0.0113932
0.0115728
0.0117508
0.0119277
0.0121042
0.0122808
0.0124582
0.012639
0.0128227
0.0130093
0.0131988
0.0133911
0.0135862
0.0137838
0.0139833
0.014184
0.0143846
0.0145835
0.0147786
0.0149669
0.0151448
0.0153078
0.0154503
0.0155634
0.0156404
0.0156718
0.0156451
0.015559
0.0153888
0.015116
0.0147292
0.0142179
0.0135792
0.0128237
0.0119712
0.0110615
0.0100876
0.00909755
0.00807439
0.00699321
0.00583822
0.00463677
0.00349287
0.00261287
0.00211929
0.00180169
0.00151694
0.0011554
0.000579113
0.00235441
0.00368883
0.004177
0.00458411
0.00493656
0.00525134
0.00555673
0.00586522
0.0061776
0.00649395
0.00681304
0.00713309
0.00745222
0.00776865
0.00808081
0.0083874
0.00868743
0.00898014
0.00926504
0.00954184
0.00981041
0.0100708
0.0103232
0.0105678
0.0108049
0.011035
0.0112585
0.0114759
0.0116877
0.0118945
0.0120968
0.0122953
0.0124906
0.0126833
0.0128741
0.0130638
0.0132528
0.0134421
0.0136325
0.0138265
0.0140235
0.0142238
0.0144274
0.0146345
0.0148448
0.0150583
0.0152743
0.015492
0.01571
0.0159265
0.016139
0.0163444
0.0165384
0.0167159
0.0168705
0.0169949
0.0170801
0.0171129
0.0170838
0.0169754
0.0167717
0.0164565
0.0160143
0.0154332
0.0147221
0.0138769
0.0129417
0.0119325
0.0109022
0.00988006
0.00887649
0.0078853
0.00687241
0.00579076
0.0046392
0.0035504
0.0028636
0.00246373
0.00206243
0.00164977
0.00325793
0.00422575
0.00468534
0.00504083
0.00534403
0.00562911
0.00592272
0.00622709
0.00654217
0.00686646
0.00719762
0.00753303
0.00787012
0.00820657
0.00854037
0.00886986
0.0091937
0.00951087
0.00982065
0.0101225
0.0104162
0.0107015
0.0109786
0.0112474
0.0115084
0.0117617
0.0120078
0.0122471
0.0124802
0.0127074
0.0129295
0.013147
0.0133606
0.013571
0.0137788
0.0139849
0.0141899
0.0143946
0.0145998
0.0148078
0.0150195
0.0152351
0.015455
0.0156795
0.0159088
0.016143
0.016382
0.0166253
0.0168722
0.0171214
0.0173709
0.0176182
0.01786
0.0180918
0.0183084
0.0185029
0.0186671
0.018791
0.0188629
0.0188681
0.0187913
0.0186156
0.0183232
0.0178981
0.0173278
0.0166074
0.0157468
0.0147645
0.0136956
0.0126095
0.0115484
0.0105647
0.00970017
0.0089676
0.00835475
0.00785505
0.00748682
0.00753729
0.00799718
0.00883396
0.00407021
0.00472841
0.00512724
0.00543169
0.00570141
0.00597406
0.00625974
0.00656123
0.00687802
0.00720796
0.00754815
0.00789547
0.00824692
0.00859982
0.00895181
0.00930096
0.00964565
0.00998463
0.0103169
0.0106419
0.010959
0.0112679
0.0115686
0.0118611
0.0121455
0.0124219
0.0126908
0.0129525
0.0132073
0.0134559
0.0136988
0.0139366
0.0141699
0.0143995
0.014626
0.0148504
0.0150735
0.015296
0.015519
0.0157434
0.015972
0.0162053
0.0164439
0.0166884
0.0169394
0.0171974
0.0174626
0.0177351
0.0180146
0.0183005
0.0185915
0.0188858
0.0191809
0.0194733
0.0197589
0.0200319
0.0202856
0.0205116
0.0206997
0.0208378
0.0209123
0.0209082
0.0208087
0.0205969
0.0202566
0.0197757
0.0191492
0.0183797
0.0174792
0.016472
0.0154053
0.0143388
0.0133416
0.0124806
0.0118134
0.0114146
0.0113534
0.0116777
0.0122884
0.0132506
0.00472778
0.00519854
0.00553205
0.00580104
0.0060552
0.00631695
0.00659495
0.00689197
0.00720749
0.00753923
0.00788406
0.00823867
0.00859982
0.0089646
0.00933043
0.00969513
0.0100569
0.0104142
0.0107659
0.0111111
0.0114492
0.0117797
0.0121024
0.012417
0.0127237
0.0130225
0.0133136
0.0135973
0.0138739
0.014144
0.0144081
0.0146666
0.0149203
0.0151698
0.015416
0.0156597
0.0159017
0.0161432
0.0163849
0.0166281
0.0168745
0.0171264
0.0173845
0.0176496
0.0179228
0.0182048
0.0184962
0.0187977
0.0191095
0.0194314
0.0197629
0.0201029
0.0204496
0.0208006
0.0211525
0.021501
0.0218405
0.0221644
0.0224644
0.0227309
0.0229529
0.023118
0.0232131
0.0232241
0.0231373
0.0229408
0.0226267
0.0221921
0.0216422
0.0209902
0.0202547
0.0194724
0.0186915
0.0179729
0.0173795
0.0170119
0.016947
0.0172142
0.0178955
0.0189571
0.00529833
0.00565694
0.00594179
0.0061889
0.00642884
0.00667905
0.0069475
0.00723707
0.00754738
0.00787629
0.00822076
0.00857746
0.00894312
0.0093147
0.00968947
0.0100651
0.0104396
0.0108112
0.0111787
0.0115409
0.0118971
0.0122465
0.0125888
0.0129237
0.013251
0.0135707
0.0138829
0.0141878
0.0144856
0.0147768
0.0150617
0.0153409
0.015615
0.0158846
0.0161507
0.0164139
0.0166754
0.016936
0.0171968
0.0174591
0.0177239
0.0179944
0.0182716
0.0185568
0.0188511
0.0191557
0.0194717
0.0197999
0.020141
0.0204955
0.0208632
0.0212439
0.0216363
0.0220389
0.022449
0.0228634
0.0232777
0.0236864
0.0240831
0.0244598
0.024808
0.0251178
0.025379
0.0255807
0.0257126
0.0257658
0.025734
0.0256157
0.0254154
0.0251383
0.0247964
0.0244105
0.0240086
0.0236251
0.0232968
0.0230661
0.0229789
0.0230667
0.0234004
0.0239333
0.00583478
0.00612412
0.00637537
0.00660649
0.00683362
0.00707221
0.00732949
0.00760865
0.00790985
0.00823137
0.0085705
0.00892413
0.00928907
0.00966228
0.010041
0.0104228
0.0108055
0.0111872
0.0115666
0.0119422
0.0123131
0.0126786
0.0130379
0.0133906
0.0137365
0.0140754
0.0144071
0.0147319
0.0150498
0.0153611
0.0156662
0.0159655
0.0162596
0.0165491
0.0168347
0.0171173
0.0173979
0.0176775
0.0179573
0.0182383
0.0185221
0.0188102
0.0191056
0.0194095
0.0197232
0.0200482
0.0203859
0.0207374
0.0211038
0.0214859
0.0218843
0.0222988
0.0227292
0.0231742
0.023632
0.0241001
0.0245749
0.0250519
0.0255258
0.0259901
0.0264376
0.02686
0.027249
0.0275957
0.0278916
0.0281292
0.0283029
0.0284106
0.0284509
0.0284245
0.0283363
0.0281945
0.028009
0.027794
0.027579
0.0273829
0.0272268
0.0271296
0.0271594
0.0273077
0.00636839
0.00661333
0.00684018
0.00705769
0.00727507
0.00750288
0.0077483
0.00801498
0.00830392
0.00861416
0.00894358
0.00928947
0.00964888
0.0100189
0.0103969
0.0107802
0.0111667
0.0115544
0.0119416
0.012327
0.0127093
0.0130876
0.013461
0.0138291
0.0141912
0.0145471
0.0148966
0.0152396
0.0155761
0.0159064
0.0162306
0.0165491
0.0168624
0.017171
0.0174756
0.0177771
0.0180763
0.0183743
0.0186723
0.0189714
0.0192731
0.0195787
0.0198911
0.0202121
0.0205433
0.0208862
0.0212424
0.0216134
0.0220006
0.0224051
0.0228278
0.0232691
0.0237289
0.0242067
0.0247011
0.0252102
0.025731
0.0262597
0.0267916
0.0273212
0.0278418
0.0283464
0.0288274
0.0292766
0.0296861
0.0300487
0.0303583
0.0306098
0.0307982
0.0309204
0.0309754
0.0309625
0.0308801
0.0307383
0.0305576
0.0303564
0.0301448
0.0299313
0.0297615
0.0296367
0.00692527
0.00713809
0.00734438
0.0075491
0.00775838
0.00797615
0.00820965
0.00846276
0.00873738
0.00903353
0.00934987
0.00968426
0.0100341
0.0103969
0.0107698
0.0111505
0.0115368
0.0119265
0.0123178
0.0127093
0.0130996
0.0134876
0.0138722
0.0142528
0.0146286
0.0149992
0.0153643
0.0157236
0.0160771
0.0164247
0.0167666
0.017103
0.0174344
0.0177611
0.0180838
0.0184033
0.0187203
0.019036
0.0193514
0.0196678
0.0199865