/*--------------------------------*- C++ -*----------------------------------*\
| =========                 |                                                 |
| \\      /  F ield         | OpenFOAM: The Open Source CFD Toolbox           |
|  \\    /   O peration     | Version:  v2012                                 |
|   \\  /    A nd           | Website:  www.openfoam.com                      |
|    \\/     M anipulation  |                                                 |
\*---------------------------------------------------------------------------*/
FoamFile
{
    version     2.0;
    format      ascii;
    class       volScalarField;
    location    "569";
    object      nut;
}
// * * * * * * * * * * * * * * * * * * * * * * * * * * * * * * * * * * * * * //

dimensions      [0 2 -1 0 0 0 0];


internalField   nonuniform List<scalar> 
6598
(
0.00258818
0.00909035
0.0107862
0.0110598
0.0110204
0.0110204
0.0110598
0.0107862
0.00909035
0.00258818
0.00198237
0.00753424
0.00996005
0.0105957
0.0106758
0.0106758
0.0105957
0.00996005
0.00753424
0.00198237
0.00160684
0.00652677
0.00920196
0.0101202
0.0103342
0.0103342
0.0101202
0.00920197
0.00652678
0.00160684
0.00135613
0.00581119
0.00854117
0.00965367
0.0099868
0.00998681
0.00965367
0.00854119
0.00581121
0.00135613
0.00117849
0.00527105
0.00797281
0.00920872
0.00963579
0.00963579
0.00920873
0.00797283
0.00527108
0.00117849
0.00104648
0.004845
0.00748305
0.00879102
0.00928651
0.00928651
0.00879104
0.00748308
0.00484503
0.00104648
0.000944534
0.00449747
0.00705763
0.00840207
0.00894413
0.00894414
0.0084021
0.00705769
0.00449752
0.000944537
0.000863324
0.00420645
0.00668437
0.00804115
0.00861259
0.00861261
0.00804121
0.00668446
0.00420653
0.000863329
0.000796969
0.0039576
0.00635351
0.00770653
0.00829445
0.00829448
0.00770662
0.00635365
0.00395773
0.000796976
0.000741605
0.00374119
0.00605741
0.00739612
0.00799116
0.00799121
0.00739626
0.00605761
0.00374138
0.000741615
0.0006946
0.00355038
0.00579014
0.00710777
0.00770331
0.00770339
0.00710799
0.00579045
0.00355066
0.000694614
0.000654106
0.00338022
0.00554709
0.00683945
0.00743091
0.00743104
0.00683978
0.00554754
0.00338064
0.000654126
0.000618785
0.00322703
0.00532462
0.0065893
0.00717359
0.00717378
0.00658978
0.00532529
0.00322767
0.000618814
0.00058765
0.00308804
0.00511986
0.00635562
0.00693073
0.00693102
0.00635633
0.00512086
0.00308897
0.000587692
0.000559954
0.00296105
0.00493048
0.00613688
0.00670158
0.006702
0.00613796
0.00493195
0.00296242
0.000560013
0.000535121
0.00284435
0.00475456
0.00593174
0.00648531
0.00648591
0.00593335
0.00475673
0.00284634
0.000535205
0.000512701
0.00273652
0.00459052
0.00573896
0.00628109
0.00628193
0.00574131
0.00459376
0.00273941
0.00051282
0.000492334
0.00263639
0.004437
0.00555742
0.00608808
0.00608927
0.00556077
0.00444179
0.00264054
0.000492503
0.000473732
0.002543
0.00429285
0.00538614
0.0059055
0.00590716
0.00539087
0.00429969
0.00254908
0.000473971
0.000456659
0.00245555
0.00415715
0.00522434
0.00573277
0.0057351
0.00523102
0.00416683
0.00246329
0.000456986
0.000441316
0.00237512
0.00403163
0.0050742
0.00557232
0.00557561
0.00508393
0.00404804
0.00240625
0.000499803
0.000427083
0.00229905
0.00391264
0.00493176
0.00542017
0.00542485
0.00494612
0.00394012
0.00236091
0.000557767
0.000413825
0.00222669
0.00379916
0.00479584
0.00527514
0.00528169
0.00481664
0.00384199
0.00233
0.000630712
0.000401431
0.00215758
0.00369058
0.00466582
0.00513664
0.00514553
0.00469461
0.00375118
0.00232542
0.000724175
0.000389804
0.00209133
0.00358634
0.00454112
0.00500408
0.00501543
0.00457809
0.0036721
0.00234469
0.000844266
0.000378861
0.00202755
0.00348593
0.00442119
0.00487694
0.00489123
0.00446637
0.00360726
0.00237732
0.000991951
0.000368523
0.00196587
0.00338876
0.00430537
0.00475462
0.00477277
0.00436362
0.00355087
0.00241404
0.00116489
0.000358411
0.00190423
0.00329181
0.00419028
0.00463377
0.00465714
0.00426737
0.00350168
0.00245446
0.00136376
0.000348813
0.0018442
0.00319732
0.00407847
0.00451712
0.00454716
0.00417942
0.0034609
0.00250015
0.00157564
0.000339674
0.00178551
0.00310508
0.00396985
0.00440473
0.00444294
0.00409934
0.00342822
0.00255266
0.00178038
0.000330942
0.00172789
0.00301463
0.00386397
0.0042962
0.00434412
0.00402651
0.00340329
0.00261214
0.00197496
0.000322568
0.00167108
0.00292552
0.00376034
0.00419113
0.0042503
0.00396035
0.00338574
0.00267756
0.00215684
0.000314508
0.00161474
0.00283727
0.00365847
0.00408907
0.00416106
0.00390031
0.0033749
0.00274584
0.00232389
0.000306716
0.00155855
0.00274941
0.00355783
0.00398952
0.00407589
0.0038458
0.00336994
0.00281507
0.00247479
0.000299152
0.00150222
0.00266139
0.00345784
0.00389192
0.00399424
0.00379614
0.00336978
0.0028835
0.00260894
0.000291776
0.00144547
0.0025727
0.00335788
0.00379564
0.00391546
0.00375055
0.0033733
0.00294948
0.00272632
0.000284545
0.00138808
0.0024828
0.00325728
0.00369999
0.00383881
0.00370813
0.0033793
0.00301166
0.00282745
0.000277422
0.00132984
0.00239118
0.00315534
0.00360419
0.00376343
0.00366788
0.00338654
0.00306902
0.00291329
0.000270367
0.00127065
0.00229736
0.00305133
0.00350738
0.00368837
0.00362867
0.00339377
0.00312097
0.00298528
0.00026334
0.00121047
0.00220096
0.00294453
0.00340862
0.00361251
0.00358926
0.00339976
0.00316724
0.00304528
0.000256301
0.00114935
0.00210167
0.00283419
0.00330687
0.00353462
0.00354826
0.00340328
0.00320781
0.00309549
0.000249212
0.00108742
0.00199929
0.0027196
0.00320101
0.00345329
0.00350412
0.003403
0.00324274
0.00313825
0.000242031
0.00102484
0.00189375
0.00260009
0.00308979
0.00336689
0.00345508
0.00339742
0.00327188
0.00317576
0.000234715
0.000961838
0.00178509
0.00247501
0.0029719
0.00327359
0.00339903
0.00338468
0.0032946
0.00320959
0.000227217
0.000898676
0.00167344
0.0023438
0.00284592
0.00317125
0.00333349
0.00336238
0.00330937
0.00324009
0.000219488
0.000835627
0.00155906
0.00220597
0.00271036
0.00305752
0.00325549
0.00332742
0.00331355
0.00326584
0.000211467
0.000772942
0.00144226
0.00206117
0.00256376
0.00292982
0.00316162
0.00327589
0.00330311
0.00328324
0.000203086
0.000710826
0.00132342
0.00190921
0.00240476
0.00278547
0.00304809
0.00320317
0.0032727
0.00328641
0.000194254
0.000649425
0.00120298
0.00175012
0.00223232
0.00262204
0.00291106
0.00310416
0.00321597
0.00326753
0.000184855
0.000588828
0.00108143
0.00158435
0.002046
0.00243769
0.00274714
0.00297389
0.00312614
0.00321768
0.000174716
0.000528959
0.000959433
0.00141293
0.00184641
0.0022319
0.00255422
0.00280841
0.0029971
0.00312803
0.000163569
0.000469718
0.00083801
0.00123798
0.00163598
0.00200645
0.00233268
0.00260615
0.00282488
0.00299155
0.000131616
0.000412489
0.000719392
0.00106343
0.00141988
0.00176664
0.00208684
0.00236958
0.00260938
0.00280441
9.69954e-05
0.000363626
0.000611166
0.000897595
0.00120739
0.00152224
0.00182599
0.0021064
0.00235462
0.0025657
0.000112551
0.000319639
0.000526857
0.000756791
0.00101514
0.00128952
0.0015654
0.00182882
0.00207067
0.0022857
9.37583e-05
0.000303631
0.000474717
0.000657439
0.00086468
0.00109153
0.00132598
0.00155817
0.00178
0.00198537
7.10507e-05
0.000296203
0.000445647
0.000601676
0.000767655
0.000945778
0.00113371
0.00132572
0.00151534
0.0016852
6.34127e-05
0.000278313
0.000441636
0.000576036
0.000682058
0.000783405
0.000896088
0.00101976
0.00114991
0.00127884
6.47449e-05
0.000210164
0.000414839
0.000536655
0.000648402
0.000678091
0.000717968
0.000786447
0.000879181
0.000974453
6.80492e-05
0.000112939
0.000137955
0.000168252
0.000195303
0.000218749
0.000234185
0.000246786
0.000257299
0.000265819
0.000122009
0.000153735
0.000153038
0.000153504
0.000152683
0.000149445
0.000142396
0.000135544
0.000129076
0.00012286
0.000116817
0.000111101
0.000105719
0.000100636
9.57529e-05
9.11443e-05
8.68841e-05
8.27872e-05
7.87071e-05
7.45068e-05
7.00252e-05
6.5038e-05
4.51812e-05
4.7239e-05
3.38639e-05
0.000218553
0.000460743
0.000654526
0.000737421
0.000764352
0.00076191
0.000683926
0.000624606
0.000615428
0.000607144
0.000566594
0.000529561
0.000495546
0.00046426
0.000434457
0.000398196
0.000353718
0.000306032
0.000259033
0.000215367
0.000177019
0.000145258
0.000121441
9.32385e-05
4.11221e-05
0.000356222
0.00059292
0.000794787
0.00092872
0.000973547
0.000943773
0.000766849
0.000651555
0.000605762
0.000607956
0.000647778
0.000690048
0.00065826
0.000630404
0.000604074
0.000572515
0.000527488
0.000470453
0.000404766
0.000335608
0.000269241
0.00021155
0.000166536
0.000131178
3.499e-05
0.000602275
0.000622506
0.000848633
0.000971049
0.00100952
0.000990453
0.000882626
0.000737883
0.000643234
0.000614432
0.000636494
0.000657874
0.000634212
0.000621505
0.000614034
0.000603339
0.00057833
0.000536071
0.000476844
0.000404813
0.000327866
0.000255476
0.000195486
0.000145642
4.4426e-05
0.000928958
0.000817607
0.000988816
0.00102968
0.00102497
0.000979734
0.00091458
0.000844001
0.0007372
0.000660462
0.000617846
0.000567271
0.000542466
0.000541405
0.000553797
0.000565969
0.000563445
0.000539448
0.000493244
0.000428322
0.000352348
0.000275983
0.000209074
0.000149832
4.3194e-05
0.00118763
0.00113419
0.00120103
0.00115559
0.00108935
0.000999495
0.000905145
0.000817378
0.00073124
0.00064357
0.000559124
0.000492576
0.000457785
0.000457789
0.000482363
0.000510832
0.000523132
0.0005108
0.000474886
0.000418741
0.000349174
0.00027617
0.000209393
0.000146419
4.12373e-05
0.00139482
0.00151381
0.00143809
0.00131919
0.00119537
0.00106016
0.000937553
0.000832002
0.000731018
0.00062798
0.000530908
0.000453995
0.000409374
0.000399262
0.000416301
0.000443246
0.000460014
0.000454033
0.000426534
0.00038072
0.000322506
0.000259883
0.000199637
0.000137714
3.92061e-05
0.00159765
0.00175257
0.00167695
0.00150839
0.00132955
0.00115025
0.000998365
0.000876065
0.000760107
0.000641645
0.000531415
0.000444085
0.000387329
0.000360934
0.000360044
0.000372745
0.00038299
0.000378299
0.000357985
0.000323891
0.000280397
0.000233192
0.000186648
0.000122522
4.40056e-05
0.00179286
0.00197024
0.001912
0.00171712
0.0014892
0.00126712
0.00108524
0.000947582
0.000817983
0.000683623
0.000558766
0.000459771
0.000390014
0.000345321
0.000321618
0.000313153
0.000311078
0.000305367
0.000291232
0.000268972
0.000241296
0.000211625
0.000165044
0.000133241
0.000138407
0.00197951
0.00217174
0.00213827
0.00193861
0.00166165
0.00139946
0.00119348
0.00104313
0.000905458
0.000757286
0.000616763
0.000504938
0.000424143
0.000366745
0.000326396
0.000299493
0.000283964
0.000276608
0.000268458
0.00025894
0.00024987
0.000243906
0.000243677
0.000234683
0.000195288
0.00215675
0.00235715
0.00234519
0.00214046
0.00183549
0.00154182
0.00131655
0.00116185
0.0010246
0.000869194
0.00071426
0.000587698
0.000495993
0.000431909
0.000387424
0.000357257
0.000338822
0.00033136
0.000327963
0.000327493
0.000330128
0.000336092
0.000337902
0.000351861
0.000386756
0.00232262
0.0025257
0.00253144
0.00232911
0.00200977
0.00169097
0.00145106
0.00129936
0.00117433
0.00102399
0.000861721
0.000720441
0.000613442
0.000537942
0.000487216
0.000454885
0.0004364
0.000427878
0.0004248
0.000426305
0.000432625
0.000445109
0.000467257
0.000507047
0.000573478
0.00247571
0.00267638
0.00269685
0.00250685
0.0021869
0.00184467
0.00159225
0.00144829
0.00134762
0.0012086
0.00106429
0.000918299
0.000798516
0.000707533
0.000643271
0.000601579
0.000578788
0.000567075
0.000565408
0.000572853
0.000590167
0.000620189
0.000668497
0.000744056
0.000857744
0.00261407
0.00280853
0.00284147
0.00266984
0.00235023
0.00199983
0.00173656
0.00160043
0.00153236
0.00129083
0.00117083
0.0011334
0.00106292
0.00096803
0.000895597
0.000844458
0.00081352
0.000795499
0.000792822
0.000805828
0.000836796
0.000888001
0.000962842
0.00106167
0.00112743
0.00273617
0.00292231
0.00296708
0.00281821
0.0025089
0.00216266
0.00188431
0.00174924
0.00171424
0.00152705
0.00130778
0.00123406
0.00122001
0.00122638
0.00122809
0.00117646
0.00113631
0.00111438
0.00111202
0.00113019
0.001146
0.00114772
0.0011845
0.00126808
0.00140394
0.00284116
0.00301764
0.00307384
0.00295131
0.00266346
0.00232259
0.00203944
0.00189231
0.00187858
0.00190509
0.00162051
0.00148484
0.00143807
0.00141772
0.0014066
0.00139399
0.0013767
0.00135624
0.00133817
0.00133195
0.00135016
0.00139679
0.00147121
0.00158314
0.00172849
0.00292884
0.00309452
0.00316142
0.00306765
0.00281569
0.00248434
0.00219687
0.00203491
0.0020182
0.00208411
0.00212602
0.0019471
0.0018555
0.00180697
0.0017691
0.00173958
0.00171682
0.001701
0.00169418
0.00170238
0.00173118
0.00178466
0.00186441
0.0019703
0.00209567
0.0029997
0.00315324
0.00322972
0.00316641
0.00295786
0.00264997
0.00235864
0.00217625
0.00214022
0.00221528
0.0023227
0.00240882
0.0024543
0.00240494
0.00235132
0.00231249
0.00228248
0.00226096
0.00224973
0.00225006
0.00226361
0.00229433
0.00234482
0.00241696
0.00250919
0.0030549
0.00319449
0.00327889
0.00324569
0.00308287
0.00281882
0.00252918
0.002324
0.0022525
0.00230651
0.00242663
0.00255045
0.0026537
0.00272585
0.00277186
0.00280549
0.00283791
0.00287648
0.00292484
0.00289459
0.0028711
0.00286052
0.0028681
0.00289879
0.00295385
0.00309633
0.00321957
0.0033089
0.00330345
0.00318648
0.00297389
0.00271494
0.00248977
0.00237751
0.00238996
0.0024924
0.00262936
0.00276094
0.00287606
0.00297265
0.00305317
0.00312513
0.00319539
0.00326838
0.00334744
0.00343319
0.00339457
0.00336359
0.0033601
0.00338581
0.00312664
0.00323066
0.00332058
0.00333877
0.00326472
0.00310551
0.00289275
0.00267966
0.00253054
0.00249224
0.00255313
0.00267362
0.00281256
0.00294573
0.00306607
0.0031749
0.00327518
0.00336966
0.00346017
0.00354892
0.00363719
0.00372524
0.0037581
0.00373595
0.00373748
0.00314917
0.00323105
0.00331611
0.00335204
0.00331533
0.0032069
0.00304571
0.00286673
0.00271507
0.00263209
0.0026397
0.00272049
0.0028413
0.00297496
0.00310483
0.0032254
0.00333675
0.00344073
0.00353905
0.00363251
0.0037217
0.00380694
0.00388818
0.00395963
0.00396014
0.00316767
0.00322519
0.00329938
0.00334543
0.0033386
0.00327442
0.00316363
0.00302812
0.0028982
0.00280483
0.00277081
0.00280147
0.00288474
0.00300006
0.00312429
0.00324739
0.00336514
0.00347624
0.00358045
0.00367771
0.00376807
0.00385162
0.00392855
0.0039992
0.00404421
0.0031858
0.00321835
0.00327608
0.0033236
0.00333723
0.00330848
0.00324176
0.00315075
0.0030544
0.00297406
0.00292849
0.00292824
0.00297331
0.00305443
0.00315748
0.00327035
0.00338492
0.00349647
0.00360225
0.00370061
0.00379086
0.00387299
0.00394716
0.00398465
0.00400942
0.00320626
0.0032158
0.00325321
0.0032938
0.00331728
0.00331334
0.00328157
0.00322924
0.00316851
0.00311325
0.00307652
0.00306841
0.00309326
0.00314871
0.00322769
0.00332157
0.00342253
0.00352438
0.00362312
0.00367671
0.00368166
0.00370159
0.00373456
0.00377162
0.00380779
0.00322984
0.00322152
0.00323788
0.00326501
0.00328808
0.00329722
0.00328926
0.00326686
0.00323674
0.0032077
0.00318884
0.00318776
0.00320921
0.00325352
0.00331687
0.00339343
0.00347697
0.00345266
0.00341064
0.00339488
0.0034007
0.00342125
0.00345132
0.00348707
0.00352515
0.00325441
0.00323655
0.00323527
0.00324611
0.00326075
0.0032719
0.00327568
0.00327206
0.00326408
0.00325688
0.00325613
0.003267
0.00329306
0.00333516
0.00339077
0.00340677
0.0033063
0.00322704
0.0031792
0.00315734
0.00315387
0.00316372
0.00318432
0.00321296
0.00324679
0.00327444
0.00325765
0.00324631
0.00324297
0.00324552
0.00325042
0.00325501
0.00325853
0.00326214
0.00326838
0.00328048
0.00330157
0.00333394
0.00337786
0.00342443
0.00326896
0.00314752
0.00306247
0.0030057
0.00297184
0.00295658
0.00295594
0.00296687
0.00298686
0.00301366
0.00328113
0.00327665
0.00326589
0.00325538
0.00324766
0.00324304
0.00324136
0.00324264
0.00324756
0.0032574
0.0032739
0.00329879
0.00333331
0.00337732
0.00340887
0.00321494
0.00306805
0.00296551
0.00289221
0.00284236
0.00281255
0.00279928
0.00279909
0.00280913
0.00282727
0.00326337
0.00328125
0.00328248
0.00327491
0.00326368
0.0032524
0.00324323
0.00323765
0.00323691
0.00324224
0.00325481
0.00327568
0.0033055
0.00334415
0.00338989
0.0033075
0.00311529
0.00297364
0.00287323
0.00280233
0.00275264
0.00272076
0.00270372
0.00269856
0.00270329
0.00320928
0.00325669
0.00327936
0.003285
0.0032802
0.00326991
0.00325786
0.00324689
0.00323921
0.00323657
0.00324035
0.00325158
0.00327085
0.00329825
0.00333311
0.00337347
0.00335868
0.00315968
0.00300869
0.00289966
0.00282058
0.00276356
0.00272427
0.00269845
0.00268428
0.00310806
0.00318731
0.00323727
0.00326481
0.00327604
0.00327613
0.00326943
0.0032595
0.00324925
0.00324103
0.00323667
0.00323754
0.00324454
0.00325811
0.00327823
0.00330435
0.00333528
0.00336919
0.00336576
0.00320243
0.00307427
0.00297919
0.00290875
0.00285668
0.00281954
0.00295028
0.00306008
0.00313946
0.00319359
0.00322752
0.0032459
0.00325291
0.0032522
0.00324691
0.00323968
0.00323268
0.00322762
0.00322575
0.00322795
0.00323469
0.0032461
0.00326199
0.00328184
0.00330485
0.00332982
0.00335605
0.00338276
0.0032948
0.00320533
0.00313795
0.00273349
0.00286879
0.00297518
0.00305608
0.00311517
0.00315615
0.00318257
0.00319769
0.00320449
0.00320557
0.00320318
0.00319918
0.00319507
0.00319202
0.00319086
0.00319216
0.00319624
0.0032032
0.00321296
0.00322524
0.00323972
0.00325599
0.0032733
0.00329123
0.00330942
0.00246483
0.00261705
0.00274402
0.00284746
0.00292962
0.00299303
0.00304034
0.00307421
0.00309716
0.0031115
0.00311934
0.00312252
0.00312258
0.00312082
0.00311827
0.00311575
0.00311386
0.00311302
0.00311352
0.0031155
0.003119
0.00312399
0.00313032
0.00313781
0.00314629
0.00216334
0.00232097
0.00245825
0.00257544
0.00267363
0.00275425
0.00281899
0.00286972
0.00290837
0.00293683
0.00295685
0.00297008
0.00297796
0.00298176
0.00298254
0.0029812
0.00297848
0.00297497
0.00297112
0.00296729
0.00296374
0.00296065
0.00295812
0.00295624
0.00295505
0.00182414
0.00196071
0.00210154
0.00225017
0.00235944
0.00244676
0.00252
0.00258027
0.00262883
0.00266702
0.00269617
0.00271755
0.00273238
0.00274176
0.00274665
0.00274792
0.00274632
0.00274247
0.0027369
0.00273005
0.00272229
0.00271392
0.00270516
0.00269621
0.00268731
0.00140101
0.00152451
0.00165261
0.00178781
0.00193407
0.00206303
0.00213022
0.00218623
0.00223195
0.00226833
0.0022963
0.00231682
0.0023308
0.00233911
0.00234255
0.00234187
0.00233773
0.00233071
0.00232134
0.00231006
0.00229726
0.00228329
0.00226842
0.00225291
0.00223706
0.0010686
0.0011702
0.00127842
0.00138116
0.00142859
0.00146875
0.00150148
0.00152722
0.00154648
0.00155982
0.00156785
0.00157113
0.00157026
0.0015658
0.00155826
0.00154814
0.00153589
0.00152191
0.00150656
0.00149015
0.00147295
0.00145521
0.00143713
0.00141888
0.00140067
0.000272543
0.000278286
0.00028326
0.000287553
0.000291068
0.0002939
0.000296106
0.000297738
0.000298842
0.000299468
0.000299661
0.000299468
0.000298932
0.000298094
0.000296995
0.000295672
0.000294159
0.000292488
0.000290686
0.000288779
0.000286789
0.000284736
0.000282637
0.000280507
0.000278359
3.87357e-05
5.39601e-05
6.45812e-05
0.000137217
0.000125284
0.000241522
0.000234731
0.000336248
0.000430793
0.000445703
0.000542614
0.000716892
0.000688435
0.000850169
0.00108691
0.00101925
0.001165
0.00138433
0.00127756
0.00146928
0.00168611
0.00157721
0.0017595
0.0019588
0.00188726
0.00205042
0.00223316
0.00223085
0.00237478
0.00253943
0.00261673
0.00273771
0.0028799
0.00303077
0.00312551
0.00324167
0.00343648
0.00350679
0.00359662
0.00376724
0.00381733
0.00388307
0.00397403
0.00400782
0.00405463
0.00406138
0.00408611
0.00412043
0.0040324
0.00405749
0.00408741
0.00383947
0.00386976
0.00390322
0.00356086
0.00359537
0.0036324
0.00328059
0.00331425
0.00335057
0.00304222
0.0030721
0.00310518
0.00284866
0.00287295
0.00290102
0.00271341
0.00272854
0.00274826
0.00267807
0.00267927
0.0026861
0.00279346
0.00277696
0.00276703
0.00308863
0.00305277
0.0030253
0.0033258
0.00334214
0.0033586
0.00315443
0.00316315
0.00317238
0.00295436
0.00295425
0.00295458
0.00267927
0.00267148
0.00266377
0.00222262
0.00220822
0.00219368
0.00138455
0.00136866
0.00135291
0.000276465
0.00027458
0.000272703
2.55017e-05
4.31557e-05
5.33293e-05
5.44702e-05
6.63782e-05
7.11602e-05
7.52829e-05
7.89234e-05
8.21931e-05
8.51659e-05
8.78941e-05
9.04167e-05
9.27646e-05
9.4963e-05
9.7033e-05
9.89928e-05
0.000100858
0.000102644
0.000104362
0.000106024
0.00010764
0.00010922
0.000110773
0.000112308
0.000113834
0.000115358
0.00011689
0.000118439
0.000120014
0.000121626
0.00012329
0.000125018
0.00012683
0.000128749
0.000130738
0.000132776
0.000134866
0.000137014
0.000139223
0.000141484
0.000143804
0.000146194
0.000148658
0.000151199
0.000153821
0.000156526
0.000159319
0.0001622
0.00016517
0.000168226
0.000171365
0.000174575
0.000177838
0.000181125
0.000184386
0.000187545
0.000190478
0.000192994
0.000194855
0.000195995
0.000196606
0.000196759
0.000196412
0.000194882
0.000192329
0.000188617
0.000183534
0.000177447
0.000170603
0.000163101
0.000155091
0.000146608
0.000138673
0.000130859
0.000122881
0.000114494
0.000105375
8.58726e-05
8.17531e-05
5.48568e-05
4.43609e-05
0.00012649
0.000146196
0.000165639
0.000190157
0.000218268
0.000248201
0.000279301
0.000310926
0.000342543
0.000373712
0.000404095
0.000433453
0.000461635
0.000488566
0.000514228
0.000538647
0.00056188
0.000584001
0.000605096
0.000625257
0.000644572
0.000663129
0.000681006
0.000698273
0.00071499
0.000731206
0.000746959
0.000762268
0.000777134
0.000791541
0.000805445
0.000818685
0.000831226
0.000844208
0.000857781
0.00087176
0.000886122
0.000900811
0.000915799
0.000931163
0.000946946
0.000963163
0.000979821
0.000996923
0.00101446
0.00103242
0.00105078
0.00106947
0.00108843
0.00110754
0.00112665
0.00114551
0.00116379
0.00118099
0.00119642
0.0012091
0.00121771
0.00122051
0.0012149
0.00120298
0.0011854
0.00116144
0.00112877
0.00108981
0.00104489
0.000994803
0.00094228
0.00088777
0.000830746
0.000772077
0.000706617
0.000615023
0.00051474
0.000417015
0.000329558
0.000257345
0.000203344
0.000162856
6.38364e-05
5.50961e-05
0.000188271
0.000238746
0.000290258
0.000347091
0.000411875
0.000481586
0.000553961
0.00062707
0.000699396
0.000769816
0.000837566
0.000902183
0.000963436
0.00102126
0.00107573
0.00112697
0.00117517
0.00122053
0.00126327
0.00130361
0.00134175
0.00137788
0.00141218
0.00144481
0.0014759
0.00150558
0.00153396
0.00156113
0.00158715
0.00161211
0.00163602
0.00165892
0.00168084
0.00170181
0.00172346
0.00174542
0.00176742
0.00178936
0.00181121
0.00183292
0.00185447
0.00187577
0.00189674
0.00191727
0.0019372
0.00195636
0.00197452
0.00199142
0.00200671
0.00202001
0.00203084
0.00203862
0.00204263
0.00204205
0.00203582
0.00202276
0.00200146
0.00197036
0.00179189
0.00161077
0.00146527
0.0013516
0.00126611
0.0012106
0.00118018
0.00117414
0.00120196
0.00122762
0.00115388
0.00108132
0.00100405
0.000900537
0.000772358
0.000630707
0.000490852
0.000368333
0.000273822
0.000202679
6.61742e-05
5.92057e-05
0.00023487
0.000328954
0.000439451
0.000535815
0.000642453
0.000754999
0.00086977
0.000983771
0.00109481
0.00120142
0.00130275
0.00139839
0.00148822
0.00157235
0.00165101
0.00172451
0.00179317
0.00185734
0.00191735
0.00197353
0.00202617
0.00207557
0.00212196
0.00216558
0.00220664
0.00224531
0.00228177
0.00231615
0.00234859
0.00237918
0.00240801
0.00243515
0.00246067
0.00248459
0.00250696
0.00252938
0.00255115
0.00257199
0.00259171
0.00261017
0.00262723
0.0026427
0.00265639
0.00266804
0.00267736
0.00268402
0.00268764
0.00268777
0.0026839
0.00267548
0.00266188
0.0026424
0.0026163
0.00258279
0.00254101
0.00249008
0.00242916
0.00235741
0.00222418
0.00196001
0.00173808
0.00155336
0.00140316
0.00128808
0.00120543
0.00115397
0.00113551
0.0011502
0.00117296
0.00110241
0.00103517
0.000951345
0.000836055
0.000697379
0.000550294
0.000413443
0.000302308
0.000213534
6.38068e-05
7.02068e-05
0.000281916
0.000408209
0.000566388
0.000741522
0.00089803
0.00105048
0.00120297
0.00135205
0.00149538
0.0016316
0.00176001
0.00188045
0.00199301
0.00209801
0.00219582
0.0022869
0.00237169
0.00245063
0.00252414
0.00259261
0.0026564
0.00271584
0.00277124
0.00282286
0.00287095
0.00291572
0.00295736
0.00299604
0.0030319
0.00306506
0.00309562
0.00312364
0.00314918
0.00317227
0.00319291
0.00321148
0.00322892
0.00324459
0.00325814
0.00326932
0.0032779
0.00328364
0.00328626
0.00328541
0.00328075
0.00327184
0.00325821
0.00323933
0.00321461
0.0031834
0.00314502
0.00309875
0.00304383
0.00297962
0.00290546
0.00282071
0.00272485
0.00261748
0.00249841
0.00236761
0.00222547
0.00197158
0.00173155
0.00153443
0.00137023
0.00123694
0.00113598
0.00106353
0.00102924
0.00100569
0.000930346
0.000859674
0.000768187
0.000652082
0.000525449
0.00040298
0.00029746
0.0002052
5.91109e-05
5.1783e-05
0.000324503
0.000479708
0.000678606
0.000910806
0.0011698
0.00135577
0.00153923
0.00171636
0.00188506
0.00204429
0.0021937
0.00233336
0.00246362
0.00258493
0.00269783
0.00280283
0.00290047
0.00299123
0.00307557
0.00315393
0.00322669
0.00329421
0.00335681
0.00341477
0.00346836
0.00351781
0.00356332
0.00360505
0.00364317
0.00367779
0.00370901
0.00373691
0.00376154
0.00378292
0.00380106
0.00381591
0.00382841
0.0038386
0.00384597
0.00385018
0.00385095
0.003848
0.003841
0.00382961
0.00381341
0.00379195
0.00376471
0.00373112
0.00369054
0.00364228
0.00358561
0.00351974
0.00344384
0.00335722
0.00325923
0.00314936
0.00302712
0.00289228
0.0027446
0.00258468
0.00241378
0.00223408
0.00204844
0.00186122
0.00167746
0.00150228
0.00133831
0.00114607
0.000994442
0.000892833
0.00081376
0.000715862
0.000632775
0.000542712
0.000449872
0.000357268
0.000269102
0.000178299
5.49775e-05
8.7894e-05
0.000268004
0.000534818
0.00078713
0.00109764
0.00145246
0.00166449
0.00187171
0.00207005
0.00225778
0.00243423
0.00259942
0.00275366
0.00289749
0.00303149
0.00315626
0.00327238
0.0033804
0.00348083
0.00357415
0.0036608
0.00374116
0.00381561
0.00388447
0.00394802
0.00400654
0.00406024
0.00410935
0.00415403
0.00419443
0.0042307
0.00426292
0.00429119
0.00431557
0.00433609
0.00435278
0.00436562
0.00437461
0.00438096
0.00438411
0.00438369
0.00437936
0.00437084
0.0043578
0.00433988
0.00431668
0.00428773
0.0042525
0.0042104
0.00416077
0.00410288
0.00403595
0.00395913
0.00387158
0.00377231
0.00366056
0.00353551
0.00339648
0.00324377
0.00307673
0.00289554
0.00270134
0.00249605
0.00228266
0.00206556
0.00185004
0.00164263
0.00144572
0.00126425
0.00109827
0.000946137
0.00080506
0.000673117
0.000553534
0.000457992
0.000382608
0.000310804
0.000239035
0.000156744
5.23526e-05
0.000182893
0.000385893
0.000672138
0.000975594
0.00138204
0.00175005
0.00198143
0.00220565
0.002419
0.00262016
0.00280888
0.00298547
0.00315049
0.00330456
0.00344835
0.00358248
0.00370756
0.00382413
0.0039327
0.00403373
0.00412764
0.00421481
0.00429561
0.00437034
0.00443929
0.00450271
0.00456084
0.00461388
0.004662
0.00470537
0.00474411
0.00477834
0.00480815
0.0048336
0.00485476
0.00487166
0.00488431
0.00489269
0.00489705
0.00489826
0.00489578
0.00488925
0.00487836
0.00486281
0.00484227
0.00481634
0.00478459
0.0047465
0.00470148
0.00464887
0.00458791
0.00451777
0.00443755
0.0043463
0.00424301
0.0041267
0.00399641
0.00385115
0.00369041
0.00351358
0.00332065
0.00311219
0.00288954
0.00265493
0.00241265
0.00216671
0.00192376
0.00168833
0.00146683
0.00126363
0.00108172
0.000921387
0.000779591
0.000623296
0.000474178
0.000355772
0.000312608
0.000234081
0.000201002
0.000156679
0.000373472
0.000654089
0.000919125
0.00131952
0.00180334
0.00205522
0.00230025
0.00253519
0.00275779
0.00296733
0.00316396
0.00334821
0.00352074
0.00368225
0.00383341
0.00397486
0.00410714
0.0042308
0.0043463
0.00445408
0.00455452
0.004648
0.00473484
0.00481534
0.00488977
0.00495838
0.00502138
0.00507897
0.00513133
0.00517862
0.00522096
0.00525848
0.00529127
0.00531942
0.00534298
0.00536201
0.00537651
0.00538649
0.0053919
0.0053936
0.00539167
0.00538572
0.00537549
0.00536071
0.00534107
0.00531624
0.00528583
0.00524936
0.00520629
0.00515597
0.00509768
0.00503059
0.00495378
0.00486625
0.0047669
0.00465463
0.00452827
0.00438672
0.00422893
0.00405405
0.00386158
0.0036515
0.00342445
0.00318192
0.0029265
0.00266172
0.00239194
0.00212163
0.00185623
0.00160403
0.00137269
0.00116928
0.000997272
0.000855552
0.000740193
0.000647523
0.000575929
0.000534322
0.000511335
0.000500296
0.000652673
0.00101016
0.00133737
0.00183223
0.00210741
0.00236962
0.00262107
0.00286042
0.00308666
0.00329968
0.00349994
0.00368808
0.00386484
0.0040309
0.0041869
0.00433343
0.00447099
0.00460007
0.00472108
0.00483441
0.00494043
0.00503946
0.00513179
0.0052177
0.00529743
0.00537121
0.00543925
0.00550174
0.00555883
0.00561068
0.00565741
0.00569915
0.005736
0.00576804
0.00579534
0.00581796
0.00583594
0.00584929
0.00585801
0.00586211
0.00586265
0.00585933
0.00585192
0.00584018
0.00582388
0.00580276
0.00577648
0.00574465
0.0057068
0.00566237
0.00561068
0.00555098
0.00548238
0.00540392
0.00531451
0.005213
0.00509816
0.00496876
0.00482356
0.00466144
0.00448152
0.00428327
0.00406664
0.00383231
0.00358181
0.00331765
0.00304303
0.00276131
0.0024761
0.00219257
0.00192066
0.00166944
0.0014462
0.00125625
0.00110291
0.000988827
0.000915152
0.000881093
0.000870808
0.000889136
0.00100884
0.0013774
0.00179002
0.00214878
0.00242899
0.00269342
0.00294463
0.00318269
0.00340758
0.0036197
0.0038197
0.0040083
0.0041862
0.00435406
0.00451245
0.00466186
0.00480275
0.00493554
0.00506057
0.00517819
0.00528871
0.00539239
0.00548951
0.00558029
0.00566495
0.0057437
0.00581672
0.00588417
0.0059462
0.00600294
0.00605453
0.00610107
0.00614266
0.00617938
0.0062113
0.00623849
0.00626098
0.00627881
0.00629197
0.00630047
0.00630471
0.0063053
0.00630201
0.00629467
0.00628313
0.00626718
0.00624661
0.00622111
0.00619031
0.00615377
0.00611092
0.00606113
0.00600362
0.00593752
0.00586186
0.00577555
0.00567742
0.00556625
0.00544078
0.00529982
0.00514228
0.00496732
0.00477442
0.00456362
0.00433563
0.00409204
0.00383524
0.00356805
0.00329289
0.00301628
0.00274497
0.00248646
0.00224802
0.00203666
0.00185817
0.00171942
0.00162468
0.00157168
0.0015695
0.00162521
0.0013636
0.00171805
0.002152
0.00248745
0.00276483
0.00302465
0.00327001
0.00350198
0.00372129
0.00392868
0.00412493
0.0043108
0.00448693
0.0046539
0.00481221
0.00496229
0.0051045
0.00523918
0.00536663
0.00548711
0.00560088
0.00570815
0.00580914
0.00590404
0.00599304
0.00607628
0.00615394
0.00622613
0.006293
0.00635466
0.00641122
0.00646276
0.00650938
0.00655114
0.00658813
0.00662039