/*--------------------------------*- C++ -*----------------------------------*\
| =========                 |                                                 |
| \\      /  F ield         | OpenFOAM: The Open Source CFD Toolbox           |
|  \\    /   O peration     | Version:  v2012                                 |
|   \\  /    A nd           | Website:  www.openfoam.com                      |
|    \\/     M anipulation  |                                                 |
\*---------------------------------------------------------------------------*/
FoamFile
{
    version     2.0;
    format      ascii;
    class       volScalarField;
    location    "569";
    object      omega;
}
// * * * * * * * * * * * * * * * * * * * * * * * * * * * * * * * * * * * * * //

dimensions      [0 0 -1 0 0 0 0];


internalField   nonuniform List<scalar> 
6598
(
513.223
182.741
159.478
156.868
157.992
157.992
156.868
159.478
182.741
513.223
393.093
161.499
133.753
129.082
129.145
129.145
129.082
133.753
161.499
393.093
318.628
141.121
114.861
109.316
108.617
108.617
109.316
114.861
141.121
318.628
268.913
123.928
100.341
94.5956
93.4462
93.4462
94.5956
100.341
123.928
268.913
233.689
109.886
88.8604
83.238
81.8567
81.8567
83.2379
88.8603
109.886
233.689
207.511
98.4579
79.5951
74.2292
72.7495
72.7494
74.2291
79.5949
98.4576
207.511
187.296
89.0908
71.992
66.9232
65.4212
65.4212
66.9231
71.9918
89.0904
187.297
171.193
81.3304
65.6638
60.8894
59.4063
59.4063
60.8893
65.6635
81.3298
171.193
158.035
74.8251
60.3304
55.8299
54.3864
54.3864
55.8297
60.3299
74.8243
158.036
147.056
69.3088
55.7847
51.5319
50.1372
50.1371
51.5316
55.7841
69.3075
147.058
137.736
64.58
51.8714
47.8396
46.4965
46.4963
47.8391
51.8705
64.5781
137.738
129.706
60.4855
48.4718
44.6362
43.3441
43.3439
44.6356
48.4704
60.4826
129.71
122.702
56.9077
45.4939
41.833
40.5894
40.589
41.832
45.4919
56.9033
122.708
116.528
53.7555
42.866
39.3608
38.1626
38.1621
39.3594
42.863
53.749
116.536
111.036
50.9576
40.5313
37.1654
36.0094
36.0087
37.1633
40.5268
50.9479
111.048
106.112
48.4574
38.4441
35.2038
34.0866
34.0856
35.2006
38.4375
48.4431
106.128
101.666
46.2101
36.568
33.4411
32.3595
32.3582
33.4365
36.558
46.1892
101.69
97.6273
44.1792
34.873
31.8492
30.8003
30.7985
31.8426
34.8583
44.1496
97.6607
93.9385
42.3356
33.3349
30.4049
29.386
29.3835
30.3958
33.3142
42.2923
93.9859
90.5531
40.6559
31.9344
29.0901
28.0987
28.0951
29.0773
31.9049
40.601
90.6179
87.5107
39.1583
30.6852
27.9168
26.9496
26.9444
27.8969
30.6225
38.7608
77.3847
84.6883
37.7825
29.538
26.8393
25.894
25.8861
26.8069
29.4166
36.9476
66.4903
82.0593
36.5144
28.4805
25.8455
24.9197
24.9078
25.7937
28.2752
35.1325
57.797
79.6017
35.3429
27.5032
24.9263
24.0177
24.0004
24.8483
27.1944
33.1679
50.8593
77.2961
34.2584
26.598
24.074
23.1803
23.1568
23.9667
26.1352
31.1641
45.3588
75.126
33.2529
25.758
23.2818
22.4008
22.3696
23.1444
25.0902
29.315
41.0448
73.0762
32.3191
24.9766
22.5434
21.6727
21.6313
22.3617
24.1106
27.7137
37.6552
71.0709
31.4233
24.2266
21.8333
20.9707
20.9161
21.5938
23.1691
26.3266
34.9007
69.1677
30.5917
23.5287
21.1704
20.3132
20.2428
20.8653
22.2956
25.1556
32.6722
67.3556
29.8208
22.8799
20.5517
19.6972
19.6087
20.1765
21.4882
24.1374
30.6492
65.624
29.1071
22.2768
19.9738
19.1192
19.0109
19.526
20.7407
23.2264
28.8192
63.9636
28.4468
21.7169
19.4341
18.5765
18.4469
18.9118
20.0456
22.3887
27.1608
62.3652
27.8383
21.1983
18.9304
18.0669
17.9144
18.3313
19.3938
21.5892
25.6501
60.8202
27.2804
20.7197
18.4612
17.5886
17.4118
17.7821
18.7765
20.8129
24.2652
59.3203
26.7724
20.2807
18.0257
17.1406
16.9376
17.2614
18.1861
20.0526
22.9861
57.8576
26.3141
19.8812
17.6235
16.7222
16.4909
16.7671
17.617
19.3048
21.7959
56.4239
25.9054
19.5222
17.2551
16.3335
16.0712
16.2977
17.066
18.5695
20.681
55.0114
25.5466
19.2049
16.9216
15.975
15.6788
15.8527
16.5321
17.8488
19.6316
53.6123
25.2376
18.9312
16.6245
15.6482
15.3146
15.4325
16.0165
17.1469
18.6415
52.2189
24.978
18.7035
16.3663
15.3551
14.9803
15.0388
15.5225
16.4702
17.7086
50.8232
24.767
18.5242
16.1501
15.0984
14.6785
14.6745
15.0551
15.8265
16.8344
49.4174
24.6028
18.3961
15.9793
14.8817
14.4126
14.3436
14.6207
15.2248
16.0238
47.9934
24.4831
18.322
15.858
14.7091
14.1868
14.0507
14.2262
14.6746
15.2846
46.5427
24.4044
18.3042
15.7905
14.5852
14.0055
13.8011
13.8788
14.1849
14.6253
45.056
24.3617
18.3445
15.7812
14.5147
13.8739
13.6001
13.5849
13.7634
14.0541
43.5232
24.349
18.4438
15.834
14.5029
13.7969
13.4527
13.3501
13.4156
13.5767
41.9328
24.3583
18.6018
15.9524
14.5542
13.7795
13.3637
13.1783
13.1444
13.195
40.2708
24.3807
18.8168
16.139
14.673
13.826
13.3369
13.0725
12.9502
12.9074
38.5196
24.405
19.0847
16.3942
14.8619
13.94
13.3756
13.034
12.8317
12.7092
36.6558
24.4175
19.3976
16.7154
15.1214
14.1232
13.4813
13.0632
12.7863
12.5939
34.6452
24.3984
19.7411
17.094
15.447
14.3735
13.6529
13.1585
12.8105
12.5547
32.4349
24.3102
20.0851
17.5088
15.8244
14.6809
13.8835
13.3146
12.8989
12.5847
29.9103
24.0632
20.3617
17.9096
16.2165
15.0189
14.1545
13.5188
13.0425
12.6789
26.9054
23.5526
20.4834
18.2148
16.5555
15.3363
14.4299
13.7481
13.2333
12.8428
23.299
22.5102
20.3113
18.3291
16.7662
15.5736
14.6678
13.9865
13.4693
13.067
18.5918
20.2236
19.4522
18.056
16.7462
15.6772
14.8597
14.2305
13.7369
13.3409
14.089
16.2194
17.3569
17.0345
16.312
15.6153
15.0028
14.4816
14.0432
13.6753
12.5744
10.797
13.7073
14.9654
15.3163
15.2638
15.0403
14.7539
14.4564
14.1744
12.8386
9.43253
10.6179
12.8039
14.1541
14.9423
15.3592
15.5264
15.537
15.4807
13.4938
14.1607
17.2974
21.0961
24.4879
27.4276
29.3631
30.943
32.2613
33.3295
33.2499
20.6748
20.5812
20.6437
20.5334
20.0979
19.15
18.2285
17.3587
16.5226
15.71
14.9413
14.2175
13.5339
12.8772
12.2574
11.6845
11.1335
10.5848
10.02
9.41727
8.74657
7.94199
6.8839
5.90924
43.3251
15.4415
9.63281
8.28451
7.74781
7.33274
6.83613
6.32637
5.91229
5.57577
5.29439
5.07368
4.91447
4.80615
4.74495
4.78351
4.93154
5.15897
5.44138
5.75781
6.08034
6.36059
6.54268
6.55794
9.03527
47.3024
21.0235
11.253
8.31372
7.13521
6.36692
5.69328
5.00369
4.45336
4.03751
3.71735
3.48262
3.31768
3.21124
3.15663
3.16435
3.25152
3.42229
3.68247
4.03478
4.47092
4.95543
5.44056
5.91515
9.70406
47.5317
25.2346
14.3692
9.84677
7.78913
6.49994
5.48791
4.64787
3.94029
3.45678
3.10306
2.84971
2.666
2.54252
2.47504
2.46768
2.52831
2.66075
2.87541
3.18586
3.6008
4.109
4.67255
5.3237
9.76119
45.9335
28.2425
17.0061
11.719
8.88009
7.00468
5.61041
4.55795
3.78855
3.2452
2.85189
2.57005
2.34908
2.18773
2.092
2.06432
2.11997
2.24406
2.44056
2.72272
3.10619
3.5926
4.15697
4.87018
9.4905
43.5968
29.7081
19.4101
13.4686
9.95783
7.60893
5.88889
4.64315
3.78882
3.21831
2.82374
2.51889
2.25668
2.04115
1.90179
1.852
1.90526
2.03081
2.21993
2.48344
2.83865
3.29255
3.82962
4.55685
9.06059
40.8969
30.4081
21.2383
15.0728
11.0536
8.23601
6.1861
4.74905
3.82482
3.26585
2.90301
2.61524
2.34533
2.10475
1.93223
1.85476
1.88344
1.9973
2.17511
2.42077
2.74688
3.16153
3.66818
4.43242
8.61429
38.173
30.4937
22.4304
16.4224
12.1034
8.91034
6.54807
4.92171
3.92292
3.37412
3.06237
2.82821
2.5896
2.34916
2.1509
2.03915
2.03626
2.1326
2.29609
2.52623
2.83402
3.23823
3.77353
4.56094
8.23984
35.6469
30.0901
23.1141
17.488
13.0762
9.6143
6.96975
5.15901
4.08278
3.54013
3.2858
3.13451
2.97886
2.7953
2.61076
2.4752
2.43914
2.52231
2.6879
2.94054
3.30418
3.8315
4.64376
6.01869
8.85763
33.3342
29.2877
23.451
18.2764
13.8968
10.2632
7.40877
5.43098
4.28297
3.73774
3.53226
3.47241
3.44255
3.39728
3.337
3.28982
3.29876
3.4211
3.65841
4.03559
4.59906
5.42505
6.60301
8.08635
9.42131
31.2302
28.2736
23.472
18.7257
14.5049
10.8199
7.82536
5.71981
4.50231
3.93902
3.75559
3.75804
3.83631
3.94203
4.05867
4.1882
4.34492
4.55853
4.87807
5.32014
5.88571
6.54199
7.1923
7.66983
7.78945
29.3151
27.1658
23.2326
18.9283
14.937
11.2904
8.21989
6.01165
4.71921
4.11481
3.91714
3.92794
4.03818
4.2014
4.39751
4.61455
4.84329
5.07575
5.34339
5.6422
5.95042
6.22847
6.42323
6.48856
6.31622
27.5748
26.0278
22.7954
18.9607
15.2345
11.6911
8.59555
6.30077
4.92162
4.24837
4.00178
3.97777
4.05659
4.18611
4.34671
4.52512
4.71099
4.90259
5.09561
5.27729
5.42885
5.52586
5.53905
5.43811
5.16954
25.987
24.893
22.2249
18.878
15.4119
12.0286
8.96132
6.596
5.11802
4.3482
4.0249
3.94873
3.98404
4.06773
4.17581
4.29743
4.42451
4.55363
4.67106
4.76676
4.83273
4.84429
4.76587
4.58387
4.28081
24.5288
23.7791
21.5825
18.7
15.5096
12.3346
9.33961
6.91655
5.31909
4.43929
4.02215
3.87813
3.86727
3.9119
3.97977
4.05706
4.14042
4.21774
4.27897
4.31396
4.30966
4.24861
4.11533
3.90385
3.62291
23.1804
22.6974
20.9034
18.4378
15.5624
12.6058
9.74681
7.29138
5.55931
4.54926
4.02482
3.79128
3.72106
3.72564
3.75891
3.80394
3.84961
3.88545
3.90228
3.89033
3.83939
3.74115
3.59223
3.39709
3.17131
21.9244
21.6514
20.205
18.095
15.5938
12.8659
10.1722
7.75486
5.90456
4.72946
4.07996
3.74053
3.58708
3.53651
3.5335
3.54768
3.56224
3.56687
3.55367
3.51566
3.44719
3.34542
3.21214
3.05463
2.88429
20.7466
20.6403
19.4985
17.7104
15.5599
13.1179
10.6141
8.28271
6.38103
5.05818
4.25505
3.80068
3.55315
3.43086
3.37605
3.35158
3.33614
3.31721
3.28681
3.23969
3.17242
3.0843
2.97774
2.85794
2.73179
19.636
19.6603
18.7833
17.2903
15.4409
13.3606
11.0688
8.86671
6.96324
5.53065
4.58363
4.00926
3.66296
3.46042
3.34598
3.27861
3.2329
3.19391
3.15276
3.10378
3.0439
2.97228
2.89012
2.80032
2.70687
18.5859
18.708
18.0615
16.8425
15.2658
13.481
11.5358
9.4949
7.64679
6.15263
5.08031
4.37866
3.94056
3.66245
3.48402
3.36875
3.28975
3.22972
3.17826
3.12826
3.07597
3.01935
2.95762
2.89174
2.82383
17.5939
17.7823
17.3327
16.3653
15.0455
13.517
11.8652
10.1358
8.39902
6.907
5.7466
4.9269
4.38158
4.02739
3.79485
3.63715
3.52641
3.44506
3.38176
3.32791
3.27812
3.22998
3.18152
3.1318
3.08058
16.6631
16.8862
16.5978
15.856
14.7812
13.491
12.0818
10.6148
9.13965
7.75631
6.55513
5.64948
5.00246
4.55679
4.25609
4.05242
3.91164
3.81053
3.73374
3.6717
3.61792
3.56839
3.52121
3.47526
3.42946
15.8009
16.0278
15.8619
15.3153
14.4658
13.4055
12.2188
10.9754
9.72458
8.52164
7.42935
6.51245
5.79172
5.25483
4.87795
4.61322
4.42569
4.29026
4.18925
4.11039
4.04552
3.98959
3.93946
3.89309
3.84978
15.0185
15.2208
15.1365
14.7488
14.0992
13.2536
12.2803
11.2394
10.1845
9.16003
8.20526
7.35991
6.64957
6.08153
5.64658
5.32147
5.0808
4.90182
4.76659
4.66127
4.57648
4.50679
4.44825
4.39793
4.35373
14.3281
14.4834
14.4407
14.1703
13.6871
13.0323
12.2567
11.41
10.5361
9.67504
8.86063
8.11834
7.46729
6.9184
6.47114
6.11564
5.83736
5.61956
5.44937
5.31608
5.21043
5.12565
5.05691
5.00075
4.95387
13.7403
13.8344
13.7989
13.6027
13.2456
12.7491
12.147
11.4765
10.7738
10.0707
9.3937
8.76381
8.1955
7.69827
7.27538
6.92234
6.63244
6.39814
6.20974
6.05958
5.94061
5.84626
5.77093
5.70995
5.65987
13.2609
13.2893
13.2362
13.076
12.8023
12.4247
11.9634
11.444
10.8927
10.3338
9.78844
9.27378
8.80193
8.37946
8.00943
7.6906
7.42187
7.20029
7.01987
6.87375
6.75561
6.65994
6.58235
6.51902
6.46683
12.8901
12.8558
12.7722
12.6197
12.3917
12.0926
11.7342
11.3322
10.9044
10.4681
10.0394
9.63118
9.25334
8.91147
8.60959
8.34794
8.12598
7.94142
7.79047
7.66852
7.57072
7.49181
7.42768
7.37535
7.33234
12.6222
12.5329
12.4157
12.2555
12.047
11.7926
11.4992
11.1774
10.839
10.4964
10.1605
9.84081
9.54445
9.27592
9.0391
8.83651
8.66548
8.52425
8.41052
8.32111
8.25228
8.20021
8.16135
8.13267
8.11162
12.4482
12.3125
12.1649
11.9926
11.7905
11.5581
11.3006
11.0261
10.7436
10.4621
10.1895
9.93258
9.69622
9.48356
9.29707
9.13934
9.00967
8.90556
8.82477
8.76477
8.72285
8.69597
8.68111
8.67546
8.67644
12.358
12.1837
12.0125
11.8306
11.6297
11.4086
11.1705
10.9216
10.6694
10.4212
10.1835
9.96176
9.75964
9.57945
9.42249
9.28947
9.18068
9.09537
9.03138
8.98618
8.95738
8.94257
8.93931
8.9453
8.95819
12.3436
12.1404
11.9517
11.7622
11.5626
11.3497
11.1245
10.8911
10.6554
10.4235
10.2012
9.99326
9.80326
9.63336
9.48461
9.35728
9.25102
9.1648
9.09703
9.04636
9.01092
8.98851
8.97714
8.97496
8.98009
12.4069
12.1803
11.9767
11.7811
11.5832
11.3779
11.164
10.9434
10.7197
10.4978
10.2824
10.0779
9.88772
9.71425
9.55886
9.42207
9.30373
9.20309
9.11893
9.04975
8.9937
8.94894
8.91414
8.88797
8.86895
12.5466
12.3004
12.0836
11.8816
11.684
11.4847
11.2806
11.0715
10.8592
10.6468
10.4377
10.2354
10.0429
9.86259
9.69608
9.54432
9.40764
9.28585
9.17834
9.08415
9.00211
8.93086
8.86897
8.81511
8.76815
12.7564
12.4958
12.267
12.0573
11.8573
11.6603
11.4625
11.2623
11.0601
10.8571
10.6556
10.4579
10.2662
10.0825
9.90842
9.74504
9.593
9.45255
9.32361
9.20584
9.09865
9.00127
8.9128
8.83237
8.75927
13.0276
12.76
12.5235
12.3074
12.1037
11.9062
11.7112
11.5163
11.321
11.1256
10.9311
10.739
10.5508
10.3678
10.1915
10.0227
9.86212
9.71025
9.56725
9.43311
9.30762
9.19045
9.08117
8.97931
8.8846
13.3758
13.1141
12.8788
12.6614
12.456
12.2576
12.063
11.8702
11.6785
11.4879
11.2989
11.1122
10.9288
10.7496
10.5756
10.4074
10.2457
10.0909
9.94321
9.80273
9.66941
9.5431
9.42356
9.31053
9.20397
13.9267
13.6981
13.4845
13.2818
13.0857
12.8944
12.7063
12.521
12.3381
12.1577
11.98
11.8056
11.635
11.4688
11.3076
11.1518
11.0018
10.8578
10.72
10.5884
10.4629
10.3434
10.2295
10.1211
10.0182
15.4018
15.3114
15.2186
15.1262
15.0261
14.9215
14.8145
14.7059
14.5963
14.4862
14.3761
14.2667
14.1583
14.0516
13.9467
13.8442
13.7441
13.6465
13.5516
13.4593
13.3695
13.282
13.1967
13.1133
13.0319
34.1725
34.8926
35.5164
36.0546
36.4953
36.8504
37.1271
37.3316
37.4701
37.5485
37.5728
37.5485
37.4813
37.3763
37.2385
37.0726
36.8829
36.6734
36.4474
36.2083
35.9587
35.7013
35.4382
35.1711
34.9018
7.15773
11.1487
15.8164
11.6493
11.8855
10.9558
9.64072
8.92864
7.8902
7.47436
6.80176
5.85236
5.88702
5.26552
4.5148
4.71951
4.20076
3.66463
3.8797
3.4898
3.12439
3.30948
3.03128
2.78062
2.94071
2.74248
2.56571
2.71684
2.57342
2.44507
2.60957
2.50397
2.40851
2.61688
2.53812
2.46614
2.75867
2.70063
2.64653
3.03157
2.98696
2.94413
3.38606
3.3463
3.30797
3.81065
3.77501
3.74066
4.31631
4.28326
4.25193
4.91607
4.88366
4.8537
5.62057
5.58736
5.55725
6.42616
6.39163
6.36048
7.29916
7.27081
7.24513
8.09733
8.08634
8.07714
8.68142
8.68878
8.69747
8.97423
8.99296
9.01353
8.98979
9.00311
9.01931
8.85698
8.84892
8.84401
8.73114
8.69821
8.66839
8.69952
8.64443
8.59287
8.80577
8.73183
8.66167
9.11429
9.02924
8.94779
9.9311
9.84782
9.7675
12.9615
12.8923
12.8237
34.6644
34.428
34.1927
4.35393
5.80378
7.17196
8.14681
8.92682
9.56991
10.1243
10.6139
11.0537
11.4535
11.8203
12.1596
12.4753
12.771
13.0494
13.3129
13.5638
13.8039
14.035
14.2584
14.4758
14.6883
14.8972
15.1037
15.3088
15.5138
15.7198
15.928
16.1399
16.3568
16.5804
16.8129
17.0566
17.3146
17.5821
17.8562
18.1373
18.4261
18.7231
19.0272
19.3392
19.6607
19.992
20.3337
20.6863
21.0502
21.4257
21.8132
22.2125
22.6236
23.0456
23.4774
23.9163
24.3583
24.7968
25.2216
25.616
25.9544
26.2048
26.3581
26.4402
26.4608
26.4142
26.2085
25.865
25.3658
24.6823
23.8637
22.9433
21.9344
20.8573
19.7163
18.6493
17.5983
16.5255
15.3976
14.1712
12.7576
10.9944
9.36567
9.37326
6.13351
6.69738
6.96957
7.05212
7.0206
6.92592
6.80766
6.68544
6.56966
6.46518
6.37383
6.29577
6.23031
6.17637
6.13274
6.09823
6.07174
6.05231
6.03911
6.03145
6.02879
6.0307
6.03688
6.04714
6.06141
6.07971
6.10217
6.12906
6.16076
6.19781
6.24094
6.29161
6.35063
6.41207
6.47458
6.53881
6.60489
6.67309
6.74351
6.81638
6.8918
6.96998
7.05114
7.13549
7.22326
7.31471
7.4101
7.5097
7.61377
7.7226
7.83641
7.95541
8.07972
8.20931
8.34393
8.48323
8.62733
8.77723
8.93052
9.0663
9.17439
9.25189
9.28797
9.2555
9.1723
9.03279
8.85488
8.65739
8.4647
8.29433
8.20111
8.36019
8.65998
9.03223
9.41706
9.73589
9.88715
9.77402
13.4883
11.6415
6.19991
6.14218
6.05174
5.86933
5.63486
5.3899
5.16114
4.95915
4.78669
4.64242
4.52331
4.42583
4.34657
4.28248
4.23101
4.18999
4.15771
4.13277
4.11405
4.10068
4.09197
4.08739
4.08655
4.08915
4.09499
4.10395
4.11596
4.13102
4.14918
4.17053
4.19519
4.22333
4.25507
4.29057
4.3273
4.36577
4.40635
4.44931
4.4949
4.54337
4.59499
4.65006
4.70892
4.77197
4.8396
4.91229
4.99052
5.07482
5.16577
5.26395
5.36998
5.48445
5.60791
5.74083
5.88349
6.03603
6.19838
6.37018
6.5492
6.73393
6.91098
7.06682
7.18523
7.24714
7.23797
7.14373
6.97692
6.75462
6.49975
6.26096
6.08321
6.06636
6.21259
6.52002
6.97404
7.52273
8.06857
8.56928
13.9822
13.3451
6.13623
5.65613
5.35998
5.05392
4.75064
4.47355
4.23531
4.03748
3.87664
3.74753
3.64469
3.56322
3.49895
3.44851
3.40919
3.37888
3.3559
3.33897
3.3271
3.3195
3.3156
3.31494
3.31718
3.32207
3.32944
3.33917
3.3512
3.3655
3.38208
3.40097
3.42226
3.44603
3.47239
3.50148
3.53348
3.56714
3.6031
3.64171
3.68323
3.72798
3.77625
3.82842
3.88488
3.94605
4.0124
4.08445
4.16275
4.2479
4.34051
4.44127
4.55084
4.66991
4.79915
4.93911
5.0902
5.25257
5.42597
5.60924
5.79997
5.99814
6.19801
6.38895
6.55592
6.68112
6.74644
6.73201
6.61812
6.39112
6.04477
5.67857
5.35025
5.17179
5.18138
5.37583
5.75411
6.29167
6.9094
7.62418
13.482
14.8343
6.05004
5.25837
4.82726
4.45904
4.13656
3.86421
3.64209
3.46549
3.32712
3.21964
3.13665
3.07291
3.02426
2.98745
2.95999
2.93997
2.92593
2.91676
2.9116
2.90983
2.91096
2.91461
2.92054
2.92854
2.93849
2.9503
2.96393
2.97939
2.9967
3.01591
3.0371
3.06038
3.08589
3.11377
3.14422
3.17723
3.21244
3.25031
3.29115
3.33529
3.38307
3.43483
3.49097
3.55194
3.6182
3.69025
3.76867
3.85403
3.94697
4.04815
4.15827
4.27804
4.40819
4.54942
4.70225
4.86703
5.04361
5.23118
5.42796
5.63171
5.83967
6.0468
6.24406
6.41832
6.55411
6.62953
6.61376
6.47308
6.17876
5.75053
5.25899
4.84693
4.70059
4.80442
5.11596
5.60374
6.20194
7.02399
12.4898
16.5258
5.94782
4.91968
4.39592
3.99649
3.67728
3.42409
3.2254
3.07277
2.95699
2.86982
2.80466
2.75638
2.72108
2.69579
2.6783
2.66692
2.6604
2.65778
2.65837
2.66164
2.66718
2.6747
2.68401
2.69496
2.70746
2.72147
2.73696
2.75396
2.77252
2.7927
2.8146
2.83832
2.86402
2.89185
2.922
2.95469
2.98976
3.02736
3.06785
3.11153
3.15875
3.20986
3.26524
3.3253
3.39051
3.46137
3.53841
3.62221
3.71343
3.81272
3.92079
4.0384
4.16632
4.30529
4.45607
4.61983
4.79646
4.98632
5.18835
5.40099
5.62182
5.84692
6.07167
6.28952
6.49091
6.66215
6.77779
6.80412
6.68865
6.38831
5.90539
5.32521
4.84666
4.75542
4.94518
5.35415
5.93959
6.96951
11.6164
18.5715
6.07158
4.6154
4.021
3.61237
3.31171
3.08447
2.91168
2.78285
2.68802
2.6189
2.56914
2.53398
2.50987
2.49419
2.48499
2.48081
2.48057
2.48347
2.48891
2.49646
2.50579
2.51667
2.52894
2.54251
2.55731
2.57331
2.59054
2.60901
2.62879
2.64996
2.67262
2.69688
2.72289
2.7508
2.7808
2.81307
2.84785
2.88498
2.92481
2.96767
3.01386
3.06374
3.11768
3.17607
3.23936
3.30804
3.38262
3.46369
3.55189
3.6479
3.75248
3.86645
3.9907
4.12569
4.27269
4.43269
4.60626
4.79656
5.00166
5.22044
5.45253
5.69618
5.94886
6.20831
6.4708
6.734
6.97755
7.19602
7.35189
7.39133
7.2519
6.8885
6.31012
5.70506
5.53906
5.79689
6.34609
7.37128
11.0618
12.8731
5.59998
4.2337
3.64797
3.26688
3.00068
2.8044
2.65918
2.55378
2.47846
2.42554
2.38927
2.36542
2.35089
2.34338
2.34123
2.34316
2.34828
2.3559
2.36551
2.37676
2.38938
2.40319
2.41807
2.43393
2.45075
2.46852
2.48726
2.50701
2.52785
2.54986
2.57313
2.5978
2.62399
2.65186
2.68158
2.71335
2.74738
2.78383
2.82273
2.86441
2.9092
2.95744
3.00947
3.06568
3.1265
3.19239
3.26387
3.34149
3.42588
3.51773
3.6178
3.72692
3.846
3.97606
4.11827
4.27386
4.44358
4.62925
4.83138
5.05074
5.28775
5.54217
5.81304
6.10204
6.40462
6.72726
7.06764
7.43246
7.81882
8.20587
8.55808
8.81541
8.90726
8.75591
8.37212
8.1602
8.35491
8.70282
10.5296
8.72335
4.84714
3.79485
3.28499
2.96341
2.73893
2.57482
2.45627
2.37225
2.31402
2.27487
2.24987
2.23536
2.22868
2.22788
2.23149
2.23846
2.24801
2.25954
2.27264
2.287
2.30239
2.31867
2.33575
2.35356
2.37209
2.39134
2.41134
2.43215
2.45383
2.47646
2.50016
2.52503
2.55121
2.57886
2.60814
2.63924
2.67236
2.70774
2.74544
2.78569
2.8288
2.87508
2.92489
2.97857
3.03654
3.09923
3.16712
3.24074
3.32069
3.4076
3.50221
3.60532
3.71782
3.84073
3.97517
4.12235
4.28362
4.46044
4.65415
4.86623
5.09805
5.35071
5.62494
5.921
6.23936
6.58327
6.959
7.37819
7.86119
8.41297
9.03517
9.7267
10.4817
11.2873
12.1309
12.9996
14.1063
15.6398
17.6575
6.21103
4.13226
3.36731
2.96452
2.70542
2.5211
2.38824
2.2938
2.22831
2.18444
2.15665
2.14081
2.13383
2.13347
2.13805
2.14633
2.15738
2.17054
2.18529
2.20127
2.21822
2.23594
2.25431
2.27324
2.29271
2.31268
2.33319
2.35425
2.37592
2.39828
2.4214
2.44538
2.47035
2.49642
2.52376
2.55251
2.58287
2.61503
2.6492
2.68562
2.72436
2.76573
2.81001
2.85752
2.90862
2.96366
3.02305
3.08724
3.15669
3.23195
3.31358
3.40224
3.49864
3.60356
3.71791
3.84269
3.979
4.12811
4.29137
4.47025
4.66635
4.88137
5.11693
5.37453
5.6554
5.96076
6.29281
6.65613
7.05914
7.51264
8.02083
8.58898
9.2253
9.9348
10.7111
11.5436
12.406
13.2537
14.1115
14.9028
4.68638
3.54804
3.00881
2.69969
2.49289
2.34533
2.23965
2.16546
2.11514
2.08283
2.06405
2.0554
2.05433
2.05891
2.06771
2.07967
2.09398
2.11004
2.12741
2.14575
2.16484
2.18451
2.20464
2.22516
2.24604
2.26726
2.28884
2.31082
2.33325
2.35618
2.37971
2.40394
2.42896
2.45491
2.48193
2.51017
2.53982
2.57106
2.6041
2.63918
2.67649
2.71618
2.75856
2.8039
2.85253
2.90478
2.96101
3.02161
3.087
3.15764
3.23403
3.31669
3.40621
3.50325
3.6085
3.72276
3.84691
3.98193
4.12889
4.28899
4.46355
4.65403
4.86197
5.08896
5.33653
5.60621
5.89969
6.21968
6.57239
6.95897
7.37885
7.83136
8.31466
8.8247
9.35307
9.89396
10.431
10.9528
11.402
11.6644
3.76143
3.10047
2.72349
2.48805
2.32522
2.2082
2.12461
2.06656
2.02816
2.00482
1.99294
1.98976
1.99315
2.00148
2.01352
2.02832
2.04517
2.06353
2.083
2.10328
2.12415
2.14545
2.16707
2.18896
2.21107
2.23339
2.25594
2.27875
2.30186
2.32535
2.34927
2.37374
2.39884
2.42471
2.45148
2.4793
2.50834
2.53878
2.57084
2.60472
2.64068
2.67887
2.71953
2.76292
2.80932
2.85904
2.91238
2.9697
3.03135
3.0977
3.16917
3.24617
3.32916
3.41863
3.51507
3.61905
3.73117
3.85207
3.98244
4.12306
4.27474
4.43839
4.61498
4.80552
5.01102
5.2325
5.47095
5.72835
6.00523
6.30117
6.61544
6.94573
7.28775
7.63464
7.97631
8.30134
8.59226
8.8225
8.92733
8.83061
3.18174
2.7703
2.5035
2.32472
2.19767
2.10522
2.03909
1.99359
1.96432
1.94775
1.94102
1.94188
1.94856
1.95966
1.97411
1.99106
2.00987
2.03003
2.05118
2.07303
2.09536
2.11803
2.14094
2.16401
2.18721
2.21052
2.23396
2.25754
2.28132
2.30534
2.32968
2.35443
2.37969
2.40556
2.43218
2.4597
2.48828
2.51809
2.54933
2.58222
2.61699
2.65388
2.69305
2.73476
2.77923
2.82674
2.87756
2.93199
2.99032
3.05286
3.11993
3.19186
3.26898
3.35162
3.4401
3.53478
3.636
3.74408
3.85938
3.98223
4.11298
4.25195
4.39946
4.55575
4.72101
4.89528
5.07861
5.27059
5.47032
5.67653
5.88724
6.09971
6.30972
6.51098
6.69289
6.84557
6.95809
7.01367
6.96215
6.77641
2.80723
2.53401
2.34066
2.20439
2.10531
2.03243
1.98007
1.94433
1.92204
1.91054
1.90761
1.91142
1.92049
1.93361
1.94983
1.96838
1.98868
2.01024
2.03272
2.05582
2.07935
2.10316
2.12714
2.15123
2.17538
2.19957
2.22381
2.24811
2.27252
2.29708
2.32186
2.34693
2.3724
2.39836
2.42495
2.45229
2.48056
2.5099
2.54053
2.57264
2.60645
2.6422
2.68012
2.7204
2.76326
2.8089
2.85758
2.90953
2.96501
3.02426
3.08753
3.15507
3.2271
3.30383
3.38546
3.47215
3.56405
3.66124
3.7638
3.87175
3.98506
4.10364
4.2273
4.35576
4.48859
4.62515
4.76473
4.90602
5.04758
5.18764
5.32399
5.45372
5.57313
5.67521
5.7526
5.79871
5.81065
5.78566
5.6988
5.5429
2.56323
2.37183
2.22805
2.12251
2.04484
1.9876
1.9463
1.91833
1.90152
1.89394
1.89388
1.89988
1.91071
1.92532
1.94285
1.96261
1.98403
2.00666
2.03014
2.05419
2.07864
2.10333
2.12815
2.15304
2.17796
2.20287
2.22777
2.25269
2.27765
2.30269
2.32787
2.35327
2.37897
2.40507
2.43169
2.45895
2.48702
2.51604
2.54621
2.57772
2.61078
2.64561
2.68247
2.72157
2.76308
2.80717
2.85406
2.90393
2.957
3.01346
3.0735
3.1373
3.20501
3.27676
3.35263
3.43265
3.51684
3.60512
3.69737
3.79341
3.89297
3.9957
4.10116
4.20876
4.31777
4.42732
4.53615
4.64284
4.74574
4.84303
4.93256
5.01183
5.07706
5.12281
5.14568
5.14348
5.1152
5.06063
4.97985
4.86564
2.41024
2.27036
2.16082
2.07786
2.01643
1.97151
1.93934
1.91784
1.90557
1.90121
1.90349
1.91125
1.92346
1.93922
1.95776
1.97842
2.00066
2.02402
2.04815
2.07279
2.09776
2.12294
2.14825
2.17361
2.19897
2.22432
2.24963
2.27494
2.30025
2.3256
2.35106
2.37667
2.40252
2.42871
2.45534
2.48253
2.51044
2.53922
2.56904
2.60008
2.63254
2.66664
2.7026
2.74071
2.7811
2.82391
2.8693
2.91744
2.96847
3.02257
3.07987
3.1405
3.20456
3.2721
3.34315
3.41767
3.49555
3.57663
3.66067
3.74737
3.83633
3.92709
4.01909
4.11166
4.20406
4.29525
4.38388
4.46848
4.5475
4.61929
4.6821
4.73398
4.77148
4.79185
4.79308
4.77442
4.73632
4.68007
4.60727
4.51931
2.32997
2.22457
2.13963
2.07388
2.02484
1.98965
1.96508
1.94916
1.94091
1.93944
1.94382
1.95314
1.96655
1.98325
2.00256
2.02385
2.04658
2.07027
2.09453
2.11911
2.14393
2.16894
2.19409
2.21932
2.24456
2.26979
2.29502
2.32025
2.3455
2.3708
2.3962
2.42174
2.4475
2.47356
2.50004
2.52704
2.55471
2.5832
2.61266
2.64328
2.67523
2.70872
2.74395
2.78118
2.82061
2.86234
2.90648
2.95314
3.00244
3.05451
3.10944
3.16733
3.22824
3.29218
3.35914
3.42902
3.50167
3.57686
3.65429
3.7336
3.81435
3.89604
3.97808
4.05994
4.14096
4.22008
4.29591
4.3671
4.43231
4.49019
4.53939
4.57836
4.60479
4.61653
4.61224
4.59175
4.55605
4.50707
4.44728
4.37902
2.32115
2.24016
2.17365
2.12143
2.08235
2.05468
2.03623
2.02512
2.02057
2.02186
2.02826
2.03905
2.05348
2.07089
2.09063
2.11212
2.13482
2.15818
2.18162
2.20489
2.2282
2.25175
2.27558
2.29956
2.32362
2.34775
2.37196
2.39628
2.4207
2.44524
2.46994
2.49483
2.51999
2.54548
2.5714
2.59788
2.62504
2.65303
2.68199
2.71209
2.7435
2.7764
2.81096
2.8474
2.88599
2.92677
2.96979
3.01515
3.0629
3.11315
3.16595
3.22136
3.27942
3.34013
3.40344
3.46927
3.5374
3.60757
3.67947
3.75273
3.82689
3.90144
3.97585
4.04994
4.12315
4.1943
4.26214
4.32549
4.3832
4.43426
4.47771
4.51228
4.53619
4.5476
4.54539
4.52937
4.50048
4.46072
4.41277
4.35915
2.39904
2.3364
2.28436
2.24313
2.21219
2.19047
2.17651
2.16943
2.16824
2.17215
2.18043
2.19241
2.20744
2.22491
2.24423
2.26484
2.28624
2.30787
2.32857
2.34764
2.36664
2.38621
2.40671
2.42755
2.44855
2.46977
2.49133
2.51329
2.53556
2.55814
2.58103
2.60428
2.62793
2.65203
2.67669
2.70201
2.72813
2.75518
2.78328
2.8126
2.84328
2.87546
2.9093
2.94496
2.98272
3.02255
3.06449
3.10855
3.15479
3.20324
3.25394
3.30693
3.3622
3.41976
3.47957
3.5416
3.6056
3.67119
3.73813
3.8061
3.87466
3.94326
4.01164
4.07994
4.14749
4.21317
4.27588
4.33462
4.38849
4.4367
4.47857
4.513
4.53843
4.55327
4.55637
4.5473
4.52659
4.49592
4.45794
4.41522
2.5947
2.54552
2.50378
2.46991
2.44381
2.42475
2.41255
2.40686
2.4065
2.41056
2.4183
2.4291
2.44243
2.45771
2.47437
2.4919
2.50986
2.52768
2.54421
2.55933
2.57405
2.58874
2.6036
2.61843
2.63338
2.64876
2.66515
2.68267
2.70087
2.71966
2.73909
2.7592
2.77998
2.80146
2.82374
2.84693
2.87116
2.89654
2.92319
2.95124
2.98079
3.01197
3.0449
3.07968
3.11648
3.15525
3.19596
3.2386
3.28318
3.32971
3.37818
3.42861
3.481
3.53531
3.5915
3.64948
3.70909
3.77011
3.8323
3.89535
3.95889
4.02242
4.08616
4.14995
4.2131
4.27471
4.33381
4.38968
4.44168
4.48901
4.53098
4.5667
4.59489
4.61415
4.6233
4.62155
4.6089
4.58652
4.55679
4.52239
2.90109
2.85864
2.82091
2.78873
2.76263
2.74236
2.72845
2.72011
2.71653
2.71695
2.7207
2.72723
2.73607
2.74673
2.75869
2.7713
2.78434
2.79739
2.8105
2.82416
2.83747
2.84996
2.8613
2.87203
2.88242
2.89277
2.90344
2.91468
2.92651
2.93913
2.95302
2.96821
2.98446
3.00174
3.02018
3.03999
3.06125
3.08403
3.10844
3.13457
3.16247
3.19221
3.22387
3.25753
3.29311
3.33051
3.36968
3.41057
3.45315
3.4974
3.54332
3.59089
3.64011
3.69094
3.74334
3.79723
3.8525
3.90899
3.96652
4.02484
4.08372
4.14288
4.20246
4.26234
4.32202
4.38046
4.43666
4.49023
4.54056
4.58699
4.62888
4.66549
4.69578
4.71858
4.73276
4.73742
4.73202
4.717
4.69427
4.66645
3.26883
3.22965
3.19385
3.16207
3.13543
3.11431
3.09855
3.08752
3.08058
3.07713
3.07657
3.0784
3.08225
3.08772
3.0944
3.10181
3.10983
3.11839
3.12785
3.1381
3.14866
3.1592
3.16948
3.17943
3.18896
3.1979
3.20592
3.21314
3.22026
3.22774
3.23602
3.24526
3.25554
3.26703
3.28008
3.2953
3.31252
3.33174
3.35305
3.37653
3.40214
3.42987
3.45973
3.49175
3.52549
3.56087
3.5978
3.63623
3.67613
3.71748
3.76026
3.80447
3.85008
3.89709
3.94546
3.99512
4.046
4.09796
4.15086
4.20452
4.25873
4.31336
4.36846
4.42395
4.47905
4.53296
4.58549
4.63613
4.68407
4.72865
4.7692
4.80517
4.83584
4.86026
4.87745
4.88644
4.88636
4.87695
4.85949
4.8365
3.70523
3.6695
3.63616
3.60564
3.57892
3.55711
3.53971
3.52597
3.51552
3.50798
3.5029
3.49985
3.49855
3.4987
3.50009
3.50271
3.50625
3.51058
3.51564
3.52129
3.52741
3.53389
3.54057
3.54737
3.55422
3.56106
3.56779
3.57431
3.58064
3.58687
3.59286
3.59884
3.60534
3.61274
3.62139
3.6318
3.64417
3.65881
3.6763
3.69666
3.71956
3.74485
3.77247
3.80205
3.83305
3.86539
3.89905
3.93397
3.97016
4.00759
4.04628
4.0862
4.12737
4.16977
4.21336
4.2581
4.30391
4.35069
4.39829
4.44653
4.49521
4.54415
4.59316
4.64204
4.69039
4.73786
4.78438
4.82917
4.87158
4.91112
4.94764
4.9807
5.00947
5.03306
5.05058
5.06113
5.0637
5.05755
5.04332
5.02322
4.21964
4.18717
4.15641
4.12745
4.10085
4.07767
4.05802
4.04152
4.02777
4.01641
4.00715
3.9997
3.99374
3.98903
3.98538
3.98267
3.98078
3.97963
3.97924
3.97961
3.9807
3.98244
3.98473
3.98752
3.99076
3.99445
3.99854
4.00285
4.00728
4.01189
4.01676
4.02206
4.02797
4.03465
4.04218
4.05044
4.06022
4.0721
4.08698
4.10497
4.12557
4.14863
4.17367
4.19982
4.22703
4.25525
4.28448
4.31471
4.34592
4.37814
4.41136
4.44558
4.48082
4.51704
4.55423
4.59235
4.63132
4.67106
4.71143
4.75229
4.79345
4.8347
4.87586
4.91672
4.95697
4.9963
5.0344
5.07087
5.1053
5.13741
5.16709
5.19388
5.21706
5.23591
5.24975
5.25781
5.25915
5.25282
5.2389
5.21921
4.8232
4.79295
4.76413
4.73647
4.71009
4.68546
4.6631
4.6434
4.62608
4.61081
4.59731
4.58532
4.5746
4.56495
4.55622
4.54829
4.54108
4.53459
4.52888
4.52413
4.52029
4.51724
4.5149
4.5132
4.51208
4.51151
4.51148
4.51193
4.51287
4.51433
4.51649
4.51965
4.52393
4.52942
4.53621
4.54464
4.55588
4.56942
4.5847
4.60171
4.62051
4.64033
4.66072
4.68171
4.70333
4.72561
4.74856
4.77223
4.79661
4.82174
4.84762
4.87426
4.90166
4.92982
4.95871
4.9883
5.01853
5.04933
5.08059
5.1122
5.144
5.17582
5.2075
5.23883
5.26958
5.29949
5.32824
5.35553
5.38104
5.40448
5.4256
5.44404
5.45938
5.4711
5.47868