/*--------------------------------*- C++ -*----------------------------------*\
| =========                 |                                                 |
| \\      /  F ield         | OpenFOAM: The Open Source CFD Toolbox           |
|  \\    /   O peration     | Version:  v2012                                 |
|   \\  /    A nd           | Website:  www.openfoam.com                      |
|    \\/     M anipulation  |                                                 |
\*---------------------------------------------------------------------------*/
FoamFile
{
    version     2.0;
    format      ascii;
    class       volScalarField;
    location    "569";
    object      p;
}
// * * * * * * * * * * * * * * * * * * * * * * * * * * * * * * * * * * * * * //

dimensions      [0 2 -2 0 0 0 0];


internalField   nonuniform List<scalar> 
6598
(
0.353446
0.352628
0.352189
0.352003
0.351923
0.351923
0.352002
0.352188
0.352626
0.353444
0.352511
0.352271
0.35206
0.351927
0.351864
0.351863
0.351926
0.352059
0.35227
0.352508
0.351874
0.351884
0.351802
0.351716
0.351674
0.351674
0.351715
0.3518
0.351882
0.351872
0.351492
0.351559
0.351514
0.351452
0.351425
0.351424
0.35145
0.351512
0.351555
0.351489
0.351184
0.351261
0.351232
0.35118
0.351157
0.351157
0.351177
0.351227
0.351256
0.351179
0.350888
0.350962
0.350942
0.3509
0.35088
0.350878
0.350896
0.350935
0.350955
0.350881
0.350597
0.350664
0.350644
0.350609
0.350592
0.350589
0.350603
0.350635
0.350653
0.350587
0.350313
0.350371
0.350348
0.350315
0.350299
0.350295
0.350306
0.350334
0.350355
0.350297
0.350032
0.350082
0.350057
0.350024
0.350006
0.350001
0.35001
0.350036
0.350057
0.350007
0.349754
0.349796
0.349769
0.349735
0.349715
0.349708
0.349714
0.349737
0.349759
0.349716
0.349477
0.349513
0.349484
0.349448
0.349425
0.349414
0.349417
0.349436
0.349458
0.349421
0.349205
0.349236
0.349203
0.349164
0.349136
0.34912
0.349117
0.349132
0.349152
0.34912
0.34894
0.348965
0.348929
0.348885
0.34885
0.348825
0.348815
0.348823
0.34884
0.348812
0.348685
0.348706
0.348664
0.348612
0.348566
0.348529
0.348507
0.348506
0.348518
0.348492
0.348447
0.348463
0.348413
0.348348
0.348285
0.348231
0.348192
0.348176
0.348181
0.348157
0.348231
0.348241
0.348181
0.348098
0.34801
0.347927
0.347862
0.347827
0.347821
0.347798
0.34805
0.348054
0.347978
0.347868
0.347746
0.347621
0.347515
0.347446
0.347427
0.347407
0.347919
0.347915
0.347817
0.347669
0.347495
0.347309
0.347137
0.347016
0.346981
0.34697
0.34786
0.347847
0.347721
0.347518
0.347266
0.346983
0.346701
0.346484
0.346422
0.346504
0.347902
0.347881
0.347718
0.347446
0.34709
0.34667
0.346215
0.345846
0.345725
0.346083
0.348086
0.348056
0.347851
0.347495
0.347005
0.34639
0.345635
0.344813
0.343827
0.339646
0.348446
0.348412
0.348166
0.347723
0.347103
0.346309
0.345275
0.343893
0.34303
0.344782
0.349028
0.348998
0.348716
0.348195
0.347454
0.34652
0.345368
0.343718
0.3417
0.343368
0.34988
0.34986
0.349548
0.348952
0.348092
0.346998
0.345684
0.343861
0.340799
0.341397
0.351054
0.351047
0.350704
0.35003
0.349047
0.347778
0.346252
0.344334
0.340885
0.340762
0.352597
0.352605
0.352229
0.351475
0.350366
0.348924
0.347176
0.345121
0.341396
0.340099
0.354562
0.354583
0.354172
0.353331
0.352087
0.350462
0.34847
0.346204
0.342275
0.339701
0.357028
0.35707
0.356622
0.355684
0.354285
0.352455
0.350191
0.347652
0.343722
0.339924
0.360093
0.360161
0.35967
0.358618
0.357039
0.354973
0.352402
0.349466
0.34546
0.341203
0.363819
0.363898
0.363357
0.362169
0.360384
0.358051
0.355161
0.351803
0.34754
0.343181
0.368288
0.368385
0.367764
0.36641
0.364382
0.361739
0.358498
0.354737
0.350124
0.345487
0.373583
0.373699
0.372967
0.371414
0.369097
0.366079
0.362405
0.358175
0.353216
0.348132
0.379787
0.379904
0.379052
0.37727
0.374608
0.371135
0.366917
0.362062
0.356638
0.350962
0.387023
0.387136
0.386145
0.384094
0.381023
0.377009
0.372136
0.366519
0.360382
0.35398
0.395436
0.395541
0.394388
0.392024
0.388483
0.383843
0.378204
0.371705
0.364636
0.357329
0.405172
0.405267
0.403931
0.401217
0.39715
0.391809
0.385296
0.377783
0.369607
0.361208
0.416383
0.416467
0.414931
0.411838
0.407202
0.401095
0.393624
0.38498
0.375547
0.365876
0.429218
0.429291
0.427543
0.424052
0.418817
0.411905
0.403419
0.393562
0.382754
0.371651
0.443811
0.443876
0.441909
0.438012
0.432169
0.424435
0.41491
0.403801
0.391547
0.378886
0.460273
0.460331
0.458143
0.453845
0.447403
0.43886
0.428309
0.415955
0.40224
0.387952
0.478673
0.478723
0.476316
0.47163
0.464619
0.455308
0.443786
0.430246
0.415119
0.399201
0.499024
0.499064
0.49644
0.491386
0.483851
0.473843
0.461442
0.446828
0.430404
0.412936
0.521279
0.521294
0.518452
0.513055
0.505053
0.494437
0.481284
0.465753
0.448213
0.429364
0.545313
0.545281
0.542211
0.536489
0.528078
0.516958
0.5032
0.48695
0.468526
0.448548
0.570911
0.570802
0.567484
0.561443
0.552678
0.541158
0.526954
0.510199
0.491164
0.470371
0.597765
0.597544
0.593944
0.587577
0.578499
0.566674
0.55218
0.535139
0.515776
0.494518
0.625483
0.625103
0.621172
0.614455
0.60509
0.593044
0.578401
0.561278
0.541861
0.520486
0.653586
0.652991
0.648665
0.641556
0.631919
0.619723
0.605056
0.588032
0.568805
0.547632
0.681505
0.680626
0.675829
0.668285
0.658392
0.646116
0.631541
0.614778
0.595947
0.57524
0.708562
0.707319
0.701982
0.693984
0.683876
0.671612
0.657253
0.640899
0.622639
0.602606
0.733939
0.732229
0.726337
0.717941
0.707725
0.695613
0.681628
0.665843
0.64831
0.629111
0.756635
0.754367
0.748031
0.73943
0.729318
0.717581
0.704184
0.689156
0.672508
0.654273
0.775144
0.772655
0.766214
0.757745
0.74809
0.737069
0.724549
0.710509
0.694916
0.677761
0.7872
0.785893
0.780247
0.772392
0.763653
0.753785
0.742498
0.729709
0.715354
0.699385
0.792193
0.79247
0.789064
0.782945
0.775835
0.767639
0.757975
0.746709
0.733763
0.719068
0.793336
0.793997
0.792868
0.789396
0.784682
0.778691
0.771025
0.761525
0.750114
0.736731
0.793323
0.79353
0.793457
0.792494
0.790542
0.78715
0.781825
0.774326
0.764559
0.752495
0.793232
0.7927
0.792774
0.79351
0.794027
0.793249
0.790406
0.785039
0.776959
0.7662
0.793959
0.79292
0.792801
0.794182
0.796453
0.79788
0.797124
0.793465
0.786758
0.777103
0.795151
0.794554
0.794625
0.796344
0.799326
0.802041
0.803088
0.800979
0.795754
0.787761
0.320107
0.323761
0.326157
0.328154
0.329369
0.329626
0.329073
0.327839
0.326074
0.324129
0.322146
0.320209
0.318511
0.317203
0.316327
0.315877
0.315864
0.316293
0.317143
0.318345
0.319766
0.321186
0.322272
0.322783
0.322918
0.327422
0.324557
0.324748
0.326095
0.327165
0.327517
0.326966
0.325679
0.323962
0.322083
0.32023
0.318532
0.317112
0.316041
0.315342
0.315013
0.315051
0.315469
0.316257
0.317385
0.318778
0.320282
0.321681
0.322591
0.322948
0.327886
0.324787
0.324102
0.324735
0.325434
0.32561
0.32502
0.323797
0.322205
0.320472
0.318795
0.3173
0.316079
0.315184
0.314621
0.314371
0.314419
0.314766
0.315407
0.31633
0.3175
0.318843
0.320243
0.321442
0.322164
0.326613
0.323677
0.32283
0.323268
0.323866
0.323998
0.323395
0.322172
0.32062
0.318971
0.317408
0.316063
0.315007
0.314255
0.313794
0.313602
0.313665
0.313982
0.314546
0.315341
0.31634
0.317491
0.318709
0.319846
0.320697
0.326852
0.32248
0.321104
0.321473
0.322202
0.322401
0.321902
0.320786
0.319329
0.3178
0.316374
0.315168
0.314237
0.313585
0.313188
0.31303
0.313095
0.313387
0.313896
0.314607
0.315494
0.316511
0.317574
0.318552
0.31939
0.327864
0.322197
0.319908
0.320076
0.320883
0.321197
0.320849
0.31989
0.318555
0.317138
0.315818
0.314713
0.313869
0.313277
0.312915
0.312773
0.312837
0.313113
0.313591
0.314256
0.315083
0.316032
0.317013
0.317833
0.318489
0.328722
0.322784
0.319993
0.319812
0.320417
0.32076
0.320473
0.319654
0.318407
0.31706
0.315785
0.31472
0.31391
0.313342
0.312995
0.312859
0.312925
0.313194
0.313663
0.314317
0.315134
0.316088
0.3171
0.317862
0.318119
0.329761
0.324325
0.321491
0.320854
0.321145
0.321439
0.321164
0.320321
0.319037
0.317663
0.316357
0.31526
0.314427
0.313845
0.313486
0.313339
0.313397
0.31366
0.314133
0.314808
0.315664
0.316691
0.317869
0.318827
0.318589
0.331873
0.326836
0.324048
0.323074
0.323055
0.323175
0.322829
0.32185
0.320537
0.319064
0.317642
0.31642
0.31548
0.314824
0.31442
0.314243
0.31428
0.314532
0.315009
0.315707
0.316604
0.317658
0.31891
0.320496
0.322145
0.33484
0.330065
0.327309
0.326141
0.325897
0.325821
0.325305
0.324226
0.322891
0.321312
0.31972
0.318284
0.317126
0.316288
0.315757
0.315499
0.315481
0.31568
0.316092
0.316714
0.317536
0.31857
0.319924
0.321735
0.323782
0.338097
0.333582
0.330904
0.329665
0.329295
0.329094
0.328513
0.32742
0.325987
0.324353
0.322643
0.321001
0.319565
0.318427
0.317623
0.317156
0.316995
0.317077
0.317386
0.31793
0.318713
0.319745
0.321033
0.322511
0.324238
0.341361
0.337023
0.334443
0.333188
0.33274
0.33248
0.331905
0.330859
0.329491
0.327948
0.326289
0.324613
0.32304
0.321677
0.320609
0.319885
0.31951
0.319453
0.319709
0.320288
0.321175
0.322272
0.323548
0.325046
0.326944
0.344478
0.34021
0.337651
0.336359
0.335859
0.335584
0.335067
0.334128
0.332917
0.33158
0.330132
0.328634
0.327187
0.325899
0.324879
0.324141
0.323675
0.323515
0.323698
0.324238
0.325092
0.326116
0.327456
0.329115
0.330642
0.347442
0.343054
0.340388
0.339
0.33843
0.338132
0.337668
0.336839
0.335798
0.3347
0.333499
0.332206
0.330982
0.329923
0.32908
0.328474
0.328099
0.327968
0.328182
0.328751
0.329482
0.330283
0.331196
0.332175
0.33309
0.350398
0.345646
0.342703
0.341112
0.340401
0.340051
0.339622
0.33889
0.337947
0.337024
0.336097
0.335068
0.334039
0.333154
0.332474
0.33201
0.331753
0.3317
0.33187
0.332224
0.332679
0.33321
0.333795
0.334386
0.334979
0.353566
0.348184
0.344755
0.342818
0.341865
0.341399
0.340982
0.340345
0.339471
0.338589
0.337822
0.33706
0.336269
0.335563
0.335
0.334611
0.334405
0.334366
0.334476
0.33469
0.334982
0.335348
0.335762
0.336181
0.336584
0.357226
0.350939
0.346783
0.344308
0.342982
0.342299
0.341833
0.341274
0.340519
0.339666
0.338896
0.338246
0.337654
0.337121
0.336688
0.336378
0.336202
0.336162
0.336246
0.336426
0.336669
0.336954
0.337257
0.337555
0.337827
0.36172
0.354244
0.349086
0.345841
0.343969
0.342939
0.342317
0.34177
0.341121
0.340379
0.339648
0.339004
0.33847
0.338029
0.337681
0.337434
0.337297
0.337276
0.33737
0.33755
0.33778
0.338036
0.338291
0.338527
0.33873
0.36744
0.358494
0.352037
0.347748
0.345103
0.343555
0.342633
0.341983
0.34137
0.340717
0.340066
0.339479
0.338971
0.33856
0.338257
0.338055
0.33795
0.337943
0.338027
0.338193
0.338431
0.338698
0.338953
0.339176
0.339359
0.374808
0.364138
0.356073
0.350435
0.346742
0.344443
0.343041
0.342137
0.34145
0.340822
0.340223
0.339684
0.339232
0.33888
0.338628
0.338472
0.338404
0.338416
0.338491
0.338636
0.338849
0.339103
0.339369
0.33961
0.339802
0.384253
0.371656
0.361695
0.354378
0.349318
0.345984
0.343859
0.34251
0.341597
0.340895
0.340297
0.339783
0.339366
0.339054
0.338846
0.338737
0.338719
0.338778
0.338898
0.339062
0.33925
0.339464
0.339706
0.339948
0.340154
0.396177
0.381535
0.369439
0.360126
0.353353
0.348649
0.3455
0.34344
0.342092
0.341164
0.340469
0.339922
0.339498
0.339196
0.339012
0.338938
0.338962
0.339068
0.339236
0.339443
0.339663
0.339879
0.340091
0.340302
0.340494
0.410899
0.394214
0.379844
0.368268
0.359441
0.353003
0.348478
0.345389
0.343319
0.341932
0.340978
0.340295
0.339799
0.339457
0.339258
0.33919
0.339238
0.339379
0.339586
0.33983
0.34008
0.340314
0.340528
0.340711
0.34086
0.428601
0.410017
0.393377
0.379383
0.368219
0.359693
0.353414
0.348927
0.345798
0.343652
0.342187
0.341182
0.34049
0.34003
0.339759
0.339659
0.339706
0.339866
0.340095
0.340354
0.340597
0.340804
0.340979
0.341122
0.341234
0.44927
0.429079
0.410349
0.393947
0.380289
0.369388
0.360994
0.354722
0.350153
0.346894
0.344605
0.343014
0.341922
0.341193
0.340755
0.340564
0.340581
0.340716
0.340876
0.341035
0.341186
0.341324
0.341441
0.341541
0.341627
0.472664
0.451277
0.430816
0.412219
0.396096
0.382677
0.371895
0.363484
0.357088
0.352327
0.348846
0.346339
0.344563
0.34334
0.342572
0.342171
0.341986
0.341892
0.341839
0.341816
0.34184
0.341905
0.34198
0.342051
0.34211
0.498305
0.476208
0.454512
0.434134
0.415798
0.399924
0.386642
0.375847
0.36729
0.360649
0.355584
0.35178
0.348961
0.346918
0.345538
0.344635
0.343952
0.343431
0.343089
0.342891
0.34279
0.34275
0.34274
0.342741
0.342743
0.525525
0.503208
0.480839
0.459238
0.439149
0.421119
0.405447
0.392207
0.381289
0.372469
0.365462
0.359969
0.355703
0.35242
0.35
0.348226
0.346865
0.345854
0.34514
0.344646
0.3443
0.344058
0.343884
0.343753
0.343646
0.553545
0.531441
0.508937
0.486717
0.465467
0.445775
0.42806
0.412544
0.399268
0.388133
0.378943
0.371447
0.365374
0.360454
0.356529
0.353566
0.351397
0.349734
0.348437
0.347444
0.34669
0.346114
0.345666
0.345308
0.345012
0.58158
0.560023
0.537826
0.51553
0.493722
0.472963
0.453717
0.436308
0.420905
0.407537
0.396116
0.386474
0.378388
0.371605
0.365904
0.361346
0.357972
0.355419
0.353351
0.351669
0.350313
0.349227
0.348354
0.347641
0.347045
0.608933
0.588147
0.566562
0.544598
0.522735
0.501468
0.481252
0.462455
0.445331
0.430014
0.416525
0.404794
0.394682
0.386002
0.378539
0.372218
0.367092
0.363082
0.359964
0.357463
0.355369
0.353621
0.352171
0.350952
0.349915
0.635057
0.615168
0.594368
0.572985
0.551407
0.530056
0.50935
0.489659
0.471278
0.454411
0.439168
0.425568
0.413561
0.403044
0.393881
0.38594
0.379111
0.373377
0.36869
0.36486
0.361713
0.359148
0.357035
0.355223
0.353647
0.659581
0.640644
0.620695
0.599997
0.578875
0.55769
0.536818
0.516612
0.497378
0.47936
0.462722
0.447556
0.433884
0.421675
0.410859
0.401349
0.393046
0.385854
0.379636
0.374327
0.369884
0.366158
0.363007
0.360329
0.358041
0.682285
0.664306
0.645197
0.625188
0.604557
0.583631
0.562752
0.542255
0.522449
0.50359
0.485879
0.469452
0.454385
0.440701
0.428383
0.417383
0.407634
0.399054
0.391548
0.385027
0.379385
0.374467
0.370191
0.366539
0.36343
0.70306
0.686
0.667669
0.648281
0.628092
0.607405
0.586548
0.565851
0.545619
0.526118
0.507566
0.490128
0.473916
0.458992
0.445376
0.433055
0.421988
0.412116
0.403365
0.395647
0.38887
0.382932
0.37775
0.373249
0.369341
0.721797
0.705596
0.687946
0.669062
0.649202
0.628673
0.607799
0.586912
0.566319
0.546289
0.527051
0.508789
0.491637
0.475684
0.460978
0.447531
0.435327
0.424326
0.414468
0.405683
0.39789
0.391003
0.384935
0.379603
0.374925
0.738558
0.723076
0.705945
0.687408
0.66771
0.647166
0.626142
0.604998
0.584041
0.563535
0.543709
0.524757
0.506827
0.490025
0.474419
0.46004
0.446888
0.434941
0.424153
0.414465
0.405807
0.3981
0.391263
0.385216
0.379877
0.753189
0.738287
0.721465
0.70305
0.683377
0.662777
0.641591
0.62018
0.598876
0.577949
0.557628
0.538107
0.519544
0.502058
0.485725
0.470591
0.456672
0.443955
0.432407
0.421979
0.412607
0.404221
0.396745
0.390101
0.38421
0.764716
0.750093
0.7334
0.715023
0.695277
0.674531
0.65317
0.631533
0.609927
0.588628
0.567877
0.547879
0.5288
0.510766
0.493864
0.478148
0.463644
0.450347
0.438232
0.427256
0.417361
0.40848
0.400539
0.39346
0.387158
0.776528
0.762377
0.745896
0.727597
0.707796
0.686861
0.665201
0.64318
0.62112
0.59931
0.578006
0.557421
0.537732
0.51907
0.501531
0.485185
0.470069
0.456183
0.443507
0.432
0.421609
0.412269
0.403909
0.396456
0.389841
0.31718
0.316673
0.315969
0.322246
0.321887
0.324196
0.32529
0.327216
0.330145
0.326074
0.328539
0.331349
0.329009
0.330824
0.332432
0.331896
0.332968
0.333935
0.333876
0.334595
0.335264
0.335522
0.335996
0.336422
0.336933
0.33722
0.337465
0.338047
0.338216
0.338348
0.338881
0.338988
0.339058
0.339487
0.339569
0.339611
0.339931
0.34001
0.340048
0.340293
0.340376
0.340416
0.34063
0.340713
0.340751
0.34097
0.341038
0.341066
0.341314
0.341362
0.341376
0.341689
0.341722
0.341723
0.342146
0.342158
0.342142
0.342733
0.342708
0.342662
0.34355
0.343456
0.343353
0.344765
0.34455
0.344346
0.346559
0.346154
0.345787
0.349077
0.348389
0.347777
0.352362
0.351306
0.350368
0.356191
0.354684
0.353357
0.360918
0.358863
0.357038
0.366148
0.363507
0.36114
0.37108
0.367895
0.365037
0.375464
0.371801
0.368509
0.379328
0.375253
0.371577
0.38189
0.377516
0.373604
0.384229
0.379488
0.375311
0.360021
0.359975
0.359851
0.359451
0.358571
0.357273
0.355698
0.353968
0.35218
0.350405
0.34869
0.347063
0.345542
0.344133
0.342838
0.341655
0.34058
0.339607
0.33873
0.337943
0.337241
0.336618
0.336071
0.335595
0.335186
0.334843
0.334563
0.334344
0.334184
0.334084
0.334044
0.334067
0.334149
0.334294
0.334498
0.334765
0.335092
0.335486
0.335959
0.336509
0.337134
0.337837
0.338621
0.339487
0.340438
0.341474
0.342595
0.3438
0.345084
0.34644
0.347857
0.349317
0.350796
0.352256
0.353646
0.354887
0.355867
0.356484
0.35673
0.356573
0.355908
0.354719
0.353019
0.350708
0.347729
0.344343
0.340807
0.337128
0.333563
0.330452
0.328079
0.326569
0.326003
0.326445
0.327872
0.330081
0.33265
0.33488
0.336097
0.336481
0.360131
0.360004
0.35982
0.359241
0.35822
0.356885
0.355321
0.353631
0.351897
0.350179
0.348519
0.346942
0.345464
0.344091
0.342826
0.341667
0.34061
0.33965
0.338782
0.338001
0.337301
0.336678
0.336128
0.335647
0.335231
0.334879
0.334587
0.334355
0.334181
0.334066
0.334007
0.334002
0.334055
0.334166
0.334344
0.334592
0.334892
0.335234
0.33565
0.336149
0.336715
0.337353
0.338064
0.338849
0.339711
0.340647
0.341656
0.342735
0.343878
0.345077
0.346318
0.347585
0.348853
0.350091
0.351255
0.35229
0.353126
0.353697
0.353954
0.353855
0.353321
0.352219
0.350429
0.348005
0.344983
0.341536
0.337933
0.334361
0.331038
0.32823
0.326115
0.3248
0.324323
0.324739
0.326039
0.328144
0.330813
0.333595
0.335601
0.336447
0.360242
0.35977
0.359187
0.358316
0.357165
0.355809
0.354302
0.352712
0.351096
0.349498
0.347951
0.346476
0.345087
0.343791
0.342591
0.341485
0.340472
0.339547
0.338707
0.337948
0.337265
0.336653
0.336111
0.335634
0.335219
0.334864
0.334567
0.334327
0.334143
0.334013
0.333939
0.333917
0.333949
0.334035
0.334183
0.334396
0.334669
0.334993
0.33537
0.335815
0.336327
0.336907
0.337555
0.33827
0.339054
0.339904
0.340818
0.341792
0.34282
0.343892
0.344995
0.346112
0.347219
0.348289
0.349284
0.35016
0.350876
0.351389
0.351621
0.351471
0.350891
0.349822
0.348159
0.345876
0.342997
0.339664
0.336124
0.332646
0.329484
0.32685
0.324922
0.323784
0.323395
0.323708
0.324698
0.326339
0.328543
0.331104
0.333461
0.33497
0.359475
0.358688
0.357829
0.356822
0.355643
0.354326
0.352914
0.351452
0.349979
0.348525
0.347115
0.345766
0.344488
0.343289
0.342172
0.341138
0.340184
0.339309
0.33851
0.337784
0.337127
0.336536
0.336008
0.335541
0.335133
0.33478
0.334482
0.334237
0.334045
0.333904
0.333815
0.333777
0.333791
0.333856
0.333976
0.334151
0.334381
0.334666
0.335008
0.335408
0.33587
0.336393
0.336978
0.337626
0.338336
0.339106
0.339934
0.340816
0.341746
0.342715
0.34371
0.344718
0.345718
0.346685
0.34759
0.348398
0.349077
0.349605
0.349935
0.349912
0.349386
0.348298
0.34664
0.344398
0.341581
0.338299
0.334776
0.331324
0.328266
0.325782
0.323979
0.322941
0.322631
0.322948
0.323824
0.325207
0.32703
0.329158
0.331244
0.332871
0.35752
0.356562
0.355695
0.354757
0.353676
0.352479
0.351211
0.349912
0.348605
0.347313
0.346055
0.344846
0.343693
0.342605
0.341585
0.340633
0.339751
0.338936
0.338188
0.337503
0.336881
0.336318
0.335812
0.335361
0.334964
0.334619
0.334324
0.334079
0.333882
0.333734
0.333634
0.333582
0.333578
0.333624
0.33372
0.333866
0.334064
0.334314
0.334617
0.334975
0.335389
0.33586
0.336389
0.336975
0.337618
0.338317
0.339068
0.339869
0.340713
0.341593
0.342495
0.343408
0.344317
0.345193
0.346017
0.346759
0.347381
0.347858
0.348147
0.348144
0.347719
0.346783
0.345292
0.343222
0.340602
0.337525
0.33417
0.330813
0.327817
0.325433
0.323758
0.322815
0.322578
0.322931
0.323786
0.32507
0.326713
0.328561
0.33027
0.331635
0.353293
0.352855
0.352515
0.351957
0.35117
0.350219
0.349183
0.348111
0.347011
0.345908
0.344822
0.343766
0.342751
0.341783
0.340868
0.340008
0.339204
0.338456
0.337765
0.337129
0.336546
0.336016
0.335537
0.335107
0.334725
0.334391
0.334102
0.333859
0.333661
0.333508
0.333399
0.333335
0.333316
0.333343
0.333416
0.333537
0.333705
0.333922
0.334188
0.334505
0.334875
0.335296
0.335771
0.336299
0.336879
0.33751
0.33819
0.338914
0.339679
0.340478
0.341296
0.342125
0.342956
0.343749
0.34449
0.345166
0.345736
0.34618
0.346438
0.346423
0.346077
0.345353
0.344159
0.342426
0.340162
0.337456
0.33452
0.331483
0.32863
0.326258
0.324581
0.323654
0.323434
0.323813
0.324677
0.325953
0.327559
0.329293
0.330734
0.331648
0.345831
0.347671
0.348327
0.348456
0.348173
0.347618
0.346926
0.346142
0.345285
0.344394
0.343492
0.342598
0.341724
0.340881
0.340073
0.339307
0.338584
0.337906
0.337274
0.336689
0.336149
0.335654
0.335203
0.334796
0.334432
0.334111
0.333831
0.333592
0.333394
0.333237
0.333122
0.333047
0.333014
0.333024
0.333076
0.333172
0.333313
0.333499
0.333731
0.33401
0.334336
0.334712
0.335136
0.335609
0.336131
0.336699
0.337312
0.337965
0.338655
0.339376
0.34012
0.340877
0.341635
0.342368
0.34305
0.343673
0.344205
0.344628
0.3449
0.344952
0.344736
0.34421
0.343314
0.342019
0.340293
0.33817
0.33579
0.333225
0.330665
0.328372
0.326636
0.325602
0.325305
0.325682
0.326597
0.327956
0.329657
0.331417
0.33264
0.332876
0.330119
0.339468
0.342784
0.344334
0.344836
0.344838
0.344577
0.344114
0.343517
0.342843
0.342127
0.341394
0.34066
0.339938
0.339237
0.338562
0.33792
0.337311
0.336739
0.336204
0.335707
0.335247
0.334826
0.334443
0.334098
0.33379
0.33352
0.333286
0.33309
0.332931
0.332809
0.332725
0.33268
0.332673
0.332706
0.332779
0.332894
0.33305
0.33325
0.333493
0.333779
0.334111
0.334489
0.334911
0.335378
0.335889
0.336441
0.337032
0.337657
0.33831
0.338985
0.33967
0.340357
0.341052
0.34172
0.342319
0.34285
0.343256
0.343529
0.343686
0.34365
0.343363
0.342787
0.34195
0.340849
0.339448
0.337686
0.335718
0.333689
0.331681
0.330003
0.328792
0.328131
0.328097
0.328763
0.330046
0.331566
0.333103
0.334382
0.334288
0.330276
0.33568
0.33886
0.340898
0.341905
0.342353
0.342425
0.342225
0.341851
0.341368
0.340818
0.340228
0.339621
0.33901
0.338406
0.337817
0.337248
0.336704
0.336187
0.3357
0.335244
0.334819
0.334427
0.334067
0.333739
0.333445
0.333184
0.332956
0.332761
0.3326
0.332473
0.332381
0.332323
0.332302
0.332317
0.332369
0.332459
0.332589
0.332758
0.332968
0.333219
0.333511
0.333846
0.334223
0.334642
0.335103
0.335602
0.336139
0.33671
0.33731
0.337933
0.338572
0.339216
0.339861
0.340487
0.341078
0.34164
0.342119
0.342485
0.342752
0.342887
0.342858
0.34264
0.342212
0.341597
0.3408
0.339768
0.338614
0.337452
0.336256
0.335009
0.333909
0.333049
0.332519
0.332436
0.332972
0.334286
0.336607
0.339936
0.342311
0.333091
0.335722
0.337672
0.339124
0.340048
0.340563
0.34074
0.340675
0.340441
0.340091
0.339664
0.339187
0.338681
0.338161
0.337638
0.337121
0.336615
0.336127
0.335659
0.335214
0.334793
0.334399
0.334031
0.333692
0.333381
0.333098
0.332845
0.332622
0.332429
0.332266
0.332134
0.332034
0.331966
0.331931
0.33193
0.331963
0.332032
0.332137
0.33228
0.33246
0.332679
0.332938
0.333237
0.333575
0.333955
0.334373
0.334831
0.335325
0.335854
0.336414
0.337001
0.337609
0.338231
0.338859
0.339484
0.340093
0.340679
0.341215
0.341691
0.342099
0.342421
0.342644
0.342757
0.342754
0.34264
0.342432
0.342131
0.341754
0.341315
0.341017
0.340735
0.340439
0.340381
0.340737
0.341359
0.342182
0.343333
0.345474
0.349535
0.355278
0.333719
0.335653
0.337111
0.338193
0.338924
0.339342
0.339511
0.339489
0.339323
0.339051
0.338704
0.338306
0.337874
0.337422
0.336962
0.336501
0.336047
0.335604
0.335175
0.334765
0.334374
0.334004
0.333658
0.333335
0.333037
0.332765
0.332519
0.332299
0.332107
0.331942
0.331805
0.331698
0.33162
0.331573
0.331557
0.331573
0.331623
0.331707
0.331826
0.331981
0.332174
0.332404
0.332673
0.33298
0.333327
0.333713
0.334138
0.334601
0.3351
0.335633
0.336197
0.336787
0.3374
0.33803
0.338668
0.339308
0.339941
0.340555
0.341142
0.341694
0.342203
0.342661
0.343065
0.343417
0.343724
0.343999
0.344263
0.344544
0.34487
0.345305
0.3459
0.346694
0.347699
0.348897
0.350374
0.35228
0.354761
0.357989
0.362102
0.367245
0.334048
0.335533
0.336725
0.337612
0.33819
0.338516
0.338649
0.338627
0.338485
0.338251
0.337949
0.337599
0.337215
0.336811
0.336395
0.335976
0.335559
0.33515
0.334752
0.334367
0.333999
0.333649
0.333319
0.33301
0.332722
0.332457
0.332215
0.331998
0.331805
0.331638
0.331496
0.331382
0.331295
0.331237
0.331208
0.331209
0.331242
0.331307
0.331407
0.331541
0.331711
0.331918
0.332162
0.332445
0.332767
0.333128
0.33353
0.33397
0.33445
0.334966
0.335519
0.336105
0.336721
0.337363
0.338027
0.338708
0.3394
0.340097
0.340794
0.341485
0.342167
0.342838
0.343498
0.344151
0.344806
0.345475
0.346177
0.346936
0.347782
0.348749
0.34988
0.351228
0.35282
0.354641
0.356741
0.359213
0.362158
0.365545
0.369174
0.372987
0.334943
0.335916
0.336747
0.337388
0.337805
0.338027
0.338099
0.338048
0.337899
0.337673
0.337389
0.337063
0.336706
0.33633
0.335943
0.335551
0.33516
0.334774
0.334397
0.334031
0.333679
0.333343
0.333024
0.332724
0.332443
0.332183
0.331944
0.331727
0.331533
0.331362
0.331216
0.331094
0.330999
0.33093
0.33089
0.330878
0.330896
0.330946
0.331028
0.331144
0.331296
0.331484
0.331709
0.331973
0.332276
0.33262
0.333005
0.333432
0.3339
0.334409
0.334959
0.335549
0.336177
0.33684
0.337537
0.338265
0.339019
0.339798
0.340597
0.341416
0.342252
0.343106
0.34398
0.344879
0.345812
0.34679
0.347828
0.348948
0.350174
0.351533
0.353066
0.35482
0.356794
0.358897
0.36111
0.363508
0.366142
0.368983
0.37198
0.375179
0.335912
0.336516
0.337036
0.33744
0.337697
0.337809
0.337805
0.337706
0.33753
0.337292
0.337006
0.336685
0.336339
0.335977
0.335604
0.335227
0.334851
0.334479
0.334115
0.333761
0.333419
0.333091
0.332779
0.332484
0.332207
0.331949
0.331711
0.331493
0.331296
0.331121
0.33097
0.330842
0.330738
0.33066
0.330609
0.330585
0.330591
0.330627
0.330695
0.330796
0.330932
0.331105
0.331315
0.331565
0.331855
0.332187
0.332562
0.33298
0.333444
0.333952
0.334506
0.335106
0.33575
0.336439
0.337172
0.337946
0.338761
0.339615
0.340507
0.341436
0.342403
0.343408
0.344455
0.345547
0.346692
0.347898
0.349178
0.350545
0.352017
0.353616
0.355382
0.35734
0.359392
0.361442
0.363525
0.365741
0.368139
0.370685
0.373346
0.376113
0.33682
0.337174
0.337463
0.337671
0.337782
0.337793
0.33771
0.337554
0.337339
0.337075
0.336775
0.336447
0.336099
0.335739
0.33537
0.334999
0.334629
0.334264
0.333906
0.333557
0.33322
0.332897
0.332588
0.332295
0.332018
0.33176
0.33152
0.3313
0.3311
0.330921
0.330763
0.330628
0.330517
0.33043
0.330369
0.330335
0.330329
0.330354
0.330409
0.330498
0.330622
0.330783
0.330982
0.331221
0.331501
0.331825
0.332194
0.332609
0.333072
0.333584
0.334146
0.334759
0.335423
0.336138
0.336905
0.337724
0.338593
0.339513
0.340484
0.341506
0.342579
0.343704
0.344884
0.346122
0.347422
0.348789
0.35023
0.351755
0.353371
0.3551
0.356963
0.358915
0.360855
0.362815
0.364858
0.366981
0.36919
0.371483
0.373852
0.37627
0.337681
0.337856
0.337976
0.338033
0.338014
0.337926
0.337769
0.337551
0.33729
0.336994
0.336671
0.336327
0.33597
0.335603
0.335232
0.33486
0.33449
0.334125
0.333767
0.33342
0.333083
0.33276
0.332451
0.332158
0.33188
0.33162
0.331377
0.331153
0.330949
0.330765
0.330601
0.330459
0.33034
0.330245
0.330175
0.330131
0.330116
0.330129
0.330175
0.330253
0.330366
0.330517
0.330707
0.330938
0.331212
0.331531
0.331897
0.332312
0.332777
0.333295
0.333866
0.334493
0.335177
0.335917
0.336716
0.337574
0.33849
0.339466
0.340501
0.341596
0.342751
0.343967
0.345246
0.346587
0.347994
0.349467
0.351009
0.352623
0.354312
0.356086
0.357947
0.359809
0.361673
0.363606
0.365586
0.367589
0.369623
0.371697
0.373814
0.375959
0.338448
0.338504
0.338509
0.338461
0.33835
0.338173
0.33794
0.337661
0.337352
0.33702
0.33667
0.336307
0.335936
0.335558
0.33518
0.334802
0.334428
0.334059
0.333699
0.333348
0.33301
0.332684
0.332373
0.332076
0.331796
0.331532
0.331285
0.331057
0.330847
0.330657
0.330488
0.330339
0.330212
0.330109
0.33003
0.329977
0.329952
0.329956
0.329992
0.330061
0.330166
0.330308
0.330491
0.330716
0.330985
0.331301
0.331666
0.332081
0.33255
0.333075
0.333656
0.334297
0.334998
0.335761
0.336588
0.337478
0.338433
0.339453
0.340538
0.341688
0.342904
0.344185
0.345532
0.346943
0.348418
0.349955
0.351553
0.353211
0.354928
0.356702
0.3585
0.360293
0.362123
0.364007
0.365905
0.367794
0.36968
0.37158
0.373508
0.375461
0.33909
0.339074
0.33901
0.338897
0.33873
0.338493
0.338195
0.337859
0.337502
0.337134
0.336758
0.336374
0.335987
0.335597
0.335208
0.334822
0.334441
0.334067
0.333701
0.333346
0.333003
0.332673
0.332357
0.332056
0.331771
0.331502
0.33125
0.331017
0.330801
0.330605
0.330429
0.330272
0.330138
0.330026
0.329938
0.329877
0.329842
0.329838
0.329865
0.329926
0.330022
0.330157
0.330333
0.330553
0.330818
0.331132
0.331496
0.331913
0.332386
0.332917
0.333508
0.334161
0.334877
0.33566
0.336508
0.337425
0.338409
0.339462
0.340584
0.341773
0.343031
0.344355
0.345746
0.3472
0.348714
0.350285
0.35191
0.353584
0.355303
0.357048
0.358775
0.360509
0.362304
0.364134
0.365959
0.367758
0.369531
0.371303
0.373103
0.374942
0.339613
0.33956
0.339456
0.339305
0.339106
0.338843
0.338501
0.338113
0.337717
0.337321
0.336922
0.336521
0.336118
0.335716
0.335317
0.334923
0.334534
0.334154
0.333783
0.333422
0.333073
0.332737
0.332414
0.332106
0.331814
0.331539
0.331281
0.33104
0.330818
0.330615
0.330431
0.330267
0.330123
0.330003
0.329906
0.329835
0.329791
0.329777
0.329796
0.329848
0.329937
0.330065
0.330236
0.33045
0.330712
0.331023
0.331387
0.331806
0.332282
0.332818
0.333417
0.33408
0.334809
0.335607
0.336473
0.337409
0.338415
0.339491
0.340637
0.341853
0.343136
0.344488
0.345906
0.347385
0.348918
0.350499
0.35213
0.353798
0.35548
0.357158
0.35883
0.360537
0.362296
0.364077
0.365845
0.367577
0.369271
0.370954
0.372671
0.37443
0.34004
0.339974
0.339851
0.339681
0.339466
0.339177
0.338803
0.33839
0.337976
0.337563
0.337149
0.336734
0.336319
0.335907
0.335499
0.335097
0.334703
0.334318
0.333944
0.33358
0.333226
0.332884
0.332554
0.332238
0.331938
0.331654
0.331387
0.331138
0.330907
0.330697
0.330505
0.330331
0.330177
0.330046
0.329938
0.329857
0.329803
0.329779
0.329788
0.329832
0.329913
0.330034
0.330198
0.330407
0.330665
0.330974
0.331338
0.331758
0.332237
0.332778
0.333383
0.334055
0.334794
0.335603
0.336483
0.337434
0.338455
0.339548
0.34071
0.34194
0.343237
0.344601
0.346036
0.347528