/*--------------------------------*- C++ -*----------------------------------*\
| =========                 |                                                 |
| \\      /  F ield         | OpenFOAM: The Open Source CFD Toolbox           |
|  \\    /   O peration     | Version:  v2012                                 |
|   \\  /    A nd           | Website:  www.openfoam.com                      |
|    \\/     M anipulation  |                                                 |
\*---------------------------------------------------------------------------*/
FoamFile
{
    version     2.0;
    format      ascii;
    class       surfaceScalarField;
    location    "569";
    object      phi;
}
// * * * * * * * * * * * * * * * * * * * * * * * * * * * * * * * * * * * * * //

dimensions      [0 3 -1 0 0 0 0];
oriented        oriented;


internalField   nonuniform List<scalar> 
12946
(
7.77582e-08
0.000199922
5.03687e-08
0.000200027
2.93892e-08
0.000200021
1.36282e-08
0.000200016
4.73844e-11
0.000200014
-1.35402e-08
0.000200014
-2.93208e-08
0.000200016
-5.03331e-08
0.000200021
-7.77459e-08
0.000200027
0.000199922
1.20999e-07
0.000199801
1.05139e-07
0.000200043
6.99497e-08
0.000200056
3.42859e-08
0.000200051
1.4197e-10
0.000200048
-3.40214e-08
0.000200048
-6.97443e-08
0.000200052
-1.05033e-07
0.000200056
-1.20979e-07
0.000200043
0.000199801
1.22752e-07
0.000199678
1.22201e-07
0.000200044
8.80787e-08
0.00020009
4.50873e-08
0.000200094
2.66322e-10
0.000200093
-4.45796e-08
0.000200093
-8.76345e-08
0.000200095
-1.21842e-07
0.000200091
-1.22548e-07
0.000200044
0.000199679
1.19273e-07
0.000199559
1.23803e-07
0.000200039
9.30204e-08
0.000200121
4.90513e-08
0.000200138
4.2514e-10
0.000200141
-4.82509e-08
0.000200141
-9.23654e-08
0.000200139
-1.23315e-07
0.000200121
-1.18996e-07
0.00020004
0.00019956
1.14773e-07
0.000199444
1.21046e-07
0.000200033
9.27066e-08
0.000200149
4.96664e-08
0.000200181
6.67117e-10
0.00020019
-4.84016e-08
0.00020019
-9.16301e-08
0.000200182
-1.20264e-07
0.00020015
-1.14336e-07
0.000200034
0.000199445
1.09058e-07
0.000199335
1.16322e-07
0.000200026
9.05449e-08
0.000200175
4.9012e-08
0.000200223
1.04759e-09
0.000200238
-4.70077e-08
0.000200238
-8.88071e-08
0.000200224
-1.15062e-07
0.000200176
-1.08379e-07
0.000200027
0.000199337
1.03397e-07
0.000199232
1.10958e-07
0.000200018
8.69331e-08
0.000200199
4.75591e-08
0.000200262
1.5878e-09
0.000200284
-4.45359e-08
0.000200285
-8.4356e-08
0.000200264
-1.09051e-07
0.000200201
-1.02356e-07
0.00020002
0.000199235
9.83152e-08
0.000199134
1.05649e-07
0.000200011
8.30057e-08
0.000200222
4.59374e-08
0.000200299
2.39391e-09
0.000200328
-4.13772e-08
0.000200328
-7.91055e-08
0.000200301
-1.02776e-07
0.000200225
-9.67421e-08
0.000200014
0.000199138
9.40347e-08
0.00019904
1.01107e-07
0.000200004
7.98271e-08
0.000200243
4.48292e-08
0.000200334
3.60951e-09
0.000200369
-3.79494e-08
0.00020037
-7.39379e-08
0.000200337
-9.67821e-08
0.000200248
-9.16645e-08
0.000200009
0.000199046
9.06341e-08
0.000198949
9.76101e-08
0.000199997
7.76307e-08
0.000200263
4.45418e-08
0.000200367
5.42655e-09
0.000200408
-3.41998e-08
0.000200409
-6.87799e-08
0.000200372
-9.11027e-08
0.00020027
-8.7061e-08
0.000200005
0.000198959
8.81498e-08
0.000198861
9.53415e-08
0.00019999
7.66681e-08
0.000200282
4.53696e-08
0.000200399
8.14279e-09
0.000200445
-2.98512e-08
0.000200447
-6.33776e-08
0.000200405
-8.55402e-08
0.000200292
-8.27621e-08
0.000200002
0.000198876
8.66689e-08
0.000198774
9.45466e-08
0.000199982
7.72721e-08
0.000200299
4.77262e-08
0.000200428
1.22066e-08
0.000200481
-2.44639e-08
0.000200484
-5.73292e-08
0.000200438
-7.9745e-08
0.000200314
-7.85267e-08
0.000200001
0.000198798
8.63769e-08
0.000198688
9.55769e-08
0.000199973
7.99899e-08
0.000200315
5.22504e-08
0.000200456
1.83056e-08
0.000200515
-1.73635e-08
0.00020052
-5.00297e-08
0.000200471
-7.32278e-08
0.000200338
-7.4052e-08
0.000200002
0.000198724
8.72919e-08
0.000198601
9.85049e-08
0.000199961
8.53617e-08
0.000200328
5.98547e-08
0.000200482
2.74616e-08
0.000200547
-7.55596e-09
0.000200555
-4.06124e-08
0.000200504
-6.53263e-08
0.000200362
-6.89558e-08
0.000200006
0.000198655
8.999e-08
0.000198511
1.04555e-07
0.000199947
9.47645e-08
0.000200338
7.19644e-08
0.000200504
4.12082e-08
0.000200578
6.43167e-09
0.00020059
-2.78156e-08
0.000200538
-5.51213e-08
0.00020039
-6.27536e-08
0.000200013
0.000198592
9.50924e-08
0.000198415
1.14807e-07
0.000199927
1.09634e-07
0.000200343
9.03351e-08
0.000200524
6.14974e-08
0.000200607
2.70513e-08
0.000200624
-9.56053e-09
0.000200575
-4.13439e-08
0.000200421
-5.48883e-08
0.000200027
0.000198537
1.03472e-07
0.000198312
1.30958e-07
0.0001999
1.32603e-07
0.000200341
1.18388e-07
0.000200538
9.24236e-08
0.000200633
5.73973e-08
0.000200659
1.6858e-08
0.000200615
-2.23171e-08
0.000200461
-4.49587e-08
0.00020005
0.000198492
1.16272e-07
0.000198196
1.55245e-07
0.000199861
1.66981e-07
0.000200329
1.60699e-07
0.000200544
1.39223e-07
0.000200654
1.03147e-07
0.000200695
5.55993e-08
0.000200663
2.85152e-09
0.000200513
-3.47361e-08
0.000200087
0.000198458
1.34961e-07
0.000198061
1.90754e-07
0.000199805
2.17589e-07
0.000200303
2.23711e-07
0.000200538
2.10034e-07
0.000200668
1.75547e-07
0.00020073
1.20024e-07
0.000200718
5.01634e-08
0.000200583
-1.75511e-08
0.000200155
0.00019844
1.60892e-07
0.0001979
2.4092e-07
0.000199725
2.90012e-07
0.000200253
3.15455e-07
0.000200513
3.1595e-07
0.000200667
2.86383e-07
0.000200759
2.13461e-07
0.000200791
8.59392e-08
0.000200711
-1.05518e-07
0.000200346
0.000198334
1.90473e-07
0.000197709
2.99847e-07
0.000199615
3.78408e-07
0.000200175
4.33371e-07
0.000200458
4.64336e-07
0.000200636
4.69483e-07
0.000200754
4.47034e-07
0.000200814
3.98275e-07
0.00020076
6.30249e-07
0.000200114
0.000194067
4.89742e-06
2.34209e-07
0.000197475
3.8449e-07
0.000199465
5.03921e-07
0.000200055
6.00706e-07
0.000200361
6.75874e-07
0.000200561
7.3279e-07
0.000200697
7.92201e-07
0.000200754
9.08361e-07
0.000200643
1.16726e-06
0.000199855
0.000192105
3.12911e-06
2.87614e-07
0.000197188
4.88636e-07
0.000199264
6.58514e-07
0.000199886
8.06551e-07
0.000200213
9.34819e-07
0.000200433
1.04667e-06
0.000200585
1.15848e-06
0.000200643
1.35532e-06
0.000200447
1.92973e-06
0.000199281
0.000189132
4.90279e-06
3.5075e-07
0.000196837
6.12074e-07
0.000199003
8.41619e-07
0.000199656
1.04972e-06
0.000200005
1.24001e-06
0.000200243
1.41948e-06
0.000200406
1.61535e-06
0.000200447
1.94372e-06
0.000200118
2.81738e-06
0.000198407
0.000185798
6.15217e-06
4.24156e-07
0.000196413
7.55638e-07
0.000198671
1.05448e-06
0.000199357
1.33224e-06
0.000199727
1.59446e-06
0.00019998
1.853e-06
0.000200147
2.14486e-06
0.000200155
2.59998e-06
0.000199663
3.67648e-06
0.000197331
0.000182439
7.03526e-06
5.08661e-07
0.000195904
9.20484e-07
0.000198259
1.29851e-06
0.000198979
1.65543e-06
0.00019937
1.99838e-06
0.000199637
2.34297e-06
0.000199803
2.73436e-06
0.000199763
3.31842e-06
0.000199079
4.61656e-06
0.000196033
0.000179126
7.92942e-06
6.05949e-07
0.000195298
1.10835e-06
0.000197757
1.57575e-06
0.000198512
2.02175e-06
0.000198924
2.45498e-06
0.000199204
2.89508e-06
0.000199363
3.39649e-06
0.000199262
4.1213e-06
0.000198354
5.62991e-06
0.000194524
0.000176008
8.74827e-06
7.42478e-07
0.000194556
1.3722e-06
0.000197127
1.96307e-06
0.000197921
2.53073e-06
0.000198356
3.0859e-06
0.000198649
3.65298e-06
0.000198795
4.29622e-06
0.000198619
5.18785e-06
0.000197463
6.87554e-06
0.000192836
0.000172999
9.88372e-06
8.7376e-07
0.000193682
1.62975e-06
0.000196371
2.34438e-06
0.000197206
3.03381e-06
0.000197667
3.71075e-06
0.000197972
4.40381e-06
0.000198102
5.18716e-06
0.000197835
6.24456e-06
0.000196405
8.06436e-06
0.000191017
0.000170262
1.08021e-05
1.02701e-06
0.000192655
1.92243e-06
0.000195476
2.77708e-06
0.000196352
3.60387e-06
0.00019684
4.41715e-06
0.000197159
5.24859e-06
0.000197271
6.17853e-06
0.000196905
7.39893e-06
0.000195185
9.33628e-06
0.000189079
0.000167806
1.17916e-05
1.2006e-06
0.000191454
2.25843e-06
0.000194418
3.26997e-06
0.00019534
4.25109e-06
0.000195859
5.21579e-06
0.000196194
6.19683e-06
0.00019629
7.27477e-06
0.000195828
8.63513e-06
0.000193824
1.06338e-05
0.000187081
0.000165696
1.27439e-05
1.3959e-06
0.000190058
2.64449e-06
0.000193169
3.83454e-06
0.00019415
4.98961e-06
0.000194704
6.12329e-06
0.00019506
7.26773e-06
0.000195146
8.50007e-06
0.000194595
9.98666e-06
0.000192338
1.19966e-05
0.000185071
0.000163976
1.37172e-05
1.62318e-06
0.000188435
3.08653e-06
0.000191706
4.48264e-06
0.000192754
5.83693e-06
0.00019335
7.16293e-06
0.000193734
8.49085e-06
0.000193818
9.89183e-06
0.000193194
1.15089e-05
0.000190721
1.3505e-05
0.000183074
0.000162616
1.48645e-05
1.88596e-06
0.000186549
3.59483e-06
0.000189997
5.22855e-06
0.00019112
6.81318e-06
0.000191765
8.36168e-06
0.000192186
9.90099e-06
0.000192278
1.14922e-05
0.000191603
1.32487e-05
0.000188964
1.52029e-05
0.00018112
0.000161568
1.62507e-05
2.18838e-06
0.000184361
4.18012e-06
0.000188006
6.08791e-06
0.000189212
7.93952e-06
0.000189913
9.74698e-06
0.000190378
1.15329e-05
0.000190492
1.33452e-05
0.000189791
1.5258e-05
0.000187051
1.71711e-05
0.000179207
0.000160769
1.79704e-05
2.53522e-06
0.000181826
4.85225e-06
0.000185689
7.07554e-06
0.000186989
9.23602e-06
0.000187753
1.13448e-05
0.00018827
1.34192e-05
0.000188418
1.54912e-05
0.000187719
1.75857e-05
0.000184957
1.94924e-05
0.0001773
0.00016014
2.01218e-05
2.93066e-06
0.000178895
5.61956e-06
0.000183
8.20404e-06
0.000184405
1.07198e-05
0.000185237
1.31775e-05
0.000185812
1.55883e-05
0.000186007
1.79655e-05
0.000185342
2.0282e-05
0.00018264
2.22414e-05
0.000175341
0.000159585
2.27961e-05
3.3777e-06
0.000175517
6.48826e-06
0.000179889
9.48271e-06
0.00018141
1.24032e-05
0.000182317
1.52609e-05
0.000182954
1.80605e-05
0.000183208
2.07956e-05
0.000182606
2.33902e-05
0.000180046
2.54814e-05
0.00017325
0.000158994
2.6073e-05
3.87799e-06
0.000171639
7.46182e-06
0.000176305
1.09165e-05
0.000177956
1.42926e-05
0.000178941
1.76027e-05
0.000179644
2.08461e-05
0.000179964
2.39972e-05
0.000179455
2.69379e-05
0.000177105
2.9258e-05
0.00017093
0.000158236
3.00152e-05
4.43164e-06
0.000167208
8.54048e-06
0.000172196
1.25051e-05
0.000173991
1.63865e-05
0.000175059
2.02007e-05
0.00017583
2.39424e-05
0.000176222
2.757e-05
0.000175828
3.09327e-05
0.000173742
3.35917e-05
0.000168271
0.000157169
3.46591e-05
5.03724e-06
0.00016217
9.72112e-06
0.000167513
1.42429e-05
0.000169469
1.86758e-05
0.000170626
2.30413e-05
0.000171465
2.73322e-05
0.000171932
3.14952e-05
0.000171665
3.53578e-05
0.00016988
3.84721e-05
0.000165156
0.000155636
4.00046e-05
5.69275e-06
0.000156478
1.09974e-05
0.000162208
1.61187e-05
0.000164348
2.11431e-05
0.000165602
2.60998e-05
0.000166508
3.09829e-05
0.000167048
3.57331e-05
0.000166915
4.01687e-05
0.000165444
4.38511e-05
0.000161474
0.000153482
4.6005e-05
6.39738e-06
0.00015008
1.23605e-05
0.000156245
1.81168e-05
0.000158591
2.3764e-05
0.000159955
2.93412e-05
0.000160931
3.48474e-05
0.000161542
4.0224e-05
0.000161538
4.52925e-05
0.000160376
4.96409e-05
0.000157126
0.000150564
5.25598e-05
7.14922e-06
0.000142931
1.38016e-05
0.000149592
2.02189e-05
0.000152174
2.65091e-05
0.000153664
3.27225e-05
0.000154717
3.88669e-05
0.000155398
4.4891e-05
0.000155514
5.06308e-05
0.000154636
5.5716e-05
0.00015204
0.000146766
5.95136e-05
7.94439e-06
0.000134987
1.53126e-05
0.000142224
2.24067e-05
0.00014508
2.93468e-05
0.000146724
3.61964e-05
0.000147868
4.29753e-05
0.000148619
4.96454e-05
0.000148844
5.60666e-05
0.000148215
6.19217e-05
0.000146185
0.000142023
6.66649e-05
8.78084e-06
0.000126206
1.68869e-05
0.000134118
2.4663e-05
0.000137304
3.22463e-05
0.000139141
3.9715e-05
0.000140399
4.71043e-05
0.00014123
5.43943e-05
0.000141554
6.14751e-05
0.000141134
6.80893e-05
0.000139571
0.000136326
7.37857e-05
9.66018e-06
0.000116546
1.85216e-05
0.000125257
2.69747e-05
0.000128851
3.51798e-05
0.000130936
4.32333e-05
0.000132346
5.1189e-05
0.000133274
5.90483e-05
0.000133694
6.67354e-05
0.000133447
7.40539e-05
0.000132253
0.000129731
8.0649e-05
1.05885e-05
0.000105957
2.02196e-05
0.000115626
2.93334e-05
0.000119737
3.81237e-05
0.000122145
4.67109e-05
0.000123759
5.51703e-05
0.000124815
6.35275e-05
0.000125337
7.17408e-05
0.000125233
7.96721e-05
0.000124321
0.000122346
8.70571e-05
1.15784e-05
9.43786e-05
2.19895e-05
0.000105215
3.17336e-05
0.000109993
4.10559e-05
0.000112823
5.01094e-05
0.000114705
5.89946e-05
0.000115929
6.77624e-05
0.000116569
7.64038e-05
0.000116592
8.48321e-05
0.000115893
0.000114316
9.2862e-05
1.26491e-05
8.17295e-05
2.3842e-05
9.40216e-05
3.41667e-05
9.96682e-05
4.39483e-05
0.000103042
5.33847e-05
0.000105269
6.2606e-05
0.000106708
7.16885e-05
0.000107487
8.06527e-05
0.000107628
8.94539e-05
0.000107092
0.000105799
9.79712e-05
1.38498e-05
6.78797e-05
2.57753e-05
8.20961e-05
3.66012e-05
8.88423e-05
4.67492e-05
9.28936e-05
5.6471e-05
9.55469e-05
6.59315e-05
9.72475e-05
7.52324e-05
9.81859e-05
8.44184e-05
9.84418e-05
9.34771e-05
9.80333e-05
9.69415e-05
0.000102335
1.52286e-05
5.26511e-05
2.77454e-05
6.95793e-05
3.89495e-05
7.76382e-05
4.93523e-05
8.24908e-05
5.92546e-05
8.56447e-05
6.88587e-05
8.76434e-05
7.82908e-05
8.87539e-05
8.7614e-05
8.91186e-05
9.68373e-05
8.881e-05
8.78603e-05
0.000105918
1.65601e-05
3.6091e-05
2.96402e-05
5.64992e-05
4.10555e-05
6.62229e-05
5.15599e-05
7.19864e-05
6.1532e-05
7.56726e-05
7.11989e-05
7.79764e-05
8.06987e-05
7.92541e-05
9.0104e-05
7.97133e-05
9.9435e-05
7.9479e-05
7.86281e-05
0.000108667
1.64004e-05
1.96906e-05
3.06861e-05
4.22135e-05
4.25163e-05
5.43927e-05
5.30659e-05
6.14368e-05
6.30104e-05
6.57281e-05
7.26713e-05
6.83155e-05
8.22021e-05
6.97232e-05
9.16725e-05
7.02429e-05
0.000101101
7.00506e-05
6.9262e-05
0.000110467
1.32648e-05
6.42581e-06
2.8739e-05
2.67393e-05
4.17905e-05
4.13413e-05
5.29275e-05
5.02997e-05
6.30779e-05
5.55778e-05
7.28147e-05
5.85787e-05
8.24158e-05
6.01221e-05
9.1991e-05
6.06677e-05
0.000101564
6.0478e-05
5.97167e-05
0.000111109
8.4931e-06
-2.06729e-06
2.29119e-05
1.23204e-05
3.69637e-05
2.72896e-05
4.93418e-05
3.79215e-05
6.03834e-05
4.45362e-05
7.06706e-05
4.82915e-05
8.06368e-05
5.01559e-05
9.05123e-05
5.07921e-05
0.000100377
5.06136e-05
4.98703e-05
0.000110223
5.02812e-06
-7.09541e-06
1.52641e-05
2.08449e-06
2.80875e-05
1.44662e-05
4.10127e-05
2.49963e-05
5.31956e-05
3.23533e-05
6.46192e-05
3.68679e-05
7.55394e-05
3.92356e-05
8.61892e-05
4.01423e-05
9.66953e-05
4.01076e-05
3.94561e-05
0.000107109
2.29172e-06
-9.38713e-06
7.73661e-06
-3.3604e-06
1.69232e-05
5.27959e-06
2.82931e-05
1.36263e-05
4.05661e-05
2.00803e-05
5.29942e-05
2.44398e-05
6.52594e-05
2.69704e-05
7.72626e-05
2.81392e-05
8.8986e-05
2.83842e-05
2.79618e-05
0.00010048
-2.0875e-06
-7.29963e-06
-8.62062e-07
-4.58584e-06
4.30152e-06
1.16002e-07
1.27097e-05
5.21816e-06
2.36463e-05
9.14368e-06
3.61275e-05
1.19586e-05
4.94218e-05
1.36761e-05
6.28584e-05
1.47026e-05
7.60902e-05
1.51524e-05
1.492e-05
8.9132e-05
-7.29963e-06
-1.18855e-05
-1.17695e-05
-6.55131e-06
2.59238e-06
1.4551e-05
2.82271e-05
4.29297e-05
5.80821e-05
7.30021e-05
-2.70282e-05
3.19256e-05
-2.42209e-05
-2.80725e-06
-1.86305e-05
-5.59043e-06
-1.22531e-05
-6.37735e-06
-5.42212e-06
-6.83102e-06
1.33534e-06
-6.75746e-06
7.76341e-06
-6.42807e-06
1.3796e-05
-6.03259e-06
1.92313e-05
-5.4353e-06
2.38382e-05
-4.60685e-06
2.74836e-05
-3.64542e-06
3.02047e-05
-2.72111e-06
3.20586e-05
-1.85388e-06
3.31452e-05
-1.08662e-06
3.35195e-05
-3.74355e-07
3.31722e-05
3.4733e-07
3.20789e-05
1.09332e-06
3.01775e-05
1.9014e-06
2.73967e-05
2.78083e-06
2.36481e-05
3.74861e-06
1.88962e-05
4.75189e-06
1.32703e-05
5.62586e-06
7.38924e-06
5.88106e-06
2.49876e-06
4.89048e-06
2.49875e-06
-1.3386e-05
4.84407e-05
-1.7931e-05
1.7378e-06
-1.63977e-05
-7.1238e-06
-1.26484e-05
-1.01266e-05
-7.73705e-06
-1.17424e-05
-2.12499e-06
-1.23695e-05
3.64737e-06
-1.22004e-05
9.0181e-06
-1.14033e-05
1.36855e-05
-1.01027e-05
1.75768e-05
-8.4981e-06
2.07286e-05
-6.79722e-06
2.31394e-05
-5.13193e-06
2.48566e-05
-3.57106e-06
2.59363e-05
-2.1664e-06
2.64544e-05
-8.92384e-07
2.64873e-05
3.14352e-07
2.60562e-05
1.52442e-06
2.51516e-05
2.80601e-06
2.37158e-05
4.21662e-06
2.16724e-05
5.7921e-06
1.89179e-05
7.50638e-06
1.53443e-05
9.19943e-06
1.07993e-05
1.0426e-05
5.459e-06
1.02308e-05
7.95775e-06
-8.28964e-06
6.16331e-05
-1.47782e-05
8.22641e-06
-1.55302e-05
-6.37185e-06
-1.34166e-05
-1.22401e-05
-9.7339e-06
-1.54251e-05
-5.20601e-06
-1.68974e-05
-3.22246e-07
-1.70842e-05
4.41354e-06
-1.61391e-05
8.6112e-06
-1.43004e-05
1.21007e-05
-1.19876e-05
1.48369e-05
-9.53338e-06
1.68666e-05
-7.16164e-06
1.83077e-05
-5.01213e-06
1.92507e-05
-3.10939e-06
1.97504e-05
-1.39212e-06
1.98422e-05
2.22524e-07
1.95535e-05
1.81318e-06
1.89038e-05
3.45568e-06
1.7903e-05
5.21741e-06
1.65402e-05
7.15496e-06
1.47567e-05
9.2898e-06
1.24234e-05
1.15328e-05
9.31912e-06
1.35303e-05
5.20599e-06
1.43439e-05
1.31637e-05
-6.05891e-06
7.38442e-05
-1.38705e-05
1.6038e-05
-1.60586e-05
-4.18373e-06
-1.49386e-05
-1.33602e-05
-1.19918e-05
-1.83719e-05
-8.18102e-06
-2.07082e-05
-4.14894e-06
-2.11163e-05
-2.57471e-07
-2.00306e-05
3.25599e-06
-1.78138e-05
6.22175e-06
-1.49534e-05
8.57384e-06
-1.18855e-05
1.03612e-05
-8.94905e-06
1.16814e-05
-6.33231e-06
1.26058e-05
-4.03375e-06
1.31729e-05
-1.95922e-06
1.33994e-05
-3.97427e-09
1.33015e-05
1.91108e-06
1.28993e-05
3.85789e-06
1.22192e-05
5.89744e-06
1.12846e-05
8.08958e-06
1.0093e-05
1.04814e-05
8.58208e-06
1.30438e-05
6.5939e-06
1.55185e-05
3.86151e-06
1.70763e-05
1.70252e-05
-3.42043e-06
8.42999e-05
-1.27089e-05
2.53264e-05
-1.63277e-05
-5.649e-07
-1.62837e-05
-1.34042e-05
-1.41966e-05
-2.0459e-05
-1.11518e-05
-2.3753e-05
-7.87408e-06
-2.4394e-05
-4.73175e-06
-2.31729e-05
-1.90229e-06
-2.06433e-05
5.32088e-07
-1.73878e-05
2.52351e-06
-1.38769e-05
4.09926e-06
-1.05248e-05
5.31386e-06
-7.54691e-06
6.21933e-06
-4.93921e-06
6.84522e-06
-2.58511e-06
7.20227e-06
-3.61022e-07
7.29864e-06
1.81471e-06
7.15304e-06
4.00349e-06
6.79424e-06
6.25624e-06
6.25757e-06
8.62625e-06
5.5738e-06
1.11651e-05
4.74333e-06
1.38742e-05
3.68185e-06
1.65799e-05
2.08148e-06
1.86767e-05
1.91067e-05
-5.1957e-07
9.27489e-05
-1.01916e-05
3.49985e-05
-1.52552e-05
4.4987e-06
-1.65788e-05
-1.20806e-05
-1.56954e-05
-2.13423e-05
-1.37429e-05
-2.57056e-05
-1.13648e-05
-2.6772e-05
-8.90317e-06
-2.56346e-05
-6.62077e-06
-2.29257e-05
-4.60285e-06
-1.94057e-05
-2.9037e-06
-1.5576e-05
-1.5441e-06
-1.18844e-05
-4.85629e-07
-8.60539e-06
3.33294e-07
-5.75814e-06
9.447e-07
-3.19652e-06
1.36016e-06
-7.76486e-07
1.58825e-06
1.58663e-06
1.65171e-06
3.94003e-06
1.582e-06
6.32595e-06
1.41984e-06
8.78841e-06
1.21643e-06
1.13686e-05
1.03765e-06
1.4053e-05
9.14698e-07
1.67029e-05
6.16582e-07
1.89748e-05
1.97233e-05
2.11204e-06
9.93851e-05
-6.87392e-06
4.39845e-05
-1.29764e-05
1.06012e-05
-1.5821e-05
-9.23601e-06
-1.63998e-05
-2.07636e-05
-1.56492e-05
-2.64562e-05
-1.43444e-05
-2.80768e-05
-1.26943e-05
-2.72847e-05
-1.09895e-05
-2.46305e-05
-9.3475e-06
-2.10477e-05
-7.88029e-06
-1.70433e-05
-6.68322e-06
-1.30815e-05
-5.76611e-06
-9.52249e-06
-5.07139e-06
-6.45285e-06
-4.53766e-06
-3.73025e-06
-4.13253e-06
-1.18162e-06
-3.84049e-06
1.29458e-06
-3.63599e-06
3.73554e-06
-3.47815e-06
6.1681e-06
-3.31197e-06
8.62222e-06
-3.06333e-06
1.11199e-05
-2.61786e-06
1.36075e-05
-1.7824e-06
1.58674e-05
-5.10799e-07
1.77032e-05
1.92125e-05
4.57628e-06
0.000104693
-3.73059e-06
5.22913e-05
-1.05199e-05
1.73905e-05
-1.48159e-05
-4.94005e-06
-1.69678e-05
-1.86116e-05
-1.75827e-05
-2.58414e-05
-1.74137e-05
-2.82457e-05
-1.67059e-05
-2.79925e-05
-1.57237e-05
-2.56127e-05
-1.45159e-05
-2.22554e-05
-1.32428e-05
-1.83164e-05
-1.20981e-05
-1.42262e-05
-1.12103e-05
-1.04103e-05
-1.05831e-05
-7.08006e-06
-1.01344e-05
-4.17895e-06
-9.78297e-06
-1.53301e-06
-9.48448e-06
9.96093e-07
-9.20769e-06
3.45874e-06
-8.90281e-06
5.86323e-06
-8.48683e-06
8.20624e-06
-7.81566e-06
1.04488e-05
-6.65749e-06
1.24494e-05
-4.56852e-06
1.37784e-05
-3.08822e-07
1.34435e-05
1.10117e-05
7.89193e-06
6.60987e-06
0.000108885
-7.98903e-07
5.97001e-05
-7.71438e-06
2.4306e-05
-1.29663e-05
3.11857e-07
-1.64504e-05
-1.51275e-05
-1.85064e-05
-2.37853e-05
-1.95376e-05
-2.72146e-05
-2.00484e-05
-2.74817e-05
-2.00121e-05
-2.56491e-05
-1.94744e-05
-2.27931e-05
-1.85741e-05
-1.92167e-05
-1.75317e-05
-1.52686e-05
-1.65941e-05
-1.13479e-05
-1.59104e-05
-7.76375e-06
-1.54749e-05
-4.61444e-06
-1.51849e-05
-1.82296e-06
-1.49318e-05
7.42913e-07
-1.46365e-05
3.16346e-06
-1.42245e-05
5.45124e-06
-1.3571e-05
7.55278e-06
-1.24787e-05
9.35647e-06
-1.07029e-05
1.06735e-05
-8.25337e-06
1.13289e-05
-6.314e-06
1.15042e-05
1.30315e-05
-8.33373e-06
8.3584e-06
0.000112318
1.68684e-06
6.63717e-05
-5.20603e-06
3.11989e-05
-1.11099e-05
6.21573e-06
-1.56707e-05
-1.05667e-05
-1.89898e-05
-2.04662e-05
-2.12955e-05
-2.49089e-05
-2.3021e-05
-2.57562e-05
-2.40671e-05
-2.4603e-05
-2.44745e-05
-2.23856e-05
-2.42679e-05
-1.94234e-05
-2.35825e-05
-1.59539e-05
-2.26657e-05
-1.22648e-05
-2.17778e-05
-8.6516e-06
-2.10746e-05
-5.31768e-06
-2.05627e-05
-2.33483e-06
-2.01496e-05
3.29816e-07
-1.97276e-05
2.74142e-06
-1.92299e-05
4.95358e-06
-1.86499e-05
6.9727e-06
-1.81383e-05
8.8449e-06
-1.81969e-05
1.07321e-05
-1.99134e-05
1.30454e-05
-2.48198e-05
1.64105e-05
2.15662e-05
-3.33545e-05
9.86381e-06
0.000115198
3.80188e-06
7.24336e-05
-3.00813e-06
3.80089e-05
-9.36676e-06
1.25744e-05
-1.4788e-05
-5.14552e-06
-1.91657e-05
-1.60885e-05
-2.26503e-05
-2.14242e-05
-2.546e-05
-2.29466e-05
-2.76461e-05
-2.24169e-05
-2.91988e-05
-2.08328e-05
-3.0082e-05
-1.85402e-05
-3.03029e-05
-1.5733e-05
-2.99768e-05
-1.25909e-05
-2.93211e-05
-9.30731e-06
-2.85819e-05
-6.05689e-06
-2.79588e-05
-2.95791e-06
-2.75688e-05
-6.01526e-08
-2.74827e-05
2.65532e-06
-2.77837e-05
5.25459e-06
-2.86811e-05
7.87004e-06
-3.05223e-05
1.06861e-05
-3.3708e-05
1.39178e-05
-3.82922e-05
1.76297e-05
-4.35545e-05
2.16728e-05
2.55238e-05
-4.75121e-05
1.12057e-05
0.000117709
5.63446e-06
7.80049e-05
-1.04954e-06
4.46929e-05
-7.69824e-06
1.92231e-05
-1.37546e-05
9.10844e-07
-1.89607e-05
-1.08824e-05
-2.3346e-05
-1.70389e-05
-2.70829e-05
-1.92097e-05
-3.02806e-05
-1.92192e-05
-3.29479e-05
-1.81655e-05
-3.50814e-05
-1.64067e-05
-3.66539e-05
-1.41606e-05
-3.76698e-05
-1.15749e-05
-3.82242e-05
-8.7529e-06
-3.8491e-05
-5.79014e-06
-3.87091e-05
-2.73983e-06
-3.91154e-05
3.46176e-07
-3.98971e-05
3.43704e-06
-4.11844e-05
6.5419e-06
-4.3059e-05
9.74459e-06
-4.54539e-05
1.3081e-05
-4.80117e-05
1.64757e-05
-5.00138e-05
1.96317e-05
-5.05898e-05
2.22488e-05
2.41979e-05
-4.92639e-05
1.25696e-05
0.000120004
7.35988e-06
8.32146e-05
8.21095e-07
5.12317e-05
-5.97718e-06
2.60213e-05
-1.24396e-05
7.37329e-06
-1.82131e-05
-5.10891e-06
-2.3213e-05
-1.20391e-05
-2.75844e-05
-1.48383e-05
-3.14875e-05
-1.53161e-05
-3.49665e-05
-1.46865e-05
-3.80296e-05
-1.33436e-05
-4.06939e-05
-1.14963e-05
-4.29425e-05
-9.3263e-06
-4.47995e-05
-6.89592e-06
-4.63471e-05
-4.2425e-06
-4.76714e-05
-1.41554e-06
-4.88579e-05
1.53268e-06
-4.99679e-05
4.547e-06
-5.10072e-05
7.58124e-06
-5.18799e-05
1.06173e-05
-5.23737e-05
1.35748e-05
-5.216e-05
1.62619e-05
-5.11224e-05
1.85942e-05
-4.92615e-05
2.03879e-05
2.14869e-05
-4.65506e-05
1.40725e-05
0.000122183
9.14609e-06
8.8141e-05
2.77184e-06
5.76059e-05
-4.06358e-06
3.28568e-05
-1.07409e-05
1.40506e-05
-1.68434e-05
9.93631e-07
-2.21717e-05
-6.7108e-06
-2.68269e-05
-1.01832e-05
-3.10453e-05
-1.10977e-05
-3.4941e-05
-1.07907e-05
-3.84178e-05
-9.86685e-06
-4.14623e-05
-8.45175e-06
-4.41166e-05
-6.67197e-06
-4.63889e-05
-4.62364e-06
-4.82616e-05
-2.36979e-06
-4.97339e-05
5.67764e-08
-5.08189e-05
2.61763e-06
-5.15252e-05
5.25332e-06
-5.18663e-05
7.92235e-06
-5.17892e-05
1.05402e-05
-5.11423e-05
1.29279e-05
-4.9841e-05
1.49606e-05
-4.78786e-05
1.66318e-05
-4.5375e-05
1.78843e-05
1.87168e-05
-4.26048e-05
1.58589e-05
0.000124294
1.11594e-05
9.28405e-05
4.95571e-06
6.38096e-05
-1.84163e-06
3.96541e-05
-8.60912e-06
2.08181e-05
-1.48763e-05
7.26082e-06
-2.03551e-05
-1.23198e-06
-2.50559e-05
-5.48234e-06
-2.92262e-05
-6.92752e-06
-3.30864e-05
-6.93047e-06
-3.66369e-05
-6.31639e-06
-3.97753e-05
-5.31337e-06
-4.24617e-05
-3.98558e-06
-4.46926e-05
-2.39275e-06
-4.64811e-05
-5.81312e-07
-4.78291e-05
1.40483e-06
-4.87149e-05
3.50339e-06
-4.91167e-05
5.6551e-06
-4.89878e-05
7.79347e-06
-4.82652e-05
9.81761e-06
-4.69735e-05
1.16362e-05
-4.52244e-05
1.32115e-05
-4.31162e-05
1.45235e-05
-4.07905e-05
1.55587e-05
1.6345e-05
-3.84187e-05
1.80669e-05
0.000126349
1.35606e-05
9.73468e-05
7.52572e-06
6.98445e-05
8.07799e-07
4.6372e-05
-5.98226e-06
2.76081e-05
-1.23451e-05
1.36236e-05
-1.79181e-05
4.34108e-06
-2.26033e-05
-7.97166e-07
-2.65673e-05
-2.96357e-06
-3.00677e-05
-3.43e-06
-3.32973e-05
-3.08677e-06
-3.62155e-05
-2.39523e-06
-3.87376e-05
-1.46347e-06
-4.08125e-05
-3.17819e-07
-4.24191e-05
1.02525e-06
-4.35396e-05
2.52539e-06
-4.41596e-05
4.12339e-06
-4.42651e-05
5.76059e-06
-4.3848e-05
7.37638e-06
-4.29392e-05
8.90877e-06
-4.16171e-05
1.03141e-05
-3.99776e-05
1.1572e-05
-3.81223e-05
1.26683e-05
-3.61578e-05
1.35942e-05
1.43546e-05
-3.41675e-05
2.08225e-05
0.000128323
1.65007e-05
0.000101669
1.06327e-05
7.57125e-05
4.01334e-06
5.29914e-05
-2.76287e-06
3.43843e-05
-9.20236e-06
2.00631e-05
-1.48846e-05
1.00233e-05
-1.9614e-05
3.93225e-06
-2.34743e-05
8.96741e-07
-2.66776e-05
-2.26662e-07
-2.94339e-05
-3.30559e-07
-3.1877e-05
4.79353e-08
-3.40043e-05
6.63852e-07
-3.57665e-05
1.44434e-06
-3.71245e-05
2.38329e-06
-3.80467e-05
3.44756e-06
-3.85155e-05
4.59212e-06
-3.85284e-05
5.77356e-06
-3.81039e-05
6.95183e-06
-3.72923e-05
8.09715e-06
-3.61653e-05
9.18711e-06
-3.47966e-05
1.02033e-05
-3.3257e-05
1.11287e-05
-3.16104e-05
1.19476e-05
1.26491e-05
-2.99049e-05
2.42384e-05
0.000130157
2.01217e-05
0.000105785
1.4431e-05
8.14032e-05
7.92098e-06
5.95014e-05
1.17682e-06
4.11285e-05
-5.32907e-06
2.6569e-05
-1.1161e-05
1.58552e-05
-1.60367e-05
8.80803e-06
-1.99476e-05
4.80762e-06
-2.30726e-05
2.89832e-06
-2.56033e-05
2.20014e-06
-2.76927e-05
2.13737e-06
-2.94251e-05
2.39623e-06
-3.08356e-05
2.85485e-06
-3.1911e-05
3.45863e-06
-3.26295e-05
4.16608e-06
-3.29827e-05
4.9454e-06
-3.29766e-05
5.7674e-06
-3.26287e-05
6.60395e-06
-3.19724e-05
7.44086e-06
-3.10506e-05
8.26534e-06
-2.99119e-05
9.06447e-06
-2.86069e-05
9.8237e-06
-2.71818e-05
1.05225e-05
1.11433e-05
-2.5676e-05
2.84095e-05
0.000131763
2.45526e-05
0.000109642
1.90721e-05
8.68837e-05
1.269e-05
6.58835e-05
5.99317e-06
4.78253e-05
-5.61222e-07
3.31234e-05
-6.55811e-06
2.18521e-05
-1.16611e-05
1.3911e-05
-1.57588e-05
8.90527e-06
-1.8967e-05
6.1065e-06
-2.14814e-05
4.71456e-06
-2.34664e-05
4.1224e-06
-2.50388e-05
3.96858e-06
-2.62587e-05
4.07477e-06
-2.71484e-05
4.34835e-06
-2.77187e-05
4.7364e-06
-2.79794e-05
5.20608e-06
-2.79447e-05
5.73276e-06
-2.76345e-05
6.29372e-06
-2.70708e-05
6.87719e-06
-2.62768e-05
7.47131e-06
-2.52823e-05
8.06999e-06
-2.41245e-05
8.6659e-06
-2.28411e-05
9.2391e-06
9.77153e-06
-2.14693e-05
3.34037e-05
0.000133018
2.99002e-05
0.000113146
2.46966e-05
9.20874e-05
1.84845e-05
7.20956e-05
1.18574e-05
5.44524e-05
5.27636e-06
3.97044e-05
-8.70108e-07
2.79985e-05
-6.23995e-06
1.92809e-05
-1.06355e-05
1.33009e-05
-1.40788e-05
9.54972e-06
-1.67334e-05
7.36925e-06
-1.87797e-05
6.16866e-06
-2.03548e-05
5.54371e-06
-2.15407e-05
5.26063e-06
-2.23834e-05
5.19104e-06
-2.29113e-05
5.26427e-06
-2.31451e-05
5.43989e-06
-2.31048e-05
5.69249e-06
-2.28154e-05
6.00436e-06
-2.23023e-05
6.36409e-06
-2.15877e-05
6.75671e-06
-2.06902e-05
7.1725e-06
-1.96337e-05
7.60933e-06
-1.84501e-05
8.05557e-06
8.49695e-06
-1.71756e-05
3.92491e-05
0.000133774
3.62339e-05
0.000116161
3.14174e-05
9.69038e-05
2.54553e-05
7.80578e-05
1.89482e-05
6.09595e-05
1.23729e-05
4.62797e-05
6.1106e-06
3.42609e-05
4.85375e-07
2.49061e-05
-4.26528e-06
1.80515e-05
-8.06727e-06
1.33517e-05
-1.1012e-05
1.03139e-05
-1.32612e-05
8.4179e-06
-1.4966e-05
7.24847e-06
-1.62328e-05
6.5275e-06
-1.7129e-05
6.08724e-06
-1.76974e-05
5.83261e-06
-1.79683e-05
5.71079e-06
-1.79684e-05
5.69259e-06
-1.7725e-05
5.761e-06
-1.72648e-05
5.90386e-06
-1.66162e-05
6.10809e-06
-1.58042e-05
6.36054e-06
-1.48466e-05
6.65179e-06
-1.37629e-05
6.97183e-06
7.31545e-06
-1.25814e-05
4.59185e-05
0.00013386
4.35657e-05
0.000118514
3.92971e-05
0.000101172
3.37159e-05
8.3639e-05
2.74243e-05
6.7251e-05
2.09204e-05
5.27837e-05
1.45959e-05
4.05854e-05
8.76621e-06
3.07357e-05
3.67633e-06
2.31414e-05
-5.39186e-07
1.75672e-05
-3.88486e-06
1.36596e-05
-6.46863e-06
1.10017e-05
-8.4304e-06
9.21024e-06
-9.89049e-06
7.98758e-06
-1.09349e-05
7.13163e-06
-1.16219e-05
6.51961e-06
-1.19928e-05
6.08167e-06
-1.20818e-05
5.78166e-06
-1.19218e-05
5.60093e-06
-1.15448e-05
5.52687e-06
-1.09835e-05
5.54683e-06
-1.02677e-05
5.64467e-06
-9.4187e-06
5.80284e-06
-8.45313e-06
6.00626e-06
6.24846e-06
-7.38614e-06
5.33159e-05
0.000133104
5.18281e-05
0.000120002
4.83175e-05
0.000104683
4.33082e-05
8.86484e-05
3.73875e-05
7.31716e-05
3.1073e-05
5.90982e-05
2.47787e-05
4.68797e-05
1.88287e-05
3.66857e-05
1.34714e-05
2.84987e-05
8.87036e-06
2.21683e-05
5.08651e-06
1.74435e-05
2.0792e-06
1.4009e-05
-2.50992e-07
1.15404e-05
-2.01579e-06
9.75239e-06
-3.30979e-06
8.42563e-06
-4.20265e-06
7.41247e-06
-4.74628e-06
6.6253e-06
-4.98551e-06
6.02089e-06
-4.96312e-06
5.57854e-06
-4.71899e-06
5.28274e-06
-4.29154e-06
5.11939e-06
-3.71345e-06
5.06657e-06
-3.00582e-06
5.09521e-06
-2.1838e-06
5.18424e-06
5.32273e-06
-1.25806e-06
6.12683e-05
0.00013135
6.0855e-05
0.000120415
5.83491e-05
0.000107189
5.41616e-05
9.28359e-05
4.88361e-05
7.84971e-05
4.28967e-05
6.50376e-05
3.67825e-05
5.29939e-05
3.08392e-05
4.2629e-05
2.53296e-05
3.40084e-05
2.0437e-05
2.70608e-05
1.62617e-05
2.16188e-05
1.28194e-05
1.74513e-05
1.00604e-05
1.42995e-05
7.90183e-06
1.19109e-05
6.25917e-06
1.00683e-05
5.06269e-06
8.60895e-06
4.25572e-06
7.43228e-06
3.78232e-06
6.49429e-06
3.58412e-06
5.77674e-06
3.6131e-06
5.25376e-06
3.83016e-06
4.90233e-06
4.20594e-06
4.6908e-06
4.72228e-06
4.57887e-06
5.36645e-06
4.54006e-06
4.56076e-06
6.12842e-06
6.95309e-05
0.000128484
7.03756e-05
0.00011957
6.91276e-05
0.000108437
6.60537e-05
9.59098e-05
6.1614e-05
8.29368e-05
5.63114e-05
7.03402e-05
5.06001e-05
5.87052e-05
4.4852e-05
4.8377e-05
3.9354e-05
3.95063e-05
3.43132e-05
3.21017e-05
2.98598e-05
2.60721e-05
2.60505e-05
2.12606e-05
2.28786e-05
1.74714e-05
2.02955e-05
1.4494e-05