/*--------------------------------*- C++ -*----------------------------------*\
| =========                 |                                                 |
| \\      /  F ield         | OpenFOAM: The Open Source CFD Toolbox           |
|  \\    /   O peration     | Version:  v2012                                 |
|   \\  /    A nd           | Website:  www.openfoam.com                      |
|    \\/     M anipulation  |                                                 |
\*---------------------------------------------------------------------------*/
FoamFile
{
    version     2.0;
    format      ascii;
    class       volVectorField;
    location    "569";
    object      U;
}
// * * * * * * * * * * * * * * * * * * * * * * * * * * * * * * * * * * * * * //

dimensions      [0 1 -1 0 0 0 0];


internalField   nonuniform List<vector> 
6598
(
(0.000101776 -0.999664 0)
(0.000258674 -1.00004 0)
(0.000171549 -1.00003 0)
(8.65657e-05 -1.00002 0)
(2.65879e-05 -1.00002 0)
(-2.62166e-05 -1.00002 0)
(-8.62445e-05 -1.00002 0)
(-0.000171328 -1.00003 0)
(-0.000258611 -1.00004 0)
(-0.00010175 -0.999664 0)
(0.000391149 -0.999288 0)
(0.000478432 -1.00019 0)
(0.000354344 -1.00018 0)
(0.000207544 -1.00015 0)
(6.8025e-05 -1.00013 0)
(-6.68995e-05 -1.00013 0)
(-0.000206575 -1.00015 0)
(-0.000353633 -1.00018 0)
(-0.000478363 -1.00019 0)
(-0.00039108 -0.999288 0)
(0.000479374 -0.998734 0)
(0.000529571 -1.00023 0)
(0.000426008 -1.00037 0)
(0.000269717 -1.00036 0)
(9.16313e-05 -1.00034 0)
(-8.95041e-05 -1.00034 0)
(-0.000267799 -1.00036 0)
(-0.000424472 -1.00037 0)
(-0.000528192 -1.00023 0)
(-0.000478992 -0.998735 0)
(0.000487758 -0.998108 0)
(0.000523718 -1.00022 0)
(0.000441366 -1.00053 0)
(0.000292444 -1.00058 0)
(0.000101528 -1.00058 0)
(-9.81431e-05 -1.00058 0)
(-0.000289416 -1.00058 0)
(-0.000439263 -1.00053 0)
(-0.00052199 -1.00022 0)
(-0.000487005 -0.99811 0)
(0.000473154 -0.997505 0)
(0.000507644 -1.00018 0)
(0.000436298 -1.00068 0)
(0.000294779 -1.0008 0)
(0.000104216 -1.00083 0)
(-9.88821e-05 -1.00083 0)
(-0.000290066 -1.0008 0)
(-0.000432555 -1.00068 0)
(-0.000505082 -1.00019 0)
(-0.000471955 -0.997508 0)
(0.000450813 -0.996942 0)
(0.00048177 -1.00015 0)
(0.000426339 -1.00081 0)
(0.000288965 -1.00101 0)
(0.000103814 -1.00107 0)
(-9.54582e-05 -1.00107 0)
(-0.000281439 -1.00102 0)
(-0.000420062 -1.00082 0)
(-0.000477937 -1.00015 0)
(-0.000448922 -0.996948 0)
(0.000427448 -0.996412 0)
(0.000455523 -1.00011 0)
(0.000409743 -1.00094 0)
(0.000278898 -1.00122 0)
(0.000101933 -1.00131 0)
(-8.92846e-05 -1.00131 0)
(-0.000267507 -1.00122 0)
(-0.000400652 -1.00094 0)
(-0.000449533 -1.00012 0)
(-0.000424545 -0.996422 0)
(0.000405646 -0.995909 0)
(0.000432362 -1.00007 0)
(0.000390387 -1.00105 0)
(0.000267889 -1.00141 0)
(0.00010023 -1.00153 0)
(-8.11569e-05 -1.00153 0)
(-0.000250678 -1.00141 0)
(-0.000376692 -1.00107 0)
(-0.000423264 -1.00009 0)
(-0.000401341 -0.995925 0)
(0.000386441 -0.995429 0)
(0.000412793 -1.00004 0)
(0.000374323 -1.00116 0)
(0.000258988 -1.00159 0)
(0.000100306 -1.00174 0)
(-7.15484e-05 -1.00175 0)
(-0.000233008 -1.0016 0)
(-0.000353658 -1.00118 0)
(-0.000399109 -1.00006 0)
(-0.000380015 -0.995455 0)
(0.000370314 -0.994968 0)
(0.000397394 -1 0)
(0.000362573 -1.00127 0)
(0.000253592 -1.00176 0)
(0.000103269 -1.00194 0)
(-6.0032e-05 -1.00195 0)
(-0.000214549 -1.00177 0)
(-0.000331524 -1.00129 0)
(-0.000376764 -1.00004 0)
(-0.000360714 -0.995008 0)
(0.000357448 -0.994522 0)
(0.000386639 -0.999966 0)
(0.000355918 -1.00136 0)
(0.000252904 -1.00192 0)
(0.000110361 -1.00214 0)
(-4.54774e-05 -1.00214 0)
(-0.000194347 -1.00194 0)
(-0.000309203 -1.0014 0)
(-0.000355522 -1.00002 0)
(-0.000343128 -0.994584 0)
(0.000347988 -0.994086 0)
(0.000381235 -0.999929 0)
(0.000355495 -1.00145 0)
(0.000258457 -1.00207 0)
(0.000123337 -1.00232 0)
(-2.60796e-05 -1.00233 0)
(-0.000170735 -1.00211 0)
(-0.000285116 -1.00152 0)
(-0.000334167 -1.00001 0)
(-0.000326612 -0.994181 0)
(0.000342252 -0.993654 0)
(0.000382227 -0.999887 0)
(0.000363234 -1.00154 0)
(0.000272604 -1.00221 0)
(0.000144902 -1.00249 0)
(9.36028e-07 -1.00251 0)
(-0.000141133 -1.00227 0)
(-0.000257045 -1.00163 0)
(-0.000311017 -1.00001 0)
(-0.000310316 -0.993799 0)
(0.00034053 -0.993222 0)
(0.000389752 -0.999837 0)
(0.000379352 -1.00161 0)
(0.000299113 -1.00235 0)
(0.000178951 -1.00266 0)
(3.96741e-05 -1.00269 0)
(-0.00010176 -1.00244 0)
(-0.000221902 -1.00175 0)
(-0.000283879 -1.00002 0)
(-0.000293201 -0.993441 0)
(0.000343781 -0.99278 0)
(0.000407025 -0.999774 0)
(0.000410609 -1.00167 0)
(0.000342722 -1.00247 0)
(0.000231547 -1.00281 0)
(9.63078e-05 -1.00286 0)
(-4.7041e-05 -1.0026 0)
(-0.000175286 -1.00188 0)
(-0.000249812 -1.00004 0)
(-0.000274049 -0.993111 0)
(0.00035334 -0.99232 0)
(0.000437937 -0.99969 0)
(0.000461525 -1.00171 0)
(0.000410683 -1.00257 0)
(0.000309037 -1.00296 0)
(0.000179928 -1.00303 0)
(3.34051e-05 -1.00278 0)
(-0.000110865 -1.00202 0)
(-0.000205147 -1.00009 0)
(-0.00025156 -0.992815 0)
(0.000371084 -0.991828 0)
(0.000487804 -0.999575 0)
(0.000540351 -1.00172 0)
(0.000514436 -1.00266 0)
(0.000429456 -1.0031 0)
(0.000305034 -1.00321 0)
(0.000149024 -1.00297 0)
(-1.90548e-05 -1.0022 0)
(-0.000144532 -1.00018 0)
(-0.000225598 -0.992563 0)
(0.000399441 -0.991283 0)
(0.000563512 -0.999413 0)
(0.000658789 -1.00169 0)
(0.000668879 -1.00271 0)
(0.000612953 -1.00322 0)
(0.000494386 -1.00338 0)
(0.000320699 -1.00319 0)
(0.000111899 -1.00242 0)
(-7.21356e-05 -1.00033 0)
(-0.000202422 -0.992354 0)
(0.000441716 -0.990662 0)
(0.000674079 -0.999183 0)
(0.000832475 -1.0016 0)
(0.000898677 -1.00272 0)
(0.000885398 -1.00331 0)
(0.000787019 -1.00356 0)
(0.000599943 -1.00344 0)
(0.000331128 -1.00271 0)
(6.29614e-05 -1.00055 0)
(-0.000108392 -0.992192 0)
(0.000500084 -0.989928 0)
(0.000829123 -0.998852 0)
(0.00107902 -1.00142 0)
(0.00123032 -1.00265 0)
(0.00128704 -1.00336 0)
(0.00123283 -1.00373 0)
(0.00102596 -1.00375 0)
(0.00062914 -1.00319 0)
(-4.54205e-05 -1.00133 0)
(-0.00043949 -0.994675 0)
(0.000582373 -0.989065 0)
(0.00103658 -0.998389 0)
(0.00141403 -1.00111 0)
(0.00169198 -1.00246 0)
(0.00187335 -1.0033 0)
(0.0019545 -1.00382 0)
(0.00189375 -1.00408 0)
(0.00181899 -1.00378 0)
(0.00258724 -1.00144 0)
(0.00900706 -0.981859 0)
(0.000689655 -0.988011 0)
(0.0013017 -0.997751 0)
(0.00184564 -1.00063 0)
(0.0022928 -1.0021 0)
(0.00265042 -1.00305 0)
(0.00293299 -1.00369 0)
(0.00313469 -1.004 0)
(0.00313541 -1.00365 0)
(0.00353859 -1.0002 0)
(0.0164552 -0.96593 0)
(0.000821911 -0.986719 0)
(0.00162665 -0.996884 0)
(0.0023771 -0.999916 0)
(0.00303234 -1.0015 0)
(0.00360001 -1.00255 0)
(0.00410484 -1.00328 0)
(0.0045953 -1.0036 0)
(0.00492007 -1.00289 0)
(0.0047642 -0.998066 0)
(0.0208808 -0.952747 0)
(0.000978737 -0.985136 0)
(0.00201115 -0.995741 0)
(0.0030073 -0.998928 0)
(0.0039087 -1.00062 0)
(0.00472452 -1.00177 0)
(0.00548306 -1.00256 0)
(0.00629106 -1.00282 0)
(0.00725356 -1.00157 0)
(0.0070132 -0.994573 0)
(0.0250092 -0.937837 0)
(0.00116114 -0.983211 0)
(0.00245801 -0.994271 0)
(0.00374023 -0.997619 0)
(0.00492719 -0.999416 0)
(0.00603351 -1.00065 0)
(0.00708877 -1.00148 0)
(0.00821334 -1.00162 0)
(0.00981771 -0.999613 0)
(0.00988524 -0.989672 0)
(0.0282294 -0.920671 0)
(0.0013707 -0.980893 0)
(0.0029714 -0.992425 0)
(0.00458141 -0.995939 0)
(0.00609312 -0.997841 0)
(0.00752865 -0.999146 0)
(0.00892082 -0.999985 0)
(0.0103788 -0.999925 0)
(0.0125764 -0.997021 0)
(0.0133324 -0.983655 0)
(0.0307565 -0.903606 0)
(0.00161236 -0.978131 0)
(0.00355867 -0.990154 0)
(0.00553881 -0.993839 0)
(0.00741624 -0.995847 0)
(0.00922085 -0.997218 0)
(0.0109929 -0.998034 0)
(0.0128262 -0.997702 0)
(0.0155925 -0.993757 0)
(0.017323 -0.976619 0)
(0.0334688 -0.887524 0)
(0.00189171 -0.974755 0)
(0.00423518 -0.987341 0)
(0.00664251 -0.991213 0)
(0.00894106 -0.993332 0)
(0.0111672 -0.994766 0)
(0.0133716 -0.995535 0)
(0.0156334 -0.994857 0)
(0.0189032 -0.989718 0)
(0.0218432 -0.96857 0)
(0.0359049 -0.872142 0)
(0.00220771 -0.970754 0)
(0.00500821 -0.983902 0)
(0.00791322 -0.987971 0)
(0.0106979 -0.99021 0)
(0.0134068 -0.991705 0)
(0.0161051 -0.992403 0)
(0.0188756 -0.991308 0)
(0.0226142 -0.984859 0)
(0.0267825 -0.959772 0)
(0.0396217 -0.857986 0)
(0.00256932 -0.966027 0)
(0.00589942 -0.979774 0)
(0.00935344 -0.984067 0)
(0.0126909 -0.98644 0)
(0.0159416 -0.987999 0)
(0.0191851 -0.988608 0)
(0.0225283 -0.987037 0)
(0.0267591 -0.979173 0)
(0.0318115 -0.950346 0)
(0.0442239 -0.844766 0)
(0.00298709 -0.960484 0)
(0.00691659 -0.974957 0)
(0.0109971 -0.979426 0)
(0.0149596 -0.981941 0)
(0.0188153 -0.983572 0)
(0.0226531 -0.98409 0)
(0.0266047 -0.982019 0)
(0.0313651 -0.972699 0)
(0.037026 -0.940446 0)
(0.0487783 -0.833297 0)
(0.00345842 -0.954019 0)
(0.00806841 -0.969198 0)
(0.0128901 -0.973947 0)
(0.0175536 -0.976625 0)
(0.0220902 -0.978348 0)
(0.0265853 -0.978793 0)
(0.0311811 -0.976247 0)
(0.0364791 -0.965559 0)
(0.0427369 -0.930412 0)
(0.0533881 -0.823719 0)
(0.00399804 -0.946506 0)
(0.00939494 -0.962447 0)
(0.0150648 -0.967514 0)
(0.0205301 -0.970382 0)
(0.0258465 -0.972227 0)
(0.031089 -0.972636 0)
(0.0364005 -0.969679 0)
(0.0422474 -0.957787 0)
(0.0491719 -0.920297 0)
(0.0585221 -0.816039 0)
(0.0046193 -0.937777 0)
(0.0109255 -0.954559 0)
(0.0175651 -0.95998 0)
(0.0239575 -0.963074 0)
(0.0301768 -0.965079 0)
(0.0362839 -0.965503 0)
(0.0424165 -0.962227 0)
(0.048906 -0.949378 0)
(0.056368 -0.910394 0)
(0.0645482 -0.81008 0)
(0.00533303 -0.927642 0)
(0.0126889 -0.945356 0)
(0.0204424 -0.951173 0)
(0.0279089 -0.954531 0)
(0.0351771 -0.956736 0)
(0.0422928 -0.957235 0)
(0.0493752 -0.953757 0)
(0.0566616 -0.940221 0)
(0.0645619 -0.90075 0)
(0.0718167 -0.805544 0)
(0.00614942 -0.91589 0)
(0.0147129 -0.934638 0)
(0.0237464 -0.940898 0)
(0.0324531 -0.944554 0)
(0.040938 -0.947 0)
(0.0492331 -0.947638 0)
(0.0574245 -0.944095 0)
(0.0656608 -0.930234 0)
(0.0740362 -0.891253 0)
(0.0806696 -0.802073 0)
(0.0070775 -0.902287 0)
(0.0170217 -0.922183 0)
(0.0275191 -0.928938 0)
(0.0376488 -0.932924 0)
(0.0475366 -0.935645 0)
(0.0572035 -0.936488 0)
(0.0666942 -0.933033 0)
(0.0760504 -0.919266 0)
(0.0850507 -0.881671 0)
(0.091425 -0.799235 0)
(0.00812391 -0.886585 0)
(0.0196333 -0.907751 0)
(0.0317913 -0.915055 0)
(0.0435388 -0.919398 0)
(0.0550287 -0.922424 0)
(0.0662744 -0.92353 0)
(0.0772764 -0.920322 0)
(0.0879608 -0.907068 0)
(0.0978218 -0.871655 0)
(0.10436 -0.796518 0)
(0.0092921 -0.868518 0)
(0.0225572 -0.891085 0)
(0.0365799 -0.899 0)
(0.0501454 -0.903724 0)
(0.0634413 -0.907074 0)
(0.0764794 -0.908496 0)
(0.0892174 -0.905686 0)
(0.101471 -0.893324 0)
(0.112497 -0.860761 0)
(0.119684 -0.793319 0)
(0.0105822 -0.847819 0)
(0.0257938 -0.871925 0)
(0.0418851 -0.880519 0)
(0.0574661 -0.885648 0)
(0.0727673 -0.889333 0)
(0.0878075 -0.891107 0)
(0.102507 -0.888822 0)
(0.116588 -0.87767 0)
(0.129131 -0.848464 0)
(0.137502 -0.788953 0)
(0.0119901 -0.824223 0)
(0.0293341 -0.850015 0)
(0.0476898 -0.85937 0)
(0.0654718 -0.864926 0)
(0.0829614 -0.868949 0)
(0.100196 -0.871095 0)
(0.117071 -0.869427 0)
(0.133237 -0.859715 0)
(0.147667 -0.834189 0)
(0.157783 -0.782663 0)
(0.0135136 -0.797474 0)
(0.0331605 -0.825111 0)
(0.0539595 -0.835324 0)
(0.0741072 -0.84134 0)
(0.0939409 -0.8457 0)
(0.113532 -0.84822 0)
(0.132763 -0.847216 0)
(0.151248 -0.839069 0)
(0.167921 -0.817349 0)
(0.18033 -0.773656 0)
(0.0151607 -0.76733 0)
(0.037252 -0.796999 0)
(0.0606458 -0.808184 0)
(0.0832946 -0.814708 0)
(0.105589 -0.819409 0)
(0.127652 -0.822292 0)
(0.149371 -0.821954 0)
(0.170357 -0.81539 0)
(0.189574 -0.797401 0)
(0.204758 -0.761162 0)
(0.0169274 -0.73355 0)
(0.0415897 -0.765518 0)
(0.0676942 -0.777794 0)
(0.0929413 -0.784899 0)
(0.117764 -0.789959 0)
(0.142355 -0.79319 0)
(0.166628 -0.793483 0)
(0.19022 -0.788421 0)
(0.212183 -0.773906 0)
(0.230506 -0.744513 0)
(0.0187979 -0.695896 0)
(0.0461566 -0.730521 0)
(0.0750523 -0.74405 0)
(0.10295 -0.751842 0)
(0.130313 -0.757309 0)
(0.15742 -0.760881 0)
(0.184228 -0.761747 0)
(0.210434 -0.75803 0)
(0.23522 -0.746591 0)
(0.25687 -0.723235 0)
(0.0207679 -0.654169 0)
(0.0509395 -0.691887 0)
(0.0826743 -0.706898 0)
(0.113229 -0.715535 0)
(0.143083 -0.721498 0)
(0.172618 -0.725433 0)
(0.201857 -0.726814 0)
(0.230575 -0.724242 0)
(0.258113 -0.715393 0)
(0.283074 -0.697127 0)
(0.022842 -0.608168 0)
(0.0559386 -0.649522 0)
(0.0905297 -0.666338 0)
(0.123698 -0.67605 0)
(0.155931 -0.682656 0)
(0.187736 -0.687017 0)
(0.219213 -0.688874 0)
(0.250233 -0.687248 0)
(0.280306 -0.680478 0)
(0.308357 -0.666305 0)
(0.0250354 -0.557676 0)
(0.0611747 -0.603351 0)
(0.098609 -0.622426 0)
(0.134296 -0.633529 0)
(0.168733 -0.640997 0)
(0.202578 -0.645902 0)
(0.236024 -0.648239 0)
(0.269044 -0.647388 0)
(0.301316 -0.642223 0)
(0.332061 -0.631193 0)
(0.0273783 -0.502438 0)
(0.0666926 -0.553317 0)
(0.106921 -0.575275 0)
(0.144972 -0.588197 0)
(0.18137 -0.596817 0)
(0.21696 -0.602443 0)
(0.252047 -0.605313 0)
(0.286701 -0.605119 0)
(0.320755 -0.601165 0)
(0.353685 -0.592454 0)
(0.0299035 -0.442148 0)
(0.0725544 -0.499406 0)
(0.115473 -0.525085 0)
(0.155652 -0.540364 0)
(0.193696 -0.550494 0)
(0.230683 -0.557064 0)
(0.267041 -0.560564 0)
(0.302933 -0.560967 0)
(0.338323 -0.557928 0)
(0.372894 -0.550876 0)
(0.0327608 -0.376381 0)
(0.0788353 -0.441603 0)
(0.124204 -0.47214 0)
(0.166168 -0.490436 0)
(0.205473 -0.502478 0)
(0.243464 -0.510236 0)
(0.280711 -0.514481 0)
(0.317454 -0.515462 0)
(0.353761 -0.513131 0)
(0.389466 -0.507253 0)
(0.0360433 -0.304765 0)
(0.085541 -0.380402 0)
(0.132844 -0.416921 0)
(0.176117 -0.438939 0)
(0.216254 -0.453296 0)
(0.254847 -0.462456 0)
(0.292619 -0.467539 0)
(0.329878 -0.469085 0)
(0.36676 -0.467314 0)
(0.4032 -0.462268 0)
(0.0389715 -0.22666 0)
(0.0922035 -0.31683 0)
(0.140834 -0.360096 0)
(0.18476 -0.386378 0)
(0.225223 -0.40343 0)
(0.264041 -0.414168 0)
(0.302055 -0.420135 0)
(0.339603 -0.422205 0)
(0.376848 -0.420872 0)
(0.413778 -0.416414 0)
(0.0378225 -0.139862 0)
(0.0945614 -0.250596 0)
(0.145895 -0.303246 0)
(0.190801 -0.333943 0)
(0.231227 -0.353524 0)
(0.269892 -0.365735 0)
(0.307938 -0.372501 0)
(0.345682 -0.375 0)
(0.383248 -0.373979 0)
(0.420627 -0.369925 0)
(0.028229 -0.055843 0)
(0.0846162 -0.17132 0)
(0.14077 -0.241139 0)
(0.189449 -0.280737 0)
(0.231352 -0.30392 0)
(0.270368 -0.317522 0)
(0.308616 -0.324806 0)
(0.346698 -0.327495 0)
(0.384763 -0.326596 0)
(0.422784 -0.322768 0)
(0.0158137 -0.00237705 0)
(0.0619831 -0.0932372 0)
(0.119106 -0.171426 0)
(0.172887 -0.22215 0)
(0.219271 -0.2519 0)
(0.261014 -0.26832 0)
(0.300909 -0.276451 0)
(0.340232 -0.279201 0)
(0.379447 -0.278199 0)
(0.418638 -0.274419 0)
(0.00629181 0.030739 0)
(0.0369952 -0.0273157 0)
(0.0849402 -0.0998991 0)
(0.137986 -0.156494 0)
(0.188298 -0.193376 0)
(0.23487 -0.214686 0)
(0.278937 -0.225255 0)
(0.321633 -0.22888 0)
(0.363613 -0.228099 0)
(0.405151 -0.224438 0)
(-0.00609517 0.0467142 0)
(0.0158738 0.0126624 0)
(0.0474443 -0.0412877 0)
(0.0893803 -0.0918806 0)
(0.13687 -0.129406 0)
(0.186182 -0.153683 0)
(0.2353 -0.167158 0)
(0.283502 -0.172896 0)
(0.330634 -0.173469 0)
(0.376738 -0.170651 0)
(-0.0196915 0.0447489 0)
(-0.0138372 0.0247625 0)
(0.00608332 -0.00533002 0)
(0.0336799 -0.0404354 0)
(0.0716627 -0.069622 0)
(0.118011 -0.0900787 0)
(0.169548 -0.101993 0)
(0.223025 -0.107857 0)
(0.276292 -0.109527 0)
(0.328531 -0.107733 0)
(-0.024631 0.0128723 0)
(-0.0456732 0.00296029 0)
(-0.0546967 -0.0129272 0)
(-0.0358869 -0.0255712 0)
(-0.00687933 -0.0373824 0)
(0.0337725 -0.0448243 0)
(0.083347 -0.0481841 0)
(0.138305 -0.0511089 0)
(0.20098 -0.0531396 0)
(0.261054 -0.0526286 0)
(-0.0402905 -0.146509 0)
(-0.114292 0.0219228 0)
(-0.087935 0.0283321 0)
(-0.0635944 0.0294469 0)
(-0.0352902 0.0312606 0)
(-0.00841154 0.0315169 0)
(0.0182401 0.0294373 0)
(0.0434641 0.0265461 0)
(0.0680629 0.0239916 0)
(0.0896783 0.0209718 0)
(0.106345 0.0172233 0)
(0.119407 0.0134385 0)
(0.128922 0.0098392 0)
(0.134997 0.00697777 0)
(0.13798 0.00446172 0)
(0.138025 0.00172352 0)
(0.135121 -0.00113635 0)
(0.12907 -0.00422955 0)
(0.119592 -0.00739972 0)
(0.106386 -0.0108343 0)
(0.0891597 -0.0143386 0)
(0.0681505 -0.0172587 0)
(0.0435685 -0.017768 0)
(0.0176621 -0.0137338 0)
(0.00287921 -0.00665635 0)
(-0.0245656 -0.215233 0)
(-0.0698541 0.00423288 0)
(-0.0711309 0.0357089 0)
(-0.0607041 0.0456083 0)
(-0.0424583 0.0510182 0)
(-0.0205936 0.052777 0)
(0.0029116 0.0508905 0)
(0.0262446 0.0466797 0)
(0.0472465 0.0410236 0)
(0.0649709 0.0342082 0)
(0.0794828 0.0269736 0)
(0.0909368 0.0200463 0)
(0.0994481 0.0135695 0)
(0.105181 0.00765166 0)
(0.10839 0.0022017 0)
(0.109447 -0.00298 0)
(0.108632 -0.00813054 0)
(0.105939 -0.0135572 0)
(0.101229 -0.0195317 0)
(0.0942505 -0.0261579 0)
(0.0846596 -0.0332173 0)
(0.0718769 -0.0398391 0)
(0.056154 -0.043594 0)
(0.0338661 -0.0401725 0)
(0.0120931 -0.0277714 0)
(-0.004855 -0.28695 0)
(-0.0535382 -0.024022 0)
(-0.064297 0.0369347 0)
(-0.0610411 0.0596741 0)
(-0.0484412 0.0719782 0)
(-0.0312066 0.0774574 0)
(-0.0116786 0.0777322 0)
(0.0085589 0.0732515 0)
(0.0272055 0.0649438 0)
(0.043232 0.0546229 0)
(0.0561389 0.043775 0)
(0.0658547 0.0331519 0)
(0.0729178 0.0232763 0)
(0.0778096 0.0144481 0)
(0.0807408 0.00647848 0)
(0.0819159 -0.00102709 0)
(0.0814811 -0.00853267 0)
(0.0795334 -0.0164025 0)
(0.076147 -0.0249592 0)
(0.0713432 -0.0344324 0)
(0.065058 -0.0447772 0)
(0.0568147 -0.055265 0)
(0.0464217 -0.0636514 0)
(0.0317206 -0.0648506 0)
(0.0143301 -0.0525536 0)
(0.00597122 -0.358663 0)
(-0.0478835 -0.0598805 0)
(-0.0643101 0.030425 0)
(-0.0656376 0.0689036 0)
(-0.0564143 0.0900611 0)
(-0.0418897 0.100005 0)
(-0.0255416 0.101734 0)
(-0.00902575 0.0965303 0)
(0.00642989 0.0858107 0)
(0.0199406 0.0719983 0)
(0.0309694 0.0571728 0)
(0.0394633 0.0429044 0)
(0.0458016 0.0301562 0)
(0.0504026 0.0189493 0)
(0.0534386 0.00885675 0)
(0.0550548 -0.000616468 0)
(0.0553078 -0.00989789 0)
(0.0542533 -0.0193887 0)
(0.0520024 -0.0294545 0)
(0.0486775 -0.0404267 0)
(0.0443868 -0.0525049 0)
(0.0389981 -0.065375 0)
(0.0321962 -0.0773685 0)
(0.0229844 -0.0835984 0)
(0.0125628 -0.0813602 0)
(0.0150868 -0.419394 0)
(-0.0400078 -0.107583 0)
(-0.0629348 0.0151154 0)
(-0.0687329 0.0726131 0)
(-0.0640697 0.103826 0)
(-0.0525857 0.118404 0)
(-0.0392957 0.120895 0)
(-0.0259176 0.114597 0)
(-0.0135021 0.101984 0)
(-0.00256553 0.0857438 0)
(0.00659707 0.0682824 0)
(0.0139672 0.0516612 0)
(0.0197233 0.0369005 0)
(0.0240677 0.0239256 0)
(0.0271872 0.0121854 0)
(0.0292042 0.00109596 0)
(0.0301414 -0.00979875 0)
(0.0300163 -0.0208093 0)
(0.0289455 -0.0322152 0)
(0.0270785 -0.0443239 0)
(0.0245908 -0.0574226 0)
(0.0216011 -0.0714859 0)
(0.0179493 -0.0854138 0)
(0.0126313 -0.0952867 0)
(0.00827643 -0.0969197 0)
(0.0246356 -0.468615 0)
(-0.0284513 -0.159326 0)
(-0.0552309 -0.00825615 0)
(-0.0671323 0.0692835 0)
(-0.067823 0.112036 0)
(-0.0611989 0.131994 0)
(-0.0519875 0.136111 0)
(-0.0418888 0.129474 0)
(-0.0318811 0.115369 0)
(-0.0230012 0.0972931 0)
(-0.0152637 0.0778371 0)
(-0.00891597 0.0592578 0)
(-0.00394011 0.0427713 0)
(-9.69319e-05 0.0283959 0)
(0.00283361 0.0154139 0)
(0.00496285 0.00312144 0)
(0.00630165 -0.00892501 0)
(0.00687558 -0.0210096 0)
(0.00682161 -0.0333486 0)
(0.00630577 -0.0462012 0)
(0.00553864 -0.0598314 0)
(0.00484136 -0.0742587 0)
(0.004513 -0.0887002 0)
(0.00304821 -0.100625 0)
(0.00464598 -0.103757 0)
(0.0314149 -0.507506 0)
(-0.0140194 -0.209211 0)
(-0.0430318 -0.0392509 0)
(-0.0611764 0.0579985 0)
(-0.0677002 0.112902 0)
(-0.0668855 0.138878 0)
(-0.0620748 0.146045 0)
(-0.0561452 0.140567 0)
(-0.0488582 0.126059 0)
(-0.0419497 0.107011 0)
(-0.035377 0.086128 0)
(-0.0297514 0.0658377 0)
(-0.0253835 0.0478064 0)
(-0.0221415 0.0322354 0)
(-0.0196732 0.0182991 0)
(-0.017733 0.00515313 0)
(-0.0162745 -0.00765648 0)
(-0.0152739 -0.0203827 0)
(-0.0145746 -0.0331946 0)
(-0.0139707 -0.0462918 0)
(-0.0132038 -0.0598473 0)
(-0.0117113 -0.0737188 0)
(-0.00858623 -0.0870895 0)
(-0.00490638 -0.0984782 0)
(-0.000208931 -0.102652 0)
(0.0367535 -0.538784 0)
(0.00014896 -0.254714 0)
(-0.0301852 -0.0735636 0)
(-0.051989 0.0386509 0)
(-0.0645552 0.105416 0)
(-0.0696642 0.139458 0)
(-0.0701185 0.149351 0)
(-0.0684737 0.14658 0)
(-0.0648421 0.133308 0)
(-0.0604475 0.114678 0)
(-0.0553007 0.0933973 0)
(-0.0502263 0.0719293 0)
(-0.0460575 0.05242 0)
(-0.0431069 0.0356161 0)
(-0.0410908 0.0208729 0)
(-0.0395508 0.00719424 0)
(-0.0382481 -0.00602112 0)
(-0.0371267 -0.0190025 0)
(-0.036024 -0.0318441 0)
(-0.0346827 -0.0446697 0)
(-0.0327581 -0.057551 0)
(-0.0293323 -0.0701732 0)
(-0.0221511 -0.0812369 0)
(-0.00920616 -0.0884177 0)
(0.00742465 -0.090942 0)
(0.0414297 -0.563373 0)
(0.0117372 -0.295933 0)
(-0.0182516 -0.109891 0)
(-0.0423944 0.0130083 0)
(-0.0595977 0.0902523 0)
(-0.0704891 0.132397 0)
(-0.0764478 0.147783 0)
(-0.0792551 0.148015 0)
(-0.0803709 0.13621 0)
(-0.0790734 0.119558 0)
(-0.0760672 0.0993969 0)
(-0.0718756 0.077817 0)
(-0.0676442 0.0571228 0)
(-0.0643299 0.038783 0)
(-0.0622015 0.0228789 0)
(-0.0608955 0.00861392 0)
(-0.0598867 -0.00482269 0)
(-0.0588305 -0.0178327 0)
(-0.0575126 -0.0304588 0)
(-0.0554989 -0.0425522 0)
(-0.0522752 -0.0535706 0)
(-0.0471127 -0.0620274 0)
(-0.0385842 -0.0646679 0)
(-0.0260339 -0.0570463 0)
(-0.0169266 -0.0435342 0)
(0.0457938 -0.583047 0)
(0.021087 -0.332771 0)
(-0.00772506 -0.146303 0)
(-0.0333068 -0.0167228 0)
(-0.0540919 0.068631 0)
(-0.0698114 0.117707 0)
(-0.0810382 0.138586 0)
(-0.0886466 0.141192 0)
(-0.0944078 0.133601 0)
(-0.0972682 0.120209 0)
(-0.0976223 0.102817 0)
(-0.0956135 0.0829485 0)
(-0.0920801 0.0624695 0)
(-0.0882201 0.0431114 0)
(-0.0849677 0.025798 0)
(-0.0826088 0.0105417 0)
(-0.0808774 -0.00312523 0)
(-0.0793066 -0.015612 0)
(-0.0775249 -0.026972 0)
(-0.0753374 -0.0367497 0)
(-0.0729831 -0.0443528 0)
(-0.0715412 -0.049609 0)
(-0.0734896 -0.0543081 0)
(-0.0841841 -0.0634972 0)
(-0.111707 -0.088897 0)
(0.0498526 -0.599367 0)
(0.0287981 -0.366073 0)
(0.00142313 -0.18238 0)
(-0.0250769 -0.0491337 0)
(-0.0486555 0.0421408 0)
(-0.0683075 0.0972763 0)
(-0.0839416 0.123121 0)
(-0.0963555 0.129385 0)
(-0.106248 0.125019 0)
(-0.113734 0.115114 0)
(-0.118646 0.101388 0)
(-0.120793 0.0848708 0)
(-0.12037 0.0667445 0)
(-0.118134 0.048373 0)
(-0.115102 0.0309285 0)
(-0.112185 0.0150666 0)
(-0.110033 0.00086991 0)
(-0.10912 -0.0119698 0)
(-0.109407 -0.0237831 0)
(-0.111504 -0.0351505 0)
(-0.11654 -0.0472353 0)
(-0.126139 -0.0619516 0)
(-0.141727 -0.0813772 0)
(-0.162818 -0.106371 0)
(-0.183443 -0.13406 0)
(0.0537572 -0.613303 0)
(0.0354223 -0.396464 0)
(0.00943537 -0.21787 0)
(-0.0175587 -0.0834858 0)
(-0.0430864 0.0116944 0)
(-0.0657178 0.0717416 0)
(-0.0848811 0.102045 0)
(-0.100925 0.111797 0)
(-0.114594 0.110506 0)
(-0.126253 0.103665 0)
(-0.135858 0.0931791 0)
(-0.143269 0.0800898 0)
(-0.148369 0.0651621 0)
(-0.151337 0.0491219 0)
(-0.152733 0.0326447 0)
(-0.153395 0.0162311 0)
(-0.154383 0.000191221 0)
(-0.156617 -0.0154912 0)
(-0.160618 -0.0312013 0)
(-0.166811 -0.0476913 0)
(-0.1754 -0.0656407 0)
(-0.185972 -0.0851373 0)
(-0.195845 -0.104669 0)
(-0.20205 -0.122377 0)
(-0.20009 -0.136008 0)
(0.058285 -0.625744 0)
(0.0416881 -0.424669 0)
(0.0169187 -0.252636 0)
(-0.0101992 -0.118956 0)
(-0.0368839 -0.0214454 0)
(-0.0615164 0.0425767 0)
(-0.0831151 0.077036 0)
(-0.101639 0.0900919 0)
(-0.117866 0.0914141 0)
(-0.132531 0.0870765 0)
(-0.14558 0.0789038 0)
(-0.156946 0.0681144 0)
(-0.166792 0.0555647 0)
(-0.17484 0.0416135 0)
(-0.181435 0.0265356 0)
(-0.18711 0.010543 0)
(-0.192022 -0.00598607 0)
(-0.196518 -0.0226366 0)
(-0.200812 -0.0393557 0)
(-0.204705 -0.0563002 0)
(-0.207635 -0.0732796 0)
(-0.208993 -0.0893937 0)
(-0.205762 -0.103486 0)
(-0.200244 -0.114055 0)
(-0.191417 -0.120549 0)
(0.063638 -0.637407 0)
(0.0482664 -0.451229 0)
(0.0245607 -0.286602 0)
(-0.0023516 -0.154918 0)
(-0.0295801 -0.0561611 0)
(-0.0553735 0.0111381 0)
(-0.0783464 0.0496187 0)
(-0.0981331 0.0660228 0)
(-0.115357 0.0696644 0)
(-0.131456 0.0672821 0)
(-0.146397 0.0613096 0)
(-0.159281 0.0526945 0)
(-0.170535 0.0422885 0)
(-0.180342 0.0304418 0)
(-0.18857 0.017417 0)
(-0.195199 0.00347146 0)
(-0.200289 -0.0112102 0)
(-0.203929 -0.0263495 0)
(-0.205786 -0.0417009 0)
(-0.206404 -0.0569421 0)
(-0.205301 -0.071082 0)
(-0.201416 -0.0831032 0)
(-0.194857 -0.0930148 0)
(-0.185728 -0.100381 0)
(-0.175071 -0.105059 0)
(0.070279 -0.648651 0)
(0.0558091 -0.47649 0)
(0.0330379 -0.31969 0)
(0.00653263 -0.190851 0)
(-0.0208601 -0.0916397 0)
(-0.0471915 -0.0215212 0)
(-0.0708476 0.0210601 0)
(-0.0911199 0.0412191 0)
(-0.108374 0.0472505 0)
(-0.124001 0.0463561 0)
(-0.138983 0.0424706 0)
(-0.152463 0.0361359 0)
(-0.163991 0.0278864 0)
(-0.173725 0.01825 0)
(-0.181679 0.00754597 0)
(-0.187918 -0.00409992 0)
(-0.192404 -0.0164537 0)
(-0.194984 -0.0291643 0)
(-0.195533 -0.0418573 0)
(-0.193913 -0.0539035 0)
(-0.189857 -0.0646924 0)
(-0.183641 -0.0739734 0)
(-0.175926 -0.081632 0)
(-0.16692 -0.0875284 0)
(-0.157422 -0.0917432 0)
(0.0786815 -0.659618 0)
(0.0649361 -0.50068 0)
(0.0430064 -0.351884 0)
(0.0170039 -0.226446 0)
(-0.010319 -0.127371 0)
(-0.0368989 -0.0547779 0)
(-0.0609807 -0.00800757 0)
(-0.0814784 0.016544 0)
(-0.0985128 0.0257949 0)
(-0.112871 0.0268405 0)
(-0.126109 0.0242436 0)
(-0.138628 0.0198811 0)
(-0.149478 0.0140755 0)
(-0.158621 0.00693509 0)
(-0.165948 -0.00136851 0)
(-0.171364 -0.0105487 0)
(-0.174838 -0.0202468 0)
(-0.176286 -0.030156 0)
(-0.175657 -0.0399427 0)
(-0.172984 -0.0491947 0)
(-0.168455 -0.0575582 0)
(-0.162447 -0.0648779 0)
(-0.155406 -0.0711064 0)
(-0.147713 -0.0762353 0)
(-0.139794 -0.0803507 0)
(0.0892738 -0.670268 0)
(0.0762187 -0.523911 0)
(0.0550941 -0.383203 0)
(0.0296244 -0.261551 0)
(0.00251416 -0.163099 0)
(-0.0241943 -0.0884762 0)
(-0.0486921 -0.0375514 0)
(-0.0695522 -0.00806748 0)
(-0.0865224 0.00542543 0)
(-0.100325 0.00937019 0)
(-0.111846 0.00853951 0)
(-0.122146 0.00568695 0)
(-0.131337 0.00161233 0)
(-0.1391 -0.00336611 0)
(-0.145332 -0.00924607 0)
(-0.149884 -0.0158785 0)
(-0.152656 -0.022987 0)
(-0.1536 -0.0302861 0)
(-0.152741 -0.0375146 0)
(-0.150222 -0.0444528 0)
(-0.146296 -0.0509459 0)
(-0.141262 -0.0568944 0)
(-0.135411 -0.06221 0)
(-0.129024 -0.0668268 0)
(-0.122327 -0.0707202 0)
(0.10243 -0.680384 0)
(0.0901785 -0.546161 0)
(0.0699048 -0.413639 0)
(0.0450069 -0.296111 0)
(0.0181851 -0.198693 0)
(-0.00858499 -0.122554 0)
(-0.0335243 -0.0677942 0)
(-0.055052 -0.0331907 0)
(-0.0724758 -0.0147858 0)
(-0.0862515 -0.00698743 0)
(-0.0972869 -0.00505697 0)
(-0.106323 -0.00606106 0)
(-0.113867 -0.00837414 0)
(-0.120116 -0.0115856 0)
(-0.125089 -0.0155854 0)
(-0.128669 -0.0201592 0)
(-0.130799 -0.0251123 0)
(-0.131471 -0.0302737 0)
(-0.130727 -0.0354886 0)
(-0.128701 -0.0406431 0)
(-0.125516 -0.0456399 0)
(-0.121371 -0.0504034 0)
(-0.116466 -0.0548466 0)
(-0.110999 -0.0588641 0)
(-0.10514 -0.062371 0)
(0.118453 -0.689577 0)
(0.107269 -0.567238 0)
(0.0880086 -0.443094 0)
(0.0637909 -0.330069 0)
(0.0373076 -0.234078 0)
(0.0105609 -0.156949 0)
(-0.0147903 -0.0989213 0)
(-0.0371553 -0.0593498 0)
(-0.0554954 -0.0356729 0)
(-0.0698576 -0.023412 0)
(-0.0810194 -0.0180472 0)
(-0.0898079 -0.0164207 0)
(-0.0968024 -0.0167918 0)
(-0.102308 -0.0183477 0)
(-0.106489 -0.0206704 0)
(-0.109386 -0.023531 0)
(-0.111026 -0.0267738 0)
(-0.111455 -0.0302566 0)
(-0.110748 -0.0338336 0)
(-0.108987 -0.0374862 0)
(-0.106246 -0.0412004 0)
(-0.10267 -0.0448917 0)
(-0.0983573 -0.0484664 0)
(-0.0934688 -0.0518218 0)
(-0.0881566 -0.0548671 0)
(0.137537 -0.69729 0)
(0.127838 -0.586758 0)
(0.109906 -0.471322 0)
(0.0865892 -0.363283 0)
(0.0605684 -0.269179 0)
(0.0339122 -0.191542 0)
(0.00824763 -0.130913 0)
(-0.014962 -0.0868908 0)
(-0.0345183 -0.0578923 0)
(-0.0500231 -0.0407214 0)
(-0.0619559 -0.0314574 0)
(-0.0711254 -0.026867 0)
(-0.0782138 -0.0249115 0)
(-0.0836413 -0.0245029 0)
(-0.0876399 -0.025068 0)
(-0.0903417 -0.0262913 0)
(-0.0918349 -0.0279892 0)
(-0.0921994 -0.0300385 0)
(-0.091528 -0.0323399 0)
(-0.0898938 -0.034803 0)
(-0.0874324 -0.0373246 0)
(-0.0842085 -0.0399342 0)
(-0.0802926 -0.0426573 0)
(-0.0758134 -0.0453617 0)
(-0.070896 -0.0479364 0)
(0.159721 -0.702805 0)
(0.152076 -0.604124 0)
(0.135963 -0.49787 0)
(0.113931 -0.395454 0)
(0.0886325 -0.30383 0)
(0.0622181 -0.226219 0)
(0.0363523 -0.163619 0)
(0.0124257 -0.115867 0)
(-0.00839853 -0.0819262 0)
(-0.0254224 -0.0596416 0)
(-0.0387074 -0.0459892 0)
(-0.0488642 -0.0379713 0)
(-0.05659 -0.0333655 0)
(-0.062412 -0.0308052 0)
(-0.0666607 -0.0295178 0)
(-0.0695376 -0.0290744 0)
(-0.0711777 -0.029235 0)
(-0.0716895 -0.0298614 0)
(-0.0711787 -0.0308691 0)
(-0.0697535 -0.0322007 0)
(-0.0675337 -0.0337835 0)
(-0.0645953 -0.0355166 0)
(-0.061059 -0.0373765 0)
(-0.0569755 -0.039376 0)
(-0.0524502 -0.0414652 0)
(0.184839 -0.705269 0)
(0.17994 -0.618519 0)
(0.166325 -0.522035 0)
(0.146169 -0.426046 0)
(0.122045 -0.337671 0)
(0.0961862 -0.26075 0)
(0.0703409 -0.19683 0)
(0.0458953 -0.146101 0)
(0.0239791 -0.107882 0)
(0.00538731 -0.0807054 0)
(-0.00960236 -0.0624145 0)
(-0.0212641 -0.0505079 0)
(-0.0301664 -0.0428262 0)
(-0.0368642 -0.0378129 0)
(-0.0417727 -0.0344805 0)
(-0.0451673 -0.0322562 0)
(-0.0472338 -0.0308228 0)
(-0.0481149 -0.0300119 0)
(-0.0479407 -0.0297314 0)
(-0.0468409 -0.0299202 0)
(-0.044949 -0.0305174 0)
(-0.0423907 -0.0314534 0)
(-0.0392572 -0.0326416 0)
(-0.035627 -0.0339945 0)
(-0.0315737 -0.0355214 0)
(0.212482 -0.703756 0)
(0.211085 -0.628929 0)
(0.200807 -0.542834 0)
(0.183346 -0.454224 0)
(0.161095 -0.370066 0)
(0.136332 -0.294683 0)
(0.110912 -0.230191 0)
(0.0862881 -0.177233 0)
(0.0635955 -0.135502 0)
(0.0436707 -0.103998 0)
(0.0269747 -0.0811701 0)
(0.0135338 -0.0651251 0)
(0.00302651 -0.0539775 0)
(-0.00500866 -0.0461434 0)
(-0.0110073 -0.0404815 0)
(-0.0152955 -0.0362736 0)
(-0.0181034 -0.0331034 0)
(-0.0196162 -0.030762 0)
(-0.0200055 -0.0291472 0)
(-0.019438 -0.028189 0)
(-0.0180725 -0.0278196 0)
(-0.0160493 -0.0279463 0)
(-0.0134727 -0.0284582 0)
(-0.0104278 -0.0292535 0)
(-0.00693835 -0.0302606 0)
(0.24198 -0.697362 0)
(0.244814 -0.634234 0)
(0.2388 -0.55904 0)
(0.225049 -0.478821 0)
(0.205635 -0.400027 0)
(0.182787 -0.327239 0)
(0.158452 -0.263096 0)
(0.134187 -0.208737 0)
(0.111196 -0.164281 0)
(0.0903667 -0.129141 0)
(0.0722701 -0.102232 0)
(0.057132 -0.0821377 0)
(0.0448623 -0.0673278 0)
(0.0351656 -0.0563661 0)
(0.0276848 -0.0480789 0)
(0.0221046 -0.0416299 0)