/*--------------------------------*- C++ -*----------------------------------*\
| =========                 |                                                 |
| \\      /  F ield         | OpenFOAM: The Open Source CFD Toolbox           |
|  \\    /   O peration     | Version:  v2012                                 |
|   \\  /    A nd           | Website:  www.openfoam.com                      |
|    \\/     M anipulation  |                                                 |
\*---------------------------------------------------------------------------*/
FoamFile
{
    version     2.0;
    format      ascii;
    class       volScalarField;
    location    "620";
    object      age;
}
// * * * * * * * * * * * * * * * * * * * * * * * * * * * * * * * * * * * * * //

dimensions      [0 0 1 0 0 0 0];


internalField   nonuniform List<scalar> 
6108
(
0.489337
0.464153
0.438983
0.413823
0.388674
0.363534
0.338402
0.313279
0.288164
0.263057
0.237958
0.212868
0.187786
0.162714
0.137652
0.1126
0.0875585
0.0625284
0.0375097
0.0125018
0.487557
0.462536
0.437521
0.412511
0.387503
0.362497
0.337492
0.312488
0.287486
0.262484
0.237483
0.212482
0.187483
0.162483
0.137485
0.112487
0.0874905
0.0624939
0.0374973
0.0124996
0.487091
0.462118
0.437149
0.41218
0.387212
0.362243
0.337274
0.312303
0.28733
0.262357
0.237381
0.212404
0.187424
0.162443
0.137459
0.112473
0.0874839
0.0624922
0.0374974
0.0124998
0.486901
0.46195
0.437001
0.412051
0.3871
0.362147
0.337192
0.312235
0.287275
0.262313
0.237347
0.212379
0.187407
0.162432
0.137453
0.11247
0.0874835
0.0624926
0.0374978
0.0124998
0.486817
0.461879
0.43694
0.411999
0.387056
0.36211
0.337161
0.31221
0.287255
0.262297
0.237336
0.212371
0.187402
0.162429
0.137452
0.11247
0.0874839
0.062493
0.037498
0.0124999
0.486799
0.461867
0.436932
0.411994
0.387052
0.362108
0.33716
0.312209
0.287254
0.262297
0.237335
0.21237
0.187402
0.162429
0.137452
0.11247
0.0874839
0.062493
0.037498
0.0124999
0.486849
0.461917
0.436979
0.412036
0.38709
0.362141
0.337188
0.312232
0.287273
0.262312
0.237347
0.212378
0.187407
0.162432
0.137453
0.11247
0.0874835
0.0624926
0.0374978
0.0124998
0.48701
0.462066
0.437114
0.412158
0.387197
0.362233
0.337267
0.312299
0.287328
0.262355
0.23738
0.212403
0.187424
0.162442
0.137459
0.112473
0.0874838
0.0624922
0.0374974
0.0124998
0.487449
0.462469
0.437477
0.412481
0.387483
0.362484
0.337484
0.312483
0.287482
0.262482
0.237482
0.212482
0.187482
0.162483
0.137485
0.112487
0.0874904
0.0624939
0.0374973
0.0124996
0.484762
0.465125
0.438681
0.413847
0.388637
0.363522
0.338392
0.313273
0.28816
0.263054
0.237956
0.212867
0.187786
0.162714
0.137652
0.1126
0.0875585
0.0625284
0.0375097
0.0125018
0.590264
0.564995
0.539754
0.514536
0.587755
0.56268
0.537625
0.512585
0.587065
0.562051
0.537054
0.512068
0.586768
0.561783
0.536814
0.511854
0.586619
0.561652
0.536699
0.511756
0.586563
0.561607
0.536664
0.51173
0.586609
0.56165
0.536708
0.511777
0.586845
0.56185
0.536887
0.511946
0.587466
0.562412
0.537401
0.512417
0.6306
0.59859
0.566161
0.53328
10.9674
11.5038
12.0624
13.3006
3.05683
1.9539
1.73468
1.60345
1.51337
1.44254
1.3834
1.33197
1.28602
1.24415
1.20541
1.16914
1.13486
1.10218
1.07081
1.04053
1.01115
0.982507
0.954483
0.92697
0.899881
0.873143
0.846695
0.820485
0.794472
0.768618
0.742897
0.717283
0.691757
0.666304
0.640911
0.615567
10.0794
11.6853
11.658
7.22077
2.22387
1.8217
1.67272
1.56563
1.48661
1.42161
1.36608
1.31707
1.27284
1.23226
1.19454
1.15911
1.12552
1.09346
1.06264
1.03286
1.00393
0.97572
0.948097
0.920962
0.89423
0.86783
0.841703
0.815798
0.790073
0.764496
0.739037
0.713674
0.688388
0.663163
0.63799
0.612856
9.66617
11.178
8.11664
3.4407
1.94334
1.74136
1.62691
1.53679
1.46593
1.40572
1.35329
1.30642
1.26379
1.22446
1.18776
1.15317
1.1203
1.08885
1.05857
1.02924
1.00072
0.972855
0.945535
0.918663
0.892161
0.865962
0.84001
0.814259
0.788672
0.763216
0.737866
0.712601
0.687405
0.662263
0.637164
0.612101
8.79047
8.31871
4.50666
2.1196
1.84586
1.69525
1.59834
1.5183
1.45265
1.39578
1.34556
1.30026
1.25879
1.22034
1.18431
1.15026
1.11782
1.08671
1.05671
1.02761
0.999276
0.971569
0.944382
0.917626
0.891225
0.865114
0.839241
0.813561
0.788036
0.762638
0.73734
0.712122
0.686968
0.661865
0.636803
0.611773
7.40623
5.61101
2.74964
1.93305
1.79197
1.66794
1.58052
1.50657
1.44432
1.3897
1.34097
1.2967
1.25595
1.21802
1.18237
1.1486
1.11638
1.08545
1.05558
1.02661
0.998384
0.970771
0.943669
0.916988
0.890653
0.864602
0.838782
0.813149
0.787668
0.762308
0.737044
0.711857
0.686731
0.661653
0.636613
0.611604
6.25421
3.85212
2.15881
1.88393
1.7604
1.65087
1.56903
1.49895
1.43897
1.38587
1.33813
1.29452
1.25422
1.21659
1.18116
1.14756
1.11549
1.08469
1.05495
1.02608
0.997943
0.970408
0.943368
0.916737
0.890441
0.864419
0.838621
0.813005
0.787537
0.762188
0.736934
0.711756
0.686639
0.661569
0.636538
0.611538
5.42995
2.94461
2.02806
1.85973
1.7404
1.63985
1.56157
1.49416
1.43577
1.38368
1.33649
1.29317
1.25303
1.21555
1.18031
1.14693
1.11508
1.08451
1.05497
1.02628
0.998274
0.970831
0.943843
0.917229
0.890921
0.864866
0.839023
0.813354
0.787831
0.762428
0.737126
0.711906
0.686753
0.661656
0.636604
0.611591
4.79924
2.49895
1.98606
1.84504
1.72732
1.63282
1.55687
1.49106
1.43333
1.38144
1.33441
1.29153
1.25217
1.21566
1.18132
1.14868
1.11742
1.08726
1.058
1.02944
1.00146
0.973947
0.946813
0.919996
0.893446
0.867127
0.841007
0.815064
0.789277
0.763629
0.738105
0.71269
0.687371
0.662136
0.636977
0.611883
4.33991
2.32374
1.96559
1.83504
1.71899
1.62852
1.55388
1.48905
1.43229
1.38213
1.33756
1.297
1.25867
1.22142
1.1853
1.15121
1.11886
1.08793
1.05818
1.02939
1.00136
0.973958
0.947065
0.920559
0.894333
0.868298
0.84239
0.81657
0.790818
0.765128
0.739501
0.713944
0.688464
0.663076
0.637785
0.612585
4.01548
2.24759
1.95563
1.82821
1.71406
1.62615
1.55254
1.48913
1.43394
1.38417
1.33638
1.28796
1.23981
1.19724
1.16889
1.14448
1.12065
1.09782
1.07579
1.0542
1.03349
1.01399
0.995109
0.976219
0.956742
0.936248
0.914444
0.891175
0.866412
0.840243
0.812789
0.78421
0.754676
0.724408
0.693587
0.662295
114.325
120.418
126.204
128.863
147.21
148.209
150.28
153.109
145.696
146.103
147.585
153.17
145.467
146.158
148.134
153.422
145.179
145.84
147.839
153.358
144.925
145.587
147.635
153.186
144.678
145.321
147.345
152.961
144.443
145.067
147.036
152.74
144.218
144.824
146.733
152.521
144.003
144.595
146.458
152.304
143.795
144.378
146.221
152.089
143.594
144.174
146.024
151.88
143.401
143.987
145.853
151.697
143.219
143.817
145.716
151.541
143.051
143.668
145.618
151.414
142.895
143.542
145.567
151.319
142.745
143.45
145.57
151.262
142.595
143.405
145.639
151.247
142.466
143.423
145.792
151.283
142.379
143.53
146.053
151.383
142.365
143.765
146.455
151.561
142.468
144.193
147.036
151.838
142.79
144.901
147.837
152.229
143.49
146.004
148.891
152.724
144.789
147.635
150.238
153.301
146.978
149.954
151.938
153.864
150.459
153.159
154.053
154.528
155.626
157.44
156.653
155.284
162.964
163.034
159.824
156.143
172.849
170.06
163.554
157.21
185.548
178.551
167.793
158.346
201.069
188.401
172.456
159.485
219.059
199.344
177.417
160.595
238.884
210.995
182.504
161.652
259.642
222.865
187.533
162.631
280.343
234.399
192.299
163.512
299.936
245.079
196.619
164.278
317.445
254.451
200.351
164.921
332.13
262.194
203.402
165.438
343.503
268.118
205.727
165.833
351.328
272.161
207.321
166.113
355.594
274.356
208.222
166.289
356.435
274.807
208.446
166.4
354.161
273.667
207.99
166.51
349.104
271.081
206.892
166.62
341.623
267.196
205.225
166.731
332.08
262.151
203.055
166.843
320.823
256.074
200.446
166.957
308.163
249.078
197.459
167.074
294.37
241.264
194.152
167.195
279.665
232.725
190.586
167.321
264.237
223.558
186.83
167.453
248.268
213.897
182.978
167.594
232.003
203.966
179.172
167.745
215.865
194.153
175.622
167.913
200.622
185.095
172.608
168.104
187.371
177.573
170.478
168.33
177.447
172.488
169.437
168.638
171.701
170.19
169.672
169.698
171.289
171.695
172.603
174.778
3.79168
2.20757
1.95162
1.82391
1.71171
1.62562
1.5532
1.49089
1.43483
1.38098
1.32919
1.2874
1.26951
1.28437
1.37169
1.58678
2.02272
2.8088
4.14037
6.25637
9.41496
13.8538
19.6747
26.5955
33.8359
41.2313
48.5979
55.8289
62.8741
69.7516
76.4681
83.0513
89.5311
95.9824
102.377
108.522
3.63836
2.18542
1.95109
1.82193
1.71164
1.62709
1.55568
1.49275
1.43306
1.37684
1.33755
1.33339
1.43361
1.7705
2.54038
4.21506
7.82612
14.9606
25.8238
39.6102
55.2914
71.4962
86.8672
100.38
111.675
121.155
128.684
134.156
138.311
141.331
143.548
145.09
146.055
146.502
146.566
146.769
3.53269
2.17374
1.95291
1.82219
1.71377
1.6304
1.55845
1.49119
1.42586
1.37781
1.37086
1.52307
2.04794
3.53777
7.8323
17.5291
33.4546
54.3697
76.8628
98.5191
117.383
132.223
142.843
149.719
153.619
155.296
155.4
154.562
153.336
151.724
149.76
147.873
146.461
145.756
145.544
145.523
3.45725
2.1685
1.95648
1.82455
1.71787
1.63474
1.55979
1.48657
1.42126
1.39626
1.47993
1.92173
4.17145
11.4641
26.879
50.441
78.5355
106.882
131.463
150.622
164.203
173.12
178.582
181.535
182.516
181.69
179.189
175.173
170
164.085
157.966
152.354
148.132
145.982
145.35
145.276
3.40182
2.16759
1.96156
1.82885
1.72353
1.63918
1.55941
1.48243
1.42909
1.44069
1.62047
3.86824
12.6147
31.5396
60.265
94.4087
127.612
155.542
176.702
191.901
202.492
209.461
213.16
213.676
211.27
206.55
200.031
192.149
183.33
174.024
164.782
156.354
149.773
146.156
145.179
145.007
3.36055
2.16983
1.96803
1.83491
1.73031
1.64308
1.55756
1.48141
1.45536
1.55479
2.54571
10.4931
30.0547
61.6082
100.455
139.037
171.68
196.863
215.609
229.168
237.963
242.06
241.887
238.39
232.354
224.357
214.884
204.343
193.121
181.626
170.352
159.992
151.579
146.471
145.003
144.773
3.3299
2.17452
1.97583
1.8425
1.73765
1.64614
1.55657
1.49216
1.49517
1.66373
6.18021
23.4434
54.6847
96.4833
140.495
179.215
209.955
233.549
251.024
262.403
267.737
267.929
264.331
257.808
249.122
238.808
227.26
214.81
201.788
188.577
175.651
163.662
153.616
146.989
144.853
144.552
3.30751
2.1812
1.98488
1.85138
1.74536
1.64909
1.55838
1.51124
1.57419
2.5287
13.7542
41.5649
83.136
131.454
176.934
214.527
244.221
267.017
282.701
291.079
293.131
290.36
283.936
274.907
264.029
251.796
238.526
224.469
209.902
195.184
180.787
167.339
155.796
147.693
144.725
144.345
3.29173
2.18956
1.99511
1.86131
1.75311
1.65212
1.56726
1.54442
1.65204
5.25892
25.2515
62.8108
112.229
163.846
209.19
246.167
275.793
298.002
312.004
318.153
317.723
312.185
302.989
291.394
278.26
264.097
249.16
233.599
217.601
201.481
185.707
170.912
158.008
148.514
144.611
144.149
3.28136
2.19938
2.00642
1.87208
1.76111
1.65736
1.58221
1.57799
1.72169
10.1521
39.275
85.1368
139.851
192.803
237.947
275.406
305.933
328.437
341.937
346.684
343.848
335.264
322.841
308.181
292.381
276.025
259.303
242.227
224.844
207.385
190.298
174.239
160.109
149.363
144.504
143.96
3.27549
2.21047
2.01872
1.88359
1.7698
1.66503
1.59948
1.63434
2.34542
17.2145
54.5351
106.989
164.995
218.494
264.202
303.523
336.436
360.86
375.015
378.603
373.073
360.812
344.347
325.825
306.711
287.722
268.978
250.302
231.539
212.783
194.442
177.191
161.955
150.135
144.394
143.774
3.2734
2.2227
2.03191
1.89579
1.77939
1.67575
1.62457
1.6805
3.87614
25.7839
69.9732
127.423
187.422
241.497
288.973
331.902
369.21
397.234
412.745
415.15
406.402
389.584
368.036
344.649
321.407
299.227
278.148
257.742
237.58
217.563
198.026
179.657
163.429
150.719
144.27
143.587
3.2745
2.23594
2.0459
1.90869
1.79016
1.68909
1.65209
1.72328
6.24159
34.948
84.8509
145.994
207.302
262.478
313.21
361.82
405.635
438.553
455.824
456.901
444.281
421.901
394.106
364.744
336.475
310.491
286.731
264.451
242.865
221.618
200.946
181.54
164.434
151.019
144.12
143.397
3.2783
2.25007
2.06063
1.92228
1.80197
1.70633
1.68034
1.76632
9.28738
44.1283
98.6984
162.552
224.924
282.015
337.676
394.116
446.248
484.95
504.237
503.739
486.549
457.59
422.383
385.932
351.744
321.361
294.6
270.318
247.291
224.85
203.107
182.756
164.893
150.964
143.933
143.202
3.28445
2.26502
2.07604
1.93653
1.81506
1.72613
1.70953
1.80951
12.8217
52.9303
111.255
177.112
240.574
300.519
362.795
428.993
490.767
535.806
557.206
554.816
532.404
495.955
452.286
407.744
366.855
331.581
301.58
275.219
250.758
227.167
204.423
183.227
164.748
150.532
143.685
143.006
3.29263
2.28068
2.09207
1.95151
1.82969
1.74553
1.73638
1.8512
16.6362
61.1056
122.428
189.808
254.539
318.26
388.639
466.046
538.233
589.832
613.248
608.613
580.447
535.794
482.841
429.43
381.273
340.8
307.454
279.02
253.167
228.485
204.819
182.894
163.971
149.704
143.374
142.808
3.30257
2.297
2.10868
1.96725
1.84555
1.76449
1.7736
2.0896
20.6037
68.5162
132.23
200.823
267.072
335.389
415.001
504.446
587.243
645.238
670.336
663.096
628.816
575.503
512.748
450.011
394.323
348.6
311.984
281.583
254.426
228.727
204.231
181.711
162.525
148.506
143.04
142.611
3.31406
2.31389
2.12581
1.9837
1.86242
1.78624
1.80708
2.46772
24.3771
75.107
140.732
210.347
278.37
351.941
441.505
543.185
636.196
699.956
726.114
715.913
675.398
613.248
540.515
468.375
405.265
354.544
314.938
282.783
254.452
227.833
202.61
179.636
160.416
147.041
142.738
142.416
3.3269
2.3313
2.14344
2.00082
1.88026
1.80941
1.83647
2.93012
27.8245
80.8759
148.034
218.552
288.575
367.864
467.696
581.249
683.495
751.851
778.122
764.639
718.061
647.166
564.609
483.396
413.377
358.234
316.119
282.52
253.184
225.754
199.91
176.657
157.689
145.518
142.502
142.227
3.34092
2.34918
2.16152
2.01855
1.89894
1.83312
1.86447
3.43112
30.896
85.8554
154.245
225.592
297.777
383.028
493.045
617.625
727.627
798.92
824.072
807.069
754.882
675.55
583.623
494.067
418.057
359.366
315.386
280.728
250.599
222.449
196.107
172.795
154.448
144.074
142.23
142.051
3.35596
2.36747
2.18002
2.03686
1.91836
1.857
1.89211
3.93451
33.576
90.094
159.477
231.595
306.022
397.252
517.02
651.436
767.356
839.539
862.259
841.583
784.335
696.996
596.408
499.618
418.892
357.758
312.698
277.435
246.669
217.887
191.204
168.117
150.887
142.876
141.941
141.929
3.37192
2.38614
2.19889
2.05569
1.93839
1.88096
1.91952
4.41289
35.8666
93.6459
163.831
236.667
313.329
410.344
539.118
681.784
801.419
872.862
891.896
867.415
805.41
710.495
602.181
499.606
415.707
353.426
308.159
272.666
241.382
212.059
185.241
162.766
147.344
142.084
141.72
141.844
3.38866
2.40514
2.21812
2.07499
1.95894
1.90495
1.94675
4.8473
37.7827
96.5686
167.397
240.893
319.698
422.103
558.86
708.335
831.05
898.265
911.883
884.582
817.607
715.484
600.607
493.961
408.59
346.604
301.923
266.477
234.736
204.98
178.319
156.996
144.475
141.772
141.554
141.795
3.4061
2.42445
2.23765
2.09472
1.97992
1.92897
1.97378
5.22556
39.3463
98.9195
170.258
244.346
325.12
432.342
575.901
730.646
853.55
910.385
919.544
893.461
820.842
711.908
591.812
482.833
397.985
337.677
294.204
258.928
226.738
196.713
170.632
151.253
142.453
141.454
141.474
141.934
3.42415
2.44402
2.25747
2.11483
2.00127
1.95301
2.00063
5.54086
40.5826
100.753
172.487
247.084
329.582
440.905
589.947
748.25
869.111
914.978
917.975
894.666
815.445
699.997
576.03
466.941
384.601
327.134
285.213
250.062
217.419
187.397
162.521
146.278
141.427
141.259
141.452
142.501
3.44274
2.46383
2.27756
2.13529
2.02294
1.97705
2.02729
5.79055
41.5183
102.12
174.145
249.161
333.077
447.671
600.761
760.902
878.396
916.433
916.846
889.135
801.517
680.087
554.184
447.319
369.31
315.473
275.117
239.905
206.86
177.298
154.551
142.877
141.189
141.197
141.756
143.867
3.46181
2.48387
2.29787
2.15606
2.04488
2.00111
2.05379
5.97509
42.18
103.066
175.288
250.619
335.604
452.559
608.19
768.479
882.296
917.283
915.032
876.685
779.337
653.165
527.529
425.24
353.024
303.108
263.999
228.486
195.241
166.87
147.6
141.12
141.015
141.266
143.036
146.634
3.48132
2.5041
2.3184
2.1771
2.06706
2.02518
2.08012
6.09735
42.5927
103.631
175.964
251.501
337.176
455.532
612.137
771.107
880.941
918.601
910.244
855.971
749.712
620.564
497.606
402.08
336.555
290.285
251.866
215.885
182.901
156.845
143.051
140.902
140.994
142.204
146.147
151.403
3.5012
2.52451
2.33913
2.19839
2.08945
2.04926
2.1063
6.16015
42.7824
103.855
176.218
251.847
337.813
456.584
612.779
768.927
873.982
912.908
896.736
826.64
713.915
583.867
466.113
379.144
320.47
277.059
238.696
202.301
170.412
148.335
140.801
140.786
141.429
145.189
152.075
158.973
3.52141
2.54509
2.36004
2.21991
2.11203
2.07336
2.13229
6.18382
42.7663
103.768
176.072
251.678
337.578
455.882
610.208
762.01
861.247
897.745
869.185
790.275
673.68
544.775
434.773
357.489
305.004
263.325
224.524
188.127
158.657
142.949
140.567
140.98
143.866
151.829
162.053
170.124
3.54191
2.56583
2.38111
2.24163
2.13478
2.09747
2.15802
6.18333
42.5575
103.398
175.555
251.024
336.538
453.554
604.627
750.676
843.832
866.56
835.008
750.8
630.391
505.061
405.182
337.747
290.056
248.931
209.538
174.01
148.899
140.42
140.593
142.271
149.941
163.383
177.137
185.483
3.56267
2.5867
2.40234
2.26354
2.15768
2.12159
2.18353
6.16289
42.1769
102.774
174.702
249.922
334.757
449.743
596.327
735.343
823.287
840.712
799.629
707.442
585.266
466.699
378.57
320.03
275.295
233.817
194.146
160.896
142.866
140.239
141.14
146.965
162.037
181.725
198.359
205.438
3.58368
2.6077
2.42369
2.28559
2.18069
2.14573
2.20883
6.1256
41.6463
101.923
173.544
248.41
332.306
444.615
585.67
716.578
798.103
810.094
758.569
661.624
540.538
431.443
355.551
303.985
260.351
218.132
179.005
150.071
140.032
140.331
143.563
157.335
181.477
207.597
225.869
229.756
3.60471
2.62901
2.44512
2.30779
2.20396
2.1699
2.23395
6.07435
40.9871
100.87
172.114
246.529
329.262
438.362
573.075
695.185
767.389
770.016
714.658
615.704
497.857
400.506
336.118
288.978
245.013
202.282
165.002
143.251
139.735
141.17
150.792
175.749
209.699
241.318
259.25
257.694
3.62576
2.65064
2.46663
2.33011
2.22735
2.1941
2.25893
6.01188
40.2205
99.6413
170.441
244.32
325.707
431.187
558.988
671.984
734.447
729.951
672.107
570.745
458.638
374.636
319.698
274.346
229.361
186.893
153.233
139.65
139.676
144.36
165.049
202.653
246.278
281.78
297.078
287.946
3.64681
2.67255
2.48822
2.35255
2.25085
2.21834
2.28379
5.94073
39.3663
98.2599
168.557
241.825
321.725
423.3
543.866
647.764
700.923
691.292
630.792
527.456
424.346
353.892
305.335
259.664
213.792
172.7
145.033
138.673
140.612
153.099
187.862
238.215
290.007
327.026
337.431
319.026
3.66789
2.6947
2.50988
2.37509
2.27442
2.24261
2.30855
5.86324
38.4435
96.7496
166.493
239.087
317.401
414.91
528.146
623.254
667.889
655.048
590.858
487.068
396.032
337.569
292.049
244.909
198.898
160.425
140.071
138.572
143.6
168.242
217.998
280.332
338.103
374.154
377.629
349.109
3.68899
2.71706
2.53161
2.39772
2.29808
2.26692
2.33324
5.78153
37.4698
95.1337
164.277
236.149
312.816
406.212
512.233
599.088
636.223
621.629
552.217
450.956
374.024
324.475
279.187
230.432
185.294
150.621
137.697
139.078
150.743
190.736
254.681
326.311
387.156
419.963
415.319
376.565
3.71011
2.7396
2.5534
2.42044
2.32182
2.29128
2.35789
5.69751
36.4619
93.4349
161.941
233.052
308.052
397.387
496.483
575.79
606.768
590.88
515.03
420.511
357.806
313.341
266.596
216.78
173.461
143.969
137.195
140.717
162.974
218.647
294.332
372.144
433.504
461.531
448.454
400.075
3.73125
2.76229
2.57525
2.44324
2.34562
2.31568
2.38252
5.61285
35.4349
91.6755
159.515
229.839
303.184
388.601
481.212
553.771
580.365
562.125
479.981
396.717
346.154
303.255
254.572
204.485
163.689
139.848
137.106
144.015
180.017
249.398
333.305
414.279
474.048
496.534
475.407
418.658
3.75242
2.7851
2.59716
2.4661
2.36949
2.34014
2.40715
5.52905
34.403
89.8774
157.028
226.554
298.287
380.008
466.705
533.352
557.744
534.358
448.396
379.764
337.564
293.9
243.634
193.927
156.013
137.453
137.054
149.908
200.526
279.839
368.088
449.775
505.955
523.157
495.309
431.777
3.77362
2.808
2.61912
2.48903
2.39342
2.36464
2.4318
5.44738
33.3788
88.062
154.51
223.24
293.435
371.749
453.21
514.793
539.311
506.691
422.091
368.892
330.799
285.51
234.296
185.311
150.294
136.252
137.219
158.742
221.297
306.413
396.037
476.547
525.801
535.23
506.493
439.234
3.79484
2.83098
2.64113
2.51201
2.4174
2.3892
2.45649
5.36891
32.3738
86.25
151.99
219.939
288.698
363.949
440.93
498.322
524.931
478.919
402.748
362.58
325.297
278.626
226.946
178.723
146.333
135.809
137.698
168.443
239.013
326.868
415.568
493.139
535.843
542.173
510.337
441.036
3.8161
2.85401
2.66319
2.53503
2.44144
2.41382
2.48124
5.29456
31.3978
84.4608
149.498
216.694
284.141
356.711
430.006
484.124
513.956
451.954
390.939
359.088
321.182
273.781
221.85
174.196
143.894
135.735
138.283
177.41
252.343
339.996
425.851
499.12
537.934
540.39
506.899
437.66
3.83738
2.87706
2.68528
2.55809
2.46551
2.43849
2.50606
5.22502
30.4595
82.7126
147.061
213.544
279.82
350.115
420.514
472.415
504.187
427.956
385.626
357.247
318.907
271.32
219.2
171.757
142.574
135.663
138.792
183.732
259.678
345.238
426.85
494.676
532.719
532.649
496.773
429.674
3.85869
2.90011
2.70742
2.58118
2.48964
2.46322
2.53098
5.16086
29.5658
81.0217
144.703
210.525
275.786
344.216
412.483
463.318
495.173
410.191
384.496
356.837
318.856
271.449
219.185
171.473
142.181
135.597
139.04
185.823
260.59
342.757
419.038
480.802
516.306
516.315
480.863
417.744
3.88003
2.92316
2.72958
2.6043
2.51379
2.48801
2.556
5.10248
28.7222
79.4024
142.446
207.668
272.076
339.052
405.912
456.732
489.121
400.734
385.148
358.241
321.225
274.367
222.037
173.514
142.688
135.537
138.825
183.096
255.231
333.211
403.891
460.232
492.414
492.731
460.339
402.577
3.90139
2.94617
2.75177
2.62743
2.53798
2.51285
2.58112
5.05011
27.9328
77.8664
140.309
205
268.723
334.645
400.783
452.648
478.231
398.085
387.065
361.692
326.06
280.206
228.013
178.255
144.365
135.483
137.544
176.463
244.377
317.715
382.741
433.814
463.326
464.508
436.377
384.873
3.92278
2.96913
2.77399
2.65059
2.56222
2.53774
2.60637
5.00391
27.2005
76.4235
138.308
202.542
265.752
331.006
397.092
450.783
460.944
399.691
390.618
367.096
333.325
288.999
237.295
186.123
148.121
135.433
135.673
166.662
228.834
297.407
357.258
403.506
430.872
433.42
410.052
365.28
3.94418
2.99203
2.79622
2.67375
2.58636
2.56268
2.63175
4.96389
26.5267
75.081
136.456
200.313
263.18
328.138
394.744
450.646
442.71
402.705
395.644
374.359
342.895
300.672
250.005
197.446
154.751
135.909
133.949
155.231
209.773
273.468
328.955
370.933
396.608
400.809
382.304
344.37
3.96561
3.01485
2.81847
2.69691
2.6104
2.58767
2.65725
4.93
25.912
73.8443
134.762
198.326
261.018
326.04
394.041
449.813
429.472
407.408
402.054
383.31
354.542
314.998
266.135
212.943
165.425
138.114
133.196
144.646
188.694
247.007
299.134
337.546
361.797
367.754
353.926
322.625
3.98706
3.03759
2.84074
2.72008
2.63441
2.6127
2.68289
4.90209
25.356
72.7164
133.234
196.591
259.274
324.694
395.044
447.808
421.785
413.721
409.707
393.735
367.963
331.612
285.373
232.674
181.434
144.483
133.123
136.634
167.596
219.125
268.716
304.564
327.435
335.117
325.549
300.43
4.00853
3.06024
2.86301
2.74324
2.65839
2.63776
2.70866
4.87998
24.8576
71.699
131.875
195.112
257.948
324.131
397.349
444.613
420.568
420.943
418.5
405.398
382.806
350.036
307.202
256.275
202.814
157.309
134.323
131.973
148.997
191.174
238.211
272.94
294.329
303.51
297.662
278.097
4.03001
3.08278
2.88528
2.7664
2.68236
2.66287
2.73457
4.86341
24.415
70.7917
130.687
193.892
257.036
324.412
400.54
441.646
422.255
428.845
428.286
418.086
398.744
369.752
330.911
283.087
229.689
178.462
141.966
130.83
136.147
165.136
207.927
243.186
263.376
273.316
270.689
255.922
4.0515
3.10521
2.90756
2.78956
2.70632
2.68801
2.76061
4.85211
24.0259
69.9929
129.669
192.929
256.529
325.574
404.26
439.132
425.131
437.51
438.918
431.625
415.514
390.323
355.763
312.017
260.721
206.661
159.344
133.207
129.649
143.896
178.62
214.968
235.73
245.073
245.098
234.316
4.07301
3.12754
2.92984
2.8127
2.73027
2.71318
2.78678
4.84576
23.6877
69.2998
128.818
192.217
256.415
327.591
408.163
437.244
430.247
446.739
450.3
445.877
432.925
411.419
381.128
341.964
294.478
241.187
188.252
146.243
128.547
130.922
152.418
187.176
211.905
220.269
221.552
214.074
4.09452
3.14975
2.95211
2.83584
2.75421
2.73838
2.81307
4.84404
23.3973
68.7085
128.13
191.751
256.687
330.535
412.335
436.296
436.921
456.437
462.324
460.73
450.848
432.849
406.614
372.05
329.181
278.894
224.514
173.566
137.715
126.393
133.247
159.76
189.679
201.041
201.192
196.482
4.11604
3.17187
2.97438
2.85897
2.77812
2.76362
2.83948
4.8466
23.1517
68.2145
127.599
191.518
257.356
334.33
415.751
436.907
444.662
466.558
474.888
476.069
469.172
454.505
432.033
401.77
363.701
317.993
265.755
210.741
161.494
131.704
125.204
136.288
165.033
186.587
186.039
183.019
4.13754
3.19385
2.99665
2.88208
2.80223
2.78889
2.866
4.85308
22.9472
67.8116
127.217
191.5
258.431
338.79
418.748
438.72
453.146
477.055
487.882
491.758
487.761
476.291
457.345
430.979
397.264
356.342
308.591
255.266
200.163
152.176
126.505
123.534
138.986
168.483
178.424
174.286
4.15933
3.21589
3.01892
2.90519
2.82634
2.81419
2.89272
4.86324
22.7817
67.497
126.98
191.692
259.94
343.716
421.588
441.708
462.168
487.879
501.173
507.634
506.439
498.03
482.449
459.742
429.956
393.245
349.968
300.786
247.099
192.513
145.517
121.647
120.517
141.385
172.379
171.89
4.17638
3.23466
3.03877
2.92579
2.84798
2.83678
2.91416
4.87388
22.6605
67.277
126.87
192.006
261.602
348.299
424.051
445.169
470.482
497.699
513.15
521.835
523.041
517.219
504.486
484.894
458.451
425.216
385.453
339.78
289.263
235.688
182.575
137.598
115.64
117.23
143.922
171.685
4.19325
3.25164
3.05623
2.9439
2.86759
2.85667
2.93511
4.88578
22.5754
67.1337
126.857
192.402
263.334
352.41
426.345
448.838
477.963
506.45
523.749
534.311
537.526
533.843
523.435
506.393
482.74
452.474
415.704
372.833
324.774
273.129
220.329
170.198
129.597
110.764
116.917
151.98
4.2099
3.26856
3.07368
2.962
2.8868
2.87657
2.9561
4.89921
22.5077
67.0314
126.913
192.899
265.292
356.501
428.78
452.992
485.539
515.266
534.365
546.742
551.89
550.241
541.995
527.301
506.219
478.752
444.923
404.941
359.418
309.592
257.477
206.03
159.417
123.478
105.515
102.252
102.156
101.636
101.662
101.854
110.191
103.751
101.379
100.81
128.166
110.88
102.59
100.631
150.757
122.546
105.383
100.532
173.855
136.359
109.857
100.454
195.415
150.154
115.143
100.39
214.786
163.162
120.604
100.332
231.835
174.905
125.901
100.28
246.745
185.29
130.841
100.232
259.772
194.386
135.348
100.186
271.179
202.328
139.41
100.143
281.196
209.263
143.047
100.101
290.026
215.333
146.295
100.06
297.835
220.66
149.192
100.02
304.76
225.348
151.779
99.9808
310.915
229.487
154.088
99.9424
316.395
233.146
156.151
99.9046
321.277
236.387
157.994
99.8673
325.625
239.258
159.639
99.8304
329.493
241.801
161.105
99.794
332.927
244.048
162.407
99.7578
335.964
246.027
163.559
99.722
338.631
247.757
164.57
99.6865
340.946
249.253
165.445
99.6514
342.918
250.523
166.188
99.6165
344.55
251.569
166.8
99.582
345.836
252.389
167.277
99.5478
346.766
252.979
167.617
99.5135
347.325
253.331
167.814
99.4782
347.495
253.433
167.862
99.4428
347.256
253.272
167.764
99.4063
346.585
252.829
167.534
99.3391
345.454
252.086
167.161
99.2403
343.829
251.02
166.631
99.106
341.67
249.608
165.935
98.9344
338.931
247.822
165.06
98.7223
335.563
245.63
163.99
98.4662
331.508
242.998
162.709
98.1621
326.703
239.889
161.2
97.8059
321.081
236.262
159.443
97.3929
314.574
232.078
157.419
96.918
307.117
227.3
155.106
96.3756
298.639
221.89
152.484
95.7581
289.07
215.809
149.533
95.0533
278.345
209.024
146.235
94.2592
266.412
201.512
142.575
93.3684
253.238
193.259
138.536
92.3725
238.802
184.24
134.09
91.2593
223.077
174.41
129.199
90.0127
206.047
163.723
123.827
88.6122
187.745
152.141
117.92
87.0195
168.265
139.628
111.39
85.1517
147.752
126.166
104.139
82.8772
126.43
111.775
96.0814
80.0952
104.635
96.5316
87.1918
76.9891
82.8353
80.551
77.4764
73.8001
61.6405
63.9495
66.7391
70.0251
42.3813
47.5183
54.8429
65.6253
26.1577
32.1153
41.4019
58.8939
13.3983
18.4467
26.8826
52.968
4.23113
3.28857
3.09353
2.98259
2.9076
2.89922
2.98247
4.91766
22.4512
66.9653
127.062
193.596
267.801
361.19
431.788
458.269
494.247
525.367
546.449
560.812
568.059
568.597
562.618
550.341
531.883
507.29
476.556
439.767
397.312
350.054
299.455
247.752
198.188
155.071
123.117
106.552
4.25261
3.31036
3.11577
3.00566
2.93151
2.92463
3.00954
4.93894
22.408
66.9422
127.312
194.514
270.891
366.44
435.34
464.671
504.02
536.687
559.919
576.446
585.975
588.845
585.216
575.365
559.49
537.725
510.098
476.629
437.522
393.325
345.091
294.479
243.859
196.372
155.757
126.064
4.27401
3.33204
3.138
3.02873
2.9556
2.95005
3.03657
4.96161
22.3823
66.9655
127.635
195.563
274.226
371.633
439.073
471.457
513.744
547.949
573.268
591.917
603.673
608.779
607.332
599.596
585.868
566.405
541.36
510.795
474.774
433.551
387.827
338.9
288.636
239.342
193.821
155.675
4.29539
3.35369
3.16023
3.05179
2.97973
2.97549
3.06363
4.98537
22.3706
67.0269
128.017
196.728
277.756
376.727
442.981
478.51
523.359
559.097
586.46
607.237
621.242
628.573
629.203
623.342
611.367
593.676
570.614
542.38
509.001
470.488
427.158
379.9
330.225
280.077
231.687
187.71
4.31676
3.37533
3.18246
3.07486
3.00387
3.00094
3.09071
5.00979
22.3686
67.1167
128.446
197.992
281.421
381.685
447.047
485.713
532.81
570.079
599.473
622.428
638.755
648.349
651.019
646.873
636.33
619.922
598.223
571.637
540.269
504.02
462.866
417.215
368.128
317.249
266.536
218.059
4.33812
3.39697
3.2047
3.09794
3.02802
3.0264
3.11779
5.03448
22.3721
67.2245
128.904
199.333
285.161
386.479
451.238
492.962
542.042
580.849
612.287
637.509
656.27
668.227
672.977
670.479
661.137
645.608
624.688
599.028
568.926
534.307
494.92
450.712
402.206
350.639
297.767
245.447
4.35949
3.41862
3.22693
3.12102
3.05217
3.05187
3.14488
5.059
22.3767
67.3398
129.377
200.726
288.914
391.084
455.511
500.157
551.004
591.361
624.884
652.49
673.838
688.312
695.249
694.412
686.132
671.165
650.502
625.077
595.465
561.74
523.562
480.51
432.541
380.367
325.468
269.684
4.38087
3.44028
3.24918
3.14411
3.07634
3.07734
3.17193
5.08295
22.3782
67.4517
129.849
202.143
292.62
395.479
459.813
507.211
559.649
601.577
637.242
667.371
691.493
708.688
717.981
718.881
711.598
696.947
676.093
650.277
620.408
586.812
549.198
506.897
459.354
406.678
349.949
290.996
4.40228
3.46195
3.27145
3.16722
3.10053
3.10281
3.19895