/*--------------------------------*- C++ -*----------------------------------*\
| =========                 |                                                 |
| \\      /  F ield         | OpenFOAM: The Open Source CFD Toolbox           |
|  \\    /   O peration     | Version:  v2012                                 |
|   \\  /    A nd           | Website:  www.openfoam.com                      |
|    \\/     M anipulation  |                                                 |
\*---------------------------------------------------------------------------*/
FoamFile
{
    version     2.0;
    format      ascii;
    class       volScalarField;
    location    "620";
    object      k;
}
// * * * * * * * * * * * * * * * * * * * * * * * * * * * * * * * * * * * * * //

dimensions      [0 2 -2 0 0 0 0];


internalField   nonuniform List<scalar> 
6108
(
0.0475377
0.0513678
0.0557117
0.0606718
0.0663785
0.0730005
0.0807594
0.0899524
0.100986
0.114432
0.131113
0.152257
0.179764
0.216707
0.26833
0.344154
0.462851
0.664622
1.04662
1.87984
0.117051
0.126701
0.137607
0.150008
0.164204
0.180575
0.199609
0.221947
0.24844
0.280244
0.318955
0.366841
0.427198
0.504963
0.607771
0.747835
0.945408
1.23516
1.67734
2.37196
0.155857
0.168685
0.183166
0.199604
0.218377
0.23996
0.264956
0.294141
0.328531
0.369469
0.418773
0.47894
0.553472
0.647391
0.768059
0.926517
1.13971
1.43416
1.85222
2.46295
0.178497
0.193169
0.209718
0.228481
0.249873
0.274412
0.302749
0.335708
0.374353
0.420069
0.474687
0.54067
0.621385
0.721531
0.847813
1.01004
1.22301
1.50986
1.90866
2.48686
0.189223
0.204759
0.222276
0.242125
0.264735
0.29064
0.320504
0.355167
0.395699
0.443478
0.500308
0.568578
0.651517
0.753574
0.881041
1.04311
1.25378
1.53551
1.92661
2.49728
0.189263
0.204789
0.222299
0.242141
0.264748
0.290649
0.320511
0.355172
0.395703
0.443481
0.500309
0.568579
0.651518
0.753575
0.881041
1.04311
1.25378
1.53551
1.92661
2.49728
0.178609
0.193253
0.20978
0.228527
0.249907
0.274437
0.302766
0.335721
0.374362
0.420076
0.474692
0.540674
0.621387
0.721533
0.847814
1.01004
1.22301
1.50986
1.90866
2.48686
0.156024
0.16881
0.183257
0.199669
0.218423
0.239993
0.26498
0.294159
0.328544
0.369479
0.41878
0.478945
0.553476
0.647394
0.76806
0.926518
1.13971
1.43416
1.85222
2.46295
0.117219
0.126836
0.137702
0.150077
0.164254
0.180611
0.199635
0.221966
0.248455
0.280254
0.318963
0.366846
0.427202
0.504966
0.607773
0.747836
0.945409
1.23516
1.67734
2.37196
0.0475958
0.0514093
0.0557418
0.0606938
0.0663947
0.0730123
0.0807681
0.0899588
0.100991
0.114435
0.131115
0.152259
0.179765
0.216708
0.268331
0.344155
0.462851
0.664622
1.04662
1.87984
0.0359394
0.0383893
0.041108
0.0441397
0.0876596
0.0938873
0.100787
0.108466
0.116738
0.125028
0.134214
0.144434
0.133722
0.143211
0.153726
0.165425
0.141806
0.151853
0.162988
0.175379
0.141908
0.151939
0.163057
0.175432
0.134009
0.143457
0.153923
0.165576
0.117147
0.125401
0.134511
0.144659
0.0885762
0.0944634
0.101165
0.10873
0.0424871
0.04211
0.0427845
0.0445129
0.000964036
0.000854793
0.000877796
0.00113883
0.0021462
0.00312775
0.00405963
0.0049381
0.00574806
0.00652521
0.00728333
0.00803023
0.00877115
0.00951
0.01025
0.0109939
0.0117445
0.0125045
0.0132769
0.014065
0.0148723
0.015703
0.0165616
0.0174531
0.0183835
0.019359
0.0203869
0.0214753
0.0226332
0.0238706
0.0251991
0.0266313
0.0281818
0.0298673
0.0317066
0.0337221
0.00170422
0.00213099
0.00362458
0.00543903
0.00686848
0.00810106
0.00942415
0.0109866
0.0126507
0.0142897
0.0159281
0.0175759
0.0192398
0.0209264
0.0226418
0.0243921
0.0261834
0.0280216
0.0299127
0.0318632
0.0338799
0.035971
0.0381457
0.0404149
0.0427907
0.0452875
0.0479217
0.0507121
0.0536803
0.0568512
0.0602528
0.0639174
0.0678811
0.0721855
0.0768784
0.0820151
0.00260823
0.00502515
0.00679754
0.00854971
0.0100849
0.0117959
0.0139208
0.0163253
0.0187304
0.0210559
0.0233167
0.0255252
0.0277005
0.0298626
0.0320308
0.0342235
0.0364574
0.0387475
0.0411076
0.0435508
0.0460897
0.048737
0.0515065
0.0544131
0.0574736
0.0607069
0.0641349
0.0677822
0.0716771
0.0758517
0.0803424
0.0851909
0.0904447
0.0961586
0.102395
0.109227
0.00388622
0.00759036
0.00945051
0.0111652
0.0130265
0.0153912
0.0182337
0.0212242
0.0241045
0.0268254
0.0293971
0.0318463
0.0342097
0.0365247
0.0388262
0.0411455
0.0435096
0.0459417
0.0484617
0.0510871
0.0538339
0.0567177
0.0597545
0.0629614
0.0663576
0.0699647
0.0738071
0.0779126
0.082313
0.0870439
0.0921464
0.0976671
0.103659
0.110184
0.117313
0.125127
0.00529764
0.00999841
0.0118269
0.013662
0.0159713
0.0189299
0.0222699
0.0256019
0.0287231
0.0316011
0.034254
0.0367254
0.0390684
0.0413357
0.0435752
0.0458284
0.0481301
0.0505091
0.0529891
0.0555901
0.0583299
0.0612256
0.0642943
0.0675548
0.0710278
0.0747366
0.0787075
0.0829704
0.0875588
0.0925106
0.0978684
0.103681
0.110003
0.116897
0.124437
0.132707
0.00644512
0.0121115
0.0140698
0.0161576
0.0189209
0.0223209
0.0259402
0.0294124
0.0325834
0.0354346
0.0379979
0.040332
0.0425036
0.0445772
0.0466104
0.0486521
0.050742
0.0529119
0.0551867
0.0575869
0.0601301
0.0628333
0.0657143
0.0687926
0.0720905
0.0756334
0.0794501
0.0835729
0.0880376
0.092884
0.0981559
0.103902
0.110176
0.11704
0.124561
0.132821
0.00735118
0.0140065
0.0162234
0.0186409
0.0217878
0.025461
0.0291791
0.0326303
0.0356991
0.0383816
0.0407242
0.0427986
0.0446827
0.0464504
0.0481669
0.0498857
0.0516486
0.0534869
0.055423
0.0574735
0.0596518
0.0619712
0.0644468
0.067097
0.0699448
0.073018
0.0763493
0.0799762
0.0839405
0.0882882
0.0930683
0.0983328
0.104137
0.110541
0.117612
0.125427
0.00814022
0.0156924
0.0182799
0.0210498
0.0244821
0.0282746
0.0319509
0.0352529
0.0380997
0.0405031
0.0425242
0.044247
0.0457605
0.0471486
0.0484835
0.0498224
0.0512069
0.0526632
0.0542051
0.0558379
0.0575619
0.059377
0.0612861
0.0632979
0.0654283
0.0677022
0.0701534
0.0728246
0.0757676
0.0790474
0.0827335
0.0868965
0.0916035
0.096922
0.102918
0.109655
0.00882071
0.0171997
0.0202196
0.0233206
0.0269333
0.0307218
0.0342442
0.0372967
0.0398268
0.0418675
0.0434954
0.0448099
0.0459154
0.04691
0.0478769
0.0488796
0.0499587
0.0511327
0.0524005
0.0537461
0.0551446
0.0565676
0.0579881
0.0593842
0.0607417
0.062056
0.063334
0.0645954
0.0658752
0.0672263
0.0687538
0.0706064
0.0729047
0.0757781
0.0793065
0.0835266
0.00940066
0.0185592
0.0220233
0.0254043
0.0290995
0.0327835
0.0360666
0.038789
0.0409317
0.0425519
0.0437477
0.044641
0.04536
0.0460248
0.046736
0.0475658
0.048554
0.049707
0.0510034
0.0524008
0.0538448
0.0552761
0.0566353
0.0578654
0.0589111
0.0597159
0.0602188
0.0603506
0.0600311
0.0591702
0.0576775
0.0554576
0.0523969
0.0491533
0.0462315
0.0439268
0.0329069
0.023883
0.0156439
0.00839815
0.0100677
0.00593506
0.00336494
0.00139534
0.00503229
0.00364003
0.00249338
0.00103854
0.00425151
0.00340348
0.00243214
0.000967759
0.00422023
0.0034716
0.00249532
0.000970792
0.00435567
0.00361021
0.00261227
0.00100671
0.0045464
0.00378669
0.00275157
0.00106673
0.00476665
0.00398876
0.00291335
0.0011361
0.00500665
0.00420975
0.00309327
0.00121354
0.00526157
0.00444575
0.00328772
0.00129945
0.00552866
0.00469445
0.00349436
0.00139574
0.00580611
0.00495444
0.00371412
0.00150409
0.0060947
0.00522864
0.00394713
0.00161936
0.00639423
0.00551423
0.00419069
0.00174097
0.00670189
0.00580942
0.00444357
0.00186801
0.00701527
0.00611261
0.0047047
0.00199994
0.00733173
0.00642184
0.00497271
0.00213612
0.00764798
0.00673451
0.00524566
0.0022756
0.00795996
0.00704712
0.00552076
0.00241694
0.00826269
0.00735511
0.00579417
0.00255799
0.00855031
0.00765291
0.00606085
0.0026953
0.00881595
0.0079341
0.00631501
0.00282301
0.00905139
0.00819129
0.0065503
0.00293272
0.00924711
0.00841503
0.00675625
0.00302468
0.00938896
0.00859333
0.00692793
0.00310996
0.00947402
0.00872613
0.00706683
0.0031922
0.00949453
0.00880268
0.00716106
0.0032509
0.00944231
0.00881048
0.00719745
0.00329305
0.00931677
0.00874266
0.00718229
0.00331361
0.00911905
0.00860651
0.00711233
0.00330235
0.0088625
0.00841063
0.0069931
0.00326346
0.00856045
0.00816391
0.00682994
0.00320176
0.00822091
0.00787593
0.0066268
0.00311941
0.00786263
0.00755767
0.00638875
0.00301817
0.00749967
0.00722393
0.00612831
0.00290195
0.00713764
0.00688527
0.00585488
0.00277439
0.00679145
0.00655393
0.00557775
0.00263925
0.00647013
0.00623822
0.00530447
0.0025001
0.00617758
0.00594294
0.00504031
0.00235993
0.00591346
0.00566941
0.004788
0.0022208
0.00567444
0.00541633
0.00454823
0.00208445
0.00545514
0.00518034
0.00432017
0.00195196
0.00524777
0.00495552
0.0040999
0.00182675
0.00504429
0.00473543
0.0038831
0.00171342
0.004841
0.00451729
0.00366825
0.00160852
0.00463422
0.0042982
0.00345454
0.00150972
0.00442028
0.00407511
0.00324049
0.00141539
0.00419551
0.00384492
0.00302463
0.00132428
0.00395625
0.00360453
0.00280547
0.0012354
0.00369881
0.00335088
0.00258159
0.00114793
0.00341972
0.00308119
0.00235192
0.00106112
0.00311622
0.00279352
0.00211618
0.000974287
0.00278742
0.00248793
0.00187554
0.000886765
0.0024361
0.00216795
0.00163337
0.000797896
0.00207083
0.00184227
0.00139552
0.000706914
0.00170764
0.00152503
0.00116959
0.000612713
0.00136906
0.00123457
0.000964241
0.000513576
0.00107963
0.000991619
0.000789941
0.000405791
0.00084277
0.000791578
0.000630691
0.000286002
0.000478429
0.000437794
0.000344108
0.00013894
0.00992598
0.0198405
0.0237476
0.0273459
0.0310369
0.0345245
0.0374852
0.0398026
0.0414912
0.0426413
0.043384
0.043873
0.044269
0.0447194
0.0453405
0.0462041
0.0473332
0.0487049
0.050262
0.0519278
0.0536203
0.055263
0.0567915
0.0581545
0.0593119
0.0602314
0.0608843
0.0612408
0.061252
0.0608228
0.0598957
0.0583685
0.0560771
0.0527878
0.0480748
0.0416052
0.0103795
0.0209571
0.0252639
0.0290042
0.0326118
0.0358387
0.0384257
0.0402988
0.0415103
0.0421893
0.0425086
0.0426617
0.0428409
0.0432088
0.0438729
0.0448699
0.046167
0.0476766
0.0492798
0.050851
0.0522766
0.053465
0.0543479
0.0548749
0.0550086
0.0547116
0.0539357
0.0526321
0.0506963
0.0479271
0.0444132
0.0401413
0.0351028
0.0293906
0.0232475
0.0161656
0.0107707
0.0218982
0.0265555
0.0303635
0.0338194
0.0367397
0.0389199
0.0403313
0.0410689
0.0413066
0.0412606
0.0411613
0.0412156
0.0415685
0.0422735
0.0432863
0.0444832
0.0456957
0.046749
0.0474918
0.0478119
0.0476388
0.0469364
0.0456836
0.0438691
0.0414838
0.0384481
0.0349669
0.0312474
0.0275667
0.0238004
0.0199763
0.0162011
0.0124987
0.00937337
0.00685165
0.0110903
0.0226522
0.0276151
0.0314154
0.0346774
0.0372598
0.0390171
0.0399685
0.0402567
0.0401031
0.0397634
0.039486
0.0394605
0.0397701
0.0403724
0.0411182
0.0417975
0.042195
0.0421343
0.0415018
0.0402527
0.0383903
0.0359541
0.0330022
0.0295893
0.0260629
0.0228572
0.0199045
0.0171654
0.0146843
0.0124349
0.0104113
0.00871289
0.00728867
0.00609959
0.00510547
0.0113453
0.0232357
0.0284329
0.0321747
0.0352121
0.0374396
0.0387746
0.0392868
0.0391693
0.0386891
0.0381285
0.0377253
0.0376114
0.0377726
0.038056
0.0382252
0.0380341
0.0372896
0.0358902
0.0338276
0.0311721
0.0280486
0.0246223
0.021124
0.018185
0.0157752
0.0137866
0.0121296
0.0107351
0.00955415
0.00853928
0.00765787
0.0068855
0.00618775
0.00552628
0.00487948
0.01154
0.0236547
0.0290093
0.0326662
0.035457
0.0373271
0.0382566
0.0383675
0.0379043
0.0371711
0.0364551
0.0359515
0.0357016
0.03558
0.0353442
0.0347238
0.0335084
0.0316044
0.0290429
0.0259617
0.0225782
0.0191754
0.0160984
0.0138745
0.0122296
0.0109992
0.0100502
0.0092872
0.00864558
0.00807754
0.00755356
0.00705121
0.00655539
0.00605476
0.0055361
0.00497855
0.0116785
0.0239235
0.0293716
0.0329179
0.0354516
0.0369752
0.0375305
0.0372934
0.0365559
0.0356452
0.034828
0.0342274
0.0337784
0.0332576
0.0323796
0.0309084
0.0287408
0.0259343
0.0226802
0.0192825
0.016104
0.0134838
0.0117543
0.01062
0.00984434
0.00928194
0.00883909
0.00845848
0.00810414
0.00775252
0.00739334
0.00701749
0.00661594
0.00617999
0.00570143
0.00516583
0.0117653
0.0240574
0.0295455
0.0329617
0.0352385
0.0364384
0.0366634
0.0361427
0.0352081
0.034192
0.0333151
0.0326084
0.0319035
0.0309141
0.0293692
0.0271309
0.0242532
0.020961
0.0176117
0.0146148
0.0122955
0.0108256
0.00995422
0.00941574
0.00905086
0.00877331
0.00853168
0.00829918
0.00805686
0.00779252
0.00749786
0.00716835
0.00679985
0.00638713
0.00592244
0.00539156
0.011805
0.0240727
0.0295567
0.032831
0.0348613
0.0357701
0.0357181
0.0349846
0.0339306
0.0328736
0.0319673
0.0311423
0.0301452
0.0286713
0.02652
0.0236991
0.0204346
0.0171092
0.0141698
0.0119545
0.010544
0.00976541
0.00932595
0.00905622
0.00887041
0.00871615
0.0085635
0.00839432
0.00819749
0.00796648
0.00769733
0.00738732
0.00703339
0.00663075
0.00617123
0.00563968
0.0118026
0.0239858
0.0294311
0.0325591
0.0343612
0.035019
0.0347493
0.033876
0.0327759
0.0317332
0.0308192
0.0298671
0.0285658
0.0266372
0.0239965
0.0208201
0.0174881
0.0144768
0.0121723
0.0106859
0.00986424
0.00943
0.0091969
0.00905856
0.00895647
0.00885733
0.00874131
0.00859667
0.00841693
0.00819857
0.00793957
0.00763812
0.00729128
0.00689387
0.00643667
0.00590307
0.0117631
0.0238126
0.0291934
0.0321774
0.0337761
0.0342277
0.0338018
0.0328595
0.0317795
0.0307961
0.0298905
0.0288088
0.0272129
0.0248903
0.021902
0.0185863
0.0154292
0.0128921
0.011183
0.0101985
0.00969107
0.00943846
0.00931144
0.00923618
0.00917234
0.00909584
0.00899231
0.00885396
0.00867714
0.00846049
0.00820344
0.0079049
0.00756183
0.00716812
0.00671304
0.00617794
0.0116913
0.0235682
0.0288666
0.0317143
0.0331384
0.0334309
0.0329095
0.0319638
0.0309606
0.0300718
0.0291864
0.0279776
0.0261114
0.0234706
0.0202728
0.0169875
0.0141349
0.012067
0.0108009
0.0101169
0.00978345
0.00962891
0.00955609
0.00951144
0.00946332
0.00939231
0.00928765
0.00914431
0.00896104
0.00873861
0.00847805
0.00817906
0.00783834
0.0074485
0.00699679
0.0064618
0.0115919
0.0232666
0.0284714
0.0311947
0.0324753
0.0326556
0.0320957
0.0312045
0.0303244
0.0295557
0.0286957
0.027363
0.0252567
0.0223775
0.0190892
0.0159438
0.0134251
0.0117384
0.0107644
0.0102629
0.0100288
0.00992742
0.00988301
0.00985161
0.00980568
0.00972906
0.00961353
0.00945655
0.00925936
0.00902513
0.00875682
0.00845506
0.00811627
0.00773139
0.00728515
0.00675264
0.0114695
0.0229201
0.0280259
0.0306392
0.0318082
0.031921
0.0313744
0.0305868
0.0298652
0.0292304
0.0283907
0.0269161
0.0246033
0.0215744
0.018297
0.0153457
0.0131309
0.0117256
0.0109371
0.0105469
0.0103725
0.0103013
0.0102707
0.0102411
0.0101877
0.0100968
0.00996226
0.00978411
0.00956635
0.00931495
0.00903515
0.00872882
0.008392
0.00801358
0.00757682
0.00705241
0.0113281
0.0225398
0.0275454
0.0300649
0.0311531
0.0312398
0.0307516
0.0301072
0.0295677
0.0290649
0.0281991
0.0265859
0.024099
0.0210076
0.0178217
0.0150861
0.0131242
0.0119162
0.0112518
0.0109295
0.0107902
0.0107356
0.0107083
0.0106716
0.0106029
0.0104899
0.0103289
0.0101226
0.00987793
0.00960421
0.00930937
0.00899681
0.0086622
0.00829505
0.00787159
0.00735771
0.0111716
0.0221349
0.0270425
0.0294849
0.0305217
0.0306193
0.0302277
0.0297563
0.0294087
0.0290044
0.0281004
0.0263641
0.0237465
0.0206299
0.0175871
0.0150748
0.0133188
0.0122484
0.0116678
0.0113897
0.0112708
0.0112221
0.0111896
0.0111384
0.011047
0.0109047
0.0107099
0.0104684
0.0101906
0.00988948
0.00957607
0.00925632
0.00892713
0.00857251
0.00816508
0.00766531
0.0110032
0.0217134
0.0265275
0.0289093
0.0299216
0.0300625
0.0297982
0.0295193
0.0293608
0.0290184
0.0280825
0.0262435
0.0235336
0.020427
0.0175412
0.0152422
0.0136577
0.0126893
0.0121655
0.0119161
0.0118071
0.0117562
0.0117113
0.0116384
0.0115169
0.0113378
0.0111019
0.0108182
0.0105009
0.0101673
0.00983367
0.00950682
0.00918192
0.00884119
0.00845307
0.00797174
0.0108259
0.0212818
0.0260084
0.0283455
0.0293573
0.0295689
0.029455
0.0293776
0.029385
0.0290965
0.0281364
0.0262162
0.0234471
0.0203817
0.0176414
0.0155384
0.0141001
0.0132172
0.0127343
0.0125022
0.0123952
0.012335
0.0122707
0.0121688
0.0120096
0.0117858
0.0115011
0.0111681
0.0108049
0.010437
0.0100802
0.00974308
0.00942156
0.00909622
0.00873101
0.00827301
0.0106422
0.0208452
0.0254914
0.0277985
0.028831
0.0291358
0.0291881
0.0293119
0.0294553
0.029228
0.0282538
0.0262735
0.0234739
0.0204703
0.0178689
0.0159383
0.0146238
0.0138136
0.0133647
0.0131433
0.013032
0.012956
0.0128652
0.0127265
0.0125215
0.0122447
0.0119031
0.0115136
0.0111027
0.0106948
0.0103101
0.00995977
0.00964081
0.00933238
0.00899384
0.00856449
0.0104544
0.0204079
0.024981
0.0272717
0.0283429
0.0287585
0.0289866
0.0293059
0.0295658
0.0294045
0.0284268
0.0264065
0.0236021
0.0206749
0.0182069
0.0164228
0.0152169
0.0144704
0.0140515
0.0138361
0.013715
0.0136167
0.0134917
0.013308
0.0130481
0.0127094
0.0123039
0.0118544
0.0113885
0.0109347
0.0105176
0.0101512
0.00983408
0.00954404
0.00923595
0.00884079
0.0102642
0.0199732
0.0244805
0.0267668
0.0278919
0.0284313
0.0288393
0.0293444
0.0297096
0.0296188
0.0286481
0.0266073
0.0238215
0.0209818
0.0186418
0.0169782
0.015873
0.0151846
0.014792
0.0145777
0.0144412
0.0143135
0.0141463
0.0139082
0.0135838
0.0131765
0.0127012
0.0121834
0.0116551
0.0111497
0.0106961
0.0103114
0.00999538
0.00972517
0.00945122
0.00909582
0.0100733
0.0195435
0.0239923
0.0262847
0.0274759
0.0281476
0.0287335
0.0294041
0.0298801
0.029864
0.028911
0.026869
0.0241231
0.0213797
0.019161
0.0176024
0.0165864
0.0159519
0.0155826
0.0153646
0.0152068
0.0150422
0.0148236
0.014521
0.0141256
0.0136414
0.0130871
0.0124925
0.0118946
0.0113323
0.0108384
0.0104334
0.0101184
0.00986949
0.0096331
0.00932277
0.00988281
0.0191207
0.0235179
0.0258254
0.0270925
0.0279013
0.0286595
0.0294795
0.0300713
0.0301345
0.02921
0.0271858
0.0244993
0.0218591
0.0197547
0.0182938
0.0173558
0.0167689
0.0164179
0.0161923
0.0160068
0.0157968
0.0155172
0.0151433
0.0146667
0.0140955
0.0134524
0.0127724
0.0120981
0.0114737
0.0109368
0.0105103
0.0101963
0.00997024
0.00977434
0.00951373
0.00969387
0.0187064
0.0230581
0.0253884
0.0267387
0.0276864
0.0286097
0.0295672
0.0302783
0.0304254
0.0295405
0.0275525
0.0249434
0.0224124
0.0204152
0.0190478
0.0181804
0.0176333
0.0172951
0.0170563
0.0168354
0.0165716
0.016223
0.0157668
0.0151981
0.0145289
0.0137869
0.0130127
0.0122553
0.0115646
0.0109824
0.0105339
0.0102216
0.0100194
0.00986594
0.00965937
0.00950726
0.0183014
0.0226134
0.024973
0.0264115
0.0274978
0.0285781
0.0296645
0.0304969
0.0307324
0.0298983
0.0279645
0.0254495
0.0230343
0.0211416
0.0198602
0.0190566
0.0185421
0.0182104
0.0179508
0.0176872
0.0173607
0.0169322
0.0163821
0.0157093
0.0149305
0.0140791
0.013202
0.0123552
0.0115945
0.0109658
0.0104956
0.0101853
0.0100065
0.00989427
0.00974492
0.00932364
0.0179064
0.022184
0.0245779
0.026108
0.0273306
0.02856
0.0297688
0.0307237
0.0310516
0.03028
0.0284177
0.0260108
0.0237172
0.0219322
0.0207309
0.0199818
0.0194918
0.0191584
0.0188712
0.0185554
0.0181554
0.017635
0.0169782
0.0161885
0.0152879
0.0143162
0.0133278
0.0123861
0.0115532
0.010878
0.0103869
0.0100787
0.00991917
0.00984832
0.00976388
0.00914345
0.0175221
0.0217696
0.0242019
0.0258255
0.0271809
0.0285515
0.0298779
0.0309557
0.0313801
0.0306826
0.028908
0.0266211
0.0244569
0.0227806
0.0216545
0.0209514
0.0204777
0.0201355
0.0198104
0.0194313
0.0189457
0.0183202
0.0175431
0.0166228
0.0155876
0.0144847
0.0133772
0.0123364
0.0114307
0.010711
0.0102015
0.00989631
0.00975343
0.00972653
0.00970954
0.00896698
0.0171483
0.0213701
0.0238438
0.0255615
0.0270454
0.0285498
0.0299899
0.0311906
0.0317155
0.0311035
0.0294321
0.027277
0.0252483
0.0236814
0.0226255
0.021961
0.0214967
0.0211343
0.0207596
0.0203049
0.0197202
0.0189755
0.0180635
0.0169982
0.0158152
0.0145707
0.0133374
0.0121955
0.0112192
0.0104597
0.00993715
0.00963513
0.00951332
0.00953323
0.00958324
0.00879469
0.016785
0.0209849
0.0235024
0.0253138
0.0269214
0.0285526
0.0301034
0.0314263
0.0320555
0.0315402
0.029987
0.0279751
0.0260873
0.0246294
0.0236411
0.0230064
0.0225415
0.0221466
0.0217094
0.0211653
0.0204671
0.0195879
0.0185254
0.0173001
0.0159562
0.0145604
0.0131966
0.0119548
0.0109139
0.0101231
0.00959617
0.00930245
0.00920837
0.009277
0.00939078
0.00862684
0.0164324
0.0206134
0.0231767
0.0250807
0.026807
0.0285594
0.0302175
0.0316604
0.0323954
0.0319878
0.0305689
0.0287124
0.0269715
0.0256244
0.0246972
0.0240807
0.0236048
0.0231632
0.0226488
0.0220005
0.0211731
0.0201433
0.0189141
0.0175136
0.0159962
0.0144411
0.0129454
0.0116093
0.0105148
0.00970615
0.00918687
0.0089107
0.0088508
0.00896852
0.00914002
0.00846348
0.0160905
0.0202553
0.0228658
0.0248618
0.0267022
0.0285677
0.0303302
0.0318907
0.0327345
0.0324454
0.0311747
0.0294851
0.0278968
0.0266584
0.0257847
0.0251766
0.0246802
0.0241732
0.0235661
0.0227977
0.0218249
0.0206276
0.019215
0.0176242
0.0159217
0.0142019
0.0125775
0.011159
0.0100283
0.00921991
0.00872322
0.0084751
0.00845481
0.00862008
0.00884086
0.00830466
0.0157592
0.0199108
0.02257
0.0246549
0.0266039
0.0285764
0.030441
0.0321169
0.033073
0.0329125
0.0318028
0.0302893
0.0288565
0.0277226
0.0268937
0.0262812
0.0257462
0.0251626
0.0244479
0.0235435
0.0224083
0.0210262
0.0194135
0.0176179
0.015721
0.0138354
0.0120918
0.0106104
0.00946747
0.00868208
0.00822214
0.00801258
0.00803571
0.0082443
0.00850074
0.00815044
0.0154399
0.0195794
0.022287
0.0244585
0.0265105
0.0285838
0.0305496
0.0323389
0.033411
0.033389
0.0324511
0.0311207
0.0298436
0.0288083
0.0280139
0.0273836
0.0267937
0.0261189
0.0252813
0.0242244
0.0229096
0.0213253
0.0194961
0.0174828
0.0153851
0.0133383
0.0114936
0.00997758
0.00885357
0.00811538
0.00770429
0.00754154
0.00760913
0.00785371
0.00812435
0.00800247
0.0151311
0.0192599
0.0220161
0.0242714
0.0264212
0.0285898
0.0306557
0.0325569
0.0337491
0.0338745
0.0331175
0.0319748
0.0308513
0.0299064
0.0291346
0.028472
0.0278113
0.0270297
0.0260531
0.024827
0.0233153
0.0215116
0.0194506
0.017209
0.0149093
0.0127139
0.0107959
0.00928321
0.00821765
0.00754585
0.00719178
0.00707942
0.00718936
0.0074627
0.00774706
0.0078603
0.0148323
0.0189521
0.0217564
0.024093
0.0263353
0.0285946
0.0307593
0.0327713
0.0340876
0.0343686
0.0337999
0.0328469
0.0318719
0.031007
0.0302445
0.0295344
0.0287864
0.0278822
0.0267504
0.0253386
0.0236129
0.0215733
0.0192671
0.0167906
0.0142941
0.0119726
0.0100204
0.0085584
0.0075732
0.0069918
0.00670077
0.00663952
0.00678715
0.00707912
0.00737215
0.00772353
0.0145433
0.0186555
0.0215075
0.0239223
0.0262527
0.0285986
0.0308604
0.0329827
0.0344272
0.0348709
0.0344959
0.0337319
0.0328976
0.0320998
0.0313317
0.0305577
0.029706
0.0286633
0.0273606
0.0257468
0.0237908
0.0215005
0.0189387
0.016226
0.013547
0.0111338
0.00919574
0.00782298
0.00695891
0.00647529
0.00624431
0.00623093
0.00641002
0.006704
0.00700723
0.00759178
0.0142641
0.0183698
0.0212688
0.0237588
0.0261729
0.0286022
0.0309596
0.0331917
0.0347684
0.035381
0.0352028
0.0346244
0.0339201
0.0331742
0.0323839
0.0315293
0.0305568
0.0293606
0.0278719
0.0260407
0.0238393
0.0212858
0.0184628
0.0155204
0.0126848
0.0102271
0.00836337
0.00712936
0.00639844
0.0060011
0.0058264
0.00585817
0.00606681
0.00637095
0.00666978
0.00746474
0.0139943
0.0180946
0.0210397
0.0236021
0.0260961
0.0286058
0.0310571
0.0333992
0.0351118
0.0358982
0.035918
0.0355187
0.0349309
0.0342199
0.0333898
0.0324373
0.0313265
0.0299622
0.0282732
0.0262103
0.0237504
0.0209253
0.0178422
0.0146867
0.0117339
0.00929208
0.00756443
0.00650077
0.00590114
0.00557269
0.00544967
0.00552461
0.00576117
0.00607387
0.00635965
0.00734214
0.0137338
0.0178296
0.0208199
0.0234519
0.0260223
0.0286097
0.0311537
0.0336061
0.0354579
0.0364218
0.0366383
0.0364092
0.035922
0.035227
0.0343391
0.0332724
0.0320047
0.0304572
0.0285548
0.0262473
0.0235186
0.0204194
0.0170871
0.013748
0.0107324
0.00837809
0.00683879
0.00595621
0.00546747
0.00519237
0.00511616
0.00523293
0.00549469
0.00581225
0.00608199
0.00722377
0.0134823
0.0175746
0.020609
0.0233078
0.0259514
0.0286145
0.0312499
0.0338131
0.0358073
0.0369509
0.0373608
0.0372899
0.0368849
0.0361863
0.0352229
0.0340269
0.0325855
0.030838
0.0287084
0.0261446
0.0231409
0.0197742
0.0162168
0.0127387
0.00972812
0.00753238
0.00621735
0.00550345
0.00509107
0.00485856
0.00482641
0.00498293
0.00526426
0.00558214
0.00583638
0.00710941
0.0132395
0.0173291
0.0204066
0.0231697
0.0258837
0.0286206
0.0313464
0.0340213
0.0361605
0.0374846
0.0380817
0.0381544
0.0378111
0.0370878
0.0360313
0.0346916
0.0330645
0.0310979
0.0287242
0.0258952
0.0226169
0.0190024
0.0152614
0.0117051
0.00877699
0.00679886
0.00571986
0.00514069
0.00477195
0.00457015
0.0045786
0.00477055
0.00506506
0.00538125
0.00561846
0.0069989
0.0130054
0.017093
0.0202126
0.0230375
0.0258193
0.0286285
0.0314441
0.0342315
0.0365177
0.0380214
0.0387972
0.0389954
0.0386905
0.0379199
0.0367517
0.0352537
0.0334285
0.0312319
0.0286004
0.0254917
0.0219464
0.0181245
0.0142628
0.0107025
0.00793638
0.00621212
0.00535174
0.00485889
0.00450389
0.00432219
0.00436611
0.004587
0.00489435
0.00520384
0.00542186
0.00689207
0.0127795
0.016866
0.0200265
0.0229111
0.0257585
0.0286386
0.0315436
0.0344444
0.0368789
0.0385595
0.0395021
0.0398045
0.039512
0.0386697
0.0373699
0.0356975
0.0336619
0.0312247
0.0283298
0.0249482
0.0211523
0.0171769
0.0132753
0.00979066
0.00725025
0.00578598
0.0051032
0.0046461
0.00427702
0.00410643
0.00418009
0.00442717
0.00474232
0.00504149
0.00523799
0.00678879
0.0125618
0.0166478
0.0198483
0.0227904
0.0257014
0.0286514
0.0316456
0.0346609
0.037244
0.0390964
0.0401908
0.0405726
0.040264
0.0393246
0.0378732
0.0360113
0.033754
0.0310691
0.0279125
0.0242774
0.0202761
0.0162228
0.0123618
0.00902429
0.00674041
0.0055153
0.00495843
0.00449385
0.00408801
0.00391983
0.00401875
0.00428499
0.00459945
0.00488207
0.00505661
0.00668894
0.0123521
0.0164383
0.0196777
0.0226754
0.0256482
0.0286674
0.0317507
0.0348813
0.0376124
0.0396292
0.0408569
0.0412903
0.0409359
0.0398746
0.0382528
0.0361874
0.0337003
0.0307664
0.0273592
0.0235061
0.0193675
0.0153223
0.0115809
0.00844428
0.00642068
0.00538386
0.00490165
0.00439879
0.00394096
0.0037653
0.00387578
0.00414465
0.00445268
0.00471915
0.00487332
0.00659241
0.0121501
0.0162372
0.0195145
0.022566
0.0255993
0.028687
0.0318596
0.035106
0.037983
0.0401542
0.0414935
0.0419487
0.0415191
0.0403127
0.038504
0.0362233
0.0335008
0.0303219
0.0266841
0.0226662
0.0184753
0.0145276
0.0109777
0.00807254
0.00628484
0.00536842
0.00491823
0.00436233
0.00384428
0.00364054
0.00373917
0.00400032
0.00429792
0.00454837
0.00468401
0.0064991
0.0119556
0.0160443
0.0193587
0.0224623
0.0255547
0.0287107
0.0319727
0.035335
0.0383546
0.0406674
0.042094
0.04254
0.0420071
0.0406354
0.0386258
0.0361199
0.0331567
0.0297503
0.0259409
0.0218197
0.0176487
0.0138655
0.010554
0.00789201
0.00629345
0.00544363
0.00500019
0.00439877
0.003802
0.00353722
0.00360364
0.00384755
0.00413142
0.00436584
0.00448479
0.00640893
0.0117686
0.0158595
0.0192099
0.0223643
0.0255146
0.0287387
0.0320903
0.0355683
0.0387254
0.0411646
0.0426518
0.0430576
0.042396
0.0408421
0.0386204
0.0358805
0.0326987
0.02911
0.0251779
0.0210089
0.0169216
0.0133593
0.0103111
0.0078671
0.00638899
0.00557047
0.00513622
0.00450423
0.00381291
0.00345449
0.00346638
0.00368281
0.00394971
0.00416796
0.0042719
0.00632182
0.0115887
0.0156825
0.0190682
0.022272
0.0254794
0.0287715
0.0322128
0.0358054
0.0390934
0.0416413
0.0431609
0.0434969
0.0426844
0.0409351
0.0384928
0.0355303
0.0321647
0.0284317
0.0244239
0.0202697
0.0163291
0.0130138
0.0102322
0.00798019
0.00654991
0.00573899
0.00532055
0.00468425
0.00388952
0.00339905
0.00332745
0.00350328
0.00374942
0.00395114
0.00404161
0.00623769
0.0114159
0.0155132
0.0189334
0.0221853
0.025449
0.0288092
0.0323402
0.0360458
0.0394561
0.0420929
0.0436162
0.0438547
0.0428729
0.0409191
0.038255
0.0351028
0.0315795
0.0277444
0.0237058
0.0196283
0.0158888
0.012817
0.0102915
0.00821199
0.00677216
0.00594462
0.00554228
0.00494132
0.0040518
0.00338649
0.00319115
0.00330732
0.00352719
0.00371173
0.00379015
0.00615648
0.0112499
0.0153513
0.0188053
0.0221043
0.0254238
0.0288521
0.0324726
0.0362885
0.039811
0.042515
0.0440132
0.0441297
0.0429645
0.0407995
0.0379365
0.0346176
0.0309668
0.0270719
0.0230521
0.0191049
0.0155956
0.012761
0.0104661
0.00852621
0.00705341
0.00618673
0.00578288
0.00526403
0.0043227
0.00344578
0.00306939
0.00309571
0.00327987
0.00344615
0.00351389
0.00607811
0.0110906
0.0151968
0.0186839
0.0220289
0.0254037
0.0289004
0.0326098
0.0365325
0.0401551
0.0429033
0.044349
0.0443224
0.0429648
0.0405916
0.0375569
0.0340965
0.0303494
0.0264379
0.0224829
0.018705
0.0154377
0.0128285
0.0107318
0.00890416
0.00741608
0.00647966
0.00602308
0.00561978
0.00471617
0.00362086
0.0029875
0.00287456
0.00300464
0.00315139
0.00320983
0.00600253
0.010938
0.0150495
0.0185689
0.0219593
0.0253891
0.0289542
0.0327515
0.0367763
0.0404853
0.0432541
0.0446215
0.0444351
0.0428789
0.0403176
0.0371341
0.0335611
0.0297506
0.0258623
0.0220097
0.0184246
0.0153987
0.0130029
0.0110686
0.00936028
0.00785592
0.00681821
0.00626043
0.00595766
0.00521149
0.00396713
0.00299618
0.00266232
0.0027025
0.0028267
0.00287677
0.00592967
0.0107919
0.0149092
0.0184604
0.0218953
0.0253798
0.0290133
0.0328973
0.0370183
0.0407988
0.0435642
0.0448305
0.0444721
0.0427184
0.0399937
0.0366861
0.0330324
0.0291978
0.0253597
0.0216354
0.0182553
0.0154618
0.0132639
0.0114731
0.00988879
0.00841546
0.00722178
0.0065205
0.00622931
0.00572942
0.00451692
0.00317762
0.00250126
0.00239584
0.00247762
0.00251739
0.00585949
0.0106521
0.0147757
0.0183582
0.0218369
0.0253759
0.0290778
0.0330466
0.0372569
0.0410924
0.0438314
0.0449766
0.0444386
0.0424984
0.0396333
0.0362282
0.0325254
0.0287012
0.0249343
0.0213565
0.018187
0.015613
0.0135979
0.0119425
0.0104603
0.00904189
0.00776464
0.00686886
0.0064367
0.00614995
0.00521062
0.00363251
0.00247416
0.00210941
0.00211563
0.00214055
0.00579193
0.0105184
0.0146488
0.0182621
0.0217842
0.0253776
0.0291475
0.0331985
0.0374899
0.0413635
0.0440538
0.0450619
0.0443402
0.0422335
0.0392493
0.0357729
0.0320498
0.0282639
0.0245889
0.021173
0.018211
0.0158408
0.0139935
0.0124688
0.0110831
0.0097412
0.00842632
0.00732295
0.00666795
0.0064018
0.00585271
0.00440177
0.0027204
0.00190135
0.0017629
0.0017631
0.00572693
0.0103907
0.0145283
0.018172
0.021737
0.0253846
0.0292221
0.0333522
0.0377155
0.0416096
0.0442309
0.0450899
0.044187
0.0419333
0.0388524
0.0353294
0.0316124
0.0278897
0.0243279
0.0210804
0.0183179
0.0161347
0.0144398
0.0130389
0.0117558
0.0104919
0.00921272
0.00799115
0.00706211
0.00657058
0.00626874