/*--------------------------------*- C++ -*----------------------------------*\
| =========                 |                                                 |
| \\      /  F ield         | OpenFOAM: The Open Source CFD Toolbox           |
|  \\    /   O peration     | Version:  v2012                                 |
|   \\  /    A nd           | Website:  www.openfoam.com                      |
|    \\/     M anipulation  |                                                 |
\*---------------------------------------------------------------------------*/
FoamFile
{
    version     2.0;
    format      ascii;
    class       volScalarField;
    location    "620";
    object      nut;
}
// * * * * * * * * * * * * * * * * * * * * * * * * * * * * * * * * * * * * * //

dimensions      [0 2 -1 0 0 0 0];


internalField   nonuniform List<scalar> 
6108
(
0.000489625
0.000508968
0.000530051
0.000553144
0.000578573
0.000606747
0.000638177
0.000673521
0.000713634
0.000759658
0.000813143
0.000876259
0.000952128
0.0010454
0.00116327
0.00131741
0.00152779
0.00183076
0.00229741
0.00307897
0.0027083
0.00281097
0.00292102
0.00303944
0.00316743
0.00330637
0.00345794
0.00362423
0.00380783
0.00401212
0.00424149
0.00450194
0.00480177
0.00515289
0.00557305
0.00608982
0.00674838
0.00762799
0.00888195
0.0108571
0.00462149
0.00478496
0.00495924
0.00514561
0.00534553
0.0055607
0.0057931
0.00604512
0.00631967
0.00662035
0.00695171
0.00731962
0.00773169
0.00819798
0.0087317
0.00934995
0.0100738
0.0109258
0.0119185
0.0130185
0.00583385
0.00603178
0.00624214
0.00646618
0.0067053
0.00696102
0.00723505
0.00752931
0.00784592
0.00818728
0.00855606
0.00895522
0.00938793
0.00985742
0.0103666
0.0109172
0.0115079
0.0121316
0.0127699
0.0133894
0.00641475
0.00662783
0.00685397
0.00709434
0.00735018
0.00762277
0.00791349
0.00822372
0.00855481
0.008908
0.00928424
0.009684
0.0101069
0.0105512
0.0110133
0.0114869
0.0119628
0.0124295
0.0128789
0.0133217
0.00641676
0.00662925
0.00685498
0.00709507
0.00735069
0.00762313
0.00791374
0.00822388
0.00855492
0.00890807
0.00928429
0.00968404
0.0101069
0.0105512
0.0110133
0.0114869
0.0119628
0.0124295
0.0128789
0.0133217
0.00583959
0.00603582
0.006245
0.00646819
0.00670668
0.00696193
0.00723566
0.00752971
0.00784619
0.00818746
0.00855618
0.0089553
0.00938798
0.00985745
0.0103666
0.0109172
0.0115079
0.0121316
0.0127699
0.0133894
0.00462991
0.00479079
0.0049633
0.00514836
0.00534737
0.00556194
0.00579394
0.00604569
0.00632005
0.0066206
0.00695188
0.00731973
0.00773177
0.00819803
0.00873173
0.00934997
0.0100738
0.0109258
0.0119185
0.0130185
0.00271533
0.00281619
0.0029245
0.00304185
0.00316908
0.00330749
0.0034587
0.00362474
0.00380818
0.00401235
0.00424165
0.00450205
0.00480184
0.00515293
0.00557308
0.00608984
0.00674839
0.00762799
0.00888195
0.0108571
0.000489924
0.000509173
0.000530194
0.000553244
0.000578644
0.000606796
0.000638211
0.000673544
0.000713651
0.000759669
0.000813151
0.000876265
0.000952132
0.0010454
0.00116327
0.00131741
0.00152779
0.00183076
0.00229741
0.00307897
0.000425726
0.000439997
0.000455311
0.000471801
0.00235567
0.00243641
0.00252171
0.00261213
0.00405492
0.00418522
0.00432255
0.00446768
0.00514507
0.00530366
0.00547076
0.00564718
0.00567319
0.00584376
0.00602365
0.00621369
0.00568139
0.00584977
0.00602786
0.00621658
0.00517316
0.0053238
0.00548427
0.00565593
0.00412122
0.00423177
0.00435153
0.00448377
0.00255677
0.00256147
0.00259648
0.00264859
0.000815285
0.000704896
0.000616404
0.000544123
6.97255e-05
6.56561e-05
6.65336e-05
7.57834e-05
0.000104035
0.000109379
0.000102826
0.000154887
0.000170257
0.000181402
0.00019165
0.000201237
0.000210316
0.000218995
0.000227356
0.000235461
0.000243367
0.000251118
0.000258758
0.000266326
0.000273863
0.000281408
0.000288998
0.000296675
0.00030448
0.000312454
0.000320642
0.00032909
0.000337845
0.000346958
0.000356481
0.000366472
0.000376989
0.000388099
0.000399871
0.000412384
0.000115882
0.000218349
0.000292763
0.000308839
0.000317322
0.000348894
0.000390954
0.00044714
0.000510037
0.000573766
0.000638341
0.000703796
0.000770097
0.000837173
0.000904902
0.000973103
0.00104155
0.00110997
0.0011781
0.00124566
0.00131243
0.00137825
0.00144305
0.00150683
0.00156967
0.0016317
0.00169315
0.00175429
0.00181545
0.00187701
0.00193939
0.00200302
0.00206832
0.00213576
0.00220582
0.00227897
0.00014336
0.000429753
0.00045642
0.000469277
0.000503456
0.000569904
0.000669226
0.000790041
0.000918497
0.00104894
0.00117974
0.00130989
0.00143883
0.00156615
0.00169151
0.00181458
0.00193506
0.00205271
0.00216736
0.00227895
0.0023875
0.00249318
0.00259625
0.00269705
0.00279604
0.0028937
0.00299059
0.00308731
0.00318447
0.0032827
0.00338264
0.00348495
0.00359028
0.00369928
0.00381263
0.00393095
0.000174992
0.000555652
0.000599367
0.000634958
0.000706806
0.000826959
0.000987471
0.00116913
0.00135666
0.00154331
0.00172558
0.0019017
0.0020709
0.00223294
0.00238789
0.00253599
0.00267762
0.00281327
0.00294347
0.00306884
0.00319004
0.00330777
0.00342274
0.00353568
0.00364735
0.00375847
0.00386978
0.00398199
0.00409581
0.00421192
0.004331
0.00445372
0.00458073
0.00471271
0.00485031
0.00499419
0.000204313
0.000673407
0.000721504
0.000817696
0.00093731
0.00111245
0.00132637
0.00155625
0.00178673
0.0020096
0.00222034
0.00241713
0.00259977
0.00276889
0.00292567
0.00307149
0.00320783
0.00333617
0.00345791
0.00357439
0.00368684
0.00379642
0.00390418
0.00401111
0.00411813
0.0042261
0.00433582
0.00444802
0.00456341
0.00468263
0.0048063
0.00493501
0.00506931
0.00520974
0.00535683
0.00551112
0.000225356
0.000700408
0.000841902
0.00101401
0.00118696
0.00141126
0.0016658
0.00192759
0.00218148
0.00241862
0.00263457
0.00282828
0.00300069
0.00315386
0.00329034
0.00341283
0.00352393
0.00362602
0.00372126
0.00381152
0.00389846
0.00398354
0.00406806
0.00415318
0.00423995
0.00432932
0.00442215
0.00451922
0.00462125
0.00472887
0.00484269
0.00496324
0.00509102
0.00522647
0.00536992
0.00552158
0.000240676
0.000756562
0.000973181
0.00121976
0.00144143
0.00170745
0.00198881
0.00226569
0.00252395
0.00275524
0.00295621
0.0031272
0.00327072
0.00339038
0.00349014
0.00357386
0.00364505
0.00370678
0.00376163
0.0038118
0.00385914
0.00390524
0.00395152
0.00399925
0.00404957
0.00410355
0.00416216
0.00422628
0.00429672
0.00437424
0.00445954
0.0045533
0.00465625
0.00476924
0.00489332
0.00502983
0.000253264
0.000844219
0.00111341
0.00142805
0.00169035
0.00198635
0.00228304
0.00255985
0.00280603
0.00301498
0.0031852
0.00331888
0.00342031
0.00349471
0.00354731
0.00358295
0.00360577
0.00361916
0.00362584
0.00362793
0.00362713
0.00362485
0.00362234
0.00362073
0.00362112
0.00362459
0.00363217
0.00364486
0.0036636
0.00368933
0.00372281
0.00376466
0.00381531
0.00387532
0.00394561
0.00402495
0.000263637
0.00094816
0.00125563
0.00163188
0.00192561
0.00223934
0.00253974
0.00280503
0.00302633
0.00320097
0.00332992
0.00341767
0.00347056
0.00349553
0.00349918
0.00348724
0.00346428
0.00343365
0.0033976
0.00335749
0.00331406
0.00326765
0.00321843
0.00316658
0.00311236
0.00305624
0.00299887
0.00294111
0.00288399
0.00282862
0.00277667
0.00272989
0.00268828
0.00265045
0.00261335
0.00257822
0.000272166
0.00105491
0.00139574
0.00182574
0.00214186
0.00246222
0.00275499
0.00300005
0.00318813
0.00332119
0.00340396
0.00344373
0.00344936
0.00342984
0.00339329
0.00334621
0.00329318
0.00323686
0.00317821
0.00311694
0.003052
0.00298193
0.00290518
0.00282021
0.0027256
0.00262002
0.00250221
0.00237102
0.00222546
0.00206495
0.00188971
0.00170067
0.0014993
0.0013005
0.00111577
0.00095261
0.000631572
0.000372805
0.000236181
0.000139564
0.000485137
0.000343501
0.000250791
0.000104856
0.000601076
0.000564963
0.000460155
9.04622e-05
0.00106599
0.000905259
0.000542443
8.7325e-05
0.00140483
0.00106206
0.000565454
8.74617e-05
0.00156665
0.00112475
0.000581702
8.9065e-05
0.00165956
0.00117029
0.000596516
9.16817e-05
0.00173284
0.00121752
0.000617696
9.46156e-05
0.00180166
0.00126874
0.000643828
9.77872e-05
0.00186925
0.0013225
0.00067265
0.000101189
0.00193533
0.00137681
0.000701943
0.000104871
0.00199876
0.00142981
0.000731203
0.000108866
0.0020603
0.00148432
0.000762064
0.000112961
0.00212084
0.00153918
0.000793738
0.000117125
0.00217905
0.0015936
0.000825899
0.000121323
0.00223401
0.00164693
0.000858295
0.000125535
0.00228489
0.00169855
0.000890661
0.000129738
0.00233084
0.00174774
0.000922677
0.000133907
0.00237095
0.00179371
0.000953935
0.000138003
0.0024042
0.00183549
0.000983909
0.000141973
0.0024295
0.00187197
0.00101192
0.000145733
0.00244559
0.00190186
0.00103714
0.000149146
0.00245106
0.00192374
0.00105871
0.000152016
0.00244421
0.00193599
0.00107575
0.000154382
0.00227049
0.00193643
0.00108782
0.000156543
0.00208327
0.00192861
0.00109543
0.000158599
0.00194186
0.00183528
0.00109624
0.000160051
0.00183806
0.00175355
0.00109285
0.000161085
0.0017608
0.00170292
0.00108528
0.000161587
0.00170257
0.00167041
0.00107296
0.000161312
0.00166652
0.00165785
0.00105634
0.000160359
0.0016578
0.00167225
0.00103612
0.000158836
0.00167986
0.0016823
0.00101212
0.00015678
0.00174021
0.0016328
0.000983871
0.000154215
0.00182858
0.00158294
0.000952822
0.000151217
0.00179935
0.00153178
0.000919703
0.000147856
0.00175051
0.00148017
0.000885381
0.00014421
0.0017039
0.00142884
0.000850641
0.000140357
0.00165926
0.00137827
0.000816131
0.000136366
0.00161591
0.00132865
0.000782286
0.000132285
0.00157286
0.00127988
0.000749333
0.00012816
0.00152869
0.0012314
0.000717161
0.00012402
0.0014806
0.00118096
0.000683709
0.000119976
0.00142604
0.001126
0.000647084
0.000116195
0.00136525
0.00106735
0.000608657
0.000112582
0.00129847
0.00100573
0.000569627
0.00010907
0.00122601
0.000941626
0.000530419
0.000105607
0.00114815
0.000875355
0.000491235
0.000102151
0.00106518
0.000807079
0.000452088
9.86641e-05
0.000977343
0.000736826
0.00041287
9.51072e-05
0.000884862
0.000664572
0.000373454
9.14404e-05
0.000788085
0.000590389
0.000333797
8.76191e-05
0.000687725
0.000514685
0.000294077
8.3591e-05
0.00058527
0.000438549
0.000254827
7.92918e-05
0.000483501
0.000364084
0.000217027
7.46343e-05
0.000386879
0.000294521
0.000182042
6.94838e-05
0.000300908
0.000233837
0.000151565
6.36147e-05
0.000230894
0.000185617
0.000127558
5.04933e-05
0.000172513
0.000147014
0.000107944
4.74723e-05
5.21895e-05
4.57489e-05
4.4261e-05
3.04051e-05
0.000279667
0.00117231
0.00154145
0.00199982
0.00234467
0.00266167
0.00293664
0.00315194
0.00330154
0.00338851
0.00342345
0.00341741
0.00338228
0.00332936
0.00326802
0.00320483
0.00314334
0.00308436
0.00302674
0.00296824
0.00290629
0.00283855
0.00276319
0.00267897
0.00258518
0.00248159
0.00236835
0.00224586
0.00211442
0.00197368
0.0018246
0.00166779
0.00150314
0.00133018
0.00114522
0.000944273
0.000285984
0.00129677
0.00168959
0.00216081
0.00252014
0.00282578
0.00307595
0.00325654
0.0033651
0.00340882
0.00340113
0.00335834
0.00329544
0.00322529
0.00315703
0.0030954
0.00304095
0.00299125
0.00294229
0.00288982
0.00283025
0.00276106
0.0026808
0.00258894
0.00248548
0.00237082
0.00224549
0.0021103
0.00196536
0.00180862
0.0016424
0.00146734
0.00128372
0.00109237
0.000896804
0.000680167
0.000291324
0.0014147
0.00184404
0.00232685
0.00266734
0.00295581
0.00317687
0.00332082
0.00338943
0.00339433
0.00335296
0.00328479
0.00320735
0.00313318
0.00306879
0.00301474
0.00296715
0.00291988
0.00286658
0.00280209
0.00272307
0.00262798
0.00251673
0.00239047
0.00225045
0.00209903
0.00193753
0.00177073
0.00160351
0.00144378
0.00128764
0.00113478
0.000988027
0.000846306
0.000728346
0.000646636
0.000295614
0.00147382
0.00201007
0.00245717
0.00278772
0.00305511
0.0032451
0.00335294
0.00338496
0.00335728
0.00329133
0.00320867
0.00312672
0.00305534
0.00299621
0.0029446
0.00289235
0.00283093
0.00275348
0.00265592
0.00253697
0.00239795
0.00224234
0.00207543
0.00190397
0.00173868
0.0015921
0.00146105
0.0013432
0.00123963
0.00115078
0.00107749
0.00102942
0.00100899
0.00100215
0.00101861
0.000298994
0.00152307
0.00215639
0.00256241
0.00288348
0.00312765
0.00328654
0.00336061
0.00336091
0.00330779
0.00322574
0.00313697
0.00305617
0.00298822
0.00292908
0.0028693
0.00279827
0.00270735
0.00259156
0.00245037
0.00228786
0.00211228
0.00193605
0.00177627
0.00165181
0.00155981
0.00149407
0.00145094
0.00142726
0.00142126
0.00143245
0.00145196
0.00148157
0.00152508
0.00159697
0.00154594
0.000301549
0.0015624
0.00223611
0.0026484
0.00295734
0.00317763
0.00330688
0.00335081
0.00332508
0.00325372
0.00316294
0.00307352
0.00299558
0.00292782
0.00286096
0.00278284
0.00268301
0.00255554
0.00240075
0.00222638
0.0020474
0.00188565
0.00177028
0.00171526
0.0017039
0.00172367
0.00176439
0.00181873
0.00187431
0.0019294
0.00199474
0.00207277
0.00212284
0.00211067
0.00206291
0.00187381
0.000303353
0.00159248
0.00230089
0.00271689
0.00301225
0.00320921
0.00331137
0.00332959
0.00328384
0.00320102
0.00310743
0.00302048
0.00294451
0.00287241
0.00279125
0.00268888
0.00255819
0.00239994
0.0022257
0.00205745
0.00192726
0.00187305
0.00189779
0.0019721
0.00207283
0.00217774
0.00227647
0.00237595
0.00247677
0.0025647
0.00260553
0.00262827
0.00259742
0.00248828
0.00231169
0.00203786
0.000304478
0.00161411
0.00235211
0.00276989
0.00305118
0.00322628
0.00330466
0.00330206
0.0032423
0.00315408
0.0030622
0.00297923
0.00290339
0.00282299
0.00272417
0.00259789
0.00244422
0.00227704
0.00212453
0.00202714
0.00202704
0.00212461
0.00227248
0.00242889
0.00258621
0.00273033
0.00285825
0.00294996
0.00301877
0.0030522
0.00302373
0.00295765
0.00284696
0.00268093
0.00245172
0.00214098
0.000304992
0.00162813
0.00239117
0.00280942
0.003077
0.00323237
0.00329074
0.00327237
0.00320436
0.00311606
0.00302928
0.0029509
0.00287351
0.00278284
0.00266699
0.00252365
0.0023656
0.00222456
0.00214689
0.00217815
0.00232752
0.00252893
0.00274405
0.00295057
0.00311316
0.00323985
0.00333109
0.00336456
0.00335732
0.00331506
0.00323684
0.00312744
0.00298264
0.00279325
0.00254627
0.00222268
0.000304961
0.00163543
0.0024195
0.00283751
0.00309233
0.00323057
0.00327292
0.00324382
0.00317293
0.00308909
0.00300998
0.0029365
0.00285676
0.00275618
0.00262808
0.00248043
0.00234373
0.00226765
0.00230434
0.00247053
0.00271414
0.00298416
0.00322105
0.00341117
0.0035295
0.00359506
0.00361377
0.0035899
0.00353491
0.00345475
0.00335094
0.00322325
0.00306663
0.00287115
0.00262138
0.00229577
0.000304449
0.00163685
0.00243852
0.00285603
0.00309951
0.00322348
0.00325387
0.00321885
0.00314996
0.00307445
0.00300502
0.00293684
0.00285497
0.00274702
0.00261439
0.00247897
0.00238956
0.00240479
0.00255751
0.00281608
0.0031189
0.00340066
0.00360324
0.00373175
0.00379396
0.0038043
0.00377485
0.00371553
0.00363425
0.00353522
0.00341942
0.00328505
0.00312633
0.00293244
0.00268631
0.00236371
0.000303519
0.00163324
0.00244954
0.00286669
0.00310056
0.00321325
0.00323564
0.00319921
0.00313661
0.0030726
0.00301444
0.00295207
0.00286928
0.00275817
0.00263032
0.00252331
0.0024988
0.00260763
0.00284529
0.0031622
0.00347534
0.0037147
0.00386622
0.00394298
0.00395983
0.00393238
0.00387381
0.00379332
0.00369685
0.00358751
0.00346584
0.00332959
0.00317264
0.00298355
0.0027439
0.00242687
0.000302226
0.00162537
0.00245379
0.00287101
0.00309719
0.00320157
0.00321971
0.00318592
0.00313327
0.00308319
0.00303717
0.00298075
0.00289894
0.00279035
0.00267664
0.00260973
0.00265435
0.00283912
0.00312895
0.00346477
0.00374866
0.00394172
0.00404933
0.00408713
0.004072
0.00401989
0.00394265
0.00384818
0.00374144
0.00362516
0.0034999
0.00336344
0.00320962
0.00302655
0.00279471
0.00248469
0.000300626
0.00161399
0.00245239
0.00287031
0.00309078
0.00318975
0.00320707
0.00317944
0.0031396
0.00310477
0.00307012
0.00288819
0.00287461
0.00284089
0.00274972
0.00272853
0.00283472
0.00306994
0.00339148
0.00371536
0.00395845
0.00411167
0.00418494
0.00419408
0.00415669
0.00408737
0.00399651
0.00389115
0.00377592
0.00365369
0.00352533
0.00338901
0.00323864
0.00306193
0.00283938
0.00253966
0.000298767
0.00159973
0.00244632
0.00286571
0.00308244
0.00317871
0.00319831
0.00317974
0.00315452
0.00313429
0.002862
0.00271204
0.00273815
0.0028781
0.00284333
0.00286816
0.0030228
0.00329034
0.00362141
0.00391953
0.00412679
0.00424712
0.0042932
0.00428114
0.00422721
0.00414439
0.00404203
0.00392676
0.00380334
0.00367506
0.00354341
0.00340702
0.00325999
0.00309131
0.00287927
0.0025906
0.000296696
0.00158319
0.00243646
0.00285812
0.00307304
0.0031691
0.00319365
0.0031863
0.00317617
0.0030016
0.00268905
0.00259237
0.00264093
0.00279768
0.00295051
0.00301841
0.00320767
0.00349573
0.00382265
0.00409184
0.00426774
0.0043611
0.00438589
0.00435729
0.00428982
0.00419509
0.00408182
0.00395662
0.00382461
0.00368979
0.00355434
0.00341782
0.00327534
0.00311446
0.00291321
0.00263654
0.000294451
0.00156487
0.00242355
0.00284831
0.00306323
0.00316134
0.00319303
0.00319828
0.00320238
0.00282022
0.00257069
0.00251288
0.00257825
0.00274313
0.003024
0.00317224
0.00338547
0.00368804
0.00400294
0.00424195
0.00439065
0.00446193
0.00446944
0.00442689
0.0043472
0.00424096
0.0041166
0.00398097
0.00383971
0.00369771
0.00355872
0.00342245
0.00328372
0.00313044
0.00294028
0.0026766
0.000292069
0.00154522
0.00240822
0.00283689
0.0030535
0.00315563
0.00319616
0.00321445
0.00312383
0.00269102
0.00249082
0.00246072
0.00254262
0.00271843
0.00301978
0.00332588
0.00355895
0.00386578
0.00416249
0.00437595
0.00450175
0.00455453
0.00454715
0.00449184
0.00440022
0.00428219
0.00414616
0.00399943
0.00384815
0.00369968
0.00355679
0.0034198
0.00328426
0.00313841
0.00295968
0.00270993
0.000289581
0.00152462
0.00239101
0.00282434
0.00304417
0.003152
0.00320259
0.00323354
0.00297736
0.00260053
0.00243799
0.00242988
0.00252671
0.00271623
0.00303693
0.00347657
0.00372759
0.00403328
0.00430906
0.00449932
0.00460516
0.00464164
0.00462052
0.00455273
0.00444883
0.00431833
0.00416982
0.00401129
0.00385117
0.00369517
0.00354734
0.00340889
0.0032761
0.00313759
0.00297059
0.00273568
0.000287014
0.00150337
0.00237237
0.00281105
0.00303546
0.00315039
0.00321179
0.00325463
0.00286865
0.00253777
0.0024052
0.00241634
0.00252614
0.00272998
0.00307447
0.00359805
0.00389277
0.00419405
0.00444691
0.0046155
0.00470326
0.00472458
0.00469003
0.00460939
0.00449244
0.00434854
0.0041873
0.00401772
0.00384732
0.00368279
0.00352924
0.00338879
0.00325844
0.0031272
0.0029722
0.00275294
0.000284392
0.00148175
0.00235267
0.00279732
0.00302749
0.00315062
0.00322321
0.00327682
0.00279075
0.0024956
0.00238852
0.00241652
0.00253752
0.00275521
0.00312346
0.0036731
0.00405311
0.00434484
0.00457731
0.00472615
0.00479713
0.00480376
0.00475549
0.00466121
0.00453012
0.00437298
0.00419903
0.00401699
0.0038352
0.00366131
0.00350144
0.0033586
0.00323048
0.00310647
0.00296368
0.00276073
0.000281734
0.00145996
0.00233223
0.00278336
0.00302031
0.00315246
0.00323611
0.0032025
0.00273548
0.00246981
0.00238445
0.00242717
0.00255827
0.00278893
0.0031793
0.00375317
0.00420855
0.00448741
0.00470134
0.00483205
0.00488707
0.00487895
0.00481627
0.00470724
0.00456242
0.00439133
0.00420328
0.00400756
0.00381339
0.00362946
0.00346285
0.00331742
0.00319144
0.00307467
0.00294419
0.00275805
0.000279058
0.0014382
0.0023113
0.00276935
0.00301392
0.00315565
0.00324994
0.0031299
0.00269722
0.00245624
0.00239
0.00244576
0.00258653
0.00282965
0.0032392
0.00383823
0.00435778
0.00462296
0.0048195
0.00493337
0.00497283
0.00494952
0.00487157
0.00474806
0.00458839
0.00440195
0.00419843
0.00398787
0.00378047
0.00358595
0.00341237
0.00326434
0.0031406
0.00303106
0.00291287
0.00274374
0.000276378
0.00141659
0.00229009
0.0027554
0.00300829
0.00315995
0.00326437
0.0030766
0.00267203
0.00245242
0.00240316
0.00247052
0.00262081
0.00287585
0.00330106
0.00392385
0.0044988
0.0047516
0.00493202
0.00502988
0.00505379
0.00501481
0.00492157
0.0047825
0.00460656
0.00440328
0.0041829
0.00395637
0.00373495
0.00352945
0.00334888
0.00319847
0.00307718
0.00297486
0.00286865
0.00271192
0.000273705
0.00139526
0.00226876
0.0027416
0.00300335
0.00316514
0.00327914
0.00303847
0.00265704
0.00245673
0.00242247
0.00250019
0.00265992
0.00292631
0.0033648
0.0040079
0.00463289
0.00487366
0.00503885
0.00512111
0.00512915
0.00507451
0.00496525
0.00480928
0.00461547
0.00439371
0.00415503
0.0039114
0.00367527
0.0034586
0.00327127
0.00311892
0.00300041
0.0029051
0.00268513
0.00245253
0.000271049
0.00137429
0.00224746
0.00272803
0.00299904
0.00317101
0.00329406
0.00301191
0.00265021
0.00246765
0.00244666
0.00253376
0.00270262
0.00297965
0.00343065
0.00409073
0.00475982
0.00498918
0.00513971
0.00520587
0.00519848
0.00512786
0.00500147
0.00482702
0.00461355
0.00437156
0.00411307
0.00385127
0.0035999
0.00337209
0.00317851
0.00302493
0.00290963
0.00271174
0.00243865
0.00223157
0.000268417
0.00135375
0.0022263
0.0027147
0.00299528
0.00317741
0.003309
0.00299448
0.00264999
0.0024838
0.00247465
0.00257037
0.00274794
0.00303536
0.00349788
0.0041716
0.00487986
0.005098
0.00523286
0.00528401
0.0052613
0.00517395
0.005029
0.00483424
0.00459913
0.00433506
0.00405523
0.00377427
0.00350737
0.00326881
0.0030699
0.00291618
0.00280464
0.00247673
0.00222848
0.00205834
0.000265814
0.00133368
0.00220536
0.00270167
0.00299201
0.00318418
0.00332388
0.00298437
0.00265516
0.00250403
0.00250555
0.00260933
0.00279531
0.00309277
0.00356576
0.0042497
0.00499259
0.00519818
0.00531876
0.00535541
0.00531699
0.00521172
0.0050465
0.00482936
0.00457048
0.00428236
0.0039797
0.00367879
0.00339641
0.003148
0.00294524
0.00279306
0.00259182
0.00226729
0.0020472
0.00191486
0.000263248
0.0013141
0.00218472
0.00268893
0.00298915
0.00319124
0.00333865
0.00298017
0.00266468
0.00252736
0.00253861
0.00265001
0.0028442
0.00315125
0.00363338
0.00432453
0.00509
0.00529053
0.00539765
0.00541979
0.00536479
0.00524007
0.00505254
0.00481073
0.00452578
0.00421162
0.00388474
0.0035634
0.00326613
0.00300947
0.00280507
0.00265668
0.00237773
0.00207821
0.00188907
0.00179563
0.000260724
0.00129501
0.00216442
0.00267652
0.00298668
0.0031985
0.0033533
0.00298068
0.00267759
0.0025528
0.00257296
0.00269179
0.00289418
0.00321059
0.00370138
0.004396
0.00515427
0.00537576
0.00546964
0.00547673
0.00540385
0.0052578
0.00504564
0.00477664
0.00446321
0.00412103
0.00376879
0.00342704
0.00311624
0.00285385
0.00265095
0.00250938
0.00218238
0.00190867
0.00175468
0.00169948
0.000258243
0.00127647
0.00214451
0.00266447
0.00298469
0.003206
0.00336767
0.00298487
0.00269314
0.00257971
0.00260816
0.00273426
0.00294497
0.00327078
0.00376914
0.00446407
0.00521179
0.00545431
0.00553468
0.00552571
0.00543326
0.00526364
0.00502427
0.0047254
0.00438101
0.00400898
0.00363062
0.00326922
0.00294732
0.00268292
0.00248568
0.00235459
0.00200116
0.00175965
0.00164442
0.00162731
0.000255809
0.00125851
0.00212515
0.00265293
0.00298294
0.00321348
0.00338172
0.00299204
0.00271078
0.00260768
0.00264389
0.00277717
0.00299639
0.00333161
0.00383648
0.00452852
0.00526347
0.00552628
0.00559251
0.00556609
0.00545202
0.00525631
0.00498692
0.00465535
0.00427757
0.00387413
0.00346955
0.00309031
0.0027611
0.00249975
0.00231338
0.00216947
0.00183302
0.00163277
0.00155924
0.00158065
0.000253422
0.00124135
0.00210622
0.00264159
0.00298135
0.00322088
0.00338464
0.00300157
0.00273009
0.00263634
0.00267993
0.00282038
0.00304825
0.00339281
0.00390305
0.00458903
0.00530828
0.00559177
0.00564279
0.00559714
0.00545908
0.0052345
0.00493209
0.00456497
0.00415154
0.00371565
0.00328568
0.00289181
0.00256073
0.00230899
0.0021393
0.00197309
0.00168055
0.00153059
0.00150186
0.00156347
0.000251111
0.00122444
0.00208759
0.00263049
0.00297992
0.00322817
0.00338509
0.00301293
0.00275062
0.00266541
0.00271609
0.00286376
0.00310043
0.00345417
0.00396862
0.00464578
0.0053463
0.00565069
0.00568504
0.00561806
0.00545338
0.00519692
0.00485839
0.00445294
0.00400199
0.00353338
0.00308017
0.00267669
0.00235106
0.00211712
0.0019697
0.00177856
0.00154882
0.0014567
0.00147705
0.00158619
0.000248871
0.00120783
0.0020693
0.00261964
0.00297862
0.00323535
0.00338708
0.00302564
0.00277203
0.00269473
0.00275226
0.00290724
0.00315289
0.00351564
0.00403329
0.00469936
0.00537809
0.00570274
0.00571867
0.00562799
0.00543383
0.00514235
0.00476461
0.00431831
0.00382859
0.00332814
0.00285558
0.00244955
0.00213869
0.00192929
0.00180999
0.00160091
0.00144281
0.00141382
0.00148692
0.00164521
0.000246696
0.0011916
0.00205141
0.00260907
0.00297745
0.00324243
0.00339026
0.0030393
0.00279411
0.00272419
0.00278838
0.00295083
0.00320566
0.00357733
0.00409743
0.00475075
0.00540447
0.00574747
0.00574297
0.005626
0.00539936
0.00506967
0.00464979
0.00416063
0.00363186
0.00310202
0.00261613
0.00221665
0.0019295
0.0017532
0.00166581
0.00144683
0.00136783
0.00140548
0.0015309
0.00173074
0.000244583
0.0011758
0.00203397
0.0025988
0.00297642
0.00324942
0.00339426
0.00305362
0.00281666
0.00275371
0.00282447
0.00299459
0.00325883
0.0036394
0.00416149
0.00480093
0.00542619
0.00578427
0.00575714
0.00561118
0.00534897
0.00497793
0.00451335
0.00398014
0.00341341
0.00285869
0.00236796
0.0019864
0.00173339
0.00159523
0.00146685
0.00132793
0.00133254
0.0014338
0.00160274
0.00180951
0.000242528
0.00116047
0.00201702
0.00258887
0.00297553
0.00325636
0.00339885
0.00306838
0.00283953
0.00278325
0.00286056
0.00303858
0.00331246
0.00370187
0.00422538
0.00484967
0.00544314
0.00581241
0.00576036
0.00558262
0.00528174
0.00486646
0.00435526
0.00377804
0.00317634
0.00260372
0.00211908
0.00176772
0.00155689
0.00145904
0.00130199
0.00125914
0.00133944
0.00149052
0.00167774
0.00177511
0.000240528
0.00114565
0.00200059
0.00257929
0.00297481
0.00326328
0.0034039
0.00308345
0.00286259
0.0028128
0.0028967
0.00308282
0.00336649
0.00376446
0.00428825
0.00489566
0.00545274
0.00579426
0.00575179
0.00553947
0.00519692
0.00473488
0.00417618
0.00355676
0.00292546
0.00234468
0.00187928
0.00156927
0.00140492
0.00133546
0.00120259
0.00124175
0.00138101
0.00155617
0.00171807
0.00174489
0.000238581
0.00113136
0.00198472
0.00257009
0.00297427
0.0032702
0.00340932
0.00309872
0.00288576
0.00284238
0.00293295
0.00312737
0.00342085
0.00382681
0.00434903
0.0049357
0.00544905
0.0057301
0.00573086
0.00548099
0.00509385
0.00458319
0.0039777
0.00332032
0.00266762
0.00209097
0.00165835
0.00139784
0.00127959
0.00119904
0.00115884
0.00126661
0.00144319
0.0016153
0.00170666
0.00171716
0.000236685
0.00111761
0.00196943
0.0025613
0.00297393
0.00327718
0.00341511
0.00311416
0.00290905
0.00287206
0.00296945
0.00317239
0.0034757
0.003889
0.0044074
0.00496819
0.00543054
0.005642
0.0055856
0.00535895
0.00497196
0.00441182
0.00376257
0.00307462
0.00241171
0.0018533
0.00146519
0.00125744
0.00118024
0.00113109
0.00116066
0.00131941
0.00150923
0.00163287
0.00169672
0.00168977
0.000234838
0.00110442
0.00195476
0.00255294
0.00297383
0.00328425
0.00342132
0.00312979
0.0029325
0.002902
0.00300647
0.00321828
0.00353163
0.00395186
0.00446467
0.00499546
0.00540005
0.00553944
0.00540537
0.00510781
0.00468117
0.00419525
0.00353493
0.00282763
0.00216814
0.00164229
0.00130625
0.00114839
0.00110356
0.00111148
0.00119283
0.00137397
0.00152453
0.00163492
0.00168419
0.0016601
0.000233039
0.0010918
0.00194073
0.00254503
0.00297398
0.00329144
0.00342802
0.00314571
0.00295626
0.00293245
0.00304439
0.00326564
0.00358954
0.00401671
0.00452288
0.00502158
0.00536611
0.00543206
0.00522634
0.00486422
0.00438526
0.00387218
0.00330182
0.00258943
0.00194786
0.00146606
0.00118338
0.00106724
0.00104449
0.00109025
0.00120741
0.00137218
0.00152843
0.00163
0.00166451
0.00162459
0.000231287
0.00107975
0.00192736
0.00253762
0.00297443
0.00329881
0.00343536
0.00316206
0.00298049
0.00296371
0.00308369
0.00331512
0.00365028
0.00408456
0.00458319
0.00504842
0.00533304
0.00532717
0.00505376
0.00463493
0.00411638
0.00358498
0.00307483
0.0023713
0.00176049
0.00132831
0.00109408
0.00100864
0.00099805
0.00105329
0.00118706
0.00136506
0.0015209
0.00161119
0.00163298
0.00158016
0.000229579
0.00106828
0.00191466
0.00253072
0.0029752
0.0033064
0.00344349
0.00317901
0.00300543
0.00299609
0.00312481
0.00336725
0.00371435
0.00415566
0.00464542
0.00507537
0.00529994
0.00522452
0.00488631
0.00441504
0.00386722
0.00333348
0.0028644
0.00218324
0.00161246
0.00122972
0.00103331
0.00096702
0.000960217
0.00101814
0.00116156
0.00134238
0.0014931
0.00157604
0.00158901
0.00152653
0.000227917
0.00105738
0.00190267
0.00252435
0.00297633
0.00331425
0.00345257
0.00319673
0.00303129
0.00302988
0.00316807
0.00342235
0.00378184
0.00422962
0.00470853
0.00510096
0.00526541
0.00512296
0.0047233
0.00420592
0.00364027
0.0031134
0.00267928
0.00203241
0.00150603
0.00116699
0.000994889
0.000937426
0.000928204
0.000981169
0.00112049
0.00129992
0.00144747
0.00152576
0.00153278
0.00146371
0.000226298
0.00104706
0.00189138
0.00251854
0.00297784
0.00332239
0.00346272
0.00321538
0.00305823
0.0030653
0.00321372
0.00348054
0.00385259
0.00430574
0.00477133
0.00512408
0.00522868
0.00502179
0.00456688
0.00401786
0.00344046
0.00292524
0.00252359
0.00191775
0.00143592
0.00113141
0.000972822
0.00091617
0.000899314
0.000938568
0.00106662
0.00124122
0.00138611
0.00146158
0.00146479
0.00139196
0.000224723
0.00103731
0.00188082
0.00251332
0.00297977
0.00333088
0.00347406
0.00323509
0.00308643
0.00310252
0.00326189
0.0035418
0.00392625
0.00438329
0.00483292
0.0051441
0.00518931
0.0049258
0.00442925
0.00385798
0.0032123
0.00272995
0.00240134
0.00183861
0.00139473
0.00111181
0.000958011
0.00089847
0.000872391
0.000892596
0.00100177
0.00116791
0.00131034
0.00138452
0.00138571
0.00131166
0.00022319
0.00102813
0.00187098
0.00250869
0.00298214
0.00333975
0.00348667
0.00325598
0.00311599
0.00314167
0.00331265
0.00360605
0.00400244
0.00446159
0.00489278
0.00516077
0.00515094
0.00484151
0.00431399
0.00371253
0.0030274
0.00255112
0.00229614
0.0017919
0.00137838
0.00110436
0.000948703
0.000883536
0.00084828
0.000846351
0.000928398
0.00108127
0.00122105
0.00129546
0.0012962
0.00122324
0.0002217
0.0010195
0.00186187
0.00250468
0.00298499
0.00334904
0.00350062
0.00327812
0.00314701
0.00318282
0.00336601
0.0036731
0.00408074
0.00454014
0.00495064
0.00517509
0.00511838
0.00477317
0.00422513
0.00357324
0.00288904
0.00241416
0.00215753
0.00177413
0.00138392
0.0011085
0.000945061
0.000871245
0.000827883
0.000803842
0.00085099
0.000983112
0.00111915
0.00119517
0.00119694
0.00112717
0.000220252
0.00101142
0.00185349
0.0025013
0.00298833
0.00335878
0.00351592