/*--------------------------------*- C++ -*----------------------------------*\
| =========                 |                                                 |
| \\      /  F ield         | OpenFOAM: The Open Source CFD Toolbox           |
|  \\    /   O peration     | Version:  v2012                                 |
|   \\  /    A nd           | Website:  www.openfoam.com                      |
|    \\/     M anipulation  |                                                 |
\*---------------------------------------------------------------------------*/
FoamFile
{
    version     2.0;
    format      ascii;
    class       volScalarField;
    location    "620";
    object      omega;
}
// * * * * * * * * * * * * * * * * * * * * * * * * * * * * * * * * * * * * * //

dimensions      [0 0 -1 0 0 0 0];


internalField   nonuniform List<scalar> 
6108
(
97.09
100.926
105.106
109.685
114.728
120.315
126.547
133.556
141.51
150.636
161.242
173.758
188.802
207.297
230.67
261.235
302.953
363.03
455.564
610.542
43.2195
45.0737
47.1093
49.3539
51.8415
54.6142
57.7248
61.2398
65.2446
69.8494
75.1988
81.485
88.9668
97.9961
109.055
122.801
140.094
161.924
188.848
218.47
33.7245
35.2532
36.9343
38.7911
40.8523
43.1529
45.7365
48.6576
51.9854
55.8082
60.2403
65.4324
71.5848
78.9696
87.9621
99.0932
113.135
131.264
155.406
189.188
30.5967
32.0252
33.5971
35.3347
37.265
39.4213
41.8447
44.5869
47.7131
51.3075
55.4797
60.3748
66.1898
73.1967
81.7831
92.5187
106.276
124.457
149.465
185.734
29.4981
30.8939
32.4303
34.1293
36.0175
38.1278
40.501
43.1882
46.2546
49.7843
53.8878
58.7131
64.4626
71.4206
79.9977
90.8084
104.807
123.538
149.594
187.459
29.495
30.8918
32.4288
34.1282
36.0167
38.1273
40.5006
43.1879
46.2544
49.7842
53.8877
58.7131
64.4626
71.4205
79.9977
90.8084
104.807
123.538
149.594
187.459
30.5859
32.0177
33.5917
35.3309
37.2624
39.4196
41.8436
44.5861
47.7126
51.3072
55.4794
60.3747
66.1897
73.1967
81.7831
92.5187
106.276
124.457
149.465
185.734
33.6992
35.2363
36.9224
38.783
40.8469
43.1493
45.7341
48.656
51.9844
55.8075
60.2399
65.4321
71.5846
78.9694
87.962
99.0932
113.135
131.264
155.406
189.188
43.1693
45.0383
47.0858
49.3376
51.8304
54.6067
57.7198
61.2365
65.2424
69.8479
75.1978
81.4844
88.9663
97.9958
109.055
122.801
140.094
161.924
188.848
218.47
97.1494
100.966
105.135
109.705
114.742
120.324
126.554
133.56
141.513
150.638
161.243
173.759
188.803
207.297
230.67
261.236
302.954
363.03
455.564
610.542
84.4192
87.249
90.2857
93.5556
37.2123
38.5351
39.9678
41.5238
28.7893
29.8738
31.0497
32.3287
25.9903
27.0022
28.0995
29.2933
24.9958
25.9855
27.0581
28.2246
24.9777
25.9734
27.0505
28.2199
25.9046
26.9463
28.0662
29.2747
28.4253
29.6333
30.9112
32.2628
34.6438
36.8785
38.9625
41.0521
52.1132
59.7393
69.4099
81.8067
13.8262
13.0192
13.1933
15.0274
20.6296
24.9041
28.3726
31.2922
33.7611
35.971
38.0032
39.9043
41.7046
43.4256
45.0834
46.6908
48.2583
49.7953
51.3103
52.8111
54.3056
55.8016
57.3068
58.8291
60.3767
61.9579
63.5816
65.2567
66.9928
68.7999
70.6884
72.6695
74.755
76.9579
79.2922
81.7735
14.7065
9.75958
12.3806
17.6112
21.3198
23.2193
24.1055
24.5707
24.8036
24.9051
24.9523
24.9729
24.9837
24.9965
25.0213
25.0663
25.1389
25.2453
25.3906
25.5793
25.8147
26.0991
26.4342
26.8211
27.261
27.7548
28.3033
28.9075
29.5687
30.2882
31.0679
31.9106
32.8195
33.7984
34.8525
35.9878
18.1936
11.6931
14.8932
18.2189
20.0313
20.6981
20.8014
20.6639
20.3925
20.0735
19.7643
19.4865
19.2521
19.0675
18.9362
18.8603
18.8405
18.8763
18.9667
19.1101
19.3046
19.5481
19.8388
20.175
20.5554
20.979
21.4455
21.9551
22.5083
23.1065
23.7514
24.4454
25.1916
25.9938
26.8568
27.7864
22.208
13.6603
15.7675
17.5842
18.43
18.6118
18.465
18.1538
17.7676
17.3817
17.0361
16.7462
16.5192
16.3572
16.2597
16.2247
16.2493
16.3304
16.4641
16.647
16.8756
17.1468
17.4581
17.8074
18.1934
18.6152
19.0727
19.5663
20.0969
20.6661
21.276
21.9293
22.6294
23.3803
24.1867
25.0545
25.9291
14.8475
15.8815
16.7079
17.0396
17.0163
16.79
16.451
16.0758
15.7251
15.4274
15.1938
15.0277
14.9286
14.8941
14.9206
15.0039
15.1399
15.324
15.5523
15.8211
16.1272
16.4681
16.8419
17.2476
17.6845
18.1529
18.6533
19.1872
19.7561
20.3625
21.0092
21.6997
22.4382
23.2296
24.0798
28.5997
15.4981
15.6852
15.9345
15.9406
15.8163
15.5723
15.2587
14.9364
14.6507
14.4228
14.2603
14.1646
14.1342
14.1658
14.2556
14.3993
14.5923
14.8301
15.1086
15.4241
15.7732
16.1537
16.5638
17.0027
17.4701
17.9664
18.4928
19.0506
19.6419
20.2689
20.9343
21.6413
22.3936
23.1961
24.0548
30.5439
15.8079
15.3748
15.2824
15.1154
14.9117
14.6716
14.4019
14.1442
13.9304
13.7758
13.6859
13.6614
13.7006
13.8008
13.9585
14.1695
14.4295
14.7338
15.0778
15.4573
15.8687
16.3094
16.7774
17.2721
17.7938
18.3437
18.9235
19.5359
20.1837
20.8695
21.596
22.365
23.178
24.0353
24.9366
32.1413
15.8929
15.0366
14.7403
14.4834
14.2345
13.9949
13.7715
13.5778
13.4339
13.3505
13.3319
13.379
13.4914
13.6677
13.9054
14.2014
14.5512
14.9497
15.3911
15.8698
16.3805
16.919
17.4821
18.0685
18.6786
19.3145
19.9801
20.6812
21.426
22.2234
23.0821
24.0095
25.01
26.0841
27.2438
33.4578
15.8602
14.7106
14.2906
13.9869
13.7191
13.4834
13.2963
13.1601
13.0796
13.062
13.1112
13.23
13.42
13.6823
14.0167
14.4211
14.8917
15.4228
16.0078
16.6396
17.3114
18.0175
18.7534
19.5162
20.3047
21.1193
21.9629
22.8416
23.7665
24.7613
25.8642
27.1194
28.5907
30.3467
32.397
34.5402
15.7816
14.4116
13.9145
13.5861
13.3146
13.0914
12.9295
12.8388
12.8122
12.852
12.963
13.1503
13.4189
13.7731
14.2148
14.7438
15.3565
16.0479
16.8116
17.6425
18.537
19.4946
20.5181
21.614
22.7922
24.0662
25.4534
26.9747
28.6545
30.5219
32.6091
34.9475
37.7957
41.4348
46.1121
45.5958
45.4376
41.0923
32.6466
20.7523
17.2781
13.4173
13.3072
8.37214
6.44294
5.41857
11.4804
3.98832
3.75967
4.48368
11.0823
3.0041
3.26874
4.41296
11.0996
2.78024
3.20979
4.49074
11.3031
2.73953
3.23569
4.61273
11.6352
2.75077
3.27613
4.71647
12.0075
2.77891
3.31806
4.8045
12.41
2.81481
3.36163
4.88771
12.8417
2.8567
3.40967
4.97813
13.309
2.90486
3.46511
5.07947
13.816
2.95816
3.52257
5.17953
14.3356
3.01495
3.58256
5.27969
14.8642
3.0756
3.64547
5.38028
15.3969
3.14022
3.71151
5.48145
15.9314
3.20879
3.78078
5.58317
16.4649
3.28121
3.85326
5.68526
16.9939
3.35729
3.92879
5.78736
17.5137
3.43677
4.00716
5.88893
18.0175
3.51937
4.08816
5.98946
18.4947
3.60483
4.17176
6.08884
18.9278
3.69285
4.258
6.18707
19.2921
3.78328
4.34662
6.28049
19.5923
3.87606
4.43771
6.36865
19.8665
3.96661
4.52456
6.45118
20.1275
4.04737
4.59936
6.53238
20.3117
4.11577
4.65985
6.58596
20.443
4.17002
4.70234
6.61791
20.5067
4.20843
4.72621
6.62872
20.4718
4.22522
4.73114
6.6201
20.3509
4.21811
4.71619
6.59183
20.1576
4.18511
4.68165
6.54746
19.8967
4.12712
4.62866
6.49348
19.5712
4.05184
4.5636
6.43175
19.1907
3.96679
4.49495
6.36605
18.7641
3.87971
4.42781
6.29983
18.3014
3.79725
4.36594
6.23585
17.8125
3.7231
4.3119
6.17585
17.3059
3.65952
4.26705
6.12052
16.788
3.60771
4.23189
6.06971
16.2645
3.56851
4.20685
6.024
15.7391
3.54436
4.19617
5.99656
15.2259
3.53726
4.20552
6.00093
14.7461
3.54588
4.23224
6.02678
14.2876
3.56898
4.27371
6.06456
13.8418
3.60543
4.32774
6.1093
13.4024
3.65415
4.39241
6.15718
12.9639
3.71415
4.46615
6.20558
12.5213
3.78456
4.54773
6.25279
12.0699
3.86469
4.63634
6.29774
11.6045
3.95416
4.73167
6.3397
11.1196
4.0531
4.83388
6.37773
10.6084
4.16234
4.94347
6.40971
10.0628
4.28299
5.06003
6.43017
9.47171
4.41389
5.17801
6.4248
8.81807
4.54977
5.27964
6.36188
8.07323
4.67589
5.34227
6.1928
7.17622
4.88524
5.38436
5.84275
6.02461
9.16715
8.76921
7.77451
4.56963
35.4921
15.6816
14.1265
13.5783
13.2372
12.971
12.7647
12.628
12.5672
12.5841
12.6726
12.8381
13.0885
13.4318
13.874
14.417
15.0583
15.7909
16.606
17.4945
18.4498
19.4688
20.5529
21.7078
22.9431
24.2713
25.7075
27.2683
28.9687
30.817
32.8267
34.9976
37.3068
39.6848
41.9787
44.0606
36.2938
15.5798
13.8683
13.2868
12.9405
12.6828
12.4923
12.3747
12.3355
12.3765
12.4983
12.7032
13
13.3969
13.8969
14.4957
15.1818
15.9387
16.7488
17.5966
18.4706
19.3639
20.273
21.1959
22.132
23.0771
24.0196
24.9406
25.7949
26.4993
27.0417
27.3566
27.3446
26.9054
25.9227
23.7671
36.9715
15.479
13.6298
13.0261
12.6791
12.4297
12.251
12.145
12.1167
12.1693
12.3057
12.5309
12.8504
13.2672
13.7753
14.3582
14.9919
15.6499
16.3083
16.9487
17.5581
18.1275
18.6497
19.1107
19.4935
19.7633
19.8438
19.7472
19.4869
19.0933
18.4838
17.6036
16.3974
14.7685
12.8694
10.5958
37.516
15.3697
13.4035
12.7852
12.4393
12.1959
12.0234
11.9204
11.8928
11.9451
12.0813
12.306
12.6204
13.0166
13.4745
13.964
14.451
14.905
15.3022
15.6262
15.8664
16.0097
16.0342
15.9014
15.5408
14.9901
14.3567
13.6234
12.7795
11.8457
10.8056
9.66259
8.46387
7.2237
6.08648
5.01219
37.9449
15.2558
13.1854
12.5564
12.2117
11.9705
11.798
11.6904
11.6544
11.6964
11.8201
12.026
12.3067
12.6405
12.9925
13.3221
13.592
13.7734
13.8489
13.8051
13.625
13.2788
12.7178
11.8924
11.0091
10.1136
9.22753
8.35982
7.52148
6.72232
5.96133
5.27416
4.64745
4.05733
3.46047
3.15632
38.2691
15.14
12.9731
12.3343
11.9895
11.7468
11.5688
11.4502
11.3995
11.4242
11.5257
11.6972
11.9181
12.1524
12.3539
12.4778
12.4891
12.367
12.0974
11.6609
11.0278
10.1691
9.09371
8.08887
7.17739
6.38126
5.69612
5.10642
4.61267
4.18655
3.78674
3.40183
3.08802
2.86864
2.68364
2.65691
38.4981
15.0227
12.7653
12.116
11.7691
11.5216
11.3338
11.2006
11.132
11.1356
11.208
11.3318
11.4716
11.5783
11.6004
11.4949
11.2348
10.8062
10.1901
9.37205
8.35588
7.19882
6.19366
5.38515
4.74924
4.26219
3.88281
3.56004
3.27205
3.02277
2.83756
2.67
2.54712
2.48364
2.46635
2.53493
38.6409
14.9044
12.5613
11.9
11.5491
11.2943
11.0944
10.9455
10.859
10.8406
10.8795
10.9452
10.9884
10.9509
10.781
10.4434
9.92267
9.20538
8.28969
7.20958
6.06571
5.0953
4.38033
3.87657
3.49966
3.21327
2.98493
2.81332
2.66892
2.55308
2.47967
2.42367
2.38846
2.38243
2.41563
2.51827
38.7061
14.7855
12.3608
11.686
11.3296
11.0662
10.8541
10.6909
10.5889
10.5498
10.5528
10.5535
10.4907
10.3029
9.94377
9.39079
8.63823
7.69103
6.60015
5.48834
4.53013
3.86148
3.39861
3.06931
2.84933
2.6903
2.57078
2.49492
2.44168
2.40312
2.37804
2.3621
2.35811
2.37385
2.42363
2.53733
38.7022
14.6664
12.1641
11.4745
11.1118
10.8399
10.6172
10.4433
10.3299
10.2727
10.239
10.171
9.9994
9.66457
9.13082
8.39376
7.46167
6.38404
5.28234
4.32535
3.63439
3.16002
2.85525
2.65556
2.53761
2.46375
2.41889
2.39468
2.38109
2.37313
2.36935
2.3697
2.37762
2.40108
2.45545
2.57128
38.6372
14.5478
11.9718
11.2665
10.8972
10.6182
10.3882
10.2085
10.0889
10.0168
9.94685
9.80945
9.53175
9.06081
8.37751
7.4976
6.45694
5.361
4.37262
3.62151
3.1072
2.77548
2.58418
2.47503
2.41762
2.39094
2.38216
2.38296
2.3876
2.3932
2.39907
2.40633
2.41876
2.44442
2.49898
2.61366
38.5191
14.4304
11.7845
11.0631
10.6879
10.4041
10.1709
9.99116
9.87069
9.78707
9.68218
9.47726
9.10032
8.50947
7.70733
6.73224
5.6567
4.62757
3.79608
3.19933
2.8151
2.59211
2.47168
2.41225
2.38983
2.38846
2.39755
2.41063
2.42397
2.43584
2.44618
2.45648
2.47061
2.49653
2.54994
2.66261
38.3551
14.3146
11.6031
10.8654
10.4854
10.1999
9.96853
9.79452
9.6782
9.58609
9.44816
9.17992
8.7124
8.01961
7.13177
6.10937
5.05775
4.13453
3.44026
2.96208
2.6753
2.51855
2.44065
2.4104
2.40807
2.42023
2.43834
2.45741
2.47481
2.48958
2.50202
2.51381
2.52873
2.55452
2.60676
2.7177
38.152
14.2009
11.428
10.6745
10.2913
10.0074
9.78287
9.62016
9.51242
9.41468
9.24741
8.92083
8.37006
7.59424
6.65411
5.62415
4.63215
3.8195
3.22487
2.83874
2.62035
2.50539
2.45421
2.44179
2.45092
2.47024
2.49274
2.51445
2.53352
2.54947
2.56292
2.57562
2.59121
2.61716
2.66847
2.77692
37.9161
14.0897
11.2599
10.4913
10.1067
9.82784
9.61496
9.46847
9.37312
9.27322
9.08107
8.69959
8.07341
7.23358
6.26792
5.25984
4.34172
3.62157
3.10702
2.78847
2.61468
2.52774
2.49424
2.4927
2.50824
2.53112
2.55538
2.57784
2.59717
2.61334
2.62724
2.64067
2.65712
2.68335
2.73388
2.84016
37.6532
13.9812
11.0991
10.3162
9.93209
9.66183
9.46494
9.33882
9.25918
9.16057
8.94601
8.51376
7.8234
6.93477
5.9607
4.99429
4.15216
3.50383
3.05229
2.78352
2.64093
2.57323
2.55128
2.55628
2.57516
2.59939
2.62381
2.64579
2.66448
2.68023
2.69419
2.70825
2.72556
2.75249
2.80278
2.90734
37.3684
13.8755
10.9457
10.1496
9.76796
9.50941
9.33225
9.22974
9.16841
9.07423
8.839
8.361
7.61679
6.69208
5.72251
4.80487
4.03419
3.44067
3.03915
2.80912
2.68915
2.63477
2.62031
2.62903
2.64927
2.6734
2.69686
2.71747
2.73481
2.74962
2.76326
2.77778
2.79619
2.82427
2.87492
2.97831
37.0661
13.7726
10.7999
9.99176
9.6143
9.37022
9.21575
9.13923
9.09831
9.01085
8.75691
8.23839
7.4494
6.50071
5.54173
4.67195
3.96188
3.41903
3.0593
2.85702
2.75341
2.70828
2.69855
2.70908
2.72931
2.75229
2.77392
2.79241
2.80781
2.82105
2.83407
2.84902
2.8687
2.89835
2.94999
3.05285
36.7503
13.6724
10.6614
9.84248
9.47088
9.24358
9.11392
9.06496
9.04645
8.9671
8.69652
8.14252
7.31681
6.35297
5.40873
4.58447
3.92312
3.42489
3.10154
2.92117
2.82987
2.79126
2.78436
2.79536
2.81456
2.83553
2.85458
2.87028
2.88295
2.89428
2.90644
2.92171
2.94277
2.97438
3.02763
3.13066
36.4245
13.5748
10.53
9.70158
9.33726
9.12856
9.02506
9.00438
9.01008
8.93991
8.65465
8.06986
7.21491
6.24281
5.31679
4.53293
3.90902
3.45021
3.15984
2.99775
2.91607
2.88209
2.87669
2.88715
2.90447
2.92269
2.93837
2.95053
2.9601
2.96913
2.98012
2.99554
3.01804
3.05194
3.10745
3.2114
36.0918
13.4795
10.4054
9.56872
9.21288
9.02402
8.94736
8.95516
8.98644
8.92634
8.62814
8.01713
7.14006
6.16531
5.25955
4.50567
3.91625
3.49486
3.2316
3.08448
3.01039
2.97965
2.97473
2.98383
2.99855
3.01316
3.02479
3.03297
3.03898
3.04529
3.05476
3.07014
3.09409
3.13062
3.18902
3.29471
35.7545
13.3863
10.2873
9.4435
9.09706
8.92879
8.87903
8.91551
8.97311
8.92363
8.6142
7.98155
7.08919
6.11635
5.2308
4.49859
3.94111
3.55482
3.31449
3.17972
3.11163
3.08307
3.07781
3.08483
3.09607
3.10644
3.11354
3.11723
3.11918
3.1223
3.12992
3.14505
3.17047
3.20994
3.2719
3.3802
35.4149
13.2949
10.1752
9.32545
8.98911
8.8417
8.81846
8.88374
8.96795
8.92944
8.61051
7.96076
7.05972
6.09238
5.22387
4.51031
3.98272
3.62731
3.40655
3.28221
3.21886
3.19159
3.18525
3.18936
3.19648
3.2021
3.20415
3.2028
3.20015
3.19963
3.20504
3.21972
3.24662
3.28936
3.35557
3.46743
35.0747
13.2052
10.0687
9.21408
8.88833
8.76167
8.76423
8.85822
8.96909
8.94173
8.61508
7.9528
7.04949
6.09053
5.23291
4.53946
4.04116
3.71102
3.5067
3.39099
3.33125
3.30453
3.2963
3.29677
3.29923
3.29957
3.29602
3.28906
3.28125
3.27659
3.27941
3.2934
3.32176
3.36801
3.43923
3.55592
34.7355
13.1168
9.9673
9.10889
8.794
8.6877
8.71514
8.83751
8.97493
8.95869
8.62626
7.95591
7.05653
6.10835
5.2579
4.58412
4.11333
3.80455
3.61399
3.50526
3.44837
3.42116
3.41014
3.40635
3.40362
3.39816
3.38844
3.37527
3.3617
3.35238
3.35217
3.36513
3.39465
3.44445
3.52186
3.64527
34.3984
13.0296
9.87068
9.00939
8.70544
8.61888
8.67016
8.82042
8.98408
8.97883
8.64265
7.96838
7.07676
6.13974
5.30058
4.64678
4.19801
3.90681
3.72752
3.62498
3.56939
3.54055
3.52596
3.51733
3.50891
3.49713
3.48065
3.46063
3.44067
3.42611
3.42237
3.43375
3.4639
3.51782
3.60281
3.73334
34.0644
12.9434
9.77839
8.91511
8.62205
8.55442
8.62844
8.80598
8.99536
9.00095
8.66312
7.9886
7.10673
6.18371
5.35972
4.72417
4.29345
4.01681
3.84789
3.74912
3.69325
3.66174
3.6429
3.62893
3.61434
3.5957
3.57186
3.5443
3.51729
3.49689
3.48904
3.49823
3.52855
3.587
3.67922
3.81498
33.7341
12.8579
9.69004
8.82559
8.54325
8.49366
8.58929
8.79334
9.00781
9.02412
8.68674
8.01532
7.14543
6.23881
5.43214
4.81345
4.39871
4.13542
3.97354
3.87638
3.81887
3.78382
3.76014
3.74036
3.71913
3.6931
3.66125
3.62547
3.59072
3.5639
3.55138
3.5578
3.58827
3.65074
3.74876
3.88758
33.4084
12.7731
9.6053
8.74042
8.46855
8.43603
8.55215
8.78185
9.0206
9.04754
8.71267
8.04747
7.19186
6.3035
5.51496
4.91438
4.51431
4.26071
4.10301
4.00557
3.94522
3.90587
3.87684
3.85085
3.82257
3.78862
3.7481
3.70337
3.66025
3.62651
3.60888
3.61209
3.64245
3.70781
3.80967
3.9489
33.0881
12.689
9.52378
8.65924
8.3975
8.38112
8.51679
8.7711
9.03269
9.06958
8.73928
8.08372
7.2449
6.377
5.60983
5.02676
4.63797
4.39098
4.23486
4.13546
4.07126
4.027
3.99223
3.95971
3.924
3.88161
3.83175
3.77742
3.72543
3.68442
3.66139
3.66101
3.69045
3.75706
3.8598
3.99615
32.7733
12.6054
9.44519
8.58174
8.32977
8.32882
8.48293
8.76053
9.04341
9.09006
8.76631
8.12316
7.30372
6.4588
5.71401
5.14738
4.76739
4.5249
4.36759
4.2648
4.19595
4.14635
4.10559
4.06632
4.02285
3.97151
3.9117
3.84724
3.78615
3.73782
3.70921
3.70477
3.73195
3.79703
3.89649
4.02566
32.4643
12.5221
9.36911
8.50758
8.26531
8.27882
8.45026
8.74979
9.0525
9.10898
8.79368
8.16539
7.3675
6.54723
5.82502
5.27343
4.89988
4.65886
4.49933
4.3923
4.31831
4.26313
4.21628
4.17015
4.11867
4.05793
3.98765
3.91281
3.84281
3.78736
3.75299
3.74357
3.76616
3.82547
3.91628
4.03323
32.1615
12.4381
9.29596
8.43696
8.20382
8.23081
8.41856
8.73868
9.05984
9.12639
8.82136
8.21005
7.43542
6.64069
5.9406
5.40249
5.0333
4.79163
4.62872
4.51682
4.43745
4.37666
4.32379
4.27081
4.21115
4.14063
4.05954
3.97452
3.89637
3.8344
3.79347
3.77687
3.79098
3.8387
3.91457
4.01236
31.8682
12.3576
9.22592
8.36958
8.14501
8.18456
8.38768
8.72703
9.0654
9.14243
8.84932
8.25679
7.50663
6.73765
6.05871
5.53241
5.16573
4.92176
4.75453
4.63738
4.55259
4.48638
4.42772
4.36804
4.30012
4.21956
4.12766
4.0333
3.94851
3.88153
3.83097
3.80301
3.80249
3.83155
3.88657
3.96257
31.5839
12.28
9.15869
8.30513
8.08864
8.13987
8.35748
8.71477
9.06924
9.15724
8.87757
8.30525
7.58024
6.83661
6.17739
5.66118
5.29541
5.04782
4.87564
4.75311
4.66311
4.59185
4.52782
4.46172
4.38558
4.29491
4.1927
4.09069
4.0017
3.92537
3.86288
3.81749
3.79444
3.79781
3.8282
3.88681
31.3079
12.2049
9.09396
8.24337
8.03448
8.09661
8.32785
8.70185
9.07148
9.17099
8.90608
8.35503
7.65533
6.93607
6.29483
5.78694
5.42073
5.16853
4.99103
4.86325
4.76849
4.69278
4.62397
4.55188
4.4677
4.36717
4.25584
4.14848
4.0544
3.96926
3.88718
3.8142
3.75915
3.7319
3.73506
3.79019
31.0397
12.1314
9.03146
8.18406
7.98235
8.05465
8.29875
8.6883
9.07225
9.18383
8.9348
8.40569
7.73096
7.03459
6.40931
5.90804
5.54026
5.28274
5.09986
4.9672
4.86835
4.78899
4.71619
4.63872
4.54688
4.43725
4.31896
4.21032
4.11296
4.01099
3.89751
3.78381
3.68899
3.63343
3.62355
3.68596
30.7789
12.0592
8.97095
8.12699
7.93207
8.0139
8.27012
8.67417
9.07173
9.19591
8.96367
8.45678
7.80619
7.13085
6.51936
6.02311
5.65293
5.38958
5.20144
5.0645
4.96243
4.88043
4.80461
4.72261
4.62377
4.50659
4.38496
4.2792
4.17548
4.04453
3.88369
3.71706
3.58184
3.50878
3.50288
3.58267
30.5251
11.9878
8.91218
8.07195
7.88349
7.97427
8.24194
8.65955
9.07013
9.20738
8.99259
8.5078
7.88011
7.22364
6.62375
6.13109
5.75809
5.48863
5.29526
5.15479
5.05056
4.9671
4.8895
4.80413
4.69942
4.57734
4.45814
4.35793
4.23955
4.06222
3.83662
3.61166
3.44514
3.37051
3.38301
3.48561
30.278
11.9169
8.85494
8.01878
7.83649
7.93571
8.21421
8.64451
9.06763
9.21838
9.02141
8.55826
7.95181
7.31186
6.72141
6.23113
5.85515
5.57965
5.38104
5.23781
5.13257
5.04908
4.97127
4.88411
4.77529
4.65243
4.54209
4.44783
4.30097
4.05721
3.75393
3.4757
3.29367
3.23102
3.27079
3.39885
30.0374
11.8463
8.79904
7.96731
7.79095
7.89816
8.18694
8.62918
9.06444
9.22899
9.04997
8.60758
8.02035
7.39432
6.81117
6.32213
5.94304
5.6622
5.45882
5.31329
5.20826
5.12642
5.05039
4.96367
4.85344
4.73589
4.64026
4.54881
4.35563
4.02674
3.64329
3.32523
3.14407
3.10194
3.17155
3.32499
29.803
11.7757
8.7443
7.91738
7.74677
7.86157
8.16013
8.61366
9.06074
9.23927
9.078
8.65505
8.08458
7.46964
6.89153
6.40256
6.02019
5.73454
5.5276
5.38099
5.27756
5.19901
5.12725
5.04408
4.93627
4.83251
4.75571
4.6602
4.40293
3.97724
3.51996
3.17773
3.00879
2.99363
3.08982
3.26598
29.5747
11.705
8.69056
7.86886
7.70385
7.82589
8.13379
8.59805
9.05666
9.24919
9.10512
8.69981
8.14322
7.53627
6.96086
6.47068
6.08465
5.79466
5.58512
5.43903
5.33952
5.26691
5.20226
5.12674
5.02638
4.94542
4.88938
4.78169
4.4482
3.92299
3.40102
3.04631
2.89656
2.90941
3.02882
3.2242
29.3523
11.634
8.63766
7.82162
7.66211
7.7911
8.10794
8.58244
9.0523
9.25867
9.13082
8.74087
8.19488
7.59271
7.01771
6.52511
6.13511
5.84116
5.62987
5.48581
5.39261
5.32945
5.27601
5.21311
5.12601
5.07443
5.04102
4.91595
4.50263
3.88117
3.30212
2.94401
2.8174
2.85469
2.98967
3.20007
29.1356
11.5626
8.58549
7.77554
7.62146
7.75715
8.08258
8.56689
9.04772
9.26751
9.15451
8.77717
8.23828
7.63778
7.06114
6.5651
6.17085
5.87333
5.66121
5.52082
5.43653
5.38649
5.34921
5.30444
5.23689
5.22127
5.2103
5.06882
4.58104
3.87076
3.2416
2.88725
2.77588
2.82523
2.96987
3.19243
28.9246
11.4907
8.53392
7.73052
7.58183
7.72401
8.05772
8.55146
9.04293
9.27547
9.17553
8.8077
8.27234
7.67067
7.09072
6.59044
6.19164
5.89086
5.67889
5.54394
5.47142
5.43837
5.42222
5.40134
5.36014
5.3855
5.396
5.24652
4.69975
3.91806
3.24905
2.87645
2.76366
2.8169
2.9674
3.20009
28.7192
11.4182
8.48287
7.68645
7.54316
7.69165
8.03337
8.53618
9.03788
9.28226
9.19319
8.83153
8.29627
7.691
7.10643
6.60117
6.19736
5.89334
5.68305
5.55587
5.49735
5.48468
5.49435
5.50331
5.49612
5.56248
5.59571
5.45771
4.89125
4.05085
3.3163
2.9033
2.77579
2.82668
2.98052
3.22192
28.5193
11.3452
8.43224
7.64326
7.50538
7.66003
8.00951
8.52104
9.03249
9.28751
9.20682
8.84788
8.30956
7.6987
7.10845
6.59739
6.18757
5.88236
5.67497
5.55573
5.51303
5.52365
5.56326
5.60811
5.6406
5.74647
5.81462
5.71663
5.16309
4.27171
3.44839
2.96802
2.81058
2.85276
3.00782
3.25687
28.3248
11.2716
8.38199
7.60086
7.46844
7.62912
7.98613
8.50605
9.02664
9.29085
9.21579
8.85614
8.31196
7.69394
7.09706
6.57894
6.1643
5.85929
5.65412
5.54226
5.51528
5.55139
5.62458
5.71027
5.78955
5.93094
6.0493
6.02189
5.52206
4.59563
3.6612
3.07735
2.86906
2.89428
3.04825
3.30402
28.1357
11.1975
8.33205
7.5592
7.43228
7.59891
7.96323
8.49117
9.02019
9.29188
9.21952
8.85587
8.30346
7.67702
7.07256
6.5465
6.13008
5.82419
5.62005
5.51413
5.50096
5.56275
5.67173
5.80087
5.93388
6.1093
6.2902
6.36133
5.96862
5.04054
3.97947
3.24597
2.95521
2.95119
3.10101
3.36252
27.9519
11.1229
8.2824
7.51822
7.39686
7.56935
7.94078
8.47636
9.01295
9.29021
9.21752
8.84681
8.28422
7.64829
7.03456
6.50384
6.08526
5.77731
5.57254
5.47
5.46757
5.55262
5.69666
5.86896
6.05545
6.27008
6.52306
6.71138
6.48703
5.62228
4.43958
3.50209
3.07765
3.02466
3.16546
3.43161
27.7734
11.0479
8.23302
7.47786
7.36214
7.54042
7.91877
8.46154
9.00473
9.28544
9.20938
8.8289
8.25457
7.6083
6.98499
6.45211
6.03063
5.71909
5.51211
5.40974
5.41336
5.51609
5.69113
5.90467
6.14027
6.40719
6.73441
7.03953
7.04047
6.3441
5.08276
3.89029
3.25436
3.11853
3.24129
3.51063
27.6002
10.9727
8.18389
7.4381
7.32809
7.5121
7.89715
8.44665
8.99529
9.2772
9.19482
8.80219
8.2149
7.55687
6.92727
6.39226
5.96729
5.65059
5.44002
5.33427
5.33786
5.44955
5.64755
5.8994
6.1835
6.5006
6.89638
7.31393
7.56877
7.17016
5.95364
4.48785
3.52522
3.2416
3.32862
3.59923
27.4322
10.8972
8.13503
7.3989
7.29467
7.48437
7.8759
8.43159
8.98441
9.26516
9.17367
8.76695
8.16583
7.49555
6.86277
6.3255
5.89673
5.57453
5.35813
5.24501
5.24189
5.35216
5.56084
5.84135
6.17116
6.54773
6.98847
7.5093
7.9991
8.00934
7.05591
5.38827
3.97005
3.40595
3.42815
3.69747
27.2694
10.8216
8.08646
7.36024
7.26187
7.45721
7.85499
8.41625
8.97185
9.24902
9.14588
8.72351
8.10775
7.42697
6.79232
6.2529
5.82012
5.49196
5.26746
5.1433
5.12737
5.22586
5.43073
5.72409
6.0872
6.51294
7.01344
7.61434
8.27426
8.72459
8.29725
6.67987
4.75117
3.66981
3.54653
3.8064
27.1117
10.7461
8.0382
7.32212
7.22967
7.43058
7.83436
8.40051
8.95737
9.22857
9.11151
8.6723
8.04091
7.35349
6.71702
6.17543
5.73834
5.40327
5.16787
5.0308
4.99724
5.07512
5.26186
5.54911
5.92741
6.38781
6.93585
7.59162
8.37704
9.18139
9.45778
8.3524
6.0543
4.16008
3.70012
3.92903
26.9592
10.6708
7.9903
7.28452
7.19805
7.40448
7.81397
8.38426
8.94075
9.20364
9.07073
8.6139
7.96726
7.27556
6.63767
6.09383
5.65216
5.30962
5.06171
4.90959
4.85485
4.90585
5.06305
5.32505
5.69252
6.16574
6.74761
7.45527
8.31558
9.31984
10.2371
10.1588
8.0762
5.23389
3.94447
4.06536
26.8117
10.5959
7.94278
7.24746
7.167
7.37889
7.79376
8.36735
8.92178
9.17414
9.02378
8.54845
7.88894
7.19402
6.555
6.00854
5.56254
5.21256
4.95154
4.78149
4.70326
4.72367
4.84409
5.0666
5.39878
5.85171
6.4344
7.16458
8.06906
9.1781
10.4565
11.4902
10.7482
7.34597
4.40284
4.22668
26.6692
10.5216
7.89571
7.21094
7.13652
7.35378
7.7737
8.34966
8.90029
9.1401
8.97108
8.47685
7.80738
7.10988
6.46979
5.92016
5.47083
5.11336
4.83806
4.64708
4.54512
4.53338
4.61346
4.78824
5.06781
5.47005
6.01671
6.73093
7.64206
8.78601
10.2109
11.8755
13.0267
11.0852
6.01144
4.52865
26.5317
10.4482
7.84933
7.17518
7.10682
7.32933
7.75387
8.33124
8.8764
9.10202
8.91372
8.4012
7.72397
7.02447
6.38309
5.83045
5.37803
5.01339
4.72368
4.51023
4.38342
4.33931
4.37829
4.5023
4.72061
5.05174
5.52346
6.17219
7.04054
8.16807
9.61445
11.458
13.7496
15.1607
10.8661
7.21467
26.4267
10.3907
7.81285
7.14702
7.08339
7.30997
7.73788
8.3156
8.85493
9.06742
8.86202
8.33485
7.65132
6.94974
6.30606
5.7516
5.29655
4.92526
4.62258
4.38909
4.23628
4.16067
4.15986
4.23417
4.39032
4.64342
5.01876
5.55526
6.30669
7.33403
8.70312
10.5146
12.9296
16.2299
18.3807
9.54713
26.3247
10.334
7.77694
7.11944
7.06055
7.2911
7.72205
8.29943
8.83192
9.03066
8.80842
8.26873
7.58033
6.87767
6.23264
5.67792
5.22131
4.84495
4.53196
4.28274
4.10933
4.01093
3.9811
4.01945
4.13003
4.32374
4.6207
5.0544
5.67594
6.55348
7.76961
9.42574
11.6665
14.712
18.8656
15.2251
26.2259
10.2784
7.74124
7.09202
7.03785
7.27226
7.70593
8.28218
8.80661
8.99055
8.75115
8.19996
7.50731
6.80397
6.15809
5.60362
5.14568
4.76486
4.44257
4.17928
3.98792
3.87079
3.81756
3.82728
3.90108
4.04526
4.27384
4.61167
5.09725
5.79031
6.77469
8.17085
10.1481
12.9444
16.9944
23.6558
25.9017
22.8839
19.238
11.5413
12.2086
13.0765
14.0671
13.7128
10.0243
11.6468
13.6633
15.5071
8.81078
10.5923
13.1497
16.7981
7.91504
9.72577
12.6124
17.7794
7.25706
9.03118
12.1025
18.5965
6.77824
8.49583
11.6683
19.3045
6.42729
8.08668
11.312
19.9286
6.16642
7.77313
11.0245
20.4856
5.96915
7.53085
10.7943
20.9879
5.81711
7.34149
10.6107
21.4452
5.69761
7.1916
10.4646
21.8653
5.60181
7.07136
10.3485
22.2548
5.52351
6.97365
10.2564
22.6193
5.45831
6.89325
10.1835
22.9635
5.40305
6.82629
10.1262
23.2915
5.35543
6.7699
10.0817
23.6069
5.31374
6.72189
10.0475
23.9127
5.27668
6.68056
10.0219
24.2119
5.24322
6.64459
10.0035
24.5068
5.21255
6.61293
9.99113
24.7998
5.18406
6.58479
9.98383
25.093
5.15732
6.5596
9.98101
25.3885
5.13209
6.537
9.98231
25.6883
5.10827
6.51681
9.98765
25.9945
5.08587
6.49902
9.99727
26.3092
5.06498
6.48373
10.0116
26.6348
5.04573
6.47114
10.0315
26.9739
5.02828
6.46151
10.0581
27.3294
5.01279
6.45518
10.0934
27.7051
4.99952
6.45237
10.1385
28.1049
4.98718
6.45036
10.1848
28.5162
4.97569
6.44894
10.2317
28.9408
4.96523
6.4483
10.2794
29.3788
4.95603
6.44867
10.3282
29.8318
4.94842
6.45038
10.3782
30.301
4.94276
6.45386
10.4299
30.7872
4.93956
6.4596
10.4836
31.2917
4.93943
6.46822
10.5399
31.8154
4.94319
6.4804
10.5993
32.3593
4.95189
6.49688
10.6623
32.9248
4.96549
6.5184
10.7297
33.5131
4.98434
6.54594
10.8022
34.1257
5.0089
6.58076
10.8809
34.7641
5.03933
6.62437
10.9668
35.4305
5.07495
6.67881
11.0607
36.1285
5.1165
6.74021
11.1633
36.8636
5.16404
6.8042
11.2769
37.6415
5.21621
6.86836
11.408
38.4698
5.27616
6.93553
11.5537
39.3644
5.35294
7.01551
11.6978
40.3454
5.44997
7.11098
11.8382
41.42
5.56918
7.22458
11.9731
42.5806
5.71159
7.35777
12.0894
43.7706
5.87722
7.49741
12.0917
44.8136
6.07512
7.69415
12.1575
46.0138
6.33208
8.02876
12.4886
48.3013
6.54776
8.35358
12.9852
50.5954
6.72688
8.59516
13.5206
53.4318
6.84043
8.76828
16.0107
56.3818
26.1053
10.2098
7.69691
7.05818
7.00998
7.24913
7.68572
8.25956
8.77272
8.93797
8.67861
8.11572
7.41963
6.71668
6.07103
5.5177
5.05885
4.67392
4.34261
4.06607
3.85956
3.72697
3.65686
3.64571
3.6916
3.79688
3.97042
4.22906
4.59837
5.11945
5.85217
6.88984
8.37951
10.549
13.7955
18.9401
25.9894
10.143
7.65315
7.0247
6.98239
7.22605
7.66494
8.23508
8.73521
8.88037
8.60126
8.02735
7.32822
6.62577
5.98048
5.42792
4.96781
4.57881
4.2392
3.95068
3.7303
3.5826
3.49932
3.4708
3.49261
3.56391
3.68901
3.87587
4.14052
4.50503
4.99852
5.65796
6.52564
7.64217
9.03815
10.7259
25.8782
10.0781
7.61035
6.99184
6.95531
7.20322
7.64374
8.20893
8.69448
8.81905
8.52136
7.93793
7.23686
6.53566
5.89151
5.34011
4.87923
4.48701
4.14151
3.84487
3.61525
3.45743
3.36606
3.32627
3.33186
3.37993
3.47134
3.61028
3.80796
4.079
4.4428
4.92485
5.5572
6.37728
7.41315
8.63317
25.7714
10.0149
7.5685
6.95961
6.92872
7.18059
7.62203
8.18097
8.65061
8.75437
8.43944
7.84799
7.14605
6.44685
5.80473
5.25487
4.79373
4.39922
4.05034
3.74959
3.51565
3.35358
3.25688
3.21046
3.20594
3.23885
3.30736
3.41526
3.57026
3.78295
4.06775
4.44428
4.93863
5.58505
6.42222
7.47794
25.6689
9.95352
7.5276
6.92805
6.90262
7.15811
7.59969
8.15113
8.60379
8.68674
8.35601
7.75799
7.05623
6.35984
5.72069
5.17281
4.71189
4.3161
3.96596
3.66505
3.43115
3.26857
3.1695
3.11995
3.10957
3.13231
3.18612
3.27393
3.40126
3.57601
3.80941
4.11717
4.52105
5.05128
5.74852
6.66827
25.5702
9.89402
7.48762
6.89714
6.87699
7.13571
7.57664
8.11936
8.5541
8.61657
8.27154
7.66842
6.96785
6.2751
5.63996
5.09445
4.63424
4.23777
3.88885
3.59173
3.36099
3.20039
3.10102
3.05073
3.03708
3.0534
3.09817
3.17322
3.2825
3.43217
3.63131
3.89302
4.23599
4.68744
5.28797
6.10272
25.4753
9.83636
7.44858
6.86691
6.85179
7.11336
7.55279
8.08557
8.50165
8.54426
8.1865
7.57969
6.88133
6.19308
5.56303
5.02036
4.56128
4.16473
3.8195
3.52924
3.30399
3.14716
3.04953
2.99911
2.98369
2.99656
3.03607
3.10316
3.20066
3.33351
3.50934
3.73946
4.04044
4.4373
4.96957
5.70513
25.3839
9.78054
7.41045
6.83735
6.82701
7.09097
7.52806
8.04978
8.44659
8.4702
8.10132
7.49221
6.79707
6.1142
5.49033
4.95097
4.49337
4.09771
3.75784
3.47636
3.2585
3.10647
3.01148
2.96174
2.94576
2.95718
2.99389
3.05611
3.14586
3.26721
3.42673
3.63445
3.90546
4.26314
4.74571
5.42125
25.2957
9.72657
7.37323
6.80846
6.80261
7.06847
7.50236
8.01198
8.38912
8.39479
8.0164
7.40635
6.71543
6.03879
5.42203
4.88645
4.43024
4.03719
3.70452
3.43267
3.223
3.07621
2.98428
2.93579
2.92019
2.93141
2.96685
3.02614
3.1107
3.22393
3.37162
3.56283
3.81158
4.14001
4.58518
5.2145
25.2105
9.67428
7.33709
6.78025
6.77857
7.04577
7.47566
7.97224
8.3295
8.31842
7.93213
7.32247
6.63673
5.9671
5.35789
4.82685
4.37234