/*--------------------------------*- C++ -*----------------------------------*\
| =========                 |                                                 |
| \\      /  F ield         | OpenFOAM: The Open Source CFD Toolbox           |
|  \\    /   O peration     | Version:  v2012                                 |
|   \\  /    A nd           | Website:  www.openfoam.com                      |
|    \\/     M anipulation  |                                                 |
\*---------------------------------------------------------------------------*/
FoamFile
{
    version     2.0;
    format      ascii;
    class       volScalarField;
    location    "620";
    object      p;
}
// * * * * * * * * * * * * * * * * * * * * * * * * * * * * * * * * * * * * * //

dimensions      [0 2 -2 0 0 0 0];


internalField   nonuniform List<scalar> 
6108
(
0.32758
0.327563
0.327622
0.327735
0.327886
0.328063
0.328257
0.328463
0.328678
0.328897
0.32912
0.329344
0.329569
0.329798
0.33003
0.330267
0.330515
0.330824
0.331334
0.332074
0.327569
0.327557
0.327622
0.327739
0.327894
0.328074
0.328272
0.328482
0.3287
0.328924
0.329152
0.329382
0.329615
0.329851
0.33009
0.330332
0.330574
0.330838
0.331145
0.331413
0.327453
0.327464
0.327548
0.32768
0.327846
0.328034
0.328237
0.32845
0.328671
0.328897
0.329127
0.329359
0.329594
0.329831
0.330071
0.330307
0.330537
0.330767
0.330964
0.331057
0.327255
0.327313
0.327435
0.327595
0.327781
0.327981
0.328193
0.328413
0.328637
0.328865
0.329096
0.329329
0.329563
0.329799
0.330034
0.330261
0.33048
0.33069
0.330852
0.330906
0.326993
0.327124
0.327303
0.327501
0.327711
0.327931
0.328156
0.328384
0.328614
0.328845
0.329078
0.329312
0.329547
0.329783
0.330016
0.33024
0.330454
0.330652
0.330799
0.330842
0.326676
0.326903
0.327159
0.327404
0.327646
0.327889
0.328128
0.328365
0.328602
0.328837
0.329073
0.329309
0.329545
0.329781
0.330015
0.330239
0.330454
0.330652
0.330799
0.330842
0.326322
0.326679
0.327024
0.327322
0.327598
0.327861
0.328113
0.32836
0.328602
0.328842
0.32908
0.329318
0.329556
0.329794
0.330031
0.330259
0.330479
0.330689
0.330851
0.330906
0.326019
0.326502
0.326928
0.32727
0.327574
0.327852
0.328116
0.32837
0.328618
0.328862
0.329103
0.329343
0.329583
0.329824
0.330067
0.330304
0.330535
0.330765
0.330963
0.331056
0.325904
0.326445
0.326902
0.327258
0.327573
0.327861
0.32813
0.328388
0.328638
0.328883
0.329124
0.329364
0.329603
0.329843
0.330085
0.330328
0.330572
0.330836
0.331143
0.331412
0.326199
0.326525
0.326895
0.327245
0.327558
0.327845
0.328113
0.328368
0.328615
0.328856
0.329093
0.329326
0.329558
0.32979
0.330025
0.330264
0.330513
0.330823
0.331332
0.332072
0.328987
0.32837
0.32795
0.327698
0.328998
0.32837
0.327941
0.327686
0.328808
0.328195
0.32778
0.327545
0.328429
0.327855
0.327476
0.32729
0.327883
0.327371
0.327041
0.326933
0.327215
0.326778
0.326476
0.326467
0.326452
0.326052
0.325688
0.325849
0.325259
0.324879
0.32456
0.325141
0.323074
0.323511
0.323957
0.32405
0.324098
0.325513
0.325605
0.318954
0.780037
0.778875
0.778203
0.778243
0.778077
0.776255
0.769277
0.754744
0.734406
0.710371
0.683885
0.655911
0.627215
0.59844
0.570131
0.54275
0.51668
0.492225
0.469606
0.448971
0.430394
0.413878
0.399366
0.38676
0.375933
0.366731
0.358993
0.352548
0.347225
0.342864
0.339326
0.336479
0.334197
0.33238
0.330948
0.329834
0.779509
0.777949
0.777759
0.778555
0.778764
0.776182
0.767443
0.752191
0.73237
0.708863
0.682824
0.655214
0.626806
0.598248
0.570095
0.542818
0.516809
0.492383
0.46977
0.449124
0.430524
0.413979
0.399439
0.386809
0.375961
0.366745
0.358997
0.352548
0.347227
0.342863
0.339328
0.336491
0.334215
0.332403
0.33097
0.329852
0.779835
0.777979
0.777937
0.778395
0.7771
0.771937
0.761299
0.745648
0.726075
0.703104
0.677677
0.650627
0.622696
0.594532
0.566699
0.539685
0.513899
0.48967
0.46724
0.446773
0.428351
0.411984
0.397623
0.385173
0.374502
0.365457
0.357873
0.351578
0.346402
0.34218
0.338768
0.336031
0.333842
0.332098
0.330717
0.329637
0.781853
0.779554
0.778609
0.77698
0.772866
0.765089
0.753067
0.737021
0.717419
0.694772
0.669814
0.643248
0.615759
0.587978
0.560476
0.533759
0.508254
0.484306
0.462172
0.44202
0.423934
0.407921
0.393926
0.381845
0.37154
0.362851
0.355605
0.349626
0.344741
0.340788
0.337618
0.33509
0.333076
0.331472
0.330198
0.329199
0.784901
0.781699
0.77871
0.77436
0.767411
0.757353
0.74391
0.72711
0.707176
0.684529
0.659745
0.633429
0.60621
0.578696
0.551462
0.525025
0.49983
0.476239
0.454514
0.434824
0.417247
0.401779
0.388351
0.376843
0.367104
0.358961
0.352233
0.346737
0.342294
0.338742
0.335931
0.333715
0.331961
0.330563
0.329445
0.328563
0.787328
0.782508
0.77716
0.770131
0.760636
0.748497
0.733536
0.71573
0.695208
0.672286
0.647418
0.621134
0.594015
0.566652
0.539621
0.513452
0.488609
0.465459
0.444271
0.425205
0.408324
0.393603
0.380951
0.370225
0.361253
0.353849
0.347818
0.342968
0.339116
0.336096
0.333759
0.331956
0.330545
0.329416
0.328499
0.327771
0.787415
0.780711
0.773277
0.763826
0.752106
0.738101
0.721659
0.702755
0.681476
0.658066
0.6329
0.606452
0.579269
0.551935
0.525036
0.499119
0.474662
0.452042
0.431522
0.413246
0.397252
0.383484
0.371817
0.362079
0.354071
0.34759
0.342428
0.33838
0.335253
0.332885
0.331132
0.32985
0.328876
0.32809
0.327425
0.326874
0.784126
0.775812
0.766706
0.755244
0.741665
0.726027
0.708194
0.688167
0.666019
0.641954
0.616301
0.589503
0.562096
0.534671
0.507833
0.482155
0.458131
0.436142
0.416436
0.399131
0.384224
0.371616
0.36114
0.352584
0.34572
0.340326
0.336181
0.33306
0.330774
0.329175
0.328124
0.3275
0.327049
0.326616
0.32615
0.325673
0.777758
0.767818
0.75736
0.744335
0.729248
0.712199
0.693082
0.671943
0.648857
0.624013
0.597721
0.570418
0.542652
0.51504
0.488226
0.462813
0.439312
0.418097
0.399391
0.383265
0.36966
0.358421
0.349325
0.342117
0.336532
0.332322
0.32926
0.327099
0.325595
0.324652
0.32425
0.324244
0.324204
0.323946
0.3236
0.323254
0.768163
0.756766
0.745292
0.731098
0.71481
0.696567
0.676295
0.65409
0.630041
0.60434
0.577302
0.549387
0.521181
0.493354
0.466601
0.441562
0.418759
0.398544
0.381088
0.366391
0.354316
0.344632
0.337056
0.331283
0.327019
0.324009
0.322034
0.320852
0.320185
0.320006
0.320269
0.320779
0.321397
0.322117
0.322948
0.323632
0.310254
0.310443
0.308109
0.297969
0.308107
0.307671
0.305927
0.302718
0.307157
0.306659
0.305609
0.304369
0.306621
0.306164
0.305567
0.304974
0.306156
0.305879
0.305521
0.305194
0.305829
0.305663
0.305431
0.305233
0.305549
0.305458
0.305309
0.305191
0.305288
0.305259
0.305178
0.305116
0.305045
0.305074
0.305052
0.305036
0.304825
0.30491
0.304941
0.304974
0.304633
0.304771
0.304857
0.304942
0.304469
0.304663
0.304808
0.30495
0.304338
0.304589
0.304799
0.305002
0.304238
0.304549
0.304829
0.305107
0.304168
0.30454
0.304899
0.305261
0.304123
0.304559
0.305004
0.305461
0.304095
0.304596
0.305136
0.305697
0.304074
0.304638
0.305282
0.305954
0.304046
0.304671
0.305423
0.30621
0.303993
0.304671
0.305534
0.306432
0.303895
0.304615
0.305585
0.306575
0.303736
0.304483
0.305557
0.306603
0.303489
0.304253
0.305444
0.306515
0.303094
0.303871
0.305195
0.306273
0.302541
0.30332
0.304737
0.305848
0.301844
0.302604
0.304027
0.30524
0.300946
0.301683
0.303076
0.304416
0.299789
0.300518
0.301881
0.30333
0.298368
0.29911
0.300454
0.302007
0.296694
0.297474
0.298821
0.300472
0.294796
0.295634
0.296983
0.298679
0.292728
0.29363
0.294959
0.296646
0.290568
0.291516
0.292797
0.29444
0.28839
0.289355
0.29057
0.292137
0.286259
0.287209
0.288356
0.289817
0.284244
0.285163
0.286229
0.287562
0.282405
0.283296
0.284259
0.285445
0.280809
0.281655
0.282502
0.28353
0.279492
0.280269
0.280993
0.281857
0.278446
0.279142
0.279747
0.280452
0.277658
0.278267
0.278761
0.279329
0.277109
0.277635
0.278025
0.278481
0.27678
0.27723
0.277532
0.277889
0.276653
0.277038
0.277267
0.27754
0.276712
0.277043
0.277219
0.277422
0.276939
0.277227
0.277368
0.277524
0.277318
0.277578
0.277699
0.277826
0.277833
0.278078
0.2782
0.278313
0.27847
0.278716
0.278856
0.278975
0.279215
0.279477
0.279658
0.279801
0.280053
0.280351
0.280597
0.280784
0.280974
0.281327
0.281665
0.281917
0.281964
0.282394
0.282853
0.283185
0.283011
0.283539
0.284144
0.28456
0.2841
0.284743
0.2855
0.285983
0.285207
0.285966
0.28685
0.287349
0.28629
0.287147
0.288077
0.288493
0.287263
0.288178
0.289012
0.289222
0.288001
0.288909
0.28949
0.289506
0.288298
0.289342
0.289665
0.289576
0.754521
0.74223
0.730111
0.715088
0.697859
0.678601
0.657292
0.634066
0.609039
0.582424
0.554571
0.525991
0.497342
0.469378
0.442861
0.418472
0.396722
0.377911
0.362118
0.349233
0.339006
0.331109
0.32518
0.320863
0.317831
0.315806
0.314546
0.313802
0.313359
0.313127
0.313008
0.312885
0.312771
0.312613
0.312216
0.311206
0.736923
0.724136
0.711758
0.696244
0.678327
0.658247
0.636041
0.611875
0.585903
0.558384
0.529732
0.500553
0.47162
0.443797
0.417928
0.394712
0.374611
0.357811
0.344238
0.333628
0.325596
0.319715
0.315563
0.312761
0.310978
0.309943
0.309427
0.309233
0.309236
0.309316
0.309403
0.309419
0.3094
0.3093
0.309018
0.308503
0.716403
0.703467
0.691056
0.675332
0.656974
0.636289
0.613365
0.588406
0.561617
0.533327
0.504055
0.474543
0.445714
0.418556
0.393967
0.372601
0.354789
0.340524
0.329534
0.321379
0.315557
0.311574
0.308993
0.307448
0.306644
0.306349
0.306385
0.306621
0.306949
0.307281
0.307566
0.307747
0.30786
0.307883
0.307698
0.307396
0.693751
0.68084
0.668515
0.652734
0.63416
0.613073
0.589624
0.564061
0.536653
0.507832
0.478263
0.448862
0.420712
0.394892
0.372277
0.353382
0.338314
0.326825
0.318435
0.31257
0.308661
0.306212
0.304822
0.304188
0.304077
0.304319
0.304764
0.305303
0.305856
0.306362
0.306791
0.307071
0.307175
0.30719
0.307118
0.306915
0.669559
0.656808
0.644636
0.6289
0.610306
0.58901
0.565249
0.539314
0.511561
0.482559
0.45315
0.424435
0.397624
0.373808
0.353733
0.337682
0.325489
0.316673
0.310601
0.30663
0.304199
0.302873
0.302327
0.302317
0.302661
0.303212
0.303854
0.304501
0.305097
0.305602
0.305999
0.306291
0.306467
0.306514
0.306459
0.306336
0.644318
0.631867
0.619891
0.604317
0.585855
0.564547
0.540707
0.514676
0.486923
0.458176
0.429466
0.402049
0.377191
0.355888
0.338663
0.325517
0.316028
0.309539
0.305339
0.302799
0.301427
0.300865
0.300845
0.301174
0.301711
0.302347
0.30301
0.303648
0.304231
0.304734
0.305145
0.305464
0.305699
0.305848
0.30591
0.305903
0.618512
0.606473
0.594764
0.579469
0.561268
0.540143
0.51647
0.490653
0.46329
0.435274
0.407807
0.382238
0.359788
0.341267
0.326922
0.316481
0.309324
0.304701
0.301904
0.300366
0.29968
0.299548
0.299774
0.300222
0.300797
0.301435
0.302093
0.302736
0.303339
0.303882
0.304356
0.304753
0.305074
0.305316
0.305477
0.305554
0.592605
0.581068
0.569716
0.554792
0.53698
0.516234
0.492981
0.467702
0.441126
0.414302
0.388552
0.365236
0.345441
0.329726
0.318064
0.309963
0.304685
0.30146
0.299633
0.298727
0.298413
0.29848
0.2988
0.299286
0.299878
0.300534
0.301217
0.301898
0.302551
0.303158
0.303704
0.304178
0.304573
0.304882
0.305105
0.305239
0.567013
0.556049
0.545131
0.530668
0.513377
0.493201
0.470618
0.446189
0.42077
0.39553
0.371848
0.351016
0.333917
0.32084
0.311522
0.305327
0.301472
0.299221
0.298009
0.297458
0.297332
0.297498
0.297872
0.298394
0.299022
0.299718
0.300447
0.301181
0.301894
0.302563
0.303167
0.303697
0.304143
0.304498
0.304766
0.304946
0.542091
0.531754
0.521334
0.507421
0.490781
0.471355
0.449672
0.426374
0.402417
0.37905
0.357642
0.339355
0.32483
0.314102
0.30673
0.302009
0.299169
0.297554
0.296707
0.296356
0.296344
0.296581
0.297008
0.29758
0.298256
0.299002
0.299783
0.300569
0.301332
0.302047
0.302696
0.303266
0.30375
0.304145
0.304453
0.304677
0.518136
0.508462
0.498595
0.485317
0.469445
0.450927
0.430341
0.408399
0.386127
0.364801
0.345731
0.329915
0.317746
0.309022
0.303197
0.299563
0.297413
0.296197
0.295574
0.295354
0.295427
0.295732
0.296218
0.296844
0.297571
0.298364
0.29919
0.300017
0.300819
0.301573
0.302259
0.302867
0.303388
0.303821
0.304168
0.304435
0.495383
0.486399
0.477128
0.464557
0.449551
0.432069
0.412734
0.392304
0.371844
0.352606
0.335812
0.322308
0.312245
0.305186
0.300545
0.29768
0.295983
0.295022
0.294551
0.294429
0.294579
0.294949
0.295493
0.296169
0.296939
0.297771
0.298634
0.299498
0.300336
0.301127
0.301851
0.302496
0.303055
0.303526
0.303913
0.304224
0.474008
0.465726
0.457084
0.445277
0.431211
0.414861
0.396877
0.378047
0.359429
0.342211
0.327524
0.316178
0.308007
0.302291
0.298511
0.296168
0.294768
0.293979
0.293617
0.293576
0.293795
0.294225
0.294818
0.295535
0.296341
0.297207
0.298104
0.299003
0.299877
0.300706
0.301469
0.302153
0.302752
0.303262
0.30369
0.304044
0.454132
0.446553
0.438558
0.427554
0.414478
0.399317
0.382739
0.36553
0.348695
0.333331
0.320663
0.311326
0.304753
0.300107
0.296935
0.294925
0.293716
0.293046
0.292767
0.292793
0.293071
0.293549
0.294181
0.294932
0.295771
0.296668
0.297597
0.298531
0.299443
0.30031
0.301114
0.301839
0.302478
0.303029
0.303498
0.303895
0.435826
0.428937
0.421595
0.411416
0.399355
0.385408
0.370247
0.354629
0.339464
0.325916
0.315245
0.307528
0.302117
0.298372
0.295702
0.293896
0.292805
0.292216
0.291998
0.292078
0.292402
0.292918
0.293582
0.294362
0.295228
0.296155
0.297116
0.298084
0.299034
0.299941
0.300786
0.301554
0.302234
0.302827
0.303336
0.303776
0.419111
0.412891
0.406197
0.396848
0.385805
0.373069
0.359305
0.345224
0.331646
0.31996
0.311059
0.304478
0.299886
0.296859
0.294663
0.293038
0.29202
0.291483
0.291309
0.29143
0.291789
0.292333
0.293022
0.293826
0.294718
0.295672
0.296662
0.297664
0.298651
0.299599
0.300486
0.301296
0.302018
0.302651
0.3032
0.303682
0.403974
0.398395
0.392331
0.383803
0.37376
0.362211
0.349794
0.337158
0.325169
0.315227
0.307675
0.301974
0.298038
0.295503
0.293716
0.292307
0.291341
0.29084
0.2907
0.290852
0.291235
0.2918
0.292508
0.293331
0.294244
0.295222
0.29624
0.297274
0.298296
0.299282
0.30021
0.301062
0.301826
0.302499
0.303087
0.303608
0.39037
0.385398
0.37994
0.372208
0.363133
0.352725
0.341587
0.330273
0.319855
0.31142
0.304852
0.29991
0.296527
0.294333
0.292855
0.291654
0.290752
0.290283
0.290171
0.290345
0.290745
0.291323
0.292045
0.292883
0.293812
0.29481
0.295852
0.296913
0.297968
0.29899
0.299957
0.300849
0.301653
0.302363
0.302987
0.303544
0.378228
0.373826
0.368942
0.361974
0.35382
0.344493
0.334565
0.324485
0.315479
0.308274
0.302502
0.298216
0.295286
0.29336
0.29208
0.291052
0.290246
0.28981
0.289722
0.289913
0.290323
0.290909
0.291639
0.292485
0.293425
0.294437
0.295498
0.296582
0.297664
0.298718
0.299721
0.30065
0.30149
0.302235
0.302891
0.303479
0.367471
0.363592
0.359246
0.353001
0.345711
0.337392
0.328585
0.319683
0.311873
0.305635
0.300563
0.296827
0.294261
0.29255
0.2914
0.290525
0.289829
0.289425
0.289358
0.28956
0.289976
0.290564
0.291295
0.292143
0.293088
0.294107
0.295178
0.296277
0.29738
0.298461
0.299493
0.300455
0.301328
0.302104
0.302787
0.303399
0.358005
0.354602
0.350754
0.345183
0.338695
0.331293
0.323474
0.315698
0.308942
0.303451
0.298981
0.295698
0.293422
0.291885
0.29084
0.29009
0.289495
0.289128
0.289082
0.289292
0.289708
0.290293
0.291018
0.291861
0.292801
0.293818
0.294891
0.295997
0.297112
0.29821
0.299265
0.300252
0.301153
0.301956
0.30266
0.303286
0.349729
0.346757
0.343365
0.338415
0.332662
0.326096
0.319137
0.312391
0.306562
0.30167
0.29771
0.294797
0.292756
0.291361
0.290411
0.289755
0.289242
0.288922
0.288898
0.289113
0.289525
0.2901
0.290812
0.291641
0.292566
0.29357
0.294633
0.295734
0.29685
0.297955
0.299023
0.300028
0.300951
0.301776
0.302498
0.303129
0.342541
0.339955
0.336979
0.332598
0.327514
0.321714
0.31554
0.309665
0.304596
0.300228
0.296709
0.294102
0.292253
0.290974
0.290105
0.289528
0.289087
0.288815
0.28881
0.289029
0.289431
0.289989
0.29068
0.291483
0.292382
0.29336
0.294399
0.295481
0.296583
0.297682
0.29875
0.299764
0.300704
0.301557
0.302296
0.302914
0.336339
0.334097
0.331499
0.327636
0.323156
0.318051
0.312595
0.307441
0.302986
0.299087
0.295947
0.293595
0.291905
0.290722
0.289923
0.289415
0.289041
0.288814
0.288827
0.289043
0.289431
0.289965
0.290624
0.29139
0.292248
0.293184
0.294183
0.295228
0.296298
0.297372
0.298425
0.299435
0.300392
0.301279
0.302024
0.302591
0.331025
0.32909
0.326833
0.323438
0.319498
0.315011
0.310201
0.305657
0.301712
0.298224
0.295404
0.293266
0.29171
0.290608
0.289868
0.289421
0.289112
0.288927
0.288951
0.289162
0.289529
0.290029
0.290644
0.29136
0.292161
0.293038
0.293976
0.294962
0.295979
0.297005
0.29802
0.299007
0.299971
0.30085
0.301548
0.30208
0.326509
0.324843
0.322896
0.319921
0.316461
0.312517
0.308277
0.304258
0.300748
0.297616
0.295065
0.293109
0.291666
0.290633
0.289946
0.289554
0.289304
0.289158
0.28919
0.28939
0.289728
0.290184
0.290743
0.291391
0.292118
0.292914
0.293768
0.29467
0.295605
0.296556
0.297503
0.298442
0.29937
0.300175
0.300806
0.301357
0.322704
0.321264
0.319614
0.317008
0.313972
0.310505
0.306767
0.303203
0.300065
0.297241
0.29492
0.293119
0.291773
0.290801
0.290158
0.289815
0.289623
0.289513
0.289548
0.289729
0.290029
0.29043
0.290918
0.291482
0.292114
0.292805
0.293549
0.294337
0.295159
0.296
0.296846
0.297704
0.29853
0.299226
0.299833
0.300416
0.319538
0.318321
0.316925
0.31463
0.311969
0.308921
0.305623
0.302454
0.299637
0.297082
0.294961
0.293293
0.292032
0.291114
0.29051
0.29021
0.290074
0.29
0.29003
0.290183
0.290436
0.290769
0.29117
0.291631
0.292144
0.292704
0.293308
0.293949
0.294621
0.295313
0.296016
0.296747
0.297433
0.298029
0.298628
0.299228
0.316955
0.316002
0.314758
0.312726
0.310396
0.307716
0.304805
0.301982
0.299445
0.297125
0.295179
0.293631
0.292446
0.291576
0.291007
0.29074
0.290662
0.290624
0.290638
0.290754
0.290948
0.2912
0.291498
0.291835
0.292204
0.292604
0.293034
0.293491
0.293973
0.294475
0.294989
0.295542
0.296079
0.296594
0.297171
0.297779
0.314873
0.314137
0.313015
0.311237
0.309202
0.306845
0.304278
0.30176
0.299469
0.297358
0.295569
0.294129
0.293014
0.29219
0.291652
0.291416
0.291389
0.291379
0.291371
0.291442
0.291566
0.291723
0.2919
0.29209
0.29229
0.292499
0.292719
0.292954
0.293204
0.293473
0.293761
0.294097
0.294472
0.294908
0.295456
0.296071
0.313212
0.312587
0.311628
0.310106
0.308338
0.306268
0.304009
0.301767
0.299695
0.297772
0.296126
0.294786
0.293737
0.292956
0.29245
0.292242
0.292253
0.29226
0.292228
0.292246
0.29229
0.292338
0.292375
0.292396
0.292398
0.292383
0.292357
0.292327
0.292304
0.292304
0.292333
0.292426
0.292624
0.292978
0.293497
0.294125
0.311925
0.311359
0.310576
0.309295
0.307764
0.305951
0.303972
0.301983
0.300106
0.298356
0.296843
0.295597
0.294612
0.293872
0.293395
0.293214
0.293252
0.293267
0.293208
0.293165
0.293119
0.293044
0.292923
0.292751
0.292526
0.292253
0.291944
0.291607
0.29127
0.290965
0.290703
0.29055
0.290571
0.290844
0.291341
0.291993
0.31097
0.310471
0.309846
0.30877
0.307451
0.305866
0.304144
0.302388
0.300687
0.299098
0.29771
0.296556
0.295632
0.294934
0.294485
0.294325
0.294382
0.2944
0.294307
0.294197
0.294053
0.293841
0.293545
0.293156
0.292675
0.29211
0.291478
0.290796
0.290117
0.289464
0.288898
0.288515
0.288379
0.288577
0.289062
0.289751
0.310315
0.309896
0.309404
0.308501
0.307372
0.305996
0.304501
0.302956
0.301423
0.299986
0.29872
0.297654
0.296793
0.296137
0.295714
0.295569
0.295638
0.295652
0.295523
0.295342
0.29509
0.29473
0.294241
0.293612
0.292846
0.291955
0.290962
0.289892
0.288848
0.287836
0.286999
0.286404
0.286131
0.286274
0.286762
0.287496
0.309919
0.309588
0.309204
0.308452
0.307497
0.306315
0.305023
0.303668
0.302298
0.301009
0.299861
0.298883
0.298085
0.297471
0.297074
0.296938
0.29701
0.297017
0.296851
0.296596
0.296231
0.295713
0.295014
0.294124
0.293044
0.291794
0.290396
0.288906
0.28749
0.286158
0.285047
0.284276
0.283926
0.284046
0.284556
0.285339
0.309748
0.309497
0.309206
0.308593
0.307797
0.306794
0.305687
0.304509
0.303298
0.302152
0.301119
0.300232
0.299497
0.298927
0.298553
0.29842
0.298486
0.298484
0.298284
0.297956
0.297476
0.296792
0.295871
0.294696
0.293275
0.291631
0.289791
0.287901
0.286048
0.284414
0.283128
0.282243
0.281874
0.282004
0.28254
0.283352
0.30977
0.309582
0.309378
0.308892
0.308243
0.307407
0.306473
0.305463
0.304406
0.303399
0.302483
0.301685
0.301016
0.30049
0.300137
0.300001
0.30005
0.300042
0.299819
0.29942
0.298826
0.297973
0.296816
0.295338
0.293548
0.291472
0.289148
0.286814
0.284595
0.282747
0.281335
0.280415
0.280073
0.280234
0.280787
0.281572
0.309949
0.309816
0.309693
0.309325
0.308812
0.308131
0.30736
0.30651
0.305605
0.304735
0.303934
0.303228
0.302627
0.302143
0.30181
0.301663
0.301684
0.301679
0.301452
0.300986
0.300282
0.299259
0.297858
0.296057
0.293873
0.291327
0.288518
0.285737
0.28322
0.281211
0.279752
0.278882
0.278589
0.278776
0.279316
0.280034
0.310255
0.310175
0.310125
0.309864
0.309478
0.308943
0.308326
0.30763
0.306875
0.306141
0.305457
0.304843
0.304311
0.303871
0.303555
0.303394
0.303375
0.303376
0.303166
0.302655
0.30185
0.30066
0.299006
0.296863
0.29426
0.29122
0.287944
0.284717
0.281966
0.279878
0.278456
0.277677
0.277436
0.277631
0.278119
0.278764
0.310662
0.31063
0.310647
0.310486
0.310218
0.309822
0.309351
0.308805
0.308196
0.307597
0.30703
0.306512
0.30605
0.305656
0.305356
0.30518
0.305122
0.3051
0.304916
0.304417
0.303544
0.302198
0.300277
0.297767
0.294725
0.291156
0.287373
0.283778
0.280886
0.278811
0.277488
0.276795
0.27659
0.276766
0.27719
0.277774
0.311146
0.311158
0.311236
0.311168
0.311011
0.310745
0.310414
0.310012
0.309548
0.309083
0.308634
0.308213
0.307824
0.307476
0.307193
0.307008
0.306918
0.306856
0.306677
0.306217
0.305347
0.303892
0.301692
0.298783
0.295266
0.291096
0.286828
0.282975
0.280032
0.278041
0.276834
0.276205
0.276008
0.276145
0.276517
0.27705
0.311684
0.311735
0.31187
0.311887
0.311834
0.311691
0.311493
0.311231
0.310908
0.310576
0.310244
0.30992
0.309605
0.309303
0.30904
0.30885
0.308746
0.308665
0.308482
0.308037
0.307178
0.305668
0.303224
0.299901
0.295872
0.29111
0.286381
0.28235
0.279436
0.277556
0.276441
0.275847
0.275642
0.275749
0.276084
0.276567
0.312255
0.312341
0.312527
0.312623
0.312667
0.31264
0.312568
0.31244
0.312253
0.312051
0.311834
0.311604
0.31136
0.311103
0.310859
0.310672
0.310566
0.310493
0.310327
0.309896
0.309011
0.307432
0.304781
0.301077
0.296535
0.291293
0.286078
0.281917
0.27908
0.277308
0.276256
0.275683
0.275477
0.275566
0.275867
0.2763
0.312839
0.312955
0.313187
0.313356
0.31349
0.313571
0.313618
0.313616
0.31356
0.313481
0.313373
0.313234
0.313054
0.312836
0.312609
0.31243
0.312334
0.312282
0.312148
0.311744
0.310844
0.309165
0.306316
0.302274
0.297251
0.291591
0.285939
0.281683
0.278931
0.277255
0.276253
0.275702
0.275502
0.275573
0.275841
0.276228
0.313419
0.313561
0.313834
0.314068
0.314285
0.314466
0.314622
0.314738
0.314804
0.314841
0.314835
0.314775
0.314652
0.314466
0.314254
0.314087
0.31401
0.31399
0.313898
0.313528
0.312628
0.310859
0.307838
0.303491
0.298019
0.291971
0.28599
0.281655
0.278967
0.277368
0.276413
0.275885
0.275689
0.275747
0.275986
0.276334
0.313978
0.31414
0.314449
0.314742
0.315034
0.315306
0.315562
0.315787
0.315964
0.316106
0.31619
0.316201
0.316123
0.315961
0.315764
0.315613
0.315564
0.315584
0.315536
0.315198
0.314315
0.3125
0.309354
0.304757
0.29889
0.292472
0.286264
0.281833
0.279168
0.277621
0.276709
0.276208
0.276019
0.276067
0.276284
0.2766
0.314499
0.314678
0.315019
0.315362
0.31572
0.316074
0.31642
0.316742
0.317019
0.317254
0.317416
0.317484
0.317441
0.317298
0.317114
0.316985
0.316971
0.317034
0.317019
0.316698
0.315852
0.314055
0.310851
0.306095
0.299945
0.293164
0.286772
0.282189
0.279506
0.277993
0.277123
0.27665
0.276473
0.276517
0.276717
0.277007
0.314971
0.315161
0.315528
0.315915
0.316331
0.316755
0.317181
0.317587
0.317952
0.318265
0.318491
0.318604
0.318586
0.318456
0.318286
0.318182
0.318207
0.318307
0.318309
0.318014
0.317206
0.315439
0.312267
0.307479
0.301201
0.294093
0.287539
0.282728
0.279969
0.278468
0.277637
0.277196
0.277035
0.27708
0.277269
0.277541
0.31538
0.315578
0.315966
0.316388
0.316852
0.317338
0.317831
0.318308
0.318746
0.319124
0.319401
0.319545
0.319543
0.31942
0.319265
0.319189
0.319249
0.319374
0.319382
0.319132
0.31835
0.31658
0.313514
0.308822
0.302568
0.295275
0.288596
0.28347
0.280559
0.279038
0.27824
0.277833
0.277691
0.277741
0.277924
0.278186
0.315717
0.315918
0.316321
0.316771
0.317275
0.31781
0.318358
0.318893
0.31939
0.319818
0.320131
0.320295
0.320299
0.320181
0.320039
0.31999
0.320078
0.320215
0.320228
0.320006
0.319241
0.317484
0.314546
0.310037
0.303938
0.296685
0.289906
0.284434
0.281286
0.279701
0.278921
0.278549
0.278429
0.278488
0.27867
0.278928
0.315973
0.316172
0.316585
0.317057
0.31759
0.318164
0.318755
0.319334
0.319875
0.320338
0.320673
0.320844
0.320847
0.32073
0.320601
0.320573
0.320676
0.320817
0.320832
0.320614
0.319852
0.318141
0.315336
0.311108
0.30529
0.298197
0.29134
0.285668
0.282187
0.280464
0.279675
0.279336
0.279242
0.279311
0.279493
0.279753
0.316143
0.316334
0.316751
0.317237
0.317792
0.318394
0.319015
0.319625
0.320195
0.320679
0.321022
0.32119
0.321184
0.321065
0.320946
0.32093
0.321036
0.321168
0.321178
0.320947
0.320177
0.318514
0.315842
0.311989
0.306659
0.299983
0.292994
0.287258
0.283322
0.281346
0.280501
0.280186
0.280121
0.280201
0.280384
0.28065
0.316223
0.316405
0.316816
0.317309
0.317875
0.318494
0.319134
0.319761
0.320346
0.320838
0.321176
0.321331
0.321311
0.321186
0.321071
0.321057
0.321156
0.321267
0.321264
0.321012
0.320224
0.318603
0.316059
0.312551
0.307809
0.301835
0.294927
0.289072
0.284732
0.282378
0.281405
0.281091
0.281062
0.281152
0.281334
0.281606
0.316205
0.316384
0.316779
0.31727
0.317839
0.318464
0.31911
0.319743
0.32033
0.320815
0.321138
0.321271
0.321231
0.321098
0.32098
0.320961
0.321041
0.32112
0.321098
0.32082
0.320005
0.318424
0.316015
0.312774
0.308569
0.303248
0.296861
0.290929
0.286459
0.283631
0.282411
0.282053
0.282061
0.282164
0.282337
0.282611
0.316083
0.316258
0.316636
0.317119
0.317681
0.318302
0.318945
0.31957
0.320147
0.320614
0.320911
0.321015
0.320953
0.320807
0.320681
0.32065
0.320704
0.320745
0.320693
0.320378
0.319534
0.317992
0.315709
0.312705
0.308995
0.304385
0.298855
0.293039
0.288437
0.285226
0.283611
0.283108
0.283126
0.283239
0.283388
0.283653
0.315858
0.316026
0.316385
0.316855
0.317403
0.318012
0.31864
0.319248
0.319802
0.32024
0.320503
0.320574
0.320486
0.320323
0.320185
0.320136
0.320159
0.320162
0.320063
0.319699
0.318828
0.317323
0.315159
0.312366
0.30901
0.305074
0.300452
0.295219
0.290515
0.287179
0.285123
0.28438
0.284309
0.284392
0.284487
0.284715
0.315531
0.31569
0.316028
0.31648
0.317008
0.317595
0.318199
0.31878
0.319302
0.319702
0.319924
0.319956
0.31984
0.319658
0.319503
0.319433
0.31942
0.319379
0.319225
0.318802
0.317906
0.316438
0.314392
0.311799
0.308724
0.305258
0.301346
0.29699
0.292479
0.289089
0.286842
0.285896
0.285745
0.285694
0.285628
0.285757
0.315106
0.315254
0.315569
0.315998
0.316499
0.317057
0.31763
0.318173
0.318654
0.319008
0.319184
0.319175
0.319027
0.318823
0.318647
0.318549
0.318497
0.318405
0.318192
0.317707
0.316786
0.315353
0.313419
0.311024
0.308224
0.305127
0.301854
0.298338
0.294549
0.291021
0.288528
0.287401
0.287503
0.287286
0.286772
0.286676
0.314587
0.314721
0.315012
0.315413
0.315882
0.316405
0.316937
0.317436
0.317868
0.318169
0.318293
0.318241
0.31806
0.317828
0.317627
0.317497
0.317399
0.317253
0.316976
0.31643
0.315482
0.314081
0.312252
0.310042
0.307503
0.304721
0.301887
0.299103
0.296253
0.29336
0.290589
0.288879
0.28918
0.289289
0.288017
0.287212
0.313977
0.314097
0.314362
0.314733
0.315164
0.315645
0.316131
0.316578
0.316954
0.317197
0.317266
0.317167
0.316949
0.316687
0.316456
0.316288
0.31614
0.315936
0.315594
0.31499
0.314015
0.312642
0.310905
0.308863
0.306572
0.304098
0.301599
0.299284
0.297192
0.295215
0.293237
0.291278
0.290818
0.29159
0.289542
0.286343
0.313363
0.313471
0.313706
0.314046
0.314439
0.314879
0.315319
0.315714
0.316033
0.316218
0.316233
0.316091
0.31584
0.315549
0.315289
0.315084
0.314888
0.31463
0.314231
0.313579
0.312582
0.311231
0.309569
0.30766
0.305571
0.303366
0.301182
0.29923
0.297609
0.296341
0.295192
0.293812
0.293219
0.294046
0.290863
0.283567
0.312772
0.312871
0.313074
0.313386
0.313745
0.314145
0.314541
0.314886
0.31515
0.315279
0.315246
0.315066
0.314786
0.31447
0.314182
0.313942
0.313703
0.313397
0.312948
0.312255
0.311241
0.30991
0.308309
0.306508
0.304578
0.302587
0.300684
0.299085
0.297869
0.297079
0.296555
0.295831
0.295713
0.297242
0.291829
0.282777
0.312132
0.312222
0.312401
0.312685
0.313006
0.313364
0.313712
0.314005
0.314211
0.314284
0.314201
0.313981
0.313669
0.313324
0.313005
0.312726
0.312442
0.312088
0.311591
0.31086
0.309832
0.308519
0.306976
0.305276
0.303491
0.301693
0.300056
0.298805
0.297999
0.297656
0.297687
0.297931
0.2991
0.301748
0.296161
0.281292
0.351175
0.369406
0.375432
0.375174
0.351166
0.365891
0.373523
0.374444
0.347018
0.359887
0.368675
0.37151
0.341795
0.352582
0.361094
0.36513
0.336038
0.344951
0.352448
0.356466
0.330068
0.337321
0.343538
0.347064
0.324159
0.329994
0.334952
0.337846
0.318511
0.323168
0.327025
0.329294
0.31324
0.31694
0.319896
0.321616
0.308408
0.311342
0.313586
0.314856
0.304039
0.306365
0.308059
0.308974
0.300129
0.301978
0.303252
0.303895
0.296665
0.29814
0.299097
0.299536
0.293622
0.294806
0.295523
0.295812
0.290974
0.291932
0.292469
0.292649
0.288693
0.289476
0.289879
0.289983
0.286753
0.287401
0.287706
0.287757
0.28513
0.285675
0.285906
0.285924
0.283801
0.284268
0.284447
0.284444
0.282743
0.283153
0.283296
0.283285
0.281936
0.282307
0.282428
0.28242
0.281359
0.281711
0.281823
0.281826
0.280997
0.281348
0.281465
0.281489
0.280841
0.281209
0.281344
0.281399
0.280887
0.281289
0.281455
0.28155
0.281137
0.281589
0.281797
0.281941
0.281596
0.282112
0.282376
0.282574
0.282274
0.282867
0.283195
0.283457
0.283181
0.283859
0.28426
0.284604
0.284326
0.285101
0.285588
0.286014
0.285715
0.286602
0.287186
0.287702
0.287359
0.288374
0.289069
0.289685
0.289271
0.290431
0.291245
0.29199
0.291468
0.29279
0.293742
0.294628
0.293966
0.295471
0.29658
0.297623
0.296784
0.298493
0.299779
0.301
0.299941
0.301878
0.303365
0.304786
0.30346
0.305647
0.30736
0.309007
0.307369
0.309826
0.311792
0.313692
0.311697
0.314436
0.316682
0.318868
0.316441
0.319487
0.32205
0.324557
0.321603
0.324989
0.327911
0.330785
0.327215
0.330963