/*--------------------------------*- C++ -*----------------------------------*\
| =========                 |                                                 |
| \\      /  F ield         | OpenFOAM: The Open Source CFD Toolbox           |
|  \\    /   O peration     | Version:  v2012                                 |
|   \\  /    A nd           | Website:  www.openfoam.com                      |
|    \\/     M anipulation  |                                                 |
\*---------------------------------------------------------------------------*/
FoamFile
{
    version     2.0;
    format      ascii;
    class       surfaceScalarField;
    location    "620";
    object      phi;
}
// * * * * * * * * * * * * * * * * * * * * * * * * * * * * * * * * * * * * * //

dimensions      [0 3 -1 0 0 0 0];
oriented        oriented;


internalField   nonuniform List<scalar> 
11989
(
-0.000198547
1.2062e-07
0.000198427
-0.000198649
1.01482e-07
-0.000198736
8.75644e-08
-0.000198814
7.79049e-08
-0.000198886
7.14916e-08
-0.000198953
6.75151e-08
-0.000199019
6.53319e-08
-0.000199083
6.44932e-08
-0.000199148
6.45829e-08
-0.000199213
6.55935e-08
-0.000199281
6.74006e-08
-0.000199351
6.99511e-08
-0.000199424
7.32399e-08
-0.000199501
7.72381e-08
-0.000199583
8.17887e-08
-0.000199669
8.643e-08
-0.000199759
9.02281e-08
-0.000199853
9.32171e-08
-0.000199943
9.05937e-08
5.67363e-08
-0.00019985
1.80077e-07
0.000199791
-0.000199892
1.43208e-07
-0.000199921
1.16728e-07
-0.000199942
9.83947e-08
-0.000199956
8.60833e-08
-0.000199967
7.8203e-08
-0.000199975
7.34678e-08
-0.000199982
7.10943e-08
-0.000199987
7.0198e-08
-0.000199992
7.07117e-08
-0.000199997
7.23963e-08
-0.000200003
7.50798e-08
-0.000200008
7.86677e-08
-0.000200014
8.30061e-08
-0.00020002
8.76637e-08
-0.000200025
9.1738e-08
-0.000200029
9.43002e-08
-0.000200029
9.35924e-08
-0.000200019
7.97401e-08
3.81447e-08
-0.000200224
2.17392e-07
0.000200187
-0.000200245
1.63797e-07
-0.000200254
1.25848e-07
-0.000200255
9.97763e-08
-0.000200251
8.22372e-08
-0.000200244
7.08832e-08
-0.000200234
6.36193e-08
-0.000200223
5.94187e-08
-0.00020021
5.7274e-08
-0.000200196
5.67638e-08
-0.000200181
5.74918e-08
-0.000200165
5.92188e-08
-0.000200148
6.17859e-08
-0.00020013
6.50157e-08
-0.000200111
6.84176e-08
-0.00020009
7.0626e-08
-0.000200067
7.1294e-08
-0.000200041
6.79359e-08
-0.000200015
5.38715e-08
2.28894e-08
-0.000200401
2.38372e-07
0.00020038
-0.000200407
1.69621e-07
-0.000200403
1.21995e-07
-0.000200393
8.95553e-08
-0.000200379
6.80252e-08
-0.000200362
5.40465e-08
-0.000200343
4.47225e-08
-0.000200323
3.88582e-08
-0.000200301
3.53724e-08
-0.000200277
3.35613e-08
-0.000200253
3.29427e-08
-0.000200227
3.32111e-08
-0.000200199
3.4159e-08
-0.00020017
3.55815e-08
-0.000200139
3.70708e-08
-0.000200106
3.79164e-08
-0.000200072
3.77587e-08
-0.000200039
3.49763e-08
-0.000200012
2.66866e-08
1.07708e-08
-0.000200498
2.41905e-07
0.000200495
-0.00020049
1.61269e-07
-0.000200475
1.07226e-07
-0.000200457
7.07849e-08
-0.000200435
4.68117e-08
-0.000200413
3.13378e-08
-0.000200389
2.07693e-08
-0.000200364
1.37597e-08
-0.000200337
9.11594e-09
-0.00020031
6.03801e-09
-0.000200281
3.99059e-09
-0.00020025
2.62842e-09
-0.000200218
1.72568e-09
-0.000200183
1.13119e-09
-0.000200147
7.43125e-10
-0.00020011
4.85147e-10
-0.000200072
3.06775e-10
-0.000200037
1.83019e-10
-0.000200011
9.55702e-11
3.16567e-11
-0.000200545
2.24057e-07
0.000200563
-0.000200521
1.37598e-07
-0.000200495
8.12256e-08
-0.00020047
4.51535e-08
-0.000200444
2.14158e-08
-0.000200418
5.56174e-09
-0.000200392
-5.17523e-09
-0.000200366
-1.26384e-08
-0.000200339
-1.80008e-08
-0.000200311
-2.20536e-08
-0.000200282
-2.53362e-08
-0.000200251
-2.82024e-08
-0.000200218
-3.08725e-08
-0.000200184
-3.34297e-08
-0.000200147
-3.56564e-08
-0.00020011
-3.69906e-08
-0.000200072
-3.71748e-08
-0.000200037
-3.46299e-08
-0.000200011
-2.65101e-08
-1.07128e-08
-0.000200536
1.7443e-07
0.000200586
-0.000200497
9.87695e-08
-0.000200462
4.59056e-08
-0.000200432
1.49644e-08
-0.000200404
-5.86915e-09
-0.000200379
-1.99947e-08
-0.000200354
-2.97945e-08
-0.00020033
-3.69153e-08
-0.000200305
-4.23861e-08
-0.000200281
-4.6909e-08
-0.000200255
-5.09786e-08
-0.000200228
-5.49316e-08
-0.0002002
-5.89759e-08
-0.00020017
-6.31826e-08
-0.000200139
-6.72116e-08
-0.000200106
-6.98299e-08
-0.000200072
-7.07937e-08
-0.000200039
-6.76413e-08
-0.000200012
-5.37378e-08
-2.28462e-08
-0.000200436
8.12376e-08
0.000200529
-0.000200385
4.78491e-08
-0.000200345
5.57282e-09
-0.000200315
-1.48273e-08
-0.000200291
-2.99793e-08
-0.00020027
-4.06464e-08
-0.000200251
-4.84105e-08
-0.000200234
-5.43278e-08
-0.000200217
-5.91615e-08
-0.000200201
-6.34548e-08
-0.000200184
-6.76106e-08
-0.000200167
-7.19276e-08
-0.000200149
-7.66005e-08
-0.000200131
-8.16553e-08
-0.000200111
-8.6772e-08
-0.00020009
-9.11543e-08
-0.000200067
-9.39342e-08
-0.000200041
-9.33593e-08
-0.000200015
-7.96719e-08
-3.81244e-08
-0.000200121
-7.96151e-08
0.000200281
-0.000200065
-7.49177e-09
-0.000200035
-2.44858e-08
-0.000200017
-3.28887e-08
-0.000200006
-4.07914e-08
-0.0002
-4.68418e-08
-0.000199997
-5.14984e-08
-0.000199996
-5.52546e-08
-0.000199997
-5.85195e-08
-0.000199999
-6.16098e-08
-0.000200001
-6.47758e-08
-0.000200005
-6.82228e-08
-0.00020001
-7.21079e-08
-0.000200015
-7.64984e-08
-0.00020002
-8.1303e-08
-0.000200025
-8.61148e-08
-0.000200029
-9.00268e-08
-0.00020003
-9.30817e-08
-0.000200019
-9.05798e-08
-5.67309e-08
-0.000198841
0.000198762
-0.000198849
-0.000198873
-0.000198906
-0.000198947
-0.000198994
-0.000199045
-0.0001991
-0.000199159
-0.000199221
-0.000199285
-0.000199354
-0.000199426
-0.000199502
-0.000199583
-0.00019967
-0.00019976
-0.000199853
-0.000199943
-0.000197885
2.6177e-07
0.000197623
-0.000198102
2.16943e-07
-0.00019828
1.78486e-07
1.46192e-07
-0.000199441
4.55616e-07
0.000199247
-0.000199592
3.68554e-07
-0.000199707
2.93319e-07
2.29904e-07
-0.000199902
6.2599e-07
0.000199732
-0.000200032
4.98319e-07
-0.000200125
3.86755e-07
2.91545e-07
-0.000200136
7.81879e-07
0.000199981
-0.000200253
6.15266e-07
-0.000200334
4.67282e-07
3.37967e-07
-0.000200281
9.28837e-07
0.000200134
-0.00020039
7.24185e-07
-0.000200462
5.39267e-07
3.70859e-07
-0.00020036
1.0783e-06
0.00020021
-0.000200469
8.32908e-07
-0.000200541
6.11234e-07
3.93059e-07
-0.000200338
1.26716e-06
0.000200149
-0.000200473
9.68139e-07
-0.000200573
7.1141e-07
4.05671e-07
-0.000200049
1.62775e-06
0.000199688
-0.000200303
1.22288e-06
-0.000200506
9.13817e-07
4.28866e-07
-0.000198701
2.61796e-06
0.00019771
-0.000199418
1.94073e-06
-0.00019987
1.36593e-06
8.39856e-07
-0.000188284
0.000184759
6.14346e-06
-0.000191528
5.18443e-06
-0.000193859
3.69726e-06
5.7421e-06
7.16591e-06
-7.16591e-06
8.87596e-06
-1.71006e-06
6.1242e-06
2.75176e-06
2.62985e-07
5.86121e-06
-9.68907e-06
9.95205e-06
-2.43314e-05
1.46423e-05
-4.12378e-05
1.69064e-05
-5.76312e-05
1.63934e-05
-7.25521e-05
1.49209e-05
-8.6172e-05
1.36199e-05
-9.8641e-05
1.2469e-05
-0.000110063
1.14222e-05
-0.000120517
1.04539e-05
-0.000130063
9.54559e-06
-0.000138748
8.68483e-06
-0.000146612
7.86446e-06
-0.000153693
7.08141e-06
-0.000160029
6.33573e-06
-0.000165659
5.62948e-06
-0.000170625
4.96593e-06
-0.000174973
4.34887e-06
-0.000178755
3.78193e-06
-0.000182021
3.26562e-06
-0.00018482
2.79895e-06
-0.000187202
2.38172e-06
-0.000189214
2.01284e-06
-0.000190905
1.69023e-06
-0.000192316
1.41116e-06
-0.000193489
1.17285e-06
-0.000194461
9.72541e-07
-0.000195265
8.03526e-07
-0.000195928
6.62723e-07
-0.000196476
5.48315e-07
-0.000196931
4.54724e-07
-0.000197309
3.78005e-07
3.14643e-07
4.13334e-06
-1.12993e-05
2.12344e-06
2.99831e-07
-4.39232e-06
9.26752e-06
-1.5927e-05
1.73959e-05
-3.10102e-05
2.50352e-05
-4.63423e-05
2.99744e-05
-6.02751e-05
3.08393e-05
-7.32199e-05
2.93381e-05
-8.57023e-05
2.74033e-05
-9.75095e-05
2.54271e-05
-0.00010855
2.35096e-05
-0.000118818
2.16897e-05
-0.000128321
1.99576e-05
-0.000137074
1.82983e-05
-0.000145089
1.67e-05
-0.000152382
1.51571e-05
-0.00015897
1.36698e-05
-0.000164877
1.2243e-05
-0.000170132
1.08841e-05
-0.000174768
9.60207e-06
-0.000178824
8.40496e-06
-0.000182341
7.29907e-06
-0.000185365
6.28877e-06
-0.000187942
5.37638e-06
-0.000190122
4.56178e-06
-0.000191952
3.8427e-06
-0.000193477
3.21502e-06
-0.000194739
2.67313e-06
-0.000195776
2.2102e-06
-0.000196622
1.81882e-06
-0.000197312
1.49284e-06
-0.000197874
1.22475e-06
-0.000198331
1.00545e-06
-0.000198702
8.26367e-07
-0.000199004
6.79444e-07
5.57711e-07
-1.04352e-06
-1.02557e-05
-7.20526e-06
6.46157e-06
-1.74317e-05
1.9494e-05
-3.07867e-05
3.07508e-05
-4.46825e-05
3.89311e-05
-5.73239e-05
4.26158e-05
-6.89918e-05
4.25072e-05
-8.04069e-05
4.07532e-05
-9.15699e-05
3.85663e-05
-0.000102317
3.61747e-05
-0.000112557
3.37489e-05
-0.00012222
3.13531e-05
-0.000131265
2.90022e-05
-0.000139664
2.6697e-05
-0.0001474
2.44369e-05
-0.000154469
2.22256e-05
-0.000160871
2.00725e-05
-0.00016662
1.79914e-05
-0.000171735
1.59988e-05
-0.000176244
1.41116e-05
-0.000180184
1.23447e-05
-0.000183595
1.07101e-05
-0.000186522
9.21611e-06
-0.000189013
7.86696e-06
-0.000191114
6.66281e-06
-0.000192871
5.60037e-06
-0.00019433
4.67358e-06
-0.000195531
3.87418e-06
-0.000196513
3.19228e-06
-0.000197312
2.61759e-06
-0.000197959
2.13974e-06
-0.000198481
1.74686e-06
-0.000198902
1.42652e-06
-0.000199242
1.16585e-06
-0.000199514
9.5229e-07
7.7508e-07
-6.29783e-06
-3.95792e-06
-1.56867e-05
1.58505e-05
-2.76747e-05
3.1482e-05
-4.05935e-05
4.36696e-05
-5.26175e-05
5.09551e-05
-6.35094e-05
5.35077e-05
-7.40484e-05
5.30461e-05
-8.45864e-05
5.12912e-05
-9.49803e-05
4.89602e-05
-0.000105108
4.63019e-05
-0.000114865
4.3506e-05
-0.000124163
4.06511e-05
-0.000132934
3.77738e-05
-0.00014113
3.48923e-05
-0.000148713
3.20207e-05
-0.000155664
2.91761e-05
-0.000161972
2.63807e-05
-0.000167641
2.36605e-05
-0.000172686
2.10435e-05
-0.000177131
1.85568e-05
-0.00018101
1.6224e-05
-0.000184364
1.40638e-05
-0.000187237
1.20888e-05
-0.000189675
1.03053e-05
-0.000191727
8.71406e-06
-0.000193437
7.31074e-06
-0.000194851
6.08745e-06
-0.00019601
5.03331e-06
-0.000196953
4.13531e-06
-0.000197715
3.37959e-06
-0.000198327
2.75195e-06
-0.000198818
2.23744e-06
-0.000199211
1.8199e-06
-0.000199527
1.48166e-06
-0.00019978
1.20531e-06
9.75712e-07
-1.02126e-05
6.25467e-06
-2.1838e-05
2.74759e-05
-3.4352e-05
4.39959e-05
-4.63465e-05
5.56642e-05
-5.71327e-05
6.17413e-05
-6.72131e-05
6.35881e-05
-7.72141e-05
6.30471e-05
-8.724e-05
6.13172e-05
-9.71745e-05
5.88948e-05
-0.00010692
5.60473e-05
-0.000116371
5.29574e-05
-0.000125435
4.97152e-05
-0.000134034
4.63725e-05
-0.000142104
4.29623e-05
-0.000149597
3.95137e-05
-0.00015648
3.60585e-05
-0.000162733
3.2634e-05
-0.000168354
2.92813e-05
-0.000173353
2.60425e-05
-0.000177753
2.29571e-05
-0.000181588
2.00587e-05
-0.000184898
1.73736e-05
-0.000187728
1.49189e-05
-0.000190126
1.27032e-05
-0.000192139
1.07274e-05
-0.000193814
8.98594e-06
-0.000195195
7.46878e-06
-0.000196324
6.16235e-06
-0.000197239
5.05029e-06
-0.000197975
4.11508e-06
-0.000198562
3.33912e-06
-0.00019903
2.70509e-06
-0.000199403
2.19354e-06
-0.000199703
1.78142e-06
-0.000199944
1.44574e-06
1.16628e-06
-1.27971e-05
1.90517e-05
-2.57309e-05
4.04097e-05
-3.81843e-05
5.64493e-05
-4.94308e-05
6.69106e-05
-5.96111e-05
7.19217e-05
-6.93827e-05
7.33597e-05
-7.91286e-05
7.27929e-05
-8.88688e-05
7.10573e-05
-9.85323e-05
6.85583e-05
-0.00010804
6.55549e-05
-0.000117296
6.22136e-05
-0.000126209
5.86284e-05
-0.000134696
5.48589e-05
-0.000142683
5.09495e-05
-0.000150112
4.69428e-05
-0.00015694
4.28869e-05
-0.000163143
3.88365e-05
-0.000168712
3.48507e-05
-0.000173658
3.09884e-05
-0.000178005
2.73038e-05
-0.000181788
2.38419e-05
-0.000185051
2.06365e-05
-0.000187841
1.77093e-05
-0.000190208
1.50702e-05
-0.0001922
1.2719e-05
-0.000193862
1.06478e-05
-0.000195236
8.84368e-06
-0.000196364
7.29016e-06
-0.000197281
5.96745e-06
-0.000198021
4.85433e-06
-0.000198612
3.93015e-06
-0.000199083
3.17645e-06
-0.000199461
2.57188e-06
-0.000199767
2.08705e-06
-0.000200014
1.69267e-06
1.36271e-06
-1.43204e-05
3.33721e-05
-2.7811e-05
5.39003e-05
-4.00128e-05
6.86511e-05
-5.08326e-05
7.77305e-05
-6.08005e-05
8.18895e-05
-7.04847e-05
8.30439e-05
-8.01125e-05
8.24208e-05
-8.96971e-05
8.06419e-05
-9.91996e-05
7.80608e-05
-0.000108556
7.49109e-05
-0.000117681
7.13384e-05
-0.000126484
6.74323e-05
-0.000134879
6.32533e-05
-0.000142783
5.88536e-05
-0.000150129
5.4289e-05
-0.000156868
4.96258e-05
-0.000162971
4.49397e-05
-0.000168432
4.0312e-05
-0.000173266
3.58219e-05
-0.000177503
3.15406e-05
-0.000181187
2.75256e-05
-0.000184368
2.38182e-05
-0.000187101
2.04426e-05
-0.000189439
1.74078e-05
-0.00019143
1.47098e-05
-0.000193118
1.23354e-05
-0.00019454
1.02661e-05
-0.000195732
8.48186e-06
-0.000196724
6.95995e-06
-0.000197544
5.67443e-06
-0.000198217
4.6024e-06
-0.000198765
3.72491e-06
-0.000199217
3.02368e-06
-0.000199591
2.46131e-06
-0.000199899
2.0011e-06
1.61189e-06
-1.51745e-05
4.85466e-05
-2.86276e-05
6.73535e-05
-4.05451e-05
8.05686e-05
-5.11678e-05
8.83531e-05
-6.11022e-05
9.18239e-05
-7.07772e-05
9.27189e-05
-8.0347e-05
9.19906e-05
-8.98391e-05
9.01341e-05
-9.92335e-05
8.74552e-05
-0.000108476
8.41532e-05
-0.000117487
8.03496e-05
-0.000126175
7.61201e-05
-0.000134443
7.15214e-05
-0.0001422
6.66108e-05
-0.00014937
6.14589e-05
-0.000155898
5.6154e-05
-0.000161758
5.07991e-05
-0.000166949
4.55038e-05
-0.000171501
4.03735e-05
-0.000175461
3.55003e-05
-0.000178891
3.09555e-05
-0.000181859
2.6787e-05
-0.000184436
2.30192e-05
-0.000186684
1.9656e-05
-0.00018866
1.66851e-05
-0.000190406
1.40822e-05
-0.000191957
1.18166e-05
-0.000193331
9.85647e-06
-0.000194547
8.17536e-06
-0.000195616
6.74404e-06
-0.000196553
5.53867e-06
-0.000197361
4.53298e-06
-0.000198069
3.7318e-06
-0.000198693
3.08548e-06
-0.000199234
2.54154e-06
2.06646e-06
-1.53588e-05
6.39053e-05
-2.859e-05
8.05847e-05
-4.02639e-05
9.22425e-05
-5.07959e-05
9.88851e-05
-6.07422e-05
0.00010177
-7.04153e-05
0.000102392
-7.99391e-05
0.000101514
-8.9353e-05
9.95479e-05
-9.86454e-05
9.67476e-05
-0.000107764
9.32717e-05
-0.000116626
8.92113e-05
-0.000125127
8.46217e-05
-0.000133157
7.95508e-05
-0.000140606
7.40603e-05
-0.000147386
6.82391e-05
-0.000153438
6.22053e-05
-0.000158738
5.60992e-05
-0.000163303
5.00692e-05
-0.000167186
4.4256e-05
-0.000170464
3.87783e-05
-0.000173233
3.37244e-05
-0.000175594
2.91486e-05
-0.000177649
2.50736e-05
-0.000179487
2.14948e-05
-0.00018119
1.83873e-05
-0.000182819
1.57117e-05
-0.000184423
1.34202e-05
-0.00018603
1.14634e-05
-0.000187648
9.79337e-06
-0.000189252
8.34875e-06
-0.000190823
7.10895e-06
-0.000192335
6.04582e-06
-0.000193807
5.20323e-06
-0.000195232
4.51085e-06
-0.000196551
3.8601e-06
3.22594e-06
-1.5008e-05
7.89133e-05
-2.79811e-05
9.35579e-05
-3.94608e-05
0.000103722
-4.99246e-05
0.000109349
-5.98586e-05
0.000111704
-6.94993e-05
0.000112033
-7.8954e-05
0.000110969
-8.82644e-05
0.000108858
-9.74171e-05
0.0001059
-0.00010635
0.000102205
-0.000114964
9.78245e-05
-0.000123128
9.27864e-05
-0.000130703
8.71252e-05
-0.000137551
8.09087e-05
-0.000143564
7.42517e-05
-0.000148674
6.73155e-05
-0.000152868
6.02932e-05
-0.000156186
5.33868e-05
-0.000158712
4.6782e-05
-0.000160563
4.06293e-05
-0.000161872
3.50333e-05
-0.000162775
3.00515e-05
-0.000163401
2.57002e-05
-0.000163869
2.19632e-05
-0.000164285
1.88025e-05
-0.00016474
1.61668e-05
-0.000165319
1.39994e-05
-0.000166102
1.22464e-05
-0.000167192
1.0883e-05
-0.00016864
9.7973e-06
-0.000170466
8.93496e-06
-0.000172658
8.23728e-06
-0.00017521
7.7555e-06
-0.000178131
7.43152e-06
-0.000181347
7.07659e-06
6.63773e-06
-6.78716e-05
-6.85943e-06
8.08745e-05
-5.37511e-05
-8.93611e-06
-3.54486e-05
-1.46053e-05
-2.97065e-05
-9.85033e-06
-1.52414e-05
1.82323e-05
-2.0124e-06
-1.6774e-05
3.46433e-06
-2.0082e-05
-2.62421e-05
-5.71238e-07
-1.83501e-05
3.67994e-06
1.8838e-06
-1.92291e-05
2.72184e-06
-2.092e-05
-2.35203e-05
-4.48095e-07
-1.97211e-05
1.81907e-06
6.48562e-07
-2.03257e-05
1.00472e-06
-2.12762e-05
-2.25156e-05
-8.84167e-07
-2.07298e-05
1.89294e-06
-5.9037e-08
-2.11509e-05
3.60647e-07
-2.16959e-05
-2.21549e-05
-1.14564e-06
-2.16064e-05
2.02224e-06
-4.27805e-07
-2.18687e-05
9.86937e-09
-2.21336e-05
-2.21451e-05
-1.21536e-06
-2.23942e-05
2.00316e-06
-5.76892e-07
-2.25072e-05
-1.44296e-07
-2.25662e-05
-2.22893e-05
-1.13518e-06
-2.30952e-05
1.83613e-06
-5.80282e-07
-2.30621e-05
-1.92307e-07
-2.29541e-05
-2.24817e-05
-9.4057e-07
-2.37019e-05
1.54729e-06
-4.79945e-07
-2.35227e-05
-1.65726e-07
-2.32683e-05
-2.26474e-05
-6.55853e-07
-2.4205e-05
1.15898e-06
-3.02289e-07
-2.38762e-05
-8.57855e-08
-2.34849e-05
-2.27332e-05
-2.96952e-07
-2.45947e-05
6.86641e-07
-6.46167e-08
-2.41086e-05
2.95924e-08
-2.35791e-05
-2.27036e-05
1.26232e-07
-2.4861e-05
1.40093e-07
2.23239e-07
-2.42056e-05
1.75083e-07
-2.35309e-05
-2.25285e-05
6.07355e-07
-2.49939e-05
-4.74471e-07
5.54477e-07
-2.41527e-05
3.41208e-07
-2.33176e-05
-2.21873e-05
1.14246e-06
-2.49836e-05
-1.15274e-06
9.27371e-07
-2.39376e-05
5.36106e-07
-2.29264e-05
-2.16512e-05
1.72866e-06
-2.48207e-05
-1.8916e-06
1.3388e-06
-2.35478e-05
7.52295e-07
-2.23399e-05
-2.08989e-05
2.36392e-06
-2.4496e-05
-2.68862e-06
1.78721e-06
-2.29711e-05
9.89331e-07
-2.1542e-05
-1.99095e-05
3.04611e-06
-2.40009e-05
-3.54115e-06
2.27146e-06
-2.21964e-05
1.24776e-06
-2.05183e-05
-1.86618e-05
3.77208e-06
-2.33275e-05
-4.44552e-06
2.78953e-06
-2.12139e-05
1.52733e-06
-1.92561e-05
-1.71344e-05
4.53663e-06
-2.2468e-05
-5.39613e-06
3.33747e-06
-2.00147e-05
1.82685e-06
-1.77455e-05
-1.53076e-05
5.33096e-06
-2.14147e-05
-6.38428e-06
3.90774e-06
-1.85915e-05
2.14321e-06
-1.59809e-05
-1.31644e-05
6.14015e-06
-2.01583e-05
-7.39649e-06
4.48532e-06
-1.69366e-05
2.46774e-06
-1.39634e-05
-1.06967e-05
6.94011e-06
-1.86854e-05
-8.41306e-06
5.0398e-06
-1.50363e-05
2.77008e-06
-1.16936e-05
-7.92657e-06
7.69784e-06
-1.69761e-05
-9.4071e-06
5.52642e-06
-1.28649e-05
2.97605e-06
-9.14328e-06
-4.95052e-06
8.37904e-06
-1.50115e-05
-1.03437e-05
5.93907e-06
-1.04249e-05
3.10648e-06
-6.31069e-06
-1.84405e-06
8.99459e-06
-1.27555e-05
-1.12506e-05
6.3097e-06
-7.74005e-06
3.24271e-06
-3.2437e-06
1.39866e-06
9.59872e-06
-1.02013e-05
-1.21529e-05
6.67779e-06
-4.81912e-06
3.43502e-06
-9.32517e-10
4.83368e-06
1.01763e-05
-7.38933e-06
-1.29882e-05
7.01739e-06
-1.66023e-06
3.60586e-06
3.41059e-06
8.43954e-06
1.06574e-05
-4.37617e-06
-1.36705e-05
7.31897e-06
1.67817e-06
3.79358e-06
6.93598e-06
1.22331e-05
1.09516e-05
-1.2065e-06
-1.41213e-05
7.51545e-06
5.11432e-06
3.93406e-06
1.05174e-05
1.61672e-05
1.10049e-05
2.06895e-06
-1.42803e-05
7.53299e-06
8.58621e-06
3.92879e-06
1.41216e-05
2.0096e-05
1.08024e-05
5.37151e-06
-1.4105e-05
7.38071e-06
1.2008e-05
3.83154e-06
1.76707e-05
2.39275e-05
1.03459e-05
8.59964e-06
-1.3574e-05
7.07947e-06
1.52744e-05
3.67136e-06
2.10788e-05
2.75989e-05
9.66808e-06
1.16391e-05
-1.27076e-05
6.63753e-06
1.83049e-05
3.444e-06
2.42724e-05
3.10429e-05
8.82909e-06
1.43763e-05
-1.15663e-05
6.07551e-06
2.10585e-05
3.14923e-06
2.71986e-05
3.41921e-05
7.85118e-06
1.67437e-05
-1.02185e-05
5.41896e-06
2.34907e-05
2.80593e-06
2.98117e-05
3.6998e-05
6.76459e-06
1.87491e-05
-8.77e-06
4.68015e-06
2.55752e-05
2.42365e-06
3.20682e-05
3.94217e-05
5.62857e-06
2.04035e-05
-7.283e-06
3.90079e-06
2.7303e-05
2.02063e-06
3.39483e-05
4.14423e-05
4.48739e-06
2.17215e-05
-5.80538e-06
3.11579e-06
2.86746e-05
1.61597e-06
3.54482e-05
4.30583e-05
3.38907e-06
2.27252e-05
-4.39274e-06
2.35578e-06
2.97078e-05
1.2237e-06
3.65802e-05
4.4282e-05
2.35827e-06
2.3437e-05
-3.07012e-06
1.63991e-06
3.04262e-05
8.49258e-07
3.73709e-05
4.51312e-05
1.40698e-06
2.38811e-05
-1.85105e-06
9.79505e-07
3.08537e-05
5.0562e-07
3.78448e-05
4.56368e-05
5.35966e-07
2.40785e-05
-7.33433e-07
3.76373e-07
3.10133e-05
1.9446e-07
3.80267e-05
4.58313e-05
-2.61989e-07
2.4049e-05
2.91496e-07
-1.78049e-07
3.09293e-05
-1.067e-07
3.79553e-05
4.57246e-05
-9.96317e-07
2.38108e-05
1.23456e-06
-6.90754e-07
3.06238e-05
-3.90841e-07
3.76554e-05
4.53338e-05
-1.67707e-06
2.33809e-05
2.107e-06
-1.17086e-06
3.01176e-05
-6.65932e-07
3.71505e-05
4.46678e-05
-2.3149e-06
2.27751e-05
2.92067e-06
-1.62439e-06
2.94271e-05
-9.20766e-07
3.64469e-05
4.37471e-05
-2.92208e-06
2.20087e-05
3.68847e-06
-2.06347e-06
2.85685e-05
-1.1744e-06
3.55578e-05
4.25727e-05
-3.51261e-06
2.10967e-05
4.42462e-06
-2.50025e-06
2.75561e-05
-1.43252e-06
3.44901e-05
4.11402e-05
-4.10263e-06
2.00544e-05
5.14496e-06
-2.94934e-06
2.64028e-05
-1.70496e-06
3.32457e-05
3.94352e-05
-4.71182e-06
1.88985e-05
5.86771e-06
-3.42944e-06
2.51204e-05
-2.00439e-06
3.18206e-05
3.74308e-05
-5.36464e-06
1.76486e-05
6.61454e-06
-3.9641e-06
2.37199e-05
-2.34605e-06
3.02026e-05
3.50848e-05
-6.09122e-06
1.63283e-05
7.41146e-06
-4.58182e-06
2.22105e-05
-2.74696e-06
2.83677e-05
3.23378e-05
-6.92694e-06
1.4966e-05
8.28925e-06
-5.31377e-06
2.05973e-05
-3.22309e-06
2.62771e-05
2.91147e-05
-7.90819e-06
1.35921e-05
9.28212e-06
-6.18592e-06
1.88751e-05
-3.78238e-06
2.38735e-05
2.53324e-05
-9.05859e-06
1.22316e-05
1.04191e-05
-7.19993e-06
1.70164e-05
-4.40912e-06
2.10827e-05
2.09232e-05
-1.03557e-05
1.08866e-05
1.17007e-05
-8.2943e-06
1.4955e-05
-5.0335e-06
1.78219e-05
1.58897e-05
-1.16676e-05
9.4968e-06
1.30574e-05
-9.27469e-06
1.25621e-05
-5.45018e-06
1.39974e-05
1.04396e-05
-1.26374e-05
7.83764e-06
1.42966e-05
-9.67296e-06
9.59759e-06
-5.20531e-06
9.52975e-06
5.23424e-06
-1.26008e-05
5.46672e-06
1.49718e-05
-8.77429e-06
5.77103e-06
-3.9364e-06
4.69186e-06
1.29783e-06
-1.17607e-05
1.72274e-05
-5.98969e-06
-1.29783e-06
-1.52287e-05
9.4142e-05
-2.86799e-05
0.000107009
-4.06599e-05
0.000115702
-5.16751e-05
0.000120364
-6.21506e-05
0.00012218
-7.22956e-05
0.000122178
-8.22091e-05
0.000120883
-9.19233e-05
0.000118573
-0.000101408
0.000115385
-0.000110569
0.000111367
-0.000119263
0.000106518
-0.000127305
0.000100828
-0.000134493
9.43138e-05
-0.000140644
8.70589e-05
-0.000145616
7.92246e-05
-0.000149345
7.10436e-05
-0.000151841
6.27901e-05
-0.000153194
5.47395e-05
-0.000153543
4.7131e-05
-0.000153056
4.01422e-05
-0.000151903
3.38799e-05
-0.000150236
2.83853e-05
-0.000148183
2.36465e-05
-0.000145833
1.96138e-05
-0.000143246
1.62147e-05
-0.000140443
1.33642e-05
-0.000137413
1.09696e-05
-0.000134104
8.93727e-06
-0.000130434
7.21265e-06
-0.000126293
5.65658e-06
-0.000121552
4.19349e-06
-0.000116059
2.74425e-06
-0.000109543
1.24023e-06
-0.000101703
-4.08781e-07
-9.22253e-05
-2.40114e-06
-4.71304e-06
-1.44387e-05
0.000108581
-2.73965e-05
0.000119967
-3.90944e-05
0.0001274
-4.99268e-05
0.000131197
-6.02331e-05
0.000132486
-7.01926e-05
0.000132137
-7.98827e-05
0.000130573
-8.93096e-05
0.000128
-9.84074e-05
0.000124482
-0.000107036
0.000119995
-0.000114989
0.000114471
-0.000122015
0.000107854
-0.000127856
0.000100156
-0.000132298
9.15006e-05
-0.00013521
8.21363e-05
-0.000136573
7.24067e-05
-0.000136478
6.26954e-05
-0.0001351
5.33609e-05
-0.000132655
4.46861e-05
-0.000129366
3.68532e-05
-0.00012543
2.99446e-05
-0.000121004
2.39592e-05
-0.000116195
1.8837e-05
-0.000111063
1.44819e-05
-0.000105629
1.07807e-05
-9.988e-05
7.61547e-06
-9.37765e-05
4.86607e-06
-8.72656e-05
2.42637e-06
-8.02623e-05
2.09342e-07
-7.27221e-05
-1.88367e-06
-6.46169e-05
-3.91164e-06
-5.59534e-05
-5.91932e-06
-4.67196e-05
-7.99354e-06
-3.70516e-05
-1.00768e-05
-2.73959e-05
-1.20569e-05
-1.38767e-05
-1.36448e-05
0.000122226
-2.60247e-05
0.000132347
-3.73497e-05
0.000138725
-4.78964e-05
0.000141743
-5.79408e-05
0.00014253
-6.76211e-05
0.000141817
-7.69814e-05
0.000139933
-8.59894e-05
0.000137008
-9.45276e-05
0.00013302
-0.00010239
0.000127858
-0.000109297
0.000121378
-0.000114934
0.00011349
-0.000119011
0.000104232
-0.00012133
9.38205e-05
-0.000121838
8.26437e-05
-0.000120628
7.11969e-05
-0.000117918
5.99851e-05
-0.000113991
4.94345e-05
-0.000109145
3.98395e-05
-0.000103643
3.13514e-05
-9.76954e-05
2.39972e-05
-9.14508e-05
1.77145e-05
-8.5001e-05
1.23872e-05
-7.83944e-05
7.87531e-06
-7.16502e-05
4.03648e-06
-6.47784e-05
7.43645e-07
-5.77989e-05
-2.1134e-06
-5.07467e-05
-4.62586e-06
-4.36684e-05
-6.869e-06
-3.66368e-05
-8.91528e-06
-2.97339e-05
-1.08145e-05
-2.31596e-05
-1.24936e-05
-1.71949e-05
-1.39583e-05
-1.1933e-05
-1.53386e-05
-7.40696e-06
-1.65829e-05
-1.76037e-05
-1.2849e-05
0.000135075
-2.46209e-05
0.000144119
-3.54712e-05
0.000149575
-4.56377e-05
0.00015191
-5.53266e-05
0.000152219
-6.46263e-05
0.000151117
-7.35399e-05
0.000148847
-8.19848e-05
0.000145452
-8.97794e-05
0.000140815
-9.6645e-05
0.000134724
-0.000102236
0.000126969
-0.000106202
0.000117457
-0.000108279
0.000106309
-0.00010836
9.39006e-05
-0.000106526
8.081e-05
-0.000103026
6.76973e-05
-9.8208e-05
5.51668e-05
-9.24435e-05
4.367e-05
-8.60719e-05
3.34678e-05
-7.93658e-05
2.46453e-05
-7.25231e-05
1.71545e-05
-6.56756e-05
1.0867e-05
-5.89074e-05
5.61899e-06
-5.22785e-05
1.24639e-06
-4.5849e-05
-2.39297e-06
-3.96796e-05
-5.42581e-06
-3.38274e-05
-7.96557e-06
-2.83389e-05
-1.01144e-05
-2.32612e-05
-1.19467e-05
-1.86538e-05
-1.35227e-05
-1.45801e-05
-1.48882e-05
-1.10315e-05
-1.60422e-05
-7.98694e-06
-1.70029e-05
-5.46622e-06
-1.78594e-05
-3.43737e-06
-1.86118e-05
-1.9222e-05
-1.20539e-05
0.000147128
-2.31893e-05
0.000155254
-3.34874e-05
0.000159873
-4.31948e-05
0.000161617
-5.24395e-05
0.000161464
-6.1259e-05
0.000159937
-6.96103e-05
0.000157198
-7.73533e-05
0.000153195
-8.42391e-05
0.000147701
-8.99243e-05
0.000140409
-9.40257e-05
0.000131071
-9.62131e-05
0.000119645
-9.63103e-05
0.000106406
-9.43574e-05
9.19478e-05
-9.06032e-05
7.70558e-05
-8.54365e-05
6.25306e-05
-7.92961e-05
4.90264e-05
-7.25945e-05
3.69684e-05
-6.56729e-05
2.65463e-05
-5.87878e-05
1.77601e-05
-5.21193e-05
1.04861e-05
-4.57927e-05
4.54041e-06
-3.9902e-05
-2.71673e-07
-3.45148e-05
-4.14088e-06
-2.96564e-05
-7.25134e-06
-2.53111e-05
-9.77108e-06
-2.14384e-05
-1.18383e-05
-1.79928e-05
-1.356e-05
-1.49316e-05
-1.50079e-05
-1.22246e-05
-1.62297e-05
-9.85179e-06
-1.7261e-05
-7.76713e-06
-1.81269e-05
-5.93306e-06
-1.88369e-05
-4.36201e-06
-1.94304e-05
-3.03573e-06
-1.99381e-05
-2.03648e-05
-1.12547e-05
0.000158383
-2.17219e-05
0.000165721
-3.14331e-05
0.000169585
-4.06114e-05
0.000170796
-4.93296e-05
0.000170182
-5.7579e-05
0.000168186
-6.52664e-05
0.000164885
-7.21931e-05
0.000160122
-7.80508e-05
0.000153558
-8.24556e-05
0.000144814
-8.50311e-05
0.000133646
-8.55228e-05
0.000120136
-8.38944e-05
0.000104778
-8.03536e-05
8.8407e-05
-7.52964e-05
7.19986e-05
-6.92071e-05
5.64412e-05
-6.2564e-05
4.23833e-05
-5.57794e-05
3.01838e-05
-4.91764e-05
1.99433e-05
-4.29907e-05
1.15744e-05
-3.73844e-05
4.8798e-06
-3.24561e-05
-3.87935e-07
-2.82213e-05
-4.50643e-06
-2.46102e-05
-7.75204e-06
-2.15029e-05
-1.03586e-05
-1.87759e-05
-1.24981e-05
-1.63302e-05
-1.42839e-05
-1.41015e-05
-1.57887e-05
-1.20502e-05
-1.70592e-05
-1.01584e-05
-1.81215e-05
-8.42482e-06
-1.89945e-05
-6.84896e-06
-1.97028e-05
-5.41989e-06
-2.0266e-05
-4.13958e-06
-2.07107e-05
-3.01379e-06
-2.10638e-05
-2.13563e-05
-1.04539e-05
0.000168837
-2.023e-05
0.000175497
-2.93276e-05
0.000178682
-3.79222e-05
0.00017939
-4.60492e-05
0.000178309
-5.36566e-05
0.000175793
-6.06033e-05
0.000171832
-6.66386e-05
0.000166157
-7.14132e-05
0.000158333
-7.4537e-05
0.000147937
-7.56867e-05
0.000134796
-7.47269e-05
0.000119177
-7.17805e-05
0.000101832
-6.72055e-05
8.3832e-05
-6.14996e-05
6.62927e-05
-5.51903e-05
5.01319e-05
-4.87552e-05
3.59482e-05
-4.25847e-05
2.40134e-05
-3.6971e-05
1.43296e-05
-3.21041e-05
6.70746e-06
-2.80607e-05
8.3646e-07
-2.47809e-05
-3.66773e-06
-2.20977e-05
-7.18963e-06
-1.98225e-05
-1.00273e-05
-1.7801e-05
-1.23801e-05
-1.59302e-05
-1.4369e-05
-1.41526e-05
-1.60615e-05
-1.2446e-05
-1.74954e-05
-1.08075e-05
-1.86976e-05
-9.24276e-06
-1.96863e-05
-7.76099e-06
-2.04763e-05
-6.37838e-06
-2.10854e-05
-5.1047e-06
-2.15397e-05
-3.94729e-06
-2.18681e-05
-2.91287e-06
-2.20983e-05
-2.2266e-05
-9.65753e-06
0.000178495
-1.87313e-05
0.000184571
-2.71911e-05
0.000187142
-3.5164e-05
0.000187363
-4.26539e-05
0.000185799
-4.9571e-05
0.000182711
-5.57318e-05
0.000177993
-6.08477e-05
0.000171273
-6.45535e-05
0.000162039
-6.64886e-05
0.000149872
-6.64197e-05
0.000134727
-6.43505e-05
0.000117107
-6.05512e-05
9.80323e-05
-5.54902e-05
7.8771e-05
-4.97163e-05
6.05188e-05
-4.37573e-05
4.41728e-05
-3.80625e-05
3.02535e-05
-3.29771e-05
1.89279e-05
-2.87183e-05
1.00708e-05
-2.53446e-05
3.33378e-06
-2.27422e-05
-1.76599e-06
-2.06841e-05
-5.72581e-06
-1.89485e-05
-8.92523e-06
-1.73756e-05
-1.16001e-05
-1.58726e-05
-1.38831e-05
-1.43925e-05
-1.58491e-05
-1.29172e-05
-1.75368e-05
-1.14462e-05
-1.89664e-05
-9.99254e-06
-2.01513e-05
-8.57388e-06
-2.11049e-05
-7.20818e-06
-2.1842e-05
-5.91671e-06
-2.23768e-05
-4.71986e-06
-2.27365e-05
-3.63419e-06
-2.29538e-05
-2.67017e-06
-2.30623e-05
-2.31001e-05
-8.87272e-06
0.000187367
-1.72413e-05
0.00019294
-2.50474e-05
0.000194948
-3.23762e-05
0.000194692
-3.92029e-05
0.000192626
-4.5406e-05
0.000188914
-5.07698e-05
0.000183357
-5.49853e-05
0.000175489
-5.76981e-05
0.000164752
-5.86073e-05
0.000150782
-5.75901e-05
0.00013371
-5.47844e-05
0.000114302
-5.05757e-05
9.38236e-05
-4.54963e-05
7.36915e-05
-4.01017e-05
5.51243e-05
-3.48869e-05
3.89579e-05
-3.02431e-05
2.56096e-05
-2.6423e-05
1.51079e-05
-2.3496e-05
7.1437e-06
-2.13342e-05
1.17205e-06
-1.96875e-05
-3.41278e-06
-1.83157e-05
-7.09755e-06
-1.70596e-05
-1.01813e-05
-1.58281e-05
-1.28316e-05
-1.4575e-05
-1.51361e-05
-1.32845e-05
-1.71396e-05
-1.19576e-05
-1.88638e-05
-1.06037e-05
-2.03203e-05
-9.24112e-06
-2.15138e-05
-7.89421e-06
-2.24519e-05
-6.58991e-06
-2.31463e-05
-5.35459e-06
-2.36122e-05
-4.21402e-06
-2.38771e-05
-3.19026e-06
-2.39776e-05
-2.29815e-06
-2.39544e-05
-2.38509e-05
-8.10598e-06
0.000195473
-1.57743e-05
0.000200608
-2.29222e-05
0.000202096
-2.95991e-05
0.000201369
-3.57552e-05
0.000198782
-4.12448e-05
0.000194403
-4.58319e-05
0.000187944
-4.92063e-05
0.000178863
-5.10477e-05
0.000166593
-5.11352e-05
0.000150869
-4.9459e-05
0.000132033
-4.62673e-05
0.00011111
-4.20193e-05
8.95756e-05
-3.72689e-05
6.89411e-05
-3.25439e-05
5.03993e-05
-2.8275e-05
3.4689e-05
-2.47566e-05
2.20913e-05
-2.20988e-05
1.245e-05
-2.02005e-05
5.24543e-06
-1.8818e-05
-2.10419e-07
-1.77021e-05
-4.52872e-06
-1.66846e-05
-8.11498e-06
-1.567e-05
-1.1196e-05
-1.46104e-05
-1.38912e-05
-1.34855e-05
-1.62611e-05
-1.22927e-05
-1.83324e-05
-1.10409e-05
-2.01156e-05