/*--------------------------------*- C++ -*----------------------------------*\
| =========                 |                                                 |
| \\      /  F ield         | OpenFOAM: The Open Source CFD Toolbox           |
|  \\    /   O peration     | Version:  v2012                                 |
|   \\  /    A nd           | Website:  www.openfoam.com                      |
|    \\/     M anipulation  |                                                 |
\*---------------------------------------------------------------------------*/
FoamFile
{
    version     2.0;
    format      ascii;
    class       volVectorField;
    location    "620";
    object      U;
}
// * * * * * * * * * * * * * * * * * * * * * * * * * * * * * * * * * * * * * //

dimensions      [0 1 -1 0 0 0 0];


internalField   nonuniform List<vector> 
6108
(
(0.000378386 -0.992456 0)
(0.000334427 -0.993005 0)
(0.000302474 -0.993473 0)
(0.000280633 -0.993883 0)
(0.000266653 -0.994254 0)
(0.000258804 -0.994599 0)
(0.000255695 -0.99493 0)
(0.000256368 -0.995254 0)
(0.000260142 -0.995575 0)
(0.000266836 -0.9959 0)
(0.00027626 -0.996231 0)
(0.000288378 -0.996574 0)
(0.000303181 -0.996932 0)
(0.000320417 -0.997307 0)
(0.000339276 -0.997703 0)
(0.000357724 -0.998127 0)
(0.000370815 -0.998582 0)
(0.000366455 -0.999055 0)
(0.000297281 -0.999476 0)
(7.41065e-05 -0.999763 0)
(0.000619773 -0.999124 0)
(0.00050594 -0.999371 0)
(0.000423635 -0.999543 0)
(0.000366513 -0.999664 0)
(0.000328427 -0.99975 0)
(0.000304509 -0.999811 0)
(0.000290804 -0.999857 0)
(0.000284505 -0.999893 0)
(0.000283241 -0.999923 0)
(0.000286952 -0.99995 0)
(0.000294959 -0.999975 0)
(0.00030684 -1 0)
(0.000322341 -1.00003 0)
(0.00034107 -1.00005 0)
(0.000362191 -1.00008 0)
(0.000383582 -1.00011 0)
(0.000398084 -1.00014 0)
(0.000403898 -1.00015 0)
(0.000356799 -1.00013 0)
(0.000192318 -1.00003 0)
(0.0008067 -1.00105 0)
(0.00062505 -1.00119 0)
(0.000495221 -1.00126 0)
(0.000405665 -1.00128 0)
(0.000345649 -1.00127 0)
(0.000306653 -1.00124 0)
(0.000282369 -1.0012 0)
(0.000269507 -1.00114 0)
(0.000263256 -1.00108 0)
(0.000263294 -1.00101 0)
(0.000268256 -1.00094 0)
(0.000277268 -1.00087 0)
(0.00028989 -1.00078 0)
(0.000305546 -1.0007 0)
(0.000321763 -1.0006 0)
(0.000331776 -1.00051 0)
(0.000336682 -1.00039 0)
(0.000326744 -1.00027 0)
(0.000271461 -1.00013 0)
(0.000131573 -1.00002 0)
(0.000924466 -1.00197 0)
(0.000678315 -1.00203 0)
(0.000505309 -1.00203 0)
(0.000388013 -1.002 0)
(0.000308631 -1.00193 0)
(0.000256644 -1.00185 0)
(0.000223018 -1.00176 0)
(0.000202485 -1.00167 0)
(0.000191446 -1.00156 0)
(0.000187067 -1.00145 0)
(0.000187603 -1.00133 0)
(0.000191959 -1.0012 0)
(0.000199355 -1.00107 0)
(0.000208835 -1.00092 0)
(0.000218429 -1.00077 0)
(0.000224643 -1.00061 0)
(0.000224846 -1.00045 0)
(0.000209105 -1.00027 0)
(0.000161484 -1.00011 0)
(6.80051e-05 -1.00002 0)
(0.000979692 -1.0025 0)
(0.000676584 -1.00248 0)
(0.000468727 -1.00242 0)
(0.000326396 -1.00233 0)
(0.000233219 -1.00223 0)
(0.000174641 -1.00212 0)
(0.000134185 -1.002 0)
(0.000108023 -1.00188 0)
(9.15142e-05 -1.00175 0)
(8.16297e-05 -1.00162 0)
(7.62976e-05 -1.00148 0)
(7.41981e-05 -1.00133 0)
(7.44242e-05 -1.00117 0)
(7.61949e-05 -1.001 0)
(7.84432e-05 -1.00083 0)
(7.96282e-05 -1.00064 0)
(7.83683e-05 -1.00045 0)
(7.13951e-05 -1.00026 0)
(5.33068e-05 -1.0001 0)
(2.10891e-05 -1.00001 0)
(0.000951245 -1.00279 0)
(0.000606731 -1.00266 0)
(0.000384269 -1.00254 0)
(0.000236047 -1.00241 0)
(0.000138977 -1.00228 0)
(7.46901e-05 -1.00216 0)
(3.117e-05 -1.00203 0)
(1.59958e-06 -1.0019 0)
(-1.88832e-05 -1.00176 0)
(-3.35208e-05 -1.00163 0)
(-4.45043e-05 -1.00148 0)
(-5.32574e-05 -1.00133 0)
(-6.06754e-05 -1.00117 0)
(-6.71839e-05 -1.00101 0)
(-7.25266e-05 -1.00083 0)
(-7.57652e-05 -1.00064 0)
(-7.59226e-05 -1.00045 0)
(-6.99351e-05 -1.00026 0)
(-5.25497e-05 -1.0001 0)
(-2.08414e-05 -1.00001 0)
(0.000819067 -1.00281 0)
(0.000481327 -1.00257 0)
(0.000257604 -1.00239 0)
(0.000121179 -1.00223 0)
(3.0183e-05 -1.00209 0)
(-3.1817e-05 -1.00196 0)
(-7.37835e-05 -1.00183 0)
(-0.000103646 -1.00171 0)
(-0.000125911 -1.00159 0)
(-0.000143621 -1.00147 0)
(-0.00015887 -1.00134 0)
(-0.000173041 -1.00121 0)
(-0.000186942 -1.00107 0)
(-0.000200703 -1.00093 0)
(-0.000213082 -1.00077 0)
(-0.000221153 -1.00061 0)
(-0.000222658 -1.00045 0)
(-0.000207814 -1.00027 0)
(-0.000160845 -1.00011 0)
(-6.77966e-05 -1.00002 0)
(0.000534396 -1.00241 0)
(0.000286684 -1.00203 0)
(0.000100157 -1.00182 0)
(-5.19847e-06 -1.00164 0)
(-7.79094e-05 -1.00151 0)
(-0.000127834 -1.0014 0)
(-0.000163409 -1.0013 0)
(-0.000189848 -1.00121 0)
(-0.000210766 -1.00113 0)
(-0.000228681 -1.00104 0)
(-0.000245403 -1.00096 0)
(-0.000262231 -1.00088 0)
(-0.000280053 -1.00079 0)
(-0.000299164 -1.0007 0)
(-0.000317531 -1.00061 0)
(-0.000328929 -1.00051 0)
(-0.000334911 -1.00039 0)
(-0.000325729 -1.00027 0)
(-0.000271007 -1.00013 0)
(-0.000131439 -1.00002 0)
(2.16285e-05 -1.00116 0)
(8.06077e-05 -1.0004 0)
(-4.28774e-05 -1.00025 0)
(-0.00010188 -1.00012 0)
(-0.000150366 -1.00005 0)
(-0.000184923 -1.00001 0)
(-0.000210754 -0.999991 0)
(-0.00023099 -0.999981 0)
(-0.000248096 -0.999981 0)
(-0.000263886 -0.999987 0)
(-0.000279763 -0.999999 0)
(-0.000296812 -1.00002 0)
(-0.000315745 -1.00004 0)
(-0.000336749 -1.00006 0)
(-0.000359383 -1.00009 0)
(-0.000381788 -1.00012 0)
(-0.00039691 -1.00014 0)
(-0.000403014 -1.00015 0)
(-0.000356735 -1.00013 0)
(-0.000192288 -1.00003 0)
(-0.000363588 -0.996992 0)
(-5.12196e-05 -0.994177 0)
(-0.000149882 -0.994285 0)
(-0.000167987 -0.994439 0)
(-0.000188296 -0.994625 0)
(-0.000205416 -0.994846 0)
(-0.000219655 -0.995093 0)
(-0.000232189 -0.99536 0)
(-0.00024406 -0.995645 0)
(-0.000256139 -0.995945 0)
(-0.000269152 -0.996261 0)
(-0.000283682 -0.996593 0)
(-0.000300092 -0.996943 0)
(-0.000318347 -0.997314 0)
(-0.000337869 -0.997708 0)
(-0.000356812 -0.998129 0)
(-0.000370256 -0.998583 0)
(-0.000366181 -0.999056 0)
(-0.000297254 -0.999476 0)
(-7.40965e-05 -0.999763 0)
(0.000720799 -0.988824 0)
(0.000611315 -0.990013 0)
(0.000517534 -0.990993 0)
(0.000439277 -0.991797 0)
(0.00145512 -0.996771 0)
(0.00119042 -0.997628 0)
(0.0009629 -0.998287 0)
(0.000771517 -0.998774 0)
(0.00217228 -0.999135 0)
(0.00174229 -0.999881 0)
(0.00136959 -1.00043 0)
(0.00105416 -1.00081 0)
(0.00282236 -1.00034 0)
(0.00223287 -1.00102 0)
(0.00171623 -1.00151 0)
(0.00127123 -1.00182 0)
(0.00341915 -1.00109 0)
(0.00267853 -1.00173 0)
(0.00202052 -1.00218 0)
(0.00143271 -1.00243 0)
(0.00400441 -1.00147 0)
(0.00312081 -1.00213 0)
(0.00231667 -1.00259 0)
(0.00154497 -1.0028 0)
(0.00471479 -1.00127 0)
(0.00362898 -1.00211 0)
(0.00260755 -1.00273 0)
(0.00158521 -1.00296 0)
(0.00560845 -0.999451 0)
(0.00405463 -1.00104 0)
(0.00283601 -1.00219 0)
(0.00174979 -1.00272 0)
(0.00592358 -0.991316 0)
(0.0044248 -0.99551 0)
(0.00380378 -0.998568 0)
(0.00303265 -1.00076 0)
(0.0231545 -0.932902 0)
(0.0204077 -0.949061 0)
(0.0170371 -0.964099 0)
(0.00959977 -0.982505 0)
(-0.025671 0.0123063 0)
(-0.0206952 0.043803 0)
(-0.00543717 0.0434787 0)
(0.00790733 0.0248953 0)
(0.0197024 -0.0136346 0)
(0.0325965 -0.0777339 0)
(0.0396762 -0.166923 0)
(0.0390744 -0.251968 0)
(0.0356169 -0.328354 0)
(0.0324972 -0.398998 0)
(0.0297645 -0.463818 0)
(0.0272631 -0.523299 0)
(0.0249528 -0.577823 0)
(0.0227897 -0.627702 0)
(0.0207441 -0.673185 0)
(0.0187975 -0.714479 0)
(0.0169407 -0.751771 0)
(0.015172 -0.785244 0)
(0.013495 -0.815088 0)
(0.0119164 -0.841506 0)
(0.010446 -0.864715 0)
(0.00910239 -0.88497 0)
(0.00788586 -0.902521 0)
(0.00678407 -0.917616 0)
(0.00579631 -0.930505 0)
(0.00492074 -0.941432 0)
(0.00415316 -0.950633 0)
(0.00348794 -0.958336 0)
(0.00291818 -0.964751 0)
(0.00243477 -0.970075 0)
(0.00202653 -0.974479 0)
(0.00168994 -0.978115 0)
(0.00141457 -0.981118 0)
(0.00118874 -0.983606 0)
(0.00100321 -0.985672 0)
(0.000849536 -0.987392 0)
(-0.0445816 0.00137395 0)
(-0.00991317 0.0216172 0)
(0.0199939 0.00456734 0)
(0.0441108 -0.042645 0)
(0.0702811 -0.113515 0)
(0.0904937 -0.193884 0)
(0.0963143 -0.270616 0)
(0.0917156 -0.334627 0)
(0.0848036 -0.398648 0)
(0.0781945 -0.459409 0)
(0.0719827 -0.516414 0)
(0.0661944 -0.569594 0)
(0.0607579 -0.618952 0)
(0.055604 -0.664539 0)
(0.050681 -0.706412 0)
(0.0459598 -0.744636 0)
(0.0414317 -0.779292 0)
(0.0371037 -0.810481 0)
(0.0329935 -0.83833 0)
(0.0291235 -0.862998 0)
(0.0255154 -0.884666 0)
(0.0221837 -0.90354 0)
(0.0191384 -0.919825 0)
(0.0163856 -0.933762 0)
(0.0139254 -0.945594 0)
(0.0117513 -0.955561 0)
(0.00985159 -0.963893 0)
(0.00821021 -0.97081 0)
(0.00680872 -0.976516 0)
(0.005626 -0.981197 0)
(0.00463175 -0.98498 0)
(0.00380823 -0.98809 0)
(0.00313765 -0.990613 0)
(0.00258904 -0.992667 0)
(0.00213895 -0.994335 0)
(0.00176663 -0.995686 0)
(-0.0506383 -0.0148205 0)
(0.0129881 -0.0122511 0)
(0.0563001 -0.0538632 0)
(0.0955875 -0.117124 0)
(0.128284 -0.189236 0)
(0.145702 -0.256993 0)
(0.147041 -0.317149 0)
(0.140491 -0.373826 0)
(0.132185 -0.430773 0)
(0.123378 -0.485582 0)
(0.11464 -0.538095 0)
(0.106175 -0.587865 0)
(0.097985 -0.634639 0)
(0.0900394 -0.678244 0)
(0.0823111 -0.718573 0)
(0.0747954 -0.755569 0)
(0.0675101 -0.789219 0)
(0.0604915 -0.81956 0)
(0.0537871 -0.846673 0)
(0.0474472 -0.870681 0)
(0.0415179 -0.891747 0)
(0.0360359 -0.910062 0)
(0.0310264 -0.925845 0)
(0.0265029 -0.939327 0)
(0.0224653 -0.950746 0)
(0.0189023 -0.960336 0)
(0.0157932 -0.968324 0)
(0.0131095 -0.974924 0)
(0.010818 -0.980338 0)
(0.00888529 -0.984751 0)
(0.00728018 -0.988329 0)
(0.00595904 -0.991223 0)
(0.00487836 -0.993557 0)
(0.00399719 -0.99544 0)
(0.00327467 -0.996957 0)
(0.00267561 -0.998173 0)
(-0.026962 -0.0289607 0)
(0.0446093 -0.0486119 0)
(0.101777 -0.104595 0)
(0.149715 -0.170722 0)
(0.181111 -0.234774 0)
(0.193296 -0.291408 0)
(0.191836 -0.344105 0)
(0.184722 -0.396835 0)
(0.175597 -0.449426 0)
(0.165377 -0.500809 0)
(0.154827 -0.550624 0)
(0.144237 -0.598327 0)
(0.133711 -0.643549 0)
(0.123284 -0.685998 0)
(0.112981 -0.725462 0)
(0.102843 -0.7618 0)
(0.0929291 -0.794934 0)
(0.0833171 -0.824851 0)
(0.0740936 -0.851597 0)
(0.0653444 -0.875273 0)
(0.0571457 -0.896028 0)
(0.0495577 -0.91405 0)
(0.0426215 -0.929554 0)
(0.036358 -0.94277 0)
(0.0307686 -0.953934 0)
(0.0258384 -0.963281 0)
(0.0215394 -0.971038 0)
(0.0178331 -0.977422 0)
(0.0146738 -0.982634 0)
(0.0120127 -0.986857 0)
(0.0098008 -0.990257 0)
(0.0079849 -0.992983 0)
(0.00650718 -0.995168 0)
(0.00530701 -0.996923 0)
(0.00432505 -0.998332 0)
(0.0035098 -0.999456 0)
(0.00563562 -0.0405815 0)
(0.0860552 -0.0771956 0)
(0.151125 -0.139599 0)
(0.199718 -0.20331 0)
(0.226404 -0.260141 0)
(0.23481 -0.311262 0)
(0.232614 -0.361062 0)
(0.225593 -0.411319 0)
(0.216026 -0.461362 0)
(0.204943 -0.510679 0)
(0.193102 -0.558788 0)
(0.180847 -0.605168 0)
(0.168359 -0.649398 0)
(0.155741 -0.691125 0)
(0.143079 -0.730069 0)
(0.130469 -0.766024 0)
(0.118027 -0.798862 0)
(0.105883 -0.828528 0)
(0.0941761 -0.855043 0)
(0.0830367 -0.878494 0)
(0.0725784 -0.899026 0)
(0.06289 -0.916826 0)
(0.0540311 -0.932112 0)
(0.0460322 -0.94512 0)
(0.0388965 -0.956088 0)
(0.0326054 -0.965252 0)
(0.0271229 -0.97284 0)
(0.0224005 -0.979068 0)
(0.01838 -0.984135 0)
(0.0149983 -0.988222 0)
(0.0121916 -0.991492 0)
(0.009894 -0.994097 0)
(0.0080337 -0.996175 0)
(0.00652994 -0.997841 0)
(0.00530284 -0.99918 0)
(0.00428253 -1.00025 0)
(0.0499524 -0.0468158 0)
(0.134994 -0.0958635 0)
(0.201145 -0.160738 0)
(0.245724 -0.220887 0)
(0.267675 -0.273536 0)
(0.274047 -0.322642 0)
(0.271824 -0.371299 0)
(0.264911 -0.420136 0)
(0.255052 -0.468743 0)
(0.243325 -0.51679 0)
(0.23043 -0.563816 0)
(0.216744 -0.609344 0)
(0.202496 -0.652934 0)
(0.187842 -0.69419 0)
(0.172926 -0.732783 0)
(0.157907 -0.768456 0)
(0.142964 -0.801038 0)
(0.128295 -0.830451 0)
(0.114099 -0.856703 0)
(0.100561 -0.879885 0)
(0.0878382 -0.90015 0)
(0.0760506 -0.9177 0)
(0.0652768 -0.932768 0)
(0.0555555 -0.945598 0)
(0.0468895 -0.956435 0)
(0.0392535 -0.965513 0)
(0.0326026 -0.973054 0)
(0.0268777 -0.979265 0)
(0.0220068 -0.984337 0)
(0.0179109 -0.988441 0)
(0.0145125 -0.99173 0)
(0.0117362 -0.994353 0)
(0.00950089 -0.996452 0)
(0.00770495 -0.998146 0)
(0.00624587 -0.999518 0)
(0.00503341 -1.00062 0)
(0.10194 -0.0504534 0)
(0.188209 -0.105989 0)
(0.250418 -0.17146 0)
(0.289496 -0.228781 0)
(0.307658 -0.279692 0)
(0.312805 -0.328357 0)
(0.310478 -0.37657 0)
(0.303481 -0.424657 0)
(0.293326 -0.47245 0)
(0.281012 -0.519703 0)
(0.26717 -0.566021 0)
(0.252176 -0.610957 0)
(0.236274 -0.654057 0)
(0.21966 -0.694891 0)
(0.20253 -0.733081 0)
(0.185109 -0.76833 0)
(0.167654 -0.800442 0)
(0.15044 -0.829332 0)
(0.13374 -0.855025 0)
(0.117803 -0.87764 0)
(0.102834 -0.897371 0)
(0.0889818 -0.914461 0)
(0.0763424 -0.929176 0)
(0.0649562 -0.941788 0)
(0.054819 -0.952551 0)
(0.0458927 -0.961697 0)
(0.0381189 -0.969427 0)
(0.0314247 -0.975925 0)
(0.0257191 -0.981352 0)
(0.02091 -0.985854 0)
(0.0169116 -0.989553 0)
(0.0136492 -0.992573 0)
(0.0110499 -0.995049 0)
(0.00898524 -0.997103 0)
(0.00731724 -0.998806 0)
(0.00592556 -1.00019 0)
(0.162122 -0.053358 0)
(0.242441 -0.110393 0)
(0.29859 -0.175129 0)
(0.33222 -0.230672 0)
(0.347385 -0.281151 0)
(0.351503 -0.329903 0)
(0.348849 -0.377938 0)
(0.341607 -0.425609 0)
(0.331101 -0.472885 0)
(0.318203 -0.519575 0)
(0.303457 -0.565327 0)
(0.287197 -0.6097 0)
(0.269665 -0.65221 0)
(0.251079 -0.692377 0)
(0.23169 -0.729769 0)
(0.211801 -0.764053 0)
(0.191762 -0.795022 0)
(0.171947 -0.822614 0)
(0.15272 -0.846908 0)
(0.134402 -0.868102 0)
(0.117251 -0.886482 0)
(0.101445 -0.902383 0)
(0.0870854 -0.916158 0)
(0.0742029 -0.928144 0)
(0.062771 -0.938642 0)
(0.0527221 -0.947898 0)
(0.0439673 -0.956107 0)
(0.0364157 -0.963413 0)
(0.0300009 -0.969864 0)
(0.0245977 -0.975569 0)
(0.0200723 -0.980564 0)
(0.0163672 -0.984898 0)
(0.0134159 -0.98867 0)
(0.0110388 -0.992006 0)
(0.00903321 -0.99493 0)
(0.00726159 -0.997423 0)
(0.225227 -0.0544575 0)
(0.295966 -0.110647 0)
(0.34572 -0.174264 0)
(0.37448 -0.22881 0)
(0.38714 -0.279288 0)
(0.390205 -0.328166 0)
(0.387035 -0.376058 0)
(0.379419 -0.423398 0)
(0.368485 -0.470217 0)
(0.354956 -0.516344 0)
(0.339263 -0.561426 0)
(0.321675 -0.604981 0)
(0.302406 -0.646454 0)
(0.281693 -0.685277 0)
(0.25985 -0.720938 0)
(0.23728 -0.753056 0)
(0.214459 -0.781419 0)
(0.19189 -0.806019 0)
(0.170056 -0.827037 0)
(0.149376 -0.844811 0)
(0.130164 -0.859791 0)
(0.112627 -0.872482 0)
(0.0968594 -0.883397 0)
(0.0828606 -0.893022 0)
(0.0705536 -0.901788 0)
(0.0598061 -0.910048 0)
(0.0504558 -0.918077 0)
(0.0423314 -0.926083 0)
(0.0352606 -0.934187 0)
(0.0291396 -0.942285 0)
(0.0239991 -0.950198 0)
(0.0196845 -0.957903 0)
(0.0161029 -0.965397 0)
(0.0129595 -0.972711 0)
(0.0102013 -0.979637 0)
(0.00785963 -0.985921 0)
(0.285691 -0.0533192 0)
(0.348419 -0.107988 0)
(0.392027 -0.170573 0)
(0.416485 -0.224484 0)
(0.426945 -0.2749 0)
(0.428875 -0.323722 0)
(0.425029 -0.371347 0)
(0.41691 -0.418252 0)
(0.405434 -0.464469 0)
(0.391145 -0.509803 0)
(0.37434 -0.55383 0)
(0.355193 -0.595961 0)
(0.333871 -0.635495 0)
(0.31063 -0.671711 0)
(0.285866 -0.703968 0)
(0.260122 -0.731809 0)
(0.234048 -0.75503 0)
(0.20833 -0.773705 0)
(0.183614 -0.788163 0)
(0.160439 -0.798929 0)
(0.139198 -0.806647 0)
(0.120122 -0.812002 0)
(0.1033 -0.815667 0)
(0.0886995 -0.818267 0)
(0.0762029 -0.820359 0)
(0.0656397 -0.822427 0)
(0.0568134 -0.824899 0)
(0.0495146 -0.828205 0)
(0.0435053 -0.832809 0)
(0.0384646 -0.839094 0)
(0.0341614 -0.847242 0)
(0.0304622 -0.857373 0)
(0.0280496 -0.869201 0)
(0.0268414 -0.882901 0)
(0.0259493 -0.898308 0)
(0.0248835 -0.915134 0)
(0.0059843 -0.351966 0)
(-0.00425235 -0.282986 0)
(-0.0242432 -0.214424 0)
(-0.0401346 -0.15322 0)
(-0.0510367 -0.0642246 0)
(-0.0562201 -0.0249339 0)
(-0.0723345 0.00685692 0)
(-0.117746 0.0121809 0)
(-0.0690287 -0.00869488 0)
(-0.0735833 0.00401146 0)
(-0.0823837 0.0129382 0)
(-0.0986792 0.00836923 0)
(-0.0768747 -0.00502369 0)
(-0.0793075 0.000796715 0)
(-0.0841767 0.00505537 0)
(-0.0917647 0.00240516 0)
(-0.0809666 -0.00634533 0)
(-0.0829932 -0.00197525 0)
(-0.0859315 0.00123034 0)
(-0.0891478 0.00108824 0)
(-0.0847321 -0.00729313 0)
(-0.086109 -0.00349791 0)
(-0.0876742 -0.000696472 0)
(-0.0885033 0.000167156 0)
(-0.088081 -0.00741546 0)
(-0.0888345 -0.00403742 0)
(-0.0894466 -0.00153232 0)
(-0.0888512 -0.000173942 0)
(-0.0910707 -0.00682825 0)
(-0.0912316 -0.00386625 0)
(-0.0911149 -0.00170103 0)
(-0.0895881 -0.000287337 0)
(-0.0936951 -0.00568244 0)
(-0.0932743 -0.00317324 0)
(-0.0925439 -0.00142474 0)
(-0.0903485 -0.000172145 0)
(-0.0959238 -0.00408859 0)
(-0.0949153 -0.00208058 0)
(-0.0936265 -0.000833727 0)
(-0.0908816 0.000142463 0)
(-0.0977186 -0.00212001 0)
(-0.0961001 -0.000666886 0)
(-0.0942673 -2.22904e-06 0)
(-0.0910182 0.000563359 0)
(-0.09904 0.000177194 0)
(-0.0967717 0.00102023 0)
(-0.0943755 0.00102975 0)
(-0.090633 0.0010823 0)
(-0.0998472 0.00277359 0)
(-0.0968715 0.00295043 0)
(-0.0938673 0.00223399 0)
(-0.0896183 0.00163767 0)
(-0.100101 0.00564936 0)
(-0.0963465 0.00510742 0)
(-0.0926724 0.0035946 0)
(-0.0878766 0.00236393 0)
(-0.0997627 0.00879008 0)
(-0.0951471 0.00747711 0)
(-0.0907292 0.00510414 0)
(-0.085314 0.00319389 0)
(-0.098795 0.0121849 0)
(-0.0932236 0.0100502 0)
(-0.0879719 0.00676254 0)
(-0.0818428 0.00412395 0)
(-0.0971625 0.015822 0)
(-0.0905294 0.0128175 0)
(-0.0843385 0.00856974 0)
(-0.077377 0.00516874 0)
(-0.0948318 0.0196848 0)
(-0.0870219 0.0157651 0)
(-0.0797729 0.010523 0)
(-0.0718262 0.00633955 0)
(-0.0917719 0.0237472 0)
(-0.0826638 0.0188693 0)
(-0.074228 0.0126128 0)
(-0.065099 0.00764393 0)
(-0.0879544 0.0279669 0)
(-0.0774264 0.0220889 0)
(-0.0676793 0.0148162 0)
(-0.0571357 0.0090752 0)
(-0.0833475 0.0322764 0)
(-0.0712834 0.0253517 0)
(-0.0601307 0.0170771 0)
(-0.0479588 0.0105794 0)
(-0.0778962 0.0365703 0)
(-0.0641833 0.0285356 0)
(-0.0515633 0.0192621 0)
(-0.0375338 0.0119608 0)
(-0.0715311 0.0406955 0)
(-0.0560443 0.0314793 0)
(-0.0418827 0.0211539 0)
(-0.0255278 0.0128054 0)
(-0.064267 0.0444508 0)
(-0.0468536 0.0340781 0)
(-0.0311054 0.0227885 0)
(-0.0136084 0.0134902 0)
(-0.0558294 0.047929 0)
(-0.036543 0.0363352 0)
(-0.0192727 0.0242537 0)
(-0.000972544 0.0144147 0)
(-0.046144 0.0514348 0)
(-0.0253203 0.0384388 0)
(-0.00667303 0.0255176 0)
(0.0122462 0.0147695 0)
(-0.0353845 0.0547843 0)
(-0.0131629 0.0404403 0)
(0.00667229 0.0264568 0)
(0.0263496 0.0146847 0)
(-0.0237017 0.0575048 0)
(-0.000101347 0.0422092 0)
(0.0205578 0.0272877 0)
(0.0407285 0.0150525 0)
(-0.0113019 0.0591964 0)
(0.0135029 0.0433213 0)
(0.0348455 0.0277866 0)
(0.0568364 0.0154686 0)
(0.00162656 0.0596121 0)
(0.027373 0.0434786 0)
(0.0492751 0.0276007 0)
(0.0725559 0.0152773 0)
(0.0148493 0.0586223 0)
(0.0412524 0.0426592 0)
(0.0636443 0.0268594 0)
(0.0880296 0.0146594 0)
(0.0280158 0.0561994 0)
(0.0547348 0.0408921 0)
(0.0776265 0.0256829 0)
(0.103108 0.0138216 0)
(0.0406822 0.052523 0)
(0.0673766 0.0382587 0)
(0.0908748 0.0240548 0)
(0.117424 0.0128269 0)
(0.052352 0.0478928 0)
(0.0789849 0.0350148 0)
(0.103175 0.0219446 0)
(0.130684 0.0116904 0)
(0.0625801 0.0424094 0)
(0.0893794 0.0313068 0)
(0.1143 0.0194762 0)
(0.142653 0.0104432 0)
(0.0713002 0.0364374 0)
(0.0984478 0.0271025 0)
(0.12408 0.0167401 0)
(0.15316 0.00911578 0)
(0.0786115 0.0303326 0)
(0.106091 0.0226233 0)
(0.132381 0.0138677 0)
(0.162084 0.0077517 0)
(0.0845703 0.0242124 0)
(0.112293 0.0180927 0)
(0.13915 0.0109903 0)
(0.169373 0.00640274 0)
(0.0892018 0.0183046 0)
(0.11709 0.0137023 0)
(0.144407 0.00822096 0)
(0.175049 0.00508871 0)
(0.092611 0.0127531 0)
(0.120573 0.00956811 0)
(0.148235 0.00562758 0)
(0.179184 0.00379588 0)
(0.0949005 0.00762763 0)
(0.122843 0.00574916 0)
(0.150741 0.00323317 0)
(0.181879 0.00266441 0)
(0.0961634 0.0029314 0)
(0.123996 0.00225565 0)
(0.152021 0.00103328 0)
(0.183258 0.00172163 0)
(0.0964818 -0.00137201 0)
(0.124125 -0.000945862 0)
(0.152208 -0.000990955 0)
(0.183416 0.000720506 0)
(0.0959288 -0.00533023 0)
(0.123325 -0.00389869 0)
(0.151447 -0.00286118 0)
(0.182406 -0.000249032 0)
(0.0945753 -0.00899395 0)
(0.121682 -0.00664773 0)
(0.149824 -0.00460953 0)
(0.180282 -0.00123928 0)
(0.0924877 -0.0124166 0)
(0.119272 -0.0092357 0)
(0.147393 -0.00627551 0)
(0.177097 -0.0020664 0)
(0.089728 -0.0156585 0)
(0.116158 -0.0117177 0)
(0.144199 -0.0079023 0)
(0.172902 -0.00289498 0)
(0.0863557 -0.018787 0)
(0.112402 -0.0141571 0)
(0.140278 -0.00953968 0)
(0.167693 -0.00372827 0)
(0.0824308 -0.0218786 0)
(0.108057 -0.0166293 0)
(0.135651 -0.0112499 0)
(0.161435 -0.00458862 0)
(0.0780163 -0.0250247 0)
(0.103174 -0.0192276 0)
(0.130318 -0.0131103 0)
(0.154048 -0.00551265 0)
(0.0731834 -0.0283372 0)
(0.0977971 -0.0220697 0)
(0.124248 -0.0152153 0)
(0.145399 -0.00654571 0)
(0.0680178 -0.0319536 0)
(0.0919704 -0.0252993 0)
(0.117378 -0.0176736 0)
(0.135292 -0.00773834 0)
(0.0626246 -0.0360379 0)
(0.085729 -0.0290793 0)
(0.10959 -0.0205946 0)
(0.123467 -0.00913769 0)
(0.0571284 -0.0407683 0)
(0.0790862 -0.0335603 0)
(0.100708 -0.0240511 0)
(0.109616 -0.0107667 0)
(0.05166 -0.046284 0)
(0.0720026 -0.0387967 0)
(0.0904802 -0.0279941 0)
(0.0934435 -0.0125765 0)
(0.0463137 -0.0525496 0)
(0.0643178 -0.044565 0)
(0.0785741 -0.032086 0)
(0.0747689 -0.0143627 0)
(0.0410656 -0.0590891 0)
(0.0556889 -0.0500407 0)
(0.0647109 -0.0353682 0)
(0.0538432 -0.0154265 0)
(0.035388 -0.0645 0)
(0.0454439 -0.0531825 0)
(0.048258 -0.0356655 0)
(0.0311444 -0.0141635 0)
(0.0283069 -0.0663244 0)
(0.031602 -0.0505421 0)
(0.0278209 -0.0302527 0)
(0.0101851 -0.00966746 0)
(0.0153061 -0.0726388 0)
(0.0167229 -0.0374779 0)
(0.0103569 -0.0187232 0)
(0.000504338 -0.00280101 0)
(0.346439 -0.0508398 0)
(0.401315 -0.103566 0)
(0.438967 -0.164928 0)
(0.459476 -0.218219 0)
(0.467832 -0.268287 0)
(0.468512 -0.316709 0)
(0.463833 -0.363804 0)
(0.455043 -0.409991 0)
(0.442824 -0.455249 0)
(0.427503 -0.499282 0)
(0.409196 -0.541514 0)
(0.387942 -0.581142 0)
(0.363847 -0.617222 0)
(0.337197 -0.648804 0)
(0.308519 -0.675088 0)
(0.278571 -0.69557 0)
(0.248263 -0.710125 0)
(0.21854 -0.719013 0)
(0.190252 -0.722804 0)
(0.164073 -0.722257 0)
(0.140445 -0.718192 0)
(0.119589 -0.711387 0)
(0.101537 -0.702506 0)
(0.0861761 -0.692062 0)
(0.0733025 -0.680405 0)
(0.0626548 -0.667715 0)
(0.0539393 -0.654018 0)
(0.0468959 -0.639205 0)
(0.0415891 -0.622919 0)
(0.037343 -0.604655 0)
(0.0338734 -0.583933 0)
(0.0308772 -0.560089 0)
(0.0280121 -0.532198 0)
(0.0246822 -0.498682 0)
(0.0199326 -0.458264 0)
(0.0132334 -0.410181 0)
(0.405665 -0.0478361 0)
(0.454241 -0.0982821 0)
(0.486362 -0.158015 0)
(0.50325 -0.21038 0)
(0.509464 -0.259684 0)
(0.50879 -0.30728 0)
(0.503119 -0.353443 0)
(0.493427 -0.398463 0)
(0.480129 -0.442184 0)
(0.463285 -0.484122 0)
(0.442768 -0.523438 0)
(0.418443 -0.559014 0)
(0.390358 -0.589592 0)
(0.358888 -0.613997 0)
(0.324808 -0.631369 0)
(0.289232 -0.641348 0)
(0.253456 -0.644129 0)
(0.21875 -0.640387 0)
(0.186178 -0.631095 0)
(0.156486 -0.617334 0)
(0.130078 -0.600118 0)
(0.107053 -0.580288 0)
(0.0872788 -0.558463 0)
(0.0704651 -0.535031 0)
(0.0562344 -0.510173 0)
(0.0441619 -0.483896 0)
(0.0337923 -0.456072 0)
(0.0246548 -0.426477 0)
(0.0163038 -0.394787 0)
(0.00830171 -0.360583 0)
(0.000368314 -0.323807 0)
(-0.00781791 -0.284375 0)
(-0.0165084 -0.242199 0)
(-0.0257966 -0.197398 0)
(-0.0358914 -0.15122 0)
(-0.0450562 -0.107103 0)
(0.462047 -0.0448514 0)
(0.505023 -0.0928877 0)
(0.53252 -0.150479 0)
(0.546114 -0.201445 0)
(0.550254 -0.249522 0)
(0.548162 -0.295878 0)
(0.541326 -0.340648 0)
(0.530429 -0.38396 0)
(0.515574 -0.425452 0)
(0.496495 -0.464361 0)
(0.472775 -0.499507 0)
(0.444103 -0.52942 0)
(0.410538 -0.552586 0)
(0.372705 -0.567779 0)
(0.331824 -0.574371 0)
(0.289547 -0.572477 0)
(0.247654 -0.562896 0)
(0.207742 -0.546887 0)
(0.171001 -0.525881 0)
(0.138131 -0.501237 0)
(0.109374 -0.474086 0)
(0.0846102 -0.445265 0)
(0.0634829 -0.415325 0)
(0.0455039 -0.384577 0)
(0.0301398 -0.353159 0)
(0.0168661 -0.321118 0)
(0.00522079 -0.288493 0)
(-0.00514622 -0.255432 0)
(-0.0145364 -0.222118 0)
(-0.023256 -0.188834 0)
(-0.0314924 -0.155919 0)
(-0.0392461 -0.12396 0)
(-0.0468365 -0.0939715 0)
(-0.0537522 -0.0676707 0)
(-0.0592727 -0.0447542 0)
(-0.0644267 -0.0252741 0)
(0.515157 -0.0418689 0)
(0.553388 -0.0875748 0)
(0.577008 -0.142594 0)
(0.587623 -0.191615 0)
(0.589815 -0.238075 0)
(0.586223 -0.282735 0)
(0.577989 -0.325611 0)
(0.565476 -0.366618 0)
(0.548415 -0.405126 0)
(0.526162 -0.440035 0)
(0.498002 -0.469809 0)
(0.463521 -0.492706 0)
(0.422976 -0.507161 0)
(0.37749 -0.512223 0)
(0.328964 -0.507838 0)
(0.279712 -0.494861 0)
(0.231987 -0.474796 0)
(0.18759 -0.449428 0)
(0.147671 -0.42049 0)
(0.112725 -0.389439 0)
(0.0827168 -0.357376 0)
(0.0572551 -0.325055 0)
(0.0357667 -0.292951 0)
(0.0176376 -0.261373 0)
(0.00230523 -0.230572 0)
(-0.0106804 -0.200854 0)
(-0.0217533 -0.172518 0)
(-0.0313202 -0.145786 0)
(-0.039672 -0.120873 0)
(-0.0470802 -0.0980159 0)
(-0.0537277 -0.0774564 0)
(-0.0591945 -0.059718 0)
(-0.0634812 -0.0442172 0)
(-0.067716 -0.0309501 0)
(-0.0717703 -0.020428 0)
(-0.0748222 -0.011981 0)
(0.565009 -0.0389262 0)
(0.599274 -0.0822921 0)
(0.619366 -0.134449 0)
(0.627452 -0.181077 0)
(0.627771 -0.225573 0)
(0.622558 -0.268084 0)
(0.61263 -0.308575 0)
(0.597982 -0.346689 0)
(0.577924 -0.381496 0)
(0.551417 -0.411565 0)
(0.517508 -0.435078 0)
(0.475866 -0.450215 0)
(0.427217 -0.455662 0)
(0.373454 -0.451067 0)
(0.317308 -0.437173 0)
(0.261738 -0.415607 0)
(0.209311 -0.388435 0)
(0.161824 -0.357739 0)
(0.120201 -0.325326 0)
(0.0846174 -0.292595 0)
(0.0547229 -0.260546 0)
(0.0298949 -0.22986 0)
(0.00943876 -0.201016 0)
(-0.00730444 -0.174421 0)
(-0.0209498 -0.150315 0)
(-0.0321131 -0.128703 0)
(-0.0413059 -0.109437 0)
(-0.0489519 -0.0922801 0)
(-0.0553581 -0.0770212 0)
(-0.0607525 -0.0634883 0)
(-0.0653227 -0.0515706 0)
(-0.0692459 -0.0411393 0)
(-0.0724996 -0.0319476 0)
(-0.0751418 -0.023923 0)
(-0.0774065 -0.0171695 0)
(-0.0793263 -0.011413 0)
(0.611657 -0.0360528 0)
(0.642521 -0.0769275 0)
(0.659413 -0.126098 0)
(0.665301 -0.170075 0)
(0.663777 -0.212219 0)
(0.656783 -0.252185 0)
(0.644803 -0.289847 0)
(0.627424 -0.324558 0)
(0.60351 -0.3551 0)
(0.571663 -0.37977 0)
(0.530852 -0.396632 0)
(0.481087 -0.404043 0)
(0.423856 -0.401226 0)
(0.362003 -0.388618 0)
(0.299089 -0.367765 0)
(0.238544 -0.340884 0)
(0.183019 -0.310348 0)
(0.134109 -0.278302 0)
(0.0924006 -0.246481 0)
(0.0577252 -0.216177 0)
(0.0294627 -0.188292 0)
(0.00680325 -0.163423 0)
(-0.0111367 -0.141911 0)
(-0.0253087 -0.123579 0)
(-0.0366016 -0.107946 0)
(-0.0457321 -0.0943672 0)
(-0.0532453 -0.0823003 0)
(-0.0595244 -0.0713671 0)
(-0.0648101 -0.0613326 0)
(-0.0692402 -0.0520696 0)
(-0.0729122 -0.0435407 0)
(-0.0759464 -0.0357593 0)
(-0.0784181 -0.028699 0)
(-0.0804282 -0.0223123 0)
(-0.0820762 -0.0166603 0)
(-0.0834888 -0.0117023 0)
(0.655104 -0.0332637 0)
(0.68304 -0.0715051 0)
(0.69708 -0.117587 0)
(0.700907 -0.158744 0)
(0.697534 -0.198216 0)
(0.688566 -0.235322 0)
(0.674143 -0.269804 0)
(0.653412 -0.300741 0)
(0.62481 -0.326681 0)
(0.586694 -0.345768 0)
(0.538172 -0.356148 0)
(0.479885 -0.356595 0)
(0.4143 -0.347046 0)
(0.345254 -0.328734 0)
(0.276979 -0.303834 0)
(0.213141 -0.274896 0)
(0.156264 -0.244361 0)
(0.107625 -0.214293 0)
(0.0674448 -0.186295 0)
(0.0352112 -0.161487 0)
(0.00997183 -0.140504 0)
(-0.00949524 -0.123447 0)
(-0.0245808 -0.109661 0)
(-0.036516 -0.0982287 0)
(-0.0462258 -0.0882813 0)
(-0.0543145 -0.0792201 0)
(-0.0611408 -0.0706832 0)
(-0.0669148 -0.0624998 0)
(-0.0717825 -0.0546255 0)
(-0.0758238 -0.0470851 0)
(-0.0790932 -0.0399016 0)
(-0.0816739 -0.033143 0)
(-0.0836737 -0.0268861 0)
(-0.0852069 -0.021154 0)
(-0.0863714 -0.0159905 0)
(-0.0873033 -0.0114194 0)
(0.695348 -0.0305683 0)
(0.720765 -0.0660828 0)
(0.732234 -0.109004 0)
(0.734084 -0.147205 0)
(0.728815 -0.183781 0)
(0.717663 -0.217809 0)
(0.700398 -0.248879 0)
(0.675733 -0.275849 0)
(0.641742 -0.297113 0)
(0.596704 -0.310816 0)
(0.540118 -0.315375 0)
(0.473495 -0.310142 0)
(0.400381 -0.295797 0)
(0.325499 -0.274232 0)
(0.253528 -0.248006 0)
(0.188137 -0.219763 0)
(0.131588 -0.191848 0)
(0.0847829 -0.166148 0)
(0.0475203 -0.144008 0)
(0.0187863 -0.126095 0)
(-0.00299228 -0.112287 0)
(-0.0196682 -0.101635 0)
(-0.0328783 -0.0929583 0)
(-0.0437268 -0.0853281 0)
(-0.0528714 -0.0781729 0)
(-0.0606957 -0.07119 0)
(-0.0673972 -0.0642484 0)
(-0.0730752 -0.0573093 0)
(-0.0778047 -0.0504073 0)
(-0.0816535 -0.0436314 0)
(-0.0846879 -0.0370571 0)
(-0.0869646 -0.0307779 0)
(-0.0885912 -0.024903 0)
(-0.0896913 -0.0195154 0)
(-0.0903844 -0.0146814 0)
(-0.0908106 -0.0104459 0)
(0.732419 -0.027974 0)
(0.755665 -0.0607173 0)
(0.764787 -0.100435 0)
(0.764714 -0.135595 0)
(0.757477 -0.169144 0)
(0.743927 -0.199973 0)
(0.723455 -0.227532 0)
(0.694371 -0.250525 0)
(0.654498 -0.267298 0)
(0.602229 -0.276139 0)
(0.537687 -0.27588 0)
(0.463405 -0.266504 0)
(0.383976 -0.249341 0)
(0.304826 -0.226731 0)
(0.230831 -0.201383 0)
(0.165492 -0.175847 0)
(0.110712 -0.152247 0)
(0.0669236 -0.132143 0)
(0.0333078 -0.116335 0)
(0.00807968 -0.104641 0)
(-0.0110309 -0.0960311 0)
(-0.0261106 -0.0891821 0)
(-0.0385333 -0.083149 0)
(-0.0490921 -0.0773768 0)
(-0.0582052 -0.0715669 0)
(-0.066099 -0.0655884 0)
(-0.0728869 -0.0594249 0)
(-0.0786335 -0.0531019 0)
(-0.083372 -0.0466837 0)
(-0.0871448 -0.0402801 0)
(-0.0900068 -0.0340111 0)
(-0.0920146 -0.0280041 0)
(-0.0932742 -0.0223864 0)
(-0.0939223 -0.0172721 0)
(-0.0941082 -0.0127498 0)
(-0.0939913 -0.00887757 0)
(0.766376 -0.0254877 0)
(0.787744 -0.0554592 0)
(0.794706 -0.0919708 0)
(0.792738 -0.12406 0)
(0.783453 -0.154536 0)
(0.767313 -0.18214 0)
(0.743336 -0.206217 0)
(0.709491 -0.225392 0)
(0.663486 -0.238067 0)
(0.604028 -0.242791 0)
(0.532036 -0.238887 0)
(0.451103 -0.226919 0)
(0.366752 -0.208695 0)
(0.284888 -0.186781 0)
(0.210377 -0.163848 0)
(0.146403 -0.142213 0)
(0.0943971 -0.123636 0)
(0.0541426 -0.10913 0)
(0.0239833 -0.0986834 0)
(0.00136859 -0.0913173 0)
(-0.0162452 -0.0857059 0)
(-0.0306649 -0.0808467 0)
(-0.0429171 -0.076148 0)
(-0.0535562 -0.0713068 0)
(-0.0628716 -0.0661809 0)
(-0.0709974 -0.0607223 0)
(-0.0779952 -0.0549561 0)
(-0.0838969 -0.0489434 0)
(-0.0887072 -0.0427782 0)
(-0.0924427 -0.0365861 0)
(-0.0951423 -0.0305121 0)
(-0.096869 -0.0247076 0)
(-0.0977356 -0.0193187 0)
(-0.0978958 -0.014478 0)