/*--------------------------------*- C++ -*----------------------------------*\
| =========                 |                                                 |
| \\      /  F ield         | OpenFOAM: The Open Source CFD Toolbox           |
|  \\    /   O peration     | Version:  v2012                                 |
|   \\  /    A nd           | Website:  www.openfoam.com                      |
|    \\/     M anipulation  |                                                 |
\*---------------------------------------------------------------------------*/
FoamFile
{
    version     2.0;
    format      ascii;
    class       volScalarField;
    location    "617";
    object      nut;
}
// * * * * * * * * * * * * * * * * * * * * * * * * * * * * * * * * * * * * * //

dimensions      [0 2 -1 0 0 0 0];


internalField   nonuniform List<scalar> 
6057
(
0.000480428
0.000498987
0.00051927
0.00054151
0.00056602
0.000593187
0.000623501
0.000657596
0.000696292
0.000740687
0.000792267
0.00085311
0.000926195
0.00101594
0.00112915
0.00127682
0.00147758
0.00176507
0.00220443
0.00293252
0.00264459
0.00274054
0.00284375
0.00295536
0.00307641
0.00320805
0.00335181
0.00350959
0.00368384
0.0038777
0.00409536
0.00434247
0.00462689
0.00495988
0.00535816
0.00584764
0.0064706
0.00730089
0.00848061
0.010329
0.00449743
0.00465025
0.00481369
0.00498879
0.00517683
0.00537943
0.00559836
0.00583576
0.00609432
0.00637738
0.0066892
0.00703524
0.00742263
0.00786068
0.00836156
0.00894089
0.00961767
0.0104117
0.011333
0.0123495
0.00566489
0.00585038
0.00604781
0.00625819
0.00648269
0.00672266
0.00697962
0.0072553
0.00755161
0.00787069
0.00821493
0.008587
0.00898974
0.00942604
0.00989843
0.0104083
0.0109544
0.0115299
0.0121184
0.0126905
0.00622028
0.00642086
0.00663364
0.00685958
0.00709974
0.00735525
0.0076273
0.00791709
0.00822577
0.00855437
0.00890365
0.00927391
0.00966467
0.0100743
0.0104994
0.0109346
0.0113717
0.0118016
0.0122182
0.0126319
0.00621675
0.0064184
0.00663192
0.00685838
0.0070989
0.00735466
0.00762689
0.00791681
0.00822558
0.00855424
0.00890357
0.00927386
0.00966464
0.0100743
0.0104994
0.0109346
0.0113717
0.0118016
0.0122182
0.0126319
0.00565431
0.00584315
0.00604282
0.00625475
0.00648033
0.00672106
0.00697856
0.0072546
0.00755115
0.00787038
0.00821473
0.00858687
0.00898966
0.00942598
0.0098984
0.0104083
0.0109544
0.0115299
0.0121184
0.0126905
0.00448008
0.00463907
0.00480617
0.00498379
0.00517355
0.00537726
0.00559691
0.0058348
0.00609367
0.00637695
0.00668891
0.00703506
0.00742251
0.0078606
0.0083615
0.00894086
0.00961765
0.0104116
0.011333
0.0123495
0.00262412
0.00272913
0.00283647
0.00295078
0.0030734
0.00320606
0.00335048
0.0035087
0.00368324
0.0038773
0.0040951
0.0043423
0.00462677
0.0049598
0.00535811
0.00584761
0.00647058
0.00730088
0.00848061
0.010329
0.000479752
0.000498577
0.000518998
0.000541329
0.000565896
0.000593101
0.000623442
0.000657554
0.000696264
0.000740667
0.000792254
0.000853101
0.000926188
0.00101593
0.00112915
0.00127682
0.00147758
0.00176507
0.00220443
0.00293252
0.00027016
0.000277403
0.000284623
0.000291855
0.000299137
0.000306508
0.000314009
0.000321684
0.00032958
0.000337747
0.00034624
0.000355116
0.000364438
0.000374273
0.000384692
0.000395756
0.000407504
0.000420037
0.000433468
0.000447918
0.00046352
0.00126554
0.00133325
0.00139994
0.00146549
0.00152978
0.00159274
0.00165437
0.00171474
0.00177403
0.00183247
0.00189037
0.00194814
0.00200625
0.00206524
0.0021257
0.00218788
0.00225315
0.00232206
0.00239512
0.00247286
0.00255581
0.00230918
0.00241758
0.00252273
0.00262484
0.00272411
0.00282083
0.00291537
0.00300816
0.00309969
0.00319052
0.00328127
0.00337261
0.00346529
0.0035601
0.00365761
0.00375908
0.00386551
0.00397763
0.00409613
0.00422176
0.00435523
0.0030883
0.00320657
0.003321
0.00343228
0.00354106
0.00364797
0.00375364
0.00385871
0.0039638
0.00406959
0.00417672
0.0042859
0.00439785
0.00451334
0.00463307
0.0047583
0.00488974
0.00502806
0.00517397
0.0053282
0.00549152
0.00356423
0.00367105
0.0037749
0.00387686
0.00397786
0.00407872
0.00418023
0.00428308
0.00438795
0.00449547
0.00460625
0.00472088
0.00483995
0.00496406
0.00509424
0.00523118
0.00537523
0.00552676
0.00568631
0.00585456
0.00603221
0.00375697
0.0038361
0.00391371
0.00399111
0.00406942
0.00414962
0.00423259
0.00431913
0.00440995
0.00450569
0.00460692
0.00471418
0.00482794
0.00494885
0.00507828
0.00521629
0.0053626
0.00551663
0.00567826
0.00584828
0.00602742
0.00370013
0.00373797
0.00377548
0.00381407
0.00385499
0.00389932
0.00394808
0.00400218
0.00406243
0.00412957
0.00420422
0.00428693
0.00437827
0.00447943
0.00459239
0.00471776
0.00485599
0.00500091
0.00515189
0.0053105
0.00547748
0.00344825
0.00343714
0.00342636
0.00341714
0.00341056
0.00340762
0.00340927
0.00341644
0.00343009
0.00345104
0.00347993
0.00351727
0.0035633
0.00361809
0.00368392
0.00376126
0.00384913
0.00395484
0.00407489
0.00420151
0.00433566
0.00309796
0.00304305
0.00298804
0.00293319
0.0028787
0.00282478
0.00277179
0.00272022
0.00267072
0.00262398
0.00258096
0.00254402
0.00251372
0.00248892
0.00246643
0.00244588
0.00242878
0.0024254
0.00244644
0.00249594
0.00255772
0.00275563
0.00267466
0.00259268
0.00250851
0.0024209
0.00232854
0.00223006
0.00212408
0.00200921
0.00188432
0.00174883
0.00160307
0.00144762
0.00128352
0.00112574
0.000980895
0.000853551
0.000746027
0.000658849
0.000587468
0.000526811
7.21467e-05
6.77088e-05
6.80897e-05
7.7292e-05
0.000105166
0.000110744
0.000100755
0.000153386
0.000174004
0.000185315
0.000195683
0.000205354
0.000214487
0.000223193
0.000231555
0.000239638
0.000247496
0.000255175
0.000262717
0.000120926
0.000221716
0.000298484
0.000315118
0.000317599
0.000347061
0.00039565
0.000452007
0.00051555
0.000579965
0.000645256
0.000711509
0.000778736
0.000846891
0.000915871
0.000985506
0.00105557
0.00112579
0.00119589
0.000148971
0.00044071
0.000465551
0.000470611
0.000509453
0.000574441
0.000673788
0.000795872
0.000926001
0.00105815
0.00119073
0.00132273
0.00145364
0.00158304
0.00171059
0.00183592
0.00195872
0.00207868
0.00219559
0.000181633
0.000567512
0.000609139
0.00064233
0.000711912
0.000831032
0.000992512
0.00117628
0.00136609
0.00155491
0.00173914
0.00191697
0.00208762
0.00225086
0.00240674
0.00255553
0.00269759
0.0028334
0.00296349
0.000211518
0.000685756
0.00072195
0.000824244
0.000941417
0.00111639
0.00133195
0.00156402
0.00179641
0.00202059
0.00223185
0.00242835
0.00260992
0.00277733
0.00293182
0.00307492
0.0032082
0.00333323
0.0034515
0.000233769
0.000705754
0.00083935
0.00101945
0.00119037
0.001415
0.00167103
0.00193405
0.00218815
0.00242411
0.00263739
0.00282704
0.00299424
0.0031413
0.00327107
0.00338649
0.00349037
0.0035853
0.00367355
0.000249573
0.000757319
0.000967775
0.00122416
0.00144444
0.00171038
0.00199197
0.00226787
0.00252315
0.00274922
0.00294281
0.00310459
0.00323754
0.00334575
0.00343362
0.00350539
0.00356489
0.00361541
0.00365975
0.000262493
0.000840379
0.00110514
0.00143141
0.00169247
0.00198744
0.00228175
0.00255401
0.00279268
0.00299106
0.00314798
0.00326625
0.00335089
0.00340777
0.00344274
0.00346114
0.00346752
0.00346563
0.00345844
0.000273147
0.000942062
0.00124485
0.00163399
0.00192592
0.00223675
0.00253136
0.00278712
0.00299518
0.00315287
0.00326172
0.00332711
0.00335633
0.00335715
0.00333691
0.00330195
0.00325735
0.0032069
0.0031532
0.000281876
0.00104641
0.00138171
0.00181723
0.00213918
0.00245377
0.00273635
0.00296613
0.00313402
0.0032429
0.00329802
0.00330778
0.00328208
0.00323084
0.00316293
0.00308551
0.00300372
0.00292069
0.00283789
0.00247076
0.00238293
0.00229494
0.00220609
0.00211616
0.00202529
0.00193378
0.00184188
0.00174958
0.00165618
0.00155929
0.00146058
0.00135907
0.00125202
0.00113521
0.00100104
0.000827881
0.000532548
0.000336882
0.000226308
0.000135902
0.00221528
0.00210884
0.00199779
0.00188226
0.00176324
0.00164199
0.00152051
0.00140078
0.00128467
0.00117798
0.00108337
0.000990948
0.000894554
0.000800355
0.000712224
0.000632425
0.000546377
0.000425739
0.000318964
0.000222372
0.00010108
0.00194423
0.00180443
0.00165922
0.00151328
0.00137274
0.00124454
0.00113612
0.00105482
0.00100191
0.000960104
0.000925376
0.000888631
0.000846605
0.000798864
0.000742146
0.000674242
0.000594641
0.000479402
0.000367637
0.000245818
8.93194e-05
0.00167839
0.00152567
0.00138582
0.00127063
0.00119103
0.00115355
0.0011556
0.00117278
0.00118905
0.00119559
0.00118727
0.00116103
0.0011138
0.00104172
0.000944797
0.000794034
0.000656026
0.000525913
0.000404213
0.000246982
9.4916e-05
0.00149116
0.00138403
0.00132317
0.00131541
0.00135344
0.00141622
0.00147071
0.0015044
0.00151462
0.00150292
0.00146914
0.00141262
0.00133259
0.00121827
0.00103721
0.000886783
0.000747406
0.000610055
0.000437036
0.000261832
0.000101291
0.00144814
0.00143769
0.00148524
0.00157092
0.00166325
0.00173221
0.00176832
0.00178054
0.00176992
0.00173847
0.0016858
0.00161085
0.00151251
0.00137531
0.00118348
0.00101959
0.000863585
0.000687375
0.000480929
0.000282894
0.000107444
0.00155115
0.00163247
0.00174541
0.00185331
0.00193454
0.00198153
0.00199996
0.0019977
0.00197626
0.0019354
0.0018738
0.00178988
0.00168192
0.00154738
0.00133793
0.00115519
0.000982083
0.000766552
0.000531854
0.000307289
0.000113235
0.00174051
0.00187158
0.00199603
0.0020905
0.00215177
0.00218464
0.00219474
0.00218653
0.00216028
0.00211471
0.0020482
0.00195887
0.00184457
0.00170307
0.00149416
0.00129292
0.0011029
0.000851362
0.000587644
0.000333936
0.000118665
0.0019543
0.00209656
0.00220954
0.00228837
0.002338
0.00236434
0.00237092
0.00235997
0.00233067
0.00228168
0.00221134
0.00211772
0.00199847
0.00185092
0.00165202
0.00143261
0.00121444
0.000939284
0.00064686
0.000362333
0.000123774
0.0021579
0.00229349
0.00239404
0.00246316
0.00250726
0.00253085
0.00253573
0.00252248
0.00249018
0.00243758
0.00236323
0.00226534
0.00214161
0.00198907
0.00180418
0.00157373
0.00132385
0.00102837
0.000708441
0.000392197
0.000128608
0.0023413
0.00246795
0.00256024
0.00262455
0.00266646
0.00268896
0.00269225
0.00267635
0.00264042
0.00258346
0.00250433
0.00240161
0.00227326
0.00211626
0.00192651
0.00169909
0.00142947
0.00111701
0.000771536
0.000423343
0.00013321
0.0025071
0.00262717
0.00271526
0.0027779
0.00281943
0.00284122
0.00284262
0.00282346
0.00278305
0.0027207
0.00263575
0.00252729
0.00239372
0.00223227
0.00203858
0.00180667
0.00152982
0.0012039
0.000835438
0.000455636
0.00013762
0.00265996
0.00277658
0.00286347
0.00292653
0.00296848
0.00298952
0.00298862
0.00296551
0.00291969
0.00285088
0.00275895
0.0026436
0.00250388
0.0023375
0.00214021
0.0019053
0.00162388
0.00128799
0.000899543
0.000488965
0.000141872
0.00280392
0.00291979
0.00300777
0.00307246
0.00311511
0.00313527
0.00313164
0.0031039
0.00305178
0.00297543
0.00287529
0.00275181
0.00260479
0.0024327
0.00223171
0.00199473
0.00171102
0.0013685
0.000963335
0.000523238
0.000145997
0.00294195
0.00305937
0.00314996
0.00321683
0.0032603
0.0032794
0.0032726
0.00323958
0.00318032
0.00309538
0.00298586
0.00285297
0.00269744
0.00251868
0.00231359
0.0020751
0.0017909
0.00144485
0.00102637
0.000558371
0.000150023
0.00307632
0.00319688
0.00329086
0.00336022
0.00340452
0.00342232
0.00341191
0.003373
0.00330579
0.00321132
0.00309132
0.00294784
0.00278263
0.00259621
0.00238648
0.00214671
0.00186345
0.00151664
0.00108827
0.000594282
0.000153974
0.00320821
0.00333292
0.00343073
0.0035027
0.00354773
0.00356394
0.00354947
0.00350407
0.0034282
0.00332335
0.0031919
0.00303678
0.00286087
0.00266591
0.00245096
0.00220996
0.00192876
0.00158363
0.0011487
0.000630888
0.000157874
0.0033381
0.00346753
0.00356936
0.00364389
0.00368943
0.0037037
0.00368471
0.00363228
0.00354712
0.00343115
0.00328745
0.00311988
0.00293244
0.0027282
0.00250754
0.00226532
0.00198703
0.00164572
0.0012074
0.000668096
0.000161747
0.00346588
0.0036003
0.0037061
0.00378297
0.00382871
0.00384062
0.00381666
0.00375671
0.00366173
0.00353409
0.00337754
0.0031969
0.00299736
0.00278336
0.00255665
0.00231322
0.00203856
0.00170288
0.00126414
0.000705799
0.000165613
0.00359093
0.00373033
0.00383989
0.00391878
0.00396433
0.00397344
0.00394408
0.00387619
0.00377098
0.00363125
0.00346147
0.00326742
0.0030555
0.0028315
0.00259861
0.00235408
0.00208367
0.00175519
0.00131871
0.000743869
0.000169498
0.00371206
0.00385634
0.00396936
0.0040499
0.00409487
0.00410071
0.00406552
0.00398935
0.00387361
0.00372157
0.0035384
0.00333088
0.00310659
0.00287265
0.00263368
0.00238827
0.00212269
0.00180276
0.00137096
0.000782149
0.000173424
0.00382753
0.00397664
0.00409287
0.00417471
0.00421877
0.0042208
0.00417944
0.00409473
0.0039683
0.00380389
0.00360741
0.00338662
0.00315027
0.00290676
0.00266208
0.00241615
0.00215599
0.00184576
0.00142074
0.000820455
0.000177418
0.0038955
0.00408919
0.00420852
0.00429135
0.00433411
0.00433203
0.00428424
0.00419083
0.00405368
0.00387702
0.00366754
0.00343398
0.0031862
0.00293377
0.00268396
0.00243806
0.00218391
0.00188437
0.00146792
0.000858566
0.000181509
0.00381868
0.00408412
0.00431423
0.00439789
0.004439
0.00443271
0.00437836
0.0042762
0.00412841
0.0039398
0.00371786
0.0034723
0.00321402
0.00295361
0.00269952
0.00245432
0.00220682
0.00191879
0.00151237
0.000896159
0.000185731
0.00374389
0.00400373
0.00425855
0.00449052
0.00453182
0.0045213
0.00446035
0.00434943
0.00419121
0.00399111
0.0037575
0.00350101
0.00323344
0.00296628
0.00270895
0.00246527
0.00222504
0.00194924
0.00155394
0.000932826
0.000190122
0.00367755
0.00393181
0.00417921
0.00441693
0.004605
0.00459636
0.00452884
0.00440926
0.00424089
0.00402997
0.0037857
0.00351961
0.00324427
0.00297181
0.00271247
0.00247125
0.00223894
0.00197588
0.00159246
0.000967842
0.000194732
0.00362118
0.0038716
0.0041169
0.00435034
0.00454953
0.00465666
0.00458263
0.0044545
0.0042764
0.0040555
0.00380187
0.0035278
0.00324643
0.00297032
0.00271036
0.00247261
0.00224884
0.00199892
0.00162777
0.00100039
0.000199622
0.00357877
0.0038266
0.00407235
0.00431126
0.00451457
0.00463645
0.00462071
0.00448409
0.00429683
0.00406704
0.00380561
0.00352542
0.00323999
0.00296203
0.00270293
0.00246974
0.00225507
0.00201844
0.00166098
0.0010323
0.000204702
0.00355116
0.00379863
0.00404712
0.00429631
0.00451369
0.00464219
0.00464244
0.00449717
0.0043015
0.0040642
0.0037968
0.00351256
0.00322515
0.00294757
0.00269128
0.0024637
0.00225891
0.00203655
0.00169354
0.00106484
0.000209877
0.00353628
0.00378502
0.00403865
0.0043016
0.00453805
0.00468351
0.00464722
0.00449456
0.00429198
0.00404899
0.00377759
0.00349124
0.0032036
0.00292763
0.00267508
0.00245414
0.00226008
0.00205286
0.00172556
0.00109807
0.000215166
0.00353048
0.00378073
0.00404053
0.00432001
0.00457874
0.00474138
0.00463758
0.00447802
0.00426965
0.00402241
0.00374862
0.00346176
0.00317533
0.00290224
0.0026545
0.00244116
0.00225867
0.00206729
0.00175692
0.0011322
0.000220557
0.00352918
0.00378073
0.00404858
0.00434973
0.00463485
0.0047252
0.00461433
0.00444862
0.00423551
0.00398534
0.00371058
0.00342463
0.00314073
0.00287167
0.0026298
0.00242498
0.00225477
0.00207984
0.00178732
0.00116703
0.000226044
0.00352975
0.0037822
0.0040604
0.00438683
0.00470413
0.00469605
0.00457844
0.00440729
0.00419045
0.00393857
0.0036642
0.00338044
0.00310024
0.00283627
0.00260121
0.00240577
0.00224845
0.00209039
0.0018166
0.00120241
0.000231621
0.00353056
0.00378358
0.0040756
0.00442828
0.0047213
0.00465453
0.00453067
0.00435482
0.00413525
0.00388287
0.0036101
0.0033297
0.00305421
0.00279626
0.00256893
0.00238365
0.00223972
0.00209872
0.00184433
0.00123815
0.000237268
0.00353141
0.00378588
0.00409529
0.00447338
0.00467494
0.00460125
0.00447171
0.00429196
0.00407068
0.00381891
0.00354883
0.00327275
0.00300286
0.00275177
0.00253303
0.0023587
0.00222851
0.00210449
0.00186991
0.00127382
0.000242944
0.0035321
0.00378973
0.00411832
0.00452416
0.00461729
0.00453699
0.00440233
0.00421945
0.00399741
0.00374723
0.00348075
0.00320979
0.00294622
0.00270278
0.00249351
0.0023309
0.00221467
0.00210719
0.00189241
0.00130878
0.000248587
0.00353037
0.00379254
0.0041392
0.00456649
0.00454919
0.00446259
0.00432332
0.00413803
0.00391603
0.00366823
0.00340603
0.00314076
0.00288412
0.0026491
0.00245023
0.00230014
0.00219789
0.00210607
0.00191051
0.0013421
0.000254104
0.00351871
0.00379191
0.00415247
0.00450928
0.00447173
0.00437907
0.00423559
0.00404843
0.00382705
0.00358211
0.00332454
0.00306533
0.00281615
0.00259037
0.00240296
0.00226619
0.00217775
0.00210005
0.00192231
0.00137253
0.000259371
0.00350243
0.00378249
0.00415642
0.00443109
0.00438621
0.00428761
0.00414013
0.00395136
0.0037308
0.00348882
0.00323594
0.00298294
0.00274172
0.00252614
0.00235139
0.00222877
0.00215366
0.00208762
0.00183236
0.00139857
0.000264228
0.00348669
0.00377056
0.00414214
0.00434657
0.00429421
0.00418954
0.00403796
0.00384741
0.00362741
0.00338803
0.00313955
0.0028928
0.00266011
0.0024559
0.00229524
0.00218759
0.00212494
0.00200741
0.00162732
0.00141972
0.000268471
0.00347124
0.00375442
0.0041137
0.00425661
0.00419733
0.00408612
0.00392982
0.00373677
0.00351651
0.00327896
0.00303437
0.00279393
0.0025706
0.00237929
0.00223435
0.00214247
0.00209087
0.00175395
0.00147661
0.00135512
0.000271753
0.00345496
0.00373179
0.00407165
0.00416254
0.00409666
0.00397818
0.00381581
0.00361888
0.00339706
0.00316029
0.00291912
0.00268533
0.00247269
0.00229631
0.00216895
0.00209343
0.00199311
0.0015617
0.00136662
0.00128116
0.000274132
0.00343756
0.00370123
0.00401422
0.00406744
0.00399259
0.00386534
0.00369482
0.00349207
0.00326711
0.00303016
0.00279229
0.00256619
0.00236639
0.00220767
0.00209983
0.00204086
0.00174674
0.00141605
0.00128407
0.00121794
0.000275325
0.00341887
0.00366433
0.00394702
0.00397132
0.00388422
0.00374505
0.00356426
0.0033535
0.00312399
0.00288639
0.00265264
0.00243639
0.00225273
0.00211516
0.00202857
0.00198566
0.00156621
0.00131161
0.00122859
0.00119059
0.000275385
0.00339737
0.00362427
0.00387795
0.00387255
0.0037688
0.00361379
0.0034198
0.00319957
0.00296476
0.00272724
0.00249987
0.00229725
0.00213453
0.00202087
0.00195732
0.00180899
0.00143641
0.00124761
0.00120405
0.0012001
0.000274311
0.00337012
0.00357969
0.00381308
0.00376779
0.00364189
0.0034669
0.00325712
0.00302639
0.00278734
0.00255233
0.00233563
0.00215251
0.00201584
0.00193
0.00188961
0.0016317
0.00135276
0.00122396
0.00121361
0.00123629
0.0002722
0.00333756
0.00353248
0.00374552
0.00365087
0.00349726
0.0032991
0.00307243
0.0028319
0.00259117
0.00236387
0.00216475
0.00200935
0.00190343
0.00184704
0.00182733
0.00150395
0.00131315
0.00124221
0.00126129
0.00128988
0.000268592
0.00330441
0.00349111
0.00364325
0.00351295
0.00332766
0.00310531
0.00286314
0.00261635
0.00237966
0.00216817
0.00199616
0.00187441
0.0018039
0.00177526
0.00165258
0.00141643
0.00131933
0.00130839
0.00135086
0.00134686
0.000263543
0.00326055
0.00345811
0.00351637
0.00334468
0.00312646
0.00288205
0.00262907
0.0023833
0.0021606
0.00197622
0.00184136
0.00175945
0.00172182
0.00171281
0.00148267
0.00138158
0.00138048
0.00143328
0.00148545
0.00130392
0.000256285
0.00321056
0.00343238
0.00335187
0.00313705
0.00288901
0.00262882
0.00237397
0.00214101
0.00194619
0.00180173
0.00171122
0.00166608
0.00165129
0.00149619
0.00139437
0.00142156
0.00151151
0.00161314
0.00166013
0.00125274
0.000247251
0.00316066
0.00335089
0.00313809
0.00288417
0.00261462
0.00234983
0.00210713
0.0019033
0.00175188
0.00165644
0.00160634
0.00158508
0.00146757
0.00137713
0.00141017
0.00154494
0.00164974
0.00169553
0.00162763
0.00118951
0.000236815
0.00310547
0.00313076
0.00286802
0.0025856
0.00230848
0.0020559
0.00184436
0.00168783
0.00159153
0.00154016
0.00143721
0.00129296
0.00128097
0.00136779
0.001484
0.00152311
0.001588
0.00163719
0.00155533
0.00111582
0.000225224
0.00302164
0.00284271
0.00254239
0.00224828
0.00198369
0.00176563
0.001606
0.00151134
0.0014637
0.00122509
0.00112794
0.00114157
0.00123153
0.00135435
0.00138598
0.00145064
0.00153129
0.0015697
0.00146494
0.00103003
0.000212486
0.00281552
0.00248867
0.00217037
0.00188836
0.00166256
0.0015027
0.00141247
0.00124789
0.00103798
0.000987728
0.00102125
0.00109466
0.00119001
0.00124038
0.00130684
0.00139547
0.00146682
0.001473
0.00133152
0.00089649
0.000199948
0.00243528
0.00207935
0.00177111
0.00153254
0.0013731
0.00129141
0.00100814
0.000882165
0.000876574
0.000922245
0.000964167
0.000981872
0.00101996
0.0011408
0.00123507
0.00131727
0.00134284
0.00130865
0.00113879
0.000736931
0.000187774
0.00199245
0.00163707
0.00137704
0.00121545
0.00105332
0.000808999
0.000760536
0.000798173
0.000845795
0.000832078
0.000775315
0.000744873
0.000799296
0.000964862
0.00109421
0.00113922
0.00114263
0.00108362
0.000910346
0.00058027
0.00017537
0.00150473
0.00119974
0.00103261
0.000754697
0.000645476
0.000673199
0.000748965
0.000788696
0.000706222
0.000573045
0.000533823
0.000567895
0.000658213
0.00080723
0.00088719
0.000907221
0.000895129
0.000829874
0.000684041
0.000445533
0.000162184
0.00100582
0.000821984
0.000527616
0.000522264
0.000613587
0.000720134
0.000702313
0.000590551
0.000449827
0.000390345
0.000413161
0.000472449
0.000557364
0.000616807
0.000650914
0.000660162
0.00064556
0.000595049
0.000496282
0.000343334
0.000139555
0.000564757
0.000326838
0.000398394
0.000526897
0.000624593
0.000596909
0.000446913
0.000301926
0.000240414
0.000238166
0.000260691
0.000293708
0.000331698
0.000369905
0.000402079
0.000419597
0.000420921
0.00040256
0.000356112
0.000270401
0.000115837
0.000157308
0.000121391
0.000117375
0.000112844
0.000102479
8.88835e-05
7.56874e-05
7.13854e-05
7.37996e-05
7.85306e-05
8.36592e-05
8.86686e-05
9.34976e-05
9.82474e-05
0.00010313
0.000108481
0.000113408
0.000116749
0.000108132
0.000110389
9.29445e-05
0.00028951
0.00116061
0.00152228
0.0019705
0.00233753
0.00264472
0.00290399
0.00309706
0.00321853
0.00327294
0.00327159
0.00322667
0.00315114
0.00305717
0.00295484
0.00285127
0.00275051
0.00265393
0.00256111
0.000295903
0.00128038
0.0016633
0.0021193
0.0025071
0.00279809
0.00302632
0.00317718
0.00324924
0.00325115
0.00319785
0.00310652
0.00299312
0.00287115
0.00275016
0.00263505
0.00252652
0.00242251
0.00231976
0.000301356
0.00140809
0.00180776
0.00227046
0.00264723
0.0029156
0.00310802
0.00321442
0.00323788
0.00319178
0.00309512
0.00296862
0.00283038
0.00269322
0.0025635
0.00244152
0.00232344
0.0022039
0.00207828
0.000305846
0.00148944
0.00196108
0.00243105
0.00275952
0.00300111
0.0031555
0.00321793
0.00319627
0.0031087
0.00297841
0.00282821
0.00267598
0.00253137
0.00239561
0.00226401
0.00212976
0.00198751
0.00183582
0.000309425
0.00154016
0.00212686
0.00254639
0.0028466
0.0030591
0.00317544
0.00319646
0.003135
0.00301386
0.00285951
0.00269536
0.0025364
0.0023872
0.00224389
0.00209913
0.00194749
0.00178929
0.00163238
0.000312193
0.0015813
0.00223395
0.00262843
0.00291153
0.00309425
0.00317422
0.0031579
0.00306307
0.0029166
0.00274691
0.00257587
0.00241384
0.00225992
0.00210735
0.00195073
0.00179177
0.00164207
0.00152059
0.000314224
0.0016132
0.00229884
0.00269289
0.00295748
0.00311115
0.00315766
0.00310903
0.0029877
0.00282378
0.00264589
0.00247243
0.0023083
0.00214881
0.00198838
0.00182892
0.00168417
0.00157655
0.0015285
0.000315584
0.00163663
0.00235009
0.00274191
0.00298768
0.00311403
0.00313085
0.00305543
0.00291445
0.00274006
0.00255928
0.00238566
0.00221919
0.00205455
0.00189226
0.00174606
0.00164085
0.00160153
0.00163906
0.00031634
0.00165243
0.00238922
0.00277765
0.00300514
0.00310665
0.00309803
0.0030015
0.00284732
0.0026683
0.00248818
0.00231509
0.00214599
0.00197904
0.0018251
0.00171024
0.00166342
0.00169951
0.00180753
0.000316557
0.00166147
0.00241772
0.00280219
0.00301262
0.00309225
0.00306266
0.00295058
0.00278899
0.00260991
0.00243246
0.00225976
0.00208851
0.00192436
0.00179066
0.00172127
0.00173927
0.00184066
0.00199504
0.000316299
0.00166461
0.00243702
0.00281748
0.00301253
0.00307351
0.00302742
0.002905
0.00274102
0.00256521
0.0023913
0.00221858
0.00204676
0.00189176
0.00178853
0.00177146
0.00184966
0.0020002
0.00217846
0.000315625
0.00166268
0.00244846
0.00282526
0.00300691
0.00305256
0.00299428
0.00286628
0.00270404
0.00253374
0.00236344
0.00219039
0.00202031
0.00188072
0.00181453
0.00184964
0.00197811
0.0021612
0.00234863
0.000314591
0.00165645
0.00245328
0.00282704
0.00299746
0.00303105
0.00296462
0.00283522
0.00267799
0.00251451
0.00234739
0.00217396
0.00200818
0.00188901
0.00186242
0.00194496
0.00211295
0.0023158
0.00250558
0.000313251
0.00164663
0.00245257
0.00282413
0.00298553
0.00301021
0.00293929
0.00281202
0.00266224
0.00250608
0.00234135
0.00216789
0.00200895
0.0019134
0.00192572
0.00204949
0.00224723
0.00246154
0.00265169
0.000311651
0.00163387
0.00244731
0.00281762
0.0029722
0.00299089
0.00291871
0.00279645
0.00265567
0.00250636
0.00227728
0.00217033
0.00202081
0.00195036
0.00199891
0.00215807
0.00237776
0.00259906
0.00278978
0.000309836
0.00161873
0.00243834
0.00280839
0.00295825
0.00297362
0.00290295
0.00278788
0.00265668
0.00233555
0.00214602
0.00217909
0.00204159
0.00199668
0.00207831
0.00226689
0.00250293
0.00272969
0.00292216
0.000307842
0.00160171
0.00242636
0.00279718
0.00294429
0.00295872
0.00289183
0.00278539
0.00262752
0.00219511
0.00205267
0.00212333
0.00206907
0.00204955
0.0021609
0.00237387
0.00262292
0.00285486
0.00305046
0.000305705
0.00158323
0.00241199
0.00278454
0.00293072
0.00294628
0.00288498
0.00278784
0.00246768
0.0020953
0.00198791
0.0020694
0.00210171
0.00210666
0.00224476
0.00247847
0.00273829
0.00297567
0.00317565
0.000303452
0.00156365
0.00239574
0.00277093
0.00291781
0.00293629
0.00288189
0.00279404
0.00234804
0.00202415
0.00194189
0.00203055
0.00213826
0.0021662
0.00232885
0.00258062
0.00284954
0.00309276
0.00329806
0.00030111
0.00154327
0.00237801
0.00275668
0.00290573
0.00292858
0.00288196
0.00280289
0.00226168
0.00197347
0.00190957
0.00200392
0.0021775
0.00222711
0.00241193
0.0026794
0.00295664
0.00320609
0.00341738
0.000298698
0.00152235
0.00235915
0.00274205
0.00289453
0.00292293
0.00288458
0.00272467
0.00219931
0.00193832
0.00188811
0.00198666
0.00216873
0.00228834
0.0024925
0.00277349
0.00305872
0.00331479
0.00353258
0.000296237
0.00150108
0.00233944
0.00272722
0.00288424
0.00291909
0.00288911
0.00264388
0.00215467
0.00191447
0.00187462
0.00197604
0.00215426
0.00234838
0.00256885
0.00283452
0.00310384
0.00338435
0.00364192
0.00029374
0.00147964
0.00231911
0.00271232
0.0028748
0.00291678
0.00289504
0.00258426
0.00212355
0.00189926
0.00186708
0.00197012
0.00214445
0.00234075
0.00255521
0.00279684
0.00305523
0.00332531
0.00360791
0.00029122
0.00145815
0.00229832
0.00269745
0.00286615
0.00291572
0.00290199
0.00254154
0.00210291
0.00189112
0.00186411
0.00196651
0.00213595
0.00232426
0.00252624
0.0027542
0.00300211
0.00326339
0.00353759
0.000288687
0.00143673
0.00227724
0.00268264
0.00285819
0.00291568
0.00290966
0.00251194
0.00209063
0.00188878
0.00186474
0.00196442
0.00212763
0.00230739
0.00249807
0.00271353
0.00295072
0.003204
0.00347139
0.000286149
0.00141545
0.00225596
0.00266795
0.00285084
0.00291643
0.00291784
0.00249292
0.00208526
0.00189118
0.00186831
0.0019639
0.00212008
0.00229144
0.0024721
0.00267646
0.00290391
0.0031497
0.00341085
0.000283612
0.00139436
0.00223457
0.00265336
0.00284398
0.00291778
0.00292634
0.00248269
0.00208578
0.00189755
0.0018744
0.00196504
0.00211393
0.00227722
0.00244896
0.00264393
0.00286358
0.00310351
0.00335956
0.000281081
0.00137353
0.00221314
0.00263888
0.00283752
0.00291957
0.00293503
0.0024799
0.00209142
0.00190736
0.00188276
0.00196788
0.00210959
0.00226538
0.00242938
0.00261682
0.00283077
0.00306703
0.00332026
0.000278558
0.00135297
0.0021917
0.00262449
0.00283137
0.00292165
0.0029438
0.00248352
0.00210161
0.00192025
0.00189326
0.0019725
0.00210734
0.00225638
0.00241392
0.00259562
0.00280587
0.00304058
0.00329332
0.000276045
0.00133268
0.0021703
0.00261018
0.00282542
0.0029239
0.00295256
0.00249273
0.00211593
0.00193598
0.00190583
0.00197899
0.0021074
0.00225053
0.00240281
0.00258036
0.00278859
0.00302343
0.00327744
0.00027355
0.00131266
0.00214894
0.00259591
0.00281961
0.00292619
0.00296121
0.00250684
0.00213401
0.00195442
0.00192055
0.00198746
0.00210989
0.00224791
0.00239603
0.00257072
0.00277816
0.00301413
0.00327029
0.000271072
0.00129305
0.00212758
0.00258161
0.00281376
0.00292831
0.00296945
0.00252489
0.00215541
0.00197563
0.00193799
0.00199827
0.00211509
0.00224872
0.00239345
0.00256631
0.00277375
0.00301101
0.00326835
0.000268665
0.00127292
0.00210577
0.00256696
0.00280767
0.00293011
0.00297724
0.00254637
0.00217956
0.00199888
0.00195746
0.00201207
0.00212394
0.0022538
0.00239597
0.00256712
0.00277401
0.00301164
0.00326925
0.00026632
0.00125234
0.00208353
0.00255193
0.00280127
0.00293153
0.00298454
0.00257091
0.00220633
0.002024
0.00197892
0.0020286
0.00213635
0.00226327
0.00240323
0.00257239
0.00277792
0.00301481
0.00327149
0.000264029
0.00123151
0.00206089
0.0025365
0.0027945
0.00293249
0.00299134
0.00259816
0.00223559
0.00205099
0.00200233
0.00204771
0.00215203
0.00227672
0.0024147
0.00258147
0.00278473
0.00301972
0.0032743
0.000261785
0.00121056
0.00203783
0.00252065
0.00278731
0.00293295
0.00299763
0.00262774
0.00226724
0.00207984
0.00202766
0.00206926
0.00217067
0.00229372
0.0024299
0.00259384
0.00279384
0.00302566
0.00327689
0.000259581
0.00118954
0.00201436
0.00250435
0.00277965
0.00293288
0.00300339
0.00265922
0.00230107
0.00211053
0.00205488
0.00209308
0.00219201
0.00231387
0.00244841
0.00260906
0.00280469
0.00303171
0.00327804
0.000257412
0.00116847
0.0019905
0.00248757
0.00277147
0.00293222
0.00300863
0.00269214
0.00233688
0.002143
0.00208394
0.00211903
0.00221576
0.00233685
0.00246994
0.00262689
0.0028169
0.00303744
0.00327708
0.000255274
0.00114738
0.00196628
0.00247028
0.00276274
0.00293096
0.00301333
0.00272596
0.00237438
0.00217713
0.00211475
0.00214704
0.00224172
0.00236248
0.00249436
0.00264737
0.00283069
0.00304347
0.00327018
0.00025316
0.00112632
0.00194171
0.00245247
0.00275343
0.00292907
0.00301751
0.00276008
0.00241321
0.00221277
0.002147
0.00217696
0.00226983
0.00239062
0.00252182
0.00267073
0.0028471
0.00304853
0.00325786
0.000251068
0.00110534
0.0019168
0.00243412
0.00274349
0.00292655
0.00302116
0.0027938
0.00245288
0.00224966
0.00218046
0.00220849
0.00230004
0.00242111
0.00255224
0.00269756
0.00286654
0.0030452
0.00324625
0.000248994
0.00108445
0.00189158
0.00241522