/*--------------------------------*- C++ -*----------------------------------*\
| =========                 |                                                 |
| \\      /  F ield         | OpenFOAM: The Open Source CFD Toolbox           |
|  \\    /   O peration     | Version:  v2012                                 |
|   \\  /    A nd           | Website:  www.openfoam.com                      |
|    \\/     M anipulation  |                                                 |
\*---------------------------------------------------------------------------*/
FoamFile
{
    version     2.0;
    format      ascii;
    class       volScalarField;
    location    "617";
    object      omega;
}
// * * * * * * * * * * * * * * * * * * * * * * * * * * * * * * * * * * * * * //

dimensions      [0 0 -1 0 0 0 0];


internalField   nonuniform List<scalar> 
6057
(
95.2663
98.9464
102.968
107.379
112.239
117.626
123.637
130.398
138.071
146.874
157.102
169.167
183.659
201.455
223.905
253.187
292.997
350.005
437.126
581.503
42.4265
44.243
46.2355
48.4275
50.8519
53.5504
56.5738
59.9863
63.8695
68.3283
73.4997
79.5645
86.7648
95.4272
105.995
119.063
135.397
155.844
180.785
207.821
33.1879
34.6858
36.3309
38.1454
40.1569
42.3988
44.9128
47.7512
50.9796
54.6817
58.9654
63.9718
69.888
76.9666
85.5543
96.1379
109.422
126.473
149.032
180.354
30.1576
31.5561
33.0937
34.7914
36.6753
38.7772
41.1364
43.8021
46.8364
50.3191
54.3538
59.0772
64.674
71.3988
79.6119
89.841
102.889
120.04
143.472
177.157
29.0993
30.4644
31.9663
33.6258
35.4684
37.5256
39.8363
42.4494
45.4268
48.8486
52.8194
57.4789
63.0178
69.7025
77.9161
88.2284
101.517
119.19
143.583
178.694
29.1051
30.4684
31.9691
33.6277
35.4698
37.5266
39.837
42.4498
45.4271
48.8488
52.8195
57.479
63.0179
69.7025
77.9161
88.2284
101.517
119.19
143.583
178.694
30.179
31.5706
33.1035
34.7981
36.6799
38.7803
41.1384
43.8034
46.8373
50.3197
54.3541
59.0775
64.6742
71.3989
79.6119
89.841
102.889
120.04
143.472
177.157
33.2435
34.7211
36.3543
38.1607
40.1669
42.4053
44.9171
47.754
50.9815
54.6829
58.9662
63.9723
69.8884
76.9669
85.5544
96.138
109.422
126.473
149.032
180.354
42.5867
44.3289
46.2893
48.4603
50.8731
53.5641
56.5828
59.9923
63.8734
68.3309
73.5014
79.5656
86.7655
95.4277
105.995
119.063
135.397
155.844
180.785
207.821
95.1322
98.8652
102.915
107.343
112.214
117.609
123.625
130.39
138.065
146.87
157.1
169.165
183.658
201.454
223.905
253.186
292.996
350.005
437.126
581.503
53.5712
55.0076
56.4392
57.8733
59.3173
60.779
62.2664
63.7883
65.3539
66.9734
68.6575
70.4176
72.2661
74.2163
76.2823
78.4763
80.8058
83.291
85.9543
88.8197
91.9135
25.5986
25.7754
26.0005
26.2756
26.603
26.9847
27.4225
27.9183
28.4742
29.0921
29.7742
30.5227
31.3401
32.2291
33.1928
34.2364
35.3566
36.5609
37.8582
39.2592
40.7767
19.0477
19.2097
19.4213
19.6808
19.987
20.3389
20.7358
21.1776
21.6646
22.1977
22.7781
23.4075
24.0881
24.8226
25.6148
26.4666
27.382
28.3676
29.431
30.5812
31.8291
16.6106
16.8203
17.0727
17.3655
17.6965
18.0647
18.4692
18.9098
19.3871
19.902
20.456
21.0513
21.6904
22.3764
23.1132
23.9037
24.7534
25.6688
26.6573
27.7277
28.8902
15.5648
15.8218
16.1157
16.4438
16.8045
17.1966
17.6194
18.0731
18.5583
19.0763
19.6289
20.2183
20.8475
21.5198
22.2386
23.0083
23.8349
24.7255
25.6876
26.7301
27.8631
15.1754
15.4837
15.8248
16.1964
16.5966
17.0247
17.4801
17.9632
18.4749
19.0164
19.5897
20.197
20.8411
21.5248
22.2505
23.0231
23.8495
24.7384
25.699
26.7397
27.8708
15.199
15.5752
15.9824
16.418
16.88
17.3677
17.8809
18.4205
18.9881
19.5861
20.2166
20.8821
21.5851
22.3263
23.1048
23.9211
24.7767
25.6956
26.6868
27.7568
28.9168
15.5574
16.0347
16.5433
17.0791
17.6389
18.221
18.8252
19.4533
20.1094
20.7993
21.5308
22.3123
23.1517
24.0558
25.0234
26.0553
27.1601
28.2724
29.3983
30.5941
31.8736
16.2031
16.8376
17.514
18.2268
18.9715
19.744
20.5413
21.3615
22.2052
23.0761
23.9857
24.9666
26.0506
27.2849
28.7348
30.4458
32.4219
34.5679
36.6803
38.6082
40.5474
17.0291
17.874
18.7904
19.7804
20.8482
22.0012
23.2497
24.6056
26.0829
27.6963
29.4615
31.3943
33.5004
35.7724
38.5226
42.0316
46.5279
52.2752
59.5405
68.7345
80.5402
14.3062
13.4262
13.5018
15.3266
20.854
25.3828
28.9837
31.9819
34.504
36.7469
38.803
40.7207
42.5316
44.258
45.9161
47.5189
49.077
50.5998
52.0953
15.0284
10.0079
12.5203
18.0726
21.9436
23.9119
24.7711
25.1931
25.3801
25.4309
25.4283
25.3999
25.3618
25.3256
25.3008
25.2955
25.317
25.3714
25.464
18.5139
11.9266
15.2844
18.8019
20.665
21.3091
21.3533
21.1536
20.8186
20.4369
20.0696
19.7385
19.4548
19.2245
19.0507
18.9349
18.8776
18.8781
18.9354
22.573
14.0192
16.2532
18.1531
18.9918
19.1249
18.9165
18.5424
18.0935
17.6496
17.2526
16.9179
16.6519
16.4557
16.3283
16.2669
16.2684
16.3287
16.4442
26.2871
15.2784
16.3901
17.2255
17.5271
17.4499
17.1654
16.7686
16.3383
15.939
15.6002
15.3325
15.1382
15.016
14.9625
14.9734
15.0438
15.169
15.3442
29.0524
15.9694
16.1859
16.4029
16.3661
16.1895
15.8927
15.5286
15.1607
14.8367
14.5779
14.3912
14.2769
14.2324
14.2536
14.3358
14.474
14.6633
14.8986
31.0165
16.2972
15.8555
15.7099
15.4913
15.2402
14.9537
14.6413
14.3473
14.1047
13.9282
13.8225
13.7871
13.8194
13.9157
14.0718
14.2831
14.5447
14.8517
32.6222
16.3844
15.4945
15.1354
14.8238
14.5294
14.2507
13.9925
13.7708
13.606
13.5081
13.4801
13.522
13.6324
13.8091
14.0494
14.3493
14.7043
15.1091
33.9463
16.3403
15.1466
14.6607
14.303
13.9915
13.7211
13.5071
13.3497
13.2542
13.227
13.2708
13.3872
13.5773
13.8415
14.1795
14.5891
15.0666
15.6068
35.0311
16.2451
14.8285
14.266
13.8856
13.5728
13.3185
13.1346
13.0288
12.991
13.0236
13.1302
13.3152
13.5832
13.9382
14.3828
14.9172
15.5392
16.2449
17.6442
18.5801
19.5735
20.6229
21.7291
22.8954
24.1242
25.4173
26.7736
28.1836
29.6116
31.1166
32.7367
34.5001
36.4155
38.4118
40.267
41.3874
40.2463
37.2873
31.5158
17.423
18.1399
18.8267
19.4668
20.0418
20.5325
20.9043
21.1111
21.1055
21.0508
21.0127
20.9367
20.754
20.5248
20.2863
20.066
19.537
18.3006
16.3372
13.6503
13.0758
16.0571
16.2427
16.2723
16.1185
15.7581
15.1735
14.373
13.4753
12.7416
12.1055
11.5867
11.1246
10.7141
10.3756
10.1237
9.94664
9.77821
9.58281
9.53618
9.74128
11.5544
13.6193
13.1024
12.353
11.4051
10.3378
9.27462
8.36272
7.76193
7.35944
7.10123
6.95842
6.90369
6.93038
7.052
7.25697
7.54829
7.94496
8.4645
9.13791
10.0763
12.2784
10.6371
9.60354
8.48845
7.42852
6.55552
5.94003
5.61239
5.46483
5.4332
5.47871
5.5863
5.74938
5.96661
6.24543
6.58985
7.01415
7.54685
8.23118
9.14026
10.4695
13.103
7.92856
6.86287
5.95759
5.28893
4.86971
4.67359
4.63491
4.67453
4.77
4.90725
5.08267
5.29675
5.55276
5.85793
6.22518
6.67648
7.24962
8.01071
9.07678
10.7157
13.899
6.00513
5.21079
4.6548
4.3298
4.18261
4.16151
4.21639
4.31288
4.4409
4.59714
4.78215
4.99854
5.25144
5.55008
5.91127
6.3624
6.9491
7.75595
8.93817
10.8394
14.6481
4.8286
4.31289
4.01197
3.8759
3.84865
3.88958
3.97223
4.08169
4.21396
4.36902
4.54849
4.75567
4.99633
5.28064
5.62699
6.06698
6.65291
7.48326
8.74812
10.8735
15.3505
4.13539
3.8197
3.66679
3.62135
3.64235
3.70453
3.79418
3.90424
4.03365
4.18312
4.35451
4.55113
4.77866
5.04741
5.37628
5.79934
6.37438
7.21068
8.5296
10.8457
16.0114
3.71765
3.528
3.45353
3.45059
3.49136
3.56061
3.65089
3.75896
3.88459
4.02865
4.19288
4.38024
4.59608
4.85035
5.16174
5.5648
6.12149
6.95034
8.30024
10.7768
16.6367
3.45191
3.33648
3.30377
3.32137
3.37059
3.44196
3.53159
3.63769
3.76033
3.90032
4.05909
4.23916
4.44529
4.68682
4.9818
5.36424
5.89817
6.7099
8.07252
10.6816
17.2321
3.26995
3.1985
3.18874
3.21677
3.26973
3.34182
3.43079
3.53557
3.65633
3.79373
3.94884
4.12366
4.32224
4.55307
4.83316
5.19566
5.70521
6.49358
7.85484
10.5713
17.8026
3.13679
3.09205
3.09538
3.1289
3.18368
3.25606
3.34465
3.44878
3.56866
3.70479
3.85791
4.02945
4.2227
4.44506
4.71227
5.05628
5.54151
6.30314
7.65254
10.4538
18.3526
3.03416
3.00609
3.01705
3.05351
3.10922
3.18171
3.27011
3.37405
3.49381
3.62978
3.78238
3.9525
4.14259
4.35883
4.61547
4.94301
5.40509
6.13872
7.46879
10.3347
18.8863
2.95214
2.93459
2.94998
2.98802
3.04406
3.11642
3.20465
3.30866
3.42883
3.56549
3.71883
3.88924
4.07823
4.29068
4.53922
4.85268
5.29356
5.99946
7.30528
10.2183
19.407
2.88487
2.87401
2.89197
2.93062
2.98644
3.05838
3.14631
3.25044
3.37132
3.50932
3.66447
3.83664
4.02645
4.23736
4.48027
4.78227
5.2044
5.88398
7.16271
10.1079
19.9181
2.82898
2.82231
2.84152
2.88
2.93508
3.00619
3.09357
3.19774
3.31947
3.45926
3.61705
3.79226
3.98458
4.19607
4.43578
4.72898
5.13513
5.79063
7.04115
10.0058
20.4227
2.78236
2.77812
2.79756
2.83519
2.889
2.95886
3.04536
3.14939
3.272
3.41386
3.57491
3.75419
3.9505
4.16447
4.4033
4.69034
5.08348
5.7177
6.94032
9.91412
20.9236
2.74355
2.74044
2.75928
2.79546
2.8475
2.91568
3.00098
3.10464
3.22806
3.37215
3.53689
3.72103
3.92256
4.14069
4.38077
4.66425
5.04737
5.66354
6.85974
9.83455
21.4238
2.71145
2.70847
2.72607
2.76027
2.81008
2.8762
2.95999
3.06307
3.1872
3.33358
3.50227
3.69185
3.89957
4.12331
4.36657
4.6489
5.02504
5.62663
6.79886
9.76871
21.9263
2.68517
2.68157
2.69741
2.72921
2.77642
2.84019
2.92222
3.02456
3.1493
3.29794
3.47075
3.66613
3.88077
4.11129
4.35943
4.64289
5.015
5.60567
6.75717
9.7182
22.4342
2.66401
2.65926
2.67298
2.70206
2.74636
2.80761
2.88773
2.9892
3.11447
3.26535
3.44231
3.64373
3.86579
4.104
4.35845
4.64512
5.01606
5.59957
6.73427
9.68472
22.9508
2.64751
2.6413
2.65263
2.67881
2.72004
2.77861
2.85674
2.95729
3.08304
3.23614
3.41725
3.6248
3.85458
4.10115
4.36309
4.65483
5.02737
5.6075
6.72989
9.67014
23.4801
2.63559
2.6277
2.63653
2.65964
2.69775
2.75352
2.82961
2.92924
3.05551
3.21082
3.39608
3.60979
3.84744
4.1028
4.37314
4.67158
5.04836
5.62888
6.74399
9.67697
24.0262
2.62827
2.6185
2.62488
2.64494
2.67978
2.73272
2.80678
2.90558
3.03247
3.19008
3.37954
3.5994
3.84493
4.10928
4.38869
4.69525
5.07876
5.66344
6.77676
9.70826
24.5943
2.6255
2.61367
2.61756
2.63474
2.66646
2.7165
2.78868
2.88688
3.01465
3.17476
3.36853
3.59454
3.84789
4.12126
4.41017
4.72605
5.11867
5.71117
6.8287
9.76938
25.1907
2.62713
2.61304
2.61434
2.62867
2.65757
2.70513
2.77572
2.87378
3.00286
3.16587
3.36419
3.5964
3.85742
4.13967
4.43829
4.76452
5.16848
5.77242
6.90045
9.86647
25.8232
2.63287
2.61635
2.61498
2.62647
2.65282
2.69857
2.76837
2.86702
2.99814
3.16463
3.36789
3.60638
3.87486
4.16571
4.47408
4.81152
5.22893
5.84795
6.98854
9.98603
26.4804
2.64247
2.62336
2.61934
2.62819
2.65248
2.69722
2.76726
2.8677
3.00181
3.17256
3.38124
3.62614
3.90182
4.20049
4.51784
4.86684
5.29861
5.93376
7.08935
10.118
27.1497
2.65585
2.6341
2.62763
2.6344
2.65757
2.70226
2.77359
2.87641
3.01429
3.19
3.4046
3.6561
3.93892
4.24534
4.5718
4.93252
5.37951
6.03226
7.2044
10.2601
27.8339
2.67327
2.64903
2.64047
2.64572
2.66846
2.71388
2.78749
2.89401
3.03684
3.21859
3.43998
3.69862
3.98868
4.30267
4.63793
5.01038
5.47335
6.14493
7.33497
10.4138
28.5314
2.6957
2.66885
2.65842
2.66272
2.68592
2.73325
2.81051
2.92212
3.07131
3.26041
3.4896
3.75598
4.05343
4.37471
4.71836
5.10244
5.58196
6.27364
7.48205
10.581
29.2411
2.72366
2.69423
2.68233
2.68646
2.71119
2.7619
2.84443
2.96276
3.11995
3.31783
3.55592
3.83068
4.13564
4.46388
4.81543
5.21096
5.70742
6.42027
7.64802
10.763
29.9626
2.75797
2.72613
2.71329
2.71826
2.74592
2.80178
2.89138
3.01831
3.1853
3.39352
3.64166
3.92543
4.23797
4.57279
4.93172
5.33845
5.85203
6.58685
7.83451
10.9605
30.6931
2.79965
2.76571
2.75272
2.75983
2.79219
2.85519
2.95387
3.0915
3.27025
3.49042
3.74977
4.04312
4.36325
4.70421
5.06997
5.48759
6.01828
6.77552
8.04339
11.1744
31.4274
2.84996
2.81439
2.80231
2.81335
2.85232
2.92466
3.03476
3.18539
3.37795
3.61174
3.88337
4.1868
4.51442
4.86103
5.23305
5.6612
6.20864
6.9884
8.2763
11.4048
32.1573
2.91032
2.87381
2.86405
2.88117
2.92892
3.01314
3.13725
3.30335
3.51184
3.76081
4.04571
4.35955
4.69444
5.04612
5.42382
5.86204
6.42549
7.22735
8.53429
11.6512
32.8711
2.98289
2.9459
2.94004
2.96536
3.02499
3.12394
3.26487
3.44898
3.67546
3.94107
4.24
4.56441
4.90619
5.26227
5.64506
6.09269
6.67088
7.49353
8.81739
11.9115
33.5523
3.07006
3.03363
3.03268
3.06926
3.14387
3.26067
3.42136
3.62598
3.87235
4.15581
4.46932
4.80421
5.15232
5.51202
5.89922
6.35527
6.94623
7.78702
9.12419
12.1813
34.1807
3.17387
3.13987
3.14589
3.1961
3.28915
3.42709
3.61048
3.83798
4.10587
4.40809
4.73642
5.08145
5.43508
5.79749
6.18827
6.65126
7.25206
8.10927
9.45273
12.446
34.7296
3.29646
3.26732
3.28398
3.3505
3.46473
3.62712
3.83603
4.08848
4.37919
4.70072
5.04372
5.3982
5.75627
6.12032
6.5135
6.98124
7.58853
8.46239
9.79542
12.6799
35.1541
3.44008
3.41906
3.45273
3.53763
3.67527
3.86491
4.10197
4.38111
4.6955
5.03642
5.3935
5.75629
6.11734
6.48171
6.87553
7.34456
7.95652
8.8412
10.1406
12.9033
35.4618
3.60706
3.59766
3.65148
3.7606
3.92605
4.1454
4.41286
4.72002
5.05843
5.41828
5.78827
6.1577
6.51979
6.88285
7.27441
7.73938
8.35207
9.23183
10.4737
13.1136
35.6161
3.80024
3.80781
3.88709
4.0256
4.22329
4.47558
4.7745
5.11038
5.47252
5.85019
6.23124
6.60506
6.96597
7.32584
7.70981
8.16349
8.76462
9.61053
10.7674
13.2716
35.6239
4.02349
4.05836
4.16751
4.34028
4.57463
4.86308
5.19488
5.55866
5.94355
6.3372
6.72688
7.10261
7.46094
7.80961
8.17871
8.61073
9.17591
9.94636
10.9857
13.3496
35.485
4.28131
4.3536
4.49985
4.71322
4.98912
5.31661
5.68236
6.07334
6.47823
6.88574
7.28151
7.65758
8.00878
8.34245
8.68045
9.06687
9.55526
10.1993
11.0906
13.3383
35.2119
4.58197
4.70038
4.89419
5.15595
5.47823
5.84656
6.24571
6.66252
7.08583
7.50459
7.90504
8.28317
8.62041
8.92216
9.20028
9.50026
9.85603
10.3213
11.0432
13.1906
34.7452
4.94747
5.11884
5.36807
5.68481
6.0565
6.4652
6.89507
7.33504
7.77621
8.20693
8.61416
8.9857
9.29985
9.53598
9.70568
9.85545
10.012
10.2586
10.7977
12.9365
34.0921
5.38194
5.62453
5.94086
6.3189
6.74065
7.18619
7.64226
8.10339
8.56453
9.01375
9.43248
9.7919
10.0378
10.1387
10.1213
10.0354
9.93831
9.96337
10.3456
12.5557
33.1531
5.91814
6.24699
6.6398
7.08164
7.54917
8.02449
8.50284
8.9887
9.4799
9.95907
10.3864
10.6817
10.7683
10.6291
10.3139
9.91792
9.56836
9.41876
9.80847
12.126
31.9845
6.59543
7.0228
7.49741
7.99794
8.50074
8.99827
9.50296
10.0298
10.5706
11.0819
11.4573
11.5756
11.3579
10.8296
10.1243
9.43069
8.92339
8.72531
9.24292
11.7078
30.6344
7.45732
7.99428
8.54618
9.09031
9.61539
10.1382
10.6931
11.2909
11.8971
12.371
12.5484
12.2864
11.5611
10.5341
9.48371
8.61681
8.07975
8.0012
8.70346
11.3264
29.135
8.56407
9.20367
9.81135
10.3797
10.9273
11.5101
12.1597
12.865
13.4543
13.7006
13.3787
12.4371
11.0861
9.67716
8.47068
7.57739
7.10489
7.30932
8.25104
11.0321
27.4873
9.95506
10.6727
11.3118
11.9046
12.5231
13.2314
14.0419
14.7589
15.066
14.6261
13.3788
11.6593
9.90827
8.41075
7.25683
6.52668
6.34246
6.83589
8.04638
11.1655
25.8654
11.6466
12.4125
13.0959
13.7778
14.5653
15.5088
16.3515
16.6698
15.9935
14.2819
12.1188
10.1024
8.41491
7.14735
6.25787
5.85734
6.04762
6.75987
8.20812
11.6651
24.2905
13.6104
14.4735
15.3276
16.2431
17.3818
18.3228
18.4815
17.3059
14.9215
12.266
10.1189
8.47199
7.26142
6.48254
6.00632
5.90361
6.26729
7.12363
8.78385
12.4027
22.6859
15.9235
17.1076
18.4266
19.814
20.7029
20.3196
18.0667
14.692
11.8384
9.70449
8.59118
7.77924
7.13207
6.66681
6.43831
6.53139
7.00271
7.97329
9.76149
13.23
20.9802
19.08
21.0067
22.9419
23.1749
21.2088
17.2207
12.6066
10.3733
9.43694
8.92624
8.5481
8.13386
7.73747
7.45939
7.40107
7.64141
8.21166
9.24809
11.0009
13.9469
19.0586
24.822
26.2042
25.7174
19.1513
13.4712
10.7416
9.42125
9.18159
9.43834
9.69026
9.75916
9.63907
9.4074
9.18061
9.1074
9.36497
9.96377
10.9263
12.3696
14.3576
16.677
37.6739
21.3226
20.6172
19.8213
18.0006
15.6125
13.2946
12.539
12.963
13.794
14.6948
15.5748
16.423
17.2573
18.1149
19.0547
19.9202
20.5071
20.5357
19.4467
14.0924
35.9799
16.1257
14.5274
13.916
13.5254
13.2205
12.9863
12.8313
12.759
12.7666
12.8478
13.0073
13.2524
13.591
14.0292
14.5695
15.2092
15.9414
16.7567
36.7744
16.005
14.2571
13.6156
13.222
12.9283
12.7121
12.5779
12.5277
12.5595
12.6712
12.8645
13.148
13.5293
14.0102
14.5841
15.2354
15.9421
16.6793
37.4521
15.8895
14.0102
13.3496
12.9573
12.6741
12.4709
12.348
12.307
12.3464
12.4663
12.6693
12.9599
13.3383
13.793
14.2984
14.818
15.3103
15.7348
38.01
15.7718
13.7783
13.1058
12.7169
12.4412
12.2439
12.1218
12.077
12.1087
12.2168
12.4024
12.6622
12.9805
13.3239
13.6432
13.8816
13.9854
13.9092
38.4548
15.6497
13.5561
12.876
12.4904
12.2176
12.0185
11.8874
11.8271
11.8376
11.9168
12.0596
12.249
12.4477
12.598
12.6321
12.4876
12.118
11.499
38.7989
15.5259
13.3407
12.6544
12.2703
11.9956
11.7879
11.6396
11.5552
11.5345
11.5713
11.6493
11.7324
11.7608
11.6601
11.3621
10.8236
10.0352
9.0376
39.0512
15.4016
13.1304
12.4374
12.0525
11.7715
11.5496
11.3791
11.2657
11.2081
11.1928
11.1882
11.1372
10.9634
10.5927
9.98198
9.13216
8.10332
7.01241
39.2203
15.277
12.9244
12.223
11.8348
11.5442
11.305
11.1103
10.9671
10.8707
10.7971
10.6966
10.4944
10.1101
9.49236
8.64219
7.62342
6.55829
5.58981
39.3142
15.1524
12.7222
12.0107
11.6171
11.315
11.0578
10.84
10.6692
10.5349
10.3993
10.1946
9.83601
9.25613
8.44402
7.45421
6.40519
5.43999
4.67034
39.3412
15.0281
12.5239
11.8007
11.4003
11.0865
10.8126
10.5755
10.3814
10.2114
10.0118
9.69973
9.19109
8.44747
7.50572
6.46961
5.48313
4.66969
4.08324
39.3091
14.9048
12.3299
11.5937
11.1861
10.8617
10.5745
10.3232
10.1112
9.90811
9.64379
9.22551
8.58149
7.7139
6.70416
5.68863
4.80757
4.14126
3.70127
39.2253
14.7828
12.1407
11.3907
10.9764
10.6436
10.3478
10.0886
9.86382
9.62981
9.30087
8.78127
8.02273
7.07054
6.04073
5.08388
4.31564
3.77519
3.444
39.0969
14.6626
11.957
11.193
10.7729
10.435
10.1359
9.87493
9.64205
9.3787
8.98616
8.37326
7.52306
6.51933
5.50223
4.62017
3.95487
3.51548
3.26193
38.9303
14.5447
11.7792
11.0014
10.5772
10.238
9.94098
9.684
9.4466
9.15488
8.70088
8.00415
7.08379
6.05456
5.06981
4.26368
3.68703
3.32613
3.12712
38.7315
14.4295
11.6079
10.8167
10.3905
10.0537
9.76423
9.5161
9.27684
8.95807
8.44483
7.67287
6.70255
5.66692
4.72443
3.9874
3.4849
3.18395
3.02346
38.5059
14.317
11.4434
10.6397
10.2134
9.88295
9.60575
9.37044
9.1318
8.78741
8.21452
7.37801
6.37595
5.34601
4.448
3.77287
3.33085
3.07466
2.94158
38.2581
14.2076
11.286
10.4707
10.0463
9.72581
9.46496
9.2456
9.00926
8.63976
8.00966
7.11918
6.09669
5.08189
4.22719
3.60578
3.21192
2.98924
2.87577
37.9925
14.1012
11.1357
10.3098
9.88948
9.58195
9.34074
9.13989
8.90699
8.512
7.82888
6.89332
5.85927
4.86592
4.05095
3.4748
3.11939
2.92188
2.82247
37.7125
13.9978
10.9924
10.1571
9.74258
9.4507
9.23159
9.05076
8.82226
8.40209
7.67056
6.69758
5.65883
4.69063
3.91015
3.37166
3.04722
2.86867
2.77931
37.4214
13.8974
10.856
10.0123
9.60523
9.33108
9.13575
8.97574
8.75246
8.30817
7.53308
6.52939
5.49092
4.54851
3.79869
3.2914
2.99124
2.82689
2.7446
37.1217
13.7998
10.7262
9.87527
9.4769
9.22199
9.05149
8.91282
8.69513
8.22855
7.41494
6.38727
5.35135
4.43283
3.71183
3.23013
2.9484
2.79445
2.71696
36.8158
13.7048
10.6028
9.74559
9.35695
9.12225
8.97703
8.86007
8.64832
8.16168
7.31462
6.26909
5.23683
4.34027
3.64566
3.18447
2.91624
2.76969
2.69537
36.5055
13.6123
10.4855
9.62287
9.24472
9.0307
8.9107
8.81565
8.61038
8.10589
7.23075
6.17335
5.14607
4.26886
3.5962
3.15107
2.89286
2.75149
2.67903
36.1923
13.5221
10.3738
9.50668
9.13948
8.94623
8.85102
8.77791
8.57996
8.06038
7.16264
6.09785
5.07661
4.2159
3.56096
3.12829
2.87741
2.7395
2.66787
35.8775
13.4341
10.2676
9.39657
9.04056
8.8678
8.79669
8.74548
8.55588
8.02437
7.10931
6.04069
5.02616
4.1792
3.53831
3.11511
2.86935
2.73343
2.66177
35.5621
13.3481
10.1663
9.29209
8.94729
8.79447
8.7466
8.71716
8.53713
7.99714
7.06973
6.00016
4.99276
4.15705
3.52705
3.11075
2.8682
2.73307
2.66063
35.2468
13.2639
10.0697
9.19282
8.85906
8.72542
8.69978
8.69193
8.5228
7.97797
7.04285
5.97471
4.97471
4.14808
3.52621
3.11459
2.87359
2.73813
2.66426
34.9323
13.1814
9.97739
9.09833
8.77529
8.65992
8.65541
8.66888
8.51208
7.96619
7.02765
5.96297
4.97057
4.15121
3.53505
3.1261
2.88513
2.74832
2.67236
34.6187
13.1005
9.88916
9.00825
8.69549
8.59735
8.6128
8.64723
8.50422
7.96111
7.02319
5.96368
4.9791
4.16554
3.55301
3.14489
2.90253
2.76337
2.68469
34.3064
13.0212
9.80472
8.92222
8.61918
8.53718
8.57135
8.6263
8.49852
7.96208
7.0286
5.9757
4.99923
4.19035
3.57964
3.17067
2.92557
2.78311
2.70106
33.9964
12.9435
9.72379
8.83994
8.54599
8.47897
8.53059
8.60541
8.49423
7.96845
7.0432
5.9981
5.0301
4.22507
3.61461
3.20324
2.95422
2.8076
2.72154
33.6884
12.8667
9.64642
8.76138
8.47585
8.42266
8.4902
8.58333
8.48939
7.97941
7.06765
6.03046
5.07112
4.26936
3.65748
3.24246
2.9888
2.83749
2.74737
33.3893
12.7993
9.57423
8.68694
8.40869
8.36796
8.44986
8.55964
8.48286
7.99195
7.09825
6.0722
5.12249
4.32364
3.71057
3.29125
3.03138
2.87409
2.77906
33.0979
12.7406
9.50698
8.61636
8.34425
8.3146
8.40929
8.53407
8.4743
8.00485
7.13369
6.12218
5.18329
4.38833
3.77404
3.34958
3.08228
2.91793
2.81729
32.8131
12.689
9.44445
8.54939
8.28228
8.26234
8.36829
8.50638
8.46341
8.01754
7.17307
6.17957
5.25275
4.46277
3.84759
3.41756
3.14194
2.96972
2.86297
32.5342
12.6435
9.38652
8.48589
8.22261
8.21101
8.32671
8.47645
8.44995
8.02957
7.21564
6.2435
5.33012
4.54636
3.9309
3.49534
3.21098
3.03037
2.91724
32.2603
12.6035
9.33302
8.42572
8.16506
8.16046
8.28446
8.44419
8.43374
8.0405
7.26074
6.3132
5.41463
4.63848
4.02371
3.58315
3.2901
3.10101
2.98148
31.9908
12.5686
9.28376
8.36877
8.10954
8.11061
8.24148
8.4096
8.41465
8.04993
7.30776
6.3881
5.50557
4.73856
4.12573
3.68126
3.3801
3.18289
3.05732
31.725
12.5384
9.23858
8.31493
8.05595
8.06141
8.19776
8.37273
8.39264
8.0575
7.35612
6.46798
5.60236
4.84624
4.23685
3.78996
3.48185
3.27747
3.14667
31.4624
12.5126
9.19732
8.26413
8.00424
8.01283
8.15334
8.33367
8.36769
8.06285
7.40389
6.55181
5.70514
4.9612
4.35768
3.9097
3.5963
3.38603
3.25152
31.2024
12.4905
9.15984
8.21627
7.95437
7.96489
8.10829
8.2926
8.33988
8.06565
7.45017
6.63819
5.814
5.08302
4.48793
4.0409
3.72438
3.51033
3.37342
30.9445
12.4718
9.12599
8.1713
7.90633
7.91764
8.06272
8.24972
8.30936
8.06569
7.49441
6.72463
5.92764
5.2127
4.62763
4.1843
3.86705
3.65129
3.51403
30.6885
12.4562
9.09562
8.12917
7.86014
7.87114
8.01678
8.2053
8.27634
8.06285
7.53615
6.81041
6.04454
5.34924
4.77689
4.33987
4.02494
3.80988
3.67502
30.4338
12.443
9.06859
8.08983
7.81582
7.8255
7.97066
8.15967
8.24114
8.05713
7.57504
6.8949
6.16367
5.4918
4.93557
4.50804
4.19804
3.9871
3.85816
30.1801
12.432
9.04469
8.05322
7.77341
7.78085
7.92459
8.1132
8.20418
8.04871
7.61092
6.97759
6.28418
5.64024
5.10337
4.68852
4.38708
4.18426
4.06569
29.9272
12.4225
9.02372
8.01929
7.73298
7.73733
7.87883
8.06633
8.16596
8.03792
7.64379
7.05816
6.40556
5.79367
5.28053
4.88158
4.59307
4.40319
4.30063
29.6748
12.4141
9.00543
7.98796
7.69457
7.69512
7.83367
8.01955
8.1271
8.02529
7.67395
7.13666
6.52849
5.95265
5.46657
5.08825
4.81786
4.64692
4.56791
29.4227
12.4061
8.98953
7.95914
7.65824
7.65441
7.78945
7.9734
8.08834
8.01157
7.70198
7.21353
6.65279
6.1181
5.66299
5.31066
5.0647
4.92052
4.87625
29.1707
12.3978
8.97565
7.9327
7.62403
7.61537
7.74653
7.92848
8.05051
7.99771
7.72882
7.29041
6.78074
6.29072
5.8722
5.55238
5.33892
5.23208
5.23788
28.9188
12.3885
8.96339
7.90846
7.59195
7.57819
7.70527
7.88542
8.01454
7.98488
7.75584
7.36858
6.91462
6.47342
6.09806
5.81902
5.64893
5.59551
5.68389
28.6668
12.3774
8.95226
7.8862
7.56196
7.543
7.66601
7.84489
7.9814
7.97441
7.78506
7.45141
7.05719
6.67038
6.34629
6.11898
6.00771
6.03243
6.24733
28.4148
12.3636
8.94172
7.86566
7.53401
7.50991
7.62909
7.80751
7.95209
7.96778
7.81867
7.54322
7.21227
6.88718
6.62497
6.4647
6.43622
6.58716
6.96339
28.1629
12.3461
8.93114
7.8465
7.50793
7.47891
7.59484
7.77392
7.92758
7.96654
7.85875
7.64685
7.385
7.13156
6.94538
6.87472
6.96827
7.33679
7.91305
27.9111
12.324
8.91986
7.82831
7.48351
7.45
7.56353
7.74462
7.90876
7.97229
7.90915
7.76552
7.58076
7.41194
7.32303
7.3768
7.66044
8.31617
9.14982
27.6598
12.2963
8.90713
7.81063
7.46048
7.42306
7.53524
7.71994
7.89633
7.98641
7.97388
7.90295
7.8054
7.739
7.77843
8.01307
8.6455
9.64716
10.7271
27.4091
12.2622
8.89223
7.79292
7.43846
7.39787
7.50993
7.70003
7.89073
8.00978
8.05383
8.06223
8.06489
8.12543
8.33699
8.82815
9.9032
11.3385
12.5873
27.1594
12.2206
8.87439
7.7746
7.41701
7.37416
7.48738
7.68475
7.89198
8.04269
8.14904
8.24511
8.36441
8.58436
9.03027
9.93781
11.5446
13.3205
14.5705
26.9112
12.171
8.85293
7.75511
7.39565
7.35151
7.46722
7.6737
7.89965
8.08471
8.25842
8.45124
8.70605
9.12202
9.86661
11.283
13.4699
15.2211
16.5078
26.6649
12.1125
8.82721
7.73387
7.37387
7.32946
7.44891
7.66613
7.91278
8.1345
8.37914
8.67669
9.08375
9.725
10.8086
12.7315
15.3187
16.6061
18.6087
26.4212
12.0444
8.79683
7.7105
7.35131
7.30761
7.43183
7.661
7.92963
8.18921
8.50544
8.91122
9.47671
10.3479
11.7641
14.0834
16.6396
17.6204
21.2284
26.2308
11.9848
8.76911
7.68995
7.33224
7.28973
7.41842
7.65791
7.94505
8.23605
8.60996
9.10416
9.79644
10.8436
12.5212
14.9986
17.4904
18.934
23.773
26.0426
11.921
8.73834
7.6677
7.31228
7.27153
7.40509
7.65514
7.96082
8.28252
8.71031
9.28424
10.0773
11.2296
12.9968
15.2932
17.9771
19.2799
17.7619
25.8566
11.8527
8.70421
7.64331
7.29092
7.25242
7.39117
7.65196
7.9762
8.32783
8.80495
9.44559
10.302
11.4656
13.0853
15.0342
17.7404
17.9179
17.6365
17.2905
16.2033
15.8442
15.8257
15.9461
16.128
16.3267
16.5199
16.6949
16.8444
16.9628
17.0448
17.0833
17.0669
16.9743
16.7643
16.3551
15.6057
14.4118
12.3344
5.49056
6.9903
6.25963
6.16958
6.17633
6.22044
6.27914
6.35026
6.43496
6.53535
6.65398
6.79395
6.95933
7.15553
7.38949
7.66965
8.00423
8.39357
8.80419
9.13779
9.18447
8.38554
5.13925
4.80635
4.72375
4.72174
4.76572
4.83598
4.92814
5.04142
5.17664
5.33561
5.52117
5.73749
5.99067
6.28969
6.64799
7.08517
7.62689
8.29789
9.10213
9.97418
10.2173
4.43261
4.20262
4.13225
4.13433
4.17782
4.2458
4.33576
4.44759
4.58152
4.73898
4.92267
5.13689
5.38831
5.68725
6.04989
6.50151
7.08069
7.84219
8.86416
10.2065
11.534
3.97872
3.80955
3.74855
3.74699
3.78131
3.84256
3.92435
4.02778
4.15295
4.30109
4.4748
4.67839
4.91871
5.20666
5.55975
6.00649
6.59337
7.39746
8.54447
10.2012
12.5345
3.65974
3.51107
3.45158
3.44379
3.46954
3.52238
3.59629
3.69152
3.80803
3.94687
4.11049
4.30307
4.5314
4.8064
5.14585
5.5794
6.15799
6.97322
8.1798
10.0731
13.3448
3.40854
3.27104
3.21147
3.19721
3.21588
3.26175
3.33019
3.41913
3.52871
3.65983
3.81472
3.99736
4.21429
4.47622
4.80079
5.21789
5.78083
6.58636
7.82109
9.88964
14.0329
3.20636
3.07595
3.01574
2.99686
3.01047
3.05128
3.11582
3.20013
3.30435
3.4292
3.57666
3.75046
3.95685
4.20622
4.51592
4.91587
5.45972
6.24986
7.49571
9.69724
14.637
3.04416
2.91836
2.85704
2.83545
2.84604
2.88371
2.94497
3.02582
3.12583
3.24549
3.38656
3.55248
3.74919
3.98671
4.28206
4.6649
5.18946
5.9617
7.20889
9.51332
15.1772
2.91549
2.79145
2.72906
2.70637
2.71552
2.75131
2.8102
2.88842
2.98505
3.10034
3.23582
3.39467
3.58251
3.80896
4.09065
4.45703
4.96266
5.71622
6.95913
9.34451
15.667
2.81385
2.68939
2.62671
2.60408
2.6129
2.64773
2.70497
2.78115
2.87496
2.98648
3.11703
3.26953
3.44925
3.66541
3.93424
4.28496
4.77236
5.50729
6.74255
9.19245
16.1162
2.73405
2.60815
2.54572
2.52388
2.53307
2.56753
2.62361
2.69811
2.7895
2.8977
3.02387
3.17067
3.343
3.54967
3.8065
4.14244
4.61251
5.3293
6.55489
9.05676
16.532
2.6721
2.5444
2.48246
2.46176
2.47166
2.50606
2.56125
2.63428
2.7235
2.82874
2.95101
3.09272
3.25841
3.4564
3.70209
4.02419
4.47793
5.17734
6.39216
8.93626
16.9202
2.62487
2.4953
2.43386
2.41432
2.42497
2.45939
2.51379
2.58541
2.67261
2.77518
2.894
3.03122
3.191
3.38115
3.61658
3.9258
4.36428
5.04728
6.25084
8.8296
17.2853
2.59002
2.45845
2.39732
2.37871
2.38994
2.42426
2.4778
2.54798
2.63323
2.73334
2.84912
2.98246
3.13708
3.32024
3.54632
3.84363
4.26796
4.93564
6.12791
8.73543
17.6312
2.56591
2.43203
2.37071
2.35258
2.36403
2.39798
2.45048
2.5191
2.6024
2.70023
2.81332
2.94337
3.09363
3.27068
3.48832
3.77471
4.18601
4.83952
6.02084
8.65255
17.961
2.55118
2.41454
2.35232
2.33403
2.3452
2.3784
2.42958
2.49645
2.57775
2.67339
2.78414
2.91147
3.05815
3.23002
3.44018
3.71663
4.11599
4.75655
5.92749
8.57988
18.2776
2.54463
2.40473
2.34076
2.32155
2.33186
2.36384
2.41337
2.47827
2.55743
2.65093
2.75959
2.88474
3.02863
3.19626
3.39992
3.66742
4.05595
4.68474
5.84603
8.5165
18.5832
2.54514
2.40148
2.33492
2.31398
2.32276
2.35304
2.40057
2.46321
2.54005
2.63138
2.73814
2.86156
3.00343
3.16782
3.36599
3.62553
4.00429
4.62245
5.77493
8.46161
18.8801
2.55168
2.40387
2.33388
2.31043
2.31703
2.34513
2.39027
2.45033
2.52463
2.61368
2.7186
2.84063
2.98124
3.14346
3.3372
3.58975
3.95969
4.56829
5.71284
8.41449
19.1703
2.56331
2.4111
2.33693
2.31024
2.31409
2.3395
2.38183
2.43901
2.5105
2.59705
2.70002
2.82092
2.96094
3.12214
3.3126
3.55899
3.92099
4.521
5.65858
8.37447
19.4557
2.57895
2.42264
2.34366
2.31306
2.31351
2.33577
2.37493
2.42888
2.49721
2.58091
2.6817
2.80159
2.9416
3.10238
3.29078
3.53224
3.88707
4.47947
5.61107
8.34091
19.738
2.59765
2.43815
2.35397
2.31857
2.31514
2.33385
2.36946
2.41979
2.4845
2.56487
2.66339
2.78227
2.92198
3.08257
3.27001
3.50804
3.8569
4.44267
5.56936
8.31325
20.0189
2.6196
2.45706
2.36745
2.32685
2.31906
2.3338
2.36542
2.41161
2.4722
2.54892
2.6446
2.76175
2.90104
3.06189
3.2492
3.48534
3.82976
4.4098
5.5327
8.29102
20.3003
2.64521
2.47917
2.38406
2.33793
2.32523
2.33544
2.36256
2.40408
2.45996
2.5323
2.62443
2.73944
2.87827
3.0399
3.2279
3.46358
3.80514
4.38029
5.50053
8.27391
20.5838
2.6748
2.5048
2.40387
2.35171
2.33342
2.33835
2.36024
2.39643
2.44706
2.51456
2.60275
2.71526
2.85357
3.01649
3.20617
3.44254
3.78242
4.35378
5.47245
8.26181
20.8713
2.70895
2.5343
2.42703
2.36811
2.34335
2.34214
2.35805
2.38844
2.43354
2.49601
2.57999
2.68968
2.82727
2.99174
3.18399
3.42214
3.76145
4.33006
5.44827
8.25486
21.1646
2.74752
2.5684
2.45407
2.3874
2.35515
2.34694
2.35632
2.38064
2.4201
2.47742
2.55699
2.66346
2.79991
2.96591
3.16136
3.40234
3.74214
4.30909
5.42796
8.25352
21.4659
2.78905
2.60567
2.48433
2.4095
2.36913
2.35336
2.35581
2.37386
2.40764
2.45975
2.53472
2.63749
2.77217
2.93935
3.13832
3.38304
3.72444
4.29087
5.41161
8.25844
21.7775
2.83299
2.64504
2.51703
2.43402
2.38529
2.36174
2.35721
2.36908
2.39731
2.44422
2.51418
2.61269
2.74479
2.91251
3.11498
3.36415
3.70831
4.27552
5.3994
8.27063
22.102
2.87961
2.68666
2.55164
2.46067
2.40373
2.37246
2.36104
2.3668