/*--------------------------------*- C++ -*----------------------------------*\
| =========                 |                                                 |
| \\      /  F ield         | OpenFOAM: The Open Source CFD Toolbox           |
|  \\    /   O peration     | Version:  v2012                                 |
|   \\  /    A nd           | Website:  www.openfoam.com                      |
|    \\/     M anipulation  |                                                 |
\*---------------------------------------------------------------------------*/
FoamFile
{
    version     2.0;
    format      ascii;
    class       surfaceScalarField;
    location    "617";
    object      phi;
}
// * * * * * * * * * * * * * * * * * * * * * * * * * * * * * * * * * * * * * //

dimensions      [0 3 -1 0 0 0 0];
oriented        oriented;


internalField   nonuniform List<scalar> 
11870
(
-0.000198795
-1.89713e-08
0.000198814
-0.000198795
-6.07031e-10
-0.00019881
1.51403e-08
-0.000198838
2.77867e-08
-0.000198876
3.8034e-08
-0.000198922
4.60202e-08
-0.000198974
5.23043e-08
-0.000199031
5.73721e-08
-0.000199093
6.16774e-08
-0.000199159
6.55927e-08
-0.000199228
6.94256e-08
-0.000199302
7.34311e-08
-0.000199379
7.78015e-08
-0.000199462
8.26217e-08
-0.00019955
8.78052e-08
-0.000199643
9.29539e-08
-0.00019974
9.70864e-08
-0.00019984
1.00316e-07
-0.000199938
9.80319e-08
6.18637e-08
-0.000200153
-8.90814e-08
0.000200223
-0.000200101
-5.23066e-08
-0.000200064
-2.18603e-08
-0.000200039
2.32399e-09
-0.000200022
2.10117e-08
-0.000200011
3.51968e-08
-0.000200005
4.59983e-08
-0.000200002
5.42964e-08
-0.000200001
6.0957e-08
-0.000200002
6.6642e-08
-0.000200004
7.18674e-08
-0.000200008
7.70282e-08
-0.000200013
8.23836e-08
-0.000200018
8.79856e-08
-0.000200024
9.34745e-08
-0.000200029
9.81127e-08
-0.000200033
1.01041e-07
-0.000200033
1.00363e-07
-0.000200021
8.59077e-08
4.11384e-08
-0.000200513
-1.72797e-07
0.000200596
-0.000200448
-1.16772e-07
-0.000200398
-7.17499e-08
-0.000200359
-3.6773e-08
-0.000200328
-1.06023e-08
-0.000200301
8.78991e-09
-0.000200278
2.30861e-08
-0.000200258
3.35559e-08
-0.000200238
4.15136e-08
-0.000200219
4.78605e-08
-0.000200201
5.32672e-08
-0.000200182
5.82149e-08
-0.000200163
6.30163e-08
-0.000200142
6.78165e-08
-0.000200121
7.22037e-08
-0.000200098
7.4924e-08
-0.000200073
7.59225e-08
-0.000200045
7.25352e-08
-0.000200017
5.76713e-08
2.44473e-08
-0.000200645
-2.61015e-07
0.000200734
-0.000200578
-1.83855e-07
-0.000200526
-1.24178e-07
-0.000200484
-7.89314e-08
-0.000200448
-4.62803e-08
-0.000200416
-2.2822e-08
-0.000200387
-6.06243e-09
-0.000200359
5.66071e-09
-0.000200332
1.40582e-08
-0.000200304
2.02457e-08
-0.000200276
2.50209e-08
-0.000200247
2.8941e-08
-0.000200216
3.23664e-08
-0.000200184
3.54624e-08
-0.00020015
3.80106e-08
-0.000200114
3.94817e-08
-0.000200078
3.97102e-08
-0.000200042
3.70009e-08
-0.000200013
2.83245e-08
1.14006e-08
-0.000200672
-3.48269e-07
0.000200759
-0.000200609
-2.46719e-07
-0.000200561
-1.72632e-07
-0.000200522
-1.18192e-07
-0.000200488
-8.02529e-08
-0.000200456
-5.39876e-08
-0.000200426
-3.60738e-08
-0.000200397
-2.40413e-08
-0.000200367
-1.59821e-08
-0.000200336
-1.06068e-08
-0.000200304
-7.03514e-09
-0.00020027
-4.65528e-09
-0.000200235
-3.06862e-09
-0.000200197
-2.01768e-09
-0.000200158
-1.32951e-09
-0.000200118
-8.70733e-10
-0.000200077
-5.52385e-10
-0.00020004
-3.30567e-10
-0.000200011
-1.73208e-10
-5.74427e-11
-0.000200622
-4.30789e-07
0.000200704
-0.00020057
-2.98373e-07
-0.000200532
-2.11053e-07
-0.000200501
-1.4902e-07
-0.000200473
-1.07883e-07
-0.000200447
-8.06387e-08
-0.00020042
-6.29027e-08
-0.000200392
-5.15732e-08
-0.000200364
-4.45645e-08
-0.000200334
-4.0475e-08
-0.000200302
-3.84333e-08
-0.000200269
-3.7815e-08
-0.000200234
-3.82127e-08
-0.000200197
-3.93012e-08
-0.000200158
-4.05413e-08
-0.000200117
-4.11433e-08
-0.000200077
-4.07618e-08
-0.00020004
-3.76266e-08
-0.000200011
-2.86445e-08
-1.15062e-08
-0.000200491
-5.08708e-07
0.000200569
-0.000200461
-3.28866e-07
-0.000200439
-2.32334e-07
-0.000200423
-1.65657e-07
-0.000200406
-1.2453e-07
-0.000200388
-9.86839e-08
-0.000200368
-8.27287e-08
-0.000200347
-7.31237e-08
-0.000200324
-6.78108e-08
-0.000200299
-6.52402e-08
-0.000200272
-6.47629e-08
-0.000200244
-6.5813e-08
-0.000200215
-6.8017e-08
-0.000200183
-7.10877e-08
-0.000200149
-7.43615e-08
-0.000200114
-7.63528e-08
-0.000200078
-7.68241e-08
-0.000200042
-7.30676e-08
-0.000200013
-5.79138e-08
-2.45264e-08
-0.00020024
-5.84395e-07
0.000200316
-0.00020025
-3.19324e-07
-0.000200256
-2.26245e-07
-0.000200261
-1.60523e-07
-0.000200261
-1.24448e-07
-0.000200257
-1.03114e-07
-0.000200249
-9.07437e-08
-0.000200238
-8.38801e-08
-0.000200225
-8.06495e-08
-0.000200211
-7.95744e-08
-0.000200195
-8.03468e-08
-0.000200178
-8.26058e-08
-0.00020016
-8.60517e-08
-0.000200141
-9.03945e-08
-0.00020012
-9.5071e-08
-0.000200097
-9.91598e-08
-0.000200072
-1.01701e-07
-0.000200045
-1.00786e-07
-0.000200017
-8.60305e-08
-4.11766e-08
-0.00019973
-6.15067e-07
0.00019976
-0.000199812
-2.37338e-07
-0.000199867
-1.70892e-07
-0.000199907
-1.20506e-07
-0.000199934
-9.74362e-08
-0.000199953
-8.4393e-08
-0.000199966
-7.73699e-08
-0.000199976
-7.38594e-08
-0.000199984
-7.25825e-08
-0.000199991
-7.27171e-08
-0.000199997
-7.40841e-08
-0.000200004
-7.64887e-08
-0.00020001
-7.98099e-08
-0.000200016
-8.39414e-08
-0.000200023
-8.8675e-08
-0.000200028
-9.35195e-08
-0.000200032
-9.745e-08
-0.000200033
-1.00562e-07
-0.000200021
-9.80564e-08
-6.18747e-08
-0.000198138
0.000197523
-0.000198376
-0.000198547
-0.000198667
-0.000198765
-0.000198849
-0.000198926
-0.000199
-0.000199073
-0.000199146
-0.00019922
-0.000199296
-0.000199376
-0.00019946
-0.000199549
-0.000199642
-0.00019974
-0.00019984
-0.000199938
-0.000177209
4.96577e-06
0.000172243
-0.000181524
4.31472e-06
-0.000185236
3.71215e-06
-0.000188389
3.15303e-06
-0.000191028
2.63895e-06
-0.000193199
2.17075e-06
-0.000194948
1.74912e-06
-0.000196322
1.3742e-06
-0.000197368
1.04567e-06
-0.000198131
7.62937e-07
-0.000198656
5.25292e-07
-0.000198988
3.31639e-07
-0.000199167
1.79717e-07
-0.000199233
6.60872e-08
-0.000199221
-1.2842e-08
-0.00019916
-6.05026e-08
-0.000199076
-8.37432e-08
-0.000198989
-8.68706e-08
-0.000198913
-7.65866e-08
-0.000198854
-5.93944e-08
-3.91997e-08
-0.000181672
9.5803e-06
0.000177057
-0.000185676
8.31944e-06
-0.000189103
7.13848e-06
-0.000191991
6.04163e-06
-0.000194385
5.03284e-06
-0.000196329
4.11461e-06
-0.000197868
3.28849e-06
-0.000199049
2.55491e-06
-0.000199917
1.91335e-06
-0.000200517
1.36274e-06
-0.000200893
9.01738e-07
-0.00020109
5.28349e-07
-0.000201148
2.38454e-07
-0.000201108
2.54633e-08
-0.000201002
-1.18596e-07
-0.00020086
-2.02637e-07
-0.000200706
-2.37944e-07
-0.000200557
-2.35869e-07
-0.000200424
-2.09176e-07
-0.000200313
-1.70639e-07
-1.28934e-07
-0.000183251
1.40647e-05
0.000178766
-0.000187137
1.22055e-05
-0.000190458
1.04596e-05
-0.000193252
8.83603e-06
-0.000195561
7.34123e-06
-0.000197426
5.97974e-06
-0.000198892
4.75445e-06
-0.000200003
3.6664e-06
-0.000200805
2.71497e-06
-0.000201341
1.89881e-06
-0.000201655
1.21639e-06
-0.000201793
6.65609e-07
-0.000201795
2.40572e-07
-0.000201701
-6.8389e-08
-0.000201546
-2.73757e-07
-0.00020136
-3.88898e-07
-0.000201167
-4.30264e-07
-0.000200987
-4.15953e-07
-0.000200831
-3.65588e-07
-0.000200701
-3.00111e-07
-2.33844e-07
-0.000184229
1.84957e-05
0.000179798
-0.000188067
1.6043e-05
-0.000191343
1.37358e-05
-0.000194094
1.15873e-05
-0.00019636
9.60715e-06
-0.000198182
7.80192e-06
-0.000199604
6.17621e-06
-0.00020067
4.73182e-06
-0.000201422
3.46777e-06
-0.000201906
2.38285e-06
-0.000202166
1.47561e-06
-0.000202245
7.45131e-07
-0.000202189
1.84752e-07
-0.00020204
-2.17931e-07
-0.000201832
-4.8104e-07
-0.0002016
-6.2133e-07
-0.000201369
-6.60835e-07
-0.00020116
-6.25117e-07
-0.000200985
-5.409e-07
-0.000200845
-4.40084e-07
-3.45262e-07
-0.000184973
2.28988e-05
0.000180569
-0.000188783
1.98537e-05
-0.000192033
1.69856e-05
-0.000194758
1.43122e-05
-0.000196997
1.18459e-05
-0.00019879
9.59525e-06
-0.00020018
7.56633e-06
-0.00020121
5.76216e-06
-0.000201924
4.1812e-06
-0.000202364
2.82306e-06
-0.000202573
1.68476e-06
-0.000202595
7.67064e-07
-0.000202479
6.8145e-08
-0.000202269
-4.27014e-07
-0.000202005
-7.45483e-07
-0.000201721
-9.05602e-07
-0.000201448
-9.33685e-07
-0.000201208
-8.65282e-07
-0.000201015
-7.33458e-07
-0.000200871
-5.84523e-07
-4.56596e-07
-0.000185381
2.72686e-05
0.000181011
-0.000189161
2.36341e-05
-0.000192385
2.02098e-05
-0.00019509
1.70171e-05
-0.000197315
1.40701e-05
-0.000199096
1.13771e-05
-0.000200475
8.94472e-06
-0.000201492
6.77974e-06
-0.000202194
4.88299e-06
-0.00020262
3.24896e-06
-0.000202809
1.87321e-06
-0.000202797
7.55373e-07
-0.000202633
-9.55764e-08
-0.000202375
-6.85209e-07
-0.000202062
-1.05827e-06
-0.00020173
-1.23756e-06
-0.000201418
-1.24573e-06
-0.000201149
-1.13455e-06
-0.000200943
-9.39454e-07
-0.000200806
-7.21651e-07
-5.57953e-07
-0.000185064
3.15487e-05
0.000180784
-0.000188766
2.73364e-05
-0.00019193
2.3374e-05
-0.000194598
1.9685e-05
-0.000196811
1.62825e-05
-0.000198606
1.31728e-05
-0.000200019
1.03573e-05
-0.000201075
7.83584e-06
-0.000201814
5.62212e-06
-0.00020229
3.72534e-06
-0.000202536
2.11912e-06
-0.000202577
7.96304e-07
-0.000202449
-2.23666e-07
-0.000202192
-9.42497e-07
-0.000201874
-1.37599e-06
-0.000201541
-1.57115e-06
-0.000201221
-1.56572e-06
-0.000200943
-1.41179e-06
-0.000200741
-1.14223e-06
-0.000200642
-8.20077e-07
-6.30987e-07
-0.000183203
3.55638e-05
0.000179188
-0.000186662
3.07957e-05
-0.000189623
2.63346e-05
-0.000192141
2.22034e-05
-0.000194269
1.84105e-05
-0.00019605
1.49531e-05
-0.000197516
1.18236e-05
-0.000198703
9.02276e-06
-0.000199637
6.55675e-06
-0.000200328
4.41552e-06
-0.000200791
2.58248e-06
-0.000201052
1.05752e-06
-0.000201129
-1.4706e-07
-0.000201071
-9.99807e-07
-0.000200959
-1.48866e-06
-0.000200796
-1.7339e-06
-0.000200606
-1.75583e-06
-0.000200427
-1.59032e-06
-0.000200301
-1.26912e-06
-0.000200308
-8.13126e-07
-6.22691e-07
-0.000178289
3.88788e-05
0.000174974
-0.000181061
3.3568e-05
-0.000183381
2.86539e-05
-0.000185336
2.41585e-05
-0.00018701
2.00841e-05
-0.000188475
1.64186e-05
-0.000189794
1.31425e-05
-0.00019101
1.02388e-05
-0.000192146
7.6926e-06
-0.000193214
5.48335e-06
-0.000194204
3.57339e-06
-0.000195103
1.95649e-06
-0.000195892
6.41297e-07
-0.000196604
-2.87677e-07
-0.000197272
-8.20239e-07
-0.000197849
-1.15686e-06
-0.000198319
-1.28634e-06
-0.00019872
-1.18869e-06
-0.00019902
-9.69478e-07
-0.000199248
-5.85344e-07
-1.10171e-07
-0.000168164
0.000166369
4.06738e-05
-0.000169359
3.47624e-05
-0.000170073
2.93677e-05
-0.000170422
2.45076e-05
-0.000170515
2.01773e-05
-0.000170455
1.63587e-05
-0.000170342
1.30292e-05
-0.000170273
1.01697e-05
-0.00017035
7.77024e-06
-0.000170717
5.85036e-06
-0.000171435
4.29091e-06
-0.00017255
3.07183e-06
-0.000174098
2.18927e-06
-0.000176096
1.70983e-06
-0.000178519
1.6028e-06
-0.000181304
1.62872e-06
-0.000184317
1.72684e-06
-0.000187442
1.93633e-06
-0.000190376
1.96394e-06
-0.000192667
1.70584e-06
4.74618e-06
7.56696e-06
-7.56697e-06
9.43803e-06
-1.87108e-06
6.65724e-06
2.78077e-06
7.08426e-07
5.9488e-06
-9.49012e-06
1.01985e-05
-2.47546e-05
1.52645e-05
-4.25846e-05
1.783e-05
-5.98727e-05
1.72881e-05
-7.55346e-05
1.56619e-05
-8.97828e-05
1.42482e-05
-0.000102795
1.30126e-05
-0.000114694
1.18991e-05
-0.000125568
1.08739e-05
-0.000135483
9.91478e-06
-0.00014449
9.00679e-06
-0.000152631
8.14104e-06
-0.000159944
7.31341e-06
-0.000166468
6.52398e-06
5.775e-06
4.47752e-06
-1.20445e-05
2.55942e-06
4.70055e-08
-4.07242e-06
9.4126e-06
-1.6042e-05
1.79184e-05
-3.19429e-05
2.60994e-05
-4.81817e-05
3.15032e-05
-6.28349e-05
3.24833e-05
-7.6372e-05
3.08251e-05
-8.94209e-05
2.87108e-05
-0.000101755
2.65819e-05
-0.000113272
2.45304e-05
-0.000123968
2.25946e-05
-0.000133854
2.07597e-05
-0.000142945
1.90063e-05
-0.000151257
1.7319e-05
-0.000158806
1.56893e-05
-0.000165608
1.41154e-05
-0.000171684
1.26005e-05
1.1148e-05
-8.28581e-07
-1.12159e-05
-7.09227e-06
6.31069e-06
-1.77244e-05
2.00447e-05
-3.18251e-05
3.2019e-05
-4.65564e-05
4.08308e-05
-5.98879e-05
4.48347e-05
-7.20917e-05
4.46871e-05
-8.40125e-05
4.27459e-05
-9.56706e-05
4.03689e-05
-0.000106883
3.77941e-05
-0.000117551
3.51987e-05
-0.000127605
3.26488e-05
-0.000137002
3.01568e-05
-0.000145716
2.77197e-05
-0.00015373
2.53329e-05
-0.000161037
2.29966e-05
-0.000167639
2.07169e-05
-0.000173543
1.85046e-05
1.63712e-05
-6.35898e-06
-4.85696e-06
-1.60636e-05
1.60154e-05
-2.86621e-05
3.26432e-05
-4.23515e-05
4.57084e-05
-5.50582e-05
5.35375e-05
-6.64753e-05
5.62517e-05
-7.74731e-05
5.56849e-05
-8.84685e-05
5.37413e-05
-9.9307e-05
5.12074e-05
-0.000109855
4.83423e-05
-0.000120006
4.53495e-05
-0.000129668
4.23105e-05
-0.000138772
3.92609e-05
-0.000147268
3.62156e-05
-0.000155119
3.31847e-05
-0.000162304
3.01812e-05
-0.00016881
2.72232e-05
-0.000174638
2.43323e-05
2.15315e-05
-1.05261e-05
5.66916e-06
-2.26822e-05
2.81714e-05
-3.58943e-05
4.58554e-05
-4.85714e-05
5.83855e-05
-5.99061e-05
6.48722e-05
-7.04318e-05
6.67774e-05
-8.08565e-05
6.61096e-05
-9.13045e-05
6.41893e-05
-0.000101648
6.15511e-05
-0.000111785
5.84797e-05
-0.000121608
5.51721e-05
-0.00013102
5.17226e-05
-0.000139942
4.81825e-05
-0.000148308
4.45819e-05
-0.000156069
4.09459e-05
-0.00016319
3.7302e-05
-0.000169649
3.36824e-05
-0.00017544
3.01232e-05
2.66607e-05
-1.33424e-05
1.90115e-05
-2.69391e-05
4.17681e-05
-4.0092e-05
5.90083e-05
-5.1931e-05
7.02245e-05
-6.25836e-05
7.55249e-05
-7.277e-05
7.69637e-05
-8.29213e-05
7.62609e-05
-9.30608e-05
7.43288e-05
-0.000103113
7.16028e-05
-0.000112996
6.8363e-05
-0.000122612
6.47887e-05
-0.000131868
6.09781e-05
-0.000140676
5.69908e-05
-0.000148963
5.28684e-05
-0.000156666
4.86496e-05
-0.000163742
4.4378e-05
-0.000170163
4.01029e-05
-0.000175917
3.58776e-05
3.17545e-05
-1.50167e-05
3.40282e-05
-2.92552e-05
5.60066e-05
-4.21282e-05
7.18813e-05
-5.34836e-05
8.15799e-05
-6.38942e-05
8.59354e-05
-7.39864e-05
8.7056e-05
-8.4012e-05
8.62865e-05
-9.39855e-05
8.43023e-05
-0.000103868
8.14854e-05
-0.000113595
7.80899e-05
-0.000123079
7.4273e-05
-0.000132228
7.01271e-05
-0.000140951
6.57129e-05
-0.000149162
6.10798e-05
-0.000156792
5.62801e-05
-0.00016379
5.13757e-05
-0.000170124
4.64371e-05
-0.000175785
4.15387e-05
3.67526e-05
-1.59744e-05
5.00026e-05
-3.02016e-05
7.02338e-05
-4.27627e-05
8.44424e-05
-5.38945e-05
9.27117e-05
-6.42702e-05
9.63111e-05
-7.43583e-05
9.71441e-05
-8.43275e-05
9.62557e-05
-9.42092e-05
9.4184e-05
-0.000103986
9.12625e-05
-0.000113604
8.77082e-05
-0.000122983
8.36513e-05
-0.000132025
7.91697e-05
-0.000140632
7.43194e-05
-0.000148707
6.91551e-05
-0.000156171
6.37444e-05
-0.000162968
5.81718e-05
-0.000169066
5.25353e-05
-0.000174465
4.69376e-05
4.14759e-05
-1.6247e-05
6.62496e-05
-3.02313e-05
8.42181e-05
-4.25232e-05
9.67342e-05
-5.35563e-05
0.000103745
-6.39561e-05
0.000106711
-7.40547e-05
0.000107243
-8.39875e-05
0.000106189
-9.3801e-05
0.000103997
-0.000103488
0.000100949
-0.000112996
9.72161e-05
-0.000122239
9.28949e-05
-0.00013111
8.8041e-05
-0.000139491
8.27001e-05
-0.000147268
7.69318e-05
-0.000154346
7.08225e-05
-0.000160662
6.44878e-05
-0.000166191
5.80638e-05
-0.000170945
5.16924e-05
4.55047e-05
-1.5925e-05
8.21747e-05
-2.96424e-05
9.79354e-05
-4.17268e-05
0.000108819
-5.27e-05
0.000114718
-6.31041e-05
0.000117115
-7.31868e-05
0.000117325
-8.30665e-05
0.000116068
-9.2794e-05
0.000113725
-0.00010236
0.000110515
-0.000111703
0.000106559
-0.000120718
0.000101909
-0.000129268
9.65909e-05
-0.000137202
9.0634e-05
-0.000144373
8.41037e-05
-0.000150665
7.71139e-05
-0.000156003
6.98255e-05
-0.000160368
6.24293e-05
-0.000163797
5.51214e-05
4.8077e-05
-0.000160398
3.99609e-05
0.000161111
-0.000158932
3.32971e-05
-0.000156843
2.72787e-05
-0.00015423
2.18943e-05
-0.00015116
1.71071e-05
-0.000147669
1.28683e-05
-0.000143765
9.1252e-06
-0.000139422
5.82631e-06
-0.000134588
2.93636e-06
-0.000129213
4.75077e-07
-0.000123245
-1.67648e-06
-0.000116621
-3.55252e-06
-0.000109316
-5.11623e-06
-0.000101268
-6.33807e-06
-9.23701e-05
-7.29478e-06
-8.2468e-05
-8.2734e-06
-7.14314e-05
-9.30976e-06
-5.96968e-05
-9.79821e-06
-4.75379e-05
-1.0195e-05
-3.14974e-05
-1.43346e-05
-2.67512e-05
-0.000135991
3.64768e-05
0.000139476
-0.000131868
2.91737e-05
-0.000127259
2.26694e-05
-0.000122271
1.69066e-05
-0.000116972
1.1808e-05
-0.000111398
7.29462e-06
-0.000105568
3.29528e-06
-9.94874e-05
-2.54775e-07
-9.31605e-05
-3.39059e-06
-8.65592e-05
-6.12617e-06
-7.96285e-05
-8.60716e-06
-7.23048e-05
-1.08763e-05
-6.45646e-05
-1.28564e-05
-5.62581e-05
-1.46446e-05
-4.71067e-05
-1.64462e-05
-3.7115e-05
-1.82651e-05
-2.66627e-05
-1.9762e-05
-1.59888e-05
-2.04721e-05
-5.16674e-06
-2.10171e-05
3.08527e-06
-2.25867e-05
-2.3666e-05
-0.000110751
3.1374e-05
0.000115853
-0.000105489
2.39123e-05
-0.000100252
1.74326e-05
-9.51639e-05
1.18183e-05
-9.02971e-05
6.94119e-06
-8.56769e-05
2.67441e-06
-8.12763e-05
-1.10535e-06
-7.70002e-05
-4.53082e-06
-7.26844e-05
-7.70644e-06
-6.81005e-05
-1.071e-05
-6.31444e-05
-1.35633e-05
-5.7789e-05
-1.62317e-05
-5.19298e-05
-1.87156e-05
-4.54996e-05
-2.10748e-05
-3.8587e-05
-2.33588e-05
-3.1352e-05
-2.55002e-05
-2.38611e-05
-2.72529e-05
-1.59158e-05
-2.84175e-05
-7.83701e-06
-2.90958e-05
-1.48759e-06
-2.89361e-05
-2.51535e-05
-8.97271e-05
2.65607e-05
9.45404e-05
-8.54674e-05
1.96526e-05
-8.18617e-05
1.38269e-05
-7.888e-05
8.83655e-06
-7.6376e-05
4.43723e-06
-7.41213e-05
4.1967e-07
-7.1856e-05
-3.37068e-06
-6.93684e-05
-7.01842e-06
-6.65179e-05
-1.0557e-05
-6.32221e-05
-1.40057e-05
-5.94386e-05
-1.73468e-05
-5.51079e-05
-2.05624e-05
-5.0183e-05
-2.36405e-05
-4.4679e-05
-2.65788e-05
-3.86602e-05
-2.93776e-05
-3.21833e-05
-3.19771e-05
-2.52996e-05
-3.41365e-05
-1.80564e-05
-3.56606e-05
-1.07973e-05
-3.6355e-05
-4.40625e-06
-3.53271e-05
-2.95598e-05
-7.5693e-05
2.36254e-05
7.86283e-05
-7.36815e-05
1.76412e-05
-7.2367e-05
1.25124e-05
-7.14242e-05
7.89375e-06
-7.05339e-05
3.54691e-06
-6.94533e-05
-6.60906e-07
-6.80347e-05
-4.78935e-06
-6.61972e-05
-8.85591e-06
-6.38831e-05
-1.2871e-05
-6.10564e-05
-1.68324e-05
-5.76846e-05
-2.07186e-05
-5.37404e-05
-2.45067e-05
-4.9208e-05
-2.81728e-05
-4.40989e-05
-3.16879e-05
-3.84713e-05
-3.50052e-05
-3.24191e-05
-3.80293e-05
-2.59947e-05
-4.0561e-05
-1.9266e-05
-4.23893e-05
-1.24311e-05
-4.319e-05
-5.88674e-06
-4.18714e-05
-3.54465e-05
-6.77131e-05
2.27859e-05
6.85526e-05
-6.74978e-05
1.74258e-05
-6.75045e-05
1.25191e-05
-6.7426e-05
7.8152e-06
-6.70759e-05
3.19679e-06
-6.63557e-05
-1.38109e-06
-6.52116e-05
-5.93346e-06
-6.36053e-05
-1.04622e-05
-6.15079e-05
-1.49684e-05
-5.88987e-05
-1.94415e-05
-5.57582e-05
-2.38591e-05
-5.20715e-05
-2.81934e-05
-4.7833e-05
-3.24113e-05
-4.30568e-05
-3.64641e-05
-3.77929e-05
-4.02691e-05
-3.21244e-05
-4.36977e-05
-2.60936e-05
-4.65918e-05
-1.97522e-05
-4.87307e-05
-1.3214e-05
-4.97282e-05
-6.60959e-06
-4.84758e-05
-4.20561e-05
-6.29987e-05
2.32518e-05
6.25329e-05
-6.35989e-05
1.80261e-05
-6.40519e-05
1.2972e-05
-6.42115e-05
7.97483e-06
-6.40089e-05
2.99419e-06
-6.34063e-05
-1.98369e-06
-6.23757e-05
-6.96406e-06
-6.08923e-05
-1.19456e-05
-5.89369e-05
-1.69239e-05
-5.64936e-05
-2.18849e-05
-5.35484e-05
-2.68043e-05
-5.00928e-05
-3.1649e-05
-4.61275e-05
-3.63766e-05
-4.1666e-05
-4.09256e-05
-3.67395e-05
-4.51957e-05
-3.14086e-05
-4.90285e-05
-2.57182e-05
-5.22823e-05
-1.96996e-05
-5.47493e-05
-1.34186e-05
-5.60092e-05
-6.87358e-06
-5.50209e-05
-4.89297e-05
-5.94793e-05
2.42453e-05
5.84858e-05
-6.0312e-05
1.88588e-05
-6.08573e-05
1.35173e-05
-6.10621e-05
8.17955e-06
-6.08986e-05
2.83072e-06
-6.03461e-05
-2.53618e-06
-5.93857e-05
-7.92449e-06
-5.79993e-05
-1.3332e-05
-5.61708e-05
-1.87523e-05
-5.38854e-05
-2.41702e-05
-5.11303e-05
-2.95594e-05
-4.78979e-05
-3.48815e-05
-4.41897e-05
-4.00848e-05
-4.00175e-05
-4.50978e-05
-3.54015e-05
-4.98116e-05
-3.03798e-05
-5.40503e-05
-2.49946e-05
-5.76674e-05
-1.92713e-05
-6.04726e-05
-1.32422e-05
-6.20382e-05
-6.85813e-06
-6.1405e-05
-5.57878e-05
-5.62647e-05
2.53607e-05
5.51493e-05
-5.71113e-05
1.97054e-05
-5.76426e-05
1.40486e-05
-5.78374e-05
8.37435e-06
-5.76808e-05
2.67414e-06
-5.71591e-05
-3.05785e-06
-5.62586e-05
-8.82508e-06
-5.49643e-05
-1.46263e-05
-5.32611e-05
-2.04555e-05
-5.11335e-05
-2.62979e-05
-4.8567e-05
-3.21258e-05
-4.5552e-05
-3.78965e-05
-4.20876e-05
-4.35492e-05
-3.81839e-05
-4.90015e-05
-3.38585e-05
-5.4137e-05
-2.91273e-05
-5.87815e-05
-2.40251e-05
-6.27697e-05
-1.85844e-05
-6.59133e-05
-1.28195e-05
-6.78031e-05
-6.67156e-06
-6.75529e-05
-6.24594e-05
-5.30878e-05
2.64443e-05
5.20043e-05
-5.3881e-05
2.04985e-05
-5.43663e-05
1.45339e-05
-5.45334e-05
8.54146e-06
-5.43735e-05
2.51425e-06
-5.38775e-05
-3.55392e-06
-5.30345e-05
-9.66799e-06
-5.18317e-05
-1.58291e-05
-5.02537e-05
-2.20335e-05
-4.82836e-05
-2.82679e-05
-4.59048e-05
-3.45046e-05
-4.31037e-05
-4.06976e-05
-3.98746e-05
-4.67783e-05
-3.62238e-05
-5.26523e-05
-3.21677e-05
-5.81931e-05
-2.77146e-05
-6.32346e-05
-2.28884e-05
-6.75958e-05
-1.77276e-05
-7.10741e-05
-1.2242e-05
-7.32888e-05
-6.38132e-06
-7.34135e-05
-6.88407e-05
-4.98962e-05
2.74465e-05
4.8894e-05
-5.06152e-05
2.12175e-05
-5.10439e-05
1.49625e-05
-5.11773e-05
8.67489e-06
-5.10109e-05
2.34789e-06
-5.05388e-05
-4.02602e-06
-4.97524e-05
-1.04544e-05
-4.86397e-05
-1.69418e-05
-4.71853e-05
-2.34879e-05
-4.53711e-05
-3.00821e-05
-4.3178e-05
-3.66978e-05
-4.05884e-05
-4.32871e-05
-3.75911e-05
-4.97757e-05
-3.41851e-05
-5.60584e-05
-3.03812e-05
-6.19969e-05
-2.61931e-05
-6.74228e-05
-2.16416e-05
-7.21473e-05
-1.67632e-05
-7.59524e-05
-1.1571e-05
-7.8481e-05
-6.03001e-06
-7.89545e-05
-7.48707e-05
-4.66967e-05
2.83526e-05
4.57907e-05
-4.7335e-05
2.18559e-05
-4.77037e-05
1.53312e-05
-4.78017e-05
8.77296e-06
-4.76279e-05
2.174e-06
-4.71785e-05
-4.47543e-06
-4.64466e-05
-1.11862e-05
-4.54212e-05
-1.79672e-05
-4.4087e-05
-2.48222e-05
-4.24248e-05
-3.17443e-05
-4.04132e-05
-3.87094e-05
-3.80309e-05
-4.56694e-05
-3.52611e-05
-5.25454e-05
-3.20961e-05
-5.92233e-05
-2.85403e-05
-6.55527e-05
-2.46093e-05
-7.13538e-05
-2.03292e-05
-7.64275e-05
-1.57355e-05
-8.05461e-05
-1.0847e-05
-8.33695e-05
-5.64474e-06
-8.41568e-05
-8.05155e-05
-4.351e-05
2.91586e-05
4.27039e-05
-4.40665e-05
2.24123e-05
-4.43749e-05
1.56397e-05
-4.44377e-05
8.83567e-06
-4.42557e-05
1.992e-06
-4.38273e-05
-4.9038e-06
-4.31471e-05
-1.18664e-05
-4.22049e-05
-1.89094e-05
-4.09858e-05
-2.60413e-05
-3.94699e-05
-3.32602e-05
-3.76339e-05
-4.05454e-05
-3.54531e-05
-4.78502e-05
-3.29058e-05
-5.50928e-05
-2.9978e-05
-6.21511e-05
-2.6669e-05
-6.88618e-05
-2.29937e-05
-7.50291e-05
-1.89827e-05
-8.04384e-05
-1.4675e-05
-8.48539e-05
-1.00967e-05
-8.79478e-05
-5.24276e-06
-8.90108e-05
-8.57582e-05
-4.03586e-05
2.98653e-05
3.96519e-05
-4.08345e-05
2.28882e-05
-4.10841e-05
1.58893e-05
-4.1112e-05
8.8636e-06
-4.09213e-05
1.80126e-06
-4.05118e-05
-5.31323e-06
-3.98796e-05
-1.24986e-05
-3.90155e-05
-1.97734e-05
-3.79052e-05
-2.71517e-05
-3.65285e-05
-3.46368e-05
-3.48609e-05
-4.2213e-05
-3.28749e-05
-4.98362e-05
-3.05443e-05
-5.74235e-05
-2.78497e-05
-6.48457e-05
-2.47855e-05
-7.1926e-05
-2.13653e-05
-7.84493e-05
-1.76226e-05
-8.41811e-05
-1.36016e-05
-8.88748e-05
-9.33692e-06
-9.22125e-05
-4.83481e-06
-9.35129e-05
-9.0593e-05
-3.72629e-05
3.04752e-05
3.6653e-05
-3.76607e-05
2.3286e-05
-3.78533e-05
1.60818e-05
-3.78471e-05
8.85745e-06
-3.76469e-05
1.60101e-06
-3.72539e-05
-5.70618e-06
-3.66655e-05
-1.30871e-05
-3.58737e-05
-2.05652e-05
-3.48649e-05
-2.81605e-05
-3.36194e-05
-3.58823e-05
-3.21118e-05
-4.37206e-05
-3.03127e-05
-5.16353e-05
-2.81921e-05
-5.9544e-05
-2.5726e-05
-6.73118e-05
-2.2904e-05
-7.47479e-05
-1.97377e-05
-8.16157e-05
-1.62624e-05
-8.76564e-05
-1.25283e-05
-9.26089e-05
-8.57812e-06
-9.61626e-05
-4.42748e-06
-9.76635e-05
-9.50205e-05
-3.424e-05
3.09917e-05
3.37236e-05
-3.45626e-05
2.36086e-05
-3.47e-05
1.62192e-05
-3.46603e-05
8.81776e-06
-3.44495e-05
1.39023e-06
-3.40704e-05
-6.08531e-06
-3.35213e-05
-1.36361e-05
-3.27957e-05
-2.12909e-05
-3.18809e-05
-2.90753e-05
-3.07578e-05
-3.70054e-05
-2.9401e-05
-4.50774e-05
-2.77797e-05
-5.32566e-05
-2.58614e-05
-6.14623e-05
-2.36179e-05
-6.95553e-05
-2.10346e-05
-7.73313e-05
-1.812e-05
-8.45302e-05
-1.49108e-05
-9.08656e-05
-1.14628e-05
-9.60569e-05
-7.82645e-06
-9.9799e-05
-4.0245e-06
-0.000101465
-9.9045e-05
-3.13031e-05
3.14183e-05
3.08765e-05
-3.15531e-05
2.38586e-05
-3.16369e-05
1.6303e-05
-3.15639e-05
8.74476e-06
-3.13414e-05
1.16771e-06
-3.09733e-05
-6.45343e-06
-3.04592e-05
-1.41502e-05
-2.97936e-05
-2.19565e-05
-2.8965e-05
-2.99039e-05
-2.79553e-05
-3.80151e-05
-2.67394e-05
-4.62933e-05
-2.52862e-05
-5.47098e-05
-2.35614e-05
-6.31871e-05
-2.15335e-05
-7.15832e-05
-1.91838e-05
-7.96809e-05
-1.6518e-05
-8.7196e-05
-1.35729e-05
-9.38107e-05
-1.04093e-05
-9.92204e-05
-7.08498e-06
-0.000103123
-3.62775e-06
-0.000104923
-0.000102673
-2.84612e-05
3.17582e-05
2.81213e-05
-2.86408e-05
2.40382e-05
-2.8672e-05
1.63342e-05
-2.85656e-05
8.63829e-06
-2.83298e-05
9.31994e-07
-2.79699e-05
-6.81336e-06
-2.74865e-05
-1.46336e-05
-2.6875e-05
-2.25679e-05
-2.61251e-05
-3.06538e-05
-2.52198e-05
-3.89204e-05
-2.41348e-05
-4.73782e-05
-2.28394e-05
-5.60052e-05
-2.12983e-05
-6.47283e-05
-1.94778e-05
-7.34037e-05
-1.73558e-05
-8.18029e-05
-1.49347e-05
-8.96171e-05
-1.22509e-05
-9.64945e-05
-9.36942e-06
-0.000102102
-6.35468e-06
-0.000106138
-3.23782e-06
-0.00010804
-0.000105911
-2.57191e-05
3.20138e-05
2.54635e-05
-2.58298e-05
2.41489e-05
-2.58089e-05
1.63133e-05
-2.56684e-05
8.49778e-06
-2.54179e-05
6.81473e-07
-2.50634e-05
-7.16785e-06
-2.46065e-05
-1.50905e-05
-2.40437e-05
-2.31308e-05
-2.33654e-05
-3.13321e-05
-2.25557e-05
-3.973e-05
-2.15917e-05
-4.83423e-05
-2.04434e-05
-5.71536e-05
-1.90756e-05
-6.6096e-05
-1.74534e-05
-7.50259e-05
-1.55519e-05
-8.37044e-05
-1.33704e-05
-9.17985e-05
-1.09445e-05
-9.89205e-05
-8.34249e-06
-0.000104704
-5.63489e-06
-0.000108846
-2.85454e-06
-0.00011082
-0.000108765
-2.30763e-05
3.21872e-05
2.29029e-05
-2.31194e-05
2.4192e-05
-2.30466e-05
1.62405e-05
-2.28714e-05
8.32255e-06
-2.26045e-05
4.14596e-07
-2.22529e-05
-7.51938e-06
-2.1819e-05
-1.55244e-05
-2.12998e-05
-2.36501e-05
-2.06864e-05
-3.19454e-05
-1.99641e-05
-4.04523e-05
-1.91113e-05
-4.91951e-05
-1.80994e-05
-5.81655e-05
-1.68942e-05
-6.73013e-05
-1.54604e-05
-7.64597e-05
-1.37713e-05
-8.53935e-05
-1.18238e-05
-9.37461e-05
-9.65179e-06
-0.000101092
-7.32631e-06
-0.000107029
-4.92367e-06
-0.000111248
-2.47732e-06
-0.000113266
-0.000111242
-2.0526e-05
3.22819e-05
2.04312e-05
-2.05036e-05
2.41695e-05
-2.03799e-05
1.61168e-05
-2.01697e-05
8.11243e-06
-1.98854e-05
1.30252e-07
-1.95348e-05
-7.86999e-06
-1.91207e-05
-1.59385e-05
-1.86405e-05
-2.41303e-05
-1.80859e-05
-3.25e-05
-1.74431e-05
-4.10951e-05
-1.6692e-05
-4.99462e-05
-1.58059e-05
-5.90516e-05
-1.47522e-05
-6.83549e-05
-1.34965e-05
-7.77154e-05
-1.20112e-05
-8.68788e-05
-1.02912e-05
-9.54661e-05
-8.36895e-06
-0.000103015
-6.31721e-06
-0.000109081
-4.21783e-06
-0.000113348
-2.1054e-06
-0.000115379
-0.000113348
-1.80516e-05
3.23084e-05
1.80251e-05
-1.79707e-05
2.40887e-05
-1.77994e-05
1.59455e-05
-1.75557e-05
7.86872e-06
-1.72537e-05
-1.71703e-07
-1.69027e-05
-8.22097e-06
-1.6506e-05
-1.63352e-05
-1.60608e-05
-2.45755e-05
-1.55592e-05
-3.30016e-05
-1.49882e-05
-4.16661e-05
-1.43295e-05
-5.0605e-05
-1.35586e-05
-5.98225e-05
-1.26455e-05
-6.9268e-05
-1.15572e-05
-7.88037e-05
-1.02665e-05
-8.81694e-05
-8.7671e-06
-9.69656e-05
-7.09046e-06
-0.000104691
-5.31018e-06
-0.000110861
-3.51339e-06
-0.000115144
-1.73808e-06
-0.000117154
-0.000115086
-1.56349e-05
3.22714e-05
1.56719e-05
-1.55045e-05
2.39582e-05
-1.52935e-05
1.57345e-05
-1.50198e-05
7.59503e-06
-1.47014e-05
-4.90126e-07
-1.43495e-05
-8.57283e-06
-1.39681e-05
-1.67166e-05
-1.35542e-05
-2.49894e-05
-1.30997e-05
-3.34561e-05
-1.25928e-05
-4.2173e-05
-1.20171e-05
-5.11807e-05
-1.13509e-05
-6.04887e-05
-1.05671e-05
-7.00518e-05
-9.63543e-06
-7.97353e-05
-8.52997e-06
-8.92749e-05
-7.24421e-06
-9.82513e-05
-5.80908e-06
-0.000106126
-4.29875e-06
-0.000112372
-2.80525e-06
-0.000116638
-1.37034e-06
-0.000118589
-0.000116456
-1.32806e-05
3.21651e-05
1.33869e-05
-1.30984e-05
2.37761e-05
-1.28521e-05
1.54882e-05
-1.2554e-05
7.29688e-06
-1.22211e-05
-8.23038e-07
-1.1868e-05
-8.92585e-06
-1.14998e-05
-1.70849e-05
-1.11129e-05
-2.53763e-05
-1.06993e-05
-3.38696e-05
-1.02483e-05
-4.2624e-05
-9.74588e-06
-5.16831e-05
-9.17356e-06
-6.1061e-05
-8.50788e-06
-7.07175e-05
-7.72193e-06
-8.05213e-05
-6.7922e-06
-9.02046e-05
-5.7132e-06
-9.93303e-05
-4.51605e-06
-0.000107324
-3.27501e-06
-0.000113613
-2.08657e-06
-0.000117826
-1.00036e-06
-0.000119675
-0.000117457
-1.10089e-05
3.19883e-05
1.11857e-05
-1.07677e-05
2.35349e-05
-1.04783e-05
1.51988e-05
-1.01543e-05
6.97287e-06
-9.80804e-06
-1.16929e-06
-9.45264e-06
-9.28125e-06
-9.09426e-06
-1.74432e-05
-8.72892e-06
-2.57417e-05
-8.34868e-06
-3.42499e-05
-7.94439e-06
-4.30283e-05
-7.50486e-06
-5.21227e-05
-7.01527e-06
-6.15506e-05
-6.45626e-06
-7.12765e-05
-5.80502e-06
-8.11725e-05
-5.04154e-06
-9.09681e-05
-4.16274e-06
-0.000100209
-3.20125e-06
-0.000108285
-2.23083e-06
-0.000114583
-1.34904e-06
-0.000118708
-6.1219e-07
-0.000120412
-0.000118069
-8.82772e-06
3.17456e-05
9.07043e-06
-8.52924e-06
2.32364e-05
-8.19061e-06
1.48602e-05
-7.82952e-06
6.61178e-06
-7.46264e-06
-1.53617e-06
-7.10026e-06
-9.64363e-06
-6.74556e-06
-1.77979e-05
-6.39373e-06
-2.60935e-05
-6.03713e-06
-3.46065e-05
-5.66879e-06
-4.33966e-05
-5.28078e-06
-5.25107e-05
-4.86222e-06
-6.19692e-05
-4.39816e-06
-7.17405e-05
-3.87053e-06
-8.17002e-05
-3.26384e-06
-9.15748e-05
-2.57895e-06
-0.000100894
-1.85151e-06
-0.000109012
-1.15564e-06
-0.000115279
-5.92446e-07
-0.000119271
-2.09672e-07
-0.000120795
-0.000118278
-6.7338e-06
3.1441e-05
7.0384e-06
-6.38175e-06
2.28844e-05
-5.9956e-06
1.44741e-05
-5.59152e-06
6.2077e-06
-5.19071e-06
-1.93698e-06
-4.80902e-06
-1.00253e-05
-4.44727e-06
-1.81597e-05
-4.09737e-06
-2.64434e-05
-3.75196e-06
-3.49519e-05
-3.40701e-06
-4.37416e-05
-3.05803e-06
-5.28597e-05
-2.69814e-06
-6.2329e-05
-2.317e-06
-7.21217e-05
-1.90175e-06
-8.21154e-05
-1.44258e-06
-9.2034e-05
-9.45712e-07
-0.000101391
-4.50388e-07
-0.000109508
-3.16591e-08
-0.000115698
2.01709e-07
-0.000119505
2.28233e-07
-0.000120821