/*--------------------------------*- C++ -*----------------------------------*\
| =========                 |                                                 |
| \\      /  F ield         | OpenFOAM: The Open Source CFD Toolbox           |
|  \\    /   O peration     | Version:  v2012                                 |
|   \\  /    A nd           | Website:  www.openfoam.com                      |
|    \\/     M anipulation  |                                                 |
\*---------------------------------------------------------------------------*/
FoamFile
{
    version     2.0;
    format      ascii;
    class       volVectorField;
    location    "617";
    object      U;
}
// * * * * * * * * * * * * * * * * * * * * * * * * * * * * * * * * * * * * * //

dimensions      [0 1 -1 0 0 0 0];


internalField   nonuniform List<vector> 
6057
(
(4.91339e-05 -0.994002 0)
(9.4865e-05 -0.993957 0)
(0.000133737 -0.993997 0)
(0.000162315 -0.994107 0)
(0.000188593 -0.994274 0)
(0.000210489 -0.994486 0)
(0.000228934 -0.994734 0)
(0.000245001 -0.995009 0)
(0.000259811 -0.995307 0)
(0.000274354 -0.995625 0)
(0.000289481 -0.995962 0)
(0.000305888 -0.996319 0)
(0.000324002 -0.996697 0)
(0.000343795 -0.997097 0)
(0.000364693 -0.997522 0)
(0.000384825 -0.997977 0)
(0.000398863 -0.998467 0)
(0.000393959 -0.998977 0)
(0.000320335 -0.99943 0)
(8.08095e-05 -0.999739 0)
(-0.00021177 -1.00092 0)
(-0.000101392 -1.00062 0)
(-7.82483e-06 -1.0004 0)
(6.81194e-05 -1.00025 0)
(0.000127402 -1.00014 0)
(0.000173039 -1.00008 0)
(0.000208242 -1.00004 0)
(0.000235993 -1.00001 0)
(0.000258969 -1 0)
(0.000279328 -1.00001 0)
(0.000298809 -1.00001 0)
(0.000318776 -1.00003 0)
(0.000340113 -1.00005 0)
(0.000363123 -1.00008 0)
(0.000387598 -1.0001 0)
(0.000411662 -1.00013 0)
(0.000427444 -1.00016 0)
(0.00043376 -1.00017 0)
(0.000386468 -1.00014 0)
(0.000208583 -1.00004 0)
(-0.000515916 -1.00275 0)
(-0.000331571 -1.00238 0)
(-0.000181107 -1.0021 0)
(-6.26332e-05 -1.00188 0)
(2.78876e-05 -1.00171 0)
(9.53963e-05 -1.00157 0)
(0.000145784 -1.00145 0)
(0.000183702 -1.00134 0)
(0.000213296 -1.00124 0)
(0.000237695 -1.00114 0)
(0.000259285 -1.00105 0)
(0.000279856 -1.00096 0)
(0.000300678 -1.00086 0)
(0.000322256 -1.00076 0)
(0.000341858 -1.00066 0)
(0.000353359 -1.00055 0)
(0.000359711 -1.00043 0)
(0.000349971 -1.00029 0)
(0.000291381 -1.00014 0)
(0.000141306 -1.00003 0)
(-0.000865413 -1.00342 0)
(-0.0006008 -1.00304 0)
(-0.000391218 -1.00275 0)
(-0.000229968 -1.00252 0)
(-0.000112054 -1.00233 0)
(-2.56017e-05 -1.00216 0)
(3.78972e-05 -1.00201 0)
(8.30819e-05 -1.00187 0)
(0.000116511 -1.00173 0)
(0.000142252 -1.00159 0)
(0.000163257 -1.00145 0)
(0.000181594 -1.00131 0)
(0.000198547 -1.00116 0)
(0.000214517 -1.001 0)
(0.000228238 -1.00083 0)
(0.000236892 -1.00066 0)
(0.000238467 -1.00048 0)
(0.000222397 -1.00029 0)
(0.000172049 -1.00012 0)
(7.23364e-05 -1.00002 0)
(-0.00122285 -1.00355 0)
(-0.000868121 -1.00318 0)
(-0.000599785 -1.00291 0)
(-0.000399203 -1.0027 0)
(-0.000256279 -1.00252 0)
(-0.000155195 -1.00236 0)
(-8.49433e-05 -1.00221 0)
(-3.65857e-05 -1.00206 0)
(-3.02319e-06 -1.00191 0)
(2.06251e-05 -1.00176 0)
(3.77569e-05 -1.0016 0)
(5.07394e-05 -1.00144 0)
(6.10941e-05 -1.00126 0)
(6.96211e-05 -1.00108 0)
(7.62334e-05 -1.00089 0)
(8.01542e-05 -1.00069 0)
(8.05871e-05 -1.00049 0)
(7.43412e-05 -1.00028 0)
(5.58799e-05 -1.00011 0)
(2.21008e-05 -1.00001 0)
(-0.00156841 -1.00328 0)
(-0.00110515 -1.00296 0)
(-0.00077967 -1.00275 0)
(-0.000544264 -1.00258 0)
(-0.000383688 -1.00243 0)
(-0.000274956 -1.0023 0)
(-0.000202466 -1.00217 0)
(-0.000154966 -1.00203 0)
(-0.000124361 -1.00189 0)
(-0.000105164 -1.00175 0)
(-9.38246e-05 -1.00159 0)
(-8.78353e-05 -1.00143 0)
(-8.55447e-05 -1.00126 0)
(-8.56939e-05 -1.00108 0)
(-8.68174e-05 -1.00089 0)
(-8.70865e-05 -1.00069 0)
(-8.49908e-05 -1.00048 0)
(-7.69783e-05 -1.00028 0)
(-5.72517e-05 -1.00011 0)
(-2.25502e-05 -1.00001 0)
(-0.00189376 -1.00261 0)
(-0.00128164 -1.00236 0)
(-0.000905554 -1.00225 0)
(-0.000644009 -1.00215 0)
(-0.00047623 -1.00207 0)
(-0.000368058 -1.00199 0)
(-0.000299477 -1.00189 0)
(-0.000256919 -1.00179 0)
(-0.000231729 -1.00168 0)
(-0.000218622 -1.00156 0)
(-0.000213905 -1.00143 0)
(-0.000215116 -1.00129 0)
(-0.000220635 -1.00115 0)
(-0.000229026 -1.001 0)
(-0.000237806 -1.00083 0)
(-0.000243159 -1.00066 0)
(-0.000242408 -1.00048 0)
(-0.00022473 -1.00029 0)
(-0.000173208 -1.00012 0)
(-7.27162e-05 -1.00002 0)
(-0.00218089 -1.00137 0)
(-0.00134192 -1.0012 0)
(-0.000937417 -1.00127 0)
(-0.000668595 -1.0013 0)
(-0.000510775 -1.00131 0)
(-0.000414647 -1.0013 0)
(-0.000356942 -1.00127 0)
(-0.000323438 -1.00122 0)
(-0.000306598 -1.00116 0)
(-0.000299071 -1.00109 0)
(-0.000299675 -1.00102 0)
(-0.000306488 -1.00093 0)
(-0.000318168 -1.00085 0)
(-0.000333643 -1.00075 0)
(-0.000349434 -1.00065 0)
(-0.000358468 -1.00055 0)
(-0.000362901 -1.00043 0)
(-0.000351805 -1.00029 0)
(-0.000292205 -1.00014 0)
(-0.000141555 -1.00003 0)
(-0.00243879 -0.998941 0)
(-0.00118219 -0.99883 0)
(-0.000827864 -0.999226 0)
(-0.000588145 -0.999447 0)
(-0.00046329 -0.999612 0)
(-0.000391743 -0.999723 0)
(-0.000351852 -0.999801 0)
(-0.000330919 -0.999858 0)
(-0.000321979 -0.999903 0)
(-0.000320607 -0.999939 0)
(-0.0003258 -0.999971 0)
(-0.000336498 -1 0)
(-0.000351786 -1.00003 0)
(-0.000370814 -1.00006 0)
(-0.000392617 -1.0001 0)
(-0.000414876 -1.00013 0)
(-0.000429567 -1.00016 0)
(-0.000435367 -1.00017 0)
(-0.00038657 -1.00014 0)
(-0.000208643 -1.00003 0)
(-0.00206298 -0.992171 0)
(-0.000536859 -0.991357 0)
(-0.000533558 -0.99234 0)
(-0.000389206 -0.993059 0)
(-0.000339192 -0.993593 0)
(-0.000308968 -0.994041 0)
(-0.000294003 -0.994442 0)
(-0.000288143 -0.994818 0)
(-0.000288451 -0.995182 0)
(-0.000293276 -0.995544 0)
(-0.000301999 -0.99591 0)
(-0.000314177 -0.996286 0)
(-0.000329495 -0.996676 0)
(-0.000347489 -0.997084 0)
(-0.000367202 -0.997515 0)
(-0.000386454 -0.997973 0)
(-0.000399861 -0.998465 0)
(-0.000394447 -0.998976 0)
(-0.00032039 -0.99943 0)
(-8.08309e-05 -0.999739 0)
(0.0119558 -0.874511 0)
(0.0104015 -0.897599 0)
(0.00897298 -0.917604 0)
(0.00763989 -0.934704 0)
(0.00641121 -0.949122 0)
(0.00528902 -0.961084 0)
(0.00427596 -0.970822 0)
(0.00337316 -0.978571 0)
(0.0025806 -0.984562 0)
(0.00189751 -0.989026 0)
(0.00132264 -0.992192 0)
(0.000853714 -0.994283 0)
(0.000486494 -0.995514 0)
(0.000214926 -0.996086 0)
(3.16623e-05 -0.996183 0)
(-6.85373e-05 -0.995971 0)
(-0.000122174 -0.995588 0)
(-0.000127406 -0.995148 0)
(-0.000101914 -0.994733 0)
(-6.15308e-05 -0.99439 0)
(-7.78858e-06 -0.994145 0)
(0.0293897 -0.89761 0)
(0.0255467 -0.919109 0)
(0.021958 -0.93763 0)
(0.0186249 -0.953358 0)
(0.0155579 -0.966504 0)
(0.0127641 -0.977288 0)
(0.0102482 -0.985937 0)
(0.00801135 -0.992678 0)
(0.00605206 -0.997742 0)
(0.00436746 -1.00135 0)
(0.00295396 -1.00374 0)
(0.00180557 -1.00512 0)
(0.000908748 -1.00571 0)
(0.000241682 -1.00571 0)
(-0.000218569 -1.00531 0)
(-0.000496307 -1.00466 0)
(-0.000622208 -1.0039 0)
(-0.000631653 -1.00313 0)
(-0.000562993 -1.00242 0)
(-0.000454085 -1.00182 0)
(-0.000332392 -1.00131 0)
(0.0477572 -0.905815 0)
(0.0414516 -0.92669 0)
(0.0355371 -0.944656 0)
(0.0300417 -0.959889 0)
(0.0249863 -0.97259 0)
(0.0203848 -0.982966 0)
(0.0162456 -0.991236 0)
(0.0125712 -0.997623 0)
(0.00935932 -1.00235 0)
(0.00660547 -1.00564 0)
(0.0043028 -1.00771 0)
(0.00244119 -1.00879 0)
(0.00100043 -1.00909 0)
(-5.18002e-05 -1.00881 0)
(-0.000757293 -1.00815 0)
(-0.00116225 -1.00727 0)
(-0.00132149 -1.0063 0)
(-0.00129417 -1.00535 0)
(-0.00114478 -1.00451 0)
(-0.000939044 -1.0038 0)
(-0.000723051 -1.00322 0)
(0.0657395 -0.910836 0)
(0.0570333 -0.931458 0)
(0.0488514 -0.949193 0)
(0.0412385 -0.964209 0)
(0.0342269 -0.976697 0)
(0.0278381 -0.98686 0)
(0.0220862 -0.994914 0)
(0.0169778 -1.00108 0)
(0.0125121 -1.00557 0)
(0.00868349 -1.0086 0)
(0.0054826 -1.0104 0)
(0.00290032 -1.0112 0)
(0.000913317 -1.0112 0)
(-0.000524263 -1.01064 0)
(-0.00147276 -1.00971 0)
(-0.00199429 -1.00858 0)
(-0.00216577 -1.00739 0)
(-0.00207552 -1.00628 0)
(-0.00181575 -1.00532 0)
(-0.00148782 -1.00454 0)
(-0.00116516 -1.00392 0)
(0.0835769 -0.91462 0)
(0.0724794 -0.935107 0)
(0.0620322 -0.95271 0)
(0.0522983 -0.967594 0)
(0.043322 -0.97995 0)
(0.0351341 -0.989975 0)
(0.0277583 -0.997877 0)
(0.0212088 -1.00387 0)
(0.01548 -1.00818 0)
(0.0105558 -1.01101 0)
(0.00642707 -1.01258 0)
(0.003105 -1.0131 0)
(0.000562075 -1.0128 0)
(-0.00125207 -1.01194 0)
(-0.00242557 -1.01071 0)
(-0.00303813 -1.0093 0)
(-0.00318549 -1.00788 0)
(-0.00298935 -1.00658 0)
(-0.00256784 -1.0055 0)
(-0.00207083 -1.00467 0)
(-0.00162206 -1.00404 0)
(0.10132 -0.916743 0)
(0.0878292 -0.937068 0)
(0.075117 -0.954529 0)
(0.0632639 -0.9693 0)
(0.052326 -0.981572 0)
(0.0423439 -0.991533 0)
(0.0333493 -0.999379 0)
(0.0253528 -1.00532 0)
(0.018322 -1.00956 0)
(0.012248 -1.01234 0)
(0.00716528 -1.0138 0)
(0.00307378 -1.01421 0)
(-4.67889e-05 -1.01369 0)
(-0.0022453 -1.0126 0)
(-0.00363792 -1.01111 0)
(-0.00430893 -1.00946 0)
(-0.00438836 -1.00781 0)
(-0.00403055 -1.00633 0)
(-0.00337745 -1.00515 0)
(-0.00264788 -1.00433 0)
(-0.00206204 -1.00375 0)
(0.118864 -0.91537 0)
(0.103003 -0.935267 0)
(0.0880625 -0.952376 0)
(0.0741359 -0.9669 0)
(0.061282 -0.979048 0)
(0.0495323 -0.989012 0)
(0.0388947 -0.996985 0)
(0.0293683 -1.00316 0)
(0.021023 -1.00758 0)
(0.0139272 -1.01051 0)
(0.00795386 -1.01232 0)
(0.00304184 -1.01298 0)
(-0.000695149 -1.0127 0)
(-0.00328632 -1.01174 0)
(-0.00492412 -1.01015 0)
(-0.00569296 -1.00854 0)
(-0.00566896 -1.00685 0)
(-0.005105 -1.0053 0)
(-0.00418191 -1.00411 0)
(-0.00317662 -1.00343 0)
(-0.00244541 -1.00301 0)
(0.135832 -0.90671 0)
(0.117667 -0.925315 0)
(0.100605 -0.941287 0)
(0.0847423 -0.954912 0)
(0.0701243 -0.966463 0)
(0.0567616 -0.976182 0)
(0.044657 -0.984264 0)
(0.0338602 -0.990858 0)
(0.0244291 -0.996135 0)
(0.016303 -1.00017 0)
(0.0093463 -1.00304 0)
(0.00358877 -1.00481 0)
(-0.000870308 -1.00559 0)
(-0.00399382 -1.00559 0)
(-0.00585821 -1.00513 0)
(-0.00671138 -1.00442 0)
(-0.00670745 -1.00349 0)
(-0.0060697 -1.00249 0)
(-0.00504036 -1.00174 0)
(-0.0037226 -1.00153 0)
(-0.00261344 -1.00159 0)
(0.151173 -0.883892 0)
(0.130817 -0.898988 0)
(0.111847 -0.911599 0)
(0.0943515 -0.922173 0)
(0.0783504 -0.931145 0)
(0.0638089 -0.938908 0)
(0.0506659 -0.9458 0)
(0.0388682 -0.952083 0)
(0.0283708 -0.957947 0)
(0.0191289 -0.963487 0)
(0.0112162 -0.968616 0)
(0.00465885 -0.973328 0)
(-0.000614249 -0.977516 0)
(-0.00453199 -0.981267 0)
(-0.00687922 -0.984756 0)
(-0.00830831 -0.987898 0)
(-0.00883061 -0.990557 0)
(-0.00836674 -0.992705 0)
(-0.0067223 -0.994275 0)
(-0.00360453 -0.995745 0)
(-0.00137134 -0.997781 0)
(0.162376 -0.837156 0)
(0.139793 -0.844467 0)
(0.119037 -0.849085 0)
(0.100202 -0.8516 0)
(0.0832909 -0.852576 0)
(0.0682534 -0.85254 0)
(0.0550142 -0.85198 0)
(0.0435043 -0.85137 0)
(0.0336492 -0.851261 0)
(0.0253045 -0.852276 0)
(0.01821 -0.854876 0)
(0.0122575 -0.859333 0)
(0.00754458 -0.86601 0)
(0.00486967 -0.874842 0)
(0.00428622 -0.885965 0)
(0.00463814 -0.899058 0)
(0.00568401 -0.913843 0)
(0.00683163 -0.929614 0)
(0.00788474 -0.94376 0)
(0.00847085 -0.957985 0)
(0.00632158 -0.976537 0)
(-0.0264631 0.0129841 0)
(-0.0213021 0.0463094 0)
(-0.00584108 0.0463347 0)
(0.00771961 0.0274152 0)
(0.0195905 -0.0114304 0)
(0.0332967 -0.0770677 0)
(0.0412545 -0.171427 0)
(0.0406169 -0.261462 0)
(0.0369046 -0.341686 0)
(0.0335802 -0.415631 0)
(0.0306801 -0.483342 0)
(0.0280534 -0.545351 0)
(0.0256365 -0.602104 0)
(0.023379 -0.653947 0)
(0.0212458 -0.701152 0)
(0.0192146 -0.743946 0)
(0.0172739 -0.782522 0)
(0.0154193 -0.817042 0)
(0.013645 -0.84764 0)
(-0.0467923 0.00179568 0)
(-0.0113518 0.023661 0)
(0.0197916 0.00699876 0)
(0.0444295 -0.0414846 0)
(0.0720504 -0.115738 0)
(0.0939121 -0.200666 0)
(0.100468 -0.282144 0)
(0.0954934 -0.348951 0)
(0.0879689 -0.415909 0)
(0.0809051 -0.479404 0)
(0.0743276 -0.538913 0)
(0.0682391 -0.594346 0)
(0.0625446 -0.645723 0)
(0.0571597 -0.693106 0)
(0.0520214 -0.736566 0)
(0.0470922 -0.776175 0)
(0.042359 -0.812012 0)
(0.0378255 -0.844155 0)
(0.0334934 -0.872709 0)
(-0.0539982 -0.0150025 0)
(0.0119772 -0.0108821 0)
(0.0569219 -0.0536217 0)
(0.0980039 -0.120083 0)
(0.132864 -0.196559 0)
(0.151694 -0.268308 0)
(0.153118 -0.331497 0)
(0.145946 -0.390577 0)
(0.136991 -0.4501 0)
(0.127603 -0.507306 0)
(0.118354 -0.562055 0)
(0.10944 -0.61387 0)
(0.100851 -0.6625 0)
(0.0925391 -0.707771 0)
(0.084462 -0.749579 0)
(0.0766016 -0.787867 0)
(0.0689658 -0.822619 0)
(0.0615813 -0.853846 0)
(0.0544795 -0.881611 0)
(-0.0305057 -0.0295284 0)
(0.0441877 -0.0490957 0)
(0.104038 -0.107564 0)
(0.154769 -0.177547 0)
(0.188211 -0.245485 0)
(0.201192 -0.305086 0)
(0.19942 -0.360107 0)
(0.191628 -0.415111 0)
(0.181822 -0.469993 0)
(0.17093 -0.523538 0)
(0.159757 -0.575392 0)
(0.148601 -0.624989 0)
(0.137558 -0.671951 0)
(0.126649 -0.715981 0)
(0.115883 -0.756867 0)
(0.105284 -0.794463 0)
(0.0948966 -0.828684 0)
(0.0847823 -0.859493 0)
(0.0750093 -0.886918 0)
(0.00271978 -0.0418064 0)
(0.0868309 -0.0796832 0)
(0.155528 -0.145429 0)
(0.207163 -0.212879 0)
(0.235456 -0.272823 0)
(0.244159 -0.326309 0)
(0.241503 -0.378212 0)
(0.233803 -0.430607 0)
(0.223505 -0.482737 0)
(0.21168 -0.534059 0)
(0.199135 -0.584079 0)
(0.186227 -0.632259 0)
(0.173132 -0.678167 0)
(0.15994 -0.721442 0)
(0.146721 -0.761799 0)
(0.133551 -0.799025 0)
(0.120528 -0.832979 0)
(0.107761 -0.863587 0)
(0.0953678 -0.890848 0)
(0.0482337 -0.0487117 0)
(0.137601 -0.100084 0)
(0.207843 -0.168615 0)
(0.255188 -0.232107 0)
(0.278265 -0.28733 0)
(0.284654 -0.338565 0)
(0.281931 -0.389252 0)
(0.274325 -0.440116 0)
(0.26369 -0.490693 0)
(0.251169 -0.540654 0)
(0.237512 -0.589524 0)
(0.223109 -0.636811 0)
(0.208184 -0.682064 0)
(0.192882 -0.724875 0)
(0.177329 -0.764905 0)
(0.161663 -0.801887 0)
(0.146043 -0.83564 0)
(0.130642 -0.866063 0)
(0.115633 -0.893144 0)
(0.102216 -0.052552 0)
(0.193073 -0.111355 0)
(0.259307 -0.180571 0)
(0.300697 -0.240877 0)
(0.319605 -0.294115 0)
(0.324621 -0.344862 0)
(0.321762 -0.395083 0)
(0.314044 -0.445141 0)
(0.303076 -0.494855 0)
(0.289933 -0.54399 0)
(0.275288 -0.592137 0)
(0.259526 -0.638838 0)
(0.242892 -0.683625 0)
(0.225566 -0.726049 0)
(0.207729 -0.765721 0)
(0.189584 -0.802332 0)
(0.171365 -0.835674 0)
(0.15332 -0.865644 0)
(0.135691 -0.892244 0)
(0.164103 -0.0556786 0)
(0.249763 -0.11643 0)
(0.309561 -0.184881 0)
(0.34502 -0.243174 0)
(0.36065 -0.295926 0)
(0.364534 -0.346796 0)
(0.361304 -0.396855 0)
(0.353304 -0.446496 0)
(0.341959 -0.495701 0)
(0.328208 -0.54429 0)
(0.312627 -0.591904 0)
(0.295563 -0.638088 0)
(0.27725 -0.682337 0)
(0.257895 -0.724149 0)
(0.237732 -0.763076 0)
(0.217045 -0.79877 0)
(0.196159 -0.831011 0)
(0.175418 -0.85972 0)
(0.15515 -0.884957 0)
(0.230399 -0.0571334 0)
(0.305776 -0.117091 0)
(0.358688 -0.184288 0)
(0.388826 -0.241466 0)
(0.401752 -0.294254 0)
(0.404487 -0.345325 0)
(0.400685 -0.395291 0)
(0.392277 -0.444647 0)
(0.380484 -0.493448 0)
(0.366086 -0.541538 0)
(0.349538 -0.588554 0)
(0.331113 -0.633996 0)
(0.311015 -0.67728 0)
(0.289471 -0.717805 0)
(0.26678 -0.755035 0)
(0.243328 -0.788563 0)
(0.219566 -0.818166 0)
(0.195966 -0.843813 0)
(0.172972 -0.865666 0)
(0.293828 -0.0561947 0)
(0.360655 -0.114559 0)
(0.406924 -0.18063 0)
(0.432371 -0.237174 0)
(0.442966 -0.289985 0)
(0.444466 -0.34108 0)
(0.439926 -0.39086 0)
(0.430986 -0.439861 0)
(0.418639 -0.488154 0)
(0.403473 -0.53555 0)
(0.385797 -0.581615 0)
(0.365776 -0.625725 0)
(0.343567 -0.667134 0)
(0.319411 -0.705069 0)
(0.293694 -0.73884 0)
(0.266945 -0.767955 0)
(0.239794 -0.792181 0)
(0.212894 -0.811568 0)
(0.186845 -0.826419 0)
(0.165485 -0.757445 0)
(0.140194 -0.752143 0)
(0.117275 -0.743643 0)
(0.0967678 -0.73248 0)
(0.0786054 -0.719051 0)
(0.0626617 -0.703599 0)
(0.0487885 -0.686203 0)
(0.0368545 -0.66681 0)
(0.026831 -0.645309 0)
(0.0190892 -0.621408 0)
(0.0128032 -0.594713 0)
(0.00786705 -0.565108 0)
(0.00420293 -0.532322 0)
(0.00158112 -0.496197 0)
(-0.000506205 -0.456529 0)
(-0.00304948 -0.412793 0)
(-0.00602762 -0.363805 0)
(-0.00695585 -0.307723 0)
(-0.00959772 -0.247962 0)
(-0.023147 -0.191806 0)
(-0.0359829 -0.148368 0)
(0.156653 -0.648986 0)
(0.128223 -0.630875 0)
(0.102651 -0.610181 0)
(0.0797884 -0.587506 0)
(0.0593994 -0.563254 0)
(0.0412402 -0.537658 0)
(0.0250926 -0.510809 0)
(0.0107548 -0.482728 0)
(-0.00193495 -0.453512 0)
(-0.0131542 -0.423209 0)
(-0.0232188 -0.39151 0)
(-0.032228 -0.357782 0)
(-0.0397461 -0.322347 0)
(-0.0456949 -0.284622 0)
(-0.0507111 -0.244371 0)
(-0.0558241 -0.19915 0)
(-0.0606271 -0.150632 0)
(-0.0631165 -0.0980591 0)
(-0.0648038 -0.0460988 0)
(-0.0757742 -0.00321014 0)
(-0.104096 0.00904704 0)
(0.137749 -0.533462 0)
(0.10729 -0.508834 0)
(0.0804051 -0.483968 0)
(0.0568172 -0.459569 0)
(0.0361993 -0.436087 0)
(0.0182003 -0.41376 0)
(0.0024249 -0.392605 0)
(-0.0115762 -0.372267 0)
(-0.0241054 -0.352222 0)
(-0.0353515 -0.331808 0)
(-0.0458871 -0.309193 0)
(-0.055807 -0.284938 0)
(-0.0649827 -0.258654 0)
(-0.0738927 -0.229596 0)
(-0.082849 -0.198107 0)
(-0.0910482 -0.164835 0)
(-0.0972094 -0.130137 0)
(-0.100494 -0.0930956 0)
(-0.102294 -0.0545269 0)
(-0.103585 -0.0211041 0)
(-0.0963075 -0.00413198 0)
(0.11583 -0.432975 0)
(0.0861952 -0.411451 0)
(0.0609843 -0.392909 0)
(0.039517 -0.377519 0)
(0.0209902 -0.364843 0)
(0.00459015 -0.353955 0)
(-0.0103858 -0.343642 0)
(-0.0244698 -0.332596 0)
(-0.0379668 -0.320154 0)
(-0.051026 -0.30578 0)
(-0.0634615 -0.289174 0)
(-0.0751731 -0.270114 0)
(-0.0862312 -0.248305 0)
(-0.0967256 -0.223684 0)
(-0.106804 -0.19651 0)
(-0.116389 -0.167065 0)
(-0.124453 -0.135473 0)
(-0.130094 -0.101832 0)
(-0.132699 -0.0672084 0)
(-0.129432 -0.0354675 0)
(-0.108788 -0.0119391 0)
(0.0992963 -0.361876 0)
(0.0732949 -0.350438 0)
(0.0515078 -0.342981 0)
(0.0325498 -0.338089 0)
(0.0152709 -0.334125 0)
(-0.00109085 -0.329717 0)
(-0.0169408 -0.323929 0)
(-0.0324148 -0.316336 0)
(-0.0475918 -0.306615 0)
(-0.0625204 -0.294555 0)
(-0.0771337 -0.279995 0)
(-0.091316 -0.262777 0)
(-0.104979 -0.242799 0)
(-0.118047 -0.220086 0)
(-0.130442 -0.194718 0)
(-0.141889 -0.167103 0)
(-0.151422 -0.137661 0)
(-0.15817 -0.106559 0)
(-0.161004 -0.0743012 0)
(-0.155821 -0.0429 0)
(-0.130541 -0.0159945 0)
(0.0921305 -0.319584 0)
(0.0696937 -0.317645 0)
(0.049864 -0.317607 0)
(0.0313225 -0.317729 0)
(0.0133615 -0.316873 0)
(-0.00432037 -0.314425 0)
(-0.0218276 -0.310068 0)
(-0.0391841 -0.303631 0)
(-0.0564025 -0.29494 0)
(-0.0734524 -0.283884 0)
(-0.0902516 -0.270366 0)
(-0.106699 -0.254287 0)
(-0.122675 -0.235608 0)
(-0.138019 -0.214381 0)
(-0.152445 -0.190666 0)
(-0.165469 -0.164804 0)
(-0.176421 -0.137239 0)
(-0.184396 -0.108086 0)
(-0.187954 -0.0775045 0)
(-0.182544 -0.0465355 0)
(-0.15634 -0.0179569 0)
(0.0922089 -0.294972 0)
(0.0712022 -0.297934 0)
(0.0512866 -0.300652 0)
(0.0317745 -0.302204 0)
(0.012411 -0.302152 0)
(-0.0068887 -0.30028 0)
(-0.0261527 -0.296456 0)
(-0.0453814 -0.290561 0)
(-0.0645634 -0.282485 0)
(-0.0836464 -0.272147 0)
(-0.102536 -0.259473 0)
(-0.121111 -0.244396 0)
(-0.139217 -0.226899 0)
(-0.156625 -0.207072 0)
(-0.172947 -0.184925 0)
(-0.187613 -0.16065 0)
(-0.200032 -0.134701 0)
(-0.209318 -0.107169 0)
(-0.213832 -0.0779906 0)
(-0.209234 -0.0476944 0)
(-0.183891 -0.0186602 0)
(0.0956747 -0.277649 0)
(0.0743984 -0.282167 0)
(0.0534548 -0.285496 0)
(0.0325895 -0.2873 0)
(0.0117182 -0.287416 0)
(-0.00919294 -0.285741 0)
(-0.0301576 -0.282194 0)
(-0.0511678 -0.276687 0)
(-0.072199 -0.269135 0)
(-0.0931906 -0.259467 0)
(-0.11404 -0.247611 0)
(-0.134601 -0.233511 0)
(-0.154685 -0.21715 0)
(-0.174019 -0.198604 0)
(-0.192186 -0.177898 0)
(-0.208485 -0.155105 0)
(-0.222355 -0.130595 0)
(-0.233004 -0.104499 0)
(-0.238699 -0.0766462 0)
(-0.235425 -0.0472706 0)
(-0.211791 -0.0185939 0)
(0.100144 -0.26244 0)
(0.0778857 -0.267135 0)
(0.0556758 -0.270407 0)
(0.0334239 -0.272134 0)
(0.0110893 -0.272233 0)
(-0.0113511 -0.270639 0)
(-0.0339087 -0.267302 0)
(-0.0565759 -0.262151 0)
(-0.0793259 -0.255112 0)
(-0.102096 -0.24611 0)
(-0.124778 -0.235073 0)
(-0.147205 -0.221935 0)
(-0.16915 -0.206667 0)
(-0.190305 -0.189316 0)
(-0.210216 -0.169942 0)
(-0.22816 -0.148556 0)
(-0.243513 -0.125377 0)
(-0.255536 -0.100604 0)
(-0.262525 -0.0740814 0)
(-0.260776 -0.0458465 0)
(-0.239198 -0.0180568 0)
(0.104656 -0.247619 0)
(0.0812296 -0.252059 0)
(0.0577474 -0.25508 0)
(0.0341669 -0.256626 0)
(0.0104584 -0.256645 0)
(-0.0134001 -0.2551 0)
(-0.0374242 -0.251957 0)
(-0.0616132 -0.247156 0)
(-0.0859463 -0.240628 0)
(-0.110365 -0.232294 0)
(-0.134757 -0.222073 0)
(-0.158941 -0.209888 0)
(-0.182654 -0.195688 0)
(-0.20554 -0.179481 0)
(-0.227108 -0.161333 0)
(-0.246683 -0.141267 0)
(-0.263553 -0.119385 0)
(-0.276938 -0.0959011 0)
(-0.28525 -0.0707271 0)
(-0.285047 -0.0438046 0)
(-0.265595 -0.0172351 0)
(0.108894 -0.23279 0)
(0.0842965 -0.236847 0)
(0.0596017 -0.239555 0)
(0.03478 -0.240882 0)
(0.00980466 -0.240801 0)
(-0.01535 -0.239295 0)
(-0.0407087 -0.23634 0)
(-0.0662828 -0.231885 0)
(-0.0920628 -0.225861 0)
(-0.117999 -0.218187 0)
(-0.143982 -0.208774 0)
(-0.169818 -0.197531 0)
(-0.195218 -0.184384 0)
(-0.219778 -0.169306 0)
(-0.242963 -0.15232 0)
(-0.264113 -0.133477 0)
(-0.282479 -0.112869 0)
(-0.297206 -0.0906794 0)
(-0.306814 -0.0668818 0)
(-0.308076 -0.0413943 0)
(-0.290669 -0.0162461 0)
(0.112757 -0.217943 0)
(0.0870433 -0.221579 0)
(0.0612159 -0.22395 0)
(0.0352513 -0.225049 0)
(0.00912184 -0.224864 0)
(-0.0172055 -0.223391 0)
(-0.0437681 -0.220618 0)
(-0.0705927 -0.216497 0)
(-0.0976856 -0.210962 0)
(-0.12501 -0.203931 0)
(-0.152463 -0.195307 0)
(-0.179849 -0.184984 0)
(-0.206856 -0.172868 0)
(-0.233041 -0.1589 0)
(-0.257823 -0.143066 0)
(-0.280502 -0.12541 0)
(-0.300306 -0.106043 0)
(-0.316327 -0.0851505 0)
(-0.327168 -0.0627513 0)
(-0.329767 -0.0387787 0)
(-0.314242 -0.0151638 0)
(0.116218 -0.203162 0)
(0.0894583 -0.206366 0)
(0.0625855 -0.208399 0)
(0.0355787 -0.209269 0)
(0.00840721 -0.20898 0)
(-0.0189724 -0.207537 0)
(-0.0466124 -0.204934 0)
(-0.0745574 -0.20113 0)
(-0.102832 -0.196062 0)
(-0.131418 -0.189648 0)
(-0.160223 -0.181785 0)
(-0.189053 -0.172355 0)
(-0.217584 -0.161244 0)
(-0.245337 -0.148363 0)
(-0.271681 -0.133671 0)
(-0.295859 -0.117197 0)
(-0.317042 -0.0990584 0)
(-0.334297 -0.0794602 0)
(-0.34628 -0.0584729 0)
(-0.350067 -0.036063 0)
(-0.336217 -0.0140349 0)
(0.119273 -0.188544 0)
(0.0915434 -0.191321 0)
(0.0637135 -0.193023 0)
(0.035764 -0.193671 0)
(0.00765842 -0.193277 0)
(-0.0206586 -0.191857 0)
(-0.0492553 -0.189411 0)
(-0.0781959 -0.185903 0)
(-0.107526 -0.181275 0)
(-0.137248 -0.175446 0)
(-0.167286 -0.168309 0)
(-0.197457 -0.159738 0)
(-0.227425 -0.149602 0)
(-0.256683 -0.137785 0)
(-0.284545 -0.124222 0)
(-0.310183 -0.108923 0)
(-0.332694 -0.0920108 0)
(-0.351111 -0.0737058 0)
(-0.364131 -0.054136 0)
(-0.368949 -0.033314 0)
(-0.356553 -0.0128876 0)
(0.121931 -0.174183 0)
(0.0933072 -0.176546 0)
(0.0646069 -0.177927 0)
(0.03581 -0.178358 0)
(0.00687261 -0.17786 0)
(-0.0222733 -0.176456 0)
(-0.0517129 -0.174151 0)
(-0.0815307 -0.170915 0)
(-0.111795 -0.166696 0)
(-0.142531 -0.161415 0)
(-0.173686 -0.154965 0)
(-0.205089 -0.147214 0)
(-0.236404 -0.138016 0)
(-0.267096 -0.127237 0)
(-0.296425 -0.114785 0)
(-0.323478 -0.100655 0)
(-0.347265 -0.0849642 0)
(-0.366766 -0.0679511 0)
(-0.380713 -0.0497968 0)
(-0.386411 -0.0305731 0)
(-0.375242 -0.0117385 0)
(0.124204 -0.160157 0)
(0.0947609 -0.16212 0)
(0.0652735 -0.163192 0)
(0.0357192 -0.163413 0)
(0.00604614 -0.162811 0)
(-0.0238271 -0.161413 0)
(-0.0540028 -0.159233 0)
(-0.0845861 -0.156244 0)
(-0.115669 -0.152401 0)
(-0.147302 -0.147629 0)
(-0.179458 -0.141823 0)
(-0.211984 -0.134847 0)
(-0.244549 -0.126548 0)
(-0.276598 -0.116774 0)
(-0.307333 -0.105412 0)
(-0.335752 -0.0924375 0)
(-0.360758 -0.0779607 0)
(-0.381263 -0.062236 0)
(-0.396025 -0.0454886 0)
(-0.402459 -0.027864 0)
(-0.392294 -0.0105961 0)
(0.126106 -0.146527 0)
(0.0959162 -0.148106 0)
(0.0657205 -0.14888 0)
(0.0354935 -0.148895 0)
(0.00517451 -0.148185 0)
(-0.0253312 -0.146786 0)
(-0.056143 -0.144712 0)
(-0.0873873 -0.141946 0)
(-0.11918 -0.138446 0)
(-0.151598 -0.134143 0)
(-0.184641 -0.128936 0)
(-0.218179 -0.122689 0)
(-0.251894 -0.115244 0)
(-0.285213 -0.106436 0)
(-0.317286 -0.0961356 0)
(-0.347014 -0.0842986 0)
(-0.37318 -0.0710256 0)
(-0.394608 -0.0565822 0)
(-0.410075 -0.0412287 0)
(-0.417108 -0.0251989 0)
(-0.407733 -0.00946379 0)
(0.127652 -0.133339 0)
(0.0967832 -0.134546 0)
(0.0659532 -0.135029 0)
(0.0351328 -0.134841 0)
(0.00425227 -0.13402 0)
(-0.026797 -0.132608 0)
(-0.0581515 -0.130625 0)
(-0.0899586 -0.128057 0)
(-0.122358 -0.124869 0)
(-0.155454 -0.120996 0)
(-0.189275 -0.116342 0)
(-0.223717 -0.110774 0)
(-0.258476 -0.104134 0)
(-0.292973 -0.0962502 0)
(-0.326307 -0.0869776 0)
(-0.357279 -0.0762547 0)
(-0.384541 -0.0641704 0)
(-0.40681 -0.0509986 0)
(-0.422869 -0.0370228 0)
(-0.430374 -0.0225822 0)
(-0.421585 -0.00834112 0)
(0.128853 -0.120615 0)
(0.097369 -0.121461 0)
(0.0659747 -0.121657 0)
(0.0346358 -0.121265 0)
(0.00327315 -0.120328 0)
(-0.0282357 -0.118893 0)
(-0.0600452 -0.116986 0)
(-0.0923232 -0.114594 0)
(-0.125234 -0.111687 0)
(-0.158907 -0.108207 0)
(-0.193401 -0.104061 0)
(-0.22864 -0.0991238 0)
(-0.264338 -0.0932384 0)
(-0.299914 -0.0862311 0)
(-0.334422 -0.0779473 0)
(-0.366566 -0.0683101 0)
(-0.394854 -0.0573955 0)
(-0.417877 -0.0454832 0)
(-0.434419 -0.0328677 0)
(-0.442276 -0.0200122 0)
(-0.433879 -0.00722552 0)
(0.129717 -0.108355 0)
(0.097678 -0.108847 0)
(0.0657855 -0.10876 0)
(0.0339994 -0.108162 0)
(0.00223054 -0.107105 0)
(-0.0296583 -0.105638 0)
(-0.0618396 -0.103791 0)
(-0.0945026 -0.101555 0)
(-0.127834 -0.0989029 0)
(-0.161991 -0.0957797 0)
(-0.197059 -0.0920996 0)
(-0.23299 -0.0877438 0)
(-0.269521 -0.0825614 0)
(-0.306073 -0.0763812 0)
(-0.341662 -0.0690434 0)
(-0.374896 -0.0604592 0)
(-0.404133 -0.0506918 0)
(-0.427822 -0.0400259 0)
(-0.444735 -0.0287536 0)
(-0.452827 -0.0174819 0)
(-0.444636 -0.006114 0)
(0.130253 -0.0965235 0)
(0.0977152 -0.0966747 0)
(0.0653861 -0.0963125 0)
(0.0332208 -0.095511 0)
(0.00111859 -0.0943295 0)
(-0.0310738 -0.0928235 0)
(-0.0635484 -0.0910249 0)
(-0.0965158 -0.0889272 0)
(-0.130186 -0.0865046 0)
(-0.164739 -0.0837053 0)
(-0.200287 -0.0804496 0)
(-0.236811 -0.0766271 0)
(-0.27407 -0.0720959 0)
(-0.311492 -0.0666912 0)
(-0.348062 -0.0602536 0)
(-0.382294 -0.0526865 0)
(-0.412394 -0.0440412 0)
(-0.436657 -0.0346091 0)
(-0.453823 -0.0246641 0)
(-0.462033 -0.0149776 0)
(-0.453878 -0.00501064 0)
(0.130502 -0.0850305 0)
(0.0975044 -0.0848818 0)
(0.064786 -0.0842664 0)
(0.0323012 -0.0832706 0)
(-6.592e-05 -0.0819671 0)
(-0.0324893 -0.0804184 0)
(-0.0651828 -0.0786598 0)
(-0.09838 -0.0766854 0)
(-0.132312 -0.0744693 0)
(-0.167182 -0.0719621 0)
(-0.203124 -0.0690904 0)
(-0.240145 -0.0657537 0)
(-0.278029 -0.0618218 0)
(-0.316213 -0.0571404 0)
(-0.353657 -0.0515551 0)
(-0.388787 -0.0449668 0)
(-0.419656 -0.0374175 0)
(-0.444392 -0.0292077 0)
(-0.461689 -0.0205763 0)
(-0.469884 -0.0124802 0)
(-0.461636 -0.00393718 0)
(0.13046 -0.0737825 0)
(0.097081 -0.0733743 0)
(0.0640182 -0.0725632 0)
(0.0312545 -0.0713948 0)
(-0.00132059 -0.0699776 0)
(-0.0339084 -0.0683871 0)
(-0.0667518 -0.0666627 0)
(-0.10011 -0.0647982 0)
(-0.134236 -0.0627661 0)
(-0.16935 -0.060519 0)
(-0.205607 -0.0579908 0)
(-0.243036 -0.0550922 0)
(-0.281444 -0.0517075 0)
(-0.32028 -0.0476964 0)
(-0.358485 -0.0429144 0)
(-0.394403 -0.0372656 0)
(-0.425935 -0.0307855 0)
(-0.451035 -0.0237881 0)
(-0.468331 -0.0164608 0)
(-0.476363 -0.00997295 0)
(-0.46792 -0.00286637 0)
(0.130168 -0.0628418 0)
(0.0964273 -0.0621456 0)
(0.0630917 -0.0611296 0)
(0.0301099 -0.0598478 0)
(-0.00263349 -0.0583279 0)
(-0.0353309 -0.0566963 0)
(-0.0682629 -0.0549999 0)
(-0.101723 -0.0532309 0)
(-0.135982 -0.0513582 0)
(-0.171275 -0.0493368 0)
(-0.207773 -0.0471093 0)
(-0.245525 -0.0446002 0)
(-0.284359 -0.04171 0)
(-0.323737 -0.0383159 0)
(-0.362585 -0.0342877 0)
(-0.399171 -0.0295385 0)
(-0.431247 -0.0241017 0)
(-0.456591 -0.0183093 0)
(-0.473752 -0.012285 0)
(-0.481476 -0.00743845 0)
(-0.472725 -0.00177514 0)
(0.129609 -0.0523106 0)
(0.0955826 -0.0513041 0)
(0.0619954 -0.050026 0)
(0.0288479 -0.0485846 0)
(-0.00399011 -0.0470044 0)
(-0.036754 -0.0453257 0)
(-0.0697247 -0.0436428 0)
(-0.103235 -0.0419484 0)
(-0.137576 -0.0402044 0)
(-0.172992 -0.0383687 0)
(-0.209664 -0.0363954 0)
(-0.247658 -0.0342244 0)
(-0.28682 -0.031775 0)
(-0.326628 -0.028944 0)
(-0.365994 -0.0256199 0)
(-0.403117 -0.0217306 0)
(-0.435603 -0.0173133 0)
(-0.461058 -0.0127263 0)
(-0.477943 -0.00802104 0)
(-0.485198 -0.00484761 0)
(-0.475999 -0.000495551 0)
(0.128761 -0.0421912 0)
(0.0945007 -0.0408993 0)
(0.0607422 -0.0393746 0)
(0.0274591 -0.0376951 0)
(-0.00543454 -0.0359873 0)
(-0.0381877 -0.0342727 0)
(-0.0711529 -0.0325726 0)
(-0.104672 -0.0309161 0)
(-0.139052 -0.0292586 0)
(-0.17454 -0.0275602 0)
(-0.211323 -0.0257885 0)
(-0.249479 -0.0239009 0)
(-0.288874 -0.0218366 0)
(-0.328997 -0.019514 0)
(-0.368751 -0.016844 0)
(-0.406269 -0.0137749 0)
(-0.439012 -0.0103572 0)
(-0.464428 -0.00698687 0)
(-0.480871 -0.0036345 0)
(-0.487397 -0.00213806 0)
(-0.477659 0.000759631 0)
(0.127651 -0.0324722 0)
(0.0931848 -0.0309107 0)
(0.0592844 -0.0291546 0)
(0.0259287 -0.0272667 0)
(-0.00698323 -0.0253433 0)
(-0.0396895 -0.023516 0)
(-0.0725826 -0.0217728 0)
(-0.106074 -0.0200961 0)
(-0.140456 -0.0184665 0)
(-0.175967 -0.0168462 0)
(-0.212798 -0.0152172 0)
(-0.251038 -0.0135545 0)
(-0.290568 -0.0118174 0)
(-0.330889 -0.00994752 0)
(-0.370894 -0.00788134 0)
(-0.408649 -0.00559338 0)
(-0.441481 -0.00316138 0)
(-0.46669 -0.00101592 0)
(-0.482485 0.000972084 0)
(-0.488125 0.000799485 0)
(-0.477632 0.00202867 0)
(0.126299 -0.0231112 0)
(0.0916554 -0.0212865 0)
(0.0576287 -0.0192952 0)
(0.0242147 -0.0171966 0)
(-0.0086693 -0.0150768 0)
(-0.041289 -0.0130545 0)
(-0.0740854 -0.0111959 0)
(-0.107501 -0.00943387 0)
(-0.141843 -0.00775819 0)
(-0.177326 -0.00614777 0)
(-0.214141 -0.00459726 0)
(-0.252385 -0.00309766 0)
(-0.291951 -0.00162769 0)
(-0.332349 -0.000153431 0)
(-0.372458 0.00135905 0)
(-0.41028 0.00290116 0)
(-0.443013 0.00435248 0)
(-0.467811 0.00527792 0)
(-0.482748 0.00588133 0)
(-0.487794 0.00389522 0)
(-0.475889 0.00326231 0)
(0.124705 -0.0140351 0)
(0.0899115 -0.0119378 0)
(0.0557749 -0.00969224 0)