/*--------------------------------*- C++ -*----------------------------------*\
| =========                 |                                                 |
| \\      /  F ield         | OpenFOAM: The Open Source CFD Toolbox           |
|  \\    /   O peration     | Version:  v2012                                 |
|   \\  /    A nd           | Website:  www.openfoam.com                      |
|    \\/     M anipulation  |                                                 |
\*---------------------------------------------------------------------------*/
FoamFile
{
    version     2.0;
    format      ascii;
    class       volScalarField;
    location    "487";
    object      age;
}
// * * * * * * * * * * * * * * * * * * * * * * * * * * * * * * * * * * * * * //

dimensions      [0 0 1 0 0 0 0];


internalField   nonuniform List<scalar> 
6544
(
0.0126392
0.0124551
0.0124833
0.012492
0.0124938
0.0124938
0.0124919
0.0124832
0.0124551
0.0126388
0.0382527
0.0372012
0.0373113
0.0373835
0.0374057
0.0374054
0.0373826
0.03731
0.0372001
0.0382499
0.0646987
0.0618298
0.0619255
0.0620969
0.0621594
0.0621582
0.0620937
0.061921
0.0618236
0.0646872
0.0920698
0.0864188
0.0863167
0.0865958
0.0867083
0.0867055
0.086588
0.0863056
0.0863991
0.0920375
0.120456
0.111038
0.110485
0.110864
0.11103
0.111024
0.110849
0.110463
0.11099
0.12038
0.149956
0.135741
0.134439
0.134896
0.135112
0.135102
0.134869
0.134398
0.135641
0.149796
0.180668
0.160575
0.158186
0.158691
0.158953
0.158937
0.158648
0.158119
0.160383
0.180355
0.212698
0.185592
0.181737
0.182253
0.182555
0.18253
0.18219
0.181633
0.185242
0.212123
0.246166
0.210846
0.205098
0.20559
0.205924
0.205888
0.205501
0.204943
0.210233
0.245149
0.281212
0.236398
0.228282
0.228708
0.229068
0.229016
0.228586
0.228055
0.23536
0.279471
0.318005
0.262311
0.251307
0.251612
0.251995
0.251923
0.251455
0.250974
0.260589
0.315092
0.356759
0.288733
0.2742
0.274304
0.274712
0.274617
0.274114
0.273709
0.285916
0.351976
0.397729
0.315558
0.29696
0.296792
0.297228
0.297105
0.296576
0.29626
0.31106
0.390024
0.441184
0.343829
0.319686
0.319075
0.319552
0.319396
0.318855
0.318654
0.336721
0.429073
0.487437
0.373473
0.342543
0.341157
0.341692
0.3415
0.340951
0.340921
0.362725
0.468786
0.536937
0.403005
0.365464
0.36305
0.363655
0.363427
0.362864
0.363028
0.38833
0.509043
0.590304
0.433837
0.388498
0.384762
0.38545
0.385192
0.384601
0.384916
0.412272
0.548213
0.648442
0.46669
0.411723
0.40629
0.407083
0.406809
0.40617
0.406549
0.435407
0.588192
0.712641
0.502357
0.435352
0.427654
0.428558
0.4283
0.427589
0.427898
0.45749
0.622176
0.784731
0.541945
0.459312
0.44877
0.449873
0.449694
0.448885
0.448952
0.478473
0.657707
0.867401
0.587409
0.485509
0.469918
0.471004
0.471022
0.470115
0.469749
0.497529
0.674806
0.964605
0.640002
0.513874
0.491472
0.491939
0.492308
0.491359
0.490428
0.515397
0.679897
1.08209
0.701753
0.544584
0.514054
0.512745
0.513542
0.512681
0.511145
0.532675
0.677052
1.22885
0.776081
0.577337
0.537471
0.533528
0.534699
0.534108
0.532007
0.549874
0.670671
1.41972
0.866927
0.614881
0.561929
0.554365
0.555748
0.555635
0.553137
0.566421
0.664405
1.68258
0.986666
0.661119
0.588147
0.575322
0.576641
0.577223
0.574628
0.582568
0.660303
2.06933
1.12859
0.714292
0.61662
0.596498
0.597289
0.598796
0.5966
0.59808
0.659063
2.75808
1.42509
0.79778
0.651215
0.619589
0.617758
0.620162
0.618933
0.616497
0.66129
4.01321
1.42961
0.87727
0.688366
0.645024
0.638559
0.641211
0.641402
0.6369
0.667794
54.3024
5.75927
1.06549
0.735548
0.673556
0.660154
0.661934
0.663713
0.658756
0.678674
60.8216
13.1915
1.24403
0.788503
0.704959
0.683043
0.682608
0.685659
0.681587
0.692821
59.8733
24.561
2.84747
0.885037
0.746157
0.70859
0.703455
0.706972
0.70493
0.708024
58.8392
42.868
7.96741
0.991797
0.78993
0.737268
0.725631
0.728023
0.728436
0.724207
57.84
55.4233
18.9324
2.12123
0.884485
0.776703
0.74941
0.748503
0.751552
0.740691
57.4696
50.6437
31.3508
6.61253
0.977504
0.817984
0.776921
0.770066
0.774568
0.75924
56.8693
45.771
41.212
15.8229
2.43002
0.923103
0.818028
0.792893
0.795682
0.78431
56.4099
45.1363
44.7266
28.0263
7.47009
1.00771
0.862859
0.822092
0.818521
0.81122
56.1515
44.5741
43.1141
37.9146
17.3607
3.43292
0.962453
0.853465
0.838689
0.837336
55.6949
44.008
41.3497
41.2629
29.033
10.0056
1.78675
0.964223
0.869173
0.85704
55.0451
43.4769
40.8674
41.5283
37.7852
21.0067
6.04601
1.05757
0.918974
0.883407
54.4545
43.1144
40.4833
40.9921
41.3005
32.0435
15.1752
3.73699
1.0075
0.921161
54.2749
43.0199
40.181
40.6522
42.1638
39.8069
26.6121
10.8908
2.61693
1.00154
54.5592
43.2534
39.9209
40.2702
41.7707
43.1461
36.8355
21.9479
8.30168
2.04611
55.1965
43.8575
39.6802
39.8294
41.5192
43.8747
43.2969
33.6579
18.8125
6.88854
55.9284
44.7064
39.4636
39.3986
41.0979
43.6183
45.6495
42.7652
31.453
17.1499
56.3293
45.32
39.2277
39.0609
40.8424
44.3399
46.6563
47.6632
42.6703
30.626
55.5483
45.0576
38.8958
38.8301
41.0336
45.469
49.6884
51.5094
50.6195
43.7848
53.5124
43.9397
38.3948
38.666
41.9663
47.7888
53.6374
57.5259
58.1257
54.9733
52.1757
42.3615
37.7742
38.7793
43.7755
51.2477
58.9849
65.1069
67.8339
66.4116
50.836
40.7047
37.2746
39.359
46.0878
55.291
65.1968
73.8983
79.3989
80.0564
49.7847
39.4541
37.016
40.0465
48.1171
58.942
71.1275
82.751
91.4328
95.1625
48.93
38.6699
36.8477
40.2674
49.0791
61.0664
75.1882
89.5778
101.596
108.938
48.2914
38.5339
36.5847
39.6708
48.3057
60.6248
75.7578
92.0539
106.842
117.658
49.139
39.2258
36.3406
38.2647
45.6176
57.0907
71.8674
88.5972
104.822
118.276
51.2951
41.4389
36.1817
36.4098
41.5165
50.8613
63.702
79.1239
95.0918
109.478
54.6409
46.7466
39.2959
35.2423
37.2769
43.428
52.9602
65.3134
79.1572
92.6854
58.5987
53.7924
47.1086
38.4815
34.9009
36.9866
42.3743
50.384
60.3971
71.3147
62.4954
62.1807
59.6154
50.4715
38.4272
34.1029
35.1798
38.3969
43.4754
50.0229
66.3772
66.3101
67.7812
72.8311
57.4546
42.4997
33.1396
32.9943
33.8085
35.4592
77.5267
76.1825
76.7776
78.0912
81.2208
80.6506
34.0298
32.0253
31.6254
31.4172
117.04
177.34
178.683
185.022
190.31
195.989
201.337
206.511
211.495
215.893
219.905
222.615
223.738
224.484
225.201
225.951
226.787
227.772
228.972
230.536
233.672
239.387
252.899
321.233
560.138
100.457
149.684
142.085
152.964
161.733
172.973
185.487
199.337
214.039
228.741
241.961
251.915
257.874
259.437
257.375
252.816
247.146
241.594
237.32
234.949
234.9
236.347
241.586
268.028
379.043
78.5936
134.569
120.482
128.205
137.034
149.917
166.67
187.615
212.524
240.444
268.958
294.468
313.496
323.489
322.819
313.723
299.387
282.999
267.075
253.745
244.245
239.241
239.765
248.449
309.174
57.8235
122.455
111.294
113.789
120.02
130.703
146.799
169.509
199.793
237.56
280.984
325.467
364.589
390.795
399.176
390.239
368.936
341.039
311.873
285.363
263.914
248.865
241.785
244.715
282.275
40.2244
108.208
107.701
106.462
109.566
116.644
129.253
149.276
178.991
220.109
272.334
331.915
391.288
437.885
464.33
462.894
439.082
401.766
359.942
320.295
286.835
261.604
246.35
245.056
272.413
26.2066
91.0767
106.559
104.181
104.534
107.587
115.646
130.592
155.285
193.026
245.905
312.341
384.817
450.163
494.742
500.176
484.383
446.648
398.302
349.405
306.521
273.01
251.433
246.295
269.114
15.3355
72.1918
103.538
103.942
103.432
103.613
106.763
115.897
133.398
163.062
208.89
272.387
348.993
425.469
482.421
503.97
501.808
467.997
418.983
366.65
318.908
280.494
254.632
247.529
270.061
8.40213
51.7835
94.9288
104.026
103.317
103.062
103.125
106.482
116.65
136.538
170.691
223.113
293.433
372.737
442.329
482.792
488.303
464.423
421.021
370.839
322.987
283.436
256.118
248.895
272.38
4.69575
33.7075
81.1957
102.599
103.504
103.021
102.795
102.837
106.405
117.298
138.916
176.253
232.358
304.304
378.427
432.727
452.706
442.06
408.719
364.934
320.535
282.562
256.513
250.647
275.099
2.77087
19.7995
62.5873
96.2188
103.846
103.167
102.774
102.571
102.666
106.298
117.279
139.737
178.205
234.666
303.701
368.031
405.388
408.563
388.203
353.284
314.56
279.873
256.722
252.521
277.729
1.76844
10.2359
42.708
83.2161
102.126
103.405
102.903
102.547
102.385
102.607
105.958
116.461
138.509
175.933
229.874
293.223
347.015
370.742
363.466
339.788
307.954
277.458
257.296
254.01
281.172
1.24647
5.09097
25.4902
63.8169
94.9221
103.821
103.091
102.681
102.343
102.206
102.49
105.367
114.824
135.197
169.663
219.038
275.704
321.21
336.818
325.08
302.351
276.582
258.311
255.342
281.615
0.982917
2.76929
13.2929
43.3696
79.6991
100.359
103.694
102.937
102.505
102.159
102.016
102.303
104.584
112.499
130.011
159.896
203.228
253.261
294.191
307.818
295.962
276.827
260.142
256.556
279.78
0.862312
1.71588
6.05126
25.0947
58.634
89.8227
102.714
103.362
102.879
102.408
101.991
101.808
102.064
103.72
109.745
123.248
147.288
182.789
226.122
265.072
282.468
275.608
261.481
257.393
276.831
0.815703
1.20581
2.97925
12.3542
37.4918
70.4968
95.7046
103.805
103.428
103.001
102.45
101.864
101.588
101.782
102.962
106.933
115.911
132.273
158.027
192.345
228.45
254.534
263.003
264.125
276.575
0.807187
0.96861
1.75545
5.26571
19.9802
47.749
78.4508
98.6657
103.969
103.689
103.43
102.734
101.858
101.389
101.363
102.175
104.569
109.375
117.619
130.848
149.797
174.284
201.677
227.068
246.378
0.817264
0.880094
1.21411
2.48754
8.85467
27.5093
55.5782
83.5404
100.09
104.308
104.207
104.296
103.433
102.172
101.239
100.93
101.249
102.596
105.164
108.612
112.4
116.347
120.015
122.917
124.649
0.83403
0.859163
0.981186
1.505
3.44456
12.7076
33.2325
60.7015
86.025
100.777
104.874
104.891
105.832
104.914
103.264
101.539
100.584
100.408
100.747
102.046
103.879
105.929
107.882
109.309
109.811
0.855298
0.865032
0.907527
1.0987
1.74829
4.82524
16.0512
37.0585
63.1678
86.4976
100.858
105.916
106.823
108.1
107.919
106.037
103.332
101.336
99.8898
99.0867
98.7982
98.7324
98.6597
98.5866
98.5093
0.878109
0.87999
0.896001
0.952435
1.19881
1.97791
6.08819
18.4514
38.9588
63.4061
85.2839
99.9111
106.598
109.301
110.768
112.265
111.009
108.743
106.244
104.102
102.452
101.4
100.795
100.501
100.439
0.903
0.901843
0.906594
0.924518
0.991527
1.25577
2.06293
6.88185
19.3688
38.8373
61.5898
82.5765
97.7102
106.477
110.893
113.247
117.503
116.913
116.311
114.833
113.382
112.321
111.866
112.166
113.405
0.932178
0.923239
0.926256
0.932117
0.949126
1.01127
1.20716
2.09626
7.06561
18.9619
36.9438
58.0724
78.2394
94.1867
104.924
111.135
115.861
119.417
126.978
128.369
128.838
130.357
132.177
135.056
139.313
1.00325
0.947916
0.945037
0.950726
0.95624
0.966067
1.02039
1.10737
1.92687
6.4715
17.2869
33.5606
52.9706
72.33
88.9544
101.36
110.01
116.023
123.433
129.37
137.329
143.764
149.83
156.856
165.203
1.79354
1.00384
0.964486
0.967447
0.975157
0.978174
0.985454
1.0173
1.08376
1.61899
5.33356
14.6745
29.0262
46.5834
64.9366
81.7779
95.6682
106.191
114.901
122.616
131.672
142.161
154.032
166.948
179.736
6.41509
1.82423
1.03459
0.989086
0.991438
0.998766
1.00038
1.00731
1.02463
1.0921
1.23393
3.90519
11.1729
23.3997
38.9781
56.0047
72.6051
87.3221
99.6387
109.924
119.363
129.428
141.364
155.995
172.733
17.0043
6.77742
2.05079
1.10644
1.02431
1.0177
1.02128
1.02493
1.03029
1.04118
1.08299
1.15017
2.63647
7.64824
17.3875
30.6263
45.8574
61.5473
76.3874
89.6607
101.265
111.805
122.342
134.168
148.306
31.5473
18.2128
7.72266
2.51679
1.23122
1.07539
1.04931
1.0466
1.05021
1.05228
1.05931
1.08066
1.15042
1.63398
4.59929
11.3817
21.91
34.857
48.9372
63.0424
76.3599
88.515
99.6047
110.146
121.006
46.6885
34.0744
20.3686
9.30868
3.30812
1.43901
1.15143
1.09056
1.07586
1.07488
1.07595
1.08129
1.09341
1.15248
1.2117
2.44563
6.29829
13.7156
23.8372
35.6001
48.0442
60.3933
72.1294
83.026
93.1706
61.0301
51.2437
37.7537
23.434
11.6249
4.54604
1.77468
1.26234
1.14904
1.11333
1.10298
1.10277
1.10462
1.11366
1.13315
1.21292
1.2708
2.85929
6.76609
13.5823
22.4406
32.4724
42.9447
53.3071
63.1863
76.2175
68.5228
56.9352
42.4021
27.3398
14.7607
6.35006
2.42912
1.4566
1.23945
1.166
1.13918
1.13196
1.12987
1.13545
1.15017
1.17237
1.2499
1.30432
2.62059
5.70438
10.8509
17.7562
25.5881
33.7643
93.2915
86.8606
76.7263
63.3683
47.7605
32.018
18.6093
8.84398
3.64368
1.81909
1.38643
1.24615
1.18902
1.16667
1.1607
1.16098
1.16686
1.18476
1.20773
1.27253
1.324
1.90632
3.62365
6.6109
10.8917
110.148
105.695
96.8286
84.6567
69.8634
53.4384
37.2112
22.9832
12.1575
5.55761
2.48124
1.62269
1.37229
1.26666
1.21828
1.19814
1.19292
1.19529
1.20209
1.21898
1.24004
1.28959
1.33689
1.3812
1.76744
123.119
121.916
115.292
104.66
91.1697
75.5565
58.8183
42.3822
27.692
16.232
8.22729
3.87655
2.10209
1.58171
1.39212
1.30035
1.25575
1.23617
1.23102
1.23352
1.24126
1.25362
1.27567
1.2978
1.33812
126.985
129.978
127
119.499
108.371
94.6805
79.1854
62.836
46.7503
32.3065
20.4183
11.6655
6.07484
3.16281
2.00378
1.60911
1.4411
1.35299
1.30719
1.28535
1.27805
1.27782
1.28667
1.29621
1.31011
120.235
126.295
128.387
124.18
116.625
106.241
93.5391
79.252
64.1995
49.4048
35.8637
24.3498
15.4073
9.0433
5.09543
2.99383
2.06637
1.70027
1.53086
1.43726
1.38392
1.35491
1.34111
1.33824
1.34129
103.851
111.581
115.702
116.117
113.247
106.531
97.7317
86.8851
74.725
61.9467
49.3283
37.5606
27.2768
18.823
12.4029
7.85628
4.92227
3.23315
2.32494
1.90784
1.70136
1.58557
1.51417
1.47085
1.44593
81.4191
89.4396
95.0635
97.8609
97.8259
94.9508
90.0893
83.2482
74.9513
65.6442
55.842
46.0793
36.835
28.4847
21.3317
15.5034
11.0024
7.74984
5.44311
3.93028
2.98857
2.41748
2.09826
1.91081
1.79355
57.0594
63.3713
68.6473
72.303
74.1754
74.2191
72.4697
69.2567
64.8043
59.388
53.3091
46.8672
40.3263
33.9505
28.0106
22.6894
18.0864
14.2663
11.1777
8.75845
6.92327
5.52511
4.49743
3.75943
3.23074
37.9581
40.8242
43.7311
46.2757
48.1635
49.2335
49.396
48.6337
47.1288
45.0317
42.4305
39.4569
36.2056
32.7874
29.3384
26.0027
22.8661
19.9872
17.4043
15.1427
13.2018
11.5556
10.1759
9.03711
8.08775
31.2716
31.1627
31.0713
30.9891
30.9118
30.8367
30.7621
30.6849
30.5188
30.1665
29.6208
28.8943
27.9783
26.8889
25.7428
24.6808
23.5802
22.4883
21.4346
20.3468
19.306
18.3607
17.5221
16.7855
16.1419
124.949
124.849
124.723
109.188
107.281
104.121
98.3668
97.9925
97.6172
100.581
100.99
101.829
115.634
118.9
123.381
144.846
151.562
159.632
174.45
184.481
195.655
192.542
205.603
219.576
189.722
206.316
223.165
163.884
180.39
198.208
132.166
143.95
157.177
102.304
110.797
119.526
71.8987
79.4979
86.6268
41.381
48.2275
54.683
15.7534
20.6349
25.5775
2.65193
4.02366
5.84572
1.36985
1.39929
1.42967
1.32802
1.34639
1.36597
1.34884
1.35969
1.37129
1.43315
1.42842
1.4291
1.72033
1.67265
1.63967
2.88436
2.65851
2.49529
7.33711
6.75509
6.27191
15.6326
15.2038
14.8324
362.742
286.104
236.707
208.985
197.97
193.087
191.091
190.933
191.459
192.023
192.547
193.045
193.524
194.002
194.495
195.015
195.577
196.197
196.893
197.651
198.755
200.257
202.272
205.021
208.793
213.993
221.101
230.509
240.931
252.481
252.956
250.356
246.77
243.306
240.509
238.447
237.118
236.556
236.639
236.9
237.176
237.98
239.101
239.847
241.573
243.027
244.235
206.024
76.0451
74.2441
73.7951
73.5302
73.3318
73.1795
73.0588
72.96
72.8761
72.8024
72.7361
72.6749
72.6172
72.5615
72.5064
72.4503
72.35
72.1862
71.9735
71.7409
71.5356
71.4209
71.3019
71.1663
71.4344
72.1407
74.2937
76.4735
77.6614
78.4393
79.565
84.1937
329.315
229.538
190.979
181.612
182.55
184.774
189.165
194.137
198.361
201.753
204.237
205.623
205.917
205.589
204.855
203.897
202.89
201.974
201.247
200.773
200.62
200.901
201.38
201.886
203.059
205.002
207.75
210.926
214.106
216.57
217.713
217.748
217.26
216.816
216.591
216.652
217.016
217.565
218.253
219.063
219.956
221.044
228.835
232.479
189.018
136.49
105.18
84.5539
75.2471
75.1713
75.5168
76.1113
76.9463
78.0203
79.3282
80.8264
82.4225
83.959
85.3464
86.5161
87.395
87.9069
87.9856
87.585
86.7074
85.3682
83.5733
81.3648
78.8536
76.3231
73.9446
71.9162
70.6763
70.4774
72.6969
77.4443
83.1857
82.2649
81.2711
84.4552
194.111
181.096
179.793
182.254
189.911
201.428
214.916
228.76
241.679
252.692
261.066
266.401
268.688
267.84
264.121
258.07
250.428
241.956
233.346
225.259
218.174
212.455
208.614
206.376
205.266
205.283
205.646
206.377
207.557
208.853
209.993
210.876
211.567
212.196
212.966
214.087
215.266
216.348
217.121
219.059
219.506
204.465
165.976
124.808
94.2572
81.7253
78.6086
78.5037
79.909
82.903
86.4247
90.432
94.767
99.2569
103.707
107.873
111.583
114.702
117.206
119.026
120.119
120.451
119.998
118.768
116.742
113.884
110.168
105.593
100.206
94.1225
87.5922
81.0675
75.2892
71.4205
69.834
72.8789
79.2617
84.8757
82.3448
85.2914
178.84
176.836
179.816
190.647
208.755
231.579
256.764
282.186
306.001
326.716
343.147
354.566
360.753
361.627
357.429
348.703
336.276
321.034
303.946
286.147
268.854
252.735
238.673
227.386
218.961
213.163
209.974
208.669
208.555
209.094
209.796
210.676
211.94
213.734
215.718
218.166
219.561
221.724
220.116
203.913
166.77
124.571
95.6317
83.4725
81.993
82.0688
85.0088
90.4306
97.3473
104.437
111.778
119.185
126.319
132.952
138.906
144.039
148.312
151.707
154.218
155.833
156.551
156.369
155.278
153.264
150.279
146.267
141.172
134.938
127.535
118.981
109.399
99.105
88.7026
79.2005
72.0854
69.1257
71.7394
79.7431
85.627
86.5884
174.436
176
185.417
206.473
236.27
271.815
310.207
348.726
384.956
416.9
442.982
462.108
473.687
477.455
473.594
462.799
446.144
424.755
399.82
372.726
344.997
318.007
292.949
270.864
252.48
237.992
227.284
220.168
216.026
214.157
213.873
214.812
216.908
219.476
222.078
224.419
224.043
213.182
181.898
139.216
104.198
87.4996
84.0817
84.5687
88.3176
95.3404
105.019
114.873
125.15
135.192
144.864
153.837
161.912
169.007
175.1
180.184
184.274
187.391
189.545
190.741
190.981
190.259
188.564
185.863
182.117
177.277
171.278
164.045
155.493
145.55
134.197
121.556
107.997
94.2868
81.7102
72.1532
68.0696
71.2264
83.245
88.1829
172.488
176.988
195.013
226.914
268.935
317.433
368.919
420.201
468.531
511.636
547.676
575.239
593.316
601.414
599.379
587.816
567.835
540.919
508.706
472.954
435.468
398.005
362.144
329.287
300.514
276.503
257.462
243.316
233.674
227.904
225.28
225.023
226.286
227.484
230.169
224.934
202.098
162.911
121.325
95.024
85.9949
85.8955
89.1456
96.6692
107.704
119.875
132.714
145.196
157.278
168.546
178.829
188.009
196.078
203.065
209.003
213.911
217.799
220.667
222.504
223.296
223.028
221.688
219.258
215.731
211.096
205.34
198.439
190.35
181
170.287
158.094
144.341
129.107
112.814
96.4372
81.6587
70.8586
66.762
71.8461
91.0425
171.553
179.944
206.951
249.124
302.019
361.354
423.338
484.776
543.034
595.884
641.348
677.621
703.173
716.916
718.2
707.503
685.923
655.125
617.122
574.084
528.197
481.553
436.028
393.366
354.971
321.825
294.475
273.056
257.349
246.814
240.546
237.516
235.151
235.09
224.286
192.821
150.302
111.927
91.4205
86.7304
88.3719
94.4076
105.59
119.018
133.812
148.595
162.962
176.529
189.12
200.584
210.91
220.14
228.325
235.487
241.614
246.677
250.631
253.427
255.021
255.378
254.479
252.315
248.895
244.24
238.381
231.354
223.194
213.926
203.545
192.002
179.183
164.92
149.047
131.568
112.948
94.4635
78.4357
68.1807
65.5171
72.3972
170.788
184.085
218.916
269.038
329.213
395.029
463.016
530.518
595.342
655.471
708.881
753.42
787.025
807.267
813.663
805.798
784.687
752.108
710.529
662.529
610.605
557.106
504.143
453.642
407.335
366.411
331.679
303.51
281.835
266.072
255.189
246.548
241.449
224.934
188.259
143.957
107.332
90.2242
87.5158
90.9226
99.5948
112.912
128.717
145.257
161.774
177.612
192.516
206.361
219.106
230.804
241.525
251.305
260.127
267.927
274.613
280.081
284.229
286.971
288.241
288.002
286.244
282.989
278.279
272.177
264.763
256.128
246.362
235.554
223.77
211.035
197.309
182.455
166.244
148.421
128.928
108.357
88.5221
72.7099
64.9224
63.5623
170.163
188.203
228.263
282.243
344.436
411.149
479.835
548.552
615.554
679.098
737.277
787.84
828.174
853.576
865.282
860.386
845.271
816.189
774.717
725.241
670.8
613.913
556.812
501.522
449.945
403.454
363.047
329.31
302.249
281.192
263.973
250.98
230.023
189.63
142.787
106.244
90.2859
88.4671
92.8232
103.549
118.275
135.767
153.901
171.777
188.926
205.09
220.225
234.384
247.661
260.142
271.837
282.68
292.547
301.279
308.705
314.658
318.985
321.567
322.322
321.215
318.266
313.545
307.161
299.252
289.965
279.451
267.851
255.298
241.905
227.751
212.858
197.149
180.427
162.385
142.702
121.343
99.2457
79.2647
66.4137
63.1767
169.604
190.901
232.282
284.754
343.234
405.27
469.317
534.02
598.056
660.015
718.241
770.643
814.426
845.493
861.292
866.653
856.407
834.631
797.633
751.679
699.586
643.875
586.84
530.581
477.086
427.903
384.129
346.489
314.921
288.161
265.973
239.858
196.934
146.711
107.83
91.0745
89.1626
93.7119
105.47
121.445
139.956
159.429
178.502
196.825
214.192
230.619
246.234
261.177
275.541
289.325
302.429
314.682
325.867
335.743
344.055
350.554
355.017
357.268
357.201
354.793
350.143
343.419
334.852
324.693
313.187
300.553
286.974
272.601
257.562
241.958
225.844
209.186
191.82
173.444
153.68
132.223
109.263
86.5817
69.0236
63.0154
169.004
190.707
228.8
274.396
324.054
376.522
431.084
486.977
543.323
599.068
652.85
702.932
747.174
783.093
808.111
820.261
818.714
803.613
775.926
738.5
693.654
643.802
591.207
537.984
486.143
437.327
392.693
352.839
317.548
286.486
254.34
209.325
155.658
112.316
92.4997
89.5923
93.6638
105.438
122.116
141.38
161.761
181.942
201.298
219.78
237.417
254.403
270.929
287.116
302.974
318.4
333.205
347.141
359.907
371.155
380.508
387.583
392.037
393.617
392.207
387.864
380.839
371.476
360.175
347.338
333.321
318.408
302.811
286.673
270.098
253.17
235.948
218.423
200.453
181.739
161.871
140.481
117.441
93.4998
72.4133
62.909
167.898
186.539
216.965
251.49
288.399
327.661
369.259
412.985
458.449
505.024
551.713
597.094
639.363
676.418
706.008
725.988
734.675
731.178
715.814
690.244
656.25
615.954
571.451
524.764
477.772
432
388.494
347.918
310.361
272.403
225.312
169.074
120.225
94.9737
89.9559
92.9928
103.795
120.44
140.119
161.093
182.135
202.433
221.86
240.547
258.694
276.557
294.304
311.981
329.519
346.75
363.433
379.248
393.786
406.545
416.953
424.431
428.481
428.783
425.251
418.227
408.145
395.616
381.224
365.516
348.935
331.81
314.35
296.667
278.816
260.834
242.758
224.578
206.169
187.237
167.346
146.084
123.277
99.2039
75.9992
62.829
165.157
178.097
197.393
218.257
240.667
265.31
292.569
322.677
355.73
391.587
429.708
469.072
508.191
545.184
577.934
604.298
622.34
630.651
628.538
616.214
595.011
566.482
532.418
494.563
454.496
413.556
372.837
332.782
291.257
242.564
185.334
131.821
99.3083
90.7732
92.1393
101.075
116.817
136.409
157.671
179.284
200.359
220.568
240.061
259.082
277.909
296.779
315.793
334.939
354.102
373.09
391.621
409.293
425.551
439.682
450.863
458.266
461.205
459.293
452.538
442.196
428.674
412.874
395.513
377.211
358.442
339.523
320.629
301.821
283.096
264.446
245.872
227.35
208.755
189.795
170.03
149.021
126.583
102.957
79.1715
62.7613
161.022
164.794
171.504
179.061
188.21
199.57
213.616
230.792
251.477
275.91
304.072
335.581
369.561
404.571
438.723
469.835
495.671
514.28
524.364
525.371
517.448
501.552
478.971
451.099
419.218
384.378
346.992
305.826
257.69
201.687
146.145
106.251
92.2813
91.6362
97.8647
111.888
130.695
151.82
173.697
195.3
216.123
236.177
255.745
275.122
294.586
314.311
334.342
354.625
375.027
395.334
415.209
434.139
451.404
466.081
477.128
483.49
484.299
479.503
469.135
455.312
438.711
420.268
400.726
380.679
360.554
340.611
320.966
301.622
282.536
263.666
244.995
226.485
207.995
189.229
169.761
149.171
127.29
104.423
81.2595
62.6985
154.007
146.35
141.969
140.368
140.809
143.278
147.971
155.175
165.273
178.675
195.717
216.684
241.71
270.287
301.328
333.161
363.703
390.626
411.549
424.785
429.573
426.111
415.181
397.568
373.951
344.501
308.518
264.586
212.785
158.912
115.334
94.7157
91.8714
95.0682
106.365
123.637
144.066
165.766
187.604
208.819
229.236
249.053
268.593
288.147
307.943
328.086
348.567
369.296
390.11
410.743
430.779
449.603
466.408
480.312
490.464
495.711
492.337
483.362
470.325
454.166
435.826
416.138
395.771
375.227
354.85
334.827
315.213
295.973
277.049
258.403
240.015
221.836
203.707
185.327
166.301
146.285
125.193
103.385
81.6699
62.6145
146.502
124.577
116.312
112.306
110.364
109.84
110.413
111.994
114.808
119.287
125.943
135.293
148.069
164.876
185.877
210.456
237.331
265.528
292.485
315.485
332.104
340.685
340.52
331.814
314.972
289.47
254.908
212.059
165.215
123.582
98.692
92.6065
93.3756
101.163
116.029
135.066
156.091
177.698
199.046
219.629
239.487
258.889
278.139
297.482
317.076
336.956
357.059
377.242
397.279
416.83
435.4
452.246
466.531
477.28
483.841
484.272
479.037
468.994
455.226
438.767
420.514
401.214
381.443
361.62
342.01
322.738
303.816
285.207
266.874
248.808
230.998
213.374
195.748
177.828
159.291
139.932
119.839
99.4966
79.7058
61.9687
119.542
104.624
102.019
100.312
99.6958
99.4077
99.2891
99.3955
99.7547
100.441
101.598
103.387
106.175
110.619
117.705
128.459
142.886
161.142
182.464
204.67
224.935
241.047
250.054
250.124
240.304
221.104
193.171
159.562
126.501
102.398
93.6167
92.8881
97.1391
108.838
125.661
145.351
166.231
187.254
207.788
227.527
246.614
265.312
283.873
302.475
321.202
340.022
358.808
377.351
395.359
412.422
428.006
441.399
451.839
458.566
460.953
458.633
451.965
441.6
428.315
412.873
395.965
378.178
359.976
341.684
323.492
305.475
287.64
269.981
252.51
235.247
218.17
201.164
184.01
166.448
148.279
129.501
110.431
91.7505
74.3949
58.9775
99.9845
97.4404
97.2615
97.1448
97.032
96.9258
96.8268
96.7359
96.6515
96.5774
96.5562
96.6953
97.0092
97.5866
98.601
100.31
103.232
107.868
115.289
125.949
138.625
151.755
162.558
167.938
165.77
155.586
138.976
119.431
102.551
94.1921
93.1193
94.9221
102.983
116.877
134.425
153.929
174.111
194.173
213.632
232.305
250.351
267.988
285.397
302.682
319.865
336.862
353.498
369.52
384.594
398.303
410.16
419.617
426.133
429.294
428.791
424.745
417.474
407.45
395.211
381.292
366.192
350.336
334.051
317.554
300.962
284.329
267.693
251.1
234.601
218.206
201.836
185.312
168.407
150.947
132.914
114.543
96.3678
79.1551
63.7295
51.164
97.55
97.499
97.468
97.4644
97.4685
97.4607
97.4198
97.3276
97.0548
96.5912
96.0991
95.789
95.6781
95.5607
95.4466
95.3877
95.5429
96.0177
96.8668
98.2975
100.557
103.907
108.102
111.832
112.962
110.154
104.238
97.9125
93.8648
93.2018
94.1564
99.0829
109.699
124.393
141.72
160.403
179.457
198.25
216.402
233.771
250.484
266.696
282.521
298.003
313.114
327.743
341.701
354.736
366.53
376.73
384.968
390.891
394.218
394.735
392.467
387.556
380.258
370.91
359.888
347.561
334.264
320.271
305.777
290.909
275.751
260.382
244.888
229.345
213.779
198.126
182.22
165.853
148.869
131.274
113.291
95.384
78.2045
62.4597
48.7428
37.4532
103.365
105.946
109.489
113.399
117.156
120.149
121.842
121.923
120.455
117.559
113.555
109.017
104.6
100.718
97.7052
95.67
94.6886
94.5712
94.4256
94.3424
94.2765
94.2072
94.1334
94.0524
93.9645
93.8588
93.6328
93.4747
93.3008
94.094
97.359
104.788
116.292
130.723
147.11
164.478
182.053
199.324
215.944
231.786
246.914
261.419
275.358
288.733
301.491
313.519
324.652
334.677
343.35
350.414
355.636
358.829
359.862
358.705
355.427
350.168
343.126
334.543
324.669
313.736
301.939
289.426
276.311
262.698
248.695
234.417
219.953
205.326
190.459
175.185
159.313
142.72
125.458
107.801
90.2324
73.3756
57.8859
44.3163
33.0004
24.0587
129.59
137.437
145.749
153.596
160.519
165.879
169.262
170.405
169.219
165.752
160.133
152.682
143.839
134.165
124.306
114.986
107.033
101.305
97.5767
95.5398
94.6969
94.4922
94.3412
94.2085
94.0221
93.8782
93.7956
93.8775
94.8687
97.4361
102.526
110.813
121.996
135.373
150.268
165.941
181.751
197.261
212.165
226.312
239.691
252.334
264.256
275.441
285.831
295.332
303.821
311.147
317.151
321.679
324.603
325.837
325.342
323.149
319.332
314.008
307.32
299.416
290.437
280.502
269.716
258.184
246.023
233.364
220.33
206.994
193.346
179.276
164.61
149.187
132.95
116.03
98.7836
81.7531
65.5786
50.8782
38.15
27.6814
19.5271
13.5349
169.584
181.038
192.532
203.344
212.884
220.603
226.056
228.89
228.884
225.99
220.168
211.664
200.861
188.256
174.396
159.873
145.38
131.75
119.865
110.46
103.935
100.186
98.3233
97.4703
96.9254
96.5499
96.6273
97.47
99.4305
102.824
108.353
116.229
126.246
137.989
150.997
164.659
178.458
192.017
205.052
217.39
228.952
239.714
249.659
258.763
266.978
274.239
280.466
285.569
289.459
292.057
293.306
293.177
291.676
288.84
284.727
279.407
272.953
265.436
256.928
247.519
237.321
226.465
215.082
203.267
191.037
178.321
164.971
150.823
135.779
119.892
103.416
86.8039
70.6517
55.6008
42.2187
30.9075
21.8591
15.0301
10.2181
7.04186
208.683
223.204
237.636
251.334
263.678
274.082
282.016
287.046
288.876
287.391
282.608
274.495
263.322
249.609
234.052
217.219
199.555
181.446
163.44
146.294
131.035
118.765
110.252
105.495
103.576
103.086
103.061
103.717
105.558
108.763
113.658
120.318
128.641
138.386
149.199
160.616
172.22
183.675
194.72
205.169
214.902
223.847
231.962
239.209
245.553
250.952
255.359
258.728
261.017
262.192
262.233
261.137
258.911
255.572
251.139
245.64
239.118
231.647
223.329
214.288
204.645
194.485
183.821
172.584
160.635
147.821
134.04
119.318
103.862
88.0638
72.4661
57.6827
44.2903
32.7627
23.349
16.1144
10.9159
7.43613
5.33348
4.18599
235.394
252.705
269.744
285.898
300.546
313.106
323.079
330.09
333.85
334.213
331.438
325.692
316.464
303.444
287.43
269.449
251.101
232.627
214.248
195.897
177.517
159.342
142.192
127.529
116.997
111.486
110.051
110.567
111.738
114.168
117.896
122.932
129.239
136.698
145.071
154.036
163.264
172.462
181.391
189.863
197.742
204.927
211.35
216.961
221.721
225.598
228.562
230.588
231.654
231.754
230.87
228.98
226.071
222.149
217.252
211.454
204.854
197.562
189.671
181.223
172.192
162.482
151.949
140.453
127.914
114.378
100.05
85.3012
70.6367
56.6201
43.8127
32.6588
23.444
16.301
11.0679
7.56021
5.42623
4.25083
3.66232
3.36341
241.327
260.62
279.395
297.206
313.505
327.773
339.806
348.874
352.677
351.894
349.497
346.873
343.084
335.724
322.52
303.809
284.294
264.828
246.273
229.107
213.427
198.864
184.617
169.77
153.913
137.922
124.419
117.077
114.977
116.094
118.188
121.747
126.587
132.275
138.636
145.426
152.413
159.391
166.181
172.629
178.61
184.024
188.795
192.862
196.179
198.71
200.426
201.311