/*--------------------------------*- C++ -*----------------------------------*\
| =========                 |                                                 |
| \\      /  F ield         | OpenFOAM: The Open Source CFD Toolbox           |
|  \\    /   O peration     | Version:  v2012                                 |
|   \\  /    A nd           | Website:  www.openfoam.com                      |
|    \\/     M anipulation  |                                                 |
\*---------------------------------------------------------------------------*/
FoamFile
{
    version     2.0;
    format      ascii;
    class       volScalarField;
    location    "487";
    object      k;
}
// * * * * * * * * * * * * * * * * * * * * * * * * * * * * * * * * * * * * * //

dimensions      [0 2 -2 0 0 0 0];


internalField   nonuniform List<scalar> 
6544
(
0.133321
0.157509
0.162685
0.163593
0.163813
0.163813
0.163593
0.162686
0.157512
0.133322
0.0984852
0.13284
0.145053
0.147808
0.148427
0.148428
0.147812
0.145063
0.13286
0.0984925
0.0758006
0.111379
0.129276
0.134155
0.13536
0.135364
0.134168
0.129304
0.111425
0.0758218
0.0603153
0.0933815
0.115263
0.122201
0.124099
0.124107
0.122229
0.115323
0.0934656
0.060359
0.0493445
0.0785059
0.102907
0.11165
0.114268
0.114284
0.111704
0.103015
0.0786438
0.0494221
0.041312
0.0662911
0.0920663
0.10229
0.105594
0.105624
0.102382
0.0922409
0.0664978
0.0414388
0.0352401
0.0562732
0.0825749
0.0939541
0.0978748
0.0979237
0.0941003
0.0828413
0.0565646
0.0354357
0.030504
0.0480389
0.0742635
0.0865047
0.0909564
0.0910322
0.0867251
0.0746532
0.0484334
0.0307941
0.026697
0.0412451
0.0669632
0.0798237
0.0847189
0.0848319
0.0801449
0.0675207
0.0417628
0.0271157
0.023549
0.0356092
0.0605333
0.0738077
0.0790669
0.0792304
0.0742648
0.0613043
0.0362779
0.0241416
0.0208758
0.0309011
0.0548553
0.0683697
0.0739228
0.0741535
0.0690046
0.0558911
0.031758
0.0217027
0.0185468
0.0269416
0.0498137
0.0634347
0.0692225
0.0695386
0.0642987
0.0511826
0.0280283
0.0196892
0.0164728
0.023596
0.0453132
0.0589351
0.06491
0.0653246
0.0600997
0.0470955
0.0249519
0.0180308
0.0146008
0.0207598
0.0412725
0.0548107
0.0609366
0.0614678
0.0563576
0.0435674
0.0224202
0.0166849
0.0129028
0.0183475
0.0376236
0.0510082
0.0572591
0.057927
0.0529933
0.0405794
0.0203538
0.015629
0.0113458
0.0162872
0.0343055
0.0474788
0.0538381
0.0546653
0.0499589
0.0380496
0.0187399
0.0148599
0.00989727
0.0145192
0.0312633
0.0441772
0.0506369
0.0516493
0.0472202
0.0358707
0.0175579
0.0143984
0.00852893
0.012995
0.0284493
0.0410609
0.0476202
0.0488478
0.0447471
0.0340122
0.0167315
0.0142566
0.00722205
0.0116841
0.0258289
0.0380925
0.0447542
0.0462307
0.0425117
0.0324507
0.0162205
0.0144899
0.00597076
0.0105417
0.0233775
0.0352381
0.0420057
0.0437665
0.0404861
0.0311653
0.0160072
0.0149902
0.00477676
0.00941626
0.0210822
0.0324721
0.039343
0.0414213
0.0386361
0.0301316
0.0160601
0.0101606
0.00366004
0.00831818
0.0189488
0.0297839
0.0367381
0.0391549
0.0369206
0.0293006
0.0164123
0.00881211
0.00266495
0.00726201
0.0170023
0.0271782
0.0341714
0.0369387
0.0352851
0.0286027
0.016976
0.00892003
0.00183311
0.0062611
0.0152844
0.0246668
0.0316316
0.0347522
0.0336953
0.0279802
0.0176689
0.00971776
0.00118288
0.00532502
0.0137111
0.0222854
0.0291228
0.0325764
0.0321322
0.027388
0.0183909
0.0108361
0.000713113
0.00446263
0.0122759
0.0200854
0.0266655
0.0303992
0.0305671
0.0267758
0.0190705
0.0120587
0.000403044
0.00368188
0.0109798
0.0180993
0.0242957
0.0282202
0.0289735
0.0261064
0.0196493
0.0132529
0.000217106
0.00298795
0.00981752
0.0163294
0.0220586
0.0260555
0.027334
0.025349
0.0200791
0.0143174
0.000114178
0.00238231
0.00877756
0.0147912
0.020007
0.0239393
0.0256473
0.0244794
0.0203256
0.0152247
7.51927e-05
0.00187014
0.0078447
0.0134893
0.018195
0.0219256
0.0239312
0.0234866
0.0203658
0.0159748
8.16519e-05
0.00145318
0.00699908
0.0124154
0.0166704
0.0200848
0.0222279
0.0223795
0.0201877
0.0165518
8.94553e-05
0.00113046
0.00622496
0.0115522
0.0154686
0.0184973
0.0206057
0.0211901
0.0198003
0.016926
9.50958e-05
0.000893454
0.00550479
0.0108721
0.0146083
0.0172436
0.0191567
0.0199812
0.0192335
0.017083
9.55639e-05
0.000737259
0.00481686
0.0103211
0.0140807
0.0163911
0.0179892
0.0188469
0.0185476
0.0170308
9.29175e-05
0.000622122
0.00412233
0.00979808
0.0138306
0.0159766
0.0172128
0.0179102
0.0178372
0.0168123
8.68201e-05
0.000512432
0.00341471
0.00916431
0.0137371
0.015986
0.016919
0.0173123
0.0172345
0.0165111
7.86247e-05
0.00041498
0.00276109
0.00835611
0.0136249
0.0163308
0.0171542
0.0171932
0.0169029
0.0162565
7.1142e-05
0.00034192
0.00226601
0.00741767
0.0132902
0.0168188
0.017879
0.0176581
0.0170204
0.0162222
6.7158e-05
0.000290238
0.00190939
0.00639929
0.0125354
0.0171325
0.018909
0.0187216
0.0177424
0.0166112
6.57436e-05
0.000256337
0.00165176
0.00542614
0.0113848
0.0169336
0.0198874
0.0202357
0.019139
0.0176193
6.30898e-05
0.00023712
0.00143625
0.0046784
0.0100793
0.0160715
0.0203708
0.021839
0.0211063
0.0193639
5.52553e-05
0.000218734
0.00120876
0.0038219
0.00861054
0.014645
0.0200322
0.0230113
0.0232889
0.0217772
4.27954e-05
0.000177426
0.000935408
0.00284142
0.00690648
0.0127484
0.0187488
0.0232308
0.025079
0.0244849
2.86533e-05
0.000115364
0.000606765
0.00190663
0.00488426
0.010078
0.0164363
0.0220941
0.0257295
0.0267454
1.6783e-05
5.52535e-05
0.000300711
0.00101113
0.00291505
0.00699387
0.0130059
0.0193383
0.0245435
0.0275508
1.04306e-05
2.26011e-05
0.000127675
0.000444857
0.00142579
0.00392038
0.00843747
0.0148966
0.0211155
0.0259744
8.83527e-06
1.45637e-05
8.38366e-05
0.000261534
0.000671683
0.00181073
0.00453952
0.00945679
0.0157886
0.0217768
1.05413e-05
1.6203e-05
9.07197e-05
0.000252144
0.000493706
0.00095731
0.00215715
0.00493865
0.00998181
0.0158968
1.54836e-05
2.20729e-05
0.000120268
0.000313035
0.000541535
0.000824176
0.00133144
0.00255275
0.00531664
0.0100566
2.34587e-05
3.14703e-05
0.000166626
0.000407385
0.000661026
0.000929251
0.00127209
0.00185361
0.00314413
0.00599716
3.21921e-05
4.46898e-05
0.000228172
0.000518339
0.000800351
0.0010974
0.00145496
0.00191697
0.00263492
0.0040669
3.74271e-05
6.30268e-05
0.000300456
0.000627793
0.000934443
0.00127655
0.0017054
0.00224055
0.00290218
0.00383817
3.57815e-05
8.93401e-05
0.000372582
0.000719361
0.00104625
0.00143973
0.0019527
0.00261813
0.00343217
0.00436306
2.68606e-05
0.000108641
0.000412826
0.000763997
0.00111752
0.00155978
0.0021628
0.00295332
0.00392769
0.0050438
1.51324e-05
0.000109945
0.000400187
0.000731539
0.00108708
0.0015541
0.0022072
0.00308892
0.00424189
0.00561806
5.89876e-06
8.76095e-05
0.00032521
0.000606759
0.000928031
0.00136249
0.00198342
0.00286234
0.00406488
0.00560225
3.48555e-06
4.90858e-05
0.000201608
0.000400546
0.000645869
0.000989673
0.00148953
0.00221644
0.00325384
0.00467302
2.72447e-06
1.5712e-05
7.70711e-05
0.000172498
0.000306529
0.000509834
0.000817508
0.00127523
0.0019463
0.00291306
1.29567e-06
2.92884e-06
1.18741e-05
2.94225e-05
5.96295e-05
0.00011701
0.000222791
0.000401269
0.000678424
0.00108667
2.28577e-07
1.20017e-06
3.09197e-06
4.83998e-06
5.8368e-06
6.48176e-06
1.5264e-05
6.03103e-05
0.000189263
0.000459593
0.00217109
0.000381797
0.000202214
0.000136926
9.90801e-05
7.03983e-05
4.8682e-05
3.39045e-05
3.28531e-05
3.47913e-05
3.55087e-05
3.41233e-05
3.1534e-05
2.76697e-05
2.25509e-05
1.69367e-05
1.14581e-05
6.96782e-06
3.82981e-06
1.89799e-06
8.25528e-07
2.9465e-07
7.28334e-08
8.6696e-09
1.68755e-09
0.00266892
0.000649659
0.000514207
0.000560295
0.000584698
0.000581533
0.000553824
0.00050442
0.000432733
0.000351578
0.000270827
0.000196586
0.000134193
8.46168e-05
5.31942e-05
3.29642e-05
1.99437e-05
1.1707e-05
6.62799e-06
3.59142e-06
1.83401e-06
8.4333e-07
3.04925e-07
6.03219e-08
1.45044e-08
0.00401434
0.00173802
0.00141314
0.0014921
0.00153862
0.00153406
0.00147929
0.0013796
0.00123949
0.00105719
0.000867664
0.00068357
0.000514554
0.000366381
0.000241756
0.000153444
9.40514e-05
5.58993e-05
3.22252e-05
1.78965e-05
9.3841e-06
4.38234e-06
1.55462e-06
3.0082e-07
1.82525e-07
0.00562308
0.00376841
0.0027471
0.00241793
0.00231109
0.00222771
0.00211573
0.00196707
0.00178244
0.00156641
0.00132356
0.00107833
0.00084736
0.000640161
0.000456119
0.000306628
0.000196938
0.000121432
7.21303e-05
4.10859e-05
2.19333e-05
1.02605e-05
3.56526e-06
7.07076e-07
7.12707e-07
0.00731397
0.005935
0.00443611
0.0034362
0.00303473
0.00278186
0.00256099
0.00233521
0.00209487
0.00183941
0.00157291
0.00130227
0.0010307
0.000792206
0.000583466
0.000406759
0.000270057
0.000171515
0.000104507
6.07393e-05
3.27684e-05
1.52418e-05
5.18068e-06
1.0667e-06
1.54287e-06
0.00896645
0.00811655
0.00658981
0.00478246
0.00390475
0.00340304
0.0030221
0.00268311
0.00236262
0.00205034
0.00174389
0.00144413
0.00115545
0.000887607
0.0006456
0.000451534
0.000302378
0.000194185
0.000119747
7.02466e-05
3.79019e-05
1.73528e-05
5.73204e-06
1.23266e-06
2.34861e-06
0.0104768
0.0101589
0.00915771
0.00669538
0.00507413
0.00420994
0.00361336
0.00312433
0.00269287
0.00230058
0.00193778
0.00159681
0.00127482
0.0009764
0.000711055
0.000490657
0.000319428
0.000200225
0.000122004
7.09215e-05
3.77301e-05
1.68301e-05
5.3759e-06
1.21093e-06
2.80972e-06
0.0117689
0.0119115
0.0117668
0.00924084
0.00674499
0.00531801
0.00441151
0.00372354
0.00314709
0.00264488
0.0022025
0.00180529
0.00144008
0.00110301
0.000800073
0.00054473
0.00034656
0.00021054
0.000123379
6.89934e-05
3.52949e-05
1.50957e-05
4.64316e-06
1.09142e-06
2.85604e-06
0.0128105
0.0132469
0.0140552
0.0123422
0.00913849
0.00687032
0.0055161
0.00454527
0.0037715
0.00312183
0.00256858
0.00209247
0.00167089
0.00128708
0.000938147
0.000636981
0.000399905
0.000234049
0.000130799
6.95773e-05
3.39347e-05
1.39397e-05
4.17077e-06
9.90172e-07
2.6277e-06
0.0136175
0.0141195
0.0157556
0.015339
0.0123118
0.00915284
0.00706177
0.00568787
0.00464037
0.00378423
0.00307324
0.00247918
0.00197523
0.00153275
0.0011342
0.000782559
0.000495183
0.000283706
0.000152503
7.7117e-05
3.57467e-05
1.41016e-05
4.11472e-06
9.40254e-07
2.33917e-06
0.0142349
0.0145757
0.0167181
0.0177406
0.0158491
0.0122331
0.00922173
0.0072729
0.00585634
0.00472201
0.0037845
0.00301514
0.00237975
0.0018475
0.00138695
0.000982356
0.000641324
0.000378363
0.000199842
9.77666e-05
4.3609e-05
1.66587e-05
4.75806e-06
1.01299e-06
2.21228e-06
0.0147064
0.0147311
0.0169667
0.0191998
0.0189242
0.0160677
0.0123728
0.00949144
0.00754795
0.00604545
0.00481118
0.00378691
0.00295071
0.00226795
0.00170735
0.00123325
0.000834726
0.00051667
0.000283256
0.000138683
6.12814e-05
2.31396e-05
6.53876e-06
1.32946e-06
2.42105e-06
0.0150545
0.0147178
0.0166709
0.0196124
0.0210283
0.0196359
0.0163208
0.0127118
0.00990182
0.00788782
0.0062748
0.00492637
0.00380096
0.00288402
0.0021492
0.00155887
0.0010792
0.000698902
0.000411569
0.000209671
9.40444e-05
3.58902e-05
1.04216e-05
2.13103e-06
3.37936e-06
0.015281
0.0146406
0.0160694
0.0191299
0.0218641
0.0223007
0.0202275
0.0167683
0.0132101
0.0104271
0.0083183
0.0065733
0.00508958
0.00384487
0.00283765
0.00204332
0.00142322
0.000945643
0.000588619
0.000330401
0.000156197
6.18218e-05
1.85028e-05
3.96426e-06
5.93594e-06
0.0153865
0.0145606
0.0153863
0.0180723
0.0214676
0.0236036
0.0232916
0.0209093
0.0174658
0.0139392
0.0111192
0.00888427
0.00698365
0.00534445
0.00396263
0.00285528
0.00199272
0.00134233
0.000867207
0.000525044
0.000286046
0.000129045
4.32753e-05
1.07104e-05
9.95319e-06
0.0153836
0.014497
0.0147795
0.0168017
0.0201691
0.0234294
0.0249669
0.0242214
0.0217782
0.0184473
0.0149328
0.0120256
0.00964345
0.00757801
0.00577693
0.0042483
0.00301847
0.0020746
0.00138694
0.000896532
0.000551315
0.000314892
0.000158447
6.47125e-05
2.7772e-05
0.0153265
0.0144532
0.0143254
0.0156105
0.0184402
0.0220524
0.0250101
0.0261251
0.0252145
0.0228685
0.0197169
0.0162233
0.0132049
0.0106875
0.00848169
0.00653487
0.00486041
0.00349404
0.00245481
0.00169842
0.00116502
0.000800029
0.000568382
0.00046423
0.000551206
0.0153255
0.014457
0.0140463
0.0146716
0.0167188
0.0200049
0.0236183
0.0262963
0.0271987
0.0263191
0.0241714
0.0212578
0.0178376
0.0147391
0.0121519
0.00987577
0.00785591
0.00609625
0.00463955
0.00351826
0.0027071
0.00215584
0.00182618
0.00171082
0.00184035
0.0155495
0.0145908
0.0139581
0.0140536
0.0152985
0.0178506
0.021345
0.0248702
0.0273727
0.0282434
0.0275281
0.025645
0.0230099
0.0198214
0.0167244
0.0141241
0.0118869
0.00996251
0.00831017
0.00695386
0.00592937
0.00522544
0.00482114
0.00471218
0.00490965
0.0162125
0.0150083
0.0141216
0.0137838
0.0143217
0.0160092
0.018851
0.0224077
0.0258426
0.0282854
0.0292594
0.028798
0.0272273
0.0249027
0.0221151
0.0191402
0.0165149
0.0143955
0.0126407
0.0112193
0.010124
0.009344
0.00885171
0.00862634
0.00861776
0.0175348
0.0159231
0.0146731
0.0139133
0.0138447
0.0147102
0.0166714
0.0196457
0.0231879
0.0265622
0.0290393
0.0302092
0.0300639
0.0288504
0.0268869
0.0244643
0.021786
0.0192892
0.0171739
0.0154916
0.0142112
0.0132686
0.012611
0.0121581
0.0118785
0.0196602
0.0175665
0.01582
0.0145662
0.0139239
0.0140518
0.0151197
0.0172128
0.020208
0.0236935
0.027036
0.0296087
0.0310304
0.0312435
0.0304211
0.0288237
0.0267123
0.0243714
0.022048
0.0200861
0.018437
0.0171181
0.0160937
0.01533
0.0147945
0.0225167
0.0200848
0.0177904
0.015942
0.0146801
0.0141064
0.0143399
0.0154934
0.0176023
0.020535
0.0239317
0.0272508
0.0299422
0.0316378
0.0322283
0.0318086
0.0305835
0.0287804
0.0266914
0.0245978
0.022622
0.0209736
0.0196247
0.0185541
0.0177422
0.0256407
0.0233498
0.0206943
0.0182451
0.0163001
0.0149995
0.0144267
0.0146739
0.0158079
0.0178377
0.0206408
0.0239085
0.027181
0.0299763
0.031935
0.0328954
0.0328863
0.0320442
0.0305939
0.0287963
0.0268876
0.0250791
0.0234655
0.022092
0.0210047
0.0280792
0.0267275
0.0242749
0.0214949
0.0189335
0.0168878
0.015514
0.01487
0.0150457
0.0160696
0.017941
0.0205452
0.0236236
0.0267983
0.0296502
0.0318289
0.0331362
0.0335411
0.033137
0.0321011
0.030665
0.0290446
0.0274216
0.025922
0.0246299
0.0285872
0.0290142
0.027659
0.025229
0.0224407
0.019818
0.0176841
0.016196
0.0154336
0.0154634
0.0163022
0.0179375
0.0202681
0.0230902
0.0260963
0.0289258
0.031253
0.0328608
0.0336737
0.0337448
0.0331918
0.0322042
0.0309707
0.0296471
0.0283652
0.0262754
0.0288787
0.0294593
0.028336
0.026118
0.0234497
0.0208465
0.0186525
0.0170466
0.0161351
0.0159714
0.0165498
0.0178737
0.0198641
0.0223571
0.0251034
0.0278064
0.0301809
0.0320118
0.0331931
0.0337279
0.033703
0.0332438
0.0324823
0.0315712
0.0213845
0.025769
0.0285115
0.0294189
0.0287063
0.0268619
0.024448
0.0219651
0.0197661
0.0180573
0.0169787
0.0165606
0.0168396
0.0177996
0.0193881
0.0214753
0.0238674
0.026331
0.0286302
0.0305714
0.0320348
0.0329858
0.0334601
0.0335378
0.0333234
0.015365
0.0205064
0.0248011
0.0277125
0.0290082
0.0287958
0.0274322
0.0253899
0.0231275
0.020986
0.0192207
0.0179687
0.017294
0.0172565
0.0178091
0.0189355
0.0205438
0.0224915
0.0246012
0.0266893
0.0285945
0.0302036
0.0314603
0.0323596
0.0329354
0.0101216
0.0148818
0.0196361
0.0237641
0.0267786
0.0284225
0.0287072
0.0278669
0.0262721
0.0243062
0.0223099
0.0205399
0.0191482
0.0182468
0.0178628
0.0180238
0.0186464
0.0197172
0.0211382
0.0227857
0.0245238
0.0262305
0.0278088
0.0291954
0.0303571
0.00677529
0.0104835
0.0147582
0.019085
0.0229657
0.0259833
0.0278794
0.0285922
0.0282508
0.027118
0.0255106
0.0237357
0.0220284
0.0205706
0.0194664
0.0187827
0.0185207
0.0186953
0.0192091
0.0200474
0.0211397
0.0223996
0.023741
0.0250873
0.0263767
0.00545273
0.0080201
0.0113659
0.0151657
0.0190432
0.0226142
0.0255339
0.0275547
0.0285566
0.0286097
0.0279189
0.0267161
0.0252237
0.0236693
0.0222223
0.0210042
0.0200785
0.0194799
0.0191987
0.0192342
0.0195328
0.0200257
0.0207166
0.0215471
0.0224657
0.00556869
0.00732885
0.00978574
0.012801
0.0161588
0.0195889
0.0227868
0.0254476
0.0273602
0.0284532
0.0287658
0.0284216
0.0275896
0.0264573
0.0251954
0.0239431
0.0227751
0.0217475
0.0209197
0.0203194
0.0199344
0.0197495
0.0197737
0.0199338
0.0201966
0.00631163
0.00782526
0.00969421
0.0120339
0.0147624
0.0177155
0.0206888
0.0234295
0.025731
0.0274646
0.0285602
0.0290288
0.0289465
0.0284332
0.0276235
0.0266447
0.0255987
0.0245644
0.0236031
0.0227556
0.0220143
0.0213852
0.0208879
0.0205095
0.0202378
0.00713222
0.00868713
0.0103465
0.0122948
0.0146293
0.0171071
0.019692
0.0222382
0.0245384
0.0265029
0.0280312
0.0290698
0.0296193
0.0297268
0.0294709
0.0289437
0.0282338
0.027419
0.0265639
0.0257179
0.0249119
0.0241648
0.0234882
0.0228779
0.0223101
0.00739662
0.0092467
0.0111294
0.0130239
0.0150056
0.017111
0.0193694
0.0217661
0.0239566
0.0259159
0.0276095
0.0289606
0.0299411
0.0305499
0.0308134
0.0307809
0.030512
0.0300669
0.0295017
0.0288641
0.028191
0.0275101
0.0268404
0.0261934
0.0255797
0.00648789
0.00851136
0.0106797
0.0128601
0.0149682
0.0169577
0.0189719
0.0210337
0.0230586
0.0250193
0.0268629
0.0283814
0.0296376
0.0306186
0.0313174
0.0317502
0.0319446
0.0319371
0.0317672
0.0314727
0.0310863
0.0306353
0.0301417
0.0296217
0.0290894
0.00426417
0.00592389
0.00790326
0.0100962
0.012376
0.0146221
0.0166099
0.0185105
0.0203534
0.0221553
0.0238879
0.0254995
0.0270259
0.0283747
0.029407
0.0302236
0.0308202
0.0312194
0.0314483
0.0315318
0.0314889
0.0313397
0.0311026
0.0307934
0.0304279
0.00166065
0.00240083
0.00334827
0.00450593
0.00585678
0.00736722
0.00900803
0.0105641
0.012041
0.0134515
0.0148237
0.0161542
0.0174421
0.0186444
0.0196763
0.0206888
0.0214602
0.02209
0.0226086
0.0230141
0.0232824
0.0234265
0.0234571
0.0233826
0.0232168
0.000870046
0.00134129
0.00179665
0.00219272
0.0025196
0.00278377
0.00300218
0.00320802
0.00340499
0.00356109
0.00367078
0.00374718
0.00379607
0.00379712
0.00370251
0.00361231
0.00351988
0.00354631
0.003924
0.00440455
0.00494599
0.00549468
0.00603888
0.00658186
0.00711865
0.00113386
0.0016799
0.0022686
0.00227158
0.00296458
0.00402869
0.00535803
0.00603852
0.00696368
0.00881096
0.00916463
0.00963715
0.0117976
0.0118555
0.0120031
0.0144779
0.014323
0.014277
0.0171937
0.0168463
0.016642
0.0202211
0.0196665
0.0192757
0.0236334
0.0228735
0.02229
0.0272868
0.0263947
0.0256612
0.0306921
0.0298756
0.0291332
0.0329486
0.0324944
0.0319956
0.0332204
0.0333292
0.0332984
0.0312075
0.0318532
0.0323408
0.0274553
0.0284113
0.0292422
0.0233294
0.0241959
0.0250505
0.0205345
0.02095
0.0214293
0.0200786
0.0200192
0.0200135
0.021808
0.0214055
0.0210499
0.0250538
0.0245564
0.0240627
0.0286111
0.0281324
0.0276525
0.0300635
0.0296697
0.0292456
0.0230056
0.0227414
0.0224294
0.00759331
0.00804639
0.0084822
1.0964e-08
6.77856e-08
5.24165e-07
2.32772e-06
6.39791e-06
1.30345e-05
2.16967e-05
3.12413e-05
4.03603e-05
4.77663e-05
5.24155e-05
5.38585e-05
5.21722e-05
4.79637e-05
4.20243e-05
3.50603e-05
2.78606e-05
2.11004e-05
1.52393e-05
1.0514e-05
6.96342e-06
4.44946e-06
2.7456e-06
1.63682e-06
9.47798e-07
5.40619e-07
3.12697e-07
1.9516e-07
1.48629e-07
1.55415e-07
2.28292e-07
4.12846e-07
7.77189e-07
1.38312e-06
2.24384e-06
3.3187e-06
4.53128e-06
5.75767e-06
6.86563e-06
7.88765e-06
9.00217e-06
1.00979e-05
1.08237e-05
1.11863e-05
1.09562e-05
9.51306e-06
7.34222e-06
5.95358e-06
1.36032e-05
3.79697e-05
9.23224e-05
0.000195355
0.00036528
0.000614738
0.000941183
0.00131901
0.00171212
0.00208653
0.00241432
0.00267277
0.00283977
0.0029065
0.00287863
0.00276621
0.00258725
0.00235795
0.00209126
0.00180016
0.00149663
0.00119178
0.000897929
0.000631059
0.000398811
0.000215029
9.9329e-05
6.08322e-05
3.45523e-05
1.82918e-05
6.32023e-06
1.14403e-06
4.78242e-08
9.62112e-07
5.90955e-06
1.77469e-05
3.56611e-05
5.54786e-05
7.26117e-05
8.40681e-05
8.88035e-05
8.72255e-05
8.05253e-05
7.03368e-05
5.87121e-05
4.91716e-05
4.08899e-05
3.35254e-05
2.69855e-05
2.12805e-05
1.64342e-05
1.24488e-05
9.27192e-06
6.80871e-06
4.94647e-06
3.57068e-06
2.57517e-06
1.8687e-06
1.3787e-06
1.05323e-06
8.64076e-07
8.18098e-07
1.00176e-06
1.50222e-06
2.40615e-06
3.67568e-06
5.10537e-06
6.435e-06
7.48127e-06
8.35942e-06
9.58536e-06
1.14631e-05
1.47054e-05
1.97096e-05
2.64293e-05
3.51688e-05
4.69081e-05
6.34086e-05
8.87854e-05
0.000126782
0.000180394
0.000251714
0.000342377
0.000453333
0.000583259
0.00072839
0.000882573
0.001039
0.00119787
0.0013544
0.00150621
0.00165289
0.00179655
0.00194108
0.00209316
0.00223545
0.00235747
0.00245825
0.00253325
0.00257275
0.00255653
0.0024769
0.00232712
0.00209509
0.00177677
0.00138238
0.000943817
0.000517661
0.000178807
4.99713e-05
1.02017e-05
5.06334e-06
2.30792e-07
3.62496e-06
2.29688e-05
6.80842e-05
0.000133175
0.000203536
0.000265749
0.00031172
0.000338389
0.000346074
0.000336816
0.000313863
0.000280035
0.000240929
0.000203079
0.00016773
0.000135932
0.000108275
8.49231e-05
6.57606e-05
5.0294e-05
3.80361e-05
2.84942e-05
2.11968e-05
1.57134e-05
1.16703e-05
8.76075e-06
6.7555e-06
5.52671e-06
5.10234e-06
5.8146e-06
8.28628e-06
1.29118e-05
1.94392e-05
2.68204e-05
3.39046e-05
3.994e-05
4.59372e-05
5.66248e-05
7.29836e-05
9.62586e-05
0.000132531
0.00017924
0.000235543
0.000300181
0.000375465
0.000464576
0.000569686
0.0006929
0.000836892
0.00100434
0.00120398
0.0014406
0.00170636
0.00199534
0.00229729
0.00260321
0.00290232
0.00318583
0.00344654
0.00368071
0.00388552
0.00404489
0.00416041
0.00424234
0.00428932
0.00429749
0.00426075
0.00416939
0.00401169
0.00377399
0.00344226
0.00300723
0.00246987
0.00184731
0.00118367
0.000572482
0.0001605
2.40166e-05
1.01635e-05
1.00228e-06
8.29208e-06
5.13964e-05
0.0001476
0.000279289
0.000416236
0.000535385
0.000624933
0.000681639
0.000707159
0.000705296
0.000680285
0.000636302
0.000575053
0.000506434
0.000434647
0.000363748
0.000297505
0.000238359
0.000187654
0.000145679
0.000111811
8.50289e-05
6.42139e-05
4.82977e-05
3.63362e-05
2.75464e-05
2.13413e-05
1.74036e-05
1.58303e-05
1.73356e-05
2.39825e-05
3.70513e-05
5.59431e-05
7.79206e-05
0.000101231
0.000126698
0.000161623
0.000208309
0.000272061
0.00034842
0.00043535
0.000528814
0.000628477
0.000739449
0.000869775
0.00102724
0.00121882
0.00145158
0.00173638
0.00206608
0.00243591
0.00283549
0.00325062
0.00366413
0.00406087
0.00442831
0.00475759
0.00504367
0.00528411
0.00548013
0.00563431
0.00572811
0.00578118
0.00579495
0.0057678
0.00569643
0.0055756
0.00539772
0.00515297
0.0048297
0.0044161
0.00390316
0.00328754
0.00257407
0.00178505
0.000989652
0.000347646
5.10786e-05
1.30914e-05
3.18675e-06
1.67089e-05
9.9665e-05
0.000273076
0.000493816
0.000708404
0.000883754
0.00100764
0.00108084
0.00111005
0.00110359
0.00106908
0.00101219
0.000935441
0.000843765
0.000743563
0.000640005
0.000537942
0.000441886
0.000355543
0.000281165
0.000219262
0.000169175
0.000129548
9.87777e-05
7.52986e-05
5.77625e-05
4.51774e-05
3.71233e-05
3.41443e-05
3.8229e-05
5.29774e-05
8.26089e-05
0.000126494
0.000180042
0.000249117
0.000331487
0.000420256
0.0005158
0.000620289
0.000729048
0.000840345
0.000959552
0.0010979
0.00126868
0.00148457
0.00175588
0.00208924
0.00248562
0.00293779
0.00343054
0.00394512
0.00446124
0.00495982
0.00542626
0.00584868
0.00622031
0.00653922
0.00680653
0.00702467
0.00719662
0.00730699
0.0073763
0.00740828
0.00740185
0.00735354
0.00725771
0.00710613
0.00688789
0.00658941
0.00619517
0.00568981
0.00506302
0.00431469
0.00345449
0.00250239
0.00151169
0.000622906
0.000103569
1.44529e-05
8.24485e-06
3.1905e-05
0.000182466
0.000474042
0.000813255
0.00111188
0.00132964
0.00146245
0.00152309
0.00152836
0.00149346
0.00143027
0.00134717
0.00124886
0.0011354
0.00101345
0.000886868
0.000759908
0.000637187
0.000523221
0.000421578
0.000334259
0.000261731
0.000203121
0.000156853
0.000121068
9.40452e-05
7.46011e-05
6.26734e-05
6.03256e-05
7.28258e-05
0.000107779
0.000172469
0.000270876
0.000398575
0.000541815
0.000666743
0.000785675
0.000900876
0.00101335
0.00112685
0.00125407
0.00141227
0.00161925
0.00188988
0.00223391
0.00265537
0.00314821
0.00369712
0.0042811
0.00487654
0.00546007
0.00601157
0.00651734
0.0069696
0.00736627
0.00770844
0.00799864
0.00824013
0.00843585
0.00858826
0.0086927
0.00876618
0.00881196
0.00882921
0.00881424
0.00876
0.00865515
0.00848325
0.00822208
0.00784378
0.00731719
0.00661491
0.00572632
0.00466525
0.00347186
0.00221334
0.001027
0.000208537
1.45825e-05
1.80478e-05
5.85016e-05
0.000320898
0.000784923
0.00126348
0.00162714
0.00184771
0.0019481
0.00196173
0.00191676
0.0018337
0.00172691
0.00160607
0.0014768
0.00133999
0.00119931
0.00105726
0.000916342
0.000779604
0.000650606
0.000532876
0.000429159
0.000341029
0.000268206
0.000209642
0.000163784
0.00012901
0.000104542
9.18454e-05
9.69466e-05
0.000132643
0.000215445
0.000355121
0.000545494
0.0007479
0.00091568
0.00105181
0.00116608
0.00126806
0.00137183
0.00149678
0.0016654
0.0018986
0.00221182
0.00261311
0.00310336
0.00366583
0.0042807
0.00492232
0.00556391
0.00618153
0.00675657
0.00727833
0.00774234
0.00814882
0.00850069
0.00880179
0.00905631
0.00926834
0.00944164
0.00957144
0.00967518
0.00976056
0.0098308
0.00988657
0.00992601
0.00994378
0.00992961
0.00986632
0.00972757
0.00947571
0.00906072
0.00842468
0.00751119
0.00629783
0.00482414
0.00319985
0.00161339
0.000407907
2.01064e-05
3.39251e-05
0.00010368
0.000544645
0.00123721
0.00183851
0.00221057
0.00238075
0.00241354
0.00235939
0.00225135
0.00211098
0.00195297
0.00178754
0.00162131
0.00145707
0.00129652
0.00114138
0.000992401
0.000850501
0.000717281
0.000594898
0.000485561
0.000390899
0.000311818
0.000246747
0.000195294
0.000156699
0.000131745
0.000125716
0.000152542
0.000235751
0.000398899
0.000648988
0.000918192
0.00113815
0.00129636
0.00140619
0.00149009
0.00157433
0.00168699
0.00185515
0.0021016
0.00244103
0.00288054
0.00341286
0.00402056
0.00467478
0.00534721
0.00601017
0.00664134
0.00722462
0.0077509
0.00821735
0.00862517
0.008978
0.0092803
0.00953675
0.00975208
0.00993092
0.0100778
0.010196
0.0102993
0.0103948
0.0104867
0.0105776
0.010668
0.0107555
0.0108335
0.0108888
0.0108992
0.0108294
0.0106256
0.0102051
0.00945956
0.0082812
0.00662531
0.00459302
0.00247224
0.000758773
9.9409e-05
5.47662e-05
0.000179219
0.000890243
0.00183674
0.00248989
0.00280228
0.00288953
0.0028438
0.00271895
0.00254671
0.00234727
0.00213479
0.00191986
0.00171032
0.00151131
0.00132551
0.00115472
0.000998152
0.000854523
0.00072326
0.000604393
0.000498371
0.000405951
0.000327597
0.000263053
0.000211931
0.000175611
0.000158424
0.000173196
0.000245419
0.000409365
0.000693271
0.00102192
0.00130708
0.00150375
0.00161764
0.00168284
0.00174069
0.00183032
0.00198467
0.00222809
0.00257375
0.00303402
0.00358875
0.00421786
0.00489153
0.00557767
0.0062489
0.00688416
0.00746974
0.00799822
0.00846682
0.00887598
0.00922896
0.00953052
0.00978584
0.0100003
0.0101792
0.0103281
0.0104505
0.0105574
0.0106586
0.0107609
0.0108696
0.0109887
0.0111207
0.0112656
0.0114202
0.0115767
0.0117198
0.011823
0.0118417
0.0116973
0.0112644
0.0103611
0.00878609
0.00647298
0.00372246
0.001324
0.000371113
7.65969e-05
0.000306325
0.00138974
0.00254371
0.00315147
0.00337109
0.00337564
0.00325903
0.00307133
0.00284129
0.00258707
0.00232163
0.00205549
0.00179732
0.00155364
0.00133082
0.00113451
0.000963623
0.000814231
0.000684847
0.000573045
0.000475681
0.0003915
0.000320172
0.000261786
0.00021743
0.000192056
0.000196456
0.000254497
0.000403717
0.000686381
0.00104817
0.00139846
0.00165465
0.00179427
0.00185108
0.00188159
0.00193964
0.00206719
0.00229223
0.00262764
0.00308284
0.00364272
0.0042771
0.00495564
0.00564552
0.00631897
0.00695609
0.00754436
0.00807681
0.00855029
0.00896431
0.009321
0.00962461
0.00988033
0.0100937
0.0102707
0.0104171
0.0105393
0.0106436
0.0107411
0.0108402
0.0109481
0.0110709
0.0112136
0.0113799
0.0115714
0.0117872
0.0120233
0.0122698
0.0125088
0.0127083
0.0128109
0.0127124
0.0122241
0.0110334
0.00878289
0.00549104
0.00219234
0.00102883
9.56806e-05
0.000527727
0.00203251
0.00325518
0.00380262
0.00394857
0.0038861
0.00371002
0.00346901
0.00318944
0.00288688
0.00257237
0.00225609
0.00194637
0.00164987
0.00137416
0.00113188
0.000931045
0.000767296
0.000634963
0.000527428
0.000438559
0.000364406
0.000303279
0.000255613
0.000225656
0.000223445
0.000270093
0.000402184
0.000651105
0.00101133
0.00140457
0.00172883
0.00192125
0.00199261
0.00200447
0.00202726
0.00211633
0.00230666
0.00261465
0.00304742
0.00359296
0.00421924
0.00489271
0.00558031
0.00625398
0.00689354
0.00748642
0.00802558
0.00850742
0.00893071
0.0092964
0.00960757
0.00986876
0.0100853
0.0102631
0.0104084
0.010528
0.0106286
0.0107199
0.0108112
0.0109108
0.0110261
0.0111639
0.0113297
0.0115277
0.0117603
0.0120277
0.0123275
0.0126529
0.0129925
0.0133259
0.0136155
0.0137891
0.0137007
0.0130478
0.0112702
0.00781844
0.00349299
0.0021214
0.000111968
0.000842568
0.00273973
0.00401079
0.0044982
0.00457619
0.00445625
0.0042345
0.00395678
0.0036447
0.00330906
0.0029571
0.00259985
0.00224207
0.00188776
0.00154706
0.00123652
0.000973798
0.000766433
0.000610133
0.000494967
0.000409108
0.000344208
0.000296329
0.000266467
0.000262158
0.000299951
0.000407694
0.000618805
0.00094399
0.00134208
0.00171813
0.00197927
0.00209518
0.00211
0.00210331
0.00214723
0.00228881
0.00255229
0.00294761
0.00346213
0.0040666
0.00472601
0.00540593
0.00607754
0.00671975
0.00731891
0.00786722
0.0083606
0.00879716
0.00917684
0.0095014
0.00977431
0.0100002
0.0101845
0.0103334
0.0104534
0.0105519
0.010638
0.0107216
0.0108119
0.0109169
0.0110447
0.0112021
0.0113947
0.0116269
0.0119011
0.0122171
0.0125722
0.0129612
0.0133767
0.0138065
0.0142283
0.0145966
0.0148144
0.0146583
0.0135852
0.0105481
0.00532795
0.00344384
0.000127766
0.00127185
0.00355263
0.00483908
0.00525586
0.00526932
0.00510375
0.00485562
0.00456494
0.00424528
0.00390056
0.00353254
0.00314934
0.00275545
0.00234983
0.00194074
0.00154593
0.00118855
0.000892908
0.000675955
0.000524411
0.000423954
0.000360579
0.000325502
0.000318516
0.000348882
0.000435832
0.000606519
0.000881146
0.00124622
0.00163697
0.00195751
0.00213975
0.00218849
0.00217139
0.00217247
0.00225614
0.00246101
0.00280468
0.00327349
0.0038423
0.0044771
0.00514247
0.00580795
0.00645108
0.00705667
0.00761544
0.00812231
0.00857471
0.00897171
0.00931397
0.00960378
0.00984496
0.0100423
0.0102013
0.010328
0.0104293
0.0105137
0.0105924
0.0106754
0.0107716
0.0108898
0.011038
0.0112231
0.0114505
0.011724
0.0120448
0.0124111
0.0128192
0.0132639
0.0137395
0.014239
0.0147507
0.0152498
0.0156777
0.0158894
0.0154895
0.0133348
0.00777198
0.00476743
0.000149136
0.00186961
0.00450668