/*--------------------------------*- C++ -*----------------------------------*\
| =========                 |                                                 |
| \\      /  F ield         | OpenFOAM: The Open Source CFD Toolbox           |
|  \\    /   O peration     | Version:  v2012                                 |
|   \\  /    A nd           | Website:  www.openfoam.com                      |
|    \\/     M anipulation  |                                                 |
\*---------------------------------------------------------------------------*/
FoamFile
{
    version     2.0;
    format      ascii;
    class       volScalarField;
    location    "487";
    object      nut;
}
// * * * * * * * * * * * * * * * * * * * * * * * * * * * * * * * * * * * * * //

dimensions      [0 2 -1 0 0 0 0];


internalField   nonuniform List<scalar> 
6544
(
0.000362614
0.00227243
0.00310294
0.00320436
0.00321627
0.00321627
0.0032044
0.0031031
0.00227288
0.000362616
0.000274983
0.00168137
0.00286095
0.0031232
0.00316591
0.00316596
0.00312344
0.00286182
0.00168258
0.000275002
0.000215456
0.00132242
0.00261056
0.00302741
0.00311245
0.00311262
0.00302818
0.00261272
0.00132438
0.000215513
0.000173608
0.00107417
0.0023733
0.00292077
0.00305485
0.00305529
0.00292255
0.00237745
0.00107716
0.000173727
0.000143328
0.000889416
0.002157
0.00280747
0.00299279
0.00299373
0.00281096
0.00216401
0.000893758
0.000143544
0.000120811
0.000746782
0.00196348
0.00269134
0.00292654
0.00292831
0.00269747
0.00197442
0.000752784
0.000121168
0.000103589
0.0006338
0.00179137
0.00257525
0.00285671
0.00285981
0.00258526
0.0018076
0.000641852
0.000104146
9.00332e-05
0.000542474
0.00163811
0.00246109
0.00278407
0.00278913
0.00247656
0.00166137
0.000553065
9.08666e-05
7.90571e-05
0.000467463
0.00150104
0.00234992
0.00270935
0.00271727
0.00237297
0.00153349
0.000481189
8.02678e-05
6.99268e-05
0.000405043
0.00137775
0.00224196
0.00263317
0.00264516
0.00227552
0.00142212
0.000422669
7.16493e-05
6.21342e-05
0.000352444
0.0012658
0.0021371
0.00255601
0.00257366
0.00218496
0.0013258
0.000374994
6.45487e-05
5.53155e-05
0.000307641
0.001163
0.00203507
0.00247821
0.00250339
0.00210202
0.00124335
0.00033629
5.86636e-05
4.92199e-05
0.000269479
0.00106787
0.0019354
0.00239988
0.00243409
0.00202796
0.00117395
0.000305189
5.38011e-05
4.3699e-05
0.000236913
0.000979141
0.00183734
0.00232093
0.00236621
0.00196321
0.00111728
0.000280748
4.98444e-05
3.86753e-05
0.000208864
0.000895688
0.00174005
0.00224102
0.00229977
0.00190486
0.00107515
0.00026243
4.67338e-05
3.40556e-05
0.000184361
0.000816264
0.00164243
0.00215958
0.00223453
0.00185211
0.00104481
0.000250971
4.44642e-05
2.97462e-05
0.000162647
0.000739626
0.00154317
0.00207571
0.00217008
0.0018047
0.00102085
0.000244546
4.3101e-05
2.56652e-05
0.000143202
0.000664803
0.00144086
0.00198818
0.00210577
0.0017624
0.00100342
0.000241497
4.2682e-05
2.17581e-05
0.00012582
0.000591594
0.00133432
0.00189548
0.00204056
0.00172486
0.000993061
0.000242485
4.33714e-05
1.80085e-05
0.000110299
0.000520505
0.00122279
0.00179587
0.00197301
0.00169155
0.000990592
0.000248585
4.48491e-05
1.44228e-05
9.59069e-05
0.00045299
0.00110651
0.00168762
0.00190126
0.00166164
0.000999005
0.000271213
4.87624e-05
1.10622e-05
8.27558e-05
0.00039065
0.000987427
0.00156995
0.00182303
0.00163351
0.00101782
0.000307344
6.15548e-05
8.0619e-06
7.09769e-05
0.000334919
0.00086865
0.00144299
0.00173592
0.0016042
0.00104659
0.000359024
8.41845e-05
5.54963e-06
6.05511e-05
0.000286837
0.000753856
0.001308
0.00163836
0.00156928
0.00108359
0.00042411
0.000117618
3.58323e-06
5.14013e-05
0.000245797
0.000647192
0.00116816
0.0015294
0.00152685
0.00112012
0.000498879
0.000162507
2.16111e-06
4.34261e-05
0.000211299
0.000551953
0.00102802
0.00140911
0.00147358
0.0011512
0.0005803
0.00021886
1.22178e-06
3.6544e-05
0.00018279
0.000469949
0.000892953
0.00127934
0.00140673
0.00117238
0.000664496
0.00028613
6.58242e-07
3.06556e-05
0.000159621
0.00040146
0.000768155
0.00114389
0.00132475
0.00117951
0.000746555
0.00036272
3.46207e-07
2.56165e-05
0.000141076
0.000346037
0.000657817
0.00100846
0.0012282
0.00116878
0.00082062
0.000446428
2.28006e-07
2.13611e-05
0.000126511
0.000302695
0.000564577
0.000879542
0.00112032
0.00113767
0.000880402
0.000533781
2.47591e-07
1.78319e-05
0.00011536
0.000270222
0.00048953
0.000763289
0.0010068
0.00108608
0.000920016
0.000619294
2.71251e-07
1.49974e-05
0.000107254
0.00024747
0.000432551
0.000664525
0.000895049
0.00101703
0.000935456
0.000695677
2.88353e-07
1.29707e-05
0.000102159
0.000233571
0.000392801
0.000586272
0.000792736
0.000936768
0.000925817
0.000755449
2.89772e-07
1.16965e-05
9.96753e-05
0.000227555
0.000369045
0.000529819
0.000706572
0.00085384
0.000894258
0.000792921
2.81749e-07
1.04337e-05
9.81493e-05
0.000227817
0.000359741
0.000495121
0.000641453
0.000777586
0.000847974
0.000806335
2.63261e-07
8.76327e-06
9.56331e-05
0.000232381
0.000363133
0.000481321
0.000600313
0.000716585
0.000797099
0.000799032
2.38412e-07
7.17622e-06
9.24159e-05
0.000241342
0.000377665
0.000487165
0.000584445
0.000677598
0.000752818
0.000779253
2.15724e-07
5.95356e-06
8.76948e-05
0.000255469
0.00040123
0.000510692
0.000593699
0.000665077
0.000725456
0.000758555
2.03644e-07
5.06163e-06
8.14962e-05
0.00027268
0.000430565
0.000548456
0.000626247
0.000680969
0.00072301
0.000749382
1.99356e-07
4.50493e-06
7.66041e-05
0.000295951
0.000470412
0.000597309
0.000678625
0.000724617
0.000750285
0.000762667
1.91309e-07
4.20694e-06
7.10895e-05
0.000308968
0.000514212
0.000651786
0.000744665
0.000792046
0.000808115
0.000805853
1.67553e-07
3.9282e-06
6.22892e-05
0.000293437
0.000545307
0.000706394
0.000816298
0.000875708
0.000892688
0.000881373
1.29772e-07
3.21288e-06
4.95524e-05
0.000241218
0.000528268
0.000739262
0.000879493
0.000962962
0.000994255
0.000985011
8.68889e-08
2.09099e-06
3.21753e-05
0.000169864
0.000440606
0.000708351
0.000908001
0.00103268
0.00109468
0.00110344
5.08936e-08
9.91596e-07
1.54313e-05
8.95788e-05
0.000295939
0.000586482
0.000857701
0.00104937
0.00116331
0.00121066
3.16304e-08
3.9827e-07
6.17008e-06
3.71161e-05
0.0001494
0.00038716
0.000681379
0.000964009
0.00115624
0.00126674
2.67927e-08
2.51302e-07
3.76641e-06
2.00073e-05
6.75143e-05
0.000195294
0.000440845
0.00075216
0.00103351
0.00122809
3.19663e-08
2.69239e-07
3.80217e-06
1.80763e-05
4.73651e-05
0.000103863
0.000235891
0.000480854
0.000801426
0.00107408
4.69534e-08
3.58132e-07
4.92802e-06
2.22028e-05
5.10353e-05
8.77504e-05
0.000148306
0.000281818
0.000525764
0.000834522
7.11369e-08
5.09846e-07
7.03994e-06
2.99403e-05
6.2181e-05
9.59821e-05
0.000138015
0.000208719
0.000352346
0.000602386
9.76196e-08
7.43542e-07
1.04062e-05
4.00736e-05
7.399e-05
0.000107243
0.000148917
0.000208725
0.000303375
0.000464786
1.13494e-07
1.10323e-06
1.49716e-05
4.95027e-05
8.18066e-05
0.000114631
0.000160283
0.000227865
0.000323248
0.000453519
1.08504e-07
1.61992e-06
1.92564e-05
5.45758e-05
8.37917e-05
0.000116304
0.000164698
0.00024053
0.000352483
0.000494791
8.14528e-08
2.01643e-06
2.15989e-05
5.44752e-05
8.03624e-05
0.000111524
0.000160134
0.000236681
0.00035134
0.000508915
4.58883e-08
2.06638e-06
2.07601e-05
4.83705e-05
6.94041e-05
9.61266e-05
0.000138549
0.00020649
0.000314037
0.000472953
1.78879e-08
1.6414e-06
1.6421e-05
3.68945e-05
5.19218e-05
7.12016e-05
0.000101616
0.000151485
0.000233429
0.000363749
1.05699e-08
8.99991e-07
9.69319e-06
2.2158e-05
3.11253e-05
4.22366e-05
5.95643e-05
8.77917e-05
0.000134604
0.000212357
8.26193e-09
2.75375e-07
3.27707e-06
8.1009e-06
1.20776e-05
1.69553e-05
2.41487e-05
3.52973e-05
5.31351e-05
8.26184e-05
3.92911e-09
4.24059e-08
2.84449e-07
7.62022e-07
1.40302e-06
2.41681e-06
4.06399e-06
6.62394e-06
1.04559e-05
1.62734e-05
6.9316e-10
5.68673e-09
1.46506e-08
2.2933e-08
2.76562e-08
3.07121e-08
7.23235e-08
2.85743e-07
8.96538e-07
2.17626e-06
1.02556e-05
1.80808e-06
9.5787e-07
6.48667e-07
4.69403e-07
3.33533e-07
2.30653e-07
1.60641e-07
1.5566e-07
1.64843e-07
1.68242e-07
1.61678e-07
1.4941e-07
1.31102e-07
1.06849e-07
8.02491e-08
5.4291e-08
3.30152e-08
1.81466e-08
8.99319e-09
3.91158e-09
1.39613e-09
3.45105e-10
4.1079e-11
5.85514e-12
2.4914e-05
1.4977e-05
1.49596e-05
1.73167e-05
1.83886e-05
1.8375e-05
1.74724e-05
1.58129e-05
1.34069e-05
1.07192e-05
8.08969e-06
5.73151e-06
3.80398e-06
2.26754e-06
1.36003e-06
8.14199e-07
4.8348e-07
2.82982e-07
1.6173e-07
8.89625e-08
4.61482e-08
2.12964e-08
7.1151e-09
8.39113e-10
3.96962e-11
4.92194e-05
5.92697e-05
9.47363e-05
0.000133391
0.000154344
0.000161374
0.00015854
0.000148271
0.000132039
0.000110294
8.77133e-05
6.62018e-05
4.70928e-05
3.08807e-05
1.78587e-05
1.01592e-05
5.77376e-06
3.29166e-06
1.87587e-06
1.05083e-06
5.56015e-07
2.45501e-07
6.26363e-08
4.7724e-09
4.99541e-10
8.00781e-05
0.000113195
0.000191628
0.000281776
0.000348862
0.000380905
0.000385699
0.000371185
0.000342707
0.000303872
0.000256877
0.000206926
0.000157757
0.000111682
7.01309e-05
4.04357e-05
2.28383e-05
1.286e-05
7.25173e-06
4.0265e-06
2.06749e-06
8.14356e-07
1.65744e-07
1.13889e-08
1.95056e-09
0.00011666
0.000156294
0.000258064
0.000355032
0.000445423
0.000497252
0.000511115
0.000497597
0.000465728
0.000422291
0.000371763
0.00031663
0.000256307
0.000196532
0.000137444
8.46954e-05
4.89499e-05
2.76017e-05
1.54117e-05
8.35912e-06
4.0442e-06
1.40614e-06
2.49351e-07
1.71804e-08
4.22258e-09
0.000158784
0.000197551
0.00030607
0.000402824
0.000489273
0.000546574
0.000565567
0.000551451
0.000515131
0.000466599
0.000412617
0.000356862
0.000300233
0.000242074
0.000180006
0.000120768
7.31181e-05
4.18095e-05
2.31456e-05
1.21373e-05
5.45005e-06
1.69374e-06
2.75685e-07
1.97648e-08
6.42773e-09
0.000206383
0.000240862
0.000342854
0.000449434
0.000529613
0.000585499
0.000603938
0.000588393
0.000546954
0.000491204
0.000430578
0.000370474
0.000312672
0.000256449
0.000199945
0.000143261
9.02233e-05
5.17747e-05
2.81463e-05
1.4083e-05
5.83338e-06
1.65517e-06
2.54971e-07
1.93058e-08
7.6897e-09
0.000259294
0.00028536
0.000381861
0.0004945
0.000574186
0.000629579
0.000648615
0.000630156
0.000583577
0.000519873
0.000450386
0.000382895
0.000320594
0.000262665
0.000207224
0.000153228
0.000101298
5.92089e-05
3.12474e-05
1.46389e-05
5.55718e-06
1.45914e-06
2.15983e-07
1.72729e-08
7.81649e-09
0.000317336
0.000330192
0.000422759
0.000535336
0.000626997
0.000679975
0.000702123
0.000684031
0.000632576
0.00056053
0.000480675
0.000403017
0.000332614
0.000269727
0.000212425
0.00015915
0.000109053
6.49402e-05
3.34957e-05
1.47902e-05
5.22914e-06
1.30586e-06
1.90145e-07
1.55856e-08
7.19155e-09
0.000380299
0.000374939
0.000461042
0.000577419
0.000677913
0.000739051
0.000763855
0.000750028
0.000697017
0.000616899
0.000525011
0.000434002
0.000351705
0.00028042
0.000218965
0.000164875
0.000116007
7.15818e-05
3.7152e-05
1.59024e-05
5.37324e-06
1.29914e-06
1.8663e-07
1.48087e-08
6.40191e-09
0.000447607
0.000419851
0.000494588
0.000614834
0.000725646
0.000803746
0.000834039
0.000827307
0.000777794
0.00069296
0.000588471
0.000481022
0.000382126
0.000297674
0.000228217
0.000170861
0.000122367
8.00564e-05
4.3823e-05
1.91898e-05
6.46172e-06
1.54316e-06
2.18348e-07
1.60553e-08
6.05461e-09
0.000517547
0.000465743
0.000523205
0.000642566
0.000767908
0.000862223
0.000914154
0.000913882
0.000873667
0.000790625
0.000677279
0.000551832
0.000431703
0.000327653
0.000243784
0.00017826
0.000127019
8.59948e-05
5.17121e-05
2.47533e-05
8.86317e-06
2.16723e-06
3.02984e-07
2.11446e-08
6.62598e-09
0.0005865
0.000513277
0.00054826
0.000659297
0.000795537
0.000912063
0.00098764
0.00101163
0.000981856
0.000908556
0.000794286
0.000654867
0.000510702
0.000380223
0.000273756
0.000192532
0.000132632
8.89727e-05
5.61995e-05
3.03365e-05
1.23489e-05
3.28877e-06
4.84586e-07
3.40371e-08
9.24871e-09
0.000649014
0.000562042
0.000571978
0.000666588
0.00080559
0.000942804
0.00104651
0.00110313
0.00110044
0.00104239
0.000938182
0.00079458
0.000630422
0.00046916
0.000330822
0.000224186
0.000147371
9.43012e-05
5.86956e-05
3.3627e-05
1.57373e-05
5.04543e-06
8.38162e-07
6.3219e-08
1.62456e-08
0.000699082
0.000609932
0.0005964
0.000667937
0.000799389
0.000949659
0.00108146
0.0011729
0.0012127
0.00118647
0.00110242
0.000969945
0.000798509
0.000610472
0.000433285
0.000289013
0.000183652
0.000112291
6.6368e-05
3.72635e-05
1.88403e-05
7.43469e-06
1.70031e-06
1.66911e-07
2.724e-08
0.000732117
0.000653167
0.000622391
0.000667627
0.00078146
0.00093339
0.00108639
0.00121196
0.00129414
0.00132122
0.00127663
0.00117078
0.00101405
0.000817287
0.000606616
0.000413937
0.000262822
0.000157738
9.08352e-05
5.00374e-05
2.57085e-05
1.16133e-05
4.00626e-06
7.96976e-07
7.60056e-08
0.000747621
0.00068765
0.000648983
0.000669337
0.00075816
0.000899202
0.00106171
0.0012145
0.00133586
0.00141299
0.0014334
0.001379
0.00125923
0.00108673
0.000871406
0.000640541
0.000430404
0.000267838
0.000157785
8.9456e-05
4.90148e-05
2.59248e-05
1.33859e-05
7.25816e-06
5.0401e-06
0.000750541
0.000711501
0.000673973
0.000675038
0.000735955
0.000855313
0.00101321
0.00118136
0.00133413
0.00145445
0.00153133
0.0015529
0.00150198
0.00138307
0.00121309
0.000996392
0.000756306
0.000529706
0.0003488
0.00022297
0.000142458
9.31615e-05
6.41513e-05
4.85063e-05
4.21099e-05
0.000750696
0.000727347
0.000695904
0.000684944
0.000719809
0.000810851
0.000950773
0.00111917
0.00129112
0.00144546
0.00156811
0.00164969
0.001681
0.00165091
0.00155446
0.00141327
0.00122856
0.00101405
0.000795971
0.000607585
0.000466503
0.000368722
0.000305236
0.000269437
0.000256974
0.000760591
0.000743072
0.000716621
0.000699062
0.000712674
0.000773802
0.000886073
0.00103951
0.00121479
0.00139026
0.00154807
0.00167619
0.001767
0.00181525
0.00181653
0.00176336
0.00167196
0.00155215
0.00140493
0.00124536
0.00110123
0.000987793
0.000908774
0.000865809
0.000854483
0.000792402
0.000770273
0.00074278
0.000719601
0.000716557
0.000750015
0.000830098
0.00095655
0.00111859
0.00129863
0.00147786
0.00164076
0.00177686
0.0018801
0.00194791
0.00197984
0.00198056
0.00195292
0.00191091
0.00185475
0.00179045
0.00173203
0.00169255
0.00167483
0.00169005
0.000855003
0.000821195
0.000785019
0.000752841
0.00073479
0.000743788
0.000791554
0.000884136
0.00101921
0.00118625
0.00136956
0.00155259
0.00172152
0.00186692
0.00198351
0.00206957
0.00212805
0.00216551
0.00219611
0.0022286
0.00226123
0.00228638
0.00230625
0.00233629
0.00238989
0.000951141
0.000904797
0.000854868
0.000808684
0.000773931
0.000759998
0.000777157
0.000833751
0.00093321
0.00107231
0.00124136
0.00142637
0.00161255
0.00178734
0.00194177
0.00207045
0.00216526
0.002196
0.00227495
0.00237082
0.00243952
0.00251812
0.00260411
0.0026705
0.00272733
0.00107426
0.00102227
0.00095976
0.00089719
0.000843167
0.000805829
0.00079347
0.000814449
0.000874669
0.000976059
0.00111522
0.00128327
0.00146777
0.00165547
0.00183469
0.00199641
0.00213468
0.00220236
0.00224017
0.00232378
0.00244157
0.00256999
0.00266967
0.00278189
0.00288087
0.00120465
0.00116203
0.00109675
0.00102224
0.000949933
0.000889096
0.000848247
0.000834296
0.000854786
0.000913829
0.00101271
0.00114791
0.00131144
0.00149247
0.0016791
0.00186019
0.00202673
0.00217242
0.00226139
0.00229624
0.00236908
0.00247408
0.00259456
0.00272133
0.00284787
0.00130725
0.00129598
0.00124672
0.00117413
0.00109222
0.00101287
0.0009462
0.000900339
0.00088227
0.000898327
0.00095195
0.0010439
0.00117087
0.00132609
0.00150008
0.00168204
0.00186158
0.00203003
0.00218149
0.00231362
0.00237789
0.00243129
0.00251058
0.00260963
0.00271948
0.00133816
0.00138268
0.00137401
0.00132568
0.0012523
0.00116787
0.00108472
0.0010134
0.000962111
0.000938048
0.00094674
0.000990693
0.00107128
0.00118591
0.00132872
0.00149132
0.00166419
0.00183803
0.00200488
0.00215924
0.00229827
0.00242229
0.00252811
0.00258393
0.0026513
0.0012648
0.0013829
0.00143722
0.00143778
0.00139711
0.00132903
0.00124708
0.00116381
0.0010898
0.00103335
0.00100205
0.00100025
0.00103173
0.00109738
0.00119563
0.00132157
0.0014681
0.00162707
0.00179041
0.00195114
0.00210407
0.00224631
0.0023769
0.00249627
0.00260597
0.00109127
0.00128327
0.00141026
0.00147648
0.00148996
0.00146148
0.0014034
0.00132844
0.00124869
0.00117416
0.00111396
0.00107485
0.0010617
0.00107897
0.00112655
0.00120441
0.001309
0.00143466
0.00157461
0.00172205
0.00187099
0.00201687
0.00215669
0.00228875
0.00241215
0.000874756
0.00111414
0.0013023
0.0014337
0.00150983
0.00153637
0.00152187
0.00147666
0.00141204
0.00133873
0.00126665
0.00120441
0.00115849
0.00113465
0.00113593
0.00116482
0.0012191
0.00129829
0.00139832
0.00151403
0.00163985
0.00177089
0.00190311
0.00203352
0.00215949
0.000697796
0.000941422
0.00115981
0.00133675
0.00146611
0.00154769
0.00158489
0.00158361
0.00155185
0.00149892
0.00143444
0.00136749
0.00130558
0.00125536
0.00122171
0.00120845
0.00121698
0.00124865
0.00130015
0.00137073
0.00145723
0.00155574
0.00166238
0.00177365
0.00188623
0.000628379
0.000837872
0.0010488
0.00123924
0.00139759
0.00151818
0.00159951
0.00164241
0.0016251
0.00158357
0.00156061
0.00153315
0.00147378
0.00141548
0.00136409
0.00132432
0.00129923
0.00129089
0.00129969
0.00132597
0.00136773
0.00142209
0.00148876
0.00156489
0.00164758
0.000660476
0.000838577
0.0010217
0.00119711
0.00135552
0.00148955
0.00159418
0.00159397
0.00152872
0.00146579
0.00141363
0.00137559
0.00135271
0.00134775
0.00136549
0.00141308
0.00143418
0.00140442
0.00138506
0.00137771
0.00138223
0.00139815
0.00142576
0.00146197
0.00150499
0.000702004
0.000903415
0.00107616
0.00123173
0.00137374
0.00149966
0.0016056
0.00161485
0.0015423
0.00146353
0.00138956
0.00132554
0.00127423
0.00123702
0.00121489
0.00120989
0.00122392
0.00125974
0.00132415
0.00142831
0.00147344
0.00146631
0.001466
0.00147215
0.0014841
0.000681688
0.000909469
0.00112298
0.00129463
0.00143469
0.00154907
0.00164648
0.00171629
0.00164696
0.00155865
0.00146936
0.00138544
0.00131145
0.00125012
0.00120223
0.00116805
0.00114823
0.00114376
0.00115628
0.00118798
0.00123979
0.00131697
0.00143013
0.00155384
0.00155148
0.000555562
0.000792509
0.00104814
0.00127795
0.00144476
0.00156877
0.00166822
0.00174857
0.00177825
0.00169648
0.00160421
0.00151054
0.00142123
0.00134156
0.00127494
0.0012213
0.00118056
0.00115282
0.00113831
0.00113726
0.00115049
0.00117898
0.00122388
0.00128749
0.0013677
0.000338599
0.000517136
0.000750388
0.00100898
0.00124841
0.00141288
0.00153526
0.00163157
0.00170695
0.00176368
0.00172964
0.0016435
0.00155489
0.00147088
0.00139466
0.00132913
0.00127544
0.00123379
0.00120395
0.00118561
0.00117884
0.00118352
0.00119968
0.00122779
0.00126912
0.000132394
0.000208505
0.000323291
0.000481364
0.000675215
0.000879348
0.00102572
0.00113814
0.00123052
0.00131005
0.00137696
0.00143186
0.00147706
0.00150757
0.00144322
0.00138088
0.00133029
0.00128955
0.00125732
0.00123323
0.00121857
0.00121262
0.00121511
0.00122565
0.00124382
2.52339e-05
3.83712e-05
5.81857e-05
8.69751e-05
0.000126765
0.000178961
0.000241953
0.000298538
0.000343862
0.000386589
0.00042759
0.000466864
0.000504207
0.000538092
0.000565725
0.000591504
0.000610977
0.000626257
0.000637957
0.000646002
0.00065036
0.000651335
0.000649206
0.00064425
0.000636792
4.11742e-06
6.34331e-06
8.49134e-06
1.03574e-05
1.18959e-05
1.31383e-05
1.41647e-05
1.51315e-05
1.60561e-05
1.67885e-05
1.73029e-05
1.76612e-05
1.78904e-05
1.78953e-05
1.74517e-05
1.70287e-05
1.65952e-05
1.67191e-05
1.84899e-05
2.07402e-05
2.32721e-05
2.58339e-05
2.83709e-05
3.08983e-05
3.33932e-05
5.36389e-06
7.94086e-06
1.07147e-05
4.24303e-05
5.28042e-05
7.8421e-05
0.000262373
0.000304127
0.00041209
0.000890111
0.0009995
0.00122432
0.00177168
0.00192403
0.00216124
0.00248587
0.00265042
0.0028379
0.0028149
0.00295513
0.00315778
0.00298158
0.00310504
0.00326386
0.00296692
0.00308794
0.00322377
0.00282895
0.00293451
0.00304942
0.00272825
0.00280155
0.00288009
0.00269979
0.0027818
0.00282406
0.00251723
0.00261453
0.0026613
0.00226395
0.00228439
0.00230366
0.00198669
0.00204524
0.00203534
0.00172533
0.00180437
0.00188392
0.00154942
0.00159838
0.0016513
0.00149916
0.00151914
0.00154232
0.00154957
0.0015514
0.0015553
0.00146515
0.00159236
0.00162703
0.00131884
0.00137567
0.00144205
0.00126816
0.00129539
0.00132784
0.000628304
0.000618326
0.000606965
3.55962e-05
3.76964e-05
3.9714e-05
3.89883e-11
3.21187e-10
2.48364e-09
1.10293e-08
3.03148e-08
6.17599e-08
1.02802e-07
1.48024e-07
1.91228e-07
2.26315e-07
2.48341e-07
2.55177e-07
2.47188e-07
2.2725e-07
1.99111e-07
1.66117e-07
1.32006e-07
9.99764e-08
7.22066e-08
4.98177e-08
3.29943e-08
2.10827e-08
1.30094e-08
7.75567e-09
4.49093e-09
2.5616e-09
1.48164e-09
9.24722e-10
7.04245e-10
7.36399e-10
1.08171e-09
1.95618e-09
3.68253e-09
6.55361e-09
1.06319e-08
1.57248e-08
2.14704e-08
2.72812e-08
3.2531e-08
3.73735e-08
4.26542e-08
4.7846e-08
5.12851e-08
5.30028e-08
5.19127e-08
4.50749e-08
3.47891e-08
2.82095e-08
6.44544e-08
1.79901e-07
4.37392e-07
9.2539e-07
1.7299e-06
2.91025e-06
4.45362e-06
6.23815e-06
8.09277e-06
9.85731e-06
1.14006e-05
1.26164e-05
1.34015e-05
1.37151e-05
1.35841e-05
1.30557e-05
1.22142e-05
1.11353e-05
9.87958e-06
8.50785e-06
7.0764e-06
5.63743e-06
4.24921e-06
2.98745e-06
1.88861e-06
1.01856e-06
4.70582e-07
2.88215e-07
1.6371e-07
8.66695e-08
2.99468e-08
4.06819e-09
1.36104e-10
1.36582e-08
1.43119e-07
4.90977e-07
1.03028e-06
1.63191e-06
2.14811e-06
2.48115e-06
2.59991e-06
2.5234e-06
2.29587e-06
1.96993e-06
1.58024e-06
1.27824e-06
1.03355e-06
8.29631e-07
6.58342e-07
5.15269e-07
3.97353e-07
3.02338e-07
2.27304e-07
1.68894e-07
1.24305e-07
9.09616e-08
6.65058e-08
4.89125e-08
3.6565e-08
2.83046e-08
2.35267e-08
2.24412e-08
2.76792e-08
4.18002e-08
6.73615e-08
1.03321e-07
1.43699e-07
1.8085e-07
2.09368e-07
2.32464e-07
2.6463e-07
3.14194e-07
4.00968e-07
5.33713e-07
7.08144e-07
9.14115e-07
1.14118e-06
1.42245e-06
1.83822e-06
2.43697e-06
3.25133e-06
4.29871e-06
5.61403e-06
7.24781e-06
9.22439e-06
1.15597e-05
1.42892e-05
1.74662e-05
2.11708e-05
2.5462e-05
3.04976e-05
3.65015e-05
4.37295e-05
5.21942e-05
6.12003e-05
6.83552e-05
7.35859e-05
7.79229e-05
8.11401e-05
8.28531e-05
8.2546e-05
7.98865e-05
7.4586e-05
6.64114e-05
5.54484e-05
4.2275e-05
2.81111e-05
1.48203e-05
4.58511e-06
1.04141e-06
1.38553e-07
1.44099e-08
6.56817e-10
5.6898e-08
8.58904e-07
3.83269e-06
9.22096e-06
1.58957e-05
2.23714e-05
2.74511e-05
3.04753e-05
3.13058e-05
3.016e-05
2.74664e-05
2.34755e-05
1.88174e-05
1.47062e-05
1.13206e-05
8.64741e-06
6.58033e-06
4.99843e-06
3.80098e-06
2.89592e-06
2.20759e-06
1.68335e-06
1.28498e-06
9.83768e-07
7.58264e-07
5.92981e-07
4.7792e-07
4.09695e-07
3.9538e-07
4.64699e-07
6.81359e-07
1.08667e-06
1.65864e-06
2.29234e-06
2.86567e-06
3.29348e-06
3.65486e-06
4.32496e-06
5.24111e-06
6.2191e-06
7.39073e-06
8.59101e-06
9.75911e-06
1.09507e-05
1.24058e-05
1.43105e-05
1.67843e-05
1.99736e-05
2.40828e-05
2.94279e-05
3.65177e-05
4.59001e-05
5.8156e-05
7.41921e-05
9.48315e-05
0.000120793
0.00015231
0.000188844
0.000228371
0.000266812
0.000298591
0.000316722
0.00032457
0.000326396
0.000322702
0.000313431
0.000298636
0.000278516
0.000253452
0.000224093
0.000191388
0.000156585
0.000121147
8.65338e-05
5.40537e-05
2.54464e-05
5.76989e-06
3.83541e-07
2.89245e-08
2.85243e-09
1.28282e-07
1.92728e-06
8.99734e-06
2.31438e-05
4.3027e-05
6.55446e-05
8.71266e-05
0.000104667
0.000116103
0.000120579
0.000118259
0.000109694
9.46446e-05
7.71848e-05
6.04504e-05
4.61294e-05
3.46744e-05
2.58723e-05
1.92901e-05
1.44487e-05
1.08971e-05
8.28394e-06
6.35373e-06
4.92438e-06
3.86801e-06
3.09812e-06
2.56379e-06
2.2548e-06
2.22359e-06
2.61358e-06
3.83968e-06
6.19546e-06
9.51901e-06
1.30591e-05
1.61288e-05
1.84643e-05
2.05705e-05
2.15492e-05
2.23032e-05
2.32182e-05
2.44142e-05
2.60079e-05
2.81632e-05
3.11923e-05
3.55106e-05
4.15843e-05
4.99985e-05
6.15789e-05
7.74739e-05
9.88478e-05
0.000127173
0.000163927
0.000210658
0.000268246
0.000335328
0.000408516
0.000481793
0.000547793
0.000599799
0.000634154
0.00065078
0.00064909
0.00063691
0.000615513
0.000585373
0.00054706
0.000501432
0.00044968
0.000393348
0.000334324
0.00027476
0.000216917
0.000162897
0.000114329
7.2162e-05
3.699e-05
1.11805e-05
8.19517e-07
3.72567e-08
9.06926e-09
2.52768e-07
3.5875e-06
1.63615e-05
4.23295e-05
8.03736e-05
0.000125829
0.000172274
0.000213395
0.000244467
0.000262953
0.000268252
0.000260689
0.000239736
0.000207311
0.000170213
0.00013411
0.000102477
7.67514e-05
5.69314e-05
4.21854e-05
3.14177e-05
2.36158e-05
1.79703e-05
1.38805e-05
1.09193e-05
8.79854e-06
7.35125e-06
6.55312e-06
6.61401e-06
8.13148e-06
1.21083e-05
1.96126e-05
2.9568e-05
3.88172e-05
4.6127e-05
4.87069e-05
4.72021e-05
4.53487e-05
4.43287e-05
4.50941e-05
4.72739e-05
5.08967e-05
5.65519e-05
6.50483e-05
7.74193e-05
9.49969e-05
0.000119498
0.000153028
0.000197935
0.00025672
0.000331245
0.000421767
0.000526206
0.000639335
0.000752398
0.000855644
0.000941491
0.00100598
0.00104857
0.0010709
0.00106989
0.00105404
0.00102502
0.000982969
0.000927955
0.000860388
0.00078125
0.000692315
0.000596301
0.00049684
0.000398226
0.000305005
0.000221205
0.000149549
9.12899e-05
4.69177e-05
1.60342e-05
1.54571e-06
4.11315e-08
2.34641e-08
4.72647e-07
6.43007e-06
2.89037e-05
7.48943e-05
0.000142624
0.00022267
0.000302039
0.000369317
0.000417771
0.000445401
0.000453249
0.000443393
0.000417094
0.000373183
0.000318817
0.000260809
0.000205477
0.000157196
0.000117952
8.76693e-05
6.50934e-05
4.86169e-05
3.6721e-05
2.81752e-05
2.20589e-05
1.77369e-05
1.48499e-05
1.33992e-05
1.40198e-05
1.83657e-05
2.85904e-05
4.50105e-05
6.35048e-05
7.632e-05
7.90021e-05
7.57043e-05
7.16621e-05
6.90809e-05
6.91909e-05
7.16853e-05
7.7029e-05
8.60882e-05
0.000100177
0.000121006
0.000150748
0.000192123
0.000248196
0.000322038
0.000416319
0.000532416
0.00066843
0.000818024
0.000971627
0.0011185
0.00124928
0.00135827
0.00144356
0.00150565
0.00154585
0.00156523
0.00156137
0.00154114
0.00150497
0.00145203
0.00138128
0.00129185
0.00118342
0.00105687
0.000914904
0.000762519
0.000606701
0.000456257
0.000321217
0.000209249
0.000123213
6.18649e-05
2.21588e-05
2.77538e-06
4.15003e-08
5.13619e-08
8.55321e-07
1.1456e-05
5.15161e-05
0.000133402
0.000250177
0.000378409
0.000492346
0.000576484
0.000627187
0.000647883
0.00064426
0.000621432
0.000582443
0.000527044
0.000459891
0.00038671
0.000313709
0.000246475
0.000188836
0.000142302
0.000106421
7.96517e-05
6.00883e-05
4.59553e-05
3.58554e-05
2.87876e-05
2.42452e-05
2.24995e-05
2.52537e-05
3.61303e-05
5.78051e-05
8.40335e-05
0.000103196
0.000108803
0.000105446
9.99198e-05
9.5961e-05
9.4847e-05
9.73447e-05
0.00010424
0.000116849
0.000136991
0.000167061
0.000210061
0.000269663
0.000349239
0.000452117
0.000580314
0.000733511
0.000907583
0.00109366
0.00127984
0.00145487
0.00161066
0.00174311
0.00185143
0.00193658
0.00199988
0.00204217
0.00205842
0.00205719
0.0020405
0.00200786
0.00195772
0.00188779
0.00179524
0.00167695
0.00153034
0.00135471
0.00115268
0.000931212
0.000704168
0.000492372
0.000314118
0.000178942
8.67636e-05
3.10988e-05
4.76568e-06
5.72204e-08
9.65458e-08
1.51845e-06
2.05736e-05
9.3011e-05
0.000236035
0.000421489
0.00059658
0.000725722
0.000801494
0.00083199
0.000828931
0.00080238
0.000759384
0.000703898
0.000636825
0.00055991
0.000477893
0.000395575
0.000317847
0.000248826
0.000190966
0.000144793
0.000109351
8.29813e-05
6.36492e-05
4.97554e-05
4.01782e-05
3.45847e-05
3.41556e-05
4.25864e-05
6.45902e-05
9.64074e-05
0.00012454
0.000136477
0.000135494
0.000129373
0.000123751
0.000121055
0.000122873
0.000130665
0.000146178
0.000171732
0.000210262
0.00026548
0.000341414
0.00044217
0.000570292
0.000726695
0.000909029
0.00111123
0.00132333
0.00153322
0.00172964
0.00190495
0.00205567
0.00218141
0.00228332
0.00236291
0.00242133
0.00245919
0.0024754
0.00247719
0.00246626
0.0024424
0.00240424
0.00234932
0.00227375
0.00217213
0.00203767
0.00186341
0.00164471
0.00137971
0.00107955
0.000772094
0.00049437
0.000276623
0.000129646
4.54129e-05
7.9722e-06
2.82887e-07
1.55854e-07
2.69043e-06
3.74025e-05
0.00016751
0.000398904
0.000649433
0.000840242
0.00095058
0.000993964
0.000990728
0.00095744
0.000905357
0.000841498
0.000769842
0.000692052
0.000608206
0.000521792
0.000436408
0.000355711
0.000283175
0.000221152
0.000170425
0.000130508
0.000100098
7.75491e-05
6.1302e-05
5.06111e-05
4.60253e-05
5.06407e-05
6.98522e-05
0.00010323
0.000139166
0.000159602
0.00016397
0.0001591
0.000152029
0.000147248
0.000147508
0.000154995
0.000171989
0.000201213
0.000245973
0.000310837
0.000399511
0.000516171
0.000663269
0.000840237
0.00104309
0.00126428
0.00149348
0.00171926
0.00193122
0.00212131
0.00228553
0.00242335
0.00253608
0.00262555
0.00269356
0.00274163
0.00276851
0.00278014
0.00278084
0.00277238
0.0027553
0.00272922
0.00269263
0.0026425
0.00257369
0.00247827
0.00234512
0.00216013
0.00190908
0.00158206
0.00119346
0.000792219
0.00044675
0.00020491
6.94312e-05
1.2976e-05
1.05583e-06
2.17975e-07
4.8486e-06
6.7911e-05
0.000287036
0.000604279
0.000879547
0.00104915
0.00112231
0.00112876
0.00109402
0.00103493
0.00096159
0.000880013
0.000793991
0.000705959
0.00061668
0.000527571
0.000441706
0.000361375
0.000290061
0.000229631
0.000179839
0.000140048
0.000109222
8.61637e-05
6.99714e-05
6.09574e-05
6.14801e-05
7.65351e-05
0.000107877
0.000147512
0.000176144
0.000188302
0.000187365
0.000180289
0.000173383
0.000171183
0.000176938
0.000193543
0.000224101
0.000272111
0.000342374
0.000439048
0.000565618
0.00072426
0.000913708
0.00112878
0.00136112
0.00160082
0.00183736
0.00206079
0.0022627
0.00243796
0.00258526
0.00270568
0.00280117
0.00287387
0.00292582
0.00295891
0.00297393
0.00297738
0.00297271
0.00296201
0.0029466
0.0029271
0.0029033
0.00287379
0.00283532
0.00278209
0.0027041
0.00258541
0.00240226
0.00212488
0.00173076
0.00123715
0.00073222
0.000338132
0.000111661
2.10885e-05
2.92539e-06
2.72278e-07
8.98815e-06
0.000114407
0.000418409
0.000797317
0.00107534
0.00121468
0.00125153
0.00122674
0.00116752
0.00108908
0.000999531
0.000903503
0.000805122
0.000706854
0.000609445
0.000515364
0.00042778
0.000349106
0.000281208
0.00022464
0.000178513
0.000141663
0.000113058
9.20113e-05
7.894e-05
7.57851e-05
8.66691e-05
0.000114346
0.000151904
0.00018595
0.000206376
0.000211943
0.000207312
0.000199302
0.000194206
0.000196838
0.00021098
0.000240149
0.000288053
0.000359379
0.000458729
0.00058904
0.000752241
0.000946836
0.00116745
0.00140558