/*--------------------------------*- C++ -*----------------------------------*\
| =========                 |                                                 |
| \\      /  F ield         | OpenFOAM: The Open Source CFD Toolbox           |
|  \\    /   O peration     | Version:  v2012                                 |
|   \\  /    A nd           | Website:  www.openfoam.com                      |
|    \\/     M anipulation  |                                                 |
\*---------------------------------------------------------------------------*/
FoamFile
{
    version     2.0;
    format      ascii;
    class       volScalarField;
    location    "487";
    object      omega;
}
// * * * * * * * * * * * * * * * * * * * * * * * * * * * * * * * * * * * * * //

dimensions      [0 0 -1 0 0 0 0];


internalField   nonuniform List<scalar> 
6544
(
367.667
69.313
52.4293
51.0531
50.9326
50.9326
51.0527
52.427
69.3007
367.667
358.15
79.0072
50.701
47.3258
46.8829
46.8825
47.3234
50.6891
78.9622
358.152
351.814
84.224
49.5203
44.3135
43.4899
43.4887
44.3064
49.4903
84.1332
351.82
347.423
86.9335
48.5665
41.8386
40.6235
40.6205
41.8227
48.507
86.7703
347.435
344.278
88.2668
47.7085
39.7689
38.181
38.1746
39.7387
47.6036
87.9923
344.3
341.956
88.7691
46.8893
38.0071
36.0815
36.0698
37.9548
46.718
88.3358
341.993
340.191
88.7869
46.0959
36.4835
34.2614
34.2413
36.3988
45.8296
88.1271
340.248
338.808
88.5552
45.3348
35.1489
32.6703
32.6382
35.0183
44.9347
87.5728
338.893
337.692
88.2318
44.6111
33.9687
31.2691
31.2195
33.7741
44.0306
86.7909
337.815
336.767
87.9147
43.9365
32.9211
30.0272
29.953
32.6364
43.1078
85.8304
336.941
335.979
87.6764
43.3363
31.9919
28.9212
28.8125
31.5816
42.1564
84.6894
336.223
335.291
87.5747
42.832
31.1707
27.9324
27.7778
30.589
41.1652
83.3456
335.629
334.677
87.5616
42.4331
30.4511
27.0471
26.8374
29.6355
40.1172
81.759
335.138
334.122
87.6264
42.1517
29.8315
26.2553
25.9773
28.7069
38.9941
79.8588
334.74
333.618
87.844
42.0052
29.3142
25.5504
25.1882
27.82
37.7432
77.5591
334.427
333.155
88.3441
42.0274
28.9076
24.9299
24.4639
26.9741
36.4177
74.6696
334.199
332.723
89.2678
42.2691
28.6275
24.395
23.8006
26.1651
35.1382
71.7981
334.062
332.315
90.7456
42.7936
28.4975
23.9516
23.1971
25.3899
33.8964
69.2825
334.02
331.925
92.8632
43.6598
28.5482
23.611
22.6559
24.6464
32.6774
66.8927
334.089
331.551
95.5741
44.9132
28.8178
23.3902
22.1826
23.9343
31.4613
64.3933
334.238
331.194
98.1812
46.5401
29.3463
23.3127
21.7862
23.2518
30.1616
59.2157
208.369
330.86
100.515
48.5059
30.1631
23.4007
21.4779
22.602
28.7878
53.4004
143.159
330.561
102.315
50.7653
31.2879
23.681
21.2791
21.9955
27.3294
47.2838
105.958
330.312
103.402
53.2859
32.7208
24.1833
21.2116
21.4718
25.8218
41.6611
82.6215
330.116
103.597
55.7823
34.4339
24.9306
21.3
21.0448
24.4509
36.8645
66.6811
329.975
102.764
58.0972
36.3898
25.9388
21.5733
20.7434
23.259
32.8631
55.0977
329.882
100.752
60.0679
38.5133
27.2083
22.0584
20.5963
22.2679
29.5702
46.3178
329.826
97.4682
61.5052
40.6749
28.7163
22.7779
20.6334
21.4911
26.8957
39.4723
329.795
92.9991
62.2188
42.7446
30.4142
23.7385
20.8819
20.9444
24.7686
34.1034
329.784
87.5487
62.008
44.5639
32.2277
24.9284
21.3611
20.6444
23.1324
29.9277
329.785
81.493
60.6717
45.9454
34.054
26.3134
22.0777
20.6057
21.9428
26.7269
329.788
75.3767
58.0394
46.6814
35.7614
27.8353
23.0218
20.8353
21.1665
24.3303
329.79
68.8824
53.8847
46.5471
37.19
29.4124
24.1653
21.3299
20.7746
22.6131
329.79
63.0323
48.3255
45.3567
38.1543
30.9372
25.4598
22.0731
20.7407
21.4785
329.789
59.6264
42.0006
43.0086
38.446
32.268
26.8341
23.0331
21.0351
20.8502
329.787
58.475
35.7064
39.4366
37.8293
33.2127
28.1837
24.1595
21.6215
20.6639
329.785
57.8271
29.8767
34.6236
36.0768
33.5221
29.3512
25.3738
22.4529
20.8617
329.782
57.4312
25.8397
29.0355
33.1235
32.9333
30.1146
26.5504
23.4617
21.3856
329.781
57.3407
23.4292
23.4681
29.1138
31.2378
30.1942
27.4926
24.5397
22.1665
329.781
56.9015
21.5624
18.3346
24.2018
28.3498
29.3055
27.9261
25.509
23.1022
329.78
56.364
20.2034
15.142
19.6014
24.6576
27.3557
27.5729
26.1179
24.0291
329.778
55.683
19.4056
13.0246
15.7903
20.7321
24.5403
26.2774
26.0885
24.7082
329.774
55.2232
18.8772
11.7795
13.0738
17.2448
21.3177
24.1243
25.2239
24.8575
329.77
55.1718
18.8581
11.2245
11.0853
14.2274
18.1017
21.3949
23.5042
24.2383
329.766
55.7218
19.4871
11.2876
9.85018
11.9251
15.1637
18.4284
21.0981
22.7568
329.764
56.7483
20.6927
11.9856
9.54345
10.126
12.3829
15.4528
18.2622
20.505
329.764
57.9529
22.259
13.0719
9.94875
9.27184
10.2973
12.5728
15.2767
17.7323
329.764
60.1806
23.86
13.9489
10.4234
9.21702
9.14466
10.2706
12.4551
14.8004
329.766
61.6334
24.4049
14.0989
10.611
9.39227
8.97768
9.05815
10.1122
12.0507
329.768
61.725
23.6687
13.6066
10.6307
9.68151
9.21705
8.88093
8.92341
9.95568
329.771
60.104
21.9266
12.9347
10.817
10.2328
9.77031
9.18421
8.68535
8.75004
329.772
57.1295
20.0685
12.682
11.4226
11.1362
10.6399
9.8328
8.97816
8.46309
329.772
55.151
19.3485
13.181
12.4863
12.379
11.8562
10.8848
9.73714
8.818
329.769
53.8778
19.1133
14.0247
13.906
13.9861
13.5061
12.4781
11.1792
9.9109
329.765
53.2067
19.2767
15.1236
15.6631
16.1672
15.9308
14.9592
13.5076
11.8787
329.763
53.3749
19.8045
16.4458
17.8736
19.1356
19.5188
18.8952
17.4137
15.4014
329.762
54.5404
20.7989
18.0768
20.7506
23.4317
25.0071
25.2465
24.1734
22.0055
329.762
57.0568
23.5183
21.2936
25.38
30.0692
33.853
36.1282
36.6292
35.2591
329.761
69.0668
41.7442
38.6111
42.5008
48.4152
54.8207
60.5786
64.8842
66.776
329.761
211.047
211.048
211.048
211.049
211.049
211.052
211.065
211.104
211.185
211.699
211.162
211.108
211.088
211.077
211.068
211.062
211.057
211.057
211.057
211.058
211.057
211.056
211.055
211.054
211.052
211.05
211.049
211.048
211.048
211.047
211.047
211.047
211.047
288.217
107.125
43.3771
34.3731
32.3558
31.7968
31.648
31.6971
31.8993
32.277
32.7988
33.478
34.2993
35.2771
37.3166
39.1127
40.4867
41.2502
41.3699
40.9818
40.37
39.7418
39.5997
42.856
71.8878
365.386
81.5601
29.3239
14.9166
11.186
9.9688
9.50624
9.33071
9.30458
9.38733
9.58521
9.89205
10.3255
10.9264
11.8644
13.5371
15.104
16.2894
16.9821
17.1787
17.0309
16.8774
17.8506
24.8199
63.0333
365.386
70.2199
33.2912
14.3356
8.58105
6.62467
5.84845
5.48544
5.29943
5.20107
5.15485
5.15252
5.21119
5.37129
5.732
6.50382
7.58308
8.62315
9.44261
9.94663
10.2039
10.6087
12.5995
21.5106
62.0849
365.386
62.6946
37.9734
17.1899
9.67856
6.81315
5.59447
5.0106
4.69297
4.49806
4.35579
4.23096
4.11291
4.02133
4.03092
4.24511
4.80261
5.517
6.21393
6.78102
7.26623
8.10256
10.8394
20.7766
62.0879
365.387
56.4695
41.0858
21.5304
11.8723
7.98072
6.22614
5.34348
4.86555
4.58645
4.39423
4.22643
4.04675
3.8485
3.66668
3.58654
3.73886
4.13548
4.64453
5.17365
5.78765
6.95442
10.2453
20.792
62.3663
365.387
50.764
42.1772
26.7102
14.8973
9.58083
7.19034
5.98301
5.30993
4.9234
4.68355
4.50041
4.31017
4.07717
3.80739
3.55625
3.42491
3.54041
3.86725
4.33463
5.03597
6.46797
10.1682
21.0844
62.7233
365.387
45.3883
41.7421
30.8145
18.6872
11.747
8.44693
6.80143
5.90892
5.39277
5.08754
4.89024
4.71483
4.4919
4.1993
3.86091
3.55503
3.42121
3.55588
3.94847
4.71301
6.35123
10.3456
21.4978
63.1869
365.387
40.369
40.1189
33.2462
23.0551
14.575
10.1038
7.85632
6.64483
5.96214
5.56943
5.3437
5.192
5.0235
4.7718
4.41638
4.00239
3.66706
3.60407
3.90494
4.70429
6.48953
10.6747
21.9346
63.5311
365.387
35.8073
37.6582
34.174
26.5648
18.1613
12.3846
9.24492
7.58355
6.65748
6.13428
5.85367
5.71238
5.61617
5.46591
5.17983
4.74637
4.26856
3.96338
4.10484
4.84941
6.65273
10.8546
22.0475
63.4932
365.387
31.8022
34.7163
33.8021
28.8543
21.8413
15.2201
11.0567
8.79106
7.52942
6.81425
6.43106
6.2682
6.22764
6.20644
6.07732
5.74945
5.24099
4.72621
4.56021
5.0947
6.74881
10.7952
21.7912
63.0937
365.387
28.4157
31.6292
32.4283
29.8798
24.6438
18.6352
13.5347
10.3858
8.63939
7.64642
7.10369
6.86243
6.83505
6.9218
7.00352
6.91829
6.57167
6.00816
5.47756
5.60262
6.91416
10.677
21.5812
62.8746
365.387
25.6684
28.6741
30.4069
29.7475
26.4329
21.5291
16.525
12.5656
10.0848
8.6817
7.89993
7.52269
7.44262
7.58509
7.85077
8.09669
8.13676
7.85524
7.32335
6.91152
7.61558
10.9129
21.5062
62.6092
365.387
23.5449
26.0489
28.0945
28.6983
27.1404
23.6536
19.3286
15.2007
12.0044
10.003
8.8664
8.27267
8.07329
8.19523
8.57758
9.11439
9.65742
10.0279
10.0283
9.82548
9.92533
12.253
22.0754
62.7068
365.388
22.0095
23.8725
25.7986
27.0569
26.855
24.8549
21.5373
17.827
14.4024
11.7484
10.0861
9.15956
8.74586
8.75462
9.14554
9.87942
10.8505
11.954
13.0666
14.09
15.1827
17.3572
25.4514
64.1679
365.389
21.0124
22.195
23.7463
25.1663
25.8095
25.1014
22.9815
19.9853
16.8283
13.9623
11.6971
10.2714
9.50985
9.27216
9.52322
10.2631
11.4848
13.1521
15.2687
17.9172
21.4449
27.1147
39.5498
81.1975
365.394
20.5003
21.0182
22.0736
23.3224
24.3223
24.5244
23.5564
21.5109
18.8751
16.1845
13.7553
11.7645
10.4866
9.8345
9.73334
10.2021
11.2927
13.0453
15.558
18.9861
23.7688
30.8596
42.4613
63.9597
109.364
20.4193
20.319
20.841
21.7344
22.7172
23.3889
23.3104
22.2594
20.3869
18.0956
15.7845
13.6891
11.8761
10.6568
10.0173
9.91153
10.3872
11.5087
13.3015
15.7791
19.0028
23.1409
28.4668
35.27
43.7035
20.7134
20.0603
20.0574
20.5179
21.2536
22.0146
22.4501
22.2219
21.2008
19.5393
17.555
15.5453
13.6882
12.0064
10.759
9.9939
9.67542
9.82451
10.4403
11.4451
12.7103
14.1718
15.7948
17.489
19.1056
21.3157
20.1977
19.7059
19.7175
20.0958
20.6889
21.2747
21.556
21.2734
20.3453
18.9005
17.1806
15.4088
13.7186
12.1744
10.8544
9.87758
9.27456
8.99734
9.0089
9.19339
9.45947
9.74027
9.96332
10.0854
22.1287
20.672
19.7543
19.3348
19.3212
19.6132
20.0837
20.5381
20.7295
20.454
19.6496
18.4117
16.9197
15.3452
13.803
12.3567
10.9999
9.87712
8.98729
8.35242
7.93724
7.66072
7.45092
7.25927
7.0285
22.9943
21.3914
20.1524
19.3483
18.9496
18.8922
19.1012
19.4685
19.8272
19.9734
19.7406
19.0705
18.025
16.7353
15.337
13.9274
12.5525
11.2544
10.0395
9.01289
8.15352
7.487
6.97832
6.56167
6.17448
23.6734
22.1981
20.8107
19.7135
18.9682
18.5611
18.4518
18.5828
18.8621
19.1502
19.2786
19.1049
18.5682
17.7011
16.5974
15.3632
14.0846
12.808
11.5529
10.3752
9.27314
8.32907
7.53605
6.88464
6.33807
23.8683
22.8412
21.562
20.3359
19.3321
18.6137
18.1818
18.017
18.073
18.2752
18.5084
18.6309
18.5186
18.1074
17.4062
16.4772
15.4057
14.2663
13.097
11.9268
10.7874
9.73485
8.78969
7.94136
7.21904
23.309
23.0007
22.1335
21.0272
19.9314
18.9943
18.2895
17.8234
17.6017
17.5849
17.7157
17.8979
18.0135
17.9557
17.6584
17.1106
16.3496
15.4395
14.4418
13.3976
12.3362
11.2929
10.2994
9.38214
8.5712
21.8683
22.3879
22.1854
21.4874
20.5458
19.5661
18.6896
17.9888
17.4931
17.2135
17.1251
17.1831
17.3103
17.4122
17.3966
17.1969
16.7884
16.1873
15.4361
14.5853
13.6782
12.748
11.8243
10.9326
10.0995
19.6354
20.8861
21.4404
21.3748
20.856
20.079
19.2183
18.4058
17.7179
17.2007
16.8699
16.7053
16.6844
16.7501
16.8261
16.833
16.7086
16.4203
15.9669
15.3726
14.6754
13.9137
13.1229
12.3328
11.5684
16.9075
18.634
19.8379
20.4613
20.5469
20.2117
19.6043
18.8734
18.1374
17.4745
16.9439
16.5565
16.3217
16.2201
16.2158
16.2498
16.2574
16.1831
15.9909
15.6685
15.2251
14.6845
14.0772
13.4351
12.7873
14.08
15.9797
17.5862
18.7693
19.4691
19.7031
19.547
19.1126
18.5214
17.8731
17.2544
16.7174
16.2889
15.9935
15.8085
15.7218
15.6943
15.6773
15.6237
15.4986
15.2831
14.9755
14.5873
14.1385
13.654
11.5708
13.3572
15.078
16.5753
17.7362
18.4998
18.8632
18.8716
18.6057
18.1562
17.6133
17.0539
16.5286
16.0814
15.7253
15.4734
15.2953
15.1871
15.1168
15.0498
14.9549
14.8121
14.6123
14.3571
14.0575
9.70956
11.1358
12.7246
14.2772
15.6644
16.7884
17.5907
18.0551
18.2047
18.0917
17.7844
17.3571
16.8726
16.3862
15.9337
15.5428
15.2187
14.9724
14.7745
14.6253
14.5068
14.3981
14.2813
14.1445
13.9838
8.67745
9.57198
10.8371
12.238
13.6257
14.8956
15.9636
16.777
17.3134
17.578
17.5988
17.4256
17.115
16.7217
16.2909
15.8604
15.4542
15.0902
14.7718
14.5057
14.2812
14.0819
13.9153
13.7691
13.6356
8.43134
8.73963
9.57792
10.6933
11.9207
13.1509
14.2938
15.2911
16.1002
16.6882
17.0434
17.1793
17.1282
16.9321
16.6333
16.2715
15.8802
15.4851
15.1037
14.7486
14.4219
14.1254
13.8689
13.6348
13.4198
8.99087
8.66186
9.00812
9.76996
10.7462
11.813
12.8854
13.9056
14.8332
15.6228
16.2373
16.6593
16.8908
16.9497
16.8634
16.6633
16.3816
16.0474
15.6839
15.3101
14.9407
14.5844
14.2483
13.9316
13.6364
10.4626
9.55186
9.21346
9.49673
10.1969
11.0434
11.9601
12.8971
13.8134
14.6722
15.4289
16.0504
16.5173
16.8242
16.9783
16.9959
16.8982
16.7083
16.4483
16.1383
15.798
15.4418
15.0804
14.7234
14.3799
13.3138
11.6676
10.6183
10.1912
10.3863
10.9073
11.6109
12.4479
13.2727
14.0929
14.8794
15.5959
16.2149
16.7154
17.0856
17.3255
17.4427
17.4496
17.3612
17.1935
16.9626
16.6838
16.3716
16.0382
15.6975
19.161
16.4587
14.2322
12.7456
11.9899
12.0022
12.3574
12.8917
13.5086
14.1858
14.9211
15.6059
16.2504
16.8335
17.3332
17.7392
18.0449
18.2493
18.3567
18.3747
18.3129
18.1824
17.995
17.7623
17.4966
32.2082
28.4112
24.4463
20.9742
18.329
16.6283
16.1934
16.2638
16.5404
16.9117
17.3483
17.8086
18.2971
18.7815
19.215
19.6135
19.9528
20.2275
20.4376
20.5846
20.668
20.6922
20.6637
20.5903
20.4815
65.8101
62.5685
57.5445
51.8071
46.2019
41.1666
37.2305
35.3861
35.017
34.7953
34.6681
34.6014
34.5931
34.6491
34.7807
34.9766
35.1243
35.2731
35.4391
35.6254
35.7993
35.9668
36.132
36.2943
36.4589
211.308
211.45
211.586
211.705
211.803
211.882
211.948
212.009
212.068
212.115
212.148
212.171
212.185
212.186
212.157
212.13
212.103
212.111
212.224
212.367
212.529
212.693
212.855
213.017
213.177
211.388
211.551
211.728
53.5366
56.143
51.3725
20.4214
19.8552
16.8985
9.89872
9.16921
7.8714
6.659
6.1618
5.55379
5.78345
5.40406
5.03084
5.88173
5.50488
5.18092
6.64369
6.18695
5.80826
7.91039
7.36591
6.89994
9.39354
8.78763
8.26099
10.9011
10.2988
9.7491
12.2042
11.658
11.1432
13.1972
12.7477
12.3088
13.7586
13.4478
13.1294
13.8196
13.6414
13.4525
13.5217
13.4096
13.297
13.2531
13.107
12.9772
13.3932
13.178
12.9762
14.0736
13.7975
13.5343
15.3911
15.0869
14.7893
17.2418
16.9753
16.7025
20.3633
20.2298
20.0853
36.6154
36.779
36.9535
213.318
213.453
213.582
281.213
211.047
211.047
211.048
211.049
211.051
211.054
211.056
211.059
211.061
211.063
211.063
211.063
211.061
211.06
211.058
211.055
211.053
211.052
211.05
211.049
211.048
211.048
211.047
211.047
211.047
211.047
211.047
211.047
211.047
211.047
211.047
211.047
211.047
211.048
211.048
211.048
211.049
211.049
211.049
211.05
211.05
211.05
211.05
211.05
211.05
211.049
211.049
211.051
211.058
211.075
211.106
211.157
211.232
211.33
211.443
211.561
211.673
211.772
211.849
211.899
211.919
211.911
211.877
211.823
211.755
211.675
211.588
211.496
211.405
211.317
211.237
211.167
211.112
211.077
211.065
211.057
211.052
211.049
281.213
351.379
70.4421
41.2912
36.1461
34.6131
33.9961
33.8026
33.8827
34.1564
34.5666
35.074
35.7052
37.154
38.4684
39.5626
40.41
40.9902
41.2998
41.3593
41.1752
40.7909
40.3135
39.7929
39.2548
38.721
38.2049
37.7056
37.2107
36.7274
36.4552
36.1918
35.9382
35.7199
35.5755
35.5281
35.582
35.7326
35.96
36.2217
36.484
36.6748
36.9293
37.3219
38.4731
41.1048
44.5769
48.2997
52.0245
55.4832
58.5558
60.986
62.5475
63.2301
63.011
61.765
59.4865
56.5809
53.1932
49.3876
45.2828
41.0833
37.1896
34.2018
32.7034
32.0371
31.5472
31.2207
31.052
30.971
31.0052
31.2005
31.5472
32.0437
32.6998
33.5746
34.9292
38.9973
47.9843
73.6301
351.38
351.379
63.7098
26.742
17.7641
14.4426
12.8045
11.879
11.3554
11.1037
11.0546
11.1676
11.4272
11.9288
12.8035
13.8091
14.8164
15.7194
16.4543
16.9899
17.301
17.3672
17.2297
16.9271
16.4958
15.9726
15.3908
14.7741
14.1352
13.4898
12.9049
12.5126
12.1614
11.882
11.7199
11.7
11.8313
12.127
12.5688
13.0926
13.9252
15.4779
17.9321
20.8636
24.1357
27.4121
30.2652
32.4639
33.9416
34.6908
34.7506
34.1288
32.9698
31.3855
29.3411
26.8942
24.225
21.5509
19.0554
16.8701
15.0919
13.7952
13.0129
12.7711
12.8182
12.9975
13.2919
13.7111
14.2674
14.97
15.8282
16.8412
17.9858
19.2051
20.3875
21.3478
21.898
22.4975
27.8168
62.6181
351.382
351.379
64.6394
26.6678
16.4049
12.0676
9.67383
8.16826
7.1727
6.51248
6.09081
5.84925
5.75249
5.80068
6.07593
6.56131
7.19014
7.88539
8.57997
9.21289
9.728
10.0825
10.2606
10.2643
10.1065
9.80787
9.39403
8.89131
8.32413
7.71846
7.11923
6.63291
6.24596
5.9804
5.87698
5.96678
6.27643
6.86175
7.85704
9.66667
12.1983
15.0063
17.8318
20.3328
22.3155
23.7061
24.4934
24.7025
24.3771
23.5728
22.4125
20.9016
19.1543
17.2972
15.4308
13.6596
12.1101
10.84
9.87476
9.20726
8.8098
8.64164
8.65777
8.82484
9.07692
9.41483
9.85321
10.4128
11.1193
12.0035
13.1003
14.4462
16.0725
17.9938
20.1817
22.5146
24.7367
26.7546
31.0939
62.3277
351.383
351.38
66.1038
27.7812
16.6902
11.666
8.81389
7.02344
5.84908
5.06495
4.5407
4.19693
3.98534
3.88273
3.90196
4.07004
4.36842
4.77225
5.24939
5.75736
6.24512
6.66498
6.97893
7.16363
7.20901
7.1163
6.89592
6.56501
6.14553
5.66498
5.16243
4.70136
4.3753
4.21204
4.27806
4.63819
5.40067
6.80575
8.90334
11.3741
13.9929
16.1672
17.7761
18.853
19.4141
19.5037
19.1757
18.4835
17.4834
16.2429
14.8422
13.3629
11.91
10.5775
9.42563
8.48735
7.77339
7.26974
6.9456
6.76607
6.69931
6.72017
6.82967
6.99809
7.22742
7.53009
7.92446
8.43539
9.09585
9.94907
11.0505
12.4691
14.2879
16.5998
19.5054
23.0994
27.4115
32.22
38.8487
67.0046
351.383
351.381
67.5028
28.3769
16.4007
10.8587
7.79589
5.97135
4.84192
4.12406
3.65837
3.35307
3.1556
3.03831
2.9942
3.04247
3.17879
3.40045
3.69825
4.05346
4.43587
4.80873
5.13507
5.38354
5.53147
5.56706
5.48838
5.30223
5.02369
4.67741
4.3029
3.96531
3.76975
3.83175
4.26544
5.22242
6.85823
8.8072
10.9636
13.0409
14.6457
15.7194
16.2805
16.405
16.1639
15.6181
14.8189
13.8212
12.6844
11.4804
10.2832
9.15926
8.1685
7.34888
6.70766
6.23118
5.8964
5.6752
5.5409
5.47279
5.45708
5.4869
5.56737
5.6881
5.85524
6.08061
6.3812
6.78099
7.31369
8.02679
8.98682
10.2867
12.0606
14.4982
17.8269
22.2952
28.1778
35.777
46.3473
75.1384
351.383
351.384
68.3972
28.0113
15.2365
9.47122
6.50394
4.88284
3.95676
3.40293
3.05613
2.8303
2.68046
2.58447
2.53554
2.54247
2.60781
2.73398
2.921
3.16301
3.44534
3.74469
4.03265
4.2815
4.46353
4.56186
4.5679
4.48145
4.31186
4.08211
3.8389
3.67123
3.7271
4.22595
5.28602
6.87389
8.68391
10.5265
12.1516
13.3695
14.0925
14.3589
14.2527
13.8593
13.2396
12.4398
11.5083
10.4966
9.46813
8.48217
7.58532
6.81099
6.17794
5.68692
5.32169
5.05929
4.87673
4.75405
4.67644
4.63445
4.62334
4.6499
4.7031
4.78341
4.89615
5.05005
5.258
5.53899
5.92125
6.44715
7.18055
8.22059
9.73004
11.964
15.2551
20.0492
26.9593
36.8801
51.8796
85.5926
351.385
351.389
68.2803
26.4731
13.3017
7.78916
5.24468
3.99067
3.3257
2.94375
2.70599
2.54663
2.43397
2.35394
2.30332
2.28803
2.31559
2.38836
2.50875
2.67582
2.88266
3.1152
3.35348
3.57471
3.75768
3.87668
3.92508
3.90011
3.80935
3.6807
3.58194
3.64995
4.13764
5.21109
6.72781
8.4
10.0203
11.3631
12.3092
12.8127
12.9108
12.6911
12.2377
11.6094
10.8503
9.99626
9.0928
8.19716
7.35825
6.61163
5.97658
5.45941
5.0553
4.7509
4.52777
4.36743
4.25427
4.17669
4.12715
4.10143
4.098
4.11891
4.15764
4.21478
4.29361
4.39957
4.54091
4.7303
4.98748
5.34375
5.84905
6.58441
7.70131
9.45315
12.2518
16.751
23.9507
35.4272
54.4393
95.1773
351.409
351.395
66.6135
23.8017
10.9649
6.24182
4.31496
3.43893
2.99164
2.73546
2.57054
2.45161
2.35795
2.28148
2.22165
2.18381
2.17938
2.21298
2.2872
2.4023
2.55411
2.73293
2.92429
3.11054
3.27275
3.39209
3.45716
3.46981
3.44212
3.42009
3.5134
3.96555
4.98162
6.40295
7.97145
9.45161
10.6403
11.4286
11.8007
11.8089
11.5396
11.0733
10.4635
9.76081
8.98287
8.17143
7.37488
6.63821
5.99075
5.44514
5.00155
4.65213
4.38418
4.18419
4.038
3.93278
3.85866
3.80882
3.77908
3.76715
3.77477
3.79746
3.83289
3.88149
3.945
4.02634
4.13005
4.26321
4.4373
4.6713
4.99753
5.47329
6.20285
7.39375
9.43845
13.0786
19.6667
31.5894
53.6136
102.035
351.491
351.402
63.1779
20.4641
8.86197
5.21527
3.83276
3.21749
2.90386
2.72098
2.59711
2.49975
2.41437
2.33574
2.26365
2.20076
2.15804
2.15043
2.1816
2.25315
2.36105
2.49551
2.64504
2.79547
2.93139
3.03825
3.10741
3.15066
3.19543
3.32523
3.7424
4.65305
5.95064
7.42668
8.8312
9.95218
10.6762
10.9917
10.9623
10.6808
10.2286
9.65652
9.00432
8.29686
7.56182
6.84235
6.17869
5.59807
5.11055
4.7128
4.39588
4.14903
3.96178
3.82328
3.72287
3.65171
3.60341
3.57381
3.56041
3.56189
3.57897
3.60757
3.64658
3.69618
3.75718
3.83096
3.91962
4.02652
4.15728
4.32166
4.53746
4.83822
5.29013
6.02898
7.34498
9.88088
15.0685
25.9747
49.176
103.959
351.688
351.408
58.7136
17.7656
7.77991
4.76927
3.67194
3.19927
2.96438
2.82782
2.73181
2.65074
2.57358
2.49705
2.41749
2.3341
2.25477
2.19628
2.17646
2.19789
2.25799
2.34788
2.45674
2.57234
2.68252
2.77806
2.85857
2.9484
3.11637
3.51725
4.2863
5.4387
6.80588
8.15707
9.26743
9.99795
10.3213
10.2991
10.0309
9.60513
9.07697
8.47969
7.83241
7.16291
6.50417
5.89364
5.35695
4.90441
4.53366
4.23603
4.00154
3.82081
3.68504
3.58555
3.51456
3.46602
3.43574
3.42108
3.42049
3.43403
3.46017
3.4967
3.54295
3.59892
3.66494
3.74149
3.82936
3.92965
4.04476
4.17884
4.34031
4.54678
4.8346
5.2822
6.06925
7.63879
11.1587
19.7686
41.6282
100.264
352.016
351.413
56.6164
16.2686
7.15488
4.57299
3.66771
3.29221
3.11365
3.01306
2.94183
2.8787
2.81447
2.74764
2.66972
2.57708
2.47256
2.36656
2.28055
2.23826
2.23994
2.27954
2.34647
2.42935
2.51987
2.61709
2.7372
2.92925
3.29618
3.95178
4.93552
6.163
7.44369
8.5605
9.34336
9.72868
9.7573
9.52748
9.1373
8.6535
8.11221
7.52374
6.91019
6.30188
5.73064
5.22289
4.79097
4.43481
4.14707
3.91823
3.7393
3.60238
3.50024
3.42623
3.37478
3.34171
3.32428
3.32085
3.33062
3.35422
3.38928
3.43468
3.48998
3.5551
3.63005
3.71479
3.80945
3.91426
4.02926
4.1554
4.29621
4.45999
4.66498
4.95241
5.42168
6.33405
8.45759
14.3132
32.4284
91.2196
352.413
351.417
54.3906
15.0078
6.73674
4.50712
3.74568
3.44354
3.30997
3.24046
3.19384
3.15224
3.10696
3.05495
2.99176
2.90876
2.80268
2.67644
2.54106
2.41937
2.34228
2.31745
2.33654
2.39109
2.47691
2.60284
2.79972
3.13198
3.6814
4.50036
5.55841
6.73023
7.82938
8.67466
9.15868
9.27965
9.11699
8.77497
8.33755
7.85244
7.32233
6.76222
6.19799
5.65902
5.17132
4.75064
4.40019
4.11487
3.8861
3.70508
3.56412
3.45665
3.37692
3.31999
3.28194
3.25991
3.25213
3.25775
3.27688
3.30912
3.35301
3.40779
3.47313
3.54889
3.63473
3.73059
3.83619
3.95043
4.07219
4.20119
4.3386
4.4881
4.65845
4.87022
5.17487
5.71355
6.92454
10.4396
23.4951
77.9441
352.809
351.424
51.8447
13.8481
6.43563
4.4857
3.84448
3.6076
3.51195
3.46959
3.4475
3.4309
3.41138
3.38321
3.34532
3.29104
3.21152
3.10201
2.96299
2.80339
2.64492
2.53436
2.48877
2.51164
2.60251
2.77369
3.05824
3.50802
4.16906
5.04464
6.06676
7.10009
7.97875
8.56733
8.81204
8.75095
8.47798
8.09275
7.671
7.1935
6.68782
6.16715
5.65812
5.18681
4.77191
4.42102
4.13221
3.89861
3.71196
3.56456
3.44991
3.36266
3.2984
3.25345
3.22511
3.21155
3.2119
3.226
3.25412
3.29504
3.34812
3.41289
3.48906
3.5765
3.67537
3.78424
3.9018
4.02652
4.15714
4.29288
4.43395
4.5821
4.74191
4.92412
5.1558
5.5125
6.23215
8.22468
16.4648
62.0521
353.205
351.486
48.3714
12.5972
6.07239
4.42925
3.91465
3.73589
3.67339
3.65658
3.6592
3.66918
3.6789
3.6822
3.67601
3.65684
3.61766
3.55086
3.44948
3.31225
3.14758
2.97791
2.85639
2.83271
2.91659
3.11783
3.45833
3.96686
4.6572
5.50162
6.41657
7.27342
7.93578
8.31053
8.38283
8.2126
7.89627
7.52475
7.11393
6.66222
6.1889
5.71229
5.25804
4.84746
4.4927
4.19609
3.95339
3.7576
3.60135
3.47802
3.38212
3.30938
3.25645
3.22055
3.19988
3.19368
3.20217
3.22599
3.26367
3.31437
3.37763
3.45327
3.54117
3.64143
3.75319
3.8744
4.00317
4.13787
4.27715
4.42013
4.56665
4.71773
4.87619
5.04835
5.24969
5.52425
6.0166
7.29173
12.3177
44.855
353.688
351.707
43.726
11.1279
5.60518
4.29341
3.91638
3.80098
3.77604
3.78829
3.81721
3.85287
3.88889
3.92113
3.94737
3.96353
3.96488
3.9451
3.8968
3.81287
3.69258
3.54668
3.4045
3.32069
3.37259
3.56891
3.91607
4.42046
5.07254
5.82813
6.60157
7.27971
7.75626
7.97215
7.93772
7.72085
7.40573
7.05514
6.66734
6.24496
5.80718
5.37505
4.97135
4.61249
4.30585
4.05082
3.84237
3.67442
3.5407
3.43544
3.35363
3.29132
3.2476
3.2198
3.2068
3.20865
3.22648
3.25952
3.30711
3.36857
3.4432
3.53146
3.63357
3.74821
3.87313
4.00604
4.1449
4.28807
4.43434
4.58295
4.73373
4.88748
5.04627
5.21422
5.40014
5.62785
5.9766
6.76642
9.74813
31.2624
354.603
103.303
22.5953
7.96759
4.88916
4.09029
3.87249
3.82864
3.84665
3.89031
3.94521
4.00418
4.06285
4.11915
4.1712
4.21552
4.24869
4.26674
4.26427
4.23454
4.17291
4.08123
3.97486
3.89191
3.88978
4.04639
4.35663
4.8093
5.38041
6.0195
6.64686
7.16796
7.50278
7.61505
7.52801
7.304
7.01006
6.68239
6.32066
5.92864
5.52699
5.13691
4.77742
4.46067
4.19215
3.96903
3.78528
3.6381
3.52273
3.43244
3.36259
3.31038
3.27443
3.25365
3.24798
3.25885
3.28673
3.33069
3.39042
3.46503
3.55437
3.65868
3.77662
3.90558
4.04281
4.18577
4.33244
4.48138
4.6317
4.78295
4.93518
5.08917
5.24667
5.4106
5.58585
5.78316
6.03466
6.44557
7.42536
11.2331
35.4617
31.2286
11.0021
5.73171
4.32837
3.92966
3.84384
3.86273
3.92156
3.99573
4.07537
4.15587
4.23422
4.31062
4.38373
4.44957
4.50526
4.54972
4.57917
4.5891
4.57507
4.53611
4.47753
4.41916
4.40443
4.49633
4.74126
5.11547
5.58696
6.10549
6.60116
6.99677
7.22977
7.29017
7.18671
6.9751
6.70486
6.40109
6.06463
5.70235
5.33476
4.98231
4.65971
4.37196
4.13596
3.94096
3.78102
3.65217
3.55046
3.47122
3.41057
3.36634
3.33755
3.32418
3.32758
3.35067
3.39146
3.44989
3.52537
3.61746
3.72553
3.84779
3.98128
4.1229
4.26972
4.41931
4.56996
4.72068
4.87105
5.02105
5.17102
5.3218
5.47492
5.63257
5.79756
5.97538
6.18268
6.45511
6.87719
7.72862
10.0448
11.4139
6.41403
4.62449
4.0371
3.87671
3.87656
3.93984
4.02877
4.12821
4.23076
4.33308
4.43316
4.52918
4.61927
4.70198
4.77596
4.84053
4.89399
4.93357
4.95443
4.95495
4.93756
4.90994
4.89198
4.92841
5.08965
5.37135
5.73969
6.1471
6.53364
6.8366
7.00819
7.03681
6.93287
6.73804
6.4893
6.20619
5.89177
5.55577
5.21122
4.89105
4.60491
4.35414
4.14464
3.97116
3.82881
3.71366
3.6222
3.55146
3.49868
3.46223
3.44193
3.43931
3.4582
3.49709
3.55592
3.6342
3.73119
3.84521
3.97332
4.11194
4.25755
4.40715
4.55823
4.70896
4.85828
5.00579
5.15159
5.29606
5.43983
5.58376
5.7292
5.87782
6.03135
6.19345
6.37324
6.58439
6.8478
7.19948
7.69571
6.25141
4.85529
4.20415
3.96599
3.92413
3.97283
4.06306
4.17195
4.28996
4.411
4.53195
4.65062
4.765
4.87345
4.97514
5.0695
5.15673
5.23501
5.30175
5.35411
5.3904
5.41097
5.41892
5.41928
5.42957
5.49144
5.6626
5.91933
6.22054
6.51312
6.74348
6.87109
6.8801
6.77872
6.59684
6.36292
6.09342
5.78529
5.47187
5.16336
4.87806
4.62347
4.40152
4.2138
4.0575
3.92903
3.8251
3.74284
3.68004
3.63549
3.6088
3.60145
3.61776
3.65873
3.72209
3.80691
3.9118
4.03363
4.16839
4.31185
4.45998
4.60958
4.75908
4.90679
5.05173
5.19358
5.3325
5.46901
5.60381
5.73769
5.87151
6.00648
6.14396
6.2852
6.43269
6.59118
6.76678
6.9655
7.1919
7.4426
4.93009
4.41349
4.14104
4.04643
4.0579
4.1282
4.23032
4.3494
4.47804
4.6122
4.74792
4.88227
5.01277
5.13785
5.25708
5.37052
5.47801
5.57895
5.67253
5.75572
5.82909
5.89189
5.94527
5.9831
6.00827
6.03095
6.10173
6.23418
6.41539
6.60786
6.76529
6.84863
6.83726
6.73303
6.55492
6.32017
6.05063
5.76343
5.47581
5.1986
4.94339
4.71581
4.51761
4.34903
4.20833
4.09313
4.00102
3.93001
3.87883
3.84739
3.83741
3.85389
3.90167
3.97422
4.06907
4.18289
4.31156
4.45041
4.59516
4.74193
4.88761
5.0305
5.17031
5.30645
5.43868
5.56722
5.69264
5.81562
5.93709
6.05787
6.179
6.30156
6.42666
6.55539
6.68926
6.83117
6.98411
7.15001
7.32863
7.51472
4.6906
4.42379
4.27966
4.23713
4.26541
4.33948
4.44242
4.56345
4.69564
4.83689
4.98215
5.12727
5.26915
5.40644
5.53934
5.66832
5.79351
5.91475
6.0316
6.14348
6.24838
6.34572
6.43401
6.51126
6.57523
6.62233
6.66847
6.72535
6.80202
6.88793
6.95806
6.9817
6.93635
6.81498
6.61826
6.3805
6.12069
5.85146
5.5866
5.33579
5.1067
4.90338
4.72726
4.57828
4.45538
4.35708
4.28195
4.229
4.19813
4.19092
4.21196
4.27012
4.353
4.45611
4.57464
4.70369
4.83859
4.97589
5.11267
5.2468
5.3768
5.50242
5.62432
5.7423
5.8564
5.96716
6.07519
6.18138
6.28674
6.39223
6.49897
6.60798
6.72039
6.83736
6.96009
7.09042
7.23018
7.38038
7.54017
7.70575
4.90692
4.69994
4.58316
4.54398
4.56418
4.62721
4.72046
4.83484
4.96377
5.10323
5.25011
5.3984
5.54471
5.6881
5.82903
5.96802
6.1054
6.24112
6.37454
6.50427
6.62992
6.74988
6.86294
6.96774
7.06207
7.14252
7.20288
7.25278
7.29484
7.32599
7.33578
7.30774
7.22469
7.06857
6.85983
6.62145
6.36893
6.11453
5.86925
5.6411
5.43558
5.25568
5.10252
4.97604
4.87558
4.80023
4.74929
4.7226
4.72129
4.74915
4.81525
4.90098
5.00081
5.11034
5.22553
5.34301
5.46024
5.57544
5.6875
5.79586
5.90039
6.00241
6.10151
6.19722
6.28993
6.38016
6.46859
6.55618
6.64397
6.73307
6.82471
6.92021
7.02096
7.12841
7.24404
7.36935
7.50571
7.65381
7.81323
7.98152
5.48807
5.24405
5.09187
5.01786
5.00568
5.04077
5.11115
5.20741
5.32181
5.44739
5.58307
5.72265
5.86315
6.00396
6.14546
6.2882
6.43217
6.57691
6.72162
6.86521
7.00591
7.1416
7.27088
7.3919
7.50204
7.59841
7.67703
7.73331
7.77566
7.79945
7.79741
7.7588
7.6672
7.51973
7.32709
7.10625
6.87323
6.64021
6.41742
6.21226
6.02959
5.8721
5.74087
5.63591
5.55671
5.50258
5.47307
5.46847
5.49094
5.54722
5.61652
5.69363
5.77562
5.86018
5.9456
6.0306
6.11447
6.19659
6.27675
6.35556
6.43308
6.50936
6.58336
6.65525
6.72526
6.79395
6.86212
6.93079
7.00117
7.07466
7.15283
7.23745
7.33039
7.43359
7.54891
7.67814
7.8227
7.98367
8.16147
8.35517
6.48056
6.14025
5.90088
5.75018
5.67454
5.65775
5.68467
5.74328
5.82395
5.91882
6.02252
6.13674
6.25816
6.38569
6.51873
6.65773
6.80237
6.95206
7.10504
7.25922
7.41178
7.56021
7.70225
7.83539
7.95696
8.06496
8.15661
8.22545
8.27307
8.30067
8.30166
8.26677
8.19201
8.07787
7.92835
7.75282
7.56351
7.36996
7.18184
7.00624
6.84827
6.71105
6.59619
6.50421
6.43507
6.38852
6.36485
6.36488
6.39231
6.42721
6.46668
6.5096
6.55524
6.60282
6.65157
6.70101
6.7517
6.80302
6.85471
6.90643
6.95763
7.00748
7.05612
7.10369
7.15078
7.1982
7.24696
7.29833
7.35396
7.41574
7.48584
7.56663
7.6606
7.7703
7.89816
8.04653
8.21736
8.41261
8.63414
8.88187
7.77449
7.36156
7.03959
6.80035
6.63771
6.54046
6.49429
6.48665
6.5076
6.54952
6.60655
6.67966
6.76898
6.87272
6.99
7.11985
7.26062
7.41046
7.56672
7.72676
7.88759
8.04634
8.20037
8.34639