/*--------------------------------*- C++ -*----------------------------------*\
| =========                 |                                                 |
| \\      /  F ield         | OpenFOAM: The Open Source CFD Toolbox           |
|  \\    /   O peration     | Version:  v2012                                 |
|   \\  /    A nd           | Website:  www.openfoam.com                      |
|    \\/     M anipulation  |                                                 |
\*---------------------------------------------------------------------------*/
FoamFile
{
    version     2.0;
    format      ascii;
    class       volScalarField;
    location    "487";
    object      p;
}
// * * * * * * * * * * * * * * * * * * * * * * * * * * * * * * * * * * * * * //

dimensions      [0 2 -2 0 0 0 0];


internalField   nonuniform List<scalar> 
6544
(
0.937623
0.907644
0.892482
0.88568
0.882639
0.882531
0.885368
0.891998
0.90703
0.936912
0.901552
0.890458
0.886174
0.881981
0.879614
0.879495
0.881631
0.885618
0.889755
0.900776
0.878935
0.875726
0.87457
0.872681
0.871547
0.871399
0.872246
0.873879
0.874846
0.877972
0.866637
0.865173
0.863815
0.862339
0.861614
0.86142
0.861768
0.86291
0.864032
0.865365
0.855909
0.85494
0.853642
0.852294
0.851597
0.851336
0.851523
0.852409
0.853385
0.854156
0.844671
0.844082
0.843014
0.841891
0.84122
0.840867
0.840847
0.841334
0.84191
0.842187
0.833436
0.833061
0.832026
0.830994
0.830292
0.829812
0.829579
0.829744
0.830022
0.829924
0.822526
0.822211
0.820954
0.819881
0.819072
0.818419
0.81797
0.817874
0.817983
0.817632
0.811886
0.811601
0.81014
0.808851
0.80781
0.806914
0.806203
0.805831
0.805778
0.805181
0.801451
0.801146
0.799711
0.79804
0.796614
0.795384
0.794372
0.793728
0.793324
0.792419
0.791236
0.790748
0.789239
0.78727
0.785447
0.78382
0.782443
0.781464
0.780522
0.779271
0.781298
0.780517
0.778701
0.776504
0.774283
0.772187
0.770324
0.768853
0.767299
0.765674
0.771762
0.770671
0.768524
0.765982
0.763234
0.760541
0.75806
0.755945
0.753647
0.751585
0.762695
0.761426
0.758993
0.755899
0.752439
0.74897
0.745681
0.742719
0.73954
0.736973
0.754527
0.753099
0.750217
0.746364
0.742009
0.737543
0.733185
0.729116
0.72493
0.721769
0.747736
0.746056
0.742401
0.737551
0.732082
0.726358
0.720635
0.715154
0.709653
0.705857
0.74242
0.740483
0.735755
0.72967
0.722841
0.71556
0.708111
0.700798
0.693461
0.688812
0.738531
0.736429
0.730423
0.722925
0.714512
0.705354
0.695747
0.686016
0.675925
0.669645
0.736089
0.73393
0.726489
0.717557
0.707404
0.696099
0.683895
0.671018
0.65664
0.64715
0.735072
0.73306
0.724333
0.71394
0.701964
0.68838
0.673206
0.656682
0.635867
0.618458
0.735355
0.733628
0.724159
0.712389
0.698739
0.683163
0.66542
0.645271
0.618875
0.590121
0.736906
0.735535
0.72598
0.713112
0.69822
0.681296
0.662173
0.641081
0.617316
0.596994
0.739895
0.739083
0.730005
0.716223
0.700473
0.682793
0.663165
0.642522
0.620603
0.601382
0.744532
0.744461
0.736306
0.72168
0.705123
0.686805
0.6667
0.645514
0.623088
0.601947
0.750732
0.751363
0.744296
0.729108
0.711646
0.692532
0.671683
0.649524
0.626777
0.604618
0.758046
0.759238
0.753299
0.738103
0.719756
0.699821
0.678302
0.655321
0.632466
0.609857
0.765951
0.767577
0.76294
0.748346
0.729315
0.708597
0.686531
0.663085
0.639563
0.616328
0.773909
0.775852
0.772601
0.759146
0.739907
0.718533
0.695886
0.672063
0.647645
0.62376
0.781358
0.78345
0.781508
0.769748
0.750993
0.72925
0.706036
0.681724
0.656652
0.632304
0.787828
0.789823
0.789027
0.779585
0.762165
0.740524
0.716948
0.692226
0.666466
0.641777
0.793224
0.794835
0.794953
0.788234
0.773046
0.752176
0.728585
0.703707
0.677585
0.652225
0.797698
0.79873
0.799537
0.79553
0.783269
0.763968
0.740836
0.716032
0.690007
0.663834
0.801473
0.802148
0.803305
0.801544
0.792499
0.77556
0.753486
0.728959
0.703054
0.676405
0.804778
0.805396
0.806606
0.806317
0.800371
0.78649
0.766245
0.742448
0.716877
0.690202
0.807603
0.80814
0.809196
0.809739
0.806527
0.796194
0.778664
0.756314
0.73145
0.705175
0.809882
0.810203
0.810977
0.81191
0.810846
0.804148
0.790118
0.770086
0.746435
0.720814
0.811707
0.811843
0.812388
0.813345
0.813632
0.810113
0.799991
0.783164
0.761497
0.73699
0.813126
0.813241
0.813641
0.814451
0.81535
0.81416
0.807823
0.794876
0.77611
0.753375
0.81429
0.814373
0.814656
0.815275
0.816304
0.816554
0.813407
0.80457
0.789535
0.769431
0.815407
0.81538
0.815471
0.81588
0.816777
0.817731
0.816898
0.811842
0.800995
0.784395
0.816524
0.81639
0.816279
0.816497
0.817163
0.818301
0.818856
0.816756
0.809944
0.797419
0.817542
0.817381
0.817222
0.817342
0.817847
0.818901
0.820037
0.819809
0.816259
0.807774
0.818386
0.818281
0.818215
0.818394
0.818914
0.819849
0.821035
0.821668
0.820246
0.815099
0.818983
0.818947
0.819019
0.819415
0.820138
0.82105
0.822083
0.822861
0.82244
0.819513
0.819287
0.81931
0.819535
0.820162
0.821153
0.822197
0.823067
0.823595
0.823329
0.821482
0.81935
0.819422
0.819734
0.820493
0.821661
0.822842
0.823597
0.823752
0.82317
0.821545
0.819279
0.819386
0.819698
0.820379
0.82142
0.822514
0.823153
0.822964
0.821936
0.820092
0.819162
0.819267
0.819492
0.819893
0.820465
0.821041
0.821274
0.820772
0.819402
0.817305
0.819067
0.819134
0.819182
0.81914
0.818977
0.818634
0.818015
0.816962
0.815338
0.813212
0.819071
0.819065
0.818866
0.818281
0.817237
0.815761
0.813977
0.812042
0.810044
0.807984
0.81927
0.819164
0.818703
0.817573
0.815636
0.813009
0.809998
0.807044
0.804489
0.802407
0.819707
0.819509
0.818846
0.8173
0.814648
0.811023
0.806908
0.802997
0.799835
0.797572
0.820289
0.820046
0.819291
0.817556
0.81452
0.810248
0.805311
0.800622
0.796894
0.794313
0.820816
0.820583
0.81987
0.81822
0.815198
0.81076
0.805443
0.800111
0.795844
0.792922
0.821043
0.820842
0.820285
0.818993
0.816452
0.812388
0.807124
0.801619
0.796861
0.793471
0.820834
0.820654
0.820278
0.819472
0.817777
0.814704
0.810146
0.804991
0.800048
0.796204
0.8203
0.82012
0.819865
0.819444
0.818596
0.816862
0.813869
0.809754
0.805267
0.80129
0.819709
0.819567
0.819343
0.819086
0.818754
0.818099
0.81676
0.814421
0.811119
0.80748
0.819293
0.819208
0.818991
0.81872
0.818428
0.818078
0.817537
0.816577
0.815011
0.812991
0.819145
0.819093
0.81886
0.818454
0.817946
0.817358
0.816634
0.815773
0.814923
0.814314
0.575928
0.584335
0.588208
0.589977
0.591063
0.591709
0.591997
0.591984
0.591732
0.591298
0.590727
0.590086
0.589482
0.588986
0.588585
0.58828
0.588078
0.58796
0.587903
0.587883
0.587886
0.587902
0.587923
0.587948
0.587969
0.588429
0.588786
0.589112
0.589976
0.590792
0.591381
0.591678
0.591665
0.591394
0.590934
0.590379
0.589803
0.589252
0.588792
0.588437
0.58819
0.588052
0.587985
0.587955
0.587944
0.587946
0.587956
0.587971
0.587994
0.588019
0.592074
0.590503
0.589649
0.589846
0.590363
0.590812
0.591061
0.591054
0.590806
0.590375
0.589844
0.589287
0.588764
0.58834
0.588058
0.587889
0.587817
0.587823
0.587858
0.5879
0.587937
0.587964
0.587986
0.588012
0.588041
0.591756
0.590514
0.589726
0.589605
0.5899
0.590206
0.590389
0.590367
0.590138
0.58974
0.589243
0.588719
0.588234
0.587847
0.587589
0.587455
0.587436
0.587503
0.58761
0.58772
0.587813
0.587879
0.587924
0.587962
0.587997
0.592529
0.590386
0.589749
0.589428
0.589546
0.589768
0.58988
0.589831
0.589601
0.589216
0.588738
0.588237
0.58778
0.587417
0.587179
0.587069
0.587075
0.587173
0.587322
0.587478
0.587616
0.587721
0.58779
0.587841
0.587877
0.595078
0.59083
0.589905
0.589396
0.589355
0.589483
0.58955
0.589479
0.589249
0.588872
0.588404
0.587914
0.587471
0.587126
0.586904
0.586807
0.586819
0.586921
0.587079
0.587254
0.587407
0.58753
0.587616
0.58767
0.587704
0.598704
0.591831
0.590163
0.589498
0.589285
0.58931
0.589335
0.589254
0.589032
0.588675
0.588224
0.587748
0.587317
0.586982
0.58677
0.586681
0.586692
0.586782
0.586924
0.587089
0.587238
0.587355
0.587438
0.587486
0.587511
0.603474
0.593657
0.590621
0.589719
0.589309
0.589221
0.589211
0.589133
0.588929
0.5886
0.588179
0.587723
0.587304
0.586977
0.586768
0.586677
0.586681
0.586752
0.586865
0.586994
0.587117
0.587214
0.587278
0.587312
0.587326
0.609898
0.596794
0.591606
0.590065
0.58944
0.589212
0.589157
0.589087
0.588921
0.588634
0.588253
0.587827
0.587416
0.587086
0.586871
0.58677
0.58676
0.586807
0.586884
0.58697
0.587051
0.587111
0.587145
0.587162
0.587165
0.618074
0.60161
0.593526
0.590679
0.589703
0.589281
0.589146
0.589088
0.588974
0.588754
0.58842
0.588038
0.587642
0.587297
0.587054
0.586926
0.58689
0.586909
0.586951
0.586994
0.587026
0.587041
0.587042
0.587038
0.587032
0.627711
0.608265
0.596806
0.591905
0.590161
0.589463
0.589188
0.589108
0.589048
0.58892
0.588678
0.588329
0.587969
0.587609
0.587314
0.587125
0.587041
0.587023
0.587028
0.587029
0.587016
0.586985
0.586952
0.586929
0.586916
0.638671
0.616863
0.601886
0.594202
0.591049
0.589832
0.589328
0.58916
0.589129
0.58909
0.588983
0.588739
0.588385
0.588013
0.587667
0.587382
0.58721
0.587131
0.58709
0.587052
0.586999
0.586928
0.586855
0.586809
0.586792
0.650994
0.627451
0.609151
0.59811
0.592795
0.590561
0.589653
0.589309
0.58924
0.589274
0.58929
0.589226
0.588972
0.58857
0.588152
0.587774
0.587454
0.587253
0.587137
0.587049
0.586958
0.586848
0.586729
0.586653
0.586632
0.664648
0.639958
0.618854
0.604199
0.595961
0.59204
0.590345
0.589667
0.589471
0.589514
0.589637
0.589723
0.589696
0.589454
0.589003
0.588497
0.587959
0.587524
0.587237
0.587048
0.586904
0.586755
0.586582
0.586418
0.586337
0.679292
0.654181
0.631047
0.612934
0.601204
0.59482
0.59176
0.590432
0.589957
0.589914
0.590086
0.590316
0.590479
0.590483
0.590246
0.589742
0.589064
0.588294
0.587655
0.587181
0.586887
0.586679
0.58641
0.586002
0.585587
0.694962
0.669889
0.645469
0.624499
0.609133
0.599579
0.594424
0.591937
0.590896
0.590617
0.590736
0.591046
0.591388
0.591633
0.591672
0.591386
0.590897
0.59009
0.588974
0.58798
0.587193
0.586603
0.586069
0.585237
0.583995
0.711699
0.686689
0.661766
0.638804
0.620136
0.60701
0.599003
0.594681
0.592611
0.591817
0.591728
0.592011
0.592463
0.592932
0.593292
0.593414
0.593195
0.592659
0.591846
0.590815
0.589584
0.588426
0.587465
0.586944
0.58684
0.72909
0.704451
0.679708
0.655497
0.634232
0.617626
0.606218
0.599303
0.595567
0.593816
0.593234
0.593316
0.593744
0.59432
0.594905
0.5954
0.595709
0.595765
0.595619
0.595182
0.594495
0.593622
0.592859
0.592579
0.593003
0.746754
0.722988
0.698454
0.673993
0.65113
0.631595
0.616664
0.606528
0.600383
0.597062
0.595548
0.595131
0.595342
0.595874
0.596532
0.597185
0.597757
0.598217
0.598545
0.598711
0.598713
0.59856
0.598333
0.598243
0.598453
0.764086
0.741778
0.717867
0.693799
0.670221
0.648629
0.630588
0.616999
0.607793
0.602171
0.599116
0.59775
0.597431
0.597715
0.598302
0.599001
0.59969
0.600302
0.600808
0.601198
0.601468
0.601635
0.601752
0.601887
0.602047
0.780303
0.760208
0.737775
0.714318
0.690721
0.668063
0.647745
0.631017
0.618463
0.609891
0.604578
0.601646
0.600318
0.600005
0.600284
0.600865
0.601559
0.60225
0.602847
0.603327
0.603698
0.603966
0.604155
0.604296
0.604407
0.794398
0.777214
0.756902
0.734745
0.711804
0.689171
0.667498
0.648376
0.632749
0.620928
0.612716
0.607514
0.604549
0.603121
0.602688
0.602859
0.603365
0.603998
0.60459
0.605071
0.605431
0.605676
0.605832
0.60591
0.605914
0.805468
0.791715
0.774253
0.754186
0.732564
0.710458
0.689035
0.668472
0.65046
0.635657
0.624284
0.616227
0.610942
0.60775
0.606041
0.60533
0.605297
0.605646
0.60608
0.606441
0.606708
0.606874
0.606933
0.606899
0.606777
0.81303
0.802778
0.788734
0.771531
0.752078
0.731006
0.710488
0.690873
0.671258
0.653768
0.639546
0.628566
0.620476
0.614861
0.611232
0.609059
0.60794
0.60758
0.607625
0.607731
0.607783
0.607779
0.607697
0.607525
0.607273
0.817158
0.809916
0.799385
0.785651
0.769241
0.750823
0.730155
0.712452
0.695099
0.675184
0.658398
0.644961
0.634084
0.625621
0.619467
0.615236
0.612455
0.610764
0.609866
0.60943
0.60915
0.608856
0.60853
0.608177
0.607771
0.818378
0.813292
0.805814
0.795658
0.782894
0.768125
0.751482
0.733308
0.715549
0.697738
0.680632
0.665397
0.652018
0.640786
0.631887
0.625129
0.62015
0.616606
0.614152
0.612508
0.611421
0.610623
0.609951
0.609319
0.608677
0.817365
0.813584
0.808364
0.801307
0.792153
0.78097
0.768005
0.752977
0.736528
0.719545
0.704236
0.690151
0.674866
0.660867
0.649365
0.639995
0.632416
0.626485
0.621979
0.618599
0.616068
0.614161
0.612693
0.61151
0.610483
0.814702
0.811654
0.807945
0.803241
0.797199
0.789558
0.780274
0.769346
0.756957
0.743559
0.728142
0.713933
0.700619
0.685583
0.672292
0.660568
0.650399
0.641861
0.634869
0.629235
0.624753
0.621197
0.618347
0.616058
0.614211
0.810804
0.808289
0.805624
0.802626
0.799025
0.794516
0.788826
0.781786
0.773296
0.763584
0.752076
0.739403
0.72542
0.712216
0.700211
0.68734
0.675093
0.663993
0.654333
0.646096
0.63918
0.633411
0.628628
0.624702
0.621489
0.805969
0.804071
0.802293
0.800585
0.798807
0.796734
0.794063
0.790474
0.785677
0.779628
0.772211
0.76339
0.753164
0.741857
0.728832
0.716706
0.705474
0.693514
0.681719
0.670735
0.661067
0.652636
0.645377
0.639188
0.633903
0.800779
0.79955
0.798634
0.798002
0.797617
0.797362
0.797011
0.796234
0.794718
0.79229
0.788806
0.784084
0.778067
0.77043
0.761361
0.75056
0.737843
0.726163
0.71516
0.703504
0.691867
0.680521
0.670327
0.661373
0.653447
0.796158
0.795424
0.795238
0.79552
0.79625
0.797392
0.798809
0.800232
0.80138
0.802094
0.80221
0.801389
0.799314
0.795675
0.790496
0.783438
0.774623
0.764181
0.751463
0.739589
0.728451
0.716234
0.704455
0.692972
0.68194
0.792896
0.792395
0.79267
0.793631
0.795244
0.797518
0.800371
0.803567
0.806876
0.810194
0.813333
0.815924
0.817543
0.817793
0.816433
0.813231
0.808072
0.800837
0.791657
0.781218
0.768794
0.754677
0.742363
0.730882
0.718326
0.791366
0.790917
0.791392
0.792748
0.794964
0.798062
0.802016
0.806623
0.811667
0.817056
0.822633
0.828038
0.832825
0.83654
0.838777
0.839209
0.837592
0.833763
0.827748
0.819613
0.809423
0.79783
0.785469
0.77171
0.757114
0.791595
0.791035
0.791606
0.79319
0.795767
0.799382
0.804083
0.809723
0.816043
0.822918
0.830256
0.83777
0.845054
0.851638
0.85704
0.860808
0.862537
0.861921
0.858828
0.853334
0.845619
0.835899
0.824392
0.811383
0.797427
0.793829
0.792923
0.793369
0.795025
0.797823
0.801794
0.806979
0.813315
0.820584
0.828542
0.837053
0.84597
0.854961
0.863566
0.871288
0.877648
0.882169
0.884441
0.884193
0.881316
0.875812
0.867812
0.857643
0.845797
0.832568
0.798199
0.796709
0.79677
0.798302
0.801198
0.805387
0.810864
0.817616
0.825515
0.8343
0.843707
0.853529
0.863501
0.873225
0.882295
0.890274
0.896642
0.900936
0.902807
0.902028
0.898495
0.892274
0.88359
0.872776
0.860159
0.804612
0.802776
0.802056
0.803038
0.805743
0.810083
0.815878
0.822918
0.831127
0.840384
0.850412
0.860879
0.871523
0.882042
0.892029
0.900919
0.90822
0.913535
0.916522
0.916936
0.914594
0.909516
0.901855
0.89187
0.879913
0.811259
0.809808
0.809159
0.809878
0.812118
0.815879
0.821281
0.828062
0.836439
0.846245
0.85681
0.86786
0.879083
0.890167
0.900729
0.910247
0.918239
0.924241
0.927915
0.92899
0.927236
0.922747
0.915629
0.906088
0.894509
0.813998
0.813631
0.813383
0.813932
0.815887
0.819682
0.82533
0.832589
0.841281
0.851263
0.862164
0.873592
0.884984
0.89582
0.906249
0.915841
0.923756
0.929749
0.93374
0.935194
0.933719
0.929545
0.922759
0.91358
0.902406
0.585767
0.581844
0.58134
0.593666
0.594157
0.596552
0.598969
0.600086
0.602239
0.602241
0.60272
0.603698
0.604504
0.604672
0.604971
0.605846
0.605747
0.605652
0.606557
0.606259
0.605906
0.606946
0.606552
0.606077
0.607318
0.60683
0.606285
0.608039
0.607421
0.606798
0.609567
0.608766
0.608036
0.61272
0.611523
0.610525
0.618956
0.616928
0.615225
0.629655
0.626292
0.623464
0.646846
0.641475
0.636939
0.672631
0.664912
0.658019
0.707178
0.697549
0.688238
0.744076
0.733387
0.723289
0.78482
0.772815
0.759738
0.819525
0.806853
0.793509
0.847142
0.834344
0.821081
0.867296
0.854645
0.841336
0.882133
0.869548
0.856216
0.890288
0.87767
0.864158
0.621139
0.621191
0.621251
0.621288
0.621245
0.621077
0.620765
0.62032
0.619781
0.619195
0.618601
0.618028
0.617502
0.617047
0.616677
0.616395
0.616194
0.616067
0.616004
0.615994
0.616023
0.616074
0.616138
0.61621
0.616284
0.616357
0.616427
0.616491
0.61655
0.616603
0.616646
0.616675
0.616684
0.616664
0.616606
0.616509
0.616371
0.616194
0.615983
0.615739
0.615442
0.615072
0.614618
0.614048
0.613346
0.612512
0.611541
0.610413
0.60908
0.607531
0.605868
0.604277
0.60296
0.602057
0.601599
0.601596
0.602098
0.603178
0.604899
0.607199
0.610218
0.614317
0.619558
0.625929
0.63326
0.641419
0.650219
0.659309
0.668102
0.675992
0.682421
0.686688
0.688412
0.687969
0.686401
0.684699
0.683373
0.682591
0.682319
0.682335
0.621049
0.621117
0.621187
0.621213
0.621148
0.620949
0.620603
0.62013
0.619569
0.618968
0.618371
0.617814
0.617326
0.616914
0.616578
0.616328
0.616164
0.616072
0.616036
0.616047
0.61609
0.616149
0.616215
0.616284
0.616351
0.616415
0.616474
0.616528
0.616577
0.61662
0.616655
0.616677
0.616678
0.616651
0.616587
0.616483
0.616343
0.616178
0.615986
0.615757
0.615487
0.615189
0.614835
0.614358
0.613753
0.613084
0.612361
0.611494
0.610355
0.608838
0.607003
0.605066
0.603263
0.601719
0.600482
0.599591
0.599352
0.59986
0.601175
0.603372
0.606475
0.610515
0.615699
0.621953
0.629167
0.637041
0.645334
0.654112
0.663082
0.671468
0.678534
0.683548
0.686078
0.686337
0.685171
0.683652
0.682557
0.682032
0.681923
0.682001
0.620929
0.621016
0.621091
0.621082
0.620945
0.620654
0.620218
0.619672
0.619065
0.618442
0.617842
0.617297
0.616842
0.616477
0.616182
0.615973
0.615865
0.61584
0.615878
0.615963
0.616061
0.616156
0.616248
0.616335
0.616412
0.616479
0.616536
0.616584
0.616626
0.616663
0.616691
0.616708
0.616704
0.616668
0.616592
0.61648
0.616341
0.616192
0.616045
0.615885
0.615693
0.615474
0.615216
0.614846
0.614297
0.613531
0.612475
0.611071
0.609269
0.606774
0.603458
0.600022
0.597086
0.59473
0.592957
0.591966
0.591872
0.592549
0.593817
0.595883
0.598915
0.602801
0.607633
0.613415
0.620095
0.627534
0.635581
0.644119
0.652901
0.661483
0.669307
0.675732
0.680205
0.682518
0.682996
0.682448
0.681767
0.681357
0.681208
0.681238
0.620793
0.620898
0.620961
0.620873
0.620605
0.620171
0.619611
0.61898
0.618324
0.617684
0.617086
0.616569
0.616139
0.615798
0.615559
0.615407
0.615339
0.615371
0.615482
0.615631
0.615803
0.615978
0.616146
0.616296
0.616423
0.616526
0.616608
0.616673
0.616725
0.616766
0.616796
0.616811
0.616802
0.616756
0.616666
0.616545
0.616412
0.616282
0.616165
0.616059
0.615936
0.615734
0.615333
0.61458
0.613354
0.611588
0.609163
0.605934
0.602286
0.598559
0.594762
0.591361
0.588558
0.586537
0.58502
0.584
0.583767
0.584339
0.585647
0.587738
0.590658
0.59438
0.598896
0.60419
0.610233
0.616968
0.624326
0.632211
0.640459
0.648836
0.657026
0.664618
0.671136
0.676123
0.679304
0.68078
0.681064
0.680803
0.680473
0.680254
0.620655
0.620763
0.620777
0.620555
0.620115
0.619528
0.618862
0.618169
0.617489
0.616853
0.616282
0.61579
0.615384
0.615075
0.614867
0.614756
0.61474
0.614818
0.614973
0.615179
0.615421
0.615683
0.61594
0.616178
0.616384
0.616554
0.616691
0.616797
0.616878
0.61694
0.616981
0.616997
0.616982
0.616923
0.616818
0.616684
0.616555
0.61645
0.616353
0.6162
0.615878
0.615228
0.614044
0.612139
0.60945
0.606062
0.602071
0.597682
0.593344
0.58937
0.585742
0.582479
0.579771
0.577709
0.576307
0.575603
0.575584
0.576234
0.57757
0.579616
0.582379
0.585851
0.590025
0.594885
0.600399
0.606523
0.613206
0.620382
0.627963
0.635839
0.643879
0.65191
0.659691
0.666859
0.672901
0.677242
0.679551
0.680068
0.679579
0.678994
0.620552
0.620644
0.620563
0.620171
0.619566
0.618865
0.618132
0.617408
0.616723
0.616096
0.615545
0.615079
0.614706
0.61443
0.614252
0.614173
0.614188
0.614292
0.614476
0.614725
0.615022
0.615349
0.615682
0.616006
0.6163
0.616554
0.616765
0.616934
0.617065
0.617162
0.617226
0.61725
0.617224
0.617152
0.617043
0.616916
0.616788
0.616641
0.616382
0.615837
0.614786
0.613027
0.610424
0.606934
0.602684
0.598085
0.593239
0.58862
0.58429
0.580241
0.576686
0.573724
0.571386
0.569623
0.568464
0.567935
0.568022
0.568719
0.570041
0.572
0.574594
0.577821
0.581679
0.586153
0.591221
0.596848
0.602994
0.609607
0.61663
0.624005
0.631685
0.639631
0.647794
0.656043
0.664033
0.671075
0.676177
0.678486
0.678266
0.677253
0.620559
0.620606
0.620392
0.61983
0.619109
0.618337
0.617562
0.616818
0.616128
0.615509
0.614973
0.614528
0.61418
0.61393
0.613777
0.61372
0.613755
0.613878
0.61408
0.614351
0.614678
0.615045
0.615435
0.615818
0.616186
0.616519
0.616806
0.617045
0.617235
0.617378
0.617469
0.617506
0.617484
0.617413
0.617308
0.617171
0.61696
0.616557
0.61576
0.614314
0.612003
0.608732
0.604598
0.599824
0.594694
0.589484
0.584453
0.579776
0.575573
0.571882
0.568695
0.566067
0.564002
0.562476
0.561496
0.56107
0.561205
0.561905
0.56318
0.565035
0.567465
0.570475
0.574062
0.578216
0.582921
0.588156
0.593893
0.600095
0.606722
0.613735
0.621102
0.628818
0.636908
0.645382
0.654141
0.662811
0.670487
0.675444
0.676239
0.674776
0.620789
0.620755
0.620405
0.619717
0.618904
0.618064
0.61724
0.616466
0.615761
0.615138
0.614605
0.614168
0.613832
0.613596
0.613459
0.613417
0.613467
0.613601
0.613813
0.614094
0.614433
0.614817
0.615235
0.615659
0.61607
0.616455
0.616802
0.617099
0.617341
0.617523
0.617642
0.617695
0.61769
0.617633
0.617514
0.617272
0.616766
0.61577
0.614024
0.611295
0.607471
0.602733
0.597563
0.592077
0.58666
0.581333
0.576458
0.572038
0.56813
0.564748
0.561864
0.559485
0.557609
0.556233
0.555364
0.555008
0.55517
0.55586
0.557083
0.558839
0.56113
0.563961
0.56733
0.571229
0.575649
0.580579
0.586002
0.591897
0.59824
0.605004
0.612162
0.619699
0.627624
0.635969
0.64475
0.6539
0.662997
0.670362
0.673007
0.671589
0.621381
0.621243
0.620752
0.619943
0.61902
0.618085
0.617195
0.616377
0.615644
0.615002
0.614456
0.614012
0.613673
0.613438
0.613306
0.61327
0.613326
0.613466
0.613682
0.613964
0.614304
0.614688
0.615105
0.615544
0.615973
0.616382
0.616756
0.617084
0.617354
0.617559
0.617696
0.61777
0.617784
0.617717
0.617499
0.616971
0.61589
0.613988
0.611047
0.606911
0.601719
0.596393
0.590589
0.584766
0.579301
0.574244
0.569659
0.565547
0.561921
0.558775
0.5561
0.553893
0.552152
0.55088
0.550083
0.549768
0.549943
0.550615
0.55179
0.553466
0.55565
0.558345
0.56155
0.565262
0.569476
0.574185
0.579382
0.585056
0.591195
0.597783
0.604803
0.612232
0.620051
0.628248
0.636833
0.645837
0.65514
0.663691
0.668614
0.668378
0.622424
0.622172
0.621485
0.620517
0.619444
0.618387
0.617412
0.616537
0.615761
0.615085
0.614512
0.614047
0.613692
0.613447
0.613309
0.613273
0.613329
0.613469
0.613683
0.613961
0.614292
0.614666
0.615069
0.615491
0.615912
0.616313
0.616684
0.617011
0.617281
0.617488
0.617634
0.61772
0.617725
0.617577
0.617118
0.616096
0.614219
0.611256
0.6071
0.601914
0.596391
0.590384
0.584235
0.578529
0.573251
0.568449
0.564117
0.560248
0.556836
0.55387
0.551344
0.549257
0.547608
0.546404
0.545651
0.545358
0.545533
0.546185
0.547317
0.548935
0.551042
0.553643
0.556736
0.560323
0.564402
0.568972
0.574028
0.579567
0.585584
0.59207
0.599014
0.606397
0.614192
0.622355
0.630848
0.639658
0.648723
0.657532
0.664432
0.666395
0.62385
0.623462
0.62258
0.62141
0.620129
0.618924
0.617858
0.616916
0.616085
0.615362
0.61475
0.614253
0.613873
0.61361
0.613459
0.613413
0.613462
0.613595
0.613803
0.614072
0.614391
0.614748
0.615129
0.615521
0.615911
0.61628
0.61662
0.616916
0.617162
0.617356
0.617497
0.61757
0.617515
0.617187
0.616342
0.614673
0.611906
0.607906
0.602835
0.597306
0.591325
0.584889
0.578984
0.573507
0.568468
0.563892
0.559767
0.55608
0.552822
0.549983
0.547559
0.54555
0.543959
0.542794
0.542062
0.541774
0.541941
0.542572
0.543672
0.545248
0.547305
0.549845
0.552871
0.556386
0.560392
0.564891
0.569885
0.575372
0.581353
0.587822
0.594772
0.602189
0.610049
0.618308
0.626902
0.635753
0.644777
0.653801
0.661937
0.665987
0.625622
0.625082
0.623975
0.622493
0.620936
0.619578
0.618436
0.617434
0.616546
0.615772
0.615115
0.614583
0.614178
0.613896
0.613731
0.613672
0.613711
0.613835
0.614032
0.614288
0.614591
0.614926
0.615279
0.615636
0.615983
0.616307
0.616599
0.616851
0.617065
0.61724
0.617366
0.6174
0.617228
0.61663
0.615298
0.61292
0.609312
0.604573
0.599121
0.593104
0.586643
0.580595
0.57496
0.569705
0.564885
0.560499
0.556534
0.552981
0.549829
0.547074
0.544713
0.542749
0.541188
0.540038
0.539308
0.53901
0.53916
0.53977
0.540847
0.542399
0.544427
0.546935
0.549929
0.553414
0.557397
0.561884
0.56688
0.572389
0.578415
0.584957
0.592011
0.599566
0.607603
0.616085
0.62495
0.634085
0.643371
0.652784
0.661446
0.666356
0.627565
0.626851
0.62538
0.62345
0.621617
0.620169
0.618961
0.617898
0.61697
0.616171
0.615499
0.614956
0.614543
0.614257
0.614086
0.614019
0.614047
0.614161
0.614346
0.614589
0.614875
0.615189
0.615514
0.615836
0.616141
0.61642
0.616669
0.616889
0.617083
0.617249
0.617362
0.617343
0.617018
0.616102
0.614252
0.611242
0.607133
0.60193
0.596029
0.589608
0.583446
0.577652
0.572189
0.56712
0.562466
0.558218
0.554364
0.550898
0.547813
0.545106
0.542777
0.540831
0.539276
0.538124
0.53738
0.537059
0.537182
0.537766
0.538831
0.540375
0.542395
0.544894
0.547883
0.551372
0.555371
0.559891
0.564942
0.570535
0.576677
0.583375
0.590632
0.598444
0.606799
0.615665
0.624986
0.634656
0.64457
0.654656
0.66363
0.668237
0.629158
0.628195
0.626239
0.62388
0.621908
0.620402
0.619114
0.618016
0.617097
0.616338
0.615718
0.615226
0.614852
0.614597
0.614456
0.614407
0.614438
0.614546
0.614722
0.614952
0.615223
0.615521
0.615828
0.616129
0.61641
0.616667
0.616902
0.617121
0.617332
0.617524
0.617654
0.6176
0.617131
0.61591
0.613629
0.61022
0.605649
0.599949
0.593775
0.587602
0.581654
0.575979
0.57065
0.565712
0.561164
0.556998
0.553207
0.549787
0.546734
0.544044
0.541723
0.539775
0.538206
0.537029
0.536261
0.53592
0.536023
0.536589
0.537638
0.539179
0.541203
0.543708
0.54671
0.550223
0.554263
0.558844
0.563984
0.569699
0.576006
0.582923
0.590466
0.59865
0.607481
0.61695
0.627023
0.637658
0.648819
0.660112
0.669251
0.675796
0.629151
0.628144
0.625812
0.623258
0.621326
0.619812
0.618544
0.61751
0.616696
0.616083
0.615625
0.615279
0.615022
0.614852
0.614775
0.614785
0.614859
0.614986
0.615163
0.615385
0.615647
0.615938
0.616245
0.616552
0.616847
0.617128
0.617404
0.617686
0.617981
0.618272
0.618484
0.618451
0.617884
0.616427
0.613827
0.610014
0.604868
0.599076
0.593019
0.586987
0.581116
0.575525
0.570286
0.565417
0.560916
0.556782
0.553011
0.549603
0.546553
0.543857
0.541512
0.539529
0.537926
0.536724
0.535943
0.535597
0.535694
0.536251
0.537287
0.538816
0.540834
0.543341
0.546361
0.54991
0.554005
0.558666
0.563914
0.569772
0.576269
0.583436
0.591312
0.59994
0.609371
0.619657
0.630868
0.643104
0.656527
0.670875
0.683821
0.696394
0.624935
0.6252
0.62306
0.620889
0.619313
0.618026
0.617004
0.616273
0.615768
0.615418
0.615176
0.615025
0.614952
0.614947
0.615006
0.615131
0.615302
0.615502
0.615721
0.61596
0.616227
0.616528
0.616862
0.617218
0.617586
0.617964
0.618365
0.618807
0.619292
0.619783
0.62017
0.620227
0.619615
0.617975
0.615057
0.610792
0.605518
0.5998
0.593713
0.587666
0.581809
0.576249
0.571031
0.566167
0.56166
0.55751
0.553722
0.550297
0.54722
0.544476
0.542073
0.540043
0.53841
0.53719
0.536396
0.536042
0.53614
0.536708
0.537752
0.53927
0.54127
0.543777
0.546817
0.550405
0.554558
0.559298
0.56465
0.570643
0.577314
0.58471
0.592889
0.601929
0.611932
0.623046
0.63551
0.649598
0.665684
0.684663
0.706887
0.731454
0.602079
0.612951
0.615467
0.615871
0.615617
0.615208
0.614838
0.614587
0.614434
0.614342
0.61431
0.614371
0.614542
0.614778
0.615056
0.61538
0.615739
0.616103
0.616457
0.616792
0.617125
0.617479
0.617885
0.618353
0.618876
0.619453
0.620098
0.620825
0.621624
0.622426
0.623063
0.623254
0.622622
0.620809
0.617617
0.613118
0.607804
0.601885
0.595694
0.589582
0.58368
0.578078
0.572811
0.567894
0.56333
0.559119
0.555269
0.551779
0.54863
0.545814
0.543362
0.541299
0.539642
0.538403
0.537597
0.537239
0.537344
0.537923
0.538974
0.540477
0.542459
0.544971
0.548034
0.551659
0.555863
0.560668
0.566101
0.572194
0.578989
0.586538
0.594911
0.6042
0.614528
0.626083
0.639148
0.654038
0.67136
0.692333
0.719333
0.756998
0.602632
0.607181
0.609925
0.611441
0.612062
0.612341
0.612504
0.612611
0.612725
0.612877
0.613073
0.613369
0.613799
0.614294
0.614839
0.615456
0.616106
0.616743
0.61737
0.617956
0.618503
0.619033
0.61961
0.620286
0.621072
0.621973
0.622991
0.624129
0.625346
0.626517
0.627411
0.627761
0.62711
0.625078
0.621639
0.616958
0.611367
0.605209
0.598878
0.592642
0.586628
0.580916
0.575539
0.57051
0.565837
0.561522
0.557569
0.553971
0.550725
0.547845
0.545352
0.54326
0.541579
0.540324
0.539508
0.539154
0.539269
0.539843
0.54087
0.54236
0.544352
0.546886
0.549976
0.553633
0.557875
0.562721
0.568198
0.574338
0.58118
0.588777
0.597191
0.606505
0.616827
0.628301
0.641051
0.655261
0.671483
0.690375
0.712205
0.736199
0.604685
0.606364
0.607827
0.608876
0.609517
0.609952
0.610298
0.61059
0.610893
0.611256
0.611704
0.61223
0.612822
0.613519
0.614374
0.615348
0.616328
0.617307
0.61834
0.619385
0.620376
0.621319
0.622268
0.623305
0.624498
0.625852
0.627364
0.629002
0.630685
0.632241
0.633382
0.63372
0.632886
0.630631
0.626908
0.621929
0.616044
0.609659
0.603136
0.596711
0.590516
0.584633
0.579101
0.57393
0.569121
0.564676
0.560593
0.556867
0.553507
0.550542
0.547993
0.545871
0.544178
0.542918
0.542104
0.541743
0.541837
0.542387
0.543404
0.544913
0.54694
0.549504
0.552619
0.556299
0.560557
0.565415
0.570893
0.57702
0.583831
0.591366
0.599674
0.608812
0.618848
0.629842
0.641797
0.654833
0.669197
0.684881
0.701321
0.716811
0.604901
0.605877
0.606625
0.607183
0.607641
0.608039
0.608389
0.608739
0.609137
0.609622
0.610218
0.610929
0.61176
0.612734
0.613855
0.615077
0.616378
0.617779
0.619274
0.620873
0.622472
0.62407
0.625635
0.627293
0.629103
0.631059
0.633169
0.635358
0.637488
0.639338
0.640587
0.640838
0.639764
0.637183
0.633117
0.627817
0.621655
0.615024
0.608262
0.601607
0.595202
0.589125
0.583409
0.578066
0.5731
0.568512
0.564299
0.56046
0.556999
0.553947
0.551334
0.549165
0.547438
0.546156
0.545326
0.544947
0.545026
0.545582
0.546626
0.54817
0.550229
0.552817
0.555948
0.559633
0.563886
0.568722
0.574161
0.580224
0.586935
0.594322
0.602413
0.611235
0.620807
0.631116
0.642133
0.653875
0.666323
0.679221
0.691893
0.703064
0.605346
0.605661
0.605879
0.606056
0.606252
0.606486