/*--------------------------------*- C++ -*----------------------------------*\
| =========                 |                                                 |
| \\      /  F ield         | OpenFOAM: The Open Source CFD Toolbox           |
|  \\    /   O peration     | Version:  v2012                                 |
|   \\  /    A nd           | Website:  www.openfoam.com                      |
|    \\/     M anipulation  |                                                 |
\*---------------------------------------------------------------------------*/
FoamFile
{
    version     2.0;
    format      ascii;
    class       surfaceScalarField;
    location    "487";
    object      phi;
}
// * * * * * * * * * * * * * * * * * * * * * * * * * * * * * * * * * * * * * //

dimensions      [0 3 -1 0 0 0 0];
oriented        oriented;


internalField   nonuniform List<scalar> 
12820
(
4.3889e-06
0.000195611
2.22615e-06
0.000202163
1.14602e-06
0.00020108
5.17722e-07
0.000200628
1.64822e-08
0.000200501
-4.86492e-07
0.000200503
-1.12011e-06
0.000200634
-2.20845e-06
0.000201088
-4.37553e-06
0.000202167
0.000195624
6.31028e-06
0.000189301
4.88143e-06
0.000203592
2.98181e-06
0.00020298
1.40905e-06
0.000202201
5.08085e-08
0.000201859
-1.3118e-06
0.000201866
-2.8968e-06
0.000202219
-4.81382e-06
0.000203005
-6.2686e-06
0.000203622
0.000189356
6.31252e-06
0.000182988
5.40306e-06
0.000204501
3.65066e-06
0.000204732
1.84059e-06
0.000204011
9.18632e-08
0.000203608
-1.66394e-06
0.000203621
-3.49436e-06
0.000204049
-5.27924e-06
0.00020479
-6.24286e-06
0.000204585
0.000183113
6.34624e-06
0.000176642
5.75692e-06
0.00020509
4.00451e-06
0.000206485
2.07608e-06
0.00020594
1.44296e-07
0.00020554
-1.79778e-06
0.000205563
-3.75628e-06
0.000206008
-5.55909e-06
0.000206593
-6.22748e-06
0.000205254
0.000176886
6.43843e-06
0.000170204
5.98991e-06
0.000205539
4.26764e-06
0.000208207
2.26825e-06
0.000207939
2.13843e-07
0.000207594
-1.85461e-06
0.000207632
-3.89475e-06
0.000208048
-5.68512e-06
0.000208383
-6.24562e-06
0.000205814
0.00017064
6.45064e-06
0.000163753
6.11114e-06
0.000205878
4.44095e-06
0.000209877
2.42423e-06
0.000209956
3.07315e-07
0.000209711
-1.82838e-06
0.000209768
-3.89976e-06
0.000210119
-5.66362e-06
0.000210147
-6.16084e-06
0.000206312
0.000164479
6.42334e-06
0.00015733
6.19693e-06
0.000206105
4.57043e-06
0.000211504
2.56472e-06
0.000211961
4.33523e-07
0.000211843
-1.72239e-06
0.000211924
-3.80024e-06
0.000212197
-5.55005e-06
0.000211897
-5.99861e-06
0.00020676
0.00015848
6.39577e-06
0.000150934
6.29083e-06
0.00020621
4.67958e-06
0.000213115
2.7159e-06
0.000213925
6.02405e-07
0.000213956
-1.54606e-06
0.000214072
-3.6157e-06
0.000214267
-5.37126e-06
0.000213653
-5.78362e-06
0.000207172
0.000152697
6.38486e-06
0.000144549
6.39041e-06
0.000206204
4.80824e-06
0.000214697
2.90483e-06
0.000215828
8.30516e-07
0.00021603
-1.29118e-06
0.000216194
-3.33832e-06
0.000216314
-5.12186e-06
0.000215436
-5.5149e-06
0.000207566
0.000147182
6.39712e-06
0.000138152
6.50778e-06
0.000206094
5.04331e-06
0.000216161
3.18045e-06
0.000217691
1.14443e-06
0.000218066
-9.46621e-07
0.000218285
-2.9755e-06
0.000218343
-4.7686e-06
0.000217229
-5.17209e-06
0.000207969
0.00014201
6.45265e-06
0.000131699
6.70319e-06
0.000205843
5.37805e-06
0.000217487
3.56133e-06
0.000219508
1.56238e-06
0.000220065
-5.017e-07
0.000220349
-2.52146e-06
0.000220362
-4.29275e-06
0.000219001
-4.73177e-06
0.000208408
0.000137278
6.55819e-06
0.000125141
7.00388e-06
0.000205397
5.78542e-06
0.000218705
4.04479e-06
0.000221249
2.09808e-06
0.000222012
6.86205e-08
0.000222378
-1.93337e-06
0.000222364
-3.68907e-06
0.000220756
-4.18376e-06
0.000208903
0.000133094
6.60413e-06
0.000118537
7.39059e-06
0.000204611
6.30192e-06
0.000219794
4.65651e-06
0.000222894
2.77852e-06
0.00022389
7.9362e-07
0.000224363
-1.18959e-06
0.000224348
-2.9323e-06
0.000222499
-3.51263e-06
0.000209483
0.000129582
6.6028e-06
0.000111934
7.89335e-06
0.00020332
6.97091e-06
0.000220716
5.43932e-06
0.000224426
3.64564e-06
0.000225684
1.71454e-06
0.000226294
-2.49082e-07
0.000226311
-1.99015e-06
0.00022424
-2.69006e-06
0.000210183
0.000126892
6.63615e-06
0.000105298
8.52151e-06
0.000201435
7.82663e-06
0.000221411
6.4407e-06
0.000225812
4.75359e-06
0.000227371
2.89257e-06
0.000228155
9.58078e-07
0.000228246
-8.18382e-07
0.000226017
-1.69543e-06
0.00021106
0.000125196
6.77539e-06
9.85226e-05
9.33777e-06
0.000198873
8.92436e-06
0.000221824
7.71877e-06
0.000227017
6.16587e-06
0.000228924
4.39618e-06
0.000229925
2.49837e-06
0.000230143
6.63135e-07
0.000227852
-4.90683e-07
0.000212214
0.000124706
7.05298e-06
9.14696e-05
1.04102e-05
0.000195515
1.03296e-05
0.000221905
9.34057e-06
0.000228006
7.95593e-06
0.000230308
6.30847e-06
0.000231572
4.46542e-06
0.000231987
2.55276e-06
0.000229764
9.51902e-07
0.000213815
0.000125657
7.46901e-06
8.40006e-05
1.17882e-05
0.000191196
1.20967e-05
0.000221597
1.1372e-05
0.000228731
1.02048e-05
0.000231476
8.73223e-06
0.000233045
6.99026e-06
0.000233728
5.02636e-06
0.000231728
2.80687e-06
0.000216034
0.000128464
7.94477e-06
7.60558e-05
1.34279e-05
0.000185713
1.425e-05
0.000220774
1.38632e-05
0.000229118
1.29857e-05
0.000232353
1.17779e-05
0.000234253
1.02463e-05
0.00023526
8.37494e-06
0.0002336
5.45122e-06
0.000218958
0.000133916
8.42154e-06
6.76343e-05
1.52719e-05
0.000178863
1.68201e-05
0.000219226
1.6849e-05
0.000229089
1.63529e-05
0.000232849
1.5553e-05
0.000235053
1.43961e-05
0.000236417
1.29945e-05
0.000235001
1.0187e-05
0.000221765
0.000144103
8.86698e-06
5.87673e-05
1.72219e-05
0.000170508
1.97771e-05
0.000216671
2.03127e-05
0.000228553
2.02883e-05
0.000232874
2.00357e-05
0.000235305
1.96574e-05
0.000236795
1.93444e-05
0.000235314
1.84635e-05
0.000222646
0.000151378
1.11882e-05
9.10673e-06
4.96606e-05
1.91303e-05
0.000160484
2.30011e-05
0.0002128
2.41448e-05
0.000227409
2.46251e-05
0.000232393
2.49474e-05
0.000234983
2.5327e-05
0.000236416
2.56716e-05
0.00023497
2.46099e-05
0.000223708
0.000163362
1.26256e-05
9.02376e-06
4.06368e-05
2.08562e-05
0.000148652
2.63639e-05
0.000207293
2.82039e-05
0.000225569
2.91767e-05
0.000231421
2.99693e-05
0.00023419
3.07163e-05
0.000235669
3.12625e-05
0.000234424
3.01756e-05
0.000224795
0.000174433
1.91044e-05
8.67743e-06
3.19594e-05
2.22296e-05
0.0001351
2.97103e-05
0.000199812
3.24217e-05
0.000222858
3.38696e-05
0.000229973
3.50353e-05
0.000233025
3.61102e-05
0.000234594
3.69203e-05
0.000233613
3.61572e-05
0.000225558
0.000184724
2.58662e-05
8.08325e-06
2.38762e-05
2.31521e-05
0.000120031
3.28726e-05
0.000190091
3.67843e-05
0.000218946
3.87362e-05
0.000228021
4.02489e-05
0.000231512
4.16479e-05
0.000233195
4.26817e-05
0.00023258
4.22171e-05
0.000226022
0.000194021
3.29201e-05
7.29263e-06
1.65835e-05
2.36019e-05
0.000103721
3.56945e-05
0.000177999
4.12111e-05
0.00021343
4.37797e-05
0.000225452
4.56225e-05
0.000229669
4.72949e-05
0.000231522
4.84857e-05
0.000231389
4.83438e-05
0.000226164
0.000201928
4.04372e-05
6.32607e-06
1.02575e-05
2.34764e-05
8.65711e-05
3.79818e-05
0.000163493
4.55257e-05
0.000205886
4.89538e-05
0.000222024
5.11377e-05
0.000227485
5.30245e-05
0.000229636
5.44478e-05
0.000229966
5.46481e-05
0.000225964
0.000208219
4.83574e-05
5.25351e-06
5.00394e-06
2.26968e-05
6.91278e-05
3.95285e-05
0.000146662
4.94825e-05
0.000195932
5.41539e-05
0.000217353
5.67809e-05
0.000224858
5.88708e-05
0.000227546
6.05822e-05
0.000228254
6.11577e-05
0.000225389
0.000212815
5.65609e-05
4.2081e-06
7.95838e-07
2.12499e-05
5.2086e-05
4.01157e-05
0.000127796
5.27886e-05
0.000183259
5.91951e-05
0.000210946
6.25095e-05
0.000221544
6.48571e-05
0.000225198
6.68093e-05
0.000226302
6.77871e-05
0.000224411
0.000215766
6.48361e-05
3.23507e-06
-2.43923e-06
1.91114e-05
3.62097e-05
3.94983e-05
0.000107409
5.50831e-05
0.000167674
6.37897e-05
0.00020224
6.81968e-05
0.000217137
7.09399e-05
0.000222455
7.31329e-05
0.000224109
7.44251e-05
0.000223119
0.00021725
7.29413e-05
2.41412e-06
-4.85336e-06
1.63341e-05
2.22898e-05
3.749e-05
8.62531e-05
5.59591e-05
0.000149205
6.75312e-05
0.000190667
7.36043e-05
0.000211064
7.70225e-05
0.000219037
7.95029e-05
0.000221628
8.11196e-05
0.000221502
0.000217574
8.07957e-05
1.77015e-06
-6.62351e-06
1.30023e-05
1.10576e-05
3.40248e-05
6.52306e-05
5.50503e-05
0.000128179
6.99271e-05
0.000175791
7.83629e-05
0.000202628
8.29177e-05
0.000214482
8.58373e-05
0.000218709
8.78816e-05
0.000219458
0.00021701
8.84462e-05
1.12018e-06
-7.74369e-06
9.44066e-06
2.73709e-06
2.92992e-05
4.53721e-05
5.2155e-05
0.000105324
7.04795e-05
0.000157466
8.19867e-05
0.000191121
8.83433e-05
0.000208125
9.20583e-05
0.000214994
9.4584e-05
0.000216932
0.000215752
9.5842e-05
4.82539e-07
-8.22623e-06
6.34434e-06
-3.12471e-06
2.38289e-05
2.78876e-05
4.73228e-05
8.18296e-05
6.87765e-05
0.000136012
8.38948e-05
0.000176002
9.28542e-05
0.000199166
9.79285e-05
0.00020992
0.000101113
0.000213747
0.000213871
0.000102994
6.80853e-08
-8.29431e-06
4.26687e-06
-7.3235e-06
1.82793e-05
1.38752e-05
4.08729e-05
5.92361e-05
6.45821e-05
0.000112303
8.34717e-05
0.000157113
9.58189e-05
0.000186819
0.000103027
0.000202711
0.000107284
0.00020949
0.000211237
0.000109919
-1.21052e-07
-8.17326e-06
2.91829e-06
-1.03628e-05
1.32176e-05
3.57588e-06
3.3384e-05
3.90697e-05
5.79551e-05
8.7732e-05
8.02116e-05
0.000134856
9.64944e-05
0.000170536
0.000106741
0.000192464
0.000112783
0.000203448
0.000207579
0.000116441
-2.52108e-07
-7.92115e-06
1.82235e-06
-1.24373e-05
9.03604e-06
-3.6378e-06
2.56913e-05
2.24144e-05
4.93923e-05
6.40311e-05
7.39281e-05
0.000110321
9.41757e-05
0.000150288
0.000108261
0.00017838
0.000117011
0.000194697
0.000202334
0.000122256
-1.49551e-07
-7.7716e-06
1.12246e-06
-1.37093e-05
6.04808e-06
-8.56341e-06
1.87335e-05
9.72896e-06
3.98303e-05
4.29343e-05
6.49353e-05
8.52156e-05
8.84261e-05
0.000126798
0.000106722
0.000160084
0.000119122
0.000182297
0.00019462
0.000126836
5.79072e-08
-7.82951e-06
8.8621e-07
-1.45376e-05
4.28602e-06
-1.19632e-05
1.32299e-05
7.85069e-07
3.04408e-05
2.57234e-05
5.41008e-05
6.15556e-05
7.93219e-05
0.000101576
0.000101461
0.000137945
0.000118132
0.000165625
0.000183428
0.000129324
1.2516e-08
-7.84203e-06
4.9718e-07
-1.50223e-05
2.92514e-06
-1.43912e-05
9.17416e-06
-5.46395e-06
2.21964e-05
1.27012e-05
4.26811e-05
4.10708e-05
6.75957e-05
7.66619e-05
9.23267e-05
0.000113214
0.000113194
0.000144758
0.000167972
0.00012865
-3.65522e-07
-7.4765e-06
-4.39851e-07
-1.49479e-05
1.13875e-06
-1.59698e-05
5.76811e-06
-1.00933e-05
1.53811e-05
3.08814e-06
3.19078e-05
2.45442e-05
5.45559e-05
5.40138e-05
7.99292e-05
8.78411e-05
0.000103976
0.000120712
0.000148132
0.000123816
-7.65301e-07
-6.7112e-06
-1.53452e-06
-1.41787e-05
-8.74078e-07
-1.66302e-05
2.51315e-06
-1.34805e-05
9.75798e-06
-4.15669e-06
2.25657e-05
1.17365e-05
4.17088e-05
3.48707e-05
6.56268e-05
6.39231e-05
9.10002e-05
9.53381e-05
0.000124765
0.000114368
-1.04351e-06
-5.66769e-06
-2.39824e-06
-1.2824e-05
-2.55828e-06
-1.64702e-05
-2.94001e-07
-1.57448e-05
5.1973e-06
-9.64799e-06
1.49829e-05
1.95084e-06
3.0318e-05
1.95356e-05
5.11865e-05
4.30546e-05
7.56999e-05
7.08248e-05
9.96631e-05
0.000100802
-1.13819e-06
-4.5295e-06
-2.71846e-06
-1.12437e-05
-3.37811e-06
-1.58105e-05
-2.04689e-06
-1.7076e-05
1.98122e-06
-1.36761e-05
9.40821e-06
-5.47614e-06
2.1269e-05
7.67474e-06
3.83207e-05
2.60029e-05
6.00961e-05
4.90494e-05
7.50976e-05
8.46616e-05
-9.133e-07
-3.6162e-06
-2.13535e-06
-1.00217e-05
-2.78111e-06
-1.51648e-05
-2.04671e-06
-1.78104e-05
8.42262e-07
-1.65651e-05
6.37473e-06
-1.10086e-05
1.5259e-05
-1.20949e-06
2.84176e-05
1.28442e-05
4.6298e-05
3.1169e-05
5.31673e-05
6.82283e-05
-4.52149e-07
-3.16405e-06
-8.32778e-07
-9.64105e-06
-7.55326e-07
-1.52422e-05
6.46057e-08
-1.86304e-05
2.25172e-06
-1.87522e-05
6.33122e-06
-1.50881e-05
1.27959e-05
-7.67412e-06
2.24141e-05
3.22602e-06
3.60214e-05
1.75617e-05
3.52879e-05
5.39007e-05
4.19142e-08
-3.20596e-06
5.74028e-07
-1.01732e-05
1.62088e-06
-1.62891e-05
3.16905e-06
-2.01785e-05
5.44313e-06
-2.10263e-05
8.8029e-06
-1.84479e-05
1.36182e-05
-1.24894e-05
2.04221e-05
-3.57783e-06
3.00914e-05
7.89242e-06
2.19452e-05
4.34341e-05
4.98957e-07
-3.70492e-06
1.82583e-06
-1.15e-05
3.67778e-06
-1.8141e-05
5.96414e-06
-2.24649e-05
8.73098e-06
-2.37931e-05
1.20772e-05
-2.17941e-05
1.61607e-05
-1.65729e-05
2.12445e-05
-8.66165e-06
2.79426e-05
1.19436e-06
1.26626e-05
3.72252e-05
8.49075e-07
-4.55399e-06
2.60067e-06
-1.32516e-05
4.79537e-06
-2.03357e-05
7.43295e-06
-2.51025e-05
1.05548e-05
-2.6915e-05
1.41053e-05
-2.53446e-05
1.80453e-05
-2.05128e-05
2.24352e-05
-1.30516e-05
2.75174e-05
-3.88784e-06
6.19309e-06
3.39869e-05
9.72893e-07
-5.52688e-06
2.60217e-06
-1.48809e-05
4.54811e-06
-2.22816e-05
7.00991e-06
-2.75643e-05
1.00639e-05
-2.9969e-05
1.3595e-05
-2.88757e-05
1.74442e-05
-2.4362e-05
2.15527e-05
-1.716e-05
2.60279e-05
-8.36306e-06
1.08006e-06
3.11409e-05
7.38932e-07
-6.26581e-06
1.64629e-06
-1.57883e-05
2.76899e-06
-2.34043e-05
4.52664e-06
-2.93219e-05
7.0187e-06
-3.2461e-05
1.01509e-05
-3.20079e-05
1.37005e-05
-2.79117e-05
1.7503e-05
-2.09626e-05
2.16564e-05
-1.25165e-05
-3.57379e-06
2.63103e-05
1.0973e-07
-6.37554e-06
-1.96744e-07
-1.54818e-05
-3.66341e-07
-2.32347e-05
1.81482e-07
-2.98697e-05
1.65871e-06
-3.39382e-05
4.01089e-06
-3.43601e-05
7.02957e-06
-3.09303e-05
1.04471e-05
-2.43801e-05
1.42717e-05
-1.6341e-05
-7.94556e-06
1.86435e-05
-7.80193e-07
-5.59535e-06
-2.51821e-06
-1.37438e-05
-4.27268e-06
-2.14803e-05
-5.40248e-06
-2.87399e-05
-5.43334e-06
-3.39074e-05
-4.22647e-06
-3.5567e-05
-1.94917e-06
-3.32076e-05
1.02357e-06
-2.73529e-05
4.54362e-06
-1.98611e-05
-1.20082e-05
8.60622e-06
-1.65317e-06
-3.94217e-06
-4.72471e-06
-1.06722e-05
-8.11276e-06
-1.80922e-05
-1.11336e-05
-2.57191e-05
-1.31263e-05
-3.19147e-05
-1.36591e-05
-3.50341e-05
-1.24632e-05
-3.44036e-05
-1.01341e-05
-2.9682e-05
-6.95251e-06
-2.30426e-05
-1.57694e-05
-3.19127e-06
-2.14532e-06
-1.79686e-06
-6.08386e-06
-6.73371e-06
-1.08467e-05
-1.33293e-05
-1.57731e-05
-2.07928e-05
-2.00221e-05
-2.76657e-05
-2.27796e-05
-3.22765e-05
-2.35692e-05
-3.3614e-05
-2.23717e-05
-3.08795e-05
-1.98084e-05
-2.56059e-05
-1.91328e-05
-1.6445e-05
-1.94894e-06
1.52083e-07
-5.9279e-06
-2.75474e-06
-1.13561e-05
-7.90118e-06
-1.78021e-05
-1.43467e-05
-2.43787e-05
-2.10891e-05
-2.9885e-05
-2.67702e-05
-3.35401e-05
-2.9959e-05
-3.45684e-05
-2.98511e-05
-3.3446e-05
-2.67283e-05
-2.17026e-05
-3.08762e-05
-1.10751e-06
1.25959e-06
-4.07124e-06
2.08994e-07
-8.96694e-06
-3.00547e-06
-1.57649e-05
-7.5487e-06
-2.39276e-05
-1.29264e-05
-3.22709e-05
-1.8427e-05
-3.93588e-05
-2.28711e-05
-4.40604e-05
-2.51495e-05
-4.60053e-05
-2.47834e-05
-2.22641e-05
-4.54438e-05
-7.24117e-08
1.33201e-06
-1.26875e-06
1.40533e-06
-4.30296e-06
2.87409e-08
-9.60312e-06
-2.24853e-06
-1.72781e-05
-5.25143e-06
-2.67886e-05
-8.91649e-06
-3.68396e-05
-1.282e-05
-4.58253e-05
-1.61639e-05
-5.23977e-05
-1.8211e-05
-1.86006e-05
-5.60612e-05
6.69928e-07
6.62078e-07
1.13385e-06
9.41409e-07
4.86119e-07
6.76477e-07
-1.84184e-06
7.9431e-08
-6.37976e-06
-7.13514e-07
-1.35186e-05
-1.77762e-06
-2.31022e-05
-3.23647e-06
-3.42399e-05
-5.02616e-06
-4.52837e-05
-7.16725e-06
-9.14003e-06
-5.47442e-05
6.62078e-07
1.60349e-06
2.27996e-06
2.3594e-06
1.64588e-06
-1.31735e-07
-3.3682e-06
-8.39436e-06
-1.55616e-05
-2.47016e-05
-1.98089e-05
3.09971e-05
-1.80245e-05
-1.7844e-06
-1.39477e-05
-4.07683e-06
-1.03995e-05
-3.54819e-06
-7.16397e-06
-3.2355e-06
-4.19059e-06
-2.97337e-06
-1.47935e-06
-2.71124e-06
9.58868e-07
-2.43822e-06
3.05882e-06
-2.09995e-06
4.78096e-06
-1.72215e-06
5.96571e-06
-1.18475e-06
6.52271e-06
-5.56997e-07
6.56563e-06
-4.29198e-08
6.24181e-06
3.23825e-07
5.6101e-06
6.31707e-07
4.74976e-06
8.60335e-07
3.79261e-06
9.57154e-07
2.86779e-06
9.2482e-07
2.06067e-06
8.07126e-07
1.38894e-06
6.71721e-07
8.53917e-07
5.35021e-07
4.4387e-07
4.10045e-07
1.52289e-07
2.91578e-07
1.4753e-09
1.50811e-07
1.47491e-09
-9.27806e-06
5.29008e-05
-1.63059e-05
5.24347e-06
-1.63303e-05
-4.05247e-06
-1.40517e-05
-5.82682e-06
-1.09825e-05
-6.30466e-06
-7.53771e-06
-6.41815e-06
-3.97113e-06
-6.27781e-06
-5.07567e-07
-5.90178e-06
2.68391e-06
-5.29142e-06
5.43444e-06
-4.47268e-06
7.68944e-06
-3.43975e-06
9.39657e-06
-2.26413e-06
1.04818e-05
-1.12811e-06
1.08574e-05
-5.18441e-08
1.05301e-05
9.58994e-07
9.67314e-06
1.71734e-06
8.4299e-06
2.20039e-06
6.94923e-06
2.4055e-06
5.41085e-06
2.34551e-06
3.96042e-06
2.12214e-06
2.6807e-06
1.81475e-06
1.61289e-06
1.47784e-06
7.82853e-07
1.12161e-06
2.24619e-07
7.09042e-07
2.26094e-07
-1.18022e-06
7.31854e-05
-1.17318e-05
1.57951e-05
-1.45664e-05
-1.21785e-06
-1.41653e-05
-6.228e-06
-1.22916e-05
-8.17829e-06
-9.66104e-06
-9.04874e-06
-6.6381e-06
-9.30075e-06
-3.47256e-06
-9.06733e-06
-3.6026e-07
-8.40372e-06
2.52672e-06
-7.35966e-06
5.08522e-06
-5.99825e-06
7.23882e-06
-4.41772e-06
8.85531e-06
-2.7446e-06
9.86393e-06
-1.06046e-06
1.02629e-05
5.60043e-07
1.00859e-05
1.89435e-06
9.41294e-06
2.87332e-06
8.30395e-06
3.51449e-06
6.88914e-06
3.76031e-06
5.34463e-06
3.66666e-06
3.824e-06
3.33537e-06
2.43984e-06
2.86199e-06
1.27192e-06
2.28953e-06
4.02621e-07
1.57834e-06
6.28714e-07
5.53219e-06
9.35194e-05
-7.70939e-06
2.90367e-05
-1.2633e-05
3.70576e-06
-1.37444e-05
-5.11656e-06
-1.30356e-05
-8.8871e-06
-1.13345e-05
-1.07498e-05
-9.04504e-06
-1.15902e-05
-6.42611e-06
-1.16863e-05
-3.68671e-06
-1.11431e-05
-1.0035e-06
-1.00429e-05
1.48206e-06
-8.48381e-06
3.66159e-06
-6.59726e-06
5.45027e-06
-4.53328e-06
6.81424e-06
-2.42442e-06
7.75524e-06
-3.80957e-07
8.18455e-06
1.46504e-06
8.07991e-06
2.97796e-06
7.51307e-06
4.08134e-06
6.55705e-06
4.71633e-06
5.32883e-06
4.89487e-06
3.97048e-06
4.69373e-06
2.61963e-06
4.21284e-06
1.40152e-06
3.50765e-06
4.531e-07
2.52677e-06
1.08181e-06
1.31506e-05
0.000113289
-3.20889e-06
4.53962e-05
-1.04627e-05
1.09596e-05
-1.31581e-05
-2.42123e-06
-1.36362e-05
-8.40895e-06
-1.28679e-05
-1.15182e-05
-1.13039e-05
-1.31543e-05
-9.23241e-06
-1.37577e-05
-6.87009e-06
-1.35054e-05
-4.41652e-06
-1.24965e-05
-2.04939e-06
-1.08509e-05
8.94918e-08
-8.73614e-06
1.90723e-06
-6.35102e-06
3.36975e-06
-3.88694e-06
4.48173e-06
-1.49293e-06
5.22904e-06
7.17732e-07
5.57292e-06
2.63408e-06
5.50697e-06
4.14729e-06
5.05519e-06
5.16811e-06
4.28015e-06
5.66991e-06
3.29705e-06
5.67682e-06
2.21931e-06
5.29058e-06
1.19173e-06
4.53524e-06
3.78166e-07
3.34033e-06
1.45998e-06
2.17949e-05
0.000131931
2.86956e-06
6.43215e-05
-7.39221e-06
2.12214e-05
-1.20802e-05
2.26675e-06
-1.39424e-05
-6.54675e-06
-1.42079e-05
-1.12526e-05
-1.34541e-05
-1.39081e-05
-1.19891e-05
-1.52227e-05
-1.00319e-05
-1.54626e-05
-7.79793e-06
-1.47304e-05
-5.50144e-06
-1.31474e-05
-3.33799e-06
-1.08996e-05
-1.44877e-06
-8.24024e-06
1.01908e-07
-5.43762e-06
1.31797e-06
-2.709e-06
2.22713e-06
-1.91423e-07
2.83278e-06
2.02843e-06
3.12306e-06
3.85701e-06
3.08951e-06
5.20166e-06
2.75714e-06
6.00228e-06
2.18471e-06
6.24925e-06
1.48421e-06
5.99109e-06
7.81038e-07
5.23841e-06
2.31814e-07
3.88956e-06
1.6918e-06
3.13032e-05
0.000148985
1.07689e-05
8.48559e-05
-3.00586e-06
3.49962e-05
-1.00733e-05
9.33421e-06
-1.35968e-05
-3.02323e-06
-1.51138e-05
-9.73566e-06
-1.53284e-05
-1.36935e-05
-1.45938e-05
-1.59573e-05
-1.31451e-05
-1.69113e-05
-1.11919e-05
-1.66836e-05
-8.96213e-06
-1.53772e-05
-6.70185e-06
-1.31599e-05
-4.63143e-06
-1.03107e-05
-2.88886e-06
-7.18019e-06
-1.5077e-06
-4.09015e-06
-4.47958e-07
-1.25117e-06
3.40859e-07
1.23961e-06
8.77259e-07
3.32061e-06
1.16154e-06
4.91737e-06
1.1977e-06
5.96612e-06
1.01486e-06
6.43209e-06
6.90464e-07
6.31549e-06
3.3484e-07
5.59404e-06
7.85859e-08
4.14582e-06
1.77038e-06
4.151e-05
0.000164036
2.04422e-05
0.000105924
3.19751e-06
5.22409e-05
-6.75096e-06
1.92827e-05
-1.22765e-05
2.50235e-06
-1.5273e-05
-6.73919e-06
-1.66512e-05
-1.23153e-05
-1.68347e-05
-1.57738e-05
-1.60672e-05
-1.76788e-05
-1.45443e-05
-1.82065e-05
-1.24718e-05
-1.74497e-05
-1.01111e-05
-1.55206e-05
-7.76024e-06
-1.26615e-05
-5.6733e-06
-9.26714e-06
-3.98176e-06
-5.78168e-06
-2.68145e-06
-2.55148e-06
-1.69461e-06
2.52779e-07
-9.56862e-07
2.58286e-06
-4.39087e-07
4.3996e-06
-1.25071e-07
5.65211e-06
1.55624e-08
6.29146e-06
1.85506e-08
6.3125e-06
-2.73154e-08
5.63992e-06
-3.60025e-08
4.15451e-06
1.73438e-06
5.22318e-05
0.000176641
3.17208e-05
0.000126435
1.17173e-05
7.22444e-05
-1.68532e-06
3.26853e-05
-9.591e-06
1.0408e-05
-1.43489e-05
-1.98126e-06
-1.71171e-05
-9.54712e-06
-1.84426e-05
-1.44483e-05
-1.85814e-05
-1.754e-05
-1.77182e-05
-1.90697e-05
-1.60175e-05
-1.91504e-05
-1.36871e-05
-1.7851e-05
-1.10508e-05
-1.52979e-05
-8.48117e-06
-1.18368e-05
-6.27487e-06
-7.98798e-06
-4.54798e-06
-4.27838e-06
-3.251e-06
-1.0442e-06
-2.27447e-06
1.60633e-06
-1.54171e-06
3.66684e-06
-1.00924e-06
5.11964e-06
-6.56706e-07
5.93893e-06
-4.2021e-07
6.07601e-06
-2.42312e-07
5.46202e-06
-9.32887e-08
4.0055e-06
1.64109e-06
6.31486e-05
0.000186433
4.42888e-05
0.000145294
2.27123e-05
9.3821e-05
5.70628e-06
4.96913e-05
-5.1227e-06
2.1237e-05
-1.19825e-05
4.8785e-06
-1.63956e-05
-5.13401e-06
-1.90975e-05
-1.17464e-05
-2.04126e-05
-1.62248e-05
-2.04726e-05
-1.90097e-05
-1.94514e-05
-2.01716e-05
-1.74631e-05
-1.98394e-05
-1.47384e-05
-1.80226e-05
-1.16866e-05
-1.48886e-05
-8.78396e-06
-1.08906e-05
-6.36679e-06
-6.69555e-06
-4.52766e-06
-2.88332e-06
-3.17403e-06
2.52699e-07
-2.17407e-06
2.66687e-06
-1.43811e-06
4.38368e-06
-9.03708e-07
5.40453e-06
-5.24041e-07
5.69635e-06
-2.57414e-07
5.1954e-06
-7.91309e-08
3.82722e-06
1.56196e-06
7.38684e-05
0.000193361
5.76248e-05
0.000161538
3.59101e-05
0.000115536
1.59045e-05
6.96968e-05
1.62502e-06
3.55166e-05
-7.74676e-06
1.42503e-05
-1.40876e-05
1.20682e-06
-1.8395e-05
-7.43902e-06
-2.11386e-05
-1.34812e-05
-2.24703e-05
-1.7678e-05
-2.24462e-05
-2.01958e-05
-2.12296e-05
-2.1056e-05
-1.88738e-05
-2.03783e-05
-1.56467e-05
-1.81157e-05
-1.20753e-05
-1.44619e-05
-8.74692e-06
-1.0024e-05
-6.02466e-06
-5.60558e-06
-3.99511e-06
-1.77685e-06
-2.54047e-06
1.21223e-06
-1.51021e-06
3.35342e-06
-7.94535e-07
4.68885e-06
-3.28142e-07
5.22996e-06
-7.80996e-08
4.94536e-06
6.26036e-09
3.74286e-06
1.56822e-06
8.41135e-05
0.000197693
7.11251e-05
0.000174526
5.07483e-05
0.000135913
2.89513e-05
9.14938e-05
1.11961e-05
5.32718e-05
-1.21923e-06
2.66656e-05
-9.7992e-06
9.78679e-06
-1.59225e-05
-1.31569e-06
-2.02729e-05
-9.13084e-06
-2.31416e-05
-1.48093e-05
-2.45371e-05
-1.88002e-05
-2.44882e-05
-2.11049e-05
-2.30947e-05
-2.17718e-05
-2.03731e-05
-2.08373e-05
-1.65962e-05
-1.82388e-05
-1.24629e-05
-1.41573e-05
-8.61704e-06
-9.45139e-06
-5.48241e-06
-4.91148e-06
-3.18109e-06
-1.08909e-06
-1.59281e-06
1.76514e-06
-5.57271e-07
3.65331e-06
3.14004e-08
4.64129e-06
2.30275e-07
4.74649e-06
1.50979e-07
3.82216e-06
1.7192e-06
9.37298e-05
0.000199806
8.42283e-05
0.000184028
6.64718e-05
0.000153669
4.44538e-05
0.000113512
2.39238e-05
7.38018e-05
8.11292e-06
4.24765e-05
-3.15721e-06
2.10569e-05
-1.13389e-05
6.86601e-06
-1.74378e-05
-3.03194e-06
-2.19378e-05
-1.03093e-05
-2.50152e-05
-1.57228e-05
-2.65789e-05
-1.95412e-05
-2.66371e-05
-2.17136e-05
-2.51984e-05
-2.2276e-05
-2.21924e-05
-2.12449e-05
-1.79522e-05
-1.83974e-05
-1.32668e-05
-1.41368e-05
-8.81576e-06
-9.36257e-06
-5.14547e-06
-4.75938e-06
-2.4701e-06
-9.10223e-07
-7.04833e-07
1.88805e-06
2.88674e-07
3.64778e-06
6.13838e-07
4.42132e-06
3.79509e-07
4.05649e-06
2.09871e-06
0.000102636
0.000200164
9.64908e-05
0.000190173
8.22547e-05
0.000167905
6.16724e-05
0.000134094
3.96722e-05
9.5802e-05
2.07005e-05
6.14482e-05
6.28952e-06
3.54679e-05
-4.32486e-06
1.74804e-05
-1.2359e-05
5.00216e-06
-1.85722e-05
-4.0961e-06
-2.33192e-05
-1.09758e-05
-2.67018e-05
-1.61585e-05
-2.85986e-05
-1.98169e-05
-2.89789e-05
-2.18957e-05
-2.77616e-05
-2.24622e-05
-2.47219e-05
-2.14371e-05
-2.02897e-05
-1.8569e-05
-1.51569e-05
-1.44954e-05
-1.00533e-05
-9.86304e-06
-5.69341e-06
-5.27008e-06
-2.45554e-06
-1.34983e-06
-3.93157e-07
1.5854e-06
5.9779e-07
3.43038e-06
6.01393e-07
4.05288e-06
2.7001e-06
0.000110806
0.000199276
0.000107613
0.000193366
9.73114e-05
0.000178207
7.96193e-05
0.000151786
5.78457e-05
0.000117576
3.66323e-05
8.26616e-05
1.90145e-05
5.30857e-05
5.5123e-06
3.09826e-05
-4.77035e-06
1.52848e-05
-1.28294e-05
3.96298e-06
-1.92704e-05
-4.53487e-06
-2.43807e-05
-1.10482e-05
-2.82335e-05
-1.59641e-05
-3.07003e-05
-1.94288e-05
-3.17561e-05
-2.14065e-05
-3.11613e-05
-2.20319e-05
-2.85426e-05
-2.11876e-05
-2.43833e-05
-1.86547e-05
-1.91224e-05
-1.5124e-05
-1.35004e-05
-1.0892e-05
-8.2852e-06
-6.56504e-06
-4.0407e-06
-2.6591e-06
-1.00682e-06
3.96501e-07
4.95324e-07
2.55074e-06
3.19543e-06
0.000118321
0.000197397
0.000117494
0.000194192
0.000111018
0.000184683
9.72109e-05
0.000165593
7.7429e-05
0.000137357
5.54972e-05
0.000104593
3.52549e-05
7.33281e-05
1.86433e-05
4.75942e-05
5.67629e-06
2.82518e-05
-4.4956e-06
1.41349e-05
-1.26984e-05
3.66791e-06
-1.94482e-05
-4.29845e-06
-2.50127e-05
-1.03996e-05
-2.94898e-05
-1.49517e-05
-3.27744e-05
-1.81219e-05
-3.48068e-05
-1.99994e-05
-3.53177e-05
-2.06767e-05
-3.40491e-05
-1.99232e-05
-3.10549e-05
-1.81183e-05
-2.6556e-05
-1.53909e-05
-2.11383e-05
-1.19827e-05
-1.52948e-05
-8.50261e-06
-9.62278e-06
-5.27555e-06
-4.27909e-06
-2.79295e-06
-1.08367e-06
0.000125229
0.000194424
0.000126163
0.000193259
0.000123018
0.000187828
0.000113473
0.000175139
9.71432e-05
0.000153687
7.63441e-05
0.000125393
5.47624e-05
9.49097e-05
3.53884e-05
6.69682e-05
1.94456e-05
4.41946e-05
6.73871e-06
2.68417e-05
-3.47582e-06
1.38824e-05
-1.18959e-05
4.12161e-06
-1.89868e-05
-3.3087e-06
-2.50224e-05
-8.91602e-06
-3.01554e-05
-1.2989e-05
-3.44249e-05
-1.573e-05
-3.78003e-05
-1.73013e-05
-3.99049e-05
-1.78186e-05
-4.08457e-05
-1.71774e-05
-4.05251e-05
-1.57115e-05
-3.90244e-05
-1.34834e-05
-3.67628e-05
-1.07641e-05
-3.42441e-05
-7.79429e-06
-3.24904e-05
-4.54664e-06
-7.3051e-07
-3.28436e-05
0.000131307
0.000189953
0.000133696
0.000190869
0.000133261
0.000188262
0.000127746
0.000180655
0.000115718
0.000165714
9.78031e-05
0.000143308
7.66807e-05
0.000116032
5.56167e-05
8.80322e-05
3.69081e-05
6.29033e-05
2.13562e-05
4.23936e-05
8.71612e-06
2.65226e-05
-1.6318e-06
1.44695e-05
-1.02779e-05
5.33743e-06
-1.76494e-05
-1.54452e-06
-2.40385e-05
-6.59996e-06
-2.96731e-05
-1.00954e-05
-3.47263e-05
-1.22481e-05
-3.92931e-05
-1.32518e-05
-4.32062e-05
-1.32644e-05
-4.64698e-05
-1.24479e-05
-4.9051e-05
-1.09022e-05
-5.10759e-05
-8.73923e-06
-5.28183e-05
-6.05189e-06
-5.44249e-05
-2.94006e-06
4.67504e-07
-5.56229e-05
0.000136047
0.00018323
0.00014012
0.000186796
0.000141782
0.000186601
0.000139719
0.000182718
0.000132148
0.000173285
0.000118362
0.000157093
9.96006e-05
0.000134794
7.85491e-05
0.000109084
5.79989e-05
8.34535e-05
3.97496e-05
6.06429e-05
2.43814e-05
4.18907e-05
1.16819e-05
2.7169e-05
1.16146e-06
1.58579e-05
-7.66241e-06
7.27935e-06
-1.51637e-05
9.0131e-07
-2.16152e-05
-3.64382e-06
-2.72481e-05
-6.61517e-06
-3.22598e-05
-8.24006e-06
-3.67785e-05
-8.74566e-06
-4.08658e-05
-8.36071e-06
-4.44918e-05
-7.27617e-06
-4.75934e-05
-5.63761e-06
-5.00904e-05
-3.55485e-06
-5.18913e-05
-1.13918e-06
1.42476e-06
-5.28486e-05
0.000138602
0.000173277
0.000145008
0.00018039
0.000148644
0.000182965
0.000149392
0.000181969
0.000145856
0.000176821
0.000136703
0.000166247
0.000121825
0.000149672
0.000102745
0.000128163
8.19692e-05
0.000104229
6.1868e-05
8.07441e-05
4.39115e-05
5.98472e-05
2.85843e-05
4.24962e-05
1.57452e-05
2.8697e-05
5.02447e-06
1.80001e-05
-3.95773e-06
9.88351e-06
-1.15142e-05
3.91263e-06
-1.78852e-05
-2.44144e-07
-2.32749e-05
-2.8504e-06
-2.78847e-05
-4.13583e-06
-3.1878e-05
-4.36745e-06
-3.53438e-05
-3.81034e-06
-3.82997e-05
-2.68175e-06
-4.07066e-05
-1.14789e-06
-4.24893e-05
6.43512e-07
2.52351e-06
-4.35881e-05
0.000137817
0.000159276
0.000147459
0.000170748
0.00015362
0.000176804
0.000156866
0.000178723
0.000156722
0.000176965
0.00015199
0.000170978
0.000141771
0.000159891
0.000126353
0.000143582
0.000107323
0.000123259
8.69347e-05
0.000101132
6.72208e-05
7.95611e-05
4.94462e-05
6.02708e-05
3.40736e-05
4.40696e-05
2.10451e-05
3.10286e-05
1.00915e-05
2.08371e-05
9.19934e-07
1.30842e-05
-6.71308e-06
7.38887e-06
-1.30123e-05
3.44886e-06
-1.8202e-05
1.05384e-06
-2.24886e-05
-8.0868e-08
-2.6037e-05
-2.61903e-07
-2.89623e-05
2.43486e-07
-3.13197e-05
1.20957e-06
-3.31287e-05
2.45248e-06
3.80908e-06
-3.44143e-05
0.000132619
0.000141025
0.000146327
0.00015704
0.000155849
0.000167282
0.0001619
0.000172672
0.000164741
0.000174124
0.000163926
0.000171794
0.000158368
0.000165448
0.00014758
0.00015437
0.000132074
0.000138765
0.000113368
0.000119839
9.34481e-05
9.94807e-05
7.40955e-05
7.96234e-05
5.6454e-05
6.17111e-05
4.10004e-05
4.64822e-05
2.77597e-05
3.40777e-05
1.65522e-05
2.42917e-05
7.16545e-06
1.67756e-05
-5.88004e-07
1.12023e-05
-6.90957e-06
7.37541e-06
-1.20148e-05
5.02436e-06
-1.61148e-05
3.83806e-06
-1.93925e-05
3.52124e-06
-2.19819e-05
3.79893e-06
-2.39804e-05
4.45104e-06
5.29375e-06
-2.54651e-05
0.000122534
0.000119292
0.000140502
0.000139073
0.000154136
0.000153648
0.000163714
0.000163093
0.000169732
0.000168106
0.000172298
0.000169228
0.000171077
0.00016667
0.000165125
0.000160322
0.000154249
0.00014964
0.000139038
0.00013505
0.000120876
0.000117644
0.000101526
9.89734e-05
8.25726e-05
8.0664e-05
6.50832e-05
6.39716e-05
4.95712e-05
4.95897e-05
3.61467e-05
3.77162e-05
2.46982e-05
2.82242e-05
1.50561e-05
2.08444e-05
7.10931e-06
1.53222e-05
6.94451e-07
1.14392e-05
-4.42305e-06
8.95556e-06
-8.4563e-06
7.55449e-06
-1.15927e-05
6.93529e-06
-1.39966e-05
6.855e-06
7.09314e-06
-1.5796e-05
0.000108139
9.58144e-05
0.000129534
0.000117678
0.000147377
0.000135805
0.000161129
0.000149341
0.000170943
0.000158292
0.000177072
0.0001631
0.000179553
0.000164188
0.000178174
0.000161701
0.00017232
0.000155494
0.000161775
0.000145595
0.000147176
0.000132243
0.000129798
0.000116351
0.000111182
9.92799e-05
9.27402e-05
8.24135e-05
7.54937e-05
6.68362e-05
6.00096e-05
5.32003e-05
4.6471e-05
4.17628e-05
3.481e-05
3.25055e-05
2.49272e-05
2.52049e-05
1.67458e-05
1.96207e-05
1.01462e-05
1.55551e-05
4.93094e-06
1.27698e-05
8.67666e-07
1.09986e-05
-2.24582e-06
9.96848e-06
9.43189e-06
-4.58456e-06
9.11883e-05
7.28544e-05
0.000114169
9.46979e-05
0.000135243
0.000114731
0.000153081
0.000131503
0.000167116
0.000144257
0.000177345
0.00015287
0.000184014
0.000157519
0.000186927
0.000158788
0.000185594
0.000156827
0.000179984
0.000151205