/*--------------------------------*- C++ -*----------------------------------*\
| =========                 |                                                 |
| \\      /  F ield         | OpenFOAM: The Open Source CFD Toolbox           |
|  \\    /   O peration     | Version:  v2012                                 |
|   \\  /    A nd           | Website:  www.openfoam.com                      |
|    \\/     M anipulation  |                                                 |
\*---------------------------------------------------------------------------*/
FoamFile
{
    version     2.0;
    format      ascii;
    class       volVectorField;
    location    "487";
    object      U;
}
// * * * * * * * * * * * * * * * * * * * * * * * * * * * * * * * * * * * * * //

dimensions      [0 1 -1 0 0 0 0];


internalField   nonuniform List<vector> 
6544
(
(0.00596943 -0.979127 0)
(0.0129064 -1.00269 0)
(0.00723654 -1.00165 0)
(0.00334542 -1.00094 0)
(0.00104329 -1.00077 0)
(-0.000914719 -1.00077 0)
(-0.00323087 -1.00095 0)
(-0.00714631 -1.00166 0)
(-0.0128539 -1.00271 0)
(-0.00594042 -0.979144 0)
(0.0158941 -0.960879 0)
(0.0266605 -1.01367 0)
(0.0149678 -1.00905 0)
(0.0083257 -1.00591 0)
(0.00281212 -1.00483 0)
(-0.00240823 -1.00485 0)
(-0.00795726 -1.00596 0)
(-0.0146679 -1.00912 0)
(-0.0264279 -1.0137 0)
(-0.0158004 -0.961023 0)
(0.0216676 -0.933157 0)
(0.0264089 -1.02167 0)
(0.0178845 -1.01909 0)
(0.0108225 -1.01492 0)
(0.00382937 -1.01294 0)
(-0.0030974 -1.01299 0)
(-0.0101486 -1.01505 0)
(-0.0173204 -1.01928 0)
(-0.0260024 -1.02194 0)
(-0.0215162 -0.933566 0)
(0.0233521 -0.900205 0)
(0.0266117 -1.02457 0)
(0.0195282 -1.02831 0)
(0.0122194 -1.02484 0)
(0.00446436 -1.02268 0)
(-0.00331343 -1.02277 0)
(-0.0111549 -1.0251 0)
(-0.0186262 -1.0287 0)
(-0.0259408 -1.02517 0)
(-0.023098 -0.901065 0)
(0.0240147 -0.867092 0)
(0.0271056 -1.02665 0)
(0.0206935 -1.03683 0)
(0.0132137 -1.03472 0)
(0.00500643 -1.03279 0)
(-0.00329931 -1.03294 0)
(-0.0116238 -1.03515 0)
(-0.0193348 -1.03752 0)
(-0.026028 -1.0277 0)
(-0.0236054 -0.868702 0)
(0.0242094 -0.834722 0)
(0.0272688 -1.02859 0)
(0.0214356 -1.04521 0)
(0.0139207 -1.0447 0)
(0.00552122 -1.0432 0)
(-0.00306795 -1.04343 0)
(-0.01162 -1.04537 0)
(-0.0194408 -1.0463 0)
(-0.0257086 -1.0303 0)
(-0.0235495 -0.8375 0)
(0.0241295 -0.802658 0)
(0.0273233 -1.03008 0)
(0.0219655 -1.05348 0)
(0.0144872 -1.05478 0)
(0.00606996 -1.05385 0)
(-0.00261046 -1.05418 0)
(-0.0112223 -1.05576 0)
(-0.0190864 -1.05511 0)
(-0.0251102 -1.03272 0)
(-0.0230981 -0.807172 0)
(0.0239206 -0.77066 0)
(0.0274685 -1.03094 0)
(0.0223747 -1.06145 0)
(0.0150417 -1.06475 0)
(0.00672322 -1.06451 0)
(-0.00191905 -1.065 0)
(-0.0105026 -1.06616 0)
(-0.0183798 -1.06383 0)
(-0.0243114 -1.03488 0)
(-0.0223719 -0.777696 0)
(0.0236362 -0.738707 0)
(0.027786 -1.03119 0)
(0.0227486 -1.06966 0)
(0.0156976 -1.07446 0)
(0.00757809 -1.07502 0)
(-0.000947067 -1.0757 0)
(-0.00943725 -1.07648 0)
(-0.0172741 -1.07266 0)
(-0.0233391 -1.03687 0)
(-0.0213949 -0.749351 0)
(0.0233195 -0.706771 0)
(0.0281642 -1.03089 0)
(0.0234812 -1.07744 0)
(0.0166896 -1.08387 0)
(0.00877452 -1.0853 0)
(0.000373404 -1.08624 0)
(-0.00800138 -1.08667 0)
(-0.0157677 -1.08173 0)
(-0.0220645 -1.03882 0)
(-0.0201236 -0.722514 0)
(0.0231073 -0.674712 0)
(0.0286424 -1.03 0)
(0.0246975 -1.08418 0)
(0.0180983 -1.09305 0)
(0.0103786 -1.09537 0)
(0.00210252 -1.09662 0)
(-0.0061718 -1.09678 0)
(-0.0138755 -1.09062 0)
(-0.0203137 -1.04089 0)
(-0.0185171 -0.697625 0)
(0.022934 -0.642203 0)
(0.0294457 -1.02835 0)
(0.0262596 -1.09055 0)
(0.0198838 -1.10196 0)
(0.0124248 -1.10525 0)
(0.00432404 -1.10685 0)
(-0.00383425 -1.10683 0)
(-0.0114646 -1.09937 0)
(-0.0180471 -1.04319 0)
(-0.016578 -0.675188 0)
(0.0219067 -0.609155 0)
(0.030597 -1.02555 0)
(0.0281943 -1.09641 0)
(0.0221385 -1.11047 0)
(0.0150231 -1.11483 0)
(0.00715302 -1.1169 0)
(-0.000861721 -1.1168 0)
(-0.00845595 -1.1082 0)
(-0.015181 -1.04585 0)
(-0.014278 -0.65578 0)
(0.0200949 -0.575931 0)
(0.0322725 -1.02044 0)
(0.0305923 -1.1015 0)
(0.0250431 -1.11844 0)
(0.0183461 -1.12404 0)
(0.0107561 -1.12671 0)
(0.0029053 -1.12667 0)
(-0.00469864 -1.11681 0)
(-0.011589 -1.049 0)
(-0.0115174 -0.640085 0)
(0.0183405 -0.543066 0)
(0.0342542 -1.01262 0)
(0.0336173 -1.1056 0)
(0.0287889 -1.12577 0)
(0.0225959 -1.13276 0)
(0.01536 -1.13621 0)
(0.00771523 -1.13642 0)
(9.61514e-05 -1.12559 0)
(-0.00716278 -1.05289 0)
(-0.00827041 -0.628907 0)
(0.0169824 -0.509798 0)
(0.0367014 -1.00165 0)
(0.0375346 -1.10844 0)
(0.0336037 -1.13229 0)
(0.0280116 -1.1409 0)
(0.0212306 -1.14531 0)
(0.0138547 -1.14601 0)
(0.00622408 -1.13459 0)
(-0.00171534 -1.0578 0)
(-0.00427025 -0.623315 0)
(0.0161375 -0.475405 0)
(0.0398566 -0.987046 0)
(0.0426167 -1.10975 0)
(0.0397411 -1.13782 0)
(0.0348698 -1.14828 0)
(0.0286815 -1.15389 0)
(0.0216847 -1.15539 0)
(0.0140944 -1.14394 0)
(0.00508601 -1.06449 0)
(0.000281972 -0.624331 0)
(0.0157023 -0.439208 0)
(0.0439192 -0.968083 0)
(0.0490626 -1.10927 0)
(0.0474374 -1.14217 0)
(0.0434598 -1.15472 0)
(0.0380777 -1.16174 0)
(0.0316754 -1.16438 0)
(0.0243407 -1.15364 0)
(0.0140124 -1.0738 0)
(0.00554829 -0.632929 0)
(0.0155892 -0.400737 0)
(0.0483645 -0.943834 0)
(0.057004 -1.10657 0)
(0.0568307 -1.14503 0)
(0.0540208 -1.15992 0)
(0.049775 -1.16855 0)
(0.0443831 -1.17273 0)
(0.0379217 -1.16338 0)
(0.0263555 -1.08644 0)
(0.0126795 -0.653275 0)
(0.0156003 -0.359836 0)
(0.0529638 -0.913358 0)
(0.0664166 -1.1011 0)
(0.0680363 -1.14605 0)
(0.0667213 -1.16347 0)
(0.0640834 -1.17373 0)
(0.0602769 -1.17941 0)
(0.0560189 -1.17196 0)
(0.0448961 -1.10132 0)
(0.0264588 -0.682174 0)
(0.0153046 -0.316426 0)
(0.0576295 -0.87529 0)
(0.0769495 -1.09115 0)
(0.0810017 -1.14477 0)
(0.0814626 -1.16489 0)
(0.080902 -1.17658 0)
(0.0794802 -1.18434 0)
(0.0792319 -1.17684 0)
(0.0742451 -1.11254 0)
(0.0637514 -0.741705 0)
(0.0137117 -0.27092 0)
(0.0618241 -0.829627 0)
(0.0880244 -1.07548 0)
(0.0953442 -1.14072 0)
(0.0977564 -1.16382 0)
(0.0992743 -1.17647 0)
(0.10024 -1.18371 0)
(0.102674 -1.1768 0)
(0.100375 -1.11747 0)
(0.0912923 -0.790545 0)
(0.0109498 -0.225222 0)
(0.0648588 -0.775085 0)
(0.0990997 -1.05248 0)
(0.110545 -1.13338 0)
(0.115013 -1.16021 0)
(0.11838 -1.17358 0)
(0.121077 -1.1809 0)
(0.124766 -1.17406 0)
(0.123842 -1.12141 0)
(0.113564 -0.843537 0)
(0.00821825 -0.180972 0)
(0.066191 -0.711525 0)
(0.109333 -1.02063 0)
(0.126262 -1.12242 0)
(0.132991 -1.15414 0)
(0.137946 -1.16853 0)
(0.14211 -1.17608 0)
(0.146845 -1.17033 0)
(0.147612 -1.12593 0)
(0.136995 -0.898391 0)
(0.00569198 -0.139003 0)
(0.0655891 -0.639705 0)
(0.117954 -0.977715 0)
(0.142244 -1.10627 0)
(0.15174 -1.14566 0)
(0.158147 -1.16176 0)
(0.163704 -1.16981 0)
(0.169256 -1.1656 0)
(0.171786 -1.12943 0)
(0.161818 -0.948746 0)
(0.00357786 -0.100452 0)
(0.063127 -0.560854 0)
(0.124557 -0.923323 0)
(0.157868 -1.08328 0)
(0.171165 -1.13458 0)
(0.17904 -1.15338 0)
(0.185893 -1.16214 0)
(0.191961 -1.16015 0)
(0.195879 -1.13098 0)
(0.187859 -0.991973 0)
(0.00196742 -0.0664095 0)
(0.0588022 -0.47669 0)
(0.128493 -0.856897 0)
(0.172152 -1.05122 0)
(0.19091 -1.12005 0)
(0.200573 -1.14339 0)
(0.208527 -1.15321 0)
(0.215256 -1.15394 0)
(0.220203 -1.13079 0)
(0.21506 -1.02742 0)
(0.00137086 -0.0376977 0)
(0.0526619 -0.389526 0)
(0.129086 -0.778368 0)
(0.184012 -1.00787 0)
(0.210271 -1.10034 0)
(0.222626 -1.13156 0)
(0.231578 -1.14324 0)
(0.239205 -1.14586 0)
(0.245084 -1.12887 0)
(0.243214 -1.05474 0)
(0.00221556 -0.0141691 0)
(0.0450314 -0.3024 0)
(0.125806 -0.688582 0)
(0.19228 -0.951639 0)
(0.22816 -1.0733 0)
(0.244816 -1.11708 0)
(0.255122 -1.13223 0)
(0.263627 -1.13664 0)
(0.27037 -1.12505 0)
(0.27168 -1.07348 0)
(0.00283205 0.00564442 0)
(0.0361401 -0.218925 0)
(0.118226 -0.589571 0)
(0.195573 -0.881116 0)
(0.243088 -1.03627 0)
(0.266326 -1.0984 0)
(0.278968 -1.11976 0)
(0.288514 -1.12634 0)
(0.295881 -1.11894 0)
(0.299735 -1.08418 0)
(0.00215206 0.0194824 0)
(0.0268242 -0.143276 0)
(0.106168 -0.484501 0)
(0.192553 -0.795721 0)
(0.253203 -0.986244 0)
(0.285804 -1.07303 0)
(0.302521 -1.10482 0)
(0.313638 -1.11478 0)
(0.321756 -1.11226 0)
(0.327371 -1.08828 0)
(0.000750102 0.0299323 0)
(0.0180425 -0.0788725 0)
(0.0898584 -0.37781 0)
(0.182268 -0.696355 0)
(0.256545 -0.920548 0)
(0.301376 -1.0377 0)
(0.324738 -1.0856 0)
(0.338446 -1.10156 0)
(0.347919 -1.10294 0)
(0.354971 -1.08752 0)
(-0.000342749 0.0370735 0)
(0.0100397 -0.0311918 0)
(0.0707071 -0.274326 0)
(0.164718 -0.585499 0)
(0.251471 -0.837507 0)
(0.310804 -0.988713 0)
(0.34405 -1.05929 0)
(0.362327 -1.08554 0)
(0.37394 -1.0916 0)
(0.382319 -1.08251 0)
(-0.00117319 0.0403575 0)
(0.00456994 0.00245868 0)
(0.051248 -0.179834 0)
(0.141165 -0.467912 0)
(0.237091 -0.737338 0)
(0.311751 -0.922674 0)
(0.358193 -1.02208 0)
(0.384013 -1.06445 0)
(0.399197 -1.07772 0)
(0.409228 -1.07502 0)
(-0.00275808 0.0417116 0)
(0.00297529 0.0282237 0)
(0.0345574 -0.0995331 0)
(0.113937 -0.350493 0)
(0.213543 -0.622927 0)
(0.302187 -0.837546 0)
(0.364337 -0.969754 0)
(0.401349 -1.03487 0)
(0.422504 -1.05983 0)
(0.435422 -1.06382 0)
(-0.00385682 0.0415035 0)
(0.0022613 0.0460967 0)
(0.0224304 -0.0387295 0)
(0.0860513 -0.241646 0)
(0.18232 -0.50009 0)
(0.281025 -0.733727 0)
(0.359579 -0.898629 0)
(0.411367 -0.992401 0)
(0.441988 -1.03515 0)
(0.459942 -1.04858 0)
(-0.00359797 0.0403659 0)
(0.000563404 0.0581578 0)
(0.0140022 0.00337624 0)
(0.0608299 -0.148777 0)
(0.146635 -0.377113 0)
(0.248923 -0.614906 0)
(0.341786 -0.806913 0)
(0.41062 -0.932434 0)
(0.45471 -0.999458 0)
(0.480923 -1.02729 0)
(-0.00169222 0.0392886 0)
(-9.25232e-05 0.0661759 0)
(0.00859183 0.0327777 0)
(0.0411146 -0.0754271 0)
(0.110961 -0.26313 0)
(0.208736 -0.48831 0)
(0.310563 -0.696116 0)
(0.39605 -0.851574 0)
(0.4569 -0.947709 0)
(0.495452 -0.996187 0)
(-0.000394881 0.0390504 0)
(0.000470896 0.0713315 0)
(0.00620354 0.0530175 0)
(0.0280989 -0.0218772 0)
(0.0798098 -0.166099 0)
(0.165217 -0.363761 0)
(0.267987 -0.571913 0)
(0.366177 -0.749449 0)
(0.444781 -0.87549 0)
(0.499535 -0.950208 0)
(-3.76664e-05 0.0393842 0)
(-0.00037182 0.0744035 0)
(0.00375658 0.0671344 0)
(0.0191987 0.0145243 0)
(0.0555491 -0.0907661 0)
(0.123723 -0.251525 0)
(0.218632 -0.443738 0)
(0.322201 -0.630081 0)
(0.415946 -0.780967 0)
(0.488868 -0.884308 0)
(7.55995e-06 0.0387383 0)
(-0.00351202 0.0757562 0)
(-0.000934998 0.0771221 0)
(0.00980506 0.0405952 0)
(0.0366369 -0.035658 0)
(0.0880172 -0.158719 0)
(0.168507 -0.322599 0)
(0.268464 -0.501992 0)
(0.370867 -0.666735 0)
(0.460354 -0.795655 0)
(-0.00036597 0.0357958 0)
(-0.00637492 0.0735304 0)
(-0.00671925 0.0823628 0)
(-0.000469625 0.06027 0)
(0.0203155 0.00501398 0)
(0.0589117 -0.0863547 0)
(0.122943 -0.21722 0)
(0.211565 -0.376237 0)
(0.313713 -0.540392 0)
(0.413985 -0.685852 0)
(-0.000962708 0.0310754 0)
(-0.00792535 0.0678563 0)
(-0.0118411 0.0833871 0)
(-0.00879468 0.0740291 0)
(0.00633861 0.036135 0)
(0.0357809 -0.0310459 0)
(0.0851356 -0.131314 0)
(0.15834 -0.262804 0)
(0.251668 -0.412907 0)
(0.353937 -0.561879 0)
(-0.00133868 0.0254214 0)
(-0.0082996 0.0601538 0)
(-0.0140151 0.0810693 0)
(-0.0128962 0.0829255 0)
(-0.00307814 0.059661 0)
(0.0191224 0.0110891 0)
(0.0567375 -0.0641552 0)
(0.114165 -0.167679 0)
(0.192957 -0.295238 0)
(0.288045 -0.434728 0)
(-0.00130319 0.0200091 0)
(-0.00668627 0.0523874 0)
(-0.0108746 0.0769195 0)
(-0.0111074 0.0874894 0)
(-0.00440317 0.0764945 0)
(0.011644 0.0428991 0)
(0.0395583 -0.0131386 0)
(0.082826 -0.0925328 0)
(0.144882 -0.195234 0)
(0.225792 -0.316169 0)
(-0.00089351 0.0164954 0)
(-0.00339499 0.048116 0)
(-0.00379446 0.0748953 0)
(-0.00195281 0.0904566 0)
(0.00365016 0.0885773 0)
(0.0153496 0.0663164 0)
(0.0355038 0.024351 0)
(0.0667338 -0.0364403 0)
(0.112558 -0.116615 0)
(0.175768 -0.215457 0)
(-0.000403571 0.0154544 0)
(0.000359308 0.0485088 0)
(0.00387145 0.077704 0)
(0.00929203 0.0960722 0)
(0.0169441 0.0990755 0)
(0.027764 0.0842344 0)
(0.0432688 0.0516167 0)
(0.0654346 0.00336333 0)
(0.0975017 -0.0593921 0)
(0.143085 -0.137465 0)
(9.346e-06 0.0168465 0)
(0.00397702 0.0534509 0)
(0.01056 0.0853865 0)
(0.0189624 0.106002 0)
(0.0291728 0.111646 0)
(0.0414256 0.100706 0)
(0.0559186 0.073348 0)
(0.0734747 0.0319387 0)
(0.0959523 -0.020072 0)
(0.127128 -0.0821424 0)
(0.000581538 0.0204587 0)
(0.00656934 0.0617786 0)
(0.014412 0.0962645 0)
(0.0239873 0.118999 0)
(0.0355684 0.126841 0)
(0.0490422 0.118096 0)
(0.0640874 0.0933805 0)
(0.0804952 0.0553759 0)
(0.0987725 0.00822866 0)
(0.120948 -0.0445377 0)
(0.00119964 0.0253859 0)
(0.00722611 0.0710148 0)
(0.0139526 0.107432 0)
(0.022434 0.132494 0)
(0.0334764 0.142956 0)
(0.0467553 0.136273 0)
(0.0617047 0.113038 0)
(0.0776839 0.0766696 0)
(0.0947356 0.0319281 0)
(0.113386 -0.0166965 0)
(0.00143207 0.0299976 0)
(0.00525042 0.0779931 0)
(0.00849899 0.115702 0)
(0.0136748 0.14365 0)
(0.0221102 0.157479 0)
(0.0333884 0.153445 0)
(0.0470014 0.131803 0)
(0.0619631 0.0964614 0)
(0.0779195 0.0534296 0)
(0.0954879 0.00736702 0)
(0.00107711 0.0323685 0)
(0.000615538 0.0797559 0)
(-0.00137495 0.118353 0)
(-0.00141642 0.149776 0)
(0.00233251 0.167587 0)
(0.00987667 0.167381 0)
(0.0208672 0.148301 0)
(0.0343011 0.114352 0)
(0.0489658 0.0730811 0)
(0.0654125 0.029745 0)
(0.000211071 0.030751 0)
(-0.00568164 0.0745349 0)
(-0.0136647 0.113615 0)
(-0.0202953 0.148632 0)
(-0.0233479 0.171588 0)
(-0.0212308 0.176211 0)
(-0.0142707 0.161348 0)
(-0.00283964 0.129935 0)
(0.0105497 0.0908879 0)
(0.0259262 0.0503914 0)
(-0.000815364 0.0244019 0)
(-0.0116942 0.0621325 0)
(-0.0253732 0.100574 0)
(-0.0391641 0.138256 0)
(-0.0502192 0.167063 0)
(-0.0558284 0.179008 0)
(-0.0548242 0.170065 0)
(-0.0467111 0.143236 0)
(-0.0350201 0.107495 0)
(-0.02075 0.0696416 0)
(-0.00159631 0.0144862 0)
(-0.0151029 0.0440167 0)
(-0.0329328 0.0797779 0)
(-0.0532743 0.118279 0)
(-0.0729073 0.151386 0)
(-0.088033 0.170717 0)
(-0.0956422 0.173506 0)
(-0.0943171 0.152982 0)
(-0.0856328 0.122496 0)
(-0.0730745 0.0877164 0)
(-0.00151591 0.00377224 0)
(-0.0140719 0.0234574 0)
(-0.0328898 0.0534312 0)
(-0.0572915 0.0892254 0)
(-0.084704 0.124472 0)
(-0.110543 0.151046 0)
(-0.129928 0.161866 0)
(-0.139457 0.155109 0)
(-0.138243 0.133076 0)
(-0.129769 0.103386 0)
(-0.000926995 -0.0042925 0)
(-0.00840257 0.0052122 0)
(-0.0239282 0.0262318 0)
(-0.0472784 0.0544205 0)
(-0.078198 0.0860435 0)
(-0.112991 0.115647 0)
(-0.145673 0.136064 0)
(-0.170277 0.141881 0)
(-0.183285 0.132712 0)
(-0.185108 0.112202 0)
(0.000492619 -0.00741344 0)
(-0.00125748 -0.00626776 0)
(-0.00922135 0.0048808 0)
(-0.0250863 0.0217666 0)
(-0.0511123 0.0432098 0)
(-0.0865867 0.0676988 0)
(-0.127498 0.0907498 0)
(-0.167537 0.1069 0)
(-0.199989 0.11255 0)
(-0.220437 0.108743 0)
(0.0015906 -0.00554385 0)
(0.00414126 -0.00757505 0)
(0.00448117 -0.00478722 0)
(-0.000804571 0.00121226 0)
(-0.0137835 0.00981648 0)
(-0.0368566 0.0216367 0)
(-0.0708736 0.0367831 0)
(-0.113824 0.0528362 0)
(-0.160571 0.0664009 0)
(-0.202763 0.0732962 0)
(0.00133488 -0.00160014 0)
(0.00467338 -0.0025263 0)
(0.00807801 -0.00255426 0)
(0.00981469 -0.00141827 0)
(0.00894416 -0.00017967 0)
(0.00452248 0.00103731 0)
(-0.00562028 0.00250979 0)
(-0.0220208 0.00466555 0)
(-0.0458484 0.0106152 0)
(-0.0785973 0.0200754 0)
(-0.0133923 -0.135236 0)
(-0.0839972 0.00491535 0)
(-0.0667118 0.0149146 0)
(-0.0487972 0.00974869 0)
(-0.0350327 0.00762278 0)
(-0.0224235 0.00580631 0)
(-0.0111829 0.00421326 0)
(-0.000853519 0.00337292 0)
(0.00822284 0.00291318 0)
(0.0159774 0.00285303 0)
(0.0219668 0.0015092 0)
(0.0252962 -0.000685619 0)
(0.0265879 -0.00219892 0)
(0.025994 -0.00245447 0)
(0.0239303 -0.00204217 0)
(0.020911 -0.0017464 0)
(0.0171556 -0.00149882 0)
(0.0132816 -0.00124144 0)
(0.00976065 -0.000938267 0)
(0.00678797 -0.000667377 0)
(0.00437874 -0.00041719 0)
(0.00249047 -0.000245751 0)
(0.00106956 -0.000172755 0)
(0.000180081 -7.0232e-05 0)
(-8.70567e-05 0.000106736 0)
(0.0042446 -0.222376 0)
(-0.0645983 -0.00242255 0)
(-0.0675238 0.0251659 0)
(-0.0614054 0.0273155 0)
(-0.0504289 0.0268079 0)
(-0.0371314 0.0258722 0)
(-0.0229681 0.024546 0)
(-0.00883919 0.022476 0)
(0.00450534 0.0195164 0)
(0.0164838 0.0158485 0)
(0.0266566 0.0114951 0)
(0.0346625 0.00673065 0)
(0.0402511 0.00259035 0)
(0.0435461 -0.00111867 0)
(0.0433116 -0.00481883 0)
(0.0409227 -0.00764454 0)
(0.0366059 -0.00913401 0)
(0.030963 -0.00918872 0)
(0.0246977 -0.00826267 0)
(0.0186144 -0.00702737 0)
(0.0130947 -0.00572734 0)
(0.00835945 -0.00448106 0)
(0.00452614 -0.00324515 0)
(0.0017722 -0.00185144 0)
(0.000154947 -0.000388624 0)
(0.0368038 -0.327488 0)
(-0.0393181 -0.0499136 0)
(-0.0555459 0.0172458 0)
(-0.0586213 0.0340888 0)
(-0.053688 0.0398715 0)
(-0.0442929 0.0422536 0)
(-0.0328031 0.0423133 0)
(-0.0202678 0.0404813 0)
(-0.00761541 0.0368778 0)
(0.00446534 0.0316792 0)
(0.0154616 0.025125 0)
(0.0250013 0.0176702 0)
(0.0326481 0.0099573 0)
(0.0380201 0.00232341 0)
(0.0410083 -0.00485304 0)
(0.0411693 -0.0101848 0)
(0.039592 -0.0138036 0)
(0.0358883 -0.015988 0)
(0.030632 -0.0163786 0)
(0.0245291 -0.0153639 0)
(0.0182509 -0.0135026 0)
(0.0123291 -0.0112389 0)
(0.00712842 -0.00872804 0)
(0.00305951 -0.00578227 0)
(0.000316785 -0.00213364 0)
(0.0683312 -0.438443 0)
(-0.016915 -0.112613 0)
(-0.045753 -0.00348433 0)
(-0.0543099 0.0318027 0)
(-0.0546782 0.0464565 0)
(-0.0493284 0.0533318 0)
(-0.0411685 0.0559658 0)
(-0.0311624 0.0554036 0)
(-0.0202965 0.0520458 0)
(-0.00933198 0.0462444 0)
(0.0011082 0.038432 0)
(0.0105333 0.0292077 0)
(0.0185483 0.0192558 0)
(0.024904 0.00914807 0)
(0.0296045 -0.000596725 0)
(0.0324858 -0.00923111 0)
(0.0331092 -0.0159621 0)
(0.0317071 -0.0205735 0)
(0.0285378 -0.0228568 0)
(0.0240057 -0.0229837 0)
(0.0186654 -0.0214434 0)
(0.0130895 -0.0187938 0)
(0.00779247 -0.0153311 0)
(0.00341425 -0.010828 0)
(0.00035018 -0.00451292 0)
(0.0998946 -0.545731 0)
(0.0101547 -0.1921 0)
(-0.0342308 -0.0351308 0)
(-0.049671 0.0222057 0)
(-0.0547529 0.047162 0)
(-0.0539302 0.0597746 0)
(-0.0489228 0.0660208 0)
(-0.0414625 0.0676123 0)
(-0.0324275 0.0652857 0)
(-0.0226334 0.0595368 0)
(-0.0128493 0.0509656 0)
(-0.00372869 0.0403634 0)
(0.00425993 0.0286232 0)
(0.0108566 0.0165696 0)
(0.0160329 0.00484608 0)
(0.0198498 -0.00593065 0)
(0.0220987 -0.0151162 0)
(0.0226565 -0.0221226 0)
(0.0215745 -0.0265354 0)
(0.0189714 -0.0282939 0)
(0.0153385 -0.0277647 0)
(0.0110507 -0.0253991 0)
(0.00664387 -0.0214702 0)
(0.00286849 -0.0156652 0)
(0.000251677 -0.00679383 0)
(0.133469 -0.647286 0)
(0.043289 -0.285945 0)
(-0.0172289 -0.080332 0)
(-0.0421387 0.00326542 0)
(-0.0536852 0.0412877 0)
(-0.0574176 0.0614036 0)
(-0.056124 0.0723468 0)
(-0.0514689 0.0771074 0)
(-0.0444539 0.0767764 0)
(-0.0358834 0.0719165 0)
(-0.0266307 0.0631824 0)
(-0.0175427 0.0515413 0)
(-0.00932636 0.0382042 0)
(-0.00240636 0.0243505 0)
(0.00313189 0.0108913 0)
(0.00741868 -0.00154881 0)
(0.0105039 -0.0124997 0)
(0.0123156 -0.0213962 0)
(0.0128423 -0.0277186 0)
(0.0120349 -0.0312513 0)
(0.0100669 -0.0318211 0)
(0.00744324 -0.0301267 0)
(0.00441449 -0.0261259 0)
(0.00179574 -0.0193553 0)
(9.94058e-05 -0.00845213 0)
(0.16919 -0.741509 0)
(0.0820924 -0.391065 0)
(0.00711527 -0.142966 0)
(-0.0305271 -0.0271617 0)
(-0.049476 0.0275896 0)
(-0.0588208 0.0570075 0)
(-0.0619205 0.0740174 0)
(-0.0606525 0.0830916 0)
(-0.0561007 0.0859468 0)
(-0.0491175 0.0830898 0)
(-0.0405306 0.0751558 0)
(-0.0313106 0.0631281 0)
(-0.0224501 0.0484654 0)
(-0.0147223 0.0328133 0)
(-0.00846941 0.0175474 0)
(-0.00360878 0.0035111 0)
(0.000101142 -0.0088593 0)
(0.00276452 -0.019182 0)
(0.00439122 -0.026979 0)
(0.00508169 -0.0318797 0)
(0.00457205 -0.0339218 0)
(0.00356266 -0.0328721 0)
(0.00197256 -0.0289359 0)
(0.000653793 -0.0214831 0)
(-2.88511e-05 -0.00925764 0)
(0.206425 -0.826627 0)
(0.125541 -0.502007 0)
(0.0401811 -0.225162 0)
(-0.0128657 -0.0711175 0)
(-0.040847 0.00426384 0)
(-0.0568199 0.0454695 0)
(-0.0651214 0.0700964 0)
(-0.0680097 0.0848442 0)
(-0.0666654 0.0920359 0)
(-0.0619147 0.092495 0)
(-0.0545262 0.0866695 0)
(-0.0453779 0.0753532 0)
(-0.0356454 0.0600091 0)
(-0.0265422 0.0426837 0)
(-0.0189043 0.0253947 0)
(-0.0129538 0.00952401 0)
(-0.00843355 -0.00430524 0)
(-0.00500994 -0.015865 0)
(-0.00252359 -0.0248448 0)
(-0.000884497 -0.0309135 0)
(-2.17465e-05 -0.0337599 0)
(0.00017951 -0.0335904 0)
(-3.80174e-05 -0.0299162 0)
(-0.000223552 -0.0221088 0)
(-0.000108377 -0.00932247 0)
(0.244306 -0.900098 0)
(0.172628 -0.612942 0)
(0.0823817 -0.324578 0)
(0.0133771 -0.131728 0)
(-0.0262358 -0.0305737 0)
(-0.0499972 0.025471 0)
(-0.064457 0.0595085 0)
(-0.072362 0.0811591 0)
(-0.0751467 0.0940143 0)
(-0.0735402 0.0991197 0)
(-0.0682687 0.0969655 0)
(-0.0599714 0.0879762 0)
(-0.0496582 0.0732306 0)
(-0.0388527 0.0548144 0)
(-0.0290514 0.0353832 0)
(-0.0211411 0.0172084 0)
(-0.0151762 0.00149602 0)
(-0.010723 -0.0114617 0)
(-0.00737308 -0.0215799 0)
(-0.00489903 -0.028666 0)
(-0.00310356 -0.0325114 0)
(-0.00212547 -0.032874 0)
(-0.00126843 -0.029441 0)
(-0.000683768 -0.0216125 0)
(-0.000123618 -0.00892047 0)
(0.281682 -0.959412 0)
(0.221911 -0.718002 0)
(0.132779 -0.435803 0)
(0.0505849 -0.212102 0)
(-0.00368868 -0.078937 0)
(-0.036895 -0.00456115 0)
(-0.058546 0.0409999 0)
(-0.0724152 0.0708998 0)
(-0.0803003 0.0905745 0)
(-0.082989 0.101566 0)
(-0.0808806 0.10461 0)
(-0.074775 0.0998804 0)
(-0.0650425 0.0877628 0)
(-0.0529815 0.0697617 0)
(-0.0405856 0.048675 0)
(-0.0296865 0.0277648 0)
(-0.021175 0.0093887 0)
(-0.0149393 -0.00557102 0)
(-0.0103565 -0.0171467 0)
(-0.00698202 -0.0253496 0)
(-0.00448819 -0.0301007 0)
(-0.00276356 -0.0311487 0)
(-0.00146293 -0.0281147 0)
(-0.000610154 -0.0205972 0)
(-6.58134e-05 -0.00839165 0)
(0.317627 -1.00311 0)
(0.271433 -0.811465 0)
(0.189203 -0.551734 0)
(0.0992023 -0.310794 0)
(0.0294066 -0.144425 0)
(-0.0157466 -0.0467049 0)
(-0.0458238 0.0131076 0)
(-0.0665709 0.0527613 0)
(-0.080468 0.0801965 0)
(-0.088583 0.0984903 0)
(-0.0911861 0.10767 0)
(-0.0885119 0.108991 0)
(-0.0813378 0.101918 0)
(-0.0697683 0.0869258 0)
(-0.0555137 0.0659671 0)
(-0.0411428 0.0427305 0)
(-0.0287714 0.0209472 0)
(-0.019308 0.00285216 0)
(-0.0125399 -0.0110145 0)
(-0.00772604 -0.0208849 0)
(-0.00434807 -0.0268634 0)
(-0.00207369 -0.0288747 0)
(-0.000615536 -0.0266509 0)
(-1.71347e-05 -0.0197874 0)
(6.52415e-05 -0.00813794 0)
(0.35182 -1.03227 0)
(0.319322 -0.888987 0)
(0.248764 -0.664418 0)
(0.15775 -0.422731 0)
(0.0750417 -0.229223 0)
(0.0154368 -0.103157 0)
(-0.0247518 -0.0257002 0)
(-0.0532799 0.025622 0)
(-0.073878 0.0617371 0)
(-0.088227 0.0876042 0)
(-0.0968201 0.104873 0)
(-0.0995059 0.1126 0)
(-0.096519 0.11267 0)
(-0.0883048 0.103825 0)
(-0.0747493 0.0862968 0)
(-0.0581574 0.0628912 0)
(-0.0415537 0.0381695 0)
(-0.0272682 0.0159128 0)
(-0.0164629 -0.00174413 0)
(-0.00890079 -0.0144582 0)
(-0.00382445 -0.0225624 0)
(-0.000709571 -0.0262581 0)
(0.000806084 -0.0254894 0)
(0.00102434 -0.0197198 0)
(0.00025796 -0.00847224 0)
(0.384131 -1.04874 0)
(0.364196 -0.9482 0)
(0.308413 -0.766267 0)
(0.223317 -0.54028 0)
(0.133145 -0.331358 0)
(0.0591773 -0.177313 0)
(0.00633845 -0.0771598 0)
(-0.0312341 -0.0116297 0)
(-0.0591817 0.0344764 0)
(-0.0801514 0.0683256 0)
(-0.095273 0.0930574 0)
(-0.104711 0.109488 0)
(-0.107966 0.116458 0)
(-0.105301 0.11568 0)
(-0.0963686 0.105942 0)
(-0.0812155 0.0863696 0)
(-0.0625651 0.0616088 0)
(-0.0435425 0.0360676 0)
(-0.0268517 0.0134134 0)
(-0.0141833 -0.00402659 0)
(-0.00550528 -0.0158466 0)
(-0.000175295 -0.0225588 0)
(0.00221536 -0.0244439 0)
(0.00263086 -0.0206799 0)
(0.000592607 -0.00996299 0)
(0.414652 -1.05458 0)
(0.405269 -0.989021 0)
(0.365399 -0.851373 0)
(0.29213 -0.65456 0)
(0.201634 -0.44537 0)
(0.116543 -0.269612 0)
(0.0497513 -0.144284 0)
(0.00100932 -0.0604664 0)
(-0.0352895 -0.00240127 0)
(-0.0633309 0.0403018 0)
(-0.0850917 0.0725054 0)
(-0.101372 0.0962888 0)
(-0.112114 0.112025 0)
(-0.116673 0.118599 0)
(-0.115349 0.117668 0)
(-0.106769 0.107439 0)
(-0.0912417 0.0875756 0)
(-0.0712206 0.0630035 0)
(-0.0499797 0.0372168 0)
(-0.030347 0.0139925 0)
(-0.0149983 -0.0038504 0)
(-0.00454497 -0.0157221 0)
(0.00122375 -0.0221106 0)
(0.00317702 -0.0224098 0)
(0.00170285 -0.0132011 0)
(0.443604 -1.05241 0)
(0.442234 -1.01287 0)
(0.417541 -0.916181 0)
(0.360131 -0.75702 0)
(0.276755 -0.563011 0)
(0.186545 -0.377053 0)
(0.107187 -0.228871 0)
(0.0454423 -0.12335 0)
(-0.000991673 -0.0500734 0)
(-0.0368857 0.00297816 0)
(-0.0655204 0.0431326 0)
(-0.0884853 0.0738394 0)
(-0.106452 0.0966343 0)
(-0.119315 0.111852 0)
(-0.12624 0.118538 0)
(-0.127912 0.118014 0)
(-0.121476 0.107897 0)
(-0.107232 0.0900871 0)
(-0.0879455 0.0673367 0)
(-0.0651668 0.0424153 0)
(-0.0426575 0.0187688 0)
(-0.0230642 -0.00103335 0)
(-0.00880548 -0.0145724 0)
(7.10733e-05 -0.0209622 0)
(0.00203066 -0.0164755 0)
(0.471006 -1.04523 0)
(0.475389 -1.02266 0)
(0.463627 -0.959808 0)
(0.423615 -0.840842 0)
(0.353648 -0.674651 0)
(0.265963 -0.492975 0)
(0.178548 -0.329764 0)
(0.10403 -0.202609 0)
(0.0455153 -0.110654 0)
(0.000192637 -0.0445239 0)
(-0.035893 0.00475813 0)
(-0.0654752 0.042557 0)
(-0.089953 0.0714442 0)
(-0.110022 0.0926843 0)
(-0.125749 0.106796 0)
(-0.136581 0.113853 0)
(-0.141704 0.114768 0)
(-0.140817 0.105776 0)
(-0.132217 0.0923334 0)
(-0.116402 0.0737512 0)
(-0.0961043 0.052963 0)
(-0.0727173 0.0329361 0)
(-0.0484627 0.0156187 0)
(-0.0278327 0.00341338 0)
(-0.0133199 -0.000234009 0)
(0.49642 -1.03273 0)
(0.505273 -1.0215 0)
(0.503433 -0.984304 0)
(0.479887 -0.902392 0)
(0.427261 -0.771328 0)
(0.349717 -0.608004 0)
(0.261314 -0.442 0)
(0.177259 -0.298231 0)
(0.106283 -0.186587 0)
(0.0496102 -0.104133 0)
(0.00456304 -0.0432328 0)
(-0.0321246 0.00280261 0)
(-0.0628432 0.0380688 0)
(-0.0889024 0.0646478 0)
(-0.111126 0.0837764 0)
(-0.12999 0.0962647 0)
(-0.145423 0.102617 0)
(-0.157011 0.103623 0)
(-0.162289 0.0974309 0)
(-0.164485 0.0871126 0)
(-0.160119 0.0726944 0)
(-0.152299 0.0570247 0)
(-0.142292 0.0410696 0)
(-0.131696 0.0242506 0)
(-0.125092 0.00302902 0)
(0.518308 -1.01392 0)
(0.53188 -1.01285 0)
(0.537492 -0.993037 0)
(0.527825 -0.94135 0)
(0.493484 -0.846584 0)
(0.431865 -0.712005 0)
(0.350542 -0.557023 0)
(0.263203 -0.406581 0)
(0.18214 -0.278477 0)
(0.113489 -0.178283 0)
(0.057648 -0.102789 0)
(0.0123203 -0.04607 0)
(-0.0251527 -0.00313006 0)
(-0.0568962 0.0292781 0)
(-0.0841845 0.0529692 0)
(-0.108013 0.0691757 0)
(-0.129291 0.0788844 0)
(-0.148568 0.0828112 0)
(-0.165657 0.0816404 0)
(-0.180033 0.075754 0)
(-0.191801 0.0655399 0)
(-0.201006 0.0516385 0)
(-0.208136 0.0353559 0)
(-0.214751 0.0174904 0)
(-0.220046 -0.00166369 0)
(0.533749 -0.985719 0)
(0.554345 -0.996424 0)
(0.566366 -0.988705 0)
(0.567423 -0.960409 0)
(0.549754 -0.897971 0)
(0.506906 -0.79667 0)
(0.439725 -0.664442 0)
(0.357145 -0.520031 0)
(0.271537 -0.383541 0)
(0.192804 -0.267822 0)
(0.125507 -0.176269 0)
(0.0698063 -0.106142 0)
(0.0238716 -0.052951 0)
(-0.0143829 -0.0129104 0)
(-0.0467596 0.0166191 0)
(-0.0744638 0.0372919 0)
(-0.0984248 0.0503582 0)
(-0.119536 0.0569699 0)
(-0.138502 0.0582068 0)
(-0.155718 0.0551467 0)
(-0.17121 0.0485308 0)
(-0.184825 0.038798 0)
(-0.196197 0.0261932 0)
(-0.204753 0.0113416 0)
(-0.21043 -0.00435981 0)
(0.538522 -0.943206 0)
(0.569993 -0.969988 0)
(0.589634 -0.975555 0)
(0.599323 -0.963076 0)
(0.595355 -0.926287 0)
(0.570966 -0.857166 0)
(0.522253 -0.754613 0)
(0.45219 -0.628283 0)
(0.369875 -0.494864 0)
(0.286139 -0.370396 0)
(0.209106 -0.264533 0)
(0.142466 -0.17971 0)
(0.0864518 -0.113872 0)
(0.0397187 -0.0636427 0)
(0.000651057 -0.0260568 0)
(-0.0321801 0.00107978 0)
(-0.0598603 0.0193212 0)
(-0.0831931 0.0299726 0)
(-0.102995 0.0342612 0)
(-0.120076 0.0335276 0)
(-0.134963 0.0290159 0)
(-0.147846 0.0217346 0)
(-0.158627 0.012405 0)
(-0.167034 0.00164074 0)
(-0.172905 -0.00978537 0)
(0.527868 -0.881026 0)
(0.574276 -0.929105 0)
(0.604983 -0.950682 0)
(0.623713 -0.952573 0)
(0.630896 -0.935177 0)
(0.622448 -0.892996 0)
(0.59304 -0.821103 0)
(0.540837 -0.720971 0)
(0.469897 -0.602337 0)
(0.388795 -0.479476 0)
(0.306908 -0.365296 0)
(0.231121 -0.267446 0)
(0.1647 -0.188029 0)
(0.10811 -0.125684 0)
(0.0604414 -0.0778756 0)
(0.0204418 -0.0422077 0)
(-0.0129658 -0.0167501 0)
(-0.0406464 -1.38659e-05 0)
(-0.0634324 0.0092305 0)
(-0.0821926 0.0124528 0)
(-0.0977236 0.0111681 0)
(-0.110597 0.00668004 0)
(-0.121131 4.28721e-05 0)
(-0.129443 -0.00788849 0)
(-0.13561 -0.0163014 0)
(0.498303 -0.795839 0)
(0.562211 -0.868519 0)
(0.607973 -0.910644 0)
(0.638494 -0.928922 0)
(0.65639 -0.927813 0)
(0.66135 -0.90712 0)
(0.649569 -0.86218 0)
(0.617038 -0.790637 0)
(0.56341 -0.695291 0)
(0.493124 -0.585117 0)
(0.413903 -0.472107 0)
(0.333879 -0.366815 0)
(0.259119 -0.275648 0)
(0.192734 -0.200704 0)
(0.135463 -0.14124 0)
(0.0867733 -0.0953355 0)
(0.0457967 -0.0608926 0)
(0.0116771 -0.036207 0)
(-0.0163122 -0.020288 0)
(-0.0389584 -0.0115817 0)
(-0.0571727 -0.00835646 0)
(-0.0717689 -0.00912805 0)
(-0.0833844 -0.0126155 0)
(-0.0924756 -0.0177433 0)
(-0.0993687 -0.0235903 0)
(0.449702 -0.688843 0)
(0.530169 -0.784813 0)
(0.593409 -0.850493 0)
(0.639327 -0.888931 0)
(0.670066 -0.905272 0)
(0.687455 -0.901439 0)
(0.690874 -0.879809 0)
(0.677228 -0.834449 0)
(0.643529 -0.765543 0)
(0.590319 -0.676539 0)
(0.521924 -0.57513 0)
(0.445167 -0.471241 0)
(0.367212 -0.373752 0)
(0.293563 -0.288329 0)
(0.227289 -0.217176 0)
(0.16942 -0.160041 0)
(0.119916 -0.115395 0)
(0.0778742 -0.0814716 0)
(0.0427013 -0.0571266 0)
(0.0141954 -0.0410955 0)
(-0.00863341 -0.0318721 0)
(-0.0267509 -0.0277889 0)
(-0.0409142 -0.0272151 0)
(-0.0518345 -0.02894 0)
(-0.0601239 -0.0319631 0)
(0.386597 -0.566963 0)
(0.478237 -0.679327 0)
(0.557686 -0.767137 0)
(0.620976 -0.828119 0)
(0.667837 -0.864517 0)
(0.699069 -0.87991 0)
(0.717407 -0.874979 0)
(0.719278 -0.853852 0)
(0.705488 -0.809668 0)
(0.672694 -0.745126 0)
(0.621453 -0.663356 0)
(0.55599 -0.57061 0)
(0.482455 -0.475223 0)
(0.407112 -0.384824 0)
(0.334969 -0.304514 0)
(0.26912 -0.236598 0)
(0.211072 -0.181256 0)
(0.160878 -0.137503 0)
(0.117818 -0.103823 0)
(0.0816843 -0.0790309 0)
(0.0522849 -0.062087 0)
(0.0289036 -0.0514401 0)
(0.0105526 -0.0455378 0)
(-0.00361814 -0.0429893 0)
(-0.0143416 -0.0424955 0)
(0.317688 -0.441582 0)
(0.411688 -0.559472 0)
(0.501466 -0.662583 0)
(0.580199 -0.744159 0)
(0.644189 -0.802 0)
(0.692781 -0.837327 0)
(0.724474 -0.852569 0)
(0.748384 -0.848244 0)