/*--------------------------------*- C++ -*----------------------------------*\
| =========                 |                                                 |
| \\      /  F ield         | OpenFOAM: The Open Source CFD Toolbox           |
|  \\    /   O peration     | Version:  2012                                  |
|   \\  /    A nd           | Website:  www.openfoam.com                      |
|    \\/     M anipulation  |                                                 |
\*---------------------------------------------------------------------------*/
FoamFile
{
    version     2.0;
    format      ascii;
    class       volScalarField;
    location    "672";
    object      age;
}
// * * * * * * * * * * * * * * * * * * * * * * * * * * * * * * * * * * * * * //

dimensions      [0 0 1 0 0 0 0];


internalField   nonuniform List<scalar> 
6084
(
0.489205
0.464044
0.438891
0.413746
0.388609
0.363478
0.338355
0.313239
0.28813
0.263029
0.237936
0.21285
0.187773
0.162704
0.137645
0.112595
0.0875556
0.062527
0.0375092
0.0125017
0.487517
0.46251
0.437504
0.412499
0.387496
0.362493
0.33749
0.312488
0.287486
0.262485
0.237484
0.212484
0.187484
0.162485
0.137486
0.112488
0.0874911
0.0624943
0.0374974
0.0124996
0.487079
0.462116
0.437151
0.412186
0.38722
0.362251
0.337282
0.312311
0.287338
0.262363
0.237386
0.212408
0.187428
0.162445
0.137461
0.112474
0.0874847
0.0624926
0.0374976
0.0124998
0.486904
0.46196
0.437014
0.412065
0.387114
0.36216
0.337204
0.312246
0.287285
0.262321
0.237354
0.212384
0.187411
0.162435
0.137455
0.112472
0.0874842
0.062493
0.0374979
0.0124998
0.486833
0.461898
0.43696
0.412018
0.387074
0.362126
0.337176
0.312222
0.287265
0.262306
0.237343
0.212376
0.187406
0.162432
0.137454
0.112471
0.0874845
0.0624933
0.0374981
0.0124999
0.486828
0.461895
0.436958
0.412017
0.387073
0.362126
0.337175
0.312222
0.287265
0.262306
0.237343
0.212376
0.187406
0.162432
0.137454
0.112471
0.0874845
0.0624933
0.0374981
0.0124999
0.48689
0.461953
0.43701
0.412063
0.387113
0.36216
0.337204
0.312246
0.287284
0.262321
0.237354
0.212384
0.187411
0.162435
0.137455
0.112472
0.0874842
0.062493
0.0374979
0.0124998
0.487061
0.462106
0.437146
0.412183
0.387218
0.36225
0.337281
0.31231
0.287337
0.262363
0.237386
0.212408
0.187428
0.162445
0.137461
0.112474
0.0874847
0.0624926
0.0374976
0.0124998
0.487497
0.462504
0.437499
0.412497
0.387494
0.362491
0.337489
0.312487
0.287486
0.262485
0.237484
0.212483
0.187484
0.162485
0.137486
0.112488
0.0874911
0.0624943
0.0374974
0.0124996
0.485013
0.465032
0.438655
0.413799
0.388594
0.36348
0.338353
0.313239
0.28813
0.263029
0.237935
0.21285
0.187773
0.162704
0.137645
0.112595
0.0875556
0.062527
0.0375092
0.0125017
0.783318
0.758546
0.733874
0.709281
0.68475
0.660268
0.635825
0.611412
0.587023
0.562653
0.538298
0.513956
0.779259
0.754737
0.730302
0.705936
0.681622
0.657347
0.633102
0.608879
0.584672
0.560477
0.536291
0.51211
0.778003
0.753587
0.729248
0.704968
0.680732
0.656529
0.63235
0.608188
0.584038
0.559896
0.53576
0.511627
0.777424
0.753062
0.728772
0.704536
0.68034
0.656173
0.632027
0.607895
0.583772
0.559656
0.535543
0.511432
0.777093
0.75277
0.728515
0.70431
0.680141
0.655998
0.631872
0.607758
0.583652
0.55955
0.53545
0.51135
0.77699
0.752681
0.728438
0.704244
0.680085
0.655951
0.631833
0.607726
0.583627
0.559531
0.535436
0.511341
0.777293
0.752939
0.728654
0.704423
0.680234
0.656074
0.631937
0.607816
0.583706
0.559603
0.535504
0.511406
0.778666
0.754091
0.729606
0.705199
0.680858
0.656572
0.632333
0.608135
0.58397
0.55983
0.535705
0.51159
0.781077
0.756379
0.731695
0.707039
0.682428
0.657884
0.633418
0.609031
0.584717
0.560464
0.536253
0.512072
0.858902
0.832442
0.804701
0.775911
0.746313
0.716193
0.685753
0.65511
0.624367
0.593557
0.562578
0.531439
10.7781
11.2375
12.1632
12.1443
2.56787
1.91129
1.70838
1.58313
1.4959
1.42671
1.36867
1.31803
1.27266
1.23125
1.19287
1.15689
1.12283
1.09033
1.05911
1.02894
0.999635
0.971046
0.943048
0.915538
0.888428
0.861647
0.835132
0.808832
9.85121
11.5102
11.4471
6.4457
2.09071
1.79987
1.64981
1.54765
1.4704
1.40675
1.35214
1.30381
1.26011
1.21994
1.18255
1.14738
1.11401
1.08211
1.05142
1.02173
0.992869
0.964694
0.937085
0.90994
0.883175
0.856719
0.830512
0.804504
9.42888
10.7968
7.54829
3.09647
1.89957
1.72407
1.60706
1.52067
1.45094
1.39182
1.34013
1.29384
1.25166
1.21268
1.17625
1.14188
1.10918
1.07786
1.04767
1.01842
0.989933
0.962084
0.934757
0.907857
0.881305
0.855035
0.82899
0.803125
8.51225
7.92291
4.20078
2.07591
1.81978
1.67849
1.58091
1.50341
1.43862
1.38262
1.333
1.28817
1.24706
1.20889
1.17309
1.13921
1.1069
1.07589
1.04596
1.01691
0.988594
0.960889
0.933685
0.906893
0.880436
0.85425
0.828281
0.802485
7.15101
5.32714
2.62893
1.91414
1.77201
1.65158
1.5648
1.49251
1.43098
1.37706
1.32881
1.28492
1.24447
1.20676
1.1713
1.13767
1.10555
1.0747
1.04489
1.01596
0.987745
0.96013
0.933006
0.906287
0.879896
0.853771
0.827857
0.80211
6.05211
3.70178
2.1273
1.86616
1.74275
1.6352
1.55444
1.48548
1.42612
1.37358
1.32623
1.28294
1.24287
1.20544
1.17017
1.13669
1.10472
1.07399
1.04429
1.01545
0.987327
0.959784
0.932722
0.906051
0.879699
0.853605
0.827716
0.80199
5.27366
2.86935
2.00937
1.84238
1.72393
1.62493
1.54772
1.48112
1.42327
1.37161
1.32474
1.28168
1.24176
1.20447
1.16938
1.13612
1.10436
1.07385
1.04436
1.01568
0.987682
0.960222
0.933204
0.906544
0.880178
0.854051
0.828118
0.802342
4.67904
2.45964
1.96861
1.82811
1.71171
1.61853
1.54347
1.47826
1.42095
1.36941
1.32271
1.28016
1.2411
1.2048
1.17059
1.138
1.10677
1.07662
1.04734
1.01876
0.990753
0.963202
0.93603
0.90917
0.88257
0.85619
0.829996
0.80396
4.24309
2.2972
1.94861
1.81858
1.70402
1.61466
1.54074
1.47645
1.42023
1.37066
1.32659
1.28622
1.24773
1.21015
1.17381
1.13989
1.10761
1.07678
1.04715
1.01849
0.990617
0.963394
0.936678
0.910326
0.884208
0.858221
0.832292
0.80638
3.9362
2.22529
1.93899
1.81221
1.69954
1.61258
1.53965
1.47687
1.42215
1.37231
1.32367
1.27406
1.22557
1.1842
1.16029
1.13563
1.11209
1.08963
1.06797
1.04667
1.02702
1.0085
0.990395
0.971967
0.952604
0.93183
0.909345
0.885023
68.4867
74.0121
79.1202
83.8559
88.2852
92.4899
96.5066
100.272
104.074
107.959
111.159
111.217
130.91
131.953
132.329
132.213
131.78
131.289
130.849
130.557
130.415
130.387
130.562
130.829
150.007
147.03
143.604
140.012
136.62
133.761
131.673
130.469
129.989
129.831
129.985
130.578
174.436
167.055
159.281
151.555
144.376
138.277
133.735
131.039
129.986
129.666
129.815
130.419
198.817
187.612
176.056
164.606
153.812
144.335
136.897
132.109
130.071
129.516
129.562
130.227
224.434
209.753
194.651
179.605
165.192
152.154
141.411
133.937
130.347
129.421
129.336
130.059
251.732
233.512
214.806
196.124
178.063
161.388
147.139
136.593
130.899
129.332
129.119
129.905
280.661
258.682
236.18
213.733
191.966
171.643
153.832
140.013
131.799
129.31
128.916
129.761
311.023
285.012
258.469
232.074
206.516
182.554
161.213
144.058
133.084
129.351
128.728
129.627
342.557
312.24
281.414
250.88
221.419
193.817
169.028
148.552
134.702
129.452
128.557
129.503
374.973
340.091
304.766
269.922
236.445
205.182
177.043
153.381
136.601
129.607
128.405
129.386
407.975
368.277
328.264
288.978
251.398
216.45
185.04
158.364
138.726
129.807
128.278
129.276
441.253
396.498
351.636
307.813
266.087
227.452
192.846
163.338
141
130.041
128.167
129.171
474.474
424.441
374.597
326.185
280.316
238.031
200.311
168.153
143.336
130.302
128.053
129.072
507.272
451.769
396.848
343.837
293.879
248.033
207.306
172.677
145.639
130.578
127.942
128.976
539.233
478.115
418.075
360.506
306.565
257.296
213.713
176.798
147.815
130.852
127.835
128.884
569.895
503.079
437.943
375.92
318.156
265.659
219.416
180.418
149.771
131.106
127.732
128.795
598.742
526.231
456.101
389.797
328.431
272.955
224.3
183.452
151.422
131.319
127.634
128.708
625.21
547.108
472.182
401.849
337.169
279.017
228.25
185.821
152.69
131.472
127.54
128.623
648.697
565.232
485.808
411.787
344.15
283.681
231.15
187.455
153.504
131.546
127.451
128.539
668.579
580.114
496.606
419.329
349.162
286.791
232.89
188.284
153.81
131.524
127.366
128.456
684.236
591.279
504.215
424.203
352.006
288.201
233.367
188.247
153.572
131.387
127.282
128.377
695.08
598.282
508.303
426.163
352.5
287.78
232.495
187.291
152.807
131.076
127.197
128.305
700.589
600.737
508.586
425.002
350.496
285.425
230.197
185.373
151.483
130.605
127.109
128.239
700.346
598.343
504.845
420.56
345.875
281.054
226.426
182.467
149.601
129.993
127.016
128.181
694.077
590.898
496.933
412.733
338.571
274.625
221.163
178.574
147.177
129.275
126.912
128.13
681.646
578.322
484.804
401.495
328.57
266.146
214.433
173.729
144.259
128.501
126.792
128.091
663.114
560.68
468.517
386.9
315.931
255.676
206.298
167.998
140.93
127.744
126.7
128.065
638.723
538.176
448.242
369.092
300.778
243.335
196.88
161.506
137.335
127.09
126.625
128.045
608.892
511.157
424.266
348.318
283.339
229.337
186.384
154.451
133.726
126.629
126.529
128.042
574.199
480.101
396.99
324.923
263.927
213.98
175.097
147.126
130.603
126.448
126.438
128.076
535.354
445.606
366.933
299.373
242.964
197.667
163.418
139.961
128.164
126.25
126.361
128.169
493.167
408.368
334.704
272.234
221.003
180.935
151.893
133.574
126.622
126.033
126.342
128.34
448.53
369.173
301.013
244.18
198.729
164.497
141.278
128.946
126.043
125.937
126.442
128.594
402.399
328.91
266.739
216.115
177.067
149.321
132.643
126.361
125.782
125.909
126.76
128.948
355.782
288.57
232.937
189.181
157.229
136.751
127.45
125.7
125.699
126.217
127.435
129.376
309.734
249.27
200.858
164.761
140.778
128.642
125.607
125.596
126.046
127.268
128.545
129.853
265.395
212.336
172.062
144.61
129.795
125.539
125.511
126.136
127.883
129.688
130.369
130.478
224.063
179.389
148.449
130.93
125.492
125.439
126.549
129.572
132.834
134.157
133.106
131.246
187.317
152.435
132.235
125.471
125.376
127.302
132.403
138.427
141.74
140.871
136.738
132.208
157.146
133.819
125.678
125.319
128.259
136.156
146.286
153.594
154.772
149.724
141.134
133.362
135.985
126.007
125.268
129.123
140.132
155.469
168.931
175.044
171.508
160.294
146.048
134.532
126.532
125.22
129.515
143.294
164.305
185.739
200.06
202.085
191.18
172.008
151.204
135.629
125.072
129.161
144.669
170.928
201.019
226.169
238.211
233.004
212.479
184.143
156.316
136.613
128.066
143.835
173.975
211.784
248.299
273.711
280.375
265.478
233.936
195.928
161.097
137.459
140.95
172.792
215.955
262.026
301.096
323.357
322.074
296.491
253.897
206.574
165.278
138.149
167.543
212.867
265.101
315.196
353.217
369.865
359.494
323.407
270.803
215.376
168.644
138.672
203.273
257.634
314.344
364.817
399.469
409.312
389.81
344.297
283.491
221.814
171.043
139.023
241.736
299.95
357.417
406.03
436.295
438.577
410.522
357.708
291.214
225.571
172.414
139.206
275.678
334.116
390.221
435.453
460.956
457.287
421.335
362.821
293.49
226.459
172.634
139.294
300.611
357.216
409.935
449.931
470.707
457.09
419.232
359.126
290.265
224.452
171.576
139.38
314.647
367.118
413.924
446.837
458.179
443.516
404.782
346.82
281.639
219.514
169.214
139.466
316.467
362.251
400.939
426.211
432.256
416.189
379.229
326.654
267.94
211.664
165.598
139.554
305.446
342.792
372.891
390.986
393.061
377.28
344.747
299.94
249.746
201.048
160.895
139.645
283.092
311.282
332.909
344.82
344.429
330.616
304.24
268.446
227.929
188.097
155.46
139.742
252.235
271.602
285.79
292.91
291.385
280.54
260.872
234.269
203.826
173.783
149.912
139.849
217.062
228.655
236.805
240.506
238.786
231.221
218
200.159
179.726
159.902
145.106
139.973
182.881
188.246
191.843
193.282
191.956
187.57
180.163
170.27
159.123
148.795
142.003
140.127
156.033
157.364
158.227
158.503
157.852
156.142
153.386
149.791
145.935
142.608
140.871
140.491
143.363
143.247
143.132
143.016
142.889
142.687
142.413
142.09
141.789
141.587
141.948
142.492
3.72448
2.18709
1.93519
1.8083
1.69753
1.6123
1.54056
1.47864
1.42234
1.36781
1.31654
1.27982
1.26669
1.30134
1.42904
1.72377
2.30567
3.35839
5.15604
8.03595
12.3599
18.3251
25.4972
33.0852
40.8096
48.384
55.6119
62.3743
3.57916
2.16587
1.9348
1.80663
1.6977
1.61393
1.54302
1.47995
1.41958
1.36365
1.32878
1.33899
1.49349
1.94199
2.94612
5.23993
10.2275
19.2126
31.6418
46.6223
62.7346
78.3378
92.1007
103.617
113.052
120.315
125.565
129.013
3.47865
2.15469
1.9367
1.80712
1.70001
1.61741
1.54562
1.47742
1.41138
1.36776
1.38564
1.6066
2.27006
4.31903
10.3065
22.1338
40.0052
61.6852
83.8025
104.422
121.617
134.697
143.838
149.661
152.828
153.955
153.601
152.169
3.40667
2.14973
1.94032
1.80965
1.70424
1.62137
1.54503
1.46993
1.41172
1.40094
1.53828
2.14847
5.48514
14.9141
32.9593
57.8916
86.4263
114.051
137.768
156.564
170.5
180.394
186.982
190.71
191.794
190.351
186.657
181.146
3.35366
2.14896
1.94542
1.81409
1.70986
1.62502
1.54314
1.46675
1.42357
1.45526
1.68309
5.22196
16.4513
38.0024
68.5693
103.052
136.233
164.706
187.759
205.882
219.605
229.073
234.218
235.194
232.532
226.985
219.131
209.495
3.31414
2.15125
1.95189
1.82022
1.71617
1.62708
1.53976
1.47341
1.46034
1.58872
3.49224
14.0703
36.4838
70.2816
110.185
149.63
184.641
214.244
238.697
257.8
271.033
278.29
280.201
277.76
271.801
262.932
251.698
238.593
3.28476
2.15592
1.95967
1.82771
1.7227
1.62899
1.54052
1.48537
1.50925
1.73055
8.68899
29.2814
63.2728
106.932
152.752
195.335
232.947
265.253
291.249
309.789
320.892
325.633
325.208
320.45
311.945
300.25
285.889
269.394
3.26328
2.16252
1.96865
1.83632
1.72941
1.6312
1.54487
1.51412
1.59695
3.57408
18.496
49.4142
93.6076
144.444
194.609
240.869
282.193
316.816
342.766
359.897
369.58
373.143
371.388
364.869
354.11
339.659
322.097
302.043
3.24814
2.17076
1.97876
1.84579
1.73603
1.63425
1.55905
1.54646
1.67072
7.67392
31.8366
72.4592
124.917
181.278
235.867
286.669
331.418
367.029
392.524
409.334
418.986
422.263
419.639
411.569
398.571
381.247
360.278
336.404
3.23819
2.18042
1.98988
1.85597
1.74316
1.63993
1.57336
1.6001
2.05193
14.2563
47.4856
96.6164
155.734
217.116
276.74
332.15
379.332
415.564
441.71
459.599
470.096
473.548
470.265
460.666
445.308
424.892
400.235
372.236
3.23254
2.1913
2.0019
1.86678
1.75107
1.64892
1.59788
1.65085
3.50427
23.0857
64.2477
120.637
185.449
251.999
317.013
376.491
425.606
463.31
491.516
511.428
523.291
527.198
523.34
512.137
494.214
470.413
441.73
409.262
3.23053
2.20328
2.01475
1.87826
1.76014
1.66071
1.62543
1.69574
6.02377
33.0582
81.201
143.814
213.895
285.91
356.263
419.301
470.726
511.206
542.538
565.09
578.707
583.262
578.849
565.899
545.143
517.604
484.507
447.193
3.23159
2.21622
2.02835
1.89035
1.77016
1.67775
1.65467
1.74108
9.49412
43.4791
97.7317
165.824
241.064
318.722
394.155
460.672
515.344
559.767
594.965
620.653
636.351
641.706
636.709
621.819
597.907
566.226
528.289
485.729
3.23524
2.23003
2.04262
1.90309
1.78178
1.6965
1.68219
1.78578
13.7244
53.8574
113.461
186.538
266.942
350.256
430.545
500.906
559.891
609.145
648.793
678.067
696.144
702.416
696.763
679.691
652.25
615.984
572.75
524.533
3.24114
2.2446
2.05752
1.91661
1.79501
1.71417
1.71915
1.99261
18.516
63.8447
128.161
205.876
291.442
380.32
465.415
540.264
604.517
659.281
703.905
737.193
757.924
765.2
758.776
739.226
707.833
666.502
617.503
563.218
3.24899
2.25986
2.07302
1.93091
1.80954
1.73428
1.75534
2.48655
23.5485
73.2226
141.731
223.824
314.488
408.788
498.805
578.866
649.16
710.001
760.102
797.815
821.456
829.789
822.426
800.038
764.216
717.309
662.072
601.335
3.25854
2.27574
2.08906
1.94595
1.82533
1.75696
1.78585
3.19422
28.4529
81.8775
154.151
240.407
336.061
435.634
530.776
616.698
693.636
761.055
817.116
859.649
886.435
895.836
887.299
861.64
820.845
767.82
705.887
638.359
3.26957
2.29216
2.10561
1.96172
1.84225
1.78045
1.81463
4.04357
33.0675
89.7576
165.438
255.666
356.164
460.878
561.361
653.652
737.696
812.14
874.613
922.337
952.471
962.894
952.868
923.416
877.042
817.336
748.275
673.689
3.28189
2.30909
2.12264
1.97816
1.86012
1.80419
1.84307
4.97133
37.3142
96.8549
175.631
269.647
374.826
484.572
590.577
689.578
781.053
862.903
932.192
985.437
1019.06
1030.38
1018.45
984.596
931.983
865.032
788.466
706.648
3.29535
2.32646
2.14011
1.99524
1.87879
1.82802
1.8713
5.92503
41.1567
103.187
184.783
282.399
392.082
506.763
618.403
724.293
823.4
912.946
989.373
1048.39
1085.56
1097.54
1083.18
1044.21
984.672
909.952
825.595
736.497
3.30981
2.34423
2.15799
2.01291
1.89811
1.85187
1.89931
6.8624
44.5814
108.785
192.948
293.971
407.967
527.472
644.788
757.604
864.409
961.818
1045.58
1110.49
1151.13
1163.37
1145.93
1101.08
1033.93
951.018
858.725
762.458
3.32514
2.36236
2.17625
2.03111
1.91797
1.87572
1.9271
7.75097
47.5894
113.683
200.18
304.406
422.509
546.712
669.666
789.325
903.747
1009.02
1100.15
1170.88
1214.68
1226.62
1205.3
1153.77
1078.41
987.042
886.871
783.738
3.34124
2.38081
2.19486
2.04978
1.93824
1.89956
1.95465
8.56759
50.1927
117.92
206.526
313.742
435.731
564.472
692.946
819.245
941.051
1053.99
1152.27
1228.48
1274.9
1285.74
1259.61
1200.63
1116.63
1016.78
909.045
799.573
3.35803
2.39957
2.21378
2.06888
1.95903
1.92338
1.98197
9.29637
52.409
121.536
212.033
322.013
447.649
580.723
714.509
847.138
975.941
1096.12
1201.04
1282.11
1330.41
1339.2
1306.96
1239.88
1147.05
1039.02
924.316
809.268
3.37542
2.41859
2.23299
2.08836
1.9804
1.94717
2.00906
9.92723
54.2588
124.571
216.742
329.248
458.269
595.431
734.24
872.784
1008.03
1134.74
1245.44
1330.59
1380.24
1385.87
1345.42
1269.71
1168.24
1052.66
931.884
812.249
3.39336
2.43785
2.25247
2.10818
2.00207
1.97093
2.0359
10.4547
55.7632
127.06
220.69
335.471
467.594
608.55
752.011
895.938
1036.89
1169.15
1284.71
1373.46
1423.46
1423.58
1373.15
1288.49
1178.96
1056.84
931.153
808.12
3.41179
2.45734
2.2722
2.12832
2.02396
1.99466
2.06252
10.8766
56.9429
129.034
223.908
340.702
475.621
620.031
767.687
916.341
1062.08
1198.74
1317.7
1406.76
1450.68
1446.19
1388.3
1294.98
1178.38
1051.04
921.811
796.658
3.43068
2.47704
2.29215
2.14874
2.04603
2.01837
2.0889
11.1936
57.8179
130.524
226.425
344.956
482.342
629.82
781.14
933.758
1083.23
1222.85
1343.07
1429.42
1466.34
1454.79
1389.46
1288.53
1166.2
1035.05
903.769
777.89
3.44998
2.49693
2.31232
2.16944
2.06826
2.04205
2.11506
11.4084
58.4064
131.555
228.266
348.246
487.749
637.865
792.25
947.964
1099.94
1240.78
1359.84
1442.11
1476.87
1449.35
1376.63
1269.06
1142.39
1009.13
877.333
752.093
3.46963
2.51701
2.3327
2.19038
2.09063
2.06572
2.141
11.5236
58.727
132.151
229.451
350.582
491.829
644.116
800.898
958.739
1111.84
1251.95
1367.49
1443.73
1463.36
1430.86
1350.2
1236.95
1107.68
973.944
843.09
719.77
3.48962
2.53727
2.35327
2.21157
2.11312
2.08936
2.16665
11.5524
58.7882
132.331
229.999
351.972
494.571
648.522
806.974
965.89
1118.62
1256
1365.74
1434.81
1442.23
1399.67
1310.57
1193.35
1063.23
930.487
801.879
681.619
3.50994
2.55769
2.37403
2.23297
2.13576
2.11299
2.19191
11.5163
58.5884
132.112
229.928
352.422
495.964
651.039
810.383
969.25
1120.11
1252.78
1354.09
1413.81
1412.59
1355.55
1259.29
1140.04
1010.48
879.968
754.724
638.493
3.53052
2.57831
2.39494
2.25457
2.15828
2.1366
2.2168
11.423
58.1391
131.51
229.259
351.943
495.987
651.627
811.058
968.748
1116.18
1242.18
1332.92
1377.19
1362.71
1298.26
1198.8
1078.95
950.966
823.729
702.771
591.352
3.55112
2.59938
2.41596
2.27634
2.18081
2.16021
2.24135
11.278
57.4549
130.541
228.008
350.55
494.637
650.25
808.944
964.293
1106.75
1224.27
1302.94
1331.43
1305.61
1234.26
1131.51
1011.66
886.259
763.184
647.22
541.22
3.57174
2.6209
2.43709
2.29828
2.20342
2.18381
2.26557
11.0867
56.5509
129.219
226.19
348.256
491.912
646.883
804.001
955.842
1091.86
1199.29
1264.77
1278.99
1242.05
1163.89
1058.69
939.944
818.003
699.726
589.266
489.156
3.59238
2.64287
2.45833
2.32039
2.22614
2.2074
2.28949
10.8545
55.4426
127.556
223.823
345.075
487.814
641.512
796.205
943.397
1071.62
1167.66
1219.24
1219.81
1172.56
1088.75
982.274
865.539
747.674
634.635
530.072
436.235
3.61305
2.66525
2.47968
2.34266
2.249
2.231
2.31313
10.5872
54.1459
125.566
220.924
341.024
482.353
634.132
785.557
927.011
1046.24
1129.92
1167.41
1155.07
1098.78
1010.63
903.925
789.909
676.568
569.106
470.768
383.537
3.63375
2.68802
2.50114
2.36509
2.27198
2.25461
2.33651
10.2902
52.6776
123.263
217.511
336.126
475.548
624.758
772.085
906.796
1016.02
1086.76
1110.35
1086.21
1022.31
931.077
825.055
714.316
605.841
504.251
412.449
332.142
3.6545
2.71117
2.52271
2.38768
2.29511
2.27824
2.35967
9.96933
51.0551
120.663
213.607
330.408
467.431
613.422
755.857
882.929
981.376
1038.98
1049.3
1014.71
944.605
851.418
746.851
639.835
536.522
441.12
356.177
283.154
3.67529
2.73468
2.5444
2.41041
2.31838
2.30189
2.38264
9.63002
49.2969
117.784
209.238
323.909
458.05
600.188
736.986
855.659
942.809
987.412
985.501
941.84
866.845
772.761
670.313
567.382
469.56
380.719
302.99
237.773
3.69613
2.75854
2.56621
2.43329
2.34179
2.32558
2.40544
9.27777
47.4228
114.645
204.434
316.676
447.472
585.15
715.631
825.298
900.897
932.967
919.999
868.668
790.084
696.065
596.262
497.771
405.868
324.017
253.942
197.423
3.71703
2.78273
2.58813
2.45631
2.36534
2.34931
2.42811
8.9179
45.4537
111.27
199.229
308.766
435.784
568.436
692.002
792.225
856.287
876.507
853.792
796.206
715.277
622.115
525.382
431.779
346.345
271.948
210.216
163.935
3.73799
2.80723
2.61018
2.47946
2.38904
2.3731
2.45068
8.55551
43.412
107.686
193.664
300.248
423.099
550.215
666.367
756.883
809.674
819.015
787.858
725.391
643.232
551.52
458.299
370.211
291.851
225.45
173.339
139.702
3.75901
2.83203
2.63235
2.50275
2.41289
2.39696
2.47319
8.19537
41.3207
103.924
187.788
291.205
409.551
530.697
639.048
719.774
761.781
761.357
723.062
657.082
574.59
484.777
395.683
313.882
243.172
185.642
145.463
127.658
3.7801
2.85709
2.65464
2.52616
2.43687
2.4209
2.49569
7.84193
39.2038
100.019
181.653
281.732
395.299
510.133
610.426
681.461
713.382
704.31
660.277
592.064
509.812
422.385
338.289
263.524
201.069
154.149
129.639
124.746
3.80126
2.88239
2.67705
2.5497
2.461
2.44492
2.5182
7.49918
37.0854
96.0103
175.319
271.932
380.523
488.804
580.928
642.547
665.245
648.682
600.411
530.897
449.226
364.973
286.877
219.701
166.496
133.537
124.334
126.351
3.82249
2.90792
2.69958
2.57334
2.48527
2.46905
2.54077
7.17061
34.9895
91.9395
168.851
261.92
365.417
467.024
551.016
603.688
618.052
595.364
544.258
473.861
393.23
313.319
242.011
182.874
140.972
124.258
124.366
136.05
3.84379
2.93362
2.72222
2.59709
2.50967
2.49329
2.56344
6.85912
32.939
87.8512
162.32
251.816
350.188
445.126
521.191
565.572
572.625
545.343
492.275
421.092
342.483
268.144
203.911
153.711
126.726
122.666
130.313
158.155
3.86517
2.95948
2.74497
2.62093
2.53419
2.51765
2.58625
6.56705
30.9552
83.7911
155.798
241.743
335.049
423.453
491.965
528.879
529.771
499.379
444.518
372.953
297.849
229.783
172.572
133.559
121.55
125.083
146.054
188.028
3.88662
2.98546
2.76782
2.64486
2.55883
2.54213
2.60922
6.29619
29.0575
79.805
149.359
231.826
320.206
402.339
463.834
494.196
490.321
457.825
400.934
330.248
260.001
198.04
148.159
122.97
121.468
134.43
169.576
219.173
3.90815
3.01151
2.79078
2.66886
2.58357
2.56675
2.6324
6.04772
27.2626
75.9371
143.075
222.182
305.858
382.103
437.274
462.028
454.973
420.519
361.777
293.992
228.981
172.415
131.335
119.276
125.182
151.197
193.482
244.715
3.92976
3.0376
2.81382
2.69293
2.60841
2.59149
2.65582
5.82229
25.584
72.2286
137.018
212.925
292.189
363.038
412.716
432.865
424.096
387.072
327.9
264.841
204.171
152.518
121.774
119.208
134.441
169.297
212.054
261.331
3.95144
3.06368
2.83694
2.71706
2.63334
2.61637
2.6795
5.62004
24.0318
68.7161
131.251
204.155
279.363
345.401
390.499
407.225
397.561
357.391
300.478
242.629
184.755
138.088
117.075
121.098
147.352
182.799
222.044
267.989
3.97319
3.08973
2.86013
2.74122
2.65832
2.64139
2.70346
5.44067
22.6126
65.4302
125.831
195.96
267.514
329.398
370.846
385.608
374.726
332.077
280.3
226.525
170.282
128.793
115.607
126.021
158.719
188.797
223.719
264.389
3.995
3.11568
2.88337
2.76542
2.68348
2.66655
2.72771
5.28352
21.3295
62.3949
120.802
188.41
256.751
315.187
353.88
368.307
354.749
312.353
267.181
215.72
160.767
123.894
115.555
130.752
164.031
187.93
217.635
250.816
4.01688
3.14152
2.90666
2.78965
2.70871
2.69184
2.75228
5.14762
20.1825
59.6271
116.202
181.558
247.152
302.874
339.681
355.238
337.164
299.366
260.104
210.012
156.405
121.816
115.496
132.831
163.594
182.273
204.808
229.366
4.03883
3.16719
2.92999
2.81388
2.73397
2.71726
2.77717
5.03181
19.1689
57.1361
112.054
175.442
238.767
292.509
328.303
345.932
322.423
293.265
258.021
209.765
157.412
122.04
115.381
130.427
158.663
173.173
187.697
203.305
4.06083
3.19268
2.95334
2.83812
2.75926
2.74281
2.80237
4.93476
18.2838
54.9255
108.371
170.083
231.621
284.096
319.775
339.598
312.073
292.766
260.601
215.567
164.425
125.229
114.771
124.383
150.179
163.022
169.62
177.037
4.08285
3.21793
2.9767
2.86236
2.78455
2.76847
2.82789
4.85512
17.5198
52.9901
105.153
165.477
225.7
277.575
313.975
336.574
308.214
295.881
267.893
227.267
178.092
133.924
114.66
117.069
137.502
153.46
154.43
155.719
4.10524
3.24303
3.00006
2.88658
2.80986
2.79425
2.8538
4.79123
16.8725
51.3304
102.407
161.642
221.019
272.931
310.848
332.826
310.495
302.147
279.036
244.052
198.688
151.595
119.5
112.09
121.572
141.945
145.298
143.876
4.1228
3.26482
3.0209
2.90818
2.83236
2.81732
2.87471
4.7483
16.3769
50.0481
100.303
158.783
217.742
270.132
310.014
329.496
314.646
309.952
291.441
262.221
222.396
176.136
133.747
111.878
110.252
121.96
144.2
143.641
4.14015
3.28405
3.03921
2.92715
2.85283
2.83768
2.89537
4.71743
16.008
49.0869
98.7447
156.747
215.62
268.777
310.632
327.515
320.021
318.346
303.832
279.616
245.62
203.916
159.948
123.944
108.728
108.644
121.403
143.893
4.15731
3.30311
3.05751
2.94611
2.87293
2.85811
2.91619
4.69396
15.6945
48.2665
97.4369
155.121
214.143
268.416
312.172
327.136
326.664
327.938
317.355
297.835
269.427
233.334
192.295
152.02
120.964
107.31
105.687
109.986
98.745
97.6542
96.9086
96.4312
96.07
95.8093
95.6492
95.5225
95.383
99.4238
111.317
162.428
126.511
120.25
115.005
110.797
106.948
103.421
100.295
97.7169
95.7471
94.8378
94.7929
96.1577
175.713
163.486
152.782
143.05
133.726
124.632
115.814
107.631
100.768
96.0975
94.2352
93.8297
229.989
213.883
198.742
184.001
169.218
154.209
139.058
124.248
110.812
100.398
94.9129
93.6017
282.494
263.944
245.554
226.878
207.556
187.396
166.449
145.191
124.809
107.501
96.5109
93.4848
331.538
311.124
290.104
268.172
245.052
220.551
194.655
167.724
140.898
116.675
99.2648
93.3912
377.141
355.111
331.773
306.94
280.429
252.094
221.89
190.043
157.482
126.694
102.803
93.3128
419.488
395.97
370.527
343.04
313.399
281.526
247.41
211.213
173.652
136.974
106.761
93.2443
458.902
433.891
406.458
376.509
343.964
308.787
271.021
230.848
188.851
146.98
110.904
93.1827
495.849
469.184
439.743
407.442
372.186
333.931
292.749
248.877
202.872
156.43
115.051
93.1261
530.856
502.248
470.648
435.999
398.168
357.047
312.681
265.355
215.677
165.189
119.087
93.0732
564.417
533.492
499.481
462.388
422.045
378.239
330.922
280.38
227.312
173.215
122.941
93.0233
596.928
563.275
526.541
486.836
443.976
397.625
347.58
294.062
237.857
180.518
126.574
92.9757
628.663
591.869
552.079
509.557
464.129
415.332
362.763
306.504
247.401
187.133
129.967
92.93
659.783
619.454
576.287
530.734
482.661
431.486
376.573
317.805
256.032
193.104
133.112
92.8859
690.342
646.12
599.289
550.512
499.714
446.207
389.11
328.052
263.829
198.48
136.012
92.8428
720.308
671.884
621.152
568.993
515.404
459.604
400.465
337.323
270.863
203.31
138.671
92.8006
749.568
696.697
641.889
586.241
529.824
471.774
410.722
345.688
277.197
207.637
141.099
92.7594
777.945
720.456
661.471
602.289
543.042
482.797
419.955
353.211
282.886
211.504
143.303
92.7189
805.198
743.009
679.832
617.137
555.106
492.742
428.232
359.948
287.977
214.947
145.294
92.679
831.029
764.166
696.876
630.765
566.045
501.661
435.61
365.948
292.512
218
147.082
92.6397
855.095
783.705
712.483
643.133
575.873
509.599
442.141
371.259
296.53
220.692
148.676
92.6009
877.037
801.4
726.531
654.197
584.604
516.602
447.879
375.925
300.066
223.052
150.086
92.5625
896.551
817.104
738.974
663.971
592.281
522.725
452.877
379.989
303.151
225.103
151.322
92.5245
913.439
830.736
749.802
672.484
598.955
528.023
457.184
383.49
305.811
226.863
152.389
92.4869
927.487
842.164
758.939
679.705
604.632
532.526
460.833
386.454
308.065
228.348
153.292
92.4496
938.372
851.17
766.25
685.558
609.278
536.229
463.838
388.895
309.921
229.565
154.034
92.4128
945.742
857.51
771.575
689.946
612.841
539.11
466.193
390.813
311.381
230.518
154.615
92.3762
949.287
860.964
774.766
692.776
615.266
541.14
467.884
392.202
312.441
231.206
155.033
92.3397
948.779
861.366
775.702
693.963
616.498
542.288
468.894
393.05
313.092
231.626
155.286
92.3025
944.086
858.607
774.293
693.438
616.487
542.521
469.2
393.342
313.325
231.773
155.367
92.2649
935.241
852.664
770.493
691.147
615.186
541.805
468.78
393.06
313.124
231.635
155.28
92.2272
922.398
843.585
764.294
687.052
612.548
540.094
467.601
392.183
312.472
231.199
155.045
92.1581
905.819
831.483
755.725
681.137
608.532
537.344
465.621
390.677
311.344
230.447
154.652
92.0525
885.846
816.53
744.85
673.402
603.104
533.509
462.795
388.503
309.709
229.36
154.089
91.9065
862.88
798.945
731.761
663.863
596.238
528.539
459.071
385.615
307.533
227.915
153.348
91.7186
837.336
778.974
716.577
652.55
587.912
522.384
454.389
381.959
304.774
226.085
152.414
91.4856
809.624
756.877
699.427
639.503
578.105
514.991
448.686
377.477
301.386
223.842
151.274
91.2039
780.126
732.91
680.45
624.77
566.8
506.302
441.886
372.099
297.318
221.153
149.912
90.87
749.17
707.301
659.776
608.393
553.977
496.25
433.907
365.752
292.516
217.986
148.313
90.4798
717.023
680.241
637.517
590.412
539.603
484.758
424.658
358.355
286.923
214.303
146.458
90.0288
683.888
651.872
613.757
570.838
523.629
471.731
414.029
349.818
280.475
210.067
144.326
89.5118
649.89
622.278
588.528
549.648
505.971
457.049
401.892
340.036
273.104
205.236
141.895
88.9219
615.078
591.482
561.811
526.769
486.509
440.562
388.1
328.897
264.74
199.772
139.148
88.2495
579.416
559.431
533.511
502.059
465.069
422.089
372.491
316.281
255.315
193.642
136.068
87.4893
542.743
525.957
503.423
475.284
441.412
401.417
354.897
302.07
244.769
186.82
132.64
86.6366