/*--------------------------------*- C++ -*----------------------------------*\
| =========                 |                                                 |
| \\      /  F ield         | OpenFOAM: The Open Source CFD Toolbox           |
|  \\    /   O peration     | Version:  2012                                  |
|   \\  /    A nd           | Website:  www.openfoam.com                      |
|    \\/     M anipulation  |                                                 |
\*---------------------------------------------------------------------------*/
FoamFile
{
    version     2.0;
    format      ascii;
    class       volScalarField;
    location    "672";
    object      nut;
}
// * * * * * * * * * * * * * * * * * * * * * * * * * * * * * * * * * * * * * //

dimensions      [0 2 -1 0 0 0 0];


internalField   nonuniform List<scalar> 
6084
(
0.000495773
0.000515505
0.000537031
0.000560619
0.000586602
0.000615395
0.000647523
0.000683656
0.00072467
0.000771734
0.000826438
0.000891011
0.000968663
0.00106419
0.00118504
0.00134333
0.00155988
0.00187282
0.00235718
0.00317378
0.00275587
0.00286067
0.00297339
0.00309495
0.00322654
0.00336956
0.00352575
0.00369724
0.0038867
0.00409761
0.00433453
0.00460362
0.00491347
0.00527642
0.00571086
0.00624546
0.00692726
0.00783903
0.00914142
0.0111994
0.0047078
0.00487552
0.00505494
0.00524719
0.00545371
0.00567626
0.00591688
0.00617802
0.00646271
0.00677468
0.00711866
0.00750076
0.00792893
0.00841368
0.00896889
0.00961268
0.0103675
0.0112576
0.0122975
0.0134526
0.005946
0.00614979
0.00636708
0.00659893
0.00684673
0.00711205
0.0073967
0.00770266
0.00803221
0.00838787
0.00877248
0.00918916
0.0096413
0.0101324
0.0106655
0.0112427
0.0118628
0.0125183
0.0131899
0.0138416
0.006539
0.00675894
0.00699307
0.00724233
0.00750796
0.00779134
0.00809391
0.00841718
0.00876262
0.0091316
0.00952519
0.00994395
0.0103876
0.0108542
0.0113401
0.0118384
0.0123389
0.0128287
0.0132981
0.013758
0.00653935
0.00675915
0.0069932
0.00724242
0.00750802
0.00779137
0.00809393
0.0084172
0.00876263
0.0091316
0.00952519
0.00994395
0.0103876
0.0108542
0.0113401
0.0118384
0.0123389
0.0128287
0.0132981
0.013758
0.00594658
0.00615012
0.00636731
0.0065991
0.00684685
0.00711214
0.00739675
0.0077027
0.00803224
0.00838789
0.00877249
0.00918917
0.00964131
0.0101324
0.0106655
0.0112427
0.0118628
0.0125183
0.0131899
0.0138416
0.0047075
0.00487551
0.00505504
0.00524734
0.00545385
0.00567637
0.00591695
0.00617807
0.00646274
0.0067747
0.00711868
0.00750077
0.00792894
0.00841368
0.0089689
0.00961268
0.0103675
0.0112576
0.0122975
0.0134526
0.00275288
0.00285995
0.0029732
0.003095
0.00322663
0.00336964
0.00352581
0.00369728
0.00388674
0.00409764
0.00433454
0.00460363
0.00491347
0.00527642
0.00571087
0.00624546
0.00692726
0.00783903
0.00914142
0.0111994
0.000495735
0.000515498
0.000537034
0.000560625
0.000586607
0.000615399
0.000647526
0.000683658
0.000724672
0.000771735
0.000826439
0.000891011
0.000968664
0.00106419
0.00118504
0.00134333
0.00155988
0.00187282
0.00235718
0.00317378
0.000345147
0.000354205
0.00036367
0.000373598
0.00038405
0.00039509
0.000406786
0.000419215
0.000432463
0.000446624
0.000461808
0.000478141
0.00187546
0.00193638
0.00199792
0.0020606
0.00212489
0.00219124
0.00226015
0.00233211
0.0024076
0.00248715
0.00257128
0.00266058
0.00328378
0.00338111
0.00347993
0.00358106
0.00368516
0.0037929
0.00390497
0.00402203
0.00414478
0.00427392
0.00441019
0.00455436
0.00421433
0.00433
0.0044484
0.0045704
0.00469669
0.00482792
0.00496479
0.00510798
0.00525821
0.00541624
0.00558286
0.00575889
0.00468423
0.00480388
0.00492774
0.00505661
0.00519107
0.00533164
0.00547887
0.00563329
0.00579553
0.00596631
0.00614645
0.00633675
0.0047285
0.00483768
0.00495289
0.00507482
0.00520399
0.00534078
0.00548551
0.0056383
0.00579919
0.00596864
0.00614777
0.00633744
0.00437441
0.00445474
0.00454281
0.00463944
0.00474538
0.00486148
0.00498881
0.00512753
0.00527265
0.00542527
0.00558764
0.00576091
0.00369797
0.00372788
0.00376557
0.00381156
0.00386627
0.00393032
0.00400417
0.00408814
0.00418888
0.00430248
0.00442498
0.00455941
0.00285993
0.00281046
0.00276522
0.00272497
0.00268928
0.00265634
0.00262382
0.00259435
0.00257932
0.00259078
0.00263008
0.00268475
0.00211624
0.00196177
0.00179412
0.00161388
0.00142301
0.00123984
0.00107143
0.000923388
0.000798591
0.000697809
0.000615807
0.00054795
7.02887e-05
6.6056e-05
6.76636e-05
7.86031e-05
0.000107664
0.00010884
0.000109983
0.000160918
0.000173414
0.000184663
0.000195035
0.00020476
0.000213987
0.000222823
0.000231348
0.000239626
0.000247711
0.000255648
0.000263481
0.000271251
0.000278997
0.00028676
0.00029458
0.000302498
0.000310557
0.000318804
0.000327284
0.000336049
0.000118892
0.000226511
0.000297251
0.000313145
0.000323553
0.000357198
0.000402307
0.000460946
0.000525663
0.000591326
0.000657956
0.000725526
0.000793993
0.000863281
0.000933266
0.00100376
0.00107454
0.00114531
0.0012158
0.00128573
0.00135487
0.00142304
0.00149016
0.00155622
0.00162129
0.00168551
0.00174908
0.00181232
0.000147327
0.000434994
0.000462111
0.000477161
0.000515138
0.000586982
0.000691755
0.00081694
0.000949286
0.00108357
0.00121811
0.00135191
0.00148445
0.00161532
0.0017442
0.00187075
0.00199469
0.00211578
0.00223384
0.0023488
0.00246071
0.00256972
0.0026761
0.0027802
0.00288246
0.00298339
0.00308355
0.00318357
0.000179895
0.00056401
0.000608636
0.000647817
0.000725699
0.000853371
0.00102094
0.00120852
0.00140128
0.00159263
0.00177915
0.00195918
0.00213205
0.00229759
0.00245591
0.00260733
0.00275224
0.00289116
0.00302465
0.00315335
0.00327794
0.00339913
0.00351765
0.00363425
0.00374968
0.00386471
0.00398007
0.00409653
0.000210429
0.000684607
0.000737978
0.000836323
0.000963584
0.00114752
0.00136935
0.00160584
0.00184179
0.00206907
0.0022834
0.00248321
0.00266847
0.00283999
0.00299904
0.00314711
0.00328574
0.00341646
0.00354071
0.00365988
0.00377521
0.00388788
0.00399899
0.00410953
0.00422046
0.00433265
0.00444693
0.00456406
0.000231617
0.000713647
0.000864455
0.00103821
0.00122008
0.00145361
0.00171611
0.00198422
0.00224277
0.00248306
0.00270103
0.00289599
0.0030692
0.00322294
0.00335992
0.00348298
0.00359481
0.00369785
0.00379431
0.0038861
0.00397493
0.00406227
0.00414946
0.00423768
0.00432803
0.00442148
0.00451893
0.00462119
0.000247288
0.00077307
0.00100071
0.00124915
0.00148054
0.00175543
0.00204396
0.00232594
0.00258715
0.00281955
0.00302028
0.00319014
0.00333203
0.00344986
0.00354781
0.00362989
0.00369972
0.00376043
0.00381468
0.0038647
0.00391239
0.00395937
0.00400709
0.00405685
0.00410985
0.00416717
0.00422983
0.00429875
0.000260185
0.000864047
0.00114488
0.00146195
0.0017341
0.00203832
0.00234053
0.00262038
0.00286712
0.00307453
0.00324168
0.00337131
0.00346819
0.00353786
0.00358582
0.00361708
0.0036359
0.00364579
0.00364951
0.00364926
0.0036468
0.00364359
0.00364091
0.00363992
0.00364174
0.00364744
0.00365807
0.00367465
0.000270804
0.000970254
0.00128993
0.0016695
0.00197259
0.00229332
0.00259739
0.00286289
0.00308175
0.00325172
0.00337433
0.0034547
0.0034997
0.00351662
0.00351235
0.00349282
0.00346272
0.00342552
0.00338358
0.00333834
0.00329061
0.0032408
0.00318914
0.00313581
0.0030811
0.00302543
0.00296943
0.00291391
0.000279543
0.00107915
0.00143213
0.00186626
0.00219069
0.00251633
0.00281039
0.00305278
0.0032348
0.00335971
0.00343255
0.00346129
0.00345532
0.00342402
0.00337576
0.00331723
0.00325311
0.00318617
0.00311748
0.00304691
0.00297354
0.00289607
0.00281303
0.00272296
0.00262436
0.00251578
0.00239575
0.00226288
0.0019343
0.00180671
0.00167323
0.00153304
0.00138472
0.0012286
0.0010615
0.00088033
0.000582236
0.000343223
0.000232175
0.00013923
0.00163219
0.00148457
0.00133408
0.00118181
0.00103168
0.000877642
0.000707495
0.000551432
0.000415604
0.000312518
0.000218984
9.16368e-05
0.00122564
0.00111032
0.00100264
0.000899931
0.000814234
0.000747089
0.000688292
0.000627794
0.000566452
0.000492772
0.000313885
7.84236e-05
0.00114658
0.00112431
0.00111618
0.00110944
0.00109981
0.00108424
0.00104921
0.00097234
0.000801231
0.000581658
0.000320532
8.00601e-05
0.00151579
0.00156635
0.00160689
0.00163238
0.00160966
0.00151604
0.00137119
0.00117291
0.00091365
0.000624826
0.000330331
8.37977e-05
0.00208716
0.00212263
0.00211323
0.00206427
0.00195829
0.00178728
0.00156739
0.00130281
0.00099961
0.000673278
0.000350065
8.78318e-05
0.00254581
0.00252253
0.00245086
0.0023356
0.00217508
0.00196829
0.00171701
0.00142239
0.00108912
0.000730405
0.000375945
9.19445e-05
0.00283389
0.00276764
0.00266433
0.00252437
0.0023452
0.00212354
0.00185645
0.00154227
0.0011838
0.000793846
0.000405689
9.60526e-05
0.00302661
0.00294263
0.0028282
0.00268066
0.00249559
0.00226764
0.00199131
0.00166253
0.00128199
0.000861764
0.000438215
0.000100124
0.00317487
0.00308483
0.00296753
0.00281876
0.00263284
0.00240286
0.00212131
0.00178166
0.00138204
0.000932893
0.000472927
0.000104151
0.00329928
0.00320744
0.00309022
0.00294269
0.00275836
0.00252907
0.00224542
0.00189827
0.00148262
0.00100633
0.000509473
0.000108135
0.00340793
0.00331549
0.00319921
0.0030539
0.00287254
0.0026459
0.00236279
0.00201127
0.00158269
0.00108137
0.000547622
0.000112085
0.00350451
0.00341145
0.00329612
0.00315332
0.00297572
0.00275322
0.00247286
0.00211983
0.00168141
0.00115747
0.000587209
0.000116013
0.00359118
0.00349699
0.0033822
0.00324184
0.00306841
0.00285112
0.00257536
0.0022234
0.00177812
0.00123411
0.000628086
0.000119935
0.00366948
0.00357344
0.00345862
0.00332037
0.00315123
0.00293988
0.00267021
0.0023216
0.00187227
0.00131083
0.000670091
0.000123867
0.00374063
0.00364195
0.0035264
0.00338979
0.00322485
0.00301989
0.00275748
0.00241418
0.0019634
0.00138714
0.000713009
0.000127833
0.00380558
0.00370347
0.00358648
0.00345094
0.00328993
0.00309158
0.00283732
0.00250098
0.00205108
0.00146251
0.000756534
0.000131858
0.00386503
0.00375878
0.00363962
0.00350454
0.00334709
0.00315541
0.00290993
0.00258192
0.00213495
0.00153636
0.000800219
0.000135978
0.00391949
0.00380844
0.00368645
0.00355123
0.0033969
0.0032118
0.00297549
0.00265689
0.00221461
0.00160802
0.000843472
0.00014024
0.00396921
0.00385281
0.00372742
0.00359148
0.00343982
0.00326111
0.00303419
0.00272581
0.00228967
0.00167671
0.000885276
0.00014471
0.00401428
0.00389211
0.00376281
0.00362567
0.0034762
0.00330364
0.00308611
0.0027885
0.00235966
0.00174151
0.000924363
0.000149485
0.00405459
0.00392633
0.00379277
0.00365401
0.00350628
0.00333962
0.00313129
0.00284469
0.00242404
0.00180386
0.000962547
0.000154479
0.00408987
0.00395534
0.00381726
0.00367663
0.00353017
0.00336919
0.0031712
0.00289712
0.00248667
0.00186576
0.00100128
0.000159506
0.00411975
0.00397885
0.00383612
0.00369377
0.00354943
0.00339415
0.00320624
0.00294525
0.0025466
0.00192702
0.00104063
0.000164565
0.00414371
0.00399726
0.00385059
0.00370626
0.00356329
0.00341353
0.00323578
0.00298852
0.00260322
0.00198722
0.00108048
0.000169634
0.00416297
0.00401058
0.00385943
0.00371289
0.00357102
0.00342668
0.00325922
0.00302629
0.00265585
0.00204585
0.00112063
0.0001747
0.004176
0.00401743
0.00386162
0.00371277
0.00357193
0.00343294
0.00327575
0.00305782
0.00270371
0.00210221
0.00116079
0.000179737
0.00418163
0.00401672
0.00385617
0.00370501
0.00356522
0.00343149
0.00328473
0.00308226
0.0027458
0.00215536
0.00120048
0.000184703
0.00417873
0.00400732
0.00384201
0.00368864
0.00355005
0.00342158
0.00328527
0.00309856
0.00278088
0.00220411
0.00123902
0.000189532
0.00416606
0.00398796
0.00381792
0.00366253
0.0035252
0.00340218
0.00327636
0.00310553
0.00280751
0.0022469
0.00127541
0.000194135
0.00414222
0.00395723
0.00378253
0.00362553
0.0034896
0.00337229
0.00325689
0.00310182
0.00282387
0.0022817
0.00130824
0.000198393
0.00410558
0.00391351
0.00373428
0.00357591
0.00344207
0.00333077
0.00322553
0.00308573
0.00282767
0.00230592
0.00133559
0.000202168
0.00405425
0.00385502
0.00367154
0.00351195
0.00338136
0.00327634
0.00318066
0.00305511
0.00264209
0.00229681
0.00135516
0.000205336
0.00398615
0.00377986
0.00359281
0.00343333
0.00330643
0.0032077
0.00312043
0.00272059
0.00235696
0.00209883
0.00136512
0.000207814
0.00389909
0.00368614
0.0034965
0.00333864
0.00321621
0.0031239
0.00282811
0.0024288
0.0021354
0.00193903
0.00137064
0.000209583
0.00379095
0.00357225
0.00338131
0.00322669
0.00311027
0.00298445
0.00253051
0.00219157
0.00196066
0.00181674
0.00137128
0.000210582
0.00365995
0.00343709
0.00324731
0.00309775
0.00298903
0.00268094
0.00227807
0.00199962
0.00182509
0.00172552
0.0013663
0.000211376
0.00350495
0.00328029
0.00309455
0.00295285
0.00285384
0.00242192
0.00206985
0.00184954
0.00172741
0.00166422
0.00135449
0.000211592
0.00332594
0.00310364
0.00292536
0.00279454
0.00263578
0.00220116
0.0019038
0.00173858
0.00166524
0.00163304
0.0013359
0.000210807
0.00312439
0.00290939
0.00274324
0.00262668
0.00238897
0.00201314
0.0017768
0.00166429
0.00163594
0.00163084
0.00131097
0.000209047
0.0029046
0.00270281
0.00255361
0.00245435
0.00216759
0.00185937
0.00168798
0.00162621
0.00163591
0.00165587
0.00127986
0.000206141
0.00267216
0.00249047
0.00236272
0.00228291
0.00196381
0.00173954
0.00163917
0.001627
0.00167875
0.00171625
0.00124392
0.000202254
0.00243639
0.00228012
0.00217633
0.00202509
0.00177899
0.00166013
0.0016356
0.00167017
0.00176982
0.001817
0.00120437
0.000197671
0.00220457
0.00207722
0.00199736
0.00174578
0.00163941
0.00163613
0.00168635
0.00177608
0.00191473
0.00184727
0.00116034
0.000192522
0.00198263
0.00188342
0.00163286
0.00154446
0.00158514
0.00168648
0.00179383
0.00193335
0.00203216
0.00178092
0.0011117
0.000186885
0.00177173
0.00149516
0.00140611
0.00147461
0.00162807
0.00179625
0.00192111
0.002
0.00197128
0.00171085
0.0010602
0.000180852
0.00139213
0.00127878
0.0013458
0.00152331
0.00163887
0.00175987
0.00188063
0.00195311
0.00190872
0.00163821
0.00100718
0.000174505
0.0011658
0.00123308
0.00138285
0.00146828
0.00159389
0.0017335
0.00185122
0.0019078
0.00184408
0.00156344
0.000953452
0.0001679
0.00109191
0.00122917
0.00130841
0.00143394
0.00158266
0.00172359
0.00182532
0.00185956
0.0017747
0.00148519
0.000898518
0.000161063
0.00108414
0.00116297
0.00128664
0.00143816
0.00159058
0.00171437
0.00179131
0.00180016
0.00169313
0.00139571
0.000833357
0.000154285
0.0010255
0.00114972
0.00129887
0.00145172
0.00158948
0.00168424
0.00173342
0.00171653
0.00158927
0.00128671
0.000755478
0.000147842
0.00101297
0.00115519
0.00130502
0.00143904
0.00154841
0.00161821
0.00164454
0.00160554
0.00146171
0.00116002
0.000670125
0.000141492
0.00100833
0.00114068
0.00126764
0.00137948
0.00146436
0.00151463
0.00152183
0.00146481
0.00131008
0.00101845
0.000581513
0.000135052
0.000971644
0.00108554
0.00119028
0.00127916
0.00134187
0.00137406
0.00136469
0.00129435
0.00113661
0.000866713
0.000493441
0.000128365
0.000903845
0.000995359
0.00107635
0.00114192
0.00118378
0.00119904
0.00117605
0.00109848
0.000947756
0.000712121
0.000409677
0.000121266
0.000805102
0.000872245
0.000929338
0.00097259
0.000995768
0.000996685
0.000964761
0.000887984
0.000755409
0.000564505
0.000333963
0.000113534
0.000660771
0.000719404
0.00075544
0.000780182
0.000789274
0.000781098
0.000747436
0.000680826
0.000576134
0.000434767
0.000269704
0.000104822
0.000500799
0.000539352
0.000561297
0.000576144
0.000579607
0.000571075
0.000545172
0.000497878
0.000426882
0.000332987
0.000221036
7.58811e-05
0.000318313
0.000324029
0.00033912
0.000354097
0.000362781
0.000365021
0.000358265
0.000339737
0.000306617
0.000256029
0.000179526
8.06799e-05
7.19235e-05
7.4198e-05
7.68518e-05
7.97593e-05
8.29084e-05
8.5656e-05
8.78379e-05
8.91077e-05
8.87971e-05
7.61464e-05
7.69672e-05
5.49525e-05
0.000287233
0.00119861
0.00157968
0.00204933
0.00239405
0.00271409
0.00298745
0.00319665
0.00333644
0.00341133
0.00343235
0.00341119
0.00336028
0.00329124
0.00321364
0.00313418
0.00305647
0.00298145
0.00290816
0.00283468
0.00275881
0.00267866
0.0025928
0.00250035
0.00240089
0.00229434
0.00218089
0.00206079
0.000293708
0.00132486
0.0017292
0.00221086
0.00256884
0.00287495
0.00312039
0.00329134
0.00338633
0.00341366
0.00338785
0.00332563
0.00324244
0.00315138
0.00306168
0.00297803
0.00290098
0.00282816
0.00275583
0.0026802
0.00259822
0.00250798
0.00240858
0.00229988
0.0021823
0.0020564
0.00192286
0.00178159
0.00029918
0.00144493
0.00188453
0.00237539
0.00271436
0.00300051
0.00321358
0.00334431
0.0033955
0.00337998
0.00331612
0.00322419
0.00312191
0.0030219
0.00293051
0.00284808
0.00277057
0.00269196
0.00260632
0.0025092
0.00239818
0.00227277
0.0021342
0.00198431
0.00182646
0.00166471
0.00150448
0.00135471
0.000303578
0.0015055
0.00205085
0.00250125
0.00283226
0.00309445
0.00327317
0.00336423
0.00337506
0.00332305
0.00323064
0.00312003
0.00300886
0.00290679
0.00281508
0.00272863
0.00263923
0.00253877
0.00242147
0.00228482
0.00212978
0.00196081
0.00178523
0.00161298
0.00145702
0.00133361
0.00124785
0.00118685
0.000307044
0.00155595
0.00219657
0.00260571
0.00292496
0.00316104
0.00330545
0.00335933
0.00333487
0.0032538
0.00314166
0.00302121
0.00290715
0.00280396
0.00270707
0.00260682
0.00249313
0.00235885
0.00220189
0.00202603
0.00184113
0.00166255
0.0015105
0.00140888
0.00137124
0.00137869
0.00141507
0.00146627
0.000309665
0.00159628
0.00227676
0.00269055
0.00299535
0.00320476
0.00331647
0.003337
0.00328324
0.00318071
0.00305665
0.00293225
0.00281743
0.00271034
0.00260141
0.00247905
0.00233481
0.00216684
0.00198238
0.00179803
0.00163861
0.00153449
0.0015132
0.0015727
0.00167394
0.00178539
0.00189746
0.00199822
0.00031152
0.00162721
0.0023418
0.00275764
0.00304659
0.00323
0.00331176
0.00330364
0.00322696
0.00311014
0.00298049
0.00285562
0.00273943
0.00262437
0.002498
0.00235039
0.00217926
0.00199445
0.00181883
0.00168636
0.00163483
0.00168809
0.00183056
0.00199751
0.00216586
0.00231909
0.00243142
0.00250577
0.000312682
0.00164954
0.00239311
0.00280907
0.00308178
0.00324084
0.00329619
0.0032646
0.00317136
0.00304669
0.00291626
0.00279253
0.0026732
0.0025466
0.00240075
0.00223151
0.0020489
0.00188006
0.00176618
0.00175116
0.00185624
0.00205289
0.00227763
0.00248976
0.00265323
0.0027736
0.00284008
0.00285909
0.00031322
0.00166415
0.00243213
0.00284696
0.00310391
0.00324096
0.00327391
0.0032242
0.00312047
0.00299353
0.00286575
0.0027436
0.00261918
0.00247916
0.0023158
0.00213568
0.0019665
0.00185416
0.00184923
0.00197667
0.00220542
0.00247862
0.00272153
0.00290877
0.00302255
0.00308518
0.0031031
0.00308192
0.000313204
0.00167193
0.00246036
0.0028734
0.0031157
0.00323353
0.00324832
0.0031858
0.00307721
0.00295265
0.00282988
0.00270908
0.00257814
0.00242497
0.00224981
0.00207506
0.00194763
0.00192527
0.00204466
0.00228369
0.00258757
0.00287179
0.00307707
0.00320383
0.00327038
0.003294
0.00328264
0.00324195
0.000312698
0.00167375
0.00247921
0.00289032
0.00311953
0.00322121
0.00322214
0.00315188
0.00304347
0.00292507
0.00280888
0.00268898
0.00255089
0.00238685
0.00220851
0.00205712
0.00199497
0.00207569
0.00229932
0.0026109
0.00293139
0.00317702
0.00332908
0.00341173
0.00344671
0.00344715
0.0034207
0.00337105
0.000311766
0.00167047
0.00249005
0.00289946
0.00311747
0.00320619
0.00319742
0.00312412
0.0030203
0.00291103
0.00280235
0.00268289
0.00253783
0.00236647
0.00219493
0.00208256
0.00209777
0.00227245
0.00256604
0.00290788
0.00320323
0.00340266
0.00351498
0.00356921
0.00358424
0.00357143
0.0035367
0.00348214
0.000310465
0.00166287
0.00249412
0.00290238
0.00311125
0.00319016
0.00317563
0.00310352
0.00300795
0.00290998
0.0028091
0.0026895
0.0025385
0.00236422
0.00220891
0.00214564
0.0022373
0.00248336
0.00282084
0.00315953
0.00341642
0.00357755
0.00366292
0.00369842
0.00370081
0.00367959
0.00363919
0.00358085
0.000308852
0.0016517
0.00249255
0.00290039
0.00310225
0.0031744
0.00315774
0.00309046
0.00300601
0.00292044
0.00282638
0.00265756
0.00255101
0.00237907
0.00224739
0.00223673
0.00239458
0.00269068
0.00304943
0.00336692
0.00358911
0.00372242
0.003789
0.00381173
0.00380535
0.00377771
0.0037323
0.00367009
0.000306975
0.00163762
0.00248635
0.00289463
0.00309158
0.00315983
0.00314426
0.00308482
0.00301331
0.00293944
0.00261164
0.0024919
0.00254758
0.00240829
0.00230555
0.00234534
0.00255417
0.00288889
0.00325195
0.00354232
0.0037366
0.00384939
0.00390232
0.00391575
0.00390239
0.00386891
0.00381834
0.00375169
0.000304882
0.00162121
0.00247636
0.00288601
0.00308009
0.00314707
0.00313537
0.00308602
0.00302796
0.00275261
0.00245131
0.00237489
0.00244979
0.00244836
0.00237805
0.00246318
0.00271122
0.00306939
0.00342663
0.0036946
0.00386765
0.00396511
0.00400791
0.00401396
0.00399435
0.00395498
0.00389876
0.00382694
0.000302612
0.00160298
0.00246336
0.00287529
0.00306842
0.00313649
0.00313096
0.00309313
0.00304764
0.00258233
0.00234186
0.00229506
0.00237647
0.00249679
0.00245983
0.00258364
0.00286024
0.00323033
0.00357964
0.00383002
0.00398732
0.00407357
0.00410857
0.00410826
0.00408257
0.00403698
0.0039745
0.00389677
0.000300203
0.00158339
0.00244796
0.00286307
0.00305703
0.00312824
0.00313065
0.00310482
0.00290073
0.00246231
0.00226734
0.00224132
0.00232861
0.00250304
0.00254644
0.00270222
0.00299976
0.00337567
0.00371637
0.0039532
0.00409907
0.00417709
0.00420579
0.00419962
0.00416774
0.0041155
0.00404617
0.00396183
0.000297684
0.00156281
0.0024307
0.00284982
0.00304621
0.00312232
0.00313394
0.00311984
0.00276073
0.00237812
0.00221634
0.00220679
0.00230021
0.00247485
0.00263469
0.00281633
0.00313029
0.00350929
0.00384113
0.00406746
0.00420507
0.00427697
0.00430025
0.00428841
0.00425012
0.0041908
0.00411407
0.00402251
0.000295084
0.00154155
0.00241203
0.00283592
0.00303617
0.00311863
0.00314027
0.00313712
0.0026592
0.00231964
0.00218339
0.00218697
0.00228563
0.00246132
0.00272224
0.00292468
0.00325313
0.00363446
0.00395706
0.00417504
0.00430656
0.00437367
0.0043921
0.00437459
0.00432963
0.00426284
0.00417824
0.00407897
0.000292426
0.00151988
0.0023923
0.00282165
0.003027
0.00311694
0.00314896
0.00312023
0.00258667
0.00228046
0.00216503
0.00217884
0.00228155
0.00246023
0.00273877
0.00302744
0.0033697
0.00375301
0.00406606
0.0042772
0.00440407
0.00446722
0.00448107
0.0044578
0.0044059
0.00433131
0.00423851
0.00413114
0.000289729
0.00149801
0.00237182
0.0028072
0.00301871
0.003117
0.00315929
0.0030299
0.00253545
0.00225631
0.00215791
0.00217962
0.00228489
0.00246731
0.00275226
0.00312639
0.00347936
0.00386316
0.00416866
0.00437443
0.00449764
0.00455727
0.00456658
0.00453739
0.00447834
0.00439572
0.00429448
0.00417879
0.000287011
0.00147612
0.00235084
0.00279274
0.00301129
0.00311851
0.00317075
0.00296149
0.0025005
0.00224346
0.00215933
0.00218725
0.00229436
0.00248001
0.00277243
0.00321426
0.00358246
0.00396504
0.00426528
0.00446687
0.00458696
0.00464317
0.00464782
0.00461254
0.00454616
0.00445538
0.00434563
0.00422149
0.000284286
0.00145434
0.00232956
0.00277836
0.00300468
0.00312122
0.00318293
0.00291258
0.00247821
0.00223986
0.00216763
0.00220034
0.00230882
0.00249722
0.00279602
0.00324326
0.00368134
0.00406098
0.00435662
0.00455452
0.00467155
0.00472412
0.00472384
0.00468226
0.00460846
0.0045095
0.00439129
0.00425871
0.000281564
0.00143279
0.00230812
0.00276415
0.00299879
0.00312486
0.00319555
0.00287864
0.00246597
0.00224402
0.00218161
0.00221785
0.00232723
0.00251777
0.00282168
0.00327073
0.00377725
0.00415257
0.00444336
0.00463732
0.00475087
0.00479924
0.00479362
0.00474553
0.00466429
0.00455721
0.00443075
0.0042898
0.000278855
0.00141155
0.00228666
0.00275013
0.00299354
0.00312922
0.0032084
0.00285641
0.00246194
0.00225452
0.0022002
0.00223902
0.002349
0.00254138
0.00284897
0.00329999
0.00387015
0.00424095
0.004526
0.00471516
0.00482435
0.00486768
0.00485619
0.00480137
0.00471275
0.00459761
0.00446324
0.00431546
0.000276165
0.00139068
0.00226527
0.00273634
0.00298882
0.0031341
0.0032213
0.00284371
0.00246475
0.00227016
0.00222257
0.00226329
0.00237362
0.00256759
0.00287807
0.00332861
0.00389718
0.00432724
0.00460489
0.00478788
0.00489146
0.00492868
0.00491069
0.0048489
0.00475306
0.00463152
0.00449033
0.00433531
0.000273498
0.00137023
0.00224404
0.00272277
0.00298455
0.00313934
0.00323415
0.00283887
0.00247328
0.00228999
0.00224807
0.0022902
0.00240064
0.00259601
0.00290844
0.00335753
0.00392229
0.00441116
0.00467997
0.00485523
0.00495173
0.00498168
0.00495653
0.0048887
0.00478714
0.00465907
0.00451065
0.00434804
0.000270862
0.00135018
0.002223
0.00270944
0.00298063
0.0031448
0.00324684
0.00284055
0.00248663
0.00231325
0.00227621
0.00231944
0.00242989
0.00262665
0.00294046
0.00338875
0.00395137
0.00449181
0.00475091
0.00491695
0.00500474
0.00502664
0.00499546
0.00492196
0.00481433
0.00467931
0.00452318
0.00435254
0.00026826
0.00133055
0.0022022
0.00269632
0.00297699
0.00315037
0.00325931
0.00284766
0.00250403
0.00233935
0.00230652
0.00235079
0.00246136
0.00265949
0.00297405
0.00342153
0.00398242
0.00456879
0.00481751
0.00497297
0.00505052
0.00506512
0.00502795
0.0049485
0.0048342
0.00469152
0.00452696
0.00434769
0.000265694
0.00131137
0.00218166
0.00268344
0.00297356
0.003156
0.00327149
0.00285923
0.00252477
0.00236777
0.00233863
0.00238408
0.00249501
0.00269435
0.00300887
0.00345582
0.00401396
0.00459325
0.00487967
0.00502265
0.00509066
0.00509801
0.00505446
0.0049683
0.00484631
0.00469487
0.00452088
0.00433218
0.000263166
0.00129267
0.00216144
0.0026709
0.00297036
0.00316149
0.0032832
0.00287437
0.00254809
0.00239772
0.00237246
0.00241961
0.0025309
0.00273134
0.00304527
0.00349199
0.00404756
0.00461711
0.00493567
0.00506708
0.00512605
0.00512596
0.00507522
0.00498109
0.00484994
0.00468829
0.00450356
0.00430442
0.000260683
0.00127456
0.00214146
0.00265832
0.00296711
0.00316675
0.00329444
0.00289247
0.00257354
0.00242878
0.00240706
0.00245688
0.00256977
0.00277103
0.00308478
0.00353196
0.00408477
0.00464456
0.00498654
0.00510712
0.00515734
0.00514925
0.00509003
0.0049862
0.00484398
0.00467028
0.00447326
0.00426257
0.000258277
0.00125643
0.00212149
0.00264572
0.00296378
0.00317173
0.00330521
0.00291293
0.00260073
0.00246072
0.00244223
0.00249525
0.00261051
0.00281278
0.00312886
0.00357734
0.0041252
0.00467369
0.00503326
0.00514334
0.00518484
0.00516769
0.00509816
0.00498237
0.00482675
0.00463886
0.00442783
0.00420443
0.000255939
0.00123835
0.00210156
0.00263309
0.00296033
0.00317638
0.00331551
0.00293521
0.0026293
0.00249329
0.00247777
0.00253451
0.00265307
0.00285674
0.00317623
0.00362647
0.00416754
0.00470309
0.00507666
0.00517635
0.00520844
0.00518048
0.00509822
0.00496773
0.00479601
0.00459158
0.00436476
0.00412759
0.000253664
0.0012204
0.00208171
0.00262044
0.00295673
0.00318069
0.00332536
0.00295876
0.00265885
0.00252623
0.00251347
0.00257398
0.00269667
0.00290334
0.00322647
0.00367758
0.00421014
0.00473154
0.00511725
0.0052065
0.00522745
0.00518619
0.00508814
0.00493976
0.00474896
0.00452555
0.00428126
0.00402954
0.000251447
0.00120264
0.00206197
0.00260775
0.00295296
0.00318464
0.00333479
0.00298304
0.00268898
0.00255926
0.00254903
0.00261327
0.00274051
0.00295142
0.00327824
0.00372875
0.00425108
0.00475789
0.00515498
0.00523282
0.0052404
0.00518269
0.00506527
0.00489541
0.00468237
0.00443757
0.00417441
0.00390784
0.000249283
0.00118511
0.00204235
0.00259503
0.00294901
0.00318823
0.0033438
0.00300751
0.00271926
0.00259203
0.00258409
0.00265201
0.00278401
0.0029997
0.00332982
0.00377785
0.0042884
0.00478124
0.00518933
0.00525419
0.00524538
0.00516738
0.00502646
0.00483125
0.00459277
0.00432439
0.00404143
0.00376046
0.000247168
0.00116784
0.00202288
0.00258229
0.00294485
0.00319147
0.00335245
0.00303161
0.00274921
0.00262417
0.00261826
0.00268969
0.00282649
0.00304701
0.00337959
0.00382326
0.00432139
0.00480131
0.00520749
0.00526925
0.00524012
0.00513721
0.00496821
0.00474359
0.00447659
0.0041829
0.00388001
0.00358618
0.000245099
0.00115088
0.00200358
0.00256953
0.0029405
0.00319437
0.00336075
0.00305477
0.00277835
0.00265528
0.00265111
0.00272577
0.00286721
0.00309229
0.00342627
0.00386416
0.00435039
0.00481967
0.00521845
0.00527619
0.00522186
0.00508873
0.00488673
0.00462867
0.00433044
0.00401051
0.00368877
0.00338513
0.000243072
0.00113424
0.00198448
0.00255676
0.00293597
0.00319695
0.00336874
0.00307647
0.00280615
0.00268493
0.00268218
0.0027597
0.0029054
0.00313448
0.0034687
0.00389993
0.00437592
0.00483844
0.00523481
0.00527164
0.00518638
0.00501788
0.00477811
0.00448285
0.00415143
0.00380557
0.00346779
0.00315931
0.000241085
0.00111795
0.0019656
0.002544
0.00293126
0.00319924
0.00337647
0.00309616
0.00283209
0.00271265
0.002711
0.00279092
0.00294033
0.00317257
0.00350582
0.00392994
0.00439867
0.00485986
0.00525024
0.0052525
0.00513032
0.00492062
0.00463832
0.00430285
0.00393747
0.00356785
0.00321921
0.00291304
0.000239135
0.00110203
0.00194698
0.00253128
0.0029264
0.00320128
0.00338398
0.00311339
0.0028557
0.00273803
0.00273714
0.00281891
0.00297134
0.00320579
0.00353715
0.00395511
0.00442049
0.00488154
0.00520364
0.00521624
0.00505096
0.00479381
0.00446398
0.00408591
0.00368776
0.00329916
0.00294775
0.00265451
0.00023722
0.00108651
0.00192864
0.00251861
0.00292143
0.00320311
0.00339131
0.00312777
0.00287654
0.0027607
0.00276025
0.00284331
0.00299803
0.00323387
0.00356314
0.00397722
0.00444128
0.00490034
0.00515434
0.00516028
0.00494524
0.00463448
0.00425266
0.00383077
0.00340325
0.00300391
0.00266097
0.00239281
0.00023534
0.00107141
0.00191063
0.00250604
0.00291638
0.00320479
0.00339852
0.00313902
0.00289432
0.00278038
0.00278012
0.00286396
0.00302036
0.00325722
0.00358538
0.00399938
0.00446361
0.00487613
0.00509618
0.00508165
0.00480966
0.00443916
0.00400213
0.00353779
0.00308772
0.0026895
0.00237033
0.00213638
0.000233492
0.00105676
0.00189298
0.00249361
0.00291129
0.00320636
0.00340565
0.00314704
0.00290893
0.00279698
0.00279672
0.00288095
0.00303865
0.00327673
0.00360587
0.00402288
0.00449021
0.00483786
0.00501829
0.00497697
0.00464021
0.00420425
0.0037107
0.00320901
0.00274791
0.00236684
0.00208395
0.00189189
0.000231675
0.00104257
0.00187574
0.00248137
0.00290623
0.00320788
0.00341273
0.00315197
0.00292044
0.00281057
0.00281023
0.00289465
0.00305356
0.00329356
0.00362634
0.00404795
0.00450709
0.00478987
0.00490948
0.00484244
0.00443248
0.00392648
0.00337825
0.00284923
0.00239378
0.00204813
0.00181258
0.00166188
0.000229889
0.00102888
0.00185897
0.00246938
0.00290123
0.00320936
0.0034076
0.00315414
0.00292913