/*--------------------------------*- C++ -*----------------------------------*\
| =========                 |                                                 |
| \\      /  F ield         | OpenFOAM: The Open Source CFD Toolbox           |
|  \\    /   O peration     | Version:  2012                                  |
|   \\  /    A nd           | Website:  www.openfoam.com                      |
|    \\/     M anipulation  |                                                 |
\*---------------------------------------------------------------------------*/
FoamFile
{
    version     2.0;
    format      ascii;
    class       volScalarField;
    location    "672";
    object      omega;
}
// * * * * * * * * * * * * * * * * * * * * * * * * * * * * * * * * * * * * * //

dimensions      [0 0 -1 0 0 0 0];


internalField   nonuniform List<scalar> 
6084
(
98.3092
102.222
106.49
111.168
116.32
122.03
128.4
135.565
143.698
153.031
163.878
176.683
192.081
211.023
234.987
266.375
309.317
371.371
467.417
629.344
43.6707
45.5596
47.6335
49.9198
52.4534
55.2775
58.4465
62.0288
66.1123
70.8108
76.274
82.7013
90.3622
99.6251
110.998
125.176
143.085
165.811
194.028
225.36
34.0409
35.5933
37.3017
39.1891
41.2847
43.6246
46.2538
49.2285
52.6201
56.5199
61.0468
66.3572
72.6604
80.2407
89.4926
100.975
115.506
134.332
159.506
194.9
30.8651
32.3133
33.9088
35.6733
37.6343
39.8261
42.2911
45.0825
48.2677
51.9337
56.194
61.1994
67.1547
74.3438
83.1717
94.236
108.454
127.308
153.348
191.306
29.7494
31.1632
32.7217
34.4461
36.3636
38.508
40.9212
43.656
46.7795
50.3786
54.5677
59.5003
65.3866
72.5228
81.3384
92.4782
106.949
126.392
153.582
193.355
29.7489
31.163
32.7216
34.446
36.3635
38.508
40.9212
43.656
46.7795
50.3786
54.5677
59.5003
65.3866
72.5228
81.3384
92.4782
106.949
126.392
153.582
193.355
30.8644
32.313
33.9086
35.673
37.6341
39.826
42.291
45.0824
48.2676
51.9336
56.1939
61.1994
67.1547
74.3437
83.1717
94.236
108.454
127.308
153.348
191.306
34.0427
35.5943
37.3019
39.1888
41.2843
43.6243
46.2536
49.2284
52.62
56.5198
61.0468
66.3572
72.6603
80.2407
89.4926
100.975
115.506
134.332
159.506
194.9
43.6971
45.5678
47.6364
49.92
52.453
55.277
58.4461
62.0285
66.1121
70.8107
76.2739
82.7013
90.3622
99.625
110.998
125.176
143.085
165.811
194.028
225.36
98.3016
102.22
106.491
111.169
116.321
122.03
128.401
135.566
143.699
153.031
163.878
176.683
192.081
211.023
234.987
266.375
309.317
371.371
467.417
629.344
68.4407
70.237
72.1138
74.0825
76.1551
78.3442
80.6635
83.1282
85.7551
88.5632
91.5741
94.8127
30.0415
30.7651
31.5487
32.3952
33.3075
34.2895
35.3458
36.4821
37.7055
39.0246
40.4496
41.9929
22.8759
23.4777
24.1249
24.8206
25.5678
26.3701
27.2321
28.1589
29.1572
30.2344
31.3996
32.6635
20.4414
21.0123
21.6225
22.2753
22.9739
23.7224
24.5252
25.3878
26.3165
27.3189
28.4035
29.5807
19.5337
20.1028
20.7077
21.352
22.0392
22.7734
23.5592
24.4024
25.3095
26.2881
27.3466
28.4955
19.4171
20.0075
20.6318
21.2933
21.9953
22.7414
23.5364
24.3863
25.2988
26.2818
27.3436
28.4943
19.9422
20.59
21.2738
21.9965
22.7596
23.5641
24.4102
25.3008
26.2571
27.2842
28.3867
29.5749
21.1379
21.8889
22.6919
23.5552
24.485
25.4846
26.556
27.6991
28.857
30.0452
31.302
32.6304
23.3542
24.2892
25.3027
26.4306
27.7185
29.232
31.0227
33.0858
35.3147
37.4977
39.5441
41.6049
27.7612
29.4867
31.3978
33.5237
35.8977
38.8566
42.616
47.4014
53.4766
61.122
70.7661
83.0731
13.9379
13.0986
13.4173
15.5866
21.3492
25.544
28.9994
31.9091
34.3871
36.6176
38.6744
40.6028
42.4325
44.1847
45.8751
47.5166
49.1197
50.6936
52.2469
53.7877
55.3237
56.863
58.4136
59.9837
61.5819
63.2171
64.8987
66.6366
14.6664
9.80993
12.8775
18.0983
21.7166
23.515
24.3662
24.811
25.0279
25.1244
25.1705
25.1922
25.2059
25.2231
25.2535
25.3053
25.3856
25.5009
25.6562
25.856
26.1038
26.4022
26.753
27.1579
27.6183
28.1355
28.711
29.346
18.1741
11.9105
15.2518
18.5306
20.2709
20.8811
20.9555
20.7946
20.5091
20.186
19.8773
19.6029
19.3738
19.196
19.0728
19.0059
18.9959
19.0424
19.1442
19.2999
19.5076
19.7655
20.0717
20.425
20.8242
21.2688
21.7587
22.2943
22.1916
13.848
16.0176
17.8014
18.6026
18.7484
18.5755
18.2444
17.849
17.462
17.1194
16.8354
16.6161
16.463
16.3754
16.3512
16.3873
16.4804
16.6267
16.8227
17.0651
17.3509
17.6777
18.0437
18.4477
18.8891
19.3682
19.8855
25.9583
15.0008
16.067
16.8693
17.1777
17.1293
16.8814
16.5274
16.1467
15.7971
15.5043
15.278
15.121
15.0323
15.009
15.0475
15.1434
15.2924
15.49
15.7323
16.0155
16.3367
16.6935
17.0841
17.5076
17.9638
18.453
18.9761
28.572
15.6231
15.8314
16.0657
16.0584
15.9159
15.6555
15.3315
15.0065
14.7236
14.5017
14.3477
14.2622
14.2431
14.2871
14.3901
14.5475
14.7547
15.0073
15.3009
15.632
15.9974
16.3948
16.8227
17.2804
17.7678
18.2857
18.8353
30.5052
15.9116
15.4961
15.3951
15.2177
15.0029
14.7516
14.4755
14.2173
14.0076
13.8602
13.7797
13.7663
13.818
13.9317
14.1038
14.3299
14.6056
14.9261
15.2868
15.6837
16.1132
16.5728
17.0609
17.577
18.1215
18.696
19.3024
32.0961
15.9814
15.1418
14.8408
14.5757
14.3182
14.0735
13.8474
13.6553
13.5168
13.4415
13.4332
13.4923
13.6182
13.809
14.0623
14.3746
14.7413
15.1573
15.6169
16.1144
16.6449
17.2043
17.7899
18.4007
19.0375
19.7028
20.4011
33.4061
15.9389
14.8053
14.3828
14.0725
13.7985
13.5599
13.3745
13.242
13.1679
13.1592
13.2194
13.3508
13.5548
13.8323
14.1828
14.6041
15.0921
15.6414
16.2453
16.8972
17.5907
18.3206
19.0829
19.8751
20.6961
21.547
22.4312
34.4841
15.8531
14.4992
14.0006
13.6671
13.3913
13.1672
13.0084
12.9242
12.905
12.9542
13.0764
13.2765
13.5593
13.9288
14.3871
14.9336
15.5652
16.277
17.0635
17.9206
18.8461
19.8407
20.9091
22.0592
23.3027
24.655
26.1348
29.6282
31.4369
33.3684
35.4011
37.4775
39.5976
41.6871
43.6006
44.9588
44.5251
39.7346
33.1638
25.1741
25.5329
25.7138
25.682
25.4161
24.7382
23.307
21.4734
19.1707
16.5627
13.2103
12.4453
17.1757
16.4013
15.457
14.3274
13.1317
11.8498
10.3951
9.0199
7.78207
6.74151
6.71625
10.6508
9.68484
8.76319
7.90524
7.12915
6.47167
5.89132
5.39363
5.0429
5.12229
5.52084
6.62214
10.8731
5.44998
5.00209
4.6367
4.32762
4.13465
4.08979
4.1378
4.30673
4.70952
5.42371
6.8531
11.3807
3.69253
3.55268
3.47931
3.44879
3.484
3.60456
3.80231
4.10878
4.59555
5.41325
7.03272
11.9286
3.042
3.04181
3.08245
3.1569
3.27037
3.43351
3.66309
3.99683
4.51224
5.38757
7.15277
12.4871
2.80433
2.8599
2.93753
3.03757
3.16619
3.33557
3.56774
3.90452
4.43064
5.3431
7.22875
13.0451
2.70933
2.78224
2.86873
2.97201
3.09944
3.26442
3.49076
3.82278
4.35057
5.28634
7.27308
13.598
2.66761
2.74439
2.83067
2.93072
3.05249
3.2099
3.42754
3.7512
4.27485
5.22349
7.29499
14.1449
2.65037
2.72658
2.80995
2.90509
3.02014
3.16916
3.37704
3.69038
4.20591
5.15939
7.30133
14.686
2.64752
2.72191
2.80182
2.8919
3.00025
3.14089
3.33872
3.64072
4.14551
5.09773
7.29737
15.2224
2.65496
2.72745
2.80408
2.88944
2.9915
3.12413
3.31206
3.60236
4.09484
5.04123
7.2873
15.7559
2.67076
2.74164
2.81543
2.89658
2.99291
3.11807
3.29655
3.57525
4.05465
4.992
7.27465
16.2885
2.69384
2.76351
2.83494
2.91244
3.00366
3.12201
3.29167
3.55924
4.02544
4.95173
7.26264
16.8226
2.72353
2.79243
2.86197
2.93637
3.02311
3.13536
3.29697
3.55413
4.00754
4.92181
7.25444
17.3611
2.75947
2.82796
2.89604
2.96783
3.05071
3.15762
3.31205
3.55972
4.00116
4.90354
7.25351
17.9078
2.80147
2.86986
2.93683
3.00647
3.08608
3.18841
3.33658
3.57584
4.00652
4.89815
7.26384
18.4673
2.84955
2.91803
2.98415
3.05202
3.12892
3.22741
3.37033
3.60238
4.02379
4.90688
7.28997
19.0462
2.90383
2.97251
3.03793
3.10433
3.17902
3.27442
3.4131
3.63926
4.05319
4.9311
7.3388
19.6533
2.9646
3.03342
3.0982
3.16333
3.23627
3.32928
3.46481
3.68651
4.09498
4.97224
7.41849
20.3018
3.03218
3.10098
3.16505
3.22902
3.30062
3.3919
3.5254
3.74421
4.14951
5.02678
7.51718
20.98
3.10697
3.17544
3.23862
3.30144
3.37208
3.46224
3.59371
3.80959
4.21135
5.08889
7.62071
21.6628
3.18936
3.25705
3.31906
3.38053
3.44979
3.53897
3.66913
3.8827
4.28114
5.15838
7.7281
22.3498
3.27968
3.34565
3.4058
3.46583
3.53401
3.62244
3.75176
3.96356
4.35904
5.23543
7.83955
23.0382
3.37734
3.44131
3.49943
3.55779
3.62485
3.71267
3.84157
4.05209
4.44511
5.32021
7.95507
23.7263
3.48325
3.54462
3.60018
3.6565
3.7223
3.80955
3.93791
4.14805
4.53926
5.41277
8.07446
24.4104
3.59775
3.65571
3.70804
3.76186
3.82614
3.91255
4.04104
4.25126
4.64136
5.51311
8.19741
25.0848
3.72079
3.77439
3.82271
3.87352
3.9361
4.02158
4.15037
4.36127
4.7511
5.62108
8.32336
25.7406
3.85191
3.90014
3.94362
3.99087
4.05091
4.13581
4.26525
4.47751
4.86808
5.73635
8.45146
26.3658
3.99032
4.03211
4.06987
4.11327
4.17004
4.25439
4.38478
4.59916
4.99165
5.85834
8.58059
26.9441
4.13481
4.16909
4.20016
4.23832
4.29238
4.37613
4.50761
4.72482
5.12087
5.98647
8.71007
27.4567
4.28375
4.30944
4.33297
4.364
4.41621
4.49916
4.63168
4.85246
5.25485
6.12069
8.8415
27.887
4.43511
4.45109
4.46647
4.4917
4.54001
4.62107
4.75471
4.98279
5.39324
6.25421
8.97859
28.2235
4.58663
4.59178
4.59822
4.61779
4.661
4.7396
4.8772
5.11628
5.53288
6.38526
9.10354
28.4638
4.73593
4.7292
4.7257
4.73867
4.77672
4.85352
4.99729
5.24624
5.6659
6.50483
9.20028
28.5994
4.88067
4.86108
4.84834
4.85312
4.88516
4.96123
5.11068
5.36573
5.78353
6.6045
9.26674
28.7073
5.01892
4.98536
4.96255
4.95901
4.98461
5.05952
5.21139
5.46676
5.87562
6.67463
9.30107
28.7366
5.14927
5.1029
5.06863
5.05548
5.07366
5.14455
5.29316
5.54093
5.93244
6.70373
9.28646
28.63
5.2712
5.21154
5.16574
5.14143
5.14976
5.21149
5.34863
5.57946
5.94529
6.6821
9.23088
28.391
5.3869
5.31362
5.25434
5.21507
5.20799
5.25238
5.36792
5.57226
5.90125
6.61425
9.14026
27.9963
5.49681
5.40961
5.33256
5.27132
5.23946
5.25484
5.3379
5.50748
5.80249
6.50635
9.01995
27.4684
5.60593
5.49849
5.3935
5.29817
5.22679
5.19904
5.24165
5.36728
5.65023
6.36674
8.8765
26.846
5.70887
5.56968
5.41953
5.27025
5.13983
5.05939
5.06494
5.16854
5.46076
6.20719
8.72501
26.1467
5.79462
5.59996
5.3776
5.14629
4.94411
4.81985
4.79829
4.92657
5.25541
6.04191
8.57856
25.3811
5.83493
5.54678
5.2142
4.88762
4.63401
4.50596
4.50942
4.68196
5.05735
5.88888
8.44193
24.5618
5.77832
5.3451
4.89198
4.50702
4.25159
4.16055
4.22397
4.45408
4.87939
5.75581
8.31961
23.6998
5.5472
4.96578
4.45428
4.069
3.85028
3.81018
3.95876
4.25344
4.72927
5.64833
8.21433
22.8028
5.11793
4.47507
3.97396
3.63169
3.48383
3.52427
3.74308
4.09261
4.61394
5.57198
8.13182
21.8742
4.57609
3.95937
3.5214
3.26565
3.20179
3.31953
3.59093
3.98224
4.54589
5.54786
8.13666
20.9537
4.04289
3.52078
3.18882
3.02944
3.03821
3.2152
3.51777
3.93638
4.53852
5.60061
8.25834
20.0786
3.65121
3.26478
3.02975
2.94595
3.00205
3.20116
3.51685
3.95739
4.60221
5.73821
8.47401
19.2162
3.48281
3.20566
3.04059
2.99194
3.06961
3.27415
3.59729
4.06027
4.75393
5.97359
8.76918
18.3417
3.52847
3.30195
3.17007
3.1427
3.234
3.44332
3.77676
4.26733
5.01677
6.32213
9.13081
17.4335
3.70599
3.51195
3.40791
3.40239
3.50976
3.73027
4.0817
4.60731
5.4169
6.79562
9.53911
16.4693
4.00069
3.83815
3.76721
3.79135
3.92305
4.16473
4.54347
5.10974
5.97438
7.38974
9.95615
15.4192
4.43596
4.30409
4.27184
4.33445
4.50018
4.77284
5.18469
5.7874
6.68062
8.05899
10.3041
14.236
5.08686
4.97483
4.97115
5.06674
5.26903
5.5718
6.00636
6.61856
7.48418
8.71758
10.4725
12.8096
6.32614
6.27665
6.26925
6.33718
6.53483
6.81859
7.20824
7.73559
8.43659
9.3154
10.2881
10.9572
12.6335
13.033
13.4991
14.0098
14.563
15.0456
15.4289
15.6519
15.5974
15.0408
13.5194
8.52268
35.4328
15.747
14.2086
13.6598
13.3151
13.0462
12.8406
12.7083
12.6552
12.6801
12.7782
12.9548
13.2178
13.5752
14.0329
14.5928
15.2525
16.0052
16.8423
17.7554
18.7384
19.7892
20.9098
22.1064
23.3886
24.7683
26.2595
27.8777
36.2315
15.6403
13.9464
13.3651
13.0164
12.7573
12.5684
12.4558
12.4241
12.4741
12.6053
12.8206
13.1292
13.5391
14.0533
14.667
15.3679
16.1386
16.9602
17.8158
18.6924
19.5808
20.474
21.3679
22.2531
23.1141
23.9249
24.6445
36.9065
15.5353
13.7051
13.1022
12.7538
12.5039
12.3273
12.2262
12.2052
12.266
12.4113
12.6454
12.9744
13.401
13.918
14.5072
15.1415
15.7911
16.4282
17.0298
17.5781
18.0577
18.4485
18.7274
18.8492
18.7439
18.3648
17.8105
37.4491
15.4226
13.4768
12.8601
12.5135
12.2702
12.0998
12.0013
11.9799
12.0391
12.1819
12.4129
12.7322
13.1308
13.5857
14.0622
14.5205
14.9233
15.239
15.4449
15.5184
15.431
15.1437
14.5983
13.7294
12.7078
11.6903
10.6656
37.8766
15.3061
13.2575
12.6307
12.2857
12.045
11.8742
11.7701
11.7388
11.7853
11.9123
12.1194
12.3975
12.7211
13.0498
13.3352
13.5307
13.5988
13.5106
13.2394
12.7523
12.0152
11.0096
9.76196
8.58122
7.55371
6.69607
5.99278
38.2
15.188
13.0444
12.4085
12.0637
11.8214
11.6444
11.5278
11.4797
11.5057
11.6059
11.7716
11.9786
12.1848
12.3348
12.3731
12.2546
11.9474
11.4235
10.6561
9.64169
8.42592
7.1399
6.05788
5.25625
4.68421
4.25983
3.94368
38.4288
15.0687
12.8362
12.1904
11.8436
11.5961
11.4083
11.2752
11.2064
11.2075
11.273
11.3821
11.4938
11.5497
11.4872
11.252
10.809
10.1323
9.21089
8.07285
6.81922
5.63056
4.69193
4.0834
3.67226
3.38901
3.21477
3.10747
38.5721
14.9486
12.6318
11.9747
11.6239
11.3685
11.1673
11.0163
10.9265
10.9014
10.9268
10.9675
10.9657
10.8524
10.5647
10.0608
9.31844
8.33686
7.16608
5.9336
4.82795
3.99865
3.46371
3.12811
2.93648
2.82539
2.77887
2.7755
38.6385
14.828
12.4312
11.761
11.4047
11.1398
10.9248
10.7572
10.6487
10.5984
10.5809
10.545
10.4193
10.1312
9.62684
8.88399
7.90402
6.74282
5.53389
4.46435
3.67136
3.14425
2.83965
2.67317
2.60432
2.5872
2.60542
2.64859
38.6365
14.7074
12.2343
11.5499
11.1869
10.9127
10.6854
10.5047
10.3817
10.3086
10.247
10.1299
9.8775
9.42098
8.72526
7.79118
6.66374
5.46763
4.38758
3.5713
3.01758
2.69024
2.52974
2.46742
2.46147
2.48792
2.53549
2.59688
38.5741
14.5873
12.0418
11.3422
10.9723
10.69
10.4537
10.265
10.1327
10.04
9.93404
9.73481
9.35914
8.74975
7.89758
6.83169
5.65099
4.53151
3.64399
3.03197
2.65309
2.45909
2.3842
2.37427
2.40074
2.44854
2.50898
2.57719
38.4591
14.4683
11.8542
11.1389
10.7628
10.4746
10.2337
10.0429
9.90682
9.79772
9.64835
9.36859
8.87798
8.13831
7.16807
6.02941
4.87107
3.88251
3.17345
2.71339
2.45729
2.3437
2.31592
2.33434
2.3786
2.43719
2.50356
2.57432
38.2986
14.351
11.6723
10.9413
10.56
10.2691
10.0287
9.8418
9.70702
9.58441
9.39299
9.03669
8.44247
7.59753
6.54616
5.3852
4.29581
3.44659
2.87151
2.52475
2.35103
2.28642
2.28635
2.32168
2.37627
2.44091
2.51047
2.58234
38.0996
14.2357
11.4967
10.7503
10.3655
10.0753
9.84064
9.66342
9.53436
9.40067
9.17007
8.74167
8.05472
7.1296
6.03055
4.88419
3.88327
3.15316
2.6789
2.41452
2.29408
2.26025
2.27799
2.3242
2.38546
2.45414
2.52594
2.59863
37.8681
14.1229
11.3279
10.5668
10.1803
9.89462
9.67064
9.50818
9.38858
9.24703
8.98077
8.48162
7.71348
6.73232
5.61294
4.50434
3.59459
2.95135
2.55464
2.35004
2.2653
2.25227
2.28234
2.33619
2.4024
2.47436
2.54821
2.62187
37.6099
14.0128
11.1662
10.3913
10.0052
9.72752
9.51886
9.37544
9.26861
9.12216
8.82095
8.2557
7.4191
6.39853
5.28054
4.22079
3.39059
2.81772
2.47911
2.3147
2.25443
2.25612
2.29516
2.3549
2.42531
2.50036
2.57641
2.65136
37.3299
13.9054
11.0119
10.2243
9.84046
9.57413
9.38473
9.26373
9.17211
9.02302
8.68758
8.06195
7.168
6.1219
5.01955
4.0126
3.2495
2.7328
2.43588
2.29921
2.2561
2.26844
2.3144
2.37911
2.45343
2.53165
2.61016
2.68672
37.0327
13.8009
10.8648
10.0657
9.68616
9.4341
9.26709
9.1711
9.09673
8.94598
8.57776
7.89777
6.95723
5.89541
4.81557
3.86228
3.15407
2.68106
2.41501
2.29805
2.26724
2.28756
2.33916
2.40836
2.48655
2.56814
2.64938
2.72786
36.722
13.6991
10.7251
9.91569
9.54207
9.30674
9.16443
9.09505
9.03968
8.88778
8.48874
7.76031
6.78306
5.71156
4.65715
3.75618
3.09171
2.65251
2.41037
2.30791
2.28618
2.31276
2.36923
2.44272
2.52487
2.61002
2.69424
2.77488
36.4012
13.5999
10.5923
9.77393
9.40776
9.19108
9.07496
9.03298
8.99802
8.84542
8.4177
7.64658
6.64069
5.56439
4.53683
3.68411
3.0536
2.64074
2.41819
2.32687
2.31214
2.34392
2.40485
2.48258
2.56882
2.65773
2.7451
2.82802
36.0733
13.5032
10.4663
9.64013
9.28265
9.08597
8.99683
8.98258
8.9689
8.81605
8.36188
7.55373
6.5262
5.45053
4.44777
3.63718
3.03389
2.64216
2.43639
2.35404
2.34501
2.38137
2.44661
2.52864
2.6191
2.7119
2.80249
2.8877
35.7407
13.4086
10.3467
9.51388
9.16607
8.99018
8.9282
8.94198
8.94984
8.79707
8.31882
7.47917
6.43614
5.36477
4.38436
3.6088
3.03058
2.65677
2.46423
2.38921
2.3851
2.42579
2.49534
2.58181
2.67661
2.77333
2.86707
2.95442
35.4054
13.3161
10.2331
9.39473
9.05732
8.90255
8.86741
8.90931
8.93865
8.78624
8.28594
7.42025
6.36804
5.30291
4.34301
3.59541
3.04115
2.6836
2.50138
2.43258
2.43302
2.47808
2.55214
2.6432
2.7424
2.84295
2.9396
3.02874
35.0692
13.2254
10.1251
9.2822
8.95566
8.82195
8.81296
8.88279
8.93342
8.78164
8.26179
7.37547
6.31871
5.26176
4.32174
3.59545
3.0622
2.7206
2.54755
2.48457
2.48963
2.53938
2.61823
2.71406
2.81764
2.92178
3.02086
3.11126
34.7334
13.1362
10.0223
9.17579
8.86038
8.74735
8.76359
8.86088
8.93247
8.78159
8.24516
7.34328
6.28545
5.23855
4.31781
3.60769
3.09263
2.76681
2.60276
2.54581
2.55593
2.61097
2.69503
2.79576
2.90353
3.01083
3.11163
3.20252
34.3992
13.0485
9.92429
9.07503
8.77079
8.67778
8.71818
8.84229
8.93439
8.78474
8.23503
7.32227
6.26608
5.23104
4.32931
3.63119
3.13167
2.82179
2.6673
2.61712
2.63311
2.69425
2.784
2.88971
3.00127
3.11108
3.21252
3.30211
34.0674
12.9619
9.83065
8.97943
8.68626
8.61243
8.67581
8.82592
8.93794
8.79003
8.23055
7.31118
6.25877
5.23737
4.3549
3.6658
3.17903
2.88537
2.74174
2.69952
2.72252
2.79073
2.88663
2.99724
3.11187
3.22205
3.3226
3.41044
33.7384
12.8764
9.74105
8.88855
8.60619
8.5506
8.63569
8.81082
8.94213
8.79663
8.23104
7.30898
6.26202
5.25595
4.39303
3.71126
3.23562
2.95862
2.82704
2.79425
2.82569
2.90192
3.00432
3.1183
3.23401
3.3439
3.44291
3.5282
33.4132
12.7918
9.65518
8.80198
8.53009
8.49167
8.59716
8.79621
8.9461
8.80389
8.23589
7.31483
6.27465
5.28521
4.43974
3.76829
3.30442
3.04294
2.92442
2.90271
2.94445
3.02888
3.13588
3.25235
3.36854
3.4773
3.57381
3.6555
33.0922
12.7083
9.57266
8.71936
8.45748
8.43515
8.5597
8.78143
8.94918
8.81127
8.24404
7.32769
6.29641
5.32423
4.49382
3.83561
3.38576
3.13929
3.03508
3.02626
3.07974
3.17063
3.28167
3.39983
3.51563
3.62224
3.71512
3.79202
32.7757
12.6257
9.49324
8.64039
8.388
8.38071
8.52307
8.76588
8.9504
8.81831
8.25477
7.34695
6.32707
5.3727
4.55538
3.91191
3.47918
3.24856
3.16028
3.1651
3.22945
3.32699
3.44153
3.56054
3.67492
3.7782
3.86618
3.93701
32.4639
12.5439
9.41665
8.56467
8.32151
8.32828
8.48701
8.74905
8.94874
8.82319
8.26812
7.37348
6.36667
5.43074
4.62458
3.99666
3.58437
3.37281
3.30142
3.31948
3.39408
3.49773
3.61494
3.73376
3.84553
3.94418
4.0259
4.0893
32.1576
12.4626
9.34332
8.49264
8.25789
8.27753
8.45124
8.73061
8.94398
8.82574
8.28153
7.40571
6.41659
5.49809
4.70214
4.09102
3.70473
3.51352
3.45869
3.4897
3.57357
3.68227
3.80101
3.91839
4.02622
4.11881
4.1928
4.24731
31.8607
12.3867
9.2737
8.42399
8.19688
8.22823
8.41552
8.71032
8.93603
8.82598
8.29501
7.4421
6.47385
5.56968
4.79077
4.20264
3.84135
3.67051
3.63208
3.67633
3.76744
3.87967
3.99854
4.11305
4.21543
4.3004
4.36504
4.40911
31.5723
12.3156
9.20752
8.35847
8.13823
8.18016
8.37968
8.68806
8.92488
8.82398
8.30858
7.48266
6.53912
5.64742
4.88912
4.32951
3.99378
3.84338
3.82094
3.8782
3.97446
4.08862
4.20608
4.31617
4.41145
4.48706
4.54057
4.57249
31.2918
12.2486
9.14455
8.29586
8.08173
8.13317
8.3436
8.66376
8.9106
8.81984
8.32208
7.52433
6.60866
5.7354
5.00076
4.4711
4.16156
4.03156
4.02423
4.09195
4.19287
4.30761
4.42211
4.5261
4.61249
4.6768
4.71721
4.73511
31.0183
12.1848
9.08455
8.23595
8.0272
8.08711
8.30722
8.63744
8.89334
8.8137
8.33544
7.5668
6.6811
5.83256
5.12582
4.62704
4.3442
4.23454
4.24164
4.31761
4.42155
4.53525
4.64515
4.74127
4.81678
4.86764
4.89277
4.89467
30.7513
12.124
9.02732
8.17857
7.97452
8.04192
8.27048
8.60918
8.87331
8.80575
8.34866
7.61026
6.7567
5.93799
5.26318
4.79675
4.5411
4.45172
4.47368
4.55441
4.65925
4.77023
4.87383
4.96017
5.02262
5.05766
5.06516
5.04902
30.4904
12.0656
8.97265
8.12355
7.92354
7.99751
8.2334
8.57912
8.85078
8.79623
8.36186
7.65497
6.83582
6.05126
5.41203
4.97955
4.75144
4.68168
4.71704
4.80041
4.90449
5.0113
5.10696
5.18146
5.22842
5.24506
5.23251
5.19652
30.2351
12.0094
8.92035
8.07076
7.87418
7.95387
8.19602
8.54745
8.82609
8.78542
8.37523
7.70123
6.91878
6.17218
5.57172
5.17473
4.97425
4.92292
4.9683
5.05348
5.15589
5.25751
5.34356
5.40394
5.43269
5.42817
5.39335
5.3362
29.9851
11.9549
8.87023
8.02005
7.82636
7.91097
8.15841
8.51442
8.79962
8.77367
8.38906
7.74942
7.00598
6.30069
5.74181
5.38158
5.20867
5.17494
5.22745
5.31385
5.41412
5.50874
5.58297
5.62652
5.63397
5.60554
5.54676
5.46797
29.7399
11.9018
8.82211
7.9713
7.78001
7.86882
8.12066
8.48029
8.77179
8.76139
8.40368
7.79996
7.09784
6.43687
5.92193
5.59932
5.45369
5.43831
5.49331
5.58134
5.6789
5.7652
5.82493
5.84805
5.83078
5.77604
5.69275
5.59298
29.4994
11.8497
8.7758
7.9244
7.73507
7.82745
8.08289
8.44539
8.74309
8.74903
8.41952
7.85334
7.19482
6.58087
6.11172
5.82685
5.70689
5.70681
5.765
5.85447
5.94864
6.02573
6.06867
6.06751
6.02169
5.93922
5.83244
5.71609
29.2632
11.7985
8.73111
7.87921
7.69151
7.78687
8.04525
8.41004
8.714
8.73708
8.43704
7.91007
7.2974
6.73281
6.31066
6.06283
5.96612
5.9771
6.04114
6.13168
6.22201
6.28842
6.31176
6.28274
6.20573
6.09565
5.96884
5.83924
29.0313
11.7476
8.68782
7.83563
7.64927
7.74714
8.00789
8.3746
8.68503
8.72606
8.45675
7.97068
7.40602
6.89271
6.518
6.30573
6.23004
6.25037
6.31996
6.4117
6.49804
6.55176
6.55131
6.49049
6.38186
6.24811
6.10824
5.95867
28.8033
11.6967
8.64575
7.79353
7.60831
7.70829
7.97097
8.33943
8.65668
8.71651
8.47917
8.03569
7.52102
7.06038
6.73261
6.55368
6.49727
6.52585
6.6001
6.69363
6.77605
6.81426
6.78464
6.68843
6.55048
6.40083
6.24555
6.06372
28.5792
11.6455
8.60467
7.75279
7.56858
7.67036
7.93463
8.30486
8.62945
8.70894
8.5048
8.10555
7.64262
7.23528
6.9527
6.80399
6.76613
6.80022
6.87968
6.97673
7.05554
7.07427
7.00925
6.8761
6.71493
6.55651
6.37796
6.12557
28.3589
11.5936
8.56436
7.71327
7.53003
7.63334
7.89905
8.27127
8.60378
8.70386
8.5341
8.18061
7.77072
7.41616
7.17538
7.05197
7.02714
7.06884
7.15667
7.2609
7.33606
7.32977
7.22325
7.0549
6.8854
6.71688
6.4754
6.08198
28.1423
11.5408
8.5246
7.67485
7.49259
7.59726
7.86438
8.23895
8.5801
8.70168
8.56746
8.26101
7.90469
7.6009
7.39682
7.29295
7.27875
7.32888
7.42944
7.54601
7.61645
7.5784
7.4257
7.23633
7.06826
6.86013
6.47139
5.8396
27.9294
11.4866
8.48517
7.63737
7.45619
7.56212
7.83074
8.20814
8.55874
8.70278
8.6051
8.3466
8.04336
7.78646
7.61246
7.52208
7.51655
7.57707
7.69593
7.83055
7.89455
7.81794
7.61994
7.42457
7.2559
6.92581
6.25908
5.37383
27.7201
11.4307
8.44582
7.6007
7.42074
7.52791
7.79824
8.17906
8.53998
8.70737
8.64708
8.43685
8.18473
7.96882
7.81752
7.7371
7.73684
7.80981
7.95322
8.1119
8.16692
8.04763
7.81584
7.63693
7.4129
6.80931
5.7967
4.79823
27.5146
11.3728
8.40635
7.56467
7.38616
7.49463
7.76691
8.15182
8.52397
8.71556
8.6932
8.53063
8.3258
8.14284
8.00573
7.93141
7.93428
8.02221
8.1967
8.3862
8.43061
8.27256
8.02288
7.86782
7.46796
6.43818
5.20329
4.26644
27.3129
11.3128
8.36655
7.52914
7.35235
7.46223
7.7368
8.1265
8.51078
8.72728
8.74294
8.62618
8.46253
8.30249
8.17044
8.09775
8.10265
8.20775
8.4194
8.6478
8.68306
8.50354
8.25381
8.09259
7.34223
5.90025
4.66291
3.93319
27.1149
11.2503
8.32623
7.49395
7.31918
7.43066
7.70789
8.1031
8.50036
8.74229
8.79541
8.72101
8.59013
8.44169
8.30598
8.23046
8.23598
8.35884
8.61217
8.89001
8.9236
8.76224
8.53779
8.29895
7.06683
5.38365
4.35696
3.86369
26.9209
11.1853
8.28521
7.45895
7.28656
7.39985
7.68013
8.08155
8.49257
8.76016
8.84934
8.81206
8.70355
8.55525
8.40889
8.32531
8.32882
8.46726
8.7648
9.10602
9.15393
9.06304
8.88214
8.52276
6.78013
5.1122
4.39509
3.99728
26.731
11.1177
8.24337
7.42403
7.25437
7.36973
7.65347
8.06174
8.48717
8.78029
8.9031
8.89584
8.79792
8.63908
8.47664
8.37901
8.37625
8.52541
8.86791
9.28675
9.40314
9.38361
9.30449
8.85804
6.76618
5.26787
4.62852
4.26553
26.5451
11.0473
8.20059
7.38905
7.22251
7.34021
7.62778
8.04348
8.48383
8.80189
8.95471
8.96862
8.86902
8.69021
8.50642
8.38931
8.37482
8.52859
8.91335
9.40902
9.65249
9.71045
9.81572
9.50734
7.398
5.71404
5.03083
4.68335
26.3636
10.9744
8.15681
7.35392
7.19089
7.31121
7.60298
8.02659
8.48215
8.82399
9.00194
9.02688
8.91382
8.70755
8.49784
8.35599
8.3238
8.47697
8.88143
9.43457
9.82582
10.0503
10.4208
10.5622
8.75199
6.54886
5.67104
5.32444
26.1865
10.8991
8.112
7.31858
7.15943
7.28266
7.57894
8.01084
8.48166
8.84545
9.04243
9.06764
8.93095
8.69202
8.45266
8.28085
8.2244
8.35255
8.73673
9.32683
9.88455
10.3551
11.0254
11.8072
11.0936
8.23871
6.74819
6.44772
26.014
10.8216
8.06633
7.28314
7.12826
7.25469
7.55572
7.99609
8.48184
8.86495
9.07392
9.08908
8.92104
8.64638
8.37398
8.16532
8.07319
8.14865
8.46507
9.03581
9.72581
10.4393
11.3691
12.7775
14.1094
12.5814
11.7099
11.4922
25.8812
10.7589
8.0294
7.25462
7.1033
7.23239
7.53737
7.98467
8.48214
8.87873
9.09185
9.09095
8.89114
8.58307
8.27686
8.03125
7.8876
7.88423
8.08135
8.54103
9.24058
10.098
11.1718
12.838
15.5112
17.6848
11.8419
10.1216
25.7514
10.6954
7.99215
7.22614
7.07858
7.21052
7.51954
7.97371
8.48226
8.88971
9.10165
9.07952
8.84687
8.50702
8.16914
7.88965
7.6914
7.61427
7.69395
8.01248
8.60426
9.44133
10.5133
12.0169
14.5151
18.2942
21.6528
10.4384
25.6246
10.6309
7.95423
7.19725
7.05363
7.18857
7.50175
7.96281
8.48185
8.89749
9.1029
9.05449
8.78696
8.41355
8.04647
7.72979
7.47462
7.3154
7.27347
7.43118
7.83817
8.50894
9.45762
10.7325
12.506
15.1293
18.5443
19.1095
24.5472
23.4343
22.5693
21.9946
21.5327
21.1016
20.6096
19.9395
18.9116
17.3881
14.8361
6.60677
8.51521
8.48185
8.56135
8.70871
8.92378
9.20904
9.57304
10.0183
10.5109
10.9458
11.0917
10.3352
6.44311
6.62982
6.85686
7.13151
7.46669
7.8778
8.39053
9.03947
9.86111
10.8717
12.015
12.5515
5.52186
5.74909
6.00811
6.30787
6.6641
7.09736
7.64044
8.34371
9.28027
10.5534
12.263
14.1481
4.88079
5.11007
5.37002
5.67003
6.02482
6.4566
7.00164
7.71939
8.70799
10.128
12.2264
15.3693
4.39552
4.61329
4.86357
5.15429
5.49887
5.91948
6.45316
7.16359
8.16415
9.65789
12.046
16.3625
4.0229
4.22751
4.46499
4.7425
5.07282
5.47759
5.99373
6.68651
7.67725
9.20487
11.8054
17.2095
3.74004
3.93134
4.15506
4.418
4.73238
5.11933
5.61537
6.28632
7.25893
8.79863
11.5583
17.9536
3.52759
3.70632
3.91651
4.16474
4.46286
4.83147
5.30668
5.95453
6.90533
8.44465
11.3252
18.6187
3.36961
3.53688
3.73434
3.96843
4.25068
4.60131
5.05598
5.6808
6.60856
8.14037
11.1137
19.221
3.25332
3.41032
3.59608
3.81692
4.08415
4.4176
4.8526
5.45521
6.36003
7.88026
10.9254
19.772
3.16859
3.31648
3.49163
3.70026
3.95348
4.27083
4.68734
5.26897
6.15168
7.6582
10.7596
20.2805
3.10747
3.24729
3.4129
3.61042
3.85074
4.15316
4.55248
5.11461
5.97648
7.46844
10.6145
20.7534
3.06377
3.19644
3.35354
3.54102
3.76956
4.05826
4.44175
4.98594
5.8285
7.30591
10.4881
21.1963
3.03266
3.15904
3.30858
3.48705
3.70492
3.98109
4.35011
4.87792
5.70284
7.16628
10.3782
21.6141
3.01044
3.13126
3.27415
3.44463
3.65291
3.91769
4.27354
4.78654
5.5955
7.04594
10.283
22.0107
2.99425
3.11018
3.24727
3.41075
3.61047
3.86498
4.2089
4.70857
5.50326
6.94192
10.201
22.3896
2.98195
3.09357
3.22566
3.38307
3.57526
3.82057
4.15375
4.64149
5.42354
6.85174
10.1306
22.7539
2.97191
3.07973
3.20756
3.35983
3.54551
3.78263
4.10618
4.58331
5.35426
6.77337
10.0706
23.1065
2.96298
3.06741
3.19165
3.33969
3.51985
3.74979
4.06473
4.53246
5.29372
6.70513
10.0201
23.4498
2.95437
3.05569
3.17696
3.32166
3.49731
3.72103
4.0283
4.48768
5.24053
6.64559
9.97806
23.7863
2.94552
3.04395
3.1628
3.30506
3.47723
3.69559
3.99597
4.44791
5.19351
6.59354
9.94373
24.1183
2.93594
3.03142
3.14824
3.28894
3.45882
3.67271
3.96686
4.4122
5.15163
6.54792
9.91643
24.4481
2.92536
3.01781
3.1324
3.27152
3.43998
3.65103
3.94012
4.37967
5.114
6.50785
9.89558
24.7778
2.91292
3.00202
3.11436
3.25214
3.41959
3.62932
3.91513
4.34963
5.07993
6.47266
9.88079
25.1097
2.89834
2.98398
3.09415
3.23098
3.3981
3.60741
3.89112
4.32171
5.04897
6.4419
9.8719
25.4461
2.88227
2.96437
3.07237
3.20853
3.37591
3.58558
3.86815
4.29585
5.02094
6.41536
9.86908
25.7894
2.86567
2.94407
3.04974
3.18527
3.35334
3.56407
3.84639
4.27214
4.99578
6.39302
9.87283
26.1422
2.84943
2.92388
3.02689
3.16163
3.33056
3.54288
3.82593
4.25072
4.97353
6.37495
9.88389
26.5075
2.83431
2.90449
3.00437
3.13798
3.30771
3.52193
3.80672
4.23179
4.95422
6.36133
9.90339
26.8887
2.82096
2.88674
2.98309
3.11473
3.285
3.50142
3.78879
4.21511
4.9379
6.35244
9.93364
27.2898
2.80942
2.87064
2.96316
3.09259
3.26314
3.48194
3.77248
4.20079
4.92474
6.34854
9.97633
27.7156
2.79987
2.8564
2.94477
3.07153
3.24191
3.46306
3.75718
4.18802
4.9135
6.34669
10.0223
28.1533
2.79256
2.84437
2.92831
3.05188
3.22153
3.44479
3.7428
4.17663
4.90387
6.34624
10.0695
28.6027
2.78779
2.83493
2.91426
3.03413
3.20236
3.42732
3.72939
4.16667
4.896
6.34736
10.1181
29.0641
2.78594
2.82852
2.90312
3.01885
3.18489
3.41092
3.71706
4.15827
4.89019
6.35032
10.1682
29.5393
2.78741
2.82563
2.89547
3.00665
3.16971
3.39598
3.70596
4.15159
4.88685
6.35554
10.2203
30.0293
2.79257
2.82678
2.89187
2.99816
3.15745
3.38297
3.69623
4.14685
4.88651
6.36346
10.2746
30.5355
2.80185
2.83237
2.8929
2.99406
3.14881
3.37245
3.688
4.14426
4.88991
6.3746
10.3317
31.059
2.81566
2.84283
2.89916
2.99497
3.14454
3.36513
3.68178
4.14418
4.89739
6.38948
10.3919
31.6011
2.83453
2.85861
2.91106
3.00152
3.14541
3.36187
3.6786
4.14722
4.90882
6.40872
10.4559
32.1632
2.85897
2.88015
2.92895
3.01433
3.15221
3.36357
3.6793
4.15395
4.92465
6.43324
10.5243
32.7467
2.88951
2.90787
2.95329
3.03397
3.16571
3.37124
3.68482
4.16493
4.94535
6.46415
10.5981
33.3529
2.92669
2.94229
2.98453
3.06083
3.1866
3.386
3.69638
4.18063
4.9712
6.50286
10.6781
33.9835
2.97102
2.98391
3.02305
3.09518
3.21556
3.40914
3.71544
4.20119
5.00203
6.55112
10.7652
34.6411
3.02295
3.03315
3.06915
3.13743
3.25333
3.442
3.74382
4.2283
5.03827
6.60746
10.86
35.3299
3.08278
3.09032
3.12319
3.18808
3.3007
3.48574
3.78332
4.26492
5.08069
6.66757
10.9638
36.0542
3.15058
3.15565
3.18548
3.24777
3.35848
3.54127
3.8351
4.31213
5.12861
6.73003
11.0806
36.8189
3.22632
3.22927
3.25652
3.31737
3.42744
3.60917
3.89996
4.37102
5.18066
6.79191
11.2177
37.6332
3.31004
3.31132
3.33694
3.3976
3.50805
3.68966
3.97838
4.44398
5.24621
6.86386
11.3572
38.5172
3.40169
3.4017
3.42705
3.48868
3.6003
3.78256
4.07046
4.53241
5.32949
6.94934