/*--------------------------------*- C++ -*----------------------------------*\
| =========                 |                                                 |
| \\      /  F ield         | OpenFOAM: The Open Source CFD Toolbox           |
|  \\    /   O peration     | Version:  2012                                  |
|   \\  /    A nd           | Website:  www.openfoam.com                      |
|    \\/     M anipulation  |                                                 |
\*---------------------------------------------------------------------------*/
FoamFile
{
    version     2.0;
    format      ascii;
    class       volScalarField;
    location    "672";
    object      p;
}
// * * * * * * * * * * * * * * * * * * * * * * * * * * * * * * * * * * * * * //

dimensions      [0 2 -2 0 0 0 0];


internalField   nonuniform List<scalar> 
6084
(
0.317932
0.318079
0.318256
0.318451
0.318657
0.31887
0.319087
0.319306
0.319526
0.319747
0.319968
0.320188
0.320408
0.32063
0.320855
0.321084
0.321324
0.321623
0.322114
0.322826
0.317924
0.318076
0.318258
0.318457
0.318666
0.318882
0.319102
0.319324
0.319547
0.319772
0.319998
0.320224
0.320451
0.320681
0.320913
0.321147
0.321382
0.321637
0.321932
0.322189
0.317852
0.318022
0.318215
0.318421
0.318635
0.318854
0.319075
0.319298
0.319522
0.319748
0.319975
0.320202
0.320431
0.320662
0.320895
0.321123
0.321345
0.321568
0.321756
0.321844
0.317751
0.317949
0.318163
0.318381
0.318603
0.318825
0.319048
0.319272
0.319496
0.319722
0.319948
0.320174
0.320402
0.320631
0.320858
0.321078
0.32129
0.321492
0.321647
0.321699
0.317635
0.317874
0.318116
0.31835
0.31858
0.318807
0.319033
0.319258
0.319483
0.319709
0.319935
0.320161
0.320388
0.320616
0.320841
0.321058
0.321265
0.321456
0.321596
0.321637
0.317515
0.317809
0.318082
0.318332
0.31857
0.318802
0.31903
0.319256
0.319482
0.319708
0.319934
0.320161
0.320388
0.320616
0.320841
0.321058
0.321265
0.321456
0.321596
0.321637
0.317423
0.317771
0.318076
0.318335
0.318577
0.31881
0.319039
0.319266
0.319493
0.319719
0.319946
0.320173
0.320401
0.32063
0.320858
0.321078
0.32129
0.321492
0.321647
0.321699
0.317427
0.317796
0.318112
0.318365
0.318603
0.318834
0.319062
0.31929
0.319517
0.319744
0.319972
0.320201
0.32043
0.320661
0.320894
0.321123
0.321345
0.321567
0.321756
0.321844
0.317677
0.317929
0.318192
0.318413
0.318637
0.318862
0.319088
0.319315
0.319541
0.319768
0.319995
0.320222
0.32045
0.32068
0.320913
0.321147
0.321381
0.321637
0.321932
0.322189
0.3183
0.318148
0.318236
0.318422
0.318632
0.318852
0.319074
0.319297
0.31952
0.319743
0.319965
0.320186
0.320407
0.320629
0.320854
0.321084
0.321324
0.321623
0.322114
0.322826
0.330397
0.326941
0.324269
0.322239
0.320731
0.319637
0.318868
0.318352
0.318031
0.31786
0.317804
0.317834
0.33027
0.326825
0.324164
0.322148
0.320655
0.319575
0.318819
0.318313
0.318
0.317833
0.317782
0.317819
0.329365
0.326057
0.323523
0.321622
0.32023
0.319237
0.318551
0.318101
0.317831
0.317695
0.317666
0.317726
0.327643
0.324608
0.322325
0.320651
0.319457
0.318629
0.318076
0.317732
0.317543
0.317465
0.31748
0.317583
0.325157
0.322533
0.320625
0.319287
0.318383
0.317795
0.317431
0.317234
0.317163
0.31717
0.317242
0.317404
0.321954
0.31986
0.318438
0.317544
0.317028
0.316759
0.316642
0.316637
0.316729
0.316847
0.316961
0.317183
0.318008
0.316553
0.31577
0.31548
0.315483
0.315629
0.315825
0.316048
0.316319
0.316524
0.316599
0.316917
0.313455
0.312826
0.31282
0.313275
0.313883
0.314457
0.314926
0.315269
0.315606
0.315898
0.316019
0.31662
0.308098
0.308212
0.308972
0.310116
0.311193
0.312066
0.312775
0.313277
0.313896
0.315044
0.315965
0.316125
0.302515
0.303465
0.304975
0.306714
0.308628
0.310752
0.312763
0.314305
0.31558
0.317924
0.31871
0.312214
0.771057
0.769878
0.769224
0.769255
0.768972
0.766626
0.758476
0.742642
0.721111
0.695922
0.668336
0.639336
0.609704
0.580096
0.551065
0.523082
0.496535
0.471727
0.448883
0.428146
0.409586
0.393206
0.378943
0.366692
0.356313
0.347649
0.340545
0.334846
0.770551
0.768982
0.768827
0.769621
0.769657
0.7664
0.756556
0.740174
0.719157
0.694477
0.667336
0.638699
0.609355
0.579961
0.551081
0.523195
0.4967
0.471912
0.449062
0.428302
0.409707
0.393282
0.378975
0.366684
0.356272
0.347583
0.340459
0.334731
0.77092
0.769036
0.76902
0.769405
0.767774
0.761885
0.750277
0.733582
0.712867
0.688761
0.662247
0.634178
0.605311
0.576308
0.547744
0.520115
0.493836
0.469236
0.44656
0.425968
0.407538
0.391278
0.377135
0.365009
0.354762
0.346236
0.339271
0.333688
0.772972
0.770625
0.769619
0.767782
0.76323
0.754757
0.741855
0.724817
0.704142
0.680412
0.654394
0.626822
0.598402
0.569783
0.541548
0.514211
0.488207
0.463884
0.441497
0.421211
0.403107
0.387189
0.3734
0.361631
0.351741
0.343565
0.336936
0.331671
0.776021
0.772703
0.769556
0.764895
0.757454
0.746723
0.732455
0.714714
0.693766
0.670081
0.644269
0.616967
0.588828
0.560481
0.532517
0.505463
0.479772
0.455805
0.433825
0.413998
0.396397
0.381015
0.367781
0.356575
0.347241
0.339609
0.333501
0.32873
0.778404
0.773364
0.767776
0.760365
0.750347
0.737543
0.721791
0.703091
0.681604
0.657685
0.631822
0.604575
0.576553
0.548369
0.520618
0.493843
0.468512
0.444994
0.423556
0.404352
0.387442
0.372798
0.360328
0.349892
0.341318
0.334422
0.329023
0.324924
0.778336
0.771354
0.763613
0.75373
0.741466
0.726799
0.709589
0.689827
0.667624
0.643254
0.617123
0.589738
0.561672
0.533537
0.505935
0.47943
0.454502
0.431528
0.410767
0.392357
0.376329
0.362627
0.351128
0.341663
0.334043
0.32807
0.323553
0.320272
0.774843
0.766195
0.756729
0.744798
0.730657
0.714356
0.69577
0.67491
0.651869
0.626876
0.600287
0.572578
0.544313
0.51611
0.488596
0.462355
0.437886
0.415565
0.395632
0.378196
0.363249
0.350692
0.340362
0.332058
0.325564
0.320669
0.317167
0.314833
0.768252
0.757911
0.747047
0.733521
0.717857
0.700141
0.680279
0.658326
0.634371
0.608623
0.581421
0.553232
0.524634
0.496274
0.468817
0.442877
0.418964
0.397446
0.378531
0.362278
0.348624
0.337413
0.328434
0.321444
0.316198
0.312473
0.310058
0.308691
0.758356
0.746525
0.73462
0.719901
0.703022
0.684104
0.663092
0.640084
0.615183
0.588598
0.560671
0.531893
0.502883
0.474343
0.446987
0.421466
0.398295
0.377812
0.360169
0.34535
0.333212
0.323527
0.316027
0.310429
0.306467
0.303924
0.302607
0.302242
0.295508
0.296423
0.297604
0.298776
0.300008
0.301419
0.302364
0.302322
0.302461
0.303875
0.302092
0.291715
0.29158
0.292966
0.294593
0.296178
0.297568
0.298969
0.300098
0.300513
0.300749
0.300925
0.299445
0.295953
0.289464
0.291078
0.292871
0.294641
0.296067
0.297229
0.298265
0.299019
0.29941
0.299263
0.298222
0.296604
0.288234
0.289856
0.291498
0.293152
0.294637
0.295834
0.296735
0.297378
0.297753
0.297717
0.297102
0.296164
0.286737
0.288311
0.289876
0.291387
0.292794
0.294026
0.295028
0.29577
0.296214
0.296282
0.29592
0.295327
0.285094
0.286614
0.28816
0.289668
0.291084
0.292346
0.293398
0.294188
0.294666
0.294807
0.29462
0.294214
0.283493
0.284995
0.286529
0.288037
0.289454
0.290719
0.291778
0.29258
0.293084
0.293287
0.293217
0.292919
0.28195
0.283436
0.28495
0.286438
0.287837
0.289089
0.290142
0.290952
0.291481
0.291733
0.291738
0.291504
0.280427
0.281889
0.283378
0.284839
0.286216
0.287455
0.288505
0.289322
0.289875
0.290164
0.290215
0.290019
0.278903
0.280341
0.281805
0.283244
0.284604
0.285833
0.286884
0.287711
0.288284
0.288601
0.28868
0.288509
0.277379
0.278798
0.280243
0.281667
0.283016
0.284242
0.285296
0.286135
0.286727
0.287066
0.287163
0.287012
0.275867
0.277272
0.278706
0.280122
0.281468
0.282695
0.283757
0.284611
0.285223
0.285582
0.285695
0.285562
0.27438
0.275778
0.277208
0.278622
0.279972
0.281208
0.282284
0.283157
0.283792
0.284173
0.284301
0.28419
0.272929
0.274327
0.27576
0.277182
0.278542
0.279794
0.28089
0.281787
0.28245
0.282858
0.283007
0.282924
0.271527
0.272932
0.274376
0.275813
0.277192
0.278467
0.279591
0.28052
0.281217
0.281659
0.281836
0.28179
0.270187
0.271606
0.273068
0.274528
0.275935
0.277242
0.278401
0.279369
0.280109
0.280595
0.280809
0.280811
0.268919
0.27036
0.271849
0.27334
0.274784
0.276132
0.277336
0.278351
0.279142
0.279684
0.279946
0.280008
0.267736
0.269205
0.270729
0.272261
0.273752
0.27515
0.276408
0.277481
0.278334
0.278943
0.279266
0.279404
0.266647
0.268153
0.26972
0.271303
0.272849
0.274308
0.275631
0.276773
0.277698
0.278386
0.278783
0.279018
0.265663
0.267213
0.268833
0.270475
0.272088
0.273619
0.275017
0.276238
0.277248
0.278028
0.278517
0.278868
0.264792
0.266394
0.268075
0.269788
0.271479
0.273092
0.274577
0.275889
0.276993
0.277879
0.278484
0.278965
0.264042
0.265703
0.267455
0.269249
0.271028
0.272736
0.274319
0.275732
0.276943
0.27795
0.278686
0.279317
0.263419
0.265148
0.266979
0.268864
0.270742
0.272556
0.274248
0.275775
0.277105
0.278247
0.279131
0.279938
0.262927
0.264731
0.266651
0.268636
0.270624
0.272554
0.274371
0.276021
0.277479
0.27877
0.279823
0.280836
0.262569
0.264454
0.266471
0.268565
0.270674
0.272735
0.274692
0.276467
0.27806
0.27951
0.280756
0.282001
0.262344
0.264318
0.266438
0.26865
0.27089
0.273095
0.275182
0.277093
0.278834
0.280456
0.281918
0.283417
0.262251
0.264317
0.266546
0.268884
0.271267
0.273612
0.275828
0.27789
0.279788
0.281585
0.283285
0.285059
0.262283
0.264443
0.266784
0.269252
0.271784
0.27427
0.276637
0.278848
0.280892
0.282862
0.284814
0.286882
0.262432
0.264685
0.267135
0.269744
0.272417
0.275045
0.277564
0.279921
0.282105
0.284237
0.286449
0.28882
0.262683
0.265022
0.267576
0.270322
0.273127
0.275898
0.278568
0.281071
0.283385
0.285651
0.288116
0.290783
0.263019
0.265438
0.268096
0.270939
0.273869
0.276792
0.279616
0.282274
0.284693
0.287031
0.289714
0.292653
0.263411
0.265896
0.268654
0.271564
0.274603
0.277668
0.280661
0.283485
0.285934
0.288255
0.291097
0.294264
0.263826
0.266343
0.269148
0.272133
0.275258
0.278444
0.2816
0.284504
0.286918
0.289176
0.292106
0.295422
0.264226
0.266734
0.269525
0.272561
0.275735
0.279003
0.282207
0.28507
0.287514
0.289745
0.29272
0.296035
0.264568
0.267023
0.269756
0.272758
0.275916
0.279185
0.282306
0.285149
0.287693
0.289958
0.293001
0.296191
0.264799
0.267129
0.269764
0.272638
0.275708
0.278851
0.281855
0.284747
0.287374
0.289692
0.292804
0.295791
0.264864
0.266991
0.269446
0.272107
0.274986
0.27793
0.28084
0.283748
0.286404
0.288749
0.291832
0.294778
0.264703
0.266582
0.268734
0.271102
0.273676
0.276375
0.2792
0.282058
0.284688
0.287027
0.290006
0.293142
0.264264
0.265817
0.267576
0.269564
0.271764
0.274186
0.276873
0.279625
0.282193
0.28452
0.287396
0.290716
0.263542
0.264635
0.265934
0.267471
0.269266
0.271393
0.273875
0.276483
0.278973
0.281304
0.284101
0.287559
0.262472
0.263046
0.263836
0.264888
0.266256
0.268068
0.270305
0.272753
0.275183
0.27755
0.280318
0.283903
0.261027
0.261062
0.261364
0.261924
0.262859
0.264354
0.266349
0.268651
0.271045
0.273471
0.276204
0.279793
0.25926
0.258826
0.258633
0.258712
0.259278
0.260493
0.262279
0.264465
0.266836
0.269274
0.271886
0.275306
0.257339
0.256441
0.255759
0.255467
0.255794
0.256792
0.258408
0.260483
0.262804
0.265139
0.26755
0.270697
0.255349
0.253969
0.252968
0.252507
0.252689
0.253529
0.254987
0.256912
0.259069
0.261226
0.26342
0.266239
0.253351
0.251711
0.250595
0.250061
0.250133
0.250822
0.252086
0.253807
0.255745
0.257739
0.259709
0.262166
0.251656
0.249946
0.248782
0.248169
0.248128
0.248663
0.249725
0.251234
0.252997
0.254856
0.256587
0.258661
0.250442
0.248716
0.247505
0.246807
0.246647
0.24704
0.247953
0.249313
0.25094
0.252651
0.254143
0.255868
0.249739
0.247992
0.246721
0.245934
0.245679
0.245974
0.246789
0.248042
0.249559
0.251134
0.252412
0.253877
0.249512
0.247723
0.246378
0.245515
0.245192
0.245419
0.246173
0.247365
0.248818
0.250306
0.251441
0.252712
0.249678
0.24783
0.246411
0.245488
0.245122
0.245313
0.246052
0.24724
0.248696
0.250168
0.25126
0.252425
0.250146
0.248235
0.246757
0.245794
0.245415
0.245624
0.246408
0.24766
0.249193
0.250736
0.25191
0.253074
0.250852
0.248883
0.247369
0.246405
0.246058
0.24634
0.247231
0.248616
0.250303
0.252014
0.253411
0.254683
0.251763
0.249751
0.248227
0.247298
0.247032
0.247442
0.248501
0.250087
0.252005
0.253988
0.255751
0.25722
0.252849
0.250803
0.249298
0.248442
0.248301
0.248894
0.25018
0.252032
0.254254
0.256612
0.258858
0.260557
0.254044
0.25198
0.250522
0.249777
0.249809
0.250634
0.252204
0.254379
0.256968
0.259779
0.262539
0.264384
0.255269
0.253196
0.251814
0.251215
0.251461
0.252568
0.254467
0.257007
0.260004
0.263286
0.266408
0.26813
0.256361
0.254274
0.253022
0.25262
0.253119
0.254542
0.256801
0.259729
0.26316
0.266826
0.269861
0.27091
0.256633
0.254757
0.253772
0.25364
0.254447
0.25625
0.258943
0.262309
0.266098
0.269743
0.271931
0.27214
0.255415
0.254759
0.25431
0.254572
0.255757
0.257952
0.261069
0.2647
0.26838
0.271511
0.272679
0.272447
0.744346
0.731605
0.719042
0.70348
0.685644
0.665706
0.643656
0.619633
0.593765
0.56628
0.537555
0.508135
0.478715
0.450079
0.423012
0.398198
0.376137
0.357104
0.341151
0.328148
0.31784
0.309909
0.304016
0.299835
0.297073
0.295492
0.294881
0.294973
0.726326
0.713081
0.700252
0.684185
0.66565
0.644886
0.621936
0.596975
0.570168
0.541788
0.512279
0.482284
0.452615
0.424175
0.397825
0.374263
0.353926
0.336962
0.323266
0.31255
0.304429
0.298494
0.294358
0.291678
0.290165
0.289585
0.289741
0.290456
0.705338
0.691944
0.679082
0.662793
0.643812
0.622439
0.598768
0.573015
0.545392
0.516246
0.486129
0.455828
0.426312
0.39861
0.373633
0.352022
0.334065
0.319704
0.308624
0.300363
0.294425
0.290345
0.287731
0.286272
0.285734
0.285934
0.286726
0.287969
0.682175
0.668807
0.656038
0.639689
0.620489
0.59871
0.574512
0.548152
0.519908
0.490235
0.459838
0.429687
0.40092
0.374656
0.351775
0.332755
0.317637
0.306105
0.297631
0.291625
0.28754
0.284934
0.283482
0.28295
0.28315
0.283914
0.285095
0.286589
0.657433
0.644228
0.63162
0.615321
0.596101
0.57411
0.549598
0.522862
0.494273
0.464427
0.434218
0.404811
0.377481
0.353351
0.333151
0.317096
0.30493
0.29609
0.289898
0.285722
0.283056
0.28154
0.280919
0.28098
0.28155
0.282506
0.283742
0.285185
0.631605
0.618704
0.606303
0.590174
0.571088
0.549084
0.524491
0.497659
0.469073
0.4395
0.410036
0.382013
0.35676
0.335292
0.318083
0.305033
0.295606
0.289067
0.284686
0.28187
0.280197
0.279375
0.279181
0.279457
0.280103
0.281047
0.282234
0.283613
0.605176
0.592692
0.580569
0.564727
0.545908
0.52409
0.499667
0.473051
0.444867
0.41606
0.387906
0.36184
0.339137
0.320597
0.306385
0.296097
0.288993
0.284256
0.281188
0.279279
0.278189
0.277694
0.277648
0.277971
0.278614
0.279533
0.280688
0.282037
0.578608
0.566635
0.554879
0.539419
0.520997
0.499565
0.475568
0.449501
0.422129
0.394565
0.368217
0.344527
0.324617
0.309007
0.297552
0.289612
0.28433
0.280894
0.278687
0.277304
0.2765
0.27614
0.276147
0.276486
0.277127
0.278035
0.279175
0.280509
0.55232
0.54093
0.529617
0.51463
0.496741
0.47589
0.452576
0.42738
0.401203
0.375291
0.351113
0.33003
0.312932
0.300043
0.29096
0.284888
0.280938
0.278367
0.276676
0.275575
0.274912
0.274618
0.274657
0.275011
0.275655
0.276559
0.277689
0.279007
0.52667
0.515915
0.505112
0.490688
0.473465
0.45338
0.430985
0.40695
0.382287
0.35833
0.336535
0.318105
0.303661
0.293156
0.286003
0.281334
0.278299
0.276271
0.27488
0.273935
0.273353
0.273104
0.273172
0.273542
0.274191
0.27509
0.276207
0.277506
0.501954
0.491875
0.481636
0.467862
0.451424
0.432266
0.410996
0.388356
0.365441
0.343616
0.324269
0.308397
0.29634
0.287827
0.282174
0.278511
0.27608
0.274389
0.273177
0.272327
0.271802
0.271594
0.27169
0.272074
0.272725
0.273618
0.274722
0.276002
0.478412
0.469036
0.459404
0.446354
0.430801
0.412705
0.392717
0.371638
0.350603
0.330964
0.314008
0.300516
0.290538
0.283629
0.279096
0.27613
0.274093
0.272615
0.271517
0.270736
0.270261
0.270092
0.270213
0.270608
0.27126
0.272146
0.273239
0.274505
0.456225
0.447564
0.438573
0.426304
0.411713
0.394774
0.376175
0.356749
0.337628
0.32011
0.305399
0.294107
0.285907
0.280238
0.276512
0.274019
0.272241
0.270903
0.269887
0.269164
0.268738
0.268604
0.268745
0.26915
0.269802
0.270684
0.271769
0.273026
0.435517
0.427571
0.419241
0.407792
0.394214
0.378492
0.361336
0.343583
0.326311
0.310737
0.298162
0.288931
0.282192
0.277435
0.274263
0.272086
0.270482
0.269242
0.268291
0.267623
0.267241
0.267137
0.267296
0.267708
0.268363
0.269243
0.270324
0.271577
0.416361
0.40912
0.401456
0.390849
0.378308
0.363827
0.348124
0.332005
0.31645
0.302777
0.292233
0.284649
0.279092
0.275056
0.272247
0.27028
0.268795
0.26763
0.266737
0.26612
0.265778
0.2657
0.265874
0.266296
0.266954
0.267835
0.268917
0.270172
0.398788
0.392229
0.385225
0.375465
0.363961
0.350718
0.336443
0.321896
0.307982
0.29623
0.287407
0.280933
0.276325
0.272917
0.270391
0.268573
0.267175
0.266073
0.265235
0.264665
0.264357
0.264303
0.264492
0.264923
0.265587
0.266473
0.26756
0.268821
0.382788
0.376882
0.37052
0.361595
0.35111
0.339076
0.326172
0.313086
0.300846
0.290861
0.283303
0.277674
0.273781
0.270901
0.268649
0.266948
0.265623
0.264577
0.263791
0.263263
0.262987
0.262955
0.26316
0.263601
0.264274
0.265167
0.266263
0.267537
0.368323
0.363033
0.357289
0.349173
0.339671
0.328798
0.317196
0.305451
0.294828
0.28634
0.279719
0.27481
0.271441
0.268994
0.267005
0.265401
0.264141
0.26315
0.262412
0.261924
0.261678
0.261667
0.261887
0.26234
0.263024
0.263928
0.265039
0.266331
0.35533
0.350617
0.345456
0.338114
0.329546
0.319768
0.309397
0.298927
0.289705
0.282396
0.276566
0.272282
0.269316
0.267194
0.265433
0.26393
0.262736
0.261796
0.261104
0.260655
0.260438
0.260448
0.260684
0.261151
0.261848
0.262768
0.263897
0.265213
0.343731
0.339553
0.334937
0.328324
0.32063
0.311865
0.302616
0.293365
0.285333
0.278935
0.273792
0.270034
0.267392
0.26549
0.263926
0.262549
0.261413
0.260524
0.259877
0.259464
0.259275
0.259306
0.25956
0.260043
0.260756
0.261694
0.262846
0.264192
0.333436
0.32975
0.325637
0.319703
0.312815
0.304972
0.296699
0.288594
0.281611
0.275919
0.271355
0.268023
0.265644
0.2639
0.262503
0.261253
0.260176
0.25934
0.258737
0.25836
0.258197
0.258251
0.258523
0.259024
0.259756
0.260716
0.261896
0.263278
0.324357
0.321114
0.317462
0.312151
0.305999
0.298996
0.291585
0.284492
0.278404
0.273288
0.269212
0.266224
0.264061
0.262449
0.261172
0.260036
0.259032
0.25825
0.257692
0.257349
0.257214
0.25729
0.257583
0.258103
0.258856
0.259842
0.261055
0.262477
0.316398
0.313553
0.310318
0.305576
0.300091
0.293852
0.287229
0.280974
0.275601
0.270991
0.26733
0.264622
0.262636
0.261135
0.259942
0.258912
0.257996
0.257264
0.256749
0.25644
0.256332
0.256431
0.256745
0.257287
0.258064
0.259079
0.260328
0.261797
0.309465
0.306975
0.304116
0.299889
0.295
0.289445
0.283535
0.277969
0.273168
0.269
0.265686
0.263207
0.261367
0.259957
0.258829
0.257894
0.257069
0.256386
0.255914
0.255639
0.255559
0.255682
0.256018
0.256582
0.257385
0.258432
0.259721
0.261242
0.303467
0.301292
0.298771
0.295004
0.290643
0.285688
0.280406
0.27542
0.271088
0.267296
0.264268
0.261976
0.260253
0.258921
0.257852
0.256991
0.256247
0.255625
0.255194
0.254953
0.254901
0.255048
0.255407
0.255995
0.256825
0.257906
0.259239
0.260815
0.29832
0.29642
0.294205
0.290847
0.286948
0.282513
0.277778
0.273282
0.269339
0.265863
0.263068
0.260926
0.2593
0.258032
0.257013
0.256204
0.255544
0.254994
0.2546
0.25439
0.254365
0.254536
0.254918
0.25553
0.256389
0.257505
0.258882
0.260517
0.293945
0.292277
0.290351
0.287348
0.283852
0.279866
0.275602
0.271519
0.267899
0.264685
0.262079
0.26006
0.25851
0.257293
0.256317
0.255551
0.25497
0.254494
0.254134
0.253955
0.253957
0.254151
0.254556
0.255192
0.256078
0.257228
0.258652
0.260347
0.290278
0.288823
0.287156
0.284448
0.281301
0.2777
0.27384
0.270105
0.266749
0.263753
0.261301
0.259379
0.257889
0.256713
0.255774
0.255049
0.25453
0.25412
0.253803
0.253655
0.253683
0.2539
0.254326
0.254983
0.255894
0.257077
0.258546
0.260302
0.287271
0.286085
0.284565
0.282094
0.279247
0.275976
0.27246
0.269017
0.265878
0.26306
0.260732
0.258886
0.257442
0.256298
0.255389
0.2547
0.25423
0.25388
0.253615
0.253497
0.25355
0.253786
0.254229
0.254904
0.255837
0.25705
0.258561
0.260375
0.284852
0.283922
0.282485
0.280234
0.277649
0.274659
0.271437
0.268238
0.265277
0.262605
0.260376
0.258588
0.257176
0.256054
0.255169
0.254509
0.254074
0.253789
0.253583
0.25349
0.253562
0.253814
0.25427
0.254957
0.255906
0.257143
0.25869
0.260556
0.282949
0.282149
0.280843
0.278824
0.276468
0.27372
0.270749
0.267757
0.264941
0.262385
0.260234
0.25849
0.257099
0.25599
0.255123
0.254486
0.254081
0.253857
0.253709
0.253638
0.253724
0.253987
0.254449
0.255142
0.256098
0.25735
0.258923
0.260831
0.281517
0.28077
0.279626
0.277828
0.275673
0.273136
0.27038
0.267563
0.264864
0.262403
0.260313
0.2586
0.257219
0.256116
0.25526
0.254642
0.254265
0.254091
0.253992
0.253946
0.254042
0.254307
0.254767
0.255455
0.256409
0.257662
0.259246
0.26118
0.280522
0.279829
0.278836
0.277227
0.275244
0.27289
0.270319
0.267648
0.265045
0.262662
0.260618
0.258925
0.257546
0.256443
0.25559
0.254984
0.254632
0.2545
0.254443
0.25442
0.254518
0.254777
0.255225
0.255895
0.25683
0.258067
0.259642
0.261578
0.279946
0.279323
0.278457
0.277
0.275165
0.272971
0.270556
0.268008
0.265486
0.263163
0.261155
0.259473
0.25809
0.256979
0.256124
0.255524
0.255192
0.255094
0.255076
0.255068
0.255159
0.255401
0.255821
0.256457
0.257352
0.25855
0.260089
0.261996
0.279761
0.279226
0.278457
0.277124
0.275419
0.273364
0.271085
0.268642
0.266187
0.263914
0.261931
0.260255
0.258862
0.257737
0.256872
0.256274
0.255957
0.25589
0.255902
0.2559
0.255973
0.256182
0.256556
0.257135
0.257965
0.259093
0.260561
0.262398
0.279945
0.279486
0.2788
0.27758
0.27599
0.274058
0.271898
0.269549
0.267153
0.264921
0.262957
0.26128
0.259874
0.25873
0.257852
0.257251
0.256947
0.256904
0.256936
0.256928
0.256965
0.257122
0.257427
0.257922
0.258654
0.259674
0.261027
0.262746
0.28047
0.280073
0.279463
0.278347
0.276863
0.275044
0.272992
0.270727
0.268386
0.266192
0.264242
0.262562
0.261141
0.259977
0.259081
0.258477
0.258181
0.258152
0.258192
0.258163
0.258144
0.258224
0.258432
0.258807
0.259401
0.260268
0.261455
0.262997
0.281303
0.280969
0.28043
0.279409
0.278024
0.276311
0.27436
0.272176
0.269892
0.267734
0.265798
0.264115
0.262679
0.261495
0.260582
0.259973
0.25968
0.259654
0.259688
0.25962
0.259519
0.259491
0.259564
0.259778
0.260188
0.260848
0.261809
0.263105
0.282424
0.282154
0.281681
0.28075
0.279462
0.277852
0.275997
0.273896
0.271673
0.269555
0.267638
0.265955
0.264508
0.263306
0.262379
0.261764
0.26147
0.261432
0.261441
0.261311
0.261098
0.260924
0.260819
0.260823
0.260991
0.261383
0.26205
0.263019
0.283811
0.283607
0.283196
0.282354
0.281161
0.279655
0.277899
0.275884
0.273732
0.271663
0.269773
0.268098
0.266646
0.265432
0.264495
0.263876
0.263573
0.263508
0.263464
0.26324
0.262883
0.26252
0.262187
0.261922
0.261787
0.261842
0.26214
0.262692
0.285444
0.285305
0.284955
0.284202
0.283108
0.28171
0.280057
0.278139
0.276072
0.274064
0.272213
0.270558
0.269111
0.267895
0.266954
0.26633
0.26601
0.265894
0.265765
0.265422
0.264881
0.264278
0.263656
0.263058
0.262548
0.262191
0.262036
0.26209
0.287303
0.287226
0.286937
0.286278
0.285288
0.284004
0.282464
0.280654
0.278689
0.276762
0.274967
0.273347
0.27192
0.270714
0.269777
0.269149
0.268796
0.268599
0.268366
0.267878
0.267098
0.266193
0.265213
0.264207
0.263247
0.262402
0.261729
0.261289
0.289366
0.28935
0.289124
0.288562
0.287682
0.286523
0.285106
0.283422
0.28158
0.279755
0.278038
0.276474
0.275087
0.273907
0.272985
0.272349
0.271949
0.271645
0.271287
0.270607
0.269535
0.268255
0.266839
0.265345
0.263859
0.262457
0.261229
0.260133
0.291609
0.291651
0.291492
0.291032
0.290272
0.289248
0.28797
0.286431
0.284737
0.283038
0.281425
0.279943
0.278619
0.277484
0.276587
0.275941
0.27547
0.275049
0.274532
0.273599
0.272181
0.27045
0.268511
0.266442
0.264346
0.26232
0.260444
0.258644
0.294007
0.294107
0.294018
0.293666
0.293034
0.292159
0.291036
0.289664
0.288143
0.286601
0.285121
0.28375
0.282514
0.281446
0.280586
0.279927
0.279364
0.278803
0.278084
0.276856
0.275028
0.272761
0.270203
0.267452
0.264609
0.261901
0.259416
0.257144
0.296534
0.296691
0.296675
0.296438
0.295943
0.295228
0.294281
0.2931
0.29178
0.290423
0.289108
0.287879
0.286761
0.285783
0.28497
0.284289
0.283626
0.282898
0.281925
0.280368
0.278076
0.275173
0.271882
0.268292
0.264631
0.26142
0.258306
0.255528
0.299164
0.299376
0.299436
0.299319
0.29897
0.298426
0.297675
0.296715
0.295617
0.294477
0.29336
0.292306
0.291336
0.290471
0.289712
0.288997
0.288236
0.287321
0.286043
0.28414
0.281337
0.277677
0.273492
0.268886
0.26474
0.260768
0.257022
0.253987
0.301867
0.302132
0.302273
0.30228
0.302086
0.30172
0.301187
0.300472
0.29962
0.298725
0.297839
0.296992
0.2962
0.29547
0.294777
0.294025
0.293161
0.292041
0.290439
0.288182
0.284805
0.280253
0.274969
0.269344
0.264433
0.259727
0.255835
0.25276
0.304614
0.304929
0.305153
0.30529
0.305259
0.305082
0.304778
0.304325
0.303741
0.303119
0.302493
0.301883
0.301296
0.300719
0.300097
0.299321
0.298351
0.297021
0.295113
0.292485
0.288439
0.282834
0.276204
0.269632
0.263651
0.258757
0.254943
0.252013
0.307374
0.307736
0.308045
0.308313
0.308451
0.308475
0.308406
0.308224
0.307928
0.307602
0.30726
0.306912
0.306551
0.306135
0.305578
0.304803
0.303754
0.302238
0.30006
0.29703
0.292211
0.28534
0.277044
0.269535
0.262877
0.258046
0.254545
0.251781
0.310117
0.310522
0.310917
0.311315
0.311625
0.311854
0.312025
0.312118
0.312124
0.312108
0.312067
0.311998
0.311875
0.311629
0.311138
0.310382
0.309291
0.307651
0.305258
0.301796
0.296097
0.287748
0.277825
0.268855
0.262164
0.257811
0.254673
0.251967
0.312812
0.313254
0.313733
0.31426
0.314739
0.315174
0.315584
0.315954
0.316265
0.316564
0.316831
0.317048
0.317166
0.317088
0.31668
0.315955
0.314866
0.313197
0.310671
0.306747
0.300021
0.289908
0.278291
0.267916
0.261706
0.258108
0.255169
0.25247
0.315429
0.315903
0.316463
0.317112
0.317754
0.318391
0.319035
0.319674
0.320284
0.320893
0.321465
0.32196
0.322307
0.322384
0.322068
0.32141
0.320396
0.318806
0.316243
0.311849
0.303964
0.291782
0.278088
0.267027
0.261762
0.25881
0.255935
0.253228
0.317938
0.318438
0.319073
0.319837
0.320631
0.321461
0.322327
0.32322
0.324114
0.325017
0.325876
0.32663
0.327179
0.327386
0.327178
0.326641
0.325784
0.32438
0.321894
0.317075
0.307964
0.293687
0.277697
0.266572
0.262366
0.259762
0.256906
0.254193
0.320313
0.320831
0.321535
0.322401
0.323336
0.324342
0.325412
0.326537
0.327691
0.328862
0.329979
0.330958
0.331673
0.33198
0.331893
0.331531
0.330907
0.329791
0.327508
0.322367
0.312078
0.295881
0.277668
0.26675
0.263324
0.26089
0.258064
0.255328
0.322529
0.323058
0.323822
0.324776
0.325833
0.326998
0.328248
0.329575
0.330956
0.332359
0.333694
0.334856
0.335693
0.336077
0.336112
0.335956
0.335625
0.334885
0.332897
0.32751
0.316248
0.298358
0.278468
0.267595
0.264378
0.262166
0.259367
0.256565
0.324564
0.325096
0.32591
0.326936
0.328096
0.329395
0.330797
0.332291
0.333859
0.33545
0.336956
0.338247
0.33916
0.339599
0.339746
0.339808
0.339806
0.339485
0.337786
0.332258
0.320511
0.301329
0.280424
0.268881
0.265391
0.263497
0.26075
0.257827
0.326401
0.326925
0.327779
0.32886
0.3301
0.331506
0.333027
0.33465
0.336362
0.338092
0.339714
0.341077
0.342014
0.342484
0.342732
0.34301
0.343339
0.343381
0.341884
0.33647
0.324964
0.305713
0.284052
0.270803
0.26668
0.26497
0.262312
0.259057
0.328027
0.328529
0.329415
0.330532
0.331827
0.333311
0.334918
0.336627
0.338434
0.340251
0.341932
0.34331
0.344226
0.344702
0.345037
0.345516
0.346118
0.346377
0.344969
0.339909
0.329454
0.311991
0.289949
0.274132
0.269033
0.26736
0.264149
0.259468
0.329429
0.329914
0.330816
0.331944
0.333268
0.3348
0.336455
0.338208
0.340064
0.341915
0.3436
0.344939
0.345797
0.346258
0.346666
0.3473
0.348066
0.348382
0.346992
0.342385
0.333427
0.318747
0.297518
0.27974
0.272404
0.27087
0.265331
0.256177
0.330555
0.331006
0.331856
0.332964
0.334289
0.335837
0.337506
0.339264
0.341125
0.342963
0.344603
0.345863
0.346641
0.347078
0.347537
0.348259
0.349074
0.349351
0.347936
0.343702
0.335981
0.323852
0.305773
0.28745
0.275199
0.271297
0.264582
0.251626
0.331403
0.331818
0.332594
0.333676
0.334988
0.336529
0.338189
0.339931
0.341769
0.343562
0.34513
0.346295
0.346995
0.347413
0.347907
0.348665
0.349466
0.349651
0.348202
0.344268
0.337427
0.327125
0.312514
0.295699
0.282651
0.273532
0.263945
0.251098
0.332031
0.332432
0.333172
0.334233
0.335521
0.337039
0.338671
0.340375
0.342164
0.343889
0.345361
0.346419
0.347036
0.347429
0.34793
0.348674
0.349406
0.34946
0.347979
0.344334
0.338285
0.329553
0.317761
0.303909
0.292777
0.282843
0.267032
0.250082
0.313031
0.331059
0.344365
0.355095
0.364712
0.373557
0.381431
0.388035
0.393201
0.39571
0.395494
0.395189
0.319878
0.331854
0.342961
0.352656
0.361643
0.37004
0.377772
0.384642
0.390313
0.393924
0.395077
0.395056
0.323895
0.332997
0.342041
0.350635
0.358842
0.366631
0.373923
0.380593
0.38645
0.391164
0.394011
0.394439
0.325708
0.332953
0.340476
0.348029
0.355474
0.362668
0.369493
0.375819
0.381573
0.386789
0.390853
0.392239
0.325971
0.331859
0.338283
0.344969
0.351701
0.358302
0.364634
0.370565
0.376058
0.381243
0.385695
0.387732
0.325068
0.330019
0.335612
0.341563
0.347649
0.353684
0.359517
0.365011
0.370126
0.374992
0.379304
0.381465
0.323461
0.327723
0.332629
0.337937
0.343434
0.348933
0.354273
0.35931
0.363975
0.368347
0.372214
0.374239
0.321397
0.325114
0.329446
0.33419
0.339151
0.344144
0.349005
0.353581
0.357771
0.361595
0.3649
0.366658
0.319043
0.322314
0.32616
0.330407
0.334879
0.339399
0.3438
0.347924
0.351647
0.354936
0.357678
0.35913
0.316521
0.31942
0.322848
0.326656
0.330683
0.334764
0.338732
0.342428
0.345711
0.348513
0.350747
0.351902
0.313926
0.316508
0.319572
0.322991
0.326617
0.330294
0.333862
0.337159
0.340041
0.342417
0.34422
0.345112
0.311325
0.313634
0.316383
0.319457
0.322723
0.326034
0.329235
0.332171
0.334694
0.336708
0.338154
0.338826
0.308771
0.310845
0.313318
0.316088
0.319033
0.322015
0.324887
0.327499
0.329709
0.331418
0.332577
0.333071
0.306301
0.308173
0.310406
0.31291
0.315572
0.318262
0.320841
0.323168
0.325108
0.326563
0.327492
0.327846
0.303946
0.305643
0.307669
0.309941
0.312355
0.314789
0.317113
0.319191
0.3209
0.322146
0.322893
0.323141
0.301724
0.303272
0.305122
0.307195
0.309396
0.311608
0.313709
0.315575
0.317088
0.318164
0.318769
0.318937
0.299652
0.301075