/*--------------------------------*- C++ -*----------------------------------*\
| =========                 |                                                 |
| \\      /  F ield         | OpenFOAM: The Open Source CFD Toolbox           |
|  \\    /   O peration     | Version:  2012                                  |
|   \\  /    A nd           | Website:  www.openfoam.com                      |
|    \\/     M anipulation  |                                                 |
\*---------------------------------------------------------------------------*/
FoamFile
{
    version     2.0;
    format      ascii;
    class       surfaceScalarField;
    location    "672";
    object      phi;
}
// * * * * * * * * * * * * * * * * * * * * * * * * * * * * * * * * * * * * * //

dimensions      [0 3 -1 0 0 0 0];
oriented        oriented;


internalField   nonuniform List<scalar> 
11933
(
-0.000198721
7.43291e-08
0.000198646
-0.000198787
6.61226e-08
-0.000198848
6.10139e-08
-0.000198906
5.81546e-08
-0.000198963
5.68029e-08
-0.000199019
5.64232e-08
-0.000199076
5.6781e-08
-0.000199134
5.76752e-08
-0.000199193
5.90185e-08
-0.000199254
6.08008e-08
-0.000199317
6.30536e-08
-0.000199382
6.58383e-08
-0.000199452
6.92236e-08
-0.000199525
7.32233e-08
-0.000199603
7.77201e-08
-0.000199685
8.22787e-08
-0.000199771
8.60227e-08
-0.00019986
8.89524e-08
-0.000199946
8.63007e-08
5.37895e-08
-0.000199948
9.38849e-08
0.000199928
-0.00019996
7.851e-08
-0.000199968
6.91019e-08
-0.000199974
6.3775e-08
-0.000199978
6.1072e-08
-0.000199982
5.99491e-08
-0.000199985
5.99778e-08
-0.000199988
6.08038e-08
-0.000199991
6.22499e-08
-0.000199995
6.42659e-08
-0.000199998
6.68638e-08
-0.000200003
7.00885e-08
-0.000200007
7.39751e-08
-0.000200013
7.84585e-08
-0.000200018
8.3198e-08
-0.000200023
8.73275e-08
-0.000200027
8.99473e-08
-0.000200028
8.93839e-08
-0.000200017
7.60983e-08
3.63886e-08
-0.000200293
9.4156e-08
0.000200293
-0.000200288
7.28842e-08
-0.000200279
6.01561e-08
-0.000200268
5.29718e-08
-0.000200256
4.91763e-08
-0.000200243
4.74018e-08
-0.00020023
4.6925e-08
-0.000200217
4.72963e-08
-0.000200203
4.83046e-08
-0.000200188
4.98543e-08
-0.000200173
5.19189e-08
-0.000200158
5.45006e-08
-0.000200142
5.75903e-08
-0.000200124
6.11175e-08
-0.000200106
6.47242e-08
-0.000200086
6.71408e-08
-0.000200064
6.79839e-08
-0.000200039
6.49002e-08
-0.000200014
5.15032e-08
2.19282e-08
-0.000200447
8.12047e-08
0.00020046
-0.000200431
5.60523e-08
-0.000200412
4.1583e-08
-0.000200393
3.36597e-08
-0.000200373
2.93865e-08
-0.000200353
2.72174e-08
-0.000200332
2.62593e-08
-0.000200311
2.60482e-08
-0.000200289
2.63508e-08
-0.000200266
2.70494e-08
-0.000200242
2.80906e-08
-0.000200217
2.94485e-08
-0.000200191
3.10959e-08
-0.000200162
3.29602e-08
-0.000200133
3.47539e-08
-0.000200101
3.58448e-08
-0.000200069
3.58903e-08
-0.000200038
3.3364e-08
-0.000200012
2.55128e-08
1.0329e-08
-0.00020052
5.58681e-08
0.000200545
-0.000200494
3.00963e-08
-0.000200469
1.62674e-08
-0.000200445
9.31923e-09
-0.000200421
5.52345e-09
-0.000200397
3.41233e-09
-0.000200373
2.16197e-09
-0.000200348
1.3928e-09
-0.000200323
9.06323e-10
-0.000200296
5.92882e-10
-0.000200268
3.88692e-10
-0.000200239
2.54811e-10
-0.000200208
1.66773e-10
-0.000200176
1.09025e-10
-0.000200141
7.14439e-11
-0.000200105
4.65312e-11
-0.000200069
2.9356e-11
-0.000200036
1.74792e-11
-0.00020001
9.11413e-12
3.01258e-12
-0.000200537
1.5706e-08
0.000200577
-0.000200503
-3.75067e-09
-0.000200473
-1.35989e-08
-0.000200447
-1.7248e-08
-0.000200422
-1.94498e-08
-0.000200398
-2.09558e-08
-0.000200373
-2.22353e-08
-0.000200348
-2.34314e-08
-0.000200323
-2.46379e-08
-0.000200296
-2.59249e-08
-0.000200269
-2.73519e-08
-0.000200239
-2.89637e-08
-0.000200208
-3.07786e-08
-0.000200176
-3.27529e-08
-0.000200141
-3.46179e-08
-0.000200105
-3.5756e-08
-0.000200069
-3.58345e-08
-0.000200036
-3.33309e-08
-0.00020001
-2.5496e-08
-1.03234e-08
-0.000200495
-4.72299e-08
0.000200558
-0.000200456
-4.32019e-08
-0.000200424
-4.48651e-08
-0.000200399
-4.25182e-08
-0.000200376
-4.21561e-08
-0.000200355
-4.26307e-08
-0.000200333
-4.37091e-08
-0.000200312
-4.51424e-08
-0.000200289
-4.68698e-08
-0.000200266
-4.89029e-08
-0.000200242
-5.12903e-08
-0.000200217
-5.40869e-08
-0.000200191
-5.73193e-08
-0.000200163
-6.09411e-08
-0.000200133
-6.46083e-08
-0.000200101
-6.70645e-08
-0.000200069
-6.79361e-08
-0.000200038
-6.4872e-08
-0.000200012
-5.14905e-08
-2.19242e-08
-0.000200357
-1.38928e-07
0.000200448
-0.00020032
-7.95085e-08
-0.000200294
-7.08951e-08
-0.000200276
-6.06137e-08
-0.000200261
-5.75955e-08
-0.000200246
-5.70604e-08
-0.000200232
-5.78465e-08
-0.000200218
-5.92999e-08
-0.000200204
-6.12194e-08
-0.000200189
-6.3573e-08
-0.000200174
-6.64025e-08
-0.000200158
-6.9784e-08
-0.000200142
-7.37758e-08
-0.000200124
-7.83287e-08
-0.000200106
-8.31126e-08
-0.000200086
-8.72716e-08
-0.000200064
-8.99123e-08
-0.000200039
-8.93617e-08
-0.000200014
-7.60917e-08
-3.63867e-08
-0.000199995
-2.69474e-07
0.000200126
-0.000199982
-9.2442e-08
-0.00019998
-7.29439e-08
-0.000199981
-5.96023e-08
-0.000199983
-5.59671e-08
-0.000199985
-5.52145e-08
-0.000199987
-5.5729e-08
-0.000199989
-5.68863e-08
-0.000199992
-5.84655e-08
-0.000199995
-6.04245e-08
-0.000199999
-6.28011e-08
-0.000200003
-6.56712e-08
-0.000200008
-6.91145e-08
-0.000200013
-7.31523e-08
-0.000200018
-7.76737e-08
-0.000200023
-8.22486e-08
-0.000200027
-8.60035e-08
-0.000200028
-8.89395e-08
-0.000200017
-8.62994e-08
-5.3789e-08
-0.000198687
0.000198417
-0.000198779
-0.000198852
-0.000198912
-0.000198968
-0.000199023
-0.000199079
-0.000199135
-0.000199194
-0.000199254
-0.000199317
-0.000199383
-0.000199452
-0.000199525
-0.000199603
-0.000199685
-0.000199771
-0.00019986
-0.000199946
-0.000195187
9.67764e-07
0.000194219
-0.000195963
7.75934e-07
-0.00019658
6.17814e-07
-0.000197069
4.88862e-07
-0.000197455
3.85271e-07
-0.000197758
3.03319e-07
-0.000197997
2.39297e-07
-0.000198187
1.89798e-07
-0.000198339
1.51891e-07
-0.000198462
1.22936e-07
-0.000198563
1.0076e-07
8.39153e-08
-0.000197326
1.79795e-06
0.000196496
-0.000197982
1.43174e-06
-0.000198493
1.12838e-06
-0.000198885
8.81233e-07
-0.000199183
6.83542e-07
-0.000199408
5.27903e-07
-0.000199576
4.06831e-07
-0.000199699
3.13452e-07
-0.000199789
2.42026e-07
-0.000199854
1.87502e-07
-0.000199899
1.45466e-07
1.13505e-07
-0.000198033
2.57823e-06
0.000197253
-0.000198642
2.04044e-06
-0.000199108
1.59501e-06
-0.00019946
1.23315e-06
-0.000199721
9.44951e-07
-0.000199913
7.1932e-07
-0.000200051
5.44768e-07
-0.000200148
4.10648e-07
-0.000200214
3.08377e-07
-0.000200258
2.30649e-07
-0.000200282
1.70417e-07
1.239e-07
-0.000198472
3.32043e-06
0.00019773
-0.000199043
2.61148e-06
-0.000199473
2.02524e-06
-0.000199791
1.55066e-06
-0.00020002
1.17486e-06
-0.000200184
8.82827e-07
-0.000200298
6.58617e-07
-0.000200374
4.87185e-07
-0.000200423
3.56939e-07
-0.000200451
2.58775e-07
-0.000200463
1.82268e-07
1.21315e-07
-0.000198776
4.03375e-06
0.000198063
-0.000199318
3.15339e-06
-0.00019972
2.42659e-06
-0.000200009
1.84006e-06
-0.000200213
1.37863e-06
-0.000200353
1.02316e-06
-0.000200447
7.52811e-07
-0.000200507
5.47134e-07
-0.000200541
3.90899e-07
-0.000200557
2.74611e-07
-0.000200559
1.83952e-07
1.07981e-07
-0.000198856
4.74487e-06
0.000198145
-0.000199396
3.69388e-06
-0.000199796
2.82606e-06
-0.000200081
2.12548e-06
-0.00020028
1.57746e-06
-0.000200416
1.15884e-06
-0.000200506
8.43279e-07
-0.000200563
6.03527e-07
-0.000200591
4.18932e-07
-0.0002006
2.84018e-07
-0.000200599
1.82681e-07
8.65198e-08
-0.000198378
5.52639e-06
0.000197596
-0.000198985
4.30081e-06
-0.00019945
3.29142e-06
-0.000199798
2.47335e-06
-0.000200055
1.83497e-06
-0.000200245
1.34835e-06
-0.000200383
9.81187e-07
-0.000200479
7.00201e-07
-0.000200534
4.73914e-07
-0.000200559
3.08403e-07
-0.000200581
2.04379e-07
6.40341e-08
-0.000196311
6.53618e-06
0.000195301
-0.000197171
5.16066e-06
-0.00019789
4.01042e-06
-0.000198476
3.05974e-06
-0.000198967
2.32549e-06
-0.000199385
1.7663e-06
-0.000199733
1.32938e-06
-0.000200018
9.85078e-07
-0.000200227
6.83177e-07
-0.000200354
4.35468e-07
-0.000200456
3.06124e-07
5.64824e-08
-0.000189573
7.96517e-06
0.000188144
-0.000190967
6.55457e-06
-0.000192308
5.35137e-06
-0.00019358
4.33256e-06
-0.000194816
3.5607e-06
-0.000196005
2.95545e-06
-0.000197092
2.41635e-06
-0.000198056
1.94919e-06
-0.000198867
1.49406e-06
-0.00019943
9.98755e-07
-0.000199767
6.43493e-07
4.14976e-07
-0.000168875
0.000167911
8.929e-06
-0.000170177
7.85653e-06
-0.000171832
7.00718e-06
-0.000173848
6.34831e-06
-0.000176229
5.94115e-06
-0.000178951
5.67757e-06
-0.000181962
5.42725e-06
-0.000185189
5.1769e-06
-0.000188519
4.82411e-06
-0.000191526
4.00488e-06
-0.000193694
2.81192e-06
5.13815e-06
7.18781e-06
-7.18782e-06
8.72451e-06
-1.5367e-06
5.70172e-06
3.02278e-06
-5.71886e-07
6.2736e-06
-1.12108e-05
1.06389e-05
-2.64787e-05
1.52679e-05
-4.36824e-05
1.72037e-05
-6.02022e-05
1.65198e-05
-7.52477e-05
1.50455e-05
-8.89804e-05
1.37327e-05
-0.00010154
1.25597e-05
-0.000113031
1.14912e-05
-0.000123534
1.05026e-05
-0.000133109
9.57523e-06
-0.000141806
8.69649e-06
-0.000149665
7.85905e-06
-0.000156725
7.05976e-06
-0.000163023
6.29863e-06
-0.000168601
5.57767e-06
-0.000173501
4.90001e-06
-0.00017777
4.26923e-06
-0.000181459
3.68877e-06
-0.000184618
3.15958e-06
-0.000187299
2.68064e-06
-0.000189551
2.2516e-06
-0.000191423
1.87193e-06
-0.000192963
1.54053e-06
1.25581e-06
4.05486e-06
-1.12427e-05
1.77384e-06
7.44316e-07
-5.17398e-06
9.9706e-06
-1.7297e-05
1.83966e-05
-3.27739e-05
2.61158e-05
-4.82829e-05
3.07769e-05
-6.24052e-05
3.1326e-05
-7.55893e-05
2.97039e-05
-8.8242e-05
2.76982e-05
-0.000100167
2.56574e-05
-0.000111297
2.36899e-05
-0.000121632
2.18265e-05
-0.000131184
2.00547e-05
-0.000139967
1.83582e-05
-0.000147995
1.67246e-05
-0.000155284
1.5148e-05
-0.000161853
1.36284e-05
-0.000167725
1.21708e-05
-0.00017293
1.07825e-05
-0.000177502
9.4721e-06
-0.00018148
8.24763e-06
-0.000184907
7.11519e-06
-0.000187826
6.07893e-06
-0.000190287
5.14112e-06
-0.000192337
4.30206e-06
-0.000194025
3.56033e-06
-0.000195398
2.91297e-06
2.35415e-06
-1.23997e-06
-1.00027e-05
-7.73912e-06
7.24345e-06
-1.84156e-05
2.0647e-05
-3.21412e-05
3.21223e-05
-4.62328e-05
4.02074e-05
-5.90384e-05
4.35825e-05
-7.09382e-05
4.32258e-05
-8.257e-05
4.13356e-05
-9.39016e-05
3.90298e-05
-0.000104786
3.65419e-05
-0.000115135
3.40387e-05
-0.000124884
3.15755e-05
-0.000133993
2.91634e-05
-0.000142435
2.68009e-05
-0.000150197
2.44863e-05
-0.000157272
2.2223e-05
-0.000163664
2.00204e-05
-0.000169385
1.78922e-05
-0.000174458
1.58548e-05
-0.00017891
1.39246e-05
-0.000182779
1.21162e-05
-0.000186105
1.04412e-05
-0.000188933
8.90742e-06
-0.000191311
7.51917e-06
-0.000193286
6.27712e-06
-0.000194905
5.17914e-06
-0.000196213
4.22057e-06
3.39383e-06
-6.55943e-06
-3.44329e-06
-1.63108e-05
1.69949e-05
-2.86586e-05
3.29948e-05
-4.18134e-05
4.5277e-05
-5.39952e-05
5.23892e-05
-6.5082e-05
5.46693e-05
-7.58508e-05
5.39947e-05
-8.65915e-05
5.20763e-05
-9.71603e-05
4.95986e-05
-0.000107438
4.68197e-05
-0.00011732
4.39207e-05
-0.000126719
4.09741e-05
-0.000135568
3.80124e-05
-0.000143819
3.50516e-05
-0.000151437
3.21048e-05
-0.000158403
2.91887e-05
-0.000164708
2.63256e-05
-0.000170357
2.35413e-05
-0.000175366
2.08638e-05
-0.000179761
1.83193e-05
-0.000183575
1.59309e-05
-0.00018685
1.37162e-05
-0.00018963
1.16873e-05
-0.000191961
9.8505e-06
-0.000193891
8.20697e-06
-0.000195466
6.75395e-06
-0.000196731
5.48544e-06
4.3924e-06
-1.05323e-05
7.08904e-06
-2.24809e-05
2.89435e-05
-3.52687e-05
4.57826e-05
-4.74507e-05
5.74591e-05
-5.84071e-05
6.33456e-05
-6.86948e-05
6.4957e-05
-7.89123e-05
6.42121e-05
-8.91357e-05
6.22998e-05
-9.92498e-05
5.97127e-05
-0.000109153
5.6723e-05
-0.000118739
5.35062e-05
-0.000127913
5.01481e-05
-0.000136598
4.66974e-05
-0.000144731
4.3185e-05
-0.000152266
3.96394e-05
-0.000159169
3.60925e-05
-0.000165426
3.25817e-05
-0.000171032
2.91481e-05
-0.000176002
2.58333e-05
-0.000180358
2.26759e-05
-0.000184136
1.97082e-05
-0.000187374
1.69549e-05
-0.000190119
1.44323e-05
-0.000192418
1.21486e-05
-0.000194316
1.01051e-05
-0.00019586
8.2981e-06
-0.000197095
6.72019e-06
5.36095e-06
-1.313e-05
2.0219e-05
-2.63579e-05
4.21714e-05
-3.90361e-05
5.84608e-05
-5.04614e-05
6.88843e-05
-6.08267e-05
7.37109e-05
-7.08047e-05
7.49351e-05
-8.07565e-05
7.41638e-05
-9.06907e-05
7.22341e-05
-0.000100534
6.95562e-05
-0.000110202
6.63911e-05
-0.000119597
6.29009e-05
-0.000128626
5.91766e-05
-0.000137204
5.52755e-05
-0.000145259
5.12407e-05
-0.000152735
4.71149e-05
-0.000159589
4.29466e-05
-0.000165799
3.87914e-05
-0.000171359
3.47084e-05
-0.000176282
3.07558e-05
-0.000180592
2.69862e-05
-0.000184326
2.34426e-05
-0.000187528
2.01567e-05
-0.000190244
1.71482e-05
-0.000192521
1.44261e-05
-0.000194407
1.19908e-05
-0.000195945
9.83624e-06
-0.000197178
7.95267e-06
6.32795e-06
-1.46551e-05
3.48741e-05
-2.84127e-05
5.5929e-05
-4.082e-05
7.0868e-05
-5.18226e-05
7.98869e-05
-6.19821e-05
8.38705e-05
-7.18677e-05
8.48206e-05
-8.1694e-05
8.39901e-05
-9.14688e-05
8.20089e-05
-0.000101149
7.92367e-05
-0.000110666
7.59078e-05
-0.000119931
7.21662e-05
-0.000128853
6.80986e-05
-0.000137342
6.37646e-05
-0.000145318
5.92161e-05
-0.000152713
5.451e-05
-0.00015948
4.97139e-05
-0.000165594
4.49051e-05
-0.00017105
4.01649e-05
-0.000175866
3.55719e-05
-0.000180075
3.11948e-05
-0.00018372
2.7088e-05
-0.000186853
2.32894e-05
-0.000189525
1.98205e-05
-0.000191788
1.66887e-05
-0.000193687
1.38898e-05
-0.000195264
1.1413e-05
-0.000196556
9.24462e-06
7.36855e-06
-1.55069e-05
5.0381e-05
-2.92078e-05
6.96299e-05
-4.13254e-05
8.29856e-05
-5.21365e-05
9.0698e-05
-6.2264e-05
9.3998e-05
-7.21349e-05
9.46916e-05
-8.18978e-05
9.37529e-05
-9.15761e-05
9.16872e-05
-0.000101146
8.88061e-05
-0.000110547
8.53097e-05
-0.000119699
8.1318e-05
-0.000128506
7.69055e-05
-0.00013687
7.21285e-05
-0.000144699
6.70455e-05
-0.000151919
6.17293e-05
-0.000158476
5.62712e-05
-0.000164347
5.07764e-05
-0.000169538
4.53551e-05
-0.000174077
4.01116e-05
-0.000178017
3.51344e-05
-0.00018142
3.04907e-05
-0.000184354
2.62233e-05
-0.000186886
2.23526e-05
-0.000189077
1.88801e-05
-0.00019098
1.57924e-05
-0.000192634
1.3067e-05
-0.000194067
1.06778e-05
8.60282e-06
-1.56731e-05
6.60541e-05
-2.91506e-05
8.31074e-05
-4.10279e-05
9.48629e-05
-5.17537e-05
0.000101424
-6.18921e-05
0.000104136
-7.17569e-05
0.000104556
-8.14695e-05
0.000103466
-9.1066e-05
0.000101284
-0.000100531
9.8271e-05
-0.000109808
9.45864e-05
-0.00011881
9.03199e-05
-0.00012743
8.5526e-05
-0.000135555
8.02532e-05
-0.000143075
7.45657e-05
-0.000149902
6.85567e-05
-0.00015598
6.23489e-05
-0.00016129
5.60861e-05
-0.000165853
4.99181e-05
-0.000169725
4.39834e-05
-0.000172987
3.83966e-05
-0.000175736
3.32395e-05
-0.000178073
2.85602e-05
-0.000180096
2.43759e-05
-0.000181895
2.06791e-05
-0.000183546
1.74439e-05
-0.000185112
1.46324e-05
-0.000186636
1.22019e-05
1.01108e-05
-1.53109e-05
8.1365e-05
-2.85263e-05
9.63229e-05
-4.02143e-05
0.000106551
-5.08755e-05
0.000112085
-6.10009e-05
0.000114262
-7.08303e-05
0.000114386
-8.04708e-05
0.000113106
-8.99612e-05
0.000110774
-9.92846e-05
0.000107594
-0.000108375
0.000103677
-0.000117128
9.90724e-05
-0.000125409
9.38079e-05
-0.000133075
8.79193e-05
-0.000139988
8.14787e-05
-0.000146039
7.46075e-05
-0.000151164
6.74739e-05
-0.000155355
6.02765e-05
-0.000158655
5.32187e-05
-0.000161155
4.64834e-05
-0.000162973
4.02147e-05
-0.000164243
3.45087e-05
-0.000165097
2.94149e-05
-0.000165665
2.49433e-05
-0.000166061
2.10752e-05
-0.00016639
1.77734e-05
-0.000166749
1.49913e-05
-0.000167227
1.26793e-05
1.0795e-05
-0.000129763
4.77796e-06
0.000133914
-0.000125079
3.17227e-06
-0.000119749
1.67682e-06
-0.000113677
2.76353e-07
-0.000106663
-1.07257e-06
-9.83932e-05
-2.59227e-06
-8.8675e-05
-4.29097e-06
-7.74032e-05
-6.09494e-06
-6.4826e-05
-7.75305e-06
-5.14382e-05
-9.38292e-06
-3.39226e-05
-1.47038e-05
-2.87844e-05
-7.94203e-05
-2.31851e-06
8.65168e-05
-7.18835e-05
-4.36449e-06
-6.38815e-05
-6.32525e-06
-5.54917e-05
-8.11345e-06
-4.687e-05
-9.69422e-06
-3.81119e-05
-1.13504e-05
-2.92522e-05
-1.31506e-05
-2.04944e-05
-1.48528e-05
-1.20555e-05
-1.61919e-05
-3.78873e-06
-1.76497e-05
2.53894e-06
-2.10314e-05
-2.62455e-05
-4.70275e-05
-8.41233e-06
5.31213e-05
-4.11253e-05
-1.02667e-05
-3.54734e-05
-1.19771e-05
-3.0029e-05
-1.35579e-05
-2.47175e-05
-1.50057e-05
-1.96028e-05
-1.64651e-05
-1.48442e-05
-1.79092e-05
-1.04824e-05
-1.92146e-05
-6.29708e-06
-2.03772e-05
-2.18356e-06
-2.17632e-05
6.60438e-07
-2.38754e-05
-2.5585e-05
-3.34952e-05
-1.20267e-05
3.71095e-05
-3.00341e-05
-1.37278e-05
-2.66794e-05
-1.53318e-05
-2.33706e-05
-1.68667e-05
-2.00554e-05
-1.83209e-05
-1.67897e-05
-1.97308e-05
-1.36e-05
-2.1099e-05
-1.04122e-05
-2.24025e-05
-7.124e-06
-2.36654e-05
-3.85577e-06
-2.50314e-05
-1.19043e-06
-2.65408e-05
-2.67755e-05
-2.92378e-05
-1.43335e-05
3.15446e-05
-2.68615e-05
-1.61041e-05
-2.44013e-05
-1.7792e-05
-2.18474e-05
-1.94206e-05
-1.91794e-05
-2.09888e-05
-1.64084e-05
-2.25018e-05
-1.35534e-05
-2.3954e-05
-1.06134e-05
-2.53425e-05
-7.58938e-06
-2.66894e-05
-4.59677e-06
-2.8024e-05
-1.95567e-06
-2.91819e-05
-2.87311e-05
-2.74494e-05
-1.61598e-05
2.92756e-05
-2.54677e-05
-1.80858e-05
-2.33249e-05
-1.99347e-05
-2.10318e-05
-2.17138e-05
-1.85938e-05
-2.34268e-05
-1.60226e-05
-2.50729e-05
-1.33367e-05
-2.664e-05
-1.05582e-05
-2.81209e-05
-7.72991e-06
-2.95177e-05
-4.9442e-06
-3.08097e-05
-2.34678e-06
-3.17793e-05
-3.10779e-05
-2.61591e-05
-1.77864e-05
2.77858e-05
-2.43504e-05
-1.98945e-05
-2.23628e-05
-2.19223e-05
-2.02083e-05
-2.38682e-05
-1.79039e-05
-2.57312e-05
-1.5471e-05
-2.75059e-05
-1.29321e-05
-2.91788e-05
-1.03154e-05
-3.07377e-05
-7.66364e-06
-3.21695e-05
-5.03895e-06
-3.34344e-05
-2.49795e-06
-3.43203e-05
-3.35759e-05
-2.4937e-05
-1.93074e-05
2.6458e-05
-2.32284e-05
-2.16031e-05
-2.13427e-05
-2.38081e-05
-1.92952e-05
-2.59157e-05
-1.71069e-05
-2.79195e-05
-1.48023e-05
-2.98105e-05
-1.2406e-05
-3.15751e-05
-9.9451e-06
-3.31986e-05
-7.45353e-06
-3.46611e-05
-4.97064e-06
-3.59173e-05
-2.5137e-06
-3.67772e-05
-3.60896e-05
-2.36946e-05
-2.07547e-05
2.51419e-05
-2.20638e-05
-2.32339e-05
-2.02642e-05
-2.56077e-05
-1.83144e-05
-2.78655e-05
-1.62369e-05
-2.99971e-05
-1.40561e-05
-3.19913e-05
-1.17964e-05
-3.38348e-05
-9.48238e-06
-3.55126e-05
-7.14002e-06
-3.70034e-05
-4.79423e-06
-3.82631e-05
-2.44637e-06
-3.91251e-05
-3.85359e-05
-2.24238e-05
-2.21398e-05
2.38088e-05
-2.08634e-05
-2.47943e-05
-1.91445e-05
-2.73265e-05
-1.72876e-05
-2.97223e-05
-1.53158e-05
-3.19689e-05
-1.32534e-05
-3.40537e-05
-1.1124e-05
-3.59642e-05
-8.94998e-06
-3.76867e-05
-6.75166e-06
-3.92017e-05
-4.54536e-06
-4.04694e-05
-2.32717e-06
-4.13433e-05
-4.08631e-05
-2.11287e-05
-2.34675e-05
2.24564e-05
-1.9635e-05
-2.6288e-05
-1.79935e-05
-2.8968e-05
-1.62255e-05
-3.14903e-05
-1.43548e-05
-3.38396e-05
-1.24058e-05
-3.60027e-05
-1.04019e-05
-3.79681e-05
-8.36376e-06
-3.97248e-05
-6.30832e-06
-4.12572e-05
-4.24684e-06
-4.25309e-05
-2.17448e-06
-4.34157e-05
-4.30376e-05
-1.98112e-05
-2.47411e-05
2.10848e-05
-1.83814e-05
-2.77178e-05
-1.68143e-05
-3.05352e-05
-1.51319e-05
-3.31727e-05
-1.33586e-05
-3.56129e-05
-1.15195e-05
-3.78418e-05
-9.63808e-06
-3.98496e-05
-7.73436e-06
-4.16285e-05
-5.82325e-06
-4.31683e-05
-3.91303e-06
-4.44411e-05
-1.99931e-06
-4.53294e-05
-4.50369e-05
-1.84698e-05
-2.59634e-05
1.96921e-05
-1.71014e-05
-2.90862e-05
-1.56061e-05
-3.20305e-05
-1.40067e-05
-3.47721e-05
-1.23284e-05
-3.72911e-05
-1.05972e-05
-3.9573e-05
-8.8371e-06
-4.16096e-05
-7.06828e-06
-4.33973e-05
-5.30464e-06
-4.49319e-05
-3.55259e-06
-4.61931e-05
-1.80814e-06
-4.70738e-05
-4.6845e-05
-1.71006e-05
-2.71371e-05
1.82744e-05
-1.57911e-05
-3.03957e-05
-1.43655e-05
-3.34561e-05
-1.28473e-05
-3.62903e-05
-1.12627e-05
-3.88757e-05
-9.63868e-06
-4.11971e-05
-8.00044e-06
-4.32479e-05
-6.36864e-06
-4.50291e-05
-4.75689e-06
-4.65437e-05
-3.1703e-06
-4.77797e-05
-1.60461e-06
-4.86395e-05
-4.84496e-05
-1.56982e-05
-2.82654e-05
1.68265e-05
-1.44452e-05
-3.16487e-05
-1.30875e-05
-3.48137e-05
-1.16494e-05
-3.77285e-05
-1.0158e-05
-4.03671e-05
-8.64181e-06
-4.27133e-05
-7.12728e-06
-4.47624e-05
-5.63596e-06
-4.65204e-05
-4.18159e-06
-4.79981e-05
-2.76823e-06
-4.91931e-05
-1.39048e-06
-5.00173e-05
-4.98401e-05
-1.42567e-05
-2.93516e-05
1.53429e-05
-1.30576e-05
-3.28477e-05
-1.17662e-05
-3.61052e-05
-1.04073e-05
-3.90873e-05
-9.00958e-06
-4.17648e-05
-7.60277e-06
-4.41201e-05
-6.21494e-06
-4.61502e-05
-4.86873e-06
-4.78666e-05
-3.57821e-06
-4.92886e-05
-2.34655e-06
-5.04247e-05
-1.16622e-06
-5.11976e-05
-5.10063e-05
-1.27696e-05
-3.03996e-05
1.38175e-05
-1.16216e-05
-3.39957e-05
-1.03947e-05
-3.73321e-05
-9.11474e-06
-4.03673e-05
-7.81152e-06
-4.3068e-05
-6.51647e-06
-4.54151e-05
-5.25926e-06
-4.74075e-05
-4.06381e-06
-4.90621e-05
-2.94465e-06
-5.04077e-05
-1.90419e-06
-5.14652e-05
-9.31615e-07
-5.21702e-05
-5.1938e-05
-1.123e-05
-3.14136e-05
1.22441e-05
-1.013e-05
-3.50957e-05
-8.96588e-06
-3.84962e-05
-7.76454e-06
-4.15686e-05
-6.55716e-06
-4.42754e-05
-5.37685e-06
-4.65954e-05
-4.255e-06
-4.85293e-05
-3.21685e-06
-5.01002e-05
-2.27748e-06
-5.13471e-05
-1.43891e-06
-5.23038e-05
-6.87726e-07
-5.29214e-05
-5.26257e-05
-9.63113e-06
-3.23988e-05
1.06163e-05
-8.57547e-06
-3.61513e-05
-7.47211e-06
-3.95996e-05
-6.34914e-06
-4.26916e-05
-5.23918e-06
-4.53854e-05
-4.1771e-06
-4.76575e-05
-3.19604e-06
-4.95104e-05
-2.3226e-06
-5.09737e-05
-1.57235e-06
-5.20974e-05
-9.46441e-07
-5.29297e-05
-4.2762e-07
-5.34402e-05
-5.30533e-05
-7.96582e-06
-3.33608e-05
8.9278e-06
-6.95037e-06
-3.71668e-05
-5.90548e-06
-4.06445e-05
-4.86057e-06
-4.37365e-05
-3.84983e-06
-4.63961e-05
-2.9099e-06
-4.85974e-05
-2.07567e-06
-5.03446e-05
-1.37515e-06
-5.16742e-05
-8.24441e-07
-5.26481e-05
-4.2412e-07
-5.333e-05
-1.55085e-07
-5.37092e-05
-5.32084e-05
-6.22676e-06
-3.43059e-05
7.17184e-06
-5.24689e-06
-3.81466e-05
-4.25785e-06
-4.16335e-05
-3.29062e-06
-4.47037e-05
-2.38105e-06
-4.73057e-05
-1.56755e-06
-4.94109e-05
-8.86801e-07
-5.10253e-05
-3.68142e-07
-5.21929e-05
-2.79765e-08
-5.29882e-05
1.34164e-07
-5.34921e-05
1.36229e-07
-5.37113e-05
-5.30722e-05
-4.40641e-06
-3.5241e-05
5.34152e-06
-3.457e-06
-3.90961e-05
-2.52089e-06
-4.25697e-05
-1.6309e-06
-4.55937e-05
-8.24625e-07
-4.81119e-05
-1.42178e-07
-5.00934e-05
3.77821e-07
-5.15453e-05
7.04796e-07
-5.25198e-05
8.21679e-07
-5.31051e-05
7.28752e-07
-5.33992e-05
4.41737e-07
-5.34243e-05
-5.26304e-05
-2.49695e-06
-3.61736e-05
3.42958e-06
-1.57248e-06
-4.00205e-05
-6.86187e-07
-4.34559e-05
1.26962e-07
-4.64069e-05
8.27584e-07
-4.88126e-05
1.37392e-06
-5.06397e-05
1.72511e-06
-5.18965e-05
1.84978e-06
-5.26445e-05
1.72971e-06
-5.2985e-05
1.36408e-06
-5.30336e-05
7.70029e-07
-5.28302e-05
-5.18604e-05
-4.90368e-07
-3.71117e-05
1.42844e-06
4.1498e-07
-4.09259e-05
1.25461e-06
-4.42956e-05
1.99105e-06
-4.71433e-05
2.58303e-06
-4.94045e-05
2.98756e-06
-5.10443e-05
3.1621e-06
-5.20711e-05
3.0734e-06
-5.25558e-05
2.70361e-06
-5.26152e-05
2.05065e-06
-5.23806e-05
1.13439e-06
-5.19139e-05
-5.0726e-05
1.62142e-06
-3.80634e-05
-6.69697e-07
2.51353e-06
-4.1818e-05
3.30952e-06
-4.50916e-05
3.96919e-06
-4.7803e-05
4.44918e-06
-4.98845e-05
4.70474e-06
-5.12998e-05
4.69438e-06
-5.20607e-05
4.37976e-06
-5.22412e-05
3.74746e-06
-5.19829e-05
2.78986e-06
-5.1423e-05
1.52421e-06
-5.06483e-05
-4.92018e-05
3.8464e-06
-3.9037e-05
-2.87277e-06
4.73116e-06
-4.27027e-05
5.48641e-06
-4.58468e-05
6.0688e-06
-4.83854e-05
6.4323e-06
-5.0248e-05
6.52695e-06
-5.13945e-05
6.31526e-06
-5.1849e-05
5.77129e-06
-5.16972e-05
4.866e-06
-5.10777e-05
3.58561e-06
-5.01426e-05
1.94517e-06
-4.90078e-05
-4.72566e-05
6.19247e-06
-4.00409e-05
-5.18866e-06
7.07562e-06
-4.35859e-05
7.7926e-06
-4.65638e-05
8.29585e-06
-4.88886e-05
8.53356e-06
-5.04857e-05
8.45999e-06
-5.13209e-05
8.04472e-06
-5.14337e-05
7.25985e-06
-5.09123e-05
6.06509e-06
-4.98829e-05
4.44191e-06
-4.85195e-05
2.40023e-06
-4.69662e-05
-4.48564e-05
8.66692e-06
-4.10828e-05
-7.62497e-06
9.55361e-06
-4.44726e-05
1.02343e-05
-4.72444e-05
1.06576e-05
-4.9312e-05
1.07658e-05
-5.05939e-05
1.05161e-05
-5.10712e-05
9.88661e-06
-5.08042e-05
8.84148e-06
-4.98672e-05
7.34345e-06
-4.83849e-05
5.35882e-06
-4.65348e-05
2.88982e-06
-4.44972e-05
-4.19666e-05
1.12758e-05
-4.21701e-05
-1.01884e-05
1.21701e-05
-4.5367e-05
1.28141e-05
-4.78885e-05
1.31489e-05
-4.96467e-05
1.31168e-05
-5.05619e-05
1.26822e-05
-5.06366e-05
1.1822e-05
-4.9944e-05
1.05081e-05
-4.85533e-05
8.69567e-06
-4.65725e-05
6.33161e-06
-4.41708e-05
3.41038e-06
-4.15759e-05
-3.85562e-05
1.40227e-05
-4.33087e-05
-1.28841e-05
1.49276e-05
-4.62719e-05
1.55359e-05
-4.84967e-05
1.57737e-05
-4.98845e-05
1.55826e-05
-5.03708e-05
1.49512e-05
-5.00051e-05
1.38471e-05
-4.884e-05
1.22505e-05
-4.69567e-05
1.01107e-05
-4.44326e-05
7.34754e-06
-4.14076e-05
3.95279e-06
-3.81812e-05
-3.46034e-05
1.69082e-05
-4.45022e-05
-1.57147e-05
1.78215e-05
-4.71852e-05
1.83826e-05
-4.90579e-05
1.85181e-05
-5.00199e-05
1.8173e-05
-5.00258e-05
1.73239e-05
-4.91561e-05
1.5953e-05
-4.7469e-05
1.40532e-05
-4.50569e-05
1.15636e-05
-4.1943e-05
8.37807e-06
-3.82221e-05
4.49681e-06
-3.42999e-05
-3.01066e-05
1.99316e-05
-4.57536e-05
-1.86802e-05
2.08516e-05
-4.81052e-05
2.13523e-05
-4.95586e-05
2.13705e-05
-5.00381e-05
2.08695e-05
-4.95247e-05
1.9785e-05
-4.80716e-05
1.81273e-05
-4.58113e-05
1.58943e-05
-4.28238e-05
1.30018e-05
-3.90506e-05
9.37119e-06
-3.45914e-05
5.0109e-06
-2.99396e-05
-2.50957e-05
2.30844e-05
-4.70637e-05
-2.17743e-05
2.40133e-05
-4.9034e-05
2.44653e-05
-5.00106e-05
2.43619e-05
-4.99348e-05
2.36611e-05
-4.88239e-05
2.23229e-05
-4.67334e-05
2.03677e-05
-4.38561e-05
1.77521e-05
-4.02082e-05
1.43709e-05
-3.56695e-05
1.02615e-05
-3.0482e-05
5.46825e-06
-2.51464e-05
-1.96274e-05
2.63432e-05
-4.84252e-05
-2.49817e-05
2.72691e-05
-4.99599e-05
2.76634e-05
-5.04048e-05
2.74317e-05
-4.97031e-05
2.65066e-05
-4.78988e-05
2.49132e-05
-4.514e-05
2.26493e-05
-4.15923e-05
1.95907e-05
-3.71495e-05
1.56742e-05
-3.1753e-05
1.10356e-05
-2.58433e-05
5.84508e-06
-1.99559e-05
-1.37824e-05
2.96738e-05
-4.98214e-05
-2.82776e-05
3.05699e-05
-5.0856e-05
3.08633e-05
-5.06982e-05
3.04705e-05
-4.93103e-05
2.9328e-05
-4.67564e-05
2.74727e-05
-4.32847e-05
2.48413e-05
-3.89608e-05
2.13042e-05
-3.36125e-05
1.68708e-05
-2.73196e-05
1.17038e-05
-2.06763e-05
6.0739e-06
-1.4326e-05
-7.70845e-06
3.30317e-05
-5.12268e-05
-3.16264e-05
3.3868e-05
-5.16922e-05
3.40292e-05
-5.08595e-05
3.3421e-05
-4.87021e-05
3.20266e-05
-4.5362e-05
2.98624e-05
-4.11205e-05
2.68059e-05
-3.59042e-05
2.27871e-05
-2.95937e-05
1.78726e-05
-2.24051e-05
1.22403e-05
-1.50439e-05
6.15061e-06
-8.23637e-06
-1.55784e-06
3.63476e-05
-5.25996e-05
-3.49748e-05
3.70709e-05
-5.24156e-05
3.70472e-05
-5.08358e-05
3.6177e-05
-4.78319e-05
3.4481e-05
-4.36661e-05
3.19311e-05
-3.85706e-05
2.84215e-05
-3.23946e-05
2.39517e-05
-2.51239e-05
1.86309e-05
-1.70842e-05
1.26695e-05
-9.08263e-06
6.32511e-06
-1.89194e-06
4.76727e-06
3.95293e-05
-5.38786e-05
-3.82503e-05
4.00725e-05
-5.29587e-05
3.97633e-05
-5.05266e-05
3.85624e-05
-4.6631e-05
3.65033e-05
-4.16069e-05
3.35214e-05
-3.55887e-05
2.95632e-05
-2.84365e-05
2.46934e-05
-2.02541e-05
1.90696e-05
-1.14604e-05
1.29313e-05
-2.94435e-06
6.5543e-06
4.48509e-06
1.13216e-05
4.24461e-05
-5.49696e-05
-4.13551e-05
4.27026e-05
-5.32152e-05
4.20083e-05
-4.98323e-05
4.03881e-05
-4.50108e-05
3.78852e-05
-3.91041e-05
3.44432e-05
-3.21467e-05
3.0072e-05
-2.40653e-05
2.48903e-05
-1.50724e-05
1.90976e-05
-5.66772e-06
1.29455e-05
3.2078e-06
6.66116e-06
1.07694e-05
1.79827e-05
4.4939e-05
-5.57541e-05
-4.41545e-05
4.47502e-05
-5.30264e-05
4.35596e-05
-4.86417e-05
4.14363e-05
-4.28874e-05
3.843e-05
-3.60978e-05
3.45259e-05
-2.82426e-05
2.9806e-05
-1.93454e-05
2.44355e-05
-9.70183e-06
1.86316e-05
1.36137e-07
1.26504e-05
9.18905e-06
6.60868e-06
1.68111e-05
2.45914e-05
4.67798e-05
-5.60593e-05
-4.64746e-05
4.59847e-05
-5.22313e-05
4.41698e-05
-4.68268e-05
4.14669e-05
-4.01845e-05
3.79305e-05
-3.25614e-05
3.36093e-05
-2.39215e-05
2.86561e-05
-1.43922e-05
2.32614e-05
-4.30712e-06
1.76322e-05
5.76533e-06
1.1977e-05
1.48442e-05
6.26683e-06
2.25213e-05
3.08582e-05
4.76785e-05
-5.56497e-05
-4.8088e-05
4.61439e-05
-5.06967e-05
4.36032e-05
-4.42861e-05
4.0267e-05
-3.68484e-05
3.62162e-05
-2.85105e-05
3.1588e-05
-1.92933e-05
2.6584e-05
-9.38814e-06
2.13777e-05
8.99111e-07
1.61398e-05
1.10033e-05
1.09824e-05
2.00016e-05
5.71278e-06
2.77909e-05
3.6571e-05
4.74538e-05
-5.43797e-05
-4.87238e-05
4.50109e-05
-4.82539e-05
4.1677e-05
-4.09522e-05
3.7692e-05
-3.28633e-05
3.32237e-05
-2.40423e-05
2.8496e-05
-1.45657e-05
2.36905e-05
-4.5826e-06
1.89144e-05
5.67523e-06
1.42811e-05
1.56366e-05
9.77858e-06
2.45041e-05
5.07648e-06
3.2493e-05
4.16475e-05
4.58236e-05
-5.19928e-05
-4.82105e-05
4.23613e-05
-4.47916e-05
3.82447e-05
-3.68356e-05
3.37297e-05
-2.83484e-05
2.90992e-05
-1.94117e-05
2.45784e-05
-1.00449e-05
2.02458e-05
-2.49982e-07
1.6125e-05
9.79603e-06
1.22411e-05
1.95205e-05
8.4336e-06
2.83116e-05
4.37467e-06
3.6552e-05
4.60222e-05
4.24841e-05
-4.83455e-05
-4.61314e-05
3.80923e-05
-4.03998e-05
3.33554e-05
-3.20986e-05
2.86512e-05
-2.36442e-05
2.42695e-05
-1.50299e-05
2.02735e-05
-6.04893e-06
1.66094e-05
3.41407e-06
1.32467e-05
1.31588e-05
1.0119e-05
2.26481e-05
6.9854e-06
3.14453e-05
3.61309e-06
3.99243e-05
4.96353e-05
3.74587e-05
-4.36203e-05
-4.21839e-05
3.23818e-05
-3.53229e-05
2.74919e-05
-2.72087e-05
2.31384e-05
-1.92907e-05
1.93514e-05
-1.1243e-05
1.60256e-05
-2.72307e-06
1.30612e-05
6.37844e-06
1.04017e-05
1.58184e-05
7.94138e-06
2.51084e-05
5.47164e-06
3.3915e-05
2.81817e-06
4.25777e-05
5.24534e-05
3.10313e-05
-3.81208e-05
-3.65308e-05
2.58881e-05
-3.01797e-05
2.15215e-05
-2.28421e-05
1.78912e-05
-1.56604e-05
1.47738e-05
-8.12565e-06
1.2043e-05
7.71511e-09
9.67133e-06
8.75016e-06
7.62033e-06
1.78694e-05
5.77247e-06
2.69562e-05
3.95185e-06
3.57356e-05
2.01016e-06
4.45194e-05
5.44636e-05
2.402e-05
-3.26307e-05
-2.95101e-05
1.95861e-05
-2.57457e-05
1.60641e-05
-1.93202e-05
1.31112e-05
-1.27074e-05
1.05502e-05
-5.5647e-06
8.33951e-06
2.21841e-06
6.4822e-06
1.06075e-05
4.95702e-06
1.93945e-05
3.6688e-06
2.82445e-05
2.46517e-06
3.69392e-05
1.21033e-06
4.57743e-05
5.56739e-05
1.74751e-05
-2.80263e-05
-2.20795e-05
1.39922e-05
-2.22629e-05