/*--------------------------------*- C++ -*----------------------------------*\
| =========                 |                                                 |
| \\      /  F ield         | OpenFOAM: The Open Source CFD Toolbox           |
|  \\    /   O peration     | Version:  2012                                  |
|   \\  /    A nd           | Website:  www.openfoam.com                      |
|    \\/     M anipulation  |                                                 |
\*---------------------------------------------------------------------------*/
FoamFile
{
    version     2.0;
    format      ascii;
    class       volVectorField;
    location    "672";
    object      U;
}
// * * * * * * * * * * * * * * * * * * * * * * * * * * * * * * * * * * * * * //

dimensions      [0 1 -1 0 0 0 0];


internalField   nonuniform List<vector> 
6084
(
(0.000263026 -0.993426 0)
(0.000244378 -0.993775 0)
(0.000233 -0.99409 0)
(0.000227184 -0.994386 0)
(0.000225334 -0.994673 0)
(0.000226328 -0.994955 0)
(0.000229531 -0.995237 0)
(0.000234548 -0.995523 0)
(0.000241249 -0.995814 0)
(0.000249692 -0.996113 0)
(0.00026005 -0.996422 0)
(0.000272553 -0.996744 0)
(0.000287387 -0.997081 0)
(0.000304382 -0.997437 0)
(0.000322889 -0.997813 0)
(0.000340967 -0.998216 0)
(0.000353939 -0.998649 0)
(0.00035024 -0.999101 0)
(0.000283968 -0.999503 0)
(7.02629e-05 -0.999776 0)
(0.00035058 -0.999698 0)
(0.000302143 -0.999775 0)
(0.000272282 -0.999824 0)
(0.000255473 -0.999857 0)
(0.000247107 -0.999881 0)
(0.000244099 -0.9999 0)
(0.000245098 -0.999916 0)
(0.000248953 -0.999932 0)
(0.000255115 -0.999948 0)
(0.00026351 -0.999964 0)
(0.000274284 -0.999982 0)
(0.000287704 -1 0)
(0.000303984 -1.00003 0)
(0.000323004 -1.00005 0)
(0.000344046 -1.00008 0)
(0.000365153 -1.00011 0)
(0.000379668 -1.00013 0)
(0.00038554 -1.00014 0)
(0.000339693 -1.00012 0)
(0.000182917 -1.00003 0)
(0.000386333 -1.00147 0)
(0.000312182 -1.00146 0)
(0.000267035 -1.00142 0)
(0.000241411 -1.00137 0)
(0.000228241 -1.00131 0)
(0.000222188 -1.00125 0)
(0.000221238 -1.00118 0)
(0.000223665 -1.00112 0)
(0.000228669 -1.00105 0)
(0.00023594 -1.00098 0)
(0.00024544 -1.00091 0)
(0.000257263 -1.00083 0)
(0.000271508 -1.00075 0)
(0.000287987 -1.00067 0)
(0.000304881 -1.00058 0)
(0.000315728 -1.00048 0)
(0.000321134 -1.00037 0)
(0.000312026 -1.00026 0)
(0.00025936 -1.00013 0)
(0.00012576 -1.00002 0)
(0.00036188 -1.00227 0)
(0.000266729 -1.0022 0)
(0.000210432 -1.00211 0)
(0.000179167 -1.00201 0)
(0.000162397 -1.00191 0)
(0.000154385 -1.00181 0)
(0.000151512 -1.00171 0)
(0.000151951 -1.00161 0)
(0.000154796 -1.0015 0)
(0.000159602 -1.00139 0)
(0.000166193 -1.00127 0)
(0.000174497 -1.00115 0)
(0.000184386 -1.00102 0)
(0.000195411 -1.00088 0)
(0.000206067 -1.00074 0)
(0.000213169 -1.00059 0)
(0.000214198 -1.00043 0)
(0.000199768 -1.00026 0)
(0.000154546 -1.00011 0)
(6.52167e-05 -1.00001 0)
(0.000285078 -1.00267 0)
(0.000178618 -1.00253 0)
(0.000120273 -1.00241 0)
(8.90169e-05 -1.00228 0)
(7.2125e-05 -1.00216 0)
(6.31934e-05 -1.00204 0)
(5.86294e-05 -1.00192 0)
(5.66433e-05 -1.0018 0)
(5.6322e-05 -1.00168 0)
(5.71899e-05 -1.00155 0)
(5.90028e-05 -1.00141 0)
(6.16234e-05 -1.00127 0)
(6.4933e-05 -1.00112 0)
(6.87037e-05 -1.00096 0)
(7.22912e-05 -1.00079 0)
(7.44588e-05 -1.00062 0)
(7.39942e-05 -1.00043 0)
(6.78407e-05 -1.00025 0)
(5.08562e-05 -1.0001 0)
(2.01828e-05 -1.00001 0)
(0.000154257 -1.00278 0)
(5.77259e-05 -1.00259 0)
(6.94669e-06 -1.00244 0)
(-1.59694e-05 -1.0023 0)
(-2.86654e-05 -1.00217 0)
(-3.62476e-05 -1.00205 0)
(-4.15062e-05 -1.00193 0)
(-4.55886e-05 -1.0018 0)
(-4.91183e-05 -1.00168 0)
(-5.24731e-05 -1.00155 0)
(-5.59086e-05 -1.00141 0)
(-5.95942e-05 -1.00127 0)
(-6.36046e-05 -1.00112 0)
(-6.78352e-05 -1.00096 0)
(-7.17224e-05 -1.00079 0)
(-7.40882e-05 -1.00062 0)
(-7.37602e-05 -1.00043 0)
(-6.77013e-05 -1.00025 0)
(-5.0784e-05 -1.0001 0)
(-2.01593e-05 -1.00001 0)
(-4.67759e-05 -1.00261 0)
(-9.65598e-05 -1.00236 0)
(-0.000120214 -1.00219 0)
(-0.000123913 -1.00206 0)
(-0.000127771 -1.00194 0)
(-0.000131876 -1.00183 0)
(-0.000136749 -1.00172 0)
(-0.000142234 -1.00161 0)
(-0.000148388 -1.0015 0)
(-0.000155377 -1.00139 0)
(-0.00016341 -1.00127 0)
(-0.000172669 -1.00115 0)
(-0.000183189 -1.00102 0)
(-0.000194628 -1.00089 0)
(-0.000205554 -1.00074 0)
(-0.000212834 -1.00059 0)
(-0.000213989 -1.00043 0)
(-0.000199644 -1.00026 0)
(-0.000154485 -1.00011 0)
(-6.51969e-05 -1.00001 0)
(-0.000377062 -1.00199 0)
(-0.000264321 -1.00167 0)
(-0.000240241 -1.00153 0)
(-0.000214534 -1.00142 0)
(-0.000207052 -1.00134 0)
(-0.000206731 -1.00127 0)
(-0.000210441 -1.0012 0)
(-0.000216272 -1.00113 0)
(-0.000223684 -1.00105 0)
(-0.000232615 -1.00098 0)
(-0.000243237 -1.00091 0)
(-0.000255812 -1.00083 0)
(-0.00027056 -1.00075 0)
(-0.000287373 -1.00067 0)
(-0.000304475 -1.00058 0)
(-0.000315456 -1.00048 0)
(-0.000320965 -1.00037 0)
(-0.000311929 -1.00026 0)
(-0.000259317 -1.00013 0)
(-0.000125747 -1.00002 0)
(-0.000798296 -1.00045 0)
(-0.000371875 -0.999894 0)
(-0.000302076 -0.999914 0)
(-0.000252359 -0.999902 0)
(-0.000238725 -0.999911 0)
(-0.000235905 -0.999919 0)
(-0.000238692 -0.999929 0)
(-0.000244304 -0.99994 0)
(-0.000251891 -0.999953 0)
(-0.000261329 -0.999968 0)
(-0.000272824 -0.999985 0)
(-0.000286734 -1 0)
(-0.000303345 -1.00003 0)
(-0.000322588 -1.00005 0)
(-0.000343777 -1.00008 0)
(-0.000364981 -1.00011 0)
(-0.000379557 -1.00013 0)
(-0.000385456 -1.00014 0)
(-0.000339686 -1.00012 0)
(-0.000182914 -1.00003 0)
(-0.000914632 -0.995813 0)
(-0.000228512 -0.993657 0)
(-0.000272677 -0.994078 0)
(-0.000232935 -0.994412 0)
(-0.00022405 -0.994698 0)
(-0.00022347 -0.994975 0)
(-0.000226803 -0.995252 0)
(-0.000232452 -0.995533 0)
(-0.000239757 -0.995821 0)
(-0.000248663 -0.996118 0)
(-0.000259352 -0.996425 0)
(-0.000272099 -0.996746 0)
(-0.000287096 -0.997082 0)
(-0.000304185 -0.997437 0)
(-0.000322754 -0.997813 0)
(-0.00034088 -0.998216 0)
(-0.000353886 -0.998649 0)
(-0.000350214 -0.999101 0)
(-0.000283965 -0.999503 0)
(-7.02621e-05 -0.999776 0)
(0.00248269 -0.973763 0)
(0.00200567 -0.978058 0)
(0.00161411 -0.981508 0)
(0.001294 -0.984244 0)
(0.00103681 -0.986404 0)
(0.000833245 -0.988104 0)
(0.000674123 -0.989444 0)
(0.000550964 -0.990504 0)
(0.000456408 -0.991348 0)
(0.000384185 -0.992027 0)
(0.000330518 -0.992579 0)
(0.000290984 -0.993038 0)
(0.005771 -0.984774 0)
(0.00461379 -0.988445 0)
(0.00365572 -0.99133 0)
(0.00287396 -0.993557 0)
(0.00224658 -0.995259 0)
(0.00175088 -0.996546 0)
(0.00136408 -0.997511 0)
(0.00106521 -0.998226 0)
(0.000836243 -0.998752 0)
(0.000661171 -0.999132 0)
(0.000526274 -0.999399 0)
(0.000423889 -0.99958 0)
(0.00906894 -0.988427 0)
(0.0072003 -0.99186 0)
(0.00565218 -0.994515 0)
(0.00439255 -0.996531 0)
(0.00338685 -0.998039 0)
(0.0025969 -0.999151 0)
(0.00198392 -0.999959 0)
(0.00151204 -1.00053 0)
(0.00115147 -1.00093 0)
(0.000876536 -1.0012 0)
(0.000664258 -1.00137 0)
(0.00050197 -1.00145 0)
(0.012224 -0.990719 0)
(0.00964619 -0.993962 0)
(0.00751312 -0.99643 0)
(0.00578291 -0.998268 0)
(0.00440809 -0.99961 0)
(0.00333497 -1.00057 0)
(0.00250758 -1.00125 0)
(0.0018732 -1.00171 0)
(0.00138954 -1.00202 0)
(0.0010227 -1.00221 0)
(0.000739088 -1.0023 0)
(0.00051834 -1.00232 0)
(0.0152303 -0.992315 0)
(0.0119493 -0.995413 0)
(0.00923633 -0.997736 0)
(0.00704074 -0.999429 0)
(0.0053057 -1.00063 0)
(0.00396191 -1.00147 0)
(0.00293406 -1.00205 0)
(0.00214966 -1.00242 0)
(0.00155371 -1.00264 0)
(0.00110863 -1.00277 0)
(0.000766668 -1.00281 0)
(0.000486499 -1.00277 0)
(0.0181586 -0.99272 0)
(0.0141565 -0.995807 0)
(0.0108434 -0.998123 0)
(0.00817144 -0.999801 0)
(0.00607915 -1.00098 0)
(0.00447692 -1.0018 0)
(0.00326598 -1.00235 0)
(0.00235128 -1.00271 0)
(0.00166155 -1.0029 0)
(0.00115736 -1.003 0)
(0.000764542 -1.00303 0)
(0.000407994 -1.00296 0)
(0.0210775 -0.990177 0)
(0.0163594 -0.993579 0)
(0.0124939 -0.996225 0)
(0.0093722 -0.998228 0)
(0.00694081 -0.999716 0)
(0.00510092 -1.00082 0)
(0.0037281 -1.00163 0)
(0.00269587 -1.0022 0)
(0.00189156 -1.00256 0)
(0.00127144 -1.00277 0)
(0.000784004 -1.0029 0)
(0.000305021 -1.00289 0)
(0.0247333 -0.979213 0)
(0.0193882 -0.983871 0)
(0.0149423 -0.987795 0)
(0.01135 -0.991023 0)
(0.00856212 -0.993691 0)
(0.00641527 -0.995957 0)
(0.00474644 -0.997883 0)
(0.00341023 -0.999475 0)
(0.0022452 -1.00069 0)
(0.00126935 -1.00155 0)
(0.000699275 -1.00215 0)
(0.000273579 -1.00234 0)
(0.0291881 -0.944332 0)
(0.0230927 -0.951383 0)
(0.0180236 -0.958208 0)
(0.0137656 -0.964736 0)
(0.0103066 -0.971028 0)
(0.00744932 -0.97714 0)
(0.00511406 -0.982895 0)
(0.0032987 -0.988119 0)
(0.00189861 -0.992561 0)
(0.000933175 -0.995883 0)
(0.000991108 -0.99826 0)
(0.00134509 -1.00004 0)
(0.0371492 -0.841555 0)
(0.0319767 -0.847154 0)
(0.027556 -0.8545 0)
(0.0238756 -0.863807 0)
(0.0217811 -0.874688 0)
(0.0208914 -0.88748 0)
(0.0202691 -0.901891 0)
(0.0197832 -0.917802 0)
(0.0184376 -0.934608 0)
(0.0164637 -0.949562 0)
(0.014276 -0.963443 0)
(0.00838095 -0.981207 0)
(-0.025657 0.012278 0)
(-0.0205243 0.0436719 0)
(-0.00460481 0.0425445 0)
(0.00893372 0.0223555 0)
(0.0211929 -0.0189239 0)
(0.0338639 -0.0883871 0)
(0.0399465 -0.179013 0)
(0.0389006 -0.264253 0)
(0.0354706 -0.341474 0)
(0.0323584 -0.412769 0)
(0.0296052 -0.478105 0)
(0.0270851 -0.537988 0)
(0.0247571 -0.592806 0)
(0.0225777 -0.64288 0)
(0.0205166 -0.688466 0)
(0.0185549 -0.729775 0)
(0.0166835 -0.766999 0)
(0.0149003 -0.800324 0)
(0.0132087 -0.829944 0)
(0.0116149 -0.856068 0)
(0.010128 -0.878914 0)
(0.00876451 -0.898736 0)
(0.00752941 -0.915787 0)
(0.00641149 -0.930321 0)
(0.00540715 -0.942589 0)
(0.00451669 -0.952842 0)
(0.00373714 -0.961311 0)
(0.00306025 -0.968204 0)
(-0.0439488 0.00109669 0)
(-0.0083698 0.0209482 0)
(0.0215969 0.00222162 0)
(0.0465474 -0.0480968 0)
(0.0729235 -0.12154 0)
(0.0919926 -0.203847 0)
(0.0964365 -0.280448 0)
(0.0913904 -0.345979 0)
(0.0844432 -0.411028 0)
(0.077768 -0.472426 0)
(0.0715007 -0.529948 0)
(0.0656661 -0.583518 0)
(0.0601891 -0.633167 0)
(0.0549985 -0.678949 0)
(0.0500413 -0.72093 0)
(0.0452878 -0.759177 0)
(0.040729 -0.793773 0)
(0.0363717 -0.824824 0)
(0.0322329 -0.852461 0)
(0.0283344 -0.876843 0)
(0.0246968 -0.898157 0)
(0.0213344 -0.916608 0)
(0.0182561 -0.932408 0)
(0.0154678 -0.945792 0)
(0.0129711 -0.957009 0)
(0.010763 -0.9663 0)
(0.00883587 -0.97389 0)
(0.00717183 -0.980005 0)
(-0.0493702 -0.0151787 0)
(0.0151932 -0.0137864 0)
(0.0591885 -0.0575982 0)
(0.0989853 -0.123214 0)
(0.131124 -0.196694 0)
(0.147103 -0.265217 0)
(0.147335 -0.326178 0)
(0.140369 -0.38422 0)
(0.131801 -0.442059 0)
(0.122803 -0.497616 0)
(0.11394 -0.550741 0)
(0.105376 -0.600995 0)
(0.0971035 -0.648142 0)
(0.0890843 -0.692016 0)
(0.0812884 -0.732516 0)
(0.0737098 -0.769589 0)
(0.0663659 -0.803228 0)
(0.0592925 -0.833474 0)
(0.0525357 -0.860413 0)
(0.0461443 -0.884172 0)
(0.0401629 -0.904916 0)
(0.034626 -0.922841 0)
(0.0295579 -0.938164 0)
(0.0249714 -0.951118 0)
(0.0208684 -0.961942 0)
(0.0172418 -0.97087 0)
(0.0140762 -0.978127 0)
(0.0113457 -0.983935 0)
(-0.0249432 -0.0296394 0)
(0.0477589 -0.0506956 0)
(0.105658 -0.108744 0)
(0.153523 -0.176425 0)
(0.183897 -0.241298 0)
(0.194755 -0.298722 0)
(0.192429 -0.352556 0)
(0.184819 -0.406419 0)
(0.175285 -0.459919 0)
(0.164779 -0.512121 0)
(0.154022 -0.56262 0)
(0.143268 -0.610886 0)
(0.132604 -0.656551 0)
(0.122056 -0.69933 0)
(0.111644 -0.739017 0)
(0.101406 -0.775478 0)
(0.0914009 -0.808641 0)
(0.0817055 -0.838498 0)
(0.0724042 -0.865104 0)
(0.0635797 -0.888564 0)
(0.0553049 -0.909031 0)
(0.0476368 -0.926695 0)
(0.0406142 -0.94177 0)
(0.0342576 -0.954486 0)
(0.0285707 -0.96508 0)
(0.0235435 -0.973785 0)
(0.0191543 -0.980826 0)
(0.0153706 -0.986425 0)
(0.00822827 -0.0414525 0)
(0.0899915 -0.0795472 0)
(0.155551 -0.143647 0)
(0.203631 -0.208454 0)
(0.229193 -0.266054 0)
(0.236488 -0.318117 0)
(0.233513 -0.369044 0)
(0.225902 -0.420336 0)
(0.21585 -0.471317 0)
(0.204402 -0.521483 0)
(0.192274 -0.570321 0)
(0.179782 -0.61731 0)
(0.167091 -0.662029 0)
(0.154294 -0.704128 0)
(0.141472 -0.743333 0)
(0.128718 -0.779444 0)
(0.116147 -0.812339 0)
(0.103889 -0.841975 0)
(0.0920769 -0.868379 0)
(0.0808379 -0.891647 0)
(0.0702797 -0.911925 0)
(0.0604855 -0.929405 0)
(0.0515113 -0.944302 0)
(0.0433862 -0.956848 0)
(0.0361159 -0.96728 0)
(0.0296876 -0.97583 0)
(0.0240752 -0.98272 0)
(0.0192413 -0.988169 0)
(0.053132 -0.0476709 0)
(0.139469 -0.0982609 0)
(0.205821 -0.164548 0)
(0.249689 -0.225616 0)
(0.270586 -0.279119 0)
(0.275996 -0.329227 0)
(0.273002 -0.378946 0)
(0.265438 -0.428781 0)
(0.255039 -0.478328 0)
(0.242875 -0.527231 0)
(0.229617 -0.575006 0)
(0.215621 -0.621169 0)
(0.201101 -0.665275 0)
(0.186206 -0.706931 0)
(0.171074 -0.745808 0)
(0.155864 -0.781658 0)
(0.140755 -0.81432 0)
(0.12594 -0.843726 0)
(0.111615 -0.869896 0)
(0.0979566 -0.892927 0)
(0.0851139 -0.912979 0)
(0.0731979 -0.930256 0)
(0.062281 -0.944986 0)
(0.052399 -0.957408 0)
(0.0435568 -0.967759 0)
(0.0357375 -0.976266 0)
(0.0289106 -0.983138 0)
(0.0230342 -0.988581 0)
(0.105614 -0.0514221 0)
(0.193044 -0.108368 0)
(0.255232 -0.175059 0)
(0.293553 -0.233266 0)
(0.310755 -0.285106 0)
(0.315014 -0.334769 0)
(0.311907 -0.383994 0)
(0.304224 -0.433056 0)
(0.293481 -0.481775 0)
(0.280667 -0.52988 0)
(0.266393 -0.576953 0)
(0.251016 -0.622536 0)
(0.234773 -0.666168 0)
(0.217853 -0.707416 0)
(0.20045 -0.745904 0)
(0.182791 -0.781342 0)
(0.165133 -0.813547 0)
(0.147746 -0.842448 0)
(0.130899 -0.868083 0)
(0.114828 -0.890583 0)
(0.0997246 -0.910148 0)
(0.0857274 -0.927021 0)
(0.0729205 -0.941465 0)
(0.0613397 -0.95374 0)
(0.0509817 -0.96409 0)
(0.041817 -0.972731 0)
(0.0337997 -0.979852 0)
(0.0268667 -0.985637 0)
(0.166547 -0.0543997 0)
(0.247527 -0.112723 0)
(0.30352 -0.178579 0)
(0.336411 -0.235031 0)
(0.350686 -0.286476 0)
(0.35395 -0.336204 0)
(0.350509 -0.385218 0)
(0.342556 -0.433842 0)
(0.331421 -0.482027 0)
(0.317967 -0.529559 0)
(0.302723 -0.576064 0)
(0.286013 -0.62109 0)
(0.268071 -0.664138 0)
(0.249114 -0.704724 0)
(0.229396 -0.742418 0)
(0.209223 -0.776894 0)
(0.188947 -0.80796 0)
(0.168939 -0.835573 0)
(0.149554 -0.859829 0)
(0.131097 -0.880942 0)
(0.113808 -0.899204 0)
(0.0978471 -0.914953 0)
(0.0833005 -0.928533 0)
(0.0701904 -0.94027 0)
(0.0584894 -0.950448 0)
(0.0481389 -0.959296 0)
(0.0390721 -0.966983 0)
(0.0312414 -0.973622 0)
(0.229917 -0.0554585 0)
(0.301263 -0.112885 0)
(0.350779 -0.177612 0)
(0.378828 -0.233107 0)
(0.390642 -0.284563 0)
(0.39287 -0.334397 0)
(0.388909 -0.383245 0)
(0.380563 -0.431518 0)
(0.368964 -0.479231 0)
(0.35483 -0.52619 0)
(0.33858 -0.572022 0)
(0.320476 -0.616229 0)
(0.30073 -0.65824 0)
(0.279582 -0.697476 0)
(0.257353 -0.733429 0)
(0.234456 -0.765725 0)
(0.21137 -0.794172 0)
(0.188597 -0.818784 0)
(0.166606 -0.839765 0)
(0.145794 -0.857472 0)
(0.126452 -0.872363 0)
(0.10876 -0.884944 0)
(0.0927934 -0.895723 0)
(0.0785379 -0.905175 0)
(0.0659126 -0.913718 0)
(0.0547925 -0.921691 0)
(0.0450357 -0.929356 0)
(0.0364958 -0.936922 0)
(0.290719 -0.0542791 0)
(0.353936 -0.110145 0)
(0.397246 -0.173854 0)
(0.42102 -0.228743 0)
(0.430642 -0.280145 0)
(0.431744 -0.329907 0)
(0.427105 -0.378473 0)
(0.41824 -0.426296 0)
(0.406069 -0.473396 0)
(0.391131 -0.519555 0)
(0.373715 -0.56433 0)
(0.353989 -0.607107 0)
(0.332123 -0.647166 0)
(0.308382 -0.683771 0)
(0.283178 -0.716281 0)
(0.257067 -0.744248 0)
(0.230708 -0.76749 0)
(0.204783 -0.786107 0)
(0.179921 -0.800454 0)
(0.156632 -0.811073 0)
(0.135274 -0.818612 0)
(0.116049 -0.823752 0)
(0.0990196 -0.827153 0)
(0.0841426 -0.829427 0)
(0.0713023 -0.831124 0)
(0.0603442 -0.832728 0)
(0.0510996 -0.834685 0)
(0.043391 -0.837487 0)
(0.0345505 -0.621 0)
(0.0301403 -0.600252 0)
(0.0265201 -0.576834 0)
(0.023467 -0.55025 0)
(0.0206613 -0.519719 0)
(0.0175025 -0.483781 0)
(0.0132901 -0.441883 0)
(0.00756146 -0.393525 0)
(0.00178203 -0.33603 0)
(-0.00701076 -0.269142 0)
(-0.0255787 -0.205736 0)
(-0.0403314 -0.15076 0)
(0.00534474 -0.390972 0)
(-0.0031034 -0.356497 0)
(-0.0111822 -0.319856 0)
(-0.0188547 -0.281248 0)
(-0.0264054 -0.241203 0)
(-0.0348139 -0.199615 0)
(-0.042866 -0.158451 0)
(-0.0492087 -0.117516 0)
(-0.0541901 -0.0755367 0)
(-0.059194 -0.0335556 0)
(-0.0763126 -0.000255162 0)
(-0.118555 0.00752585 0)
(-0.0241361 -0.235471 0)
(-0.0325256 -0.207176 0)
(-0.0404699 -0.179687 0)
(-0.0473227 -0.153808 0)
(-0.0528922 -0.128881 0)
(-0.0587683 -0.103915 0)
(-0.0658431 -0.0803243 0)
(-0.0728571 -0.0592047 0)
(-0.0782556 -0.0390373 0)
(-0.0832022 -0.0192613 0)
(-0.092946 -0.00174727 0)
(-0.106698 0.00124431 0)
(-0.0442703 -0.165795 0)
(-0.0513202 -0.149458 0)
(-0.0579282 -0.133207 0)
(-0.0644729 -0.117696 0)
(-0.0706573 -0.102121 0)
(-0.0763923 -0.0866114 0)
(-0.081598 -0.0714406 0)
(-0.0864931 -0.0565181 0)
(-0.0912786 -0.0412089 0)
(-0.0968421 -0.0254053 0)
(-0.104166 -0.0111976 0)
(-0.107588 -0.00370945 0)
(-0.055417 -0.143041 0)
(-0.0625174 -0.132078 0)
(-0.0691626 -0.120695 0)
(-0.0755059 -0.10892 0)
(-0.0816356 -0.0966335 0)
(-0.0875954 -0.0838191 0)
(-0.0933549 -0.0705647 0)
(-0.0988896 -0.056921 0)
(-0.104356 -0.0428083 0)
(-0.110008 -0.0284173 0)
(-0.115357 -0.0150627 0)
(-0.114505 -0.00558488 0)
(-0.0633936 -0.133627 0)
(-0.0709787 -0.124682 0)
(-0.078251 -0.114967 0)
(-0.0852461 -0.104519 0)
(-0.0919999 -0.0933755 0)
(-0.0985352 -0.0815682 0)
(-0.104804 -0.0691678 0)
(-0.110778 -0.056271 0)
(-0.116489 -0.0430107 0)
(-0.121914 -0.0296608 0)
(-0.126206 -0.0169386 0)
(-0.123625 -0.0066882 0)
(-0.0703501 -0.127127 0)
(-0.0786762 -0.119044 0)
(-0.0866916 -0.110097 0)
(-0.0944022 -0.100331 0)
(-0.101814 -0.0898163 0)
(-0.108911 -0.0786415 0)
(-0.11564 -0.0669084 0)
(-0.121954 -0.0547361 0)
(-0.127815 -0.0422953 0)
(-0.133086 -0.0297945 0)
(-0.136868 -0.0175982 0)
(-0.133789 -0.00708125 0)
(-0.0768174 -0.12114 0)
(-0.0859314 -0.113531 0)
(-0.0946997 -0.105055 0)
(-0.103103 -0.0957764 0)
(-0.111122 -0.0857818 0)
(-0.118723 -0.0751798 0)
(-0.125852 -0.0640848 0)
(-0.132448 -0.0526202 0)
(-0.138439 -0.0409405 0)
(-0.143644 -0.0291807 0)
(-0.147233 -0.0175184 0)
(-0.144241 -0.00710017 0)
(-0.0829536 -0.11512 0)
(-0.0928422 -0.10786 0)
(-0.102328 -0.0997673 0)
(-0.111374 -0.0909191 0)
(-0.119945 -0.0814137 0)
(-0.127998 -0.0713635 0)
(-0.135476 -0.0608834 0)
(-0.142317 -0.0500917 0)
(-0.148432 -0.0391189 0)
(-0.153634 -0.0280505 0)
(-0.157194 -0.0169693 0)
(-0.154553 -0.0068839 0)
(-0.0888113 -0.108985 0)
(-0.099443 -0.102036 0)
(-0.109605 -0.0942962 0)
(-0.119246 -0.0858554 0)
(-0.128317 -0.076817 0)
(-0.13677 -0.0672945 0)
(-0.14455 -0.0574016 0)
(-0.151596 -0.0472498 0)
(-0.157823 -0.0369504 0)
(-0.163056 -0.0265603 0)
(-0.166655 -0.0161165 0)
(-0.16446 -0.00652086 0)
(-0.0944209 -0.102746 0)
(-0.105759 -0.0960871 0)
(-0.116554 -0.0886854 0)
(-0.126741 -0.080635 0)
(-0.136262 -0.0720434 0)
(-0.145064 -0.0630258 0)
(-0.153096 -0.0536961 0)
(-0.160307 -0.0441616 0)
(-0.166623 -0.0345202 0)
(-0.17189 -0.0248144 0)
(-0.175542 -0.0150622 0)
(-0.173793 -0.00606158 0)
(-0.0998 -0.0964085 0)
(-0.111804 -0.0900263 0)
(-0.123189 -0.0829493 0)
(-0.133876 -0.0752745 0)
(-0.143798 -0.067113 0)
(-0.152898 -0.0585828 0)
(-0.161133 -0.0498001 0)
(-0.168462 -0.040871 0)
(-0.174831 -0.0318857 0)
(-0.180113 -0.0228801 0)
(-0.183798 -0.0138688 0)
(-0.182441 -0.00553571 0)
(-0.104961 -0.089964 0)
(-0.117591 -0.0838467 0)
(-0.129523 -0.0770825 0)
(-0.140664 -0.0697713 0)
(-0.150937 -0.0620276 0)
(-0.160284 -0.0539739 0)
(-0.168666 -0.0457301 0)
(-0.176061 -0.037404 0)
(-0.182437 -0.0290826 0)
(-0.187696 -0.0207989 0)
(-0.191374 -0.0125742 0)
(-0.190329 -0.00495967 0)
(-0.109915 -0.0833945 0)
(-0.123129 -0.0775298 0)
(-0.135564 -0.0710678 0)
(-0.147112 -0.0641108 0)
(-0.157687 -0.0567773 0)
(-0.167225 -0.0491949 0)
(-0.175698 -0.0414893 0)
(-0.183099 -0.0337719 0)
(-0.189426 -0.0261293 0)
(-0.19461 -0.0185933 0)
(-0.19823 -0.0111992 0)
(-0.197398 -0.00434127 0)
(-0.114675 -0.0766756 0)
(-0.128428 -0.0710507 0)
(-0.14132 -0.0648807 0)
(-0.153228 -0.0582706 0)
(-0.164051 -0.0513434 0)
(-0.173723 -0.0442326 0)
(-0.182223 -0.0370705 0)
(-0.189565 -0.0299742 0)
(-0.195775 -0.0230315 0)
(-0.200824 -0.0162725 0)
(-0.204327 -0.00975412 0)
(-0.203603 -0.00368246 0)
(-0.119252 -0.0697795 0)
(-0.133498 -0.0643801 0)
(-0.1468 -0.0584921 0)
(-0.159014 -0.0522232 0)
(-0.170029 -0.0457014 0)
(-0.179773 -0.0390665 0)
(-0.188232 -0.0324585 0)
(-0.195441 -0.0260009 0)
(-0.201461 -0.0197846 0)
(-0.206305 -0.0138358 0)
(-0.209629 -0.00824109 0)
(-0.208901 -0.00298161 0)
(-0.123663 -0.0626764 0)
(-0.138351 -0.0574868 0)
(-0.152008 -0.05187 0)
(-0.164473 -0.0459374 0)
(-0.175618 -0.0398219 0)
(-0.185366 -0.0336706 0)
(-0.193709 -0.0276313 0)
(-0.200705 -0.021835 0)
(-0.206454 -0.0163767 0)
(-0.211015 -0.0112753 0)
(-0.214093 -0.00665713 0)
(-0.213252 -0.00223794 0)
(-0.127925 -0.0553357 0)
(-0.142998 -0.0503379 0)
(-0.156953 -0.0449805 0)
(-0.169607 -0.0393792 0)
(-0.180813 -0.0336724 0)
(-0.19049 -0.0280146 0)
(-0.198636 -0.0225622 0)
(-0.205333 -0.0174538 0)
(-0.210722 -0.0127892 0)
(-0.214913 -0.00857719 0)
(-0.217672 -0.00499536 0)
(-0.216614 -0.00146486 0)
(-0.132055 -0.0477261 0)
(-0.147454 -0.0428994 0)
(-0.161642 -0.037788 0)
(-0.174415 -0.0325125 0)
(-0.185609 -0.0272174 0)
(-0.195133 -0.0220651 0)
(-0.202992 -0.0172207 0)
(-0.209296 -0.0128304 0)
(-0.214227 -0.00899931 0)
(-0.217954 -0.00572339 0)
(-0.220317 -0.00324368 0)
(-0.218932 -0.000586398 0)
(-0.136077 -0.0398156 0)
(-0.151734 -0.0351366 0)
(-0.166084 -0.0302558 0)
(-0.1789 -0.0252996 0)
(-0.189999 -0.0204197 0)
(-0.199279 -0.0157864 0)
(-0.206754 -0.0115733 0)
(-0.212561 -0.00793482 0)
(-0.216929 -0.00498154 0)
(-0.22009 -0.00269748 0)
(-0.221962 -0.00137866 0)
(-0.22015 0.000321711 0)
(-0.140016 -0.0315712 0)
(-0.155857 -0.0270136 0)
(-0.170289 -0.0223458 0)
(-0.183062 -0.0177019 0)
(-0.193973 -0.0132407 0)
(-0.202911 -0.00914102 0)
(-0.209895 -0.00558506 0)
(-0.215092 -0.00273536 0)
(-0.218783 -0.000707975 0)
(-0.221268 0.00052201 0)
(-0.222527 0.000650073 0)
(-0.220206 0.00125408 0)
(-0.143898 -0.0229586 0)
(-0.159843 -0.0184936 0)
(-0.174268 -0.0140195 0)
(-0.186903 -0.0096796 0)
(-0.197525 -0.00564108 0)
(-0.20601 -0.00209119 0)
(-0.212386 0.000780038 0)
(-0.216851 0.00279952 0)
(-0.219741 0.00384871 0)
(-0.221428 0.00395903 0)
(-0.221981 0.00280394 0)
(-0.219035 0.00222529 0)
(-0.147754 -0.0139423 0)
(-0.163713 -0.00953866 0)
(-0.178034 -0.00523745 0)
(-0.190426 -0.0011929 0)
(-0.200644 0.00241802 0)
(-0.208557 0.00539991 0)
(-0.214198 0.00755737 0)
(-0.217796 0.00870068 0)
(-0.219746 0.00871634 0)
(-0.22049 0.00763765 0)
(-0.220151 0.00508759 0)
(-0.216545 0.00333745 0)
(-0.151615 -0.00448539 0)
(-0.167492 -0.000110079 0)
(-0.181601 0.00403993 0)
(-0.19363 0.00779717 0)
(-0.20332 0.010973 0)
(-0.21053 0.0133661 0)
(-0.215292 0.0147816 0)
(-0.217879 0.0149978 0)
(-0.218744 0.0139257 0)
(-0.218399 0.0115901 0)
(-0.217055 0.00757684 0)
(-0.212627 0.00465119 0)
(-0.155516 0.00544974 0)
(-0.171204 0.00983047 0)
(-0.184981 0.0138507 0)
(-0.196518 0.0173277 0)
(-0.205542 0.0200594 0)
(-0.211902 0.0218434 0)
(-0.215622 0.0224783 0)
(-0.21705 0.0217096 0)
(-0.216681 0.0194983 0)
(-0.215082 0.0158324 0)
(-0.21256 0.0102798 0)
(-0.207155 0.00604578 0)
(-0.15949 0.0159003 0)
(-0.174873 0.0203206 0)
(-0.188186 0.0242327 0)
(-0.199088 0.0274343 0)
(-0.207292 0.0297127 0)
(-0.212635 0.0308677 0)
(-0.215217 0.0305943 0)
(-0.215285 0.0288446 0)
(-0.213512 0.0254533 0)
(-0.210468 0.020386 0)
(-0.206568 0.0132136 0)
(-0.199995 0.00756193 0)
(-0.163571 0.0269038 0)
(-0.178524 0.0313976 0)
(-0.191229 0.0352207 0)
(-0.201335 0.0381497 0)
(-0.20854 0.0399686 0)
(-0.212688 0.040391 0)
(-0.213882 0.039247 0)
(-0.212546 0.0364781 0)
(-0.209179 0.0318213 0)
(-0.204475 0.0252718 0)
(-0.198968 0.0163936 0)
(-0.191021 0.00923177 0)
(-0.167795 0.0384958 0)
(-0.182179 0.0430948 0)
(-0.194117 0.0468443 0)
(-0.203254 0.0495063 0)
(-0.20926 0.0508519 0)
(-0.212023 0.0505084 0)
(-0.21175 0.0484879 0)
(-0.20877 0.0445719 0)
(-0.203617 0.0385974 0)
(-0.197025 0.0304876 0)
(-0.189654 0.0198225 0)
(-0.180086 0.0110728 0)
(-0.172193 0.0507064 0)
(-0.18586 0.055438 0)
(-0.196858 0.0591211 0)
(-0.204825 0.0615241 0)
(-0.209427 0.0622797 0)
(-0.210614 0.0612034 0)
(-0.208677 0.0581857 0)
(-0.203902 0.0530901 0)
(-0.196782 0.0457495 0)
(-0.188045 0.0360079 0)
(-0.178517 0.0234825 0)
(-0.167049 0.0130822 0)
(-0.176792 0.063557 0)
(-0.189581 0.0684413 0)
(-0.199455 0.0720622 0)
(-0.206021 0.0742171 0)
(-0.208993 0.074282 0)
(-0.208428 0.072411 0)
(-0.204634 0.0683398 0)
(-0.197903 0.0620022 0)
(-0.188619 0.0532266 0)
(-0.177449 0.0417699 0)
(-0.165448 0.0273179 0)
(-0.151779 0.0152422 0)
(-0.181611 0.0770552 0)
(-0.193341 0.0820996 0)
(-0.201877 0.0856525 0)
(-0.206801 0.0874035 0)
(-0.207848 0.086925 0)
(-0.205376 0.0841588 0)
(-0.199533 0.0789245 0)
(-0.190677 0.0712638 0)
(-0.179037 0.0609241 0)
(-0.16514 0.0476274 0)
(-0.150364 0.0312046 0)
(-0.134189 0.0175136 0)
(-0.186666 0.0911978 0)
(-0.197131 0.0964066 0)
(-0.204069 0.099893 0)
(-0.207125 0.101079 0)
(-0.206121 0.100101 0)
(-0.201389 0.0963627 0)
(-0.193258 0.0898984 0)
(-0.182091 0.0808229 0)
(-0.167955 0.0686504 0)
(-0.151064 0.0532857 0)
(-0.133304 0.0349386 0)
(-0.114393 0.0198574 0)
(-0.191967 0.105951 0)
(-0.200961 0.111327 0)
(-0.206045 0.114725 0)
(-0.206939 0.115553 0)
(-0.203687 0.11377 0)
(-0.196381 0.108964 0)
(-0.185742 0.101245 0)
(-0.172153 0.0905862 0)
(-0.155124 0.0763271 0)
(-0.135162 0.0583543 0)
(-0.114432 0.0382894 0)
(-0.0928625 0.0222474 0)
(-0.197505 0.121227 0)
(-0.204815 0.126728 0)
(-0.207822 0.129935 0)
(-0.206269 0.130471 0)
(-0.200313 0.127727 0)
(-0.190292 0.12182 0)
(-0.177102 0.112798 0)
(-0.160566 0.100436 0)
(-0.140029 0.0838478 0)
(-0.117076 0.0629654 0)
(-0.0937262 0.0410831 0)
(-0.0696058 0.0244495 0)
(-0.20323 0.13689 0)
(-0.208609 0.142415 0)
(-0.209283 0.145302 0)
(-0.205022 0.145223 0)
(-0.19604 0.141575 0)
(-0.1832 0.134576 0)
(-0.167067 0.124068 0)
(-0.146858 0.109765 0)
(-0.122661 0.090762 0)
(-0.0966557 0.0671742 0)
(-0.0711967 0.0434497 0)
(-0.0436719 0.0258577 0)
(-0.209059 0.152752 0)
(-0.212237 0.158141 0)
(-0.210237 0.16064 0)
(-0.203014 0.159651 0)
(-0.19084 0.154953 0)
(-0.174968 0.146579 0)
(-0.155337 0.134471 0)
(-0.1312 0.117931 0)
(-0.103267 0.0965978 0)
(-0.0742137 0.0706555 0)
(-0.0468634 0.0454338 0)
(-0.0190589 0.0269746 0)
(-0.214858 0.168525 0)
(-0.215548 0.173556 0)
(-0.210633 0.175395 0)
(-0.200002 0.173274 0)
(-0.184523 0.167284 0)
(-0.165293 0.157292 0)
(-0.141732 0.143218 0)
(-0.113602 0.124456 0)
(-0.0820152 0.101052 0)
(-0.0501096 0.0733044 0)
(-0.0210549 0.0468713 0)
(0.00647882 0.0280507 0)
(-0.220424 0.183801 0)
(-0.218193 0.188255 0)
(-0.210049 0.188918 0)
(-0.195811 0.185326 0)
(-0.176835 0.177649 0)
(-0.153889 0.165903 0)
(-0.126281 0.149642 0)
(-0.0942321 0.128795 0)
(-0.0592803 0.103702 0)
(-0.0249679 0.0748216 0)
(0.00532644 0.0473429 0)
(0.0329618 0.0276058 0)
(-0.225463 0.198089 0)
(-0.220053 0.201456 0)
(-0.208077 0.200436 0)
(-0.190079 0.194938 0)
(-0.167491 0.185171 0)
(-0.140631 0.171352 0)
(-0.109031 0.152932 0)
(-0.073367 0.130299 0)
(-0.0355581 0.104044 0)
(0.000551282 0.0748404 0)
(0.0315589 0.0469959 0)
(0.0596871 0.0270541 0)
(-0.229424 0.210741 0)
(-0.220348 0.212234 0)
(-0.204336 0.208924 0)
(-0.182448 0.201032 0)
(-0.156155 0.188901 0)
(-0.125432 0.172748 0)
(-0.0901719 0.152335 0)
(-0.0514404 0.128392 0)
(-0.0114668 0.101651 0)
(0.0257565 0.0730231 0)
(0.0571936 0.0456859 0)
(0.0879575 0.0265556 0)
(-0.231971 0.220733 0)
(-0.21849 0.219536 0)
(-0.198251 0.213232 0)
(-0.172532 0.202446 0)
(-0.142645 0.187733 0)
(-0.108382 0.169227 0)
(-0.0700618 0.147219 0)
(-0.0290379 0.122676 0)
(0.0123331 0.0963062 0)
(0.0499951 0.0691578 0)
(0.0816707 0.0429769 0)
(0.115222 0.025154 0)
(-0.231988 0.226639 0)
(-0.213839 0.222102 0)
(-0.189338 0.212188 0)
(-0.1601 0.198118 0)
(-0.126956 0.180714 0)
(-0.0897682 0.160128 0)
(-0.0492908 0.137274 0)
(-0.00691637 0.113107 0)
(0.0350371 0.0881564 0)
(0.0726013 0.0634802 0)
(0.104519 0.0391765 0)
(0.139845 0.0228128 0)
(-0.228644 0.22789 0)
(-0.205772 0.218809 0)
(-0.177229 0.204797 0)
(-0.144985 0.187308 0)
(-0.109206 0.167276 0)
(-0.07018 0.145406 0)
(-0.0287366 0.122882 0)
(0.0140174 0.100279 0)
(0.055755 0.0778671 0)
(0.0927342 0.0564453 0)
(0.125226 0.034834 0)
(0.162209 0.0201076 0)
(-0.221439 0.222937 0)
(-0.193602 0.208417 0)
(-0.161833 0.19016 0)
(-0.127237 0.169597 0)
(-0.0900283 0.147756 0)
(-0.0506621 0.126093 0)
(-0.00949427 0.105323 0)
(0.0327345 0.085455 0)
(0.0735405 0.066537 0)
(0.109898 0.0486188 0)
(0.143399 0.0300111 0)
(0.18191 0.0173112 0)
(-0.208881 0.209676 0)
(-0.17729 0.190148 0)
(-0.143285 0.168224 0)
(-0.107607 0.145576 0)
(-0.0708295 0.12401 0)
(-0.0326301 0.104392 0)
(0.0073395 0.0865333 0)
(0.048304 0.0700589 0)
(0.0879105 0.0548289 0)
(0.124203 0.0403772 0)
(0.158837 0.0247147 0)
(0.198554 0.0144961 0)
(-0.191437 0.18811 0)
(-0.157302 0.16437 0)
(-0.122545 0.1403 0)
(-0.0881694 0.118378 0)
(-0.0536044 0.0993445 0)
(-0.0174552 0.0827903 0)
(0.0209119 0.0681696 0)
(0.0605375 0.0550195 0)
(0.0993578 0.0430268 0)
(0.135844 0.0317851 0)
(0.171359 0.0191571 0)
(0.211926 0.0116863 0)
(-0.169744 0.158927 0)
(-0.135138 0.133086 0)
(-0.102674 0.110518 0)
(-0.071505 0.0919829 0)
(-0.0394621 0.0763649 0)
(-0.00512225 0.0626971 0)
(0.0318055 0.0507803 0)
(0.0702355 0.0404648 0)
(0.108305 0.0314059 0)
(0.144739 0.0231251 0)
(0.180887 0.0135702 0)
(0.221952 0.00884582 0)
(-0.145845 0.12476 0)
(-0.114665 0.101285 0)
(-0.0863765 0.0830225 0)
(-0.0581111 0.0681106 0)
(-0.0278363 0.0552342 0)
(0.00511208 0.0440808 0)
(0.0405701 0.0345594 0)
(0.0776327 0.0266631 0)
(0.114775 0.0201683 0)
(0.150972 0.0146452 0)
(0.187489 0.00808538 0)
(0.228642 0.00612834 0)
(-0.124247 0.0913868 0)
(-0.0984132 0.0730499 0)
(-0.0735138 0.0586027 0)
(-0.0470692 0.0462964 0)
(-0.0182308 0.0356615 0)
(0.0132901 0.0266153 0)
(0.0472659 0.0191862 0)
(0.082911 0.013461 0)
(0.118982 0.00930902 0)
(0.1547 0.00639178 0)
(0.191245 0.00267109 0)
(0.232069 0.00379174 0)
(-0.107662 0.0626165 0)
(-0.0857914 0.048377 0)
(-0.0628669 0.0363386 0)
(-0.0378616 0.025935 0)
(-0.0103807 0.0170749 0)
(0.0197167 0.0098026 0)
(0.0521691 0.00423334 0)
(0.0862917 0.000524955 0)
(0.121097 -0.00140104 0)
(0.156053 -0.00182363 0)
(0.192338 -0.00280501 0)