/*--------------------------------*- C++ -*----------------------------------*\
| =========                 |                                                 |
| \\      /  F ield         | OpenFOAM: The Open Source CFD Toolbox           |
|  \\    /   O peration     | Version:  v2012                                 |
|   \\  /    A nd           | Website:  www.openfoam.com                      |
|    \\/     M anipulation  |                                                 |
\*---------------------------------------------------------------------------*/
FoamFile
{
    version     2.0;
    format      ascii;
    class       volScalarField;
    location    "504";
    object      age;
}
// * * * * * * * * * * * * * * * * * * * * * * * * * * * * * * * * * * * * * //

dimensions      [0 0 1 0 0 0 0];


internalField   nonuniform List<scalar> 
6556
(
0.0125016
0.0124997
0.0124998
0.0124998
0.0124999
0.0124999
0.0124998
0.0124998
0.0124997
0.0125016
0.0375085
0.0374977
0.0374977
0.0374981
0.0374982
0.0374982
0.037498
0.0374977
0.0374977
0.0375085
0.0625251
0.0624948
0.0624931
0.0624934
0.0624937
0.0624937
0.0624934
0.0624931
0.0624948
0.0625251
0.0875518
0.0874919
0.0874858
0.0874852
0.0874854
0.0874854
0.0874852
0.0874857
0.0874919
0.0875518
0.112589
0.112489
0.112476
0.112473
0.112473
0.112473
0.112473
0.112476
0.112489
0.112589
0.137635
0.137488
0.137464
0.137458
0.137457
0.137456
0.137458
0.137464
0.137487
0.137635
0.16269
0.162486
0.162449
0.162439
0.162436
0.162436
0.162439
0.162449
0.162486
0.16269
0.187755
0.187486
0.187433
0.187417
0.187412
0.187412
0.187417
0.187433
0.187485
0.187754
0.212827
0.212486
0.212415
0.212391
0.212384
0.212384
0.212391
0.212414
0.212485
0.212826
0.237907
0.237486
0.237394
0.237363
0.237352
0.237352
0.237363
0.237394
0.237486
0.237906
0.262994
0.262487
0.262373
0.262332
0.262318
0.262318
0.262332
0.262372
0.262486
0.262993
0.288089
0.287489
0.287349
0.287299
0.28728
0.28728
0.287298
0.287348
0.287487
0.288087
0.313191
0.312491
0.312324
0.312263
0.31224
0.312239
0.312261
0.312322
0.312488
0.313188
0.3383
0.337494
0.337298
0.337224
0.337196
0.337196
0.337222
0.337295
0.337489
0.338294
0.363416
0.362497
0.362271
0.362184
0.36215
0.362149
0.36218
0.362265
0.362491
0.363411
0.38854
0.387502
0.387242
0.387141
0.387101
0.3871
0.387136
0.387234
0.387491
0.388513
0.413671
0.412508
0.412213
0.412097
0.41205
0.412047
0.412088
0.4122
0.412492
0.413714
0.438811
0.437516
0.437183
0.43705
0.436996
0.436991
0.437036
0.437162
0.43749
0.438523
0.46396
0.462526
0.462154
0.462003
0.461939
0.461931
0.46198
0.46212
0.46249
0.465026
0.48912
0.487542
0.487126
0.486955
0.48688
0.486867
0.486917
0.48707
0.487474
0.484387
0.514294
0.512563
0.512102
0.511908
0.51182
0.511798
0.511844
0.512005
0.51245
0.534136
0.539485
0.537595
0.537084
0.536866
0.536761
0.536728
0.536768
0.536936
0.537431
0.567996
0.564699
0.562641
0.562077
0.561832
0.561708
0.561661
0.561696
0.561878
0.562422
0.601229
0.58994
0.587708
0.587087
0.586811
0.586666
0.586605
0.586636
0.586847
0.587438
0.633836
0.615218
0.612802
0.612119
0.611812
0.611644
0.611567
0.611599
0.61186
0.612504
0.665829
0.640541
0.637933
0.637184
0.636843
0.63665
0.636558
0.636596
0.636932
0.637635
0.697049
0.665919
0.663111
0.66229
0.661912
0.661694
0.661588
0.66164
0.662081
0.662848
0.727429
0.691366
0.688348
0.687449
0.687032
0.686787
0.686669
0.686745
0.687321
0.688153
0.756809
0.716896
0.713659
0.712675
0.712217
0.711944
0.711816
0.711925
0.712671
0.713553
0.784997
0.742529
0.739061
0.737984
0.737482
0.73718
0.737045
0.737199
0.738151
0.739059
0.811924
0.768283
0.764574
0.763395
0.762846
0.762514
0.762375
0.762586
0.763781
0.764692
0.837604
0.794185
0.790223
0.788931
0.788331
0.787968
0.787828
0.788107
0.789578
0.790476
0.862069
0.820263
0.816035
0.814617
0.813962
0.813567
0.813429
0.813783
0.815562
0.816434
0.885421
0.846551
0.842044
0.840484
0.83977
0.839342
0.839205
0.839639
0.84175
0.842591
0.907798
0.873091
0.86829
0.86657
0.865789
0.865325
0.865189
0.865702
0.868155
0.868971
0.92936
0.89993
0.894819
0.892917
0.892062
0.891557
0.891419
0.892002
0.894794
0.8956
0.9503
0.927127
0.921687
0.919579
0.918639
0.918086
0.917939
0.918575
0.921684
0.92251
0.970879
0.95475
0.948962
0.946616
0.945577
0.944971
0.944805
0.945468
0.948851
0.949746
0.991416
0.982883
0.976725
0.974106
0.97295
0.972281
0.972082
0.972738
0.976329
0.977358
1.01227
1.01163
1.00507
1.00214
1.00084
1.0001
0.999853
1.00046
1.00417
1.00542
1.03381
1.0411
1.03412
1.03082
1.02936
1.02853
1.02822
1.02873
1.03244
1.03398
1.05636
1.07146
1.064
1.06029
1.05863
1.05769
1.05729
1.05767
1.06125
1.0632
1.0789
1.10288
1.0949
1.09071
1.08879
1.08772
1.08723
1.08743
1.09073
1.09326
1.1017
1.13559
1.12702
1.12227
1.12004
1.11882
1.11821
1.1182
1.12106
1.12437
1.12493
1.16987
1.16062
1.15522
1.1526
1.15118
1.15043
1.15021
1.15246
1.15684
1.14827
1.20608
1.19603
1.18985
1.18675
1.18507
1.18415
1.18373
1.18518
1.191
1.17424
1.24471
1.23367
1.22655
1.22284
1.22081
1.21968
1.21908
1.21962
1.22622
1.21224
1.28639
1.2741
1.26582
1.26131
1.25881
1.25739
1.25663
1.25632
1.26236
1.25563
1.33204
1.31808
1.30831
1.30274
1.29959
1.29775
1.2968
1.29588
1.30018
1.29996
1.383
1.36671
1.35492
1.34792
1.34383
1.34139
1.34012
1.33889
1.34103
1.34398
1.44137
1.42163
1.40695
1.39792
1.39248
1.38914
1.38731
1.38591
1.38629
1.38928
1.51092
1.48562
1.46641
1.45431
1.44683
1.44213
1.43939
1.43767
1.43701
1.43861
1.59841
1.56316
1.5365
1.51952
1.50883
1.502
1.49777
1.49529
1.49397
1.49425
1.72368
1.66549
1.62312
1.59733
1.58155
1.57148
1.56499
1.56102
1.55879
1.55806
1.9232
1.815
1.74054
1.6955
1.66891
1.65284
1.64288
1.63678
1.63332
1.63179
2.54387
2.09541
1.91318
1.83599
1.78959
1.76101
1.74264
1.73079
1.72351
1.71957
12.0035
6.26526
3.01536
2.08139
1.93079
1.88479
1.86212
1.84851
1.83945
1.83356
12.3289
11.4645
7.37265
4.09238
2.59223
2.13544
2.02724
1.98896
1.97048
1.96208
11.3787
11.6911
10.7938
7.80214
5.21553
3.64414
2.84955
2.46196
2.31202
2.24591
10.904
9.95427
9.50682
8.51371
7.12769
6.03541
5.26984
4.68436
4.25561
3.95752
134.432
157.858
157.789
158.162
158.798
159.806
161.343
163.518
166.927
170.496
174.42
178.577
182.248
185.107
187.081
188.203
188.449
188.606
188.76
188.917
189.082
189.268
189.495
189.818
191.754
132.614
156.062
154.404
154.425
154.497
154.968
156.501
160.145
168.751
180.01
192.859
206.428
219.643
231.463
240.953
247.36
250.294
248.589
242.115
231.63
218.796
206.136
196.483
191.51
191.403
126.691
155.224
154.11
153.944
153.847
153.945
154.627
157.236
168.306
186.885
209.787
235.509
262.336
287.896
309.511
324.759
331.835
329.944
318.95
299.332
272.692
242.681
215.56
197.552
191.74
119.878
155.06
154.347
154.087
153.712
153.62
153.848
155.045
165.493
189.402
221.927
260.823
304.121
347.603
385.643
413.054
426.18
423.448
405.354
373.995
332.486
285.202
239.818
206.55
192.644
112.495
155.349
155.357
155.105
154.096
153.524
153.458
153.825
161.273
187.157
227.238
278.452
339.063
402.619
459.36
500.734
521.053
517.733
491.649
446.857
389.336
325.43
263.499
215.871
193.724
104.14
155.853
157.343
157.571
155.714
153.899
153.326
153.429
157.118
180.564
224.617
285.015
360.593
443.03
517.862
573.154
601.3
598.408
565.71
508.949
436.887
358.496
283.031
223.724
194.659
95.3573
155.463
160.028
161.596
159.096
155.472
153.421
153.099
154.129
171.27
214.734
279.427
364.613
461.258
551
618.598
654.89
654.223
617.509
552.607
470.282
381.571
296.701
229.329
195.338
86.3576
153.838
162.819
166.742
164.345
158.885
154.412
153.027
152.947
162.277
199.563
262.581
350.513
454.143
553.755
630.534
673.775
675.907
641.479
573.403
486.768
393.372
303.955
232.464
195.743
77.1887
150.841
165.061
172.168
170.976
164.233
157
153.29
152.732
155.801
182.306
237.639
320.501
423.841
527.086
608.597
656.314
665.157
634.805
570.267
486.081
393.961
304.964
233.189
195.941
67.9675
146.245
166.568
177.119
178.314
171.382
161.791
154.735
152.68
152.567
166.685
209.43
280.226
375.292
476.126
559.128
610.31
624.8
601.001
545.811
469.914
384.384
300.344
231.707
196.131
58.8712
140.004
167.534
181.076
185.616
179.8
168.852
158.418
153.1
152.393
156.652
183.117
236.768
316.47
408.634
489.693
541.966
561.346
547.83
504.973
441.304
366.446
291.051
228.423
196.321
50.0515
131.601
167.367
183.753
192.335
188.912
178.017
165.226
155.66
152.419
152.268
163.472
197.406
256.39
333.493
409.547
463.367
487.257
483.164
453.417
403.894
342.329
278.241
223.887
196.515
41.656
121.604
165.528
185.302
197.98
198.213
188.848
174.988
161.853
153.973
152.108
153.966
168.489
204.316
260.277
325.377
379.873
409.443
413.707
396.506
361.465
314.497
263.478
219.044
196.719
33.8049
110.353
161.689
185.794
202.699
207.236
200.969
187.951
172.786
159.945
153.231
152.017
154.535
168.329
200.03
246.622
295.833
331.311
344.799
338.735
317.485
285.158
247.909
214.295
196.928
26.5994
98.1746
155.646
185.016
205.518
215.538
213.555
203.233
188.307
172.583
159.757
153.224
151.935
153.449
162.729
185.864
220.149
254.373
277.726
283.382
274.689
256.592
233.521
211.691
198.209
20.0698
85.0257
147.192
182.688
206.824
222.471
225.84
219.77
207.385
191.667
175.51
161.913
154.043
151.484
151.447
155.057
167.301
188.221
211.809
229.512
236.291
232.887
224.933
214.58
203.179
14.5658
71.0123
136.062
178.274
206.246
227.464
236.868
236.119
228.077
215.139
199.457
183.053
168.126
157.374
151.408
149.459
149.398
152.027
159.566
169.922
179.561
184.644
181.466
170.875
156.827
10.3014
56.6919
122.042
170.998
203.458
229.572
245.465
250.834
248.191
239.813
227.507
212.777
196.954
181.375
167.544
157.253
150.418
146.469
144.887
144.779
144.717
144.65
144.518
143.17
141.467
7.1484
42.7969
105.182
159.945
197.821
228.034
250.511
262.462
265.946
262.992
255.346
244.385
231.258
216.958
202.396
188.457
175.997
165.657
157.876
152.942
150.095
148.754
148.677
150.198
155.245
4.90712
30.1241
85.9618
144.234
188.238
222.386
250.44
269.467
279.696
282.862
280.583
274.245
264.93
253.615
241.163
228.343
215.847
204.308
194.319
186.426
181.087
178.593
179.233
183.582
191.936
3.38469
19.4034
65.6487
123.609
173.289
211.933
244.176
269.74
287.138
297.128
300.979
299.944
295.262
287.831
278.536
268.265
257.741
247.701
238.718
231.274
225.86
222.959
222.963
226.247
232.725
2.40789
11.2128
45.1854
98.5133
151.705
195.422
231.325
261.563
285.515
302.662
313.3
318.352
318.859
315.839
310.112
302.738
294.194
285.384
277.236
270.542
265.629
262.62
261.718
263.126
266.883
1.81352
6.26131
27.3234
70.9819
123.205
171.129
211.119
244.756
273.143
296.156
313.474
326.026
333.323
333.927
332.599
328.902
323.636
316.96
309.084
301.461
295.636
291.876
290.119
290.152
291.763
1.48039
3.63677
14.2539
44.8654
90.0444
138.357
181.962
219.02
250.43
277.038
298.95
316.685
329.384
336.892
341.2
339.181
337.047
335.14
332.41
327.074
320.261
314.052
309.121
306.138
305.561
1.31682
2.32096
6.5029
23.4445
56.688
99.3765
143.196
182.999
217.306
246.481
271.093
291.715
308.366
320.921
330.006
334.767
336.039
336.642
336.424
334.753
332.308
330.024
328.442
327.48
326.608
1.2512
1.67185
3.2198
9.98043
29.3228
60.5016
98.3264
137.034
172.842
204.241
231.068
253.693
272.538
287.857
299.733
308.659
314.442
317.432
318.397
317.912
316.502
314.655
312.766
311.144
310.053
1.24118
1.38733
1.9766
3.78017
11.5478
29.2356
55.5942
87.0635
119.748
150.792
178.674
202.864
223.399
240.522
254.369
265.179
273.199
278.705
282.104
283.854
284.394
284.115
283.34
282.336
281.331
1.25785
1.30478
1.47712
1.95046
3.69244
10.2468
23.8731
43.7715
67.7439
93.2867
118.34
141.554
162.228
180.113
195.143
207.366
216.987
224.281
229.562
233.159
235.4
236.591
237.015
236.911
236.461
1.29561
1.30563
1.33619
1.45364
1.59788
2.53506
6.38418
14.778
27.8286
44.0722
61.9405
80.064
97.4207
113.348
127.445
139.509
149.522
157.594
163.905
168.672
172.123
174.487
175.976
176.784
177.082
1.34236
1.34158
1.34423
1.36313
1.40991
1.53122
1.64638
2.72811
6.03946
12.0433
20.888
31.3902
42.5688
53.6943
64.2226
73.7769
82.152
89.278
95.1756
99.9227
103.632
106.435
108.466
109.859
110.726
1.39115
1.39135
1.38781
1.38422
1.39226
1.42197
1.46545
1.55148
1.6402
1.71529
2.8392
5.15992
8.59553
12.9417
17.9228
23.2436
28.3442
32.9851
37.0591
40.5279
43.3989
45.7101
47.5146
48.8751
49.8497
1.44151
1.44431
1.44494
1.44221
1.43929
1.44091
1.4508
1.47516
1.51178
1.55023
1.61199
1.66232
1.71228
1.76272
1.88533
2.3432
3.04085
3.88235
4.78398
5.6778
6.51455
7.26247
7.90358
8.43138
8.84883
1.49634
1.49976
1.50356
1.50613
1.50696
1.50564
1.5062
1.50888
1.52164
1.53583
1.55864
1.58655
1.61666
1.64653
1.68214
1.72128
1.75428
1.78549
1.81632
1.84687
1.87714
1.90713
1.93683
1.96624
1.99539
1.55894
1.56146
1.5655
1.57045
1.57554
1.57961
1.58305
1.58606
1.58902
1.59518
1.60401
1.61541
1.63313
1.65017
1.66894
1.6909
1.71476
1.73924
1.76397
1.78885
1.81379
1.83878
1.86378
1.88879
1.9138
1.63184
1.6334
1.6365
1.64113
1.64709
1.65389
1.66104
1.66838
1.67533
1.68264
1.69062
1.69959
1.70953
1.72134
1.73473
1.74947
1.7656
1.78298
1.80144
1.82068
1.84099
1.8624
1.88405
1.90539
1.9267
1.71812
1.71859
1.7207
1.72437
1.72954
1.73613
1.74394
1.75278
1.7624
1.77259
1.7833
1.79459
1.80635
1.81879
1.83203
1.84606
1.86089
1.8765
1.89287
1.90997
1.92769
1.94598
1.9648
1.98411
2.00386
1.83027
1.82912
1.82979
1.8321
1.83594
1.84122
1.84789
1.85585
1.86502
1.87526
1.88645
1.89849
1.9113
1.92481
1.93897
1.95375
1.96912
1.98506
2.00153
2.01851
2.03595
2.05381
2.07207
2.09068
2.10961
1.95909
1.95915
1.96117
1.96467
1.96942
1.97531
1.98229
1.99032
1.99935
2.00936
2.0203
2.03211
2.04475
2.05814
2.07223
2.08696
2.10228
2.11815
2.13451
2.15132
2.16853
2.18612
2.20404
2.22226
2.24074
2.21232
2.19377
2.18352
2.17867
2.17758
2.17929
2.18319
2.18889
2.19609
2.20462
2.21432
2.22507
2.23678
2.24935
2.2627
2.27678
2.29151
2.30682
2.32268
2.33901
2.35577
2.37292
2.39042
2.40821
2.42635
3.76103
3.63007
3.53757
3.46937
3.41779
3.3784
3.34839
3.32581
3.30927
3.29774
3.2904
3.28664
3.28595
3.28788
3.29209
3.29831
3.30628
3.3158
3.32669
3.33877
3.35192
3.36598
3.38086
3.39644
3.41274
197.442
197.727
136.235
178.628
152.14
134.284
143.404
136.566
140.957
141.431
148.721
163.439
164.438
179.511
196.484
203.144
216.599
231.298
241.313
251.128
262.202
272.322
278.909
286.722
294.796
298.905
304.101
306.847
309.164
312.49
324.578
322.137
320.472
309.623
309.878
310.606
280.524
280.007
279.781
235.881
235.303
234.766
177.049
176.81
176.442
111.179
111.345
111.329
50.4851
50.8635
51.0753
9.1413
9.34782
9.49344
2.02081
2.04594
2.07091
1.93725
1.95917
1.98107
1.94712
1.96664
1.98598
2.0227
2.04056
2.05863
2.12763
2.14468
2.1619
2.25829
2.27487
2.29158
2.44313
2.45929
2.47556
3.42745
3.44242
3.4576
157.158
136.536
128.268
127.481
127.122
126.936
126.789
126.66
126.544
126.44
126.344
126.255
126.172
126.093
126.018
125.946
125.876
125.809
125.744
125.681
125.62
125.56
125.501
125.443
125.386
125.33
125.274
125.22
125.166
125.113
125.06
125.007
124.955
124.903
124.852
124.801
124.749
124.698
124.648
124.597
124.544
124.483
124.411
124.328
124.233
124.126
124.007
123.874
123.728
123.568
123.396
123.212
123.018
122.818
122.615
122.415
122.229
122.066
121.944
121.856
121.756
121.641
121.504
121.364
121.334
121.437
121.746
122.482
123.313
124.358
125.535
126.974
128.216
128.944
129.144
129.298
129.452
129.621
129.815
130.736
139.582
130.798
127.987
127.653
127.622
127.853
128.305
128.993
129.9
130.991
132.194
133.457
134.751
136.051
137.34
138.606
139.84
141.035
142.187
143.294
144.353
145.365
146.329
147.244
148.111
148.931
149.702
150.426
151.101
151.728
152.305
152.832
153.306
153.726
154.089
154.394
154.635
154.811
154.915
154.945
154.898
154.772
154.553
154.235
153.81
153.269
152.604
151.806
150.866
149.774
148.522
147.1
145.501
143.721
141.756
139.609
137.293
134.834
132.31
129.822
127.419
125.212
123.314
121.786
120.85
120.559
120.367
120.992
122.823
125.917
130.302
135.554
140.704
144.636
146.164
144.366
139.936
134.928
131.506
130.852
133.624
128.745
128.116
128.384
129.447
131.307
133.946
137.217
140.91
144.829
148.827
152.838
156.795
160.652
164.379
167.956
171.374
174.629
177.722
180.655
183.432
186.06
188.543
190.887
193.098
195.18
197.137
198.973
200.69
202.29
203.773
205.138
206.384
207.509
208.51
209.38
210.114
210.706
211.145
211.423
211.53
211.456
211.192
210.718
210.019
209.075
207.867
206.372
204.569
202.432
199.937
197.059
193.773
190.057
185.89
181.259
176.158
170.596
164.602
158.233
151.588
144.815
138.136
131.867
126.467
122.713
120.523
119.984
121.195
125.064
131.969
141.546
152.183
161.457
167.41
165.907
157.361
145.219
135.252
131.323
131.486
128.621
128.74
130.392
133.539
138.163
143.987
150.611
157.674
164.906
172.122
179.198
186.045
192.61
198.866
204.8
210.414
215.715
220.715
225.427
229.867
234.051
237.992
241.705
245.201
248.492
251.587
254.494
257.218
259.765
262.137
264.334
266.357
268.202
269.866
271.343
272.624
273.699
274.557
275.184
275.565
275.68
275.514
275.044
274.243
273.083
271.535
269.563
267.132
264.203
260.735
256.683
252.003
246.649
240.579
233.753
226.14
217.724
208.509
198.535
187.885
176.711
165.25
153.847
142.985
133.308
125.697
121.247
119.777
121.929
128.68
140.225
155.156
170.499
182.681
181.216
171.017
154.366
138.974
131.861
130.767
128.766
130.067
133.702
139.649
147.607
156.97
167.137
177.646
188.171
198.488
208.453
217.979
227.026
235.58
243.645
251.238
258.38
265.096
271.414
277.359
282.955
288.227
293.194
297.876
302.29
306.448
310.363
314.044
317.497
320.728
323.738
326.527
329.093
331.431
333.534
335.392
336.993
338.322
339.362
340.093
340.492
340.534
340.195
339.445
338.247
336.565
334.354
331.571
328.164
324.08
319.259
313.642
307.163
299.756
291.354
281.896
271.328
259.614
246.746
232.759
217.758
201.937
185.622
169.3
153.67
139.69
128.592
121.88
119.633
122.863
132.64
148.417
166.967
182.716
189.756
177.906
159.399
141.34
132.261
130.458
129.141
132
138.075
147.212
158.693
171.609
185.212
198.967
212.511
225.613
238.14
250.027
261.252
271.821
281.756
291.09
299.857
308.096
315.843
323.134
330.002
336.477
342.587
348.355
353.804
358.95
363.809
368.392
372.709
376.765
380.563
384.104
387.386
390.402
393.144
395.6
397.756
399.595
401.094
402.231
402.978
403.304
403.177
402.562
401.424
399.716
397.392
394.402
390.69
386.199
380.863
374.616
367.386
359.093
349.659
338.998
327.03
313.676
298.876
282.599
264.863
245.767
225.535
204.564
183.5
163.298
145.257
130.98
122.298
119.477
123.639
135.799
153.822
171.733
181.185
176.836
160.055
142.127
132.489
130.357
129.81
134.398
143.214
155.694
170.671
186.98
203.764
220.444
236.657
252.191
266.943
280.875
293.988
306.31
317.88
328.745
338.955
348.558
357.601
366.129
374.182
381.797
389.008
395.843
402.327
408.482
414.323
419.865
425.117
430.086
434.774
439.179
443.298
447.12
450.635
453.825
456.672
459.15
461.233
462.888
464.082
464.774
464.925
464.489
463.426
461.688
459.223
455.979
451.904
446.942
441.035
434.124
426.145
417.03
406.706
395.091
382.098
367.633
351.602
333.918
314.52
293.397
270.626
246.436
221.283
195.944
171.608
149.885
132.777
122.455
119.253
124.033
137.37
155.037
168.436
169.344
157.197
141.676
132.684
130.396
130.607
137.158
148.884
164.717
183.044
202.493
222.136
241.389
259.915
277.544
294.207
309.898
324.645
338.497
351.513
363.755
375.288
386.172
396.464
406.219
415.484
424.301
432.707
440.737
448.415
455.764
462.803
469.542
475.991
482.152
488.025
493.603
498.876
503.827
508.437
512.679
516.522
519.931
522.865
525.277
527.119
528.337
528.875
528.675
527.679
525.834
523.083
519.376
514.662
508.898
502.043
494.061
484.918
474.58
463.006
450.152
435.959
420.352
403.24
384.516
364.07
341.804
317.667
291.7
264.115
235.387
206.387
178.461
153.52
133.968
122.316
118.9
123.877
137.222
152.223
158.578
152.421
140.505
132.879
130.529
131.483
140.229
154.957
174.066
195.527
217.815
239.971
261.442
281.942
301.348
319.636
336.834
352.999
368.207
382.537
396.071
408.889
421.066
432.668
443.758
454.389
464.608
474.455
483.964
493.162
502.068
510.699
519.062
527.161
534.993
542.55
549.814
556.767
563.378
569.613
575.431
580.78
585.605
589.842
593.419
596.262
598.291
599.424
599.579
598.674
596.64
593.409
588.928
583.154
576.058
567.629
557.868
546.792
534.422
520.788
505.912
489.803
472.45
453.806
433.79
412.284
389.145
364.228
337.428
308.738
278.334
246.691
214.685
183.789
156.17
134.564
121.885
118.33
123.349
136.222
147.647
147.112
139.194
133.083
130.673
132.427
143.628
161.414
183.675
208.013
232.807
257.117
280.452
302.593
323.477
343.125
361.605
379.01
395.444
411.013
425.819
439.958
453.517
466.575
479.2
491.45
503.375
515.015
526.402
537.562
548.512
559.26
569.81
580.157
590.288
600.182
609.812
619.139
628.117
636.691
644.792
652.344
659.258
665.435
670.765
675.132
678.412
680.483
681.222
680.516
678.259
674.367
668.778
661.456
652.395
641.621
629.189
615.184
599.715
582.902
564.873
545.741
525.594
504.481
482.389
459.244
434.902
409.172
381.843
352.739
321.791
289.127
255.179
220.841
187.645
157.906
134.654
121.173
117.517
122.692
135.241
142.985
137.852
133.299
130.801
133.602
147.477
168.37
193.623
220.536
247.468
273.553
298.39
321.84
343.905
364.661
384.22
402.713
420.275
437.04
453.131
468.66
483.727
498.418
512.807
526.957
540.917
554.729
568.422
582.018
595.53
608.96
622.303
635.544
648.66
661.615
674.364
686.85
699.002
710.736
721.954
732.54
742.362
751.271
759.1
765.671
770.798
774.295
775.98
775.685
773.261
768.587
761.588
752.236
740.554
726.619
710.56
692.556
672.823
651.607
629.162
605.736
581.55
556.773
531.505
505.755
479.433
452.35
424.238
394.8
363.777
331.031
296.642
261.009
224.997
190.155
158.851
134.336
120.222
116.491
122.15
134.616
137.402
133.537
130.912
135.098
151.991
176.081
204.122
233.245
261.898
289.343
315.295
339.709
362.656
384.268
404.706
424.139
442.734
460.65
478.028
494.996
511.663
528.123
544.456
560.725
576.983
593.27
609.616
626.038
642.544
659.133
675.792
692.496
709.209
725.882
742.453
758.84
774.948
790.661
805.84
820.325
833.93
846.44
857.613
867.186
874.883
880.425
883.545
883.999
881.577
876.095
867.462
855.657
840.745
822.88
802.291
779.278
754.198
727.444
699.426
670.542
641.158
611.579
582.028
552.624
523.365
494.114
464.606
434.478
403.329
370.814
336.74
301.159
264.449
227.438
191.581
159.262
133.787
119.058
115.215
122.403
135.246
133.747
131.009
137.382
157.746
185.045
215.557
246.408
276.271
304.598
331.238
356.242
379.753
401.959
423.063
443.269
462.77
481.746
500.352
518.728
536.991
555.241
573.561
592.019
610.669
629.552
648.698
668.125
687.838
707.832
728.091
748.583
769.263
790.071
810.928
831.735
852.37
872.684
892.502
911.614
929.775
946.695
962.037
975.426
986.464
994.748
999.888
1001.53
999.371
993.155
982.773
968.23
949.633
927.246
901.434
872.657
841.44
808.349
773.961
738.832
703.473
668.321
633.714
599.873
566.886
534.695
503.088
471.707
440.083
407.718
374.189
339.276
303.043
265.879
228.56
192.428
159.649
133.456
117.772
113.394
121.581
134.148
131.207
140.588
165.34
195.897
228.395
260.33
290.773
319.422
346.271
371.461
395.194
417.705
439.229
459.995
480.215
500.077
519.749
539.375
559.078
578.962
599.114
619.604
640.488
661.812
683.605
705.889
728.67
751.943
775.69
799.88
824.464
849.376
874.531
899.816
925.093
950.189
974.896
998.966
1022.1
1043.93
1064.01
1081.85
1096.88
1108.53
1116.24
1119.5
1117.88
1111.03
1098.83
1081.43
1059.09
1032.03
1000.83
966.102
928.583
889.021
848.156
806.692
765.268
724.433
684.619
646.13
609.124
573.611
539.447
506.329
473.807
441.327
408.314
374.306
339.093
302.798
265.867
229.058
193.532
161.113
134.503
117.201
111.082
111.533
132.689
148.224
177.061
209.839
243.201
275.263
305.508
333.846
360.381
385.321
408.909
431.405
453.06
474.113
494.78
515.253
535.701
556.268
577.078
598.235
619.828
641.928
664.595
687.874
711.799
736.393
761.665
787.612
814.219
841.455
869.276
897.615
926.388
955.48
984.745
1014
1043.03
1071.56
1099.27
1125.75
1150.48
1172.8
1191.94
1207.03
1217.32
1222.27
1221.48
1214.61
1201.16
1180.83
1155.37
1124.39
1088.59
1048.78
1005.87
960.78
914.409
867.567
820.985
775.288
730.98
688.424
647.829
609.257
572.617
537.671
504.035
471.196
438.55
405.501
371.604
336.709
301.043
265.167
229.885
196.226
165.572
139.766
120.931
110.515
139.737
163.601
194.599
227.533
260.113
291.124
320.32
347.705
373.412
397.667
420.73
442.863
464.316
485.321
506.085
526.792
547.602
568.654
590.066
611.94
634.361
657.399
681.112
705.545
730.733
756.698
783.449
810.983
839.287
868.331
898.069
928.441
959.362
990.723
1022.38
1054.17
1085.88
1117.29
1148.11
1177.96
1206.25
1231.82
1251.98
1265.93
1274.62
1278.86
1279.19
1275.67
1266.76
1247.19
1220.45
1187.52
1149.3
1106.71
1060.77
1012.52
962.955
912.967
863.324
814.687
767.596
722.455
679.519
638.889
600.525
564.248
529.746
496.587
464.236
432.102
399.637
366.479
332.599
298.357
264.456
231.833
201.583
174.939
153.189
137.471
158.037
186.257
216.789
247.956
278.338
307.28
334.683
360.562
385.004
408.19
430.365
451.782
472.674
493.251
513.699
534.185
554.853
575.829
597.219
619.116
641.596
664.724
688.552
713.12
738.456
764.578
791.491
819.185
847.637
876.816
906.676
937.154
968.169
999.61
1031.34
1063.19
1094.96
1126.43
1157.33
1187.32
1215.83
1242.19
1261.87
1274.09
1281.82
1285.59
1288.14
1287.34
1280
1262.78
1237.52
1205.65
1168.32
1126.5
1081.18
1033.4
984.171
934.382
884.805
836.102
788.82
743.385
700.089
659.076
620.359
583.822
549.23
516.238
484.409
453.24
422.216
390.904
359.096
326.917
294.844
263.631
234.18
207.45
184.425
166.017
185.886
213.325
241.243
269.295
296.584
322.793
347.867
371.798
394.62
416.429
437.406
457.776
477.752
497.512
517.214
536.994
556.973
577.255
597.936
619.093
640.79
663.08
686.005
709.596
733.871
758.838
784.492
810.814
837.771
865.322
893.415
921.986
950.95
980.193
1009.57
1038.92
1068.04
1096.69
1124.6
1151.43
1176.7
1200.02
1219.95
1235.11
1245.9
1252.06
1253.48
1249.37
1239.17
1222.74
1200.25
1172.13
1138.96
1101.51
1060.64
1017.24
972.191
926.29
880.256
834.718
790.208
747.155
705.873
666.545
629.237
593.901
560.381
528.424
497.697
467.801
438.315
408.849
379.142
349.176
319.24
289.895
261.9
236.074
213.179
193.814
217.765
241.491
265.61
289.839
313.603
336.727
359.137
380.793
401.69
421.852
441.376
460.422
479.157
497.723
516.249
534.845
553.601
572.602
591.922
611.622
631.752
652.349
673.443
695.053
717.185
739.837
762.994
786.628
810.698
835.155
859.944
884.995
910.221
935.508
960.722
985.702
1010.26
1034.19
1057.22
1079.06
1099.34
1117.67
1133.59
1146.5
1155.86
1161.2
1162.1
1158.29
1149.61
1135.99
1117.54
1094.52
1067.33
1036.48
1002.58
966.256
928.177
888.972
849.242
809.533
770.327
732.026
694.936
659.264
625.115
592.493
561.315
531.415
502.556
474.445
446.763
419.206
391.548
363.722
335.895
308.45
281.964
257.118
234.554
214.704
248.61
267.9
287.881
308.128
328.281
348.198
367.78
386.96
405.702
423.984
441.817
459.285
476.494
493.542
510.526
527.525
544.608
561.833
579.255
596.918
614.855
633.093
651.649
670.529
689.733
709.25
729.059
749.128
769.413
789.866
810.428
831.032
851.595
872.016
892.177
911.943
931.163
949.663
967.245
983.679
998.706
1012.03
1023.35
1032.34
1038.67
1042
1042.05
1038.64
1031.66
1021.07
1006.9
989.29
968.465
944.724
918.436
890.019
859.916
828.582
796.465
763.991
731.547
699.462
667.999
637.35
607.627
578.872
551.054
524.074
497.779
471.964
446.402
420.877
395.239
369.442
343.612
318.022
293.088
269.327
247.256
227.26
275.351
290.474
306.469
322.924
339.604
356.37
373.106
389.732
406.18
422.386
438.316
453.979
469.418
484.684
499.834
514.924
529.999
545.1
560.26
575.508
590.864
606.346
621.962
637.713
653.593
669.589
685.68
701.835
718.014
734.172
750.258
766.213
781.969
797.446
812.553
827.188
841.239
854.583
867.084
878.587
888.924
897.908
905.344
911.03
914.77
916.376
915.68
912.569
906.961
898.819
888.153
875.033
859.58
841.958
822.383
801.107
778.406
754.568
729.888
704.654
679.131
653.552
628.11
602.949
578.167
553.807
529.862
506.271
482.931
459.702
436.441
413.02
389.361
365.474
341.467
317.568
294.108
271.482
250.078
230.251
296.362
307.828
320.228
333.246
346.713
360.493
374.467
388.527
402.602
416.606
430.463
444.128
457.596
470.881
484.005
496.997
509.881
522.683
535.421
548.112
560.768
573.398
586.006
598.592
611.151
623.669
636.129
648.507
660.771
672.884
684.808
696.498
707.905
718.972
729.637
739.831
749.479
758.502
766.812
774.317
780.915
786.496
790.945
794.146
795.986
796.348
795.152
792.322
787.803
781.568
773.614
763.975
752.712
739.915
725.702
710.215
693.606
676.038
657.68
638.701
619.258
599.494
579.526
559.448
539.319
519.166
498.977
478.703
458.271
437.591
416.581
395.183
373.386
351.244
328.893
306.548
284.491
263.043
242.511
223.174
310.834
319.124
328.355
338.297
348.816
359.77
371.066
382.6
394.279
406.001
417.666
429.203
440.577
451.772
462.787
473.626
484.298
494.811
505.174
515.396
525.482
535.438
545.265
554.964
564.532
573.958
583.23
592.331
601.239
609.929
618.373
626.544
634.409
641.933
649.077
655.8
662.055
667.797
672.975
677.534
681.418
684.567
686.916
688.403
688.964
688.542
687.087
684.553
680.906
676.124
670.198
663.137
654.965
645.721
635.461
624.256
612.177
599.307
585.729
571.531
556.791
541.581
525.962
509.971
493.63
476.935
459.859
442.356
424.371
405.854
386.773
367.129
346.973
326.406
305.592
284.743
264.111
243.962
224.543
206.081
317.063
322.902
329.58
336.93
344.86
353.264
362.063
371.17
380.488
389.911
399.341
408.703
417.946
427.037
435.96
444.702
453.26
461.631
469.816
477.816
485.634
493.272
500.73
508.011
515.112
522.026
528.742
535.251
541.538
547.587
553.383
558.908
564.144
569.07
573.666
577.908
581.772
585.231
588.257
590.823
592.898
594.45
595.445
595.85
595.636
594.768
593.214
590.944
587.935
584.166
579.625
574.306
568.211
561.347
553.733
545.395
536.358
526.656
516.319
505.382
493.872
481.809
469.205
456.058
442.355
428.071
413.173
397.625
381.398
364.485
346.903
328.711
310.007
290.931
271.661
252.404
233.379
214.809
196.886
179.792
320.211
321.596
324.446
328.472
333.422
339.096
345.342
352.033
359.04
366.242
373.533
380.828
388.067
395.206
402.215
409.072
415.763
422.279
428.613
434.764
440.73
446.512
452.108
457.521
462.748
467.78
472.61
477.231
481.633
485.808
489.747
493.439
496.876
500.045
502.938
505.54
507.839
509.821
511.473
512.779
513.721
514.284