/*--------------------------------*- C++ -*----------------------------------*\
| =========                 |                                                 |
| \\      /  F ield         | OpenFOAM: The Open Source CFD Toolbox           |
|  \\    /   O peration     | Version:  v2012                                 |
|   \\  /    A nd           | Website:  www.openfoam.com                      |
|    \\/     M anipulation  |                                                 |
\*---------------------------------------------------------------------------*/
FoamFile
{
    version     2.0;
    format      ascii;
    class       volScalarField;
    location    "504";
    object      k;
}
// * * * * * * * * * * * * * * * * * * * * * * * * * * * * * * * * * * * * * //

dimensions      [0 2 -2 0 0 0 0];


internalField   nonuniform List<scalar> 
6556
(
2.18014
2.76031
2.86936
2.89885
2.91398
2.91398
2.89885
2.86936
2.76031
2.18014
1.18648
1.92241
2.13051
2.19901
2.22152
2.22152
2.19901
2.13051
1.92241
1.18648
0.742589
1.39894
1.63235
1.7227
1.75378
1.75378
1.7227
1.63235
1.39894
0.742589
0.512325
1.0611
1.28598
1.38397
1.42061
1.42061
1.38397
1.28598
1.0611
0.512326
0.378541
0.833439
1.03792
1.13492
1.17374
1.17374
1.13492
1.03792
0.83344
0.378541
0.293802
0.67353
0.855223
0.946798
0.985327
0.985327
0.946799
0.855224
0.673531
0.293802
0.236446
0.557002
0.717146
0.801437
0.838177
0.838177
0.801438
0.717148
0.557003
0.236447
0.195568
0.469363
0.61036
0.686903
0.721108
0.721108
0.686905
0.610362
0.469365
0.195568
0.165221
0.40166
0.526075
0.59512
0.626519
0.62652
0.595122
0.526078
0.401663
0.165222
0.141945
0.348154
0.458353
0.520472
0.549072
0.549073
0.520475
0.458357
0.348159
0.141947
0.123615
0.305043
0.403086
0.458966
0.484918
0.484919
0.45897
0.403091
0.305049
0.123617
0.108861
0.269728
0.357364
0.407701
0.431221
0.431224
0.407706
0.357372
0.269736
0.108864
0.0967698
0.240386
0.319084
0.364532
0.385858
0.385861
0.364539
0.319095
0.240397
0.0967736
0.0867081
0.215705
0.286697
0.327844
0.34721
0.347214
0.327854
0.286711
0.21572
0.0867132
0.078226
0.194721
0.259037
0.296406
0.314029
0.314035
0.29642
0.259057
0.194743
0.078233
0.0709954
0.176713
0.235218
0.269264
0.285342
0.28535
0.269283
0.235244
0.176742
0.0710047
0.0647717
0.161129
0.214551
0.24567
0.26038
0.26039
0.245697
0.214588
0.161166
0.064784
0.0593689
0.147542
0.196499
0.225032
0.238529
0.238543
0.225071
0.196547
0.147587
0.0593843
0.0546433
0.135616
0.180632
0.206875
0.219296
0.219316
0.206929
0.180698
0.135668
0.0546615
0.0504817
0.125082
0.166607
0.190816
0.20228
0.202308
0.190891
0.16669
0.125102
0.0505006
0.0467942
0.115727
0.154143
0.176541
0.187155
0.187194
0.176648
0.154273
0.115823
0.0471201
0.0435081
0.107372
0.143011
0.163792
0.173647
0.173702
0.163944
0.143211
0.107582
0.0452642
0.0405643
0.0998749
0.133023
0.152354
0.161532
0.161607
0.152562
0.133312
0.100319
0.0446314
0.0379141
0.0931151
0.124021
0.142049
0.150622
0.150719
0.142314
0.124377
0.0939822
0.0452254
0.035517
0.0869934
0.115874
0.132728
0.140758
0.140874
0.133031
0.116295
0.0885891
0.0470822
0.0333393
0.0814261
0.108472
0.124265
0.131805
0.131941
0.124596
0.109053
0.0841421
0.0499972
0.0313525
0.0763424
0.10172
0.116552
0.123654
0.12382
0.116982
0.102639
0.0804863
0.0536167
0.0295325
0.0716818
0.095539
0.1095
0.116209
0.116422
0.110103
0.0969786
0.0775772
0.0575701
0.0278584
0.0673928
0.0898599
0.103029
0.109391
0.109669
0.103885
0.0919985
0.0753118
0.0610826
0.0263126
0.0634306
0.0846235
0.0970735
0.10313
0.103494
0.0982582
0.0876218
0.0735515
0.0637667
0.0248794
0.0597564
0.0797788
0.0915753
0.0973653
0.0978372
0.0931619
0.0837726
0.0721617
0.0657254
0.0235454
0.0563361
0.0752812
0.0864841
0.0920444
0.0926444
0.088537
0.0803672
0.070944
0.0670373
0.0222987
0.0531402
0.0710915
0.0817556
0.0871206
0.0878672
0.0843278
0.0773217
0.0698092
0.0677786
0.0211288
0.0501425
0.0671756
0.077351
0.0825527
0.0834615
0.0804825
0.0745667
0.0686882
0.0680131
0.0200263
0.04732
0.0635029
0.073236
0.0783038
0.0793875
0.0769536
0.0720406
0.0675271
0.0677909
0.0189828
0.0446522
0.0600465
0.0693801
0.074341
0.0756091
0.0736983
0.0696905
0.0662874
0.0671542
0.0179909
0.042121
0.0567826
0.0657562
0.0706349
0.072094
0.0706784
0.0674729
0.0649459
0.0661444
0.0170436
0.0397106
0.05369
0.0623404
0.0671595
0.0688132
0.0678613
0.0653545
0.0634951
0.0648072
0.016135
0.0374067
0.0507499
0.0591111
0.0638916
0.0657416
0.0652197
0.0633131
0.061943
0.0631986
0.0152593
0.0351969
0.0479452
0.0560491
0.0608103
0.0628571
0.0627322
0.061337
0.0603122
0.061387
0.0144117
0.0330707
0.0452608
0.0531367
0.0578963
0.0601399
0.0603818
0.0594235
0.0586373
0.0594521
0.0135876
0.0310189
0.0426823
0.0503569
0.0551315
0.057572
0.0581553
0.0575764
0.0569597
0.0574804
0.0127831
0.0290335
0.0401961
0.0476925
0.0524969
0.0551351
0.0560403
0.0558015
0.0553214
0.0555576
0.0119946
0.0271073
0.0377883
0.0451253
0.0499721
0.0528091
0.0540226
0.0541019
0.0537574
0.0537579
0.0112187
0.0252333
0.0354444
0.0426348
0.0475331
0.0505695
0.0520827
0.0524724
0.0522873
0.0521331
0.0104524
0.0234051
0.0331485
0.0401973
0.0451509
0.0483854
0.0501929
0.050895
0.0509089
0.050702
0.00969283
0.0216163
0.0308834
0.0377852
0.0427905
0.0462178
0.0483138
0.0493347
0.0495938
0.0494439
0.00893686
0.0198601
0.0286301
0.0353666
0.0404101
0.0440181
0.0463936
0.0477386
0.0482859
0.0482974
0.00818119
0.0181301
0.0263683
0.0329058
0.0379608
0.0417283
0.044368
0.0460362
0.0469048
0.0471648
0.00742185
0.0164196
0.0240774
0.0303641
0.035389
0.0392829
0.0421622
0.0441432
0.0453507
0.0459224
0.00665368
0.014722
0.0217377
0.0277038
0.03264
0.0366138
0.0396967
0.0419679
0.0435147
0.0444333
0.00586918
0.0130295
0.0193366
0.0248964
0.0296677
0.0336594
0.0368969
0.0394223
0.0412903
0.0425645
0.00505679
0.0113212
0.0168638
0.0219324
0.0264521
0.0303846
0.0337119
0.0364398
0.0385929
0.0402052
0.00418338
0.00969166
0.0143815
0.0188542
0.0230224
0.0268047
0.0301415
0.0330026
0.0353811
0.0372864
0.00325497
0.00828184
0.0121371
0.0158891
0.01956
0.0230602
0.0262916
0.0291832
0.0316983
0.0338155
0.00228853
0.00701378
0.0103074
0.0133729
0.0164423
0.0195009
0.0224587
0.0252271
0.0277368
0.0299411
0.00123125
0.0055855
0.00870574
0.011385
0.0139704
0.0165576
0.0191239
0.0216025
0.0239274
0.0260424
0.00089673
0.00382315
0.00695688
0.00961523
0.0120349
0.0143328
0.0165434
0.0186522
0.0206356
0.0224643
0.000844233
0.00220479
0.00512646
0.00771151
0.0101323
0.0122624
0.0141786
0.0158857
0.0174157
0.018787
0.00095002
0.00169511
0.00262431
0.00391899
0.00538783
0.00649517
0.00739909
0.00818862
0.00886443
0.00943521
0.00985066
0.00341174
0.00351012
0.0037315
0.00391534
0.00402998
0.00406549
0.00401495
0.00386123
0.00367929
0.00346865
0.00323169
0.00297423
0.00270943
0.00244508
0.00218584
0.00193019
0.00170698
0.00150452
0.00131436
0.00113096
0.000949156
0.00076256
0.000561056
0.000310037
0.0190011
0.00845215
0.00748219
0.00764295
0.007912
0.00810366
0.00815582
0.00804054
0.00772599
0.00727722
0.00677076
0.00623596
0.00569513
0.00517062
0.00467603
0.00421661
0.0037891
0.00336135
0.00293656
0.00251854
0.00211453
0.00173496
0.00139943
0.00109749
0.000573691
0.0282305
0.0138612
0.0106201
0.00997684
0.00990123
0.00986758
0.00972936
0.00944582
0.00898472
0.00835617
0.00768034
0.00700322
0.00634639
0.00572887
0.00516597
0.00466326
0.00421492
0.00379601
0.00339071
0.00298559
0.00257056
0.00214699
0.00173767
0.0013519
0.000687235
0.0382668
0.0207902
0.0143387
0.0123917
0.0116203
0.0111252
0.0106298
0.0100595
0.00938332
0.00860001
0.00778864
0.00702333
0.0063095
0.00566044
0.00508944
0.00459846
0.00417781
0.00380379
0.00345384
0.00310601
0.00273805
0.00233609
0.00190729
0.00146073
0.00073116
0.0481352
0.0297103
0.0194328
0.015381
0.0135566
0.0123872
0.011408
0.010468
0.00952896
0.00859434
0.00767433
0.00682131
0.00605625
0.00538734
0.00482144
0.00435443
0.00397124
0.00364653
0.00335296
0.00306404
0.00275169
0.00239148
0.00197411
0.0014945
0.000733601
0.0556018
0.0389411
0.0256933
0.0191156
0.0159366
0.0139146
0.0123269
0.0109503
0.00970504
0.00857321
0.00754621
0.00661072
0.00578783
0.00508934
0.00451928
0.0040681
0.00371589
0.00343406
0.00318931
0.00295107
0.00268815
0.00237032
0.00197661
0.0014852
0.000712813
0.060844
0.0479603
0.0328636
0.0237409
0.018884
0.0158287
0.0135457
0.011656
0.0100467
0.00867444
0.00749878
0.00648568
0.00561122
0.00485938
0.0042644
0.00380925
0.00347214
0.00322061
0.00301348
0.00281505
0.0025915
0.00230939
0.00194031
0.00144938
0.000679039
0.0647559
0.0552519
0.0400112
0.0291979
0.0225365
0.0182315
0.0150951
0.0126272
0.0106134
0.00895757
0.0075935
0.00646686
0.00552634
0.00473791
0.00409831
0.00361244
0.0032676
0.00303046
0.00284886
0.00267945
0.00248516
0.00223046
0.00188198
0.00139689
0.000636682
0.0677229
0.0611454
0.0467974
0.0350432
0.0267581
0.0211448
0.0170439
0.0138864
0.0113904
0.00941792
0.00784621
0.00657939
0.00555001
0.00470149
0.00400643
0.00347488
0.00310889
0.00287194
0.00270303
0.00255231
0.00237876
0.0021447
0.00181271
0.00133503
0.000590637
0.0699151
0.0657104
0.0530775
0.0408348
0.0313126
0.024467
0.0193749
0.0154673
0.0124238
0.0100763
0.0082505
0.00681902
0.00568325
0.00475787
0.00399205
0.00339349
0.00298187
0.00272994
0.00256571
0.00242784
0.00226986
0.00205186
0.00173369
0.00126502
0.000549821
0.0714637
0.0691636
0.0585801
0.0463662
0.03601
0.0280712
0.0220138
0.0173564
0.0137534
0.0109775
0.00884624
0.00720211
0.00593123
0.00491769
0.00407137
0.00338359
0.00289345
0.00259853
0.00242891
0.00229946
0.0021547
0.00195101
0.00164585
0.00118728
0.000510995
0.0724901
0.0717054
0.0631327
0.0514699
0.040766
0.0318284
0.024876
0.0195076
0.0153586
0.0121434
0.00968717
0.00777341
0.00632514
0.00520913
0.00428156
0.0034868
0.00287722
0.00249507
0.00229324
0.00216255
0.00202867
0.00184008
0.00155048
0.00110568
0.000472702
0.0730335
0.0734284
0.0666258
0.0559872
0.0450912
0.0355176
0.027849
0.0218638
0.0172275
0.0136193
0.0107992
0.0086018
0.00692466
0.00566665
0.00466199
0.00376302
0.00300305
0.00247063
0.00217644
0.00202044
0.0018909
0.00171928
0.00145315
0.00103289
0.00043531
0.0731016
0.0743967
0.0691627
0.0597165
0.0489362
0.0390534
0.0308526
0.0243715
0.0193312
0.0153906
0.0122703
0.00977444
0.00782011
0.00634945
0.00523121
0.00427035
0.00337109
0.00263693
0.00215155
0.00190137
0.0017552
0.00160168
0.00137066
0.000996233
0.000402956
0.0726964
0.0746541
0.0707935
0.0625793
0.0522863
0.042406
0.0338206
0.0269753
0.0216386
0.0174538
0.0141064
0.0113649
0.00913205
0.00737301
0.00603614
0.00498801
0.00404404
0.00315714
0.00243703
0.00194957
0.00170067
0.00154593
0.00136697
0.00107315
0.00051456
0.0718255
0.0742481
0.0715578
0.0645468
0.0550818
0.0453279
0.0366612
0.0296153
0.0241052
0.0197768
0.0163015
0.0134118
0.0109719
0.00892642
0.00725757
0.00594153
0.00489358
0.0039826
0.0031736
0.00249297
0.00197472
0.0016777
0.00148134
0.00126044
0.00105285
0.0705128
0.0732295
0.0715509
0.0657263
0.0572859
0.0478992
0.0394016
0.032265
0.0266944
0.0223168
0.0188003
0.0158999
0.0134114
0.011208
0.00922279
0.00750581
0.00606479
0.00491859
0.00403277
0.00334868
0.00287482
0.00257991
0.0024782
0.00255507
0.00276107
0.0687928
0.0716423
0.0708158
0.0661428
0.0587893
0.050175
0.0419016
0.0348937
0.0293189
0.025016
0.0215946
0.0187779
0.0163925
0.0142565
0.012215
0.0102209
0.0083266
0.00664048
0.00524371
0.00421234
0.00355936
0.00324668
0.00319899
0.00330284
0.0035348
0.0667219
0.0695559
0.0694191
0.0658446
0.0596314
0.0520285
0.0441931
0.037401
0.0319264
0.0277229
0.0244953
0.0219111
0.0197575
0.0178626
0.0160567
0.0142109
0.0122872
0.0103387
0.00849742
0.00691924
0.00574837
0.00505005
0.00477801
0.00478419
0.00498111
0.0643783
0.0670572
0.0674425
0.0648696
0.0598119
0.0532749
0.0463083
0.0397701
0.034474
0.0303734
0.0272747
0.0249382
0.0231048
0.0215728
0.0201712
0.0187694
0.0172606
0.0156035
0.0138241
0.0120205
0.0103484
0.00897752
0.00803512
0.00754398
0.00738745
0.0618608
0.064256
0.064987
0.0632878
0.0593538
0.053918
0.0478813
0.0420363
0.0369022
0.0329481
0.0299717
0.0277507
0.0261426
0.0249281
0.0239306
0.0230177
0.0220745
0.0210082
0.0197565
0.018322
0.0167601
0.0151708
0.0136702
0.012499
0.0116947
0.0592837
0.0612845
0.0621776
0.0611859
0.0582815
0.0539511
0.0488927
0.0438014
0.0392058
0.0354154
0.0325336
0.0304562
0.0289532
0.0279073
0.0271612
0.0265804
0.0260628
0.0255125
0.0248333
0.0239662
0.0228991
0.0216508
0.0202589
0.0188705
0.0176519
0.0567683
0.0582926
0.0591677
0.058684
0.0566627
0.0533713
0.0493143
0.0450437
0.0410409
0.037631
0.0349425
0.0329531
0.0315676
0.0306394
0.0300196
0.0296258
0.0293485
0.0291017
0.0287959
0.0283525
0.0277299
0.0269155
0.0259192
0.0247625
0.0235985
0.0544295
0.0554372
0.0561348
0.0559417
0.0546061
0.0522227
0.0491153
0.0456961
0.0423577
0.0394026
0.0370004
0.0351919
0.033933
0.0331181
0.0326193
0.0323202
0.0321735
0.0321066
0.0320345
0.0318862
0.0316035
0.0311581
0.030544
0.0297662
0.0288565
0.0523596
0.0528632
0.0532675
0.0531549
0.0522744
0.0506089
0.0483325
0.0457222
0.0430746
0.040644
0.0386045
0.037036
0.035936
0.0352387
0.0348465
0.0346651
0.0346225
0.0346702
0.0347702
0.0348449
0.0348337
0.0346983
0.0344212
0.0339961
0.0334271
0.0506111
0.0506798
0.0507392
0.0505378
0.0498802
0.0487024
0.047075
0.0451614
0.0431639
0.0412749
0.0396451
0.0383674
0.0374679
0.036911
0.036627
0.0365362
0.0366056
0.0367916
0.0370299
0.0372749
0.0374836
0.0376107
0.0376278
0.0375303
0.0373051
0.049184
0.0489369
0.0486741
0.0482858
0.0476591
0.0467365
0.045537
0.044145
0.0426823
0.0412793
0.0400517
0.0390819
0.0384061
0.0380102
0.0378425
0.0378455
0.038005
0.0382896
0.0386564
0.0390586
0.0394492
0.039796
0.0400734
0.0402619
0.0403462
0.0480202
0.0476091
0.0471148
0.0465287
0.0458187
0.0449645
0.0439761
0.0428972
0.0417973
0.0407571
0.0398542
0.0391499
0.0386778
0.0384352
0.0383822
0.03847
0.0386932
0.0390348
0.0394703
0.0399691
0.0404969
0.0410199
0.0415059
0.041933
0.0422844
0.0470083
0.0465932
0.046004
0.0452896
0.0444777
0.0435891
0.0426494
0.0416954
0.040773
0.0399327
0.0392231
0.0386844
0.0383414
0.0381962
0.0382255
0.0383667
0.0386196
0.038974
0.0394169
0.0399313
0.0404969
0.0410906
0.0416887
0.0422688
0.0428084
0.045997
0.045723
0.04519
0.0444693
0.0436188
0.0426893
0.0417284
0.040782
0.0398932
0.039102
0.0384427
0.0379422
0.037617
0.0374713
0.0374922
0.0376435
0.0378746
0.0381896
0.0385802
0.039036
0.0395464
0.0400986
0.0406784
0.0412704
0.0418569
0.0448149
0.0447956
0.0444546
0.043862
0.0430841
0.0421854
0.0412269
0.0402647
0.039348
0.038518
0.0378075
0.03724
0.0368296
0.0365812
0.0364908
0.0365417
0.0367039
0.0369335
0.0372197
0.0375608
0.0379503
0.0383802
0.0388425
0.0393286
0.0398272
0.0432937
0.0436014
0.0435509
0.0432014
0.0426147
0.0418542
0.0409829
0.0400606
0.039141
0.0382698
0.0374832
0.0368079
0.036261
0.0358511
0.0355795
0.035441
0.0354234
0.0355048
0.0356641
0.0358677
0.0361045
0.0363727
0.0366694
0.0369908
0.0373293
0.0412867
0.0419499
0.0422432
0.0422128
0.0419092
0.0413871
0.0407031
0.0399138
0.039072
0.0382246
0.0374107
0.0366611
0.0359978
0.0354348
0.0349793
0.0346328
0.0343926
0.0342509
0.0341967
0.0342131
0.0342859
0.0344031
0.0345473
0.0347048
0.034874
0.038689
0.0396953
0.0403404
0.0406573
0.0406844
0.0404648
0.0400458
0.0394755
0.0388017
0.0380683
0.037314
0.0365713
0.0358657
0.0352156
0.0346338
0.0341276
0.0337002
0.0333513
0.0330779
0.0328738
0.0327318
0.0326435
0.032598
0.0325848
0.0325967
0.035474
0.0367729
0.0377346
0.03838
0.038736
0.038835
0.0387136
0.0384112
0.0379676
0.0374213
0.0368079
0.0361586
0.0354994
0.0348514
0.0342306
0.0336484
0.0331127
0.0326278
0.0321959
0.0318168
0.0314886
0.0312081
0.0309708
0.0307717
0.0306064
0.0317487
0.0332473
0.0344462
0.0353549
0.0359898
0.0363727
0.0365309
0.0364948
0.0362967
0.0359686
0.0355411
0.0350422
0.0344965
0.0339252
0.0333453
0.0327704
0.032211
0.0316747
0.0311666
0.0306901
0.0302468
0.0298373
0.0294608
0.0291162
0.028803
0.027838
0.0293869
0.0306846
0.0317299
0.0325312
0.0331028
0.0334631
0.0336343
0.0336409
0.0335081
0.0332608
0.0329226
0.0325151
0.0320574
0.0315659
0.0310546
0.0305347
0.0300151
0.0295028
0.029003
0.0285193
0.0280544
0.0276097
0.0271862
0.026786
0.0240465
0.0254484
0.0266637
0.027685
0.0284979
0.0291092
0.0295362
0.0297959
0.029907
0.0298885
0.0297594
0.0295384
0.0292428
0.0288884
0.0284895
0.0280582
0.0276051
0.0271387
0.0266662
0.0261932
0.0257242
0.0252625
0.0248108
0.0243711
0.0239462
0.0199521
0.0209751
0.0218481
0.0225691
0.0231448
0.0235812
0.0238879
0.024076
0.0241572
0.0241434
0.024047
0.0238798
0.0236533
0.0233779
0.0230636
0.0227188
0.0223512
0.0219674
0.0215729
0.0211723
0.0207694
0.0203674
0.0199687
0.0195754
0.0191904
0.00990426
0.0103176
0.0106751
0.0109729
0.0112155
0.0114064
0.0115484
0.011645
0.0116995
0.0117155
0.0116968
0.0116471
0.0115703
0.0114699
0.0113495
0.0112124
0.0110616
0.0108998
0.0107297
0.0105535
0.0103731
0.0101902
0.0100064
0.00982284
0.00964065
0.000479812
0.000511573
0.00183161
0.00227044
0.00258035
0.00260285
0.00303389
0.00312674
0.00348554
0.00382508
0.00418834
0.00473455
0.00528344
0.00565674
0.00612104
0.00746453
0.00765002
0.00790054
0.0112175
0.0109769
0.0108719
0.0166872
0.0159829
0.0154516
0.0225471
0.0216606
0.0208872
0.0279592
0.0271252
0.0263201
0.0327788
0.0321191
0.0314218
0.0369758
0.0365676
0.0360826
0.0403218
0.0402103
0.0400086
0.0425315
0.042692
0.0427733
0.0432554
0.0436401
0.0439736
0.0423785
0.0428717
0.0433401
0.0402861
0.0407404
0.0411954
0.0376475
0.0379715
0.0383055
0.0350365
0.0352058
0.0353848
0.0326255
0.032668
0.0327227
0.0304827
0.03038
0.0302939
0.0285461
0.0283116
0.0280941
0.0264462
0.0261251
0.0258175
0.0235795
0.0232263
0.0228823
0.0188557
0.0185294
0.0182092
0.0094822
0.00932638
0.00917314
0.000114417
0.000240978
0.000385881
0.000510851
0.000623345
0.000724319
0.000817679
0.000905077
0.000987633
0.00106609
0.00114095
0.00121263
0.00128143
0.00134762
0.00141147
0.00147318
0.00153298
0.00159108
0.00164767
0.00170295
0.00175712
0.00181039
0.00186294
0.001915
0.00196677
0.00201845
0.00207029
0.00212249
0.00217532
0.00222901
0.00228386
0.00234014
0.0023982
0.00245839
0.00252113
0.00258689
0.00265622
0.00272979
0.00280839
0.00289303
0.00298445
0.00308023
0.00318049
0.00328536
0.00339499
0.00350967
0.00362964
0.00375517
0.00388642
0.00402353
0.00416657
0.00431554
0.00447028
0.0046305
0.00479565
0.0049649
0.00513696
0.00530997
0.00548126
0.00564707
0.00580221
0.00593958
0.00604965
0.00612041
0.00614036
0.00610213
0.00600475
0.00584653
0.00562419
0.00533143
0.00496568
0.0045188
0.00400796
0.00346414
0.00291886
0.00244829
0.00201929
0.00161206
0.0012016
0.000719532
0.000392622
0.000749148
0.000957653
0.0011445
0.00134832
0.00156553
0.00178451
0.00200389
0.00222124
0.00243462
0.00264251
0.00284389
0.00303822
0.00322527
0.00340509
0.00357788
0.00374394
0.00390363
0.00405736
0.00420557
0.0043487
0.00448722
0.0046216
0.00475234
0.00487993
0.00500488
0.00512771
0.00524895
0.00536914
0.00548883
0.00560859
0.00572899
0.00585061
0.00597406
0.00609995
0.0062289
0.00636155
0.00649856
0.00664045
0.00678793
0.00694226
0.00710693
0.00727988
0.00746112
0.0076511
0.0078504
0.00805957
0.00827919
0.00850975
0.0087517
0.00900535
0.00927089
0.00954824
0.00983702
0.0101364
0.0104449
0.0107602
0.0110789
0.0113959
0.0117042
0.0119936
0.0122504
0.0124563
0.0125907
0.012633
0.0125802
0.0123996
0.0120691
0.0115725
0.010854
0.00999076
0.00899043
0.00792362
0.0068416
0.00575681
0.00466235
0.00363615
0.00274681
0.00201514
0.00104481
0.000585965
0.00112957
0.00138861
0.0016531
0.00196146
0.00229404
0.00263339
0.00297085
0.00329993
0.00361691
0.00391997
0.00420862
0.00448322
0.00474449
0.00499331
0.00523058
0.00545711
0.00567367
0.00588092
0.00607948
0.00626994
0.00645284
0.00662871
0.00679808
0.00696148
0.00711945
0.00727252
0.00742128
0.00756631
0.00770821
0.00784761
0.00798517
0.00812158
0.00825753
0.00839376
0.00853103
0.00867013
0.00881187
0.00895704
0.00910645
0.00926089
0.00942195
0.00959232
0.00977097
0.00995814
0.0101544
0.0103606
0.0105773
0.0108051
0.0110448
0.0112966
0.0115609
0.0118374
0.0121257
0.0124246
0.0127323
0.013046
0.0133614
0.0136726
0.013972
0.0142492
0.0144906
0.0146793
0.0147947
0.0148075
0.0147042
0.0144632
0.0140618
0.013477
0.0126917
0.0117028
0.0104826
0.00919066
0.00787014
0.0066048
0.00539171
0.00425073
0.0032023
0.00228262
0.00112829
0.000717737
0.00142422
0.00175925
0.00210933
0.00251175
0.00293903
0.00336927
0.0037892
0.00419164
0.0045737
0.00493512
0.00527705
0.00560119
0.00590931
0.00620299
0.00648353
0.00675196
0.00700912
0.00725563
0.00749202
0.00771873
0.00793618
0.00814475
0.00834481
0.00853676
0.00872101
0.008898
0.00906819
0.00923208
0.00939021
0.00954312
0.00969145
0.00983583
0.00997695
0.0101155
0.0102524
0.0103883
0.0105241
0.0106607
0.010799
0.01094
0.0110845
0.0112352
0.0113932
0.0115582
0.0117306
0.0119112
0.0121007
0.0122997
0.0125087
0.012728
0.0129579
0.013198
0.0134475
0.013705
0.0139684
0.0142345
0.0144989
0.0147555
0.014997
0.0152137
0.0153942
0.0155245
0.0155878
0.0155607
0.0154205
0.0151532
0.0147413
0.0141648
0.0134066
0.0124587
0.011294
0.00994784
0.00845399
0.00702982
0.0057091
0.00451333
0.00339792
0.00235478
0.00110763
0.000814273
0.00164962
0.00208163
0.0025199
0.00300385
0.0035042
0.00399712
0.00446979
0.004917
0.00533827
0.00573554
0.00611163
0.00646936
0.00681114
0.00713887
0.0074539
0.00775717
0.00804929
0.00833066
0.00860152
0.00886206
0.00911239
0.00935267
0.00958304
0.00980367
0.0100148
0.0102167
0.0104096
0.0105939
0.01077
0.0109384
0.0110995
0.0112539
0.0114022
0.0115452
0.0116834
0.0118178
0.0119491
0.0120783
0.0122063
0.0123341
0.0124628
0.0125934
0.0127295
0.0128707
0.0130174
0.0131702
0.0133297
0.0134967
0.0136716
0.0138547
0.0140461
0.0142454
0.0144516
0.0146633
0.0148781
0.0150927
0.0153027
0.0155023
0.0156843
0.0158397
0.0159582
0.0160273
0.0160329
0.0159596
0.0157931
0.0155209
0.0151309
0.0146066
0.0139336
0.0130817
0.0120227
0.0107448
0.00927238
0.00770511
0.00615869
0.00478901
0.00355415
0.00237518
0.00104222
0.000885416
0.00183404
0.00236844
0.00288936
0.00343964
0.00399159
0.00452367
0.00502639
0.00549813
0.00594139
0.00636022
0.00675879
0.00714066
0.00750853
0.00786427
0.00820905
0.0085435
0.00886787
0.00918219
0.00948634
0.00978013
0.0100634
0.0103359
0.0105976
0.0108484
0.0110882
0.0113172
0.0115355
0.0117433
0.0119407
0.0121281
0.0123059
0.0124745
0.0126343
0.0127861
0.0129305
0.0130681
0.0131999
0.0133267
0.0134495
0.0135694
0.0136874
0.0138049
0.0139233
0.0140457
0.0141717
0.0143021
0.0144375
0.0145787
0.0147263
0.0148807
0.0150421
0.0152101
0.015384
0.0155622
0.0157427
0.0159221
0.0160961
0.016259
0.0164038
0.0165218
0.0166027
0.0166346
0.0166043
0.0164983
0.0163055
0.0160185
0.0156328
0.0151451
0.0145478
0.0138195
0.012918
0.0117873
0.0103809
0.00872484
0.00696631
0.00530921
0.00383539
0.00243866
0.000960365
0.000942632
0.00199487
0.00262719
0.00321985
0.00381981
0.00440398
0.00495623
0.00547212
0.00595413
0.00640761
0.00683843
0.00725171
0.00765141
0.00804023
0.00841984
0.00879104
0.00915405
0.00950867
0.00985449
0.010191
0.0105175
0.0108336
0.0111388
0.0114325
0.0117146
0.0119848
0.0122429
0.0124889
0.0127227
0.0129445
0.0131544
0.0133526
0.0135394
0.0137153
0.0138807
0.0140362
0.0141824
0.0143202
0.0144504
0.0145741
0.0146923
0.0148062
0.014917
0.015026
0.0151367
0.0152497
0.0153656
0.0154854
0.0156101
0.0157405
0.0158773
0.016021
0.0161716
0.0163286
0.0164909
0.0166566
0.0168229
0.0169855
0.0171391
0.0172765
0.017389
0.017466
0.0174952
0.0174629
0.0173551
0.0171592
0.0168664
0.0164747
0.0159877
0.0154122
0.014749
0.0139746
0.0130207
0.0117696
0.0101253
0.00814344
0.0060803
0.00425928
0.00257586
0.000913387
0.00099441
0.00214339
0.00286382
0.00351466
0.00414776
0.00474734
0.00530465
0.00582098
0.00630284
0.0067581
0.00719402
0.00761636
0.00802918
0.00843501
0.00883513
0.0092299
0.00961904
0.0100019
0.0103775
0.010745
0.0111034
0.0114517
0.0117892
0.0121151
0.0124289
0.0127302
0.0130185
0.0132936
0.0135554
0.0138038
0.0140387
0.0142604
0.0144689
0.0146645
0.0148476
0.0150187
0.0151783
0.0153272
0.0154662
0.0155965
0.015719
0.0158351
0.0159462
0.0160537
0.0161593
0.0162664
0.0163755
0.0164879
0.0166048
0.0167273
0.0168567
0.0169937
0.0171389
0.0172923
0.0174535
0.0176211
0.0177927
0.0179647
0.0181321
0.018288
0.0184238
0.0185285
0.0185891
0.0185904
0.018516
0.0183493
0.0180761
0.017687
0.0171853
0.0165828
0.0159023
0.0151565
0.0143163
0.0132627
0.0117906
0.00973831
0.00723956
0.00487398
0.00279547
0.000897754
0.00104685
0.00228924
0.00308574
0.00377996
0.00443035
0.00503073
0.00558074
0.00608753
0.00656125
0.0070119
0.00744771
0.00787474
0.00829692
0.00871643
0.00913406
0.00954967
0.00996244
0.0103712
0.0107746
0.0111713
0.0115598
0.011939
0.0123078
0.0126651
0.0130102
0.0133424
0.0136611
0.013966
0.0142567
0.0145329
0.0147946
0.0150417
0.0152743
0.0154925
0.0156966
0.0158868
0.0160637
0.016228
0.0163805
0.0165221
0.0166542
0.0167779
0.0168948
0.0170064
0.0171143
0.017222
0.017331
0.0174426
0.0175586
0.0176805
0.0178099
0.0179482
0.0180964
0.0182553
0.018425
0.0186049
0.0187935
0.0189879
0.0191838
0.0193751
0.0195536
0.0197085
0.0198266
0.0198918
0.0198853
0.0197866
0.0195758
0.0192277
0.0187384
0.0181085
0.0173612
0.0165364
0.0156666
0.0147123
0.0134862
0.011627
0.00896553
0.00587675
0.0032069
0.000925667
0.00110564
0.00244347
0.00330336
0.00402542
0.00467769
0.00526566
0.00579784
0.00628688
0.00674614
0.00718718
0.00761879
0.00804701
0.00847539
0.0089056
0.00933789
0.00977153
0.0102052
0.0106372
0.0110659
0.0114893
0.0119058
0.0123139
0.0127121
0.0130993
0.0134744
0.0138365
0.0141851
0.0145193
0.0148389
0.0151435
0.0154327
0.0157065
0.0159648
0.0162075
0.0164348
0.0166469
0.0168443
0.0170274
0.017197
0.0173541
0.0175
0.0176359
0.0177635
0.0178844
0.0180002
0.0181138
0.0182279
0.0183442
0.0184646
0.0185911
0.0187257
0.0188703
0.0190266
0.019196
0.0193793
0.0195767
0.0197877
0.0200103
0.0202413
0.0204756
0.0207061
0.0209229
0.0211136
0.021262
0.0213488
0.021351
0.0212423
0.0209951
0.020585
0.0199894
0.0192111
0.0182758
0.0172441
0.0161774
0.01503
0.0134977
0.0110555
0.00750413
0.00398386
0.00103091
0.00118049
0.00262236
0.003531
0.00426453
0.00490338
0.00546637
0.00597115
0.00643544
0.00687505
0.00730249
0.00772661
0.00815306
0.00858481
0.00902288
0.0094669
0.00991558
0.0103671
0.0108193
0.0112701
0.0117173
0.012159
0.0125932
0.0130185
0.0134333
0.0138364
0.0142269
0.0146039
0.0149665
0.0153144
0.0156469
0.0159637
0.0162645
0.0165491
0.0168175
0.0170696
0.0173056
0.0175257
0.0177303
0.0179201
0.018096
0.0182593
0.0184113
0.0185537
0.0186882
0.0188165
0.0189407
0.0190644
0.0191896
0.0193185
0.0194534
0.0195968
0.0197509
0.0199181
0.0201003
0.020299
0.0205155
0.0207499
0.0210014
0.0212681
0.0215462
0.0218299
0.0221111
0.0223786
0.0226181
0.0228112
0.0229353
0.022963
0.0228625
0.0225983
0.022133
0.0214357
0.0204848
0.0193072
0.0179851
0.0166081
0.0151448
0.0131551
0.00992758
0.0053175
0.00125576
0.00128209
0.00284742
0.00378568
0.00451594
0.00512567
0.00565091
0.00611895
0.00655209
0.00696757
0.00737802
0.0077918
0.00821376
0.00864609
0.00908907
0.00954166
0.010002
0.0104679
0.0109368
0.0114062
0.0118737
0.0123371
0.0127943
0.0132436
0.0136832
0.0141119
0.0145285
0.0149319
0.0153213
0.0156961
0.0160555
0.0163992
0.0167267
0.0170377
0.0173322
0.0176099
0.0178708
0.0181153
0.0183434
0.0185558
0.0187533
0.0189371
0.0191085
0.0192692
0.0194208
0.0195652
0.0197043
0.0198415
0.0199793
0.0201201
0.0202665
0.0204212
0.020587
0.0207665
0.0209622
0.0211766
0.0214113
0.0216676
0.0219458
0.0222451
0.0225632
0.022896
0.0232372
0.0235778
0.0239058
0.0242053
0.0244563
0.0246337
0.0247068
0.024638
0.0243822
0.023887
0.0230986
0.0219747
0.0205059
0.0187697
0.0169273
0.0149479
0.0122313
0.00755099
0.00162338
0.00143825
0.0031353
0.00408067
0.00479334
0.00536524
0.00584153
0.00626326
0.00665917
0.00704644
0.0074368
0.00783743
0.00825206
0.00868191
0.00912644
0.00958399
0.0100522
0.0105285
0.0110099
0.0114939
0.0119777
0.012459
0.0129354
0.0134052
0.0138664
0.0143177
0.0147576
0.0151851
0.0155992
0.015999
0.0163839
0.0167532
0.0171065
0.0174434
0.0177635
0.0180668
0.0183532
0.0186228
0.0188757
0.0191125
0.0193338
0.0195407
0.0197344
0.0199165
0.0200886
0.0202524
0.0204099
0.020564
0.0207175
0.0208731
0.0210335
0.0212016
0.0213805
0.0215732
0.0217826
0.0220117
0.0222629
0.0225383
0.0228391
0.0231659
0.0235177
0.0238922
0.024285
0.0246894
0.0250962
0.0254927
0.0258624
0.0261845
0.026433
0.0265747
0.0265681
0.0263599
0.0258827
0.0250541
0.0237867
0.0220137
0.019762
0.0172096
0.0143891
0.0107181
0.00235452
0.00166136
0.00358846
0.00446587
0.00511868
0.0056368
0.00606023
0.00642873
0.00678273
0.00713823
0.00750545
0.00788988
0.00829387
0.00871755
0.00915962
0.00961783
0.0100894
0.0105715
0.0110609
0.0115548
0.0120505
0.0125453
0.0130369
0.0135233
0.0140026
0.014473
0.0149333
0.015382
0.0158182
0.0162409
0.0166492
0.0170425
0.0174201
0.0177816
0.0181265
0.0184548
0.0187662
0.0190608
0.019339
0.0196013
0.0198483
0.0200806
0.020299
0.0205051
0.0207003
0.0208865
0.0210654
0.0212393
0.0214114
0.0215844
0.021761
0.0219443
0.0221376
0.0223439
0.0225668
0.0228095
0.0230749
0.023366
0.0236848
0.0240329
0.0244108
0.0248178
0.0252514
0.0257073
0.0261787
0.0266564
0.0271278
0.027577
0.0279835
0.0283221
0.0285604
0.0286564
0.028554
0.0281765
0.0274177
0.026133
0.0241575
0.0213825
0.0178905
0.0139761
0.00941411
0.00227686
0.00412772
0.00492862
0.005498
0.00594443
0.00631319
0.00663799
0.00694932
0.00727195
0.00761383
0.00797899
0.00836851
0.00878165
0.00921646
0.00967027
0.0101401
0.0106227
0.0111149
0.0116138
0.0121164
0.0126201
0.0131226
0.0136214
0.0141148
0.0146008
0.015078
0.0155449
0.0160003
0.0164432
0.0168725
0.0172875
0.0176874
0.0180716
0.0184397
0.0187914
0.0191265
0.0194455
0.0197491
0.0200377
0.0203113
0.0205703
0.0208153
0.0210475
0.0212681
0.0214788
0.0216814
0.0218778
0.022071
0.0222637
0.0224586
0.0226588
0.0228674
0.023088
0.023324
0.0235789
0.0238564
0.0241596
0.0244916
0.0248546
0.0252505
0.02568
0.0261423
0.0266353
0.0271548
0.0276943
0.0282451
0.0287954
0.0293307
0.0298329
0.0302797
0.0306429
0.0308863
0.0309614
0.0308003
0.0303032
0.0293205
0.0276394
0.0250076
0.0213529
0.0171361
0.00324529
0.00475439
0.00545261
0.00592119
0.00629272
0.00660986
0.00689967