/*--------------------------------*- C++ -*----------------------------------*\
| =========                 |                                                 |
| \\      /  F ield         | OpenFOAM: The Open Source CFD Toolbox           |
|  \\    /   O peration     | Version:  v2012                                 |
|   \\  /    A nd           | Website:  www.openfoam.com                      |
|    \\/     M anipulation  |                                                 |
\*---------------------------------------------------------------------------*/
FoamFile
{
    version     2.0;
    format      ascii;
    class       volScalarField;
    location    "504";
    object      nut;
}
// * * * * * * * * * * * * * * * * * * * * * * * * * * * * * * * * * * * * * //

dimensions      [0 2 -1 0 0 0 0];


internalField   nonuniform List<scalar> 
6556
(
0.00331579
0.0117126
0.0141045
0.0145206
0.0144113
0.0144113
0.0145206
0.0141045
0.0117126
0.00331579
0.00244611
0.00952962
0.0128656
0.0138201
0.0139264
0.0139264
0.0138201
0.0128656
0.00952962
0.00244611
0.00193517
0.0081543
0.0117544
0.0130979
0.0134271
0.0134271
0.0130979
0.0117544
0.0081543
0.00193517
0.00160738
0.0071941
0.0108065
0.012394
0.0129022
0.0129022
0.012394
0.0108066
0.00719411
0.00160738
0.00138166
0.00647732
0.0100049
0.0117293
0.0123642
0.0123642
0.0117293
0.0100049
0.00647733
0.00138166
0.00121723
0.00591587
0.00932253
0.0111117
0.0118282
0.0118282
0.0111117
0.00932255
0.00591589
0.00121723
0.00109197
0.00545988
0.00873479
0.0105421
0.0113061
0.0113061
0.0105421
0.00873482
0.0054599
0.00109197
0.0009931
0.00507908
0.0082221
0.0100183
0.0108053
0.0108053
0.0100183
0.00822214
0.00507912
0.000993102
0.000912802
0.00475409
0.00776956
0.00953664
0.0103302
0.0103303
0.00953669
0.00776962
0.00475415
0.000912805
0.000846067
0.00447195
0.00736595
0.00909338
0.00988265
0.00988267
0.00909345
0.00736605
0.00447203
0.000846071
0.00078955
0.00422362
0.00700282
0.00868479
0.00946278
0.00946282
0.0086849
0.00700296
0.00422375
0.000789556
0.000740937
0.00400264
0.00667369
0.00830745
0.00906992
0.00906998
0.00830761
0.00667391
0.00400284
0.000740946
0.000698577
0.00380422
0.00637356
0.00795827
0.00870277
0.00870287
0.0079585
0.00637388
0.00380451
0.000698591
0.000661263
0.00362472
0.00609844
0.00763447
0.00835978
0.00835993
0.00763483
0.00609892
0.00362515
0.000661283
0.000628087
0.00346132
0.00584515
0.00733362
0.00803927
0.00803949
0.00733414
0.00584585
0.00346194
0.000628115
0.000598356
0.00331175
0.00561104
0.0070535
0.00773955
0.00773986
0.00705428
0.00561206
0.00331263
0.000598395
0.000571528
0.00317419
0.00539392
0.00679216
0.00745898
0.00745944
0.00679332
0.00539536
0.00317538
0.000571582
0.000547172
0.00304712
0.0051919
0.00654785
0.00719602
0.00719667
0.00654956
0.00519389
0.00304856
0.000547243
0.000524944
0.00292923
0.00500335
0.00631896
0.00694921
0.00695015
0.00632145
0.00500616
0.00293081
0.000525032
0.000504558
0.00281941
0.00482682
0.00610405
0.00671719
0.00671857
0.00610771
0.00483061
0.00281934
0.000504653
0.000485781
0.00271667
0.004661
0.00590177
0.00649871
0.00650086
0.00590807
0.00467233
0.00274809
0.000561155
0.000468414
0.00262013
0.00450472
0.00571089
0.0062926
0.00629605
0.00572196
0.00452963
0.00269291
0.00063688
0.00045229
0.00252904
0.00435693
0.00553031
0.00609781
0.0061032
0.0055486
0.00440127
0.00265617
0.000731579
0.000437265
0.00244274
0.00421671
0.00535903
0.00591336
0.00592132
0.00538662
0.00428381
0.00265157
0.000851692
0.000423216
0.00236064
0.00408321
0.00519612
0.00573828
0.00574913
0.00523335
0.00418191
0.00267592
0.00100378
0.000410037
0.00228223
0.00395568
0.00504074
0.00557175
0.00558604
0.0050879
0.00409896
0.00271645
0.00118763
0.000397632
0.00220701
0.00383341
0.00489212
0.0054131
0.00543211
0.0049563
0.00402642
0.00276052
0.00139781
0.000385917
0.00213453
0.00371573
0.00474955
0.00526174
0.00528707
0.00483704
0.00396568
0.0028071
0.00162558
0.00037482
0.00206436
0.00360201
0.00461236
0.00511712
0.00515051
0.00472894
0.0039158
0.00285964
0.00185462
0.000364272
0.00199613
0.00349164
0.00447992
0.00497866
0.00502192
0.00463097
0.00387606
0.00291946
0.00207381
0.000354213
0.00192943
0.00338404
0.00435159
0.00484581
0.00490074
0.00454228
0.00384585
0.00298626
0.00228078
0.000344586
0.00186391
0.00327864
0.00422677
0.00471799
0.00478637
0.00446202
0.0038243
0.00305715
0.00247358
0.000335339
0.0017992
0.00317489
0.00410483
0.0045946
0.00467816
0.00438934
0.00381028
0.0031305
0.00265103
0.000326424
0.00173498
0.0030722
0.00398514
0.00447498
0.00457541
0.00432337
0.00380267
0.00320452
0.00281243
0.000317793
0.00167093
0.00297001
0.00386703
0.00435844
0.00447734
0.00426316
0.00380019
0.00327738
0.0029574
0.000309403
0.00160674
0.00286773
0.00374977
0.0042442
0.00438312
0.00420768
0.00380149
0.00334739
0.00308576
0.000301211
0.00154215
0.00276477
0.00363261
0.00413144
0.00429182
0.00415582
0.00380512
0.00341311
0.00319765
0.000293174
0.00147694
0.0026606
0.00351479
0.00401926
0.0042024
0.00410634
0.00380964
0.00347338
0.00329351
0.000285252
0.00141094
0.00255467
0.00339549
0.00390666
0.00411373
0.00405794
0.00381359
0.00352738
0.00337427
0.000277404
0.00134405
0.00244654
0.0032739
0.00379259
0.00402456
0.00400921
0.00381557
0.00357462
0.00344135
0.000269589
0.00127628
0.00233582
0.00314921
0.00367592
0.00393352
0.00395862
0.00381417
0.00361487
0.0034966
0.000261768
0.00120771
0.00222226
0.00302065
0.00355543
0.00383907
0.0039045
0.00380796
0.00364798
0.00354216
0.0002539
0.00113852
0.00210571
0.00288747
0.00342983
0.00373953
0.00384499
0.00379536
0.00367366
0.00358009
0.000245944
0.00106893
0.00198616
0.00274897
0.00329774
0.00363299
0.00377795
0.00377447
0.00369119
0.00361189
0.000237857
0.000999196
0.00186369
0.00260453
0.00315771
0.00351731
0.00370089
0.00374294
0.00369909
0.00363795
0.00022959
0.000929578
0.0017385
0.00245362
0.00300822
0.00339014
0.00361088
0.00369774
0.00369481
0.00365699
0.00022109
0.000860317
0.00161085
0.00229578
0.00284778
0.00324889
0.00350457
0.00363511
0.00367454
0.00366568
0.000212294
0.000791609
0.00148104
0.00213072
0.00267493
0.00309092
0.00337823
0.00355058
0.00363317
0.00365847
0.00020312
0.000723602
0.00134942
0.00195831
0.00248849
0.00291365
0.003228
0.00343913
0.00356456
0.00362795
0.000193464
0.000656395
0.00121639
0.00177876
0.0022877
0.00271501
0.00305034
0.00329575
0.00346206
0.00356546
0.000183179
0.000590063
0.00108255
0.00159276
0.0020727
0.00249394
0.00284269
0.00311617
0.00331941
0.00346224
0.000172041
0.000524679
0.000948907
0.00140201
0.00184512
0.00225129
0.00260456
0.00289813
0.00313207
0.00331085
0.000159691
0.00046027
0.000817205
0.00120993
0.00160923
0.00199121
0.00233902
0.00264291
0.00289884
0.00310622
0.000111959
0.000401593
0.000692459
0.00102301
0.00137306
0.00172232
0.00205415
0.00235674
0.00262191
0.00284591
0.000108505
0.000355897
0.000587289
0.000855438
0.00115133
0.0014594
0.00176373
0.00204991
0.00230974
0.00253882
0.000107429
0.000324496
0.000514195
0.000726574
0.000966473
0.00122486
0.00148694
0.00174255
0.00198369
0.00220452
7.87985e-05
0.000310403
0.000474572
0.000646545
0.000836639
0.00104037
0.00125307
0.00146755
0.00167665
0.00187421
6.72474e-05
0.000295077
0.00045821
0.000605227
0.00073987
0.000868803
0.00100778
0.00115481
0.00130277
0.00144753
6.52493e-05
0.000225611
0.00042976
0.000558649
0.00067875
0.000711165
0.000774589
0.000869923
0.000977582
0.00108785
6.92167e-05
0.000115572
0.000143801
0.000175728
0.000206045
0.00022623
0.000241459
0.000254015
0.000264289
0.000272666
0.000145582
0.000163962
0.000166309
0.000171473
0.000175646
0.000178199
0.000178982
0.000177867
0.000174428
0.000170269
0.000165323
0.000159576
0.000153088
0.000146114
0.000138804
0.000131239
0.000123326
0.000115976
0.000108881
0.000101768
9.44011e-05
8.64814e-05
7.75159e-05
6.64901e-05
4.26866e-05
0.000259725
0.000530841
0.000804033
0.000952148
0.00103128
0.00107848
0.00110295
0.00110735
0.00109056
0.00105929
0.00101998
0.000972859
0.000918646
0.00086023
0.000799496
0.000737116
0.00067076
0.000580118
0.00048247
0.000389418
0.000307638
0.000240305
0.000188955
0.00014844
5.10983e-05
0.000409027
0.000669055
0.00103959
0.00134275
0.00152134
0.00162446
0.00167963
0.00169939
0.0015651
0.00149879
0.00153145
0.00153378
0.00146049
0.00138134
0.00129806
0.00121021
0.00111323
0.000989337
0.000842279
0.000684907
0.000532514
0.000398949
0.000292934
0.000207354
5.51983e-05
0.000672567
0.00070253
0.0010617
0.00140511
0.00165496
0.0017944
0.00186585
0.00189201
0.00178195
0.00169199
0.00169243
0.00172146
0.00164943
0.00157585
0.00150143
0.00142325
0.00133412
0.00121822
0.00107059
0.000896879
0.000711162
0.000533354
0.000380931
0.000249091
5.76864e-05
0.0010227
0.000882272
0.00120145
0.00142352
0.00166929
0.00183094
0.00190675
0.00192932
0.0019136
0.00186896
0.00180417
0.00172956
0.00165569
0.00158899
0.00152943
0.00147119
0.00140366
0.00131062
0.00118228
0.00101816
0.000827636
0.000630128
0.00044701
0.000276241
5.77827e-05
0.00128874
0.00120425
0.00139666
0.00152947
0.00169414
0.00183591
0.00191034
0.00192556
0.00189826
0.00184057
0.0017624
0.00167462
0.00159161
0.00152509
0.0014763
0.00143698
0.00139208
0.00132335
0.00121786
0.00107163
0.000890107
0.000689412
0.000489949
0.000290853
5.69581e-05
0.00151064
0.00161044
0.00162792
0.00168589
0.00178974
0.00187217
0.00191735
0.00192133
0.00188163
0.00180944
0.00171543
0.00161165
0.00151402
0.00143878
0.00139313
0.00136796
0.00134261
0.0012946
0.00120878
0.00108034
0.000912478
0.000717517
0.000512166
0.000295457
5.55924e-05
0.00172652
0.00186174
0.00187353
0.00188838
0.00193428
0.0019721
0.00197618
0.00194414
0.00188058
0.00179218
0.00168151
0.00155962
0.00144455
0.00135508
0.00130301
0.00128425
0.00127405
0.0012427
0.0011722
0.00105932
0.00090617
0.000721498
0.000517377
0.000292385
5.38306e-05
0.0019377
0.00209221
0.00212287
0.00211843
0.00211507
0.00211117
0.00208069
0.00201762
0.00192353
0.00180497
0.00166962
0.00152642
0.00139064
0.00128237
0.00121538
0.00119236
0.00118809
0.00116867
0.0011118
0.00101438
0.000877485
0.000706507
0.000508758
0.000282744
5.18476e-05
0.00214295
0.0023121
0.00236681
0.00235549
0.00231952
0.00227998
0.00221814
0.00212657
0.00200402
0.0018561
0.00168915
0.00151722
0.00135592
0.00122434
0.00113507
0.00109535
0.00108932
0.00107709
0.00103115
0.000948336
0.000828316
0.000673053
0.000485342
0.000264683
5.0024e-05
0.00234107
0.002522
0.0026012
0.00259438
0.00253933
0.00247041
0.00238107
0.00226525
0.00211804
0.0019404
0.00174034
0.00153427
0.00134213
0.0011827
0.00106714
0.000999723
0.000979733
0.00096964
0.000935094
0.000866211
0.000762882
0.000624377
0.00045019
0.000242021
4.82255e-05
0.00253089
0.00272057
0.00282312
0.00283078
0.00277249
0.00267545
0.00256306
0.00242814
0.0022612
0.00205704
0.00182562
0.00158183
0.00135342
0.00116282
0.00101824
0.000918568
0.000869286
0.00085401
0.000828751
0.000772166
0.000684882
0.000564227
0.000407647
0.000218505
4.63833e-05
0.0027099
0.00290526
0.00302905
0.00305359
0.00299502
0.0028845
0.00275738
0.00261031
0.00243106
0.00220873
0.001947
0.00166757
0.0013995
0.00117356
0.000998515
0.000830001
0.000776494
0.000736801
0.000717017
0.000671001
0.000599046
0.000496106
0.000363594
0.000198864
4.4511e-05
0.00287533
0.00307401
0.003216
0.00325752
0.00320571
0.00309324
0.00295851
0.00280675
0.00262388
0.00239331
0.00211326
0.00180273
0.00149433
0.00122735
0.00101743
0.000793179
0.000661251
0.000642145
0.000601875
0.000569032
0.000511817
0.000423851
0.000309575
0.000187208
4.2825e-05
0.00302455
0.00321826
0.00338009
0.00343935
0.00340205
0.00329932
0.00316116
0.00301213
0.00283568
0.00260944
0.00232535
0.00199717
0.00165502
0.00134373
0.00108891
0.000889713
0.000619992
0.000503435
0.000492955
0.000479243
0.000434099
0.00035926
0.000240252
0.00014774
5.79075e-05
0.00315552
0.00334432
0.00349633
0.00359553
0.0035767
0.00348533
0.00335802
0.00322026
0.00306071
0.0028525
0.00258215
0.00225631
0.00189747
0.00155001
0.00124345
0.000991151
0.00079126
0.000522066
0.000391059
0.000336399
0.000331288
0.000293129
0.00024792
0.000198219
0.000127289
0.00326718
0.00345831
0.00362188
0.00372475
0.00372572
0.00365293
0.00354723
0.00342554
0.00329214
0.00300309
0.00275683
0.00257747
0.00223094
0.00187177
0.00152546
0.00121331
0.000946899
0.000733727
0.000567752
0.000398366
0.000323702
0.000292035
0.000280462
0.000257217
0.000203486
0.00335902
0.00354098
0.00371653
0.00382445
0.00384716
0.0037975
0.00371354
0.00362092
0.00351943
0.00327202
0.00297774
0.00274639
0.00256874
0.00231064
0.00196367
0.00161857
0.00129129
0.00100016
0.000760637
0.000583526
0.000468458
0.000405474
0.000380126
0.000373512
0.000382213
0.00343164
0.00360028
0.00377449
0.00389317
0.0039383
0.0039155
0.00385505
0.00379188
0.00372906
0.00365213
0.00342221
0.00316351
0.00293862
0.00273085
0.00251895
0.00220274
0.00186749
0.00153762
0.00123314
0.000975821
0.000783769
0.000663166
0.000605423
0.000588276
0.000589909
0.00348671
0.00363773
0.00380579
0.00393234
0.00399691
0.00400151
0.00396688
0.00392892
0.00390262
0.00387551
0.00383214
0.00374867
0.00354219
0.00331605
0.00307517
0.00280308
0.00250191
0.00218512
0.00186755
0.001565
0.00129461
0.00105679
0.0008614
0.000742451
0.000674431
0.00352692
0.00365619
0.00381284
0.00394271
0.00402227
0.00405236
0.00404648
0.00402976
0.00402918
0.00404304
0.00405853
0.00405323
0.00400308
0.00390197
0.0037611
0.00359078
0.00330719
0.00296299
0.00259479
0.00223903
0.00192248
0.00164973
0.00142132
0.00126198
0.00118185
0.00355583
0.00365987
0.00379966
0.00392723
0.00401756
0.00406715
0.0040871
0.00409467
0.00411032
0.00414722
0.00420376
0.00426076
0.00429042
0.00428016
0.00423363
0.00415793
0.00405983
0.00388703
0.00355526
0.00321991
0.00291908
0.00265776
0.00243236
0.00225752
0.0021516
0.00357745
0.00365412
0.00377189
0.00389078
0.00398596
0.00405
0.00408901
0.00411747
0.00415037
0.00419891
0.00427111
0.00436042
0.00444569
0.00450719
0.0045394
0.00454381
0.00452397
0.00448434
0.00434617
0.00410309
0.00388188
0.00368973
0.00351936
0.00336954
0.00325783
0.00359567
0.00364489
0.00373662
0.00384031
0.00393327
0.00400557
0.00405873
0.00410208
0.00414791
0.00420649
0.00428448
0.00438169
0.00448785
0.00458985
0.00467784
0.00474445
0.00478497
0.00480291
0.00469938
0.00457147
0.00446307
0.00436738
0.00427678
0.00418934
0.00410818
0.00361336
0.00363784
0.0037017
0.00378456
0.00386784
0.00394094
0.00400192
0.00405564
0.00411059
0.00417544
0.00425623
0.00435484
0.00446704
0.00458358
0.00469476
0.00479272
0.00477283
0.004702
0.00464318
0.00460557
0.00458305
0.00456811
0.00455567
0.00454109
0.00452259
0.00363144
0.00363701
0.0036744
0.00373305
0.00380006
0.00386606
0.00392733
0.00398533
0.00404485
0.00411212
0.00419293
0.00428992
0.0044014
0.00452079
0.0046389
0.00458285
0.00448454
0.00441397
0.00437635
0.00436542
0.00437515
0.00440131
0.00445529
0.00447285
0.0045061
0.00364803
0.00364343
0.00365958
0.00369427
0.00374088
0.00379293
0.00384663
0.00390143
0.00395956
0.00402504
0.00410191
0.00419284
0.00429755
0.00441162
0.00445176
0.0043063
0.00418937
0.00411111
0.00406684
0.004046
0.00404974
0.0040752
0.00411613
0.00416786
0.00422453
0.00365793
0.00365383
0.00365761
0.00367304
0.00369917
0.00373322
0.00377284
0.00381734
0.00386764
0.00392576
0.00399419
0.00407484
0.00416792
0.00427047
0.00426811
0.00407523
0.00392832
0.00382521
0.00375748
0.00372139
0.00371242
0.00372552
0.0037556
0.00379901
0.00385072
0.0036528
0.00366032
0.00366297
0.00366787
0.00367814
0.00369455
0.00371742
0.00374693
0.00378372
0.00382896
0.00388402
0.00395009
0.00402743
0.00411447
0.00420636
0.00398148
0.00378831
0.00365321
0.00355792
0.00349369
0.00345669
0.00344327
0.00344946
0.00347094
0.0035049
0.00362199
0.00365096
0.00366403
0.00366929
0.00367218
0.00367667
0.0036851
0.0036991
0.00371995
0.00374882
0.00378677
0.00383459
0.00389255
0.00395999
0.00403453
0.00407149
0.00382541
0.00363678
0.00350283
0.00340711
0.00333937
0.00329518
0.00327175
0.00326567
0.00327402
0.00355383
0.00361126
0.00364399
0.00366018
0.00366663
0.00366844
0.00366942
0.00367242
0.00367963
0.00369276
0.00371311
0.00374158
0.0037786
0.00382408
0.00387717
0.00393576
0.00399618
0.00383025
0.00363742
0.00349415
0.00338905
0.00331232
0.00325824
0.0032227
0.0032026
0.00343725
0.0035252
0.00358358
0.00361961
0.00363964
0.00364898
0.00365198
0.0036522
0.00365249
0.00365511
0.0036618
0.00367385
0.00369207
0.00371684
0.0037481
0.0037853
0.00382724
0.00387182
0.00391725
0.00380204
0.0036444
0.00352333
0.0034332
0.00336644
0.00331844
0.00326155
0.00337928
0.00346578
0.00352671
0.00356739
0.00359265
0.00360671
0.00361325
0.00361536
0.0036156
0.00361607
0.00361839
0.00362377
0.00363304
0.00364667
0.00366482
0.00368734
0.00371374
0.00374332
0.00377474
0.00380712
0.00383979
0.0038077
0.00370364
0.00362273
0.00302338
0.00316642
0.00327931
0.00336594
0.00343031
0.00347635
0.00350771
0.00352776
0.00353946
0.0035454
0.00354778
0.00354844
0.00354883
0.00355009
0.00355307
0.00355833
0.00356624
0.00357695
0.00359041
0.0036064
0.0036246
0.00364462
0.00366579
0.00368746
0.00370926
0.00272854
0.00288905
0.0030226
0.00313136
0.00321793
0.00328514
0.00333585
0.00337283
0.00339868
0.00341577
0.00342621
0.00343184
0.00343421
0.0034346
0.00343407
0.00343341
0.00343327
0.00343409
0.0034362
0.00343977
0.0034449
0.00345156
0.00345963
0.00346895
0.0034793
0.00239423
0.00256098
0.00270535
0.00282807
0.00293047
0.00301427
0.00308145
0.00313408
0.00317422
0.00320385
0.0032248
0.00323875
0.00324716
0.00325133
0.00325235
0.00325113
0.00324843
0.00324485
0.00324088
0.00323691
0.00323322
0.00323003
0.00322746
0.00322561
0.00322454
0.00204883
0.00220691
0.00234783
0.00247121
0.00257757
0.00266777
0.00274291
0.00280431
0.00285338
0.00289159
0.00292037
0.00294107
0.00295496
0.00296318
0.00296675
0.00296657
0.0029634
0.00295789
0.00295062
0.00294205
0.00293255
0.00292246
0.00291204
0.00290151
0.00289113
0.00158603
0.00172751
0.00187686
0.00203735
0.00215386
0.0022339
0.00230133
0.00235699
0.00240182
0.00243683
0.00246304
0.00248147
0.00249308
0.00249882
0.00249954
0.00249601
0.00248894
0.00247895
0.00246659
0.00245234
0.00243663
0.0024198
0.00240218
0.00238404
0.00236572
0.00119811
0.00131715
0.00141303
0.0014692
0.00151695
0.00155637
0.0015879
0.00161207
0.00162947
0.00164073
0.00164649
0.00164739
0.00164406
0.00163709
0.00162704
0.00161444
0.00159975
0.00158341
0.00156578
0.00154719
0.00152795
0.00150828
0.00148841
0.00146852
0.00144883
0.000279361
0.00028513
0.000290028
0.000294046
0.000297279
0.000299798
0.000301659
0.000302917
0.000303625
0.000303833
0.00030359
0.000302945
0.000301944
0.000300632
0.000299049
0.000297237
0.000295231
0.000293065
0.000290769
0.000288371
0.000285896
0.000283365
0.000280798
0.00027821
0.000275618
4.43547e-05
6.34907e-05
4.27799e-05
0.000132668
9.56477e-05
0.000211279
0.000201946
0.000289085
0.000353346
0.000409167
0.000463956
0.000385276
0.00048441
0.000460475
0.000517821
0.000659087
0.000701757
0.000810503
0.00118181
0.00124193
0.00134101
0.00211095
0.00212047
0.00216247
0.00318351
0.00314529
0.00313972
0.00404562
0.00400602
0.00398846
0.00450251
0.00448925
0.00448477
0.0045349
0.00455786
0.00458177
0.00427802
0.00432671
0.00437401
0.00389458
0.00395913
0.00402293
0.00354482
0.00358937
0.00361541
0.00329039
0.00331526
0.00334713
0.00319348
0.00319523
0.0032051
0.00328447
0.00326301
0.0032504
0.00356363
0.003521
0.00348886
0.00372886
0.00374837
0.00376805
0.00348919
0.00349971
0.00351084
0.00322403
0.00322421
0.00322492
0.00288183
0.0028729
0.00286415
0.00234919
0.00233285
0.00231652
0.00143152
0.00141458
0.00139789
0.000273344
0.000271089
0.000268852
2.62202e-05
4.35758e-05
5.51421e-05
5.49708e-05
7.00844e-05
7.55478e-05
8.02691e-05
8.44501e-05
8.82176e-05
9.16544e-05
9.48181e-05
9.77509e-05
0.000100486
0.000103049
0.000105461
0.000107742
0.000109907
0.00011197
0.000113944
0.00011584
0.000117668
0.000119438
0.000121159
0.00012284
0.00012449
0.000126115
0.000127724
0.000129324
0.000130924
0.00013253
0.00013415
0.000135793
0.000137467
0.000139182
0.000140946
0.000142773
0.000144673
0.000146663
0.00014876
0.000150985
0.000153351
0.000155793
0.000158308
0.000160897
0.000163559
0.000166299
0.000169117
0.000172017
0.000174997
0.000178057
0.000181195
0.000184405
0.000187682
0.000191016
0.000194393
0.000197793
0.000201191
0.000204551
0.000207824
0.000210944
0.000213822
0.000216338
0.000218334
0.000219607
0.000219964
0.000219278
0.000217522
0.000214637
0.000210516
0.000204964
0.000197808
0.000188698
0.000177712
0.000165216
0.000151657
0.000138895
0.000126141
0.000112706
9.73052e-05
6.57528e-05
4.31068e-05
0.000123996
0.000142317
0.000160498
0.000183889
0.000211322
0.000240959
0.000272072
0.000303982
0.000336136
0.000368089
0.000399508
0.000430158
0.000459882
0.000488588
0.000516228
0.000542788
0.00056828
0.000592732
0.000616187
0.000638698
0.000660323
0.000681127
0.000701178
0.000720545
0.000739298
0.000757507
0.000775241
0.000792563
0.000809536
0.000826214
0.000842647
0.000858876
0.000874931
0.000890826
0.000906561
0.000922114
0.000937447
0.000952401
0.00096686
0.00098098
0.000996468
0.00101266
0.00102949
0.00104696
0.00106508
0.00108387
0.00110334
0.00112348
0.00114429
0.00116571
0.0011877
0.00121017
0.00123298
0.00125597
0.00127891
0.0013015
0.00132334
0.00134392
0.00136255
0.00137836
0.00139016
0.00139637
0.00139503
0.00138452
0.00136724
0.00134289
0.00131074
0.00126973
0.00121626
0.00115179
0.0010726
0.000982781
0.000880661
0.00074659
0.000573327
0.000415895
0.000295683
0.000209189
7.03194e-05
5.26616e-05
0.000183712
0.00022215
0.000262047
0.000313164
0.00037336
0.00043974
0.000509972
0.000582094
0.000654583
0.000726311
0.000796499
0.000864645
0.000930444
0.000993733
0.00105444
0.00111258
0.00116817
0.0012213
0.00127205
0.00132052
0.00136682
0.00141108
0.0014534
0.00149392
0.00153274
0.00156997
0.00160574
0.00164015
0.0016733
0.00170528
0.00173618
0.00176608
0.00179504
0.00182314
0.00185041
0.00187689
0.00190261
0.00192756
0.00195175
0.00197518
0.00199833
0.00202271
0.00204757
0.0020727
0.00209803
0.00212347
0.00214894
0.00217429
0.00219937
0.00222396
0.0022478
0.00227055
0.00229181
0.00231109
0.00232783
0.00234133
0.00235081
0.00235536
0.00235396
0.00234545
0.00232857
0.00230196
0.00224077
0.00205062
0.0018902
0.00177121
0.00169356
0.00166317
0.00169
0.00170705
0.00158912
0.00146674
0.00133342
0.00117077
0.000937813
0.000681134
0.00045641
0.000284202
7.30747e-05
5.82829e-05
0.000233001
0.000303492
0.000371858
0.000456126
0.000552895
0.000658649
0.00076932
0.000881826
0.00099391
0.00110401
0.00121113
0.00131466
0.00141426
0.00150979
0.00160121
0.00168856
0.00177192
0.00185142
0.00192716
0.00199931
0.00206799
0.00213337
0.00219558
0.00225476
0.00231107
0.00236462
0.00241556
0.002464
0.00251006
0.00255384
0.00259545
0.00263498
0.00267251
0.00270812
0.00274188
0.00277384
0.00280405
0.00283254
0.00285931
0.00288436
0.00290766
0.0029303
0.00295272
0.00297427
0.00299467
0.00301371
0.00303116
0.00304677
0.00306024
0.00307119
0.00307919
0.00308374
0.00308426
0.00308009
0.00307049
0.00305463
0.00303163
0.00300055
0.00296046
0.00291045
0.00284974
0.00277772
0.00269405
0.00251277
0.00227229
0.00208333
0.00194562
0.00186013
0.00183616
0.00185903
0.00173007
0.00160322
0.001476
0.00133331
0.00112617
0.00085302
0.000572339
0.000329993
7.24027e-05
6.20789e-05
0.000279547
0.000385116
0.000486312
0.000605396
0.000739281
0.000882616
0.00103057
0.00117941
0.00132653
0.00147025
0.00160951
0.00174373
0.00187263
0.00199609
0.00211414
0.00222684
0.00233432
0.00243673
0.00253421
0.00262693
0.00271505
0.00279872
0.00287811
0.00295337
0.00302464
0.00309206
0.00315575
0.00321584
0.00327243
0.00332564
0.00337554
0.00342223
0.00346577
0.00350623
0.00354367
0.00357813
0.00360963
0.0036382
0.00366383
0.00368649
0.00370614
0.00372271
0.00373789
0.00375096
0.00376148
0.00376913
0.00377361
0.00377459
0.00377168
0.00376446
0.0037524
0.00373493
0.00371139
0.00368102
0.00364302
0.00359651
0.00354056
0.00347428
0.00339679
0.00330735
0.00320544
0.00309085
0.00296376
0.00282495
0.00267558
0.00251812
0.00235624
0.00217765
0.00203349
0.00188237
0.00173872
0.00160636
0.00148583
0.001367
0.00120784
0.00095182
0.000648424
0.000355011
7.02324e-05
6.4734e-05
0.000319316
0.00046596
0.000602012
0.000755598
0.000924021
0.00110119
0.00128175
0.0014618
0.00163871
0.00181084
0.00197723
0.00213737
0.00229104
0.00243819
0.00257889
0.00271325
0.00284141
0.00296352
0.00307976
0.0031903
0.00329529
0.0033949
0.00348929
0.00357861
0.00366299
0.00374258
0.00381748
0.0038878
0.00395366
0.00401513
0.00407229
0.0041252
0.00417392
0.00421849
0.00425894
0.0042953
0.00432758
0.00435577
0.00437987
0.00439984
0.00441565
0.00442723
0.00443483
0.00443963
0.00444085
0.00443804
0.00443087
0.00441897
0.00440195
0.00437934
0.00435061
0.00431514
0.0042722
0.004221
0.00416063
0.00409013
0.00400846
0.00391461
0.00380759
0.00368656
0.00355093
0.00340049
0.00323558
0.00305728
0.00286776
0.00267049
0.00247015
0.00227203
0.00208148
0.0019029
0.00173916
0.00159206
0.00146261
0.00134684
0.00121686
0.00100793
0.000706204
0.000373427
6.74179e-05
6.67928e-05
0.000355325
0.000544973
0.000716152
0.00090224
0.00110162
0.00130811
0.00151636
0.00172259
0.00192432
0.00212008
0.00230904
0.0024908
0.00266522
0.00283232
0.00299219
0.00314498
0.00329083
0.00342991
0.00356239
0.00368844
0.00380822
0.00392187
0.00402957
0.00413144
0.00422762
0.00431823
0.0044034
0.00448321
0.00455776
0.00462712
0.00469134
0.00475049
0.00480458
0.00485366
0.00489773
0.00493679
0.00497085
0.00499989
0.00502389
0.00504282
0.00505661
0.00506521
0.00506849
0.00506785
0.00506282
0.00505298
0.00503799
0.0050175
0.00499113
0.00495841
0.00491882
0.00487172
0.00481635
0.00475186
0.00467724
0.00459139
0.0044931
0.00438108
0.00425407
0.00411087
0.00395052
0.00377243
0.00357666
0.00336417
0.0031372
0.00289958
0.00265689
0.00241607
0.00218463
0.00196938
0.00177464
0.00160059
0.00144897
0.00131914
0.00119528
0.00102424
0.00073762
0.000381488
6.57483e-05
6.86028e-05
0.000388628
0.000621673
0.000827086
0.00104284
0.00126915
0.00150043
0.0017317
0.00195947
0.00218157
0.00239671
0.00260424
0.00280389
0.00299558
0.0031794
0.00335545
0.0035239
0.0036849
0.00383861
0.0039852
0.00412482
0.00425763
0.00438376
0.00450338
0.00461661
0.00472357
0.0048244
0.0049192
0.00500805
0.00509104
0.00516824
0.0052397
0.00530545
0.00536552
0.00541993
0.00546867
0.00551173
0.0055491
0.00558077
0.00560671
0.00562688
0.00564125
0.00564977
0.00565238
0.00564921
0.00564135
0.00562823
0.00560949
0.00558481
0.00555384
0.00551616
0.00547127
0.00541855
0.00535724
0.00528645
0.00520512
0.00511201
0.00500571
0.00488466
0.00474721
0.00459166
0.00441644
0.00422024
0.00400235
0.00376293
0.00350353
0.00322746
0.00294037
0.00265049
0.00236751
0.00210101
0.00185727
0.00164231
0.00145801
0.00130147
0.00115501
0.00095678
0.000709508
0.000387782
6.51831e-05
7.03883e-05
0.00042045
0.000696419
0.000934482
0.0011767
0.00142589
0.0016776
0.00192753
0.00217265
0.00241111
0.0026419
0.00286451
0.0030788
0.00328476
0.00348249
0.00367214
0.00385386
0.00402779
0.00419409
0.0043529
0.00450438
0.00464867
0.0047859
0.00491621
0.00503973
0.00515659
0.0052669
0.00537076
0.00546827
0.00555949
0.00564451
0.00572336
0.00579607
0.00586267
0.00592316
0.00597754
0.00602579
0.00606788
0.00610379
0.00613349
0.00615693
0.00617407
0.00618486
0.00618922
0.00618702
0.00617945
0.00616622
0.00614707
0.00612174
0.00608995
0.00605133
0.00600545
0.00595175
0.00588953
0.00581792
0.00573584
0.005642
0.00553489
0.00541273
0.00527352
0.0051151
0.0049352
0.00473164
0.00450257
0.00424684
0.00396452
0.00365761
0.00333028
0.00299077
0.00264928
0.00231718
0.00200812
0.00173413
0.0015007
0.0013052
0.00109142
0.000923114
0.000704732
0.00040796
6.61886e-05
7.2338e-05
0.000452395
0.000770548
0.00103934
0.0013047
0.00157279
0.00184081
0.00210533
0.00236394
0.00261517
0.00285826
0.00309288
0.00331895
0.00353652
0.00374571
0.00394664
0.00413947
0.00432432
0.00450133
0.00467063
0.00483236
0.00498665
0.00513363
0.00527343
0.00540618
0.005532
0.005651
0.00576329
0.00586895
0.00596806
0.00606069
0.00614689
0.00622668
0.00630009
0.00636713
0.00642777
0.006482
0.00652979
0.00657109
0.00660587
0.00663407
0.00665564
0.00667053
0.00667864
0.00667986
0.0066747
0.00666362
0.00664642
0.00662291
0.00659287
0.00655605
0.00651211
0.00646057
0.00640085
0.00633216
0.00625351
0.00616368
0.00606114
0.00594405
0.00581024
0.00565723
0.00548223
0.00528227
0.00505435
0.0047958
0.00450469
0.00418061
0.00382573
0.00344522
0.00304784
0.00264722
0.00226045
0.00190607
0.00159904
0.00134446
0.00110414
0.000885126
0.000707816
0.000448121
6.98498e-05
7.47464e-05
0.000486879
0.000846469
0.00114401
0.00142928
0.00171236
0.00199266
0.00226794
0.00253645
0.00279715
0.00304951
0.00329332
0.00352857
0.00375532
0.00397367
0.00418373
0.00438562
0.00457945
0.00476534
0.00494339
0.00511375
0.00527653
0.00543185
0.00557986
0.00572066
0.00585439
0.00598115
0.00610104
0.00621416
0.00632059
0.00642038
0.00651359
0.00660026
0.00668041
0.00675403
0.00682113
0.00688167
0.00693562
0.00698293
0.00702354
0.00705738
0.00708439
0.0071045
0.00711761
0.00712363
0.00712245
0.00711504
0.00710129
0.00708111
0.0070544
0.00702101
0.00698071
0.00693318
0.00687796
0.00681443
0.00674176
0.00665888
0.0065644
0.00645659
0.00633332
0.00619202
0.00602969
0.00584288
0.00562779
0.00538047
0.00509711
0.00477472
0.00441173
0.00400944
0.00357323
0.00311397
0.00264855
0.00219958
0.00179231
0.00144603
0.00116601
0.000887955
0.000698868
0.000490431
7.7092e-05
7.78967e-05
0.000526143
0.000879524
0.00123236
0.00155463
0.0018487
0.00213722
0.00241948
0.00269446
0.00296148
0.00322023
0.00347057
0.00371251
0.00394607
0.00417133
0.00438835
0.00459722
0.00479802
0.00499085
0.00517582
0.00535304
0.00552264
0.00568475
0.00583949
0.005987
0.00612738
0.00626076
0.00638723
0.00650688
0.0066198
0.00672603
0.00682564
0.00691865
0.0070051
0.00708498
0.0071583
0.00722503
0.00728514
0.00733858
0.00738526
0.0074251
0.00745799
0.00748383
0.00750251
0.00751389
0.00751781
0.00751497
0.00750552
0.00748949
0.00746692
0.00743776
0.00740193
0.00735925
0.00730946
0.00725213
0.00718664
0.00711215
0.00702753
0.00693128
0.0068215
0.00669582
0.00655132
0.00638452
0.00619132
0.00596708
0.00570674
0.00540513
0.00505757
0.00466072