/*--------------------------------*- C++ -*----------------------------------*\
| =========                 |                                                 |
| \\      /  F ield         | OpenFOAM: The Open Source CFD Toolbox           |
|  \\    /   O peration     | Version:  v2012                                 |
|   \\  /    A nd           | Website:  www.openfoam.com                      |
|    \\/     M anipulation  |                                                 |
\*---------------------------------------------------------------------------*/
FoamFile
{
    version     2.0;
    format      ascii;
    class       volScalarField;
    location    "504";
    object      omega;
}
// * * * * * * * * * * * * * * * * * * * * * * * * * * * * * * * * * * * * * //

dimensions      [0 0 -1 0 0 0 0];


internalField   nonuniform List<scalar> 
6556
(
657.503
235.671
203.436
199.637
202.201
202.201
199.637
203.436
235.671
657.503
485.05
201.73
165.598
159.117
159.518
159.518
159.117
165.598
201.73
485.05
383.733
171.559
138.871
131.526
130.615
130.615
131.526
138.871
171.559
383.733
318.734
147.495
119
111.665
110.106
110.106
111.665
119
147.495
318.734
273.976
128.67
103.741
96.7592
94.9308
94.9308
96.7591
103.741
128.67
273.976
241.37
113.851
91.7372
85.2073
83.303
83.303
85.2072
91.7371
113.851
241.37
216.532
102.017
82.1023
76.0223
74.1351
74.1351
76.0223
82.1022
102.017
216.532
196.926
92.411
74.2341
68.565
66.7363
66.7363
68.5649
74.234
92.4108
196.927
181.004
84.4872
67.7098
62.4035
60.649
60.649
62.4034
67.7096
84.4868
181.004
167.771
77.853
62.2259
57.2363
55.5592
55.5592
57.2362
62.2257
77.8524
167.771
156.563
72.2231
57.5605
52.847
51.2448
51.2447
52.8469
57.5601
72.2223
156.565
146.924
67.3874
53.5482
49.0765
47.5441
47.5441
49.0762
53.5476
67.3862
146.926
138.524
63.1891
50.0638
45.8054
44.3373
44.3372
45.805
50.0629
63.1873
138.527
131.125
59.5093
47.0115
42.9426
41.5333
41.5331
42.9419
47.0101
59.5066
131.129
124.546
56.2564
44.3166
40.4174
39.0619
39.0615
40.4165
44.3146
56.2525
124.552
118.651
53.3594
41.9205
38.1745
36.868
36.8675
38.1731
41.9177
53.3538
118.659
113.331
50.7622
39.7765
36.1696
34.9082
34.9075
36.1675
39.7726
50.7549
113.342
108.501
48.4201
37.8472
34.3673
33.1473
33.1463
34.3642
37.842
48.4122
108.515
104.094
46.2973
36.1023
32.7388
31.5569
31.5555
32.7345
36.0952
46.2903
104.111
100.051
44.3647
34.5169
31.2606
30.1138
30.1118
31.2541
34.507
44.3727
100.07
96.3278
42.5987
33.0707
29.9133
28.7987
28.7953
29.8995
33.0184
42.1467
83.9699
92.884
40.9797
31.7469
28.6806
27.5954
27.5891
28.6517
31.6164
39.9499
71.0718
89.6866
39.4912
30.5313
27.5488
26.4902
26.4791
27.4956
30.2895
37.7684
61.007
86.7073
38.1191
29.4118
26.5065
25.4715
25.4536
26.42
29.0343
35.444
53.1006
83.9216
36.8515
28.3782
25.5438
24.5296
24.5035
25.4198
27.809
33.106
46.9047
81.3081
35.6783
27.4218
24.6521
23.656
23.6198
24.4887
26.6051
30.975
42.0983
78.8482
34.5908
26.5352
23.8245
22.8434
22.7941
23.6027
25.4913
29.1562
38.3577
76.5254
33.582
25.712
23.0547
22.0857
22.0201
22.7625
24.4545
27.636
35.4152
74.3248
32.6458
24.9471
22.3375
21.3775
21.2928
21.9678
23.4942
26.3361
32.9353
72.2332
31.7768
24.236
21.6686
20.7144
20.6085
21.2176
22.6059
25.1935
30.7486
70.2385
30.971
23.575
21.0441
20.0927
19.9638
20.51
21.7826
24.1645
28.8171
68.3296
30.2247
22.9611
20.4611
19.5092
19.3559
19.8424
21.0149
23.2059
27.1013
66.496
29.5354
22.3918
19.9169
18.9615
18.7824
19.2119
20.2929
22.2997
25.5669
64.7281
28.9008
21.8656
19.4098
18.4476
18.2413
18.6157
19.6091
21.4348
24.1831
63.0168
28.3196
21.3814
18.9386
17.966
17.7309
18.0508
18.9571
20.604
22.9225
61.3531
27.7906
20.9387
18.5025
17.5159
17.2501
17.5152
18.3324
19.8027
21.7626
59.7285
27.3132
20.5379
18.1016
17.0969
16.798
17.0071
17.7321
19.0284
20.6853
58.1349
26.8871
20.1797
17.7366
16.7094
16.3748
16.526
17.155
18.2805
19.6772
56.5639
26.5119
19.8655
17.4087
16.3546
15.981
16.0721
16.602
17.5606
18.7295
55.0076
26.1871
19.5972
17.12
16.034
15.6184
15.647
16.0755
16.8723
17.8381
53.458
25.9118
19.3768
16.873
15.7502
15.2891
15.2532
15.5797
16.2211
17.0028
51.9072
25.684
19.2067
16.6709
15.5063
14.9963
14.8944
15.12
15.614
16.2275
50.3471
25.5011
19.0891
16.5171
15.306
14.7439
14.5749
14.7026
15.0589
15.5185
48.7694
25.3592
19.0259
16.4153
15.1534
14.536
14.2994
14.3336
14.5637
14.8836
47.1657
25.2536
19.0184
16.3694
15.053
14.3773
14.073
14.0191
14.1352
14.3304
45.5265
25.1782
19.0673
16.3829
15.0091
14.2724
13.9005
13.7638
13.7785
13.8644
43.841
25.1259
19.1721
16.4585
15.0259
14.2257
13.7859
13.5717
13.4966
13.4883
42.0967
25.0883
19.3311
16.5985
15.1069
14.2411
13.7331
13.4453
13.2903
13.2015
40.2776
25.0553
19.5405
16.8031
15.2546
14.3216
13.7447
13.386
13.1586
13.0004
38.3629
25.0148
19.7941
17.0704
15.4692
14.4688
13.8221
13.394
13.0993
12.8798
36.3234
24.9498
20.0801
17.3936
15.7475
14.6811
13.9645
13.4678
13.1092
12.8337
34.1149
24.8333
20.3778
17.7576
16.079
14.9512
14.1663
13.6027
13.1831
12.856
31.666
24.5968
20.636
18.1269
16.4378
15.2594
14.4128
13.7878
13.3132
12.9434
28.8018
24.133
20.7687
18.4301
16.7672
15.5632
14.6735
14.0035
13.4944
13.1018
25.4056
23.2703
20.6662
18.5742
16.989
15.8012
14.9068
14.2363
13.7238
13.3194
21.3027
21.5035
20.0456
18.4054
17.0126
15.921
15.104
14.4772
13.9824
13.5816
15.6253
17.9944
18.3444
17.609
16.6983
15.9152
15.2616
14.7201
14.2709
13.8952
13.3348
12.9564
15.1827
15.887
15.9147
15.6759
15.3451
14.9978
14.6683
14.3689
12.9386
9.77254
11.9286
13.8039
14.9168
15.5125
15.7857
15.8489
15.8098
15.7316
13.7253
14.6671
18.2496
22.3014
26.1488
28.7105
30.6432
32.2367
33.5406
34.6036
35.3572
20.8082
21.1061
21.7614
22.2911
22.6151
22.7145
22.5728
22.1365
21.6087
20.981
20.2516
19.4282
18.5432
17.6154
16.6554
15.6511
14.7184
13.818
12.9153
11.9803
10.9753
9.83746
8.43819
7.26311
44.1673
15.9222
9.30583
8.02706
7.67199
7.51396
7.39455
7.26108
7.08446
6.86989
6.63816
6.40993
6.19948
6.01074
5.84872
5.72041
5.64896
5.79425
6.08651
6.46743
6.87344
7.21981
7.40617
7.3935
11.2272
47.6188
20.7176
10.2156
7.43017
6.50822
6.07436
5.79255
5.55837
5.32274
5.05949
4.80513
4.56597
4.34538
4.14732
3.97977
3.85328
3.7862
3.83693
4.02563
4.35912
4.82721
5.3816
5.93196
6.51976
12.2881
47.4954
24.694
13.5055
8.81901
7.02149
6.19998
5.69702
5.31683
4.98425
4.66104
4.35527
4.07986
3.82525
3.59199
3.38973
3.23096
3.1315
3.12241
3.2261
3.46313
3.8501
4.38
5.00693
5.86426
12.6747
45.6711
27.6821
16.1744
10.8049
8.12116
6.76548
5.98294
5.42576
4.97961
4.59846
4.25367
3.94397
3.65784
3.39042
3.15245
2.95981
2.82921
2.78229
2.836
3.00939
3.32476
3.79524
4.41627
5.41014
12.6959
43.1442
29.0883
18.3962
12.4982
9.40691
7.57913
6.45272
5.6868
5.11261
4.65792
4.28178
3.9476
3.63647
3.33706
3.06122
2.83101
2.6693
2.59498
2.61877
2.75382
3.02003
3.43817
4.03431
5.10636
12.5147
40.277
29.6925
20.1875
14.0822
10.5512
8.45471
7.06477
6.06664
5.33937
4.79399
4.37136
4.02426
3.70617
3.37743
3.06102
2.78462
2.5861
2.48773
2.49299
2.6057
2.84006
3.21858
3.78843
4.90554
12.2146
37.5067
29.6776
21.3561
15.4618
11.6511
9.24475
7.63856
6.49502
5.64366
4.99815
4.51587
4.14644
3.82565
3.4964
3.14526
2.81287
2.56474
2.43861
2.43036
2.52941
2.74249
3.09143
3.63755
4.77756
11.8275
34.9501
29.2253
22.0444
16.5421
12.6511
10.0157
8.19147
6.88256
5.92162
5.21776
4.6994
4.31035
3.99097
3.66625
3.29644
2.91428
2.6167
2.45745
2.43123
2.51614
2.71089
3.03563
3.56301
4.72168
11.3918
32.6256
28.4202
22.4257
17.336
13.4996
10.7313
8.73474
7.27337
6.19945
5.42873
4.88441
4.49442
4.19145
3.88606
3.517
3.0981
2.73737
2.53456
2.4882
2.56011
2.74033
3.04859
3.57211
4.77937
10.9911
30.526
27.4241
22.5204
17.8718
14.1809
11.363
9.24531
7.66205
6.49345
5.65735
5.08305
4.69415
4.41926
4.15802
3.8152
3.38453
2.95331
2.67989
2.59751
2.65462
2.82442
3.12472
3.6559
4.90569
10.596
28.6421
26.3568
22.3628
18.1822
14.7038
11.8965
9.70557
8.03395
6.79223
5.90333
5.30624
4.91419
4.67345
4.47975
4.20485
3.79591
3.30987
2.9216
2.7671
2.80063
2.96208
3.26124
3.80349
5.06023
10.1912
26.9506
25.2743
21.9956
18.3348
15.0554
12.3133
10.0998
8.37593
7.0864
6.16615
5.5466
5.15829
4.94795
4.8286
4.66892
4.34809
3.86745
3.35318
3.03541
3.01108
3.15652
3.45407
3.99662
5.19394
9.77982
25.4237
24.2018
21.5058
18.3319
15.2653
12.6254
10.4284
8.68319
7.36739
6.43065
5.80633
5.42202
5.23319
5.17331
5.14161
5.00733
4.64798
4.10644
3.57474
3.34141
3.42934
3.71522
4.24543
5.32153
9.40936
24.0354
23.1579
20.9443
18.1951
15.3691
12.853
10.6988
8.95557
7.63083
6.68871
6.06635
5.69051
5.51779
5.48698
5.54327
5.60632
5.55058
5.22834
4.66616
4.06803
3.91771
4.13013
4.63553
5.56149
8.63909
22.7618
22.1499
20.3421
17.9519
15.4002
13.0053
10.9175
9.19658
7.87568
6.93316
6.31316
5.94412
5.78239
5.75896
5.83663
5.99458
6.18454
6.31515
6.23934
5.88337
5.32913
5.15396
5.45674
6.19719
8.27135
21.5822
21.1749
19.7072
17.6458
15.3758
13.1125
11.1077
9.41896
8.10852
7.16318
6.53495
6.1688
6.01154
5.98792
6.04589
6.18623
6.4049
6.70357
7.0508
7.39415
7.69874
8.00172
8.51835
9.43715
10.5775
20.48
20.2324
19.0543
17.2947
15.2812
13.2126
11.2835
9.6367
8.33057
7.37888
6.73596
6.35642
6.19373
6.16993
6.22048
6.31477
6.44828
6.63941
6.89384
7.21876
7.59804
8.00711
8.4156
8.84268
9.24825
19.4431
19.3196
18.3917
16.9129
15.1414
13.2878
11.4637
9.86344
8.56152
7.5909
6.91993
6.50975
6.3242
6.2928
6.34851
6.45145
6.57951
6.7238
6.89085
7.09069
7.33427
7.61506
7.89202
8.13255
8.28513
18.4639
18.4338
17.721
16.4964
14.9645
13.3137
11.6737
10.1224
8.83355
7.83727
7.11735
6.65255
6.41503
6.345
6.38041
6.47909
6.61429
6.76871
6.93083
7.09285
7.25002
7.3982
7.52034
7.57176
7.49451
17.5396
17.5746
17.0442
16.0519
14.7563
13.3053
11.8328
10.4315
9.15876
8.14935
7.38487
6.84656
6.53063
6.38858
6.36266
6.41023
6.50249
6.61908
6.74287
6.85655
6.94387
6.99183
6.98762
6.8996
6.69086
16.6723
16.745
16.364
15.5799
14.5067
13.2651
11.9627
10.6972
9.53838
8.53955
7.73917
7.14807
6.74834
6.52016
6.41558
6.3927
6.41968
6.47238
6.5307
6.57558
6.5902
6.56381
6.49109
6.36141
6.15456
15.8684
15.9526
15.6865
15.0828
14.2156
13.1781
12.0602
10.9397
9.88849
8.9621
8.18114
7.55733
7.10073
6.7979
6.61312
6.52002
6.48732
6.48962
6.50425
6.51133
6.49465
6.44423
6.35568
6.22766
6.0569
15.1375
15.2096
15.0229
14.5669
13.8831
13.0375
12.1011
11.1397
10.2118
9.3671
8.6359
8.03159
7.56109
7.2155
6.97316
6.81221
6.72387
6.68483
6.67164
6.66298
6.64181
6.59783
6.52566
6.42239
6.28706
14.4906
14.5315
14.39
14.0452
13.5151
12.8418
12.0773
11.2737
10.4789
9.73407
9.07014
8.50454
8.04469
7.68804
7.42244
7.23285
7.10615
7.0298
6.99278
6.97375
6.95595
6.9274
6.88079
6.81178
6.71725
13.9369
13.9344
13.8088
13.5379
13.1262
12.5974
11.9865
11.3319
10.6713
10.0374
9.45521
8.94362
8.51274
8.16474
7.89561
7.6962
7.55807
7.47004
7.41655
7.38712
7.37131
7.35612
7.33267
7.29815
7.24663
13.4823
13.4316
13.3005
13.0705
12.7401
12.322
11.8382
11.3151
10.7796
10.2556
9.76415
9.3211
8.93675
8.61594
8.35943
8.16367
8.02283
7.9291
7.87263
7.84344
7.82978
7.82396
7.81982
7.81076
7.79202
13.1277
13.0299
12.8813
12.6676
12.3862
12.0444
11.6559
11.2375
10.8069
10.382
9.97805
9.60772
9.27988
9.00025
8.77226
8.59469
8.46359
8.37443
8.32095
8.29587
8.29064
8.29693
8.3066
8.31539
8.3206
12.8691
12.7293
12.5592
12.3477
12.0924
11.7982
11.4729
11.1279
10.7759
10.4291
10.0986
9.79331
9.52008
9.28339
9.08754
8.93436
8.82034
8.74236
8.69658
8.6781
8.68099
8.69894
8.72573
8.75589
8.78399
12.6994
12.5236
12.3334
12.1193
11.8782
11.6109
11.3236
11.0248
10.7241
10.4305
10.1518
9.89471
9.66385
9.46247
9.29284
9.15745
9.05611
8.9859
8.94377
8.92642
8.93018
8.95084
8.98385
9.02475
9.06913
12.6103
12.4044
12.1994
11.9836
11.7503
11.4995
11.2353
10.9641
10.6935
10.4307
10.1822
9.95302
9.74689
9.56601
9.41171
9.28453
9.18475
9.11147
9.06268
9.0357
9.02778
9.03614
9.05781
9.08979
9.12891
12.5955
12.3685
12.1529
11.9354
11.7085
11.4701
11.2221
10.9689
10.7163
10.4702
10.2363
10.0189
9.82132
9.64559
9.49268
9.36281
9.2556
9.17005
9.10436
9.05689
9.02592
9.0093
9.00483
9.01052
9.02429
12.6586
12.4139
12.1887
11.9695
11.7479
11.5199
11.2854
11.0465
10.8072
10.5721
10.3457
10.1319
9.93379
9.75347
9.59211
9.45009
9.32722
9.22274
9.13541
9.06369
9.00574
8.95963
8.92376
8.89688
8.87757
12.7966
12.5363
12.3015
12.079
11.8603
11.64
11.4165
11.19
10.9626
10.7374
10.5176
10.3063
10.1063
9.91965
9.74759
9.5909
9.44977
9.32397
9.21284
9.11539
9.03044
8.95662
8.89249
8.83664
8.78792
13.0011
12.7284
12.4841
12.2567
12.0375
11.8214
11.6053
11.3884
11.1713
10.9555
10.743
10.5362
10.337
10.1471
9.96795
9.80029
9.64465
9.50115
9.36963
9.24966
9.14064
9.04174
8.95205
8.87061
8.79672
13.2605
12.9823
12.7326
12.5014
12.2812
12.0668
11.8551
11.6445
11.4348
11.2267
11.0212
10.8197
10.6236
10.4342
10.2527
10.0797
9.91589
9.76153
9.6167
9.48128
9.35501
9.23747
9.12818
9.0266
8.93244
13.5873
13.3158
13.0694
12.8398
12.6209
12.4084
12.1998
11.9938
11.7898
11.5881
11.3893
11.1941
11.0036
10.8186
10.6399
10.4682
10.304
10.1475
9.99885
9.8581
9.72509
9.59956
9.4812
9.36968
9.2649
14.1101
13.8725
13.6497
13.4368
13.2311
13.0307
12.8344
12.6415
12.4518
12.2653
12.0824
11.9036
11.7296
11.5608
11.3979
11.2412
11.0911
10.9477
10.811
10.6809
10.5573
10.4399
10.3285
10.2226
10.1222
15.645
15.5551
15.4619
15.3615
15.2574
15.1514
15.0437
14.9348
14.8251
14.715
14.605
14.4955
14.3871
14.2802
14.1751
14.0722
13.9717
13.8735
13.7777
13.6843
13.593
13.5037
13.4161
13.33
13.2454
35.4533
36.1854
36.8071
37.3169
37.7273
38.0469
38.2831
38.4428
38.5326
38.559
38.5282
38.4463
38.3193
38.1527
37.9519
37.722
37.4674
37.1925
36.9011
36.5968
36.2827
35.9615
35.6356
35.3073
34.9783
7.80333
8.05744
15.2461
12.7157
13.8632
12.3195
11.2325
10.816
9.86436
9.34846
9.02745
8.238
8.20169
7.77351
6.9276
7.19491
6.67531
5.93562
6.33176
5.88399
5.3596
5.87062
5.55589
5.21225
5.84964
5.63078
5.39894
6.13266
5.97193
5.80361
6.60445
6.4844
6.35329
7.18034
7.10047
7.00618
7.76285
7.72321
7.67034
8.31911
8.30862
8.28848
8.80555
8.82193
8.83351
9.10963
9.14732
9.18141
9.16831
9.20932
9.25092
9.04228
9.06419
9.08924
8.86567
8.85798
8.8537
8.74946
8.71525
8.68425
8.73632
8.68071
8.62867
8.85417
8.78095
8.71156
9.17688
9.09363
9.01402
10.0373
9.95616
9.87788
13.1718
13.0989
13.0262
34.6897
34.4035
34.1196
4.36369
5.5301
6.99794
8.05175
8.89421
9.58755
10.1867
10.7173
11.1954
11.6316
12.0331
12.4053
12.7523
13.0776
13.3838
13.6732
13.948
14.2098
14.4603
14.7009
14.9329
15.1575
15.376
15.5893
15.7986
16.0049
16.2091
16.4122
16.6152
16.819
17.0246
17.2332
17.4456
17.6632
17.8872
18.1189
18.3601
18.6127
18.8787
19.1611
19.4615
19.7713
20.0905
20.4191
20.7569
21.1046
21.4623
21.8303
22.2085
22.5968
22.995
23.4025
23.8183
24.2414
24.67
25.1015
25.5328
25.9592
26.3745
26.7705
27.1357
27.4551
27.7083
27.8699
27.9153
27.8282
27.6053
27.2392
26.7162
26.0116
25.1035
23.9473
22.5531
20.9673
19.2465
17.6269
16.0083
14.3032
12.3488
10.943
9.10813
6.04169
6.72903
7.13091
7.33227
7.40824
7.40585
7.36528
7.30713
7.24296
7.17899
7.11849
7.06303
7.01325
6.96924
6.9308
6.8976
6.8692
6.84519
6.82515
6.8087
6.79549
6.78523
6.77765
6.77255
6.76977
6.76919
6.77073
6.7744
6.78023
6.78831
6.7988
6.81194
6.82804
6.84752
6.87092
6.89888
6.9322
6.97233
7.02059
7.07686
7.13212
7.18884
7.24738
7.30795
7.37074
7.43595
7.50378
7.57445
7.64817
7.72519
7.80574
7.89003
7.97826
8.07057
8.16702
8.26755
8.37192
8.47965
8.5899
8.70138
8.81221
8.92045
9.02535
9.12447
9.20117
9.2335
9.20786
9.11416
8.92414
8.67413
8.38191
8.06245
7.7687
7.71081
8.1321
8.74296
9.28972
9.63308
14.858
11.127
6.14861
6.25079
6.30839
6.26335
6.14433
5.98851
5.82552
5.66907
5.52552
5.39709
5.2839
5.18504
5.09917
5.02481
4.9605
4.90493
4.85687
4.8153
4.77929
4.7481
4.72105
4.69762
4.67735
4.65988
4.64493
4.63226
4.62171
4.61318
4.6066
4.60195
4.59928
4.59865
4.60018
4.60402
4.61035
4.61941
4.63147
4.64682
4.66578
4.68864
4.71492
4.74231
4.77199
4.80443
4.83999
4.87907
4.92209
4.9695
5.02179
5.07951
5.1432
5.21345
5.29088
5.37608
5.46962
5.57204
5.68372
5.8049
5.93555
6.07525
6.22296
6.3769
6.53449
6.69198
6.84271
6.96866
7.0514
7.07084
7.00805
6.8556
6.59652
6.26605
5.90222
5.64142
5.74923
6.24067
7.01628
8.03168
15.4402
12.3147
6.06226
5.79668
5.67242
5.50669
5.31572
5.11543
4.92538
4.75336
4.60173
4.47017
4.35712
4.26057
4.17838
4.10851
4.04914
3.99865
3.95565
3.91896
3.88759
3.8607
3.83762
3.81779
3.80074
3.7861
3.77359
3.76297
3.75407
3.74679
3.74103
3.73677
3.73401
3.73279
3.73318
3.73526
3.73918
3.74509
3.75318
3.76367
3.7768
3.79285
3.81217
3.83413
3.85853
3.88605
3.91717
3.95236
3.9921
4.03694
4.08748
4.14434
4.20822
4.27986
4.36002
4.44954
4.54925
4.65998
4.78253
4.91761
5.06575
5.22725
5.40195
5.58891
5.78601
5.99021
6.19816
6.39806
6.5723
6.69867
6.75019
6.70174
6.52806
6.20493
5.72764
5.27248
5.06946
5.29101
5.93691
7.13586
15.2982
13.1167
5.90104
5.4052
5.18166
4.96178
4.74002
4.52871
4.33719
4.16903
4.02423
3.90107
3.7972
3.71006
3.63721
3.57642
3.52574
3.48348
3.44823
3.41879
3.39416
3.37354
3.35626
3.34177
3.32963
3.31949
3.31107
3.30417
3.29861
3.29429
3.29113
3.28911
3.28821
3.28848
3.28996
3.29275
3.29698
3.30278
3.31033
3.31985
3.33156
3.34576
3.36274
3.38287
3.40553
3.43131
3.46071
3.49422
3.53236
3.57568
3.6248
3.68041
3.74324
3.81409
3.89386
3.98348
4.084
4.19649
4.32211
4.46202
4.61738
4.78925
4.97847
5.18542
5.40964
5.64952
5.9027
6.16368
6.42162
6.65891
6.84784
6.94955
6.91468
6.68892
6.24053
5.63651
5.09894
5.03142
5.48122
6.69044
14.8396
13.6778
5.74366
5.08292
4.7995
4.55221
4.3198
4.10798
3.9215
3.76121
3.62565
3.51231
3.41832
3.34087
3.27735
3.22545
3.18317
3.14881
3.12095
3.09841
3.08022
3.06559
3.05386
3.04453
3.03717
3.03145
3.0271
3.02392
3.02177
3.02054
3.02016
3.0206
3.02186
3.02396
3.02697
3.03097
3.03608
3.04242
3.05018
3.05954
3.07075
3.08406
3.09976
3.11817
3.13955
3.1637
3.19122
3.22261
3.2584
3.29912
3.34541
3.39794
3.45747
3.52482
3.60094
3.68686
3.78372
3.8928
4.01552
4.15342
4.30819
4.48164
4.67559
4.89182
5.13179
5.39641
5.68582
5.99831
6.32871
6.66591
6.98918
7.26233
7.42772
7.40385
7.09753
6.478
5.72482
5.26743
5.43099
6.53047
14.245
14.1128
5.61421
4.82076
4.49604
4.23369
3.99775
3.78886
3.60872
3.4565
3.3298
3.22555
3.14058
3.07187
3.01672
2.97277
2.93799
2.91069
2.88945
2.8731
2.8607
2.85148
2.8448
2.84016
2.83716
2.83549
2.83489
2.83517
2.83619
2.83785
2.8401
2.84288
2.84622
2.85011
2.85463
2.85984
2.86586
2.8728
2.88084
2.89015
2.90096
2.91351
2.92809
2.945
2.9646
2.98682
3.01209
3.0409
3.07373
3.11113
3.1537
3.2021
3.25708
3.31948
3.39024
3.47041
3.56121
3.664
3.78036
3.91206
4.06117
4.23
4.4212
4.63765
4.88248
5.15882
5.46957
5.81684
6.20073
6.61722
7.0548
7.48918
7.87462
8.13491
8.12272
7.6757
6.81301
5.93641
5.77436
6.75214
13.8922
14.4952
5.51528
4.60663
4.24945
3.97738
3.74057
3.53542
3.36143
3.2166
3.09782
3.00162
2.9246
2.86359
2.81581
2.77887
2.75072
2.72966
2.71429
2.70346
2.69623
2.69184
2.68969
2.68928
2.69023
2.69222
2.69503
2.69847
2.7024
2.70672
2.71138
2.71634
2.7216
2.72717
2.7331
2.73945
2.74631
2.75381
2.7621
2.77134
2.78175
2.79356
2.80702
2.82245
2.84016
2.86046
2.88342
2.90954
2.93929
2.9732
3.01185
3.05587
3.10598
3.163
3.22784
3.30156
3.38534
3.48056
3.58884
3.71204
3.85237
4.01244
4.19535
4.40474
4.64487
4.92062
5.23738
5.60072
6.01522
6.48381
7.00434
7.56888
8.16064
8.71714
9.09642
9.05948
8.37197
7.16707
6.48757
7.20885
13.7728
14.8725
5.44473
4.43087
4.04497
3.76508
3.52814
3.32661
3.1582
3.01993
2.90816
2.81908
2.74907
2.69486
2.6536
2.62285
2.60057
2.58506
2.57491
2.569
2.5664
2.56635
2.56827
2.57168
2.5762
2.58153
2.58745
2.59377
2.60038
2.60716
2.61407
2.62106
2.62813
2.63529
2.64257
2.65003
2.65775
2.66583
2.67441
2.68366
2.69376
2.70495
2.71748
2.73164
2.74774
2.76616
2.78698
2.81063
2.83755
2.86824
2.90323
2.94314
2.98864
3.04051
3.09962
3.16694
3.24363
3.331
3.43058
3.5442
3.67404
3.82272
3.99346
4.19022
4.41787
4.68237
4.99092
5.35207
5.77359
6.26542
6.83524
7.49237
8.23476
9.03431
9.80361
10.3327
10.2367
9.17001
7.67482
7.86081
13.9853
15.2844
5.40118
4.28703
3.87306
3.58525
3.34796
3.14962
2.98617
2.85377
2.74826
2.66553
2.60178
2.55364
2.51818
2.49296
2.47591
2.46534
2.45986
2.45835
2.4599
2.46376
2.46937
2.47624
2.48401
2.4924
2.50118
2.51018
2.51928
2.52838
2.53742
2.54637
2.5552
2.56393
2.57258
2.5812
2.58985
2.59862
2.60765
2.61707
2.62708
2.63789
2.64977
2.66298
2.67785
2.6947
2.71381
2.73544
2.76001
2.78799
2.81988
2.85625
2.89773
2.94504
2.99897
3.06045
3.13052
3.21037
3.30141
3.4053
3.52405
3.66011
3.8165
3.99707
4.20668
4.45157
4.73972
5.08114
5.48786
5.97494
6.55855
7.2571
8.08504
9.04692
10.117
11.1792
11.9057
11.625
9.75298
8.89015
14.7589
15.7933
5.38607
4.17144
3.72771
3.43067
3.1923
2.99658
2.83757
2.7105
2.61069
2.53373
2.47563
2.43294
2.40269
2.38241
2.37003
2.36388
2.36258
2.36502
2.3703
2.3777
2.38665
2.39669
2.40746
2.41868
2.43013
2.44165
2.45311
2.46443
2.47554
2.4864
2.497
2.50734
2.51743
2.52732
2.53706
2.54672
2.55641
2.56627
2.57649
2.58726
2.59886
2.61155
2.62562
2.64142
2.65929
2.67945
2.70226
2.72817
2.75762
2.79116
2.82936
2.87287
2.92242
2.97883
3.04305
3.11612
3.19929
3.29402
3.40204
3.52549
3.66704
3.83007
4.019
4.23963
4.49966
4.80928
5.18222
5.63627
6.19411
6.88372
7.73434
8.77769
10.0346
11.4854
12.9886
14.0377
13.4607
10.8425
16.2891
16.4589
5.41187
4.08403
3.60547
3.29703
3.0567
2.86304
2.70805
2.58589
2.49133
2.41964
2.36669
2.32891
2.30332
2.28744
2.27923
2.27701
2.27944
2.28542
2.29408
2.30469
2.3167
2.32966
2.34322
2.35709
2.37107
2.385
2.39874
2.41222
2.42538
2.43816
2.45057
2.46258
2.47422
2.48552
2.49652
2.50729
2.51792
2.52853
2.53929
2.55042
2.56215
2.57478
2.58858
2.60387
2.62101
2.64026
2.66195
2.68644
2.71417
2.74561
2.7813
2.82182
2.86782
2.92005
2.97932
3.04656
3.12284
3.20938
3.30766
3.41945
3.54695
3.69297
3.86118
4.05647
4.2855
4.55746
4.88511
5.28632
5.7858
6.41717
7.22483
8.26376
9.59231
11.2647
13.3006
15.526
17.1216
15.5578
18.5206
17.4324
5.45529
4.01904
3.50239
3.18054
2.93822
2.74693
2.59574
2.47817
2.38846
2.32159
2.27325
2.23985
2.21838
2.20638
2.20184
2.20311
2.20886
2.21802
2.22972
2.24328
2.25812
2.27381
2.28999
2.30639
2.32279
2.33904
2.35501
2.37063
2.38582
2.40055
2.41479
2.42856
2.44185
2.45469
2.46714
2.47924
2.49106
2.50273
2.51438
2.52623
2.53854
2.55156
2.56557
2.58089
2.59784
2.61675
2.6379
2.66162
2.68829
2.71835
2.75227
2.79058
2.83386
2.88277
2.93801
3.0004
3.07084
3.15036
3.24017
3.34171
3.45672
3.58742
3.73665
3.90824
4.1074
4.34146
4.62086
4.96073
5.38319
5.92084
6.62174
7.55541
8.81954
10.5404
12.8578
15.9068
19.6734
23.3358
22.3046
18.7358
5.65815
3.9939
3.42566
3.08224
2.83609
2.64797
2.50082
2.38761
2.30233
2.23974
2.19545
2.16584
2.14793
2.13928
2.13792
2.14224
2.15094
2.16297
2.17746
2.19374
2.21123
2.2295
2.24819
2.26701
2.28575
2.30426
2.32241
2.34012
2.35733
2.374
2.39011
2.40566
2.42067
2.43515
2.44916
2.46275
2.47599
2.48897
2.50183
2.51477
2.52802
2.54185
2.55653
2.57235
2.58962
2.60869
2.62985
2.65338
2.67961
2.70892
2.74175
2.77855
2.81986
2.86624
2.9183
2.97675
3.04235
3.11597
3.19861
3.29142
3.39575
3.51329
3.64614
3.79709
3.96992
4.16992
4.40462
4.68505
5.02761
5.45729
6.01303
6.75678
7.78877
9.27041
11.459
14.7501
19.7847
27.9108
44.5998
14.3541
5.61075
3.99024
3.37348
3.00541
2.75146
2.56587
2.42448
2.31596
2.23481
2.17598
2.13513
2.10869
2.09376
2.08795
2.08933
2.09633
2.10767
2.12231
2.13939
2.15823
2.17824
2.19898
2.22007
2.24122
2.26222
2.28289
2.30312
2.32284
2.34198
2.36051
2.37842
2.3957
2.41238
2.42849
2.44409
2.45923
2.47401
2.4885
2.5028
2.51709
2.53161
2.5466
2.56232
2.57905
2.59708
2.61676
2.6384
2.66223
2.68854
2.71767
2.74998
2.78589
2.82586
2.87039
2.92
2.97529
3.03691
3.10561
3.1822
3.26763
3.36296
3.46944
3.5886
3.72237
3.87331
4.04492
4.24214
4.472
4.74472
5.07555
5.4878
6.0182
6.72675
7.71502
9.16033
11.3724
14.8592
20.4361
29.2692
10.6637
5.35856
3.95725
3.3264
2.94681
2.68745
2.50376
2.36841
2.26594
2.18926
2.13396
2.09612
2.07237
2.05995
2.05658
2.06037
2.06978
2.08355
2.10063
2.12016
2.14143
2.16385
2.18694
2.2103
2.23362
2.25666
2.27928
2.30136
2.32283
2.34365
2.36379
2.38325
2.40204
2.42018
2.43773
2.45478
2.47144
2.48774
2.50376
2.51958
2.53537
2.55134
2.56773
2.58478
2.60272
2.62186
2.64252
2.66502
2.68956
2.71638
2.74576
2.77803
2.81354
2.8527
2.89592
2.94366
2.99641
3.05472
3.11924
3.19066
3.26979
3.35746
3.45463
3.5624
3.68205
3.81524
3.96418
4.13188
4.32241
4.54134
4.79643
5.09846
5.46244
5.90902
6.46573
7.16673
8.04736
9.13058
10.392
11.6895
8.36989
5.02982
3.87731
3.27917
2.90686
2.64942
2.46764
2.33749
2.24206
2.1712
2.12009
2.0854
2.06429
2.05426
2.05319
2.05928
2.071
2.08709
2.10648
2.12831
2.15185
2.17648
2.20167
2.22697
2.25205
2.27668
2.3007
2.32406
2.34669
2.36859
2.38974
2.41016
2.42989
2.44898
2.46757
2.48578
2.50368
2.52129
2.53867
2.5559
2.57312
2.59054
2.60837
2.62685
2.64621
2.66668
2.68858
2.71222
2.73776
2.76539
2.79535
2.82791
2.86337
2.90207
2.9444
2.99074
3.04137
3.09681
3.15762
3.22446
3.29802
3.37897
3.46808
3.56618
3.67408
3.79274
3.92358
4.0684
4.22951
4.40967
4.61243
4.84212
5.10369
5.40213
5.74155
6.12393
6.54402
6.98324
7.4028
7.72705
6.8054
4.7097
3.78107
3.24668
2.8952
2.64734
2.47034
2.34399
2.25504
2.19195
2.14684
2.11638
2.09854
2.09133
2.09283
2.10136
2.11544
2.13371
2.15514
2.17888
2.2042
2.23044
2.25703
2.28342
2.30926
2.3343
2.35846
2.38174
2.40421
2.42591
2.44687
2.46709
2.48672
2.50592
2.52486
2.5436
2.56215
2.58056
2.59885
2.6171
2.63543
2.65402
2.67307
2.69282
2.71352
2.7354
2.7587
2.78364
2.81034
2.83896
2.8697
2.90277
2.93843
2.97692
3.01855
3.06357
3.11226
3.16498
3.22232
3.28492
3.35334
3.42811
3.50987
3.59949
3.69726
3.80352
3.91932
4.04585
4.18453
4.33656
4.50338
4.6866
4.88746
5.10595
5.33904
5.58159
5.82491
6.05117
6.23374
6.34774
5.74909
4.43727
3.71119
3.25128
2.93157
2.70123
2.5347
2.41569
2.33346
2.27885
2.24158
2.21678
2.20332
2.1998
2.20437
2.21531
2.23119
2.25079
2.27317
2.2975
2.32303
2.34909
2.37504
2.40031
2.42465
2.44755
2.46913
2.48962
2.50932
2.52844
2.54698
2.56514
2.58311
2.60107
2.61906
2.63712
2.65525
2.67349
2.69184
2.71036
2.72912
2.74828
2.76802
2.78855
2.81013
2.83303
2.85751
2.88367
2.91148
2.94104
2.9725
3.00603
3.04184
3.08013
3.1211
3.16492
3.21171
3.26183
3.31603
3.37481
3.43856
3.5077
3.58266
3.6639
3.75176
3.84663
3.9491
4.05999
4.18061
4.31097
4.45137
4.6027
4.76494
4.93715
5.11519
5.29258
5.46089
5.60853
5.72003
5.7797
5.10436
4.27159
3.71854
3.33574
3.05879
2.85823
2.715
2.61353
2.54335
2.49658
2.46515
2.445
2.43466
2.43261
2.43735
2.44737
2.46145
2.47854
2.49806
2.51921
2.54126
2.56352
2.58526
2.6058
2.62378
2.63939
2.65315
2.66571
2.67802
2.69106
2.7043
2.71781
2.73168
2.74608
2.76105
2.77655
2.79259
2.80916
2.82623
2.84382
2.86197
2.88077
2.90035
2.92088
2.94259
2.96574
2.99069
3.01733
3.04565
3.07572
3.10754
3.14113
3.17671
3.21442
3.25441
3.2968
3.34175
3.3895
3.44078
3.49586
3.55507
3.61876
3.68725
3.76084
3.83982
3.92443
4.015
4.1119
4.21564
4.32657
4.44546
4.57304
4.70902
4.85203
4.99612
5.13733
5.26952
5.38418
5.47063
5.51837
4.81783
4.28001
3.87553
3.58137
3.3631
3.20493
3.09201
3.00762
2.94245
2.89281
2.85515
2.82866
2.81091
2.80044
2.79596
2.79648
2.80109
2.80896
2.81953
2.83205
2.84582
2.86007
2.8739
2.88666
2.89731
2.90631
2.91358
2.91926
2.92393
2.92853
2.93322
2.93829
2.94431
2.95213
2.96141
2.97191
2.98361
2.99653
3.0106
3.02575
3.04194
3.05919
3.07753
3.0971
3.11805
3.14062
3.16506
3.19103
3.2187
3.24807
3.27913
3.31196
3.34663
3.38309
3.42147
3.46199
3.50488
3.55051
3.59911
3.65048
3.70508
3.76321
3.82519
3.89126
3.96158
4.03633
4.11564
4.19968
4.28895
4.38428
4.48627
4.59467
4.70867
4.82665
4.94576
5.06252
5.17215
5.2682
5.34292
5.38874
4.85955
4.51178
4.23874
4.04038
3.88455
3.75324
3.63955
3.54466
3.46478
3.39766
3.34458
3.30347
3.27189
3.2481
3.23071
3.21863
3.21096
3.20697
3.2058
3.20682
3.20932
3.21275
3.21648
3.22037
3.2249
3.22923
3.23276
3.23521
3.2363
3.23559
3.23402
3.23217
3.23061
3.23011
3.23094
3.23345
3.23815
3.24526
3.25443
3.26552
3.27834
3.29279
3.30879
3.32639
3.34573
3.36708
3.38991
3.41416
3.43986
3.46706
3.49589
3.52647
3.55873
3.5927
3.62851
3.66627
3.70615
3.74856
3.79331
3.84056
3.89053
3.94298
3.99828
4.05664
4.11819
4.18305
4.25139
4.32366
4.40043
4.48211
4.56872
4.65996
4.75511
4.85288
4.95126
5.04757
5.13821
5.21852
5.28306
5.32648
5.16118
4.93897
4.75873
4.60462
4.46782
4.34778
4.2404
4.14434
4.05872
3.98397
3.92125
3.8686
3.82445
3.78748
3.75654
3.73066
3.70905
3.69099
3.67581
3.66296
3.6519
3.6423
3.63405
3.62678
3.6203
3.61426
3.60856
3.60339
3.59862
3.59387
3.58903
3.58404
3.57882
3.57309
3.56772
3.56355
3.56125
3.56136
3.5642
3.5701
3.57858
3.58932
3.60213
3.61697
3.63399
3.65295
3.67317
3.69462
3.71733
3.74131
3.76662
3.79332
3.82148
3.85132
3.88288
3.91612
3.95112
3.98808
4.02718
4.06883
4.11271
4.15884
4.20732
4.25789
4.31061
4.36588
4.42391
4.48512
4.54977
4.61802
4.68989
4.76508
4.84295
4.92246
5.00211
5.07991
5.15321
5.21871
5.27262
5.31117
5.63289
5.46818
5.32408
5.19722
5.08225
4.97629
4.87749
4.78564
4.70149
4.62576
4.55792
4.49727
4.44311
4.39474
4.35143
4.31246
4.2773
4.24538
4.21621
4.18939
4.16464
4.14159
4.11996
4.09958
4.08027
4.06211
4.04553
4.03051
4.01683
4.00427
3.99271
3.98205
3.97224
3.96327
3.95531
3.94853
3.94295
3.93887
3.93719
3.9388
3.94334
3.95041
3.95985
3.97171
3.98573
4.00093
4.01724
4.03462
4.05308
4.07263
4.09328
4.11509
4.1381
4.16239
4.18803
4.21507
4.24361
4.27384
4.30582
4.33963
4.37534
4.41334
4.45331
4.49517
4.53908
4.58499
4.63263
4.68235
4.73451
4.78923
4.84648
4.90601
4.9673
5.02954
5.09159
5.15197
5.20877
5.25967
5.30201
5.33313
6.21065
6.07147
5.94767
5.83487
5.73087
5.63384
5.54171
5.45367
5.37099
5.29437
5.22319
5.15656
5.09427
5.03641
4.98269
4.93263
4.88586
4.84204
4.80079
4.76176
4.72466
4.68921
4.65506
4.62237
4.59139
4.56249
4.53582
4.51126
4.48871
4.4681
4.44935
4.43239
4.41719
4.40376
4.39229
4.38287
4.37556
4.37069
4.36848
4.36839
4.37045
4.37464
4.38123
4.38955
4.39881
4.40895
4.41997
4.43185
4.44461
4.45827
4.47287
4.48842
4.50498
4.5226
4.54132
4.56116
4.58219
4.60447
4.62807
4.65304
4.67943
4.70731
4.73672
4.7679
4.80084
4.83525
4.87133
4.90917
4.9487
4.9898
5.03243
5.07652
5.12171
5.16737
5.21264
5.25643
5.29737
5.33381
5.36391
5.38578
6.88982
6.76236
6.64103
6.52818
6.4255
6.33043
6.23902
6.1495
6.06261
5.97993
5.90158
5.82752
5.75761
5.69176
5.62967
5.57095