/*--------------------------------*- C++ -*----------------------------------*\
| =========                 |                                                 |
| \\      /  F ield         | OpenFOAM: The Open Source CFD Toolbox           |
|  \\    /   O peration     | Version:  v2012                                 |
|   \\  /    A nd           | Website:  www.openfoam.com                      |
|    \\/     M anipulation  |                                                 |
\*---------------------------------------------------------------------------*/
FoamFile
{
    version     2.0;
    format      ascii;
    class       volScalarField;
    location    "504";
    object      p;
}
// * * * * * * * * * * * * * * * * * * * * * * * * * * * * * * * * * * * * * //

dimensions      [0 2 -2 0 0 0 0];


internalField   nonuniform List<scalar> 
6556
(
0.392919
0.392313
0.391984
0.391845
0.391786
0.391786
0.391845
0.391983
0.392312
0.392918
0.392244
0.392073
0.391903
0.391798
0.391749
0.391749
0.391797
0.391903
0.392072
0.392244
0.391778
0.391793
0.391726
0.391652
0.391617
0.391616
0.391651
0.391725
0.391792
0.391777
0.391494
0.39155
0.391515
0.391461
0.391436
0.391436
0.39146
0.391514
0.391549
0.391493
0.391266
0.391326
0.391303
0.391259
0.391239
0.391238
0.391258
0.391301
0.391325
0.391265
0.391049
0.391104
0.391086
0.39105
0.391032
0.391032
0.391048
0.391083
0.391101
0.391046
0.390836
0.390884
0.390865
0.390833
0.390818
0.390817
0.390831
0.390861
0.39088
0.390832
0.390626
0.390667
0.390646
0.390617
0.390602
0.390601
0.390613
0.390641
0.39066
0.39062
0.390418
0.390452
0.39043
0.390401
0.390387
0.390385
0.390395
0.390421
0.390442
0.390408
0.390211
0.390239
0.390215
0.390187
0.390172
0.390169
0.390178
0.390202
0.390224
0.390196
0.390004
0.390028
0.390002
0.389974
0.389958
0.389953
0.389961
0.389983
0.390005
0.389982
0.3898
0.389819
0.389792
0.389763
0.389744
0.389737
0.389743
0.389763
0.389784
0.389765
0.389598
0.389614
0.389585
0.389553
0.389532
0.389521
0.389523
0.38954
0.389562
0.389546
0.389401
0.389414
0.389383
0.389347
0.38932
0.389304
0.389301
0.389315
0.389335
0.389322
0.389213
0.389222
0.389187
0.389144
0.389108
0.389083
0.389074
0.389083
0.389104
0.389094
0.389036
0.389043
0.389
0.388947
0.388897
0.388858
0.388837
0.388842
0.388865
0.388861
0.38888
0.388882
0.388829
0.388758
0.388685
0.388623
0.388584
0.388583
0.388616
0.388626
0.388754
0.38875
0.388681
0.388583
0.388475
0.388373
0.3883
0.388289
0.388351
0.388399
0.388674
0.388662
0.388571
0.388431
0.388265
0.388095
0.387952
0.387901
0.388016
0.388255
0.388664
0.388643
0.388521
0.388322
0.388071
0.387791
0.387515
0.387394
0.387627
0.388346
0.388755
0.388726
0.388566
0.388289
0.387914
0.387455
0.386903
0.386341
0.385724
0.381766
0.388991
0.388957
0.388757
0.388396
0.387895
0.387259
0.386421
0.385243
0.38464
0.386867
0.389421
0.389389
0.389154
0.388713
0.388089
0.387307
0.386334
0.384848
0.382945
0.384736
0.390096
0.390073
0.389806
0.389287
0.38854
0.387593
0.386456
0.384783
0.381833
0.382215
0.391069
0.391059
0.39076
0.390162
0.389287
0.388163
0.386821
0.385069
0.381844
0.381352
0.392395
0.392401
0.392068
0.391384
0.390374
0.389069
0.387502
0.385611
0.382196
0.380635
0.394133
0.394157
0.393786
0.393002
0.391839
0.390325
0.388489
0.386366
0.382806
0.379921
0.396348
0.396389
0.395975
0.395075
0.393728
0.391965
0.389796
0.387299
0.38354
0.379528
0.399119
0.399181
0.398712
0.397675
0.396114
0.394062
0.391512
0.388507
0.384406
0.379905
0.402532
0.40262
0.40208
0.400888
0.399091
0.396723
0.393788
0.390299
0.385789
0.380996
0.406673
0.406784
0.406166
0.404807
0.402747
0.400034
0.396693
0.392743
0.387916
0.38275
0.411641
0.411772
0.411069
0.40952
0.407168
0.404064
0.400258
0.395804
0.390651
0.38505
0.417548
0.4177
0.416897
0.41513
0.412441
0.408892
0.404546
0.399509
0.393872
0.387807
0.424518
0.424688
0.423767
0.421749
0.418676
0.414616
0.409649
0.403914
0.397627
0.390987
0.432682
0.432867
0.431809
0.429505
0.425994
0.421353
0.415673
0.409124
0.402008
0.394613
0.442178
0.442376
0.441163
0.43854
0.43454
0.429242
0.422754
0.415266
0.407143
0.398795
0.453152
0.453361
0.451976
0.449004
0.44447
0.438451
0.431063
0.422518
0.413225
0.403721
0.465747
0.465968
0.464398
0.461056
0.455954
0.449164
0.440807
0.431108
0.420508
0.409651
0.480096
0.480329
0.478566
0.474843
0.469158
0.461574
0.45221
0.441299
0.4293
0.41694
0.496315
0.496558
0.494596
0.490494
0.484231
0.475857
0.465488
0.453357
0.439928
0.425977
0.51448
0.514727
0.512567
0.508096
0.501279
0.492152
0.480823
0.467518
0.452694
0.437138
0.534614
0.534858
0.532499
0.527679
0.520351
0.510534
0.498331
0.483954
0.467837
0.450746
0.556677
0.556906
0.554348
0.549201
0.541416
0.530996
0.518038
0.502739
0.485498
0.467029
0.580559
0.580754
0.577987
0.572533
0.564349
0.553426
0.539857
0.523822
0.50568
0.48607
0.60607
0.606202
0.603207
0.597453
0.588925
0.577601
0.563574
0.54701
0.528224
0.507771
0.632933
0.632964
0.629706
0.623648
0.614816
0.603185
0.588849
0.571965
0.552806
0.531837
0.660789
0.660669
0.657098
0.650709
0.6416
0.62974
0.61523
0.598222
0.578948
0.55779
0.689193
0.688864
0.684912
0.678149
0.668771
0.656749
0.642183
0.625221
0.606061
0.585012
0.717614
0.717009
0.712596
0.705406
0.695765
0.683637
0.66912
0.652352
0.6335
0.612808
0.745423
0.744469
0.739515
0.731856
0.721971
0.70981
0.695448
0.67901
0.660628
0.640486
0.771866
0.770489
0.76494
0.75682
0.746761
0.734678
0.720603
0.704635
0.686866
0.667427
0.796002
0.794146
0.788059
0.779595
0.769519
0.757694
0.744088
0.728756
0.711742
0.693126
0.816634
0.814303
0.807941
0.799455
0.789666
0.778389
0.765505
0.751012
0.734907
0.717223
0.831879
0.830041
0.82398
0.815844
0.806754
0.796422
0.784584
0.771169
0.756139
0.739485
0.839859
0.839614
0.835208
0.828305
0.820533
0.811637
0.801209
0.789127
0.775333
0.759793
0.842234
0.842892
0.841001
0.836556
0.830945
0.824031
0.815384
0.804865
0.792424
0.778032
0.842544
0.842909
0.842675
0.841061
0.838213
0.833751
0.827232
0.818485
0.807481
0.794232
0.842529
0.842162
0.842368
0.842938
0.84281
0.84096
0.836768
0.829937
0.820426
0.808285
0.843143
0.842305
0.842402
0.843982
0.845939
0.846426
0.84426
0.839047
0.83085
0.819642
0.844247
0.84378
0.844202
0.846243
0.849181
0.851383
0.851069
0.847462
0.840947
0.831239
0.360251
0.363235
0.365118
0.366948
0.368544
0.369792
0.370568
0.37074
0.370399
0.369589
0.368346
0.366864
0.365259
0.363616
0.362122
0.360956
0.360211
0.359947
0.360205
0.360965
0.362102
0.363379
0.364457
0.365047
0.365241
0.368502
0.364777
0.364269
0.365209
0.366392
0.367469
0.368249
0.368527
0.368188
0.367317
0.366095
0.364676
0.363201
0.361794
0.360584
0.359664
0.359112
0.358981
0.359306
0.360072
0.361204
0.362551
0.363883
0.364828
0.365259
0.368816
0.365242
0.364047
0.364271
0.364982
0.365713
0.366245
0.366374
0.366009
0.365239
0.364193
0.362954
0.361647
0.360425
0.359409
0.358669
0.358252
0.358182
0.358471
0.359107
0.360047
0.361203
0.36245
0.363582
0.364367
0.367215
0.364129
0.362991
0.363098
0.363776
0.364465
0.364935
0.365012
0.364608
0.363819
0.362795
0.361607
0.360357
0.359199
0.358256
0.357588
0.357223
0.357172
0.35743
0.357979
0.358775
0.359743
0.360784
0.361804
0.362697
0.36747
0.363084
0.361423
0.361489
0.362328
0.363126
0.363674
0.36379
0.363422
0.362656
0.361629
0.360444
0.359223
0.358108
0.357207
0.356578
0.356237
0.356181
0.356397
0.356864
0.357542
0.358365
0.359244
0.360104
0.360983
0.368598
0.362821
0.360196
0.360092
0.36091
0.361793
0.362447
0.362657
0.362369
0.36166
0.360651
0.359474
0.35827
0.357182
0.356315
0.355719
0.3554
0.355342
0.355523
0.355918
0.356489
0.357184
0.357924
0.358618
0.359355
0.369123
0.363021
0.359857
0.359378
0.359928
0.360766
0.361437
0.361726
0.361527
0.360881
0.359897
0.35873
0.357544
0.356484
0.355652
0.355089
0.354794
0.354739
0.354895
0.35523
0.35571
0.356287
0.356893
0.357425
0.358
0.369411
0.363742
0.360489
0.359464
0.359602
0.360253
0.360869
0.361155
0.360999
0.360404
0.359443
0.358284
0.35711
0.356074
0.355275
0.354747
0.354477
0.354429
0.354566
0.354855
0.355261
0.355739
0.356231
0.35663
0.357062
0.370546
0.365112
0.361805
0.360345
0.36011
0.36049
0.360951
0.361141
0.360933
0.360361
0.359396
0.358216
0.357033
0.356001
0.355219
0.354714
0.354464
0.354425
0.354552
0.354809
0.35516
0.355564
0.355965
0.356264
0.356572
0.372535
0.36719
0.363803
0.362041
0.361486
0.361583
0.361824
0.36185
0.361516
0.360825
0.359827
0.358583
0.357355
0.356288
0.355495
0.354993
0.354754
0.354723
0.354846
0.355085
0.355398
0.355748
0.356077
0.3563
0.356509
0.375059
0.369823
0.366398
0.364439
0.363611
0.363428
0.363444
0.363306
0.362835
0.361976
0.36083
0.359454
0.358115
0.356952
0.356094
0.35556
0.355314
0.355289
0.355415
0.355648
0.355943
0.356259
0.356536
0.356702
0.356828
0.377912
0.372829
0.369404
0.367329
0.3663
0.36589
0.365685
0.365351
0.364743
0.363781
0.362447
0.360918
0.359365
0.358019
0.357018
0.356391
0.356102
0.356074
0.356209
0.356447
0.356742
0.357046
0.357293
0.357409
0.35745
0.380971
0.375989
0.372575
0.370446
0.369299
0.368736
0.368364
0.367879
0.367123
0.36604
0.364659
0.363045
0.361193
0.359555
0.358303
0.357496
0.3571
0.357031
0.357168
0.357418
0.357727
0.358043
0.358289
0.35835
0.358252
0.384167
0.379149
0.375711
0.37354
0.372318
0.371655
0.371184
0.370625
0.369817
0.368707
0.367314
0.365671
0.363742
0.361717
0.360079
0.358938
0.358331
0.358149
0.358246
0.358495
0.358825
0.359185
0.359502
0.359527
0.358986
0.387499
0.382229
0.378659
0.376408
0.3751
0.374367
0.373854
0.373291
0.372527
0.371513
0.370196
0.368593
0.366785
0.364705
0.362611
0.360967
0.359894
0.359441
0.359443
0.359667
0.359988
0.36036
0.360747
0.360817
0.3595
0.391093
0.385322
0.381379
0.378898
0.377457
0.376659
0.376121
0.375584
0.374922
0.374113
0.373061
0.371665
0.369984
0.368134
0.366006
0.363992
0.362332
0.361161
0.360638
0.360717
0.361029
0.361378
0.36177
0.362219
0.362824
0.395127
0.388587
0.383994
0.381068
0.379383
0.378447
0.377853
0.377332
0.376793
0.376205
0.375443
0.374418
0.373129
0.371584
0.369988
0.368209
0.366364
0.364567
0.36313
0.362247
0.361945
0.362195
0.362955
0.364205
0.365828
0.399854
0.39224
0.386761
0.38317
0.38103
0.379819
0.379101
0.378571
0.378112
0.377669
0.37716
0.376516
0.375737
0.374864
0.373939
0.372942
0.371801
0.370799
0.369881
0.368905
0.368209
0.368071
0.368699
0.370431
0.373571
0.405687
0.396693
0.390023
0.385486
0.38264
0.380964
0.379996
0.37939
0.378946
0.378588
0.378259
0.377936
0.377621
0.377337
0.377152
0.377103
0.377181
0.377483
0.377909
0.378491
0.379334
0.380562
0.382111
0.38451
0.388178
0.41308
0.402441
0.394247
0.388426
0.384575
0.38218
0.380757
0.379915
0.379402
0.379085
0.378869
0.378749
0.378759
0.378916
0.379249
0.379836
0.380745
0.381999
0.383548
0.385363
0.387436
0.389718
0.392129
0.394703
0.397465
0.422487
0.409999
0.399981
0.392533
0.38734
0.383918
0.38177
0.380474
0.379715
0.379304
0.379136
0.379162
0.379386
0.379821
0.380481
0.381429
0.382752
0.384495
0.386577
0.388889
0.391386
0.394033
0.396731
0.399348
0.401769
0.434329
0.419876
0.407808
0.39842
0.39154
0.386751
0.383568
0.381544
0.380326
0.379655
0.379374
0.379412
0.379752
0.38038
0.381283
0.382458
0.383949
0.385837
0.388097
0.390577
0.393163
0.395814
0.398467
0.401018
0.40335
0.448944
0.432532
0.418287
0.406716
0.397831
0.391326
0.386764
0.383698
0.381739
0.380585
0.380021
0.379917
0.380214
0.380887
0.381924
0.383308
0.385002
0.386974
0.389209
0.391625
0.39412
0.396634
0.399116
0.401503
0.403714
0.466528
0.448292
0.431887
0.418004
0.406863
0.398319
0.392025
0.387565
0.38454
0.382609
0.38151
0.38106
0.381149
0.381724
0.382768
0.384262
0.38609
0.388109
0.390263
0.392544
0.394901
0.397259
0.399566
0.401773
0.403828
0.487077
0.467288
0.448896
0.432727
0.419205
0.408375
0.400027
0.393817
0.389366
0.386319
0.384374
0.383302
0.382946
0.383222
0.384115
0.385536
0.387283
0.389208
0.391269
0.393457
0.395702
0.397927
0.40009
0.402147
0.404055
0.51036
0.489394
0.469345
0.451098
0.435241
0.422015
0.411378
0.403103
0.396871
0.392342
0.389197
0.38717
0.386056
0.385742
0.3862
0.387263
0.388702
0.390424
0.39237
0.394459
0.396595
0.398712
0.400757
0.402683
0.404472
0.535922
0.514217
0.49296
0.473014
0.455063
0.439515
0.426507
0.415957
0.407647
0.401289
0.396578
0.393225
0.390987
0.389719
0.38937
0.3898
0.390784
0.39217
0.393851
0.395724
0.397687
0.399661
0.401574
0.403387
0.405082
0.563121
0.541121
0.519156
0.49801
0.478384
0.460793
0.445527
0.432662
0.422107
0.41366
0.407063
0.402039
0.398315
0.395693
0.394181
0.39374
0.394066
0.394891
0.396091
0.39757
0.399222
0.400948
0.402667
0.404321
0.405893
0.591209
0.569306
0.547115
0.525303
0.504525
0.485336
0.468127
0.45311
0.440326
0.429686
0.421011
0.41407
0.408604
0.404357
0.401279
0.399552
0.39896
0.399018
0.399529
0.400412
0.401569
0.40289
0.404281
0.405672
0.407015
0.61942
0.597921
0.575902
0.553906
0.532507
0.512241
0.493544
0.476717
0.461917
0.449169
0.438392
0.429432
0.422087
0.416126
0.411341
0.407851
0.4058
0.404831
0.404492
0.404599
0.405059
0.405779
0.406668
0.407648
0.408652
0.647061
0.626177
0.604611
0.582799
0.561225
0.540373
0.520677
0.50248
0.486019
0.471413
0.45868
0.447752
0.438504
0.430771
0.424367
0.419168
0.415245
0.41261
0.411028
0.410198
0.409842
0.409817
0.410052
0.410464
0.410975
0.673573
0.653428
0.63248
0.611083
0.589643
0.568582
0.548306
0.52917
0.511448
0.495328
0.480904
0.468191
0.457139
0.447654
0.439614
0.432891
0.427359
0.422976
0.419712
0.417402
0.415836
0.414859
0.414339
0.414107
0.414034
0.698554
0.679208
0.658949
0.638074
0.616929
0.595889
0.575327
0.555586
0.536958
0.519666
0.50386
0.489617
0.476953
0.465832
0.456184
0.447923
0.440945
0.435153
0.430399
0.426565
0.423604
0.42139
0.419755
0.418561
0.417701
0.721747
0.703211
0.683641
0.6633
0.642496
0.621573
0.600878
0.580743
0.561461
0.543276
0.526368
0.51086
0.496814
0.484244
0.473121
0.463391
0.45498
0.447797
0.441733
0.436682
0.43253
0.429125
0.426327
0.424087
0.422344
0.743004
0.72525
0.706318
0.686455
0.665954
0.645142
0.624358
0.603925
0.584137
0.565245
0.547452
0.530905
0.515701
0.501887
0.489471
0.478427
0.468702
0.460226
0.452909
0.446651
0.441346
0.436878
0.433139
0.430041
0.42749
0.762162
0.745124
0.726741
0.707269
0.686993
0.66624
0.64535
0.624648
0.604428
0.584948
0.566421
0.549013
0.532844
0.517984
0.504468
0.492291
0.481423
0.471808
0.463375
0.456037
0.449697
0.444257
0.439614
0.43567
0.432332
0.779212
0.762773
0.744788
0.725532
0.705318
0.6845
0.663435
0.642445
0.621823
0.601825
0.582672
0.564542
0.547568
0.53184
0.517406
0.504282
0.492454
0.481881
0.472503
0.464247
0.457026
0.450749
0.44532
0.440645
0.436632
0.794004
0.777995
0.76024
0.741087
0.720868
0.699934
0.678661
0.657387
0.636401
0.615959
0.596284
0.57756
0.55993
0.543494
0.528314
0.51442
0.501807
0.490448
0.480293
0.471278
0.463326
0.456352
0.450266
0.444978
0.4404
0.805806
0.789994
0.772313
0.753129
0.732813
0.711738
0.690258
0.668701
0.647365
0.626515
0.606379
0.587148
0.568972
0.551961
0.536187
0.521687
0.508469
0.496512
0.485773
0.476194
0.467703
0.46022
0.453657
0.447924
0.442924
0.818273
0.80273
0.785143
0.765936
0.74547
0.724128
0.702286
0.680291
0.658456
0.637057
0.616333
0.596484
0.57767
0.560011
0.543587
0.528445
0.514599
0.502033
0.490712
0.480587
0.47159
0.46364
0.456653
0.450542
0.445224
0.356738
0.356618
0.356607
0.363186
0.363153
0.367398
0.368029
0.373097
0.381017
0.377668
0.383829
0.390804
0.392012
0.395448
0.398725
0.400036
0.402188
0.404036
0.4038
0.405475
0.406893
0.405261
0.406796
0.408077
0.405555
0.407049
0.408305
0.405565
0.407001
0.408237
0.405685
0.407047
0.408236
0.406004
0.407282
0.408404
0.406521
0.407709
0.408757
0.407242
0.408349
0.409307
0.408183
0.409185
0.410077
0.40956
0.410342
0.411058
0.411494
0.41198
0.412446
0.414067
0.414157
0.414279
0.417121
0.41673
0.416443
0.421067
0.420105
0.419305
0.425516
0.423955
0.422604
0.429689
0.427572
0.425723
0.43341
0.430808
0.428523
0.4367
0.433682
0.43102
0.43883
0.435494
0.432548
0.440805
0.437141
0.433969
0.432701
0.432655
0.432556
0.432215
0.431364
0.430008
0.428276
0.426293
0.424169
0.421989
0.419812
0.417681
0.415621
0.413651
0.411779
0.41001
0.408346
0.406786
0.405329
0.403971
0.402709
0.401539
0.400458
0.399463
0.39855
0.397716
0.39696
0.39628
0.395673
0.39514
0.394679
0.394292
0.393978
0.393739
0.393576
0.393492
0.39349
0.393577
0.393756
0.39403
0.394401
0.394876
0.395466
0.39618
0.397024
0.398003
0.399125
0.400398
0.40183
0.403427
0.405193
0.407132
0.409244
0.411525
0.413965
0.416548
0.41925
0.422033
0.424846
0.427623
0.430279
0.432696
0.434705
0.436141
0.436954
0.437255
0.43697
0.436046
0.434584
0.43257
0.430066
0.427458
0.425088
0.423154
0.421952
0.421747
0.422599
0.424124
0.42549
0.42613
0.432815
0.432696
0.432547
0.43201
0.430972
0.42954
0.427795
0.425843
0.423775
0.421662
0.419554
0.417488
0.415488
0.41357
0.411742
0.410011
0.408378
0.406843
0.405406
0.404063
0.402813
0.401652
0.400577
0.399584
0.398672
0.397837
0.397077
0.39639
0.395775
0.395232
0.394758
0.394356
0.394024
0.393765
0.39358
0.393471
0.393442
0.393491
0.393626
0.393853
0.394176
0.394601
0.395132
0.395774
0.396535
0.397422
0.398444
0.399606
0.400913
0.402371
0.403983
0.405751
0.407672
0.409744
0.411955
0.41429
0.416726
0.419228
0.421753
0.424243
0.426627
0.428815
0.430685
0.432123
0.433106
0.433675
0.433726
0.43309
0.431707
0.429717
0.427309
0.424827
0.422639
0.420928
0.419932
0.419842
0.42077
0.42253
0.424471
0.425665
0.432945
0.432524
0.431967
0.431074
0.429837
0.428335
0.426619
0.42476
0.422815
0.420834
0.418855
0.416908
0.415014
0.413187
0.411439
0.409775
0.4082
0.406714
0.405317
0.404009
0.402787
0.401649
0.400592
0.399614
0.398712
0.397885
0.39713
0.396445
0.395828
0.39528
0.3948
0.394387
0.394042
0.393766
0.39356
0.393427
0.39337
0.393389
0.39349
0.393675
0.393951
0.394322
0.394793
0.39537
0.396058
0.396863
0.397793
0.398852
0.400045
0.401376
0.402849
0.404463
0.406218
0.408108
0.410123
0.412249
0.414464
0.416739
0.419035
0.421305
0.423493
0.425537
0.427355
0.428817
0.429845
0.430437
0.43053
0.430024
0.428913
0.427286
0.42526
0.423111
0.421184
0.419717
0.418854
0.418682
0.419254
0.420507
0.422171
0.423622
0.432401
0.431685
0.430816
0.429717
0.428386
0.426872
0.425215
0.423457
0.421636
0.419786
0.417936
0.41611
0.414326
0.412599
0.41094
0.409354
0.407847
0.406421
0.405076
0.403812
0.402627
0.401521
0.400492
0.399536
0.398651
0.397837
0.397091
0.396411
0.395796
0.395246
0.39476
0.394337
0.393978
0.393685
0.393457
0.393297
0.393208
0.393191
0.393251
0.39339
0.393613
0.393925
0.39433
0.394832
0.395439
0.396155
0.396985
0.397936
0.399012
0.400216
0.401551
0.403019
0.404618
0.406344
0.408189
0.410142
0.412184
0.414292
0.416434
0.41857
0.420654
0.422638
0.424473
0.426056
0.427234
0.42792
0.428087
0.427702
0.426794
0.425468
0.423808
0.421958
0.420206
0.418832
0.417983
0.41773
0.418057
0.418871
0.420008
0.421257
0.431082
0.430202
0.429233
0.428088
0.426752
0.42527
0.42368
0.422014
0.420301
0.418566
0.416832
0.415119
0.413443
0.411817
0.410249
0.408748
0.407316
0.405957
0.404671
0.40346
0.402321
0.401255
0.400259
0.399331
0.398471
0.397675
0.396943
0.396272
0.395663
0.395114
0.394625
0.394195
0.393825
0.393515
0.393268
0.393083
0.392964
0.392913
0.392932
0.393025
0.393197
0.393451
0.393791
0.394222
0.39475
0.395379
0.396114
0.396961
0.397925
0.399007
0.400213
0.401542
0.402995
0.404569
0.406256
0.408049
0.409932
0.411885
0.413883
0.415892
0.417871
0.419773
0.421546
0.423115
0.424366
0.425207
0.425596
0.425509
0.42496
0.424009
0.42272
0.421185
0.419649
0.418379
0.417547
0.417219
0.417358
0.41787
0.418577
0.419518
0.429294
0.428304
0.427319
0.426193
0.4249
0.423483
0.421976
0.420407
0.418801
0.417179
0.41556
0.413961
0.412394
0.410871
0.4094
0.407987
0.406636
0.40535
0.404131
0.402978
0.401892
0.400871
0.399914
0.399019
0.398186
0.397413
0.396699
0.396041
0.39544
0.394895
0.394405
0.39397
0.39359
0.393266
0.392999
0.392791
0.392643
0.392557
0.392537
0.392585
0.392705
0.392901
0.393177
0.393538
0.393988
0.394531
0.395173
0.395919
0.396772
0.397736
0.398815
0.40001
0.401321
0.402745
0.404279
0.405915
0.407642
0.409442
0.411296
0.413175
0.415046
0.416868
0.418591
0.420152
0.42147
0.422485
0.423155
0.423444
0.423327
0.422812
0.421926
0.420748
0.419488
0.418384
0.417608
0.41723
0.417223
0.417499
0.417871
0.418447
0.427071
0.426073
0.425131
0.424061
0.422847
0.421521
0.420117
0.418659
0.417169
0.415666
0.414166
0.412682
0.411227
0.409811
0.408439
0.407118
0.405853
0.404644
0.403494
0.402404
0.401373
0.400401
0.399486
0.398628
0.397826
0.397078
0.396383
0.395741
0.39515
0.39461
0.39412
0.393681
0.393293
0.392956
0.392671
0.39244
0.392263
0.392144
0.392085
0.392089
0.392159
0.392299
0.392513
0.392806
0.39318
0.393641
0.394194
0.394842
0.39559
0.396441
0.397399
0.398465
0.39964
0.400923
0.402311
0.403797
0.405373
0.407027
0.40874
0.410493
0.412256
0.413998
0.415678
0.417248
0.418655
0.419846
0.420778
0.421409
0.421702
0.421639
0.42122
0.4205
0.419621
0.418777
0.418128
0.417737
0.417596
0.417641
0.417751
0.418026
0.424499
0.423564
0.422708
0.421732
0.420629
0.419423
0.418143
0.416812
0.41545
0.414074
0.412698
0.411335
0.409996
0.408687
0.407417
0.406191
0.405011
0.403882
0.402803
0.401776
0.400802
0.39988
0.399009
0.398188
0.397418
0.396696
0.396022
0.395396
0.394816
0.394282
0.393794
0.393352
0.392956
0.392606
0.392305
0.392051
0.391849
0.391698
0.391602
0.391563
0.391585
0.391672
0.391827
0.392055
0.392359
0.392743
0.393211
0.393769
0.394419
0.395166
0.396012
0.39696
0.39801
0.399163
0.400417
0.401767
0.403207
0.404727
0.406314
0.407951
0.409616
0.411285
0.412925
0.414501
0.415976
0.41731
0.418456
0.419381
0.420061
0.420455
0.420548
0.420347
0.419934
0.419433
0.418974
0.418586
0.418308
0.418168
0.418091
0.418126
0.421674
0.420828
0.42008
0.419234
0.418278
0.417223
0.416093
0.41491
0.413692
0.412454
0.41121
0.409972
0.40875
0.407552
0.406384
0.405251
0.404157
0.403105
0.402097
0.401133
0.400215
0.399342
0.398514
0.39773
0.396991
0.396295
0.395642
0.395031
0.394462
0.393934
0.393448
0.393004
0.392601
0.39224
0.391922
0.391649
0.391421
0.39124
0.391109
0.391031
0.391008
0.391045
0.391145
0.391313
0.391552
0.391865
0.392258
0.392733
0.393296
0.393949
0.394696
0.395539
0.39648
0.39752
0.398657
0.399889
0.401212
0.402619
0.404099
0.40564
0.407227
0.408838
0.41045
0.412038
0.413576
0.41504
0.416354
0.417517
0.418537
0.419338
0.419905
0.420215
0.420293
0.420173
0.419916
0.419558
0.419183
0.418876
0.418641
0.418474
0.418583
0.417848
0.417247
0.416584
0.415824
0.414961
0.414014
0.413004
0.411946
0.410859
0.409754
0.408645
0.407542
0.406453
0.405385
0.404344
0.403333
0.402356
0.401414
0.400511
0.399645
0.398819
0.398031
0.397282
0.396572
0.3959
0.395266
0.394669
0.394111
0.393589
0.393105
0.392658
0.392248
0.391877
0.391545
0.391252
0.391
0.390791
0.390628
0.390512
0.390449
0.39044
0.39049
0.390604
0.390784
0.391035
0.391361
0.391764
0.392251
0.392823
0.393484
0.394238
0.395087
0.396031
0.397072
0.398208
0.399436
0.400752
0.40215
0.403619
0.405147
0.406721
0.408321
0.409926
0.411514
0.413064
0.414571
0.415987
0.41726
0.418368
0.419327
0.420069
0.420562
0.420847
0.420833
0.420524
0.420068
0.419559
0.419119
0.418759
0.415064
0.414497
0.41415
0.413784
0.413302
0.412687
0.411963
0.411152
0.410274
0.409347
0.408387
0.407408
0.406422
0.405438
0.404466
0.40351
0.402576
0.401668
0.400788
0.399939
0.399122
0.398337
0.397586
0.396868
0.396183
0.395533
0.394915
0.394332
0.393781
0.393265
0.392781
0.392332
0.391916
0.391535
0.391188
0.390878
0.390604
0.390369
0.390175
0.390026
0.389924
0.389874
0.38988
0.389946
0.390075
0.390272
0.390539
0.390882
0.391304
0.391808
0.392399
0.39308
0.393854
0.394722
0.395687
0.396748
0.397905
0.399154
0.400493
0.401914
0.40341
0.404968
0.406576
0.408217
0.409873
0.411525
0.413154
0.414741
0.416275
0.417715
0.419002
0.42005
0.420897
0.421477
0.421696
0.421494
0.420922
0.420221
0.419401
0.418765
0.410761
0.410578
0.410703
0.410832
0.410762
0.41047
0.410011
0.409426
0.408742
0.407981
0.407165
0.406312
0.405436
0.404551
0.403665
0.402786
0.401921
0.401074
0.400248
0.399446
0.39867
0.397921
0.3972
0.396508
0.395845
0.395211
0.394608
0.394034
0.39349
0.392976
0.392493
0.39204
0.391618
0.391227
0.390868
0.390541
0.390247
0.389988
0.389765
0.389583
0.389447
0.389361
0.389328
0.389352
0.389438
0.389588
0.389807
0.390099
0.390468
0.390918
0.391453
0.392077
0.392792
0.393603
0.394511
0.395519
0.396626
0.397832
0.399135
0.400532
0.402016
0.403582
0.405218
0.406912
0.40865
0.410416
0.412191
0.413953
0.41568
0.417351
0.418965
0.420409
0.42163
0.422517
0.422974
0.422852
0.422063
0.42105
0.41977
0.418538
0.40459
0.405492
0.406735
0.407678
0.40823
0.408388
0.408243
0.407906
0.407421
0.406823
0.406143
0.405405
0.404628
0.403828
0.403016
0.402202
0.401394
0.400597
0.399815
0.399051
0.398307
0.397587
0.396889
0.396217
0.39557
0.39495
0.394356
0.393789
0.393249
0.392737
0.392252
0.391795
0.391366
0.390966
0.390595
0.390253
0.389941
0.389658
0.389407
0.389194
0.389027
0.388909
0.388843
0.388832
0.388881
0.388994
0.389174
0.389425
0.389753
0.39016
0.390652
0.391233
0.391906
0.392676
0.393545
0.394518
0.395594
0.396777
0.398066
0.399459
0.400954
0.402547
0.40423
0.405995
0.40783
0.409723
0.411657
0.413612
0.415565
0.417491
0.419359
0.421122
0.422775
0.424124
0.424979
0.425172
0.424608
0.423046
0.420273
0.417808
0.39521
0.399594
0.40252
0.404491
0.405799
0.40654
0.406786
0.406691
0.406389
0.405936
0.405373
0.40473
0.404032
0.403299
0.402545
0.40178
0.401015
0.400255
0.399504
0.398768
0.398048
0.397347
0.396666
0.396007
0.39537
0.394758
0.394169
0.393605
0.393067
0.392554
0.392066
0.391605
0.39117
0.390761
0.39038
0.390027
0.389698
0.38939
0.389107
0.388861
0.388664
0.388521
0.38843
0.388391
0.388411
0.388493
0.388642
0.388863
0.389159
0.389535
0.389996
0.390547
0.391191
0.391935
0.392782
0.393735
0.394799
0.395976
0.397268
0.398675
0.400198
0.401835
0.403581
0.405433
0.407381
0.409416
0.411524
0.41369
0.415893
0.418109
0.420306
0.422452
0.424514
0.426385
0.427886
0.428914
0.429954
0.429231
0.423305
0.415418
0.376387
0.391642
0.397947
0.401591
0.403748
0.405063
0.40573
0.405881
0.405721
0.405374
0.404894
0.404317
0.403672
0.402983
0.402265
0.401532
0.400793
0.400056
0.399325
0.398604
0.397898
0.397207
0.396535
0.395882
0.39525
0.39464
0.394053
0.39349
0.39295
0.392434
0.391943
0.391476
0.391034
0.390617
0.390227
0.389859
0.389509
0.389177
0.388874
0.388604
0.388377
0.388205
0.388091
0.388032
0.38803
0.388089
0.388215
0.388413
0.388686
0.389041
0.389482
0.390014
0.390642
0.391373
0.39221
0.393158
0.394223
0.395407
0.396716
0.398152
0.399716
0.401409
0.403231
0.40518
0.407252
0.409441
0.411737
0.414131
0.416608
0.419149
0.421734
0.42434
0.426948
0.429528
0.43205
0.434577
0.437326
0.439805
0.440475
0.444337
0.3804
0.390687
0.396503
0.400507
0.402891
0.404368
0.405226
0.40555
0.405477
0.405176
0.404731
0.40418
0.403557
0.402884
0.402181
0.401459
0.40073
0.400001
0.399276
0.398561
0.397858
0.39717
0.396498
0.395845
0.395212
0.394601
0.394011
0.393445
0.392902
0.392382
0.391886
0.391413
0.390964
0.390539
0.390134
0.389742
0.389368
0.389023
0.388711
0.388431
0.388183
0.387979
0.387835
0.387756
0.387739
0.387782
0.387892
0.388074
0.388334
0.388675
0.389105
0.389628
0.39025
0.390978
0.391816
0.39277
0.393846
0.39505
0.396386
0.397859
0.399473
0.401231
0.403135
0.405187
0.407385
0.40973
0.412217
0.414842
0.417599
0.420476
0.423465
0.426556
0.429741
0.433021
0.436426
0.440071
0.444077
0.448419
0.45391
0.46328
0.389189
0.395141
0.39904
0.401853
0.403627
0.404761
0.40545
0.405742
0.405672
0.405352
0.404883
0.404315
0.403677
0.402993
0.402281
0.401552
0.400817
0.400082
0.399352
0.398632
0.397924
0.39723
0.396554
0.395895
0.395257
0.39464
0.394045
0.393474
0.392926
0.392402
0.391901
0.391422
0.390965
0.390524
0.390092
0.389678
0.389292
0.38894
0.388621
0.388334
0.388078
0.387856
0.387682
0.387572
0.387536
0.38757
0.387672
0.387846
0.388098
0.388434
0.38886
0.389382
0.390007
0.390739
0.391587
0.392555
0.393651
0.394881
0.396252
0.397768
0.399436
0.401261
0.403248
0.4054
0.40772
0.410213
0.412879
0.415721
0.418738
0.421931
0.425301
0.42885
0.432585
0.436507
0.440656
0.445081
0.44976
0.454667
0.460163
0.466878
0.396295
0.399967
0.402505
0.404222
0.405311
0.405976
0.406327
0.406418
0.406256
0.405871
0.405329
0.404695
0.404008
0.403287
0.402546
0.401795
0.40104
0.400289
0.399544
0.398811
0.398091
0.397387
0.3967
0.396032
0.395384
0.394759
0.394157
0.39358
0.393028
0.392501
0.391997
0.391508
0.391027
0.390556
0.390104
0.389681
0.389291
0.388934
0.388609
0.388317
0.388058
0.387833
0.387647
0.38751
0.38744
0.387452
0.387547
0.387721
0.387974
0.388313
0.388742
0.38927
0.389903
0.390647
0.391511
0.392499
0.393621
0.394883
0.396291
0.397854
0.399576
0.401466
0.40353
0.405774
0.408204
0.410826
0.413647
0.416673
0.419914
0.423378
0.427071
0.430996
0.435145
0.43947
0.443957
0.448644
0.453505
0.458553
0.464114
0.47027
0.401652
0.403919
0.40553
0.406569
0.407188
0.407497
0.407562
0.407433
0.407129
0.406652
0.406016
0.405283
0.404516
0.403739
0.402956
0.40217
0.401388
0.400613
0.399848
0.399097
0.398361
0.397642
0.396942
0.396261
0.395603
0.394967
0.394357
0.393775
0.393221
0.392689
0.392166
0.391646
0.391136
0.390648
0.390191
0.389767
0.389374
0.389014
0.388686
0.388392
0.388132
0.387909
0.387725
0.387586
0.387497
0.387476
0.38754
0.3877
0.387957
0.388304
0.388745
0.389286
0.389933
0.390695
0.391579
0.392593
0.393743
0.395039
0.396487
0.398094
0.399868
0.401818
0.40395
0.406272
0.408793
0.41152
0.414463
0.417635
0.42105
0.42472
0.428622
0.432712
0.43698
0.441419
0.445989
0.450691
0.455583
0.460705
0.466094
0.471652
0.405689
0.407042
0.40799
0.408579
0.408879
0.408943
0.408815
0.408536
0.408125
0.407563
0.406833
0.406
0.405149
0.404312
0.403483
0.40266
0.401847
0.401045
0.400257
0.399486
0.398732
0.397998
0.397284
0.396592
0.395922
0.395278
0.39466
0.394071
0.393503
0.392943
0.392382
0.391836
0.391317
0.390828
0.39037
0.389943
0.389548
0.389187
0.38886
0.388567
0.388309
0.38809
0.387912
0.387781
0.387701
0.387675
0.387716
0.387844
0.388072
0.388409
0.388861
0.389422
0.390091
0.390876
0.391786
0.392827
0.394009
0.395339
0.396825
0.398474
0.400295
0.402296
0.404485
0.40687
0.40946
0.412265
0.415297
0.418569
0.422082
0.425812
0.429735
0.433835
0.438099
0.44255
0.447191
0.451997
0.456957
0.462052
0.46724
0.472409
0.408113
0.409065
0.409692