/*--------------------------------*- C++ -*----------------------------------*\
| =========                 |                                                 |
| \\      /  F ield         | OpenFOAM: The Open Source CFD Toolbox           |
|  \\    /   O peration     | Version:  v2012                                 |
|   \\  /    A nd           | Website:  www.openfoam.com                      |
|    \\/     M anipulation  |                                                 |
\*---------------------------------------------------------------------------*/
FoamFile
{
    version     2.0;
    format      ascii;
    class       surfaceScalarField;
    location    "504";
    object      phi;
}
// * * * * * * * * * * * * * * * * * * * * * * * * * * * * * * * * * * * * * //

dimensions      [0 3 -1 0 0 0 0];
oriented        oriented;


internalField   nonuniform List<scalar> 
12848
(
4.98503e-08
0.00019995
3.40391e-08
0.000200016
2.06631e-08
0.000200013
9.77806e-09
0.000200011
1.67937e-11
0.00020001
-9.74733e-09
0.00020001
-2.06405e-08
0.000200011
-3.40288e-08
0.000200013
-4.98481e-08
0.000200016
0.00019995
8.05526e-08
0.00019987
7.12556e-08
0.000200025
4.84174e-08
0.000200036
2.40714e-08
0.000200035
5.0855e-11
0.000200034
-2.39775e-08
0.000200034
-4.83461e-08
0.000200035
-7.12189e-08
0.000200036
-8.05448e-08
0.000200025
0.00019987
8.33228e-08
0.000199786
8.38991e-08
0.000200025
6.10415e-08
0.000200059
3.14689e-08
0.000200065
9.77254e-11
0.000200065
-3.12838e-08
0.000200065
-6.08837e-08
0.000200065
-8.37743e-08
0.000200059
-8.32504e-08
0.000200025
0.000199786
8.05298e-08
0.000199706
8.43822e-08
0.000200021
6.39259e-08
0.00020008
3.38465e-08
0.000200095
1.64081e-10
0.000200099
-3.35339e-08
0.000200099
-6.36571e-08
0.000200095
-8.41853e-08
0.00020008
-8.04221e-08
0.000200021
0.000199706
7.69527e-08
0.000199629
8.18588e-08
0.000200016
6.30855e-08
0.000200098
3.38086e-08
0.000200124
2.58877e-10
0.000200132
-3.33156e-08
0.000200132
-6.2665e-08
0.000200124
-8.15509e-08
0.000200099
-7.67864e-08
0.000200016
0.000199629
7.26487e-08
0.000199556
7.79139e-08
0.000200011
6.07386e-08
0.000200115
3.27978e-08
0.000200152
3.98692e-10
0.000200165
-3.20399e-08
0.000200165
-6.00945e-08
0.000200152
-7.74396e-08
0.000200116
-7.23898e-08
0.000200011
0.000199557
6.8442e-08
0.000199488
7.3461e-08
0.000200005
5.73957e-08
0.000200132
3.12186e-08
0.000200178
6.13387e-10
0.000200195
-3.00511e-08
0.000200196
-5.63989e-08
0.000200179
-7.27285e-08
0.000200132
-6.80428e-08
0.000200006
0.000199489
6.47662e-08
0.000199423
6.93809e-08
0.000200001
5.42802e-08
0.000200147
2.9707e-08
0.000200203
9.41389e-10
0.000200224
-2.79141e-08
0.000200224
-5.27472e-08
0.000200204
-6.82515e-08
0.000200148
-6.41479e-08
0.000200002
0.000199425
6.17417e-08
0.000199361
6.59853e-08
0.000199997
5.17133e-08
0.000200161
2.85518e-08
0.000200226
1.43992e-09
0.000200251
-2.58088e-08
0.000200252
-4.93664e-08
0.000200227
-6.42539e-08
0.000200163
-6.0791e-08
0.000199999
0.000199364
5.93651e-08
0.000199302
6.33604e-08
0.000199993
4.98206e-08
0.000200174
2.78862e-08
0.000200248
2.19648e-09
0.000200277
-2.37016e-08
0.000200278
-4.62403e-08
0.00020025
-6.07243e-08
0.000200177
-5.79177e-08
0.000199996
0.000199306
5.76024e-08
0.000199244
6.15298e-08
0.000199989
4.86949e-08
0.000200187
2.78368e-08
0.000200269
3.34226e-09
0.000200301
-2.14706e-08
0.000200302
-4.32524e-08
0.000200271
-5.75355e-08
0.000200191
-5.54131e-08
0.000199994
0.00019925
5.64592e-08
0.000199188
6.05622e-08
0.000199985
4.84537e-08
0.000200199
2.85717e-08
0.000200289
5.07211e-09
0.000200325
-1.89187e-08
0.000200326
-4.02169e-08
0.000200293
-5.4517e-08
0.000200206
-5.31512e-08
0.000199992
0.000199197
5.60118e-08
0.000199132
6.06354e-08
0.00019998
4.93353e-08
0.000200211
3.03761e-08
0.000200308
7.69134e-09
0.000200348
-1.57571e-08
0.00020035
-3.68904e-08
0.000200314
-5.14843e-08
0.00020022
-5.10172e-08
0.000199992
0.000199146
5.63966e-08
0.000199075
6.20042e-08
0.000199974
5.17568e-08
0.000200221
3.37376e-08
0.000200326
1.16869e-08
0.00020037
-1.15666e-08
0.000200373
-3.29766e-08
0.000200335
-4.8277e-08
0.000200236
-4.89384e-08
0.000199993
0.000199097
5.77758e-08
0.000199018
6.49789e-08
0.000199967
5.62877e-08
0.00020023
3.94078e-08
0.000200343
1.78172e-08
0.000200391
-5.72851e-09
0.000200397
-2.81105e-08
0.000200358
-4.48033e-08
0.000200252
-4.70017e-08
0.000199995
0.00019905
6.06652e-08
0.000198957
7.05697e-08
0.000199957
6.41418e-08
0.000200236
4.86618e-08
0.000200358
2.73219e-08
0.000200413
2.72965e-09
0.000200421
-2.18238e-08
0.000200382
-4.11796e-08
0.000200272
-4.56024e-08
0.000199999
0.000199005
6.57495e-08
0.000198891
7.99871e-08
0.000199943
7.69714e-08
0.000200239
6.34728e-08
0.000200372
4.21878e-08
0.000200434
1.5433e-08
0.000200448
-1.35475e-08
0.000200411
-3.83951e-08
0.000200296
-4.64527e-08
0.000200007
0.000198958
7.40234e-08
0.000198817
9.5122e-08
0.000199922
9.7545e-08
0.000200237
8.72966e-08
0.000200382
6.61675e-08
0.000200455
3.53178e-08
0.000200479
-2.72508e-09
0.000200449
-4.03743e-08
0.000200334
-5.62259e-08
0.000200023
0.000198902
8.6881e-08
0.00019873
1.18731e-07
0.00019989
1.30042e-07
0.000200225
1.2585e-07
0.000200386
1.06406e-07
0.000200474
7.07495e-08
0.000200514
1.93376e-08
0.000200501
-3.72539e-08
0.000200391
-7.17582e-08
0.000200058
0.00019883
1.05933e-07
0.000198624
1.54286e-07
0.000199842
1.79948e-07
0.0002002
1.86725e-07
0.000200379
1.72298e-07
0.000200489
1.30938e-07
0.000200556
4.89087e-08
0.000200583
-8.29837e-08
0.000200523
-2.64302e-07
0.000200239
0.000198566
1.33352e-07
0.000198491
2.06358e-07
0.000199769
2.55413e-07
0.000200151
2.84416e-07
0.00020035
2.91778e-07
0.000200482
2.74678e-07
0.000200573
2.33062e-07
0.000200624
1.6865e-07
0.000200587
4.18933e-07
0.000199989
0.000193851
5.13382e-06
1.70636e-07
0.00019832
2.78081e-07
0.000199661
3.61158e-07
0.000200068
4.24604e-07
0.000200287
4.68254e-07
0.000200438
4.95867e-07
0.000200545
5.31876e-07
0.000200588
6.42989e-07
0.000200476
9.69902e-07
0.000199662
0.000191604
3.21666e-06
2.18196e-07
0.000198102
3.70301e-07
0.000199509
4.97698e-07
0.00019994
6.06311e-07
0.000200178
6.97667e-07
0.000200347
7.77035e-07
0.000200466
8.66578e-07
0.000200499
1.07568e-06
0.000200267
1.77047e-06
0.000198967
0.000188314
5.06124e-06
2.76356e-07
0.000197826
4.83547e-07
0.000199302
6.65499e-07
0.000199758
8.29426e-07
0.000200014
9.79225e-07
0.000200197
1.12556e-06
0.00020032
1.30649e-06
0.000200318
1.66418e-06
0.000199909
2.69214e-06
0.000197939
0.000184684
6.32152e-06
3.45801e-07
0.00019748
6.19015e-07
0.000199029
8.66204e-07
0.000199511
1.09593e-06
0.000199784
1.31464e-06
0.000199978
1.53917e-06
0.000200095
1.81983e-06
0.000200037
2.31468e-06
0.000199414
3.55477e-06
0.000196699
0.000181081
7.15757e-06
4.27564e-07
0.000197052
7.78448e-07
0.000198678
1.10209e-06
0.000199187
1.40818e-06
0.000199478
1.70507e-06
0.000199681
2.01416e-06
0.000199786
2.39544e-06
0.000199656
3.02784e-06
0.000198782
4.49491e-06
0.000195232
0.000177645
7.93086e-06
5.23024e-07
0.000196529
9.64458e-07
0.000198236
1.37716e-06
0.000198775
1.77156e-06
0.000199084
2.15778e-06
0.000199295
2.5613e-06
0.000199382
3.04988e-06
0.000199167
3.8104e-06
0.000198021
5.42102e-06
0.000193621
0.00017451
8.55686e-06
6.35226e-07
0.000195894
1.18106e-06
0.000197691
1.69755e-06
0.000198258
2.19499e-06
0.000198587
2.68546e-06
0.000198804
3.19862e-06
0.000198869
3.81024e-06
0.000198556
4.71094e-06
0.000197121
6.43443e-06
0.000191898
0.000171646
9.29768e-06
7.65454e-07
0.000195129
1.43349e-06
0.000197023
2.07052e-06
0.000197621
2.6886e-06
0.000197968
3.30195e-06
0.000198191
3.94503e-06
0.000198226
4.70371e-06
0.000197797
5.78142e-06
0.000196043
7.6462e-06
0.000190033
0.000169062
1.0231e-05
9.14621e-07
0.000194214
1.72656e-06
0.000196211
2.50316e-06
0.000196845
3.2609e-06
0.000197211
4.01625e-06
0.000197436
4.80745e-06
0.000197435
5.7254e-06
0.000196879
6.97306e-06
0.000194795
8.95338e-06
0.000188053
0.000166772
1.12428e-05
1.08689e-06
0.000193127
2.06416e-06
0.000195233
3.00173e-06
0.000195907
3.9193e-06
0.000196293
4.83533e-06
0.00019652
5.79026e-06
0.00019648
6.8753e-06
0.000195794
8.28265e-06
0.000193388
1.03357e-05
0.000186
0.000164814
1.22941e-05
1.28557e-06
0.000191842
2.45147e-06
0.000194067
3.57364e-06
0.000194785
4.67342e-06
0.000195193
5.77055e-06
0.000195423
6.9063e-06
0.000195344
8.16939e-06
0.000194531
9.73885e-06
0.000191818
1.18226e-05
0.000183916
0.000163169
1.34673e-05
1.51357e-06
0.000190328
2.89538e-06
0.000192686
4.22861e-06
0.000193452
5.53599e-06
0.000193886
6.83758e-06
0.000194121
8.17358e-06
0.000194008
9.62687e-06
0.000193078
1.13484e-05
0.000190097
1.34096e-05
0.000181855
0.000161805
1.47733e-05
1.7747e-06
0.000188553
3.40373e-06
0.000191057
4.97815e-06
0.000191877
6.52231e-06
0.000192342
8.05557e-06
0.000192588
9.61478e-06
0.000192449
1.12714e-05
0.000191421
1.31325e-05
0.000188236
1.51503e-05
0.000179837
0.000160685
1.62706e-05
2.07322e-06
0.00018648
3.98494e-06
0.000189145
5.8349e-06
0.000190027
7.64938e-06
0.000190527
9.44634e-06
0.000190791
1.1257e-05
0.000190638
1.31361e-05
0.000189542
1.51405e-05
0.000186232
1.7121e-05
0.000177856
0.000159762
1.80444e-05
2.4134e-06
0.000184067
4.6475e-06
0.000186911
6.81175e-06
0.000187863
8.93491e-06
0.000188404
1.1033e-05
0.000188693
1.313e-05
0.000188542
1.52601e-05
0.000187412
1.74288e-05
0.000184063
1.9401e-05
0.000175884
0.000158979
2.01842e-05
2.79902e-06
0.000181268
5.39933e-06
0.00018431
7.92078e-06
0.000185341
1.03955e-05
0.000185929
1.28378e-05
0.00018625
1.52628e-05
0.000186116
1.76827e-05
0.000184992
2.00531e-05
0.000181692
2.20683e-05
0.000173869
0.000158262
2.27848e-05
3.23349e-06
0.000178034
6.24681e-06
0.000181297
9.17168e-06
0.000182417
1.20446e-05
0.000183057
1.48783e-05
0.000183417
1.76795e-05
0.000183315
2.04379e-05
0.000182234
2.30634e-05
0.000179067
2.51962e-05
0.000171736
0.000157514
2.59445e-05
3.7204e-06
0.000174314
7.19408e-06
0.000177823
1.05704e-05
0.00017904
1.38901e-05
0.000179737
1.71654e-05
0.000180141
2.03951e-05
0.000180086
2.35481e-05
0.00017908
2.64958e-05
0.000176119
2.884e-05
0.000169392
0.000156615
2.97387e-05
4.26125e-06
0.000170053
8.24253e-06
0.000173842
1.2118e-05
0.000175165
1.5933e-05
0.000175922
1.97e-05
0.000176374
2.34115e-05
0.000176374
2.70194e-05
0.000175473
3.03648e-05
0.000172774
3.30276e-05
0.000166729
0.00015543
3.42129e-05
4.85472e-06
0.000165198
9.39033e-06
0.000169307
1.38103e-05
0.000170745
1.8166e-05
0.000171566
2.24718e-05
0.000172069
2.6716e-05
0.00017213
3.08381e-05
0.000171351
3.46598e-05
0.000168952
3.77546e-05
0.000163634
0.000153809
3.93747e-05
5.49844e-06
0.000159699
1.06323e-05
0.000164173
1.56376e-05
0.00016574
2.05739e-05
0.00016663
2.5459e-05
0.000167183
3.02801e-05
0.000167309
3.49698e-05
0.000166661
3.93418e-05
0.00016458
4.29791e-05
0.000159997
0.000151604
4.51842e-05
6.18935e-06
0.00015351
1.19606e-05
0.000158402
1.75857e-05
0.000160114
2.31341e-05
0.000161081
2.86291e-05
0.000161688
3.40602e-05
0.000161878
3.93594e-05
0.000161362
4.43434e-05
0.000159596
4.86198e-05
0.000155721
0.000148677
5.15476e-05
6.92415e-06
0.000146586
1.3366e-05
0.00015196
1.96369e-05
0.000153844
2.58185e-05
0.0001549
3.19415e-05
0.000155565
3.80009e-05
0.000155818
4.39343e-05
0.000155428
4.95718e-05
0.000153959
5.45583e-05
0.000150734
0.000144916
5.83188e-05
7.70016e-06
0.000138886
1.48398e-05
0.00014482
2.17729e-05
0.000146911
2.85964e-05
0.000148076
3.53505e-05
0.000148811
4.20389e-05
0.00014913
4.86103e-05
0.000148857
5.49162e-05
0.000147653
6.06492e-05
0.000145001
0.000140256
6.53091e-05
8.51632e-06
0.000130369
1.63752e-05
0.000136961
2.39768e-05
0.000139309
3.14377e-05
0.000140615
3.88099e-05
0.000141439
4.61087e-05
0.000141831
5.32983e-05
0.000141667
6.02578e-05
0.000140693
6.67331e-05
0.000138526
0.000134684
7.23057e-05
9.37433e-06
0.000120995
1.79693e-05
0.000128366
2.62355e-05
0.000131043
3.43154e-05
0.000132535
4.22761e-05
0.000133478
5.01476e-05
0.00013396
5.79127e-05
0.000133902
6.54813e-05
0.000133125
7.26542e-05
0.000131353
0.000128241
7.90964e-05
1.02798e-05
0.000110715
1.9625e-05
0.000119021
2.85412e-05
0.000122127
3.7207e-05
0.00012387
4.57105e-05
0.000124975
5.40992e-05
0.000125571
6.23767e-05
0.000125625
7.04843e-05
0.000125017
7.82756e-05
0.000123562
0.000121022
8.54947e-05
1.12432e-05
9.94721e-05
2.1351e-05
0.000108913
3.08909e-05
0.000112587
4.00938e-05
0.000114667
4.90781e-05
0.000115991
5.7913e-05
0.000116736
6.6624e-05
0.000116914
7.51827e-05
0.000116458
8.34894e-05
0.000115255
0.000113153
9.13585e-05
1.22803e-05
8.71918e-05
2.31597e-05
9.80338e-05
3.32814e-05
0.000102465
4.29547e-05
0.000104993
5.23418e-05
0.000106603
6.15391e-05
0.000107539
7.05948e-05
0.000107858
7.95076e-05
0.000107546
8.8217e-05
0.000106546
0.000104775
9.65953e-05
1.34118e-05
7.378e-05
2.5059e-05
8.63866e-05
3.56976e-05
9.18264e-05
4.57532e-05
9.49378e-05
5.54495e-05
9.69072e-05
6.4916e-05
9.80722e-05
7.42242e-05
9.85496e-05
8.33954e-05
9.83745e-05
9.23995e-05
9.75414e-05
9.60223e-05
0.000101152
1.46651e-05
5.91149e-05
2.70157e-05
7.4036e-05
3.80831e-05
8.0759e-05
4.84164e-05
8.46045e-05
5.83149e-05
8.70087e-05
6.79523e-05
8.84348e-05
7.74243e-05
8.90776e-05
8.67692e-05
8.90296e-05
9.59772e-05
8.83335e-05
8.70068e-05
0.000104993
1.60543e-05
4.30606e-05
2.89197e-05
6.11706e-05
4.0276e-05
6.94027e-05
5.07706e-05
7.41099e-05
6.07701e-05
7.70093e-05
7.04928e-05
7.87121e-05
8.00571e-05
7.95133e-05
8.95133e-05
7.95733e-05
9.88624e-05
7.89844e-05
7.78036e-05
0.000108066
1.67166e-05
2.6344e-05
3.04443e-05
4.7443e-05
4.20465e-05
5.78005e-05
5.25645e-05
6.3592e-05
6.25547e-05
6.7019e-05
7.22907e-05
6.89761e-05
8.19025e-05
6.99015e-05
9.1441e-05
7.00348e-05
0.000100908
6.95169e-05
6.84404e-05
0.000110272
1.49267e-05
1.14173e-05
2.99484e-05
3.24212e-05
4.23692e-05
4.53797e-05
5.31619e-05
5.27992e-05
6.32055e-05
5.69754e-05
7.29599e-05
5.92218e-05
8.26239e-05
6.02375e-05
9.22635e-05
6.03951e-05
0.000101877
5.99031e-05
5.88903e-05
0.000111427
1.05352e-05
8.82106e-07
2.55613e-05
1.73951e-05
3.91793e-05
3.17617e-05
5.09711e-05
4.10074e-05
6.16178e-05
4.63288e-05
7.17203e-05
4.91192e-05
8.16339e-05
5.03239e-05
9.15115e-05
5.05175e-05
0.000101382
5.00322e-05
4.90588e-05
0.000111214
6.25417e-06
-5.37207e-06
1.81545e-05
5.49478e-06
3.1476e-05
1.84402e-05
4.41978e-05
2.82856e-05
5.59893e-05
3.45373e-05
6.70742e-05
3.80343e-05
7.77681e-05
3.963e-05
8.82802e-05
4.00054e-05
9.87012e-05
3.96111e-05
3.87187e-05
0.000109041
3.01013e-06
-8.3822e-06
9.94154e-06
-1.43663e-06
2.04311e-05
7.95066e-06
3.24589e-05
1.62577e-05
4.48616e-05
2.21346e-05
5.71437e-05
2.57523e-05
6.91615e-05
2.76123e-05
8.08954e-05
2.82715e-05
9.23939e-05
2.81126e-05
2.74143e-05
0.000103698
-1.44041e-06
-6.94178e-06
9.37728e-07
-3.81477e-06
7.43961e-06
1.44878e-06
1.70773e-05
6.62e-06
2.87673e-05
1.04446e-05
4.16448e-05
1.28748e-05
5.49759e-05
1.42812e-05
6.82155e-05
1.50319e-05
8.12459e-05
1.50821e-05
1.46208e-05
9.40394e-05
-6.94178e-06
-1.07566e-05
-9.30778e-06
-2.68777e-06
7.75685e-06
2.06316e-05
3.49128e-05
4.99448e-05
6.50269e-05
7.96477e-05
-2.88118e-05
3.39457e-05
-2.81643e-05
-6.47512e-07
-2.48688e-05
-3.29551e-06
-2.06552e-05
-4.21364e-06
-1.56868e-05
-4.96834e-06
-1.02594e-05
-5.42744e-06
-4.65854e-06
-5.60087e-06
8.64018e-07
-5.52254e-06
6.20824e-06
-5.34423e-06
1.13679e-05
-5.15965e-06
1.62122e-05
-4.84426e-06
2.05318e-05
-4.31962e-06
2.41081e-05
-3.57628e-06
2.6853e-05
-2.74491e-06
2.87221e-05
-1.86911e-06
2.97201e-05
-9.98021e-07
2.9788e-05
-6.79615e-08
2.88505e-05
9.37536e-07
2.68364e-05
2.01405e-06
2.36847e-05
3.15173e-06
1.93703e-05
4.3144e-06
1.39996e-05
5.37073e-06
8.11451e-06
5.88506e-06
2.9029e-06
5.21164e-06
2.9029e-06
-1.42424e-05
5.14047e-05
-2.00871e-05
5.19723e-06
-1.99664e-05
-3.4162e-06
-1.78719e-05
-6.30819e-06
-1.46896e-05
-8.15061e-06
-1.07261e-05
-9.39093e-06
-6.21462e-06
-1.01124e-05
-1.38149e-06
-1.03557e-05
3.43292e-06
-1.01586e-05
7.9386e-06
-9.66533e-06
1.20113e-05
-8.91698e-06
1.5567e-05
-7.87534e-06
1.85512e-05
-6.56046e-06
2.08985e-05
-5.0922e-06
2.25831e-05
-3.55375e-06
2.35725e-05
-1.98744e-06
2.38934e-05
-3.88855e-07
2.35686e-05
1.2624e-06
2.25871e-05
2.99546e-06
2.09075e-05
4.83132e-06
1.84642e-05
6.75774e-06
1.5167e-05
8.66788e-06
1.0863e-05
1.01892e-05
5.6395e-06
1.04351e-05
8.54241e-06
-8.53093e-06
6.49968e-05
-1.55799e-05
1.22462e-05
-1.73217e-05
-1.67431e-06
-1.65383e-05
-7.09167e-06
-1.43428e-05
-1.0346e-05
-1.12153e-05
-1.25185e-05
-7.48337e-06
-1.38443e-05
-3.39747e-06
-1.44416e-05
8.52311e-07
-1.44084e-05
4.96123e-06
-1.37743e-05
8.64545e-06
-1.26012e-05
1.17937e-05
-1.10236e-05
1.43935e-05
-9.16028e-06
1.64214e-05
-7.12011e-06
1.78605e-05
-4.99283e-06
1.87076e-05
-2.83454e-06
1.89825e-05
-6.63717e-07
1.87137e-05
1.53115e-06
1.79295e-05
3.77967e-06
1.66474e-05
6.11343e-06
1.4861e-05
8.54411e-06
1.25132e-05
1.10157e-05
9.43381e-06
1.32685e-05
5.34753e-06
1.45214e-05
1.38899e-05
-5.98779e-06
7.73062e-05
-1.40585e-05
2.03169e-05
-1.68385e-05
1.10564e-06
-1.67705e-05
-7.15966e-06
-1.50941e-05
-1.20224e-05
-1.24233e-05
-1.51893e-05
-9.12469e-06
-1.71429e-05
-5.4706e-06
-1.80957e-05
-1.67818e-06
-1.82008e-05
2.02039e-06
-1.74728e-05
5.39506e-06
-1.59759e-05
8.29445e-06
-1.3923e-05
1.06683e-05
-1.15342e-05
1.24919e-05
-8.94372e-06
1.37628e-05
-6.26368e-06
1.45015e-05
-3.57324e-06
1.47429e-05
-9.05136e-07
1.45269e-05
1.74711e-06
1.38903e-05
4.41623e-06
1.28623e-05
7.14151e-06
1.14582e-05
9.94822e-06
9.66284e-06
1.2811e-05
7.38344e-06
1.55479e-05
4.34781e-06
1.7557e-05
1.82377e-05
-3.222e-06
8.76857e-05
-1.26864e-05
2.97813e-05
-1.67108e-05
5.12997e-06
-1.74225e-05
-6.44796e-06
-1.62615e-05
-1.31833e-05
-1.39968e-05
-1.74539e-05
-1.10513e-05
-2.00885e-05
-7.7362e-06
-2.14107e-05
-4.32326e-06
-2.16138e-05
-1.00247e-06
-2.07936e-05
2.08894e-06
-1.90673e-05
4.8078e-06
-1.66418e-05
7.03601e-06
-1.37624e-05
8.72533e-06
-1.0633e-05
9.88804e-06
-7.42639e-06
1.05692e-05
-4.25437e-06
1.08237e-05
-1.15964e-06
1.07017e-05
1.86909e-06
1.02434e-05
4.8745e-06
9.47841e-06
7.90653e-06
8.42476e-06
1.10019e-05
7.08143e-06
1.41543e-05
5.39367e-06
1.72357e-05
3.12089e-06
1.98298e-05
2.13586e-05
-3.58351e-07
9.59749e-05
-1.02419e-05
3.96649e-05
-1.56342e-05
1.05222e-05
-1.74411e-05
-4.641e-06
-1.70703e-05
-1.35541e-05
-1.54074e-05
-1.91169e-05
-1.29696e-05
-2.25263e-05
-1.00927e-05
-2.42876e-05
-7.03899e-06
-2.46675e-05
-4.0026e-06
-2.383e-05
-1.13992e-06
-2.193e-05
1.398e-06
-1.91798e-05
3.48247e-06
-1.58468e-05
5.05905e-06
-1.22096e-05
6.14651e-06
-8.51385e-06
6.80707e-06
-4.91493e-06
7.1119e-06
-1.46447e-06
7.1192e-06
1.86179e-06
6.86961e-06
5.12408e-06
6.38901e-06
8.38713e-06
5.69187e-06
1.1699e-05
4.7789e-06
1.50673e-05
3.61558e-06
1.8399e-05
2.04472e-06
2.14006e-05
2.34033e-05
2.13375e-06
0.000102398
-7.03117e-06
4.88298e-05
-1.33305e-05
1.68215e-05
-1.63376e-05
-1.63387e-06
-1.70486e-05
-1.28431e-05
-1.62646e-05
-1.99009e-05
-1.4543e-05
-2.42479e-05
-1.22554e-05
-2.65751e-05
-9.66117e-06
-2.72617e-05
-6.96086e-06
-2.65303e-05
-4.34018e-06
-2.45506e-05
-1.97753e-06
-2.15424e-05
-1.33255e-08
-1.7811e-05
1.4841e-06
-1.37071e-05
2.53258e-06
-9.56233e-06
3.20767e-06
-5.59003e-06
3.595e-06
-1.85181e-06
3.75905e-06
1.69774e-06
3.73939e-06
5.14373e-06
3.55811e-06
8.5684e-06
3.2269e-06
1.20302e-05
2.7479e-06
1.55463e-05
2.10093e-06
1.9046e-05
1.19604e-06
2.23055e-05
2.45994e-05
4.31048e-06
0.000107385
-3.8235e-06
5.69638e-05
-1.04346e-05
2.34327e-05
-1.44449e-05
2.37643e-06
-1.62589e-05
-1.10292e-05
-1.64982e-05
-1.96616e-05
-1.56625e-05
-2.50836e-05
-1.41114e-05
-2.81263e-05
-1.21185e-05
-2.92546e-05
-9.85941e-06
-2.87894e-05
-7.52562e-06
-2.68844e-05
-5.33e-06
-2.3738e-05
-3.44778e-06
-1.96933e-05
-1.98028e-06
-1.51746e-05
-9.25533e-07
-1.06171e-05
-2.01717e-07
-6.31385e-06
2.91943e-07
-2.34547e-06
6.28564e-07
1.36112e-06
8.48035e-07
4.92426e-06
9.69631e-07
8.44681e-06
1.00302e-06
1.19968e-05
9.50919e-07
1.55984e-05
7.98249e-07
1.91986e-05
4.88872e-07
2.26149e-05
2.50883e-05
6.26443e-06
0.000111352
-9.20695e-07
6.41489e-05
-7.50004e-06
3.0012e-05
-1.21916e-05
7.06798e-06
-1.4974e-05
-8.24681e-06
-1.62307e-05
-1.84049e-05
-1.63597e-05
-2.49546e-05
-1.56627e-05
-2.88233e-05
-1.44151e-05
-3.05022e-05
-1.27207e-05
-3.04839e-05
-1.07338e-05
-2.88713e-05
-8.70015e-06
-2.57716e-05
-6.84321e-06
-2.15502e-05
-5.33059e-06
-1.66872e-05
-4.2057e-06
-1.1742e-05
-3.39403e-06
-7.12552e-06
-2.77657e-06
-2.96294e-06
-2.26323e-06
8.47783e-07
-1.80826e-06
4.46928e-06
-1.39258e-06
8.03112e-06
-1.00843e-06
1.16127e-05
-6.54953e-07
1.52449e-05
-3.48888e-07
1.88926e-05
-1.3366e-07
2.23997e-05
2.49546e-05
8.05969e-06
0.000114535
1.70755e-06
7.0501e-05
-4.7042e-06
3.64238e-05
-9.84773e-06
1.22115e-05
-1.34539e-05
-4.64062e-06
-1.56856e-05
-1.61732e-05
-1.68167e-05
-2.38235e-05
-1.70712e-05
-2.85687e-05
-1.66166e-05
-3.09568e-05
-1.56007e-05
-3.14999e-05
-1.40452e-05
-3.04268e-05
-1.21909e-05
-2.76259e-05
-1.02997e-05
-2.34415e-05
-8.63202e-06
-1.83549e-05
-7.33205e-06
-1.30419e-05
-6.37044e-06
-8.08713e-06
-5.60658e-06
-3.72681e-06
-4.91599e-06
1.57196e-07
-4.23564e-06
3.78893e-06
-3.5415e-06
7.33698e-06
-2.82639e-06
1.08976e-05
-2.09277e-06
1.45113e-05
-1.36261e-06
1.81624e-05
-6.81859e-07
2.17189e-05
2.42727e-05
9.70542e-06
0.000117124
4.07196e-06
7.61345e-05
-2.11773e-06
4.26135e-05
-7.562e-06
1.76558e-05
-1.18475e-05
-3.55132e-07
-1.4966e-05
-1.30546e-05
-1.70724e-05
-2.17172e-05
-1.83281e-05
-2.73131e-05
-1.87576e-05
-3.05272e-05
-1.85046e-05
-3.17529e-05
-1.75289e-05
-3.14025e-05
-1.59499e-05
-2.92049e-05
-1.40155e-05
-2.53759e-05
-1.20706e-05
-2.02998e-05
-1.04249e-05
-1.46876e-05
-9.18763e-06
-9.32441e-06
-8.22297e-06
-4.69147e-06
-7.34469e-06
-7.21077e-07
-6.44788e-06
2.89212e-06
-5.49243e-06
6.38153e-06
-4.46691e-06
9.87203e-06
-3.37629e-06
1.34207e-05
-2.25362e-06
1.70397e-05
-1.16594e-06
2.06312e-05
2.31068e-05
1.12858e-05
0.000119305
6.21906e-06
8.12013e-05
2.48233e-07
4.85843e-05
-5.40257e-06
2.33066e-05
-1.02443e-05
4.48657e-06
-1.41502e-05
-9.14871e-06
-1.71678e-05
-1.86995e-05
-1.9383e-05
-2.50978e-05
-2.08245e-05
-2.90858e-05
-2.14452e-05
-3.11322e-05
-2.12366e-05
-3.16111e-05
-2.01399e-05
-3.03015e-05
-1.82824e-05
-2.72334e-05
-1.60086e-05
-2.25737e-05
-1.37965e-05
-1.68996e-05
-1.20234e-05
-1.10976e-05
-1.07081e-05
-6.00674e-06
-9.59094e-06
-1.83826e-06
-8.47273e-06
1.77391e-06
-7.26804e-06
5.17685e-06
-5.94879e-06
8.55278e-06
-4.51501e-06
1.19869e-05
-3.00712e-06
1.55318e-05
-1.52677e-06
1.91509e-05
2.158e-05
1.28484e-05
0.00012123
8.21455e-06
8.58352e-05
2.43664e-06
5.43622e-05
-3.36995e-06
2.91132e-05
-8.67734e-06
9.79396e-06
-1.32816e-05
-4.54442e-06
-1.71457e-05
-1.48354e-05
-2.02961e-05
-2.19475e-05
-2.27367e-05
-2.66451e-05
-2.43707e-05
-2.94982e-05
-2.51578e-05
-3.0824e-05
-2.48159e-05
-3.06434e-05
-2.335e-05
-2.86992e-05
-2.09369e-05
-2.49868e-05
-1.80511e-05
-1.97855e-05
-1.53495e-05
-1.37991e-05
-1.32973e-05
-8.05891e-06
-1.17605e-05
-3.37506e-06
-1.03659e-05
3.79253e-07
-8.90199e-06
3.71294e-06
-7.29104e-06
6.94183e-06
-5.50326e-06
1.01991e-05
-3.54544e-06
1.3574e-05
-1.56382e-06
1.71693e-05
2.00162e-05
1.44941e-05
0.000123006
1.01706e-05
9.01586e-05
4.54446e-06
5.99884e-05
-1.38977e-06
3.50474e-05
-7.08685e-06
1.5491e-05
-1.22931e-05
6.61808e-07
-1.69087e-05
-1.02198e-05
-2.09145e-05
-1.79417e-05
-2.42941e-05
-2.32655e-05
-2.69874e-05
-2.68049e-05
-2.88912e-05
-2.89201e-05
-2.97362e-05
-2.97984e-05
-2.91558e-05
-2.92796e-05
-2.71841e-05
-2.69585e-05
-2.39989e-05
-2.29707e-05
-2.0234e-05
-1.7564e-05
-1.67942e-05
-1.14987e-05
-1.42367e-05
-5.93256e-06
-1.22932e-05
-1.56427e-06
-1.04925e-05
1.9123e-06
-8.56834e-06
5.01763e-06
-6.41328e-06
8.04407e-06
-3.95767e-06
1.11184e-05
-1.23653e-06
1.44481e-05
1.87797e-05
1.63499e-05
0.000124701
1.22417e-05
9.42669e-05
6.72457e-06
6.55055e-05
6.8527e-07
4.10867e-05
-5.33068e-06
2.1507e-05
-1.10329e-05
6.36404e-06
-1.62862e-05
-4.96652e-06
-2.10434e-05
-1.31846e-05
-2.52809e-05
-1.90281e-05
-2.89375e-05
-2.31483e-05
-3.19228e-05
-2.59348e-05
-3.41173e-05
-2.76039e-05
-3.50921e-05
-2.83049e-05
-3.43964e-05
-2.76542e-05
-3.19964e-05
-2.53708e-05
-2.80304e-05
-2.15299e-05
-2.31855e-05
-1.63436e-05
-1.86285e-05
-1.04896e-05
-1.51302e-05
-5.06251e-06
-1.24454e-05
-7.72499e-07
-9.91318e-06
2.48538e-06
-7.05936e-06
5.19024e-06
-3.4995e-06
7.55856e-06
1.78774e-06
9.16089e-06
8.46997e-06
1.20975e-05
1.85416e-05
0.000126343
1.45888e-05
9.82197e-05
9.14504e-06
7.09492e-05
3.02612e-06
4.72056e-05
-3.22906e-06
2.77622e-05
-9.31069e-06
1.24457e-05
-1.50609e-05
7.83665e-07
-2.04157e-05
-7.82977e-06
-2.53638e-05
-1.40799e-05
-2.98696e-05
-1.86425e-05
-3.38681e-05
-2.19363e-05
-3.72563e-05
-2.42157e-05
-3.98989e-05
-2.56623e-05
-4.12474e-05
-2.63057e-05
-4.08611e-05
-2.5757e-05
-3.84892e-05
-2.39018e-05
-3.42052e-05
-2.06277e-05
-2.85308e-05
-1.6164e-05
-2.26409e-05
-1.09524e-05
-1.75566e-05
-5.85683e-06
-1.34042e-05
-1.66708e-06
-9.67699e-06
1.46306e-06
-5.90348e-06
3.78506e-06
-2.50186e-06
5.75926e-06
8.60193e-06
-2.63382e-06
2.11996e-05
0.000127929
1.73853e-05
0.000102034
1.20184e-05
7.63162e-05
5.85173e-06
5.33722e-05
-5.7222e-07
3.41861e-05
-6.92407e-06
1.87975e-05
-1.30184e-05
6.87802e-06
-1.87809e-05
-2.06729e-06
-2.42279e-05
-8.63297e-06
-2.93947e-05
-1.34756e-05
-3.42109e-05
-1.71201e-05
-3.85964e-05
-1.98302e-05
-4.24858e-05
-2.17729e-05
-4.57301e-05
-2.30614e-05
-4.78604e-05
-2.36267e-05
-4.84986e-05
-2.32635e-05
-4.72706e-05
-2.18557e-05
-4.4149e-05
-1.92857e-05
-3.94476e-05
-1.56538e-05
-3.41131e-05
-1.11913e-05
-2.92659e-05
-6.51427e-06
-2.60632e-05
-1.7397e-06
-2.5604e-05
3.32592e-06
-2.89658e-05
9.12101e-06
1.65564e-05
-3.69203e-05
2.44674e-05
0.000129406
2.08117e-05
0.00010569
1.55521e-05
8.15757e-05
9.38314e-06
5.95412e-05
2.85207e-06
4.07172e-05
-3.68701e-06
2.53366e-05
-1.00185e-05
1.32095e-05
-1.60389e-05
3.95313e-06
-2.17455e-05
-2.92637e-06
-2.72204e-05
-8.00067e-06
-3.24931e-05
-1.18475e-05
-3.75079e-05
-1.48154e-05
-4.22122e-05
-1.70686e-05
-4.65882e-05
-1.86854e-05
-5.05249e-05
-1.969e-05
-5.37442e-05
-2.00443e-05
-5.5966e-05
-1.96339e-05
-5.71296e-05
-1.81221e-05
-5.72618e-05
-1.55215e-05
-5.66777e-05
-1.17754e-05
-5.60691e-05
-7.12295e-06
-5.60489e-05
-1.7599e-06
-5.70921e-05
4.36918e-06
-5.90742e-05
1.11031e-05
1.81249e-05
-6.06426e-05
2.84558e-05
0.000130689
2.50165e-05
0.000109129
1.99183e-05
8.66739e-05
1.381e-05
6.56495e-05
7.2396e-06
4.72876e-05
5.85708e-07
3.19905e-05
-5.90658e-06
1.97018e-05
-1.20949e-05
1.01415e-05
-1.79212e-05
2.89988e-06
-2.34188e-05
-2.50305e-06
-2.87009e-05
-6.56538e-06
-3.38218e-05
-9.69443e-06
-3.87677e-05
-1.21228e-05
-4.35278e-05
-1.39253e-05
-4.80932e-05
-1.51246e-05
-5.24309e-05
-1.57066e-05
-5.64608e-05
-1.5604e-05
-5.99006e-05
-1.46823e-05
-6.25782e-05
-1.28439e-05
-6.43579e-05
-9.99565e-06
-6.53247e-05
-6.15616e-06
-6.56236e-05
-1.46094e-06
-6.50918e-05
3.83732e-06
-6.34215e-05
9.43284e-06
1.47293e-05
-6.0026e-05
3.32436e-05
0.000131658
3.0122e-05
0.000112251
2.52742e-05
9.15218e-05
1.93112e-05
7.16125e-05
1.2784e-05
5.38147e-05
6.09841e-06
3.86761e-05
-4.70743e-07
2.62709e-05
-6.74642e-06
1.64171e-05
-1.26374e-05
8.79088e-06
-1.81236e-05
2.98313e-06
-2.32597e-05
-1.42928e-06
-2.81348e-05
-4.81937e-06
-3.28269e-05
-7.43061e-06
-3.73547e-05
-9.3975e-06
-4.171e-05
-1.07693e-05
-4.58707e-05
-1.15458e-05
-4.97716e-05
-1.17031e-05
-5.32801e-05
-1.11738e-05
-5.62443e-05
-9.87965e-06
-5.84707e-05
-7.76926e-06
-5.9725e-05
-4.90192e-06
-5.97584e-05
-1.42753e-06
-5.83587e-05
2.43767e-06
-5.53207e-05
6.39483e-06
9.99072e-06
-5.05821e-05
3.88663e-05
0.000132166
3.62041e-05
0.000114913
3.17366e-05
9.59893e-05
2.60348e-05
7.73143e-05
1.96526e-05
6.01969e-05
1.30252e-05
4.53036e-05
6.45993e-06
3.28362e-05
1.63372e-07
2.27137e-05
-5.74189e-06
1.46961e-05
-1.12106e-05
8.45183e-06
-1.62601e-05
3.62026e-06
-2.09507e-05
-1.28828e-07
-2.53401e-05
-3.04115e-06
-2.94559e-05
-5.28178e-06
-3.3295e-05
-6.93018e-06
-3.68345e-05
-8.00634e-06
-4.00416e-05
-8.496e-06
-4.28339e-05
-8.38155e-06
-4.50897e-05
-7.62387e-06
-4.66598e-05
-6.19911e-06
-4.73655e-05
-4.19624e-06
-4.70247e-05
-1.76833e-06
-4.55009e-05
9.13814e-07
-4.27617e-05
3.65565e-06
6.23653e-06
-3.90075e-05
4.53008e-05
0.00013205
4.32721e-05
0.000116941
3.93553e-05
9.99061e-05
3.40688e-05
8.26008e-05
2.79622e-05
6.63035e-05
2.14966e-05
5.17692e-05
1.50146e-05
3.93181e-05
8.75199e-06
2.89764e-05
2.8574e-06
2.05907e-05
-2.59771e-06
1.39069e-05
-7.60489e-06
8.62743e-06
-1.21964e-05
4.46272e-06
-1.64091e-05
1.17154e-06
-2.0266e-05
-1.42489e-06
-2.37608e-05
-3.43539e-06
-2.68623e-05
-4.90488e-06
-2.95303e-05
-5.82795e-06
-3.17215e-05
-6.19034e-06
-3.33802e-05
-5.96519e-06
-3.44292e-05
-5.1501e-06
-3.47841e-05
-3.84136e-06
-3.43681e-05
-2.18432e-06
-3.31428e-05
-3.11471e-07
-3.11417e-05
1.65456e-06
3.5946e-06
-2.84998e-05
5.24548e-05
0.000131143
5.12532e-05
0.000118143
4.80933e-05
0.000103066
4.34183e-05
8.72758e-05
3.77573e-05
7.19645e-05
3.15887e-05
5.79378e-05
2.52881e-05
4.56186e-05
1.91248e-05
3.51397e-05
1.32742e-05
2.64413e-05
7.83322e-06
1.9348e-05
2.83549e-06
1.36252e-05
-1.72799e-06
9.0262e-06
-5.88188e-06
5.32543e-06
-9.64365e-06
2.33688e-06
-1.30062e-05
-7.27889e-08
-1.59389e-05
-1.9722e-06
-1.84061e-05
-3.36082e-06
-2.03849e-05
-4.21151e-06
-2.18545e-05
-4.49562e-06
-2.27826e-05
-4.22194e-06
-2.31326e-05
-3.4914e-06
-2.2881e-05
-2.43593e-06
-2.2029e-05
-1.16345e-06
-2.06122e-05
2.37785e-07
1.68617e-06
-1.87038e-05
6.01633e-05
0.000129298
5.99818e-05
0.000118325
5.78066e-05
0.000105241
5.39792e-05
9.11032e-05
4.89814e-05
7.69623e-05
4.32925e-05
6.36268e-05
3.73144e-05
5.15967e-05
3.13506e-05
4.11035e-05
2.56092e-05
3.21827e-05
2.02154e-05
2.47418e-05
1.5227e-05
1.86136e-05
1.06541e-05
1.35991e-05
6.4835e-06
9.49603e-06
2.70353e-06
6.11685e-06
-6.73474e-07
3.30422e-06
-3.61369e-06
9.68023e-07
-6.10057e-06
-8.73934e-07
-8.13491e-06
-2.17717e-06
-9.70763e-06
-2.9229e-06
-1.07848e-05
-3.14473e-06
-1.13402e-05
-2.93608e-06
-1.13739e-05
-2.40222e-06
-1.09018e-05
-1.63552e-06
-9.95588e-06
-7.08145e-07
3.15242e-07
-8.58495e-06
6.81964e-05
0.000126411
6.9199e-05
0.000117322
6.82325e-05
0.000106208
6.55129e-05
9.38229e-05
6.14414e-05
8.10338e-05
5.64711e-05
6.8597e-05
5.10158e-05
5.7052e-05
4.54085e-05
4.67108e-05
3.98924e-05
3.76988e-05
3.46267e-05
3.00074e-05
2.96984e-05
2.3542e-05
2.51391e-05
1.81584e-05