/*--------------------------------*- C++ -*----------------------------------*\
| =========                 |                                                 |
| \\      /  F ield         | OpenFOAM: The Open Source CFD Toolbox           |
|  \\    /   O peration     | Version:  v2012                                 |
|   \\  /    A nd           | Website:  www.openfoam.com                      |
|    \\/     M anipulation  |                                                 |
\*---------------------------------------------------------------------------*/
FoamFile
{
    version     2.0;
    format      ascii;
    class       volVectorField;
    location    "504";
    object      U;
}
// * * * * * * * * * * * * * * * * * * * * * * * * * * * * * * * * * * * * * //

dimensions      [0 1 -1 0 0 0 0];


internalField   nonuniform List<vector> 
6556
(
(6.51443e-05 -0.999794 0)
(0.000170317 -1.00003 0)
(0.00011802 -1.00002 0)
(6.16122e-05 -1.00001 0)
(1.91601e-05 -1.00001 0)
(-1.90287e-05 -1.00001 0)
(-6.15021e-05 -1.00001 0)
(-0.00011795 -1.00002 0)
(-0.000170303 -1.00003 0)
(-6.51404e-05 -0.999794 0)
(0.000266095 -0.999538 0)
(0.000316832 -1.00011 0)
(0.000243409 -1.00012 0)
(0.00014569 -1.0001 0)
(4.81655e-05 -1.00009 0)
(-4.77625e-05 -1.00009 0)
(-0.000145349 -1.0001 0)
(-0.000243168 -1.00012 0)
(-0.000316792 -1.00011 0)
(-0.000266084 -0.999538 0)
(0.000328626 -0.999162 0)
(0.000361532 -1.00013 0)
(0.000293 -1.00024 0)
(0.0001882 -1.00024 0)
(6.42365e-05 -1.00024 0)
(-6.34567e-05 -1.00024 0)
(-0.000187509 -1.00024 0)
(-0.000292455 -1.00024 0)
(-0.00036106 -1.00013 0)
(-0.000328476 -0.999162 0)
(0.00033168 -0.998739 0)
(0.000355838 -1.00012 0)
(0.000301614 -1.00035 0)
(0.000201612 -1.0004 0)
(7.01014e-05 -1.00041 0)
(-6.87929e-05 -1.00041 0)
(-0.000200438 -1.0004 0)
(-0.000300661 -1.00035 0)
(-0.000355208 -1.00012 0)
(-0.000331376 -0.998739 0)
(0.000319168 -0.998333 0)
(0.000341825 -1.00009 0)
(0.000296363 -1.00045 0)
(0.000200545 -1.00055 0)
(7.06679e-05 -1.00058 0)
(-6.86066e-05 -1.00058 0)
(-0.000198683 -1.00055 0)
(-0.000294883 -1.00045 0)
(-0.000340864 -1.00009 0)
(-0.00031868 -0.998334 0)
(0.000302003 -0.997957 0)
(0.000321938 -1.00007 0)
(0.0002856 -1.00054 0)
(0.000193804 -1.00069 0)
(6.88951e-05 -1.00074 0)
(-6.57191e-05 -1.00074 0)
(-0.000190944 -1.00069 0)
(-0.000283355 -1.00054 0)
(-0.00032043 -1.00007 0)
(-0.000301251 -0.997959 0)
(0.000284581 -0.997605 0)
(0.000302253 -1.00004 0)
(0.000269707 -1.00062 0)
(0.000184079 -1.00083 0)
(6.61039e-05 -1.0009 0)
(-6.12162e-05 -1.0009 0)
(-0.000179673 -1.00083 0)
(-0.000266218 -1.00062 0)
(-0.000299912 -1.00004 0)
(-0.000283493 -0.997609 0)
(0.000268776 -0.997273 0)
(0.00028474 -1.00002 0)
(0.000254982 -1.0007 0)
(0.000174555 -1.00095 0)
(6.3598e-05 -1.00105 0)
(-5.60974e-05 -1.00105 0)
(-0.000167787 -1.00096 0)
(-0.000249604 -1.0007 0)
(-0.000281123 -1.00002 0)
(-0.000267118 -0.997279 0)
(0.000255275 -0.996957 0)
(0.000270225 -0.999993 0)
(0.000242843 -1.00077 0)
(0.000166724 -1.00107 0)
(6.21342e-05 -1.00119 0)
(-5.06629e-05 -1.00119 0)
(-0.000156368 -1.00108 0)
(-0.000234602 -1.00078 0)
(-0.000264695 -1 0)
(-0.000252696 -0.996967 0)
(0.000244203 -0.996655 0)
(0.000258909 -0.999973 0)
(0.000233649 -1.00084 0)
(0.000161242 -1.00119 0)
(6.22027e-05 -1.00132 0)
(-4.47062e-05 -1.00132 0)
(-0.000145443 -1.00119 0)
(-0.000221081 -1.00085 0)
(-0.00025052 -0.999986 0)
(-0.000240256 -0.996671 0)
(0.000235467 -0.996363 0)
(0.000250743 -0.999953 0)
(0.00022762 -1.00091 0)
(0.000158601 -1.00129 0)
(6.43402e-05 -1.00145 0)
(-3.77204e-05 -1.00145 0)
(-0.000134569 -1.0013 0)
(-0.000208528 -1.00092 0)
(-0.000238077 -0.999974 0)
(-0.000229516 -0.996388 0)
(0.000228986 -0.996079 0)
(0.000245861 -0.999934 0)
(0.000225129 -1.00097 0)
(0.000159376 -1.00139 0)
(6.92988e-05 -1.00157 0)
(-2.89058e-05 -1.00157 0)
(-0.000122987 -1.00141 0)
(-0.000196231 -1.00099 0)
(-0.0002267 -0.999965 0)
(-0.000220085 -0.996117 0)
(0.000224836 -0.995798 0)
(0.000244743 -0.999912 0)
(0.000227077 -1.00103 0)
(0.000164605 -1.00149 0)
(7.82831e-05 -1.00168 0)
(-1.70463e-05 -1.00169 0)
(-0.000109619 -1.00152 0)
(-0.00018334 -1.00106 0)
(-0.000215724 -0.99996 0)
(-0.000211591 -0.995856 0)
(0.000223295 -0.995518 0)
(0.00024811 -0.999887 0)
(0.000234841 -1.00108 0)
(0.000176175 -1.00158 0)
(9.32801e-05 -1.00179 0)
(-2.8483e-07 -1.00181 0)
(-9.30118e-05 -1.00162 0)
(-0.000168949 -1.00114 0)
(-0.000204673 -0.999961 0)
(-0.000203787 -0.995607 0)
(0.000224815 -0.995234 0)
(0.000256935 -0.999856 0)
(0.000249805 -1.00113 0)
(0.000197087 -1.00167 0)
(0.000117398 -1.0019 0)
(2.42195e-05 -1.00192 0)
(-7.11575e-05 -1.00173 0)
(-0.000152168 -1.00122 0)
(-0.000193539 -0.999967 0)
(-0.000196932 -0.995367 0)
(0.000230404 -0.994939 0)
(0.000274149 -0.999814 0)
(0.000277175 -1.00117 0)
(0.000232016 -1.00175 0)
(0.000155832 -1.00201 0)
(6.10719e-05 -1.00204 0)
(-4.11265e-05 -1.00185 0)
(-0.000132394 -1.00131 0)
(-0.00018312 -0.999983 0)
(-0.000192689 -0.995135 0)
(0.000241571 -0.994626 0)
(0.000303871 -0.999756 0)
(0.000322457 -1.00119 0)
(0.000288643 -1.00183 0)
(0.000216521 -1.00212 0)
(0.000117979 -1.00217 0)
(1.8016e-06 -1.00198 0)
(-0.000110512 -1.00141 0)
(-0.000179485 -1.00001 0)
(-0.000195173 -0.994908 0)
(0.000260478 -0.99428 0)
(0.00035205 -0.99967 0)
(0.000394918 -1.0012 0)
(0.000379455 -1.00189 0)
(0.000315156 -1.00222 0)
(0.000208835 -1.00231 0)
(6.56619e-05 -1.00214 0)
(-9.27227e-05 -1.00157 0)
(-0.000205438 -1.00008 0)
(-0.000225716 -0.994646 0)
(0.000290168 -0.993882 0)
(0.000427106 -0.999542 0)
(0.000508564 -1.00117 0)
(0.000524125 -1.00193 0)
(0.000477709 -1.00232 0)
(0.000365914 -1.00248 0)
(0.000183702 -1.00236 0)
(-5.29082e-05 -1.00178 0)
(-0.000242289 -1.00015 0)
(-0.000170345 -0.994315 0)
(0.000333872 -0.993407 0)
(0.000539242 -0.999348 0)
(0.000681125 -1.00108 0)
(0.000749375 -1.00193 0)
(0.000738468 -1.00242 0)
(0.000631586 -1.00267 0)
(0.000378332 -1.00267 0)
(-4.91632e-05 -1.00222 0)
(-0.000688085 -1.00085 0)
(-0.000897416 -0.996711 0)
(0.000398691 -0.992819 0)
(0.000700775 -0.999055 0)
(0.000936805 -1.0009 0)
(0.00109726 -1.00185 0)
(0.00117384 -1.00245 0)
(0.00116246 -1.00285 0)
(0.00101447 -1.0031 0)
(0.000864203 -1.00289 0)
(0.00167479 -1.00087 0)
(0.0092076 -0.98181 0)
(0.000488984 -0.992071 0)
(0.000920317 -0.998616 0)
(0.00129084 -1.00059 0)
(0.00158757 -1.00164 0)
(0.00180561 -1.00235 0)
(0.00195729 -1.00285 0)
(0.00204838 -1.00309 0)
(0.00194863 -1.00281 0)
(0.0023373 -0.999428 0)
(0.0166807 -0.96402 0)
(0.000604936 -0.991111 0)
(0.00120093 -0.99798 0)
(0.00174714 -1.00007 0)
(0.00222149 -1.00122 0)
(0.00261983 -1.00202 0)
(0.00297006 -1.0026 0)
(0.00333393 -1.00283 0)
(0.00358687 -1.00204 0)
(0.0035484 -0.996843 0)
(0.0206866 -0.949364 0)
(0.000747106 -0.989888 0)
(0.00154459 -0.997095 0)
(0.00230801 -0.999314 0)
(0.00300147 -1.00055 0)
(0.00362264 -1.00143 0)
(0.00420934 -1.00205 0)
(0.00489014 -1.00215 0)
(0.00580207 -1.00062 0)
(0.00591181 -0.99267 0)
(0.0243441 -0.932991 0)
(0.000916883 -0.988347 0)
(0.00195517 -0.995907 0)
(0.00297903 -0.998254 0)
(0.00393398 -0.999579 0)
(0.00482221 -1.00052 0)
(0.00568686 -1.00114 0)
(0.00668141 -1.00101 0)
(0.00821351 -0.998492 0)
(0.00886072 -0.986949 0)
(0.0270054 -0.914428 0)
(0.00111658 -0.986428 0)
(0.00243836 -0.994361 0)
(0.00376856 -0.996841 0)
(0.00502826 -0.998253 0)
(0.00622483 -0.999247 0)
(0.00740632 -0.999811 0)
(0.00872791 -0.999363 0)
(0.0108124 -0.995661 0)
(0.0122713 -0.980065 0)
(0.0293137 -0.89644 0)
(0.00134923 -0.984068 0)
(0.00300205 -0.992397 0)
(0.0046902 -0.995016 0)
(0.00630356 -0.996517 0)
(0.00785509 -0.997553 0)
(0.00939954 -0.99804 0)
(0.0110851 -0.997192 0)
(0.0136766 -0.992166 0)
(0.0161198 -0.972293 0)
(0.0311752 -0.8799 0)
(0.0016204 -0.981192 0)
(0.00366264 -0.98994 0)
(0.00576262 -0.99271 0)
(0.00778954 -0.994305 0)
(0.00975502 -0.995379 0)
(0.0117255 -0.995767 0)
(0.0138463 -0.99446 0)
(0.0169346 -0.988023 0)
(0.0204528 -0.963919 0)
(0.0337257 -0.865041 0)
(0.00193704 -0.977713 0)
(0.00443111 -0.986937 0)
(0.00701011 -0.989848 0)
(0.00952086 -0.991538 0)
(0.0119711 -0.992643 0)
(0.0144457 -0.992902 0)
(0.0171076 -0.991062 0)
(0.0207342 -0.983106 0)
(0.0253179 -0.95495 0)
(0.0378923 -0.851448 0)
(0.00230127 -0.973537 0)
(0.00531484 -0.983261 0)
(0.00845996 -0.986338 0)
(0.0115287 -0.988123 0)
(0.0145386 -0.989246 0)
(0.0175896 -0.98934 0)
(0.0208725 -0.986891 0)
(0.0250903 -0.977305 0)
(0.0304747 -0.945317 0)
(0.0426751 -0.839191 0)
(0.00271851 -0.96856 0)
(0.00633223 -0.97881 0)
(0.0101331 -0.982079 0)
(0.0138408 -0.98396 0)
(0.0174894 -0.985091 0)
(0.0211842 -0.984994 0)
(0.025139 -0.981892 0)
(0.0299609 -0.970656 0)
(0.036145 -0.93525 0)
(0.0475303 -0.828575 0)
(0.00319673 -0.962661 0)
(0.00750243 -0.973482 0)
(0.012053 -0.976958 0)
(0.0164919 -0.978944 0)
(0.0208667 -0.980083 0)
(0.0252814 -0.979787 0)
(0.0299599 -0.976033 0)
(0.0354251 -0.963217 0)
(0.0424222 -0.924781 0)
(0.0526861 -0.819595 0)
(0.00374384 -0.9557 0)
(0.00884512 -0.967148 0)
(0.0142522 -0.970853 0)
(0.019527 -0.972958 0)
(0.0247272 -0.974115 0)
(0.0299515 -0.973632 0)
(0.0354131 -0.969254 0)
(0.0415866 -0.954953 0)
(0.0491592 -0.914365 0)
(0.058337 -0.81211 0)
(0.00436851 -0.94752 0)
(0.0103832 -0.95966 0)
(0.0167698 -0.963622 0)
(0.0229998 -0.965866 0)
(0.0291392 -0.967062 0)
(0.035278 -0.966422 0)
(0.0416051 -0.961496 0)
(0.0485125 -0.94599 0)
(0.0564948 -0.904158 0)
(0.0647211 -0.80594 0)
(0.00508021 -0.937947 0)
(0.0121415 -0.950852 0)
(0.019648 -0.955104 0)
(0.0269696 -0.957512 0)
(0.03418 -0.958778 0)
(0.0413572 -0.958033 0)
(0.0486546 -0.952681 0)
(0.056353 -0.936337 0)
(0.0646871 -0.894177 0)
(0.0721485 -0.800881 0)
(0.00588859 -0.926783 0)
(0.0141453 -0.940538 0)
(0.0229294 -0.945118 0)
(0.031497 -0.947717 0)
(0.039931 -0.949088 0)
(0.0482936 -0.948309 0)
(0.0566939 -0.942695 0)
(0.0652866 -0.925933 0)
(0.0740195 -0.884337 0)
(0.0809493 -0.796685 0)
(0.0068017 -0.913811 0)
(0.0164176 -0.928509 0)
(0.0266537 -0.93346 0)
(0.0366389 -0.936278 0)
(0.0464685 -0.937792 0)
(0.0561878 -0.937058 0)
(0.0658546 -0.931371 0)
(0.0754928 -0.914638 0)
(0.0847671 -0.87444 0)
(0.0914619 -0.79303 0)
(0.00782937 -0.898793 0)
(0.0189769 -0.914536 0)
(0.0308528 -0.919904 0)
(0.0424409 -0.92297 0)
(0.053854 -0.924665 0)
(0.0651216 -0.924056 0)
(0.076248 -0.918491 0)
(0.0871304 -0.902222 0)
(0.0971788 -0.864172 0)
(0.104022 -0.789496 0)
(0.00898813 -0.88148 0)
(0.0218353 -0.898381 0)
(0.0355463 -0.904215 0)
(0.0489307 -0.907552 0)
(0.0621236 -0.909458 0)
(0.075144 -0.909048 0)
(0.0879448 -0.903789 0)
(0.100308 -0.888381 0)
(0.111435 -0.853109 0)
(0.118884 -0.78554 0)
(0.0102804 -0.861603 0)
(0.0249988 -0.87981 0)
(0.0407393 -0.886151 0)
(0.0561122 -0.889781 0)
(0.0712802 -0.89192 0)
(0.0862591 -0.891768 0)
(0.100957 -0.886969 0)
(0.115062 -0.872753 0)
(0.12762 -0.840738 0)
(0.136187 -0.780516 0)
(0.0116949 -0.838888 0)
(0.0284645 -0.858585 0)
(0.0464195 -0.865475 0)
(0.0639632 -0.869417 0)
(0.0812889 -0.871802 0)
(0.0984194 -0.871948 0)
(0.11523 -0.867726 0)
(0.131338 -0.854943 0)
(0.1457 -0.826498 0)
(0.155926 -0.773703 0)
(0.0132254 -0.813081 0)
(0.0322188 -0.834476 0)
(0.0525576 -0.841971 0)
(0.0724345 -0.846243 0)
(0.0920759 -0.848881 0)
(0.111524 -0.849345 0)
(0.130636 -0.84577 0)
(0.148989 -0.83456 0)
(0.165511 -0.809816 0)
(0.177928 -0.764342 0)
(0.0148651 -0.783937 0)
(0.0362407 -0.807275 0)
(0.0591097 -0.815447 0)
(0.0814538 -0.820078 0)
(0.103532 -0.822976 0)
(0.125421 -0.823762 0)
(0.146977 -0.820855 0)
(0.16777 -0.811254 0)
(0.186758 -0.790158 0)
(0.201837 -0.751691 0)
(0.0166077 -0.751229 0)
(0.0405066 -0.776799 0)
(0.0660234 -0.785751 0)
(0.0909322 -0.790787 0)
(0.115523 -0.793959 0)
(0.139921 -0.795064 0)
(0.163999 -0.792809 0)
(0.187353 -0.784755 0)
(0.209021 -0.767091 0)
(0.227121 -0.735109 0)
(0.0184481 -0.714745 0)
(0.0449953 -0.742897 0)
(0.0732451 -0.752774 0)
(0.100774 -0.758294 0)
(0.127898 -0.761776 0)
(0.154809 -0.763199 0)
(0.181412 -0.761553 0)
(0.207355 -0.754915 0)
(0.231797 -0.740333 0)
(0.253115 -0.714133 0)
(0.0203856 -0.674286 0)
(0.0496939 -0.705449 0)
(0.0807286 -0.71646 0)
(0.110887 -0.722587 0)
(0.140508 -0.72645 0)
(0.169863 -0.728211 0)
(0.19891 -0.727126 0)
(0.227366 -0.721728 0)
(0.25454 -0.709798 0)
(0.279087 -0.688552 0)
(0.0224262 -0.629654 0)
(0.0546033 -0.664363 0)
(0.0884432 -0.676803 0)
(0.121195 -0.683722 0)
(0.153214 -0.688087 0)
(0.184876 -0.690239 0)
(0.216202 -0.689683 0)
(0.246994 -0.685345 0)
(0.276719 -0.675608 0)
(0.304316 -0.65844 0)
(0.0245849 -0.580636 0)
(0.0597442 -0.619567 0)
(0.0963805 -0.633851 0)
(0.131638 -0.641829 0)
(0.165896 -0.646875 0)
(0.199659 -0.64952 0)
(0.233025 -0.649495 0)
(0.265887 -0.646059 0)
(0.297868 -0.638084 0)
(0.328172 -0.624148 0)
(0.0268869 -0.526988 0)
(0.0651588 -0.571001 0)
(0.104554 -0.587706 0)
(0.142176 -0.59711 0)
(0.178449 -0.603083 0)
(0.214043 -0.606372 0)
(0.249148 -0.606921 0)
(0.283748 -0.604275 0)
(0.317608 -0.597698 0)
(0.350169 -0.586249 0)
(0.0293698 -0.468411 0)
(0.0709056 -0.51862 0)
(0.112985 -0.538539 0)
(0.152763 -0.549854 0)
(0.190755 -0.557063 0)
(0.22785 -0.561187 0)
(0.264349 -0.562389 0)
(0.300319 -0.56047 0)
(0.33565 -0.555008 0)
(0.369971 -0.545443 0)
(0.0320678 -0.404551 0)
(0.0770437 -0.462407 0)
(0.121663 -0.486594 0)
(0.163294 -0.500431 0)
(0.202633 -0.509238 0)
(0.240848 -0.514409 0)
(0.278371 -0.516361 0)
(0.315341 -0.515137 0)
(0.351744 -0.510586 0)
(0.387354 -0.502444 0)
(0.0350823 -0.33496 0)
(0.0835313 -0.402459 0)
(0.130416 -0.432307 0)
(0.17351 -0.449369 0)
(0.21376 -0.460127 0)
(0.252676 -0.466525 0)
(0.290848 -0.469297 0)
(0.328477 -0.468741 0)
(0.365612 -0.464945 0)
(0.402121 -0.45789 0)
(0.0383731 -0.259701 0)
(0.0902017 -0.338976 0)
(0.138676 -0.375851 0)
(0.182705 -0.397088 0)
(0.223442 -0.410248 0)
(0.262681 -0.41802 0)
(0.301187 -0.421622 0)
(0.339213 -0.421666 0)
(0.376839 -0.418485 0)
(0.413984 -0.412265 0)
(0.0394491 -0.17704 0)
(0.0950336 -0.274971 0)
(0.145303 -0.319133 0)
(0.189933 -0.344456 0)
(0.230654 -0.360094 0)
(0.269833 -0.369259 0)
(0.308443 -0.373622 0)
(0.346729 -0.374153 0)
(0.384752 -0.371433 0)
(0.422442 -0.365839 0)
(0.0336996 -0.0891253 0)
(0.0909106 -0.200948 0)
(0.145094 -0.259864 0)
(0.192046 -0.291908 0)
(0.233313 -0.310304 0)
(0.272473 -0.320625 0)
(0.311173 -0.325482 0)
(0.349768 -0.326271 0)
(0.388292 -0.323814 0)
(0.426648 -0.318647 0)
(0.0214234 -0.0205906 0)
(0.0726728 -0.121124 0)
(0.129824 -0.19359 0)
(0.181573 -0.236165 0)
(0.226111 -0.259553 0)
(0.266981 -0.271676 0)
(0.306734 -0.276954 0)
(0.346258 -0.277728 0)
(0.385765 -0.275265 0)
(0.425195 -0.27031 0)
(0.00913849 0.0206608 0)
(0.046875 -0.0495172 0)
(0.0987181 -0.122576 0)
(0.152255 -0.17353 0)
(0.201381 -0.203746 0)
(0.246646 -0.219639 0)
(0.289867 -0.226432 0)
(0.332142 -0.227591 0)
(0.373972 -0.225189 0)
(0.415494 -0.220406 0)
(-0.00445486 0.0407843 0)
(0.0220141 0.000229923 0)
(0.0596645 -0.0586094 0)
(0.105722 -0.107965 0)
(0.154866 -0.141059 0)
(0.204263 -0.160499 0)
(0.252813 -0.169967 0)
(0.300256 -0.172773 0)
(0.34668 -0.171305 0)
(0.392247 -0.167191 0)
(-0.0204124 0.0421459 0)
(-0.00743804 0.0194833 0)
(0.0162491 -0.0151941 0)
(0.0489972 -0.0511666 0)
(0.0911101 -0.0787748 0)
(0.140094 -0.0962557 0)
(0.192877 -0.105439 0)
(0.246356 -0.109128 0)
(0.299027 -0.108737 0)
(0.350638 -0.10554 0)
(-0.0254416 0.0118563 0)
(-0.0428789 0.000668436 0)
(-0.0473811 -0.0153609 0)
(-0.0222314 -0.0296945 0)
(0.0111403 -0.0411293 0)
(0.0559975 -0.0467993 0)
(0.107858 -0.0503705 0)
(0.168595 -0.0531137 0)
(0.230271 -0.0537235 0)
(0.289644 -0.0521506 0)
(-0.0411701 -0.155426 0)
(-0.121687 0.012458 0)
(-0.106935 0.0182654 0)
(-0.0913951 0.0206626 0)
(-0.0733163 0.0234747 0)
(-0.0513873 0.0251191 0)
(-0.0293617 0.0259646 0)
(-0.00751512 0.026471 0)
(0.0139889 0.0254693 0)
(0.0346634 0.0236847 0)
(0.0549823 0.0220575 0)
(0.0741193 0.0198989 0)
(0.0897899 0.0168513 0)
(0.102456 0.0134202 0)
(0.11183 0.00981868 0)
(0.11767 0.0066648 0)
(0.119896 0.00330609 0)
(0.11825 -0.000531341 0)
(0.112547 -0.004659 0)
(0.102454 -0.00889544 0)
(0.0878065 -0.0131316 0)
(0.0687022 -0.0169441 0)
(0.045538 -0.0185921 0)
(0.0203519 -0.0155122 0)
(0.00417156 -0.00798054 0)
(-0.0244916 -0.228925 0)
(-0.0742036 -0.0115674 0)
(-0.0807156 0.0194102 0)
(-0.076464 0.0292175 0)
(-0.0658829 0.0359755 0)
(-0.0512937 0.0406725 0)
(-0.0341111 0.0434326 0)
(-0.0153004 0.0442985 0)
(0.00412533 0.0429558 0)
(0.0229402 0.0403914 0)
(0.0402352 0.0371286 0)
(0.0555813 0.0326833 0)
(0.0687188 0.0269782 0)
(0.0794411 0.0206427 0)
(0.0875545 0.0140557 0)
(0.0929213 0.00733271 0)
(0.0954963 0.000414683 0)
(0.0955194 -0.00671517 0)
(0.0929939 -0.0141563 0)
(0.0878124 -0.021995 0)
(0.0797952 -0.0300973 0)
(0.0686026 -0.0378125 0)
(0.0541837 -0.0430148 0)
(0.0338759 -0.0416162 0)
(0.0131434 -0.0302679 0)
(-0.00407857 -0.303857 0)
(-0.0540303 -0.0436697 0)
(-0.0677531 0.014393 0)
(-0.0689076 0.0358155 0)
(-0.0627175 0.049033 0)
(-0.0517476 0.0579001 0)
(-0.0377182 0.0632336 0)
(-0.0220084 0.0654062 0)
(-0.00523994 0.0647667 0)
(0.0118841 0.0617857 0)
(0.0276735 0.0567596 0)
(0.0413127 0.0499378 0)
(0.0528227 0.0416375 0)
(0.0621459 0.0324586 0)
(0.0691058 0.0228354 0)
(0.0736758 0.0130172 0)
(0.075902 0.0030548 0)
(0.0758946 -0.00716851 0)
(0.0737848 -0.0178109 0)
(0.0696784 -0.0289898 0)
(0.0636349 -0.0406696 0)
(0.0555348 -0.0523534 0)
(0.0451932 -0.0622707 0)
(0.0313049 -0.0658211 0)
(0.0154427 -0.0563803 0)
(0.00689039 -0.376928 0)
(-0.0463957 -0.0823766 0)
(-0.0645949 0.00368901 0)
(-0.0686126 0.0386366 0)
(-0.0647761 0.0594504 0)
(-0.0557208 0.0733108 0)
(-0.0434784 0.0818712 0)
(-0.0294135 0.0859432 0)
(-0.0144265 0.0862562 0)
(0.000840923 0.0827185 0)
(0.0152288 0.0755673 0)
(0.027802 0.065881 0)
(0.0383576 0.0546548 0)
(0.0468195 0.0424671 0)
(0.0530189 0.0298049 0)
(0.0570153 0.0170058 0)
(0.0589465 0.00420744 0)
(0.0589708 -0.00862344 0)
(0.0572461 -0.0216504 0)
(0.0539147 -0.0350678 0)
(0.0490881 -0.048987 0)
(0.0427765 -0.063207 0)
(0.0347726 -0.0765529 0)
(0.0246796 -0.0851974 0)
(0.0144066 -0.085966 0)
(0.0160567 -0.437728 0)
(-0.0380134 -0.130673 0)
(-0.0621813 -0.0141801 0)
(-0.0696553 0.037402 0)
(-0.0686366 0.0673453 0)
(-0.0612387 0.0866576 0)
(-0.0505573 0.0985672 0)
(-0.0377945 0.104487 0)
(-0.0241681 0.105243 0)
(-0.0105466 0.101102 0)
(0.00241744 0.0925478 0)
(0.0141504 0.0806839 0)
(0.0241289 0.0667848 0)
(0.0320067 0.0517116 0)
(0.0377024 0.0361867 0)
(0.0413503 0.0206996 0)
(0.0431783 0.00545156 0)
(0.0434094 -0.00959791 0)
(0.0422234 -0.0246347 0)
(0.0397672 -0.039883 0)
(0.0361518 -0.0555085 0)
(0.0314224 -0.0714481 0)
(0.0254117 -0.0869292 0)
(0.0176262 -0.0992895 0)
(0.0114409 -0.10553 0)
(0.0247738 -0.48621 0)
(-0.0269552 -0.183297 0)
(-0.0547463 -0.0392852 0)
(-0.0679178 0.0309336 0)
(-0.0704786 0.0717699 0)
(-0.0657791 0.0973012 0)
(-0.057276 0.113026 0)
(-0.046426 0.120971 0)
(-0.0343768 0.122325 0)
(-0.0220425 0.117812 0)
(-0.0101047 0.108187 0)
(0.000823908 0.0945275 0)
(0.0101678 0.0781355 0)
(0.0175345 0.0602911 0)
(0.0228462 0.0420778 0)
(0.0262889 0.0241882 0)
(0.0281653 0.00687311 0)
(0.0287512 -0.00995222 0)
(0.0282396 -0.0265489 0)
(0.0267668 -0.0432097 0)
(0.0244257 -0.0601567 0)
(0.0212615 -0.0773975 0)
(0.0171964 -0.0943696 0)
(0.0114705 -0.10927 0)
(0.00813978 -0.118719 0)
(0.0306452 -0.523825 0)
(-0.0134772 -0.23427 0)
(-0.0431794 -0.071538 0)
(-0.0614804 0.0180135 0)
(-0.0682234 0.0710748 0)
(-0.0676898 0.104078 0)
(-0.0622294 0.124251 0)
(-0.0540116 0.134795 0)
(-0.0440591 0.137405 0)
(-0.0333184 0.13309 0)
(-0.0225105 0.122711 0)
(-0.0123944 0.107429 0)
(-0.00362667 0.088751 0)
(0.00335168 0.0683192 0)
(0.00842613 0.0476374 0)
(0.0118099 0.0276499 0)
(0.0138712 0.00864857 0)
(0.0149329 -0.00954087 0)
(0.0151948 -0.0272915 0)
(0.0147796 -0.04498 0)
(0.013764 -0.0628888 0)
(0.0121906 -0.0810851 0)
(0.0100605 -0.0991448 0)
(0.00640841 -0.115755 0)
(0.0056281 -0.12723 0)
(0.0352539 -0.553532 0)
(-0.000234185 -0.279701 0)
(-0.030701 -0.10588 0)
(-0.0517953 -0.000859552 0)
(-0.0628955 0.0642392 0)
(-0.0666067 0.105563 0)
(-0.0651099 0.131123 0)
(-0.0600874 0.145071 0)
(-0.0527963 0.149658 0)
(-0.0441998 0.146265 0)
(-0.0348263 0.135796 0)
(-0.0255752 0.119396 0)
(-0.0172689 0.0987902 0)
(-0.0104873 0.0760221 0)
(-0.00545653 0.053078 0)
(-0.00197165 0.0312542 0)
(0.000390769 0.0109088 0)
(0.00200798 -0.0082626 0)
(0.00309367 -0.0267924 0)
(0.00376162 -0.0451562 0)
(0.00407695 -0.0636874 0)
(0.00407988 -0.082497 0)
(0.0038139 -0.101264 0)
(0.00220803 -0.118953 0)
(0.0035369 -0.131638 0)
(0.0396348 -0.576865 0)
(0.0109817 -0.319929 0)
(-0.0185013 -0.140846 0)
(-0.0410956 -0.0242049 0)
(-0.0557145 0.0518631 0)
(-0.0635297 0.101457 0)
(-0.066003 0.132993 0)
(-0.0647633 0.15109 0)
(-0.0605587 0.158397 0)
(-0.0547182 0.15682 0)
(-0.0471977 0.147238 0)
(-0.0388924 0.130513 0)
(-0.0309072 0.108535 0)
(-0.0240154 0.0837275 0)
(-0.0187225 0.0586892 0)
(-0.0149352 0.0352096 0)
(-0.0121722 0.0137796 0)
(-0.00996668 -0.00605899 0)
(-0.00805875 -0.0250381 0)
(-0.00633164 -0.0437554 0)
(-0.00472813 -0.0625959 0)
(-0.00321127 -0.0817038 0)
(-0.00174786 -0.100845 0)
(-0.00136067 -0.119143 0)
(0.00155552 -0.132501 0)
(0.0440677 -0.595411 0)
(0.0206382 -0.355443 0)
(-0.007026 -0.175179 0)
(-0.0304303 -0.0503504 0)
(-0.0478062 0.0348377 0)
(-0.0593129 0.0921889 0)
(-0.0658626 0.129639 0)
(-0.0685484 0.152307 0)
(-0.0680187 0.162716 0)
(-0.0649431 0.164169 0)
(-0.0598986 0.156723 0)
(-0.0527217 0.140807 0)
(-0.04499 0.118331 0)
(-0.0375981 0.0919309 0)
(-0.0315506 0.064894 0)
(-0.0271109 0.0397609 0)
(-0.0237951 0.017363 0)
(-0.0209701 -0.00290618 0)
(-0.0182657 -0.022049 0)
(-0.0155346 -0.0408283 0)
(-0.0127123 -0.0596937 0)
(-0.00976652 -0.0788275 0)
(-0.00672546 -0.0980876 0)
(-0.0044315 -0.116725 0)
(-0.000221141 -0.130309 0)
(0.0485529 -0.61031 0)
(0.0291182 -0.386783 0)
(0.00346445 -0.208376 0)
(-0.0203084 -0.0783856 0)
(-0.0398024 0.0138606 0)
(-0.0545337 0.077951 0)
(-0.064897 0.12104 0)
(-0.0715386 0.148301 0)
(-0.0750361 0.16303 0)
(-0.0750975 0.167363 0)
(-0.0729714 0.163566 0)
(-0.067512 0.150038 0)
(-0.0602558 0.128444 0)
(-0.0520805 0.101288 0)
(-0.0445887 0.0723808 0)
(-0.0388229 0.0453327 0)
(-0.0346061 0.0218047 0)
(-0.0310676 0.00118405 0)
(-0.0275803 -0.0179001 0)
(-0.0239043 -0.0364742 0)
(-0.0199376 -0.0550939 0)
(-0.0156503 -0.0740025 0)
(-0.0111383 -0.0931771 0)
(-0.0070734 -0.112024 0)
(-0.00186826 -0.125401 0)
(0.0534498 -0.622619 0)
(0.0367964 -0.41474 0)
(0.0129722 -0.240335 0)
(-0.0109074 -0.107657 0)
(-0.032031 -0.010319 0)
(-0.0495381 0.0593063 0)
(-0.0633896 0.107439 0)
(-0.0738422 0.139129 0)
(-0.081156 0.158223 0)
(-0.0854156 0.166732 0)
(-0.0862772 0.166948 0)
(-0.0837633 0.157403 0)
(-0.0776078 0.138717 0)
(-0.0688673 0.11243 0)
(-0.0593306 0.0822456 0)
(-0.0510852 0.0528242 0)
(-0.0450394 0.0275548 0)
(-0.0404622 0.00633192 0)
(-0.0361291 -0.0126248 0)
(-0.0315375 -0.0307918 0)
(-0.02649 -0.0489222 0)
(-0.0209218 -0.0673697 0)
(-0.0149544 -0.0862862 0)
(-0.0092314 -0.105299 0)
(-0.00307288 -0.118194 0)
(0.0586962 -0.633251 0)
(0.044033 -0.440076 0)
(0.0217129 -0.27118 0)
(-0.00213723 -0.137827 0)
(-0.0245888 -0.0371087 0)
(-0.0445083 0.0367967 0)
(-0.061501 0.0892167 0)
(-0.0755485 0.124898 0)
(-0.0867793 0.147843 0)
(-0.0951269 0.160932 0)
(-0.0998789 0.165683 0)
(-0.10136 0.161414 0)
(-0.0975974 0.148023 0)
(-0.0894435 0.125292 0)
(-0.0782251 0.0957553 0)
(-0.0662693 0.0640594 0)
(-0.0564984 0.0357075 0)
(-0.0496965 0.0130013 0)
(-0.0441887 -0.00611697 0)
(-0.0385937 -0.0238085 0)
(-0.0324828 -0.0412329 0)
(-0.0256154 -0.058924 0)
(-0.0180074 -0.0772199 0)
(-0.0103567 -0.0962309 0)
(-0.00322719 -0.109806 0)
(0.0645844 -0.642855 0)
(0.0513001 -0.463482 0)
(0.0301236 -0.301118 0)
(0.00632482 -0.168729 0)
(-0.0172336 -0.0661339 0)
(-0.0391952 0.0108683 0)
(-0.0589294 0.0667784 0)
(-0.0762259 0.105961 0)
(-0.0910526 0.13246 0)
(-0.103309 0.149413 0)
(-0.112606 0.158636 0)
(-0.118478 0.160995 0)
(-0.11956 0.153867 0)
(-0.11419 0.137832 0)
(-0.103495 0.112707 0)
(-0.0887063 0.0814451 0)
(-0.0731706 0.0492502 0)
(-0.0610197 0.0225504 0)
(-0.052629 0.00214224 0)
(-0.045527 -0.0152754 0)
(-0.0382607 -0.0319249 0)
(-0.0300549 -0.0486713 0)
(-0.020307 -0.0661176 0)
(-0.00998387 -0.08482 0)
(-0.00509529 -0.101493 0)
(0.0715385 -0.651911 0)
(0.0591648 -0.485521 0)
(0.0388654 -0.330348 0)
(0.015055 -0.200252 0)
(-0.00939528 -0.097017 0)
(-0.0330171 -0.0179517 0)
(-0.0550429 0.0406574 0)
(-0.0751409 0.0827431 0)
(-0.0931753 0.112266 0)
(-0.109032 0.132556 0)
(-0.122473 0.145643 0)
(-0.132959 0.152572 0)
(-0.139908 0.154092 0)
(-0.141047 0.145592 0)
(-0.134626 0.129081 0)
(-0.121604 0.103732 0)
(-0.102932 0.0724045 0)
(-0.0825106 0.0402867 0)
(-0.0661311 0.0140586 0)
(-0.0546171 -0.00537016 0)
(-0.0448077 -0.0213614 0)
(-0.0343694 -0.0365458 0)
(-0.0206373 -0.0517667 0)
(-0.00132255 -0.0671819 0)
(0.0158837 -0.0852134 0)
(0.0799827 -0.660677 0)
(0.0682396 -0.506708 0)
(0.0485578 -0.359131 0)
(0.0247444 -0.232201 0)
(-0.000357408 -0.129359 0)
(-0.0252476 -0.0490644 0)
(-0.0490544 0.0115519 0)
(-0.0713448 0.0559539 0)
(-0.0919697 0.0879268 0)
(-0.110874 0.110957 0)
(-0.128009 0.127109 0)
(-0.142969 0.137731 0)
(-0.155156 0.143721 0)
(-0.16393 0.1452 0)
(-0.166393 0.137687 0)
(-0.160767 0.122883 0)
(-0.147398 0.100084 0)
(-0.126682 0.0715385 0)
(-0.101809 0.0413933 0)
(-0.0786848 0.0148678 0)
(-0.0612195 -0.00482204 0)
(-0.0460575 -0.0182612 0)
(-0.0314533 -0.0264593 0)
(-0.0163864 -0.0271846 0)
(-0.00129016 -0.015685 0)
(0.0903415 -0.669182 0)
(0.079147 -0.527116 0)
(0.0599814 -0.387608 0)
(0.0362983 -0.26459 0)
(0.0107232 -0.162791 0)
(-0.0150802 -0.081882 0)
(-0.0401361 -0.0197623 0)
(-0.0639493 0.0264861 0)
(-0.0862763 0.0602711 0)
(-0.107465 0.0852225 0)
(-0.12763 0.103712 0)
(-0.146054 0.117003 0)
(-0.162715 0.126147 0)
(-0.177315 0.131591 0)
(-0.188412 0.132997 0)
(-0.194564 0.128098 0)
(-0.193532 0.116581 0)
(-0.185015 0.0990484 0)
(-0.168539 0.0763642 0)
(-0.147288 0.0526842 0)
(-0.125818 0.0318377 0)
(-0.108437 0.0137964 0)
(-0.100039 -0.00450735 0)
(-0.104378 -0.0279796 0)
(-0.127905 -0.0658691 0)
(0.103075 -0.677322 0)
(0.0925279 -0.546801 0)
(0.0739968 -0.415605 0)
(0.0505477 -0.297114 0)
(0.0247219 -0.196952 0)
(-0.00169444 -0.115885 0)
(-0.0276211 -0.0525565 0)
(-0.0524514 -0.00467422 0)
(-0.0758223 0.0306391 0)
(-0.0980874 0.0566714 0)
(-0.11963 0.07653 0)
(-0.140314 0.091733 0)
(-0.159776 0.102961 0)
(-0.17795 0.11083 0)
(-0.194738 0.11531 0)
(-0.209401 0.116077 0)
(-0.220786 0.112345 0)
(-0.226903 0.101727 0)
(-0.229992 0.0848177 0)
(-0.228498 0.0608177 0)
(-0.225342 0.0325768 0)
(-0.2236 0.001707 0)
(-0.225267 -0.0314221 0)
(-0.231734 -0.0680352 0)
(-0.240451 -0.109524 0)
(0.118553 -0.684724 0)
(0.108908 -0.56558 0)
(0.0912337 -0.442942 0)
(0.0682345 -0.329494 0)
(0.0424305 -0.231506 0)
(0.0156834 -0.15068 0)
(-0.0108156 -0.0863786 0)
(-0.0363162 -0.0368668 0)
(-0.0603928 0.000221085 0)
(-0.0829404 0.027614 0)
(-0.104394 0.0482562 0)
(-0.125215 0.0642671 0)
(-0.145375 0.0767152 0)
(-0.164812 0.085842 0)
(-0.183435 0.0917962 0)
(-0.20131 0.0944957 0)
(-0.218215 0.0933294 0)
(-0.233403 0.0873702 0)
(-0.245839 0.0759321 0)
(-0.254904 0.058469 0)
(-0.260116 0.0349738 0)
(-0.262449 0.00633627 0)
(-0.263167 -0.0261623 0)
(-0.258006 -0.0601758 0)
(-0.248383 -0.091995 0)
(0.137014 -0.690834 0)
(0.128699 -0.58301 0)
(0.112242 -0.469257 0)
(0.0900501 -0.361382 0)
(0.0646071 -0.26608 0)
(0.0378525 -0.185881 0)
(0.0111111 -0.120831 0)
(-0.0147402 -0.0697245 0)
(-0.039149 -0.0306275 0)
(-0.061891 -0.00119412 0)
(-0.0830917 0.0209289 0)
(-0.103006 0.0378933 0)
(-0.122082 0.0510269 0)
(-0.140551 0.0608726 0)
(-0.158339 0.0675721 0)
(-0.17539 0.071043 0)
(-0.1916 0.0711553 0)
(-0.206554 0.0674053 0)
(-0.219681 0.0593217 0)
(-0.230285 0.0465747 0)
(-0.23746 0.0293021 0)
(-0.240279 0.00812415 0)
(-0.237838 -0.0158232 0)
(-0.229062 -0.0406334 0)
(-0.213263 -0.0630325 0)
(0.158526 -0.694941 0)
(0.152121 -0.598447 0)
(0.137418 -0.493974 0)
(0.116534 -0.392256 0)
(0.0918882 -0.300199 0)
(0.065508 -0.221034 0)
(0.0388641 -0.155494 0)
(0.0129598 -0.102873 0)
(-0.011549 -0.0616993 0)
(-0.0343225 -0.0300123 0)
(-0.0553299 -0.00573667 0)
(-0.0747502 0.0129448 0)
(-0.0928602 0.0273076 0)
(-0.109867 0.03821 0)
(-0.125816 0.0460103 0)
(-0.140597 0.0508002 0)
(-0.154115 0.0524648 0)
(-0.166182 0.0507577 0)
(-0.176431 0.0454227 0)
(-0.184268 0.0363119 0)
(-0.188996 0.0238822 0)
(-0.18985 0.00898559 0)
(-0.186216 -0.00743407 0)
(-0.17766 -0.0242539 0)
(-0.164361 -0.0399856 0)
(0.182948 -0.696211 0)
(0.179136 -0.611055 0)
(0.166883 -0.516302 0)
(0.147965 -0.421412 0)
(0.124693 -0.333265 0)
(0.0991596 -0.255644 0)
(0.072977 -0.189939 0)
(0.0472869 -0.136002 0)
(0.022848 -0.092783 0)
(9.25918e-05 -0.05875 0)
(-0.0208317 -0.0321694 0)
(-0.0399939 -0.0113982 0)
(-0.0575651 0.00486356 0)
(-0.0736963 0.0175173 0)
(-0.0884273 0.0270597 0)
(-0.101682 0.0336528 0)
(-0.113262 0.037279 0)
(-0.122973 0.0379455 0)
(-0.130719 0.0354407 0)
(-0.136258 0.0296928 0)
(-0.139153 0.0212478 0)
(-0.139075 0.0108887 0)
(-0.135782 -0.000623284 0)
(-0.129256 -0.0125591 0)
(-0.119805 -0.0241837 0)
(0.209892 -0.693753 0)
(0.209398 -0.619842 0)
(0.200409 -0.535239 0)
(0.18428 -0.447932 0)
(0.163126 -0.3645 0)
(0.139057 -0.289108 0)
(0.113802 -0.223735 0)
(0.0886485 -0.168807 0)
(0.064476 -0.123756 0)
(0.0418155 -0.087441 0)
(0.0209121 -0.0584625 0)
(0.00180153 -0.0354064 0)
(-0.015609 -0.0170274 0)
(-0.0314338 -0.00235337 0)
(-0.0457008 0.00925648 0)
(-0.0583241 0.0180958 0)
(-0.0691684 0.0241437 0)
(-0.0780706 0.0273038 0)
(-0.0849677 0.0275143 0)
(-0.0898135 0.0247792 0)
(-0.0924128 0.0195446 0)
(-0.0926176 0.0125688 0)
(-0.0903858 0.00448466 0)
(-0.0857872 -0.00418958 0)
(-0.0790574 -0.0129689 0)
(0.238723 -0.686711 0)
(0.242227 -0.623758 0)
(0.237359 -0.549618 0)
(0.224972 -0.470671 0)
(0.206865 -0.392895 0)
(0.18507 -0.320608 0)
(0.161395 -0.256284 0)
(0.137258 -0.200895 0)
(0.113677 -0.15438 0)
(0.0913065 -0.116029 0)
(0.0704978 -0.0847762 0)
(0.0513685 -0.0594371 0)
(0.0338888 -0.0388764 0)
(0.0179832 -0.0221043 0)
(0.00365497 -0.00835839 0)
(-0.00897485 0.00275835 0)
(-0.019852 0.011263 0)
(-0.0289198 0.0170139 0)
(-0.0361562 0.0198118 0)
(-0.0414777 0.0197156 0)