/*--------------------------------*- C++ -*----------------------------------*\
| =========                 |                                                 |
| \\      /  F ield         | OpenFOAM: The Open Source CFD Toolbox           |
|  \\    /   O peration     | Version:  v2012                                 |
|   \\  /    A nd           | Website:  www.openfoam.com                      |
|    \\/     M anipulation  |                                                 |
\*---------------------------------------------------------------------------*/
FoamFile
{
    version     2.0;
    format      ascii;
    class       volScalarField;
    location    "593";
    object      age;
}
// * * * * * * * * * * * * * * * * * * * * * * * * * * * * * * * * * * * * * //

dimensions      [0 0 1 0 0 0 0];


internalField   nonuniform List<scalar> 
6598
(
0.012502
0.0124995
0.0124997
0.0124998
0.0124998
0.0124998
0.0124998
0.0124997
0.0124995
0.012502
0.037511
0.0374968
0.037497
0.0374976
0.0374978
0.0374978
0.0374976
0.037497
0.0374968
0.037511
0.0625322
0.0624928
0.0624911
0.0624918
0.0624923
0.0624923
0.0624917
0.0624911
0.0624928
0.0625322
0.0875662
0.0874887
0.0874816
0.0874816
0.0874821
0.0874821
0.0874815
0.0874816
0.0874887
0.0875662
0.112613
0.112485
0.112469
0.112467
0.112467
0.112467
0.112467
0.112469
0.112485
0.112613
0.137672
0.137482
0.137453
0.137447
0.137446
0.137446
0.137447
0.137453
0.137482
0.137671
0.162742
0.16248
0.162435
0.162424
0.162421
0.162421
0.162424
0.162435
0.16248
0.162742
0.187823
0.187479
0.187414
0.187396
0.187391
0.18739
0.187396
0.187414
0.187478
0.187823
0.212915
0.212478
0.212391
0.212364
0.212356
0.212355
0.212364
0.21239
0.212477
0.212914
0.238017
0.237478
0.237365
0.237329
0.237316
0.237316
0.237328
0.237364
0.237477
0.238015
0.263129
0.26248
0.262338
0.26229
0.262273
0.262273
0.262288
0.262336
0.262477
0.263126
0.288249
0.287481
0.287308
0.287248
0.287226
0.287225
0.287246
0.287305
0.287477
0.288245
0.31338
0.312484
0.312277
0.312202
0.312175
0.312174
0.312199
0.312272
0.312478
0.313372
0.338519
0.337488
0.337244
0.337154
0.33712
0.337119
0.337149
0.337236
0.337478
0.338507
0.363668
0.362493
0.362209
0.362103
0.362062
0.36206
0.362096
0.362198
0.362478
0.363654
0.388826
0.3875
0.387174
0.38705
0.387001
0.386997
0.387039
0.387157
0.387477
0.388785
0.413995
0.412509
0.412138
0.411995
0.411937
0.411931
0.411978
0.412112
0.412475
0.414015
0.439176
0.437521
0.437103
0.436939
0.43687
0.436861
0.436912
0.437063
0.43747
0.438859
0.46437
0.462539
0.462069
0.461882
0.461801
0.461787
0.461842
0.462008
0.462461
0.465363
0.489579
0.487563
0.487039
0.486826
0.486731
0.486709
0.486763
0.486942
0.487438
0.484854
0.514446
0.512239
0.511657
0.511416
0.511304
0.511272
0.511321
0.511508
0.512043
0.533418
0.538974
0.536572
0.535929
0.535658
0.535526
0.53548
0.535522
0.535714
0.536292
0.565946
0.56353
0.560923
0.560214
0.559911
0.559757
0.559695
0.559729
0.559932
0.560542
0.597796
0.58812
0.585299
0.58452
0.584182
0.584003
0.583923
0.58395
0.584176
0.584809
0.629009
0.612751
0.609708
0.608854
0.608478
0.608272
0.608174
0.608196
0.60846
0.609113
0.659604
0.637434
0.634158
0.633224
0.632808
0.632574
0.632456
0.632478
0.632801
0.633468
0.689422
0.662178
0.658661
0.657639
0.657181
0.656918
0.656782
0.656808
0.657215
0.657892
0.718378
0.68744
0.683667
0.682549
0.682046
0.681751
0.681597
0.681637
0.682156
0.68284
0.747337
0.713239
0.709195
0.707971
0.707418
0.70709
0.70692
0.706982
0.707648
0.708329
0.775204
0.739152
0.734823
0.733484
0.73288
0.732516
0.732332
0.732427
0.733274
0.733944
0.801949
0.7652
0.760575
0.759109
0.758448
0.758049
0.757853
0.757991
0.759053
0.759708
0.827648
0.791408
0.786472
0.784867
0.784146
0.783709
0.783502
0.783692
0.785002
0.785645
0.852383
0.817804
0.812545
0.810784
0.809997
0.809519
0.809303
0.809549
0.811136
0.811773
0.876206
0.844425
0.838827
0.836891
0.836032
0.835509
0.835281
0.835587
0.837469
0.838108
0.899195
0.871311
0.865359
0.863225
0.862284
0.861712
0.861468
0.861829
0.864016
0.864665
0.921446
0.898512
0.892187
0.889829
0.888795
0.888167
0.887902
0.888307
0.890795
0.891461
0.943091
0.926088
0.919371
0.916757
0.915616
0.914925
0.914629
0.915059
0.917823
0.918524
0.964345
0.954112
0.94698
0.944074
0.942808
0.942043
0.941704
0.942134
0.945131
0.945896
0.985497
0.982668
0.975098
0.971857
0.970444
0.969594
0.969198
0.969593
0.972756
0.973633
1.00689
1.01186
1.00383
1.0002
0.998613
0.997664
0.997195
0.997513
1.00076
1.0018
1.0289
1.04182
1.03329
1.02922
1.02742
1.02636
1.0258
1.026
1.02921
1.03049
1.05158
1.07271
1.06364
1.05906
1.057
1.0558
1.05513
1.05517
1.05822
1.05986
1.07426
1.1047
1.09505
1.08988
1.08751
1.08615
1.08535
1.08519
1.08793
1.09009
1.09719
1.13805
1.12774
1.1219
1.11914
1.11758
1.11663
1.11625
1.11852
1.12143
1.12055
1.17305
1.162
1.15537
1.15212
1.15031
1.1492
1.14858
1.15022
1.1542
1.14386
1.21009
1.19817
1.19061
1.18676
1.18462
1.18331
1.18246
1.1833
1.18865
1.1711
1.24969
1.2367
1.22804
1.22342
1.22085
1.21927
1.21823
1.21815
1.22417
1.20978
1.29253
1.2782
1.26818
1.26259
1.25942
1.25748
1.25625
1.25534
1.26069
1.25358
1.33962
1.3235
1.31176
1.30487
1.30088
1.29844
1.29696
1.29545
1.29901
1.29828
1.39244
1.37381
1.35976
1.35115
1.34599
1.3428
1.34091
1.33907
1.34047
1.34277
1.45338
1.43095
1.41359
1.40255
1.39573
1.39143
1.38885
1.38679
1.38644
1.38868
1.52678
1.49815
1.47565
1.46096
1.45162
1.4456
1.44187
1.43937
1.43794
1.43876
1.62113
1.58012
1.54877
1.52852
1.51554
1.50705
1.50156
1.49808
1.49588
1.49531
1.7615
1.69425
1.64343
1.61147
1.59142
1.57852
1.57017
1.56491
1.56169
1.56008
2.00475
1.8468
1.7629
1.71354
1.68414
1.66491
1.65187
1.64325
1.63793
1.63502
4.81387
2.61688
2.01788
1.86517
1.80146
1.77124
1.75301
1.74029
1.73139
1.72567
13.3024
7.96258
3.90852
2.28461
1.97393
1.90029
1.87024
1.85561
1.84665
1.8406
12.1636
12.0529
8.83512
5.03684
3.0287
2.23782
2.05617
2.00319
1.97872
1.96707
11.6682
11.4535
11.5332
8.89994
6.15232
4.19065
3.13358
2.60212
2.37959
2.28442
11.212
10.3075
9.89674
9.14157
7.80157
6.59543
5.7048
5.02761
4.52778
4.17023
131.49
155.123
155.632
158.339
160.994
164.474
168.382
172.441
176.787
181.204
184.91
187.695
189.616
190.798
191.313
191.456
191.592
191.728
191.867
192.012
192.169
192.348
192.573
192.957
195.12
127.825
149.198
145.659
148.077
152.711
160.114
170.505
183.209
197.407
212.03
225.864
237.908
247.425
254.073
257.82
258.402
255.546
249.326
240.152
228.81
216.67
205.68
197.841
194.127
194.661
121.131
146.634
144.593
144.612
147.022
154.624
168.89
189.261
214.403
242.446
270.728
296.417
317.429
332.617
341.489
343.854
339.849
329.502
312.904
290.538
263.932
236.467
213.316
198.781
194.72
114.122
145.709
144.519
144.371
144.522
149.16
163.725
188.785
222.984
264.094
307.785
348.65
382.968
408.597
424.334
429.516
424.088
408.601
383.972
351.298
312.177
270.081
231.872
205.426
195.279
106.937
145.584
144.862
144.542
144.186
145.524
156.49
182.008
220.616
270.351
325.931
379.666
426.23
462.388
485.85
495.772
490.308
470.531
438.652
397.177
348.464
295.934
246.811
211.066
195.865
98.7467
145.792
145.892
145.458
144.172
144.044
149.653
170.829
208.32
260.12
320.857
382.138
436.965
481.059
511.328
527.54
521.956
500.843
465.113
418.982
365.481
308.068
254.049
214.026
196.233
90.0189
145.159
147.857
147.863
145.153
143.819
145.254
158.631
189.77
237.051
296.089
358.174
415.261
462.228
495.53
512.128
511.739
492.294
458.224
413.219
360.633
304.568
252.428
213.777
196.439
80.9101
143.245
150.163
151.536
147.783
144.116
143.59
149.115
169.759
206.836
257.469
313.96
367.511
412.176
444.687
462.546
463.737
448.129
419.248
379.543
332.908
284.372
241.18
211.227
199.038
71.6094
139.936
152.102
156.348
152.701
146.267
143.403
144.135
153.337
176.565
213.369
258.728
304.265
342.978
370.737
386.078
388.372
377.68
355.564
325.091
290.507
256.949
229.466
209.749
189.658
62.4447
135.128
153.568
161.174
159.239
151.282
144.78
143.08
144.81
153.925
174.112
203.951
237.672
269.192
292.974
306.607
309.906
303.649
289.358
269.349
246.307
222.312
197.832
172.205
147.518
53.6199
128.877
154.638
165.618
167.043
159.304
149.646
144.052
142.982
144.079
149.387
161.765
179.482
199.462
217.251
229
233.058
229.559
219.983
205.623
188.153
169.404
151.724
139.045
132.847
45.3071
120.786
154.658
169.299
175.359
170.018
159.461
149.572
144.124
142.523
142.404
143.598
146.823
151.744
157.411
161.982
163.695
161.976
157.19
150.877
144.507
139.006
135.89
135.688
140.065
37.5789
111.474
153.247
172.042
183.426
182.313
173.57
162.499
152.784
146.345
142.665
140.843
140.145
140.074
139.998
139.921
139.839
139.75
139.661
139.569
139.483
139.64
143.357
152.372
167.701
30.4688
101.216
150.091
173.737
190.545
194.995
190.12
180.854
170.971
162.339
155.543
150.577
147.218
145.208
144.088
143.566
143.508
143.883
144.922
147.264
152.147
160.396
173.246
189.465
208.843
24.0035
90.2459
144.967
174.102
196.232
207.176
207.577
201.77
193.636
185.507
178.329
172.401
167.853
164.711
162.965
162.615
163.681
166.416
171.191
178.483
188.598
201.38
217.008
234.785
254.421
18.1496
78.3436
137.597
172.782
199.894
218.083
225.167
224.41
220.029
214.582
209.399
205.01
201.677
199.602
198.951
199.87
202.612
207.385
214.349
223.594
235.066
248.605
264.042
281.127
299.673
13.2593
65.6086
127.647
169.259
200.935
226.267
240.429
245.708
246.061
244.389
242.31
240.607
239.641
239.644
240.827
243.433
247.648
253.591
261.322
270.834
282.066
294.931
309.333
325.188
342.395
9.45384
52.5213
114.858
162.798
198.885
230.622
252.162
264.079
269.836
272.414
273.771
274.962
276.511
278.714
281.783
285.906
291.224
297.829
305.77
315.062
325.706
337.696
351.023
365.668
381.586
6.6166
39.7424
99.2512
152.552
193.318
229.995
259.083
277.902
289.521
296.797
301.899
306.112
310.149
314.4
319.122
324.5
330.67
337.732
345.76
354.803
364.907
376.114
388.46
401.972
416.643
4.58421
28.0228
81.2753
137.726
183.464
223.87
259.533
285.65
303.524
315.953
325.117
332.541
339.124
345.397
351.692
358.232
365.178
372.658
380.773
389.607
399.234
409.72
421.126
433.51
446.904
3.19611
18.0662
62.169
118.142
168.291
211.95
252.152
285.517
310.056
328.01
341.711
352.657
362.009
370.448
378.406
386.168
393.937
401.872
410.103
418.747
427.907
437.674
448.129
459.348
471.393
2.30226
10.453
42.7839
94.2351
146.878
193.718
236.677
275.369
306.928
331.037
349.488
364.438
376.941
387.819
397.641
406.781
415.489
423.958
432.353
440.824
449.51
458.536
468.011
478.028
488.668
1.75655
5.89827
25.8732
67.9714
119.096
168.261
213.234
254.748
291.572
322.088
346.215
365.506
381.442
395.074
407.087
417.848
427.666
436.788
445.424
453.77
462.012
470.318
478.828
487.654
496.889
1.45102
3.47413
13.5103
43.0369
87.082
135.356
181.544
224.377
263.71
298.663
328.308
352.72
372.764
389.5
403.842
416.383
427.5
437.472
446.54
454.936
462.888
470.604
478.253
485.967
493.86
1.30176
2.24977
6.19166
22.5175
54.9504
97.1379
141.784
184.751
224.757
261.401
294.186
322.71
347.003
367.495
384.81
399.552
412.206
423.175
432.814
441.436
449.316
456.684
463.715
470.549
477.307
1.24288
1.64068
3.11758
9.61837
28.5481
59.3359
97.2489
137.243
176.15
212.577
245.985
276.098
302.788
326.108
346.26
363.516
378.194
390.669
401.35
410.609
418.769
426.095
432.795
439.034
444.944
1.23637
1.37458
1.94375
3.67901
11.2905
28.8582
55.2623
87.2513
121.36
155.088
187.033
216.536
243.336
267.386
288.718
307.371
323.472
337.265
349.066
359.191
367.935
375.559
382.283
388.292
393.731
1.25447
1.29919
1.46463
1.94395
3.6639
10.252
24.0182
44.2783
69.0138
95.9403
123.187
149.499
174.161
196.841
217.382
235.683
251.766
265.759
277.858
288.283
297.257
304.993
311.685
317.505
322.591
1.29303
1.30257
1.33098
1.44813
1.58693
2.57881
6.58094
15.3497
28.947
46.0377
65.1552
85.0252
104.685
123.502
141.064
157.105
171.506
184.265
195.454
205.191
213.615
220.872
227.107
232.458
237.037
1.34036
1.33906
1.3407
1.359
1.40396
1.52935
1.64198
2.90966
6.57877
13.1983
22.9354
34.5215
47.0677
59.8873
72.4449
84.3594
95.3921
105.417
114.392
122.329
129.279
135.314
140.516
144.975
148.763
1.38979
1.38922
1.3854
1.38093
1.38842
1.41745
1.46042
1.55015
1.63822
1.84314
3.33182
6.2142
10.4474
15.8471
22.2331
28.9554
35.5819
41.882
47.7265
53.0432
57.805
62.0151
65.6939
68.8763
71.5949
1.44089
1.44283
1.44289
1.43938
1.43577
1.43633
1.44592
1.47059
1.50524
1.55389
1.61213
1.66293
1.71538
1.76596
2.24471
3.16324
4.42475
5.92646
7.57209
9.27616
10.9702
12.6019
14.1324
15.5363
16.7997
1.49659
1.49916
1.50215
1.50389
1.5039
1.50152
1.50112
1.50307
1.51511
1.52883
1.55372
1.58232
1.61327
1.64264
1.68674
1.72235
1.75472
1.7868
1.81875
1.85054
1.88212
1.91345
1.9445
1.97523
2.00566
1.56015
1.56186
1.56507
1.56916
1.57338
1.57647
1.57885
1.58073
1.58256
1.58728
1.5952
1.60727
1.62427
1.64074
1.66019
1.68322
1.70734
1.73186
1.75659
1.78141
1.80626
1.83113
1.85596
1.88082
1.90542
1.63402
1.6347
1.63699
1.64082
1.64597
1.65193
1.65817
1.66451
1.67036
1.67644
1.68311
1.69062
1.69947
1.71043
1.72277
1.73669
1.75213
1.7689
1.78662
1.80619
1.82683
1.84686
1.86684
1.88686
1.90742
1.72261
1.72173
1.72268
1.72532
1.72957
1.7353
1.74228
1.75029
1.75902
1.76829
1.778
1.78815
1.79872
1.80999
1.82202
1.83483
1.84844
1.86286
1.87805
1.8939
1.91039
1.92754
1.94527
1.96351
1.98219
1.83671
1.8347
1.83436
1.83564
1.83846
1.84277
1.84851
1.85558
1.86388
1.87327
1.88361
1.89479
1.9067
1.91927
1.93247
1.94625
1.96061
1.97551
1.99093
2.00684
2.02319
2.03997
2.05715
2.0747
2.09259
1.96262
1.96202
1.96362
1.96673
1.97107
1.97649
1.98294
1.9904
1.99883
2.00822
2.01851
2.02966
2.04161
2.0543
2.06767
2.08165
2.09621
2.11129
2.12684
2.14283
2.15922
2.17596
2.19303
2.21039
2.22802
2.23755
2.2117
2.19687
2.18896
2.18567
2.1857
2.18825
2.19279
2.19898
2.20659
2.21543
2.22536
2.23627
2.24806
2.26064
2.27394
2.2879
2.30244
2.31751
2.33306
2.34903
2.36538
2.38208
2.39908
2.41642
3.93014
3.76954
3.65673
3.57402
3.51147
3.4634
3.4263
3.39781
3.37627
3.36041
3.3493
3.3422
3.33851
3.33777
3.33954
3.3435
3.34937
3.35692
3.36595
3.37627
3.38774
3.40021
3.41356
3.42769
3.4426
197.445
164.811
127.295
156.542
135.266
127.5
132.223
129.102
133.77
132.779
139.931
154.133
150.681
167.784
186.879
186.111
206.078
227.217
229.125
249.391
270.665
274.205
293.735
314.136
318.275
336.664
355.88
359.708
376.885
394.903
397.646
413.633
430.467
431.457
446.234
461.831
460.413
473.897
488.147
483.5
495.576
508.341
499.295
509.864
521.023
506.018
515.028
524.479
501.504
508.941
516.681
483.659
489.679
495.825
450.295
455.192
460.043
398.444
402.575
406.51
326.837
330.402
333.657
240.762
243.787
246.447
151.809
154.239
156.325
73.7841
75.5264
77.0131
17.8469
18.7158
19.4771
2.03206
2.05815
2.08398
1.92929
1.95195
1.97419
1.92731
1.9462
1.96528
2.00003
2.01696
2.03411
2.10964
2.12579
2.14213
2.24477
2.2606
2.27658
2.43246
2.44793
2.46352
3.45613
3.46999
3.48409
165.082
131.921
125.913
125.232
124.866
124.639
124.492
124.364
124.247
124.139
124.039
123.944
123.854
123.768
123.685
123.605
123.527
123.452
123.378
123.306
123.235
123.165
123.096
123.028
122.961
122.894
122.828
122.762
122.697
122.632
122.567
122.502
122.437
122.372
122.307
122.242
122.177
122.111
122.045
121.979
121.912
121.844
121.775
121.704
121.633
121.56
121.484
121.407
121.326
121.241
121.149
121.046
120.935
120.856
120.804
120.739
120.691
120.663
120.669
120.678
120.762
120.918
121.107
121.239
121.485
121.801
122.235
122.716
123.155
123.504
123.744
123.868
123.973
124.076
124.181
124.294
124.419
124.566
124.875
126.272
138.465
127.683
125.616
125.252
125.111
125.112
125.213
125.385
125.619
125.898
126.208
126.537
126.873
127.208
127.536
127.852
128.154
128.439
128.705
128.952
129.18
129.388
129.576
129.744
129.891
130.018
130.125
130.211
130.276
130.32
130.341
130.34
130.315
130.265
130.188
130.071
129.908
129.699
129.441
129.13
128.766
128.35
127.882
127.361
126.79
126.171
125.509
124.812
124.089
123.355
122.628
121.935
121.297
120.755
120.376
120.222
120.074
119.884
119.715
119.639
119.576
119.653
119.924
120.414
121.379
122.756
124.634
126.883
129.232
131.349
132.933
133.79
133.732
132.801
131.155
129.112
127.146
125.753
125.148
126.047
131.131
126.357
125.662
125.571
125.9
126.645
127.867
129.547
131.593
133.91
136.398
138.973
141.566
144.125
146.612
149.002
151.28
153.436
155.464
157.364
159.135
160.778
162.295
163.688
164.957
166.105
167.131
168.035
168.816
169.472
170.002
170.401
170.666
170.793
170.78
170.634
170.347
169.911
169.316
168.548
167.602
166.469
165.137
163.595
161.832
159.836
157.596
155.103
152.351
149.335
146.061
142.542
138.809
134.925
131.026
127.469
124.357
121.891
120.253
119.603
119.382
119.258
119.333
119.787
121.067
123.3
126.875
131.647
137.029
142.255
146.419
148.939
149.297
147.532
143.792
138.643
133.142
128.659
126.028
126.035
128.807
126.112
125.892
126.614
128.467
131.579
135.869
141.031
146.774
152.804
158.888
164.854
170.592
176.035
181.149
185.921
190.354
194.458
198.249
201.744
204.959
207.912
210.617
213.087
215.334
217.368
219.194
220.819
222.245
223.474
224.506
225.338
225.966
226.385
226.588
226.567
226.316
225.821
225.066
224.037
222.716
221.087
219.129
216.822
214.144
211.07
207.576
203.64
199.236
194.343
188.942
183.023
176.583
169.637
162.228
154.444
146.447
138.514
131.125
125.216
121.211
119.251
119.061
119.035
119.727
121.7
125.613
131.733
139.414
147.612
154.625
158.625
159.489
157.814
153.489
146.323
138.214
131.269
126.968
126.19
127.952
126.147
126.728
129.435
134.418
141.572
150.339
160.041
170.11
180.116
189.781
198.944
207.531
215.518
222.915
229.752
236.062
241.885
247.259
252.217
256.792
261.012
264.899
268.473
271.751
274.745
277.464
279.915
282.102
284.026
285.685
287.076
288.192
289.026
289.567
289.803
289.72
289.302
288.529
287.38
285.833
283.862
281.442
278.542
275.133
271.183
266.659
261.525
255.749
249.296
242.135
234.24
225.59
216.18
206.02
195.147
183.63
171.615
159.356
147.283
136.115
127.008
121.355
118.953
118.783
119.28
121.35
126.163
133.398
142.294
150.686
156.297
158.785
158.95
154.637
147.554
139.309
131.998
127.324
126.4
127.53
126.401
128.974
135.195
144.874
157.151
170.894
185.122
199.162
212.624
225.313
237.161
248.167
258.366
267.813
276.563
284.673
292.196
299.179
305.664
311.688
317.281
322.471
327.278
331.721
335.813
339.565
342.982
346.068
348.824
351.247
353.331
355.068
356.447
357.454
358.075
358.289
358.077
357.416
356.279
354.638
352.463
349.721
346.378
342.396
337.738
332.364
326.235
319.31
311.55
302.919
293.381
282.91
271.487
259.11
245.799
231.569
216.48
200.664
184.345
167.928
152.056
137.789
126.893
120.72
118.651
118.509
119.771
123.331
129.804
137.445
144.484
148.909
149.723
147.239
142.474
136.437
130.823
127.309
126.556
127.163
127.436
133.671
145.242
160.644
178.217
196.519
214.573
231.842
248.106
263.307
277.47
290.652
302.923
314.353
325.007
334.948
344.229
352.899
361.002
368.574
375.649
382.254
388.412
394.141
399.455
404.365
408.876
412.992
416.711
420.029
422.938
425.428
427.484
429.089
430.223
430.863
430.984
430.559
429.557
427.945
425.688
422.748
419.085
414.66
409.429
403.349
396.379
388.477
379.601
369.716
358.787
346.788
333.701
319.528
304.288
287.978
270.623
252.294
233.108
213.296
193.183
173.274
154.425
138.038
126.372
119.988
118.008
117.888
119.339
122.821
127.987
133.748
136.357
136.58
134.717
131.798
128.938
127.361
127.137
127.245
131.344
144.041
161.931
182.908
204.966
226.827
247.794
267.59
286.168
303.569
319.862
335.126
349.433
362.853
375.448
387.276
398.389
408.836
418.659
427.896
436.578
444.734
452.386
459.553
466.247
472.479
478.252
483.568
488.423
492.809
496.716
500.129
503.028
505.393
507.197
508.413
509.009
508.951
508.206
506.736
504.501
501.459
497.568
492.783
487.061
480.359
472.634
463.846
453.958
442.937
430.753
417.388
402.83
387.084
370.174
352.114
332.942
312.728
291.571
269.63
247.095
224.212
201.361
179.12
158.391
140.588
127.81
120.145
116.795
116.681
116.584
119.219
122.854
126.354
128.584
129.068
128.411
127.897
123.638
131.437
143.956
163.421
186.742
211.772
236.82
261.038
284.065
305.823
326.351
345.717
363.99
381.239
397.526
412.911
427.451
441.199
454.204
466.512
478.163
489.193
499.633
509.51
518.843
527.649
535.938
543.717
550.986
557.742
563.976
569.676
574.824
579.399
583.374
586.721
589.405
591.391
592.639
593.106
592.751
591.53
589.4
586.315
582.23
577.102
570.889
563.553
555.057
545.371
534.466
522.322
508.921
494.257
478.329
461.15
442.745
423.148
402.416
380.63
357.902
334.381
310.244
285.696
260.989
236.428
212.405
189.434
168.175
149.487
134.38
124.389
117.581
113.378
111.198
110.383
110.296
110.105
109.311
107.683
105.942
146.614
167.068
191.689
218.44
245.629
272.23
297.814
322.238
345.502
367.646
388.718
408.766
427.838
445.985
463.258
479.707
495.38
510.321
524.574
538.174
551.155
563.543
575.36
586.623
597.342
607.523
617.165
626.262
634.802
642.769
650.139
656.885
662.974
668.366
673.021
676.89
679.924
682.069
683.272
683.476
682.624
680.669
677.56
673.249
667.695
660.865
652.729
643.269
632.472
620.335
606.863
592.066
575.964
558.581
539.95
520.111
499.112
477.018
453.913
429.909
405.147
379.803
354.081
328.224
302.505
277.231
252.738
229.391
207.596
187.793
170.413
155.839
144.144
135.239
128.936
125.107
123.27
123.409
125.866
131.581
173.991
199.249
226.695
254.883
282.826
310.058
336.39
361.766
386.177
409.633
432.151
453.757
474.486
494.377
513.474
531.82
549.46
566.432
582.774
598.518
613.691
628.314
642.403
655.966
669.006
681.52
693.497
704.918
715.76
725.991
735.571
744.456
752.594
759.926
766.388
771.913
776.426
779.853
782.117
783.143
782.856
781.188
778.079
773.479
767.347
759.659
750.404
739.586
727.226
713.36
698.036
681.316
663.266
643.963
623.482
601.902
579.3
555.759
531.366
506.226
480.463
454.228
427.702
401.098
374.661
348.663
323.394
299.159
276.275
255.064
235.84
218.902
204.513
192.883
184.192
178.591
176.244
177.383
182.463
191.777
210.395
237.616
265.806
294.072
321.978
349.334
376.038
402.034
427.286
451.772
475.492
498.459
520.699
542.244
563.132
583.403
603.096
622.245
640.883
659.035
676.722
693.958
710.75
727.097
742.99
758.412
773.338
787.734
801.556
814.753
827.261
839.012
849.924
859.91
868.874
876.714
883.322
888.59
892.406
894.663
895.26
894.102
891.106
886.21
879.373
870.576
859.829
847.168
832.655
816.379
798.451
779.001
758.17
736.109
712.968
688.892
664.019
638.472
612.367
585.814
558.923
531.818
504.643
477.569
450.804
424.581
399.159
374.81
351.816
330.454
311
293.724
278.891
266.768
257.627
251.708
249.226
250.361
255.302
263.941
251.737
279.005
306.736
334.457
361.978
389.185
415.995
442.337
468.159
493.429
518.139
542.298
565.928
589.06
611.729
633.97
655.82
677.309
698.465
719.308
739.851
760.1
780.051
799.693
819.002
837.947
856.484
874.559
892.105
909.043
925.283
940.72
955.239
968.713
981.002
991.958
1001.43
1009.25
1015.27
1019.33
1021.29
1021.01
1018.39
1013.33
1005.79
995.742
983.222
968.297
951.08
931.724
910.416
887.369
862.818
837.009
810.187
782.591
754.444
725.944
697.263
668.546
639.916
611.482
583.347
555.629
528.467
502.033
476.529
452.186
429.252
407.982
388.628
371.435
356.644
344.499
335.236
329.034
325.99
326.109
329.308
335.29
294.64
321.03
347.85
374.835
401.832
428.719
455.423
481.881
508.043
533.884
559.398
584.597
609.502
634.144
658.559
682.781
706.843
730.773
754.595
778.325
801.968
825.523
848.975
872.302
895.467
918.422
941.105
963.441
985.338
1006.69
1027.37
1047.25
1066.16
1083.93
1100.37
1115.27
1128.42
1139.6
1148.58
1155.14
1159.07
1160.2
1158.38
1153.46
1145.37
1134.11
1119.73
1102.33
1082.07
1059.17
1033.91
1006.6
977.579
947.196
915.805
883.75
851.347
818.888
786.622
754.761
723.47
692.881
663.093
634.188
606.245
579.352
553.624
529.203
506.26
484.99
465.598
448.291
433.277
420.774
410.979
403.993
399.794
398.256
399.161
402.191
336.973
362.196
387.998
414.178
440.561
466.999
493.424
519.801
546.104
572.319
598.451
624.514
650.535
676.546
702.582
728.677
754.863
781.168
807.61
834.202
860.944
887.827
914.831
941.921
969.053
996.165
1023.18
1050.01
1076.54
1102.65
1128.18
1152.96
1176.79
1199.45
1220.68
1240.22
1257.78
1273.05
1285.72
1295.5
1302.09
1305.23
1304.72
1300.38
1292.04
1279.73
1263.57
1243.73
1220.43
1193.93
1164.56
1132.77
1098.98
1063.67
1027.3
990.308
953.112
916.084
879.553
843.794
809.032
775.441
743.147
712.239
682.78
654.815
628.385
603.543
580.359
558.924
539.349
521.759
506.302
493.159
482.483
474.304
468.527
464.962
463.337
463.325
377.477
401.487
426.231
451.523
477.181
503.045
529.039
555.156
581.399
607.774
634.292
660.975
687.853
714.957
742.324
769.986
797.975
826.314
855.021
884.104
913.56
943.376
973.527
1003.98
1034.68
1065.56
1096.55
1127.55
1158.43
1189.07
1219.28
1248.86
1277.58
1305.17
1331.3
1355.64
1377.82
1397.43
1414.1
1427.43
1437.06
1442.67
1443.98
1440.85
1432.9
1420.13
1402.62
1380.63
1354.65
1325.01
1292.04
1256.25
1218.16
1178.34
1137.35
1095.72
1053.96
1012.52
971.776
932.069
893.665
856.773
821.549
788.101
756.501
726.789
698.983
673.088
649.106
627.038
606.893
588.698
572.524
558.497
546.696
537.085
529.516
523.753
519.486
516.357
415.273
438.044
461.656
485.934
510.717
535.852
561.25
586.908
612.855
639.111
665.697
692.638
719.962
747.703
775.891
804.559
833.732
863.43
893.668
924.449
955.769
987.612
1019.95
1052.76
1085.97
1119.54
1153.38
1187.39
1221.45
1255.4
1289.05
1322.17
1354.47
1385.61
1415.23
1442.92
1468.25
1490.79
1510.09
1525.74
1537.34
1544.59
1547.45
1546.14
1540.98
1531.23
1515.82
1493.93
1466.58
1434.85
1399.59
1361.22
1320.33
1277.5
1233.33
1188.44
1143.37
1098.66
1054.73
1011.95
970.632
931.005
893.246
857.48
823.784
792.201
762.744
735.404
710.155
686.956
665.757
646.516
629.245
613.994
600.76
589.446
579.866
571.751
564.767
558.54
449.579
471.033
493.386
516.486
540.201
564.393
588.967
613.908
639.248
665.015
691.231
717.921
745.111
772.828
801.097
829.944
859.386
889.438
920.107
951.394
983.29
1015.78
1048.83
1082.4
1116.45
1150.92
1185.73
1220.77
1255.93
1291.04
1325.9
1360.26
1393.84
1426.27
1457.2
1486.21
1512.85
1536.62
1556.73
1571.68
1579.39
1581.5
1579.86
1577.9
1575.6
1572.93
1568.1
1556.08
1533.19
1501.55
1466.26
1427.73
1386.62
1343.44
1298.75
1253.15
1207.22
1161.49
1116.45
1072.49
1029.94
989.049
950.016
912.982
878.04
845.239
814.592
786.08
759.663
735.286
712.882
692.397
673.816
657.134
642.286
629.132
617.453
606.956
597.288
588.07
479.59
499.586
520.505
542.221
564.624
587.593
611.03
634.902
659.223
684.015
709.298
735.09
761.412
788.281
815.712
843.719
872.309
901.486
931.25
961.592
992.489
1023.91
1055.84
1088.24
1121.05
1154.21
1187.64
1221.25
1254.91
1288.48
1321.78
1354.58
1386.63
1417.62
1447.23
1475.1
1500.83
1524.09
1544.24
1558.54
1567.38
1572.34
1574.71
1575.61
1574.96
1571.97
1565.11
1552.48
1532.68
1505.17
1473.1
1437.73
1399.71
1359.55
1317.72
1274.77
1231.22
1187.58
1144.34
1101.91
1060.6
1020.68
982.372
945.824
911.155
878.435
847.694
818.919
792.07
767.085
743.896
722.455
702.741
684.724
668.325
653.4
639.73
627.013
614.879
602.93
504.403
522.752
542.017
562.094
582.888
604.285
626.183
648.532
671.324
694.565
718.26
742.42
767.044
792.134
817.7
843.746
870.269
897.261
924.711
952.603
980.906
1009.59
1038.61
1067.94
1097.51
1127.27
1157.14
1187.03
1216.83
1246.41
1275.63
1304.31
1332.25
1359.23
1384.99
1409.24
1431.69
1452.02
1470.83
1486.73
1499.06
1507.79
1513.04
1514.7
1512.54
1506.36
1495.99
1481.33
1462.49
1439.79
1413.63
1384.37
1352.42
1318.24
1282.27
1245
1206.9
1168.41
1129.93
1091.83
1054.42
1017.96
982.664
948.689
916.171
885.208
855.846
828.097
801.942
777.335
754.221
732.562
712.335
693.5
675.982
659.659
644.345
629.774
615.586
601.378
522.92
539.404
556.759
574.899
593.741
613.166
633.068
653.374
674.051
695.092
716.494
738.251
760.355
782.791
805.554
828.638
852.033
875.722
899.684
923.898
948.334
972.956
997.725
1022.6
1047.51
1072.42
1097.25
1121.92
1146.35
1170.42
1194.04
1217.06
1239.35
1260.75
1281.06
1300.1
1317.65
1333.47
1347.43
1359.32
1368.87
1375.82
1379.94
1380.99
1378.95
1373.76
1365.38
1353.85
1339.23
1321.67
1301.36
1278.53
1253.45
1226.43
1197.79
1167.86
1136.98
1105.48
1073.67
1041.84
1010.24
979.116
948.644
918.982
890.263
862.59
836.024
810.595
786.309
763.149
741.087
720.102
700.177
681.28
663.352
646.298
629.973
614.16
598.536
582.716
533.762
548.168
563.357
579.244
595.749
612.765
630.188
647.939
665.969
684.249
702.764
721.498
740.435
759.553
778.834
798.261
817.817
837.481
857.231
877.041
896.888
916.742
936.568
956.328
975.974
995.453
1014.71
1033.7
1052.33
1070.54
1088.22
1105.31
1121.68
1137.24
1151.86
1165.41
1177.75
1188.75
1198.25
1206.12
1212.22
1216.42
1218.6
1218.64
1216.5
1212.14
1205.54
1196.71
1185.71
1172.6
1157.49
1140.51
1121.83
1101.62
1080.07
1057.41
1033.84
1009.57
984.813
959.777
934.645
909.585
884.743
860.245
836.204
812.712
789.833
767.609
746.058
725.186
704.989
685.46
666.591
648.364
630.737
613.646
596.99
580.607
564.226
547.493
535.24
547.382
560.152
573.508
587.371
601.643
616.23
631.057
646.067
661.22
676.484
691.836
707.254
722.716
738.2
753.686
769.154
784.583
799.951
815.237
830.421
845.482
860.395
875.133
889.66
903.934
917.915
931.562
944.821
957.631
969.934
981.667
992.768
1003.17
1012.79
1021.56
1029.4
1036.22
1041.95
1046.5
1049.79
1051.76
1052.34
1051.48
1049.16
1045.34
1040.03
1033.22
1024.95
1015.23
1004.14
991.748
978.13
963.388
947.632
930.978
913.549
895.474
876.877
857.882
838.608
819.162
799.641
780.13
760.71
741.45
722.403
703.609
685.092
666.865
648.934
631.301
613.963
596.91
580.118
563.547
547.132
530.765
514.235
497.235
525.444
535.284
545.558
556.258
567.335
578.711
590.307
602.056
613.906
625.815
637.748
649.675
661.572
673.416
685.189
696.871
708.446
719.896
731.203
742.348
753.317
764.093
774.659
784.997
795.08
804.88
814.367
823.513
832.285
840.645
848.556
855.98
862.882
869.221
874.958
880.051
884.457
888.134
891.039
893.131
894.372
894.726
894.162
892.661
890.203
886.773
882.366
876.983
870.633
863.333
855.108
845.993
836.028
825.261
813.748
801.547
788.721
775.338
761.465
747.169
732.515
717.565
702.374
686.994
671.473
655.855
640.175
624.463
608.738
593.013
577.295
561.589
545.895
530.209
514.519
498.8
483.019
467.108
450.921
434.205
502.679
510.292
518.163
526.292
534.657
543.211
551.898
560.666
569.47
578.275
587.052
595.775
604.423
612.976
621.416
629.728