/*--------------------------------*- C++ -*----------------------------------*\
| =========                 |                                                 |
| \\      /  F ield         | OpenFOAM: The Open Source CFD Toolbox           |
|  \\    /   O peration     | Version:  v2012                                 |
|   \\  /    A nd           | Website:  www.openfoam.com                      |
|    \\/     M anipulation  |                                                 |
\*---------------------------------------------------------------------------*/
FoamFile
{
    version     2.0;
    format      ascii;
    class       volScalarField;
    location    "593";
    object      k;
}
// * * * * * * * * * * * * * * * * * * * * * * * * * * * * * * * * * * * * * //

dimensions      [0 2 -2 0 0 0 0];


internalField   nonuniform List<scalar> 
6598
(
1.62077
2.03762
2.11338
2.13289
2.14127
2.14127
2.13289
2.11338
2.03762
1.62077
0.922932
1.46288
1.60954
1.65597
1.67058
1.67058
1.65597
1.60954
1.46288
0.922932
0.59466
1.09004
1.25935
1.32255
1.34368
1.34368
1.32255
1.25936
1.09004
0.594661
0.418091
0.841942
1.00945
1.08
1.10569
1.10569
1.08
1.00946
0.841943
0.418091
0.312898
0.670717
0.826515
0.898159
0.926146
0.926147
0.89816
0.826516
0.670719
0.312899
0.245107
0.548181
0.689282
0.758475
0.786963
0.786964
0.758476
0.689283
0.548183
0.245107
0.198667
0.45757
0.583971
0.648944
0.676742
0.676742
0.648946
0.583974
0.457573
0.198668
0.165287
0.388623
0.501474
0.561521
0.587937
0.587939
0.561524
0.501478
0.388627
0.165289
0.140355
0.334854
0.435648
0.490657
0.515353
0.515354
0.490661
0.435653
0.33486
0.140357
0.121144
0.292025
0.382258
0.432431
0.455289
0.455291
0.432436
0.382265
0.292033
0.121147
0.105961
0.257286
0.338326
0.38401
0.405047
0.40505
0.384017
0.338336
0.257297
0.105964
0.0937037
0.228663
0.301714
0.343312
0.362617
0.362621
0.343321
0.301728
0.228678
0.0937087
0.0836321
0.204757
0.270858
0.308776
0.326474
0.32648
0.308789
0.270877
0.204778
0.0836389
0.0752311
0.184553
0.244591
0.279216
0.295446
0.295454
0.279235
0.244617
0.184581
0.0752403
0.0681327
0.1673
0.222032
0.25372
0.268619
0.268629
0.253746
0.222068
0.167339
0.0681453
0.0620679
0.15243
0.202501
0.231573
0.245273
0.245286
0.231609
0.202551
0.152484
0.0620851
0.0568357
0.139511
0.185472
0.21221
0.224833
0.224852
0.21226
0.185541
0.139584
0.0568589
0.0522829
0.128203
0.170525
0.195183
0.20684
0.206864
0.19525
0.170623
0.128301
0.0523142
0.0482911
0.11824
0.15733
0.180128
0.190919
0.190952
0.180219
0.157463
0.118376
0.0483333
0.0447679
0.109413
0.145624
0.166761
0.176778
0.176821
0.166884
0.145802
0.10957
0.0448229
0.041716
0.10173
0.135417
0.15509
0.164426
0.164485
0.155257
0.135657
0.101975
0.0418979
0.0389819
0.0948337
0.126254
0.144616
0.153342
0.15342
0.144838
0.126579
0.0951948
0.040237
0.0365194
0.0886059
0.117979
0.135155
0.143332
0.143433
0.135442
0.118406
0.0891777
0.0396138
0.0342908
0.0829575
0.110474
0.126576
0.134258
0.134383
0.126929
0.110984
0.0838908
0.0400632
0.032265
0.0778132
0.103641
0.118768
0.126003
0.12615
0.119171
0.104228
0.079356
0.0416502
0.0304154
0.0731091
0.0973968
0.111636
0.118465
0.118635
0.112079
0.098129
0.0755845
0.0442203
0.0287194
0.0687882
0.0916646
0.105092
0.111555
0.111754
0.105623
0.0926786
0.0724707
0.0475131
0.0271086
0.0646863
0.0862347
0.0989036
0.105028
0.10527
0.0995878
0.0876975
0.0699127
0.0513586
0.025624
0.0608996
0.0812257
0.0931996
0.0990199
0.099321
0.0941035
0.083296
0.0679575
0.0552134
0.0242505
0.0573957
0.076598
0.0879383
0.0934898
0.0938666
0.0891283
0.0794223
0.0664813
0.0582384
0.0229748
0.0541412
0.0723083
0.0830708
0.0883866
0.0888572
0.0846109
0.0760133
0.0653599
0.0605064
0.0217852
0.0511068
0.0683185
0.0785545
0.083666
0.0842481
0.0805031
0.0730034
0.0644516
0.0620761
0.0206714
0.0482668
0.0645955
0.074352
0.0792887
0.079999
0.0767593
0.0703221
0.0635988
0.0630018
0.0196241
0.0455989
0.0611095
0.0704301
0.07522
0.0760732
0.0733358
0.0679002
0.0627303
0.0633446
0.018635
0.0430827
0.0578344
0.0667594
0.0714285
0.0724373
0.0701918
0.0656794
0.0617914
0.0631665
0.0176968
0.0407004
0.0547468
0.0633138
0.0678866
0.0690608
0.06729
0.0636108
0.060746
0.0625295
0.0168026
0.0384363
0.0518259
0.06007
0.0645692
0.0659162
0.0645969
0.0616545
0.0595762
0.0614977
0.0159462
0.0362762
0.0490534
0.0570074
0.0614541
0.0629788
0.0620839
0.0597809
0.0582817
0.0601389
0.0151222
0.0342082
0.046413
0.0541077
0.0585214
0.0602268
0.0597272
0.0579709
0.0568782
0.058526
0.0143254
0.0322217
0.0438901
0.0513541
0.0557531
0.0576411
0.0575078
0.0562158
0.0553944
0.0567377
0.0135513
0.0303073
0.0414715
0.0487314
0.0531327
0.0552047
0.0554112
0.0545152
0.0538692
0.0548576
0.0127958
0.0284567
0.0391447
0.0462248
0.0506442
0.0529014
0.0534258
0.0528743
0.0523464
0.0529713
0.0120551
0.0266628
0.0368976
0.0438189
0.0482706
0.0507149
0.0515407
0.0513002
0.0508684
0.0511601
0.0113257
0.0249192
0.0347177
0.0414972
0.0459932
0.0486267
0.0497428
0.0497963
0.0494689
0.0494922
0.0106047
0.02322
0.0325916
0.0392409
0.0437896
0.0466136
0.0480138
0.0483576
0.0481661
0.0480131
0.00988899
0.0215593
0.0305048
0.0370276
0.0416326
0.0446464
0.0463267
0.0469659
0.0469556
0.0467359
0.00917584
0.0199311
0.0284412
0.0348312
0.0394886
0.0426873
0.0446432
0.0455866
0.0458073
0.0456354
0.00846229
0.0183295
0.0263828
0.0326214
0.0373172
0.0406892
0.0429128
0.0441669
0.0446641
0.0446467
0.00774504
0.0167481
0.0243104
0.0303636
0.0350715
0.0385958
0.0410725
0.0426376
0.0434453
0.0436705
0.00702012
0.0151806
0.0222043
0.0280209
0.0326997
0.0363439
0.0390497
0.0409159
0.0420524
0.0425829
0.00628208
0.0136189
0.0200449
0.0255571
0.0301494
0.0338682
0.0367679
0.0389131
0.0403786
0.0412492
0.00552286
0.0120516
0.0178185
0.0229455
0.0273784
0.0311114
0.0341571
0.036546
0.0383225
0.0395403
0.00472529
0.0104604
0.0155107
0.0201758
0.0243697
0.0280443
0.0311736
0.0337556
0.0358067
0.0373535
0.00385748
0.00898724
0.0132212
0.0173087
0.0211622
0.0246901
0.0278259
0.0305337
0.0328007
0.0346306
0.00293441
0.00774071
0.0112371
0.0146234
0.0179779
0.0212175
0.0242401
0.0269692
0.0293626
0.0313944
0.00193831
0.00655519
0.00965172
0.0124298
0.0152059
0.018002
0.0207398
0.0233318
0.0257061
0.0278118
0.00107047
0.00513962
0.00817806
0.0106964
0.013068
0.0154327
0.0177937
0.0200959
0.0222766
0.0242788
0.000838461
0.00332101
0.00644083
0.00903876
0.0113362
0.0134878
0.0155493
0.0175193
0.0193786
0.0211028
0.000844577
0.00204702
0.00473759
0.00724023
0.00958699
0.0116489
0.013491
0.0151289
0.0165857
0.0178901
0.000946241
0.00165981
0.00250608
0.00372797
0.00504399
0.00621961
0.00710644
0.00787474
0.00854021
0.00910053
0.00885853
0.00328334
0.003235
0.00325497
0.003222
0.00309039
0.00280692
0.00254366
0.00230636
0.00208934
0.001888
0.00170661
0.00154403
0.00139785
0.00126432
0.00114415
0.00103857
0.000942043
0.000850789
0.000761939
0.000672812
0.000580447
0.000478949
0.000360472
0.000205404
0.0172663
0.00739305
0.00649398
0.00628214
0.00609039
0.00575072
0.00519914
0.00454652
0.0039735
0.00349296
0.00309398
0.00276983
0.00250932
0.00229806
0.00212244
0.00196113
0.00179589
0.00162515
0.00145037
0.00127526
0.00110602
0.000948541
0.000815102
0.000684149
0.000380804
0.0261444
0.0129861
0.0092293
0.00794811
0.00715128
0.00636203
0.00548091
0.00453586
0.00377455
0.0032096
0.00278873
0.0024797
0.00225158
0.00208555
0.00196334
0.00186485
0.00176523
0.00165683
0.00153362
0.00139286
0.00123764
0.00107708
0.000930077
0.00079585
0.000438819
0.0360277
0.0198362
0.0125929
0.00985428
0.00810733
0.00664721
0.00535211
0.0042343
0.00330802
0.0026706
0.0022296
0.00193711
0.00174472
0.00162859
0.00156482
0.00153171
0.00150399
0.00146689
0.00140986
0.00132587
0.00121336
0.00107838
0.000937601
0.000795083
0.00044319
0.0458086
0.0286581
0.0173611
0.0124516
0.00940044
0.00710085
0.00531844
0.00399217
0.00302155
0.00232378
0.00182751
0.00150975
0.00131693
0.00122166
0.00119315
0.00120213
0.0012283
0.00124436
0.00123707
0.00119818
0.00112423
0.00101815
0.00089194
0.000748075
0.000418019
0.0533468
0.038088
0.0240677
0.0160695
0.0112198
0.00788415
0.00553635
0.00394678
0.00288214
0.00215432
0.00164136
0.00128851
0.00107042
0.000965294
0.00094505
0.000973268
0.00102449
0.00106573
0.0010827
0.00106777
0.00101758
0.000933374
0.000822782
0.00068386
0.000379993
0.058656
0.0472781
0.0314619
0.020527
0.0136765
0.00906608
0.00603528
0.00411724
0.00291366
0.00213636
0.00160484
0.00123544
0.000997027
0.000869593
0.000829414
0.000845654
0.000889984
0.000930937
0.000952103
0.000945678
0.000908982
0.000843079
0.000751279
0.000625574
0.00034267
0.062695
0.0548061
0.0386978
0.0255695
0.0166666
0.0106533
0.00681361
0.0045017
0.00311282
0.00225854
0.00169676
0.00130896
0.00104396
0.00087969
0.000800034
0.000782339
0.000800889
0.000827824
0.000843172
0.000839305
0.000815262
0.000774904
0.000722772
0.000643462
0.000390914
0.0657277
0.0607439
0.0454254
0.0310018
0.020171
0.0126698
0.00789317
0.00511086
0.00349233
0.00252867
0.00191661
0.00150379
0.00121178
0.00100521
0.00087151
0.000801006
0.00078111
0.000791889
0.000804471
0.000812808
0.000819505
0.000833551
0.000867445
0.000947134
0.00125881
0.0679106
0.0651287
0.0514954
0.0365156
0.0239029
0.0149391
0.00923517
0.00593051
0.00406109
0.00296181
0.00227693
0.00183084
0.00152418
0.00130045
0.00113603
0.00102549
0.000971463
0.000979559
0.00101564
0.00107993
0.0011868
0.00136504
0.00165685
0.00208153
0.00255451
0.0693734
0.0682231
0.0564722
0.041269
0.0275445
0.0173497
0.0107631
0.00696008
0.00483411
0.00358585
0.00280648
0.0023075
0.00198541
0.00177502
0.00163878
0.001559
0.0015327
0.00156786
0.00165736
0.00180136
0.00200444
0.00226295
0.00255137
0.00283237
0.00308879
0.0701816
0.0702343
0.060283
0.045355
0.0310505
0.0198492
0.0124582
0.00817973
0.00580699
0.00441312
0.00353341
0.00295902
0.00258574
0.00235361
0.00222557
0.00217536
0.00218571
0.00224395
0.00234179
0.00247806
0.00264926
0.00285126
0.00308666
0.0033836
0.0037271
0.0704172
0.0713124
0.06296
0.04886
0.0344092
0.0224016
0.014286
0.00955014
0.00694599
0.00541848
0.00445632
0.0038213
0.00338728
0.00309325
0.00291476
0.00283245
0.00283147
0.00288203
0.00298198
0.0031238
0.00330761
0.00353554
0.00381952
0.00417178
0.00456902
0.0701195
0.0715863
0.0646395
0.0517579
0.0373709
0.0249718
0.0162317
0.0110389
0.00820559
0.0065553
0.00552238
0.00486683
0.00442558
0.00411388
0.00390392
0.00378314
0.00374657
0.00376381
0.003841
0.00397971
0.00418744
0.00444824
0.00474059
0.00506777
0.00541127
0.069326
0.0711775
0.0655197
0.0540623
0.0400969
0.0276417
0.0183334
0.01264
0.00953033
0.00779583
0.00671496
0.00602737
0.0055883
0.00529545
0.00509854
0.00497559
0.00490007
0.00488909
0.00494283
0.00505828
0.00522692
0.00543721
0.00567964
0.00594535
0.00622044
0.0680835
0.0701903
0.0657229
0.0557587
0.0426668
0.0302977
0.0206889
0.0144044
0.0109078
0.00904581
0.00795387
0.00725314
0.0068062
0.00651335
0.00631872
0.00618079
0.00609213
0.00606012
0.0060839
0.00615971
0.00628134
0.0064394
0.00662381
0.0068246
0.00703249
0.0664454
0.0687085
0.0653311
0.0568312
0.0451248
0.0330166
0.0232097
0.0164588
0.0124418
0.0102806
0.00912649
0.00843775
0.00800387
0.00772338
0.00752472
0.00738394
0.00729438
0.00725253
0.00725471
0.0072964
0.00737248
0.00747705
0.00760352
0.00774534
0.0078972
0.0644721
0.0668042
0.0644169
0.0573743
0.0472159
0.0358443
0.0259427
0.018758
0.0142399
0.0116834
0.0102948
0.00952907
0.00907304
0.00879175
0.00861424
0.00850405
0.00844255
0.00841899
0.00842571
0.00845557
0.0085063
0.00857505
0.00865926
0.00875639
0.00886413
0.0622315
0.0645437
0.0630253
0.0573908
0.0487686
0.0387404
0.0289336
0.0213914
0.0163283
0.0132902
0.0115827
0.0106406
0.0101102
0.00980742
0.00964146
0.00956122
0.00953606
0.00954798
0.00958463
0.00963563
0.00969551
0.00975801
0.00982465
0.00989653
0.00997431
0.0598021
0.0619983
0.0612068
0.056893
0.0497824
0.0411406
0.0322794
0.0244689
0.0188845
0.0152999
0.0131778
0.0119772
0.0113132
0.0109502
0.0107644
0.0106886
0.0106826
0.0107219
0.01079
0.0108747
0.0109643
0.0110493
0.0111269
0.0111966
0.0112622
0.057274
0.0592523
0.0590194
0.0558899
0.0502355
0.0429995
0.0352633
0.0280118
0.0220201
0.0178731
0.0152481
0.013692
0.0128072
0.0123266
0.0120874
0.0119945
0.0119948
0.0120541
0.0121482
0.0122589
0.0123731
0.0124833
0.0125801
0.0126597
0.0127228
0.0547478
0.0564089
0.0565438
0.054414
0.0501126
0.0442663
0.0377182
0.0312791
0.0255969
0.0211303
0.0179377
0.015946
0.0147517
0.0140702
0.0137145
0.0135638
0.0135427
0.0136017
0.0137062
0.0138318
0.013961
0.0140823
0.0141896
0.0142787
0.0143461
0.0523296
0.0535908
0.0538935
0.0525367
0.0494155
0.0448914
0.0395635
0.0340737
0.0289654
0.02463
0.0212597
0.018873
0.0173016
0.0163315
0.0157896
0.0155215
0.0154295
0.0154495
0.0155358
0.0156549
0.0157839
0.0159083
0.0160192
0.0161125
0.0161896
0.0501196
0.0509322
0.0512155
0.0503791
0.0482097
0.0448616
0.0407189
0.0362465
0.0318844
0.0279732
0.0247197
0.0222084
0.0204009
0.0191841
0.0184227
0.0179877
0.0177777
0.0177162
0.017747
0.0178257
0.0179264
0.0180344
0.0181397
0.0182363
0.018324
0.0481982
0.048562
0.0486785
0.0481121
0.0466263
0.044237
0.0411554
0.0376909
0.0341642
0.0308533
0.0279558
0.0255786
0.0237457
0.022416
0.0215088
0.0209292
0.0205902
0.020414
0.0203515
0.0203611
0.0204157
0.0204982
0.0205959
0.0207011
0.0208057
0.0466085
0.0465797
0.0464464
0.0459389
0.0448624
0.0431675
0.0409446
0.0383755
0.0356764
0.0330503
0.0306596
0.0286119
0.0269562
0.025689
0.024767
0.0241225
0.0236914
0.0234182
0.0232708
0.0232231
0.0232467
0.0233171
0.0234181
0.0235366
0.0236623
0.045344
0.0450302
0.0446425
0.0440564
0.043154
0.0418813
0.0402654
0.0383998
0.0364135
0.0344417
0.032604
0.0309898
0.0296507
0.028596
0.0277991
0.0272039
0.0267706
0.0264894
0.0263346
0.0262799
0.0263019
0.0263798
0.0264964
0.0266375
0.0267917
0.0443424
0.0438862
0.0433135
0.0426047
0.0417219
0.0406434
0.0393813
0.0379827
0.0365194
0.0350738
0.0337243
0.0325347
0.0315466
0.0307705
0.030189
0.0297417
0.0294233
0.0292244
0.0291304
0.0291245
0.02919
0.0293104
0.0294698
0.0296559
0.0298576
0.0434896
0.0430444
0.0424081
0.0416211
0.0407062
0.0396821
0.0385742
0.0374193
0.0362639
0.0351582
0.0341505
0.0332814
0.0325786
0.0320494
0.0316806
0.0314197
0.031254
0.0311772
0.0311819
0.0312581
0.0313943
0.0315787
0.0317996
0.0320466
0.032309
0.0426338
0.0423396
0.0417801
0.04102
0.040113
0.0391079
0.0380514
0.0369887
0.0359628
0.035013
0.0341733
0.0334702
0.0329211
0.0325305
0.0322889
0.0321655
0.0321188
0.0321431
0.0322311
0.0323756
0.0325692
0.0328037
0.0330706
0.0333613
0.0336665
0.0416054
0.041571
0.041217
0.0406074
0.0398043
0.03887
0.0378642
0.0368424
0.0358538
0.0349393
0.0341315
0.0334538
0.0329203
0.0325355
0.0322958
0.0321858
0.0321815
0.0322344
0.032342
0.032498
0.0326953
0.0329274
0.0331881
0.0334711
0.0337687
0.0402401
0.040534
0.0404785
0.0401269
0.0395365
0.0387677
0.0378817
0.0369378
0.0359894
0.0350822
0.0342526
0.0335275
0.032924
0.0324507
0.0321083
0.0318912
0.0317881
0.0317786
0.0318432
0.0319455
0.0320817
0.0322477
0.0324394
0.0326522
0.0328797
0.038399
0.0390467
0.0393385
0.0393148
0.0390217
0.0385102
0.0378348
0.0370503
0.036209
0.0353578
0.034536
0.0337745
0.0330958
0.0325139
0.0320357
0.0316625
0.0313907
0.0312126
0.0311174
0.0310891
0.0311153
0.0311839
0.0312768
0.0313837
0.0315021
0.0359897
0.0369758
0.0376184
0.0379455
0.037991
0.0377944
0.0373997
0.036853
0.0362007
0.0354861
0.0347479
0.0340185
0.0333235
0.0326818
0.0321059
0.031603
0.031176
0.0308242
0.030544
0.0303294
0.0301734
0.0300678
0.0300025
0.0299683
0.0299584
0.0330001
0.034271
0.035225
0.035879
0.0362556
0.0363833
0.0362953
0.0360283
0.0356205
0.035109
0.0345287
0.0339102
0.0332798
0.0326583
0.0320617
0.0315016
0.0309853
0.0305173
0.0300993
0.029731
0.0294104
0.0291342
0.0288981
0.0286975
0.0285284
0.0295552
0.0310157
0.0321977
0.0331077
0.0337591
0.0341701
0.0343642
0.0343688
0.0342139
0.0339298
0.033546
0.0330896
0.0325848
0.0320523
0.0315091
0.0309686
0.0304411
0.0299342
0.0294528
0.0290003
0.0285781
0.0281868
0.0278256
0.0274936
0.0271903
0.0259914
0.0274861
0.0287591
0.0298007
0.0306116
0.0312052
0.0315972
0.0318071
0.031857
0.0317702
0.0315702
0.0312793
0.0309183
0.0305057
0.0300576
0.0295875
0.0291065
0.0286234
0.0281451
0.0276766
0.0272218
0.0267831
0.0263621
0.0259599
0.0255783
0.0226035
0.0239454
0.0251226
0.026128
0.0269553
0.0275903
0.0280462
0.0283403
0.0284899
0.0285131
0.0284277
0.0282512
0.0280001
0.0276896
0.0273334
0.0269433
0.0265295
0.0261005
0.0256634
0.0252236
0.0247856
0.0243529
0.0239279
0.0235128
0.0231106
0.0190011
0.0199828
0.0208378
0.0215534
0.0221337
0.0225824
0.0229068
0.023117
0.0232239
0.0232389
0.0231734
0.0230386
0.0228454
0.0226038
0.0223231
0.0220116
0.0216767
0.0213245
0.0209606
0.0205894
0.0202146
0.0198393
0.019466
0.0190966
0.0187339
0.00955767
0.00995876
0.0103134
0.0106161
0.0108664
0.0110683
0.0112243
0.0113375
0.0114109
0.0114479
0.0114518
0.0114262
0.0113744
0.0112999
0.0112059
0.0110954
0.0109713
0.0108362
0.0106923
0.0105417
0.0103864
0.0102277
0.0100672
0.00990589
0.00974482
0.000416199
0.00101147
0.00203643
0.00234808
0.00255151
0.0027075
0.00293589
0.0030765
0.00348529
0.00342037
0.00379187
0.00431029
0.00416952
0.00460583
0.00504651
0.00498981
0.00535529
0.00569518
0.00575185
0.00604197
0.00630792
0.00648545
0.00671388
0.00692762
0.00723561
0.00741657
0.00759078
0.00805042
0.00819217
0.00833289
0.00897617
0.00908355
0.00919346
0.0100547
0.010133
0.0102148
0.0113237
0.0113809
0.0114391
0.0127729
0.0128148
0.0128544
0.014394
0.0144299
0.0144608
0.0162469
0.0162902
0.0163258
0.0183961
0.0184548
0.0185053
0.0208982
0.0209794
0.021053
0.0237799
0.0238891
0.0239925
0.0269398
0.027083
0.0272231
0.030051
0.0302422
0.030433
0.0325575
0.0328052
0.0330548
0.0339525
0.0342393
0.0345299
0.0340477
0.0343298
0.0346182
0.0330952
0.0333161
0.0335448
0.0316172
0.0317384
0.0318667
0.0299663
0.0299869
0.0300183
0.0283993
0.0282896
0.0281951
0.0269402
0.0267106
0.0264963
0.0252535
0.0249454
0.0246493
0.0227624
0.0224261
0.0220976
0.0184179
0.0181089
0.0178049
0.00960407
0.00946508
0.00932791
0.000110537
0.000260055
0.000393077
0.000504437
0.000603442
0.000691893
0.000773056
0.00084851
0.000919296
0.000986125
0.00104951
0.00110986
0.00116753
0.00122281
0.00127599
0.00132735
0.00137713
0.0014256
0.00147297
0.0015195
0.0015654
0.00161091
0.00165624
0.00170163
0.00174732
0.00179356
0.00184062
0.0018888
0.00193845
0.00198996
0.00204378
0.0021005
0.00216079
0.00222555
0.00229383
0.00236485
0.0024387
0.00251561
0.00259623
0.0026803
0.00276778
0.00285933
0.00295526
0.00305586
0.00316141
0.00327223
0.00338861
0.00351082
0.0036391
0.0037736
0.00391435
0.00406118
0.00421355
0.00437041
0.0045298
0.00468844
0.0048409
0.0049784
0.00508814
0.00515903
0.0051972
0.00520711
0.00519233
0.00513288
0.00500806
0.00482752
0.0045818
0.00428846
0.00396607
0.0036244
0.00327432
0.00291857
0.00260172
0.00230984
0.00203155
0.00175984
0.00148811
0.00120505
0.000895403
0.000514019
0.00042944
0.000796567
0.00100467
0.00118444
0.00137523
0.00157063
0.00176167
0.00194834
0.0021297
0.00230515
0.00247421
0.00263664
0.00279243
0.00294173
0.00308487
0.00322228
0.00335445
0.00348192
0.00360527
0.00372505
0.00384185
0.00395621
0.00406868
0.00417979
0.00429008
0.00440003
0.00451016
0.00462096
0.00473292
0.00484653
0.0049623
0.00508071
0.00520213
0.00532723
0.00545837
0.00559557
0.00573839
0.00588714
0.00604204
0.00620279
0.00637012
0.00654474
0.00672718
0.00691793
0.00711747
0.00732628
0.00754478
0.00777337
0.0080123
0.00826169
0.00852139
0.00879088
0.00906905
0.00935391
0.00964212
0.00992829
0.0102043
0.0104587
0.0106776
0.0108395
0.0109179
0.0109087
0.0108019
0.0105796
0.0102058
0.0097249
0.00913032
0.00847849
0.00780445
0.00712834
0.00647413
0.00584842
0.00518217
0.00448407
0.00377886
0.00310252
0.00249387
0.00199104
0.00156774
0.000846705
0.000656716
0.00125663
0.00153494
0.001802
0.0020899
0.00238068
0.00266236
0.00293195
0.00318818
0.00343114
0.00366146
0.00387997
0.00408756
0.00428508
0.00447336
0.00465322
0.00482542
0.00499071
0.00514982
0.00530345
0.00545231
0.00559705
0.00573835
0.00587682
0.00601311
0.00614781
0.00628153
0.00641485
0.00654836
0.00668264
0.00681826
0.00695578
0.00709573
0.00723865
0.00738504
0.00753747
0.00769583
0.00785971
0.00802917
0.0082046
0.00838643
0.00857514
0.00877117
0.00897494
0.0091868
0.00940705
0.00963586
0.00987326
0.0101191
0.0103728
0.0106337
0.0109001
0.0111699
0.0114399
0.0117055
0.0119601
0.0121948
0.0123982
0.0125562
0.0126469
0.012641
0.0125297
0.012301
0.0119454
0.0114576
0.0108406
0.0100642
0.00925964
0.00844141
0.00761674
0.00683612
0.00612989
0.00546226
0.00478193
0.00408587
0.00339048
0.00273417
0.00217119
0.00170225
0.000900051
0.000860623
0.00168631
0.00205882
0.0024147
0.00277688
0.00312991
0.00346322
0.00377625
0.00407043
0.00434793
0.00461082
0.00486082
0.00509926
0.00532716
0.00554531
0.00575442
0.00595511
0.00614799
0.00633366
0.00651273
0.00668579
0.00685348
0.00701639
0.00717516
0.00733039
0.0074827
0.00763268
0.00778095
0.00792808
0.00807468
0.00822133
0.00836859
0.00851704
0.00866723
0.0088197
0.008975
0.00913592
0.00930168
0.00947218
0.00964757
0.00982807
0.010014
0.0102055
0.010403
0.0106063
0.0108155
0.0110303
0.0112502
0.0114745
0.0117017
0.0119303
0.0121577
0.0123808
0.0125953
0.012796
0.0129761
0.0131266
0.0132368
0.0132936
0.0132799
0.0131654
0.0129351
0.0125822
0.0121036
0.0115062
0.0108017
0.0100024
0.00913309
0.0082149
0.00727024
0.006346
0.00554872
0.0048811
0.0042691
0.0036783
0.00309713
0.00253741
0.00203082
0.00157668
0.000827787
0.00106152
0.00211716
0.00258898
0.0030148
0.00342537
0.00380816
0.00416059
0.00448943
0.00479954
0.00509478
0.00537766
0.00564979
0.00591213
0.00616524
0.00640943
0.00664496
0.00687208
0.00709105
0.00730223
0.00750601
0.00770283
0.00789319
0.00807759
0.00825659
0.00843075
0.00860064
0.00876684
0.00892993
0.0090905
0.00924913
0.0094064
0.00956289
0.00971918
0.00987582
0.0100334
0.0101925
0.0103538
0.0105198
0.0106897
0.0108634
0.0110409
0.0112224
0.0114079
0.0115973
0.0117905
0.0119872
0.0121867
0.0123881
0.01259
0.0127905
0.0129873
0.0131772
0.013356
0.0135187
0.0136598
0.0137721
0.0138467
0.0138731
0.0138388
0.013729
0.0135279
0.0132201
0.0127935
0.0122358
0.0115625
0.0107937
0.00994378
0.00902136
0.00803664
0.00700009
0.0059581
0.00497239
0.00414155
0.00353156
0.00303607
0.00259531
0.00217786
0.00177813
0.00138503
0.000707256
0.00131608
0.00258133
0.00313109
0.00359663
0.00402305
0.00440879
0.00475678
0.00508554
0.0054007
0.0057064
0.00600445
0.00629553
0.00657969
0.00685667
0.00712613
0.00738774
0.00764128
0.00788667
0.00812393
0.00835323
0.00857482
0.00878903
0.00899627
0.009197
0.0093917
0.0095809
0.00976514
0.00994498
0.010121
0.0102937
0.0104638
0.0106317
0.0107982
0.0109637
0.0111289
0.0112943
0.0114605
0.011629
0.0118012
0.0119765
0.0121547
0.0123359
0.0125202
0.0127072
0.0128969
0.0130886
0.0132817
0.013475
0.0136668
0.0138552
0.0140373
0.0142097
0.014368
0.0145067
0.0146193
0.0146983
0.0147355
0.0147203
0.0146414
0.0144846
0.0142336
0.0138754
0.0134004
0.0128051
0.0120959
0.0112945
0.0104171
0.00947391
0.00847128
0.00739153
0.00624061
0.00506462
0.00395466
0.00307052
0.00250871
0.00213422
0.00182952
0.00152946
0.00118374
0.000607834
0.00166069
0.00318658
0.00370775
0.00416235
0.00456882
0.00492954
0.00525995
0.00558166
0.00589824
0.00621228
0.00652412
0.00683316
0.00713836
0.00743863
0.00773292
0.00802035
0.00830027
0.00857223
0.00883596
0.00909138
0.00933856
0.00957768
0.00980902
0.0100329
0.0102498
0.0104602
0.0106645
0.0108633
0.0110571
0.0112465
0.011432
0.0116144
0.0117941
0.0119718
0.0121481
0.0123236
0.0124989
0.0126746
0.0128533
0.0130348
0.0132191
0.0134061
0.0135959
0.0137884
0.0139834
0.0141804
0.0143789
0.0145778
0.0147755
0.0149701
0.0151591
0.015339
0.0155056
0.0156539
0.0157774
0.0158649
0.0159119
0.0159048
0.015837
0.0156969
0.0154609
0.0151135
0.014644
0.0140456
0.0133216
0.012493
0.0115963
0.0106207
0.00961346
0.00857926
0.00748662
0.00630937
0.00505861
0.00380793
0.00274115
0.00213357
0.00176718
0.00146952
0.00111479
0.000558541
0.00240363
0.00377754
0.00428084
0.00469935
0.00506076
0.00538217
0.00569307
0.00600712
0.00632521
0.0066475
0.00697275
0.0072991
0.00762458
0.00794732
0.0082657
0.00857836
0.00888425
0.00918258
0.00947282
0.00975468
0.010028
0.0102929
0.0105493
0.0107977
0.0110384
0.0112716
0.0114979
0.0117178
0.0119317
0.0121403
0.012344
0.0125436
0.0127397
0.0129328
0.0131237
0.013313
0.0135015
0.0136898
0.0138786
0.0140707
0.0142657
0.0144638
0.0146651
0.0148697
0.0150777
0.0152887
0.0155026
0.0157184
0.0159352
0.0161512
0.0163643
0.0165716
0.0167693
0.0169527
0.0171159
0.0172517
0.0173524
0.0174071
0.0174042
0.0173291
0.0171652
0.0168963
0.0165061
0.0159811
0.0153134
0.0145176
0.01361
0.0126246
0.011577
0.0105336
0.00950726
0.00849373
0.00747133
0.00639621
0.00521971
0.00398824
0.00304284
0.00256749
0.00217374
0.00186322
0.0033368
0.00433287
0.00480588
0.00517073
0.00548072
0.00577056
0.00606913
0.00637881
0.00669963
0.00703007
0.00736773
0.00770987
0.00805383
0.00839718
0.00873785
0.00907408
0.0094045
0.00972804
0.0100439
0.0103516
0.0106509
0.0109415
0.0112234
0.0114969
0.0117622
0.0120194
0.0122692
0.0125117
0.0127477
0.0129774
0.0132017
0.013421
0.013636
0.0138474
0.0140559
0.0142622
0.0144671
0.0146713
0.0148756
0.0150818
0.0152916
0.0155051
0.0157226
0.0159444
0.016171
0.0164025
0.0166388
0.0168797
0.0171245
0.0173722
0.0176212
0.0178692
0.0181133
0.0183496
0.0185732
0.0187781
0.018957
0.0191007
0.0191979
0.0192355
0.0191987
0.0190711
0.0188354
0.0184741
0.0179728
0.0173226
0.0165249
0.0155937
0.0145548
0.0134622
0.0123742
0.0113401
0.0104069
0.00960595
0.00894289
0.0084106
0.00802767
0.00795158
0.00834567
0.00911222
0.00417601
0.00485368
0.00526328
0.00557499
0.00584943
0.00612622
0.00641654
0.0067232
0.00704575
0.00738199
0.00772891
0.00808328
0.008442
0.00880226
0.00916164
0.00951809
0.00986997
0.010216
0.0105551
0.0108865
0.0112099
0.0115249
0.0118313
0.0121291
0.0124185
0.0126996
0.0129729
0.0132385
0.013497
0.0137488
0.0139945
0.0142347
0.01447
0.0147012
0.0149289
0.015154
0.0153773
0.0155996
0.0158219
0.016045
0.0162718
0.0165029
0.0167389
0.0169805
0.0172283
0.0174828
0.0177445
0.0180134
0.0182896
0.0185726
0.0188613
0.0191544
0.0194496
0.019744
0.0200337
0.020314
0.0205788
0.0208204
0.0210296
0.0211954
0.0213052
0.0213449
0.0212989
0.0211506
0.0208833
0.0204832
0.0199412
0.0192554
0.0184325
0.0174934
0.0164718
0.0154186
0.0144029
0.0135034
0.0127914
0.0123322
0.0121928
0.0124251
0.0129573
0.013863
0.00485694
0.00534074
0.00568252
0.00595718
0.00621507
0.00648075
0.00676316
0.00706524
0.00738648
0.00772455
0.00807623
0.00843808
0.00880676
0.00917923
0.00955283
0.00992528
0.0102947
0.0106596
0.0110187
0.0113711
0.0117161
0.0120532
0.0123822
0.0127029
0.0130153
0.0133195
0.0136156
0.013904
0.0141849
0.0144589
0.0147264
0.0149879
0.0152442
0.0154958
0.0157436
0.0159884
0.0162311
0.0164726
0.016714
0.0169563
0.0172007
0.0174502
0.0177055
0.0179673
0.0182367
0.0185145
0.0188015
0.0190983
0.0194053
0.0197227
0.0200499
0.0203863
0.0207305
0.0210804
0.0214331
0.0217848
0.0221308
0.022465
0.02278
0.0230671
0.0233163
0.0235164
0.023655
0.023719
0.0236953
0.0235718
0.0233393
0.0229931
0.0225354
0.0219762
0.0213279
0.020617
0.0198834
0.0191803
0.0186083
0.0182479
0.0181775
0.0184217
0.0189804
0.019841
0.0054479
0.0058153
0.00610651
0.00635839
0.00660194
0.00685596
0.00712866
0.00742312
0.00773903
0.0080742
0.00842551
0.00878951
0.00916282
0.00954228
0.00992508
0.0103088
0.0106913
0.011071
0.0114463
0.0118162
0.0121799
0.0125365
0.0128858
0.0132274
0.013561
0.0138868
0.0142047
0.0145148
0.0148176
0.0151132
0.0154022
0.0156849
0.0159621
0.0162344
0.0165025
0.0167673
0.0170297
0.0172907
0.0175513
0.0178128
0.0180761
0.0183441
0.0186183
0.0188998
0.0191898
0.0194896
0.0198001
0.0201225
0.0204576
0.0208059
0.0211675
0.0215423
0.0219296
0.022328
0.0227354
0.0231489
0.0235649
0.0239784
0.0243836
0.0247734
0.02514
0.0254745
0.0257671
0.0260079
0.026187
0.0262956
0.0263267
0.0262777
0.0261509
0.0259502
0.0256845
0.0253703
0.0250307
0.0246937
0.024398
0.0241808
0.0240846
0.0241138
0.0243405
0.0247537
0.00600343
0.00629896
0.00655532
0.00679073
0.00702163
0.00726398
0.00752537
0.00780926
0.00811588
0.0084435
0.00878935
0.00915021
0.0095228
0.00990397
0.0102909
0.0106809
0.0110719
0.011462
0.0118496
0.0122334
0.0126123
0.0129855
0.0133523
0.0137123
0.0140651
0.0144106
0.0147486
0.0150793
0.0154027
0.0157191
0.0160288
0.0163322
0.0166299
0.0169225
0.0172106
0.0174952
0.0177771
0.0180574
0.0183372
0.0186176
0.0189001
0.0191858
0.0194781
0.0197781
0.0200872
0.0204068
0.0207384
0.0210832
0.0214424
0.0218169
0.0222074
0.0226142
0.023037
0.023475
0.0239269
0.0243903
0.0248625
0.0253393
0.0258159
0.0262865
0.0267444
0.0271821
0.0275917
0.0279647
0.0282929
0.0285689
0.0287863
0.028942
0.0290335
0.0290605
0.0290262
0.0289368
0.0288
0.0286241
0.0284344
0.0282489
0.02809
0.0279673
0.0279434
0.0280225
0.00655651
0.00680607
0.00703715
0.00725866
0.00748007
0.00771149
0.00796091
0.00823214
0.00852629
0.00884242
0.00917836
0.00953133
0.0098983
0.0102763
0.0106624
0.0110541
0.0114491
0.0118454
0.0122412
0.012635
0.0130257
0.0134121
0.0137936
0.0141693
0.0145389
0.014902
0.0152583
0.0156077
0.0159503
0.0162862
0.0166155
0.0169386
0.017256
0.0175682
0.0178758
0.0181796
0.0184806
0.0187796
0.0190779
0.0193767
0.0196772
0.0199808
0.0202901
0.0206071
0.0209334
0.0212706
0.0216203
0.021984
0.0223631
0.0227589
0.0231724
0.0236042
0.0240545
0.024523
0.0250088
0.0255101
0.0260245
0.0265487
0.0270785
0.0276086
0.0281332
0.0286456
0.0291384
0.029604
0.0300345
0.0304225
0.0307616
0.0310458
0.0312699
0.0314301
0.0315244
0.0315511
0.0315083
0.0313999
0.0312433
0.031057
0.0308526
0.0306408
0.0304418
0.0302784
0.00713507
0.00735149
0.0075614
0.00776978
0.00798262
0.00820393
0.00844129
0.00869876
0.00897835
0.00928014
0.00960276
0.00994402
0.0103013
0.0106718
0.011053
0.0114421
0.0118369
0.0122353
0.0126354
0.0130357
0.0134346
0.0138311
0.014224
0.0146127
0.0149964
0.0153746
0.015747
0.0161132
0.0164732
0.0168269
0.0171744
0.0175159
0.0178518
0.0181826
0.0185087
0.0188309
0.0191501
0.0194672
0.0197832
0.0200995
0.0204172
0.0207379
0.021063
0.0213957
0.0217374
0.0220899
0.0224548