/*--------------------------------*- C++ -*----------------------------------*\
| =========                 |                                                 |
| \\      /  F ield         | OpenFOAM: The Open Source CFD Toolbox           |
|  \\    /   O peration     | Version:  v2012                                 |
|   \\  /    A nd           | Website:  www.openfoam.com                      |
|    \\/     M anipulation  |                                                 |
\*---------------------------------------------------------------------------*/
FoamFile
{
    version     2.0;
    format      ascii;
    class       volScalarField;
    location    "593";
    object      nut;
}
// * * * * * * * * * * * * * * * * * * * * * * * * * * * * * * * * * * * * * //

dimensions      [0 2 -1 0 0 0 0];


internalField   nonuniform List<scalar> 
6598
(
0.00285894
0.010064
0.0120142
0.0123405
0.0122863
0.0122863
0.0123405
0.0120142
0.010064
0.00285894
0.00215739
0.00827874
0.0110392
0.0117919
0.0118873
0.0118873
0.0117919
0.0110392
0.00827874
0.00215739
0.00173173
0.0071361
0.0101533
0.0112281
0.011487
0.011487
0.0112281
0.0101533
0.0071361
0.00173173
0.00145204
0.00633046
0.00938813
0.0106764
0.0110752
0.0110752
0.0106764
0.00938814
0.00633047
0.00145204
0.00125616
0.00572529
0.00873479
0.0101524
0.010657
0.0106571
0.0101524
0.00873481
0.00572531
0.00125616
0.00111179
0.00524943
0.0081748
0.00966259
0.0102408
0.0102408
0.00966261
0.00817484
0.00524946
0.00111179
0.00100094
0.00486205
0.00769023
0.00920837
0.00983384
0.00983386
0.00920841
0.00769028
0.0048621
0.00100094
0.000912986
0.00453807
0.00726618
0.00878847
0.00944133
0.00944135
0.00878853
0.00726626
0.00453815
0.00091299
0.000841314
0.00426128
0.00689099
0.00840052
0.00906642
0.00906645
0.00840061
0.00689111
0.00426139
0.00084132
0.00078162
0.00402072
0.0065557
0.00804181
0.00871073
0.00871079
0.00804194
0.00655588
0.0040209
0.000781629
0.000730999
0.00380876
0.00625343
0.00770962
0.00837477
0.00837485
0.00770982
0.00625371
0.00380902
0.000731012
0.000687421
0.00361987
0.00597889
0.00740145
0.00805832
0.00805844
0.00740175
0.00597931
0.00362026
0.000687439
0.000649428
0.00344998
0.00572793
0.00711497
0.0077607
0.00776088
0.00711542
0.00572855
0.00345055
0.000649454
0.000615947
0.00329597
0.00549728
0.00684814
0.00748096
0.00748123
0.00684881
0.0054982
0.00329682
0.000615985
0.000586168
0.00315544
0.0052843
0.00659909
0.00721806
0.00721845
0.00660009
0.00528566
0.00315668
0.000586222
0.000559472
0.00302646
0.00508681
0.00636617
0.00697086
0.00697142
0.00636768
0.00508881
0.00302827
0.000559549
0.000535371
0.00290747
0.004903
0.0061479
0.00673824
0.00673904
0.00615009
0.00490599
0.00291008
0.000535481
0.000513481
0.00279718
0.00473134
0.00594293
0.00651914
0.00652025
0.00594606
0.00473576
0.00280087
0.000513635
0.00049349
0.0026945
0.0045705
0.00575007
0.00631254
0.00631411
0.00575451
0.00457682
0.0026998
0.000493705
0.000475147
0.00259855
0.00441945
0.0055684
0.00611768
0.00611991
0.00557472
0.00442841
0.00260484
0.000475438
0.000458665
0.00251048
0.00428004
0.00540024
0.00593717
0.00594036
0.00540966
0.00429615
0.00254293
0.000523187
0.00044338
0.00242738
0.00414823
0.00524116
0.00576651
0.00577113
0.00525544
0.00417643
0.00249437
0.000587416
0.000429147
0.00234852
0.00402283
0.00508975
0.00560428
0.00561087
0.00511094
0.004068
0.00246135
0.000667966
0.000415847
0.00227338
0.00390315
0.00494531
0.00544978
0.00545887
0.00497519
0.00396811
0.00245599
0.000770394
0.000403376
0.00220152
0.00378856
0.00480715
0.00530231
0.00531411
0.00484606
0.00388077
0.00247655
0.000901009
0.000391644
0.00213252
0.00367848
0.00467462
0.00516123
0.00517625
0.00472261
0.00380917
0.00251183
0.00106042
0.000380568
0.00206596
0.00357225
0.00454699
0.00502588
0.00504509
0.0046093
0.00374703
0.00255155
0.00124545
0.000369742
0.00199964
0.00346658
0.00442054
0.00489254
0.00491743
0.00450342
0.00369298
0.00259506
0.00145627
0.000359474
0.00193519
0.00336389
0.00429804
0.00476419
0.00479631
0.00440685
0.00364827
0.00264394
0.00167733
0.000349707
0.00187239
0.00326395
0.0041794
0.00464087
0.00468182
0.00431908
0.00361245
0.00269971
0.00189004
0.000340385
0.00181095
0.00316627
0.00406409
0.00452214
0.00457354
0.00423938
0.00358506
0.00276239
0.00209143
0.000331456
0.00175051
0.00307035
0.00395161
0.00440754
0.00447102
0.00416706
0.00356554
0.00283034
0.00227892
0.000322871
0.00169072
0.00297569
0.00384141
0.00429656
0.00437372
0.00410147
0.00355308
0.00290064
0.00245056
0.000314586
0.00163127
0.00288176
0.0037329
0.00418863
0.00428108
0.00404189
0.00354661
0.00297155
0.00260523
0.000306556
0.00157183
0.00278799
0.00362547
0.00408316
0.00419246
0.00398754
0.00354504
0.00304127
0.00274253
0.000298739
0.00151211
0.00269383
0.00351845
0.00397944
0.00410713
0.00393755
0.00354717
0.00310817
0.00286262
0.000291093
0.00145186
0.00259871
0.00341112
0.00387673
0.00402429
0.00389094
0.00355169
0.00317091
0.00296612
0.000283578
0.00139085
0.0025021
0.00330276
0.00377419
0.00394299
0.0038466
0.00355731
0.00322853
0.00305409
0.000276154
0.00132896
0.00240348
0.0031926
0.00367091
0.00386222
0.00380335
0.00356272
0.00328041
0.00312803
0.000268781
0.00126613
0.00230245
0.00307988
0.00356591
0.0037808
0.00375987
0.00356664
0.00332632
0.00318979
0.000261418
0.00120237
0.00219867
0.00296383
0.0034581
0.00369746
0.00371474
0.00356778
0.00336619
0.00324153
0.000254026
0.00113777
0.0020919
0.0028437
0.00334635
0.00361073
0.00366636
0.00356481
0.00340005
0.00328551
0.000246564
0.00107248
0.00198202
0.0027188
0.00322938
0.00351898
0.00361295
0.0035562
0.00342771
0.00332379
0.000238989
0.00100676
0.00186904
0.00258845
0.00310587
0.00342034
0.00355239
0.0035401
0.00344848
0.00335782
0.000231256
0.000940871
0.00175308
0.00245205
0.00297436
0.00331271
0.00348223
0.00351415
0.00346084
0.00338784
0.000223316
0.000875076
0.00163434
0.00230909
0.00283338
0.00319373
0.00339953
0.00347527
0.00346217
0.00341239
0.000215113
0.00080962
0.00151313
0.00215915
0.00268141
0.00306081
0.00330091
0.00341965
0.0034485
0.00342791
0.00020658
0.000744701
0.00138976
0.00200197
0.00251704
0.00291128
0.00318261
0.00334271
0.00341459
0.00342861
0.000197632
0.000680462
0.00126461
0.00183749
0.00233912
0.0027426
0.00304074
0.00323938
0.00335413
0.00340682
0.000188155
0.000616989
0.00113813
0.00166598
0.00214701
0.00255276
0.00287176
0.00310458
0.00326036
0.00335369
0.00017799
0.000554287
0.00101091
0.00148827
0.00194101
0.00234088
0.00267328
0.00293413
0.00312699
0.00326036
0.000166889
0.0004923
0.000883959
0.00130623
0.00172309
0.00210821
0.00244513
0.00272601
0.00294967
0.00311948
0.000144634
0.000431362
0.000759071
0.00112354
0.00149801
0.00185947
0.00219097
0.002482
0.00272766
0.00292662
9.68562e-05
0.00037792
0.000642714
0.000947525
0.00127439
0.00160387
0.00191948
0.00220907
0.00246408
0.00267992
0.00010946
0.000333422
0.000549325
0.000794403
0.00106838
0.00135715
0.00164533
0.00191861
0.00216812
0.00238893
9.8868e-05
0.000308783
0.00048928
0.00068294
0.000903032
0.00114291
0.00138921
0.00163161
0.00186192
0.00207404
7.34737e-05
0.000302838
0.000456811
0.000618472
0.000793312
0.000981384
0.0011794
0.00138089
0.00157901
0.00176751
6.50258e-05
0.00028612
0.000449379
0.000587961
0.000701733
0.000814112
0.000937764
0.00107137
0.00120933
0.00134523
6.52625e-05
0.000213321
0.000423782
0.000546964
0.000661631
0.000689025
0.000737729
0.00081651
0.000915589
0.00101718
6.90789e-05
0.000115056
0.000141376
0.000172431
0.00020057
0.000222721
0.00023807
0.000250609
0.000260983
0.000269409
0.000129477
0.000156251
0.000155097
0.000155575
0.000154785
0.000151591
0.000144471
0.000137529
0.000130957
0.000124643
0.000118486
0.00011265
0.00010715
0.000101952
9.69601e-05
9.22373e-05
8.78787e-05
8.36952e-05
7.95383e-05
7.52706e-05
7.07313e-05
6.56971e-05
4.55643e-05
4.74778e-05
3.43091e-05
0.000230568
0.000461275
0.0006619
0.000748705
0.000777153
0.000775347
0.000696725
0.000634994
0.000624594
0.000618274
0.000576769
0.000538907
0.000504145
0.000472202
0.000441842
0.000405292
0.000360206
0.000311711
0.000263832
0.00021928
0.000180111
0.000147646
0.000123294
9.43179e-05
4.16312e-05
0.000374285
0.000603702
0.000803702
0.000943451
0.000991649
0.000965202
0.000783045
0.000664687
0.000616327
0.000616997
0.000656241
0.00070264
0.000669877
0.000641227
0.000614284
0.000582392
0.000536784
0.000478913
0.000412157
0.000341762
0.000274103
0.000215206
0.000169206
0.000133069
3.54157e-05
0.000624127
0.000633925
0.000862123
0.000987475
0.00102915
0.00101144
0.000904264
0.00075463
0.000656894
0.000625017
0.000645505
0.000669915
0.000645117
0.0006317
0.000623886
0.000613139
0.000587912
0.000545145
0.000485082
0.000411908
0.000333608
0.00025983
0.00019861
0.000147732
4.49121e-05
0.000956046
0.000833899
0.00100631
0.00104874
0.00104578
0.00100143
0.000935902
0.000863944
0.000755285
0.000674808
0.000630626
0.000577849
0.000551493
0.000549609
0.000561924
0.000574341
0.000572062
0.000547951
0.000501224
0.000435395
0.000358219
0.000280517
0.000212337
0.000151944
4.3618e-05
0.00121577
0.00115351
0.00122426
0.00117812
0.00111261
0.00102254
0.000926845
0.000837135
0.000748682
0.000658544
0.000571426
0.000502351
0.000465564
0.000464212
0.000488692
0.000517607
0.000530465
0.000518226
0.000482004
0.000425184
0.000354645
0.000280491
0.000212548
0.000148437
4.15868e-05
0.00142771
0.00154059
0.00146528
0.00134584
0.00122187
0.00108572
0.000960968
0.000852897
0.000749073
0.00064314
0.000543177
0.000463535
0.000416687
0.00040498
0.000421287
0.000448308
0.000465587
0.000459819
0.000432229
0.000386026
0.000327162
0.000263702
0.000202512
0.000139535
3.94917e-05
0.00163752
0.00178426
0.00170907
0.00153999
0.00136016
0.00117903
0.00102431
0.000899042
0.00077975
0.000657923
0.000544378
0.000454081
0.000394912
0.000366585
0.000364407
0.000376637
0.000387016
0.000382472
0.000362182
0.000327929
0.000284087
0.000236372
0.000189186
0.000123497
4.4034e-05
0.00184106
0.0020077
0.0019496
0.00175492
0.00152451
0.00129977
0.00111446
0.00097327
0.000840155
0.000702027
0.000573336
0.000471012
0.000398675
0.000351901
0.000326506
0.000316883
0.000314287
0.00030856
0.000294476
0.0002722
0.000244397
0.000214473
0.000167203
0.000135472
0.000140468
0.00203673
0.00221554
0.00218095
0.0019806
0.00170154
0.00143633
0.00122654
0.00107232
0.000931015
0.000778888
0.000634053
0.000518366
0.000434686
0.000375188
0.000333204
0.000304933
0.000288302
0.00028064
0.000272416
0.000262885
0.000253794
0.000247769
0.000247458
0.000237613
0.000198254
0.00222307
0.00240758
0.00239299
0.0021873
0.00188025
0.0015831
0.00135356
0.00119482
0.00105419
0.000895077
0.000735683
0.000604691
0.000509453
0.000442844
0.00039666
0.000365321
0.000346018
0.000337714
0.000333988
0.000333312
0.000335788
0.000341641
0.000344405
0.000360162
0.000392856
0.00239773
0.00258281
0.00258433
0.00238088
0.00206005
0.00173678
0.00149208
0.00133623
0.0012083
0.00105495
0.000888807
0.000742997
0.000631833
0.000552886
0.000499543
0.000465316
0.00044546
0.000436445
0.000432945
0.000434215
0.000440503
0.000453189
0.000475853
0.000516454
0.000584306
0.00255898
0.00273997
0.00275454
0.00256302
0.00224076
0.00189465
0.00163725
0.00148902
0.00138603
0.00123065
0.00109795
0.000948318
0.000824814
0.000730245
0.000662925
0.000618901
0.000594361
0.000581444
0.00057901
0.000585974
0.000603303
0.000633688
0.000682888
0.000759691
0.000875247
0.00270472
0.00287838
0.00290386
0.00272996
0.00240814
0.00205459
0.00178563
0.0016449
0.00157492
0.00132311
0.00119505
0.00115515
0.0010981
0.0010002
0.000924902
0.000871147
0.000838183
0.000818346
0.000814337
0.000826779
0.000857858
0.000909387
0.000985173
0.00107431
0.00114076
0.00283343
0.00299808
0.00303394
0.00288189
0.00257028
0.00222068
0.00193733
0.00179746
0.00176047
0.00157461
0.00134523
0.00126587
0.00124879
0.00125357
0.00126245
0.00121398
0.00117171
0.00114781
0.00114396
0.00116125
0.00116447
0.00116749
0.00120534
0.00128977
0.00142705
0.00294434
0.00309902
0.00314491
0.0030182
0.00272844
0.00238447
0.00209727
0.00194458
0.00192803
0.00195574
0.0016786
0.00153517
0.00148275
0.00145935
0.00144603
0.00143124
0.00141184
0.00138968
0.0013704
0.00136378
0.00138262
0.00142879
0.00150387
0.00161732
0.00176501
0.0030374
0.00318126
0.00323659
0.00313761
0.00288345
0.00254942
0.00225826
0.00209178
0.00207118
0.00213693
0.00220225
0.00202166
0.00192402
0.00187256
0.00183162
0.00179872
0.00177309
0.00175523
0.00174692
0.00175373
0.00178154
0.00183406
0.00191385
0.00202041
0.00214715
0.00311323
0.00324518
0.00330897
0.00323929
0.00302782
0.0027181
0.00242322
0.0022366
0.00219663
0.00227033
0.00237973
0.00246978
0.00252023
0.00249887
0.00244224
0.00239881
0.00236583
0.00234178
0.00232811
0.00232566
0.00233601
0.00236393
0.00241253
0.00248358
0.00257564
0.00317312
0.00329162
0.00336236
0.00332158
0.00315496
0.00288897
0.00259653
0.00238791
0.00231278
0.00236453
0.00248524
0.00261228
0.0027197
0.00279679
0.00284733
0.0028842
0.00291897
0.00295938
0.00301017
0.00298994
0.00296205
0.00294676
0.00295061
0.00297878
0.00303274
0.00321904
0.00332197
0.00339687
0.00338258
0.00326073
0.00304554
0.00278477
0.0025569
0.00244174
0.00245166
0.00255351
0.00269233
0.00282749
0.00294686
0.0030483
0.00313321
0.0032087
0.00328179
0.00335705
0.00343785
0.00352505
0.00349034
0.00345528
0.0034484
0.00347274
0.00325366
0.00333849
0.00341348
0.00342166
0.00334151
0.00317876
0.00296392
0.00274943
0.00259858
0.00255778
0.00261752
0.00273874
0.00288012
0.00301683
0.00314115
0.00325403
0.00335804
0.00345579
0.00354914
0.00364017
0.00373016
0.00381954
0.00385259
0.00382771
0.00382809
0.00328025
0.00334446
0.00341447
0.00343939
0.0033953
0.00328228
0.00311837
0.00293791
0.00278534
0.00270102
0.00270754
0.0027885
0.00291073
0.00304701
0.00318028
0.00330443
0.00341923
0.00352638
0.00362748
0.00372339
0.00381463
0.0039015
0.00398397
0.00405141
0.00405084
0.00330243
0.00334421
0.00340374
0.00343808
0.00342274
0.00335277
0.00323831
0.00310069
0.0029697
0.00287575
0.0028415
0.00287237
0.00295628
0.00307353
0.00320072
0.00332698
0.00344785
0.00356193
0.00366886
0.00376855
0.00386101
0.00394627
0.00402456
0.00409624
0.00413151
0.00332363
0.00334277
0.00338682
0.00342243
0.00342665
0.00339097
0.00331945
0.00322539
0.00312735
0.00304623
0.00300061
0.00300088
0.00304698
0.00312978
0.00323514
0.00335066
0.003468
0.00358224
0.00369052
0.00379112
0.00388342
0.00396731
0.00403697
0.00406176
0.00408618
0.00334634
0.00334507
0.0033704
0.00339949
0.00341313
0.00340135
0.0033637
0.00330722
0.00324381
0.00318708
0.00314985
0.00314203
0.00316783
0.00322491
0.00330599
0.00340223
0.00350557
0.00360966
0.00371047
0.00374225
0.00374593
0.00376713
0.00380075
0.00383777
0.00387403
0.00337116
0.00335471
0.00336109
0.00337783
0.00339124
0.00339209
0.0033774
0.00334984
0.00331598
0.00328444
0.00326418
0.00326261
0.0032843
0.00332965
0.00339474
0.00347325
0.0035587
0.00351754
0.00347239
0.00345512
0.00345991
0.0034798
0.00350956
0.00354527
0.00358344
0.00339589
0.00337241
0.00336351
0.0033657
0.00337159
0.00337461
0.00337129
0.00336177
0.00334912
0.0033384
0.00333521
0.00334457
0.00336994
0.0034121
0.00346848
0.00348398
0.00337828
0.00329464
0.00324313
0.00321858
0.00321298
0.00322161
0.00324153
0.00326975
0.00330344
0.00341504
0.00339475
0.00337815
0.00336824
0.00336357
0.00336121
0.00335896
0.00335637
0.00335476
0.00335672
0.00336542
0.00338397
0.00341458
0.00345755
0.00351021
0.00336015
0.00323104
0.0031397
0.0030775
0.00303937
0.00302104
0.00301844
0.00302802
0.00304705
0.00307325
0.00342
0.00341367
0.00339963
0.00338463
0.00337154
0.00336107
0.00335349
0.00334913
0.00334887
0.00335413
0.00336669
0.00338827
0.00342013
0.00346222
0.00351218
0.00332898
0.00317045
0.00305904
0.00297887
0.00292348
0.00288927
0.00287258
0.00286982
0.00287797
0.00289474
0.00339983
0.00341704
0.00341651
0.00340618
0.00339133
0.00337585
0.00336215
0.00335197
0.00334674
0.00334781
0.00335647
0.0033738
0.0034005
0.00343652
0.00348042
0.00345079
0.003245
0.00309068
0.00298105
0.00290342
0.00284827
0.00281174
0.00279098
0.00278292
0.00278533
0.00334274
0.0033903
0.00341221
0.00341631
0.00340931
0.0033963
0.00338117
0.00336689
0.00335581
0.00334977
0.00335024
0.0033583
0.0033746
0.00339926
0.00343175
0.00347046
0.00351258
0.00330625
0.00314319
0.0030252
0.0029392
0.00287668
0.00283274
0.0028034
0.00278623
0.00323774
0.0033177
0.00336758
0.00339441
0.00340441
0.00340289
0.00339427
0.00338221
0.0033697
0.00335913
0.00335239
0.00335088
0.00335554
0.00336683
0.0033848
0.00340898
0.00343839
0.00347114
0.00350562
0.00335262
0.00321666
0.00311479
0.0030391
0.00298294
0.00294256
0.00307481
0.00318589
0.00326575
0.00331978
0.00335317
0.00337069
0.0033766
0.00337462
0.00336796
0.00335928
0.00335078
0.00334417
0.00334076
0.00334141
0.00334661
0.00335654
0.00337105
0.00338965
0.00341165
0.00343582
0.00346139
0.00348764
0.0034404
0.00334818
0.00327715
0.00285082
0.0029881
0.00309563
0.00317704
0.00323618
0.00327687
0.00330276
0.00331719
0.00332321
0.00332343
0.00332015
0.00331522
0.00331018
0.00330619
0.00330409
0.00330446
0.00330763
0.00331371
0.00332263
0.00333415
0.00334793
0.00336358
0.00338047
0.00339806
0.00341595
0.00257215
0.00272727
0.0028562
0.00296085
0.00304366
0.0031073
0.00315456
0.00318816
0.00321069
0.00322454
0.00323184
0.00323443
0.0032339
0.00323153
0.00322839
0.00322527
0.00322279
0.00322137
0.00322129
0.00322272
0.0032257
0.00323018
0.00323603
0.00324309
0.00325115
0.00225707
0.00241852
0.0025586
0.00267782
0.00277736
0.00285878
0.00292392
0.00297477
0.00301333
0.00304155
0.00306125
0.00307408
0.00308151
0.00308484
0.00308514
0.00308331
0.0030801
0.00307609
0.00307175
0.00306743
0.0030634
0.00305983
0.00305684
0.0030545
0.00305287
0.00192158
0.00206574
0.00221442
0.00234473
0.0024488
0.00253733
0.00261135
0.00267204
0.00272075
0.00275889
0.00278782
0.00280887
0.00282329
0.00283218
0.00283655
0.00283726
0.00283508
0.00283063
0.00282446
0.002817
0.00280863
0.00279964
0.00279028
0.00278074
0.00277126
0.00147413
0.00160453
0.00173994
0.00188383
0.00203968
0.00213412
0.00220175
0.00225797
0.00230369
0.00233988
0.00236751
0.00238756
0.00240097
0.00240864
0.00241139
0.00240997
0.00240506
0.00239725
0.00238709
0.00237502
0.00236143
0.00234668
0.00233105
0.0023148
0.00229824
0.00111777
0.00122632
0.00134137
0.00141821
0.00146633
0.00150661
0.00153928
0.00156481
0.00158376
0.00159671
0.00160427
0.00160704
0.00160563
0.0016006
0.00159249
0.0015818
0.00156898
0.00155445
0.00153856
0.00152164
0.00150396
0.00148575
0.00146723
0.00144857
0.00142998
0.000276093
0.000281826
0.000286801
0.000290978
0.00029439
0.000297111
0.000299198
0.000300703
0.000301675
0.000302163
0.000302215
0.000301876
0.000301192
0.000300204
0.000298953
0.000297475
0.000295807
0.000293979
0.000292021
0.000289958
0.000287813
0.000285607
0.000283356
0.000281077
0.000278782
3.8956e-05
5.44416e-05
6.50586e-05
0.000138769
0.000126864
0.000244574
0.000239125
0.000341068
0.000437053
0.000453063
0.000551677
0.000728747
0.000701231
0.00086578
0.00109532
0.00102841
0.00117605
0.00139888
0.00129288
0.00148931
0.00171044
0.00160391
0.00179057
0.00199404
0.001927
0.00209337
0.00227953
0.00228416
0.00243018
0.00259738
0.0026837
0.00280576
0.00294962
0.00310958
0.00320483
0.00332196
0.00352338
0.00359415
0.00368453
0.003858
0.00390865
0.00397471
0.00406525
0.00409972
0.00414672
0.0041485
0.00417411
0.00420885
0.00410995
0.00413573
0.00416646
0.00390607
0.00393722
0.00397182
0.00361965
0.00365497
0.00369299
0.00333739
0.00337146
0.00340837
0.00310149
0.00313131
0.00316452
0.00291515
0.00293878
0.00296642
0.00279362
0.00280734
0.00282593
0.0027775
0.00277661
0.00278166
0.00291396
0.00289532
0.00288337
0.0032252
0.00318736
0.00315821
0.00343209
0.0034482
0.00346445
0.00325894
0.00326731
0.00327622
0.00305179
0.0030513
0.00305126
0.0027627
0.00275441
0.0027462
0.00228319
0.00226819
0.00225308
0.00141355
0.00139736
0.00138133
0.000276762
0.000274752
0.000272754
2.54449e-05
4.39741e-05
5.40634e-05
5.57309e-05
6.69858e-05
7.17273e-05
7.58177e-05
7.94316e-05
8.26785e-05
8.5631e-05
8.83403e-05
9.08448e-05
9.31748e-05
9.53551e-05
9.74067e-05
9.93476e-05
0.000101194
0.000102959
0.000104656
0.000106296
0.000107889
0.000109446
0.000110975
0.000112486
0.000113986
0.000115484
0.00011699
0.000118511
0.000120058
0.000121643
0.000123277
0.000124976
0.000126757
0.000128642
0.000130601
0.000132607
0.000134662
0.000136769
0.000138943
0.000141175
0.00014346
0.000145814
0.00014824
0.000150741
0.000153323
0.000155987
0.000158736
0.000161574
0.000164499
0.000167511
0.000170607
0.000173777
0.000177007
0.000180272
0.000183529
0.000186715
0.000189727
0.000192403
0.000194511
0.000195862
0.000196585
0.000196772
0.000196493
0.000195365
0.000192975
0.000189464
0.000184579
0.000178573
0.00017173
0.000164166
0.000156036
0.000147316
0.00013909
0.000131056
0.000122908
0.000114394
0.000105192
8.68881e-05
8.15971e-05
5.48701e-05
4.50824e-05
0.00012802
0.000148359
0.000168467
0.000193654
0.000222457
0.00025315
0.00028502
0.000317391
0.000349708
0.000381512
0.000412459
0.000442306
0.000470903
0.000498178
0.000524117
0.00054875
0.000572137
0.000594357
0.0006155
0.00063566
0.000654929
0.000673395
0.00069114
0.000708236
0.000724745
0.000740717
0.000756193
0.000771194
0.000785726
0.000799776
0.000813306
0.000826162
0.000838321
0.000850829
0.000863939
0.00087742
0.000891282
0.000905508
0.00092003
0.000934884
0.000950138
0.000965811
0.000981912
0.000998444
0.0010154
0.00103277
0.00105053
0.00106863
0.00108701
0.00110556
0.00112414
0.00114255
0.00116048
0.00117751
0.00119303
0.00120617
0.00121575
0.00122022
0.00121744
0.00120684
0.00119045
0.00116786
0.00113773
0.00109899
0.00105505
0.00100451
0.000951238
0.00089616
0.000838221
0.000778554
0.00071521
0.000623945
0.000521894
0.000421802
0.00033212
0.00025818
0.000202965
0.000161701
6.33028e-05
5.575e-05
0.000190192
0.000242174
0.00029562
0.00035408
0.000420616
0.000492125
0.000566248
0.000640993
0.000714808
0.000786553
0.000855464
0.000921086
0.000983197
0.00104175
0.00109682
0.00114855
0.00119713
0.00124278
0.00128572
0.00132617
0.00136435
0.00140044
0.00143462
0.00146706
0.00149791
0.00152729
0.00155531
0.00158206
0.00160763
0.00163209
0.00165547
0.00167781
0.00169916
0.00171954
0.00174039
0.00176162
0.0017829
0.00180413
0.00182524
0.0018462
0.00186698
0.00188751
0.00190771
0.00192747
0.00194665
0.00196508
0.00198254
0.00199879
0.00201351
0.00202632
0.00203677
0.00204431
0.00204831
0.00204796
0.00204233
0.00203029
0.00201052
0.00198158
0.00187403
0.00167934
0.00151806
0.00139079
0.00129411
0.00122689
0.00118676
0.00116572
0.00118093
0.00122456
0.00115781
0.00108199
0.00100329
0.000902184
0.000774542
0.000632125
0.000490903
0.000367089
0.000271761
0.000200453
6.52665e-05
5.93221e-05
0.000238079
0.00033446
0.000447694
0.000546753
0.000656211
0.000771508
0.000888868
0.00100524
0.00111841
0.00122691
0.00132991
0.00142701
0.00151812
0.00160337
0.001683
0.00175732
0.00182668
0.00189142
0.0019519
0.00200844
0.00206135
0.00211091
0.00215738
0.002201
0.00224198
0.0022805
0.00231674
0.00235084
0.00238294
0.00241313
0.00244152
0.00246818
0.00249316
0.00251652
0.00253825
0.00256
0.0025811
0.00260126
0.00262032
0.00263812
0.00265451
0.00266934
0.00268239
0.00269344
0.0027022
0.00270835
0.00271152
0.00271128
0.00270715
0.00269857
0.00268494
0.00266557
0.00263974
0.00260668
0.0025656
0.00251562
0.0024559
0.00238566
0.00230415
0.00206934
0.00182817
0.00162818
0.001462
0.00133109
0.00123353
0.00116707
0.00113388
0.001134
0.00115956
0.0010961
0.00102353
0.000941073
0.000826999
0.000689274
0.000543104
0.000407217
0.000297018
0.000209129
6.25917e-05
7.08793e-05
0.00028615
0.000415367
0.000577031
0.000755956
0.000916982
0.00107295
0.0012287
0.00138073
0.00152673
0.00166533
0.00179589
0.00191824
0.00203252
0.00213904
0.00223822
0.00233051
0.00241637
0.00249624
0.00257056
0.00263972
0.00270409
0.00276401
0.00281979
0.0028717
0.00292
0.0029649
0.00300659
0.00304526
0.00308104
0.00311407
0.00314445
0.00317225
0.00319753
0.00322034
0.00324067
0.00325862
0.00327555
0.00329075
0.00330385
0.00331461
0.00332278
0.00332814
0.00333039
0.00332924
0.00332431
0.00331521
0.00330146
0.00328255
0.0032579
0.00322688
0.0031888
0.00314294
0.00308855
0.00302494
0.00295147
0.00286749
0.00277244
0.00266593
0.00254771
0.00241795
0.00227667
0.00210315
0.00183856
0.00162018
0.001439
0.00128709
0.00117024
0.00108077
0.001027
0.00100389
0.000915841
0.00083559
0.000746091
0.000632638
0.000509682
0.00039119
0.000288776
0.000198322
5.78556e-05
5.20077e-05
0.000329426
0.000487548
0.000690275
0.000927002
0.00119361
0.00138414
0.00157138
0.00175195
0.00192379
0.00208586
0.00223785
0.00237986
0.00251225
0.00263551
0.00275017
0.00285677
0.00295585
0.00304792
0.00313344
0.00321284
0.00328653
0.00335487
0.00341819
0.00347678
0.0035309
0.0035808
0.00362668
0.00366872
0.00370708
0.00374187
0.00377322
0.00380119
0.00382584
0.00384721
0.0038653
0.00388009
0.0038922
0.00390214
0.00390931
0.00391335
0.00391398
0.00391092
0.00390386
0.00389245
0.0038763
0.00385495
0.00382791
0.00379462
0.00375445
0.00370671
0.00365068
0.00358556
0.00351055
0.00342486
0.00332783
0.00321891
0.00309751
0.0029634
0.00281641
0.00265681
0.00248565
0.00230482
0.00211711
0.00192624
0.0017375
0.00155576
0.00138424
0.00121978
0.00103734
0.000908568
0.000818589
0.000706322
0.000610624
0.000519556
0.000429518
0.000341295
0.0002573
0.000169633
5.36352e-05
8.86543e-05
0.000270865
0.000542019
0.000798751
0.001115
0.00148229
0.00169879
0.0019102
0.0021124
0.00230366
0.00248336
0.00265152
0.0028085
0.00295485
0.00309117
0.00321807
0.00333614
0.00344596
0.00354805
0.00364288
0.00373091
0.00381254
0.00388814
0.00395803
0.00402253
0.0040819
0.00413637
0.00418615
0.00423144
0.00427238
0.00430911
0.00434175
0.00437037
0.00439505
0.00441582
0.00443271
0.00444571
0.00445479
0.00446109
0.00446426
0.00446388
0.00445965
0.00445125
0.00443838
0.00442069
0.00439779
0.00436923
0.00433449
0.004293
0.0042441
0.00418708
0.00412114
0.00404547
0.00395918
0.00386141
0.00375109
0.00362764
0.00349013
0.0033384
0.00317243
0.00299201
0.00279793
0.00259185
0.00237644
0.0021556
0.0019347
0.00172027
0.00151502
0.00132365
0.00114821
0.000986913
0.000836877
0.00069573
0.000564052
0.000451879
0.000371543
0.000298349
0.000228316
0.000149761
5.14143e-05
0.000184912
0.000389101
0.000678643
0.000987217
0.00140089
0.00178591
0.00202201
0.00225073
0.00246826
0.00267328
0.00286558
0.00304547
0.00321355
0.00337046
0.00351688
0.00365346
0.0037808
0.00389948
0.00401
0.00411283
0.00420842
0.00429715
0.00437937
0.00445543
0.0045256
0.00459015
0.00464932
0.00470331
0.0047523
0.00479646
0.00483593
0.00487082
0.00490122
0.00492723
0.00494888
0.00496623
0.0049793
0.00498808
0.00499258
0.00499396
0.0049917
0.00498542
0.00497483
0.00495963
0.0049395
0.00491407
0.00488291
0.00484553
0.00480137
0.00474977
0.00468999
0.00462124
0.0045426
0.00445313
0.00435182
0.00423763
0.00410958
0.00396668
0.00380816
0.00363344
0.00344229
0.00323505
0.00301279
0.00277751
0.00253227
0.00228219
0.00203268
0.0017896
0.00155701
0.00134203
0.00114802
0.000976074
0.000824924
0.000679122
0.000507183
0.000372253
0.000315338
0.000252857
0.000224831
0.000169804
0.000378466
0.000657164
0.000925619
0.00133232
0.00184033
0.00209746
0.00234749
0.00258715
0.00281417
0.00302782
0.00322826
0.00341605
0.00359187
0.00375646
0.00391049
0.00405461
0.00418941
0.0043154
0.00443308
0.0045429
0.00464525
0.00474051
0.00482901
0.00491106
0.00498693
0.00505688
0.00512113
0.00517989
0.00523332
0.00528161
0.00532487
0.00536324
0.00539682
0.0054257
0.00544994
0.00546959
0.00548468
0.00549522
0.00550117
0.00550308
0.00550145
0.00549587
0.00548603
0.0054717
0.00545257
0.00542835
0.00539865
0.00536303
0.00532097
0.00527185
0.00521499
0.00514957
0.0050747
0.00498939
0.00489257
0.00478312
0.00465986
0.00452162
0.00436729
0.00419589
0.00400675
0.00379962
0.00357484
0.00333355
0.00307791
0.00281129
0.00253783
0.00226194
0.00198839
0.00172424
0.001478
0.00125773
0.0010683
0.000910695
0.000782529
0.000679878
0.000600977
0.000550251
0.000524845
0.000512124
0.000653904
0.00101398
0.00134615
0.00185639
0.00215128
0.00241887
0.00267546
0.00291965
0.00315041
0.00336766
0.00357184
0.00376365
0.00394383
0.00411309
0.0042721
0.00442144
0.00456165
0.00469321
0.00481655
0.00493208
0.00504016
0.00514112
0.00523526
0.00532288
0.00540421
0.00547949
0.00554893
0.00561272
0.00567102
0.00572401
0.0057718
0.00581452
0.00585228
0.00588517
0.00591325
0.0059366
0.00595526
0.00596923
0.00597853
0.00598313
0.00598408
0.00598118
0.0059742
0.00596294
0.00594719
0.00592669
0.00590115
0.0058702
0.0058334
0.00579023
0.00574006
0.00568215
0.00561569
0.00553973
0.00545321
0.00535502
0.00524392
0.00511867
0.00497799
0.00482068
0.00464572
0.00445238
0.00424035
0.00400994
0.00376229
0.00349955
0.00322477
0.00294138
0.0026528
0.00236333
0.00208216
0.00181839
0.00158009
0.00137417
0.0012056
0.00107698
0.000989754
0.000943497
0.000925172
0.000938724
0.00101246
0.00138559
0.00180587
0.00219424
0.00248038
0.0027503
0.00300666
0.00324954
0.00347894
0.00369526
0.00389917
0.00409143
0.00427277
0.00444386
0.00460527
0.00475754
0.00490113
0.00503646
0.00516389
0.00528378
0.00539643
0.00550214
0.00560116
0.00569373
0.00578008
0.00586042
0.00593492
0.00600376
0.0060671
0.00612506
0.00617778
0.00622538
0.00626794
0.00630557
0.00633834
0.00636631
0.00638953
0.00640805
0.00642189
0.00643107
0.00643568
0.00643667
0.0064338
0.00642692
0.00641587
0.0064005
0.0063806
0.00635591
0.00632609
0.00629073
0.00624932
0.00620127
0.00614586
0.00608227
0.00600957
0.00592673
0.00583261
0.00572602
0.0056057
0.00547043
0.00531906
0.00515061
0.0049644
0.00476018
0.00453831
0.00429998
0.00404727
0.00378302
0.00350962
0.00323305
0.00295938
0.00269555
0.00244861
0.00222559
0.00203496
0.00188364
0.00177626
0.0017136
0.00169763
0.00174006
0.00137335
0.00173526
0.0021785
0.00254126
0.00282447
0.00308971
0.00334009
0.00357674
0.00380039
0.00401182
0.00421185
0.00440125
0.00458071
0.00475082
0.00491209
0.00506496
0.00520983
0.00534703
0.00547687
0.00559962
0.00571554
0.00582486
0.00592778
0.00602451
0.00611523
0.00620011
0.00627929
0.00635292
0.00642114
0.00648405
0.00654177
0.00659439
0.00664201
0.0066847
0.00672254
0.00675559
0.00678391
0.00680752