/*--------------------------------*- C++ -*----------------------------------*\
| =========                 |                                                 |
| \\      /  F ield         | OpenFOAM: The Open Source CFD Toolbox           |
|  \\    /   O peration     | Version:  v2012                                 |
|   \\  /    A nd           | Website:  www.openfoam.com                      |
|    \\/     M anipulation  |                                                 |
\*---------------------------------------------------------------------------*/
FoamFile
{
    version     2.0;
    format      ascii;
    class       volScalarField;
    location    "593";
    object      omega;
}
// * * * * * * * * * * * * * * * * * * * * * * * * * * * * * * * * * * * * * //

dimensions      [0 0 -1 0 0 0 0];


internalField   nonuniform List<scalar> 
6598
(
566.913
202.467
175.906
172.836
174.282
174.282
172.836
175.906
202.467
566.913
427.8
176.703
145.802
140.433
140.534
140.534
140.433
145.802
176.703
427.8
343.392
152.75
124.034
117.79
116.974
116.974
117.79
124.034
152.75
343.392
287.933
132.999
107.525
101.158
99.834
99.834
101.158
107.525
132.998
287.933
249.09
117.15
94.6234
88.4679
86.9046
86.9046
88.4679
94.6233
117.15
249.091
220.462
104.427
84.3178
78.496
76.8458
76.8458
78.496
84.3177
104.427
220.462
198.481
94.1104
75.9367
70.4732
68.8176
68.8176
70.4732
75.9366
94.1101
198.481
181.04
85.6361
69.0149
63.8929
62.2728
62.2727
63.8928
69.0146
85.6356
181.041
166.828
78.5806
63.2199
58.408
56.8419
56.8419
58.4078
63.2196
78.5799
166.829
154.991
72.6301
58.3093
53.7729
52.2675
52.2675
53.7726
58.3088
72.6289
154.993
144.953
67.5511
54.1025
49.8092
48.3651
48.365
49.8089
54.1017
67.5494
144.956
136.312
63.1687
50.4633
46.3844
44.9991
44.9989
46.3838
50.4621
63.1662
136.316
128.778
59.3502
47.2872
43.398
42.0677
42.0674
43.3971
47.2854
59.3463
128.783
122.139
55.9935
44.4931
40.7726
39.4931
39.4927
40.7713
44.4904
55.9878
122.146
116.234
53.0195
42.0172
38.4477
37.2149
37.2143
38.4458
42.0132
53.011
116.245
110.94
50.366
39.8091
36.3755
35.1855
35.1846
36.3726
39.8032
50.3535
110.956
106.161
47.9836
37.8282
34.5175
33.3668
33.3655
34.5133
37.8193
47.9656
106.183
101.821
45.8329
36.0417
32.8428
31.7281
31.7263
32.8369
36.0286
45.8077
101.851
97.8564
43.8819
34.4229
31.3262
30.2444
30.242
31.3179
34.4044
43.8461
97.8992
94.2191
42.1054
32.9508
29.9477
28.8962
28.8928
29.9359
32.9243
42.0639
94.2769
90.9508
40.5222
31.6391
28.7191
27.6943
27.6893
28.6999
31.5765
40.1015
80.0821
87.9198
39.0683
30.4358
27.5924
26.5919
26.5841
27.5596
30.3081
38.1639
68.4983
85.0976
37.7284
29.3274
26.5543
25.5755
25.5634
26.5003
29.1066
36.2312
59.305
82.4602
36.4909
28.3038
25.5951
24.6356
24.6174
25.5124
27.9689
34.1576
52.0036
79.9873
35.3453
27.3563
24.7065
23.7638
23.7387
24.5912
26.8575
32.0429
46.2262
77.6609
34.283
26.4775
23.8812
22.9529
22.9192
23.7325
25.7613
30.0914
41.7009
75.4646
33.2961
25.6602
23.1125
22.196
22.1511
22.9152
24.7339
28.4026
38.1493
73.3178
32.349
24.876
22.3736
21.4669
21.4076
22.1138
23.7471
26.9407
35.2672
71.2819
31.4696
24.1463
21.6842
20.7842
20.7078
21.3539
22.8317
25.7032
32.9175
69.3451
30.6537
23.4679
21.0409
20.1449
20.0492
20.6359
21.9857
24.6253
30.8133
67.4965
29.8965
22.8371
20.4402
19.5453
19.4285
19.9583
21.2028
23.6607
28.9307
65.7259
29.1954
22.2511
19.8791
18.9825
18.8432
19.3189
20.4747
22.7717
27.2392
64.0236
28.5481
21.7077
19.3554
18.454
18.2908
18.7151
19.7919
21.9258
25.7092
62.3807
27.9531
21.2056
18.8674
17.9581
17.7696
18.1439
19.1451
21.1103
24.3144
60.7884
27.4092
20.7441
18.414
17.4935
17.278
17.6028
18.5271
20.3176
23.0322
59.2383
26.9162
20.323
17.9948
17.0593
16.8148
17.0893
17.9329
19.5439
21.8435
57.7222
26.4739
19.9429
17.61
16.6556
16.3796
16.6019
17.3592
18.7883
20.7334
56.2321
26.082
19.6049
17.2605
16.2827
15.9723
16.1399
16.8051
18.0521
19.6913
54.7599
25.7405
19.3107
16.9478
15.9419
15.5938
15.7038
16.2715
17.3387
18.7102
53.2978
25.4489
19.0623
16.6741
15.6351
15.2457
15.2952
15.7616
16.6534
17.7873
51.8378
25.2062
18.8621
16.4421
15.3647
14.9304
14.9166
15.2799
16.003
16.9234
50.372
25.011
18.7126
16.2551
15.1342
14.6512
14.5719
14.8323
15.3958
16.1227
48.8923
24.8608
18.6162
16.117
14.9473
14.4118
14.2656
14.4256
14.8403
15.3921
47.3902
24.7518
18.5751
16.0317
14.8085
14.2169
14.0026
14.0663
14.3452
14.7394
45.8568
24.6793
18.5911
16.0033
14.7224
14.0712
13.7882
13.7608
13.9174
14.1722
44.2824
24.6371
18.6649
16.0356
14.6936
13.9794
13.6274
13.5143
13.5625
13.6959
42.6558
24.6179
18.7963
16.1319
14.7268
13.9464
13.5245
13.3308
13.2832
13.3129
40.9637
24.6132
18.9837
16.2946
14.8258
13.9764
13.4835
13.2129
13.0804
13.0218
39.1893
24.6129
19.2236
16.5245
14.9934
14.0727
13.5074
13.1623
12.9528
12.8185
37.3102
24.6043
19.5094
16.8195
15.2303
14.2371
13.5978
13.1792
12.8981
12.6973
35.2945
24.5701
19.8287
17.1724
15.5329
14.4681
13.7538
13.2622
12.9129
12.6517
33.0931
24.4802
20.1576
17.5662
15.8892
14.7573
13.9694
13.4064
12.9921
12.6753
30.6104
24.2498
20.4338
17.9573
16.2681
15.0818
14.2282
13.6002
13.1273
12.7634
27.6571
23.7808
20.5708
18.2673
16.6058
15.3941
14.4966
13.8219
13.3115
12.9222
24.1221
22.8582
20.4562
18.408
16.8273
15.6339
14.7327
14.0566
13.5429
13.1416
19.605
20.8018
19.7264
18.2005
16.8387
15.751
14.9293
14.2998
13.8062
13.4095
14.5694
16.9715
17.8091
17.2949
16.4727
15.7255
15.0871
14.5528
14.1079
13.7362
12.8943
11.607
14.3327
15.3731
15.5816
15.4395
15.1606
14.8408
14.5245
14.2317
12.9412
9.59598
11.1793
13.2371
14.4899
15.1943
15.5447
15.6605
15.6424
15.5701
13.698
14.4262
17.7263
21.6201
25.1483
27.9256
29.8502
31.4224
32.7232
33.7796
34.5156
21.0132
20.858
20.9223
20.816
20.3865
19.429
18.4954
17.6116
16.7625
15.9344
15.1496
14.41
13.7109
13.0395
12.4044
11.8183
11.2556
10.6966
10.1227
9.51221
8.8352
8.02563
6.96259
5.98688
44.5146
16.0274
9.81112
8.39068
7.8368
7.41696
6.92119
6.40717
5.98893
5.64953
5.36433
5.13971
4.97738
4.8667
4.80361
4.8388
4.98574
5.21366
5.49733
5.81567
6.14076
6.42441
6.61107
6.6327
9.14709
48.0502
21.5108
11.4835
8.4245
7.2115
6.43358
5.7564
5.06788
4.51245
4.09222
3.76759
3.52911
3.36118
3.25244
3.19614
3.20206
3.28853
3.45957
3.72096
4.07553
4.51521
5.00485
5.49672
5.98075
9.81918
48.0593
25.6986
14.6068
9.97927
7.87773
6.57205
5.55243
4.70751
3.99786
3.50789
3.14872
2.89158
2.7045
2.57811
2.50818
2.49814
2.55819
2.69082
2.90645
3.21884
3.63708
4.15032
4.72082
5.38192
9.86796
46.3213
28.631
17.2522
11.8729
8.98896
7.09069
5.68269
4.62087
3.84503
3.29759
2.89794
2.61271
2.38793
2.22277
2.12334
2.09306
2.14716
2.27093
2.4681
2.75194
3.1384
3.62956
4.2006
4.92337
9.58364
43.8791
30.0347
19.659
13.64
10.0843
7.71034
5.97333
4.71463
3.84962
3.27134
2.87239
2.56497
2.2992
2.07943
1.93383
1.88032
1.93131
2.05651
2.24625
2.51131
2.86929
3.32764
3.87104
4.60709
9.13734
41.0838
30.6882
21.4716
15.2522
11.1931
8.35026
6.28042
4.82736
3.88969
3.32176
2.95455
2.66527
2.39275
2.14725
1.96876
1.88632
1.91153
2.02457
2.20277
2.44978
2.77838
3.19709
3.70979
4.48328
8.67701
38.2865
30.7164
22.6426
16.6037
12.2534
9.03561
6.65188
5.00723
3.99208
3.43284
3.11688
2.88266
2.64354
2.39969
2.19544
2.07717
2.0694
2.16441
2.32804
2.55941
2.86976
3.27832
3.82044
4.61848
8.31732
35.701
30.2554
23.2999
17.6656
13.2312
9.74775
7.0825
5.25123
4.15676
3.60196
3.34292
3.19268
3.03951
2.85652
2.6692
2.52777
2.48534
2.5664
2.73187
2.98607
3.35317
3.8865
4.70883
6.09888
8.96152
33.3429
29.3963
23.6115
18.4366
14.0478
10.4008
7.52942
5.53054
4.36201
3.80261
3.59107
3.53195
3.5064
3.46614
3.40942
3.363
3.3696
3.49044
3.72827
4.10798
4.67624
5.50934
6.69548
8.18423
9.51935
31.2062
28.3368
23.599
18.8676
14.6494
10.9593
7.95165
5.82522
4.58562
4.00619
3.8148
3.816
3.89715
4.00824
4.13145
4.26747
4.42953
4.64256
4.96232
5.40442
5.96936
6.62377
7.27084
7.74499
7.86239
29.27
27.1929
23.3264
19.0497
15.0727
11.4288
8.34951
6.12148
4.8059
4.18324
3.97545
3.98255
4.09244
4.25696
4.45522
4.67501
4.90664
5.14142
5.40898
5.70698
6.01416
6.29154
6.48658
6.55161
6.37868
27.5177
26.0267
22.8568
19.0635
15.356
11.8236
8.72564
6.41371
5.01142
4.31765
4.05877
4.02956
4.10672
4.23591
4.39681
4.57659
4.76389
4.95668
5.15014
5.33095
5.4825
5.57931
5.59318
5.49142
5.22026
25.9249
24.8703
22.2599
18.9592
15.5186
12.1541
9.09018
6.71097
5.21018
4.41908
4.08102
3.99765
4.03022
4.11304
4.2209
4.34271
4.46986
4.59929
4.71671
4.81351
4.88127
4.89147
4.81193
4.62762
4.32072
24.4672
23.741
21.5956
18.7593
15.6002
12.4474
9.46321
7.03214
5.41351
4.51214
4.07873
3.92545
3.91064
3.95385
4.02128
4.09858
4.18199
4.25949
4.32082
4.35588
4.351
4.28832
4.15283
3.9383
3.65394
23.1235
22.6492
20.8982
18.4741
15.6378
12.7063
9.86467
7.40746
5.65748
4.62525
4.08385
3.83855
3.76195
3.76386
3.79622
3.84084
3.88638
3.92203
3.93844
3.92568
3.87337
3.77346
3.62247
3.4251
3.19712
21.8757
21.5979
20.1852
18.1129
15.6496
12.9506
10.2777
7.8683
6.00711
4.81093
4.14417
3.79154
3.6288
3.57306
3.56746
3.5804
3.59426
3.59829
3.58439
3.5455
3.47595
3.373
3.2385
3.07983
2.90832
20.709
20.5856
19.4674
17.712
15.594
13.1873
10.7059
8.38684
6.48263
5.14611
4.32604
3.85827
3.60008
3.4705
3.41137
3.38432
3.36727
3.34719
3.31587
3.26793
3.19998
3.11125
3.00414
2.88378
2.75698
19.6121
19.6085
18.7444
17.2782
15.4577
13.4098
11.1432
8.95819
7.06004
5.62066
4.66061
4.07329
3.71739
3.50666
3.38614
3.31503
3.26692
3.22634
3.18408
3.13437
3.07401
3.00203
2.91954
2.82939
2.73552
18.5776
18.6631
18.0186
16.8194
15.2673
13.5085
11.5914
9.56976
7.73404
6.24063
5.16067
4.44864
4.00113
3.71587
3.53126
3.41138
3.32926
3.26708
3.21412
3.16321
3.11039
3.05341
2.9914
2.92524
2.857
17.6029
17.7482
17.2901
16.3342
15.0338
13.5271
11.8975
10.1882
8.4739
6.98777
5.82541
4.99938
4.44674
4.08596
3.84809
3.68605
3.57196
3.48808
3.42287
3.36768
3.31704
3.26827
3.21934
3.16922
3.11766
16.6901
16.8663
16.5601
15.8208
14.7594
13.4865
12.0955
10.6467
9.18988
7.82308
6.62508
5.71848
5.06806
4.61771
4.31236
4.10473
3.96075
3.85713
3.77843
3.71485
3.65986
3.60946
3.56166
3.51521
3.46894
15.8458
16.0249
15.8336
15.2808
14.4374
13.3894
12.2173
10.9891
9.75365
8.56472
7.48186
6.57053
5.8525
5.3136
4.93315
4.66533
4.47511
4.3374
4.23451
4.15409
4.08803
4.03121
3.98037
3.93348
3.88983
15.0798
15.2365
15.122
14.7203
14.069
13.2297
12.2668
11.2378
10.1954
9.18287
8.23822
7.40064
6.69545
6.12953
5.69458
5.3684
5.12619
4.94556
4.80881
4.70195
4.61612
4.54575
4.48684
4.43633
4.39211
14.4032
14.5175
14.4429
14.1528
13.6609
13.0057
12.2352
11.3966
10.5322
9.68075
8.87528
8.14079
7.49588
6.9509
6.506
6.15161
5.87358
5.65538
5.4849
5.3513
5.24524
5.16007
5.09128
5.03536
4.98871
13.8256
13.8849
13.8189
13.6001
13.2289
12.7259
12.1231
11.4559
10.7589
10.0627
9.39274
8.76962
8.20759
7.7152
7.29568
6.94524
6.6573
6.42439
6.23699
6.08793
5.96953
5.87483
5.79951
5.73889
5.68926
13.3526
13.3525
13.2726
13.0898
12.7993
12.4107
11.9436
11.4225
10.8726
10.3168
9.77572
9.26572
8.79859
8.38076
8.01478
7.69949
7.43365
7.21463
7.03632
6.89204
6.77562
6.68135
6.60465
6.54207
6.49053
12.9844
12.9276
12.8217
12.6489
12.4041
12.0919
11.7243
11.3166
10.8858
10.4489
10.0208
9.61436
9.23879
8.89951
8.60034
8.34142
8.1219
7.93952
7.7906
7.67058
7.57473
7.49833
7.43628
7.38555
7.34379
12.7163
12.6094
12.4743
12.2971
12.0735
11.8064
11.5027
11.1728
10.8287
10.482
10.1436
9.82253
9.52555
9.2569
9.02021
8.81808
8.64769
8.50708
8.39401
8.30531
8.23728
8.18615
8.14827
8.12053
8.10035
12.54
12.3907
12.2289
12.0428
11.8281
11.5846
11.3176
11.0349
10.7456
10.4585
10.1813
9.92065
9.68125
9.46612
9.27731
9.1173
8.98583
8.88009
8.79778
8.73634
8.6931
8.66509
8.64927
8.64281
8.64313
12.4465
12.2618
12.0793
11.8863
11.6752
11.4448
11.1986
10.9426
10.6841
10.4304
10.1878
9.96153
9.75532
9.57137
9.41086
9.27422
9.1618
9.073
9.00564
8.95711
8.92502
8.907
8.90066
8.90368
8.91377
12.4284
12.2175
12.02
11.8215
11.6133
11.3926
11.1605
10.9212
10.6803
10.4438
10.2174
10.0056
9.81186
9.63835
9.48602
9.35505
9.24505
9.15509
9.08348
9.02886
8.98943
8.96302
8.94762
8.94138
8.9425
12.4882
12.2561
12.0458
11.8426
11.6373
11.425
11.205
10.9791
10.751
10.5254
10.3069
10.0995
9.90666
9.73059
9.57258
9.43306
9.31186
9.20821
9.12092
9.04854
8.98925
8.94124
8.90302
8.87333
8.85079
12.6243
12.3743
12.1521
11.9437
11.7395
11.5337
11.3238
11.1097
10.8933
10.6775
10.4658
10.2613
10.067
9.88504
9.71702
9.56375
9.42549
9.30201
9.1927
9.09659
9.01253
8.93921
8.87523
8.81924
8.77015
12.8297
12.566
12.3328
12.1178
11.9118
11.709
11.5057
11.3007
11.0943
10.8881
10.6839
10.4841
10.2909
10.1061
9.93119
9.76711
9.61445
9.47341
9.34386
9.22543
9.11752
9.01938
8.93011
8.84883
8.77487
13.0945
12.8242
12.5841
12.3637
12.1551
11.9527
11.7528
11.5534
11.3542
11.1554
10.9583
10.7641
10.5743
10.3903
10.2132
10.0439
9.88318
9.73124
9.58828
9.45424
9.32889
9.21187
9.10274
9.00102
8.90645
13.4337
13.169
12.9304
12.7097
12.5007
12.2984
12.1
11.9037
11.7089
11.5156
11.3243
11.1359
10.9512
10.7711
10.5966
10.4282
10.2666
10.112
9.96478
9.82486
9.6922
9.56661
9.44784
9.3356
9.22985
13.9775
13.7444
13.5273
13.3211
13.1221
12.9282
12.7381
12.5512
12.3671
12.1857
12.0074
11.8326
11.662
11.496
11.3351
11.1799
11.0307
10.8877
10.7509
10.6204
10.496
10.3776
10.2649
10.1576
10.0558
15.4827
15.3885
15.2949
15.1976
15.0946
14.9889
14.8815
14.773
14.6638
14.5542
14.4448
14.336
14.2283
14.1221
14.0178
13.9156
13.8158
13.7184
13.6235
13.5311
13.441
13.353
13.2671
13.1831
13.1008
34.6176
35.3365
35.9602
36.4841
36.9118
37.253
37.5147
37.7034
37.8253
37.8865
37.893
37.8505
37.7647
37.6408
37.4839
37.2987
37.0895
36.8603
36.6148
36.3561
36.0872
35.8106
35.5284
35.2426
34.9549
7.22391
11.2616
15.9793
11.775
12.0071
11.0703
9.73633
9.02019
7.97453
7.54943
6.87336
5.91466
5.946
5.31986
4.55956
4.7656
4.24058
3.69703
3.91449
3.51967
3.14953
3.33692
3.05555
2.80198
2.9644
2.76425
2.58568
2.73968
2.5951
2.46562
2.63407
2.52774
2.43155
2.64509
2.56588
2.49343
2.79156
2.73322
2.67884
3.06839
3.02353
2.98042
3.42523
3.38522
3.34667
3.85044
3.81458
3.78012
4.35464
4.32155
4.29017
4.95107
4.91876
4.88888
5.65033
5.6174
5.5875
6.45033
6.41612
6.38516
7.31152
7.28386
7.25868
8.08679
8.07644
8.06781
8.64764
8.65464
8.66304
8.92749
8.94409
8.9627
8.94865
8.95851
8.97134
8.83567
8.82449
8.81645
8.73123
8.69639
8.66465
8.7143
8.65838
8.60599
8.82769
8.75384
8.68374
9.14087
9.05653
8.97578
9.96958
9.8872
9.80774
13.0295
12.9594
12.8897
34.7016
34.4496
34.199
4.34418
5.91382
7.27066
8.23642
9.00851
9.64616
10.1963
10.6823
11.1189
11.516
11.8803
12.2171
12.5305
12.8237
13.0996
13.3606
13.6089
13.8463
14.0745
14.295
14.5093
14.7187
14.9244
15.1275
15.3292
15.5307
15.7332
15.9378
16.1459
16.359
16.5788
16.8072
17.0467
17.3003
17.5637
17.8335
18.1098
18.3931
18.6856
18.9857
19.293
19.6095
19.9357
20.2722
20.6193
20.9776
21.3474
21.7289
22.1223
22.5274
22.9437
23.3701
23.8045
24.2435
24.6816
25.1101
25.5151
25.8749
26.1585
26.3402
26.4374
26.4626
26.425
26.2733
25.9519
25.4798
24.8229
24.0152
23.0948
22.0777
20.9843
19.8116
18.7053
17.6249
16.5291
15.3841
14.1466
12.7303
10.9735
9.36792
9.52567
6.2222
6.77192
7.03071
7.10147
7.0604
6.959
6.83579
6.71001
6.59164
6.48526
6.39249
6.31334
6.24699
6.1923
6.14801
6.11289
6.08582
6.06583
6.05207
6.04387
6.04066
6.04204
6.04768
6.05741
6.07114
6.0889
6.11081
6.13713
6.16823
6.20461
6.24699
6.29675
6.35465
6.41536
6.47681
6.54007
6.60525
6.67254
6.74195
6.81381
6.8882
6.96531
7.04536
7.12856
7.21515
7.30536
7.39945
7.4977
7.60038
7.70775
7.82008
7.93759
8.06041
8.18859
8.32192
8.46003
8.60267
8.75056
8.90354
9.04667
9.16354
9.24935
9.29894
9.28648
9.2175
9.08933
8.91312
8.70877
8.50413
8.31558
8.1772
8.3055
8.59191
8.95885
9.34156
9.65942
9.80976
9.69529
13.3755
11.7797
6.27183
6.19936
6.09567
5.90232
5.65998
5.40992
5.17786
4.97381
4.80009
4.65508
4.53552
4.43776
4.35831
4.29408
4.24247
4.20132
4.1689
4.14379
4.12488
4.11131
4.10237
4.09754
4.09643
4.09874
4.10426
4.11286
4.12449
4.13913
4.15682
4.17764
4.2017
4.22917
4.26014
4.29477
4.33091
4.36861
4.40838
4.45044
4.49508
4.54253
4.59305
4.64695
4.70456
4.76625
4.83243
4.90355
4.9801
5.0626
5.15163
5.24778
5.35166
5.46389
5.58506
5.71567
5.85608
6.00644
6.16668
6.33647
6.51451
6.69916
6.88138
7.04688
7.18029
7.26294
7.28004
7.20868
7.05476
6.83719
6.57859
6.3181
6.10978
6.05449
6.17389
6.46371
6.90662
7.44825
7.98934
8.49199
13.7904
13.485
6.19658
5.70147
5.39365
5.07886
4.76968
4.4889
4.24838
4.04922
3.88761
3.75807
3.65499
3.57339
3.50904
3.45853
3.41914
3.38874
3.36567
3.34863
3.33661
3.32885
3.32476
3.32388
3.32587
3.33048
3.33754
3.34693
3.35857
3.37244
3.38854
3.40691
3.42762
3.45074
3.4764
3.50472
3.53589
3.56872
3.60377
3.64138
3.68183
3.72541
3.77244
3.82325
3.87824
3.93783
4.00249
4.07271
4.14905
4.23212
4.32253
4.42097
4.52813
4.64471
4.77143
4.90894
5.05772
5.21803
5.38981
5.5723
5.7635
5.96204
6.16505
6.36281
6.54286
6.68702
6.77618
6.78881
6.70308
6.50311
6.18442
5.78963
5.42114
5.18674
5.16215
5.33648
5.70264
6.23111
6.83738
7.53928
13.2252
14.9764
6.10368
5.29638
4.85522
4.47999
4.15293
3.87771
3.6538
3.47608
3.33705
3.22918
3.14595
3.08206
3.0333
2.9964
2.96886
2.94874
2.93459
2.92529
2.92
2.91805
2.91898
2.92242
2.92809
2.9358
2.94543
2.95688
2.97012
2.98513
3.00195
3.02061
3.0412
3.06381
3.08858
3.11564
3.14518
3.17737
3.21161
3.24842
3.28811
3.331
3.37741
3.4277
3.48226
3.54151
3.60592
3.676
3.75231
3.83543
3.92601
4.02474
4.13233
4.24951
4.37705
4.51572
4.66618
4.82886
5.00393
5.191
5.38877
5.59477
5.80677
6.02015
6.22794
6.41812
6.57527
6.67824
6.69679
6.59728
6.34354
5.93503
5.42932
4.95644
4.73342
4.79906
5.09201
5.56727
6.15748
6.98372
12.2245
16.6758
5.99772
4.95376
4.42082
4.0153
3.69222
3.43662
3.23635
3.08267
2.96623
2.87865
2.81321
2.76474
2.7293
2.70389
2.68629
2.6748
2.66815
2.6654
2.66584
2.66892
2.67426
2.68156
2.69061
2.70127
2.71344
2.72708
2.74217
2.75872
2.77678
2.7964
2.81769
2.84074
2.8657
2.89271
2.92197
2.95366
2.98778
3.02429
3.06358
3.10596
3.15176
3.20133
3.25504
3.31331
3.37659
3.44536
3.52018
3.60163
3.69034
3.787
3.89236
4.00719
4.13231
4.26859
4.41677
4.5778
4.7523
4.94076
5.14294
5.35741
5.58222
5.81409
6.04842
6.27954
6.50044
6.69584
6.84414
6.91507
6.86022
6.62432
6.18701
5.59895
5.0285
4.82857
4.96887
5.36053
5.94428
6.97827
11.3327
18.7322
6.12526
4.64808
4.04419
3.62974
3.32562
3.09629
2.92203
2.79219
2.6967
2.62713
2.57707
2.5417
2.51743
2.50162
2.49229
2.48799
2.48762
2.49037
2.49566
2.50303
2.51215
2.52281
2.53483
2.54811
2.56258
2.57823
2.59505
2.61308
2.63237
2.65299
2.67504
2.69864
2.72392
2.75103
2.78014
2.81145
2.84517
2.8812
2.91982
2.96135
3.0061
3.0544
3.10663
3.16316
3.22445
3.29095
3.3632
3.44176
3.52728
3.62044
3.72202
3.83284
3.95382
4.08591
4.22942
4.38631
4.55707
4.74388
4.94792
5.16738
5.40169
5.65001
5.91033
6.18001
6.45735
6.74096
7.01028
7.26285
7.47186
7.5859
7.53918
7.27093
6.75103
6.06613
5.74246
5.92319
6.43635
7.44375
10.8635
12.9988
5.65296
4.26517
3.6696
3.28287
3.01369
2.81556
2.66897
2.56262
2.48665
2.43328
2.3967
2.37264
2.35794
2.3503
2.34801
2.34983
2.35482
2.3623
2.37177
2.38285
2.39528
2.40887
2.4235
2.43909
2.45561
2.47303
2.49139
2.51072
2.53109
2.55257
2.57526
2.59929
2.62476
2.65185
2.68071
2.71152
2.7445
2.77985
2.81753
2.85789
2.90123
2.94787
2.99815
3.05247
3.11122
3.17486
3.2439
3.31888
3.40042
3.48919
3.58596
3.69156
3.80691
3.93304
4.07108
4.22242
4.38832
4.57023
4.76934
4.98659
5.22288
5.47868
5.75377
6.04728
6.36125
6.6956
7.0544
7.4354
7.84901
8.28141
8.70193
9.057
9.27693
9.26777
8.92425
8.54113
8.62063
8.97847
10.9728
8.81666
4.89347
3.82322
3.30432
2.97812
2.75121
2.58537
2.46557
2.38067
2.32182
2.28226
2.25696
2.24224
2.2354
2.23446
2.23796
2.24483
2.25426
2.26568
2.27864
2.29285
2.30808
2.32417
2.34103
2.3586
2.37685
2.39579
2.41545
2.43586
2.4571
2.47925
2.5024
2.52667
2.55218
2.57909
2.60754
2.63772
2.66983
2.70408
2.74061
2.77956
2.82122
2.86592
2.91399
2.96576
3.02163
3.08203
3.14742
3.21831
3.29527
3.37895
3.47004
3.56934
3.67773
3.79621
3.92592
4.06815
4.2243
4.39584
4.58438
4.79159
5.01922
5.26887
5.54189
5.83928
6.16178
6.51145
6.89395
7.3199
7.80766
8.37227
9.01629
9.74155
10.5479
11.4282
12.3708
13.3577
14.4508
15.9012
17.793
6.2784
4.16929
3.39116
2.98151
2.71904
2.53268
2.3983
2.30275
2.23645
2.19203
2.16385
2.14773
2.14056
2.14006
2.14453
2.15271
2.16369
2.17676
2.19142
2.20729
2.22412
2.2417
2.25992
2.27867
2.29793
2.31767
2.33791
2.35866
2.37999
2.40196
2.42464
2.44813
2.47255
2.49801
2.52465
2.55264
2.58214
2.61334
2.64645
2.6817
2.71917
2.75913
2.80186
2.84767
2.89687
2.94984
3.00695
3.06863
3.13533
3.20757
3.28591
3.37097
3.46343
3.56407
3.67375
3.79346
3.92431
4.06754
4.22452
4.39676
4.58598
4.79405
5.02292
5.27453
5.5507
5.8531
6.18375
6.54637
6.9483
7.40204
7.91091
8.47924
9.11521
9.82655
10.61
11.4507
12.319
13.1692
14.0053
14.7679
4.73369
3.57702
3.02864
2.71491
2.50569
2.35638
2.24939
2.17423
2.1232
2.09039
2.07127
2.06238
2.06114
2.0656
2.07432
2.08622
2.10047
2.11648
2.13379
2.15207
2.17108
2.19065
2.21066
2.23104
2.25176
2.27279
2.29415
2.31588
2.33801
2.36061
2.38376
2.40755
2.43209
2.45748
2.48387
2.51141
2.54027
2.57062
2.60266
2.63662
2.67271
2.71107
2.75195
2.79564
2.84243
2.89266
2.94666
3.00481
3.06751
3.13519
3.20834
3.28745
3.37309
3.46588
3.56649
3.67569
3.79433
3.92332
4.06372
4.21669
4.38354
4.56575
4.76492
4.9828
5.22117
5.48185
5.76669
6.07797
6.42102
6.79735
7.20688
7.64854
8.12025
8.61806
9.1443
9.68761
10.2336
10.7503
11.1805
11.4025
3.795
3.12353
2.74058
2.50206
2.33741
2.21897
2.13427
2.07539
2.03638
2.0126
2.00043
1.99705
2.00031
2.00856
2.02054
2.03531
2.05214
2.07049
2.08993
2.11018
2.13101
2.15225
2.1738
2.19559
2.21758
2.23976
2.26214
2.28475
2.30763
2.33083
2.35444
2.37853
2.40321
2.42859
2.4548
2.48199
2.51031
2.53994
2.57107
2.60392
2.63872
2.67564
2.71488
2.75669
2.80135
2.84913
2.90034
2.9553
3.01437
3.07789
3.14625
3.21986
3.29915
3.38458
3.47662
3.57582
3.68272
3.79792
3.92209
4.05591
4.20017
4.35571
4.52344
4.70432
4.89935
5.10951
5.33569
5.57932
5.84068
6.11965
6.41565
6.72672
7.04916
7.37679
7.70152
8.01236
8.29235
8.52039
8.62794
8.54654
3.20711
2.78959
2.51894
2.33804
2.20957
2.11599
2.04895
2.00277
1.97299
1.95606
1.94908
1.94979
1.95638
1.96743
1.98186
1.99882
2.01764
2.03782
2.05898
2.08083
2.10316
2.12581
2.14868
2.17169
2.19481
2.21803
2.24134
2.26476
2.28835
2.31215
2.33623
2.36066
2.38555
2.411
2.43714
2.4641
2.49203
2.52111
2.55152
2.58346
2.61715
2.65284
2.69068
2.7309
2.77373
2.81941
2.86822
2.92042
2.97631
3.03618
3.10034
3.1691
3.24276
3.32166
3.40611
3.49642
3.59291
3.6959
3.80567
3.92254
4.0468
4.17872
4.31854
4.46647
4.6226
4.78692
4.95931
5.13928
5.32594
5.51817
5.71416
5.9114
6.10602
6.29244
6.46078
6.60147
6.70496
6.761
6.72378
6.56394
2.8281
2.55125
2.35539
2.21748
2.11727
2.04356
1.99051
1.95422
1.93152
1.91974
1.91663
1.92033
1.92934
1.94246
1.9587
1.97729
1.99763
2.01924
2.04175
2.06489
2.08844
2.11225
2.13622
2.16028
2.18438
2.2085
2.23264
2.25682
2.28108
2.30545
2.33001
2.35482
2.37998
2.40558
2.43174
2.45859
2.48629
2.51498
2.54486
2.57611
2.60894
2.64358
2.68026
2.71916
2.76048
2.80442
2.85121
2.90108
2.95428
3.01104
3.07161
3.13621
3.20507
3.2784
3.35637
3.43916
3.52688
3.61962
3.71745
3.82035
3.92828
4.04111
4.15865
4.28057
4.40642
4.53556
4.6672
4.80016
4.93304
5.06417
5.19146
5.3122
5.42287
5.51747
5.58893
5.63077
5.64029
5.61461
5.54288
5.40679
2.58195
2.38827
2.24276
2.13597
2.05747
1.99961
1.9578
1.92942
1.9123
1.90451
1.90433
1.91028
1.92109
1.93573
1.95331
1.97313
1.99462
2.0173
2.04083
2.06493
2.08939
2.11409
2.13891
2.16377
2.18864
2.21349
2.23832
2.26313
2.28796
2.31284
2.33784
2.36301
2.38843
2.41421
2.44046
2.46729
2.49485
2.5233
2.5528
2.58355
2.61572
2.64955
2.68527
2.72309
2.76317
2.80569
2.85083
2.89877
2.94973
3.00389
3.06143
3.12253
3.18735
3.256
3.32858
3.40513
3.48566
3.5701
3.65834
3.75018
3.84537
3.94356
4.04429
4.14699
4.25096
4.35531
4.45885
4.56024
4.65793
4.75018
4.83497
4.90996
4.97196
5.0158
5.03802
5.03646
5.01026
4.95922
4.88341
4.78089
2.42852
2.28714
2.17639
2.09253
2.03045
1.98507
1.95254
1.93075
1.91828
1.91378
1.91599
1.92374
1.93597
1.95178
1.97038
1.99111
2.01342
2.03683
2.06099
2.08565
2.11061
2.13577
2.16104
2.18635
2.21165
2.23691
2.26214
2.28733
2.3125
2.3377
2.36297
2.38837
2.41398
2.43987
2.46617
2.49298
2.52045
2.54871
2.57794
2.6083
2.63998
2.67318
2.70811
2.74505
2.78414
2.8255
2.86929
2.91565
2.96474
3.01671
3.07172
3.12987
3.19128
3.25602
3.32411
3.39552
3.47018
3.54794
3.62856
3.71176
3.79716
3.88432
3.97268
4.0616
4.15035
4.23794
4.3231
4.40444
4.4805
4.54973
4.61045
4.66085
4.69805
4.71914
4.72206
4.70602
4.67146
4.61965
4.55222
4.4707
2.34939
2.24297
2.15718
2.09077
2.04126
2.00572
1.98088
1.96476
1.95638
1.95484
1.95919
1.96852
1.98196
1.99871
2.01806
2.0394
2.06215
2.08585
2.11009
2.13462
2.15936
2.18426
2.20929
2.23439
2.2595
2.2846
2.30968
2.33475
2.35983
2.38495
2.41015
2.43547
2.46098
2.48677
2.51294
2.53959
2.56687
2.5949
2.62384
2.65386
2.68513
2.71783
2.75215
2.78833
2.82659
2.867
2.90967
2.9547
3.00222
3.05235
3.10518
3.1608
3.21929
3.28067
3.34494
3.41203
3.48182
3.5541
3.62859
3.70494
3.78273
3.86149
3.94066
4.0197
4.09799
4.17451
4.24797
4.3171
4.38062
4.43725
4.48571
4.52462
4.55186
4.56531
4.56349
4.5461
4.51403
4.46914
4.41377
4.35017
2.34341
2.26169
2.19458
2.14187
2.10243
2.07449
2.05583
2.04457
2.03993
2.04117
2.04755
2.05834
2.07278
2.09018
2.1099
2.13136
2.154
2.17726
2.20056
2.22362
2.24669
2.26995
2.29349
2.31721
2.34102
2.3649
2.38887
2.41294
2.43713
2.46143
2.48589
2.51053
2.53542
2.56064
2.58627
2.61242
2.63923
2.66682
2.69533
2.72492
2.75573
2.78794
2.82172
2.85724
2.89479
2.93439
2.9761
3.01998
3.06612
3.11459
3.16548
3.21883
3.27468
3.33305
3.39391
3.45719
3.52275
3.59035
3.65967
3.73036
3.80199
3.87408
3.94611
4.01789
4.08889
4.15801
4.22408
4.28596
4.34258
4.39294
4.43614
4.47109
4.49614
4.50944
4.50972
4.49666
4.47106
4.4348
4.39041
4.34027
2.42584
2.36272
2.31027
2.26869
2.23749
2.21557
2.20144
2.19424
2.19297
2.19681
2.20502
2.21691
2.23185
2.24919
2.26834
2.28876
2.30992
2.33126
2.35161
2.37024
2.38869
2.40759
2.42751
2.44786
2.46844
2.48924
2.51041
2.53199
2.55392
2.57618
2.59876
2.62172
2.64507
2.66889
2.69326
2.7183
2.7441
2.77081
2.79855
2.82744
2.85763
2.88924
2.92243
2.95732
2.99418
3.03299
3.07375
3.11651
3.16129
3.20815
3.25712
3.30824
3.36152
3.41696
3.47452
3.53414
3.59577
3.65913
3.72379
3.78947
3.85578
3.92222
3.98848
4.05474
4.12035
4.18427
4.24546
4.30295
4.35587
4.40348
4.44517
4.47996
4.50639
4.52287
4.52813
4.5216
4.50368
4.47594
4.44084
4.40081
2.62669
2.57718
2.5351
2.50089
2.4745
2.45522
2.44285
2.43699
2.43644
2.44029
2.4478
2.45833
2.47138
2.48632
2.50262
2.51974
2.53726
2.55458
2.57056
2.58505
2.59908
2.61301
2.62714
2.64129
2.65559
2.67034
2.68608
2.70306
2.72079
2.73915
2.7582
2.77797
2.79843
2.81963
2.84165
2.8646
2.88859
2.91372
2.9401
2.96784
2.99703
3.02778
3.06018
3.09436
3.13041
3.1683
3.20799
3.24948
3.29277
3.33786
3.38478
3.43353
3.48412
3.53651
3.59068
3.64656
3.70404
3.76293
3.82298
3.8839
3.94536
4.00689
4.06866
4.13053
4.19185
4.25177
4.30939
4.36398
4.41491
4.46151
4.50316
4.53901
4.56785
4.58827
4.59901
4.59922
4.5888
4.56877
4.54139
4.50912
2.93705
2.8942
2.85605
2.82342
2.79693
2.77636
2.76217
2.75353
2.74964
2.74971
2.75308
2.7592
2.76759
2.77777
2.78921
2.80126
2.81368
2.82609
2.83851
2.85146
2.86408
2.87592
2.88655
2.8965
2.9061
2.91564
2.92555
2.93614
2.9474
2.95948
2.97293
2.98774
3.00368
3.02072
3.03897
3.05863
3.07976
3.10243
3.12673
3.1527
3.18039
3.20985
3.24114
3.27435
3.30933
3.34599
3.38427
3.42413
3.46556
3.50853
3.55304
3.59909
3.64666
3.69574
3.7463
3.79826
3.85155
3.90603
3.96153
4.01783
4.0747
4.13191
4.1896
4.24763
4.30551
4.36229
4.41697
4.4692
4.51838
4.5639
4.60516
4.64148
4.67192
4.69531
4.71048
4.71644
4.71258
4.69926
4.67829
4.65209
3.3073
3.26782
3.23168
3.19949
3.17247
3.15105
3.13495
3.12356
3.11621
3.1123
3.11124
3.11251
3.11575
3.12058
3.12658
3.13328
3.14056
3.14834
3.15699
3.16641
3.17615
3.18587
3.19532
3.20441
3.21307
3.22109
3.22834
3.23482
3.24129
3.24822
3.25605
3.26495
3.27497
3.28632
3.29932
3.31457
3.33185
3.35115
3.37258
3.39612
3.42172
3.44934
3.47898
3.51067
3.54392
3.57864
3.61477
3.65226
3.69109
3.73125
3.77271
3.81549
3.85956
3.90493
3.95155
3.9994
4.04838
4.09841
4.14935
4.20103
4.25328
4.30597
4.35917
4.41279
4.46613
4.51839
4.56939
4.61861
4.66527
4.70875
4.74838
4.7837
4.81403
4.83847
4.85601
4.86561
4.86635
4.85793
4.84161
4.81973
3.74455
3.70862
3.67503
3.64418
3.61703
3.59472
3.57688
3.56279
3.55185
3.54374
3.538
3.53425
3.53221
3.53158
3.53219
3.53404
3.5368
3.54032
3.54451
3.5493
3.55461
3.56028
3.56616
3.57213
3.57816
3.58419
3.59012
3.59585
3.60147
3.60714
3.61267
3.6183
3.62457
3.63185
3.64054
3.65115
3.66379
3.67879
3.69682
3.71752
3.74062
3.76596
3.79351
3.82274
3.85323
3.88493
3.91779
3.9518
3.98694
4.0232
4.0606
4.09914
4.13881
4.17961
4.22151
4.26449
4.30847
4.35336
4.39903
4.44533
4.49208
4.53908
4.5862
4.63321
4.67978
4.72555
4.77047
4.81376
4.8548
4.8931
4.9285
4.96061
4.98867
5.0118
5.02912
5.03968
5.04242
5.0366
5.02289
5.00339
4.25782
4.22524
4.19431
4.16507
4.13805
4.11427
4.09402
4.07689
4.06248
4.05039
4.04035
4.03208
4.02528
4.01973
4.01526
4.01176
4.00913
4.00729
4.00623
4.00595
4.00637
4.00742
4.00902
4.0111
4.01363
4.0167
4.02011
4.0237
4.02748
4.03153
4.036
4.04102
4.04673
4.05329
4.06086
4.06939
4.07955
4.09197
4.10774
4.12623
4.14706
4.17022
4.19496
4.22066
4.24728
4.27479
4.30318
4.33246
4.36262
4.39368
4.42564
4.45851
4.49229
4.52698
4.56256
4.59899
4.63621
4.67414
4.71266
4.75164
4.79091
4.83027
4.86955
4.90854
4.94698
4.98457
5.021
5.05588
5.08883
5.11955
5.14795
5.17358
5.19578
5.21385
5.2271
5.23474
5.23577
5.22925
5.21535
5.19582
4.85841
4.82813
4.79919
4.77131
4.74458
4.71947
4.69648
4.67592
4.65777
4.64164
4.62721
4.61426
4.60259
4.59203
4.58245
4.57377
4.56591
4.55888
4.55276
4.54759
4.54325
4.53965
4.53671
4.53438
4.53262
4.53144
4.5308
4.53067
4.5311
4.53222
4.53429
4.53745
4.54177
4.54735
4.55445
4.56391
4.5758
4.58975
4.60521
4.62236
4.64097
4.66026
4.68006
4.70038
4.72126
4.74271
4.76476
4.78744
4.81076
4.83474
4.8594
4.88474
4.91077
4.93748
4.96485
4.99285
5.02143
5.05053
5.08005
5.10987
5.13986
5.16986
5.19969
5.22919
5.25813
5.28626
5.31328
5.33891
5.36282
5.38474