/*--------------------------------*- C++ -*----------------------------------*\
| =========                 |                                                 |
| \\      /  F ield         | OpenFOAM: The Open Source CFD Toolbox           |
|  \\    /   O peration     | Version:  v2012                                 |
|   \\  /    A nd           | Website:  www.openfoam.com                      |
|    \\/     M anipulation  |                                                 |
\*---------------------------------------------------------------------------*/
FoamFile
{
    version     2.0;
    format      ascii;
    class       volScalarField;
    location    "593";
    object      p;
}
// * * * * * * * * * * * * * * * * * * * * * * * * * * * * * * * * * * * * * //

dimensions      [0 2 -2 0 0 0 0];


internalField   nonuniform List<scalar> 
6598
(
0.354306
0.353585
0.353196
0.353032
0.352961
0.352961
0.353031
0.353195
0.353583
0.354305
0.353491
0.353282
0.353089
0.352969
0.352912
0.352912
0.352968
0.353088
0.353281
0.353489
0.352932
0.352944
0.352869
0.352788
0.352749
0.352749
0.352787
0.352867
0.352942
0.35293
0.352595
0.352657
0.352616
0.352557
0.352531
0.35253
0.352556
0.352614
0.352654
0.352592
0.352323
0.352393
0.352367
0.352318
0.352296
0.352295
0.352316
0.352363
0.352389
0.35232
0.352063
0.352129
0.35211
0.352071
0.352052
0.352051
0.352068
0.352105
0.352123
0.352057
0.351808
0.351867
0.351847
0.351814
0.351797
0.351795
0.351809
0.351839
0.351857
0.351799
0.351558
0.351609
0.351587
0.351555
0.351539
0.351537
0.351548
0.351575
0.351595
0.351545
0.351312
0.351355
0.351331
0.351299
0.351282
0.351278
0.351287
0.351313
0.351334
0.351291
0.351067
0.351103
0.351077
0.351045
0.351026
0.35102
0.351027
0.35105
0.351071
0.351035
0.350824
0.350854
0.350826
0.350792
0.350771
0.350762
0.350765
0.350785
0.350806
0.350775
0.350584
0.350609
0.350579
0.350543
0.350517
0.350503
0.350502
0.350517
0.350537
0.350511
0.350351
0.350372
0.350338
0.350297
0.350265
0.350244
0.350236
0.350246
0.350263
0.35024
0.350127
0.350144
0.350105
0.350057
0.350015
0.349983
0.349965
0.349967
0.34998
0.34996
0.349917
0.34993
0.349884
0.349825
0.349768
0.34972
0.349687
0.349676
0.349684
0.349666
0.349728
0.349736
0.349681
0.349605
0.349525
0.349451
0.349396
0.349369
0.349369
0.349353
0.349571
0.349573
0.349504
0.349403
0.349291
0.349179
0.349087
0.349032
0.349024
0.349014
0.34946
0.349455
0.349365
0.349228
0.349068
0.348899
0.348746
0.348648
0.348635
0.348641
0.349416
0.349404
0.349286
0.349097
0.348861
0.3486
0.348345
0.348162
0.34814
0.348265
0.349468
0.349447
0.349296
0.349038
0.348701
0.348306
0.347882
0.347562
0.347526
0.347977
0.349654
0.349626
0.349433
0.349091
0.348621
0.34803
0.347304
0.346527
0.345606
0.341362
0.350012
0.34998
0.349745
0.349318
0.348715
0.347943
0.346933
0.345558
0.34472
0.346535
0.350584
0.350557
0.350288
0.349782
0.349058
0.348143
0.347009
0.345345
0.343299
0.344977
0.351421
0.351406
0.351108
0.350528
0.349685
0.348608
0.34731
0.345476
0.342355
0.342855
0.352575
0.352575
0.352248
0.351594
0.35063
0.349379
0.347868
0.345943
0.342446
0.342128
0.354092
0.35411
0.353754
0.353022
0.351936
0.350518
0.34879
0.346728
0.342989
0.341509
0.356025
0.356059
0.355672
0.354858
0.353642
0.352048
0.350087
0.347829
0.343937
0.341181
0.358451
0.358509
0.358091
0.357184
0.355819
0.354025
0.351802
0.349275
0.34538
0.341451
0.361465
0.361548
0.361098
0.360081
0.358541
0.356516
0.353991
0.351071
0.347081
0.342753
0.365141
0.36525
0.36474
0.363587
0.361845
0.359558
0.356722
0.353396
0.349148
0.344743
0.369548
0.369681
0.369086
0.367773
0.365793
0.363201
0.36002
0.356305
0.351745
0.347082
0.374748
0.374893
0.374206
0.372708
0.370446
0.367485
0.363877
0.359695
0.354825
0.349746
0.38085
0.381
0.380204
0.378484
0.375884
0.372475
0.36833
0.363548
0.358209
0.352571
0.387979
0.388132
0.387204
0.385219
0.382218
0.378276
0.373481
0.367964
0.361914
0.355578
0.396273
0.396424
0.395341
0.39305
0.389588
0.385032
0.379477
0.373083
0.366124
0.358913
0.405875
0.406023
0.404765
0.402133
0.398156
0.39291
0.386497
0.379097
0.371053
0.362777
0.416938
0.417082
0.415633
0.412632
0.408096
0.402099
0.394746
0.386234
0.37695
0.367428
0.429611
0.429752
0.428102
0.424713
0.41959
0.4128
0.404449
0.394745
0.384108
0.373181
0.444033
0.444173
0.442315
0.438531
0.432811
0.425211
0.415836
0.404899
0.392841
0.380387
0.460315
0.460456
0.458389
0.454214
0.447906
0.439507
0.429121
0.416957
0.403463
0.389411
0.478532
0.478672
0.476398
0.471846
0.464978
0.455823
0.444476
0.431141
0.416255
0.400602
0.498711
0.498842
0.49636
0.491452
0.484068
0.474223
0.462005
0.447606
0.431437
0.414258
0.52081
0.520918
0.518226
0.512982
0.505137
0.494689
0.481722
0.466409
0.44913
0.430584
0.544705
0.54477
0.541859
0.536298
0.528049
0.517098
0.503524
0.487486
0.46932
0.449645
0.570192
0.570188
0.567037
0.561167
0.552567
0.541212
0.527185
0.51063
0.491835
0.471332
0.596985
0.596874
0.59345
0.587261
0.57835
0.566685
0.552353
0.53549
0.516341
0.495343
0.624713
0.624446
0.620696
0.614162
0.604963
0.593067
0.578567
0.561593
0.54235
0.521192
0.652915
0.652433
0.648289
0.641365
0.631888
0.619828
0.605278
0.588368
0.569268
0.548254
0.681043
0.680276
0.675658
0.668293
0.658545
0.646384
0.631895
0.615202
0.596444
0.575832
0.708446
0.707315
0.702141
0.694301
0.684313
0.672129
0.657817
0.641485
0.623239
0.60323
0.734337
0.73275
0.726976
0.718687
0.708547
0.69647
0.682481
0.666662
0.64908
0.629834
0.757742
0.7556
0.749311
0.740736
0.730628
0.71886
0.705395
0.690271
0.673507
0.655153
0.777318
0.774709
0.768212
0.759705
0.749975
0.738839
0.726177
0.711969
0.696191
0.678846
0.790812
0.789127
0.783152
0.775099
0.766172
0.756094
0.744581
0.731548
0.716934
0.700705
0.796799
0.796889
0.792988
0.786451
0.779016
0.770511
0.760531
0.74894
0.735663
0.720639
0.798209
0.798893
0.797487
0.793604
0.788501
0.782124
0.77406
0.764153
0.752335
0.738552
0.798259
0.798523
0.798415
0.797227
0.794938
0.79113
0.785335
0.777338
0.767075
0.754533
0.798192
0.797701
0.797832
0.798552
0.798876
0.797723
0.794377
0.788441
0.779785
0.768461
0.798901
0.797913
0.797867
0.799355
0.80159
0.802731
0.801478
0.79723
0.789926
0.779637
0.800093
0.799525
0.799721
0.801603
0.804637
0.807231
0.807831
0.805164
0.799419
0.790741
0.320988
0.324746
0.327209
0.329261
0.33053
0.330816
0.330271
0.32903
0.327235
0.325245
0.323218
0.321231
0.319481
0.318129
0.317219
0.316747
0.316723
0.317152
0.318015
0.319242
0.320698
0.322157
0.323278
0.323808
0.32395
0.328525
0.325564
0.325752
0.327141
0.32826
0.328651
0.328114
0.326816
0.32507
0.323147
0.321249
0.319503
0.318039
0.316931
0.316205
0.315858
0.315887
0.316306
0.317105
0.318256
0.31968
0.321225
0.322665
0.323607
0.323977
0.329009
0.325805
0.325093
0.325748
0.326487
0.326695
0.326117
0.324886
0.323266
0.321494
0.319774
0.318236
0.316976
0.316049
0.315464
0.315201
0.315242
0.31559
0.31624
0.317179
0.318374
0.319748
0.321185
0.32242
0.323164
0.32773
0.324697
0.323812
0.324255
0.324887
0.32505
0.324459
0.323227
0.321646
0.319959
0.318353
0.316967
0.315876
0.315097
0.314617
0.314414
0.314472
0.314791
0.315363
0.316171
0.31719
0.318366
0.319613
0.320779
0.321655
0.327998
0.323526
0.322089
0.322443
0.3232
0.323427
0.32294
0.321815
0.32033
0.318763
0.317296
0.316051
0.315088
0.314412
0.314
0.313832
0.313893
0.314186
0.314702
0.315425
0.316329
0.317367
0.318454
0.319456
0.320314
0.32911
0.323295
0.320914
0.321056
0.321879
0.322215
0.321873
0.32091
0.319548
0.318093
0.316731
0.315589
0.314714
0.314101
0.313724
0.313573
0.313634
0.313911
0.314396
0.315073
0.315915
0.316883
0.317886
0.318724
0.319396
0.330042
0.323933
0.321044
0.32083
0.321436
0.321794
0.321511
0.320683
0.31941
0.318025
0.316708
0.315604
0.314763
0.314173
0.313811
0.313667
0.31373
0.314001
0.314477
0.315142
0.315974
0.316948
0.317983
0.318762
0.319026
0.331151
0.325549
0.322622
0.321938
0.322212
0.322515
0.322252
0.321389
0.320077
0.318662
0.31731
0.31617
0.315303
0.314696
0.314322
0.314165
0.31422
0.314485
0.314966
0.315652
0.316526
0.317574
0.31878
0.319762
0.31952
0.333348
0.32815
0.325269
0.324241
0.3242
0.324318
0.323975
0.322979
0.321636
0.320118
0.318648
0.317377
0.316396
0.31571
0.315287
0.315099
0.315132
0.315386
0.31587
0.316581
0.317496
0.318571
0.319851
0.321477
0.323175
0.33639
0.331463
0.328615
0.327392
0.327123
0.327039
0.326518
0.325423
0.324061
0.322444
0.320803
0.319314
0.318106
0.317228
0.316668
0.316393
0.316368
0.316566
0.316984
0.317616
0.318454
0.319511
0.320894
0.32275
0.324858
0.3397
0.335049
0.332281
0.330988
0.33059
0.330379
0.329795
0.328693
0.327239
0.325574
0.323822
0.32213
0.320642
0.319455
0.318611
0.318112
0.317935
0.318012
0.318324
0.318878
0.319681
0.320741
0.322062
0.323565
0.325342
0.342993
0.33854
0.335875
0.334565
0.334087
0.333816
0.33324
0.33219
0.330811
0.329248
0.327561
0.32585
0.324238
0.32283
0.321718
0.32096
0.320564
0.320497
0.320754
0.321344
0.322255
0.323385
0.32469
0.326178
0.328165
0.346119
0.341756
0.339118
0.337772
0.337239
0.336951
0.336432
0.335491
0.334277
0.33293
0.331465
0.329947
0.328483
0.327153
0.326098
0.325352
0.324871
0.324699
0.324884
0.325437
0.326314
0.327367
0.328736
0.330409
0.331966
0.349083
0.34462
0.341878
0.340434
0.339828
0.339514
0.339044
0.338211
0.337166
0.336065
0.334857
0.333548
0.332308
0.331232
0.330375
0.329759
0.329378
0.329245
0.329473
0.330056
0.330797
0.331613
0.332543
0.33354
0.334474
0.352039
0.347227
0.344211
0.342562
0.341811
0.341439
0.340999
0.340263
0.339311
0.33838
0.337449
0.336418
0.33538
0.334484
0.333797
0.333331
0.333075
0.333027
0.333207
0.333572
0.334038
0.334584
0.33518
0.335788
0.3364
0.355207
0.349782
0.346284
0.344284
0.343284
0.342789
0.342357
0.341714
0.340832
0.339937
0.33916
0.338397
0.337605
0.336897
0.336333
0.335945
0.335742
0.335712
0.33583
0.336055
0.336363
0.336747
0.337175
0.337609
0.338028
0.358868
0.352557
0.348335
0.345792
0.344411
0.343692
0.343205
0.342636
0.341875
0.341012
0.340228
0.339569
0.338972
0.338439
0.338011
0.337707
0.337539
0.337509
0.337606
0.337801
0.338061
0.338363
0.338683
0.338996
0.339283
0.363365
0.355886
0.35067
0.347352
0.345416
0.344338
0.343686
0.343122
0.342466
0.341716
0.340976
0.340323
0.339783
0.339339
0.338993
0.338753
0.338624
0.338614
0.338721
0.338919
0.339169
0.339444
0.339718
0.339971
0.340189
0.369085
0.360166
0.353662
0.349299
0.34658
0.344971
0.344007
0.34333
0.342703
0.34204
0.341381
0.34079
0.340283
0.339869
0.339564
0.339367
0.339272
0.339276
0.339374
0.339558
0.339814
0.340102
0.340378
0.34062
0.340819
0.376447
0.365841
0.35775
0.352041
0.348266
0.345894
0.344436
0.343494
0.342782
0.34214
0.341533
0.340989
0.340535
0.340183
0.339934
0.339785
0.339729
0.339754
0.339845
0.340005
0.340234
0.340508
0.340794
0.341054
0.341263
0.385874
0.373385
0.363429
0.356055
0.350912
0.347494
0.345298
0.343895
0.342945
0.342221
0.341609
0.341089
0.340669
0.340358
0.340155
0.340054
0.340047
0.340121
0.340257
0.340438
0.340643
0.340875
0.341135
0.341396
0.341619
0.397757
0.383274
0.371228
0.361884
0.355035
0.350242
0.347008
0.344879
0.343479
0.342516
0.3418
0.341241
0.340812
0.340509
0.340329
0.340263
0.340298
0.340419
0.340604
0.340828
0.341066
0.3413
0.34153
0.341758
0.341965
0.412409
0.395935
0.381671
0.370105
0.361223
0.354701
0.350085
0.346912
0.344775
0.343337
0.34235
0.341645
0.341138
0.340792
0.340594
0.340532
0.34059
0.340746
0.340971
0.341232
0.341497
0.341748
0.341979
0.342176
0.342336
0.430009
0.411682
0.395207
0.381278
0.370099
0.361507
0.355139
0.350562
0.347353
0.345141
0.343628
0.342588
0.341875
0.341403
0.341128
0.34103
0.341087
0.341261
0.341509
0.341783
0.342034
0.34225
0.342436
0.342589
0.342713
0.450546
0.430641
0.412132
0.395857
0.382237
0.371308
0.362845
0.356487
0.351832
0.348496
0.346144
0.344505
0.343378
0.342626
0.342174
0.34198
0.342004
0.342147
0.342314
0.342479
0.342636
0.342779
0.342903
0.343014
0.343115
0.473785
0.452693
0.432491
0.414079
0.398057
0.384663
0.37385
0.365375
0.358899
0.354059
0.350505
0.347938
0.346112
0.344852
0.344055
0.343637
0.343445
0.343348
0.34329
0.343268
0.343302
0.343376
0.34346
0.34354
0.343612
0.499267
0.477447
0.45602
0.435869
0.417691
0.401904
0.388643
0.377824
0.369213
0.362503
0.357367
0.353494
0.350615
0.348515
0.347087
0.346152
0.345449
0.344917
0.344571
0.344375
0.344279
0.344244
0.34424
0.34425
0.344262
0.526346
0.504261
0.48214
0.460775
0.440883
0.422993
0.407402
0.39419
0.38326
0.3744
0.367339
0.361786
0.357458
0.354109
0.351621
0.349802
0.348421
0.347397
0.346675
0.346174
0.345827
0.345584
0.345413
0.345287
0.345187
0.554266
0.532328
0.510022
0.488012
0.466963
0.447443
0.429856
0.414421
0.401185
0.390056
0.380847
0.373318
0.367204
0.362234
0.358234
0.355203
0.353008
0.351334
0.350024
0.349018
0.348257
0.347677
0.347227
0.34687
0.346577
0.582257
0.560788
0.538716
0.516575
0.494937
0.474346
0.455249
0.43796
0.422645
0.409331
0.397938
0.388304
0.380215
0.373423
0.367688
0.363045
0.3596
0.357032
0.354961
0.353271
0.351909
0.350816
0.349938
0.349223
0.348627
0.60963
0.588848
0.567306
0.545422
0.52367
0.502535
0.482456
0.463789
0.44678
0.431556
0.418138
0.406459
0.396383
0.387731
0.380294
0.373952
0.368756
0.364682
0.361532
0.359032
0.356945
0.355197
0.353746
0.352531
0.351498
0.635835
0.615869
0.595028
0.573642
0.552102
0.530824
0.510215
0.490634
0.472368
0.45561
0.440465
0.42695
0.415014
0.404557
0.395445
0.387546
0.38072
0.374954
0.37024
0.366399
0.363243
0.36066
0.358542
0.356749
0.35519
0.66049
0.641401
0.621331
0.600551
0.57939
0.558209
0.537379
0.517243
0.498102
0.480185
0.463653
0.448588
0.435011
0.422886
0.412144
0.402694
0.394435
0.387281
0.381092
0.375787
0.371341
0.367622
0.364482
0.361814
0.359537
0.683359
0.665159
0.645858
0.625693
0.604952
0.583963
0.563068
0.542596
0.522846
0.504068
0.486452
0.470127
0.455164
0.441581
0.429357
0.41844
0.408762
0.400244
0.392787
0.386306
0.380703
0.375836
0.371597
0.367955
0.364855
0.704322
0.686979
0.668392
0.648782
0.628416
0.607607
0.586681
0.565965
0.545754
0.526307
0.507832
0.490488
0.474379
0.459562
0.446051
0.43383
0.422856
0.413068
0.404391
0.39674
0.390023
0.384141
0.379004
0.374539
0.370664
0.723239
0.706691
0.688724
0.669564
0.649484
0.628788
0.607805
0.586863
0.566259
0.546258
0.527079
0.508898
0.491843
0.475996
0.4614
0.448063
0.435965
0.425063
0.415297
0.406596
0.39888
0.392063
0.386058
0.380781
0.376153
0.74015
0.724265
0.706766
0.687897
0.667926
0.647184
0.626039
0.604827
0.583844
0.563349
0.543568
0.524686
0.506846
0.490148
0.474653
0.460387
0.447348
0.435509
0.424824
0.415233
0.406664
0.399039
0.392277
0.386297
0.381018
0.754923
0.739552
0.722314
0.703551
0.683592
0.662765
0.641423
0.619931
0.598594
0.577669
0.557381
0.537923
0.519444
0.502057
0.485835
0.470817
0.457013
0.444409
0.432969
0.422643
0.413367
0.40507
0.397675
0.391105
0.385281
0.766642
0.751508
0.734378
0.715612
0.695549
0.674575
0.65305
0.631306
0.609643
0.588331
0.567603
0.547657
0.528653
0.510711
0.493914
0.478312
0.463922
0.450738
0.438732
0.42786
0.418063
0.409274
0.401418
0.394416
0.388184
0.778797
0.764051
0.74709
0.728358
0.708191
0.686991
0.665143
0.642995
0.620862
0.599026
0.577735
0.557195
0.537575
0.519005
0.501577
0.485347
0.470339
0.456559
0.443987
0.432582
0.422288
0.41304
0.404765
0.397391
0.390847
0.318078
0.31756
0.316845
0.323274
0.322901
0.325283
0.326415
0.328403
0.331427
0.327253
0.329803
0.332694
0.330345
0.332176
0.333816
0.333261
0.334354
0.335349
0.335279
0.336018
0.336707
0.336959
0.337448
0.337888
0.338391
0.33869
0.338946
0.339516
0.339696
0.339838
0.340354
0.340472
0.340552
0.340961
0.341055
0.341108
0.341407
0.341498
0.341547
0.341771
0.341867
0.341917
0.342113
0.342207
0.342255
0.342457
0.342536
0.342573
0.342805
0.342865
0.342889
0.34319
0.343233
0.343244
0.34366
0.343681
0.343675
0.344262
0.344245
0.344208
0.345098
0.34501
0.344914
0.346334
0.346124
0.345924
0.348144
0.347742
0.347377
0.350661
0.349975
0.349366
0.353914
0.352863
0.35193
0.357697
0.356197
0.354875
0.362359
0.36032
0.358512
0.367503
0.364894
0.362558
0.372351
0.369204
0.366381
0.376656
0.373037
0.369786
0.380456
0.376429
0.372798
0.382975
0.378652
0.374785
0.385296
0.380606
0.376475
0.362089
0.362043
0.361908
0.361475
0.36055
0.359199
0.35757
0.355787
0.353952
0.352135
0.350384
0.348728
0.347182
0.345754
0.344443
0.343248
0.342164
0.341184
0.340302
0.339512
0.338808
0.338185
0.337638
0.337163
0.336756
0.336415
0.336137
0.33592
0.335763
0.335664
0.335625
0.335648
0.33573
0.335872
0.336075
0.336342
0.336671
0.337059
0.337521
0.338062
0.338677
0.339369
0.34014
0.340992
0.341927
0.342947
0.34405
0.345237
0.346504
0.347844
0.349249
0.350703
0.352185
0.353661
0.355088
0.356399
0.357494
0.358254
0.358627
0.358633
0.358171
0.357157
0.355647
0.353582
0.350846
0.347607
0.344139
0.340546
0.336994
0.333801
0.33128
0.329608
0.32887
0.329137
0.330407
0.332488
0.334969
0.337161
0.338383
0.338776
0.3622
0.362068
0.361867
0.361251
0.360183
0.358794
0.357177
0.355438
0.353659
0.351902
0.350209
0.348604
0.347103
0.345712
0.344432
0.343261
0.342195
0.341228
0.340355
0.339571
0.33887
0.338246
0.337696
0.337216
0.336802
0.336452
0.336162
0.335933
0.335761
0.335647
0.33559
0.335587
0.335641
0.335753
0.335926
0.336169
0.336475
0.336819
0.337223
0.337713
0.338273
0.338901
0.339602
0.340376
0.341225
0.342148
0.343144
0.34421
0.345341
0.346531
0.347767
0.349035
0.350313
0.351571
0.352772
0.353866
0.354786
0.355462
0.355839
0.355887
0.355527
0.35466
0.353135
0.350934
0.348136
0.344856
0.341335
0.337796
0.33444
0.331527
0.329275
0.327805
0.327173
0.327435
0.328591
0.330569
0.333143
0.33587
0.337869
0.338724
0.362304
0.361811
0.361197
0.360287
0.359091
0.357688
0.356134
0.354501
0.352846
0.351214
0.349638
0.348138
0.346728
0.345415
0.3442
0.343083
0.34206
0.341129
0.340285
0.339522
0.338837
0.338225
0.337683
0.337207
0.336794
0.336441
0.336147
0.335909
0.335727
0.3356
0.335528
0.335509
0.335543
0.335632
0.335775
0.335982
0.336253
0.33658
0.336956
0.337394
0.3379
0.338473
0.339112
0.339819
0.340593
0.341433
0.342337
0.343303
0.344323
0.34539
0.346493
0.347616
0.348738
0.349832
0.350864
0.351795
0.352579
0.353174
0.353524
0.35353
0.353119
0.35225
0.350824
0.348778
0.346133
0.342985
0.339552
0.336102
0.332894
0.330154
0.32808
0.326793
0.326273
0.326463
0.327337
0.328867
0.330971
0.333454
0.335741
0.33726
0.361484
0.360671
0.359783
0.358743
0.357526
0.35617
0.354719
0.353222
0.351715
0.350232
0.348796
0.347424
0.346127
0.344912
0.343782
0.342737
0.341775
0.340894
0.340091
0.339361
0.338703
0.338112
0.337585
0.337119
0.336712
0.336362
0.336066
0.335824
0.335635
0.335497
0.335411
0.335375
0.335391
0.335458
0.335578
0.335752
0.335981
0.336266
0.336606
0.337003
0.33746
0.337978
0.338557
0.339198
0.339901
0.340663
0.341484
0.34236
0.343285
0.344252
0.345249
0.346264
0.347278
0.348268
0.349205
0.350059
0.350793
0.351381
0.351796
0.351931
0.351619
0.350765
0.349334
0.347321
0.344741
0.341661
0.338264
0.334838
0.331724
0.329136
0.327196
0.326008
0.325574
0.325784
0.326566
0.32786
0.329602
0.331677
0.333736
0.335306
0.35945
0.358469
0.357582
0.356621
0.355513
0.354284
0.352986
0.351657
0.350322
0.349005
0.347725
0.346496
0.345327
0.344225
0.343193
0.342232
0.341343
0.340522
0.33977
0.339084
0.33846
0.337897
0.337392
0.336943
0.336548
0.336205
0.335914
0.335672
0.335479
0.335334
0.335237
0.335188
0.335187
0.335235
0.335332
0.33548
0.335678
0.335927
0.33623
0.336586
0.336997
0.337465
0.337989
0.33857
0.339208
0.339901
0.340648
0.341444
0.342285
0.343163
0.34407
0.344992
0.345915
0.346817
0.347668
0.348449
0.349126
0.349665
0.350036
0.350168
0.349927
0.349207
0.347958
0.34614
0.343761
0.340903
0.337706
0.334409
0.331366
0.328866
0.327051
0.325964
0.325602
0.325858
0.326629
0.327844
0.329427
0.331239
0.33296
0.334234
0.355102
0.35466
0.354322
0.353755
0.352954
0.351981
0.350922
0.349827
0.348705
0.347582
0.346478
0.345406
0.344377
0.343398
0.342473
0.341605
0.340795
0.340043
0.339349
0.338711
0.338128
0.337598
0.33712
0.336692
0.336313
0.335982
0.335697
0.335458
0.335264
0.335115
0.33501
0.334949
0.334934
0.334964
0.335039
0.335162
0.335332
0.33555
0.335816
0.336133
0.336501
0.336921
0.337393
0.337918
0.338495
0.339123
0.339799
0.340521
0.341284
0.342082
0.342905
0.343744
0.344588
0.345414
0.346182
0.346886
0.347512
0.348017
0.348366
0.348481
0.348282
0.347725
0.346757
0.345283
0.343273
0.340791
0.338012
0.335095
0.332265
0.329817
0.328001
0.326924
0.326568
0.326842
0.327623
0.328839
0.330396
0.332087
0.333491
0.33437
0.347451
0.349353
0.350039
0.350182
0.349898
0.349331
0.348624
0.347825
0.346954
0.346048
0.345132
0.344226
0.343341
0.342488
0.341673
0.340901
0.340173
0.339492
0.338858
0.338272
0.337732
0.337238
0.33679
0.336385
0.336025
0.335707
0.335431
0.335196
0.335003
0.334851
0.33474
0.33467
0.334641
0.334655
0.334711
0.33481
0.334953
0.335141
0.335375
0.335654
0.335981
0.336356
0.33678
0.337252
0.337772
0.338339
0.33895
0.339604
0.340296
0.341019
0.341767
0.34253
0.343299
0.344062
0.344775
0.345426
0.346018
0.3465
0.346849
0.347013
0.346927
0.346555
0.34585
0.344763
0.343274
0.341376
0.339166
0.336788
0.334309
0.332018
0.330174
0.328993
0.328545
0.328794
0.329623
0.330914
0.332549
0.334241
0.335429
0.335705
0.331368
0.34097
0.34438
0.345977
0.346495
0.346497
0.346233
0.345764
0.345158
0.344475
0.34375
0.343008
0.342266
0.341537
0.340831
0.340152
0.339506
0.338896
0.338322
0.337788
0.337291
0.336834
0.336416
0.336036
0.335694
0.335391
0.335125
0.334896
0.334705
0.334551
0.334435
0.334356
0.334316
0.334314
0.334351
0.334429
0.334547
0.334707
0.334909
0.335154
0.335443
0.335776
0.336154
0.336577
0.337044
0.337555
0.338108
0.3387
0.339328
0.339987
0.340669
0.341365
0.342064
0.342762
0.343462
0.344116
0.344692
0.345167
0.345509
0.345729
0.345799
0.345652
0.345243
0.34454
0.343609
0.342448
0.340907
0.339089
0.337157
0.335272
0.333587
0.332287
0.331495
0.331279
0.331734
0.332848
0.334292
0.335754
0.337013
0.336975
0.331552
0.337109
0.340376
0.342472
0.343505
0.343965
0.344043
0.343844
0.343467
0.34298
0.342424
0.341829
0.341216
0.340601
0.339993
0.339402
0.338831
0.338287
0.33777
0.337284
0.33683
0.336408
0.336018
0.335662
0.335339
0.33505
0.334794
0.334571
0.334383
0.334228
0.334107
0.33402
0.333969
0.333953
0.333973
0.33403
0.334125
0.334259
0.334432
0.334645
0.334899
0.335194
0.335531
0.335911
0.336331
0.336794
0.337296
0.337836
0.33841
0.339016
0.339647
0.340296
0.340955
0.341616
0.34227
0.342901
0.343488
0.34401
0.344445
0.344781
0.345001
0.345075
0.34498
0.344694
0.344218
0.343579
0.34274
0.341694
0.340622
0.339608
0.338584
0.337568
0.336741
0.336202
0.33603
0.336367
0.337433
0.339555
0.34261
0.344628
0.334464
0.337164
0.339168
0.340661
0.341612
0.342144
0.342331
0.342269
0.342035
0.341684
0.341255
0.340775
0.340266
0.339744
0.339219
0.338701
0.338196
0.337708
0.337241
0.336798
0.33638
0.335989
0.335625
0.33529
0.334984
0.334707
0.33446
0.334243
0.334056
0.3339
0.333775
0.333681
0.33362
0.333591
0.333596
0.333635
0.333709
0.33382
0.333967
0.334152
0.334376
0.334638
0.33494
0.335282
0.335664
0.336086
0.336547
0.337045
0.337579
0.338145
0.338739
0.339356
0.339991
0.340636
0.341282
0.341919
0.342533
0.34311
0.343637
0.344101
0.344491
0.344792
0.344994
0.345092
0.345089
0.344994
0.344818
0.344575
0.344315
0.344081
0.343948
0.343898
0.343916
0.344228
0.34491
0.345823
0.347088
0.34934
0.353281
0.358514
0.33512
0.3371
0.338599
0.339714
0.34047
0.340903
0.341081
0.341065
0.340901
0.34063
0.340283
0.339884
0.339451
0.338998
0.338538
0.338078
0.337624
0.337183
0.336756
0.336348
0.335961
0.335595
0.335253
0.334936
0.334644
0.334377
0.334138
0.333925
0.333739
0.333581
0.333452
0.333352
0.333281
0.333241
0.333232
0.333255
0.333311
0.333401
0.333526
0.333687
0.333884
0.334119
0.334392
0.334704
0.335054
0.335444
0.335873
0.33634
0.336844
0.337383
0.337953
0.338553
0.339177
0.33982
0.340476
0.341138
0.341796
0.342442
0.343067
0.343663
0.344223
0.34474
0.34521
0.345633
0.346016
0.34637
0.346711
0.34707
0.347483
0.347989
0.348654
0.349521
0.35056
0.351815
0.353417
0.355478
0.358029
0.361169
0.365197
0.370149
0.335464
0.336983
0.338207
0.339123
0.339724
0.340064
0.340205
0.340189
0.34005
0.339818
0.339518
0.339168
0.338785
0.338381
0.337966
0.337548
0.337134
0.336727
0.336331
0.33595
0.335586
0.335241
0.334916
0.334612
0.334331
0.334072
0.333838
0.333627
0.333442
0.333282
0.333148
0.333042
0.332963
0.332912
0.33289
0.332899
0.332939
0.333011
0.333117
0.333257
0.333433
0.333645
0.333894
0.334182
0.334508
0.334874
0.33528
0.335725
0.336209
0.336731
0.337289
0.337882
0.338507
0.339161
0.339839
0.340536
0.341248
0.341969
0.342694
0.343418
0.344138
0.344851
0.345557
0.34626
0.346966
0.347689
0.348443
0.349253
0.350148
0.351159
0.352325
0.353683
0.355267
0.357132
0.359329
0.361891
0.364835
0.368104
0.371646
0.375442
0.336382
0.337379
0.338233
0.338898
0.339334
0.339566
0.339646
0.339601
0.339456
0.339232
0.33895
0.338625
0.33827
0.337896
0.33751
0.33712
0.336732
0.336349
0.335975
0.335614
0.335266
0.334936
0.334622
0.334328
0.334054
0.333801
0.333569
0.33336
0.333173
0.333011
0.332872
0.332759
0.332672
0.332612
0.332579
0.332575
0.332601
0.332657
0.332747
0.332869
0.333027
0.333221
0.333452
0.333721
0.334029
0.334377
0.334766
0.335197
0.33567
0.336184
0.336739
0.337334
0.337969
0.33864
0.339347
0.340086
0.340855
0.34165
0.34247
0.343311
0.344174
0.345056
0.345962
0.346894
0.347861
0.348873
0.349944
0.351094
0.352346
0.353726
0.355269
0.357019
0.358997
0.361134
0.363384
0.365802
0.368428
0.371244
0.374234
0.377449
0.337374
0.337994
0.338531
0.338952
0.339224
0.339346
0.339348
0.339253
0.339081
0.338845
0.338562
0.338243
0.337899
0.337538
0.337168
0.336794
0.336421
0.336053
0.335692
0.335343
0.335006
0.334684
0.334378
0.33409
0.33382
0.333569
0.333338
0.333128
0.33294
0.332774
0.33263
0.332511
0.332416
0.332346
0.332303
0.332288
0.332301
0.332345
0.33242
0.332528
0.332671
0.33285
0.333066
0.333321
0.333616
0.333952
0.334331
0.334753
0.33522
0.335733
0.33629
0.336894
0.337543
0.338238
0.338976
0.339758
0.340582
0.341447
0.342352
0.343296
0.34428
0.345303
0.34637
0.347483
0.348649
0.349876
0.351175
0.352559
0.354044
0.355651
0.357415
0.359365
0.361434
0.363521
0.365632
0.367861
0.37026
0.372804
0.375475
0.378271
0.338299
0.338666
0.338967
0.339189
0.339311
0.33933
0.339251
0.339098
0.338886
0.338625
0.338327
0.338001
0.337656
0.337297
0.336932
0.336564
0.336198
0.335836
0.335482
0.335139
0.334807
0.33449
0.334187
0.333901
0.333632
0.333382
0.33315
0.332938
0.332747
0.332576
0.332428
0.332302
0.332199
0.332121
0.332069
0.332043
0.332045
0.332077
0.332141
0.332237
0.332367
0.332534
0.332739
0.332983
0.333268
0.333596
0.333969
0.334387
0.334853
0.335368
0.335932
0.336547
0.337214
0.337932
0.338703
0.339525
0.340399
0.341326
0.342304
0.343333
0.344416
0.345551
0.346743
0.347992
0.349304
0.350683
0.352136
0.353669
0.355293
0.357024
0.358884
0.360853
0.362822
0.364798
0.366853
0.368992
0.371214
0.373522
0.375913
0.378368
0.339173
0.339359
0.339488
0.339556
0.339546
0.339464
0.339311
0.339094
0.338835
0.338541
0.33822
0.337879
0.337524
0.33716
0.336792
0.336423
0.336057
0.335697
0.335344
0.335001
0.334671
0.334354
0.334052
0.333765
0.333496
0.333243
0.333009
0.332794
0.332598
0.332423
0.332269
0.332136
0.332026
0.33194
0.331878
0.331843
0.331836
0.331857
0.33191
0.331996
0.332116
0.332273
0.332468
0.332705
0.332983
0.333306
0.333675
0.334092
0.33456
0.335079
0.335652
0.33628
0.336964
0.337706
0.338505
0.339364
0.340282
0.341259
0.342297
0.343395
0.344554
0.345775
0.347058
0.348405
0.349818
0.351297
0.352846
0.354466
0.35616
0.357938
0.359804
0.361691
0.363574
0.365512
0.367506
0.369531
0.371587
0.373687
0.375838
0.378026
0.339948
0.340013
0.340028
0.339988
0.339885
0.339713
0.339483
0.339205
0.338897
0.338567
0.338219
0.337858
0.337489
0.337115
0.336739
0.336365
0.335995
0.335631
0.335275
0.334931
0.334598
0.334279
0.333975
0.333686
0.333413
0.333158
0.33292
0.3327
0.3325
0.332319
0.332158
0.332019
0.331901
0.331807
0.331736
0.331692
0.331675
0.331688
0.331731
0.331808
0.331919
0.332067
0.332255
0.332485
0.332758
0.333078
0.333445
0.333863
0.334333
0.334859
0.33544
0.336081
0.336781
0.337543
0.338368
0.339257
0.340211
0.341229
0.342313
0.343463
0.344678
0.34596
0.347307
0.34872
0.350197
0.351737
0.353339
0.355001
0.356723
0.358504
0.360323
0.362132
0.363964
0.365858
0.367777
0.369693
0.371609
0.373544
0.375514
0.377517
0.340595
0.340588
0.340532
0.340427
0.340267
0.340036
0.339739
0.339403
0.339047
0.338681
0.338307
0.337925
0.33754
0.337154
0.336768
0.336386
0.33601
0.33564
0.33528
0.33493
0.334593
0.33427
0.333962
0.333668
0.333391
0.33313
0.332888
0.332663
0.332457
0.33227
0.332102
0.331955
0.33183
0.331727
0.331648
0.331595
0.331569
0.331572
0.331607
0.331674
0.331778
0.331919
0.3321
0.332324
0.332593
0.33291
0.333276
0.333695
0.334169
0.3347
0.33529
0.335941
0.336656
0.337435
0.338281
0.339194
0.340175
0.341225
0.342343
0.343529
0.344783
0.346105
0.347494
0.348947
0.350461
0.352032
0.353659
0.355337
0.35706
0.358817
0.360566
0.362312
0.364109
0.365953
0.367803
0.369633
0.371442
0.373255
0.375103
0.376995
0.34112
0.341077
0.340981
0.340837
0.340645
0.340386
0.340045
0.339658
0.339264
0.33887
0.338473
0.338073
0.337673
0.337275
0.336879
0.336489
0.336106
0.335731
0.335365
0.33501
0.334668
0.334338
0.334023
0.333722
0.333438
0.333171
0.332922
0.332691
0.332478
0.332284
0.332109
0.331953
0.331819
0.331706
0.331618
0.331555
0.33152
0.331514
0.33154
0.331599
0.331694
0.331828
0.332004
0.332222
0.332488
0.332802
0.333168
0.333587
0.334064
0.3346
0.335197
0.335858
0.336584
0.337377
0.338239
0.33917
0.340171
0.341243
0.342384
0.343594
0.344872
0.346219
0.347633
0.34911
0.350641
0.352223
0.353854
0.355528
0.357219
0.358911
0.360596
0.362309
0.364078
0.365877
0.367673
0.369439
0.371173
0.372902
0.374671
0.376483
0.34155
0.341493
0.341379
0.341215
0.341005
0.34072
0.340347
0.339935
0.339524
0.339113
0.338701
0.338289
0.337877
0.337469
0.337065
0.336667
0.336278
0.335899
0.335531
0.335173
0.334826
0.33449
0.334167
0.333859
0.333568
0.333292
0.333034
0.332793
0.332573
0.332371
0.332187
0.332021
0.331876
0.331752
0.331653
0.331579
0.331533
0.331517
0.331533
0.331584
0.331671
0.331797
0.331966
0.33218
0.332441
0.332753
0.333118
0.333539
0.334018
0.334558
0.335161
0.33583
0.336566
0.33737
0.338245
0.339189
0.340205
0.341291