/*--------------------------------*- C++ -*----------------------------------*\
| =========                 |                                                 |
| \\      /  F ield         | OpenFOAM: The Open Source CFD Toolbox           |
|  \\    /   O peration     | Version:  v2012                                 |
|   \\  /    A nd           | Website:  www.openfoam.com                      |
|    \\/     M anipulation  |                                                 |
\*---------------------------------------------------------------------------*/
FoamFile
{
    version     2.0;
    format      ascii;
    class       surfaceScalarField;
    location    "593";
    object      phi;
}
// * * * * * * * * * * * * * * * * * * * * * * * * * * * * * * * * * * * * * //

dimensions      [0 3 -1 0 0 0 0];
oriented        oriented;


internalField   nonuniform List<scalar> 
12946
(
6.47673e-08
0.000199935
4.28627e-08
0.000200022
2.54158e-08
0.000200017
1.18846e-08
0.000200014
3.8286e-11
0.000200012
-1.18142e-08
0.000200012
-2.53629e-08
0.000200014
-4.28368e-08
0.000200017
-6.47595e-08
0.000200022
0.000199935
1.02246e-07
0.000199833
8.95221e-08
0.000200035
6.01017e-08
0.000200047
2.96426e-08
0.000200044
1.15282e-10
0.000200041
-2.94295e-08
0.000200041
-5.99404e-08
0.000200044
-8.94408e-08
0.000200047
-1.0223e-07
0.000200035
0.000199833
1.04604e-07
0.000199728
1.04682e-07
0.000200035
7.57739e-08
0.000200076
3.89192e-08
0.000200081
2.1981e-10
0.00020008
-3.85031e-08
0.00020008
-7.54196e-08
0.000200081
-1.04401e-07
0.000200076
-1.04441e-07
0.000200035
0.000199729
1.0139e-07
0.000199627
1.05644e-07
0.00020003
7.96426e-08
0.000200102
4.21256e-08
0.000200118
3.66803e-10
0.000200122
-4.14273e-08
0.000200122
-7.90436e-08
0.000200119
-1.05206e-07
0.000200102
-1.01148e-07
0.000200031
0.000199627
9.7325e-08
0.00019953
1.03e-07
0.000200025
7.91262e-08
0.000200126
4.24535e-08
0.000200155
5.77273e-10
0.000200164
-4.13518e-08
0.000200164
-7.81789e-08
0.000200155
-1.02305e-07
0.000200126
-9.69495e-08
0.000200025
0.00019953
9.22748e-08
0.000199437
9.87384e-08
0.000200018
7.70434e-08
0.000200147
4.17334e-08
0.00020019
8.80012e-10
0.000200205
-4.00583e-08
0.000200205
-7.56151e-08
0.000200191
-9.76803e-08
0.000200148
-9.16982e-08
0.000200019
0.000199439
8.73027e-08
0.00019935
9.38101e-08
0.000200012
7.35077e-08
0.000200168
4.02456e-08
0.000200224
1.33358e-09
0.000200243
-3.77086e-08
0.000200244
-7.1346e-08
0.000200225
-9.22152e-08
0.000200169
-8.64276e-08
0.000200014
0.000199352
8.28878e-08
0.000199267
8.9086e-08
0.000200005
6.9998e-08
0.000200187
3.87431e-08
0.000200255
2.02602e-09
0.00020028
-3.48843e-08
0.000200281
-6.66983e-08
0.000200256
-8.66606e-08
0.000200189
-8.15595e-08
0.000200008
0.000199271
7.92166e-08
0.000199188
8.5125e-08
0.0002
6.72018e-08
0.000200205
3.77479e-08
0.000200284
3.07349e-09
0.000200315
-3.18907e-08
0.000200316
-6.21889e-08
0.000200287
-8.1444e-08
0.000200208
-7.71992e-08
0.000200004
0.000199194
7.63463e-08
0.000199112
8.21399e-08
0.000199994
6.53157e-08
0.000200221
3.75019e-08
0.000200312
4.64688e-09
0.000200348
-2.86455e-08
0.000200349
-5.77353e-08
0.000200316
-7.65707e-08
0.000200227
-7.32912e-08
0.000200001
0.00019912
7.42993e-08
0.000199037
8.02663e-08
0.000199988
6.45456e-08
0.000200237
3.82553e-08
0.000200338
7.00671e-09
0.000200379
-2.49029e-08
0.000200381
-5.3113e-08
0.000200344
-7.18455e-08
0.000200246
-6.96759e-08
0.000199999
0.000199051
7.31509e-08
0.000198964
7.97193e-08
0.000199981
6.51828e-08
0.000200252
4.03698e-08
0.000200363
1.05481e-08
0.000200409
-2.02716e-08
0.000200412
-4.79614e-08
0.000200372
-6.69524e-08
0.000200265
-6.61377e-08
0.000199998
0.000198984
7.30668e-08
0.000198891
8.0807e-08
0.000199973
6.77113e-08
0.000200265
4.44138e-08
0.000200387
1.58826e-08
0.000200437
-1.41541e-08
0.000200442
-4.17483e-08
0.000200399
-6.14671e-08
0.000200285
-6.24172e-08
0.000199999
0.000198922
7.40675e-08
0.000198817
8.36051e-08
0.000199964
7.26218e-08
0.000200276
5.1207e-08
0.000200408
2.39223e-08
0.000200465
-5.67527e-09
0.000200471
-3.37271e-08
0.000200427
-5.48344e-08
0.000200306
-5.82022e-08
0.000200002
0.000198864
7.66869e-08
0.00019874
8.92402e-08
0.000199951
8.11819e-08
0.000200284
6.205e-08
0.000200427
3.6046e-08
0.000200491
6.4629e-09
0.000200501
-2.28238e-08
0.000200457
-4.63129e-08
0.000200329
-5.31289e-08
0.000200009
0.000198811
8.15154e-08
0.000198659
9.87312e-08
0.000199934
9.47393e-08
0.000200288
7.8559e-08
0.000200443
5.40236e-08
0.000200515
2.44377e-08
0.000200531
-7.27457e-09
0.000200488
-3.49474e-08
0.000200357
-4.6869e-08
0.000200021
0.000198764
8.94021e-08
0.000198569
1.13723e-07
0.00019991
1.1584e-07
0.000200286
1.04061e-07
0.000200455
8.17366e-08
0.000200537
5.1044e-08
0.000200561
1.51568e-08
0.000200524
-1.9613e-08
0.000200392
-3.94989e-08
0.000200041
0.000198724
1.01471e-07
0.000198468
1.36397e-07
0.000199875
1.47663e-07
0.000200274
1.42846e-07
0.00020046
1.24002e-07
0.000200556
9.14683e-08
0.000200594
4.79972e-08
0.000200568
-3.95832e-10
0.00020044
-3.37272e-08
0.000200074
0.000198691
1.19188e-07
0.000198349
1.69828e-07
0.000199824
1.94987e-07
0.000200249
2.0124e-07
0.000200454
1.88825e-07
0.000200569
1.56506e-07
0.000200626
1.03358e-07
0.000200621
3.71091e-08
0.000200506
-2.40862e-08
0.000200135
0.000198667
1.4401e-07
0.000198205
2.17531e-07
0.000199751
2.63486e-07
0.000200203
2.87398e-07
0.00020043
2.87229e-07
0.000200569
2.57154e-07
0.000200656
1.83665e-07
0.000200694
5.46236e-08
0.000200635
-1.37041e-07
0.000200327
0.00019853
1.72899e-07
0.000198032
2.74623e-07
0.000199649
3.48737e-07
0.000200129
4.00729e-07
0.000200378
4.29442e-07
0.00020054
4.32395e-07
0.000200653
4.08158e-07
0.000200719
3.57328e-07
0.000200686
5.9584e-07
0.000200089
0.000194109
5.01597e-06
2.15415e-07
0.000197816
3.56801e-07
0.000199508
4.70532e-07
0.000200016
5.63109e-07
0.000200285
6.34865e-07
0.000200468
6.8897e-07
0.000200599
7.46777e-07
0.000200661
8.66957e-07
0.000200566
1.15201e-06
0.000199804
0.000192049
3.21256e-06
2.67621e-07
0.000197549
4.58578e-07
0.000199317
6.21688e-07
0.000199852
7.64657e-07
0.000200142
8.89126e-07
0.000200344
9.98765e-07
0.000200489
1.11135e-06
0.000200548
1.31824e-06
0.000200359
1.93407e-06
0.000199188
0.000188978
5.00441e-06
3.29547e-07
0.000197219
5.79715e-07
0.000199067
8.01592e-07
0.000199631
1.00409e-06
0.00019994
1.19074e-06
0.000200157
1.36949e-06
0.000200311
1.57024e-06
0.000200347
1.91771e-06
0.000200012
2.84464e-06
0.000198261
0.000185566
6.25743e-06
4.01645e-07
0.000196818
7.20872e-07
0.000198747
1.01119e-06
0.00019934
1.2829e-06
0.000199668
1.54184e-06
0.000199898
1.80146e-06
0.000200051
2.10297e-06
0.000200046
2.58502e-06
0.00019953
3.72441e-06
0.000197121
0.000182136
7.15446e-06
4.84625e-07
0.000196333
8.8298e-07
0.000198349
1.25152e-06
0.000198972
1.60189e-06
0.000199318
1.94185e-06
0.000199558
2.28924e-06
0.000199704
2.6944e-06
0.000199641
3.31213e-06
0.000198912
4.68237e-06
0.000195751
0.000178778
8.03984e-06
5.80078e-07
0.000195753
1.06752e-06
0.000197861
1.5243e-06
0.000198515
1.96299e-06
0.000198879
2.39308e-06
0.000199128
2.83671e-06
0.00019926
3.35334e-06
0.000199124
4.11236e-06
0.000198153
5.68038e-06
0.000194183
0.000175632
8.82657e-06
7.13268e-07
0.00019504
1.32556e-06
0.000197249
1.90421e-06
0.000197936
2.46321e-06
0.00019832
3.01453e-06
0.000198577
3.58542e-06
0.000198689
4.2454e-06
0.000198464
5.17471e-06
0.000197224
6.92288e-06
0.000192435
0.000172598
9.95672e-06
8.44463e-07
0.000194195
1.57833e-06
0.000196515
2.27898e-06
0.000197236
2.95847e-06
0.00019764
3.63097e-06
0.000197904
4.32817e-06
0.000197992
5.12968e-06
0.000197663
6.2277e-06
0.000196126
8.10845e-06
0.000190554
0.000169838
1.08687e-05
9.93136e-07
0.000193202
1.86735e-06
0.000195641
2.70476e-06
0.000196398
3.51994e-06
0.000196825
4.32793e-06
0.000197097
5.16349e-06
0.000197156
6.11195e-06
0.000196714
7.37147e-06
0.000194866
9.3651e-06
0.000188561
0.000167369
1.1834e-05
1.16027e-06
0.000192042
2.19848e-06
0.000194603
3.19071e-06
0.000195406
4.15798e-06
0.000195858
5.11595e-06
0.000196139
6.10056e-06
0.000196172
7.19715e-06
0.000195618
8.59517e-06
0.000193468
1.0646e-05
0.00018651
0.000165253
1.27622e-05
1.35416e-06
0.000190688
2.57647e-06
0.000193381
3.74614e-06
0.000194236
4.88571e-06
0.000194718
6.01137e-06
0.000195013
7.15864e-06
0.000195025
8.40929e-06
0.000194367
9.9348e-06
0.000191942
1.19936e-05
0.000184451
0.000163527
1.3719e-05
1.57796e-06
0.00018911
3.01019e-06
0.000191948
4.38343e-06
0.000192863
5.72052e-06
0.000193381
7.03735e-06
0.000193696
8.36765e-06
0.000193694
9.78654e-06
0.000192948
1.14441e-05
0.000190285
1.34756e-05
0.000182419
0.000162157
1.48458e-05
1.83578e-06
0.000187274
3.50979e-06
0.000190274
5.11754e-06
0.000191255
6.68277e-06
0.000191816
8.22052e-06
0.000192158
9.76133e-06
0.000192153
1.13706e-05
0.000191339
1.31649e-05
0.000188491
1.5141e-05
0.000180443
0.000161091
1.62076e-05
2.13263e-06
0.000185141
4.08547e-06
0.000188322
5.96383e-06
0.000189377
7.79336e-06
0.000189987
9.58794e-06
0.000190364
1.13735e-05
0.000190368
1.32018e-05
0.00018951
1.51426e-05
0.00018655
1.70721e-05
0.000178514
0.000160264
1.78988e-05
2.47327e-06
0.000182668
4.74672e-06
0.000186048
6.93672e-06
0.000187187
9.07192e-06
0.000187851
1.1165e-05
0.000188271
1.3236e-05
0.000188297
1.5319e-05
0.000187427
1.74315e-05
0.000184438
1.93512e-05
0.000176594
0.000159599
2.00163e-05
2.86168e-06
0.000179806
5.50172e-06
0.000183408
8.04857e-06
0.00018464
1.05352e-05
0.000185365
1.29735e-05
0.000185832
1.53766e-05
0.000185894
1.77582e-05
0.000185046
2.00844e-05
0.000182111
2.20533e-05
0.000174625
0.000159002
2.265e-05
3.30082e-06
0.000176506
6.3566e-06
0.000180352
9.30861e-06
0.000181688
1.21957e-05
0.000182478
1.50294e-05
0.000182999
1.78158e-05
0.000183107
2.05477e-05
0.000182314
2.31438e-05
0.000179515
2.52406e-05
0.000172528
0.000158364
2.58781e-05
3.79234e-06
0.000172713
7.31484e-06
0.00017683
1.07218e-05
0.000178281
1.40596e-05
0.00017914
1.73406e-05
0.000179718
2.05643e-05
0.000179884
2.37039e-05
0.000179174
2.66371e-05
0.000176582
2.89577e-05
0.000170208
0.000157561
2.97616e-05
4.33652e-06
0.000168377
8.3767e-06
0.00017279
1.2288e-05
0.00017437
1.61259e-05
0.000175302
1.99052e-05
0.000175938
2.36202e-05
0.000176169
2.72272e-05
0.000175567
3.05725e-05
0.000173237
3.3225e-05
0.000167555
0.00015645
3.43355e-05
4.93429e-06
0.000163442
9.53915e-06
0.000168185
1.40016e-05
0.000169907
1.83858e-05
0.000170918
2.27105e-05
0.000171614
2.69672e-05
0.000171912
3.11e-05
0.000171434
3.49346e-05
0.000169402
3.80328e-05
0.000164457
0.000154883
3.95999e-05
5.58501e-06
0.000157857
1.07967e-05
0.000162973
1.5852e-05
0.000164852
2.08226e-05
0.000165947
2.57328e-05
0.000166703
3.05743e-05
0.00016707
3.52848e-05
0.000166724
3.96811e-05
0.000165006
4.33354e-05
0.000160803
0.000152708
4.551e-05
6.28465e-06
0.000151573
1.21421e-05
0.000157116
1.78244e-05
0.00015917
2.34127e-05
0.000160359
2.89383e-05
0.000161178
3.43964e-05
0.000161612
3.97245e-05
0.000161396
4.47425e-05
0.000159988
4.9049e-05
0.000156496
0.000149788
5.19695e-05
7.02919e-06
0.000144544
1.35662e-05
0.000150578
1.99015e-05
0.000152834
2.6128e-05
0.000154132
3.22858e-05
0.00015502
3.83769e-05
0.000155521
4.43453e-05
0.000155428
5.00247e-05
0.000154308
5.50536e-05
0.000151468
0.000146011
5.88299e-05
7.8158e-06
0.000136728
1.50603e-05
0.000143334
2.20651e-05
0.00014583
2.89377e-05
0.00014726
3.57293e-05
0.000148228
4.2452e-05
0.000148799
4.90618e-05
0.000148818
5.54151e-05
0.000147955
6.12011e-05
0.000145682
0.000141313
6.58991e-05
8.64368e-06
0.000128084
1.6618e-05
0.00013536
2.42985e-05
0.000138149
3.18119e-05
0.000139746
3.92224e-05
0.000140818
4.65557e-05
0.000141465
5.37842e-05
0.000141589
6.07935e-05
0.000140946
6.73293e-05
0.000139146
0.000135683
7.29593e-05
9.51514e-06
0.000118569
1.82372e-05
0.000126638
2.65896e-05
0.000129797
3.4724e-05
0.000131612
4.27218e-05
0.00013282
5.06248e-05
0.000133562
5.84259e-05
0.000133788
6.60427e-05
0.000133329
7.32791e-05
0.000131909
0.00012917
7.97926e-05
1.04368e-05
0.000108132
1.9922e-05
0.000117152
2.89313e-05
0.000120787
3.76521e-05
0.000122891
4.61886e-05
0.000124284
5.46025e-05
0.000125148
6.2909e-05
0.000125482
7.10587e-05
0.000125179
7.89109e-05
0.000124057
0.000121873
8.62079e-05
1.14211e-05
9.6711e-05
2.16825e-05
0.000106891
3.13212e-05
0.000111149
4.05771e-05
0.000113635
4.95873e-05
0.000115273
5.84372e-05
0.000116298
6.71659e-05
0.000116753
7.57556e-05
0.000116589
8.41146e-05
0.000115698
0.000113928
9.20597e-05
1.24877e-05
8.42234e-05
2.35331e-05
9.58456e-05
3.37552e-05
0.000100927
4.3476e-05
0.000103915
5.28782e-05
0.000105871
6.20765e-05
0.0001071
7.11344e-05
0.000107695
8.00625e-05
0.000107661
8.881e-05
0.000106951
0.000105484
9.72541e-05
1.36714e-05
7.05519e-05
2.54819e-05
8.40351e-05
3.62138e-05
9.01947e-05
4.63063e-05
9.38221e-05
5.60029e-05
9.61745e-05
6.5453e-05
9.765e-05
7.47447e-05
9.84036e-05
8.39123e-05
9.84936e-05
9.29359e-05
9.79271e-05
9.66814e-05
0.000101738
1.50239e-05
5.5528e-05
2.74878e-05
7.15713e-05
3.86252e-05
7.90573e-05
4.89806e-05
8.34667e-05
5.88628e-05
8.62923e-05
6.8465e-05
8.80478e-05
7.79004e-05
8.89682e-05
8.72213e-05
8.91726e-05
9.64285e-05
8.87199e-05
8.76354e-05
0.000105475
1.65206e-05
3.90074e-05
2.94559e-05
5.8636e-05
4.08206e-05
6.76926e-05
5.13016e-05
7.29858e-05
6.12649e-05
7.6329e-05
7.09363e-05
7.83764e-05
8.04474e-05
7.94571e-05
8.98619e-05
7.97581e-05
9.91922e-05
7.93897e-05
7.842e-05
0.000108408
1.68301e-05
2.21774e-05
3.08706e-05
4.45954e-05
4.25319e-05
5.60313e-05
5.30109e-05
6.25068e-05
6.29355e-05
6.64044e-05
7.26e-05
6.87119e-05
8.21444e-05
6.99128e-05
9.16291e-05
7.02733e-05
0.000101065
6.99533e-05
6.90578e-05
0.000110428
1.41248e-05
8.05253e-06
2.9594e-05
2.91262e-05
4.23755e-05
4.32498e-05
5.33002e-05
5.15821e-05
6.33392e-05
5.63654e-05
7.30342e-05
5.90169e-05
8.2629e-05
6.03179e-05
9.22111e-05
6.06912e-05
0.00010179
6.03741e-05
5.95124e-05
0.000111336
9.29384e-06
-1.24132e-06
2.419e-05
1.42301e-05
3.81996e-05
2.92402e-05
5.03519e-05
3.94298e-05
6.11882e-05
4.55291e-05
7.13462e-05
4.8859e-05
8.12478e-05
5.04163e-05
9.10958e-05
5.08432e-05
0.000100948
5.05219e-05
4.96752e-05
0.000110785
5.45076e-06
-6.69208e-06
1.64412e-05
3.23964e-06
2.96291e-05
1.60523e-05
4.25793e-05
2.64796e-05
5.46376e-05
3.34709e-05
6.59132e-05
3.75833e-05
7.67168e-05
3.96127e-05
8.72896e-05
4.02704e-05
9.77501e-05
4.00615e-05
3.92947e-05
0.000108131
2.50934e-06
-9.20141e-06
8.5271e-06
-2.77812e-06
1.83141e-05
6.26525e-06
3.00608e-05
1.47329e-05
4.24828e-05
2.10489e-05
5.49117e-05
2.51544e-05
6.71065e-05
2.74179e-05
7.9015e-05
2.83619e-05
9.06562e-05
2.84202e-05
2.78679e-05
0.000102083
-1.91974e-06
-7.28168e-06
-3.0384e-07
-4.39401e-06
5.39088e-06
5.70524e-07
1.43389e-05
5.78481e-06
2.5669e-05
9.71885e-06
3.84039e-05
1.24195e-05
5.17999e-05
1.40219e-05
6.52267e-05
1.4935e-05
7.84279e-05
1.52191e-05
1.48834e-05
9.14124e-05
-7.28168e-06
-1.16757e-05
-1.11052e-05
-5.32036e-06
4.39849e-06
1.6818e-05
3.08399e-05
4.57749e-05
6.0994e-05
7.58774e-05
-2.74697e-05
3.24857e-05
-2.4691e-05
-2.77876e-06
-1.90649e-05
-5.62606e-06
-1.26242e-05
-6.44071e-06
-5.71618e-06
-6.90802e-06
1.12351e-06
-6.83969e-06
7.6319e-06
-6.50839e-06
1.37473e-05
-6.11539e-06
1.92673e-05
-5.52005e-06
2.39616e-05
-4.69421e-06
2.76838e-05
-3.72224e-06
3.04687e-05
-2.78487e-06
3.2373e-05
-1.90432e-06
3.34967e-05
-1.12374e-06
3.38981e-05
-4.01332e-07
3.35676e-05
3.30461e-07
3.24812e-05
1.08643e-06
3.05749e-05
1.9063e-06
2.77772e-05
2.79769e-06
2.39967e-05
3.78043e-06
1.91952e-05
4.80153e-06
1.35002e-05
5.69497e-06
7.53401e-06
5.96624e-06
2.55922e-06
4.97478e-06
2.55922e-06
-1.36209e-05
4.93191e-05
-1.83061e-05
1.90643e-06
-1.67742e-05
-7.15791e-06
-1.30022e-05
-1.02127e-05
-8.0515e-06
-1.18588e-05
-2.38259e-06
-1.25086e-05
3.46505e-06
-1.2356e-05
8.91851e-06
-1.15689e-05
1.3667e-05
-1.02686e-05
1.76267e-05
-8.65389e-06
2.08389e-05
-6.93444e-06
2.33008e-05
-5.24679e-06
2.50576e-05
-3.66114e-06
2.6167e-05
-2.23311e-06
2.67048e-05
-9.39143e-07
2.67505e-05
2.84785e-07
2.63263e-05
1.5106e-06
2.54244e-05
2.80819e-06
2.39856e-05
4.23655e-06
2.19324e-05
5.83364e-06
1.91589e-05
7.57504e-06
1.5553e-05
9.30082e-06
1.09573e-05
1.05619e-05
5.54484e-06
1.03872e-05
8.10405e-06
-8.37081e-06
6.26944e-05
-1.50294e-05
8.565e-06
-1.58373e-05
-6.34998e-06
-1.37339e-05
-1.23161e-05
-1.00364e-05
-1.55562e-05
-5.47475e-06
-1.70702e-05
-5.38329e-07
-1.72924e-05
4.26394e-06
-1.63711e-05
8.53268e-06
-1.45373e-05
1.20886e-05
-1.22098e-05
1.48819e-05
-9.7277e-06
1.6955e-05
-7.31993e-06
1.84279e-05
-5.13404e-06
1.93942e-05
-3.19935e-06
1.99102e-05
-1.4552e-06
2.00125e-05
1.8255e-07
1.97289e-05
1.79416e-06
1.90799e-05
3.45716e-06
1.80757e-05
5.24076e-06
1.67058e-05
7.20359e-06
1.49113e-05
9.36951e-06
1.25609e-05
1.16513e-05
9.42922e-06
1.36936e-05
5.27222e-06
1.45442e-05
1.33763e-05
-6.02021e-06
7.4972e-05
-1.40062e-05
1.65509e-05
-1.62925e-05
-4.06366e-06
-1.52152e-05
-1.33934e-05
-1.2277e-05
-1.84944e-05
-8.44957e-06
-2.08977e-05
-4.38334e-06
-2.13587e-05
-4.44649e-07
-2.03098e-05
3.12304e-06
-1.8105e-05
6.14435e-06
-1.52312e-05
8.54539e-06
-1.21287e-05
1.03707e-05
-9.14528e-06
1.17191e-05
-6.48238e-06
1.26641e-05
-4.1444e-06
1.32465e-05
-2.03752e-06
1.34837e-05
-5.46869e-08
1.33924e-05
1.88551e-06
1.29928e-05
3.85671e-06
1.23119e-05
5.92169e-06
1.13734e-05
8.14207e-06
1.01757e-05
1.05673e-05
8.6562e-06
1.31707e-05
6.65525e-06
1.56945e-05
3.90067e-06
1.72988e-05
1.72769e-05
-3.28831e-06
8.54148e-05
-1.274e-05
2.60026e-05
-1.64897e-05
-3.13923e-07
-1.65174e-05
-1.33656e-05
-1.44622e-05
-2.05497e-05
-1.14199e-05
-2.394e-05
-8.12656e-06
-2.4652e-05
-4.95319e-06
-2.34832e-05
-2.08588e-06
-2.09723e-05
3.90108e-07
-1.77072e-05
2.42084e-06
-1.41595e-05
4.02981e-06
-1.07543e-05
5.26992e-06
-7.72249e-06
6.19442e-06
-5.06889e-06
6.83515e-06
-2.67825e-06
7.20398e-06
-4.23523e-07
7.30919e-06
1.7803e-06
7.16965e-06
3.99625e-06
6.8143e-06
6.27703e-06
6.27891e-06
8.67747e-06
5.59501e-06
1.12512e-05
4.76393e-06
1.40018e-05
3.70106e-06
1.67574e-05
2.0953e-06
1.89046e-05
1.93722e-05
-3.57325e-07
9.38119e-05
-1.01437e-05
3.5789e-05
-1.53429e-05
4.88532e-06
-1.67633e-05
-1.19453e-05
-1.59378e-05
-2.13751e-05
-1.40056e-05
-2.58722e-05
-1.1638e-05
-2.70196e-05
-9.16378e-06
-2.59574e-05
-6.85816e-06
-2.32779e-05
-4.80989e-06
-1.97554e-05
-3.07778e-06
-1.58916e-05
-1.68811e-06
-1.21439e-05
-6.06509e-07
-8.80409e-06
2.29909e-07
-5.90531e-06
8.55793e-07
-3.30413e-06
1.2838e-06
-8.51528e-07
1.52275e-06
1.54134e-06
1.59543e-06
3.92357e-06
1.53354e-06
6.33892e-06
1.37817e-06
8.83285e-06
1.18127e-06
1.14481e-05
1.01041e-06
1.41726e-05
8.9869e-07
1.68691e-05
6.12049e-07
1.91912e-05
1.99843e-05
2.28628e-06
0.000100352
-6.77309e-06
4.48483e-05
-1.29945e-05
1.11068e-05
-1.59451e-05
-8.99471e-06
-1.66048e-05
-2.07154e-05
-1.59006e-05
-2.65765e-05
-1.46271e-05
-2.8293e-05
-1.29921e-05
-2.75925e-05
-1.12833e-05
-2.49866e-05
-9.62459e-06
-2.14142e-05
-8.13076e-06
-1.73854e-05
-6.90416e-06
-1.33705e-05
-5.9618e-06
-9.74644e-06
-5.24846e-06
-6.61865e-06
-4.70046e-06
-3.85214e-06
-4.28255e-06
-1.26943e-06
-3.97823e-06
1.23702e-06
-3.76204e-06
3.70738e-06
-3.59267e-06
6.16956e-06
-3.41455e-06
8.65473e-06
-3.15261e-06
1.11861e-05
-2.69058e-06
1.37106e-05
-1.83155e-06
1.60101e-05
-5.30444e-07
1.78901e-05
1.94538e-05
4.7569e-06
0.000105552
-3.59125e-06
5.31965e-05
-1.0485e-05
1.80005e-05
-1.48902e-05
-4.58951e-06
-1.71343e-05
-1.84714e-05
-1.78297e-05
-2.5881e-05
-1.77094e-05
-2.84134e-05
-1.70423e-05
-2.82595e-05
-1.60836e-05
-2.59453e-05
-1.4881e-05
-2.26168e-05
-1.35934e-05
-1.8673e-05
-1.24198e-05
-1.45441e-05
-1.14995e-05
-1.06667e-05
-1.08459e-05
-7.27234e-06
-1.03786e-05
-4.31936e-06
-1.0013e-05
-1.63509e-06
-9.70099e-06
9.25046e-07
-9.41052e-06
3.41691e-06
-9.09123e-06
5.85026e-06
-8.65893e-06
8.22243e-06
-7.96766e-06
1.04948e-05
-6.78311e-06
1.25261e-05
-4.65591e-06
1.38829e-05
-3.2953e-07
1.35637e-05
1.11368e-05
7.98744e-06
6.78368e-06
0.000109637
-6.37982e-07
6.06181e-05
-7.63832e-06
2.50008e-05
-1.29953e-05
7.67474e-07
-1.65834e-05
-1.48833e-05
-1.87381e-05
-2.37264e-05
-1.98407e-05
-2.73108e-05
-2.04114e-05
-2.76888e-05
-2.04242e-05
-2.59326e-05
-1.99178e-05
-2.31231e-05
-1.90263e-05
-1.95645e-05
-1.79676e-05
-1.56028e-05
-1.69957e-05
-1.16387e-05
-1.62732e-05
-7.99476e-06
-1.58059e-05
-4.7867e-06
-1.54933e-05
-1.94769e-06
-1.52222e-05
6.53948e-07
-1.4909e-05
3.10366e-06
-1.44776e-05
5.41891e-06
-1.38018e-05
7.54663e-06
-1.26825e-05
9.3755e-06
-1.08746e-05
1.07182e-05
-8.39434e-06
1.14026e-05
-6.4458e-06
1.16152e-05
1.31834e-05
-8.49234e-06
8.51425e-06
0.000112957
1.8567e-06
6.72757e-05
-5.10159e-06
3.19591e-05
-1.11022e-05
6.76804e-06
-1.57694e-05
-1.02161e-05
-1.91909e-05
-2.03048e-05
-2.15882e-05
-2.49135e-05
-2.33911e-05
-2.58859e-05
-2.45065e-05
-2.48172e-05
-2.49744e-05
-2.26552e-05
-2.48117e-05
-1.97272e-05
-2.41438e-05
-1.62707e-05
-2.32146e-05
-1.25679e-05
-2.2291e-05
-8.91834e-06
-2.15414e-05
-5.53626e-06
-2.09862e-05
-2.50294e-06
-2.05385e-05
2.06321e-07
-2.00902e-05
2.65533e-06
-1.95723e-05
4.90102e-06
-1.89797e-05
6.95403e-06
-1.84672e-05
8.86304e-06
-1.85428e-05
1.07937e-05
-2.03015e-05
1.31613e-05
-2.52779e-05
1.65916e-05
2.1785e-05
-3.38795e-05
9.99435e-06
0.000115725
3.96879e-06
7.33012e-05
-2.88511e-06
3.8813e-05
-9.32604e-06
1.3209e-05
-1.48464e-05
-4.69573e-06
-1.93252e-05
-1.5826e-05
-2.29056e-05
-2.1333e-05
-2.5805e-05
-2.29865e-05
-2.80771e-05
-2.25451e-05
-2.97115e-05
-2.10208e-05
-3.06717e-05
-1.87671e-05
-3.09551e-05
-1.59873e-05
-3.06687e-05
-1.28543e-05
-3.00259e-05
-9.56111e-06
-2.92737e-05
-6.28847e-06
-2.86245e-05
-3.15215e-06
-2.82085e-05
-2.09728e-07
-2.81059e-05
2.55279e-06
-2.84048e-05
5.1999e-06
-2.93154e-05
7.86465e-06
-3.11831e-05
1.07308e-05
-3.44021e-05
1.40127e-05
-3.90099e-05
1.77691e-05
-4.42723e-05
2.1854e-05
2.56977e-05
-4.81851e-05
1.13133e-05
0.00011813
5.79366e-06
7.88209e-05
-9.12894e-07
4.55196e-05
-7.62633e-06
1.99224e-05
-1.3769e-05
1.44689e-06
-1.90701e-05
-1.05249e-05
-2.35499e-05
-1.68533e-05
-2.73777e-05
-1.91586e-05
-3.06644e-05
-1.92584e-05
-3.34193e-05
-1.82659e-05
-3.56402e-05
-1.65462e-05
-3.72985e-05
-1.43289e-05
-3.83924e-05
-1.17605e-05
-3.90171e-05
-8.93635e-06
-3.93337e-05
-5.97187e-06
-3.9571e-05
-2.91489e-06
-3.99827e-05
2.01952e-07
-4.07614e-05
3.33159e-06
-4.20392e-05
6.47769e-06
-4.38998e-05
9.72518e-06
-4.62692e-05
1.31002e-05
-4.8782e-05
1.65255e-05
-5.07104e-05
1.96975e-05
-5.11817e-05
2.23254e-05
2.43137e-05
-4.97977e-05
1.26515e-05
0.000120325
7.5074e-06
8.3965e-05
9.67898e-07
5.20591e-05
-5.87561e-06
2.67659e-05
-1.2408e-05
7.97927e-06
-1.82648e-05
-4.66801e-06
-2.33498e-05
-1.17683e-05
-2.7803e-05
-1.47054e-05
-3.17884e-05
-1.5273e-05
-3.53511e-05
-1.47031e-05
-3.84908e-05
-1.34066e-05
-4.12312e-05
-1.15884e-05
-4.35549e-05
-9.43687e-06
-4.54679e-05
-7.02339e-06
-4.706e-05
-4.37976e-06
-4.84221e-05
-1.55273e-06
-4.96268e-05
1.40664e-06
-5.07333e-05
4.43808e-06
-5.17532e-05
7.49763e-06
-5.25961e-05
1.0568e-05
-5.30456e-05
1.35498e-05
-5.27762e-05
1.6256e-05
-5.16869e-05
1.86082e-05
-4.97825e-05
2.0421e-05
2.1547e-05
-4.70159e-05
1.4128e-05
0.000122404
9.27954e-06
8.88134e-05
2.92519e-06
5.84134e-05
-3.93535e-06
3.36265e-05
-1.06652e-05
1.47091e-05
-1.68364e-05
1.50317e-06
-2.22384e-05
-6.3663e-06
-2.69621e-05
-9.98176e-06
-3.12443e-05
-1.09908e-05
-3.52074e-05
-1.074e-05
-3.87525e-05
-9.86149e-06
-4.1855e-05
-8.48599e-06
-4.45536e-05
-6.73833e-06
-4.68661e-05
-4.71083e-06
-4.87772e-05
-2.46869e-06
-5.02789e-05
-5.09679e-08
-5.13808e-05
2.50852e-06
-5.20943e-05
5.15151e-06
-5.24356e-05
7.83901e-06
-5.23427e-05
1.0475e-05
-5.16641e-05
1.28712e-05
-5.03245e-05
1.49165e-05
-4.83238e-05
1.66074e-05
-4.57813e-05
1.78786e-05
1.87292e-05
-4.29635e-05
1.58865e-05
0.000124417
1.12769e-05
9.34231e-05
5.1127e-06
6.45776e-05
-1.68991e-06
4.04291e-05
-8.49311e-06
2.15123e-05
-1.4816e-05
7.82602e-06
-2.03601e-05
-8.22214e-07
-2.51214e-05
-5.22037e-06
-2.93403e-05
-6.77201e-06
-3.32428e-05
-6.83745e-06
-3.68406e-05
-6.26373e-06
-4.0027e-05
-5.29958e-06
-4.27589e-05
-4.00636e-06
-4.5029e-05
-2.44078e-06
-4.68461e-05
-6.51617e-07
-4.82164e-05
1.31941e-06
-4.91193e-05
3.41134e-06
-4.95308e-05
5.56304e-06
-4.9397e-05
7.70525e-06
-4.86557e-05
9.73371e-06
-4.73455e-05
1.1561e-05
-4.55781e-05
1.31491e-05
-4.3446e-05
1.44753e-05
-4.10927e-05
1.55253e-05
1.63268e-05
-3.86903e-05
1.80635e-05
0.000126369
1.3659e-05
9.78276e-05
7.68244e-06
7.05542e-05
9.7867e-07
4.71328e-05
-5.8301e-06
2.83211e-05
-1.22361e-05
1.4232e-05
-1.78671e-05
4.80882e-06
-2.26111e-05
-4.76381e-07
-2.66216e-05
-2.7615e-06
-3.01535e-05
-3.3056e-06
-3.34057e-05
-3.01153e-06
-3.63485e-05
-2.35671e-06
-3.89014e-05
-1.45347e-06
-4.1008e-05
-3.34193e-07
-4.26421e-05
9.82418e-07
-4.37852e-05
2.46251e-06
-4.44213e-05
4.04743e-06
-4.45351e-05
5.67684e-06
-4.41184e-05
7.28864e-06
-4.32057e-05
8.82092e-06
-4.18764e-05
1.02318e-05
-4.02269e-05
1.14996e-05
-3.8359e-05
1.26074e-05
-3.638e-05
1.35463e-05
1.43202e-05
-3.43734e-05
2.07827e-05
0.000128237
1.65751e-05
0.000102035
1.07848e-05
7.63445e-05
4.19952e-06
5.37181e-05
-2.57785e-06
3.50985e-05
-9.04674e-06
2.07009e-05
-1.47794e-05
1.05415e-05
-1.95679e-05
4.31215e-06
-2.34808e-05
1.15133e-06
-2.67203e-05
-6.60298e-08
-2.94959e-05
-2.35999e-07
-3.19527e-05
1.00146e-07
-3.40945e-05
6.88351e-07
-3.58722e-05
1.44346e-06
-3.72462e-05
2.35644e-06
-3.81845e-05
3.4008e-06
-3.86678e-05
4.53076e-06
-3.86926e-05
5.70165e-06
-3.8277e-05
6.87296e-06
-3.7471e-05
8.01494e-06
-3.63455e-05
9.10627e-06
-3.49742e-05
1.01282e-05
-3.34292e-05
1.10625e-05
-3.17752e-05
1.18923e-05
1.26057e-05
-3.00607e-05
2.4154e-05
0.000129961
2.01647e-05
0.000106024
1.4572e-05
8.19372e-05
8.11776e-06
6.01724e-05
1.39227e-06
4.1824e-05
-5.12538e-06
2.72185e-05
-1.09948e-05
1.6411e-05
-1.59241e-05
9.24138e-06
-1.98896e-05
5.11681e-06
-2.30598e-05
3.10421e-06
-2.56253e-05
2.3295e-06
-2.77403e-05
2.21511e-06
-2.94891e-05
2.43721e-06
-3.09095e-05
2.86385e-06
-3.19945e-05
3.44144e-06
-3.27236e-05
4.12986e-06
-3.3087e-05
4.89423e-06
-3.30901e-05
5.70468e-06
-3.27502e-05
6.53309e-06
-3.20997e-05
7.36441e-06
-3.11806e-05
8.18716e-06
-3.00414e-05
8.98903e-06
-2.87333e-05
9.75442e-06
-2.73031e-05
1.04621e-05
1.10932e-05
-2.57906e-05
2.82695e-05
0.000131453
2.45529e-05
0.000109741
1.91921e-05
8.7298e-05
1.289e-05
6.64744e-05
6.23455e-06
4.84795e-05
-3.11049e-07
3.37641e-05
-6.32763e-06
2.24275e-05
-1.14725e-05
1.43863e-05
-1.5622e-05
9.26626e-06
-1.88797e-05
6.36193e-06
-2.14363e-05
4.88615e-06
-2.34538e-05
4.23259e-06
-2.50496e-05
4.03298e-06
-2.62876e-05
4.10191e-06
-2.71926e-05
4.3464e-06
-2.77749e-05
4.71219e-06
-2.80451e-05
5.16445e-06
-2.80181e-05
5.67769e-06
-2.77141e-05
6.22903e-06
-2.71552e-05
6.80554e-06
-2.63639e-05
7.39581e-06
-2.53693e-05
7.99444e-06
-2.42087e-05
8.59384e-06
-2.29207e-05
9.17404e-06
9.7154e-06
-2.15429e-05
3.3194e-05
0.000132595
2.98422e-05
0.000113093
2.47805e-05
9.23597e-05
1.86752e-05
7.25797e-05
1.21155e-05
5.50392e-05
5.56703e-06
4.03126e-05
-5.77272e-07
2.85718e-05
-5.9714e-06
1.97804e-05
-1.0409e-05
1.37038e-05
-1.38999e-05
9.85285e-06
-1.65987e-05
7.58502e-06
-1.86814e-05
6.31523e-06
-2.02852e-05
5.63676e-06
-2.14948e-05
5.31158e-06
-2.23574e-05
5.20894e-06
-2.29014e-05
5.25617e-06
-2.31481e-05
5.41119e-06
-2.31181e-05
5.64766e-06
-2.28364e-05
5.94734e-06
-2.2329e-05
6.29812e-06
-2.16183e-05
6.68513e-06
-2.07225e-05
7.09868e-06
-1.9665e-05
7.53636e-06
-1.84784e-05
7.98741e-06
8.43636e-06
-1.71994e-05
3.89534e-05
0.000133241
3.60973e-05
0.000115949
3.14439e-05
9.70131e-05
2.56173e-05
7.84063e-05
1.92074e-05
6.1449e-05
1.26923e-05
4.68277e-05
6.45758e-06
3.48065e-05
8.31364e-07
2.54066e-05
-3.94343e-06
1.84786e-05
-7.78338e-06
1.36928e-05
-1.07696e-05
1.05712e-05
-1.3057e-05
8.60266e-06
-1.47945e-05
7.37428e-06
-1.60894e-05
6.60643e-06
-1.70094e-05
6.12893e-06
-1.75977e-05
5.84445e-06
-1.7885e-05
5.69852e-06
-1.78983e-05
5.66098e-06
-1.76653e-05
5.71431e-06
-1.72133e-05
5.84607e-06
-1.6571e-05
6.04292e-06
-1.57635e-05
6.29114e-06
-1.48081e-05
6.58096e-06
-1.37242e-05
6.90346e-06
7.25317e-06
-1.2541e-05
4.55206e-05
0.000133231
4.33273e-05
0.000118142
3.92387e-05
0.000101102
3.38214e-05
8.38236e-05
2.76599e-05
6.76106e-05
2.12482e-05
5.32394e-05
1.4981e-05
4.10737e-05
9.17802e-06
3.12096e-05
4.08821e-06
2.35684e-05
-1.47146e-07
1.79282e-05
-3.52391e-06
1.3948e-05
-6.14207e-06
1.12208e-05
-8.13689e-06
9.36909e-06
-9.62715e-06
8.0967e-06
-1.06985e-05
7.20025e-06
-1.1409e-05
6.55502e-06
-1.18001e-05
6.08959e-06
-1.19061e-05
5.76695e-06
-1.17599e-05
5.56815e-06
-1.13947e-05
5.48081e-06
-1.08436e-05
5.49183e-06
-1.01361e-05
5.58363e-06
-9.29332e-06
5.73823e-06
-8.33152e-06
5.94166e-06
6.18805e-06
-7.2664e-06
5.28025e-05
0.000132398
5.14644e-05
0.00011948
4.81423e-05
0.000104424
4.33213e-05
8.86446e-05
3.75639e-05
7.33681e-05
3.13773e-05
5.9426e-05
2.51747e-05
4.72763e-05
1.92832e-05
3.71011e-05
1.39552e-05
2.88964e-05
9.3594e-06
2.2524e-05
5.56334e-06
1.77441e-05
2.53341e-06
1.42507e-05
1.75906e-07
1.17266e-05
-1.61735e-06
9.88996e-06
-2.93921e-06
8.52211e-06
-3.85838e-06
7.47418e-06
-4.42594e-06
6.65716e-06
-4.68626e-06
6.02727e-06
-4.68186e-06
5.56375e-06
-4.45365e-06
5.25259e-06
-4.04141e-06
5.07959e-06
-3.47702e-06
5.01923e-06
-2.78065e-06
5.04186e-06
-1.96729e-06
5.1283e-06
5.26789e-06
-1.04713e-06
6.06334e-05
0.000130594
6.03475e-05
0.000119766
5.80251e-05
0.000106746
5.40408e-05
9.26289e-05
4.89076e-05
7.85012e-05
4.31321e-05
6.52015e-05
3.71471e-05
5.32613e-05
3.12986e-05
4.29497e-05
2.58519e-05
3.4343e-05
2.0995e-05
2.73809e-05
1.68333e-05
2.19058e-05
1.33883e-05
1.76958e-05
1.06155e-05
1.44994e-05
8.43645e-06
1.2069e-05
6.76923e-06
1.01893e-05
5.54616e-06
8.69725e-06
4.7128e-06
7.49052e-06
4.21421e-06
6.52585e-06
3.99295e-06
5.78501e-06
4.0009e-06
5.24464e-06
4.19799e-06
4.88251e-06
4.55612e-06
4.66111e-06
5.05799e-06
4.53999e-06
5.69125e-06
4.49505e-06
4.51323e-06
6.44591e-06
6.878e-05
0.000127713
6.97168e-05
0.000118829
6.86303e-05
0.000107833
6.57583e-05
9.55009e-05
6.15288e-05
8.27307e-05
5.6421e-05
7.03093e-05
5.08761e-05
5.88062e-05
4.52613e-05
4.85645e-05
3.98638e-05
3.97405e-05
3.48936e-05
3.23511e-05
3.0485e-05
2.63143e-05
2.66995e-05
2.14813e-05
2.35351e-05
1.76637e-05
2.09473e-05
1.46569e-05
1.88779e-05
1.22587e-05