/*--------------------------------*- C++ -*----------------------------------*\
| =========                 |                                                 |
| \\      /  F ield         | OpenFOAM: The Open Source CFD Toolbox           |
|  \\    /   O peration     | Version:  v2012                                 |
|   \\  /    A nd           | Website:  www.openfoam.com                      |
|    \\/     M anipulation  |                                                 |
\*---------------------------------------------------------------------------*/
FoamFile
{
    version     2.0;
    format      ascii;
    class       volVectorField;
    location    "593";
    object      U;
}
// * * * * * * * * * * * * * * * * * * * * * * * * * * * * * * * * * * * * * //

dimensions      [0 1 -1 0 0 0 0];


internalField   nonuniform List<vector> 
6598
(
(8.46273e-05 -0.999725 0)
(0.000217794 -1.00004 0)
(0.000147057 -1.00003 0)
(7.52293e-05 -1.00002 0)
(2.32325e-05 -1.00001 0)
(-2.2933e-05 -1.00001 0)
(-7.49757e-05 -1.00002 0)
(-0.00014689 -1.00003 0)
(-0.000217752 -1.00004 0)
(-8.46119e-05 -0.999725 0)
(0.000333347 -0.999404 0)
(0.000403309 -1.00015 0)
(0.000303559 -1.00015 0)
(0.000179404 -1.00013 0)
(5.90473e-05 -1.00011 0)
(-5.81344e-05 -1.00011 0)
(-0.000178632 -1.00013 0)
(-0.000303009 -1.00015 0)
(-0.000403247 -1.00015 0)
(-0.000333308 -0.999404 0)
(0.00040998 -0.998932 0)
(0.000452503 -1.00018 0)
(0.000365264 -1.00031 0)
(0.000232748 -1.0003 0)
(7.93127e-05 -1.00029 0)
(-7.75591e-05 -1.00029 0)
(-0.000231197 -1.00031 0)
(-0.000364044 -1.00031 0)
(-0.00045143 -1.00018 0)
(-0.000409658 -0.998933 0)
(0.000415835 -0.9984 0)
(0.000446566 -1.00017 0)
(0.000376599 -1.00045 0)
(0.000251034 -1.0005 0)
(8.73864e-05 -1.0005 0)
(-8.44622e-05 -1.0005 0)
(-0.000248417 -1.0005 0)
(-0.00037448 -1.00045 0)
(-0.000445153 -1.00017 0)
(-0.000415175 -0.998402 0)
(0.000402068 -0.997888 0)
(0.000431447 -1.00014 0)
(0.000371858 -1.00057 0)
(0.000251635 -1.00069 0)
(8.92107e-05 -1.00071 0)
(-8.46151e-05 -1.00072 0)
(-0.00024748 -1.00069 0)
(-0.00036847 -1.00058 0)
(-0.000429317 -1.00014 0)
(-0.000400989 -0.997891 0)
(0.000382103 -0.997411 0)
(0.000408151 -1.00011 0)
(0.000362655 -1.00068 0)
(0.000245796 -1.00087 0)
(8.83862e-05 -1.00092 0)
(-8.13812e-05 -1.00092 0)
(-0.000239463 -1.00087 0)
(-0.000357637 -1.00069 0)
(-0.000404826 -1.00011 0)
(-0.000380442 -0.997416 0)
(0.000361539 -0.996963 0)
(0.000385165 -1.00007 0)
(0.000345971 -1.00079 0)
(0.000235998 -1.00104 0)
(8.62766e-05 -1.00112 0)
(-7.56543e-05 -1.00112 0)
(-0.000226411 -1.00104 0)
(-0.000338439 -1.00079 0)
(-0.000380081 -1.00008 0)
(-0.000359066 -0.996972 0)
(0.000342553 -0.996539 0)
(0.000364783 -1.00004 0)
(0.000328736 -1.00089 0)
(0.000225923 -1.0012 0)
(8.45571e-05 -1.00131 0)
(-6.8416e-05 -1.00131 0)
(-0.000211347 -1.0012 0)
(-0.000317185 -1.0009 0)
(-0.000357071 -1.00005 0)
(-0.000338908 -0.996553 0)
(0.000326055 -0.996134 0)
(0.000347714 -1.00001 0)
(0.000314763 -1.00098 0)
(0.000217994 -1.00135 0)
(8.45215e-05 -1.00149 0)
(-6.00355e-05 -1.00149 0)
(-0.000195871 -1.00136 0)
(-0.000297184 -1.00099 0)
(-0.000336039 -1.00003 0)
(-0.000320571 -0.996156 0)
(0.000312416 -0.995746 0)
(0.000334507 -0.999983 0)
(0.000304761 -1.00107 0)
(0.000213342 -1.00149 0)
(8.70868e-05 -1.00166 0)
(-5.00635e-05 -1.00166 0)
(-0.000179899 -1.00151 0)
(-0.000278169 -1.00109 0)
(-0.000316841 -1.00001 0)
(-0.000304169 -0.99578 0)
(0.000301723 -0.99537 0)
(0.000325548 -0.999954 0)
(0.00029932 -1.00115 0)
(0.000212956 -1.00163 0)
(9.3319e-05 -1.00182 0)
(-3.74908e-05 -1.00183 0)
(-0.000162563 -1.00165 0)
(-0.000259157 -1.00118 0)
(-0.000298802 -0.999998 0)
(-0.000289366 -0.995423 0)
(0.000294076 -0.995002 0)
(0.000321425 -0.999923 0)
(0.00029948 -1.00122 0)
(0.000218159 -1.00176 0)
(0.000104758 -1.00197 0)
(-2.07173e-05 -1.00198 0)
(-0.000142368 -1.00179 0)
(-0.000238744 -1.00128 0)
(-0.000280806 -0.99999 0)
(-0.000275567 -0.995084 0)
(0.000289758 -0.994638 0)
(0.000323043 -0.999888 0)
(0.000306948 -1.00129 0)
(0.000231041 -1.00188 0)
(0.000123807 -1.00212 0)
(2.72164e-06 -1.00213 0)
(-0.000117033 -1.00193 0)
(-0.000214997 -1.00137 0)
(-0.000261392 -0.99999 0)
(-0.000262028 -0.994762 0)
(0.000289035 -0.994272 0)
(0.000330552 -0.999846 0)
(0.000321972 -1.00135 0)
(0.000254977 -1.00199 0)
(0.000153964 -1.00226 0)
(3.64685e-05 -1.00228 0)
(-8.32597e-05 -1.00207 0)
(-0.000185292 -1.00147 0)
(-0.000238736 -1 0)
(-0.000247896 -0.99446 0)
(0.000292808 -0.993896 0)
(0.000346941 -0.999792 0)
(0.000350728 -1.0014 0)
(0.000294353 -1.00209 0)
(0.000200712 -1.00239 0)
(8.60258e-05 -1.00243 0)
(-3.62051e-05 -1.00221 0)
(-0.000145977 -1.00158 0)
(-0.000210529 -1.00002 0)
(-0.00023226 -0.994181 0)
(0.000302354 -0.993503 0)
(0.000375882 -0.999719 0)
(0.000397493 -1.00143 0)
(0.000355913 -1.00218 0)
(0.000269835 -1.00252 0)
(0.000159567 -1.00258 0)
(3.32279e-05 -1.00236 0)
(-9.19589e-05 -1.00171 0)
(-0.000174247 -1.00007 0)
(-0.000214388 -0.993929 0)
(0.000319513 -0.993079 0)
(0.000422531 -0.999618 0)
(0.000470272 -1.00144 0)
(0.000450681 -1.00225 0)
(0.000378862 -1.00264 0)
(0.000270491 -1.00273 0)
(0.000133064 -1.00253 0)
(-1.58341e-05 -1.00186 0)
(-0.000126696 -1.00014 0)
(-0.000195379 -0.993712 0)
(0.000346691 -0.992607 0)
(0.000493631 -0.999474 0)
(0.00058042 -1.00141 0)
(0.000593035 -1.0023 0)
(0.000545983 -1.00274 0)
(0.000440016 -1.00289 0)
(0.000281911 -1.00272 0)
(9.11296e-05 -1.00207 0)
(-7.6653e-05 -1.00028 0)
(-0.000182842 -0.99352 0)
(0.000387163 -0.992061 0)
(0.000598212 -0.999266 0)
(0.000743416 -1.00133 0)
(0.000807302 -1.0023 0)
(0.000796763 -1.00282 0)
(0.000706371 -1.00305 0)
(0.000528164 -1.00296 0)
(0.000270413 -1.00234 0)
(2.02475e-05 -1.00047 0)
(-9.79526e-05 -0.993349 0)
(0.000443734 -0.99141 0)
(0.000746195 -0.998964 0)
(0.000977231 -1.00116 0)
(0.00112019 -1.00223 0)
(0.00117255 -1.00286 0)
(0.00111791 -1.00321 0)
(0.000904691 -1.00326 0)
(0.000507788 -1.00281 0)
(-0.00016574 -1.00125 0)
(-0.000527006 -0.995908 0)
(0.000524097 -0.990632 0)
(0.000946185 -0.998536 0)
(0.00129905 -1.00087 0)
(0.00156277 -1.00205 0)
(0.00173372 -1.00281 0)
(0.00180642 -1.00331 0)
(0.00173423 -1.0036 0)
(0.00165596 -1.00342 0)
(0.00244527 -1.00133 0)
(0.00916107 -0.982429 0)
(0.000629093 -0.98967 0)
(0.00120383 -0.99794 0)
(0.00171789 -1.00041 0)
(0.00214569 -1.00171 0)
(0.00248801 -1.00258 0)
(0.00275754 -1.0032 0)
(0.00295277 -1.00353 0)
(0.00294167 -1.00327 0)
(0.00339432 -1.00001 0)
(0.0167479 -0.965881 0)
(0.000759098 -0.988474 0)
(0.00152149 -0.997121 0)
(0.00223727 -0.999732 0)
(0.00286909 -1.00113 0)
(0.00341858 -1.0021 0)
(0.00391032 -1.0028 0)
(0.00440143 -1.00313 0)
(0.00472317 -1.00249 0)
(0.0046632 -0.99772 0)
(0.0211798 -0.95218 0)
(0.000913727 -0.986994 0)
(0.00189876 -0.99603 0)
(0.00285589 -0.998781 0)
(0.00373074 -1.00028 0)
(0.00452714 -1.00133 0)
(0.00527528 -1.00209 0)
(0.00609159 -1.00234 0)
(0.00708401 -1.0011 0)
(0.00700091 -0.99399 0)
(0.0252577 -0.936845 0)
(0.00109379 -0.985179 0)
(0.00233793 -0.994619 0)
(0.00357679 -0.997512 0)
(0.00473432 -0.999106 0)
(0.00582057 -1.00023 0)
(0.00686956 -1.00101 0)
(0.00801191 -1.00111 0)
(0.00967289 -0.999018 0)
(0.0099801 -0.988793 0)
(0.0284009 -0.91931 0)
(0.00130053 -0.982976 0)
(0.00284249 -0.992837 0)
(0.00440435 -0.995877 0)
(0.00588342 -0.997562 0)
(0.00729787 -0.998744 0)
(0.00868745 -0.999499 0)
(0.0101759 -0.999351 0)
(0.0124362 -0.996278 0)
(0.0135063 -0.982435 0)
(0.0309827 -0.901978 0)
(0.00153878 -0.980339 0)
(0.00341899 -0.990637 0)
(0.00534535 -0.993827 0)
(0.00718614 -0.995602 0)
(0.00896732 -0.996831 0)
(0.0107372 -0.997531 0)
(0.0126089 -0.997053 0)
(0.0154289 -0.992839 0)
(0.0175216 -0.975057 0)
(0.0335404 -0.885694 0)
(0.0018132 -0.977101 0)
(0.00408156 -0.987906 0)
(0.00642935 -0.991258 0)
(0.00868618 -0.993127 0)
(0.0108853 -0.994396 0)
(0.0130857 -0.995013 0)
(0.0153928 -0.994127 0)
(0.0187159 -0.988618 0)
(0.0220062 -0.966703 0)
(0.0360173 -0.870215 0)
(0.0021267 -0.973245 0)
(0.00485014 -0.984546 0)
(0.00767422 -0.988079 0)
(0.0104141 -0.990051 0)
(0.0130921 -0.991356 0)
(0.0157844 -0.991861 0)
(0.0186068 -0.990491 0)
(0.0224117 -0.983565 0)
(0.0268885 -0.957608 0)
(0.0398038 -0.855893 0)
(0.00248645 -0.968677 0)
(0.00572341 -0.980583 0)
(0.00909077 -0.984256 0)
(0.0123769 -0.986334 0)
(0.0155905 -0.987673 0)
(0.0188249 -0.988045 0)
(0.0222218 -0.986128 0)
(0.026532 -0.977676 0)
(0.0318427 -0.947888 0)
(0.0443576 -0.842608 0)
(0.00289167 -0.963314 0)
(0.00670998 -0.975808 0)
(0.0107169 -0.979703 0)
(0.0146127 -0.981898 0)
(0.018424 -0.983276 0)
(0.0222484 -0.983508 0)
(0.0262517 -0.981016 0)
(0.0310915 -0.97101 0)
(0.0370188 -0.937733 0)
(0.0488197 -0.831093 0)
(0.00335451 -0.957056 0)
(0.00784319 -0.970179 0)
(0.0125779 -0.974324 0)
(0.0171656 -0.976656 0)
(0.0216528 -0.978088 0)
(0.0261307 -0.978194 0)
(0.0307772 -0.97515 0)
(0.036141 -0.963675 0)
(0.0427102 -0.927417 0)
(0.0533437 -0.82149 0)
(0.00388641 -0.949762 0)
(0.00914845 -0.963578 0)
(0.0147123 -0.968 0)
(0.0200949 -0.970495 0)
(0.0253568 -0.972011 0)
(0.030578 -0.972025 0)
(0.0359361 -0.968494 0)
(0.0418702 -0.955724 0)
(0.0490564 -0.917088 0)
(0.0583856 -0.813778 0)
(0.00449788 -0.941271 0)
(0.0106533 -0.955854 0)
(0.0171692 -0.960587 0)
(0.0234705 -0.963278 0)
(0.0296281 -0.964912 0)
(0.0357095 -0.964882 0)
(0.0418764 -0.96095 0)
(0.0484912 -0.947089 0)
(0.0561216 -0.907055 0)
(0.0643023 -0.807749 0)
(0.00519972 -0.931399 0)
(0.0123871 -0.946833 0)
(0.0199997 -0.951918 0)
(0.0273641 -0.954838 0)
(0.034561 -0.956628 0)
(0.0416456 -0.956609 0)
(0.0487507 -0.952392 0)
(0.0561517 -0.937767 0)
(0.0641634 -0.89732 0)
(0.0714396 -0.803097 0)
(0.00600244 -0.919939 0)
(0.0143774 -0.93632 0)
(0.0232517 -0.941799 0)
(0.0318429 -0.944979 0)
(0.0402442 -0.946962 0)
(0.0484985 -0.94702 0)
(0.0567008 -0.94266 0)
(0.0650162 -0.927674 0)
(0.0734654 -0.887752 0)
(0.0801383 -0.799466 0)
(0.00691498 -0.906663 0)
(0.0166481 -0.924096 0)
(0.0269659 -0.930016 0)
(0.0369644 -0.933483 0)
(0.0467539 -0.935694 0)
(0.056365 -0.935895 0)
(0.065849 -0.931557 0)
(0.0752486 -0.916636 0)
(0.0842902 -0.878113 0)
(0.0907163 -0.796432 0)
(0.00794389 -0.891324 0)
(0.0192167 -0.909922 0)
(0.0311727 -0.916332 0)
(0.0427714 -0.920113 0)
(0.0541457 -0.92258 0)
(0.0653164 -0.922989 0)
(0.0762881 -0.918842 0)
(0.0869804 -0.904408 0)
(0.0968513 -0.868058 0)
(0.103446 -0.793491 0)
(0.00909256 -0.873662 0)
(0.0220929 -0.893545 0)
(0.035889 -0.900501 0)
(0.0492864 -0.904618 0)
(0.0624475 -0.907362 0)
(0.0753882 -0.908036 0)
(0.0880672 -0.904241 0)
(0.100291 -0.890678 0)
(0.111293 -0.857147 0)
(0.118532 -0.790057 0)
(0.0103616 -0.853414 0)
(0.0252774 -0.874708 0)
(0.0411153 -0.882273 0)
(0.0565075 -0.886746 0)
(0.0716532 -0.88978 0)
(0.0865712 -0.890762 0)
(0.10118 -0.887456 0)
(0.115191 -0.875085 0)
(0.127673 -0.844862 0)
(0.136076 -0.78546 0)
(0.0117632 -0.830314 0)
(0.0287623 -0.853159 0)
(0.0468345 -0.861404 0)
(0.0644065 -0.866254 0)
(0.0817198 -0.869584 0)
(0.0988067 -0.870901 0)
(0.115556 -0.868187 0)
(0.13161 -0.857242 0)
(0.145937 -0.83064 0)
(0.15605 -0.778969 0)
(0.0132981 -0.804101 0)
(0.0325357 -0.828684 0)
(0.0530142 -0.837669 0)
(0.0729302 -0.842924 0)
(0.0925675 -0.846553 0)
(0.111985 -0.848216 0)
(0.131058 -0.846151 0)
(0.149388 -0.836764 0)
(0.16591 -0.813907 0)
(0.178266 -0.769816 0)
(0.0149475 -0.774504 0)
(0.0365806 -0.801074 0)
(0.059611 -0.810878 0)
(0.0820045 -0.816574 0)
(0.104084 -0.820508 0)
(0.125952 -0.822513 0)
(0.147483 -0.82111 0)
(0.168273 -0.813309 0)
(0.187289 -0.794131 0)
(0.202357 -0.75726 0)
(0.0167014 -0.741295 0)
(0.040874 -0.770146 0)
(0.066573 -0.780878 0)
(0.0915403 -0.787071 0)
(0.116134 -0.791327 0)
(0.140512 -0.793666 0)
(0.164572 -0.792902 0)
(0.187935 -0.786618 0)
(0.209652 -0.770881 0)
(0.227786 -0.740656 0)
(0.0185541 -0.704262 0)
(0.0453947 -0.735745 0)
(0.0738474 -0.747562 0)
(0.101443 -0.754343 0)
(0.128566 -0.758961 0)
(0.155451 -0.761633 0)
(0.182033 -0.76146 0)
(0.207986 -0.756552 0)
(0.232488 -0.743882 0)
(0.253882 -0.719544 0)
(0.0205052 -0.663199 0)
(0.0501308 -0.69775 0)
(0.0813899 -0.710872 0)
(0.111622 -0.718381 0)
(0.141234 -0.723444 0)
(0.17055 -0.72647 0)
(0.19956 -0.726836 0)
(0.228017 -0.723118 0)
(0.255249 -0.713058 0)
(0.2799 -0.693719 0)
(0.022562 -0.617902 0)
(0.0550859 -0.656061 0)
(0.0891732 -0.670804 0)
(0.122004 -0.679249 0)
(0.153999 -0.684889 0)
(0.185599 -0.68833 0)
(0.216862 -0.689201 0)
(0.24763 -0.686485 0)
(0.277398 -0.678553 0)
(0.305107 -0.663276 0)
(0.0247415 -0.568149 0)
(0.0602845 -0.610601 0)
(0.0971929 -0.627405 0)
(0.132534 -0.637081 0)
(0.166746 -0.643499 0)
(0.20041 -0.647465 0)
(0.233674 -0.648845 0)
(0.266472 -0.646966 0)
(0.298461 -0.64071 0)
(0.328863 -0.628601 0)
(0.0270735 -0.513679 0)
(0.0657754 -0.561307 0)
(0.105466 -0.580781 0)
(0.14317 -0.59209 0)
(0.179365 -0.599556 0)
(0.214812 -0.604211 0)
(0.24976 -0.606149 0)
(0.28424 -0.604993 0)
(0.318057 -0.600032 0)
(0.350676 -0.590306 0)
(0.0296002 -0.454169 0)
(0.0716279 -0.508135 0)
(0.114018 -0.531115 0)
(0.153862 -0.544579 0)
(0.191731 -0.55343 0)
(0.228619 -0.558981 0)
(0.264892 -0.561562 0)
(0.300671 -0.561064 0)
(0.335888 -0.557109 0)
(0.370205 -0.549135 0)
(0.0323992 -0.389207 0)
(0.077923 -0.451079 0)
(0.12283 -0.478673 0)
(0.164483 -0.494937 0)
(0.20364 -0.505559 0)
(0.241574 -0.512236 0)
(0.278793 -0.515565 0)
(0.315489 -0.515697 0)
(0.351696 -0.512537 0)
(0.387224 -0.50584 0)
(0.0356075 -0.318325 0)
(0.0846505 -0.390334 0)
(0.131684 -0.423941 0)
(0.17471 -0.443727 0)
(0.214713 -0.45649 0)
(0.253274 -0.46448 0)
(0.29106 -0.468633 0)
(0.32833 -0.469369 0)
(0.365182 -0.466847 0)
(0.401524 -0.461082 0)
(0.0390258 -0.241415 0)
(0.0916852 -0.326545 0)
(0.140018 -0.367174 0)
(0.183768 -0.391338 0)
(0.224158 -0.406716 0)
(0.262976 -0.416191 0)
(0.30103 -0.421187 0)
(0.338626 -0.422464 0)
(0.375895 -0.42044 0)
(0.412795 -0.415354 0)
(0.0390887 -0.155163 0)
(0.0957279 -0.262422 0)
(0.146288 -0.310872 0)
(0.190678 -0.338984 0)
(0.230933 -0.356811 0)
(0.269586 -0.367719 0)
(0.307677 -0.373484 0)
(0.345482 -0.375193 0)
(0.383099 -0.373521 0)
(0.420491 -0.368908 0)
(0.0307407 -0.0666604 0)
(0.0881929 -0.184098 0)
(0.143649 -0.250201 0)
(0.191299 -0.286473 0)
(0.232535 -0.307416 0)
(0.271275 -0.319509 0)
(0.309455 -0.325721 0)
(0.347553 -0.327607 0)
(0.385654 -0.326082 0)
(0.423694 -0.321747 0)
(0.0177441 -0.00755047 0)
(0.0665849 -0.1042 0)
(0.124326 -0.181531 0)
(0.177403 -0.229295 0)
(0.222818 -0.256297 0)
(0.263879 -0.270719 0)
(0.303416 -0.277497 0)
(0.342582 -0.279331 0)
(0.381735 -0.277685 0)
(0.420892 -0.273408 0)
(0.00695286 0.0280968 0)
(0.0406254 -0.0351999 0)
(0.0906729 -0.109315 0)
(0.144356 -0.1645 0)
(0.194331 -0.198951 0)
(0.240278 -0.217978 0)
(0.283801 -0.226812 0)
(0.326117 -0.229247 0)
(0.367874 -0.227674 0)
(0.409279 -0.223478 0)
(-0.00591427 0.045432 0)
(0.0178476 0.00882011 0)
(0.0519756 -0.0478003 0)
(0.0958649 -0.0987935 0)
(0.144326 -0.135087 0)
(0.193866 -0.157601 0)
(0.242799 -0.169406 0)
(0.290649 -0.173811 0)
(0.33742 -0.173405 0)
(0.383233 -0.16996 0)
(-0.020302 0.0446099 0)
(-0.0120155 0.023394 0)
(0.00949258 -0.00874227 0)
(0.0391811 -0.044696 0)
(0.0789464 -0.0737162 0)
(0.126592 -0.0932751 0)
(0.178875 -0.104169 0)
(0.232533 -0.109117 0)
(0.28567 -0.109879 0)
(0.337714 -0.107432 0)
(-0.0252471 0.0126474 0)
(-0.0453105 0.00218604 0)
(-0.0529235 -0.0138956 0)
(-0.0316329 -0.0273671 0)
(-0.000791566 -0.0390732 0)
(0.0416946 -0.0459036 0)
(0.0924446 -0.0493859 0)
(0.149891 -0.0522247 0)
(0.212511 -0.053683 0)
(0.272508 -0.0527254 0)
(-0.0408878 -0.148735 0)
(-0.11618 0.0219411 0)
(-0.0899482 0.0285613 0)
(-0.0652483 0.0297783 0)
(-0.0366174 0.0316147 0)
(-0.00942683 0.0319209 0)
(0.0175272 0.0298897 0)
(0.0431182 0.0269347 0)
(0.0679397 0.024352 0)
(0.0900351 0.0213528 0)
(0.107028 0.017577 0)
(0.120366 0.0137415 0)
(0.130119 0.0100878 0)
(0.136379 0.00716439 0)
(0.139493 0.00461466 0)
(0.139629 0.00184057 0)
(0.136773 -0.00105612 0)
(0.130727 -0.00420391 0)
(0.121207 -0.00741468 0)
(0.107904 -0.0109041 0)
(0.090517 -0.014474 0)
(0.0692731 -0.0174639 0)
(0.044385 -0.0180287 0)
(0.0180814 -0.0139835 0)
(0.00296314 -0.00682867 0)
(-0.0248089 -0.219084 0)
(-0.0713104 0.00388607 0)
(-0.072687 0.0359581 0)
(-0.0622125 0.046029 0)
(-0.0438451 0.0515509 0)
(-0.0217774 0.0534098 0)
(0.00199957 0.0515799 0)
(0.0256574 0.0473746 0)
(0.0470032 0.0417063 0)
(0.065042 0.034856 0)
(0.0798199 0.0275359 0)
(0.091503 0.0205145 0)
(0.100203 0.0139363 0)
(0.10608 0.00792169 0)
(0.10939 0.00238644 0)
(0.11051 -0.00287302 0)
(0.109733 -0.00809513 0)
(0.10706 -0.013593 0)
(0.10235 -0.0196476 0)
(0.0953484 -0.0263698 0)
(0.085704 -0.0335462 0)
(0.0728234 -0.040303 0)
(0.0569532 -0.0441878 0)
(0.0344103 -0.0408133 0)
(0.0122819 -0.0282882 0)
(-0.00460584 -0.292269 0)
(-0.0544076 -0.0254024 0)
(-0.0654878 0.0370234 0)
(-0.0623424 0.0601443 0)
(-0.049731 0.0726572 0)
(-0.0323957 0.0782947 0)
(-0.0126918 0.0787063 0)
(0.00780084 0.0743139 0)
(0.0267321 0.0660162 0)
(0.0430442 0.0556206 0)
(0.0562184 0.0446518 0)
(0.0661414 0.0338802 0)
(0.0733539 0.0238436 0)
(0.0783601 0.0148687 0)
(0.0813723 0.00677406 0)
(0.0826013 -0.000837127 0)
(0.0821974 -0.00843982 0)
(0.0802608 -0.0164072 0)
(0.076868 -0.0250707 0)
(0.0720423 -0.0346707 0)
(0.0657215 -0.0451731 0)
(0.0574249 -0.0558534 0)
(0.0469543 -0.06445 0)
(0.0321268 -0.0657954 0)
(0.0145238 -0.0534806 0)
(0.00653961 -0.364526 0)
(-0.0481708 -0.0620632 0)
(-0.0651628 0.0301124 0)
(-0.0666992 0.0692389 0)
(-0.0575957 0.0907619 0)
(-0.0430442 0.100983 0)
(-0.026588 0.10294 0)
(-0.00990521 0.097897 0)
(0.00576687 0.0872255 0)
(0.0195029 0.0733382 0)
(0.0307568 0.0583453 0)
(0.0394345 0.0438495 0)
(0.0459049 0.03088 0)
(0.0506072 0.019483 0)
(0.0537161 0.00923244 0)
(0.0553843 -0.000376835 0)
(0.0556724 -0.00978077 0)
(0.0546366 -0.0193905 0)
(0.0523888 -0.0295811 0)
(0.0490533 -0.0406945 0)
(0.0447416 -0.0529441 0)
(0.0393244 -0.066028 0)
(0.0324841 -0.0782747 0)
(0.0232153 -0.0847272 0)
(0.0127148 -0.0826156 0)
(0.0159866 -0.425367 0)
(-0.0398397 -0.110833 0)
(-0.0634433 0.0141535 0)
(-0.0695667 0.0726354 0)
(-0.0651147 0.104421 0)
(-0.0537095 0.119424 0)
(-0.0403751 0.12224 0)
(-0.0269066 0.116169 0)
(-0.0143422 0.103632 0)
(-0.00324106 0.0873287 0)
(0.00609274 0.0696732 0)
(0.0136165 0.0527844 0)
(0.0194959 0.0377609 0)
(0.0239322 0.0245627 0)
(0.0271202 0.0126412 0)
(0.0291903 0.00139683 0)
(0.0301693 -0.00963877 0)
(0.0300751 -0.0207874 0)
(0.0290236 -0.0323361 0)
(0.0271656 -0.0446008 0)
(0.0246796 -0.0578802 0)
(0.021689 -0.0721633 0)
(0.0180342 -0.0863571 0)
(0.0127131 -0.0964995 0)
(0.0083551 -0.098308 0)
(0.0254438 -0.474429 0)
(-0.0279884 -0.163221 0)
(-0.0553568 -0.00994507 0)
(-0.0677261 0.0688453 0)
(-0.0687207 0.112394 0)
(-0.0622702 0.132942 0)
(-0.053091 0.137495 0)
(-0.0430081 0.13117 0)
(-0.0329161 0.117185 0)
(-0.0239249 0.0990679 0)
(-0.0160527 0.079416 0)
(-0.00956884 0.0605456 0)
(-0.00448064 0.0437551 0)
(-0.000555241 0.0291232 0)
(0.00244036 0.0159414 0)
(0.00462441 0.00348172 0)
(0.00601132 -0.00871671 0)
(0.00662728 -0.0209504 0)
(0.00660784 -0.0334424 0)
(0.00612125 -0.04646 0)
(0.0053807 -0.0602763 0)
(0.00471399 -0.0749219 0)
(0.00442535 -0.0896217 0)
(0.00300465 -0.101803 0)
(0.00468626 -0.105165 0)
(0.0320977 -0.512872 0)
(-0.0133477 -0.213616 0)
(-0.0428798 -0.0416327 0)
(-0.0614901 0.0570075 0)
(-0.0683976 0.112882 0)
(-0.067854 0.13968 0)
(-0.0631737 0.147267 0)
(-0.0573653 0.142275 0)
(-0.0500883 0.127955 0)
(-0.0431416 0.108918 0)
(-0.036476 0.0878703 0)
(-0.0307251 0.0672814 0)
(-0.0262349 0.0489129 0)
(-0.0229012 0.0330531 0)
(-0.020369 0.0188985 0)
(-0.018377 0.00557763 0)
(-0.0168672 -0.00739056 0)
(-0.0158162 -0.020271 0)
(-0.0150696 -0.0332396 0)
(-0.0144186 -0.0465033 0)
(-0.0136016 -0.0602419 0)
(-0.0120465 -0.0743193 0)
(-0.0088337 -0.087923 0)
(-0.00505293 -0.0995722 0)
(-0.000227373 -0.103976 0)
(0.0373193 -0.543586 0)
(0.000926579 -0.259415 0)
(-0.0298357 -0.0765314 0)
(-0.0520809 0.0370817 0)
(-0.0650619 0.104926 0)
(-0.070464 0.139916 0)
(-0.0712409 0.150377 0)
(-0.069729 0.148099 0)
(-0.0662453 0.13515 0)
(-0.0619117 0.116624 0)
(-0.0567473 0.095258 0)
(-0.0515774 0.0735326 0)
(-0.0472709 0.053675 0)
(-0.0441937 0.0365443 0)
(-0.0420906 0.0215541 0)
(-0.0404925 0.00769165 0)
(-0.0391368 -0.00568239 0)
(-0.0379602 -0.0188186 0)
(-0.0368025 -0.0318162 0)
(-0.0354018 -0.0448052 0)
(-0.0334087 -0.0578625 0)
(-0.0298924 -0.0706759 0)
(-0.0225729 -0.0819391 0)
(-0.0094169 -0.0893232 0)
(0.00748813 -0.0920689 0)
(0.0418963 -0.567626 0)
(0.0125397 -0.300769 0)
(-0.0177569 -0.113348 0)
(-0.0422997 0.0108721 0)
(-0.0599256 0.0892435 0)
(-0.0712127 0.132344 0)
(-0.0775399 0.148527 0)
(-0.0805749 0.149294 0)
(-0.0819331 0.137861 0)
(-0.0807913 0.121414 0)
(-0.0778773 0.101289 0)
(-0.0736712 0.0795621 0)
(-0.0693246 0.0585714 0)
(-0.0658463 0.039884 0)
(-0.0635682 0.0236763 0)
(-0.0621582 0.0091844 0)
(-0.0610774 -0.00442523 0)
(-0.0599496 -0.0175898 0)
(-0.0585593 -0.0303665 0)
(-0.0564634 -0.0426066 0)
(-0.0531437 -0.0537635 0)
(-0.0478706 -0.0623406 0)
(-0.039213 -0.065058 0)
(-0.0265235 -0.0574418 0)
(-0.0173302 -0.0439525 0)
(0.0461435 -0.586713 0)
(0.0218559 -0.337599 0)
(-0.00713406 -0.150159 0)
(-0.0330726 -0.0193884 0)
(-0.0542727 0.0670607 0)
(-0.0704082 0.117128 0)
(-0.0820285 0.138851 0)
(-0.089978 0.142093 0)
(-0.0960182 0.134932 0)
(-0.0991462 0.121818 0)
(-0.0997203 0.104576 0)
(-0.0978455 0.0847154 0)
(-0.0943209 0.0640851 0)
(-0.0903518 0.0444598 0)
(-0.0869191 0.0268436 0)
(-0.0843696 0.0113175 0)
(-0.0824801 -0.00255772 0)
(-0.0807938 -0.0151983 0)
(-0.0789206 -0.0266909 0)
(-0.0766657 -0.0365876 0)
(-0.0742781 -0.0443067 0)
(-0.0728619 -0.0497072 0)
(-0.0749308 -0.0546379 0)
(-0.0858385 -0.0642248 0)
(-0.11366 -0.0899962 0)
(0.050086 -0.602426 0)
(0.0294959 -0.370757 0)
(0.00205757 -0.186524 0)
(-0.0247356 -0.0522764 0)
(-0.0486861 0.0400222 0)
(-0.0687368 0.0961574 0)
(-0.084768 0.122896 0)
(-0.0975524 0.129838 0)
(-0.107793 0.125927 0)
(-0.115612 0.116329 0)
(-0.120845 0.102807 0)
(-0.123283 0.0864149 0)
(-0.123072 0.0682962 0)
(-0.12094 0.0498109 0)
(-0.117906 0.0321721 0)
(-0.114892 0.0160755 0)
(-0.112621 0.001644 0)
(-0.111613 -0.0114232 0)
(-0.111866 -0.0234639 0)
(-0.113986 -0.0350805 0)
(-0.119102 -0.047452 0)
(-0.12882 -0.0625015 0)
(-0.144547 -0.0822852 0)
(-0.165754 -0.10756 0)
(-0.18622 -0.135205 0)
(0.0539142 -0.615785 0)
(0.0360372 -0.400912 0)
(0.0100841 -0.222188 0)
(-0.0171248 -0.0870162 0)
(-0.0429613 0.00908355 0)
(-0.0659549 0.0700987 0)
(-0.0855025 0.101311 0)
(-0.101918 0.111763 0)
(-0.115941 0.110944 0)
(-0.127955 0.104424 0)
(-0.137907 0.0941337 0)
(-0.145662 0.0811959 0)
(-0.151095 0.0663434 0)
(-0.154364 0.0502878 0)
(-0.156024 0.0337558 0)
(-0.156808 0.0171868 0)
(-0.157827 0.000905835 0)
(-0.160068 -0.0150411 0)
(-0.16404 -0.0310164 0)
(-0.170191 -0.0477661 0)
(-0.178704 -0.0659497 0)
(-0.189133 -0.0856375 0)
(-0.198764 -0.105262 0)
(-0.204836 -0.123048 0)
(-0.201933 -0.136773 0)
(0.0583478 -0.627688 0)
(0.0422105 -0.428807 0)
(0.0175619 -0.257015 0)
(-0.0096805 -0.122779 0)
(-0.0366043 -0.0244685 0)
(-0.0615473 0.0404629 0)
(-0.0834875 0.0758251 0)
(-0.10235 0.0895969 0)
(-0.118886 0.091393 0)
(-0.1339 0.0873789 0)
(-0.147278 0.0794286 0)
(-0.15892 0.0687871 0)
(-0.169051 0.05632 0)
(-0.17749 0.0423912 0)
(-0.184127 0.0273566 0)
(-0.190041 0.011389 0)
(-0.195074 -0.00524603 0)
(-0.199594 -0.0220367 0)
(-0.20382 -0.0389158 0)
(-0.20763 -0.0560733 0)
(-0.210399 -0.0732339 0)
(-0.211565 -0.0894767 0)
(-0.208073 -0.103651 0)
(-0.202461 -0.114314 0)
(-0.193341 -0.121005 0)
(0.0636006 -0.638833 0)
(0.0486913 -0.454988 0)
(0.0251852 -0.29093 0)
(-0.00176239 -0.158928 0)
(-0.0291596 -0.0595096 0)
(-0.0551968 0.00862154 0)
(-0.0784603 0.0479886 0)
(-0.0985434 0.0651308 0)
(-0.116021 0.0692503 0)
(-0.132369 0.0671685 0)
(-0.147598 0.0614541 0)
(-0.160748 0.0530163 0)
(-0.172191 0.042756 0)
(-0.182161 0.0310314 0)
(-0.190548 0.0180479 0)
(-0.197319 0.00411706 0)
(-0.202505 -0.0105744 0)
(-0.206193 -0.025771 0)
(-0.208029 -0.041257 0)
(-0.208685 -0.0566509 0)
(-0.207434 -0.0708387 0)
(-0.203429 -0.0829178 0)
(-0.19669 -0.092951 0)
(-0.187436 -0.100427 0)
(-0.176597 -0.105227 0)
(0.0701326 -0.64956 0)
(0.0561326 -0.479808 0)
(0.0336335 -0.323861 0)
(0.00717881 -0.194942 0)
(-0.0203095 -0.0952222 0)
(-0.0468254 -0.0243639 0)
(-0.0707304 0.0190679 0)
(-0.0912662 0.039995 0)
(-0.108747 0.046548 0)
(-0.12454 0.0459569 0)
(-0.139686 0.042293 0)
(-0.153367 0.0361787 0)
(-0.165091 0.0281117 0)
(-0.174996 0.0185931 0)
(-0.183081 0.00798312 0)
(-0.189418 -0.00359368 0)
(-0.193984 -0.0159251 0)
(-0.19662 -0.0286555 0)
(-0.197186 -0.0413924 0)
(-0.19552 -0.0534735 0)
(-0.191355 -0.064322 0)
(-0.185098 -0.0736856 0)
(-0.177288 -0.081431 0)
(-0.168179 -0.0874065 0)
(-0.158563 -0.0917009 0)
(0.0784091 -0.66 0)
(0.0651479 -0.503494 0)
(0.0435596 -0.355797 0)
(0.0176894 -0.230514 0)
(-0.00965439 -0.131097 0)
(-0.0363618 -0.0578844 0)
(-0.0606513 -0.0103256 0)
(-0.081393 0.0150112 0)
(-0.0986501 0.0248571 0)
(-0.113173 0.0262611 0)
(-0.126495 0.0238792 0)
(-0.139094 0.0197124 0)
(-0.150067 0.0140792 0)
(-0.159336 0.00709735 0)
(-0.166786 -0.00106766 0)
(-0.172302 -0.0101539 0)
(-0.175853 -0.0197992 0)
(-0.17735 -0.0296845 0)
(-0.176739 -0.0394677 0)
(-0.174057 -0.0487314 0)
(-0.169497 -0.057129 0)
(-0.163464 -0.064507 0)
(-0.156375 -0.0708033 0)
(-0.148627 -0.0760064 0)
(-0.140645 -0.0801971 0)
(0.0888501 -0.670103 0)
(0.0763003 -0.526159 0)
(0.0555857 -0.38676 0)
(0.030332 -0.265493 0)
(0.00327873 -0.166879 0)
(-0.0234957 -0.0917761 0)
(-0.048157 -0.040158 0)
(-0.0692465 -0.00991271 0)
(-0.0864501 0.00423084 0)
(-0.100447 0.00862699 0)
(-0.11207 0.00810019 0)
(-0.122416 0.00545242 0)
(-0.131668 0.00151918 0)
(-0.139486 -0.00333541 0)
(-0.145783 -0.00908017 0)
(-0.150401 -0.0156009 0)
(-0.153236 -0.022629 0)
(-0.154232 -0.0298731 0)
(-0.153415 -0.0370683 0)
(-0.150925 -0.0439967 0)
(-0.147014 -0.0505087 0)
(-0.141977 -0.0564981 0)
(-0.136109 -0.0618675 0)
(-0.129696 -0.0665477 0)
(-0.122965 -0.070509 0)
(0.101821 -0.679648 0)
(0.0900996 -0.547773 0)
(0.0703064 -0.416736 0)
(0.0457148 -0.29982 0)
(0.0190332 -0.20243 0)
(-0.00772756 -0.125967 0)
(-0.0327676 -0.0706409 0)
(-0.0544868 -0.03534 0)
(-0.0721384 -0.0162647 0)
(-0.0861205 -0.00793321 0)
(-0.097318 -0.0056206 0)
(-0.106468 -0.00639031 0)
(-0.1141 -0.00855176 0)
(-0.120394 -0.0116137 0)
(-0.125398 -0.0154691 0)
(-0.129022 -0.0199424 0)
(-0.131194 -0.0248191 0)
(-0.131906 -0.0299211 0)
(-0.131197 -0.035093 0)
(-0.129196 -0.0402225 0)
(-0.126031 -0.0452199 0)
(-0.12189 -0.0500062 0)
(-0.116977 -0.0544886 0)
(-0.111494 -0.0585576 0)
(-0.10561 -0.0621224 0)
(0.117614 -0.688249 0)
(0.106984 -0.568145 0)
(0.0882772 -0.44562 0)
(0.0644634 -0.333424 0)
(0.0382157 -0.237662 0)
(0.0115647 -0.160374 0)
(-0.0138107 -0.101925 0)
(-0.0363045 -0.0617603 0)
(-0.0548428 -0.0374444 0)
(-0.0694173 -0.0246249 0)
(-0.0807666 -0.0188362 0)
(-0.0897017 -0.0169076 0)
(-0.0968035 -0.0170538 0)
(-0.102395 -0.0184262 0)
(-0.106637 -0.0206127 0)
(-0.109587 -0.0233696 0)
(-0.111271 -0.0265305 0)
(-0.111734 -0.0299513 0)
(-0.111054 -0.0334858 0)
(-0.109314 -0.0371025 0)
(-0.10659 -0.0407948 0)
(-0.103018 -0.0444918 0)
(-0.0986997 -0.0480932 0)
(-0.093796 -0.0514906 0)
(-0.0884623 -0.054586 0)
(0.136416 -0.695358 0)
(0.127288 -0.586894 0)
(0.109979 -0.47316 0)
(0.0871696 -0.36615 0)
(0.0614936 -0.272483 0)
(0.0350315 -0.194863 0)
(0.00943341 -0.133968 0)
(-0.013824 -0.0894843 0)
(-0.0335207 -0.0599216 0)
(-0.0492153 -0.042198 0)
(-0.0613389 -0.0324755 0)
(-0.0706702 -0.0275376 0)
(-0.0778859 -0.0253195 0)
(-0.0834166 -0.0247037 0)
(-0.0875007 -0.0251056 0)
(-0.0902735 -0.0262016 0)
(-0.091824 -0.0277994 0)
(-0.0922338 -0.0297708 0)
(-0.0915973 -0.0320147 0)
(-0.0899921 -0.0344391 0)
(-0.0875479 -0.0369393 0)
(-0.084335 -0.0395412 0)
(-0.0804214 -0.042273 0)
(-0.0759338 -0.0450084 0)
(-0.0710007 -0.0476267 0)
(0.158263 -0.700279 0)
(0.151187 -0.603436 0)
(0.135755 -0.498903 0)
(0.114336 -0.397686 0)
(0.0895035 -0.306706 0)
(0.0633991 -0.229303 0)
(0.0377044 -0.166602 0)
(0.013827 -0.118535 0)
(-0.00705183 -0.0841396 0)
(-0.0242084 -0.0613554 0)
(-0.0376612 -0.0472409 0)
(-0.0479812 -0.0388425 0)
(-0.0558485 -0.0339373 0)
(-0.0617904 -0.0311419 0)
(-0.0661416 -0.029669 0)
(-0.0691051 -0.0290787 0)
(-0.0708173 -0.029122 0)
(-0.0713875 -0.0296554 0)
(-0.0709231 -0.0305913 0)
(-0.0695344 -0.0318698 0)
(-0.0673432 -0.0334183 0)
(-0.0644274 -0.0351355 0)
(-0.0609032 -0.0369947 0)
(-0.0568239 -0.0390133 0)
(-0.0522942 -0.0411381 0)
(0.182995 -0.70219 0)
(0.178632 -0.61698 0)
(0.165731 -0.522157 0)
(0.146286 -0.427489 0)
(0.122756 -0.339954 0)
(0.0973383 -0.26344 0)
(0.0717877 -0.199595 0)
(0.0475056 -0.148706 0)
(0.0256387 -0.110167 0)
(0.00700149 -0.0825832 0)
(-0.00809797 -0.0638705 0)
(-0.0198964 -0.0515806 0)
(-0.0289359 -0.0435778 0)
(-0.0357604 -0.0383059 0)
(-0.0407824 -0.0347667 0)
(-0.0442774 -0.0323753 0)
(-0.0464308 -0.0308056 0)
(-0.0473854 -0.0298841 0)
(-0.0472719 -0.0295165 0)
(-0.0462226 -0.0296408 0)
(-0.0443739 -0.0301946 0)
(-0.0418527 -0.031103 0)
(-0.0387486 -0.0322776 0)
(-0.0351375 -0.0336386 0)
(-0.0310966 -0.0351953 0)
(0.210217 -0.700206 0)
(0.209286 -0.62656 0)
(0.199716 -0.541972 0)
(0.183035 -0.454732 0)
(0.161499 -0.371577 0)
(0.137319 -0.296797 0)
(0.112335 -0.232571 0)
(0.0880069 -0.179621 0)
(0.0654855 -0.137716 0)
(0.0456248 -0.105924 0)
(0.0289087 -0.0827529 0)
(0.0153924 -0.0663608 0)
(0.00478091 -0.0548985 0)
(-0.00336796 -0.0467988 0)
(-0.00947969 -0.0409174 0)
(-0.0138763 -0.0365269 0)
(-0.0167847 -0.0332032 0)
(-0.0183872 -0.0307338 0)
(-0.0188533 -0.0290156 0)
(-0.0183534 -0.0279824 0)
(-0.0170493 -0.0275641 0)
(-0.015083 -0.0276571 0)
(-0.0125567 -0.0281472 0)
(-0.00955419 -0.0289325 0)
(-0.00609227 -0.0299507 0)
(0.239289 -0.693471 0)
(0.242477 -0.631117 0)
(0.237109 -0.557178 0)
(0.22416 -0.47828 0)
(0.205554 -0.400593 0)
(0.183425 -0.328585 0)
(0.159676 -0.264898 0)
(0.135855 -0.210729 0)
(0.113175 -0.166259 0)
(0.0925378 -0.130966 0)
(0.0745342 -0.103819 0)
(0.0594126 -0.0834515 0)
(0.0471056 -0.0683697 0)
(0.0373374 -0.0571618 0)
(0.0297644 -0.0486615 0)
(0.0240804 -0.042029 0)