/*--------------------------------*- C++ -*----------------------------------*\
| =========                 |                                                 |
| \\      /  F ield         | OpenFOAM: The Open Source CFD Toolbox           |
|  \\    /   O peration     | Version:  v2012                                 |
|   \\  /    A nd           | Website:  www.openfoam.com                      |
|    \\/     M anipulation  |                                                 |
\*---------------------------------------------------------------------------*/
FoamFile
{
    version     2.0;
    format      ascii;
    class       volScalarField;
    location    "625";
    object      nut;
}
// * * * * * * * * * * * * * * * * * * * * * * * * * * * * * * * * * * * * * //

dimensions      [0 2 -1 0 0 0 0];


internalField   nonuniform List<scalar> 
6057
(
0.000491005
0.000510279
0.000531347
0.000554463
0.000579943
0.000608188
0.000639709
0.000675165
0.000715411
0.000761593
0.000815267
0.000878611
0.00095476
0.00104839
0.00116673
0.00132153
0.00153289
0.00183744
0.00230688
0.00309395
0.00272411
0.00282509
0.00293382
0.00305135
0.00317895
0.00331789
0.00346974
0.00363653
0.00382085
0.00402602
0.00425649
0.00451823
0.00481959
0.00517255
0.00559494
0.00611451
0.00677672
0.00766139
0.00892299
0.0109112
0.00464419
0.00480607
0.0049794
0.00516532
0.0053652
0.00558074
0.00581392
0.00606703
0.00634293
0.00664523
0.00697847
0.00734853
0.0077631
0.00823226
0.00876934
0.00939159
0.0101203
0.0109783
0.0119784
0.0130871
0.00585786
0.00605512
0.0062654
0.00648978
0.00672959
0.00698632
0.00726162
0.00755745
0.00787593
0.00821942
0.00859062
0.00899249
0.00942823
0.0099011
0.010414
0.0109688
0.0115641
0.0121928
0.0128364
0.0134608
0.0064362
0.00664996
0.00687709
0.00711866
0.00737587
0.00765004
0.00794253
0.00825474
0.00858803
0.00894366
0.00932262
0.00972536
0.0101515
0.0105993
0.0110652
0.0115427
0.0120224
0.0124928
0.0129454
0.013391
0.00643229
0.00664724
0.0068752
0.00711734
0.00737495
0.00764939
0.00794208
0.00825443
0.00858782
0.00894353
0.00932253
0.0097253
0.0101515
0.0105993
0.0110652
0.0115427
0.0120224
0.0124928
0.0129454
0.013391
0.00584613
0.00604714
0.00625989
0.00648599
0.00672698
0.00698454
0.00726044
0.00755668
0.00787541
0.00821908
0.0085904
0.00899235
0.00942813
0.00990104
0.010414
0.0109688
0.0115641
0.0121928
0.0128364
0.0134608
0.00462502
0.00479373
0.0049711
0.00515978
0.00536152
0.00557833
0.00581231
0.00606596
0.00634222
0.00664475
0.00697815
0.00734833
0.00776296
0.00823217
0.00876928
0.00939156
0.0101203
0.0109783
0.0119784
0.0130871
0.00270169
0.00281254
0.0029257
0.00304625
0.00317563
0.00331569
0.00346827
0.00363555
0.00382019
0.00402558
0.0042562
0.00451804
0.00481946
0.00517246
0.00559488
0.00611447
0.0067767
0.00766138
0.00892299
0.0109112
0.000490235
0.00050981
0.000531043
0.000554261
0.000579804
0.000608092
0.000639644
0.000675119
0.00071538
0.000761571
0.000815252
0.0008786
0.000954753
0.00104838
0.00116672
0.00132152
0.00153289
0.00183743
0.00230688
0.00309395
0.00027331
0.000280741
0.000288157
0.000295597
0.000303097
0.000310697
0.00031844
0.000326369
0.000334533
0.000342985
0.000351779
0.000360976
0.000370641
0.000380845
0.000391663
0.000403132
0.000415314
0.000428314
0.000442251
0.000457249
0.000473447
0.00129468
0.00136394
0.00143218
0.00149931
0.00156521
0.00162983
0.00169316
0.00175529
0.00181639
0.0018767
0.00193655
0.00199635
0.00205658
0.00211781
0.00218056
0.00224544
0.00231363
0.00238571
0.00246222
0.00254373
0.00263081
0.00236251
0.00247355
0.00258143
0.00268634
0.00278852
0.00288825
0.0029859
0.00308193
0.00317683
0.00327117
0.0033656
0.00346081
0.00355757
0.00365672
0.00375877
0.00386532
0.00397723
0.00409525
0.00422015
0.00435273
0.00449375
0.00315933
0.0032809
0.00339874
0.00351356
0.003626
0.00373671
0.00384634
0.00395554
0.00406497
0.0041753
0.00428723
0.00440148
0.00451881
0.00464004
0.00476602
0.00489799
0.00503668
0.00518282
0.00533716
0.00550053
0.00567374
0.00364626
0.00375649
0.00386384
0.00396943
0.00407418
0.00417895
0.00428455
0.00439173
0.00450117
0.00461354
0.0047295
0.00484967
0.00497469
0.00510521
0.00524242
0.00538698
0.00553924
0.00569963
0.00586872
0.00604727
0.00623606
0.00384387
0.00392596
0.00400658
0.00408708
0.0041686
0.00425215
0.00433865
0.00442896
0.00452381
0.0046239
0.00472985
0.00484224
0.00496159
0.0050888
0.00522519
0.00537082
0.00552544
0.00568845
0.00585978
0.00604029
0.00623073
0.00378692
0.00382687
0.00386647
0.00390717
0.00395023
0.00399679
0.00404789
0.00410449
0.00416747
0.00423762
0.00431561
0.00440209
0.00449765
0.00460378
0.00472244
0.00485432
0.00499995
0.00515292
0.00531268
0.00548083
0.00565814
0.00353127
0.00352119
0.00351134
0.00350298
0.00349722
0.00349509
0.00349758
0.00350564
0.00352023
0.00354226
0.00357243
0.00361133
0.00365929
0.00371652
0.00378542
0.00386652
0.00395884
0.00407009
0.00419641
0.00433003
0.00447198
0.00317491
0.00312001
0.00306492
0.00300993
0.00295526
0.00290113
0.00284787
0.00279597
0.00274606
0.00269886
0.00265509
0.00261715
0.00258584
0.00255972
0.00253624
0.00251475
0.00249684
0.0024934
0.00251562
0.00256726
0.00263185
0.00282371
0.00274147
0.00265817
0.00257269
0.00248381
0.00239024
0.00229059
0.00218344
0.00206734
0.00194103
0.00180382
0.00165594
0.00149789
0.00133065
0.00116758
0.00101704
0.000884105
0.000771393
0.000679648
0.000604266
0.000540141
7.18952e-05
6.75416e-05
6.89886e-05
7.96305e-05
0.000109198
0.00010992
0.000109068
0.000162125
0.00017596
0.000187268
0.000197673
0.000207409
0.000216628
0.000225438
0.000233919
0.000242136
0.00025014
0.000257977
0.000265688
0.000121021
0.000229157
0.000302007
0.000317879
0.000324628
0.000360993
0.000405533
0.000463936
0.000528654
0.000594317
0.000660975
0.000728651
0.000797325
0.000866944
0.0009374
0.00100852
0.00108009
0.00115183
0.00122346
0.000149883
0.000441342
0.000468393
0.000482061
0.000519635
0.000590557
0.000694746
0.000819886
0.000952403
0.00108696
0.00122193
0.00135632
0.00148961
0.0016214
0.00175134
0.0018791
0.00200435
0.00212682
0.0022463
0.000182956
0.000571076
0.000615335
0.00065357
0.000730115
0.000856802
0.00102396
0.00121162
0.0014047
0.00159652
0.00178358
0.00196418
0.0021376
0.00230362
0.00246235
0.00261405
0.00275911
0.00289799
0.00303126
0.00021386
0.000687937
0.000737844
0.000841943
0.000967894
0.00115097
0.00137246
0.00160891
0.00184492
0.00207221
0.00228633
0.00248563
0.00267002
0.0028403
0.00299777
0.00314392
0.00328034
0.00340859
0.00353016
0.000235282
0.000714231
0.000862101
0.00104366
0.00122432
0.00145701
0.0017189
0.00198636
0.002244
0.00248292
0.00269888
0.00289115
0.003061
0.00321079
0.00334336
0.00346163
0.00356842
0.00366628
0.00375748
0.00025109
0.000772271
0.000996473
0.00125434
0.00148454
0.00175832
0.00204549
0.00232556
0.00258407
0.00281277
0.00300873
0.00317283
0.00330811
0.00341869
0.00350895
0.0035831
0.00364495
0.00369778
0.00374436
0.000264075
0.00086204
0.00113871
0.00146673
0.00173748
0.00203984
0.00233938
0.00261537
0.00285681
0.00305741
0.0032163
0.00333649
0.00342302
0.00348176
0.00351855
0.00353867
0.00354665
0.0035462
0.00354031
0.000274745
0.000966717
0.00128165
0.0016736
0.00197473
0.0022924
0.00259182
0.00285084
0.00306116
0.0032206
0.00333097
0.00339779
0.00342836
0.00343044
0.00341131
0.00337728
0.00333339
0.00328342
0.00323003
0.00028351
0.00107387
0.00142137
0.00186738
0.00219086
0.00251172
0.00279859
0.00303119
0.00320089
0.00331105
0.00336721
0.00337785
0.00335288
0.00330215
0.00323449
0.00315698
0.00307475
0.00299097
0.00290717
0.00252568
0.00243471
0.00234351
0.00225139
0.00215814
0.00206389
0.00196891
0.00187347
0.00177757
0.0016806
0.00158023
0.00147834
0.00137406
0.00126483
0.0011466
0.00101215
0.00084367
0.00054259
0.000345672
0.000233927
0.000140928
0.00225721
0.00214697
0.00203229
0.00191329
0.00179097
0.00166656
0.00154212
0.00141962
0.00130101
0.00119219
0.00109599
0.00100217
0.00090467
0.000809075
0.000719798
0.000639085
0.000552639
0.000431906
0.000323248
0.000224678
0.000102042
0.0019765
0.00183319
0.00168477
0.00153588
0.00139262
0.00126197
0.00115141
0.00106835
0.00101412
0.000970987
0.00093512
0.000897622
0.000854745
0.000806215
0.000748733
0.000680054
0.000599652
0.00048388
0.000369967
0.000247928
8.98471e-05
0.00170426
0.00154853
0.00140596
0.00128835
0.00120667
0.00116759
0.00116862
0.00118527
0.00120128
0.00120763
0.00119912
0.00117261
0.00112499
0.00105229
0.000955759
0.000802968
0.000662948
0.000530667
0.000408429
0.000249281
9.54077e-05
0.00151298
0.00140335
0.00134042
0.00133116
0.00136844
0.00143121
0.00148612
0.00152027
0.00153069
0.00151899
0.00148498
0.00142798
0.00134724
0.00123337
0.0010495
0.000896823
0.000755431
0.000616012
0.000441915
0.000264386
0.000101747
0.0014677
0.00145563
0.00150242
0.00158813
0.00168125
0.0017511
0.00178783
0.0018004
0.0017898
0.0017581
0.00170494
0.00162925
0.00152991
0.00139178
0.00119708
0.00103093
0.000872924
0.000695623
0.000486507
0.000285722
0.000107861
0.00157022
0.00165122
0.00176475
0.00187392
0.00195638
0.00200418
0.00202301
0.00202084
0.00199922
0.00195795
0.00189568
0.00181084
0.00170171
0.00156562
0.00135308
0.00116787
0.000992617
0.000775889
0.000538118
0.000310403
0.000113616
0.00176072
0.00189274
0.00201863
0.00211461
0.00217694
0.0022104
0.00222073
0.00221248
0.00218595
0.00213985
0.00207256
0.00198217
0.00186655
0.00172342
0.00151082
0.0013069
0.00111466
0.000861706
0.000594568
0.000337339
0.000119014
0.00197677
0.00212072
0.00223538
0.00231553
0.00236603
0.00239283
0.00239955
0.00238851
0.00235886
0.00230925
0.00223802
0.00214321
0.00202248
0.0018731
0.00167031
0.0014479
0.00122901
0.000950539
0.000654401
0.000366023
0.000124097
0.00218304
0.00232057
0.00242274
0.00249302
0.00253787
0.00256187
0.00256688
0.00255348
0.00252077
0.00246748
0.00239213
0.0022929
0.00216751
0.00201294
0.00182566
0.00159042
0.00133943
0.00104043
0.000716545
0.000396163
0.00012891
0.00236908
0.00249769
0.00259151
0.00265689
0.0026995
0.0027224
0.00272581
0.00270974
0.00267335
0.00261559
0.00253534
0.00243114
0.00230094
0.0021417
0.00194933
0.00171893
0.00144597
0.00112977
0.000780147
0.000427571
0.000133498
0.00253736
0.00265936
0.0027489
0.00281258
0.00285481
0.002877
0.00287851
0.00285915
0.00281821
0.00275499
0.00266881
0.00255872
0.00242311
0.00225921
0.00206267
0.00182755
0.00154712
0.00121727
0.000844499
0.000460107
0.000137898
0.00269253
0.00281103
0.00289934
0.00296343
0.0030061
0.00302754
0.00302674
0.0030034
0.002957
0.00288724
0.00279396
0.00267684
0.00253491
0.00236588
0.00216552
0.00192714
0.00164193
0.00130192
0.000909001
0.00049366
0.000142145
0.00283865
0.00295637
0.00304575
0.00311149
0.00315486
0.00317543
0.00317188
0.00314388
0.00309113
0.00301375
0.00291217
0.00278678
0.00263739
0.00246245
0.00225817
0.00201751
0.00172976
0.00138292
0.00097314
0.000528136
0.000146269
0.00297869
0.00309793
0.00318995
0.00325788
0.00330208
0.00332158
0.00331485
0.00328154
0.00322159
0.00313556
0.0030245
0.00288958
0.00273153
0.00254974
0.00234116
0.00209875
0.0018103
0.00145973
0.00103648
0.000563452
0.000150298
0.00311494
0.00323733
0.00333274
0.00340317
0.0034482
0.00346641
0.00345604
0.0034168
0.00334887
0.00325324
0.00313161
0.00298599
0.00281811
0.00262851
0.00241509
0.0021712
0.00188347
0.00153194
0.00109865
0.000599526
0.000154257
0.00324859
0.00337513
0.00347437
0.00354742
0.00359319
0.00360979
0.00359535
0.00354959
0.00347297
0.00336689
0.00323373
0.00307637
0.00289766
0.00269936
0.00248055
0.00223525
0.00194938
0.00159933
0.00115933
0.000636275
0.000158169
0.00338011
0.00351137
0.00361464
0.00369024
0.00373651
0.00375116
0.00373218
0.00367938
0.00359343
0.0034762
0.00333071
0.00316079
0.00297043
0.00276271
0.00253804
0.00229135
0.00200822
0.0016618
0.00121825
0.00067361
0.000162056
0.00350941
0.00364563
0.00375286
0.00383081
0.00387727
0.00388955
0.00386559
0.00380526
0.00370946
0.00358051
0.00342211
0.00323903
0.00303646
0.00281883
0.00258797
0.00233993
0.00206027
0.00171933
0.0012752
0.000711424
0.000165941
0.00363583
0.00377703
0.003888
0.00396796
0.00401423
0.0040237
0.00399433
0.00392605
0.00382
0.00367893
0.00350724
0.00331067
0.0030956
0.00286785
0.00263068
0.0023814
0.00210587
0.00177199
0.00132997
0.000749592
0.000169846
0.0037582
0.00390425
0.00401868
0.00410027
0.00414594
0.00415214
0.00411696
0.0040404
0.00392381
0.00377039
0.00358526
0.00337512
0.00314757
0.00290977
0.00266641
0.00241615
0.00214535
0.0018199
0.00138241
0.000787957
0.000173796
0.00387477
0.00402562
0.00414324
0.00422612
0.00427088
0.00427327
0.00423192
0.00414683
0.00401955
0.00385374
0.00365524
0.00343176
0.00319205
0.00294456
0.00269536
0.00244451
0.00217906
0.00186322
0.00143238
0.000826332
0.000177817
0.00394554
0.00413912
0.00425979
0.00434365
0.0043871
0.00438539
0.00433764
0.00424386
0.00410587
0.00392779
0.00371624
0.0034799
0.00322865
0.00297214
0.00271772
0.00246682
0.00220735
0.00190214
0.00147977
0.000864502
0.000181938
0.00386857
0.00413629
0.00436628
0.00445093
0.00449274
0.00448684
0.00443255
0.00433005
0.00418143
0.00399138
0.00376732
0.00351889
0.00325704
0.00299245
0.00273365
0.00248342
0.00223058
0.00193687
0.00152444
0.000902157
0.000186192
0.00379334
0.00405548
0.00431159
0.0045435
0.00458615
0.00457606
0.00451521
0.00440401
0.00424496
0.00404342
0.00380761
0.00354816
0.00327691
0.00300548
0.00274335
0.00249462
0.00224907
0.00196759
0.00156624
0.000938889
0.000190618
0.00372646
0.00398282
0.00423155
0.00446896
0.00465547
0.00465163
0.00458429
0.00446447
0.0042953
0.00408289
0.00383637
0.00356722
0.00328808
0.00301127
0.00274706
0.00250078
0.00226319
0.00199451
0.00160501
0.000973985
0.000195264
0.0036695
0.00392187
0.00416836
0.00440148
0.00459871
0.00470823
0.00463858
0.00451027
0.00433138
0.00410896
0.00385299
0.00357573
0.00329046
0.00300994
0.00274502
0.00250224
0.00227326
0.00201778
0.00164059
0.00100666
0.000200193
0.00362659
0.0038763
0.00412317
0.00436173
0.00456291
0.00468292
0.00467711
0.00454036
0.0043523
0.00412093
0.00385706
0.00357357
0.0032841
0.0030017
0.00273757
0.00249938
0.00227961
0.00203753
0.00167395
0.00103865
0.000205319
0.0035987
0.00384805
0.00409764
0.00434637
0.00456155
0.00468789
0.00469928
0.0045539
0.00435737
0.00411842
0.00384847
0.00356079
0.00326922
0.00298699
0.00272581
0.00249331
0.00228353
0.00205583
0.00170671
0.00107128
0.000210541
0.00358379
0.00383447
0.00408931
0.00435178
0.0045859
0.00472899
0.00470437
0.00455155
0.00434809
0.00410336
0.00382931
0.00353942
0.00324752
0.00296686
0.00270944
0.00248365
0.00228473
0.00207232
0.00173896
0.0011046
0.000215878
0.00357819
0.00383049
0.00409171
0.00437068
0.00462707
0.00479144
0.00469497
0.0045352
0.00432588
0.00407682
0.00380026
0.00350975
0.00321899
0.00294118
0.00268862
0.00247053
0.00228331
0.00208692
0.00177058
0.00113885
0.000221321
0.00357725
0.00383096
0.00410039
0.00440106
0.00468373
0.00478251
0.00467191
0.00450593
0.00429179
0.00403969
0.00376205
0.00347234
0.00318405
0.00291026
0.00266361
0.00245414
0.00227937
0.00209961
0.00180124
0.00117383
0.000226861
0.00357831
0.00383304
0.00411301
0.00443918
0.00475423
0.0047535
0.00463613
0.00446465
0.00424669
0.00399277
0.00371538
0.00342777
0.00314312
0.00287441
0.00263464
0.00243466
0.00227297
0.00211031
0.0018308
0.00120937
0.000232493
0.00357971
0.00383513
0.00412912
0.00448203
0.0047782
0.00471208
0.00458843
0.00441219
0.00419141
0.00393685
0.00366093
0.00337656
0.00309656
0.00283389
0.00260191
0.00241223
0.00226413
0.00211878
0.00185885
0.0012453
0.000238199
0.00358123
0.00383827
0.00415013
0.00452899
0.0047319
0.00465885
0.00452952
0.00434931
0.00412669
0.00387259
0.00359921
0.00331906
0.00304461
0.00278882
0.0025655
0.00238692
0.00225279
0.0021247
0.00188479
0.00128122
0.000243938
0.00358263
0.00384307
0.00417477
0.00458257
0.00467427
0.00459463
0.00446016
0.00427674
0.00405322
0.00380054
0.0035306
0.00325546
0.0029873
0.00273919
0.00252542
0.00235871
0.00223878
0.00212755
0.00190772
0.00131649
0.000249649
0.00358165
0.00384692
0.00419748
0.00462783
0.00460616
0.00452027
0.00438116
0.00419523
0.00397158
0.00372109
0.00345525
0.0031857
0.00292445
0.0026848
0.00248154
0.0023275
0.00222181
0.00212661
0.00192634
0.0013502
0.00025524
0.00357107
0.00384778
0.0042128
0.00456514
0.00452868
0.00443678
0.00429341
0.00410547
0.00388225
0.00363441
0.00337305
0.00310947
0.00285567
0.00262531
0.00243361
0.00229307
0.00220147
0.00212083
0.0019388
0.00138111
0.000260587
0.00355633
0.00384037
0.00421924
0.00448692
0.0044432
0.00434535
0.0041979
0.00400816
0.00378553
0.00354043
0.00328362
0.00302619
0.00278036
0.00256026
0.00238134
0.00225513
0.00217717
0.00210872
0.00186908
0.00140772
0.000265534
0.00354241
0.00383077
0.00420779
0.00440244
0.00435126
0.0042473
0.00409559
0.00390384
0.00368151
0.00343881
0.00318627
0.00293506
0.0026978
0.00248914
0.00232442
0.00221338
0.00214822
0.00205075
0.00165699
0.00142928
0.000269879
0.00352885
0.00381691
0.0041817
0.00431258
0.00425448
0.00414385
0.0039872
0.00379267
0.00356982
0.00332875
0.00308002
0.0028351
0.00260725
0.00241157
0.00226271
0.00216762
0.0021139
0.0017889
0.00150068
0.00137397
0.000273294
0.00351426
0.00379619
0.00414118
0.00421864
0.00415389
0.00403583
0.00387283
0.0036741
0.00344941
0.00320896
0.00296357
0.0027253
0.00250818
0.00232753
0.00219639
0.00211787
0.00203577
0.00159072
0.00138702
0.00129774
0.000275774
0.00349807
0.00376688
0.00408458
0.00412354
0.00404985
0.00392285
0.00375138
0.00354649
0.00331839
0.00307758
0.00283544
0.00260485
0.00240058
0.0022377
0.0021262
0.00206444
0.00178152
0.00144034
0.00130199
0.00123367
0.000277103
0.00347987
0.00372998
0.0040167
0.00402752
0.00394152
0.00380236
0.00362026
0.00340697
0.00317405
0.00293244
0.00269433
0.00247356
0.00228538
0.00214389
0.00205367
0.0020083
0.0015949
0.00133168
0.00124383
0.00120231
0.000277259
0.00345811
0.0036884
0.00394558
0.00392889
0.00382611
0.00367079
0.00347507
0.00325193
0.00301341
0.00277171
0.00253986
0.00233266
0.00216526
0.00204765
0.00198085
0.00184456
0.00145995
0.00126367
0.00121641
0.00120915
0.0002762
0.00343014
0.00364208
0.00387718
0.00382427
0.00369914
0.00352341
0.00331139
0.00307733
0.00283428
0.00259488
0.00237354
0.0021857
0.0020446
0.00195474
0.00191146
0.00166054
0.00137172
0.00123656
0.00122317
0.0012442
0.0002741
0.00339605
0.00359212
0.00380049
0.00370759
0.00355432
0.00335478
0.00312527
0.00288096
0.00263593
0.00240397
0.00220002
0.00203973
0.00192937
0.00186941
0.00184752
0.00152819
0.00132842
0.00125163
0.00126787
0.00129574
0.000270573
0.00335948
0.00354697
0.00369885
0.00356991
0.00338422
0.00315966
0.00291397
0.00266292
0.00242155
0.00220508
0.00202806
0.0019015
0.0018269
0.00179539
0.00168568
0.00143689
0.00133107
0.00131473
0.00135589
0.00135929
0.000265627
0.00331219
0.00351018
0.00357262
0.00340156
0.0031819
0.00293433
0.00267713
0.0024266
0.00219875
0.00200908
0.00186928
0.00178284
0.00174188
0.00173115
0.00150848
0.00139683
0.00138841
0.00143725
0.00148952
0.00131636
0.00025844
0.00325764
0.00348215
0.00340858
0.00319315
0.0029424
0.00267808
0.00241834
0.00218008
0.0019797
0.0018299
0.00173467
0.001686
0.00166937
0.00152556
0.00141166
0.00143066
0.00151656
0.00161758
0.00166489
0.00126503
0.000249382
0.0032039
0.00340709
0.00319442
0.0029383
0.00266476
0.00239494
0.00214671
0.00193714
0.00178012
0.00167967
0.00162619
0.00160312
0.00149566
0.00139422
0.00141994
0.00155018
0.00166604
0.00171123
0.00164295
0.00120153
0.000238868
0.00314621
0.00318706
0.00292243
0.00263617
0.00235393
0.00209554
0.00187798
0.00171575
0.00161421
0.00155943
0.00147738
0.00131716
0.00129553
0.00137686
0.00150224
0.00153979
0.0016033
0.00165207
0.00157015
0.00112727
0.000227162
0.00306334
0.00289718
0.00259276
0.0022935
0.00202293
0.00179841
0.00163285
0.00153318
0.00148209
0.0012563
0.00114681
0.0011534
0.00124
0.00137279
0.00140274
0.00146547
0.0015452
0.00158401
0.00147921
0.00104072
0.000214297
0.00287019
0.00253889
0.0022145
0.00192648
0.00169419
0.00152786
0.00143254
0.00129185
0.00106234
0.00100229
0.00103103
0.00110428
0.00120191
0.00125664
0.00132079
0.00140827
0.00148018
0.00148787
0.00134608
0.000907183
0.000201538
0.0024854
0.0021225
0.001807
0.00156205
0.00139643
0.00130957
0.001039
0.00089942
0.00088746
0.000931579
0.000976472
0.000998381
0.00103641
0.00115421
0.00124671
0.0013304
0.00135663
0.00132287
0.00115213
0.000745984
0.000189186
0.00203485
0.00167084
0.00140332
0.00123559
0.00109531
0.000829048
0.000771737
0.000805601
0.000856204
0.000848281
0.000794095
0.000761128
0.000809291
0.000971125
0.00110605
0.00115207
0.00115507
0.00109584
0.000921159
0.000587126
0.000176627
0.00153652
0.00122277
0.00104902
0.000778823
0.000656739
0.000678843
0.000754522
0.000800051
0.000728996
0.000590092
0.00054466
0.000574406
0.000662167
0.000810026
0.000896543
0.000916903
0.000904738
0.000839028
0.000691758
0.000450329
0.000163305
0.00102529
0.000835353
0.000539777
0.000528008
0.000616373
0.000723532
0.000718206
0.000609036
0.000465866
0.000397961
0.000416715
0.000474545
0.000558944
0.000622448
0.000657065
0.000666502
0.000651864
0.000600947
0.00050119
0.000346518
0.000141124
0.000573082
0.000332581
0.000400779
0.000530041
0.000626345
0.000612928
0.000466762
0.000315794
0.000247403
0.000241903
0.000263424
0.000296176
0.000334191
0.000372597
0.000405006
0.000422782
0.00042418
0.000405724
0.000358914
0.000272477
0.000116609
0.00016066
0.000123178
0.000119025
0.000114723
0.000104356
9.07983e-05
7.72228e-05
7.21634e-05
7.41822e-05
7.87945e-05
8.39049e-05
8.89315e-05
9.37944e-05
9.85883e-05
0.000103523
0.000108934
0.000113943
0.000117358
0.000109158
0.000111001
9.36345e-05
0.000291212
0.00119104
0.00156524
0.00202458
0.00239138
0.00270426
0.00296728
0.00316273
0.00328562
0.00334086
0.00334002
0.00329534
0.00321972
0.00312524
0.00302188
0.00291673
0.00281387
0.00271476
0.00261908
0.000297696
0.00131466
0.00170997
0.0021773
0.00256246
0.0028586
0.00309008
0.0032429
0.00331601
0.00331831
0.00326491
0.003173
0.00305843
0.0029346
0.00281103
0.00269269
0.00258046
0.00247247
0.00236567
0.000303236
0.0014462
0.00185837
0.00233286
0.00270357
0.00297662
0.00317183
0.0032798
0.00330392
0.00325773
0.00316026
0.00303218
0.00289152
0.00275108
0.00261737
0.00249095
0.00236828
0.00224426
0.00211442
0.000307731
0.00151215
0.00201648
0.00249543
0.00281644
0.0030623
0.00321909
0.00328272
0.0032613
0.00317306
0.00304115
0.00288829
0.0027324
0.00258332
0.00244264
0.00230606
0.00216711
0.00202058
0.00186508
0.000311309
0.00156327
0.00218731
0.00259756
0.00290385
0.00312022
0.00323862
0.00326049
0.00319881
0.00307635
0.00291949
0.00275163
0.00258797
0.00243353
0.00228494
0.00213526
0.00197927
0.0018173
0.00165709
0.000314063
0.00160445
0.00227583
0.00267989
0.00296887
0.00315516
0.00323689
0.00322105
0.00312551
0.00297703
0.00280393
0.00262826
0.00246082
0.00230134
0.0021436
0.00198246
0.00181968
0.00166673
0.00154246
0.000316066
0.00163627
0.00234073
0.00274447
0.00301477
0.00317174
0.00321975
0.00317124
0.00304869
0.00288203
0.00269991
0.00252112
0.00235122
0.00218623
0.00202102
0.00185757
0.00170949
0.00159911
0.0015489
0.000317387
0.00165951
0.0023919
0.00279346
0.0030448
0.00317425
0.00319231
0.00311665
0.00297392
0.00279611
0.00261042
0.00243101
0.00225872
0.00208891
0.00192232
0.00177261
0.00166453
0.00162304
0.00165936
0.000318095
0.00167506
0.00243084
0.00282908
0.00306203
0.00316647
0.00315886
0.00306173
0.00290526
0.00272218
0.00253662
0.00235756
0.00218284
0.00201115
0.00185338
0.00173542
0.00168626
0.00172101
0.00182893
0.000318256
0.0016838
0.00245906
0.00285342
0.00306924
0.00315165
0.00312286
0.0030098
0.00284541
0.00266172
0.0024785
0.00229985
0.00212332
0.00195489
0.00181776
0.00174569
0.00176201
0.00186302
0.00201836
0.000317936
0.0016866
0.00247803
0.00286845
0.00306884
0.00313248
0.00308697
0.00296322
0.00279594
0.00261509
0.00243523
0.00225676
0.0020801
0.00192124
0.00181493
0.00179567
0.00187298
0.00202408
0.00220408
0.000317194
0.00168431
0.00248908
0.00287592
0.00306289
0.0031111
0.0030532
0.00292351
0.00275752
0.00258185
0.00240559
0.00222712
0.00205264
0.00190954
0.00184063
0.00187412
0.00200247
0.00218693
0.0023766
0.000316089
0.00167771
0.00249347
0.00287737
0.0030531
0.00308917
0.00302291
0.00289146
0.00273009
0.00256102
0.00238808
0.00220963
0.00203987
0.0019175
0.00188856
0.00197008
0.00213869
0.00234354
0.00253581
0.000314673
0.00166752
0.0024923
0.0028741
0.00304083
0.0030679
0.00299695
0.0028673
0.00271302
0.00255119
0.00238092
0.00220285
0.00204031
0.00194184
0.0019522
0.00207552
0.00227456
0.00249128
0.00268407
0.000312995
0.00165439
0.00248656
0.0028672
0.00302714
0.00304816
0.00297574
0.00285078
0.00270526
0.00255034
0.00233096
0.00220497
0.00205209
0.00197897
0.00202595
0.00218523
0.00240676
0.00263073
0.00282419
0.000311099
0.00163888
0.00247709
0.00285759
0.00301284
0.00303047
0.00295937
0.00284131
0.00270528
0.0023993
0.00219424
0.00221361
0.00207297
0.00202565
0.00210608
0.00229532
0.00253359
0.00276322
0.00295846
0.000309023
0.00162149
0.0024646
0.00284596
0.00299852
0.00301514
0.00294766
0.002838
0.00270403
0.00225383
0.00209632
0.00215702
0.0021007
0.00207902
0.00218954
0.0024036
0.0026552
0.00289013
0.00308853
0.000306802
0.00160266
0.00244972
0.00283291
0.00298458
0.00300229
0.00294023
0.00283977
0.00253964
0.00214973
0.00202853
0.00210112
0.0021337
0.00213675
0.00227435
0.00250951
0.00277213
0.00301259
0.00321537
0.000304465
0.00158273
0.00243295
0.00281888
0.00297131
0.00299187
0.00293658
0.00284536
0.00241566
0.00207533
0.0019802
0.00206059
0.00217068
0.00219698
0.00235942
0.00261296
0.00288486
0.0031312
0.0033393
0.000302038
0.00156202
0.0024147
0.0028042
0.00295885
0.00298376
0.00293615
0.00285374
0.00232601
0.0020222
0.00194604
0.00203271
0.0022104
0.0022586
0.00244353
0.00271304
0.00299334
0.00324594
0.00346
0.000299542
0.00154078
0.00239533
0.00278913
0.00294729
0.00297772
0.00293832
0.00280105
0.00226125
0.00198505
0.00192326
0.00201464
0.00219433
0.00232056
0.00252512
0.00280834
0.00309669
0.00335592
0.00357647
0.000296996
0.00151921
0.00237511
0.00277386
0.00293661
0.00297349
0.00294246
0.00271886
0.00221476
0.00195978
0.00190878
0.00200346
0.00217962
0.00238104
0.00260241
0.00286785
0.00314233
0.00342758
0.00368695
0.000294414
0.00149747
0.00235427
0.00275852
0.0029268
0.0029708
0.00294805
0.00265752
0.00218226
0.00194343
0.00190045
0.00199721
0.00216999
0.00236807
0.00258516
0.00283071
0.00309401
0.00336865
0.003655
0.00029181
0.0014757
0.00233298
0.0027432
0.00291777
0.00296938
0.00295469
0.00261355
0.00216062
0.00193437
0.00189685
0.00199332
0.00216161
0.00235171
0.00255664
0.00278855
0.00304106
0.00330673
0.0035846
0.000289194
0.00145401
0.0023114
0.00272795
0.00290943
0.00296899
0.00296209
0.0025831
0.00214762
0.00193132
0.00189702
0.00199108
0.00215341
0.00233521
0.00252903
0.0027483
0.00298983
0.00324729
0.00351814
0.000286573
0.00143246
0.00228964
0.0027128
0.0029017
0.00296939
0.00297001
0.00256348
0.00214176
0.00193322
0.0019003
0.00199053
0.00214602
0.00231958
0.00250348
0.00271155
0.00294312
0.00319282
0.00345722
0.000283954
0.00141113
0.00226777
0.00269776
0.00289445
0.00297041
0.00297827
0.00255286
0.00214199
0.00193929
0.00190624
0.00199172
0.00214007
0.00230566
0.00248066
0.00267927
0.00290281
0.0031464
0.00340549
0.000281341
0.00139005
0.00224587
0.00268282
0.00288761
0.00297186
0.00298673
0.00254985
0.00214753
0.00194897
0.00191456
0.00199467
0.00213596
0.0022941
0.00246137
0.00265236
0.00287001
0.00310972
0.00336582
0.000278737
0.00136925
0.00222397
0.00266798
0.00288106
0.0029736
0.00299528
0.00255339
0.00215778
0.0019619
0.00192514
0.00199945
0.00213396
0.00228539
0.00244618
0.00263136
0.00284517
0.00308317
0.00333866
0.000276146
0.00134871
0.00220211
0.0026532
0.00287472
0.00297552
0.00300383
0.00256265
0.00217233
0.00197783
0.00193789
0.00200616
0.00213429
0.00227982
0.00243537
0.00261634
0.00282802
0.00306606
0.00332276
0.000273574
0.00132845
0.00218028
0.00263847
0.0028685
0.00297749
0.00301227
0.00257691
0.00219079
0.00199661
0.0019529
0.00201491
0.00213709
0.00227751
0.0024289
0.00260702
0.00281784
0.00305695
0.00331576
0.00027102
0.00130862
0.00215845
0.00262369
0.00286223
0.00297926
0.0030203
0.00259516
0.00221269
0.00201831
0.00197075
0.00202613
0.00214263
0.00227867
0.0024267
0.00260298
0.00281378
0.00305414
0.00331416
0.00026854
0.00128827
0.00213616
0.00260854
0.00285571
0.0029807
0.00302787
0.00261691
0.00223747
0.00204216
0.00199075
0.00204041
0.00215193
0.00228418
0.00242967
0.00260426
0.00281449
0.00305523
0.00331552
0.000266125
0.00126748
0.00211344
0.00259301
0.00284885
0.00298175
0.00303497
0.00264179
0.00226497
0.002068
0.00201284
0.0020575
0.00216482
0.00229414
0.00243746
0.00261009
0.00281897
0.00305898
0.00331833
0.000263767
0.00124643
0.00209033
0.00257707
0.00284163
0.00298235
0.00304157
0.00266942
0.0022951
0.00209584
0.00203699
0.00207726
0.00218103
0.00230811
0.00244953
0.00261983
0.00282646
0.00306455
0.00332181
0.000261457
0.00122521
0.00206682
0.0025607
0.00283396
0.00298244
0.00304764
0.00269942
0.0023277
0.00212569
0.00206318
0.00209952
0.00220025
0.00232567
0.00246537
0.00263292
0.00283634
0.00307126
0.00332514
0.000259191
0.00120394
0.00204292
0.00254386
0.00282581
0.00298197
0.00305319
0.00273133
0.00236257
0.0021575
0.00209139
0.00212414
0.00222221
0.00234643
0.00248459
0.00264896
0.00284804
0.00307819
0.00332711
0.000256962
0.00118266
0.00201861
0.00252654
0.00281714
0.00298092
0.00305821
0.00276465
0.00239949
0.0021912
0.00212156
0.00215099
0.00224664
0.00237006
0.00250688
0.00266768
0.00286123
0.00308492
0.00332711
0.000254765
0.00116137
0.00199393
0.0025087
0.00280789
0.00297925
0.00306269
0.00279883
0.00243812
0.00222667
0.0021536
0.00218002
0.00227331
0.00239638
0.00253212
0.00268913
0.00287611
0.0030921
0.00332151
0.000252596
0.00114011
0.00196889
0.00249033
0.00279804
0.00297695
0.00306663
0.00283321
0.00247808
0.00226372
0.00218712
0.00221104
0.00230233
0.00242526
0.00256044
0.00271352
0.00289369
0.00309846
0.00331077
0.000250451
0.00111891
0.00194352
0.0024714
0.00278755
0.00297399
0.00307003
0.00286704
0.00251883
0.00230207
0.00222194
0.00224369
0.00233349
0.00245657
0.00259173
0.00274139
0.00291429
0.00309662
0.00330078
0.000248325
0.00109781
0.00191783
0.00245191
0.00277642