/*--------------------------------*- C++ -*----------------------------------*\
| =========                 |                                                 |
| \\      /  F ield         | OpenFOAM: The Open Source CFD Toolbox           |
|  \\    /   O peration     | Version:  v2012                                 |
|   \\  /    A nd           | Website:  www.openfoam.com                      |
|    \\/     M anipulation  |                                                 |
\*---------------------------------------------------------------------------*/
FoamFile
{
    version     2.0;
    format      ascii;
    class       volScalarField;
    location    "625";
    object      omega;
}
// * * * * * * * * * * * * * * * * * * * * * * * * * * * * * * * * * * * * * //

dimensions      [0 0 -1 0 0 0 0];


internalField   nonuniform List<scalar> 
6057
(
97.3636
101.186
105.363
109.947
115
120.6
126.851
133.882
141.862
151.02
161.663
174.224
189.324
207.889
231.356
262.052
303.964
364.354
457.442
613.515
43.2415
45.1117
47.1637
49.424
51.9252
54.7104
57.8333
61.3611
65.3798
70.0005
75.3687
81.6778
89.1883
98.255
109.364
123.178
140.569
162.541
189.669
219.56
33.752
35.2896
36.9794
38.8447
40.9143
43.2235
45.8158
48.7465
52.0852
55.9206
60.3682
65.5793
71.7558
79.1717
88.2055
99.3924
113.512
131.751
156.056
190.092
30.6302
32.0638
33.6412
35.3844
37.3208
39.4836
41.9144
44.6649
47.8008
51.4069
55.5931
60.5059
66.3432
73.3791
82.0038
92.7914
106.621
124.909
150.079
186.614
29.5376
30.936
32.4759
34.179
36.072
38.1879
40.5676
43.2624
46.338
49.8788
53.996
58.8383
64.6095
71.5957
80.2105
91.0731
105.146
123.988
150.222
188.384
29.5439
30.9403
32.4789
34.1811
36.0735
38.1889
40.5683
43.2629
46.3383
49.879
53.9961
58.8384
64.6096
71.5957
80.2105
91.0731
105.146
123.988
150.222
188.384
30.6536
32.0795
33.6519
35.3917
37.3258
39.487
41.9166
44.6663
47.8018
51.4075
55.5935
60.5062
66.3434
73.3792
82.0038
92.7914
106.621
124.909
150.079
186.614
33.8124
35.3278
37.0047
38.8614
40.9253
43.2305
45.8205
48.7496
52.0872
55.922
60.3691
65.5799
71.7562
79.172
88.2057
99.3925
113.512
131.751
156.056
190.092
43.4133
45.2039
47.2226
49.4599
51.9481
54.7253
57.843
61.3675
65.3841
70.0033
75.3705
81.679
89.1891
98.2555
109.364
123.179
140.569
162.541
189.669
219.56
97.2109
101.093
105.303
109.907
114.972
120.581
126.838
133.872
141.856
151.015
161.66
174.222
189.322
207.888
231.355
262.051
303.964
364.354
457.442
613.515
54.196
55.6694
57.14
58.6152
60.1025
61.6096
63.1449
64.7172
66.3362
68.012
69.7558
71.5796
73.4962
75.5196
77.6647
79.939
82.3545
84.9324
87.6959
90.67
93.8821
25.8675
26.0597
26.3006
26.5917
26.9354
27.3338
27.7889
28.3028
28.8776
29.5157
30.2193
30.991
31.8334
32.7495
33.7431
34.8159
35.9676
37.206
38.5404
39.9818
41.5434
19.2478
19.4197
19.6411
19.9105
20.2268
20.5889
20.9965
21.4495
21.9485
22.4944
23.0885
23.7328
24.4295
25.1813
25.9926
26.8642
27.8012
28.8104
29.8998
31.0786
32.358
16.7805
16.9977
17.2577
17.5581
17.897
18.2733
18.6863
19.1361
19.6231
20.1484
20.7137
21.3211
21.9734
22.6738
23.4258
24.2329
25.1008
26.0363
27.047
28.142
29.332
15.7186
15.9824
16.2832
16.6185
16.9866
17.3864
17.8174
18.2798
18.7743
19.3023
19.8655
20.4664
21.108
21.7937
22.5267
23.3119
24.1555
25.0647
26.0477
27.1133
28.2722
15.3207
15.636
15.9844
16.3635
16.7718
17.2082
17.6725
18.1651
18.6869
19.2392
19.8241
20.4437
21.1009
21.7986
22.5391
23.3276
24.1712
25.0789
26.0601
27.1238
28.2807
15.3391
15.723
16.1384
16.5827
17.0541
17.5517
18.0756
18.6266
19.2064
19.8174
20.4619
21.1424
21.8614
22.6195
23.4157
24.2507
25.1258
26.0656
27.0794
28.1741
29.3612
15.6898
16.1752
16.6928
17.2387
17.8099
18.4046
19.0228
19.666
20.3381
21.0454
21.7952
22.5964
23.4571
24.3842
25.3765
26.4351
27.569
28.71
29.8664
31.0941
32.4071
16.3134
16.9524
17.6343
18.3542
19.1078
19.8918
20.7035
21.5418
22.4072
23.3039
24.2413
25.2513
26.3677
27.6387
29.1279
30.8868
32.9208
35.1307
37.3064
39.2996
41.3066
17.095
17.9349
18.8463
19.8314
20.8949
22.0449
23.292
24.6493
26.132
27.7569
29.5419
31.5065
33.6606
36.0022
38.8172
42.4085
47.0128
52.9048
60.366
69.8387
82.0463
14.2563
13.3931
13.68
15.7904
21.6535
25.9404
29.4476
32.3931
34.8919
37.1342
39.1975
41.1281
42.9562
44.7032
46.385
48.0142
49.6013
51.1554
52.6844
15.0402
10.0533
13.1404
18.502
22.2036
24.0242
24.8622
25.2851
25.4757
25.541
25.5541
25.5414
25.5193
25.4991
25.4904
25.5012
25.5386
25.6089
25.7172
18.6271
12.218
15.6344
18.9877
20.7478
21.343
21.3867
21.1904
20.8655
20.5008
20.1509
19.8366
19.5687
19.3531
19.1931
19.0903
19.045
19.0569
19.125
22.7374
14.2234
16.4367
18.2416
19.0325
19.1507
18.9429
18.573
18.1359
17.708
17.3267
17.0068
16.7542
16.5703
16.454
16.4028
16.4135
16.4825
16.6062
26.5781
15.4141
16.4909
17.2796
17.5619
17.4811
17.1975
16.8054
16.3861
16.0002
15.6745
15.4188
15.2356
15.1233
15.0789
15.0981
15.1763
15.3088
15.4911
29.2404
16.0554
16.2462
16.4468
16.4048
16.2283
15.9329
15.5738
15.215
14.9015
14.6531
14.4761
14.3707
14.3345
14.3635
14.4531
14.5984
14.7947
15.037
31.205
16.3496
15.8967
15.7518
15.5356
15.2856
15.001
14.6934
14.4065
14.1719
14.0035
13.9056
13.8777
13.9171
14.0203
14.1833
14.4015
14.6702
14.9843
32.8188
16.4157
15.5276
15.178
14.8723
14.5797
14.3032
14.049
13.8328
13.6741
13.5824
13.5606
13.6087
13.7252
13.9081
14.1545
14.4608
14.8224
15.234
34.1449
16.3654
15.1774
14.7044
14.3535
14.0447
13.7763
13.5656
13.4123
13.3214
13.2988
13.3474
13.4685
13.6633
13.9321
14.2742
14.6878
15.1691
15.7131
35.2341
16.2704
14.8594
14.3103
13.9367
13.6269
13.3745
13.1928
13.0898
13.0552
13.0909
13.2007
13.3886
13.6588
14.0153
14.4602
14.9935
15.6131
16.3152
17.6648
18.5919
19.5777
20.621
21.7231
22.8876
24.1174
25.4143
26.7777
28.1982
29.6403
31.1634
32.8049
34.5941
36.5425
38.5836
40.5102
41.7688
40.715
37.8383
32.1944
17.4233
18.1377
18.825
19.4686
20.05
20.5495
20.932
21.1505
21.1573
21.1144
21.0888
21.0252
20.858
20.6391
20.4136
20.2122
19.7202
18.5156
16.56
13.8671
13.2001
16.0625
16.2543
16.2928
16.1496
15.8005
15.2265
14.4344
13.542
12.811
12.1742
11.6544
11.1937
10.7838
10.4445
10.1928
10.0178
9.85334
9.65911
9.6017
9.8116
11.6227
13.6425
13.1362
12.3972
11.4577
10.3952
9.33261
8.41765
7.81285
7.40625
7.14427
6.99865
6.94203
6.96695
7.08771
7.29262
7.58436
7.98241
8.50469
9.18221
10.1298
12.342
10.6754
9.64918
8.53765
7.47705
6.60022
5.97944
5.64711
5.49608
5.46225
5.50632
5.61304
5.7757
5.99279
6.27189
6.61682
7.04181
7.57562
8.26204
9.17536
10.5134
13.162
7.97028
6.90494
5.9965
5.32336
4.89934
4.69975
4.659
4.69741
4.79233
4.92943
5.10496
5.31934
5.5758
5.88148
6.24917
6.70083
7.27439
8.03647
9.10543
10.7521
13.9529
6.04182
5.24405
4.6838
4.35466
4.20462
4.18202
4.23628
4.33261
4.46078
4.61733
4.80277
5.01967
5.2731
5.57221
5.93372
6.38497
6.97167
7.77875
8.9626
10.8701
14.6974
4.85855
4.33881
4.0345
3.89588
3.86732
3.90776
3.9904
4.10009
4.23274
4.38826
4.56826
4.776
5.01719
5.30195
5.64863
6.08873
6.6745
7.50466
8.77017
10.9003
15.3957
4.15988
3.84089
3.68573
3.63899
3.65946
3.72162
3.8115
3.92192
4.0518
4.20178
4.37373
4.57092
4.79902
5.06826
5.39754
5.82084
6.39577
7.23167
8.55061
10.8702
16.0533
3.73847
3.54648
3.47061
3.46703
3.50767
3.57709
3.66768
3.77617
3.90228
4.04686
4.21166
4.39962
4.61608
4.87094
5.18286
5.58632
6.1431
6.97158
8.32115
10.8
16.6759
3.47045
3.35339
3.31984
3.33716
3.38642
3.45804
3.54801
3.65452
3.77763
3.91814
4.07748
4.25817
4.46497
4.70721
5.00288
5.38588
5.92013
6.7317
8.09395
10.7046
17.2693
3.28708
3.21451
3.20423
3.23217
3.28526
3.35761
3.44693
3.5521
3.67331
3.8112
3.96686
4.1423
4.3416
4.57323
4.85416
5.21743
5.72755
6.51609
7.87715
10.5947
17.8385
3.15305
3.10751
3.11055
3.14406
3.19901
3.27166
3.36057
3.46506
3.58535
3.72193
3.87557
4.04772
4.24171
4.46495
4.73313
5.07811
5.56419
6.32637
7.67593
10.478
18.3879
3.04988
3.02124
3.03202
3.06854
3.12443
3.19718
3.28587
3.39014
3.51025
3.64661
3.79968
3.9704
4.16123
4.3784
4.63612
4.96481
5.42802
6.1626
7.49331
10.3602
18.9214
2.96753
2.94957
2.96487
3.00299
3.05922
3.13182
3.22031
3.3246
3.44505
3.58205
3.73581
3.90676
4.09648
4.30989
4.55959
4.87438
5.31664
6.02389
7.33091
10.2453
19.4427
2.90008
2.88892
2.90684
2.9456
3.00161
3.07376
3.16191
3.26627
3.38737
3.52563
3.68113
3.85379
4.0443
4.25618
4.50032
4.80377
5.22752
5.90884
7.18936
10.1365
19.9548
2.8441
2.83721
2.85642
2.89503
2.95029
3.0216
3.10916
3.2135
3.33539
3.47536
3.63341
3.80904
4.00202
4.21446
4.45545
4.75022
5.15821
5.81579
7.06871
10.0362
20.4608
2.79746
2.79306
2.81253
2.8503
2.90428
2.97432
3.06097
3.16511
3.2878
3.42977
3.59099
3.77061
3.96752
4.18241
4.42255
4.71127
5.10641
5.74303
6.96865
9.94618
20.9636
2.75866
2.75544
2.77434
2.81067
2.86287
2.93121
3.01661
3.12033
3.24377
3.38788
3.55271
3.7371
3.93915
4.15817
4.39959
4.68481
5.07009
5.68894
6.88869
9.86829
21.4662
2.72661
2.72355
2.74123
2.77558
2.82555
2.8918
2.97565
3.07874
3.20282
3.34914
3.51783
3.70756
3.91573
4.14031
4.38492
4.66908
5.04749
5.652
6.8283
9.80406
21.9714
2.70038
2.69673
2.71266
2.74462
2.79198
2.85585
2.93791
3.04019
3.16482
3.31333
3.48604
3.68149
3.89648
4.1278
4.37729
4.66264
5.03713
5.63092
6.78697
9.75509
22.4824
2.67928
2.6745
2.68831
2.71755
2.76199
2.82331
2.90342
3.00478
3.12987
3.28054
3.45731
3.6587
3.88103
4.12
4.37581
4.66442
5.03784
5.62462
6.76428
9.72311
23.0025
2.66283
2.6566
2.66802
2.69435
2.73571
2.79433
2.8724
2.97278
3.09829
3.25108
3.43193
3.63936
3.86934
4.11662
4.37994
4.67367
5.04876
5.63227
6.75998
9.70992
23.5356
2.65096
2.64303
2.65196
2.67521
2.71343
2.76922
2.84519
2.94459
3.07054
3.22547
3.41038
3.62389
3.86167
4.11769
4.38945
4.68994
5.06933
5.65333
6.77402
9.71797
24.0858
2.64368
2.63386
2.64031
2.6605
2.69543
2.74834
2.82223
2.92074
3.04723
3.20437
3.39338
3.61296
3.85858
4.12357
4.40444
4.71312
5.09931
5.68752
6.80659
9.75031
24.6584
2.64093
2.62903
2.63297
2.65025
2.68204
2.73202
2.80396
2.90177
3.02904
3.1886
3.38184
3.6075
3.86089
4.13489
4.42533
4.7434
5.13875
5.73484
6.8582
9.81224
25.2595
2.64257
2.62839
2.62971
2.6441
2.67303
2.72046
2.79073
2.8883
3.0168
3.17915
3.37685
3.60865
3.86969
4.15257
4.45284
4.78133
5.18807
5.79564
6.9295
9.90958
25.897
2.64832
2.63166
2.63028
2.64177
2.66807
2.71363
2.78301
2.88106
3.01149
3.17721
3.37976
3.6178
3.88632
4.1778
4.48797
4.82776
5.24801
5.87066
7.01753
10.0297
26.5602
2.65791
2.63862
2.63451
2.64329
2.66745
2.7119
2.78139
2.88111
3.01442
3.18429
3.39218
3.6366
3.91238
4.21191
4.53103
4.88247
5.31716
5.956
7.11801
10.1621
27.2356
2.67126
2.64926
2.64262
2.64924
2.67216
2.71646
2.78716
2.88913
3.02606
3.20077
3.4145
3.6655
3.94845
4.25586
4.58421
4.94751
5.39751
6.05402
7.23264
10.3047
27.9261
2.68864
2.66406
2.65524
2.66023
2.68261
2.72751
2.80035
2.9059
3.04763
3.22826
3.44869
3.7068
3.99706
4.31216
4.64948
5.02467
5.49076
6.16614
7.36278
10.4588
28.6302
2.71101
2.68373
2.67294
2.67686
2.69956
2.74621
2.82255
2.93302
3.08095
3.26878
3.49694
3.76279
4.06052
4.38308
4.72898
5.11599
5.59875
6.29426
7.5093
10.6263
29.3468
2.73891
2.70895
2.69655
2.70016
2.72423
2.77409
2.8555
2.97249
3.12824
3.32471
3.56169
3.83595
4.1413
4.47102
4.82506
5.22371
5.72356
6.44028
7.67468
10.8085
30.0755
2.77315
2.74066
2.72719
2.73146
2.75826
2.81304
2.9013
3.02668
3.19202
3.39868
3.64567
3.92899
4.24208
4.57861
4.94029
5.35036
5.8675
6.60622
7.86053
11.0063
30.8135
2.81475
2.78002
2.76622
2.77243
2.80369
2.86536
2.96245
3.09827
3.27515
3.49364
3.7518
4.0448
4.36568
4.70865
5.07744
5.49866
6.03307
6.79425
8.06875
11.2203
31.5559
2.86496
2.82845
2.81536
2.82517
2.86281
2.93354
3.04174
3.19029
3.38077
3.61275
3.88322
4.18645
4.5151
4.86404
5.23942
5.67142
6.22277
7.00651
8.301
11.451
32.2947
2.92517
2.88755
2.87656
2.89217
2.93825
3.0205
3.14236
3.30608
3.51228
3.75939
4.0432
4.35707
4.69333
5.04773
5.42914
5.87149
6.43905
7.24491
8.55844
11.6977
33.018
2.99755
2.95924
2.95188
2.97535
3.03292
3.1295
3.26781
3.44923
3.67326
3.937
4.23502
4.55977
4.90333
5.26257
5.64946
6.10149
6.68399
7.51071
8.8412
11.9586
33.7097
3.08442
3.04642
3.04365
3.07799
3.1501
3.26408
3.42177
3.62345
3.86727
4.14895
4.46182
4.79747
5.14784
5.51122
5.90293
6.36366
6.95912
7.80408
9.148
12.2294
34.3496
3.18779
3.15194
3.15574
3.20323
3.2933
3.42797
3.60802
3.83237
4.09772
4.39838
4.72647
5.07278
5.42925
5.79594
6.19164
6.65958
7.26504
8.12601
9.47676
12.4974
34.9116
3.30975
3.2784
3.29232
3.3556
3.46635
3.62506
3.83034
4.07956
4.36787
4.6882
5.03153
5.38794
5.74951
6.11852
6.51704
6.98994
7.60173
8.47927
9.82138
12.7359
35.3535
3.4525
3.42882
3.4589
3.54019
3.67389
3.85944
4.09269
4.36867
4.68097
5.02124
5.37939
5.74493
6.11021
6.48035
6.87986
7.35427
7.97046
8.85923
10.1688
12.9605
35.6743
3.61832
3.60578
3.65552
3.76022
3.92114
4.13604
4.39963
4.70386
5.04072
5.40071
5.77272
6.14586
6.51297
6.88277
7.28025
7.7506
8.36769
9.25284
10.5057
13.173
35.8462
3.80995
3.81367
3.88814
4.02156
4.21417
4.46177
4.75691
5.09038
5.45178
5.83065
6.2149
6.59353
6.96018
7.32811
7.71798
8.17714
8.78351
9.63673
10.8058
13.3376
35.8663
4.03113
4.06074
4.16463
4.33176
4.5606
4.84429
5.17269
5.53484
5.92015
6.31637
6.71059
7.09225
7.45688
7.81332
8.1897
8.62814
9.2001
9.98049
11.0333
13.423
35.7294
4.28636
4.35274
4.49247
4.69945
4.9695
5.29245
5.65555
6.0461
6.45295
6.86464
7.26635
7.64931
8.00877
8.34996
8.696
9.0902
9.58774
10.2441
11.1495
13.4185
35.4578
4.58326
4.69458
4.88106
5.13593
5.45238
5.81691
6.21472
6.63284
7.06002
7.48462
7.89224
8.27797
8.62367
8.93458
9.22263
9.53269
9.90028
10.3795
11.1154
13.2833
35.0014
4.94231
5.10619
5.34775
5.65751
6.0241
6.43047
6.861
7.30454
7.75168
8.18959
8.60488
8.98506
9.30915
9.55681
9.73892
9.9019
10.0725
10.3321
10.8853
13.0345
34.3617
5.3707
5.60415
5.91226
6.28383
6.70213
7.14767
7.60707
8.07431
8.54304
9.00022
9.42814
9.79768
10.0565
10.1732
10.1724
10.1031
10.0193
10.0517
10.4358
12.6533
33.4319
5.89712
6.21671
6.60194
7.0392
7.50622
7.98471
8.46944
8.96345
9.46275
9.95076
10.3886
10.6984
10.8047
10.6872
10.3931
10.0128
9.66922
9.52133
9.89947
12.2196
32.2602
6.56338
6.98166
7.45081
7.95046
8.45688
8.96114
9.47466
10.0101
10.5596
11.081
11.4728
11.6148
11.426
10.9247
10.2373
9.54928
9.0359
8.82387
9.32774
11.7946
30.9001
7.41171
7.94241
8.49403
9.04279
9.57605
10.1083
10.6724
11.2788
11.8942
12.3857
12.5912
12.3672
11.678
10.6712
9.62331
8.74756
8.19851
8.09398
8.77972
11.406
29.3858
8.50619
9.14564
9.76125
10.3398
10.8989
11.4906
12.1487
12.8626
13.47
13.7505
13.4771
12.5824
11.2546
9.84292
8.62098
7.70543
7.20485
7.38549
8.31527
11.1032
27.7215
9.88974
10.6186
11.2754
11.8806
12.5109
13.2253
14.0432
14.7786
15.1279
14.7505
13.5603
11.8639
10.1008
8.57713
7.39519
6.63441
6.41841
6.88887
8.09434
11.22
26.0711
11.5887
12.3804
13.0861
13.7783
14.5722
15.5215
16.3855
16.7553
16.1602
14.5101
12.3596
10.3154
8.58838
7.28232
6.3634
5.92824
6.0975
6.79891
8.24555
11.7151
24.4731
13.5855
14.4843
15.3538
16.2699
17.4157
18.387
18.6153
17.5371
15.218
12.5283
10.3358
8.64372
7.37704
6.56807
6.07033
5.94843
6.30294
7.15463
8.8171
12.4556
22.8486
15.9632
17.1788
18.4892
19.8919
20.8274
20.541
18.3969
15.0415
12.1287
9.88334
8.71712
7.87533
7.20795
6.72676
6.48468
6.56736
7.03364
8.00323
9.79759
13.29
21.1251
19.2213
21.1515
23.1026
23.4335
21.5721
17.6631
12.9503
10.5741
9.56656
9.01435
8.62205
8.20098
7.79718
7.51056
7.44371
7.67817
8.24611
9.28417
11.0458
14.0155
19.1882
25.1449
26.4899
26.1078
19.7562
13.8427
10.9952
9.5647
9.26612
9.48981
9.73557
9.80867
9.69346
9.46387
9.23547
9.15812
9.41074
10.0093
10.9749
12.4274
14.4347
16.7922
38.4416
21.6365
20.9069
20.1512
18.3303
15.9488
13.5643
12.6756
13.0302
13.8404
14.738
15.6209
16.4751
17.3172
18.1839
19.1343
20.0143
20.614
20.6532
19.5682
14.1971
36.1914
16.1544
14.5588
13.9601
13.5758
13.2739
13.0414
12.8876
12.8166
12.8258
12.9086
13.0693
13.3147
13.6524
14.0879
14.6234
15.2565
15.9805
16.7866
36.9971
16.0381
14.2888
13.6587
13.2708
12.9797
12.7647
12.6308
12.5807
12.6126
12.7242
12.9167
13.198
13.5752
14.0499
14.6157
15.258
15.9556
16.6852
37.6857
15.9272
14.0419
13.391
13.0038
12.7227
12.5201
12.3967
12.3548
12.3932
12.5115
12.7118
12.998
13.37
13.8168
14.314
14.8265
15.3142
15.7375
38.2443
15.8106
13.8092
13.1451
12.7607
12.4865
12.2893
12.1662
12.1197
12.1494
12.2547
12.4361
12.69
13.0011
13.3373
13.6511
13.8874
13.9932
13.9232
38.689
15.6899
13.5862
12.9132
12.5312
12.2594
12.0601
11.9276
11.8651
11.8729
11.9484
12.0858
12.2687
12.4609
12.6066
12.6399
12.4989
12.1368
11.5275
39.0313
15.5681
13.37
12.6894
12.3082
12.0341
11.8259
11.6761
11.5892
11.5652
11.5974
11.6696
11.7465
11.7705
11.669
11.3748
10.8437
10.0643
9.0747
39.2802
15.4456
13.1591
12.4702
12.0875
11.8069
11.5845
11.4125
11.2964
11.2349
11.2144
11.2039
11.1481
10.9728
10.6051
10.0012
9.15961
8.13754
7.04987
39.4443
15.3226
12.9526
12.2539
11.8673
11.577
11.3374
11.1411
10.9949
10.8941
10.8149
10.7091
10.5041
10.1215
9.50949
8.66694
7.65454
6.59233
5.62302
39.5323
15.1995
12.7501
12.0399
11.6474
11.3457
11.0881
10.8687
10.6944
10.5552
10.414
10.2052
9.84629
9.27062
8.46553
7.48223
6.43661
5.4711
4.6986
39.5524
15.0766
12.5515
11.8284
11.4289
11.1154
10.8413
10.6023
10.4043
10.229
10.0241
9.7095
9.20289
8.46525
7.53038
6.49871
5.51294
4.69731
4.10737
39.5126
14.9544
12.3574
11.6202
11.2134
10.8893
10.6018
10.3484
10.1319
9.92313
9.65424
9.23524
8.59529
7.73452
6.73061
5.71735
4.83511
4.16574
3.7224
39.4204
14.8334
12.1682
11.4164
11.0026
10.6702
10.3739
10.1121
9.88229
9.64249
9.30996
8.7915
8.03859
7.09331
6.06789
5.1115
4.34098
3.79722
3.46312
39.283
14.7141
11.9846
11.2179
10.7983
10.4608
10.1609
9.89681
9.65828
9.38922
8.9943
8.3843
7.5408
6.54356
5.5294
4.64649
3.9783
3.53571
3.27972
39.1071
14.5969
11.807
11.0259
10.6019
10.263
9.96501
9.70416
9.46058
9.16341
8.70832
8.01615
7.1031
6.07967
5.0966
4.28875
3.70891
3.34508
3.14404
38.8985
14.4822
11.636
10.8409
10.4147
10.0781
9.78715
9.53443
9.28853
8.96463
8.45178
7.68601
6.7231
5.6925
4.75071
4.01132
3.50557
3.202
3.0398
38.6629
14.3702
11.4719
10.6637
10.2372
9.90675
9.62747
9.38682
9.14107
8.79211
8.22145
7.39217
6.39739
5.37176
4.4737
3.79581
3.35062
3.09208
2.95754
38.4049
14.2611
11.3148
10.4946
10.0699
9.74897
9.48538
9.25986
9.01607
8.64292
8.01662
7.13414
6.11878
5.10763
4.25233
3.62795
3.23104
3.00623
2.8915
38.1289
14.1548
11.1649
10.3337
9.91272
9.60442
9.35974
9.15197
8.9114
8.51374
7.83589
6.90893
5.88179
4.89154
4.07559
3.49638
3.13803
2.93858
2.83808
37.8384
14.0514
11.022
10.181
9.76554
9.47242
9.24908
9.06064
8.82432
8.4025
7.6776
6.71369
5.6816
4.71609
3.93441
3.3928
3.06554
2.8852
2.79486
37.5368
13.9509
10.886
10.0363
9.62793
9.35203
9.15168
8.98341
8.75222
8.30735
7.54015
6.54588
5.51386
4.57384
3.82255
3.31213
3.00933
2.84332
2.76013
37.2266
13.853
10.7567
9.89934
9.49933
9.24211
9.0658
8.9182
8.69269
8.22658
7.42203
6.40416
5.37434
4.45785
3.73534
3.25056
2.96633
2.81082
2.73251
36.9102
13.7577
10.6337
9.76978
9.3791
9.14152
8.9897
8.86314
8.64372
8.15872
7.32176
6.28608
5.2598
4.36503
3.66889
3.20469
2.93406
2.78603
2.71094
36.5893
13.6648
10.5168
9.64718
9.26658
9.0491
8.92173
8.81643
8.60368
8.10194
7.23779
6.19039
5.16907
4.29341
3.6191
3.17109
2.91061
2.76783
2.69464
36.2657
13.574
10.4055
9.53111
9.16105
8.96375
8.86043
8.77644
8.57119
8.05544
7.16951
6.11487
5.09957
4.24025
3.58361
3.14818
2.89513
2.75585
2.68351
35.9405
13.4854
10.2996
9.42113
9.06184
8.88444
8.80451
8.74178
8.54509
8.01846
7.11592
6.05761
5.04904
4.20337
3.56079
3.13494
2.88706
2.74982
2.67745
35.6148
13.3987
10.1986
9.31678
8.96827
8.81025
8.75286
8.71129
8.52436
7.99025
7.07599
6.0169
5.01553
4.18108
3.54941
3.13056
2.88595
2.74949
2.67635
35.2893
13.3137
10.1023
9.21763
8.87974
8.74036
8.70453
8.68394
8.5081
7.97008
7.04868
5.9912
4.99733
4.17199
3.5485
3.13441
2.89139
2.75461
2.68002
34.9646
13.2304
10.0103
9.12327
8.79569
8.67404
8.65871
8.65885
8.49549
7.95728
7.03298
5.97911
4.99302
4.17501
3.55732
3.14598
2.90301
2.76487
2.68816
34.641
13.1486
9.92239
9.0333
8.71559
8.61068
8.61471
8.63522
8.48577
7.95115
7.02796
5.97939
5.00134
4.18925
3.57528
3.16485
2.9205
2.77999
2.70052
34.319
13.0683
9.83819
8.94738
8.63901
8.54976
8.57196
8.61239
8.47824
7.95105
7.03275
5.99089
5.02123
4.21397
3.60192
3.19072
2.94365
2.7998
2.71692
33.9994
12.9897
9.75746
8.86524
8.56557
8.49084
8.52997
8.5897
8.47216
7.9563
7.04668
6.01269
5.05182
4.2486
3.63692
3.22342
2.97243
2.82438
2.73744
33.6819
12.9119
9.68037
8.78686
8.4952
8.43385
8.48843
8.56593
8.46556
7.96603
7.07039
6.04455
5.09253
4.2928
3.67983
3.26279
3.00715
2.85436
2.76329
33.3737
12.8433
9.60842
8.7126
8.42783
8.37852
8.44702
8.5407
8.45736
7.9771
7.10002
6.08574
5.14359
4.34701
3.73301
3.31174
3.0499
2.89108
2.795
33.0736
12.7832
9.54139
8.64219
8.3632
8.32457
8.40546
8.51371
8.44722
7.98841
7.13428
6.13516
5.20398
4.41155
3.79655
3.37024
3.10096
2.93503
2.83326
32.7805
12.7304
9.47904
8.57542
8.30107
8.27176
8.36357
8.48475
8.43485
7.99949
7.17239
6.19184
5.27293
4.48577
3.8701
3.43836
3.16079
2.98693
2.87897
32.4935
12.6838
9.4212
8.5121
8.24124
8.21992
8.32118
8.45368
8.42
8.00988
7.2136
6.25492
5.34963
4.56902
3.95334
3.51625
3.22998
3.0477
2.93326
32.2118
12.6428
9.36777
8.4521
8.18357
8.16891
8.2782
8.42043
8.40249
8.01915
7.25727
6.32367
5.43334
4.66067
4.04597
3.60411
3.30922
3.11842
2.9975
31.9348
12.6067
9.31859
8.3953
8.12793
8.11865
8.23459
8.38499
8.3822
8.02693
7.3028
6.39755
5.52332
4.76017
4.14773
3.70219
3.39928
3.20035
3.0733
31.6618
12.5752
9.2735
8.34163
8.07425
8.06909
8.19032
8.3474
8.35909
8.03285
7.34955
6.4764
5.61895
4.86714
4.25859
3.81079
3.50102
3.29491
3.16252
31.3922
12.5479
9.23232
8.291
8.02248
8.0202
8.14545
8.30776
8.33316
8.03653
7.39524
6.55885
5.72095
4.98128
4.37903
3.93033
3.61536
3.40335
3.26714
31.1256
12.5245
9.19491
8.24334
7.97258
7.97202
8.10004
8.26625
8.30449
8.03769
7.43934
6.64333
5.82876
5.10242
4.50877
4.0612
3.74321
3.52739
3.38864
30.8614
12.5045
9.16113
8.19857
7.92455
7.92457
8.05421
8.22307
8.27323
8.03611
7.48133
6.72769
5.94103
5.23121
4.64784
4.20415
3.88551
3.66793
3.52865
30.5992
12.4875
9.13082
8.15666
7.87839
7.87794
8.0081
8.17849
8.23961
8.0317
7.52076
6.81121
6.05629
5.36664
4.79628
4.35911
4.04284
3.82588
3.6888
30.3386
12.473
9.10382
8.11755
7.83415
7.83224
7.96191
8.13283
8.20396
8.02451
7.55732
6.89328
6.17352
5.50782
4.95395
4.52646
4.21517
4.00222
3.87083
30.0793
12.4607
9.07996
8.08119
7.79187
7.78758
7.91585
8.08647
8.16669
8.01471
7.59086
6.97341
6.29188
5.65462
5.12051
4.70589
4.40317
4.1982
4.07687
29.8209
12.4499
9.05903
8.04752
7.7516
7.74413
7.87019
8.03983
8.12832
8.00269
7.62144
7.05132
6.41087
5.80616
5.29616
4.89761
4.60781
4.4156
4.30988
29.5633
12.4403
9.04077
8.01647
7.7134
7.70205
7.82524
7.9934
8.08947
7.98899
7.64938
7.12708
6.53122
5.96301
5.48041
5.10262
4.83087
4.65731
4.57453
29.3062
12.431
9.0249
7.98795
7.67732
7.66153
7.7813
7.94772
8.05087
7.97438
7.6753
7.20119
6.65278
6.12607
5.67473
5.32299
5.07551
4.92823
4.87916
29.0494
12.4215
9.01105
7.96182
7.64339
7.62275
7.73875
7.90338
8.01336
7.95981
7.70019
7.27534
6.77788
6.29606
5.88149
5.56222
5.34689
5.23618
5.23568
28.7929
12.411
8.99882
7.93791
7.61164
7.58588
7.69794
7.86099
7.97783
7.94647
7.72545
7.35084
6.90882
6.47589
6.10449
5.82578
5.65318
5.59446
5.67246
28.5365
12.3987
8.98772
7.916
7.58203
7.55106
7.6592
7.82122
7.94528
7.93569
7.7531
7.43111
7.04839
6.66968
6.34935
6.12184
6.00695
6.02417
6.22693
28.2803
12.3837
8.9772
7.89581
7.55446
7.51838
7.62284
7.78465
7.91666
7.92893
7.78534
7.52047
7.20034
6.88294
6.62396
6.46253
6.42833
6.56539
6.92856
28.0244
12.3651
8.96664
7.877
7.5288
7.48785
7.5892
7.75191
7.89291
7.92769
7.82421
7.62166
7.36971
7.1232
6.93934
6.86589
6.95044
7.30198
7.8629
27.7688
12.3418
8.95537
7.85918
7.50482
7.45942
7.55851
7.72346
7.87487
7.93353
7.8735
7.73784
7.56172
7.39864
7.31052
7.35861
7.62358
8.26087
9.08313
27.5138
12.3131
8.94267
7.84185
7.48223
7.43297
7.53086
7.69963
7.86322
7.94778
7.9371
7.87256
7.78202
7.71962
7.75755
7.98271
8.59142
9.5715
10.6506
27.2597
12.2779
8.92778
7.82449
7.46064
7.40827
7.50617
7.68051
7.85834
7.97124
8.0158
8.02876
8.03632
8.09845
8.30491
8.77978
9.82286
11.2428
12.5172
27.0067
12.2355
8.90996
7.80651
7.4396
7.38503
7.4842
7.66595
7.86021
8.00412
8.10952
8.20801
8.32956
8.5477
8.98261
9.85423
11.4326
13.2167
14.5359
26.7553
12.1849
8.8885
7.78732
7.41863
7.36281
7.46457
7.65549
7.86834
8.04594
8.21708
8.40985
8.66361
9.07333
9.80093
11.179
13.3416
15.1279
16.5384
26.5059
12.1257
8.8628
7.76636
7.3972
7.34115
7.4467
7.64839
7.88175
8.09528
8.3356
8.63033
9.0324
9.66192
10.7213
12.5999
15.1829
16.5183
18.7334
26.2593
12.0568
8.83242
7.74324
7.37494
7.31962
7.42997
7.64357
7.89868
8.1493
8.45939
8.85937
9.41563
10.2691
11.6522
13.9289
16.498
17.5431
21.562
26.0667
11.9968
8.80471
7.72285
7.35606
7.30195
7.41675
7.64061
7.914
8.19541
8.56168
9.04767
9.72739
10.7523
12.3886
14.8377
17.3368
18.8933
24.2078
25.8764
11.9325
8.77393
7.70074
7.33627
7.28391
7.40354
7.63785
7.92954
8.24099
8.65972
9.22338
10.0017
11.1304
12.8597
15.1426
17.8302
19.3113
17.8544
25.6882
11.8639
8.73979
7.67645
7.31503
7.2649
7.38967
7.63459
7.94454
8.28528
8.75206
9.38089
10.222
11.3647
12.9616
14.8971
17.6597
17.9273
17.5062
17.0661
15.9717
15.6128
15.5962
15.7204
15.9058
16.1088
16.3066
16.4864
16.641
16.7649
16.8529
16.8981
16.8892
16.8055
16.6062
16.2109
15.4802
14.3061
12.2616
5.40694
6.93546
6.19714
6.10546
6.11061
6.15323
6.21117
6.28114
6.36455
6.46344
6.5803
6.71824
6.88128
7.07481
7.30581
7.58283
7.91436
8.30135
8.71182
9.04975
9.10926
8.34055
5.09502
4.75904
4.67489
4.67141
4.71399
4.78268
4.87307
4.98441
5.11749
5.27409
5.45701
5.67038
5.92023
6.21549
6.56956
7.00198
7.53856
8.20449
9.00493
9.87725
10.1397
4.39127
4.15955
4.08803
4.08912
4.13153
4.19853
4.28696
4.39707
4.52911
4.68446
4.86576
5.07725
5.32551
5.62074
5.97893
6.42517
6.99784
7.75168
8.76454
10.0985
11.4347
3.94316
3.77199
3.70971
3.70708
3.7403
3.80036
3.88086
3.98285
4.1064
4.25271
4.4243
4.62544
4.86286
5.1473
5.49603
5.93723
6.51696
7.31158
8.44599
10.0888
12.4188
3.62809
3.47751
3.41683
3.40807
3.43284
3.48463
3.55749
3.65149
3.7666
3.90384
4.0656
4.256
4.48172
4.75351
5.0889
5.51714
6.08851
6.89347
8.08585
9.96065
13.2173
3.38042
3.2409
3.1802
3.16504
3.18276
3.22755
3.29535
3.38324
3.49159
3.62129
3.77453
3.95523
4.16984
4.4289
4.74981
5.16204
5.71812
6.51366
7.73352
9.78
13.8963
3.1818
3.04892
2.98759
2.9679
2.98072
3.02069
3.08434
3.16767
3.27077
3.39434
3.54032
3.71238
3.91671
4.16355
4.47
4.86559
5.40321
6.18393
7.41484
9.5918
14.4931
3.02311
2.89405
2.83153
2.80916
2.819
2.85588
2.91625
2.99617
3.09514
3.21363
3.35334
3.51769
3.71254
3.94782
4.24032
4.61932
5.1383
5.90183
7.13442
9.41263
15.0274
2.89766
2.76956
2.70581
2.68229
2.69069
2.72572
2.78374
2.86108
2.95672
3.0709
3.20512
3.36251
3.54866
3.77311
4.0523
4.41532
4.91601
5.66161
6.89048
9.24864
15.5124
2.79892
2.66968
2.60538
2.58185
2.58993
2.62399
2.68039
2.7557
2.84857
2.95901
3.08835
3.23947
3.41762
3.63197
3.89861
4.2464
4.72946
5.45717
6.6791
9.10128
15.9576
2.72169
2.59038
2.52605
2.50323
2.51165
2.54535
2.6006
2.67425
2.7647
2.87184
2.99682
3.14228
3.31313
3.51814
3.77301
4.10641
4.57269
5.28298
6.49601
8.97002
16.3701
2.66198
2.52838
2.46425
2.44246
2.45156
2.4852
2.53958
2.61176
2.70004
2.80422
2.92529
3.06567
3.22991
3.42635
3.67028
3.99018
4.44063
5.13422
6.33727
8.85368
16.7556
2.61665
2.48083
2.41694
2.39619
2.40602
2.43968
2.49327
2.56405
2.6503
2.75178
2.86937
3.00525
3.16358
3.35223
3.58607
3.89339
4.32903
5.00684
6.19941
8.75086
17.1185
2.58347
2.44535
2.38154
2.36162
2.37198
2.40554
2.45829
2.52762
2.61191
2.71091
2.82542
2.95736
3.11051
3.29219
3.51679
3.81246
4.23436
4.89743
6.07949
8.66023
17.4626
2.56081
2.42017
2.35596
2.3364
2.34694
2.38013
2.43185
2.49962
2.58195
2.67864
2.79042
2.91901
3.06773
3.24328
3.45953
3.74449
4.15371
4.80316
5.975
8.58058
17.7911
2.54742
2.40385
2.33851
2.31867
2.32889
2.36131
2.41172
2.47776
2.55807
2.65256
2.76194
2.88774
3.0328
3.20312
3.41192
3.6871
4.08473
4.72171
5.88386
8.51086
18.1066
2.54222
2.39519
2.32784
2.30694
2.31623
2.34743
2.3962
2.46027
2.53845
2.63078
2.73804
2.86157
3.00374
3.16974
3.37204
3.63841
4.02549
4.65115
5.8043
8.45018
18.4115
2.54403
2.39308
2.32287
2.30007
2.30775
2.33723
2.38401
2.44583
2.5217
2.61185
2.71718
2.83891
2.97895
3.14159
3.33837
3.59688
3.97443
4.58987
5.73482
8.39774
18.7081
2.55179
2.39661
2.32271
2.29719
2.30259
2.32984
2.37423
2.43349
2.50684
2.59472
2.69819
2.81849
2.95715
3.11746
3.30973
3.56131
3.93027
4.53651
5.67413
8.35284
18.9982
2.56459
2.40497
2.32663
2.29766
2.30018
2.32468
2.36625
2.42264
2.49321
2.57862
2.68016
2.79929
2.93727
3.09638
3.28523
3.5307
3.89189
4.48989
5.62105
8.31484
19.2837
2.58136
2.41761
2.33424
2.30112
2.30009
2.32137
2.35974
2.41291
2.48036
2.56297
2.66236
2.78046
2.91835
3.07698
3.2636
3.50403
3.85821
4.44888
5.57456
8.28313
19.5664
2.60113
2.43421
2.3454
2.30725
2.30218
2.31981
2.3546
2.40417
2.46804
2.54738
2.64454
2.76164
2.8992
3.05755
3.2431
3.47998
3.82821
4.41252
5.53373
8.25717
19.8481
2.6241
2.45417
2.35971
2.31611
2.3065
2.32007
2.35083
2.39626
2.45606
2.53182
2.62622
2.74165
2.87877
3.03729
3.22263
3.45745
3.80116
4.38002
5.49785
8.23652
20.1303
2.65067
2.47726
2.37712
2.32776
2.31307
2.32199
2.34821
2.38898
2.44412
2.51558
2.60652
2.71987
2.85654
3.01576
3.20163
3.43588
3.7767
4.35083
5.46635
8.22087
20.415
2.68114
2.50382
2.39771
2.34211
2.32165
2.32519
2.34612
2.38158
2.43151
2.4982
2.58528
2.69624
2.83244
2.99287
3.18025
3.41504
3.75413
4.32455
5.43886
8.21013
20.7039
2.71607
2.53421
2.42164
2.35909
2.33199
2.32928
2.3442
2.37384
2.41828
2.47999
2.56296
2.6712
2.80675
2.9687
3.15849
3.39487
3.73328
4.30102
5.4152
8.20445
20.9989
2.75516
2.56906
2.44943
2.37899
2.34424
2.33443
2.34276
2.36632
2.40514
2.46176
2.54039
2.64551
2.78002
2.94352
3.13636
3.37535
3.71412
4.28018
5.39533
8.2043
21.3022
2.79697
2.60677
2.48034
2.40171
2.35874
2.34128
2.34262
2.35989
2.39302
2.44446
2.51855
2.62006
2.75291
2.91764
3.11389
3.35641
3.69659
4.26205
5.37935
8.21033
21.616
2.84116
2.64661
2.51353
2.42683
2.37547
2.35018
2.34449
2.35554
2.38309
2.42932
2.49842
2.59575
2.72614
2.8915
3.09119
3.33798
3.68066
4.24673
5.36746
8.22358
21.9431
2.88782
2.68887
2.54884
2.45411
2.39452
2.36149
2.34887
2.35376