/*--------------------------------*- C++ -*----------------------------------*\
| =========                 |                                                 |
| \\      /  F ield         | OpenFOAM: The Open Source CFD Toolbox           |
|  \\    /   O peration     | Version:  v2012                                 |
|   \\  /    A nd           | Website:  www.openfoam.com                      |
|    \\/     M anipulation  |                                                 |
\*---------------------------------------------------------------------------*/
FoamFile
{
    version     2.0;
    format      ascii;
    class       surfaceScalarField;
    location    "625";
    object      phi;
}
// * * * * * * * * * * * * * * * * * * * * * * * * * * * * * * * * * * * * * //

dimensions      [0 3 -1 0 0 0 0];
oriented        oriented;


internalField   nonuniform List<scalar> 
11870
(
-0.000198928
-2.99877e-08
0.000198958
-0.000198918
-9.87396e-09
-0.000198925
7.01544e-09
-0.000198946
2.05475e-08
-0.000198977
3.13474e-08
-0.000199017
3.97502e-08
-0.000199063
4.62524e-08
-0.000199115
5.14115e-08
-0.00019917
5.56998e-08
-0.00019923
5.9513e-08
-0.000199293
6.31753e-08
-0.00019936
6.69541e-08
-0.000199431
7.1055e-08
-0.000199507
7.55814e-08
-0.000199587
8.04637e-08
-0.000199672
8.53219e-08
-0.000199762
8.92649e-08
-0.000199854
9.23336e-08
-0.000199944
8.98697e-08
5.62448e-08
-0.000200169
-1.06278e-07
0.000200245
-0.000200113
-6.63401e-08
-0.000200072
-3.34411e-08
-0.000200044
-7.4126e-09
-0.000200025
1.25638e-08
-0.000200013
2.76268e-08
-0.000200006
3.89265e-08
-0.000200002
4.75328e-08
-0.000200001
5.43102e-08
-0.000200001
5.99703e-08
-0.000200003
6.5064e-08
-0.000200006
7.00128e-08
-0.00020001
7.51043e-08
-0.000200015
8.04313e-08
-0.00020002
8.57221e-08
-0.000200025
9.02221e-08
-0.000200029
9.30889e-08
-0.000200029
9.25854e-08
-0.000200018
7.90497e-08
3.78292e-08
-0.000200496
-1.9472e-07
0.000200584
-0.000200428
-1.33894e-07
-0.000200377
-8.51272e-08
-0.000200337
-4.7326e-08
-0.000200305
-1.90952e-08
-0.000200279
1.60003e-09
-0.000200257
1.66666e-08
-0.000200237
2.77096e-08
-0.000200219
3.59635e-08
-0.000200201
4.24229e-08
-0.000200184
4.78122e-08
-0.000200167
5.26535e-08
-0.000200149
5.72904e-08
-0.00020013
6.18878e-08
-0.000200111
6.61726e-08
-0.000200089
6.89717e-08
-0.000200066
7.00704e-08
-0.000200041
6.70373e-08
-0.000200015
5.33011e-08
2.26733e-08
-0.000200614
-2.86907e-07
0.000200706
-0.000200545
-2.03055e-07
-0.000200492
-1.38314e-07
-0.00020045
-8.93792e-08
-0.000200415
-5.39088e-08
-0.000200385
-2.86807e-08
-0.000200357
-1.09044e-08
-0.000200331
1.62411e-09
-0.000200305
1.04981e-08
-0.00020028
1.69526e-08
-0.000200254
2.18497e-08
-0.000200227
2.57951e-08
-0.000200199
2.91862e-08
-0.000200169
3.22211e-08
-0.000200138
3.47633e-08
-0.000200105
3.63147e-08
-0.000200072
3.66563e-08
-0.000200039
3.42398e-08
-0.000200012
2.62535e-08
1.06194e-08
-0.000200633
-3.77645e-07
0.000200724
-0.000200569
-2.67201e-07
-0.00020052
-1.8668e-07
-0.000200482
-1.27614e-07
-0.00020045
-8.6402e-08
-0.00020042
-5.8044e-08
-0.000200392
-3.87797e-08
-0.000200365
-2.57917e-08
-0.000200337
-1.71017e-08
-0.000200309
-1.13141e-08
-0.00020028
-7.48054e-09
-0.000200249
-4.93823e-09
-0.000200217
-3.24688e-09
-0.000200182
-2.12884e-09
-0.000200146
-1.3983e-09
-0.000200109
-9.12649e-10
-0.000200072
-5.76944e-10
-0.000200037
-3.44139e-10
-0.000200011
-1.79753e-10
-5.94924e-11
-0.000200579
-4.63308e-07
0.000200664
-0.000200527
-3.19256e-07
-0.000200489
-2.24185e-07
-0.00020046
-1.56783e-07
-0.000200434
-1.12065e-07
-0.00020041
-8.25093e-08
-0.000200385
-6.32581e-08
-0.00020036
-5.08854e-08
-0.000200334
-4.31353e-08
-0.000200307
-3.85302e-08
-0.000200279
-3.61098e-08
-0.000200248
-3.5208e-08
-0.000200216
-3.53721e-08
-0.000200182
-3.62714e-08
-0.000200146
-3.7425e-08
-0.000200109
-3.80563e-08
-0.000200072
-3.77545e-08
-0.000200037
-3.48911e-08
-0.000200011
-2.65855e-08
-1.07285e-08
-0.000200448
-5.4428e-07
0.000200529
-0.000200418
-3.48906e-07
-0.000200399
-2.43644e-07
-0.000200384
-1.71174e-07
-0.00020037
-1.26416e-07
-0.000200354
-9.82631e-08
-0.000200337
-8.0805e-08
-0.000200317
-7.01816e-08
-0.000200297
-6.404e-08
-0.000200274
-6.0972e-08
-0.00020025
-6.00371e-08
-0.000200225
-6.07137e-08
-0.000200197
-6.25816e-08
-0.000200168
-6.53388e-08
-0.000200137
-6.84421e-08
-0.000200105
-7.04692e-08
-0.000200072
-7.10113e-08
-0.000200039
-6.75911e-08
-0.000200012
-5.35527e-08
-2.27544e-08
-0.000200202
-6.23179e-07
0.000200281
-0.000200215
-3.36303e-07
-0.000200224
-2.34681e-07
-0.000200231
-1.63281e-07
-0.000200234
-1.24006e-07
-0.000200231
-1.00686e-07
-0.000200225
-8.70239e-08
-0.000200216
-7.92341e-08
-0.000200205
-7.52369e-08
-0.000200192
-7.38168e-08
-0.000200178
-7.41216e-08
-0.000200163
-7.59362e-08
-0.000200146
-7.89857e-08
-0.000200129
-8.29699e-08
-0.00020011
-8.7399e-08
-0.000200089
-9.132e-08
-0.000200066
-9.3777e-08
-0.000200041
-9.30237e-08
-0.000200015
-7.91781e-08
-3.78673e-08
-0.000199711
-6.51887e-07
0.00019974
-0.0001998
-2.47215e-07
-0.00019986
-1.75124e-07
-0.000199903
-1.20449e-07
-0.000199931
-9.53851e-08
-0.000199951
-8.10344e-08
-0.000199965
-7.31757e-08
-0.000199975
-6.90566e-08
-0.000199983
-6.73069e-08
-0.00019999
-6.71631e-08
-0.000199996
-6.81552e-08
-0.000200001
-7.0202e-08
-0.000200007
-7.31798e-08
-0.000200013
-7.69704e-08
-0.000200019
-8.13772e-08
-0.000200025
-8.59146e-08
-0.000200029
-8.96433e-08
-0.000200029
-9.25881e-08
-0.000200018
-8.98962e-08
-5.62547e-08
-0.00019822
0.000197568
-0.000198467
-0.000198642
-0.000198763
-0.000198858
-0.000198939
-0.000199012
-0.000199081
-0.000199149
-0.000199216
-0.000199284
-0.000199354
-0.000199427
-0.000199504
-0.000199586
-0.000199672
-0.000199761
-0.000199854
-0.000199944
-0.00017786
4.92267e-06
0.000172937
-0.000182133
4.27317e-06
-0.000185806
3.67307e-06
-0.000188923
3.11735e-06
-0.000191529
2.60591e-06
-0.000193669
2.13994e-06
-0.000195389
1.72009e-06
-0.000196736
1.34655e-06
-0.000197755
1.0191e-06
-0.000198492
7.37226e-07
-0.000198993
5.00302e-07
-0.0001993
3.07284e-07
-0.000199456
1.56148e-07
-0.000199499
4.34694e-08
-0.000199465
-3.45317e-08
-0.000199384
-8.10803e-08
-0.000199281
-1.03166e-07
-0.000199176
-1.04609e-07
-0.000199083
-9.26149e-08
-0.00019901
-7.3509e-08
-5.19048e-08
-0.000182077
9.50046e-06
0.0001775
-0.000186051
8.2465e-06
-0.000189449
7.07192e-06
-0.000192313
5.98045e-06
-0.000194683
4.9761e-06
-0.000196604
4.06143e-06
-0.000198122
3.23805e-06
-0.000199282
2.50649e-06
-0.000200129
1.86641e-06
-0.000200709
1.31693e-06
-0.000201066
8.56908e-07
-0.000201243
4.84463e-07
-0.000201282
1.95658e-07
-0.000201223
-1.58392e-08
-0.0002011
-1.58096e-07
-0.000200941
-2.39923e-07
-0.000200771
-2.72559e-07
-0.000200609
-2.67309e-07
-0.000200464
-2.3708e-07
-0.000200343
-1.94783e-07
-1.4949e-07
-0.000183562
1.3959e-05
0.000179103
-0.000187424
1.21093e-05
-0.000190724
1.03718e-05
-0.000193499
8.75515e-06
-0.000195789
7.26602e-06
-0.000197636
5.90896e-06
-0.000199085
4.68693e-06
-0.00020018
3.60109e-06
-0.000200965
2.6511e-06
-0.000201484
1.83593e-06
-0.000201781
1.15433e-06
-0.000201901
6.04493e-07
-0.000201886
1.80492e-07
-0.000201775
-1.26801e-07
-0.000201603
-3.2983e-07
-0.000201401
-4.41885e-07
-0.000201195
-4.7927e-07
-0.000201002
-4.60201e-07
-0.000200834
-4.04401e-07
-0.000200696
-3.33088e-07
-2.6103e-07
-0.000184476
1.83693e-05
0.000180066
-0.000188295
1.59283e-05
-0.000191555
1.36312e-05
-0.000194291
1.14913e-05
-0.000196543
9.51797e-06
-0.000198352
7.71792e-06
-0.000199761
6.09583e-06
-0.000200813
4.65355e-06
-0.000201553
3.39049e-06
-0.000202023
2.30608e-06
-0.000202267
1.39895e-06
-0.000202332
6.69099e-07
-0.000202261
1.0916e-07
-0.000202095
-2.92157e-07
-0.000201872
-5.52775e-07
-0.000201625
-6.89486e-07
-0.00020138
-7.23938e-07
-0.000201158
-6.81977e-07
-0.000200972
-5.90417e-07
-0.000200824
-4.81514e-07
-3.78558e-07
-0.000185153
2.27555e-05
0.000180767
-0.000188949
1.97245e-05
-0.000192187
1.68689e-05
-0.000194901
1.4206e-05
-0.000197131
1.1748e-05
-0.000198917
9.50334e-06
-0.000200299
7.47844e-06
-0.000201322
5.67619e-06
-0.000202027
4.09543e-06
-0.000202458
2.73699e-06
-0.000202656
1.59727e-06
-0.000202667
6.79512e-07
-0.000202537
-2.02718e-08
-0.000202314
-5.15118e-07
-0.000202036
-8.31431e-07
-0.000201737
-9.88253e-07
-0.00020145
-1.01065e-06
-0.000201197
-9.34828e-07
-0.000200994
-7.93869e-07
-0.000200841
-6.3446e-07
-4.958e-07
-0.00018548
2.71113e-05
0.000181124
-0.00018925
2.34941e-05
-0.000192466
2.00854e-05
-0.000195166
1.69059e-05
-0.000197387
1.39692e-05
-0.000199168
1.12836e-05
-0.000200545
8.85594e-06
-0.000201562
6.69319e-06
-0.000202263
4.7961e-06
-0.000202685
3.15964e-06
-0.000202869
1.78125e-06
-0.000202851
6.61629e-07
-0.000202679
-1.93175e-07
-0.00020241
-7.8339e-07
-0.000202086
-1.15534e-06
-0.000201742
-1.33309e-06
-0.000201416
-1.33571e-06
-0.000201135
-1.21662e-06
-0.000200918
-1.01101e-06
-0.000200772
-7.80325e-07
-6.02989e-07
-0.000185061
3.13789e-05
0.000180793
-0.000188755
2.7188e-05
-0.000191914
2.32452e-05
-0.000194582
1.95731e-05
-0.000196797
1.61844e-05
-0.000198598
1.30846e-05
-0.000200016
1.02745e-05
-0.000201078
7.75455e-06
-0.000201826
5.54409e-06
-0.00020231
3.64424e-06
-0.000202559
2.03017e-06
-0.000202601
7.03021e-07
-0.000202472
-3.2149e-07
-0.000202212
-1.0438e-06
-0.000201888
-1.47952e-06
-0.000201546
-1.67475e-06
-0.000201216
-1.66558e-06
-0.000200928
-1.50485e-06
-0.000200714
-1.22447e-06
-0.000200607
-8.8737e-07
-6.81522e-07
-0.000183082
3.53818e-05
0.000179079
-0.000186534
3.06396e-05
-0.00018949
2.6202e-05
-0.000192009
2.20913e-05
-0.00019414
1.83159e-05
-0.000195929
1.48731e-05
-0.000197407
1.17533e-05
-0.000198609
8.95589e-06
-0.000199557
6.49227e-06
-0.00020026
4.34769e-06
-0.000200738
2.50773e-06
-0.000201013
9.78198e-07
-0.000201102
-2.32495e-07
-0.000201052
-1.09374e-06
-0.000200944
-1.58802e-06
-0.000200784
-1.83444e-06
-0.000200593
-1.85615e-06
-0.00020041
-1.68825e-06
-0.000200276
-1.35872e-06
-0.000200276
-8.87039e-07
-6.76669e-07
-0.00017807
3.86905e-05
0.000174762
-0.00018084
3.34092e-05
-0.000183159
2.85209e-05
-0.000185115
2.40472e-05
-0.000186789
1.99905e-05
-0.000188255
1.6339e-05
-0.000189575
1.3073e-05
-0.000190796
1.01764e-05
-0.000191939
7.63614e-06
-0.000193019
5.42694e-06
-0.000194026
3.51478e-06
-0.000194944
1.89695e-06
-0.000195755
5.78406e-07
-0.000196488
-3.61489e-07
-0.000197176
-8.99403e-07
-0.000197777
-1.23353e-06
-0.000198267
-1.36591e-06
-0.000198683
-1.27268e-06
-0.000198991
-1.05043e-06
-0.000199222
-6.56363e-07
-1.58651e-07
-0.000167956
0.000166139
4.05068e-05
-0.000169175
3.46287e-05
-0.000169915
2.92607e-05
-0.000170288
2.44205e-05
-0.000170402
2.01037e-05
-0.000170355
1.62929e-05
-0.000170248
1.29658e-05
-0.000170177
1.01048e-05
-0.000170241
7.70078e-06
-0.000170586
5.77216e-06
-0.000171282
4.20988e-06
-0.000172374
2.98895e-06
-0.000173902
2.10673e-06
-0.000175887
1.62326e-06
-0.000178306
1.52011e-06
-0.000181104
1.56399e-06
-0.000184145
1.6753e-06
-0.000187307
1.88954e-06
-0.000190285
1.92778e-06
-0.000192628
1.68594e-06
4.78179e-06
7.37156e-06
-7.37157e-06
8.98526e-06
-1.61371e-06
5.94344e-06
3.04181e-06
-4.12023e-07
6.35545e-06
-1.12269e-05
1.08148e-05
-2.68524e-05
1.56255e-05
-4.454e-05
1.76876e-05
-6.15434e-05
1.70034e-05
-7.70112e-05
1.54679e-05
-9.11201e-05
1.41089e-05
-0.000104022
1.29021e-05
-0.000115827
1.1805e-05
-0.000126618
1.07912e-05
-0.000136459
9.84062e-06
-0.000145399
8.93962e-06
-0.000153479
8.07987e-06
-0.000160736
7.25758e-06
-0.000167209
6.47295e-06
5.72805e-06
4.17775e-06
-1.15493e-05
1.88693e-06
6.77093e-07
-5.19223e-06
1.0121e-05
-1.75995e-05
1.87627e-05
-3.351e-05
2.67254e-05
-4.94747e-05
3.15901e-05
-6.39849e-05
3.21978e-05
-7.75064e-05
3.05249e-05
-9.04957e-05
2.84571e-05
-0.000102745
2.63587e-05
-0.00011418
2.43363e-05
-0.000124798
2.24231e-05
-0.000134613
2.0606e-05
-0.000143639
1.88672e-05
-0.000151892
1.71923e-05
-0.000159386
1.55736e-05
-0.000166138
1.40096e-05
-0.000172168
1.25036e-05
1.10592e-05
-1.25075e-06
-1.02986e-05
-7.89458e-06
7.32092e-06
-1.88508e-05
2.10771e-05
-3.29776e-05
3.28895e-05
-4.74945e-05
4.12423e-05
-6.06609e-05
4.47566e-05
-7.28676e-05
4.44045e-05
-8.47986e-05
4.2456e-05
-9.64269e-05
4.00854e-05
-0.000107596
3.75277e-05
-0.000118215
3.49553e-05
-0.000128219
3.24272e-05
-0.000137568
2.99546e-05
-0.000146235
2.75347e-05
-0.000154206
2.51633e-05
-0.000161474
2.28411e-05
-0.000168039
2.05746e-05
-0.00017391
1.83746e-05
1.62528e-05
-6.73489e-06
-3.56372e-06
-1.67532e-05
1.73392e-05
-2.94643e-05
3.37883e-05
-4.30249e-05
4.64501e-05
-5.55675e-05
5.37849e-05
-6.69528e-05
5.61419e-05
-7.79954e-05
5.5447e-05
-8.90092e-05
5.34698e-05
-9.98439e-05
5.09201e-05
-0.000110377
4.80611e-05
-0.000120505
4.50826e-05
-0.000130138
4.20604e-05
-0.000139211
3.90277e-05
-0.000147675
3.59987e-05
-0.000155495
3.29836e-05
-0.00016265
2.99955e-05
-0.000169128
2.70525e-05
-0.000174929
2.41762e-05
2.13895e-05
-1.08379e-05
7.27415e-06
-2.315e-05
2.96513e-05
-3.63377e-05
4.69761e-05
-4.88915e-05
5.90039e-05
-6.01599e-05
6.50532e-05
-7.07184e-05
6.67005e-05
-8.11944e-05
6.59229e-05
-9.1671e-05
6.39465e-05
-0.00010203
6.12787e-05
-0.00011217
5.8201e-05
-0.000121984
5.48973e-05
-0.000131381
5.14568e-05
-0.000140281
4.79282e-05
-0.000148623
4.43408e-05
-0.000156359
4.07192e-05
-0.000163454
3.70907e-05
-0.000169889
3.34874e-05
-0.000175657
2.99448e-05
2.64988e-05
-1.35309e-05
2.0805e-05
-2.71796e-05
4.33e-05
-4.02615e-05
6.00579e-05
-5.20287e-05
7.07711e-05
-6.2683e-05
7.57075e-05
-7.29228e-05
7.69403e-05
-8.31248e-05
7.61249e-05
-9.33e-05
7.41217e-05
-0.000103376
7.13545e-05
-0.00011327
6.8095e-05
-0.000122885
6.45128e-05
-0.00013213
6.07018e-05
-0.000140921
5.67192e-05
-0.000149186
5.26054e-05
-0.000156865
4.83988e-05
-0.000163917
4.41423e-05
-0.000170314
3.98847e-05
-0.000176048
3.56784e-05
3.1575e-05
-1.51212e-05
3.59262e-05
-2.9322e-05
5.75007e-05
-4.21231e-05
7.28591e-05
-5.34523e-05
8.21004e-05
-6.38956e-05
8.61507e-05
-7.40425e-05
8.70873e-05
-8.4116e-05
8.61984e-05
-9.41265e-05
8.41322e-05
-0.000104034
8.12622e-05
-0.000113773
7.78336e-05
-0.000123256
7.39964e-05
-0.000132394
6.98398e-05
-0.000141098
6.54226e-05
-0.000149286
6.07932e-05
-0.00015689
5.60034e-05
-0.000163862
5.11141e-05
-0.000170172
4.61947e-05
-0.000175812
4.13185e-05
3.6556e-05
-1.60128e-05
5.1939e-05
-3.01576e-05
7.16456e-05
-4.26587e-05
8.53601e-05
-5.37915e-05
9.32332e-05
-6.42066e-05
9.65659e-05
-7.43429e-05
9.72236e-05
-8.43543e-05
9.62098e-05
-9.42689e-05
9.40467e-05
-0.000104067
9.10599e-05
-0.000113692
8.7459e-05
-0.000123065
8.33693e-05
-0.000132092
7.88666e-05
-0.000140675
7.40055e-05
-0.000148722
6.88403e-05
-0.000156156
6.34378e-05
-0.000162924
5.78813e-05
-0.000168996
5.22669e-05
-0.000174373
4.66955e-05
4.12621e-05
-1.61904e-05
6.81294e-05
-3.01111e-05
8.55663e-05
-4.23657e-05
9.76147e-05
-5.34126e-05
0.00010428
-6.38475e-05
0.000107001
-7.39849e-05
0.000107361
-8.39516e-05
0.000106176
-9.37898e-05
0.000103885
-0.000103489
0.000100759
-0.000112996
9.69661e-05
-0.000122226
9.25998e-05
-0.000131075
8.77147e-05
-0.000139426
8.23564e-05
-0.000147169
7.65842e-05
-0.000154215
7.04836e-05
-0.000160502
6.41683e-05
-0.000166007
5.77719e-05
-0.000170744
5.14329e-05
4.52795e-05
-1.58198e-05
8.39493e-05
-2.9481e-05
9.92274e-05
-4.15442e-05
0.000109678
-5.25304e-05
0.000115266
-6.2962e-05
0.000117432
-7.30734e-05
0.000117472
-8.29768e-05
0.00011608
-9.27185e-05
0.000113627
-0.000102287
0.000110327
-0.000111619
0.000106298
-0.000120611
0.000101592
-0.000129131
9.62346e-05
-0.000137032
9.02567e-05
-0.000144171
8.3724e-05
-0.000150437
7.67489e-05
-0.000155758
6.94893e-05
-0.000160118
6.21318e-05
-0.000163552
5.48673e-05
4.78667e-05
-0.000160369
3.98703e-05
0.000161005
-0.000158983
3.32427e-05
-0.000156973
2.72504e-05
-0.000154435
2.18828e-05
-0.000151435
1.71042e-05
-0.00014801
1.28675e-05
-0.000144166
9.1215e-06
-0.000139877
5.81589e-06
-0.000135091
2.91508e-06
-0.000129758
4.38983e-07
-0.000123828
-1.72031e-06
-0.000117234
-3.60481e-06
-0.000109946
-5.18096e-06
-0.000101908
-6.41549e-06
-9.30111e-05
-7.37631e-06
-8.30942e-05
-8.35294e-06
-7.20136e-05
-9.40533e-06
-6.02081e-05
-9.91595e-06
-4.79592e-05
-1.03211e-05
-3.17704e-05
-1.45028e-05
-2.69887e-05
-0.000136232
3.64924e-05
0.00013961
-0.000132205
2.92158e-05
-0.000127679
2.2724e-05
-0.000122758
1.69624e-05
-0.00011751
1.18563e-05
-0.000111972
7.32912e-06
-0.000106163
3.31251e-06
-0.000100092
-2.5565e-07
-9.37638e-05
-3.41264e-06
-8.7155e-05
-6.16982e-06
-8.02125e-05
-8.66278e-06
-7.28712e-05
-1.09461e-05
-6.5109e-05
-1.29432e-05
-5.67826e-05
-1.47418e-05
-4.76081e-05
-1.65508e-05
-3.75735e-05
-1.83875e-05
-2.70608e-05
-1.9918e-05
-1.63119e-05
-2.06649e-05
-5.38628e-06
-2.12467e-05
2.99764e-06
-2.28867e-05
-2.3991e-05
-0.000111185
3.14784e-05
0.000116199
-0.000105988
2.4019e-05
-0.000100792
1.75279e-05
-9.57226e-05
1.18932e-05
-9.08576e-05
6.99122e-06
-8.62268e-05
2.69837e-06
-8.1808e-05
-1.10626e-06
-7.75096e-05
-4.55412e-06
-7.31736e-05
-7.74861e-06
-6.85767e-05
-1.07667e-05
-6.3605e-05
-1.36345e-05
-5.82324e-05
-1.63188e-05
-5.23584e-05
-1.88172e-05
-4.59103e-05
-2.11899e-05
-3.89707e-05
-2.34904e-05
-3.1699e-05
-2.56593e-05
-2.4166e-05
-2.7451e-05
-1.61662e-05
-2.86647e-05
-8.00429e-06
-2.94086e-05
-1.56457e-06
-2.93265e-05
-2.55556e-05
-9.02184e-05
2.67063e-05
9.49905e-05
-8.59731e-05
1.97736e-05
-8.23616e-05
1.39165e-05
-7.93626e-05
8.89414e-06
-7.68372e-05
4.46586e-06
-7.45624e-05
4.23497e-07
-7.22804e-05
-3.38818e-06
-6.97801e-05
-7.05447e-06
-6.69195e-05
-1.06092e-05
-6.3613e-05
-1.40732e-05
-5.98173e-05
-1.74301e-05
-5.54748e-05
-2.06613e-05
-5.05368e-05
-2.37552e-05
-4.50162e-05
-2.67106e-05
-3.89759e-05
-2.95307e-05
-3.2472e-05
-3.21632e-05
-2.55546e-05
-3.43684e-05
-1.82662e-05
-3.59531e-05
-1.09482e-05
-3.67266e-05
-4.48706e-06
-3.57876e-05
-3.00427e-05
-7.61392e-05
2.37694e-05
7.90761e-05
-7.41117e-05
1.77461e-05
-7.2777e-05
1.25818e-05
-7.18163e-05
7.93339e-06
-7.09124e-05
3.56197e-06
-6.98219e-05
-6.66995e-07
-6.83955e-05
-4.8146e-06
-6.65511e-05
-8.89887e-06
-6.42297e-05
-1.29306e-05
-6.13945e-05
-1.69084e-05
-5.8013e-05
-2.08117e-05
-5.40571e-05
-2.46171e-05
-4.95108e-05
-2.83016e-05
-4.43843e-05
-3.18371e-05
-3.87344e-05
-3.51805e-05
-3.26564e-05
-3.82412e-05
-2.62023e-05
-4.08225e-05
-1.94377e-05
-4.27177e-05
-1.25584e-05
-4.36059e-05
-5.95846e-06
-4.23876e-05
-3.60011e-05
-6.80848e-05
2.29125e-05
6.89417e-05
-6.78524e-05
1.75138e-05
-6.78467e-05
1.2576e-05
-6.776e-05
7.8467e-06
-6.74043e-05
3.20626e-06
-6.66795e-05
-1.39178e-06
-6.55309e-05
-5.96324e-06
-6.39194e-05
-1.05103e-05
-6.18155e-05
-1.50344e-05
-5.91983e-05
-1.95256e-05
-5.60479e-05
-2.39621e-05
-5.23489e-05
-2.83161e-05
-4.80951e-05
-3.25554e-05
-4.32998e-05
-3.66324e-05
-3.8013e-05
-4.04674e-05
-3.23192e-05
-4.39349e-05
-2.62612e-05
-4.68805e-05
-1.98907e-05
-4.90883e-05
-1.33181e-05
-5.01785e-05
-6.67035e-06
-4.90353e-05
-4.26715e-05
-6.33101e-05
2.33649e-05
6.28577e-05
-6.39021e-05
1.81058e-05
-6.43506e-05
1.30245e-05
-6.45075e-05
8.00362e-06
-6.43025e-05
3.00127e-06
-6.36971e-05
-1.99723e-06
-6.26628e-05
-6.99754e-06
-6.11745e-05
-1.19986e-05
-5.92125e-05
-1.69964e-05
-5.67608e-05
-2.19773e-05
-5.38053e-05
-2.69175e-05
-5.03369e-05
-3.17846e-05
-4.63558e-05
-3.65365e-05
-4.18748e-05
-4.11133e-05
-3.69256e-05
-4.54166e-05
-3.15702e-05
-4.92904e-05
-2.5854e-05
-5.25966e-05
-1.981e-05
-5.51323e-05
-1.35015e-05
-5.6487e-05
-6.92316e-06
-5.56136e-05
-4.95946e-05
-5.97498e-05
2.43529e-05
5.87618e-05
-6.05806e-05
1.89365e-05
-6.11253e-05
1.35692e-05
-6.13294e-05
8.20776e-06
-6.11647e-05
2.83653e-06
-6.06099e-05
-2.55203e-06
-5.96458e-05
-7.96158e-06
-5.82543e-05
-1.33902e-05
-5.64189e-05
-1.88317e-05
-5.41248e-05
-2.42714e-05
-5.13589e-05
-2.96834e-05
-4.81135e-05
-3.503e-05
-4.43895e-05
-4.02605e-05
-4.01983e-05
-4.53045e-05
-3.55604e-05
-5.00545e-05
-3.0515e-05
-5.43357e-05
-2.5106e-05
-5.80057e-05
-1.93592e-05
-6.08791e-05
-1.33074e-05
-6.25388e-05
-6.8977e-06
-6.20233e-05
-5.64923e-05
-5.65065e-05
2.5468e-05
5.53915e-05
-5.73542e-05
1.97841e-05
-5.78864e-05
1.41015e-05
-5.80815e-05
8.40283e-06
-5.79241e-05
2.6791e-06
-5.74002e-05
-3.0759e-06
-5.64959e-05
-8.8659e-06
-5.51962e-05
-1.46898e-05
-5.34858e-05
-2.05421e-05
-5.13491e-05
-2.64082e-05
-4.87715e-05
-3.2261e-05
-4.57432e-05
-3.80583e-05
-4.22633e-05
-4.37404e-05
-3.83416e-05
-4.92262e-05
-3.39955e-05
-5.44006e-05
-2.92419e-05
-5.90894e-05
-2.41174e-05
-6.31302e-05
-1.8655e-05
-6.63415e-05
-1.28705e-05
-6.83232e-05
-6.70272e-06
-6.81911e-05
-6.3195e-05
-5.33077e-05
2.65538e-05
5.22219e-05
-5.41033e-05
2.05797e-05
-5.45903e-05
1.45885e-05
-5.47581e-05
8.57061e-06
-5.45975e-05
2.51854e-06
-5.40992e-05
-3.57418e-06
-5.32525e-05
-9.71268e-06
-5.2044e-05
-1.58983e-05
-5.04585e-05
-2.21276e-05
-4.84791e-05
-2.83876e-05
-4.60891e-05
-3.46511e-05
-4.32747e-05
-4.08726e-05
-4.00303e-05
-4.69848e-05
-3.63623e-05
-5.28942e-05
-3.22873e-05
-5.84756e-05
-2.78132e-05
-6.35634e-05
-2.29658e-05
-6.79776e-05
-1.77847e-05
-7.15227e-05
-1.22819e-05
-7.3826e-05
-6.40569e-06
-7.40673e-05
-6.96007e-05
-5.00984e-05
2.75596e-05
4.90926e-05
-5.08205e-05
2.13018e-05
-5.12513e-05
1.50193e-05
-5.13856e-05
8.70492e-06
-5.12186e-05
2.35159e-06
-5.07443e-05
-4.0485e-06
-4.99539e-05
-1.0503e-05
-4.88354e-05
-1.70168e-05
-4.73734e-05
-2.35896e-05
-4.55498e-05
-3.02112e-05
-4.33454e-05
-3.68555e-05
-4.07427e-05
-4.34753e-05
-3.77305e-05
-4.9997e-05
-3.43079e-05
-5.63168e-05
-3.04863e-05
-6.22972e-05
-2.62791e-05
-6.77707e-05
-2.17074e-05
-7.25493e-05
-1.68101e-05
-7.642e-05
-1.16025e-05
-7.90336e-05
-6.04907e-06
-7.96207e-05
-7.56498e-05
-4.68842e-05
2.84698e-05
4.5974e-05
-4.7526e-05
2.19435e-05
-4.7897e-05
1.53903e-05
-4.79961e-05
8.80402e-06
-4.78217e-05
2.17719e-06
-4.73701e-05
-4.50011e-06
-4.66342e-05
-1.12389e-05
-4.5603e-05
-1.8048e-05
-4.42612e-05
-2.49315e-05
-4.25895e-05
-3.18828e-05
-4.05667e-05
-3.88783e-05
-3.81715e-05
-4.58704e-05
-3.53874e-05
-5.27812e-05
-3.22067e-05
-5.94975e-05
-2.86339e-05
-6.587e-05
-2.4685e-05
-7.17196e-05
-2.03861e-05
-7.68482e-05
-1.57748e-05
-8.10313e-05
-1.08723e-05
-8.39361e-05
-5.65974e-06
-8.48333e-05
-8.13095e-05
-4.3685e-05
2.92803e-05
4.28744e-05
-4.42451e-05
2.25037e-05
-4.45561e-05
1.57013e-05
-4.462e-05
8.86789e-06
-4.44376e-05
1.99476e-06
-4.40071e-05
-4.93062e-06
-4.33229e-05
-1.1923e-05
-4.2375e-05
-1.89959e-05
-4.11482e-05
-2.61583e-05
-3.9623e-05
-3.34081e-05
-3.77759e-05
-4.07254e-05
-3.55826e-05
-4.80637e-05
-3.30214e-05
-5.53424e-05
-3.00786e-05
-6.24403e-05
-2.67536e-05
-6.91951e-05
-2.30614e-05
-7.54118e-05
-1.9033e-05
-8.08765e-05
-1.47088e-05
-8.53556e-05
-1.01174e-05
-8.85275e-05
-5.25472e-06
-8.96959e-05
-8.65643e-05
-4.05227e-05
2.99917e-05
3.98114e-05
-4.10024e-05
2.29834e-05
-4.12547e-05
1.59536e-05
-4.12839e-05
8.89708e-06
-4.10929e-05
1.80371e-06
-4.06814e-05
-5.34207e-06
-4.00454e-05
-1.2559e-05
-3.91756e-05
-1.98657e-05
-3.80578e-05
-2.72762e-05
-3.66719e-05
-3.4794e-05
-3.49935e-05
-4.24038e-05
-3.29953e-05
-5.00619e-05
-3.06512e-05
-5.76864e-05
-2.79423e-05
-6.51492e-05
-2.4863e-05
-7.22744e-05
-2.14269e-05
-7.88479e-05
-1.76679e-05
-8.46355e-05
-1.36315e-05
-8.9392e-05
-9.35436e-06
-9.28046e-05
-4.84455e-06
-9.42057e-05
-9.14088e-05
-3.74175e-05
3.06063e-05
3.68029e-05
-3.78192e-05
2.3385e-05
-3.80145e-05
1.61489e-05
-3.80097e-05
8.8923e-06
-3.78093e-05
1.60328e-06
-3.74145e-05
-5.73688e-06
-3.68224e-05
-1.31511e-05
-3.60252e-05
-2.06629e-05
-3.50091e-05
-2.82922e-05
-3.37547e-05
-3.60484e-05
-3.22366e-05
-4.39219e-05
-3.04256e-05
-5.18729e-05
-2.82921e-05
-5.982e-05
-2.58122e-05
-6.76291e-05
-2.29758e-05
-7.51107e-05
-1.97946e-05
-8.20291e-05
-1.63041e-05
-8.8126e-05
-1.25554e-05
-9.31407e-05
-8.59334e-06
-9.67666e-05
-4.43562e-06
-9.83635e-05
-9.58444e-05
-3.4386e-05
3.11276e-05
3.38647e-05
-3.47125e-05
2.37115e-05
-3.48526e-05
1.62891e-05
-3.48144e-05
8.85408e-06
-3.46036e-05
1.39247e-06
-3.42228e-05
-6.11768e-06
-3.36704e-05
-1.37035e-05
-3.29396e-05
-2.13937e-05
-3.20179e-05
-2.92139e-05
-3.08862e-05
-3.71801e-05
-2.95193e-05
-4.52888e-05
-2.78865e-05
-5.35056e-05
-2.59558e-05
-6.17507e-05
-2.36991e-05
-6.98858e-05
-2.1102e-05
-7.77078e-05
-1.81734e-05
-8.49578e-05
-1.49499e-05
-9.13494e-05
-1.14881e-05
-9.66025e-05
-7.8402e-06
-0.000100415
-4.03152e-06
-0.000102172
-9.98759e-05
-3.1441e-05
3.15589e-05
3.10096e-05
-3.16949e-05
2.39655e-05
-3.17815e-05
1.63757e-05
-3.17101e-05
8.78267e-06
-3.14877e-05
1.17009e-06
-3.11182e-05
-6.48723e-06
-3.0601e-05
-1.42207e-05
-2.99307e-05
-2.20641e-05
-2.90956e-05
-3.0049e-05
-2.80778e-05
-3.81979e-05
-2.68522e-05
-4.65143e-05
-2.53881e-05
-5.49698e-05
-2.36513e-05
-6.34875e-05
-2.16107e-05
-7.19264e-05
-1.92479e-05
-8.00706e-05
-1.65688e-05
-8.76369e-05
-1.36102e-05
-9.4308e-05
-1.04334e-05
-9.97792e-05
-7.09783e-06
-0.00010375
-3.63402e-06
-0.000105636
-0.00010351
-2.85913e-05
3.19035e-05
2.82468e-05
-2.87749e-05
2.4149e-05
-2.8809e-05
1.64098e-05
-2.87042e-05
8.67789e-06
-2.84688e-05
9.34698e-07
-2.81077e-05
-6.84833e-06
-2.76215e-05
-1.47069e-05
-2.70057e-05
-2.26799e-05
-2.62499e-05
-3.08048e-05
-2.5337e-05
-3.91108e-05
-2.4243e-05
-4.76084e-05
-2.29371e-05
-5.62756e-05
-2.13846e-05
-6.50401e-05
-1.95519e-05
-7.37591e-05
-1.74174e-05
-8.22051e-05
-1.49835e-05
-9.00707e-05
-1.22869e-05
-9.70047e-05
-9.39287e-06
-0.000102673
-6.36703e-06
-0.000106776
-3.24361e-06
-0.000108759
-0.000106754
-2.58416e-05
3.21637e-05
2.55814e-05
-2.59563e-05
2.42636e-05
-2.59383e-05
1.63919e-05
-2.57997e-05
8.53922e-06
-2.55497e-05
6.84712e-07
-2.51943e-05
-7.20369e-06
-2.47351e-05
-1.51661e-05
-2.41684e-05
-2.32466e-05
-2.34847e-05
-3.14885e-05
-2.26682e-05
-3.99274e-05
-2.16958e-05
-4.85808e-05
-2.05377e-05
-5.74337e-05
-1.91591e-05
-6.64187e-05
-1.75252e-05
-7.53929e-05
-1.56117e-05
-8.41187e-05
-1.34181e-05
-9.22643e-05
-1.09799e-05
-9.94428e-05
-8.36573e-06
-0.000105287
-5.64707e-06
-0.000109495
-2.85999e-06
-0.000111546
-0.000109614
-2.31913e-05
3.23417e-05
2.30133e-05
-2.32382e-05
2.43106e-05
-2.31685e-05
1.63222e-05
-2.29953e-05
8.36601e-06
-2.27292e-05
4.18611e-07
-2.23771e-05
-7.55578e-06
-2.19413e-05
-1.56019e-05
-2.14187e-05
-2.37692e-05
-2.08006e-05
-3.21066e-05
-2.00721e-05
-4.06558e-05
-1.92117e-05
-4.94412e-05
-1.81907e-05
-5.84546e-05
-1.69754e-05
-6.76341e-05
-1.55305e-05
-7.68377e-05
-1.383e-05
-8.58193e-05
-1.18707e-05
-9.42236e-05
-9.68695e-06
-0.000101627
-7.34975e-06
-0.000107625
-4.936e-06
-0.000111908
-2.48236e-06
-0.000114
-0.000112096
-2.06332e-05
3.2441e-05
2.05339e-05
-2.06148e-05
2.42922e-05
-2.04943e-05
1.62017e-05
-2.02864e-05
8.1581e-06
-2.00031e-05
1.35317e-07
-1.96522e-05
-7.90662e-06
-1.92367e-05
-1.60175e-05
-1.87537e-05
-2.42522e-05
-1.81951e-05
-3.26652e-05
-1.75469e-05
-4.1304e-05
-1.67889e-05
-5.01991e-05
-1.58947e-05
-5.93489e-05
-1.48316e-05
-6.86971e-05
-1.35655e-05
-7.81038e-05
-1.20692e-05
-8.73155e-05
-1.03379e-05
-9.5955e-05
-8.4043e-06
-0.00010356
-6.3412e-06
-0.000109688
-4.23072e-06
-0.000114019
-2.10977e-06
-0.000116121
-0.000114206
-1.81511e-05
3.24718e-05
1.81202e-05
-1.80741e-05
2.42152e-05
-1.79062e-05
1.60337e-05
-1.76649e-05
7.91688e-06
-1.73643e-05
-1.65272e-07
-1.70135e-05
-8.25745e-06
-1.66158e-05
-1.64152e-05
-1.61684e-05
-2.46995e-05
-1.56635e-05
-3.31701e-05
-1.5088e-05
-4.18796e-05
-1.44233e-05
-5.08638e-05
-1.36451e-05
-6.01271e-05
-1.27234e-05
-6.96189e-05
-1.16255e-05
-7.92018e-05
-1.03243e-05
-8.86167e-05
-8.81407e-06
-9.74652e-05
-7.1264e-06
-0.000105248
-5.33503e-06
-0.000111479
-3.52715e-06
-0.000115827
-1.74239e-06
-0.000117906
-0.000115948
-1.57266e-05
3.24392e-05
1.57592e-05
-1.56001e-05
2.40887e-05
-1.53925e-05
1.58262e-05
-1.51216e-05
7.64597e-06
-1.48049e-05
-4.81954e-07
-1.44536e-05
-8.60877e-06
-1.40717e-05
-1.67972e-05
-1.36562e-05
-2.51149e-05
-1.31993e-05
-3.36271e-05
-1.26887e-05
-4.23902e-05
-1.2108e-05
-5.14445e-05
-1.14354e-05
-6.07996e-05
-1.06439e-05
-7.04104e-05
-9.70335e-06
-8.01423e-05
-8.58805e-06
-8.9732e-05
-7.29188e-06
-9.87614e-05
-5.84603e-06
-0.000106694
-4.32481e-06
-0.000113
-2.82014e-06
-0.000117331
-1.37522e-06
-0.000119351
-0.000117323
-1.33641e-05
3.23371e-05
1.34662e-05
-1.31858e-05
2.39104e-05
-1.29431e-05
1.55835e-05
-1.26481e-05
7.35094e-06
-1.23174e-05
-8.12651e-07
-1.19653e-05
-8.96078e-06
-1.15971e-05
-1.71654e-05
-1.12095e-05
-2.55025e-05
-1.07943e-05
-3.40423e-05
-1.03406e-05
-4.28439e-05
-9.83417e-06
-5.1951e-05
-9.25645e-06
-6.13774e-05
-8.58396e-06
-7.10828e-05
-7.7899e-06
-8.09364e-05
-6.85096e-06
-9.06709e-05
-5.76198e-06
-9.98504e-05
-4.55438e-06
-0.000107901
-3.30262e-06
-0.000114252
-2.10309e-06
-0.000118531
-1.00552e-06
-0.000120448
-0.000118329
-1.10841e-05
3.21643e-05
1.12568e-05
-1.08467e-05
2.36731e-05
-1.0561e-05
1.52977e-05
-1.02404e-05
7.03033e-06
-9.89688e-06
-1.15613e-06
-9.54314e-06
-9.31452e-06
-9.18549e-06
-1.7523e-05
-8.82029e-06
-2.58677e-05
-8.43937e-06
-3.44232e-05
-8.03332e-06
-4.32499e-05
-7.59078e-06
-5.23935e-05
-7.09679e-06
-6.18713e-05
-6.53191e-06
-7.16477e-05
-5.87341e-06
-8.15949e-05
-5.10141e-06
-9.14429e-05
-4.21306e-06
-0.000100739
-3.24126e-06
-0.000108873
-2.26003e-06
-0.000115233
-1.36752e-06
-0.000119423
-6.18018e-07
-0.000121198
-0.000118947
-8.89463e-06
3.19256e-05
9.13342e-06
-8.59994e-06
2.33784e-05
-8.2651e-06
1.49629e-05
-7.90771e-06
6.67295e-06
-7.5441e-06
-1.51973e-06
-7.18406e-06
-9.67456e-06
-6.83086e-06
-1.78762e-05
-6.48011e-06
-2.62185e-05
-6.12379e-06
-3.47795e-05
-5.75467e-06
-4.3619e-05
-5.36464e-06
-5.27836e-05
-4.94268e-06
-6.22933e-05
-4.47376e-06
-7.21166e-05
-3.93978e-06
-8.21289e-05
-3.32532e-06
-9.20574e-05
-2.63136e-06
-0.000101433
-1.89373e-06
-0.000109611
-1.18665e-06
-0.00011594
-6.11744e-07
-0.000119998
-2.17884e-07
-0.000121592
-0.000119165
-6.79276e-06
3.16249e-05
7.09343e-06
-6.4446e-06
2.30302e-05
-6.06245e-06
1.45807e-05
-5.66242e-06
6.27292e-06
-5.26538e-06
-1.91677e-06
-4.8866e-06
-1.00533e-05
-4.52711e-06
-1.82357e-05
-4.17922e-06
-2.65664e-05
-3.83501e-06
-3.51237e-05
-3.49021e-06
-4.39638e-05
-3.14019e-06
-5.31336e-05
-2.77794e-06
-6.26555e-05
-2.39298e-06
-7.25016e-05
-1.97237e-06
-8.25495e-05
-1.50625e-06
-9.25235e-05
-1.00091e-06
-0.000101938
-4.95709e-07
-0.000110116
-6.56347e-08
-0.00011637
1.79255e-07
-0.000120243
2.17301e-07
-0.00012163