/*--------------------------------*- C++ -*----------------------------------*\
| =========                 |                                                 |
| \\      /  F ield         | OpenFOAM: The Open Source CFD Toolbox           |
|  \\    /   O peration     | Version:  v2012                                 |
|   \\  /    A nd           | Website:  www.openfoam.com                      |
|    \\/     M anipulation  |                                                 |
\*---------------------------------------------------------------------------*/
FoamFile
{
    version     2.0;
    format      ascii;
    class       volVectorField;
    location    "625";
    object      U;
}
// * * * * * * * * * * * * * * * * * * * * * * * * * * * * * * * * * * * * * //

dimensions      [0 1 -1 0 0 0 0];


internalField   nonuniform List<vector> 
6057
(
(1.20266e-05 -0.994692 0)
(6.48706e-05 -0.994596 0)
(0.000107063 -0.994593 0)
(0.000138043 -0.994665 0)
(0.000164638 -0.994798 0)
(0.0001871 -0.994978 0)
(0.000205735 -0.995194 0)
(0.000221683 -0.995439 0)
(0.000236078 -0.995708 0)
(0.000249953 -0.995996 0)
(0.000264197 -0.996302 0)
(0.000279542 -0.996627 0)
(0.000296469 -0.996972 0)
(0.000315032 -0.997338 0)
(0.000334684 -0.997727 0)
(0.000353739 -0.998144 0)
(0.000367288 -0.998594 0)
(0.000363422 -0.999063 0)
(0.00029506 -0.999481 0)
(7.34606e-05 -0.999765 0)
(-0.00026876 -1.00101 0)
(-0.000149592 -1.00068 0)
(-4.90238e-05 -1.00045 0)
(3.23872e-05 -1.00028 0)
(9.56657e-05 -1.00017 0)
(0.000143876 -1.00009 0)
(0.000180593 -1.00004 0)
(0.000209135 -1.00002 0)
(0.000232285 -1 0)
(0.000252342 -1 0)
(0.000271153 -1.00001 0)
(0.000290177 -1.00002 0)
(0.000310411 -1.00004 0)
(0.000332254 -1.00006 0)
(0.000355411 -1.00009 0)
(0.000378125 -1.00011 0)
(0.000393468 -1.00014 0)
(0.000399686 -1.00015 0)
(0.0003539 -1.00013 0)
(0.000190735 -1.00003 0)
(-0.000594894 -1.00268 0)
(-0.000394672 -1.00229 0)
(-0.000231765 -1.002 0)
(-0.000104019 -1.00177 0)
(-7.23982e-06 -1.0016 0)
(6.47798e-05 -1.00146 0)
(0.000117926 -1.00134 0)
(0.000157573 -1.00123 0)
(0.000187984 -1.00114 0)
(0.000212544 -1.00105 0)
(0.000233815 -1.00096 0)
(0.000253708 -1.00088 0)
(0.000273568 -1.00079 0)
(0.000294014 -1.0007 0)
(0.000313248 -1.0006 0)
(0.000325277 -1.0005 0)
(0.000331724 -1.00039 0)
(0.00032295 -1.00027 0)
(0.00026886 -1.00013 0)
(0.000130438 -1.00002 0)
(-0.000961577 -1.00327 0)
(-0.00067424 -1.00288 0)
(-0.000447219 -1.00258 0)
(-0.000273081 -1.00234 0)
(-0.00014467 -1.00216 0)
(-5.19279e-05 -1.002 0)
(1.46398e-05 -1.00185 0)
(6.26713e-05 -1.00172 0)
(9.76438e-05 -1.00159 0)
(0.000124128 -1.00146 0)
(0.000145324 -1.00134 0)
(0.000163486 -1.0012 0)
(0.000180053 -1.00107 0)
(0.000195579 -1.00092 0)
(0.000209126 -1.00077 0)
(0.000218009 -1.00061 0)
(0.00022012 -1.00044 0)
(0.000205816 -1.00027 0)
(0.000159476 -1.00011 0)
(6.72648e-05 -1.00002 0)
(-0.00133387 -1.00336 0)
(-0.000948218 -1.00298 0)
(-0.000656809 -1.00271 0)
(-0.000439352 -1.0025 0)
(-0.000284324 -1.00233 0)
(-0.000175653 -1.00217 0)
(-0.000100354 -1.00203 0)
(-4.8454e-05 -1.00189 0)
(-1.26421e-05 -1.00176 0)
(1.23736e-05 -1.00162 0)
(3.02768e-05 -1.00147 0)
(4.36318e-05 -1.00132 0)
(5.4124e-05 -1.00117 0)
(6.26729e-05 -1.001 0)
(6.936e-05 -1.00082 0)
(7.35084e-05 -1.00064 0)
(7.43135e-05 -1.00045 0)
(6.88199e-05 -1.00026 0)
(5.18717e-05 -1.0001 0)
(2.06029e-05 -1.00001 0)
(-0.0016929 -1.00307 0)
(-0.00118885 -1.00274 0)
(-0.000834801 -1.00253 0)
(-0.000579175 -1.00237 0)
(-0.000404743 -1.00223 0)
(-0.000286983 -1.00211 0)
(-0.000208618 -1.00199 0)
(-0.000157023 -1.00187 0)
(-0.000123613 -1.00174 0)
(-0.000102548 -1.00161 0)
(-8.9893e-05 -1.00147 0)
(-8.29838e-05 -1.00132 0)
(-7.99964e-05 -1.00116 0)
(-7.96325e-05 -1.001 0)
(-8.04934e-05 -1.00082 0)
(-8.07755e-05 -1.00064 0)
(-7.8913e-05 -1.00045 0)
(-7.15653e-05 -1.00026 0)
(-5.32956e-05 -1.0001 0)
(-2.10684e-05 -1.00001 0)
(-0.0020308 -1.0024 0)
(-0.00136491 -1.00214 0)
(-0.000955167 -1.00204 0)
(-0.000670889 -1.00196 0)
(-0.000488391 -1.00189 0)
(-0.000370756 -1.00181 0)
(-0.000295999 -1.00173 0)
(-0.000249253 -1.00164 0)
(-0.000221095 -1.00154 0)
(-0.000205582 -1.00143 0)
(-0.000199164 -1.00131 0)
(-0.000199043 -1.00119 0)
(-0.000203424 -1.00106 0)
(-0.000210887 -1.00092 0)
(-0.000219187 -1.00077 0)
(-0.000224575 -1.00061 0)
(-0.000224235 -1.00044 0)
(-0.000208244 -1.00027 0)
(-0.000160679 -1.00011 0)
(-6.76565e-05 -1.00002 0)
(-0.00232698 -1.00119 0)
(-0.00141843 -1.00102 0)
(-0.000976968 -1.0011 0)
(-0.000684971 -1.00114 0)
(-0.000513223 -1.00117 0)
(-0.000408384 -1.00117 0)
(-0.000345057 -1.00114 0)
(-0.00030763 -1.00111 0)
(-0.000287056 -1.00105 0)
(-0.000278141 -1.00099 0)
(-0.000276844 -1.00093 0)
(-0.000281969 -1.00085 0)
(-0.000292072 -1.00077 0)
(-0.000306021 -1.00069 0)
(-0.00032121 -1.0006 0)
(-0.000330631 -1.0005 0)
(-0.000335055 -1.00039 0)
(-0.000324859 -1.00027 0)
(-0.000269712 -1.00013 0)
(-0.000130691 -1.00002 0)
(-0.00259383 -0.998852 0)
(-0.00123844 -0.998757 0)
(-0.000854753 -0.999182 0)
(-0.000594343 -0.99942 0)
(-0.000458003 -0.999595 0)
(-0.000379421 -0.999712 0)
(-0.000334901 -0.999794 0)
(-0.000310628 -0.999852 0)
(-0.000299308 -0.999896 0)
(-0.00029668 -0.999932 0)
(-0.000300058 -0.999963 0)
(-0.00030903 -0.999992 0)
(-0.000322784 -1.00002 0)
(-0.000340374 -1.00005 0)
(-0.000360692 -1.00008 0)
(-0.0003815 -1.00011 0)
(-0.000395676 -1.00014 0)
(-0.000401347 -1.00015 0)
(-0.000354023 -1.00013 0)
(-0.000190791 -1.00003 0)
(-0.00218562 -0.992586 0)
(-0.000549024 -0.991799 0)
(-0.000538196 -0.992811 0)
(-0.000380504 -0.993538 0)
(-0.000326667 -0.994066 0)
(-0.000292954 -0.994501 0)
(-0.000275699 -0.994883 0)
(-0.000268018 -0.995236 0)
(-0.000266792 -0.995575 0)
(-0.00027029 -0.99591 0)
(-0.000277588 -0.996247 0)
(-0.000288354 -0.996592 0)
(-0.000302276 -0.99695 0)
(-0.000318906 -0.997324 0)
(-0.000337331 -0.997719 0)
(-0.000355455 -0.99814 0)
(-0.00036834 -0.998592 0)
(-0.00036394 -0.999063 0)
(-0.00029511 -0.999481 0)
(-7.34792e-05 -0.999765 0)
(0.0118725 -0.877873 0)
(0.0103096 -0.900744 0)
(0.00887849 -0.920548 0)
(0.00755372 -0.937462 0)
(0.00632986 -0.951708 0)
(0.00521191 -0.963511 0)
(0.00420204 -0.973101 0)
(0.00330164 -0.980708 0)
(0.00251089 -0.986563 0)
(0.00182925 -0.990897 0)
(0.00125565 -0.993936 0)
(0.000787857 -0.995904 0)
(0.000421719 -0.997015 0)
(0.000151441 -0.997472 0)
(-2.98262e-05 -0.997458 0)
(-0.00012714 -0.997139 0)
(-0.000179602 -0.996656 0)
(-0.00017833 -0.996123 0)
(-0.000147247 -0.995623 0)
(-0.000101122 -0.995206 0)
(-4.89106e-05 -0.994893 0)
(0.0291352 -0.899725 0)
(0.0253126 -0.92105 0)
(0.021744 -0.939431 0)
(0.0184282 -0.955026 0)
(0.0153755 -0.96805 0)
(0.0125934 -0.978719 0)
(0.0100865 -0.987259 0)
(0.00785644 -0.993895 0)
(0.00590218 -0.998856 0)
(0.0042214 -1.00237 0)
(0.00281095 -1.00465 0)
(0.00166531 -1.00594 0)
(0.000772691 -1.00643 0)
(0.000111578 -1.00634 0)
(-0.000342717 -1.00584 0)
(-0.000613734 -1.00511 0)
(-0.00073147 -1.00427 0)
(-0.000732008 -1.00342 0)
(-0.000653217 -1.00265 0)
(-0.000533109 -1.00199 0)
(-0.000399972 -1.00144 0)
(0.0473754 -0.907432 0)
(0.041104 -0.928184 0)
(0.0352197 -0.94604 0)
(0.0297496 -0.961171 0)
(0.0247149 -0.973777 0)
(0.0201299 -0.984063 0)
(0.0160031 -0.992247 0)
(0.0123377 -0.998549 0)
(0.00913237 -1.00319 0)
(0.00638348 -1.00639 0)
(0.00408508 -1.00838 0)
(0.00222793 -1.00937 0)
(0.000791806 -1.00958 0)
(-0.000254054 -1.00923 0)
(-0.000951021 -1.00848 0)
(-0.00134506 -1.00751 0)
(-0.00149068 -1.00647 0)
(-0.00144727 -1.00546 0)
(-0.00127989 -1.00455 0)
(-0.00105508 -1.00379 0)
(-0.000820182 -1.00317 0)
(0.0652666 -0.912119 0)
(0.0566029 -0.932644 0)
(0.0484582 -0.950291 0)
(0.0408765 -0.965228 0)
(0.03389 -0.977644 0)
(0.0275206 -0.98774 0)
(0.0217828 -0.995729 0)
(0.0166835 -1.00183 0)
(0.0122233 -1.00625 0)
(0.00839809 -1.00922 0)
(0.00519955 -1.01095 0)
(0.00262066 -1.01167 0)
(0.000637475 -1.0116 0)
(-0.000793351 -1.01096 0)
(-0.00173149 -1.00995 0)
(-0.00223911 -1.00874 0)
(-0.00239206 -1.00748 0)
(-0.00227938 -1.0063 0)
(-0.0019938 -1.00528 0)
(-0.00163798 -1.00445 0)
(-0.00128751 -1.00379 0)
(0.0830289 -0.915561 0)
(0.0719825 -0.935969 0)
(0.0615805 -0.953506 0)
(0.0518846 -0.968336 0)
(0.0429386 -0.980644 0)
(0.0347734 -0.990629 0)
(0.0274133 -0.998493 0)
(0.0208725 -1.00445 0)
(0.0151462 -1.00872 0)
(0.0102215 -1.01151 0)
(0.00609142 -1.01302 0)
(0.00276989 -1.01349 0)
(0.000226166 -1.01313 0)
(-0.00158267 -1.0122 0)
(-0.00274577 -1.0109 0)
(-0.00334352 -1.00942 0)
(-0.00346862 -1.00792 0)
(-0.00324443 -1.00655 0)
(-0.00278946 -1.00542 0)
(-0.00225513 -1.00454 0)
(-0.00176859 -1.00388 0)
(0.10071 -0.917268 0)
(0.0872822 -0.937532 0)
(0.0746258 -0.954947 0)
(0.0628198 -0.969688 0)
(0.0519189 -0.98194 0)
(0.0419629 -0.991891 0)
(0.0329846 -0.999732 0)
(0.0249941 -1.00567 0)
(0.0179585 -1.00991 0)
(0.0118827 -1.01268 0)
(0.00679593 -1.01411 0)
(0.00270611 -1.01451 0)
(-0.000421333 -1.01394 0)
(-0.00262552 -1.0128 0)
(-0.00401293 -1.01126 0)
(-0.00467087 -1.00955 0)
(-0.00472646 -1.00784 0)
(-0.00433681 -1.00629 0)
(-0.00364353 -1.00505 0)
(-0.00286694 -1.00418 0)
(-0.00223241 -1.00356 0)
(0.118202 -0.91538 0)
(0.102419 -0.935225 0)
(0.0875484 -0.952302 0)
(0.0736807 -0.966815 0)
(0.0608722 -0.978968 0)
(0.0491538 -0.988953 0)
(0.0385367 -0.996958 0)
(0.0290235 -1.00317 0)
(0.0206944 -1.00759 0)
(0.0135855 -1.0106 0)
(0.00758166 -1.01243 0)
(0.00265287 -1.0131 0)
(-0.00110249 -1.01281 0)
(-0.00369158 -1.01186 0)
(-0.00532837 -1.01024 0)
(-0.00609877 -1.00859 0)
(-0.00605453 -1.00685 0)
(-0.0054598 -1.00525 0)
(-0.00449299 -1.00401 0)
(-0.00343191 -1.00327 0)
(-0.00264005 -1.00282 0)
(0.135121 -0.90613 0)
(0.117053 -0.924685 0)
(0.10008 -0.940629 0)
(0.0842941 -0.954245 0)
(0.0697419 -0.965805 0)
(0.0564318 -0.975548 0)
(0.044355 -0.983685 0)
(0.0335522 -0.990359 0)
(0.0241138 -0.995693 0)
(0.0159713 -0.999802 0)
(0.00899554 -1.00274 0)
(0.00322169 -1.00458 0)
(-0.00126439 -1.00542 0)
(-0.00441956 -1.00547 0)
(-0.00629752 -1.00504 0)
(-0.00714774 -1.00436 0)
(-0.00713198 -1.00344 0)
(-0.00646807 -1.00242 0)
(-0.00539345 -1.00163 0)
(-0.00401348 -1.00139 0)
(-0.00283064 -1.00142 0)
(0.150417 -0.88281 0)
(0.130174 -0.897885 0)
(0.111306 -0.910489 0)
(0.0938996 -0.921066 0)
(0.0779743 -0.930042 0)
(0.0634953 -0.937808 0)
(0.0504 -0.944704 0)
(0.0386408 -0.950999 0)
(0.0281792 -0.956886 0)
(0.0189285 -0.96248 0)
(0.0109739 -0.967682 0)
(0.00439438 -0.972483 0)
(-0.000890466 -0.976775 0)
(-0.00482362 -0.980632 0)
(-0.00718595 -0.984222 0)
(-0.00862737 -0.987481 0)
(-0.00916963 -0.990253 0)
(-0.00873358 -0.992492 0)
(-0.00708814 -0.994114 0)
(-0.00390647 -0.995605 0)
(-0.00158142 -0.997661 0)
(0.161626 -0.836053 0)
(0.13917 -0.843484 0)
(0.118523 -0.848234 0)
(0.099774 -0.850877 0)
(0.0829302 -0.851966 0)
(0.0679413 -0.852017 0)
(0.0547321 -0.851509 0)
(0.0432376 -0.85091 0)
(0.0333898 -0.850758 0)
(0.0250459 -0.851681 0)
(0.0179573 -0.854173 0)
(0.0120058 -0.858513 0)
(0.00726863 -0.865061 0)
(0.00449663 -0.873819 0)
(0.0038568 -0.884897 0)
(0.00423937 -0.898016 0)
(0.00533113 -0.912881 0)
(0.00654212 -0.928836 0)
(0.00768254 -0.943166 0)
(0.0083468 -0.957638 0)
(0.00631823 -0.976541 0)
(-0.0263666 0.0125899 0)
(-0.0211416 0.0448326 0)
(-0.00496376 0.0438585 0)
(0.00886118 0.0234805 0)
(0.0214355 -0.0182541 0)
(0.0346287 -0.0888361 0)
(0.0410939 -0.182107 0)
(0.0400886 -0.269994 0)
(0.0365211 -0.349347 0)
(0.0332954 -0.422594 0)
(0.0304592 -0.48971 0)
(0.0278664 -0.551224 0)
(0.0254737 -0.607543 0)
(0.0232344 -0.658998 0)
(0.0211162 -0.705853 0)
(0.0190979 -0.748327 0)
(0.0171686 -0.786613 0)
(0.0153241 -0.820865 0)
(0.0135579 -0.85122 0)
(-0.0452996 0.00112657 0)
(-0.0089612 0.0216359 0)
(0.0218455 0.00272606 0)
(0.0474545 -0.0486138 0)
(0.0747104 -0.123985 0)
(0.0946922 -0.208587 0)
(0.099513 -0.287605 0)
(0.0943118 -0.354733 0)
(0.0870906 -0.421469 0)
(0.0801896 -0.484551 0)
(0.0737242 -0.543639 0)
(0.067713 -0.598673 0)
(0.0620762 -0.649681 0)
(0.0567371 -0.696728 0)
(0.0516368 -0.739878 0)
(0.0467406 -0.779204 0)
(0.0420365 -0.81478 0)
(0.0375288 -0.846685 0)
(0.033219 -0.87502 0)
(-0.0509735 -0.0155838 0)
(0.015254 -0.0139764 0)
(0.0605086 -0.0588043 0)
(0.101563 -0.12626 0)
(0.134898 -0.201972 0)
(0.151615 -0.272502 0)
(0.151961 -0.335131 0)
(0.144753 -0.394605 0)
(0.135902 -0.453967 0)
(0.126616 -0.510981 0)
(0.117473 -0.565491 0)
(0.108649 -0.617057 0)
(0.100135 -0.66544 0)
(0.0918862 -0.710475 0)
(0.0838648 -0.752061 0)
(0.0760547 -0.790143 0)
(0.0684651 -0.824703 0)
(0.0611234 -0.855757 0)
(0.0540612 -0.883365 0)
(-0.0257972 -0.0304201 0)
(0.0487705 -0.0520619 0)
(0.108448 -0.111717 0)
(0.157963 -0.181477 0)
(0.189441 -0.24835 0)
(0.200755 -0.307386 0)
(0.198374 -0.362603 0)
(0.190505 -0.41783 0)
(0.180667 -0.472692 0)
(0.169823 -0.526195 0)
(0.158727 -0.577947 0)
(0.147651 -0.627411 0)
(0.136683 -0.674223 0)
(0.125843 -0.718095 0)
(0.115141 -0.758822 0)
(0.104602 -0.796263 0)
(0.0942715 -0.830337 0)
(0.0842114 -0.86101 0)
(0.0744894 -0.888311 0)
(0.00841046 -0.0425504 0)
(0.0923767 -0.0818929 0)
(0.160057 -0.147988 0)
(0.209807 -0.214808 0)
(0.236223 -0.27411 0)
(0.243752 -0.327585 0)
(0.240655 -0.379813 0)
(0.232775 -0.432393 0)
(0.222383 -0.48462 0)
(0.210558 -0.535986 0)
(0.198052 -0.585988 0)
(0.185197 -0.634105 0)
(0.172161 -0.679919 0)
(0.15903 -0.723079 0)
(0.145871 -0.763309 0)
(0.132763 -0.800405 0)
(0.119801 -0.834234 0)
(0.107097 -0.864724 0)
(0.0947634 -0.89188 0)
(0.0548289 -0.0489676 0)
(0.143595 -0.101297 0)
(0.212126 -0.169755 0)
(0.257434 -0.232691 0)
(0.278936 -0.287722 0)
(0.284446 -0.339181 0)
(0.281291 -0.390173 0)
(0.273428 -0.441239 0)
(0.262654 -0.491966 0)
(0.250082 -0.542012 0)
(0.236419 -0.590903 0)
(0.222033 -0.638158 0)
(0.207142 -0.683338 0)
(0.191884 -0.726048 0)
(0.176384 -0.76596 0)
(0.160778 -0.802819 0)
(0.145225 -0.836451 0)
(0.129893 -0.866764 0)
(0.114955 -0.893749 0)
(0.109103 -0.0528872 0)
(0.199093 -0.11182 0)
(0.263294 -0.180723 0)
(0.302768 -0.240682 0)
(0.320375 -0.293993 0)
(0.324639 -0.34501 0)
(0.32132 -0.395502 0)
(0.313297 -0.445768 0)
(0.302143 -0.495641 0)
(0.288896 -0.544866 0)
(0.274196 -0.593037 0)
(0.258413 -0.639705 0)
(0.241782 -0.684414 0)
(0.224481 -0.726729 0)
(0.206687 -0.766274 0)
(0.188602 -0.802752 0)
(0.170455 -0.835968 0)
(0.15249 -0.865824 0)
(0.134946 -0.892328 0)
(0.172294 -0.0559998 0)
(0.255542 -0.116391 0)
(0.313292 -0.184429 0)
(0.347059 -0.24257 0)
(0.361579 -0.295493 0)
(0.364759 -0.346606 0)
(0.361044 -0.396897 0)
(0.3527 -0.446728 0)
(0.341121 -0.49607 0)
(0.327212 -0.544727 0)
(0.311527 -0.592343 0)
(0.2944 -0.63847 0)
(0.276059 -0.682617 0)
(0.256709 -0.724296 0)
(0.236581 -0.763074 0)
(0.215955 -0.798618 0)
(0.19515 -0.830721 0)
(0.174504 -0.85931 0)
(0.154338 -0.884449 0)
(0.237962 -0.0571113 0)
(0.311235 -0.116613 0)
(0.362232 -0.183494 0)
(0.390914 -0.240653 0)
(0.402837 -0.293621 0)
(0.404886 -0.344884 0)
(0.400577 -0.395038 0)
(0.39179 -0.444544 0)
(0.379715 -0.493442 0)
(0.365105 -0.541559 0)
(0.348403 -0.588537 0)
(0.329874 -0.633884 0)
(0.309719 -0.677031 0)
(0.288164 -0.717395 0)
(0.265504 -0.754457 0)
(0.242119 -0.787829 0)
(0.218452 -0.817299 0)
(0.194966 -0.842844 0)
(0.172095 -0.864626 0)
(0.301038 -0.0558877 0)
(0.365864 -0.113836 0)
(0.410358 -0.179692 0)
(0.434522 -0.236254 0)
(0.444177 -0.289204 0)
(0.445 -0.340447 0)
(0.439935 -0.390363 0)
(0.430579 -0.439464 0)
(0.417901 -0.487799 0)
(0.402472 -0.535172 0)
(0.384593 -0.58115 0)
(0.36443 -0.625125 0)
(0.342141 -0.666368 0)
(0.317967 -0.704132 0)
(0.29229 -0.737753 0)
(0.26563 -0.766757 0)
(0.238604 -0.790928 0)
(0.211849 -0.810316 0)
(0.185952 -0.825221 0)
(0.164918 -0.757124 0)
(0.139771 -0.752193 0)
(0.11696 -0.744069 0)
(0.0965278 -0.733271 0)
(0.0784091 -0.720188 0)
(0.0624822 -0.705056 0)
(0.0486033 -0.687955 0)
(0.0366462 -0.668831 0)
(0.0265824 -0.647566 0)
(0.0187737 -0.623879 0)
(0.0124792 -0.597377 0)
(0.00754071 -0.567934 0)
(0.00389425 -0.535265 0)
(0.00131935 -0.499195 0)
(-0.000680851 -0.459543 0)
(-0.0031163 -0.415804 0)
(-0.00612069 -0.366749 0)
(-0.0071466 -0.310241 0)
(-0.00980789 -0.250141 0)
(-0.0234287 -0.193524 0)
(-0.0363184 -0.14946 0)
(0.156492 -0.64988 0)
(0.128203 -0.632251 0)
(0.102723 -0.611981 0)
(0.0799107 -0.589661 0)
(0.0595365 -0.565687 0)
(0.0413643 -0.540292 0)
(0.0251835 -0.513575 0)
(0.0107983 -0.485565 0)
(-0.00195232 -0.456361 0)
(-0.0132338 -0.42603 0)
(-0.0233539 -0.394293 0)
(-0.0324314 -0.360513 0)
(-0.0400466 -0.324952 0)
(-0.0460867 -0.287142 0)
(-0.0511609 -0.246764 0)
(-0.056324 -0.201457 0)
(-0.0611899 -0.152705 0)
(-0.0637702 -0.0997409 0)
(-0.0655419 -0.0473222 0)
(-0.0767612 -0.00396315 0)
(-0.105214 0.00868814 0)
(0.138025 -0.535325 0)
(0.107634 -0.511058 0)
(0.0807558 -0.486439 0)
(0.0571268 -0.462177 0)
(0.0364347 -0.438738 0)
(0.0183429 -0.416383 0)
(0.00247051 -0.395156 0)
(-0.0116215 -0.37473 0)
(-0.0242471 -0.354558 0)
(-0.0355781 -0.334057 0)
(-0.0461555 -0.311428 0)
(-0.0561254 -0.287054 0)
(-0.0653514 -0.260712 0)
(-0.0742954 -0.231578 0)
(-0.0833069 -0.199982 0)
(-0.0916231 -0.166564 0)
(-0.0979551 -0.131684 0)
(-0.10141 -0.0944103 0)
(-0.103431 -0.0555007 0)
(-0.105006 -0.0216844 0)
(-0.0977895 -0.00435462 0)
(0.11638 -0.435227 0)
(0.0866952 -0.413826 0)
(0.0613852 -0.395295 0)
(0.0397972 -0.37984 0)
(0.021149 -0.367065 0)
(0.00463869 -0.356073 0)
(-0.0104332 -0.345674 0)
(-0.0245973 -0.334562 0)
(-0.038155 -0.322067 0)
(-0.0512715 -0.307645 0)
(-0.0637781 -0.290986 0)
(-0.075557 -0.27187 0)
(-0.0866767 -0.250005 0)
(-0.0972345 -0.225315 0)
(-0.107387 -0.198052 0)
(-0.11709 -0.168494 0)
(-0.125329 -0.136761 0)
(-0.131202 -0.10293 0)
(-0.134106 -0.0680566 0)
(-0.131169 -0.0360221 0)
(-0.110585 -0.0121742 0)
(0.0999074 -0.364005 0)
(0.0737615 -0.35251 0)
(0.0518263 -0.344958 0)
(0.0327374 -0.339971 0)
(0.01535 -0.335932 0)
(-0.00110236 -0.331471 0)
(-0.0170323 -0.325643 0)
(-0.0325794 -0.318018 0)
(-0.0478221 -0.308265 0)
(-0.062812 -0.296168 0)
(-0.0774887 -0.281566 0)
(-0.091737 -0.264299 0)
(-0.105468 -0.24426 0)
(-0.118611 -0.221475 0)
(-0.131102 -0.196014 0)
(-0.142692 -0.168284 0)
(-0.152422 -0.138712 0)
(-0.159434 -0.107455 0)
(-0.162606 -0.0750079 0)
(-0.157811 -0.0433777 0)
(-0.132653 -0.0161974 0)
(0.0926783 -0.321377 0)
(0.0700761 -0.319349 0)
(0.0501102 -0.31924 0)
(0.0314593 -0.319316 0)
(0.0134067 -0.31843 0)
(-0.00435661 -0.315959 0)
(-0.0219396 -0.311582 0)
(-0.0393681 -0.305123 0)
(-0.0566559 -0.296405 0)
(-0.0737755 -0.285315 0)
(-0.0906467 -0.271755 0)
(-0.107168 -0.255625 0)
(-0.123225 -0.236881 0)
(-0.138658 -0.215574 0)
(-0.1532 -0.19176 0)
(-0.166377 -0.165782 0)
(-0.177534 -0.138092 0)
(-0.185787 -0.108807 0)
(-0.189712 -0.07808 0)
(-0.18473 -0.0469314 0)
(-0.158718 -0.018127 0)
(0.0926854 -0.296463 0)
(0.0715334 -0.299374 0)
(0.0515027 -0.302065 0)
(0.0318936 -0.303602 0)
(0.0124431 -0.303539 0)
(-0.00693821 -0.301656 0)
(-0.0262805 -0.297817 0)
(-0.0455852 -0.291903 0)
(-0.0648426 -0.283799 0)
(-0.0840023 -0.273426 0)
(-0.102972 -0.260709 0)
(-0.121633 -0.245578 0)
(-0.139831 -0.228014 0)
(-0.157345 -0.208104 0)
(-0.173794 -0.185858 0)
(-0.188621 -0.161469 0)
(-0.201251 -0.1354 0)
(-0.210815 -0.107747 0)
(-0.215712 -0.078448 0)
(-0.21157 -0.0480134 0)
(-0.186489 -0.0187976 0)
(0.0961144 -0.278929 0)
(0.0747125 -0.283432 0)
(0.0536636 -0.286758 0)
(0.0327036 -0.28856 0)
(0.0117438 -0.288672 0)
(-0.00925224 -0.286989 0)
(-0.0302998 -0.283429 0)
(-0.0513919 -0.277902 0)
(-0.0725052 -0.270321 0)
(-0.093581 -0.260616 0)
(-0.114518 -0.248715 0)
(-0.135175 -0.234559 0)
(-0.155363 -0.21813 0)
(-0.174817 -0.199504 0)
(-0.193124 -0.178701 0)
(-0.209592 -0.155797 0)
(-0.223675 -0.131174 0)
(-0.2346 -0.104966 0)
(-0.240678 -0.0770069 0)
(-0.237877 -0.047523 0)
(-0.214566 -0.0187025 0)
(0.100575 -0.263576 0)
(0.0782 -0.268275 0)
(0.0558866 -0.271553 0)
(0.033538 -0.273284 0)
(0.011111 -0.273381 0)
(-0.0114193 -0.271781 0)
(-0.0340657 -0.26843 0)
(-0.0568213 -0.263258 0)
(-0.0796607 -0.256188 0)
(-0.102523 -0.247149 0)
(-0.125301 -0.236064 0)
(-0.147831 -0.222869 0)
(-0.169892 -0.207533 0)
(-0.191177 -0.190104 0)
(-0.211241 -0.170639 0)
(-0.22936 -0.149148 0)
(-0.244925 -0.125862 0)
(-0.257223 -0.100986 0)
(-0.264588 -0.0743656 0)
(-0.263318 -0.0460443 0)
(-0.242113 -0.0181413 0)
(0.105093 -0.248647 0)
(0.0815518 -0.253099 0)
(0.0579642 -0.256131 0)
(0.0342832 -0.257683 0)
(0.0104771 -0.257702 0)
(-0.0134772 -0.25615 0)
(-0.0375966 -0.252993 0)
(-0.061881 -0.248171 0)
(-0.0863108 -0.241611 0)
(-0.110829 -0.233238 0)
(-0.135326 -0.222969 0)
(-0.159621 -0.210726 0)
(-0.183457 -0.196459 0)
(-0.206483 -0.180175 0)
(-0.228212 -0.161943 0)
(-0.247971 -0.141782 0)
(-0.265053 -0.119798 0)
(-0.27871 -0.0962147 0)
(-0.287386 -0.0709523 0)
(-0.287659 -0.0439589 0)
(-0.26862 -0.0173002 0)
(0.109343 -0.233733 0)
(0.0846302 -0.237807 0)
(0.0598264 -0.240527 0)
(0.0348995 -0.241861 0)
(0.00982086 -0.241782 0)
(-0.0154361 -0.240269 0)
(-0.040897 -0.2373 0)
(-0.0665737 -0.232822 0)
(-0.0924579 -0.226766 0)
(-0.118501 -0.219053 0)
(-0.144596 -0.209591 0)
(-0.170552 -0.19829 0)
(-0.196083 -0.185077 0)
(-0.220789 -0.169924 0)
(-0.24414 -0.152857 0)
(-0.265481 -0.133928 0)
(-0.284063 -0.113226 0)
(-0.299057 -0.0909414 0)
(-0.309015 -0.0670625 0)
(-0.310743 -0.041515 0)
(-0.293781 -0.016296 0)
(0.113222 -0.218816 0)
(0.0873903 -0.22247 0)
(0.0614498 -0.224855 0)
(0.0353746 -0.225962 0)
(0.00913578 -0.225779 0)
(-0.0173006 -0.2243 0)
(-0.0439725 -0.221513 0)
(-0.0709072 -0.217368 0)
(-0.0981116 -0.211801 0)
(-0.125551 -0.20473 0)
(-0.153123 -0.196057 0)
(-0.180635 -0.185678 0)
(-0.207779 -0.173498 0)
(-0.234117 -0.159458 0)
(-0.259071 -0.143548 0)
(-0.281944 -0.12581 0)
(-0.301968 -0.106355 0)
(-0.318252 -0.085374 0)
(-0.329428 -0.0628989 0)
(-0.33248 -0.038874 0)
(-0.317421 -0.0152022 0)
(0.1167 -0.203976 0)
(0.0898197 -0.207199 0)
(0.0628293 -0.209247 0)
(0.0357065 -0.210127 0)
(0.00841921 -0.209839 0)
(-0.0190764 -0.20839 0)
(-0.0468329 -0.205773 0)
(-0.0748954 -0.201946 0)
(-0.103289 -0.196846 0)
(-0.131996 -0.190392 0)
(-0.160927 -0.182481 0)
(-0.189891 -0.172995 0)
(-0.218564 -0.161822 0)
(-0.246475 -0.148873 0)
(-0.272995 -0.134108 0)
(-0.297372 -0.117556 0)
(-0.318778 -0.0993359 0)
(-0.336291 -0.0796554 0)
(-0.348595 -0.0585967 0)
(-0.352817 -0.0361395 0)
(-0.33945 -0.0140646 0)
(0.119774 -0.189307 0)
(0.09192 -0.192104 0)
(0.0639679 -0.193821 0)
(0.0358966 -0.194479 0)
(0.0076689 -0.194087 0)
(-0.020771 -0.192662 0)
(-0.0494916 -0.190202 0)
(-0.0785571 -0.186672 0)
(-0.108014 -0.182013 0)
(-0.137864 -0.176144 0)
(-0.168035 -0.16896 0)
(-0.198344 -0.160335 0)
(-0.228461 -0.150138 0)
(-0.257881 -0.138255 0)
(-0.285922 -0.124623 0)
(-0.311761 -0.109251 0)
(-0.334498 -0.0922624 0)
(-0.353169 -0.0738806 0)
(-0.366497 -0.0542429 0)
(-0.371732 -0.033377 0)
(-0.359829 -0.012911 0)
(0.122451 -0.1749 0)
(0.0936993 -0.177283 0)
(0.0648722 -0.178681 0)
(0.0359479 -0.179122 0)
(0.00688204 -0.178627 0)
(-0.0223937 -0.177218 0)
(-0.0519643 -0.1749 0)
(-0.0819144 -0.171643 0)
(-0.112312 -0.167393 0)
(-0.143184 -0.162074 0)
(-0.174478 -0.155579 0)
(-0.206025 -0.147775 0)
(-0.237492 -0.138518 0)
(-0.268351 -0.127676 0)
(-0.297861 -0.115158 0)
(-0.325119 -0.100959 0)
(-0.349132 -0.0851963 0)
(-0.368884 -0.0681114 0)
(-0.383128 -0.0498922 0)
(-0.389224 -0.0306263 0)
(-0.378554 -0.0117575 0)
(0.124743 -0.160833 0)
(0.0951688 -0.162817 0)
(0.06555 -0.163906 0)
(0.0358629 -0.164137 0)
(0.0060551 -0.163538 0)
(-0.0239547 -0.162136 0)
(-0.0542685 -0.159944 0)
(-0.0849914 -0.156935 0)
(-0.116215 -0.153064 0)
(-0.147991 -0.148255 0)
(-0.180292 -0.142405 0)
(-0.212967 -0.135379 0)
(-0.245689 -0.127023 0)
(-0.277906 -0.117188 0)
(-0.308826 -0.105762 0)
(-0.337451 -0.0927221 0)
(-0.362684 -0.0781784 0)
(-0.383439 -0.0623861 0)
(-0.398488 -0.0455765 0)
(-0.405299 -0.0279104 0)
(-0.395636 -0.0106122 0)
(0.126665 -0.147166 0)
(0.09634 -0.148766 0)
(0.0660084 -0.149555 0)
(0.0356432 -0.149581 0)
(0.00518366 -0.148876 0)
(-0.0254651 -0.147473 0)
(-0.0564219 -0.145389 0)
(-0.0878127 -0.142604 0)
(-0.119753 -0.139078 0)
(-0.15232 -0.134741 0)
(-0.185515 -0.129491 0)
(-0.219208 -0.123196 0)
(-0.253083 -0.115696 0)
(-0.286574 -0.10683 0)
(-0.318834 -0.0964684 0)
(-0.348768 -0.0845691 0)
(-0.375162 -0.0712328 0)
(-0.396839 -0.0567257 0)
(-0.412583 -0.0413122 0)
(-0.419975 -0.0252408 0)
(-0.411101 -0.009478 0)
(0.12823 -0.133941 0)
(0.0972227 -0.135169 0)
(0.0662527 -0.135668 0)
(0.0352892 -0.135491 0)
(0.00426232 -0.134675 0)
(-0.0269361 -0.133261 0)
(-0.0584422 -0.131269 0)
(-0.0904025 -0.128685 0)
(-0.122957 -0.125472 0)
(-0.156208 -0.121567 0)
(-0.190187 -0.116874 0)
(-0.224789 -0.11126 0)
(-0.259713 -0.104568 0)
(-0.294384 -0.0966285 0)
(-0.327906 -0.0872973 0)
(-0.359086 -0.0765148 0)
(-0.386576 -0.0643704 0)
(-0.409092 -0.051138 0)
(-0.425423 -0.0371043 0)
(-0.433268 -0.022621 0)
(-0.424978 -0.00835424 0)
(0.12945 -0.121181 0)
(0.0978244 -0.122047 0)
(0.066286 -0.12226 0)
(0.0347993 -0.121879 0)
(0.0032849 -0.120949 0)
(-0.0283791 -0.119513 0)
(-0.0603461 -0.117598 0)
(-0.0927837 -0.115191 0)
(-0.125855 -0.112263 0)
(-0.159691 -0.108754 0)
(-0.194348 -0.104572 0)
(-0.229752 -0.099592 0)
(-0.26562 -0.0936579 0)
(-0.301373 -0.0865974 0)
(-0.336071 -0.0782576 0)
(-0.368423 -0.0685631 0)
(-0.396939 -0.057591 0)
(-0.42021 -0.0456208 0)
(-0.437018 -0.0329492 0)
(-0.445196 -0.020049 0)
(-0.437294 -0.00723787 0)
(0.130332 -0.108886 0)
(0.0981492 -0.109398 0)
(0.066109 -0.109328 0)
(0.0341706 -0.108742 0)
(0.00224489 -0.107692 0)
(-0.0298045 -0.106226 0)
(-0.0621492 -0.104372 0)
(-0.0949776 -0.102124 0)
(-0.128476 -0.0994529 0)
(-0.162801 -0.096304 0)
(-0.198038 -0.0925914 0)
(-0.23414 -0.0881964 0)
(-0.270845 -0.0829687 0)
(-0.307578 -0.0767383 0)
(-0.343359 -0.069347 0)
(-0.376801 -0.0607079 0)
(-0.406266 -0.0508851 0)
(-0.430203 -0.0401636 0)
(-0.447378 -0.0288368 0)
(-0.455775 -0.0175177 0)
(-0.448074 -0.00612492 0)
(0.130886 -0.0970181 0)
(0.0982024 -0.0971893 0)
(0.0657223 -0.0968443 0)
(0.0334005 -0.0960558 0)
(0.00113659 -0.0948822 0)
(-0.0312217 -0.0933782 0)
(-0.063865 -0.0915756 0)
(-0.0970032 -0.0894679 0)
(-0.130846 -0.0870293 0)
(-0.165573 -0.0842079 0)
(-0.201296 -0.0809235 0)
(-0.237996 -0.0770657 0)
(-0.275434 -0.0724929 0)
(-0.31304 -0.0670414 0)
(-0.349804 -0.0605531 0)
(-0.384245 -0.0529333 0)
(-0.414574 -0.0442346 0)
(-0.439085 -0.0347484 0)
(-0.456511 -0.0247508 0)
(-0.465012 -0.0150142 0)
(-0.457334 -0.00501596 0)
(0.131153 -0.0854891 0)
(0.0980075 -0.0853598 0)
(0.0651354 -0.0847618 0)
(0.0324904 -0.08378 0)
(-4.30963e-05 -0.0824858 0)
(-0.0326374 -0.0809407 0)
(-0.0655045 -0.07918 0)
(-0.0988773 -0.0771981 0)
(-0.132987 -0.0749693 0)
(-0.168035 -0.0724437 0)
(-0.204158 -0.0695475 0)
(-0.241361 -0.0661797 0)
(-0.27943 -0.0622103 0)
(-0.317802 -0.0574856 0)
(-0.355442 -0.0518526 0)
(-0.390783 -0.0452139 0)
(-0.421882 -0.0376129 0)
(-0.446865 -0.0293504 0)
(-0.464422 -0.0206682 0)
(-0.472901 -0.0125195 0)
(-0.465109 -0.0039396 0)
(0.13113 -0.0742042 0)
(0.0976002 -0.0738155 0)
(0.0643812 -0.0730214 0)
(0.0314542 -0.0718681 0)
(-0.00129157 -0.0704619 0)
(-0.0340552 -0.0688768 0)
(-0.0670767 -0.0671523 0)
(-0.100615 -0.0652831 0)
(-0.134923 -0.0632418 0)
(-0.17022 -0.0609805 0)
(-0.206663 -0.058432 0)
(-0.24428 -0.0555068 0)
(-0.282877 -0.0520889 0)
(-0.321907 -0.0480385 0)
(-0.360312 -0.043212 0)
(-0.396442 -0.0375151 0)
(-0.428205 -0.030985 0)
(-0.453552 -0.0239361 0)
(-0.471109 -0.0165594 0)
(-0.47942 -0.0100157 0)
(-0.471412 -0.00287056 0)
(0.130854 -0.0632249 0)
(0.0969622 -0.0625485 0)
(0.0634691 -0.0615499 0)
(0.0303214 -0.0602837 0)
(-0.00259656 -0.058777 0)
(-0.0354746 -0.0571531 0)
(-0.0685888 -0.0554589 0)
(-0.102232 -0.0536883 0)
(-0.136676 -0.0518103 0)
(-0.172158 -0.0497789 0)
(-0.208848 -0.0475358 0)
(-0.246793 -0.0450046 0)
(-0.285821 -0.0420857 0)
(-0.325398 -0.0386564 0)
(-0.36445 -0.0345872 0)
(-0.401251 -0.0297925 0)
(-0.433559 -0.0243073 0)
(-0.459151 -0.0184645 0)
(-0.476574 -0.0123918 0)
(-0.484571 -0.00748499 0)
(-0.476236 -0.00178232 0)
(0.130312 -0.0526549 0)
(0.0961328 -0.051667 0)
(0.0623872 -0.0504071 0)
(0.0290725 -0.0489822 0)
(-0.00394305 -0.047416 0)
(-0.0368921 -0.0457491 0)
(-0.070049 -0.0440714 0)
(-0.103745 -0.0423788 0)
(-0.138275 -0.0406338 0)
(-0.173884 -0.0387927 0)
(-0.210753 -0.0368083 0)
(-0.248945 -0.03462 0)
(-0.288308 -0.0321465 0)
(-0.32832 -0.0292846 0)
(-0.367895 -0.0259232 0)
(-0.405237 -0.0219912 0)
(-0.437957 -0.017527 0)
(-0.463661 -0.0128899 0)
(-0.480809 -0.00813458 0)
(-0.488336 -0.00489953 0)
(-0.479531 -0.000512487 0)
(0.12948 -0.0424969 0)
(0.0950664 -0.041223 0)
(0.0611491 -0.0397165 0)
(0.0276985 -0.0380554 0)
(-0.00537568 -0.0363632 0)
(-0.0383182 -0.0346617 0)
(-0.0714724 -0.0329719 0)
(-0.10518 -0.0313207 0)
(-0.139752 -0.0296667 0)
(-0.175437 -0.0279674 0)
(-0.212422 -0.0261893 0)
(-0.250782 -0.0242892 0)
(-0.290384 -0.0222055 0)
(-0.330717 -0.0198567 0)
(-0.370685 -0.0171534 0)
(-0.408426 -0.0140446 0)
(-0.441407 -0.0105813 0)
(-0.467075 -0.00716061 0)
(-0.483784 -0.00375312 0)
(-0.490616 -0.00220219 0)
(-0.481221 0.000743292 0)
(0.128386 -0.0327405 0)
(0.0937659 -0.0311972 0)
(0.0597069 -0.0294597 0)
(0.0261836 -0.0275915 0)
(-0.00690999 -0.0256873 0)
(-0.0398092 -0.0238726 0)
(-0.0728948 -0.0221447 0)
(-0.106576 -0.0204773 0)
(-0.141153 -0.0188554 0)
(-0.176866 -0.0172386 0)
(-0.213903 -0.0156077 0)
(-0.252353 -0.0139372 0)
(-0.292096 -0.0121857 0)
(-0.332632 -0.0102944 0)
(-0.372857 -0.00819941 0)
(-0.410842 -0.00587516 0)
(-0.443917 -0.00339934 0)
(-0.469384 -0.00120471 0)
(-0.485447 0.000839429 0)
(-0.491349 0.000716302 0)
(-0.481232 0.00201152 0)
(0.127049 -0.0233435 0)
(0.0922526 -0.0215378 0)
(0.0580679 -0.0195662 0)
(0.0244867 -0.0174887 0)
(-0.00857914 -0.0153906 0)
(-0.0413957 -0.0133839 0)
(-0.0743873 -0.011543 0)
(-0.107993 -0.00979465 0)
(-0.142534 -0.00813025 0)
(-0.178223 -0.00652722 0)
(-0.215249 -0.00497916 0)
(-0.253707 -0.00347652 0)
(-0.293492 -0.00199734 0)
(-0.334112 -0.000506808 0)
(-0.374448 0.00102956 0)
(-0.412506 0.00260427 0)
(-0.445488 0.00409676 0)
(-0.470552 0.00506798 0)
(-0.485759 0.00573548 0)
(-0.491092 0.00380385 0)
(-0.479533 0.00324384 0)
(0.125473 -0.0142329 0)
(0.0905257 -0.0121558 0)
(0.056232 -0.00993146 0)
(0.0226025 -0.0076169 0)