/*--------------------------------*- C++ -*----------------------------------*\
| =========                 |                                                 |
| \\      /  F ield         | OpenFOAM: The Open Source CFD Toolbox           |
|  \\    /   O peration     | Version:  v2012                                 |
|   \\  /    A nd           | Website:  www.openfoam.com                      |
|    \\/     M anipulation  |                                                 |
\*---------------------------------------------------------------------------*/
FoamFile
{
    version     2.0;
    format      ascii;
    class       volScalarField;
    location    "643";
    object      age;
}
// * * * * * * * * * * * * * * * * * * * * * * * * * * * * * * * * * * * * * //

dimensions      [0 0 1 0 0 0 0];


internalField   nonuniform List<scalar> 
6532
(
0.0125017
0.0124996
0.0124998
0.0124998
0.0124999
0.0124999
0.0124998
0.0124998
0.0124996
0.0125017
0.0375091
0.0374975
0.0374976
0.0374979
0.0374981
0.0374981
0.0374979
0.0374976
0.0374975
0.0375091
0.0625266
0.0624944
0.0624927
0.062493
0.0624934
0.0624934
0.062493
0.0624926
0.0624944
0.0625266
0.087555
0.0874912
0.0874849
0.0874844
0.0874847
0.0874847
0.0874844
0.0874848
0.0874912
0.087555
0.112594
0.112489
0.112474
0.112472
0.112472
0.112472
0.112472
0.112474
0.112488
0.112594
0.137643
0.137486
0.137461
0.137456
0.137454
0.137454
0.137456
0.137461
0.137486
0.137643
0.162702
0.162485
0.162446
0.162436
0.162433
0.162433
0.162435
0.162446
0.162485
0.162702
0.18777
0.187484
0.187429
0.187412
0.187407
0.187407
0.187412
0.187428
0.187484
0.187769
0.212846
0.212484
0.212409
0.212385
0.212377
0.212377
0.212385
0.212409
0.212484
0.212846
0.237931
0.237485
0.237388
0.237356
0.237344
0.237344
0.237355
0.237387
0.237484
0.23793
0.263024
0.262486
0.262365
0.262323
0.262308
0.262308
0.262322
0.262364
0.262484
0.263022
0.288124
0.287487
0.28734
0.287287
0.287268
0.287268
0.287286
0.287339
0.287485
0.288122
0.313232
0.312489
0.312314
0.312249
0.312225
0.312225
0.312248
0.312311
0.312486
0.313228
0.338348
0.337492
0.337286
0.337209
0.33718
0.337179
0.337206
0.337282
0.337487
0.338341
0.363471
0.362496
0.362257
0.362166
0.362131
0.362129
0.362162
0.362251
0.362489
0.363465
0.388601
0.387501
0.387227
0.387121
0.387079
0.387077
0.387115
0.387218
0.387489
0.388573
0.41374
0.412507
0.412195
0.412074
0.412025
0.412022
0.412064
0.412182
0.41249
0.413783
0.438888
0.437515
0.437164
0.437025
0.436968
0.436963
0.43701
0.437142
0.437488
0.43859
0.464046
0.462527
0.462133
0.461975
0.461908
0.4619
0.461951
0.462098
0.462487
0.465139
0.489215
0.487542
0.487104
0.486924
0.486846
0.486833
0.486885
0.487045
0.487471
0.484344
0.514678
0.512843
0.512355
0.512152
0.51206
0.512038
0.512088
0.512256
0.512723
0.535338
0.54044
0.538431
0.537891
0.537662
0.537553
0.53752
0.537565
0.537742
0.53826
0.570312
0.566224
0.564035
0.563438
0.563181
0.563053
0.563007
0.563047
0.563242
0.563808
0.604576
0.592038
0.58966
0.589002
0.588714
0.588565
0.588505
0.588544
0.588771
0.589384
0.638158
0.617889
0.615313
0.61459
0.614269
0.614098
0.614024
0.614065
0.614348
0.615014
0.671068
0.643785
0.641004
0.64021
0.639854
0.639659
0.639572
0.639623
0.639988
0.640714
0.703149
0.669738
0.666741
0.665871
0.665478
0.665258
0.66516
0.66523
0.665709
0.666504
0.734368
0.69576
0.692538
0.691586
0.691153
0.690906
0.690799
0.690898
0.691525
0.692397
0.764581
0.721867
0.718409
0.717366
0.716891
0.716617
0.716502
0.716641
0.717453
0.718393
0.793606
0.748075
0.74437
0.743229
0.742708
0.742405
0.742286
0.742477
0.743511
0.744502
0.821379
0.774407
0.770443
0.769193
0.768622
0.76829
0.768168
0.768422
0.769716
0.770739
0.847892
0.800889
0.796652
0.795281
0.794657
0.794292
0.79417
0.794496
0.796085
0.797117
0.873133
0.82755
0.823027
0.821521
0.820838
0.820438
0.820316
0.820721
0.822634
0.823653
0.897138
0.854429
0.849605
0.847945
0.847196
0.846758
0.846635
0.847121
0.849378
0.850359
0.919979
0.88157
0.876428
0.874594
0.873771
0.87329
0.873163
0.873724
0.876331
0.877255
0.941771
0.909026
0.903549
0.901515
0.900609
0.900078
0.89994
0.900563
0.90351
0.904367
0.962691
0.936863
0.93103
0.928767
0.927764
0.927177
0.927017
0.92768
0.930936
0.931737
0.983028
0.965162
0.958952
0.956425
0.955309
0.954655
0.954461
0.95513
0.958642
0.959424
1.00319
0.993431
0.98683
0.984005
0.982757
0.982027
0.981784
0.98242
0.986108
0.986953
1.02294
1.02175
1.01474
1.01158
1.01018
1.00936
1.00906
1.00961
1.01338
1.01438
1.04339
1.05081
1.04337
1.03982
1.03823
1.03731
1.03692
1.03736
1.04108
1.04234
1.06498
1.08077
1.07285
1.06885
1.06704
1.066
1.06551
1.06578
1.06933
1.07096
1.0868
1.1118
1.10335
1.09884
1.09676
1.09558
1.09497
1.09504
1.09826
1.10045
1.10894
1.14414
1.1351
1.12999
1.12757
1.12622
1.12548
1.12532
1.12806
1.13103
1.13157
1.17807
1.16835
1.16255
1.15972
1.15814
1.15726
1.15687
1.15895
1.16299
1.15444
1.21398
1.20343
1.19682
1.19346
1.19161
1.19054
1.18994
1.1912
1.1967
1.17965
1.25234
1.24079
1.2332
1.22917
1.22694
1.22565
1.22487
1.2252
1.23149
1.21717
1.29381
1.28098
1.27217
1.2673
1.26456
1.26295
1.26201
1.26148
1.26722
1.26019
1.33934
1.3248
1.31443
1.30842
1.30497
1.30292
1.30178
1.30065
1.30465
1.30415
1.39031
1.37337
1.36088
1.35335
1.34889
1.34619
1.34471
1.34327
1.34514
1.3478
1.44893
1.42839
1.41286
1.40317
1.39725
1.39358
1.39151
1.3899
1.39004
1.39275
1.51913
1.49276
1.47247
1.45951
1.45141
1.44628
1.44322
1.44127
1.44038
1.44173
1.60837
1.57119
1.54289
1.52474
1.51324
1.50584
1.50122
1.49846
1.49692
1.49698
1.73789
1.67599
1.63092
1.60333
1.5863
1.57535
1.56825
1.56384
1.56131
1.56035
1.95409
1.8295
1.74853
1.70082
1.67296
1.65613
1.64564
1.63915
1.63538
1.6336
2.77347
2.16186
1.93491
1.84879
1.79741
1.76591
1.74583
1.73297
1.72509
1.72078
13.3116
7.05983
3.328
2.09847
1.93262
1.88796
1.86526
1.851
1.84121
1.83471
12.0535
11.5658
7.87784
4.34978
2.67869
2.14525
2.02817
1.98967
1.9711
1.96241
11.4818
11.6928
11.0281
8.09592
5.42404
3.7426
2.88798
2.47303
2.31487
2.2465
10.9391
10.0429
9.61308
8.68167
7.28636
6.15569
5.35576
4.74244
4.29727
3.98698
140.901
165.805
165.753
166.238
167.005
168.186
169.811
171.893
174.729
178.015
181.367
185.226
188.897
191.916
194.135
195.531
196.087
196.279
196.461
196.645
196.837
197.05
197.308
197.681
199.824
138.49
163.441
161.313
161.394
161.51
162.027
163.575
166.831
173.31
182.831
194.026
206.221
218.551
230.068
239.848
247.031
251.068
250.926
246.031
236.921
225.168
213.285
204.128
199.363
199.452
131.944
162.282
160.92
160.765
160.665
160.751
161.28
163.304
170.51
184.816
203.669
225.728
249.64
273.51
295.008
311.681
321.368
322.656
315.007
298.617
274.879
247.275
221.959
205.08
199.786
124.605
161.934
161.018
160.79
160.454
160.391
160.564
161.345
166.653
183.076
208.191
239.86
276.528
315.492
352.595
382.659
400.889
404.164
391.994
366.056
329.416
286.383
244.417
213.453
200.652
116.628
162.158
162.045
161.848
160.807
160.231
160.173
160.586
163.149
178.137
206.966
246.551
295.409
350.527
405.877
452.501
481.886
488.353
470.961
433.362
382.031
323.711
266.523
222.211
201.704
107.658
162.647
164.227
164.643
162.714
160.757
160.063
160.024
160.807
171.207
200.114
244.426
302.756
372.455
446.137
510.674
553.226
564.583
542.938
494
428.132
355.556
285.387
229.884
202.67
98.3826
162.09
167.197
169.263
166.765
162.862
160.369
159.851
160.042
164.927
189.016
233.712
296.948
376.818
465.647
547.056
603.749
622.286
598.919
541.454
463.857
379.819
299.717
235.843
203.45
89.0158
160.301
170.32
175.273
173.165
167.45
162.158
159.887
159.652
160.875
176.436
216.378
278.764
362.587
460.408
555.065
624.941
654.294
631.581
570.547
486.48
395.437
309.127
239.923
204.027
79.5989
157.181
172.879
181.611
181.276
174.609
166.522
161.017
159.534
159.528
166.291
195.979
251.466
331.739
431.627
533.828
613.593
648.93
638.986
579.311
494.818
402.119
313.658
242.144
204.404
70.2451
152.562
174.684
187.554
190.351
184.094
173.967
164.736
159.97
159.271
160.551
176.987
220.312
289.943
383.636
486.77
574.133
622.178
619.422
568.069
489.625
400.37
313.655
242.65
204.625
61.1004
146.364
175.888
192.568
199.606
195.265
184.423
172.252
162.958
159.285
159.147
164.387
191.185
244.7
324.7
421.441
511.396
567.563
576.761
539.901
472.515
391.078
309.566
241.546
204.84
52.2676
138.168
175.996
196.341
208.51
207.609
197.591
183.615
170.432
161.697
158.988
159.07
169.83
203.805
264.222
347.112
434.943
499.141
520.037
499.017
445.703
375.407
301.941
239.03
205.053
43.8286
128.43
174.592
198.821
216.608
220.626
213.225
199.115
183.026
169.18
160.983
158.866
160.116
174.175
211.846
273.939
351.67
421.69
456.291
449.847
412.12
354.94
291.53
235.442
205.269
35.8523
117.362
171.296
199.999
223.465
233.648
230.622
218.492
201.467
183.684
168.976
160.772
158.787
160.744
175.652
213.207
271.626
338.781
387.447
397.08
374.799
331.532
279.295
231.202
205.491
28.4132
105.165
165.787
199.671
228.566
245.769
248.78
240.722
225.197
205.852
186.287
170.146
161.089
158.715
160.421
173.87
207.57
259.433
313.548
342.981
335.952
306.9
266.196
226.755
205.722
21.5328
91.6552
157.669
197.54
231.234
256.116
266.537
264.326
252.723
234.657
213.168
191.45
173.073
162.047
158.534
159.536
169.469
197.409
240.684
282.236
297.478
282.046
253.323
222.604
205.967
15.6155
76.8347
146.448
193.006
230.865
263.495
282.161
287.428
281.778
267.723
247.64
224.057
199.837
178.443
164.099
158.261
158.131
164.389
184.858
219.142
250.554
258.2
240.717
218.841
206.233
10.9587
61.279
131.66
185.115
227.019
266.223
293.855
307.732
309.6
301.73
285.987
264.288
238.766
212.016
187.281
168.391
158.831
156.606
159.222
171.953
197.112
223.653
231.968
218.219
206.558
7.56441
46.183
113.671
173.097
219.399
263.109
299.518
322.441
332.871
332.417
323.057
306.131
283.164
255.964
226.868
198.851
175.51
161.094
155.55
155.458
160.898
175.755
196.959
208.994
207.331
5.16994
32.4914
93.0947
156.117
207.29
253.953
297.043
329.343
348.549
356.419
354.464
344.213
326.662
303.087
274.979
244.499
214.185
187.167
167.102
156.374
152.974
152.921
158.114
166.083
169.227
3.5356
20.8076
71.0363
133.654
189.364
238.543
285.386
325.801
354.502
370.975
377.257
374.488
363.863
346.566
323.166
295.24
264.678
233.661
204.63
180.244
163.452
153.327
148.027
145.963
145.625
2.48767
11.8764
48.6197
106.182
164.498
216.414
264.838
309.895
347.108
373.174
387.998
392.784
389.533
379.738
363.606
341.42
315.049
286.183
256.987
229.303
205.203
186.479
173.476
165.857
163.123
1.85225
6.54197
29.0824
76.021
132.502
186.523
236.024
282.417
324.321
358.45
382.75
395.897
399.749
396.41
389.22
374.506
354.779
330.752
305.073
279.686
255.541
234.66
218.736
208.402
203.613
1.49826
3.74807
14.9105
47.5405
95.9009
148.59
198.736
245.197
288.07
326.013
357.049
379.507
392.431
396.171
397.028
388.243
376.505
358.78
337.386
316.73
296.821
277.481
260.887
248.211
240.393
1.32575
2.36245
6.64401
24.3898
59.5725
105.164
153.14
198.964
241.293
279.624
313.09
340.487
361.298
374.729
380.836
381.186
375.743
364.351
348.038
331.167
316.417
301.223
287.496
275.6
265.856
1.25696
1.68357
3.24704
10.1172
30.229
62.9433
103.101
145.169
185.632
222.873
256.139
284.794
308.396
326.466
338.425
344.39
344.927
340.689
332.831
322.693
311.351
299.346
288.053
278.384
270.883
1.24575
1.38981
1.98362
3.71615
11.5469
29.7281
57.0655
90.0477
124.893
158.811
190.153
218.013
241.884
261.44
276.349
286.455
291.97
293.455
291.566
286.996
280.538
273.01
265.156
257.59
250.813
1.26206
1.30722
1.47707
1.91738
3.53298
9.95857
23.7349
44.0465
68.6865
95.1715
121.43
146.018
168.03
186.937
202.404
214.259
222.559
227.558
229.665
229.425
227.293
223.782
219.413
214.657
209.924
1.29951
1.30875
1.337
1.44476
1.59078
2.33279
5.94273
14.0353
27.0117
43.2704
61.209
79.4012
96.7569
112.518
126.179
137.451
146.244
152.632
156.808
159.034
159.68
159.094
157.572
155.421
152.917
1.34591
1.34489
1.34573
1.36276
1.4092
1.51783
1.63655
2.41377
5.34767
10.8855
19.0689
29.1139
39.806
50.3315
60.1025
68.7164
75.945
81.714
86.0553
89.076
90.9338
91.8168
91.9499
91.5135
90.6586
1.39434
1.39442
1.39018
1.38605
1.39314
1.42052
1.46269
1.54115
1.62471
1.69931
2.40459
4.21507
7.02954
10.6223
14.703
18.9648
23.1257
26.787
29.8127
32.176
33.9048
35.065
35.7391
36.0261
36.0272
1.44436
1.44698
1.44734
1.44441
1.44094
1.44155
1.45137
1.47345
1.50787
1.54448
1.60154
1.64986
1.69603
1.74249
1.78863
1.87969
2.17138
2.57452
3.01338
3.43177
3.79293
4.07862
4.28398
4.41392
4.47802
1.49884
1.50205
1.50565
1.50809
1.50864
1.50743
1.50748
1.50979
1.52178
1.5349
1.55596
1.58262
1.61121
1.64081
1.67035
1.70348
1.73963
1.77129
1.80096
1.83009
1.85886
1.88734
1.91555
1.94352
1.97134
1.56103
1.56336
1.56722
1.57203
1.57694
1.58103
1.58436
1.58733
1.5902
1.59618
1.60465
1.61586
1.63204
1.64977
1.66766
1.68818
1.71066
1.73439
1.75855
1.7829
1.80737
1.83193
1.85655
1.88123
1.90594
1.63347
1.63486
1.63781
1.64231
1.64814
1.65485
1.66196
1.66929
1.67628
1.68366
1.69175
1.70085
1.71098
1.72279
1.73633
1.75128
1.76748
1.78489
1.80336
1.82273
1.84284
1.86359
1.8848
1.90691
1.92946
1.7191
1.71942
1.72142
1.725
1.73009
1.73662
1.74439
1.75322
1.76286
1.77312
1.78394
1.79538
1.8074
1.82011
1.83365
1.84805
1.86329
1.87935
1.89619
1.91377
1.93202
1.95088
1.97028
1.99013
2.01039
1.83098
1.82953
1.82999
1.83216
1.83591
1.84115
1.84781
1.85577
1.86497
1.87528
1.88657
1.89875
1.91174
1.92547
1.93989
1.95499
1.97072
1.98705
2.00396
2.02141
2.03934
2.05773
2.07653
2.09569
2.11516
1.95915
1.95897
1.9608
1.96414
1.96879
1.97463
1.98158
1.98962
1.9987
2.00879
2.01984
2.0318
2.04461
2.05821
2.07256
2.08758
2.10323
2.11945
2.1362
2.15343
2.17109
2.18915
2.20755
2.22626
2.24524
2.2121
2.19313
2.18263
2.17761
2.17642
2.17808
2.18197
2.18769
2.19497
2.2036
2.21344
2.22438
2.2363
2.24913
2.26278
2.27719
2.29228
2.308
2.32429
2.34108
2.35833
2.37598
2.394
2.41231
2.43098
3.78246
3.64661
3.55108
3.48089
3.42794
3.38759
3.3569
3.33388
3.31708
3.30545
3.29815
3.29456
3.29414
3.29645
3.30112
3.30789
3.31649
3.3267
3.33834
3.35123
3.36521
3.38014
3.3959
3.41237
3.42956
207.672
207.99
138.143
161.373
150.751
139.013
145.562
145.478
154.354
165.037
172.116
185.972
204.063
209.519
218.738
237.716
239.103
243.427
259.134
255.574
255.29
265.82
262.812
261.184
245.43
241.485
238.664
205.773
202.343
199.452
150.462
148.212
146.112
89.6211
88.5301
87.4009
35.8296
35.5074
35.1003
4.50988
4.52785
4.53722
1.99577
2.01987
2.04378
1.92917
1.95091
1.97267
1.95074
1.97088
1.99079
2.02971
2.04801
2.0665
2.13369
2.15119
2.16886
2.26326
2.28027
2.2974
2.44823
2.46485
2.48156
3.44503
3.46074
3.47662
219.178
138.055
133.953
133.432
133.209
133.063
132.936
132.825
132.727
132.637
132.554
132.476
132.403
132.334
132.267
132.203
132.141
132.082
132.023
131.967
131.911
131.857
131.803
131.751
131.7
131.649
131.599
131.549
131.501
131.452
131.404
131.357
131.31
131.263
131.217
131.171
131.126
131.08
131.035
130.99
130.945
130.901
130.856
130.812
130.768
130.723
130.679
130.618
130.539
130.44
130.319
130.175
130.006
129.812
129.591
129.344
129.069
128.767
128.44
128.09
127.721
127.339
126.955
126.582
126.239
125.955
125.766
125.68
125.582
125.464
125.338
125.563
126.054
127.107
129.061
131.557
133.558
134.484
134.915
135.811
156.345
135.189
133.968
133.817
134.056
134.609
135.52
136.788
138.366
140.132
142.003
143.93
145.876
147.813
149.722
151.591
153.411
155.176
156.885
158.534
160.124
161.654
163.127
164.542
165.901
167.206
168.458
169.657
170.807
171.907
172.959
173.964
174.922
175.834
176.699
177.517
178.286
179.003
179.665
180.266
180.803
181.268
181.654
181.953
182.155
182.251
182.235
182.108
181.845
181.435
180.864
180.118
179.186
178.052
176.704
175.127
173.306
171.226
168.874
166.235
163.3
160.063
156.524
152.695
148.606
144.322
139.994
135.887
132.089
128.821
126.203
124.584
124.143
124.505
126.888
132.1
137.606
140.375
137.764
136.501
141.019
134.679
134.325
135.25
137.284
140.519
144.834
149.918
155.435
161.128
166.888
172.597
178.177
183.583
188.786
193.772
198.537
203.083
207.414
211.538
215.464
219.202
222.761
226.15
229.379
232.456
235.388
238.184
240.85
243.393
245.818
248.13
250.334
252.434
254.432
256.327
258.119
259.803
261.375
262.826
264.149
265.33
266.357
267.214
267.882
268.342
268.573
268.555
268.276
267.703
266.811
265.572
263.96
261.944
259.493
256.577
253.158
249.2
244.665
239.511
233.701
227.198
219.974
212.01
203.31
193.903
183.868
173.347
162.581
151.935
141.94
133.355
127.375
123.978
123.19
126.28
132.864
138.954
139.886
137.143
137.211
134.767
135.551
138.647
143.909
151.218
160.017
169.696
179.777
189.936
199.955
209.681
219.026
227.946
236.421
244.454
252.055
259.244
266.041
272.47
278.555
284.318
289.78
294.962
299.883
304.558
309.004
313.235
317.264
321.102
324.76
328.249
331.577
334.751
337.778
340.659
343.393
345.976
348.404
350.666
352.75
354.641
356.32
357.767
358.957
359.861
360.451
360.691
360.548
359.988
358.972
357.461
355.412
352.785
349.535
345.616
340.976
335.56
329.306
322.15
314.026
304.867
294.608
283.195
270.586
256.767
241.77
225.694
208.743
191.274
173.849
157.279
142.648
131.283
124.534
122.299
125.258
132.505
139.036
137.62
136.214
135.088
137.717
143.753
153.02
164.899
178.417
192.753
207.317
221.709
235.669
249.045
261.765
273.804
285.166
295.876
305.967
315.476
324.443
332.908
340.908
348.477
355.649
362.452
368.914
375.057
380.904
386.473
391.781
396.845
401.678
406.294
410.706
414.926
418.961
422.816
426.488
429.975
433.268
436.356
439.223
441.849
444.213
446.287
448.041
449.439
450.442
451.005
451.081
450.622
449.579
447.901
445.536
442.433
438.539
433.801
428.158
421.544
413.888
405.113
395.135
383.871
371.236
357.147
341.53
324.327
305.511
285.103
263.211
240.085
216.192
192.313
169.614
149.637
134.115
124.608
121.573
123.625
131.482
138.992
135.972
135.8
140.552
149.964
163.488
179.935
197.99
216.667
235.291
253.43
270.831
287.374
303.015
317.759
331.638
344.699
356.997
368.587
379.523
389.858
399.641
408.916
417.722
426.097
434.072
441.675
448.932
455.864
462.491
468.83
474.897
480.707
486.278
491.623
496.756
501.68
506.393
510.886
515.151
519.169
522.92
526.38
529.519
532.304
534.697
536.653
538.124
539.053
539.381
539.041
537.972
536.11
533.39
529.751
525.14
519.5
512.774
504.896
495.794
485.391
473.604
460.349
445.539
429.087
410.911
390.941
369.12
345.424
319.878
292.597
263.854
234.197
204.605
176.631
152.371
134.121
123.726
120.737
122.014
129.963
136.037
136.675
143.764
156.694
174.409
195.171
217.384
239.936
262.11
283.486
303.853
323.131
341.313
358.436
374.559
389.75
404.081
417.62
430.436
442.588
454.135
465.127
475.609
485.623
495.205
504.385
513.191
521.646
529.768
537.576
545.083
552.307
559.265
565.978
572.461
578.718
584.74
590.514
596.024
601.242
606.139
610.681
614.829
618.537
621.754
624.423
626.48
627.851
628.46
628.224
627.058
624.883
621.621
617.2
611.568
604.679
596.49
586.951
576.005
563.592
549.649
534.107
516.897
497.944
477.174
454.517
429.914
403.325
374.746
344.225
311.901
278.077
243.37
208.966
176.866
149.877
130.93
121.766
119.571
119.29
136.172
137.556
147.127
163.511
185.175
209.877
235.792
261.723
286.954
311.112
334.039
355.7
376.127
395.388
413.565
430.744
447.012
462.45
477.134
491.133
504.509
517.32
529.614
541.437
552.827
563.816
574.432
584.699
594.634
604.251
613.561
622.577
631.32
639.816
648.085
656.125
663.915
671.434
678.652
685.531
692.025
698.085
703.654
708.666
713.049
716.722
719.593
721.565
722.53
722.377
720.995
718.282
714.14
708.492
701.29
692.515
682.16
670.208
656.644
641.451
624.611
606.103
585.9
563.965
540.247
514.685
487.211
457.764
426.308
392.856
357.49
320.394
281.927
242.814
204.531
169.729
142.193
125.479
119.972
118.806
136.311
138.46
150.484
170.136
195.416
223.632
252.775
281.61
309.456
335.999
361.139
384.89
407.321
428.528
448.613
467.682
485.833
503.158
519.741
535.659
550.98
565.766
580.069
593.937
607.411
620.524
633.304
645.773
657.945
669.83
681.431
692.751
703.816
714.663
725.311
735.747
745.939
755.848
765.427
774.618
783.355
791.563
799.155
806.035
812.097
817.22
821.273
824.114
825.588
825.541
823.82
820.285
814.82
807.34
797.81
786.258
772.741
757.309
740.013
720.912
700.07
677.547
653.398
627.655
600.322
571.368
540.725
508.296
473.983
437.721
399.518
359.494
317.901
275.199
232.331
191.31
155.873
131.139
120.777
118.626
136.437
139.389
153.734
176.407
204.929
236.217
268.13
299.427
329.484
358.056
385.102
410.68
434.894
457.868
479.726
500.588
520.568
539.768
558.281
576.191
593.572
610.492
627.007
643.167
659.016
674.587
689.909
704.999
719.87
734.521
748.945
763.134
777.117
790.945
804.633
818.157
831.469
844.509
857.206
869.475
881.218
892.324
902.667
912.105
920.48
927.619
933.329
937.405
939.625
939.767
937.615
932.975
925.704
915.711
902.988
887.634
869.806
849.657
827.342
803.033
776.908
749.149
719.922
689.363
657.557
624.53
590.231
554.544
517.297
478.311
437.458
394.736
350.317
304.557
258.1
212.346
170.457
138.129
122.003
118.476
136.553
140.321
156.825
182.241
213.623
247.55
281.794
315.14
347.034
377.3
405.954
433.096
458.867
483.414
506.884
529.413
551.129
572.147
592.569
612.488
631.985
651.134
669.995
688.624
707.064
725.351
743.512
761.563
779.507
797.336
815.03
832.567
849.982
867.335
884.641
901.866
918.947
935.799
952.321
968.397
983.887
998.635
1012.46
1025.17
1036.52
1046.29
1054.19
1059.94
1063.21
1063.68
1061.06
1055.06
1045.51
1032.33
1015.55
995.385
972.132
946.08
917.532
886.808
854.24
820.154
784.853
748.591
711.552
673.827
635.402
596.149
555.839
514.177
470.872
425.737
378.794
330.322
280.842
231.36
184.369
145.479
123.481
118.348
136.661
141.244
159.743
187.626
221.491
257.64
293.797
328.797
362.163
393.789
423.743
452.17
479.24
505.126
529.995
554.002
577.288
599.98
622.192
644.026
665.571
686.905
708.098
729.206
750.276
771.346
792.44
813.57
834.735
855.917
877.084
898.203
919.304
940.459
961.688
982.957
1004.19
1025.27
1046.08
1066.46
1086.23
1105.18
1123.08
1139.64
1154.58
1167.54
1178.15
1186
1190.64
1191.63
1188.52
1180.94
1168.69
1151.72
1130.17
1104.41
1074.9
1042.1
1006.49
968.588
928.881
887.858
845.959
803.558
760.932
718.238
675.492
632.562
589.174
544.936
499.406
452.193
403.11
352.304
300.243
247.737
196.723
152.41
124.989
118.231
136.763
142.167
162.518
192.612
228.604
266.572
304.232
340.492
374.959
407.595
438.52
467.915
495.981
522.914
548.901
574.111
598.699
622.805
646.552
670.051
693.399
716.68
739.968
763.324
786.798
810.427
834.235
858.231
882.409
906.744
931.196
955.723
980.346
1005.14
1030.15
1055.33
1080.62
1105.88
1130.96
1155.69
1179.83
1203.15
1225.33
1246.02
1264.82
1281.29
1294.93
1305.16
1311.39
1312.99
1309.38
1299.97
1284.72
1263.74
1237.13
1205.51
1169.52
1129.85
1087.16
1042.14
995.455
947.719
899.499
851.265
803.368
756.015
709.245
662.92
616.726
570.198
522.772
473.886
423.131
370.464
316.29
261.347
207.171
158.473
126.356
118.121
136.861
143.116
165.234
197.327
235.11
274.497
313.244
350.356
385.529
418.795
450.322
480.324
509.029
536.653
563.396
589.441
614.955
640.085
664.963
689.706
714.416
739.182
764.081
789.178
814.522
840.151
866.088
892.34
918.897
945.731
972.796
1000.04
1027.48
1055.18
1083.2
1111.53
1140.08
1168.72
1197.3
1225.62
1253.42
1280.42
1306.25
1330.49
1352.64
1372.11
1388.22
1400.22
1407.49
1409.51
1405.8
1395.77
1377.89
1353.66
1322.73
1286.02
1244.45
1198.94
1150.34
1099.48
1047.13
994.018
940.78
887.949
835.922
784.935
735.039
686.092
637.753
589.506
540.705
490.661
438.788
384.838
329.11
272.324
215.752
163.569
127.51
118.015
136.955
144.19
168.088
202.021
241.266
281.646
321.027
358.541
393.986
427.46
459.175
489.375
518.306
546.199
573.264
599.692
625.654
651.303
676.773
702.185
727.642
753.235
779.042
805.125
831.533
858.303
885.455
912.993
940.904
969.157
997.703
1026.49
1055.5
1084.8
1114.46
1144.47
1174.75
1205.19
1235.6
1265.8
1295.53
1324.46
1352.21
1378.27
1401.91
1421.9
1435.58
1443.25
1446.02
1445.87
1444.54
1442.14
1429.74
1404.51
1371.59
1332.08
1287.33
1238.5
1186.59
1132.5
1077.07
1021.05
965.124
909.843
855.623
802.714
751.174
700.861
651.429
602.34
552.907
502.373
450.038
395.479
338.868
280.908
222.697
167.861
128.522
117.911
137.045
145.47
171.369
207.067
247.425
288.315
327.807
365.209
400.433
433.64
465.081
495.022
523.72
551.412
578.312
604.611
630.48
656.069
681.511
706.922
732.405
758.046
783.916
810.077
836.574
863.438
890.684
918.312
946.305
974.63
1003.23
1032.06
1061.07
1090.31
1119.84
1149.65
1179.66
1209.76
1239.78
1269.53
1298.74
1327.12
1354.29
1379.79
1402.97
1423.37
1437.13
1442.2
1444.2
1445.41
1445
1440.33
1427.88
1404.51
1372.38
1333.42
1289.13
1240.71
1189.19
1135.48
1080.41
1024.73
969.126
914.142
860.195
807.536
756.233
706.156
656.973
608.162
559.039
508.837
456.811
402.427
345.728
287.369
228.333
171.679
129.593
117.809
137.194
147.58
175.741
213.014
253.998
294.796
333.786
370.487
404.931
437.345
468.009
497.199
525.173
552.165
578.385
604.018
629.225
654.149
678.914
703.629
728.389
753.27
778.339
803.647
829.233
855.121
881.318
907.82
934.604
961.635
988.856
1016.2
1043.65
1071.19
1098.86
1126.64
1154.44
1182.18
1209.68
1236.76
1263.19
1288.68
1312.9
1335.49
1356
1373.84
1389.28
1400.44
1406.9
1408.75
1405.07
1395.07
1378.25
1354.64
1324.72
1289.19
1248.85
1204.55
1157.12
1107.38
1056.12
1004.04
951.786
899.878
848.715
798.541
749.432
701.281
653.789
606.481
558.723
509.793
458.966
405.679
349.873
292.12
233.314
175.835
131.296
117.711
137.5
150.561
181.858
220.516
261.38
301.243
338.976
374.322
407.397
438.464
467.823
495.752
522.504
548.303
573.346
597.8
621.814
645.513
669.01
692.399
715.763
739.17
762.674
786.316
810.126
834.118
858.293
882.642
907.142
931.753
956.422
981.085
1005.7
1030.26
1054.76
1079.16
1103.38
1127.34
1150.9
1173.87
1196.06
1217.25
1237.15
1255.47
1271.89
1286
1297.58
1306.2
1311.27
1312.05
1308.02
1298.76
1284.09
1264.04
1238.83
1208.85
1174.61
1136.7
1095.78
1052.51
1007.55
961.502
914.93
868.294
821.945
776.107
730.851
686.093
641.583
596.915
551.544
504.846
456.183
405.054
351.385
295.694
238.924
182.562
135.62
117.621
139.611
158.518
192.195
230.691
269.928
307.637
343.161
376.422
407.566
436.818
464.434
490.678
515.8
540.012
563.487
586.373
608.794
630.859
652.66
674.279
695.782
717.226
738.654
760.096
781.571
803.086
824.638
846.214
867.793
889.34
910.803
932.124
953.256
974.176
994.862
1015.28
1035.36
1055.02
1074.15
1092.59
1110.2
1126.79
1142.15
1156.06
1168.28
1178.55
1186.61
1192.2
1194.99
1194.55
1190.47
1182.4
1170.19
1153.78
1133.3
1108.94
1081.03
1049.96
1016.18
980.181
942.453
903.465
863.647
823.362
782.889
742.402
701.96
661.493
620.798
579.551
537.319
493.613
447.938
399.931
349.647
297.711
245.446
194.108
146.843
119.197
149.604
175.651
208.562
244.131
279.708
313.838
346.116
376.508
405.114
432.086
457.596
481.847
505.048
527.388
549.019
570.065
590.625
610.786
630.623
650.199
669.568
688.772
707.845
726.81
745.676
764.445
783.109
801.658
820.073
838.325
856.37
874.159
891.649
908.808
925.611
942.024
957.999
973.465
988.333
1002.5
1015.84
1028.22
1039.49
1049.5
1058.07
1065.03
1070.2
1073.41
1074.44
1073.05
1068.97
1061.93
1051.79
1038.5
1022.08
1002.65
980.384
955.53
928.381
899.256
868.485
836.39
803.266
769.364
734.873
699.908
664.499
628.582
591.996
554.496
515.767
475.466
433.257
388.959
342.829
295.74
249.246
205.751
166.6
132.226
173.344
199.857
228.78
259.287
289.7
319.138
347.309
374.124
399.605
423.817
446.851
468.828
489.886
510.159
529.756
548.772
567.288
585.369
603.072
620.447
637.535
654.366
670.968
687.355
703.533
719.497
735.239
750.751
766.019
781.02
795.724
810.093
824.092
837.691
850.867
863.591
875.827
887.526
898.625
909.051
918.718
927.534
935.395
942.194
947.818
952.149
955.074
956.478
956.229
954.188
950.178
944.033
935.631
924.908
911.855
896.518
878.99
859.407
837.937
814.769
790.099
764.117
736.997
708.886
679.887
650.055
619.387
587.821
555.235
521.458
486.284
449.501
410.913
370.521
328.785
286.634
245.356
206.388
171.706
143.97
203.501
225.45
248.575
273.073
297.74
322.021
345.646
368.461
390.422
411.528
431.806
451.292
470.036
488.099
505.543
522.428
538.808
554.734
570.246
585.383
600.174
614.646
628.818
642.701
656.296
669.594
682.59
695.276
707.646
719.685
731.373
742.685
753.597
764.086
774.132
783.715
792.809
801.382
809.394
816.795
823.53
829.538
834.752
839.1
842.509
844.904
846.21
846.353
845.26
842.84
838.989
833.599
826.583
817.877
807.448
795.298
781.461
766.002
749.001
730.551
710.749
689.685
667.439
644.072
619.621
594.092
567.461
539.671
510.639
480.261
448.431
415.047
380.046
343.608
306.307
269.017
232.785
198.789
168.181
141.955
231.215
246.869
263.936
282.435
301.478
320.66
339.704
358.43
376.747
394.61
411.987
428.832
445.116
460.843
476.036
490.723
504.934
518.699
532.045
544.997
557.579
569.809
581.705
593.274
604.512
615.411
625.964
636.171
646.027
655.527
664.659
673.409
681.761
689.7
697.212
704.283
710.897
717.035
722.669
727.771
732.306
736.233
739.51
742.093
743.933
744.981
745.192
744.519
742.91
740.309
736.65
731.864
725.887
718.663
710.148
700.31
689.145
676.67
662.908
647.889
631.64
614.185
595.541
575.713
554.695
532.469
509.004
484.26
458.197
430.78
401.991
371.821
340.324
307.81
274.87
242.266
210.828
181.401
154.786
131.737
250.657
260.545
272.145
285.242
299.13
313.539
328.225
342.997
357.731
372.339
386.733
400.815
414.516
427.801
440.66
453.098
465.123
476.748
487.986
498.851
509.357
519.517
529.343
538.841
548.005
556.823
565.292
573.412
581.184
588.605
595.671
602.374
608.705
614.654
620.212
625.369
630.117
634.442
638.329
641.759
644.71
647.157
649.074
650.43
651.193
651.335
650.823
649.62
647.692
644.997
641.492
637.125
631.845
625.604
618.351
610.036
600.628
590.111
578.478
565.72
551.825
536.781
520.571
503.175
484.572
464.74
443.664
421.335
397.763
372.979
347.04
320.013
292.053
263.522
234.963
207.004
180.281
155.399
132.868
113.107
258.087
263.166
270.096
278.56
288.084
298.369
309.195
320.376
331.764
343.238
354.684
365.998
377.096
387.924
398.448
408.653
418.528
428.074
437.293
446.188
454.767
463.036
471.003
478.671
486.034
493.078
499.799
506.199
512.278
518.035
523.468
528.573
533.343
537.772
541.854
545.582
548.949
551.948
554.567
556.794
558.615
560.013
560.969
561.462
561.473
560.974
559.937
558.336
556.141
553.321
549.838
545.652
540.719
534.994
528.429
520.966