/*--------------------------------*- C++ -*----------------------------------*\
| =========                 |                                                 |
| \\      /  F ield         | OpenFOAM: The Open Source CFD Toolbox           |
|  \\    /   O peration     | Version:  v2012                                 |
|   \\  /    A nd           | Website:  www.openfoam.com                      |
|    \\/     M anipulation  |                                                 |
\*---------------------------------------------------------------------------*/
FoamFile
{
    version     2.0;
    format      ascii;
    class       volScalarField;
    location    "643";
    object      k;
}
// * * * * * * * * * * * * * * * * * * * * * * * * * * * * * * * * * * * * * //

dimensions      [0 2 -2 0 0 0 0];


internalField   nonuniform List<scalar> 
6532
(
2.02707
2.56226
2.66206
2.68868
2.70133
2.70133
2.68868
2.66206
2.56226
2.02707
1.11562
1.79792
1.98903
2.05134
2.0715
2.0715
2.05134
1.98903
1.79792
1.11562
0.703229
1.316
1.53187
1.61473
1.64303
1.64303
1.61473
1.53187
1.316
0.703229
0.487398
1.00264
1.21199
1.30249
1.33614
1.33614
1.3025
1.21199
1.00264
0.487398
0.361234
0.790257
0.981671
1.07183
1.10773
1.10773
1.07183
0.981672
0.790258
0.361234
0.280991
0.640403
0.811279
0.89687
0.932712
0.932712
0.896871
0.811281
0.640405
0.280991
0.226524
0.530817
0.682027
0.761192
0.795557
0.795558
0.761193
0.682029
0.530819
0.226524
0.187627
0.448168
0.581753
0.653948
0.686099
0.6861
0.653949
0.581755
0.44817
0.187628
0.15871
0.384174
0.502399
0.567765
0.597407
0.597408
0.567767
0.502402
0.384177
0.158711
0.136508
0.333503
0.438492
0.497496
0.5246
0.524601
0.497499
0.438496
0.333508
0.13651
0.119008
0.29261
0.386233
0.439466
0.464144
0.464145
0.43947
0.386239
0.292617
0.11901
0.104913
0.259065
0.342923
0.390999
0.413431
0.413433
0.391005
0.342931
0.259074
0.104916
0.093354
0.231158
0.306603
0.350109
0.370502
0.370505
0.350117
0.306614
0.23117
0.093358
0.0837294
0.207656
0.275827
0.315298
0.333859
0.333863
0.315309
0.275842
0.207673
0.0837348
0.0756112
0.187654
0.249507
0.28542
0.302346
0.302352
0.285435
0.249528
0.187676
0.0756185
0.0686868
0.170469
0.226812
0.259586
0.275057
0.275065
0.259607
0.226841
0.170499
0.0686966
0.0627232
0.155584
0.207098
0.237098
0.251276
0.251287
0.237127
0.207136
0.155623
0.0627362
0.0575431
0.142593
0.189857
0.217402
0.230429
0.230444
0.217442
0.189908
0.142642
0.0575597
0.0530095
0.131179
0.174685
0.20005
0.212055
0.212076
0.200106
0.174756
0.131239
0.0530298
0.0490139
0.121085
0.161251
0.184674
0.195766
0.195795
0.184751
0.161343
0.121119
0.0490366
0.0454032
0.111948
0.149091
0.170756
0.181024
0.181064
0.170866
0.14923
0.112062
0.0457181
0.0421904
0.103793
0.13823
0.158319
0.167848
0.167904
0.158473
0.138438
0.10402
0.0439145
0.0393165
0.0964844
0.128496
0.147173
0.156043
0.156118
0.147381
0.128789
0.0969445
0.0433287
0.0367327
0.0899029
0.119733
0.137142
0.145423
0.145518
0.137402
0.120082
0.0907846
0.0439955
0.0343987
0.0839497
0.111811
0.128078
0.13583
0.135941
0.128366
0.112218
0.0855698
0.0459527
0.0322808
0.0785417
0.10462
0.119856
0.127131
0.127261
0.12017
0.105189
0.0812838
0.0489717
0.0303507
0.0736088
0.0980673
0.11237
0.119218
0.119376
0.112778
0.0989741
0.0777885
0.0526977
0.0285845
0.0690911
0.0920744
0.10553
0.111997
0.112198
0.106108
0.0935026
0.0750397
0.0567501
0.0269616
0.0649371
0.0865729
0.0992606
0.105389
0.105653
0.100085
0.0886982
0.0729186
0.0601952
0.0254642
0.0611029
0.0815042
0.0934944
0.0993258
0.0996739
0.0946419
0.0844853
0.071287
0.0628108
0.0240769
0.0575495
0.0768174
0.0881744
0.0937474
0.0942009
0.0897177
0.080787
0.0699996
0.0646898
0.0227864
0.0542429
0.0724684
0.0832508
0.0886019
0.0891813
0.0852541
0.0775183
0.0688578
0.0659054
0.0215805
0.0511532
0.068418
0.0786797
0.0838431
0.0845672
0.0811958
0.0745959
0.0677763
0.0665338
0.0204487
0.0482543
0.064632
0.0744226
0.0794304
0.0803152
0.0774918
0.0719505
0.0666863
0.0666395
0.0193816
0.0455229
0.0610801
0.0704455
0.0753272
0.0763859
0.0740948
0.0695208
0.0655356
0.0662762
0.0183706
0.0429387
0.0577356
0.0667182
0.0715014
0.072744
0.0709626
0.0672548
0.0642892
0.0654917
0.017408
0.040484
0.0545752
0.0632148
0.0679247
0.0693583
0.0680584
0.0651114
0.0629299
0.0643354
0.0164874
0.0381455
0.0515813
0.0599154
0.0645757
0.0662048
0.0653544
0.0630634
0.0614604
0.0628667
0.0156348
0.0359852
0.0488291
0.0568989
0.0615308
0.0633508
0.0629043
0.0611558
0.0599494
0.0612088
0.01481
0.033908
0.0462008
0.0540384
0.0586616
0.0606742
0.0606012
0.0593149
0.0583808
0.0593966
0.0140083
0.0319027
0.0436776
0.0513109
0.0559432
0.0581498
0.0584248
0.0575368
0.0567884
0.0575056
0.0132257
0.0299618
0.0412471
0.0487012
0.053359
0.0557615
0.0563638
0.0558272
0.055214
0.0556194
0.0124587
0.0280785
0.0388971
0.0461937
0.0508916
0.0534921
0.0544067
0.0541921
0.0536972
0.0538173
0.011704
0.0262466
0.0366147
0.0437708
0.048521
0.0513219
0.0525392
0.0526326
0.0522678
0.0521646
0.0109586
0.02446
0.0343861
0.0414126
0.0462234
0.0492262
0.0507405
0.0511404
0.0509382
0.0507016
0.0102199
0.0227129
0.032196
0.0390956
0.0439696
0.0471731
0.0489808
0.0496931
0.0496986
0.0494348
0.00948503
0.0209992
0.0300277
0.0367924
0.0417245
0.0451228
0.0472189
0.0482518
0.0485127
0.0483319
0.00875121
0.0193128
0.0278627
0.0344714
0.0394458
0.0430259
0.0454013
0.04676
0.0473186
0.0473219
0.00801526
0.0176475
0.0256815
0.0320972
0.0370853
0.0408244
0.0434627
0.0451453
0.0460319
0.0463013
0.0072733
0.015997
0.0234643
0.0296327
0.0345903
0.0384538
0.041329
0.0433231
0.0445521
0.0451444
0.00652012
0.0143547
0.0211923
0.0270417
0.0319086
0.0358482
0.038923
0.0412042
0.0427724
0.043717
0.00574795
0.0127108
0.018854
0.0242991
0.0289982
0.032951
0.0361749
0.0387055
0.0405917
0.0418924
0.00494379
0.0110414
0.0164366
0.0213972
0.0258443
0.0297335
0.0330414
0.0357681
0.0379338
0.0395685
0.00407187
0.00946944
0.0140191
0.0183869
0.0224826
0.0262188
0.0295307
0.0323837
0.0347675
0.0366875
0.00314625
0.00812942
0.0118713
0.0155197
0.0191134
0.0225614
0.0257606
0.0286362
0.0311473
0.0332697
0.00217872
0.00689209
0.010133
0.013121
0.0161191
0.0191213
0.0220388
0.0247813
0.0272766
0.0294753
0.00114812
0.00546787
0.00858337
0.0112286
0.0137689
0.0163123
0.0188399
0.0212881
0.0235904
0.0256894
0.000884947
0.00369439
0.00685077
0.00951104
0.0119124
0.0141862
0.0163703
0.0184535
0.0204135
0.022222
0.000854229
0.0021548
0.00508262
0.00765795
0.0100727
0.0121915
0.0140926
0.0157818
0.0172924
0.0186444
0.000957085
0.00169385
0.00261367
0.00390084
0.0053399
0.00645713
0.00735632
0.00813946
0.00880886
0.00937272
0.0096665
0.00332429
0.00340217
0.00360409
0.0037715
0.00388169
0.00392521
0.00390265
0.00381487
0.00367693
0.0035055
0.00330087
0.00306635
0.00281491
0.00255523
0.00229183
0.00202632
0.00178035
0.00155882
0.00135128
0.00115197
0.000956256
0.000758542
0.000549792
0.000297448
0.0189094
0.00826202
0.00729893
0.0074459
0.00770413
0.00790358
0.00799564
0.00796053
0.00778818
0.00747426
0.00707417
0.00661843
0.0061299
0.00562839
0.00512798
0.00463799
0.00416156
0.00368085
0.0031969
0.00271632
0.00224985
0.00181206
0.00142507
0.00108076
0.000548922
0.028244
0.0137429
0.0104239
0.00976403
0.00970626
0.00972938
0.00969118
0.00954424
0.00927133
0.00886425
0.00835203
0.00778365
0.00718667
0.00658307
0.00599076
0.00542291
0.00488502
0.00436849
0.00386113
0.00335328
0.00283782
0.00231916
0.00182264
0.00136103
0.000666663
0.0384652
0.0208755
0.0141774
0.0121558
0.0114286
0.0110546
0.0107404
0.0103911
0.00997143
0.00946875
0.00887813
0.00824307
0.00759257
0.00694521
0.00631804
0.00572441
0.00517047
0.00465122
0.00415289
0.00365888
0.00315074
0.00261743
0.00206813
0.00151477
0.000722792
0.0484417
0.0300406
0.019328
0.0151038
0.0133384
0.0123564
0.0116516
0.0110317
0.0104262
0.00980613
0.00915807
0.00847506
0.00779155
0.00712112
0.00647623
0.00586932
0.00530697
0.00478638
0.00429489
0.00381336
0.00331864
0.00278985
0.00221975
0.00160357
0.000742197
0.0557361
0.0393458
0.0256222
0.0187717
0.0156506
0.0138828
0.012663
0.0117046
0.0108733
0.01011
0.00938382
0.00867482
0.00796836
0.00727707
0.00661234
0.00598633
0.00540678
0.00487431
0.00437871
0.00389939
0.00341119
0.00288793
0.00231044
0.00165387
0.000741313
0.0608098
0.0481673
0.0326997
0.0233019
0.0185018
0.0157665
0.0139386
0.0125546
0.0114393
0.0104947
0.00966467
0.00890895
0.00819391
0.00749506
0.0068003
0.00614188
0.00552694
0.00496459
0.00444897
0.00395841
0.00346639
0.00294348
0.00236172
0.00167892
0.000728754
0.0645763
0.0551999
0.0396643
0.0286434
0.0220013
0.0180873
0.015526
0.0136634
0.0122016
0.0110228
0.0100534
0.00922777
0.00848722
0.00778048
0.00707578
0.00637553
0.00569975
0.00508566
0.00452998
0.00401261
0.00350495
0.00297496
0.00238735
0.0016859
0.000708309
0.0673812
0.0607999
0.0461481
0.0341535
0.0259767
0.0208427
0.0174368
0.0150248
0.0131882
0.0117313
0.0105788
0.00965385
0.00887102
0.00814934
0.0074256
0.00668079
0.00594453
0.00525848
0.00463964
0.00407698
0.00353895
0.00299329
0.00239606
0.00167928
0.0006816
0.069406
0.0650701
0.0520608
0.0396129
0.0302748
0.023992
0.0197052
0.0166614
0.0144
0.0126382
0.0112623
0.0102021
0.00935397
0.00860814
0.00786592
0.00707567
0.00625869
0.00547765
0.00477508
0.00415257
0.00357708
0.00300868
0.00239771
0.00166633
0.000651776
0.0707709
0.0682233
0.057193
0.0448119
0.0347728
0.0274251
0.0222724
0.0185837
0.0158539
0.0137567
0.0121306
0.0108937
0.00994525
0.00916159
0.00840878
0.00758439
0.0066768
0.0057696
0.00494946
0.00424404
0.00361613
0.00301716
0.00238855
0.00164294
0.000626517
0.0715852
0.0704641
0.0613928
0.0495169
0.0391376
0.0309658
0.0250499
0.0207572
0.0175685
0.0151251
0.0132098
0.0117615
0.0106716
0.00982257
0.00906015
0.00822718
0.00724123
0.00617903
0.0051935
0.0043647
0.00366164
0.00302031
0.00236827
0.00160716
0.000602098
0.0719053
0.0719
0.064588
0.0536491
0.0431554
0.0344761
0.0279475
0.0231281
0.019526
0.016754
0.0145636
0.0128564
0.0115778
0.0106124
0.00981765
0.00900378
0.00798974
0.00676891
0.00556288
0.00453891
0.00372155
0.00302037
0.0023374
0.00155971
0.000576536
0.0717453
0.0725978
0.0668504
0.0571124
0.0467899
0.0379427
0.0308959
0.0256366
0.0216866
0.018631
0.0161902
0.0142429
0.0127301
0.0115795
0.0106863
0.00987924
0.00891644
0.00761231
0.00615108
0.00484704
0.00383839
0.0030355
0.00230221
0.00150342
0.000549099
0.0711131
0.0726138
0.0682616
0.0598195
0.0499172
0.041059
0.0337714
0.0282112
0.0240032
0.0207328
0.0181003
0.0159515
0.0142082
0.0128192
0.0117234
0.0108258
0.00992962
0.00871685
0.00710065
0.00544233
0.00410052
0.00310794
0.00228197
0.00144745
0.000520439
0.0700237
0.0719931
0.0688689
0.0616989
0.0526037
0.0438942
0.0366064
0.0308146
0.0264276
0.0230196
0.0202782
0.0180107
0.0160942
0.0144592
0.0130851
0.0119369
0.0109429
0.00986806
0.00838461
0.00648598
0.00464207
0.00331497
0.00232188
0.00141771
0.000493775
0.068505
0.0707822
0.0687262
0.0628118
0.0547615
0.0463791
0.0391859
0.0333818
0.0289035
0.0254389
0.0226781
0.0203995
0.0184209
0.0166305
0.0149843
0.0134857
0.0121528
0.0109534
0.00964276
0.00792255
0.0058318
0.00382798
0.00250656
0.00147483
0.000478438
0.0666065
0.06904
0.0678912
0.0631931
0.0562583
0.048583
0.0415673
0.035866
0.0313812
0.02793
0.0252313
0.0230472
0.0211469
0.0193632
0.0175929
0.0158026
0.0140347
0.0123407
0.0107808
0.00914307
0.00727563
0.00521
0.00315656
0.00178858
0.000507767
0.0644626
0.0669034
0.0664747
0.0628921
0.0570732
0.0503078
0.0436958
0.0381412
0.0337934
0.0303878
0.0278049
0.025798
0.0241096
0.0225271
0.0208843
0.0190709
0.0170422
0.0148313
0.0125825
0.0103819
0.0082537
0.00622465
0.00444455
0.00281283
0.000847365
0.062112
0.0644272
0.0645493
0.0619712
0.0572637
0.051455
0.0455468
0.0402315
0.0359974
0.0327442
0.0302684
0.0284555
0.0270394
0.0257858
0.0244896
0.0229769
0.0211114
0.0188096
0.016071
0.0130441
0.00994164
0.00711673
0.0048095
0.00311192
0.00215547
0.0596445
0.0617074
0.0621996
0.0604886
0.0568477
0.0520319
0.0468907
0.0421069
0.0380642
0.0349198
0.0326109
0.0309567
0.0298048
0.0289199
0.0280897
0.0271209
0.0258306
0.0240429
0.0216088
0.0184648
0.0147131
0.0108072
0.00734992
0.00489279
0.00364769
0.0571695
0.0588697
0.0595429
0.0585239
0.0558495
0.0520235
0.047712
0.0435204
0.0398575
0.0369228
0.0347235
0.0332329
0.0322655
0.0316834
0.0312853
0.0308935
0.0303407
0.0294453
0.0280018
0.0257978
0.0226885
0.0187781
0.0144758
0.0106566
0.00783526
0.0548005
0.0560567
0.0567262
0.0561936
0.0543346
0.0514305
0.0479628
0.0444288
0.0412181
0.0385656
0.0365657
0.0352106
0.0343832
0.0339721
0.0338624
0.0338945
0.0339356
0.0338467
0.0334754
0.0326387
0.0311779
0.0289624
0.0260385
0.0225896
0.0188837
0.0526419
0.0534161
0.0539218
0.0536562
0.0524156
0.0503085
0.0476428
0.0447929
0.0420945
0.0397868
0.0380041
0.036787
0.0360899
0.0358093
0.0358267
0.0360847
0.0364731
0.0368807
0.0371929
0.0372818
0.0370101
0.036269
0.0349724
0.0330808
0.0306067
0.0507725
0.0510811
0.0513108
0.0511065
0.0502598
0.0487693
0.0468007
0.0446052
0.0424434
0.0405281
0.0390033
0.0379417
0.0373426
0.0371438
0.0372527
0.037577
0.0381075
0.0387675
0.0394581
0.0400565
0.0404326
0.0404971
0.0401637
0.0393626
0.0380526
0.0492297
0.0491459
0.049055
0.0487529
0.0480808
0.0469921
0.0455559
0.0439199
0.0422619
0.0407483
0.0395094
0.038627
0.0381265
0.0379791
0.0381166
0.0384858
0.0390579
0.0397997
0.0406419
0.0414915
0.0422476
0.0428153
0.043107
0.0430491
0.0425919
0.0479983
0.0476432
0.0472621
0.046778
0.0461069
0.0452088
0.0441067
0.0428767
0.0416258
0.0404676
0.0395028
0.0388055
0.0384107
0.0383107
0.0384553
0.0388034
0.039351
0.0400751
0.0409356
0.0418719
0.0428117
0.043676
0.044385
0.0448663
0.0450642
0.0470074
0.0465309
0.0459554
0.0452919
0.0445286
0.0436599
0.042702
0.041697
0.0407068
0.0398017
0.0390488
0.0385029
0.0381972
0.0381348
0.0382833
0.0385882
0.0390563
0.0396813
0.0404503
0.0413369
0.0422883
0.0432535
0.044174
0.0449885
0.0456392
0.0461365
0.0456931
0.04506
0.0442956
0.0434394
0.0425221
0.041576
0.0406392
0.0397549
0.038968
0.038321
0.0378493
0.0375768
0.0375102
0.0376326
0.0378875
0.0382654
0.0387659
0.0393828
0.040107
0.0409292
0.0418195
0.0427332
0.0436333
0.0444758
0.0452312
0.0449574
0.0444128
0.0436713
0.0427961
0.0418437
0.040866
0.0399105
0.03902
0.0382322
0.0375784
0.0370829
0.0367614
0.0366207
0.0366541
0.0368333
0.0371065
0.0374694
0.0379215
0.038457
0.0390697
0.0397549
0.0405059
0.0412929
0.0420836
0.0441226
0.0441222
0.0437929
0.0432041
0.0424237
0.0415181
0.0405497
0.0395756
0.0386448
0.0377978
0.037066
0.0364718
0.0360292
0.0357444
0.0356167
0.0356358
0.035776
0.0360034
0.036288
0.0366328
0.0370366
0.0374946
0.0380026
0.0385584
0.039151
0.04265
0.0429855
0.0429598
0.0426307
0.0420591
0.0413081
0.0404404
0.0395156
0.0385869
0.0376992
0.0368881
0.0361798
0.0355915
0.0351328
0.0348069
0.0346118
0.034539
0.034573
0.0346925
0.0348739
0.035089
0.0353399
0.0356248
0.0359441
0.0362918
0.0406768
0.0413688
0.0416912
0.0416882
0.0414091
0.0409071
0.0402382
0.0394575
0.038617
0.0377629
0.0369336
0.0361595
0.0354626
0.0348576
0.0343528
0.0339518
0.0336538
0.0334542
0.0333445
0.0333122
0.0333418
0.0334225
0.0335423
0.0336775
0.0338286
0.0381105
0.039141
0.0398123
0.0401557
0.0402082
0.0400117
0.0396121
0.0390566
0.0383917
0.0376605
0.0369013
0.0361459
0.0354197
0.0347418
0.0341252
0.0335786
0.0331063
0.0327097
0.0323875
0.0321354
0.0319475
0.0318169
0.031735
0.0316895
0.0316732
0.0349394
0.0362539
0.037234
0.0378991
0.0382749
0.0383927
0.0382881
0.0379995
0.0375659
0.0370252
0.0364122
0.0357578
0.0350881
0.0344241
0.0337822
0.0331744
0.0326092
0.032092
0.0316258
0.0312113
0.0308477
0.0305327
0.0302626
0.0300328
0.0298393
0.0312833
0.0327867
0.0339931
0.0349111
0.035556
0.0359488
0.036116
0.0360874
0.0358945
0.035569
0.0351411
0.0346386
0.034086
0.0335044
0.0329112
0.0323203
0.0317425
0.0311857
0.0306559
0.0301566
0.0296901
0.0292573
0.0288579
0.0284912
0.0281568
0.0274743
0.0290162
0.0303096
0.0313521
0.0321516
0.0327218
0.0330807
0.0332499
0.0332537
0.033117
0.0328643
0.0325192
0.0321031
0.0316355
0.0311327
0.0306089
0.0300755
0.0295418
0.0290148
0.0285001
0.0280015
0.0275218
0.0270627
0.0266252
0.0262115
0.0237871
0.0251744
0.0263769
0.0273874
0.0281917
0.0287936
0.0292107
0.0294604
0.0295611
0.0295317
0.0293915
0.0291589
0.0288514
0.0284848
0.0280735
0.0276297
0.0271641
0.0266855
0.0262011
0.0257166
0.0252367
0.0247646
0.0243031
0.0238542
0.0234208
0.019792
0.0207986
0.021657
0.0223631
0.0229251
0.0233479
0.023641
0.0238156
0.0238833
0.0238563
0.0237466
0.0235662
0.0233267
0.0230386
0.0227118
0.022355
0.0219758
0.0215808
0.0211757
0.0207652
0.020353
0.0199424
0.0195359
0.0191356
0.0187442
0.00983505
0.0102421
0.0105948
0.0108876
0.0111253
0.0113113
0.0114484
0.0115399
0.0115892
0.0115999
0.0115757
0.0115203
0.0114376
0.0113312
0.0112046
0.0110612
0.0109041
0.0107362
0.01056
0.0103779
0.010192
0.010004
0.00981544
0.00962769
0.00944194
0.000726129
0.000659984
0.00173423
0.00226214
0.00237109
0.00247723
0.00339861
0.00349695
0.00385695
0.00641412
0.00607167
0.00616113
0.0153225
0.0131899
0.0119969
0.027665
0.0247717
0.022367
0.0363162
0.034323
0.032144
0.04177
0.0406857
0.039334
0.044956
0.0446018
0.0440061
0.0460533
0.0462726
0.0462994
0.0451657
0.0457429
0.0462042
0.0427916
0.0434612
0.0440913
0.0397056
0.0402616
0.0408221
0.0366329
0.0369911
0.0373659
0.0339791
0.0341423
0.0343233
0.0316797
0.0317031
0.0317423
0.0296922
0.0295684
0.0294629
0.0278819
0.0276305
0.0273969
0.0258602
0.0255283
0.0252102
0.0230471
0.0226874
0.0223374
0.0184047
0.0180742
0.0177504
0.00928083
0.00912284
0.00896792
0.000118347
0.000338069
0.000505168
0.000646542
0.000770071
0.000879377
0.000979153
0.00107141
0.0011575
0.00123832
0.00131449
0.00138652
0.00145478
0.00151962
0.00158133
0.00164017
0.00169639
0.00175019
0.00180179
0.00185138
0.00189914
0.00194524
0.00198987
0.00203317
0.00207533
0.0021165
0.00215685
0.00219652
0.0022357
0.00227455
0.00231323
0.00235191
0.00239078
0.00243001
0.0024698
0.00251034
0.00255185
0.00259455
0.00263868
0.00268454
0.00273241
0.00278266
0.0028357
0.00289201
0.00295217
0.00301689
0.00308702
0.00315987
0.00323524
0.00331297
0.00339297
0.00347521
0.00355968
0.00364635
0.0037351
0.00382577
0.0039181
0.00401172
0.00410612
0.0042006
0.00429421
0.00438572
0.00447351
0.00455549
0.0046289
0.00469019
0.00473469
0.00475631
0.00474682
0.0046943
0.00458229
0.00439066
0.00412282
0.0037784
0.00328404
0.00267008
0.00202482
0.0014177
0.000977542
0.000585574
0.000527703
0.000954125
0.00119452
0.00140322
0.00162453
0.00185734
0.0020928
0.00232868
0.002562
0.00279008
0.0030108
0.00322275
0.00342521
0.00361792
0.00380099
0.00397471
0.0041395
0.00429582
0.00444415
0.00458498
0.00471878
0.00484601
0.00496711
0.00508252
0.00519266
0.00529793
0.00539873
0.00549545
0.00558845
0.00567812
0.00576481
0.0058489
0.00593077
0.00601078
0.00608934
0.00616684
0.00624367
0.00632022
0.00639691
0.00647414
0.00655232
0.0066319
0.00671332
0.00679704
0.00688339
0.00697287
0.00706609
0.00716708
0.00727316
0.00738357
0.00749829
0.00761742
0.00774108
0.00786933
0.00800213
0.00813938
0.00828076
0.00842575
0.00857349
0.0087227
0.00887155
0.00901752
0.00915718
0.00928599
0.00939798
0.00948537
0.00953802
0.00954279
0.00948293
0.00933858
0.00908684
0.00869684
0.00814186
0.00739977
0.00645511
0.00530058
0.00396888
0.00245373
0.00135103
0.000593549
0.000733009
0.0013856
0.00168166
0.00197203
0.00230858
0.0026717
0.00304418
0.00341547
0.00377741
0.00412481
0.00445489
0.00476672
0.00506053
0.00533717
0.00559777
0.00584349
0.00607542
0.00629457
0.00650179
0.00669787
0.00688349
0.00705928
0.00722581
0.00738362
0.00753322
0.00767509
0.00780969
0.00793746
0.00805881
0.00817415
0.00828384
0.00838824
0.00848771
0.00858263
0.00867339
0.00876043
0.00884414
0.00892496
0.00900327
0.00907948
0.00915403
0.00922735
0.00929994
0.00937233
0.00944505
0.00951865
0.00959376
0.00967096
0.0097541
0.00984115
0.00993184
0.0100263
0.0101246
0.0102269
0.0103334
0.0104438
0.010558
0.0106753
0.0107947
0.0109146
0.0110323
0.0111445
0.0112466
0.0113324
0.0113942
0.0114221
0.0114042
0.0113262
0.0111717
0.0109228
0.0105591
0.0100598
0.00941276
0.00860389
0.00762264
0.00644026
0.00505397
0.00347484
0.00177461
0.000546799
0.000868364
0.00169366
0.00206662
0.00244861
0.0028893
0.00335971
0.00383636
0.00430319
0.00475072
0.00517444
0.00557313
0.0059476
0.00629957
0.00663104
0.00694394
0.00723992
0.00752035
0.00778634
0.00803876
0.00827834
0.00850567
0.00872126
0.00892559
0.0091191
0.0093022
0.00947534
0.00963893
0.00979338
0.0099391
0.0100765
0.0102058
0.0103275
0.0104418
0.0105491
0.0106497
0.0107442
0.0108331
0.0109169
0.0109959
0.0110706
0.0111413
0.0112084
0.0112722
0.0113332
0.0113917
0.0114483
0.0115036
0.0115584
0.0116141
0.011673
0.011734
0.0117973
0.0118632
0.011932
0.0120039
0.0120791
0.0121576
0.012239
0.0123225
0.0124065
0.0124887
0.0125654
0.0126319
0.0126815
0.0127061
0.0126955
0.0126374
0.0125175
0.0123202
0.0120289
0.0116276
0.0111013
0.0104375
0.00962627
0.00865828
0.00752019
0.00617447
0.00453775
0.00250111
0.000614496
0.000957654
0.00190203
0.00237179
0.00284774
0.00337869
0.00393243
0.00448203
0.00501147
0.00551298
0.00598445
0.006427
0.00684319
0.00723594
0.00760799
0.0079616
0.00829851
0.00862001
0.00892703
0.00922019
0.00949994
0.00976659
0.0100204
0.0102615
0.0104903
0.0107068
0.0109113
0.0111042
0.0112858
0.0114563
0.0116162
0.0117658
0.0119052
0.0120348
0.0121547
0.0122655
0.0123677
0.012462
0.0125492
0.0126299
0.0127046
0.0127736
0.0128374
0.012896
0.0129499
0.0129992
0.0130443
0.0130855
0.0131234
0.0131586
0.0131939
0.0132289
0.0132642
0.0133006
0.0133386
0.0133789
0.0134222
0.013469
0.0135199
0.0135747
0.0136329
0.0136927
0.0137512
0.0138043
0.0138458
0.013868
0.0138607
0.0138116
0.0137056
0.0135258
0.0132535
0.0128692
0.0123548
0.0116948
0.0108775
0.00989701
0.00874665
0.00739572
0.00573972
0.00357677
0.00081383
0.00101202
0.00204788
0.00261774
0.00318038
0.00378481
0.00439849
0.00499559
0.00556291
0.00609624
0.00659648
0.00706692
0.00751159
0.00793422
0.00833792
0.00872498
0.009097
0.00945501
0.00979958
0.010131
0.0104492
0.0107543
0.011046
0.0113242
0.0115889
0.01184
0.0120773
0.0123011
0.0125115
0.0127085
0.0128925
0.0130637
0.0132223
0.0133683
0.0135017
0.0136232
0.0137335
0.013833
0.0139237
0.0140063
0.0140816
0.0141499
0.0142115
0.0142669
0.0143162
0.0143597
0.0143977
0.0144304
0.014458
0.0144805
0.0144986
0.014513
0.0145252
0.014536
0.0145468
0.0145588
0.0145734
0.0145921
0.0146166
0.0146481
0.0146872
0.0147334
0.0147851
0.0148392
0.0148909
0.0149333
0.0149571
0.01495
0.0148969
0.0147793
0.0145756
0.0142612
0.0138096
0.013194
0.0123895
0.0113776
0.0101478
0.00868165
0.00690256
0.00460025
0.00121452
0.00104538
0.00215446
0.00281629
0.00345277
0.00411264
0.00476559
0.00538995
0.00597708
0.00652665
0.00704241
0.00752956
0.00799321
0.00843765
0.00886611
0.00928081
0.00968308
0.0100736
0.0104525
0.0108196
0.0111745
0.0115168
0.0118458
0.0121612
0.0124623
0.0127488
0.0130204
0.0132768
0.0135179
0.0137436
0.013954
0.0141491
0.0143286
0.0144922
0.0146398
0.0147734
0.0148941
0.0150026
0.0151006
0.0151887
0.0152675
0.0153375
0.0153989
0.0154522
0.0154977
0.0155357
0.0155666
0.0155908
0.0156085
0.0156199
0.0156252
0.0156253
0.0156207
0.0156113
0.0155986
0.015585
0.0155732
0.0155659
0.015566
0.0155762
0.0155985
0.0156339
0.0156824
0.0157421
0.0158098
0.0158799
0.0159442
0.0159917
0.0160075
0.0159727
0.0158639
0.0156525
0.015305
0.0147829
0.0140441
0.0130461
0.0117521
0.0101301
0.00812726
0.00558379
0.00174362
0.00106669
0.00223462
0.00297495
0.00367017
0.00436822
0.00504318
0.00567926
0.00627278
0.00682711
0.00734853
0.00784377
0.0083188
0.00877827
0.00922548
0.00966244
0.0100902
0.010509
0.0109186
0.0113183
0.0117074
0.0120848
0.0124497
0.0128011
0.0131381
0.0134601
0.0137664
0.0140564
0.0143297
0.0145858
0.0148246
0.0150457
0.0152483
0.0154324
0.0155995
0.0157513
0.0158888
0.0160133
0.0161252
0.0162248
0.0163126
0.0163889
0.0164539
0.0165078
0.0165508
0.0165835
0.0166062
0.0166195
0.0166244
0.0166216
0.0166123
0.016598
0.0165782
0.0165527
0.0165216
0.0164859
0.0164501
0.0164185
0.0163955
0.0163852
0.0163909
0.0164153
0.0164595
0.0165236
0.0166056
0.0167017
0.0168054
0.016907
0.0169928
0.0170446
0.0170386
0.0169445
0.0167242
0.0163312
0.0157088
0.0147912
0.013506
0.0117789
0.00953061
0.00663515
0.00229573
0.00108075
0.00229602
0.00309982
0.00383853
0.00455942
0.00524246
0.00587825
0.00646791
0.00701813
0.00753734
0.00803358
0.00851349
0.00898198
0.00944232
0.00989633
0.0103447
0.0107873
0.0112234
0.011652
0.0120717
0.0124812
0.0128792
0.0132644
0.0136355
0.0139915
0.0143314
0.0146545
0.0149599
0.015247
0.0155153
0.0157643
0.0159933
0.0162045
0.0163991
0.0165762
0.0167365
0.0168812
0.0170109
0.0171259
0.0172265
0.0173129
0.0173852
0.0174434
0.0174878
0.0175187
0.0175366
0.0175423
0.0175367
0.017521
0.0174964
0.0174647
0.017427
0.0173847
0.0173377
0.0172843
0.0172285
0.0171757
0.0171318
0.0171023
0.0170919
0.0171044
0.0171424
0.0172075
0.0172995
0.0174162
0.0175531
0.0177022
0.0178517
0.0179848
0.0180784
0.0181022
0.0180159
0.0177681
0.0172924
0.016505
0.0153024
0.0135605
0.0111327
0.00783789
0.00289166
0.00109025
0.00234352
0.0031965
0.00396467
0.00469542
0.00537546
0.00600155
0.00657926
0.00711824
0.00762879
0.00812001
0.00859909
0.00907113
0.00953932
0.0100052
0.0104693
0.0109309
0.011389
0.0118419
0.0122881
0.0127257
0.013153
0.0135684
0.0139704
0.0143575
0.0147285
0.0150825
0.0154183
0.0157354
0.0160329
0.0163107
0.0165692
0.0168109
0.0170339
0.0172374
0.0174223
0.0175894
0.0177394
0.0178728
0.0179896
0.01809
0.0181739
0.0182412
0.0182921
0.0183268
0.0183456
0.0183492
0.0183389
0.0183158
0.0182814
0.0182379
0.0181869
0.0181296
0.0180674
0.0179998
0.0179287
0.0178596
0.0177991
0.0177535
0.0177287
0.0177295
0.01776
0.0178231
0.0179204
0.0180516
0.0182141
0.0184023
0.0186065
0.0188119
0.0189971
0.0191326
0.0191779
0.0190787
0.0187623
0.0181317
0.0170584
0.0153741
0.0128585
0.00921345
0.00352638
0.00109698
0.00238088
0.00327064
0.00405624
0.00478628
0.0054545
0.00606345
0.00662274
0.00714467
0.00764115
0.0081222
0.00859544
0.00906606
0.00953714
0.01001
0.0104848
0.0109605
0.0114355
0.011908
0.0123758
0.0128369
0.013289
0.0137303
0.0141589
0.0145732
0.0149717
0.0153532
0.0157166
0.016061
0.0163861
0.0166916
0.0169788
0.017249
0.0174996
0.0177295
0.0179392
0.0181297
0.0183017
0.0184556
0.0185915
0.0187095
0.0188093
0.0188909
0.0189541
0.018999
0.0190256
0.0190347
0.0190271
0.0190042
0.0189677
0.01892
0.0188629
0.0187981
0.0187267
0.018649
0.0185683
0.0184892
0.0184179
0.0183612
0.0183254
0.0183165
0.0183395
0.0183988
0.0184977
0.0186379
0.0188191
0.0190379
0.0192875
0.0195555
0.0198229
0.020062
0.020233
0.0202806
0.020128
0.019668
0.0187512
0.0171688
0.0146252
0.0106849
0.00419995
0.00110264
0.00241192
0.00332854
0.00412186
0.00484281
0.00549221
0.00607807
0.00661373
0.00711387
0.00759182
0.00805834
0.00852136
0.0089861
0.0094555
0.00993063
0.0104112
0.0108959
0.0113829
0.0118699
0.0123543
0.0128337
0.0133058
0.0137681
0.0142188
0.0146558
0.0150775
0.0154826
0.01587
0.0162388
0.0165886
0.0169193
0.0172322
0.0175282
0.0178048
0.0180602
0.0182946
0.0185089
0.0187038
0.0188799
0.0190374
0.0191762
0.019296
0.0193967
0.0194779
0.0195393
0.019581
0.019603
0.0196062
0.0195919
0.0195617
0.0195181
0.0194631
0.0193984
0.0193252
0.0192454
0.0191626
0.0190809
0.0190059
0.0189442
0.0189024
0.0188871
0.0189042
0.0189595
0.0190579
0.0192029
0.0193967
0.0196387
0.0199249
0.0202462
0.0205866
0.0209208
0.0212113
0.0214029
0.0214165
0.0211373
0.0203981
0.0189523
0.0164276
0.012201
0.00494651
0.00110944
0.00244168
0.00337812
0.00417179
0.00487708
0.00550205
0.00605998
0.00656779
0.00704231
0.00749808
0.00794645
0.00839552
0.00885044
0.00931395
0.00978685
0.0102685
0.0107574
0.0112513
0.0117475
0.0122433
0.012736
0.0132228
0.0137013
0.0141692
0.0146244
0.0150651
0.01549
0.0158977
0.0162876
0.0166591
0.0170122
0.0173478
0.0176669
0.0179677
0.0182476
0.0185063
0.0187446
0.0189633
0.0191631
0.0193441
0.0195064
0.0196496
0.0197735
0.0198776
0.0199615
0.0200246
0.0200668
0.0200885
0.0200905
0.0200747
0.0200432
0.0199983
0.0199414
0.0198745
0.0198018
0.0197253
0.0196489
0.0195777
0.0195179
0.0194759
0.0194587
0.019473
0.0195255
0.0196225
0.0197697
0.0199714
0.0202302
0.0205451
0.0209109
0.0213153
0.0217368
0.0221408
0.0224741
0.0226572
0.02257
0.02203
0.0207556
0.0183007
0.0138393
0.00582686
0.00112077
0.00247823
0.00343073
0.00421939
0.00490364
0.00549931
0.00602518
0.00650164
0.00694746
0.00737815
0.00780542
0.00823738
0.00867904
0.00913285
0.00959934
0.0100776
0.0105659
0.0110616
0.011562
0.012064
0.0125648
0.0130614
0.0135511
0.0140316
0.0145006
0.0149563
0.0153972
0.0158219
0.0162296
0.01662
0.0169928
0.0173486
0.0176885
0.0180117
0.0183151
0.0185978
0.0188604
0.0191037
0.0193283
0.0195345
0.0197225
0.0198919
0.0200424
0.0201734
0.0202843
0.0203744
0.0204429
0.0204897
0.0205152
0.020521
0.020509
0.0204812
0.02044
0.020389
0.0203313
0.0202691
0.0202058
0.0201457
0.0200946
0.0200587
0.0200449
0.0200603
0.0201125
0.0202088
0.0203568
0.020563
0.0208329
0.0211693
0.021571
0.0220306
0.0225311
0.0230426
0.0235159
0.0238732
0.0239926
0.0236796
0.0226184
0.020288
0.0156795
0.00693715
0.00114368
0.00253661
0.00350373
0.00428284
0.00494079
0.00550246
0.00599238
0.00643444
0.00684906
0.00725239
0.00765624
0.00806853
0.00849395
0.0089346
0.00939076
0.00986133
0.0103443
0.010837
0.0113365
0.0118397
0.0123436
0.0128451
0.0133415
0.0138302
0.0143089
0.0147757
0.0152291
0.0156676
0.0160904
0.016497
0.016887
0.0172608
0.0176195
0.0179634
0.0182893
0.0185958
0.0188828
0.0191513
0.0194017
0.0196346
0.0198498
0.0200474
0.020227
0.0203879
0.0205295
0.0206507
0.0207505
0.0208279
0.0208829
0.0209165
0.0209303
0.0209264
0.0209091
0.0208818
0.0208467
0.020806
0.0207627
0.0207206
0.0206848
0.0206612
0.0206564
0.0206776
0.0207327
0.0208301
0.0209786
0.0211867
0.021463
0.0218139
0.0222428
0.0227475
0.0233174
0.0239289
0.0245393
0.0250763
0.0254206
0.0253713
0.0245789
0.0224403
0.0177814
0.008436
0.00118944
0.00264542
0.00362335
0.00438522
0.00501069
0.00553363
0.00598362
0.00638864
0.00677023
0.00714471
0.00752356
0.00791432
0.00832118
0.00874559
0.00918767
0.00964626
0.0101193
0.0106042
0.0110979
0.0115975
0.0120997
0.0126019
0.0131005