/*--------------------------------*- C++ -*----------------------------------*\
| =========                 |                                                 |
| \\      /  F ield         | OpenFOAM: The Open Source CFD Toolbox           |
|  \\    /   O peration     | Version:  v2012                                 |
|   \\  /    A nd           | Website:  www.openfoam.com                      |
|    \\/     M anipulation  |                                                 |
\*---------------------------------------------------------------------------*/
FoamFile
{
    version     2.0;
    format      ascii;
    class       volScalarField;
    location    "643";
    object      nut;
}
// * * * * * * * * * * * * * * * * * * * * * * * * * * * * * * * * * * * * * //

dimensions      [0 2 -1 0 0 0 0];


internalField   nonuniform List<scalar> 
6532
(
0.00319726
0.0112842
0.0135603
0.0139537
0.013866
0.013866
0.0139537
0.0135603
0.0112842
0.00319726
0.00237194
0.00920564
0.0123914
0.013294
0.0134019
0.0134019
0.013294
0.0123914
0.00920565
0.00237194
0.00188318
0.00789123
0.0113398
0.0126141
0.0129276
0.0129276
0.0126141
0.0113398
0.00789123
0.00188318
0.00156778
0.00697146
0.0104402
0.0119507
0.012432
0.012432
0.0119507
0.0104402
0.00697147
0.00156778
0.0013497
0.0062839
0.00967763
0.0113232
0.0119254
0.0119254
0.0113232
0.00967764
0.00628391
0.00134971
0.00119039
0.00574487
0.00902749
0.0107394
0.0114209
0.0114209
0.0107394
0.0090275
0.00574489
0.00119039
0.00106881
0.00530686
0.00846691
0.0102003
0.0109291
0.0109291
0.0102003
0.00846694
0.00530689
0.00106881
0.00097273
0.00494097
0.00797756
0.00970382
0.0104568
0.0104568
0.00970385
0.00797761
0.00494101
0.000972732
0.000894637
0.00462861
0.00754537
0.00924682
0.010008
0.0100081
0.00924687
0.00754544
0.00462868
0.00089464
0.000829705
0.00435736
0.00715972
0.00882576
0.00958454
0.00958457
0.00882583
0.00715983
0.00435745
0.00082971
0.000774699
0.00411855
0.00681257
0.00843719
0.00918663
0.00918667
0.0084373
0.00681272
0.00411869
0.000774706
0.000727377
0.00390595
0.00649774
0.00807794
0.00881371
0.00881378
0.00807811
0.00649797
0.00390616
0.000727387
0.000686137
0.00371497
0.00621047
0.00774513
0.00846468
0.00846479
0.00774538
0.00621081
0.00371528
0.000686152
0.000649806
0.0035421
0.00594696
0.00743618
0.00813815
0.0081383
0.00743655
0.00594747
0.00354256
0.000649827
0.000617501
0.00338464
0.00570417
0.0071488
0.00783259
0.00783281
0.00714935
0.00570491
0.00338531
0.000617531
0.000588547
0.00324042
0.00547959
0.00688094
0.00754647
0.0075468
0.00688176
0.00548067
0.00324137
0.000588589
0.000562417
0.00310769
0.00527112
0.00663077
0.00727831
0.00727879
0.006632
0.00527268
0.00310899
0.000562475
0.000538693
0.00298498
0.00507699
0.00639664
0.00702667
0.00702735
0.00639846
0.00507916
0.00298662
0.00053877
0.000517037
0.00287106
0.00489562
0.00617704
0.00679018
0.00679116
0.00617967
0.00489875
0.00287299
0.000517135
0.000497169
0.00276478
0.00472551
0.00597044
0.00656739
0.00656881
0.00597427
0.00472984
0.00276547
0.000497284
0.000478507
0.00266352
0.00456292
0.00577263
0.00635402
0.00635622
0.00577913
0.00457474
0.00269537
0.000553125
0.000461266
0.00256831
0.00440941
0.00558554
0.00615219
0.00615569
0.00559678
0.00443467
0.00264091
0.00062847
0.000445279
0.00247854
0.00426431
0.00540859
0.00596149
0.0059669
0.00542694
0.00430863
0.00260537
0.000722929
0.000430399
0.00239357
0.00412671
0.00524081
0.00578095
0.00578882
0.0052681
0.00419316
0.00260317
0.000843701
0.0004165
0.00231281
0.0039958
0.0050813
0.00560962
0.0056202
0.00511747
0.00409391
0.00262888
0.00099731
0.000403475
0.00223575
0.00387083
0.00492925
0.0054467
0.00546057
0.00497518
0.00401265
0.0026689
0.00118298
0.000391227
0.00216191
0.0037511
0.00478389
0.00529157
0.00530997
0.00484643
0.00394173
0.00271215
0.00139504
0.000379673
0.00209083
0.00363597
0.00464454
0.00514363
0.00516813
0.00472977
0.00388242
0.00275803
0.00162428
0.000368737
0.00202205
0.00352477
0.00451052
0.00500234
0.00503464
0.00462403
0.00383366
0.00281019
0.00185155
0.000358352
0.00195515
0.00341687
0.00438116
0.00486713
0.00490901
0.00452826
0.00379488
0.00286985
0.00206837
0.000348454
0.00188973
0.00331164
0.00425583
0.00473743
0.00479069
0.00444163
0.00376554
0.00293637
0.00227227
0.000338986
0.00182537
0.00320846
0.00413386
0.00461264
0.00467907
0.00436335
0.00374481
0.00300672
0.00246121
0.000329895
0.00176165
0.0031067
0.00401457
0.0044921
0.00457351
0.00429263
0.0037316
0.00307931
0.00263405
0.000321128
0.00169819
0.0030057
0.00389725
0.00437514
0.00447328
0.00422859
0.00372481
0.00315229
0.00279019
0.000312636
0.00163462
0.00290482
0.00378114
0.00426099
0.0043776
0.0041703
0.00372318
0.00322383
0.00292935
0.000304373
0.00157062
0.0028034
0.00366547
0.00414882
0.00428559
0.0041167
0.00372532
0.00329229
0.00305153
0.000296292
0.00150593
0.00270082
0.00354942
0.00403775
0.00419627
0.00406666
0.00372979
0.00335628
0.00315708
0.00028835
0.00144047
0.00259663
0.0034323
0.00392698
0.0041087
0.00401899
0.00373518
0.0034148
0.00324674
0.000280795
0.00137628
0.00249381
0.0033171
0.00381891
0.00402427
0.00397362
0.0037397
0.00346546
0.00331945
0.000273289
0.00131102
0.00238861
0.00319947
0.00370928
0.0039393
0.00392794
0.00374246
0.0035101
0.00338012
0.000265789
0.00124474
0.00228051
0.00307833
0.00359662
0.00385209
0.00388022
0.00374204
0.00354864
0.00343088
0.000258258
0.00117762
0.00216932
0.00295294
0.00347976
0.00376116
0.00382884
0.00373707
0.003581
0.00347388
0.000250658
0.00110986
0.002055
0.00282264
0.00335743
0.00366482
0.00377192
0.00372594
0.00360684
0.00351102
0.000242947
0.00104175
0.0019376
0.00268678
0.00322827
0.00356115
0.0037073
0.00370669
0.00362527
0.00354355
0.000235084
0.000973556
0.00181728
0.00254481
0.00309086
0.00344803
0.00363243
0.00367684
0.00363456
0.00357142
0.000227022
0.000905549
0.0016943
0.00239624
0.00294374
0.00332306
0.00354431
0.0036332
0.00363185
0.00359283
0.000218708
0.000837969
0.00156896
0.00224073
0.00278544
0.0031837
0.00343955
0.00357187
0.00361301
0.00360389
0.000210077
0.000771005
0.00144159
0.00207804
0.00261463
0.00302733
0.0033144
0.00348825
0.00357268
0.00359863
0.00020105
0.000704793
0.00131259
0.00190816
0.00243022
0.00285152
0.00316509
0.00337733
0.0035046
0.00356929
0.000191518
0.000639416
0.00118239
0.00173139
0.00223167
0.0026544
0.00298825
0.00323424
0.00340217
0.0035072
0.000181331
0.000574927
0.00105158
0.0015486
0.00201937
0.00243524
0.00278169
0.00305504
0.00325942
0.00340382
0.000170255
0.000511301
0.000921224
0.00136164
0.00179527
0.00219536
0.00254543
0.00283799
0.00307232
0.00325223
0.000156277
0.000448533
0.000792988
0.00117408
0.00156404
0.00193942
0.00228318
0.00258502
0.00284027
0.00304756
0.000104379
0.000392316
0.000672384
0.000992601
0.00133389
0.00167639
0.00200345
0.0023029
0.00256594
0.00278897
0.000109848
0.000349824
0.000572741
0.000831971
0.00111979
0.00142114
0.00172016
0.00200208
0.00225894
0.00248609
0.00010482
0.000319451
0.000505341
0.00071088
0.000943845
0.00119591
0.00145224
0.00170324
0.00194078
0.00215887
7.60919e-05
0.000308932
0.000470081
0.000637455
0.000822071
0.00102057
0.00122831
0.00143838
0.00164366
0.00183798
6.68041e-05
0.000293427
0.000456255
0.000600152
0.000724751
0.000846843
0.000980393
0.00112311
0.00126777
0.00140993
6.56344e-05
0.000218603
0.00042788
0.000554347
0.000671574
0.00069958
0.000759376
0.000851344
0.000956529
0.00106448
6.94736e-05
0.000113429
0.0001409
0.000172133
0.000201397
0.000221465
0.000236383
0.000248647
0.00025867
0.00026682
0.000143219
0.000165443
0.00016737
0.000172265
0.000176221
0.000178776
0.000179776
0.000179258
0.000177231
0.000173997
0.000169893
0.00016486
0.000158895
0.000152241
0.000145049
0.00013737
0.000129168
0.000121074
0.000113292
0.000105481
9.73914e-05
8.87333e-05
7.90296e-05
6.7282e-05
4.22073e-05
0.000256166
0.000517136
0.000804741
0.000966911
0.0010546
0.00110836
0.00113945
0.00115191
0.00114774
0.00112747
0.00109408
0.00105081
0.000999816
0.000942949
0.000881487
0.000815862
0.000744
0.000649447
0.000541555
0.000435674
0.000341228
0.000262963
0.00020291
0.00015495
4.99831e-05
0.000413974
0.000663085
0.00102861
0.00136722
0.00158278
0.00171616
0.00179683
0.00183836
0.0018478
0.00182972
0.00178803
0.00172919
0.00165825
0.00157809
0.00148979
0.00139254
0.00128213
0.00114476
0.000977176
0.000794294
0.000614488
0.000455122
0.000327309
0.000222493
5.50835e-05
0.000688154
0.000705043
0.00105361
0.00142455
0.00172669
0.00191951
0.00203759
0.00210146
0.00212273
0.00210953
0.00206942
0.00201071
0.00194157
0.00186619
0.00178488
0.00169442
0.00158787
0.00145218
0.00127748
0.00107029
0.000846544
0.000629622
0.000440683
0.000274223
5.73555e-05
0.0010501
0.000901965
0.00119467
0.00142587
0.00172585
0.00196029
0.00210298
0.00217923
0.00220425
0.00218936
0.0021456
0.00208444
0.00201706
0.00195008
0.00188378
0.00181269
0.00172675
0.00161135
0.00145283
0.00125073
0.00101514
0.00076793
0.000534007
0.000311789
5.81203e-05
0.0013044
0.00123957
0.00139142
0.00152862
0.00173406
0.00195231
0.00211318
0.00219775
0.00222221
0.00220036
0.0021472
0.00207815
0.00200672
0.00194271
0.00188811
0.00183584
0.00177275
0.00168137
0.00154491
0.00135829
0.00112659
0.000867331
0.000603695
0.000336754
5.80857e-05
0.00152642
0.00162572
0.00162214
0.00168128
0.00182284
0.0019746
0.00211525
0.00220548
0.00222945
0.00219849
0.00213204
0.00205068
0.00197093
0.00190369
0.00185395
0.0018155
0.00177256
0.00170343
0.00158764
0.00141749
0.00119484
0.000932962
0.00065091
0.000351459
5.75915e-05
0.00174187
0.00186946
0.00186596
0.00188234
0.00196036
0.00206759
0.00216027
0.00222593
0.00224499
0.00220503
0.00212292
0.00202584
0.00193395
0.00185902
0.00180689
0.00177503
0.00174803
0.00169824
0.00160093
0.00144543
0.00123216
0.000971677
0.000678924
0.000358161
5.67779e-05
0.00195138
0.00209703
0.00211041
0.00210452
0.00213318
0.00219908
0.00225958
0.00229012
0.00228359
0.00222894
0.00212924
0.00201367
0.00190624
0.00181909
0.00175806
0.00172482
0.00170526
0.00167139
0.00159258
0.00145137
0.00124666
0.000989304
0.000691314
0.000358722
5.56971e-05
0.00215383
0.00231281
0.00234946
0.00233566
0.00233139
0.00236118
0.00239245
0.00239652
0.00235845
0.00227869
0.00215653
0.00201873
0.00189161
0.00178745
0.00171182
0.00166821
0.00164813
0.00162424
0.0015615
0.00143415
0.00124072
0.000989498
0.000691291
0.0003549
5.4465e-05
0.00234786
0.00251769
0.00257886
0.00256986
0.00254981
0.00254663
0.00255104
0.00253203
0.00246853
0.00235841
0.00220902
0.0020441
0.00189181
0.00176643
0.00167178
0.00160945
0.00157784
0.0015564
0.00150931
0.00139639
0.0012144
0.00097086
0.000676219
0.000342798
5.33992e-05
0.00253208
0.0027102
0.00279458
0.00279868
0.00277349
0.00274612
0.00272874
0.00269084
0.00260687
0.00246996
0.00229071
0.00209456
0.0019123
0.0017615
0.00164409
0.00155708
0.00150079
0.00146664
0.0014302
0.00133744
0.00116954
0.000935776
0.000648649
0.000325084
5.23482e-05
0.00270431
0.0028877
0.00299338
0.0030149
0.00298972
0.00295104
0.00291853
0.0028671
0.00276866
0.00261251
0.00240673
0.00217703
0.00196171
0.00178047
0.00163604
0.0015216
0.00139831
0.00131067
0.0012782
0.00121445
0.00108744
0.000887108
0.000612279
0.000304602
5.12249e-05
0.00286197
0.00304839
0.00317309
0.00321307
0.0031962
0.00316001
0.00311451
0.00305504
0.00294951
0.00278231
0.00255694
0.00229946
0.00205033
0.00183401
0.00165671
0.00151217
0.00131014
0.0011489
0.00111683
0.00109004
0.00099347
0.000831191
0.000572159
0.000283646
4.99912e-05
0.00300273
0.0031898
0.00333028
0.00338854
0.00338441
0.00335333
0.00330786
0.00324821
0.0031442
0.00297686
0.00274288
0.00246669
0.00218873
0.0019362
0.00171956
0.00153837
0.00135021
0.00104171
0.000944613
0.000951036
0.000908478
0.000771723
0.000534473
0.000264924
4.86691e-05
0.00312481
0.00330964
0.00346188
0.00353889
0.00355129
0.00353061
0.00349699
0.00344078
0.00334653
0.00319157
0.00296321
0.00268199
0.002386
0.002102
0.00184408
0.00161721
0.00142087
0.00107882
0.000826859
0.000767266
0.000779284
0.00071274
0.000506331
0.000252901
4.74059e-05
0.00322725
0.00340639
0.00356638
0.00366097
0.00369151
0.00368441
0.00366424
0.00362488
0.00354866
0.00341917
0.00321245
0.0029429
0.00264488
0.00234316
0.00205102
0.00177648
0.00152618
0.0013035
0.000877817
0.000650475
0.000591198
0.000594485
0.000492759
0.000256974
4.66639e-05
0.00331001
0.00347954
0.00364333
0.00375257
0.00380221
0.00381143
0.0038071
0.00379089
0.00374166
0.00364836
0.00347967
0.00324009
0.00295927
0.00265982
0.00235264
0.00204342
0.00173983
0.00145151
0.00118977
0.000743171
0.000498527
0.000404146
0.000348459
0.000283522
4.80729e-05
0.00337212
0.00352808
0.00369094
0.00381041
0.00387862
0.00390672
0.00391798
0.00392435
0.00391182
0.00386155
0.00374442
0.00355263
0.00330911
0.00303463
0.00273887
0.00242416
0.00209213
0.00174878
0.00140997
0.00109256
0.000687904
0.000387085
0.000255797
0.000189872
5.99103e-05
0.00341887
0.00355707
0.00371396
0.00384006
0.00392279
0.00396948
0.00399612
0.00402065
0.00404026
0.00404043
0.00398178
0.00385081
0.00366079
0.00342984
0.00316798
0.00287675
0.00255407
0.00219899
0.0018157
0.00141988
0.00103655
0.000703929
0.000412185
0.000220574
0.000189728
0.00345328
0.00356968
0.00371514
0.00384298
0.00393598
0.0039982
0.0040419
0.00407981
0.00412273
0.00416527
0.0041714
0.00411184
0.00399105
0.0038214
0.00361311
0.00336912
0.00308699
0.00276222
0.00239134
0.00197614
0.00152999
0.0010919
0.000716361
0.000458552
0.000330931
0.00347893
0.00357023
0.00369865
0.00382239
0.00392138
0.00399441
0.00405082
0.00410218
0.00415963
0.00422485
0.00428285
0.00429999
0.00426033
0.004168
0.00403107
0.00385455
0.00363864
0.00338004
0.00307357
0.00271463
0.00223118
0.00185892
0.00140632
0.00100888
0.000685496
0.00349975
0.00356405
0.00367028
0.00378352
0.00388288
0.00396285
0.00402849
0.00408906
0.00415428
0.00422985
0.00431084
0.00438182
0.00442485
0.00441903
0.00436557
0.00426931
0.00413381
0.00395984
0.0037052
0.00325459
0.00278133
0.00233251
0.00195093
0.00159919
0.00124536
0.00351931
0.00355693
0.00363717
0.0037336
0.00382676
0.00390835
0.00397936
0.00404589
0.00411546
0.00419452
0.00428414
0.00437796
0.00446507
0.00453144
0.00456256
0.00454876
0.0044942
0.00432637
0.00409629
0.00383834
0.00355269
0.00322974
0.00290164
0.00260372
0.00234775
0.00353999
0.00355414
0.00360699
0.00368147
0.0037617
0.00383849
0.0039098
0.0039786
0.00404987
0.00412888
0.0042192
0.00431919
0.00442286
0.00452092
0.00460249
0.00449599
0.00437312
0.00425511
0.00414582
0.00404078
0.00392239
0.00378486
0.00363325
0.00347811
0.00333316
0.00356206
0.00355907
0.00358652
0.00363642
0.00369807
0.00376342
0.00382892
0.00389501
0.00396451
0.00404103
0.00412774
0.00422543
0.00433093
0.00443736
0.00441451
0.00425876
0.00412137
0.00401675
0.00394224
0.00389331
0.00386183
0.00383901
0.00381924
0.00380024
0.0037809
0.00358283
0.00357182
0.00357975
0.00360623
0.00364633
0.00369479
0.00374815
0.00380547
0.003868
0.00393811
0.00401813
0.00410907
0.00420917
0.00431341
0.00425739
0.00405465
0.00389194
0.0037694
0.00368326
0.00363194
0.00361113
0.0036147
0.00363761
0.00367584
0.00372482
0.00359641
0.00358818
0.00358591
0.00359451
0.00361421
0.00364321
0.00367964
0.00372283
0.00377312
0.0038317
0.00390003
0.00397909
0.00406841
0.00416494
0.00419844
0.00394985
0.00374512
0.00359469
0.00348484
0.00341103
0.00336924
0.0033557
0.00336722
0.00340128
0.00345459
0.00359394
0.00359941
0.00359831
0.00359829
0.0036032
0.00361457
0.00363314
0.00365922
0.00369326
0.00373598
0.00378822
0.00385064
0.00392323
0.00400457
0.00409042
0.0039209
0.00369259
0.00351942
0.00338976
0.0032924
0.00322046
0.00317825
0.00316182
0.00316889
0.00319712
0.00356452
0.0035931
0.00360441
0.00360669
0.00360597
0.00360649
0.00361093
0.00362103
0.00363804
0.00366297
0.00369659
0.00373944
0.00379166
0.00385273
0.00392083
0.00399152
0.00378526
0.00356317
0.00339649
0.00327081
0.00317628
0.00310769
0.00306406
0.00304279
0.00304132
0.00349669
0.0035547
0.00358697
0.00360197
0.00360655
0.00360594
0.00360408
0.00360389
0.00360758
0.00361677
0.00363264
0.00365598
0.00368717
0.00372618
0.00377244
0.00382446
0.00387909
0.0038133
0.00359034
0.0034155
0.00328312
0.00318275
0.00310799
0.00305662
0.00302542
0.00337972
0.00346843
0.00352725
0.00356326
0.00358276
0.00359108
0.00359258
0.00359083
0.00358866
0.00358828
0.00359137
0.00359914
0.0036124
0.00363156
0.00365668
0.00368746
0.00372307
0.00376201
0.00380241
0.00377759
0.00359413
0.00344622
0.00333388
0.00324954
0.00318826
0.00320352
0.00332196
0.00340915
0.00347058
0.00351148
0.00353663
0.00355022
0.00355587
0.00355664
0.00355505
0.00355314
0.00355249
0.00355429
0.00355937
0.00356826
0.00358123
0.00359829
0.00361919
0.00364344
0.00367015
0.00369818
0.00372702
0.00375097
0.00362955
0.00353288
0.00296623
0.00310947
0.00322277
0.00330984
0.00337458
0.00342083
0.00345219
0.00347196
0.00348305
0.00348802
0.00348902
0.00348784
0.00348591
0.00348438
0.0034841
0.00348569
0.00348957
0.003496
0.00350506
0.00351667
0.00353059
0.00354658
0.00356421
0.00358263
0.00360148
0.00267468
0.00283459
0.00296788
0.00307657
0.00316316
0.00323037
0.00328101
0.00331779
0.00334325
0.00335973
0.00336929
0.00337374
0.00337461
0.00337318
0.00337048
0.00336736
0.00336446
0.00336229
0.00336121
0.00336148
0.00336325
0.00336656
0.00337138
0.00337758
0.00338499
0.00234656
0.00251183
0.0026551
0.00277699
0.00287872
0.00296197
0.00302863
0.00308072
0.00312025
0.00314918
0.00316929
0.00318223
0.00318946
0.00319225
0.00319169
0.00318869
0.00318404
0.00317834
0.00317213
0.00316579
0.00315966
0.00315398
0.00314892
0.00314461
0.00314115
0.00200996
0.00216583
0.00230486
0.00242664
0.00253156
0.00262051
0.0026945
0.00275481
0.00280282
0.00283996
0.00286762
0.00288714
0.00289978
0.00290665
0.00290879
0.00290707
0.00290227
0.00289507
0.00288603
0.00287562
0.00286427
0.0028523
0.00284
0.00282761
0.00281541
0.00154637
0.0016861
0.00183371
0.00199265
0.00211515
0.00219357
0.00225945
0.00231362
0.00235701
0.00239061
0.00241541
0.00243243
0.00244263
0.00244693
0.00244618
0.00244117
0.00243259
0.00242108
0.0024072
0.00239144
0.00237423
0.00235595
0.00233692
0.00231743
0.00229784
0.00117253
0.00128949
0.001387
0.00144147
0.00148772
0.00152573
0.00155593
0.00157885
0.00159506
0.00160518
0.00160984
0.00160968
0.00160531
0.00159734
0.00158631
0.00157275
0.00155714
0.00153989
0.00152141
0.00150202
0.00148201
0.00146166
0.00144116
0.00142073
0.00140058
0.000273322
0.00027892
0.000283682
0.000287575
0.000290698
0.000293117
0.000294889
0.000296065
0.000296697
0.000296833
0.000296523
0.000295814
0.00029475
0.000293375
0.000291732
0.000289859
0.000287793
0.000285569
0.000283216
0.000280764
0.000278237
0.000275659
0.000273049
0.000270425
0.000267803
6.97126e-05
7.0231e-05
3.7656e-05
0.000165152
0.000114126
0.000198703
0.000301066
0.000306272
0.000203464
0.000424616
0.000321057
0.000324752
0.000946912
0.000810075
0.000803492
0.00212034
0.00195904
0.00189067
0.00321198
0.00312223
0.00305829
0.00376159
0.00374975
0.00374831
0.00377492
0.00382475
0.00388041
0.00351664
0.00358383
0.00365874
0.00323818
0.00329017
0.00335274
0.00305334
0.00307894
0.00311621
0.00300885
0.00300706
0.003017
0.00314547
0.00311886
0.00310361
0.00346283
0.0034131
0.00337696
0.00361868
0.00363608
0.00365394
0.00339241
0.00340064
0.00340964
0.00313857
0.00313677
0.00313559
0.00280455
0.00279413
0.00278394
0.00228026
0.00226296
0.00224573
0.00138294
0.00136574
0.00134887
0.000265509
0.000263239
0.000260994
2.6922e-05
5.27597e-05
6.13147e-05
6.29206e-05
7.94609e-05
8.50917e-05
8.97893e-05
9.39241e-05
9.76247e-05
0.000100975
0.000104035
0.000106847
0.000109446
0.000111858
0.000114107
0.00011621
0.000118185
0.000120045
0.000121801
0.000123466
0.000125048
0.000126557
0.000128
0.000129386
0.00013072
0.000132011
0.000133263
0.000134483
0.000135677
0.000136851
0.000138009
0.000139159
0.000140304
0.00014145
0.000142603
0.000143769
0.000144953
0.000146161
0.000147399
0.000148674
0.000149993
0.000151366
0.000152802
0.000154312
0.000155909
0.000157608
0.00015943
0.0001613
0.000163212
0.000165161
0.000167143
0.000169157
0.0001712
0.000173272
0.000175368
0.000177484
0.000179613
0.000181746
0.000183872
0.000185975
0.000188036
0.000190029
0.000191921
0.000193672
0.000195226
0.000196514
0.000197444
0.000197895
0.000197697
0.0001966
0.000194241
0.000190136
0.000184245
0.000176382
0.000164439
0.000148273
0.00012912
0.000108042
8.97153e-05
5.98852e-05
4.99747e-05
0.00013696
0.000155804
0.000177582
0.000202373
0.000231059
0.000262064
0.000294514
0.000327631
0.000360765
0.000393412
0.00042521
0.000455924
0.00048542
0.000513632
0.000540546
0.00056618
0.00059057
0.000613766
0.000635824
0.000656806
0.000676775
0.000695793
0.000713924
0.000731232
0.000747778
0.000763623
0.000778829
0.000793455
0.000807561
0.000821206
0.000834451
0.000847355
0.000859977
0.000872374
0.000884595
0.000896683
0.000908667
0.000920567
0.000932388
0.000944119
0.000955728
0.000967164
0.000978356
0.000989112
0.000999278
0.00100871
0.00101935
0.00103047
0.00104184
0.0010534
0.0010651
0.0010769
0.00108873
0.00110052
0.00111217
0.00112356
0.00113453
0.00114486
0.0011543
0.0011625
0.00116908
0.00117352
0.00117524
0.00117355
0.00116761
0.00115647
0.00113901
0.001114
0.00108011
0.00103608
0.000946007
0.000855266
0.000801811
0.0007437
0.000640919
0.000522816
0.000357143
0.000189545
5.30009e-05
5.88993e-05
0.000189391
0.000239617
0.000282645
0.000336729
0.000400145
0.000469871
0.000543247
0.000618043
0.000692551
0.000765568
0.00083632
0.000904367
0.000969494
0.00103164
0.00109082
0.00114713
0.00120065
0.00125153
0.00129987
0.00134581
0.00138947
0.00143099
0.00147047
0.00150805
0.00154385
0.00157796
0.00161052
0.00164161
0.00167134
0.00169982
0.00172713
0.00175337
0.00177861
0.00180295
0.00182643
0.00184912
0.00187102
0.00189216
0.00191251
0.00193202
0.00195065
0.00196833
0.00198497
0.00200047
0.0020147
0.00202757
0.00203896
0.00205084
0.00206215
0.00207257
0.00208189
0.00208991
0.00209641
0.00210114
0.00210382
0.0021041
0.00210155
0.00209567
0.00208584
0.00207137
0.00205142
0.00202507
0.0019913
0.001949
0.00189704
0.00183428
0.00175971
0.00167249
0.00157221
0.00144121
0.00127367
0.00112834
0.00100795
0.00090764
0.000764697
0.000616716
0.000461737
0.000261361
5.08709e-05
6.22823e-05
0.000241299
0.000319037
0.000391122
0.000479633
0.000580939
0.00069116
0.000805797
0.00092139
0.00103552
0.00114661
0.00125375
0.00135647
0.00145461
0.00154816
0.00163722
0.00172192
0.00180244
0.00187895
0.00195163
0.00202064
0.00208617
0.00214836
0.00220739
0.00226341
0.00231656
0.00236699
0.00241485
0.00246028
0.0025034
0.00254435
0.00258324
0.00262017
0.00265527
0.00268862
0.00272031
0.0027504
0.00277893
0.00280591
0.00283128
0.00285498
0.00287691
0.00289695
0.00291496
0.00293078
0.00294423
0.00295514
0.00296334
0.00296912
0.00297346
0.00297546
0.00297478
0.00297112
0.00296422
0.00295375
0.00293937
0.00292066
0.00289712
0.00286815
0.00283303
0.00279088
0.00274073
0.00268147
0.00261188
0.00253072
0.00243674
0.0023288
0.00220601
0.00206794
0.00191481
0.00174779
0.00156907
0.00138202
0.00119142
0.00100251
0.000819997
0.000645557
0.000475036
0.00028197
5.39282e-05
6.73224e-05
0.000288683
0.000394549
0.000499015
0.000622595
0.000761391
0.000909338
0.00106108
0.00121255
0.00136106
0.00150496
0.0016434
0.00177598
0.00190258
0.0020233
0.00213827
0.00224769
0.00235177
0.00245072
0.00254473
0.00263401
0.00271873
0.00279908
0.00287522
0.00294734
0.00301559
0.00308012
0.00314111
0.00319871
0.00325308
0.00330436
0.0033527
0.00339825
0.00344112
0.00348147
0.0035194
0.00355504
0.0035885
0.00361982
0.00364896
0.00367585
0.00370036
0.00372232
0.00374153
0.00375775
0.00377072
0.00378012
0.00378565
0.00378696
0.00378519
0.00377963
0.00376996
0.00375592
0.00373727
0.00371373
0.00368502
0.00365079
0.00361057
0.00356378
0.00350968
0.00344734
0.00337566
0.00329337
0.00319904
0.00309114
0.00296811
0.00282847
0.00267099
0.00249493
0.00230032
0.00208828
0.00186145
0.00162417
0.0013826
0.00114412
0.000915688
0.000702953
0.000504663
0.000304426
6.20617e-05
6.92069e-05
0.000322346
0.000465298
0.00060286
0.00076009
0.000932768
0.00111383
0.0012973
0.00147898
0.00165624
0.00182755
0.00199215
0.00214974
0.00230031
0.00244399
0.00258098
0.0027115
0.00283578
0.00295405
0.00306651
0.00317337
0.00327481
0.00337101
0.00346214
0.00354835
0.00362982
0.00370668
0.00377911
0.00384726
0.0039113
0.00397138
0.00402768
0.00408037
0.00412964
0.00417574
0.00421876
0.00425871
0.00429615
0.00433121
0.00436388
0.0043941
0.00442176
0.0044467
0.00446873
0.00448757
0.00450291
0.00451432
0.0045213
0.00452318
0.00451978
0.00451094
0.0044966
0.00447649
0.00445046
0.00441842
0.00438024
0.00433573
0.00428455
0.00422623
0.00416006
0.00408513
0.00400023
0.00390394
0.00379459
0.00367028
0.00352901
0.00336873
0.00318755
0.00298399
0.00275731
0.00250792
0.00223788
0.00195139
0.00165495
0.00135747
0.00106968
0.000801587
0.000557928
0.00033076
7.5816e-05
7.03386e-05
0.000350238
0.000530377
0.000699946
0.000887765
0.00108987
0.00129884
0.00150863
0.00171518
0.00191603
0.00210983
0.00229596
0.00247423
0.0026447
0.00280757
0.00296306
0.00311141
0.00325288
0.00338768
0.00351603
0.0036381
0.00375408
0.00386412
0.0039684
0.00406704
0.00416018
0.00424797
0.00433053
0.00440798
0.00448047
0.00454814
0.0046111
0.00466951
0.00472368
0.00477455
0.00482222
0.00482242
0.00482585
0.00483325
0.00484193
0.0048522
0.00486512
0.00488172
0.00490312
0.00493059
0.00496556
0.00500984
0.00506595
0.00513405
0.00518125
0.00517452
0.00516108
0.00513989
0.00511079
0.00507425
0.00503058
0.00497988
0.00492204
0.00485678
0.00478352
0.00470139
0.0046092
0.00450542
0.00438817
0.00425524
0.00410411
0.00393209
0.00373645
0.00351472
0.003265
0.0029865
0.00268012
0.00234903
0.00199931
0.00164029
0.0012845
0.000946354
0.000638402
0.000363845
9.08415e-05
7.10518e-05
0.000373399
0.000589247
0.000788597
0.0010032
0.00123004
0.00146191
0.00169304
0.00191965
0.00213951
0.00235146
0.00255504
0.00275018
0.00293699
0.00311573
0.00328663
0.00344997
0.00360597
0.00375486
0.00389682
0.00403203
0.00416065
0.00428281
0.00439864
0.00450828
0.00461184
0.0047094
0.00480108
0.00488693
0.00496704
0.00504144
0.00511013
0.00515251
0.00511726
0.00509712
0.0050888
0.00508361
0.0050807
0.0050799
0.005081
0.00508487
0.00509268
0.0051056
0.00512501
0.00515256
0.00519004
0.00523897
0.00530021
0.00537399
0.00546173
0.00556834
0.00569068
0.00574041
0.00571206
0.00567401
0.00562755
0.00557331
0.00551156
0.00544227
0.00536507
0.00527926
0.00518373
0.00507697
0.00495698
0.00482131
0.00466702
0.00449076
0.0042889
0.00405779
0.00379411
0.00349548
0.00316111
0.00279267
0.00239512
0.00197734
0.00155249
0.00113761
0.000751798
0.000411394
0.000104236
7.15186e-05
0.000392643
0.000641765
0.000868066
0.00110548
0.00135251
0.00160267
0.00185065
0.00209301
0.00232781
0.0025541
0.00277157
0.00298023
0.00318027
0.00337198
0.00355562
0.00373144
0.00389968
0.00406051
0.00421412
0.00436065
0.00450024
0.004633
0.00475904
0.00487846
0.00499136
0.0050978
0.00519786
0.00529156
0.00537893
0.00545994
0.00547429
0.00541184
0.00536793
0.00534562
0.00533173
0.00532075
0.0053121
0.00530679
0.00530468
0.00530612
0.00531194
0.00532327
0.00534158
0.00536882
0.00540748
0.00546022
0.00552883
0.00561309
0.00571227
0.00582807
0.00596328
0.00611794
0.00624637
0.00620845
0.0061607
0.00610446
0.0060404
0.0059688
0.00588956
0.00580221
0.00570586
0.0055991
0.00548002
0.00534603
0.00519391
0.00501974
0.00481903
0.00458684
0.0043182
0.00400869
0.00365534
0.00325769
0.00281901
0.00234739
0.00185634
0.00136466
0.000895535
0.000475256
0.000112468
7.1832e-05
0.000408608
0.000688085
0.00093831
0.0011947
0.00145775
0.001722
0.00198277
0.00223704
0.00248317
0.00272041
0.00294861
0.00316786
0.00337842
0.00358057
0.0037746
0.00396073
0.00413916
0.00431007
0.00447359
0.00462984
0.00477892
0.00492094
0.00505597
0.00518411
0.00530542
0.00541998
0.00552785
0.00562906
0.00572364
0.00581162
0.00574985
0.00567835
0.00563362
0.00560943
0.0055952
0.00558467
0.00557677
0.00557199
0.00557054
0.00557283
0.0055796
0.0055919
0.00561118
0.00563959
0.00567992
0.00573534
0.00580835
0.00589999
0.00601019
0.00613891
0.00628529
0.0064498
0.00661968
0.00667169
0.00662296
0.00656538
0.00649984
0.00642685
0.0063466
0.0062589
0.00616314
0.00605821
0.00594236
0.00581313
0.00566717
0.00550021
0.00530698
0.0050813
0.0048164
0.00450546
0.00414265
0.00372452
0.00325182
0.00273126
0.00217684
0.00160986
0.00105759
0.00055269
0.000129188
7.20535e-05
0.000421887
0.000728661
0.000999842
0.00127169
0.00154699
0.00182156
0.00209146
0.00235418
0.00260838
0.00285356
0.00308967
0.00331692
0.00353558
0.00374595
0.00394828
0.00414278
0.00432962
0.00450891
0.00468077
0.00484528
0.00500252
0.00515255
0.00529544
0.00543128
0.00556012
0.00568203
0.00579709
0.00590535
0.0060069
0.0061018
0.00602803
0.00595387
0.00590865
0.00588742
0.00587845
0.00587384
0.00587142
0.00587139
0.00587427
0.00588057
0.00589098
0.00590646
0.00592844
0.00595918
0.00600192
0.00606058
0.00613867
0.00623807
0.00635867
0.00649927
0.00665752
0.00683129
0.00701019
0.00706166
0.00701162
0.00695287
0.00688622
0.0068123
0.00673152
0.006644
0.00654949
0.00644724
0.00633587
0.0062132
0.00607603
0.00591998
0.00573928
0.00552669
0.00527365
0.0049707
0.00460851
0.00417962
0.00368089
0.00311653
0.00250071
0.0018584
0.00122325
0.000634524
0.000140987
7.22392e-05
0.000433157
0.00076431
0.00105371
0.0013379
0.00162207
0.00190355
0.00217928
0.00244729
0.00270663
0.00295701
0.00319852
0.00343142
0.00365602
0.00387258
0.00408133
0.00428244
0.00447601
0.00466213
0.00484086
0.00501224
0.00517632
0.00533315
0.00548278
0.00562526
0.00576067
0.00588907
0.00601054
0.00612517
0.00623303
0.00633423
0.00628967
0.00621602
0.00617303
0.00615905
0.00615955
0.00616475
0.00617148
0.00617971
0.00619008
0.00620317
0.00621965
0.00624036
0.00626667
0.0063009
0.00634673
0.00640915
0.00649334
0.00660239
0.00673526
0.00688696
0.00705326
0.00723837
0.0074206
0.00737858
0.00732739
0.00726768
0.00720017
0.00712557
0.00704449
0.00695733
0.00686423
0.00676486
0.00665833
0.00654293
0.00641587
0.00627296
0.00610832
0.00591402
0.00567998
0.00539408
0.00504307
0.00461434
0.0040992
0.00349739
0.00282205
0.0021028
0.00138329
0.000712056
0.000153005
7.24614e-05
0.000443345
0.000796385
0.00110162