/*--------------------------------*- C++ -*----------------------------------*\
| =========                 |                                                 |
| \\      /  F ield         | OpenFOAM: The Open Source CFD Toolbox           |
|  \\    /   O peration     | Version:  v2012                                 |
|   \\  /    A nd           | Website:  www.openfoam.com                      |
|    \\/     M anipulation  |                                                 |
\*---------------------------------------------------------------------------*/
FoamFile
{
    version     2.0;
    format      ascii;
    class       volScalarField;
    location    "643";
    object      omega;
}
// * * * * * * * * * * * * * * * * * * * * * * * * * * * * * * * * * * * * * //

dimensions      [0 0 -1 0 0 0 0];


internalField   nonuniform List<scalar> 
6532
(
634.001
227.066
196.313
192.685
194.817
194.817
192.685
196.313
227.066
634.001
470.342
195.307
160.518
154.305
154.568
154.568
154.305
160.518
195.307
470.342
373.425
166.767
135.088
128.01
127.095
127.095
128.01
135.088
166.767
373.425
310.883
143.82
116.089
108.989
107.476
107.476
108.989
116.089
143.82
310.883
267.639
125.759
101.437
94.6573
92.8879
92.8879
94.6573
101.437
125.759
267.639
236.049
111.474
89.8677
83.512
81.6669
81.6669
83.5119
89.8676
111.474
236.049
211.94
100.025
80.552
74.6246
72.7926
72.7926
74.6245
80.5519
100.024
211.94
192.887
90.7044
72.9237
67.3908
65.6126
65.6126
67.3907
72.9236
90.7042
192.888
177.402
82.9997
66.5836
61.4011
59.6927
59.6927
61.401
66.5835
82.9993
177.402
164.526
76.5379
61.2443
56.3686
54.7339
54.7339
56.3685
61.244
76.5374
164.527
153.619
71.047
56.6942
52.0868
50.5238
50.5238
52.0866
56.6938
71.0461
153.62
144.235
66.3257
52.7756
48.4033
46.9077
46.9076
48.403
52.775
66.3244
144.237
136.057
62.2233
49.3687
45.2038
43.7703
43.7701
45.2033
49.3677
62.2214
136.06
128.853
58.6251
46.3811
42.4006
41.024
41.0237
42.3999
46.3797
58.6221
128.857
122.447
55.4427
43.7412
39.9256
38.601
38.6007
39.9246
43.7391
55.4384
122.453
116.706
52.6071
41.3923
37.7254
36.4484
36.4479
37.7239
41.3892
52.601
116.714
111.524
50.0641
39.2891
35.7573
34.5239
34.5231
35.755
39.2848
50.0558
111.536
106.82
47.7701
37.3955
33.9868
32.7935
32.7925
33.9835
37.3896
47.7604
106.835
102.526
45.6902
35.6819
32.3861
31.2296
31.2282
32.3814
35.6736
45.6801
102.545
98.586
43.7956
34.1235
30.9314
29.8088
29.8067
30.9245
34.1116
43.797
98.6088
94.8853
42.0301
32.6746
29.5803
28.4896
28.4861
29.566
32.6205
41.5758
82.6541
91.4666
40.413
31.3488
28.3444
27.2826
27.2762
28.315
31.2172
39.3879
69.8753
88.2964
38.9279
30.1328
27.211
26.1752
26.1641
27.1573
29.891
37.2095
59.9349
85.3458
37.5602
29.0141
26.1682
25.1556
25.1378
26.0819
28.6375
34.8746
52.1459
82.5898
36.2977
27.982
25.2058
24.2138
24.188
25.0838
27.4109
32.5499
46.0767
80.0069
35.1299
27.0278
24.3153
23.341
23.3054
24.1538
26.2144
30.456
41.3967
77.5783
34.048
26.1436
23.4892
22.5298
22.4814
23.2704
25.1093
28.6815
37.7751
75.2872
33.0448
25.3232
22.7214
21.7739
21.7097
22.4341
24.0836
27.2077
34.9387
73.1186
32.1145
24.5613
22.0065
21.068
20.9853
21.6445
23.1367
25.9479
32.5108
71.0592
31.2523
23.8535
21.3401
20.4075
20.3043
20.9003
22.263
24.84
30.3672
69.0965
30.4537
23.1962
20.7185
19.7887
19.6633
20.1993
21.4543
23.8389
28.4692
67.2192
29.7161
22.5867
20.1388
19.2085
19.0596
19.5386
20.7002
22.9013
26.7776
65.4163
29.037
22.0227
19.5986
18.6646
18.4907
18.9152
19.9904
22.0103
25.2591
63.6779
28.4151
21.5031
19.0962
18.1549
17.9544
18.3257
19.3166
21.1549
23.8835
61.9941
27.8492
21.0271
18.6307
17.6783
17.4493
17.7672
18.6725
20.3285
22.6249
60.3555
27.3387
20.5948
18.2018
17.2341
16.9741
17.2377
18.0534
19.5272
21.4619
58.753
26.883
20.2069
17.8099
16.8224
16.5286
16.7357
17.4571
18.7499
20.3782
57.1783
26.4812
19.8647
17.4563
16.4441
16.1133
16.2614
16.8836
17.9982
19.363
55.6802
26.1468
19.5801
17.1532
16.1121
15.7422
15.8304
16.3531
17.2991
18.4394
54.1917
25.8638
19.3421
16.8898
15.8148
15.4023
15.4283
15.8492
16.6322
17.5723
52.7046
25.6299
19.1526
16.6684
15.5544
15.0956
15.0571
15.3758
16.0029
16.7612
51.2113
25.4427
19.0139
16.4924
15.3341
14.8256
14.7209
14.9388
15.4186
16.0108
49.7041
25.2991
18.9281
16.3654
15.1579
14.5961
14.4241
14.5445
14.8876
15.3281
48.1751
25.1947
18.897
16.2912
15.03
14.4116
14.1718
14.1993
14.4176
14.721
46.6159
25.1244
18.9217
16.2734
14.9548
14.2766
13.9688
13.9088
14.015
14.1965
45.0172
25.0819
19.0025
16.3154
14.9367
14.1957
13.8195
13.6775
13.6841
13.7593
43.3685
25.0596
19.1386
16.4198
14.9795
14.1731
13.7282
13.5088
13.4272
13.411
41.6572
25.0488
19.3277
16.5884
15.0866
14.2125
13.6982
13.405
13.2446
13.15
39.8671
25.0393
19.5655
16.8211
15.2601
14.3167
13.7319
13.3671
13.1347
12.9721
37.9771
25.0182
19.8448
17.1149
15.4997
14.4868
13.8305
13.3951
13.0952
12.8719
35.957
24.9679
20.1528
17.4621
15.8013
14.7206
13.9926
13.4873
13.1227
12.8435
33.7607
24.8597
20.4663
17.8455
16.1525
15.0094
14.2117
13.6384
13.2121
12.8811
31.3102
24.6166
20.7274
18.2247
16.524
15.3311
14.4717
13.8367
13.3557
12.9836
28.4153
24.1373
20.8498
18.524
16.8549
15.6401
14.7399
14.0621
13.5496
13.1545
24.9777
23.2386
20.7271
18.6541
17.0688
15.8756
14.9757
14.3032
13.7885
13.3824
20.7853
21.3598
20.0519
18.4574
17.0782
15.9889
15.1757
14.5495
14.0545
13.6531
15.0886
17.6992
18.2593
17.6148
16.7491
15.9836
15.338
14.8
14.3523
13.977
13.2469
12.5905
15.0152
15.8477
15.9443
15.7419
15.4304
15.0926
14.7675
14.4698
13.015
9.85711
11.8786
13.8144
14.9802
15.6132
15.9104
15.987
15.9545
15.8798
13.7762
14.9332
18.5498
22.6617
26.5144
29.1564
31.1204
32.735
34.0545
35.1275
34.2637
20.0932
20.3272
20.9217
21.4021
21.7125
21.8339
21.7711
21.5248
21.1321
20.6336
20.0223
19.298
18.4898
17.6163
16.6837
15.6875
14.7046
13.7594
12.8107
11.8283
10.7767
9.59821
8.17145
7.04732
44.0209
15.9765
9.06991
7.70071
7.30527
7.13086
7.01711
6.91071
6.78566
6.62922
6.46589
6.29841
6.13103
5.96892
5.81742
5.68477
5.5935
5.66767
5.90319
6.23475
6.5934
6.89096
7.0232
6.97492
10.9821
47.425
20.7257
10.134
7.14152
6.13241
5.66927
5.39349
5.19171
5.01749
4.8446
4.67108
4.50132
4.3339
4.17156
4.0212
3.89424
3.81008
3.81608
3.95131
4.2217
4.61818
5.09568
5.56856
6.1172
12.1028
47.2167
24.7808
13.456
8.53308
6.61878
5.75909
5.27114
4.94468
4.69746
4.48856
4.29015
4.09957
3.91054
3.7216
3.53976
3.37839
3.25623
3.20292
3.25084
3.4186
3.72189
4.15714
4.69302
5.52385
12.602
45.3061
27.7594
16.1785
10.5927
7.72858
6.30336
5.54054
5.06218
4.73005
4.47901
4.2683
4.06587
3.86283
3.65171
3.43789
3.23791
3.07339
2.97042
2.95623
3.04891
3.26913
3.63294
4.15678
5.14311
12.77
42.7294
29.0917
18.4144
12.2801
9.02541
7.11095
5.99241
5.32572
4.89303
4.59468
4.37026
4.17429
3.97083
3.74583
3.5021
3.26081
3.04995
2.89901
2.83429
2.8708
3.02787
3.32967
3.82716
4.9112
12.7624
39.8382
29.6283
20.1584
13.8596
10.15
7.98465
6.58956
5.69248
5.13098
4.77362
4.53307
4.3444
4.15737
3.93713
3.66801
3.38303
3.11806
2.91446
2.80226
2.79254
2.90113
3.15498
3.62834
4.77701
12.6538
37.073
29.5272
21.2567
15.2169
11.2231
8.74799
7.18706
6.13828
5.43503
4.99894
4.73563
4.55504
4.38855
4.18525
3.91599
3.59178
3.26067
2.99466
2.8296
2.77607
2.84455
3.06167
3.51636
4.7071
12.4751
34.53
28.9933
21.8669
16.2287
12.1774
9.47792
7.71682
6.56071
5.7752
5.26318
4.96833
4.79415
4.65367
4.47991
4.22375
3.87332
3.486
3.14617
2.91329
2.80905
2.83875
3.02565
3.46595
4.68128
12.2376
32.2245
28.1346
22.1586
16.96
12.9857
10.161
8.23641
6.95231
6.10572
5.54624
5.2224
5.05374
4.94497
4.81589
4.59505
4.24148
3.79745
3.37245
3.058
2.8955
2.88307
3.04062
3.46845
4.69521
11.9669
30.1427
27.0976
22.1777
17.4375
13.6374
10.7691
8.73071
7.33947
6.42239
5.83303
5.49138
5.32932
5.25701
5.1865
5.02984
4.71242
4.23161
3.70701
3.27928
3.0393
2.97771
3.10772
3.53221
4.79275
11.7327
28.2713
25.9996
21.9685
17.6929
14.1113
11.2762
9.18
7.71405
6.7393
6.12362
5.7667
5.61528
5.58052
5.57624
5.51074
5.28373
4.82493
4.21305
3.63017
3.26347
3.13085
3.2276
3.65108
4.94384
11.5018
26.5892
24.8987
21.5769
17.7947
14.4346
11.6827
9.57588
8.06672
7.05251
6.413
6.05119
5.90546
5.90191
5.96045
6.00088
5.91732
5.5825
4.95818
4.21958
3.62023
3.36297
3.40474
3.81754
5.12047
11.255
25.0685
23.8151
21.0679
17.775
14.6392
12.0071
9.92
8.39157
7.3526
6.69622
6.33187
6.19402
6.20884
6.31375
6.45027
6.53316
6.42528
5.93925
5.12635
4.22822
3.7252
3.65199
4.02373
5.30034
10.9839
23.6829
22.7644
20.4972
17.6534
14.7492
12.2442
10.2094
8.68517
7.6341
6.96467
6.59902
6.46676
6.49151
6.62078
6.81768
7.03722
7.18199
7.0539
6.38005
5.34099
4.3582
4.01127
4.26957
5.46362
10.6934
22.4089
21.7525
19.8935
17.4345
14.8126
12.4325
10.468
8.95571
7.89702
7.21264
6.84334
6.71542
6.74525
6.87879
7.09575
7.38116
7.70157
7.94647
7.808
6.91199
5.50637
4.59981
4.58569
5.60578
10.4159
21.2271
20.7792
19.2706
17.1572
14.8345
12.5879
10.6941
9.20908
8.14489
7.4401
7.05946
6.93175
6.96474
7.09748
7.30578
7.59123
7.96288
8.40303
8.79955
8.73937
7.66144
5.76213
5.08678
5.73921
10.2528
20.1227
19.8417
18.6344
16.84
14.7962
12.7467
10.9184
9.46108
8.38697
7.6555
7.25108
7.11313
7.14599
7.2799
7.47794
7.73343
8.06673
8.50199
9.0612
9.65764
9.90964
9.02514
6.67463
6.13816
10.5624
19.1164
18.9631
18.0102
16.5053
14.7148
12.8772
11.1526
9.7191
8.6388
7.86933
7.42568
7.26166
7.28583
7.42333
7.62517
7.867
8.14587
8.48098
8.92389
9.50238
10.2358
10.9528
11.095
9.60995
10.9487
18.1674
18.1124
17.3802
16.1381
14.5977
12.9627
11.3978
10.0062
8.90966
8.10414
7.60174
7.38949
7.38621
7.51807
7.73035
7.9871
8.26577
8.55374
8.85111
9.18676
9.59105
10.11
10.7084
11.1737
11.3609
17.2718
17.2865
16.7422
15.74
14.4431
13.0139
11.6012
10.3208
9.23276
8.38356
7.81772
7.52868
7.46792
7.5679
7.7744
8.04985
8.36757
8.70418
9.03624
9.34387
9.61645
9.89765
10.2601
10.6701
11.0225
16.433
16.489
16.0986
15.3108
14.2423
13.0241
11.7784
10.6091
9.58197
8.73944
8.10757
7.72859
7.57347
7.60159
7.76104
8.01483
8.33848
8.71151
9.11052
9.50324
9.84699
10.1017
10.2934
10.5628
10.8578
15.6584
15.7284
15.4555
14.8522
13.9934
12.9782
11.9059
10.8653
9.92184
9.1175
8.48227
8.03561
7.77046
7.68769
7.7567
7.93912
8.20929
8.5475
8.93556
9.3538
9.77273
10.1533
10.4553
10.66
10.735
14.958
15.0175
14.8252
14.3712
13.6971
12.8721
11.9725
11.0712
10.2284
9.48543
8.8709
8.40276
8.0827
7.90242
7.85234
7.93286
8.11561
8.37504
8.68636
9.01967
9.34355
9.63074
9.84672
9.95141
9.90869
14.3425
14.3723
14.2254
13.8821
13.3609
12.7054
11.9701
11.2113
10.4802
9.81575
9.24423
8.78445
8.44308
8.21599
8.09404
8.07216
8.15529
8.32464
8.55755
8.82384
9.08124
9.30707
9.47577
9.56146
9.54117
13.8206
13.8087
13.6776
13.4068
13.0016
12.4865
11.8978
11.276
10.6601
10.0836
9.57168
9.14156
8.80332
8.55894
8.40432
8.33524
8.34559
8.43654
8.59264
8.7905
9.00252
9.20304
9.36784
9.47514
9.50769
13.3968
13.3386
13.2026
12.9715
12.6447
12.2358
11.7676
11.2671
10.7616
10.2759
9.83116
9.44386
9.12548
8.88176
8.71368
8.61838
8.59276
8.63054
8.72727
8.87119
9.04315
9.22233
9.38768
9.51979
9.60312
13.0706
12.9678
12.8155
12.6003
12.3204
11.9839
11.605
11.2004
10.7886
10.3875
10.0125
9.67632
9.38874
9.15615
8.98313
8.87091
8.81769
8.8201
8.87279
8.96871
9.09911
9.25036
9.40672
9.55189
9.67097
12.8373
12.6946
12.5225
12.3102
12.0558
11.7641
11.4435
11.106
10.7642
10.4305
10.1158
9.82935
9.57803
9.36686
9.20018
9.08103
9.00801
8.97881
8.99036
9.039
9.12254
9.23333
9.36123
9.49472
9.62171
12.6893
12.5122
12.3218
12.1084
11.8681
11.6023
11.3173
11.0219
10.7255
10.4375
10.1657
9.9167
9.69534
9.50514
9.34855
9.22789
9.14388
9.09502
9.07903
9.09348
9.1357
9.20209
9.2882
9.38779
9.49328
12.6184
12.4124
12.2089
11.9946
11.763
11.5138
11.2511
10.9813
10.7121
10.4507
10.2036
9.97595
9.77151
9.59277
9.44128
9.31787
9.22278
9.15532
9.11437
9.09801
9.10404
9.13011
9.17365
9.23187
9.30118
12.6194
12.3934
12.1794
11.964
11.7393
11.503
11.2566
11.0046
10.7524
10.5062
10.2713
10.0523
9.85259
9.67431
9.51873
9.38635
9.27704
9.19004
9.12382
9.07664
9.04722
9.03391
9.03462
9.04751
9.07048
12.6975
12.4531
12.2292
12.0119
11.7925
11.5667
11.334
11.0964
10.8577
10.6223
10.3946
10.1786
9.9774
9.79318
9.62733
9.48049
9.35272
9.24354
9.15193
9.07653
9.01572
8.96762
8.93047
8.90309
8.88419
12.8481
12.5877
12.3534
12.1322
11.915
11.6965
11.4745
11.2492
11.0224
10.7971
10.5764
10.3634
10.1608
9.97071
9.79456
9.63326
9.48719
9.35632
9.2402
9.13804
9.04876
8.97114
8.90381
8.84533
8.79448
13.063
12.7898
12.5457
12.3186
12.1002
11.8849
11.6696
11.4533
11.2364
11.0203
10.8071
10.5989
10.3977
10.2052
10.0229
9.85175
9.69225
9.54469
9.40903
9.28496
9.17199
9.0694
8.97632
8.89182
8.81517
13.3315
13.0529
12.8029
12.5716
12.3513
12.1368
11.9249
11.714
11.5037
11.2947
11.088
10.885
10.6871
10.4956
10.3115
10.1359
9.96925
9.81195
9.66414
9.52577
9.39661
9.27631
9.16439
9.06034
8.96386
13.6691
13.3973
13.1503
12.92
12.7003
12.4868
12.2771
12.0698
11.8644
11.6611
11.4605
11.2634
11.0709
10.8838
10.703
10.5291
10.3627
10.2042
10.0536
9.91093
9.77616
9.64899
9.52912
9.41616
9.31001
14.2114
13.9733
13.7497
13.5357
13.3285
13.1264
12.9283
12.7335
12.5417
12.3532
12.1683
11.9876
11.8116
11.641
11.4764
11.3182
11.1667
11.0221
10.8845
10.7536
10.6294
10.5115
10.3996
10.2934
10.1925
15.795
15.7063
15.6143
15.5141
15.4096
15.3027
15.1941
15.0842
14.9733
14.8621
14.7509
14.6403
14.5309
14.4232
14.3174
14.2139
14.113
14.0145
13.9185
13.8249
13.7334
13.6437
13.5556
13.4688
13.3832
35.9834
36.7205
37.3474
37.8599
38.2711
38.5896
38.8228
38.9777
39.0608
39.0788
39.038
38.9446
38.8045
38.6236
38.4073
38.1607
37.8887
37.5958
37.2861
36.9632
36.6306
36.2912
35.9476
35.6021
35.257
9.77741
9.32144
15.1101
12.1965
12.7032
12.467
11.2886
11.4178
11.2777
11.0651
10.9686
10.2472
10.5821
10.1201
9.27649
9.70146
9.34281
8.78194
9.40397
9.17127
8.82996
9.45728
9.33732
9.14326
9.62641
9.59881
9.51926
9.74735
9.78801
9.7919
9.72335
9.80488
9.86402
9.58887
9.67882
9.7605
9.36988
9.44107
9.51309
9.09881
9.13274
9.17092
8.87341
8.86762
8.86626
8.75448
8.71905
8.68714
8.75256
8.69495
8.64105
8.88365
8.80858
8.73741
9.22082
9.13639
9.05559
10.1072
10.0256
9.94661
13.3084
13.234
13.1595
34.9549
34.6561
34.3606
4.39593
6.40772
7.83282
8.86133
9.67088
10.3345
10.905
11.4072
11.8566
12.2635
12.6351
12.9767
13.2923
13.5853
13.8584
14.1138
14.3537
14.5795
14.7929
14.9951
15.1872
15.3705
15.5458
15.714
15.8761
16.0328
16.1849
16.3331
16.4781
16.6207
16.7614
16.9009
17.04
17.1793
17.3193
17.4609
17.6047
17.7513
17.9017
18.0566
18.2169
18.3836
18.558
18.7413
18.9353
19.1417
19.3629
19.5901
19.8223
20.059
20.2997
20.5443
20.7925
21.0441
21.2986
21.5556
21.8142
22.0733
22.3315
22.5869
22.8372
23.0792
23.3091
23.5217
23.7105
23.8669
23.9799
24.0346
24.0106
23.8774
23.5908
23.0922
22.3768
21.4217
19.9712
18.0079
15.6817
13.1218
10.896
9.77828
10.5594
6.96645
7.58403
7.90185
8.02742
8.03838
7.98583
7.90685
7.81979
7.73379
7.65304
7.5792
7.51267
7.45318
7.40022
7.35314
7.31129
7.27403
7.2408
7.21109
7.18443
7.16044
7.13878
7.11913
7.10125
7.0849
7.06989
7.05604
7.04319
7.03119
7.01993
7.00929
6.99915
6.98947
6.9802
6.97137
6.96308
6.95549
6.94888
6.9436
6.94015
6.93911
6.94124
6.94741
6.95916
6.97791
7.00506
7.03105
7.05814
7.08707
7.1182
7.15184
7.18833
7.22801
7.27126
7.31847
7.3701
7.42666
7.48867
7.55672
7.63142
7.71337
7.80317
7.90132
8.00817
8.12375
8.24756
8.37811
8.5125
8.64598
8.77042
8.86691
8.9151
8.87318
8.67973
8.27028
7.59135
6.87044
7.12773
11.1989
12.4451
7.00628
7.0181
6.97704
6.8559
6.67683
6.47877
6.28715
6.11189
5.95596
5.81907
5.69964
5.59566
5.50511
5.4261
5.35695
5.29621
5.24261
5.19509
5.15273
5.11477
5.08055
5.04954
5.02126
4.99532
4.9714
4.94922
4.92852
4.9091
4.89077
4.87337
4.85675
4.84081
4.82547
4.81068
4.79647
4.7829
4.77009
4.7582
4.74743
4.73806
4.73039
4.72478
4.72164
4.72142
4.7246
4.73164
4.74308
4.75615
4.77227
4.79203
4.81594
4.84451
4.87831
4.91797
4.96421
5.01783
5.07975
5.15098
5.23268
5.3261
5.4326
5.55369
5.69097
5.84616
6.021
6.21723
6.43641
6.67969
6.94743
7.23819
7.54631
7.85884
8.14665
8.36086
8.42198
8.19497
7.52559
6.7899
10.7488
13.5455
6.83352
6.47768
6.26047
6.02397
5.78325
5.55062
5.34029
5.15604
4.99697
4.86055
4.74386
4.64408
4.55863
4.48528
4.42209
4.36743
4.31989
4.27833
4.24177
4.20939
4.18052
4.1546
4.13116
4.10983
4.09027
4.07223
4.05548
4.03983
4.02511
4.01118
3.9979
3.98517
3.97289
3.96105
3.94965
3.93875
3.92844
3.91884
3.91011
3.90242
3.89599
3.89106
3.88793
3.88691
3.88838
3.89274
3.90046
3.91164
3.92572
3.94358
3.96576
3.99283
4.02535
4.06397
4.10944
4.16263
4.22453
4.2963
4.37924
4.47481
4.58469
4.7108
4.85531
5.02075
5.21004
5.42656
5.67427
5.95772
6.28206
6.65274
7.07512
7.55238
8.07964
8.63657
9.171
9.56457
9.55243
8.8701
11.3947
14.2249
6.58865
6.01138
5.70673
5.42679
5.1648
4.9289
4.72301
4.54659
4.39692
4.27053
4.16404
4.07435
3.99877
3.93496
3.88095
3.83505
3.79587
3.76224
3.73318
3.70789
3.68569
3.66605
3.6485
3.63269
3.61832
3.60513
3.59293
3.58154
3.57084
3.56067
3.55092
3.54146
3.5322
3.52308
3.51414
3.50544
3.49705
3.4891
3.4817
3.47502
3.46923
3.46452
3.46112
3.4593
3.45936
3.46167
3.46663
3.47472
3.48566
3.50005
3.5184
3.54123
3.56908
3.60256
3.64236
3.68935
3.74453
3.80909
3.88438
3.97196
4.07364
4.19152
4.32811
4.48637
4.66989
4.88305
5.13128
5.42132
5.76159
6.16259
6.63723
7.20044
7.86739
8.65034
9.552
10.5209
11.3734
11.7492
13.1132
14.6231
6.35305
5.62595
5.2755
4.97943
4.71552
4.48505
4.28807
4.12193
3.98281
3.86689
3.7706
3.69079
3.62469
3.56997
3.52464
3.48701
3.45569
3.42952
3.40752
3.38891
3.37301
3.3593
3.34733
3.33675
3.32726
3.31864
3.31068
3.30326
3.29623
3.28947
3.28286
3.27624
3.26947
3.26248
3.25534
3.24817
3.24096
3.23382
3.22685
3.2202
3.214
3.20841
3.20363
3.19988
3.19742
3.19659
3.19776
3.2014
3.20782
3.2173
3.23026
3.2472
3.26862
3.29503
3.32707
3.36555
3.41147
3.466
3.53051
3.60659
3.69606
3.80108
3.92426
4.06872
4.23832
4.43787
4.67346
4.95287
5.28617
5.68646
6.17084
6.76132
7.48632
8.38146
9.48679
10.8306
12.3718
13.9081
16.0193
14.8622
6.15141
5.30997
4.93292
4.63258
4.3726
4.14982
3.96193
3.80521
3.67552
3.5688
3.48143
3.41021
3.3524
3.30564
3.26794
3.23762
3.2133
3.1938
3.17816
3.1656
3.15546
3.1472
3.14039
3.13467
3.12977
3.12545
3.12154
3.11789
3.1144
3.11096
3.10742
3.10358
3.09924
3.0942
3.08853
3.08233
3.07571
3.06876
3.0616
3.05436
3.04715
3.04012
3.03343
3.02731
3.02201
3.01782
3.0151
3.01425
3.01572
3.01967
3.02664
3.03729
3.05209
3.07139
3.09571
3.12575
3.1625
3.2071
3.26088
3.32539
3.4024
3.49403
3.60281
3.73184
3.88494
4.06697
4.28414
4.54452
4.85877
5.24108
5.71058
6.29321
7.02447
7.95352
9.14913
10.7043
12.7306
15.3466
19.1941
15.0129
5.98455
5.04873
4.65405
4.35427
4.10002
3.88482
3.70503
3.55644
3.43468
3.3357
3.25583
3.19189
3.14113
3.10119
3.07007
3.04612
3.02792
3.01431
3.00434
2.9972
2.99225
2.98894
2.98686
2.98565
2.98502
2.98476
2.98468
2.98466
2.9846
2.9844
2.98393
2.98284
2.98071
2.97739
2.97295
2.96756
2.96138
2.95454
2.94713
2.93924
2.93099
2.92252
2.91399
2.90563
2.89769
2.8905
2.88441
2.87981
2.87707
2.87642
2.8784
2.88354
2.8924
2.90551
2.92315
2.94593
2.97475
3.01072
3.05512
3.10939
3.17523
3.25462
3.34994
3.46415
3.60089
3.76483
3.96203
4.20046
4.49079
4.84754
5.29063
5.84788
6.55868
7.48036
8.69958
10.354
12.6771
16.1285
22.0244
15.1115
5.8476
4.83015
4.42193
4.12438
3.8761
3.66778
3.49494
3.35313
3.23795
3.14536
3.07172
3.01386
2.96903
2.93487
2.9094
2.89092
2.87805
2.86959
2.86459
2.86224
2.8619
2.86302
2.86517
2.86801
2.87125
2.87467
2.87809
2.88138
2.88446
2.88726
2.88966
2.89103
2.89087
2.88915
2.88606
2.88176
2.87638
2.87
2.86272
2.85461
2.84578
2.83637
2.82653
2.8165
2.80652
2.79694
2.78816
2.78063
2.77484
2.77107
2.76969
2.77105
2.77564
2.784
2.79651
2.81363
2.83621
2.86529
2.90207
2.9479
3.00436
3.07326
3.15683
3.25779
3.37955
3.5265
3.70441
3.92095
4.18657
4.51573
4.92865
5.4542
6.13421
7.03123
8.24333
9.93687
12.4314
16.4919
24.7182
15.1777
5.73536
4.64549
4.22534
3.93022
3.68752
3.48522
3.31822
3.18199
3.0722
2.98484
2.91632
2.86349
2.8236
2.79432
2.77362
2.75982
2.75151
2.7475
2.74681
2.74863
2.7523
2.75728
2.76314
2.76952
2.77613
2.78275
2.78921
2.79538
2.80117
2.80657
2.81142
2.81505
2.81696
2.8171
2.81562
2.8127
2.80846
2.803
2.79638
2.78868
2.78
2.77046
2.76022
2.74947
2.73849
2.72763
2.7173
2.70801
2.70029
2.69452
2.69108
2.6903
2.69249
2.69795
2.70705
2.72027
2.73838
2.76239
2.79341
2.83268
2.88165
2.94198
3.0157
3.10531
3.21396
3.34574
3.50603
3.70217
3.94427
4.24655
4.62939
5.12246
5.7698
6.63859
7.83632
9.54998
12.1583
16.6702
27.2965
15.2245
5.64341
4.48856
4.05688
3.76371
3.52589
3.32872
3.16656
3.03489
2.92946
2.84634
2.78199
2.73328
2.69747
2.67223
2.65553
2.64567
2.64123
2.64099
2.64397
2.64936
2.65647
2.66477
2.67379
2.6832
2.69269
2.70206
2.71111
2.71974
2.72788
2.73553
2.74255
2.74838
2.75245
2.75459
2.75494
2.75369
2.75098
2.74691
2.74154
2.73496
2.72724
2.71849
2.70886
2.69853
2.68773
2.67681
2.66619
2.65639
2.64801
2.64151
2.63726
2.63558
2.63673
2.64088
2.64822
2.65921
2.6746
2.6953
2.72233
2.75684
2.80014
2.85375
2.91953
2.99973
3.09726
3.21588
3.36061
3.53837
3.75887
4.03605
4.39035
4.85227
5.46823
6.31084
7.49834
9.23844
11.9561
16.8393
29.7896
15.2638
5.56824
4.35497
3.91175
3.6197
3.38593
3.19302
3.03482
2.90683
2.8049
2.72517
2.66416
2.61877
2.58628
2.56434
2.55093
2.54433
2.54309
2.54602
2.55209
2.56048
2.57051
2.58162
2.59335
2.60535
2.61732
2.62904
2.64036
2.65116
2.6614
2.6711
2.68014
2.68814
2.69442
2.69871
2.70112
2.70184
2.70104
2.69883
2.69528
2.69048
2.68449
2.67742
2.66937
2.66049
2.651
2.64119
2.63145
2.62234
2.61446
2.60838
2.60447
2.60302
2.60427
2.60828
2.6152
2.62544
2.63965
2.65862
2.68329
2.7147
2.75402
2.80265
2.86226
2.93491
3.02324
3.1307
3.26193
3.42342
3.62441
3.87848
4.20603
4.63835
5.22456
6.04375
7.2281
9.01287
11.8757
17.135
32.329
15.3107
5.5074
4.24182
3.78698
3.49512
3.26447
3.07499
2.91997
2.79491
2.69574
2.61868
2.56031
2.51754
2.48768
2.46836
2.45758
2.4536
2.45497
2.46048
2.46911
2.48001
2.49251
2.50602
2.52009
2.53435
2.54852
2.56236
2.57573
2.58854
2.60077
2.61243
2.62348
2.63361
2.64219
2.64882
2.65355
2.65656
2.65804
2.65812
2.6569
2.65445
2.65084
2.64617
2.64051
2.63399
2.62677
2.61906
2.61124
2.60382
2.59744
2.59275
2.59012
2.58985
2.59212
2.597
2.60464
2.61535
2.62967
2.64829
2.67202
2.70179
2.73865
2.78386
2.83892
2.90571
2.98661
3.08477
3.20446
3.35167
3.53512
3.76789
4.07019
4.47394
5.03096
5.82774
7.01397
8.86319
11.9326
17.6976
35.0882
15.3887
5.46003
4.14794
3.68142
3.38862
3.16007
2.97318
2.82064
2.69786
2.60083
2.52582
2.46944
2.42866
2.40078
2.38347
2.3747
2.37276
2.37619
2.38377
2.39448
2.40749
2.42208
2.43769
2.45385
2.47018
2.48638
2.50223
2.51759
2.53237
2.54657
2.56021
2.57328
2.58559
2.59656
2.60571
2.61302
2.61863
2.62274
2.6255
2.62702
2.62739
2.62668
2.62497
2.62234
2.61886
2.61466
2.60988
2.60481
2.59993
2.59587
2.59335
2.59276
2.59444
2.59856
2.6052
2.61449
2.62666
2.64216
2.66154
2.68551
2.71488
2.75057
2.79372
2.84567
2.90809
2.98313
3.07366
3.18355
3.31828
3.48593
3.69892
3.97697
4.35228
4.87902
5.65137
6.83944
8.76651
12.1076
18.6041
38.2855
15.5452
5.42828
4.07427
3.59582
3.30066
3.07297
2.88777
2.73703
2.61593
2.52046
2.44692
2.39195
2.35256
2.32607
2.31017
2.30286
2.30243
2.30743
2.31665
2.32907
2.34386
2.36031
2.37784
2.39596
2.41428
2.43249
2.45037
2.46776
2.48457
2.50079
2.51648
2.53164
2.54617
2.5596
2.57143
2.58153
2.59001
2.59705
2.6028
2.60739
2.61092
2.61348
2.61513
2.61596
2.61603
2.61539
2.61416
2.61252
2.61087
2.60983
2.61013
2.61224
2.61656
2.62325
2.63238
2.64404
2.65843
2.6759
2.6969
2.72202
2.75197
2.78756
2.82976
2.87976
2.93906
3.00958
3.09389
3.19553
3.31934
3.47267
3.66706
3.92134
4.26734
4.76078
5.50288
6.68575
8.69199
12.3543
19.8164
42.2194
15.8531
5.42597
4.02801
3.5343
3.23382
3.00513
2.82059
2.6709
2.55089
2.45642
2.3838
2.3297
2.29114
2.26554
2.25058
2.24426
2.24491
2.25111
2.26166
2.27556
2.29195
2.31016
2.32957
2.34967
2.37005
2.39037
2.41038
2.42991
2.44885
2.46719
2.48498
2.50228
2.51905
2.53494
2.54949
2.56251
2.57403
2.58419
2.59314
2.60102
2.60792
2.61396
2.61921
2.62376
2.62765
2.63094
2.63368
2.63598
2.63813
2.64071
2.64442
2.64987
2.65744
2.66726
2.6794
2.69395
2.71107
2.73102
2.7542
2.78111
2.81232
2.84856
2.89064
2.93959
2.99673
3.06375
3.14294
3.23762
3.35184
3.49207
3.66873
3.89919
4.21407
4.66908
5.37058
6.53277
8.60524
12.6181
21.2745
47.3161
16.5057
5.47774
4.01964
3.5023
3.19103
2.95923
2.7747
2.62536
2.50595
2.41202
2.33998
2.28638
2.24831
2.22343
2.20921
2.20368
2.20521
2.21242
2.22416
2.23945
2.25746
2.27747
2.29886
2.32111
2.34375
2.36637
2.38866
2.41042
2.43155
2.45201
2.47187
2.49124
2.51017
2.52841
2.54558
2.56145
2.57599
2.5893
2.60148
2.61268
2.623
2.63256
2.64146
2.64977
2.65757
2.6649
2.67179
2.6783
2.68464
2.69134
2.699
2.70831
2.71956
2.73289
2.74839
2.7661
2.78615
2.8088
2.8344
2.8634
2.89629
2.93364
2.97616
3.02473
3.08048
3.14489
3.21991
3.30825
3.41362
3.54162
3.70112
3.9072
4.18807
4.5967
5.23987
6.35065
8.45171
12.8265
22.9065
54.1865
17.5918
5.77835
4.09746
3.52862
3.1905
2.94409
2.75393
2.60423
2.48535
2.3918
2.32116
2.26911
2.23227
2.20818
2.19465
2.18988
2.19232
2.20064
2.21373
2.23062
2.25052
2.27271
2.29653
2.32135
2.34659
2.37169
2.39626
2.42011
2.44315
2.46538
2.48696
2.5081
2.52888
2.54912
2.56852
2.58686
2.60408
2.6202
2.63534
2.64959
2.66309
2.67594
2.68825
2.70012
2.71163
2.72284
2.73379
2.7445
2.75514
2.7662
2.77819
2.79159
2.80671
2.8237
2.8426
2.86341
2.88622
2.91139
2.93932
2.97036
3.00488
3.04335
3.08637
3.13468
3.18926
3.25137
3.3227
3.40554
3.50309
3.62005
3.76365
3.94594
4.18883
4.53644
5.09023
6.08021
8.06399
12.6023
24.0802
63.5491
14.0046
6.06688
4.34017
3.65636
3.25964
2.98215
2.77487
2.61617
2.49553
2.40673
2.34047
2.29172
2.25728
2.23494
2.22291
2.2196
2.22359
2.23362
2.24857
2.26752
2.28967
2.31437
2.34098
2.36869
2.39661
2.42395
2.45004
2.47492
2.49868
2.52158
2.54391
2.56592
2.58764
2.60896
2.62964
2.6495
2.66844
2.68649
2.70372
2.72024
2.73616
2.7516
2.76665
2.78144
2.79605
2.81056
2.82503
2.8395
2.85412
2.86932
2.88544
2.9028
2.92164
2.94205
2.96406
2.98743
3.01263
3.04007
3.07001
3.10271
3.13849
3.17773
3.22093
3.26873
3.32194
3.38164
3.44925
3.52671
3.61665
3.72283
3.85081
4.00947
4.21426
4.49563
4.92151
5.66663
7.13807
10.3923
17.7994
31.9544
11.405
6.28042
4.68182
3.87726
3.41524
3.09415
2.86084
2.68612
2.56545
2.48209
2.42406
2.38267
2.35321
2.33457
2.32557
2.32499
2.33153
2.34391
2.36102
2.3819
2.40579
2.43218
2.46064
2.48985
2.51847
2.54519
2.56991
2.59314
2.61523
2.6366
2.65765
2.67865
2.69957
2.72025
2.74047
2.76008
2.77906
2.79743
2.81526
2.83264
2.84968
2.86647
2.88311
2.89972
2.91638
2.93319
2.95023
2.96758
2.98546
3.00388
3.0231
3.04363
3.06546
3.08859
3.11306
3.13903
3.16653
3.19582
3.22713
3.26074
3.29695
3.33613
3.37871
3.42523
3.47637
3.53305
3.59644
3.66812
3.75016
3.84545
3.958
4.09381
4.26254
4.48135
4.79082
5.26767
6.04824
7.32122
9.24434
11.5973
9.85602
6.44629
4.99239
4.16287
3.66172
3.3072
3.05265
2.88453
2.77635
2.70492
2.65769
2.62504
2.60143
2.58673
2.58025
2.58108
2.58807
2.6001
2.61616
2.63537
2.65702
2.68052
2.70511
2.72906
2.75119
2.77093
2.78919
2.80616
2.82213
2.83754
2.85343
2.87031
2.88746
2.90449
2.92119
2.93754
2.95373
2.96984
2.9859
3.00196
3.01811
3.03444
3.051
3.06788
3.08516
3.10291
3.12125
3.14031
3.16029
3.18054
3.20138
3.22341
3.24682
3.27154
3.29751
3.32515
3.35431
3.38486
3.4167
3.45021
3.48575
3.52371
3.56451
3.60863
3.65665
3.70933
3.7676
3.83271
3.90623
3.99025
4.08754
4.20197
4.33953
4.51335
4.74713
5.06645
5.50082
6.08765
6.85663
7.59793
8.76673
6.53381
5.31169
4.55577
4.06929
3.72424
3.4902
3.35921
3.27086
3.20335
3.14933
3.10567
3.07296
3.04925
3.03317
3.02362
3.01966
3.02052
3.02546
3.03379
3.04472
3.05728
3.0702
3.08287
3.09499
3.10683
3.11843
3.12968
3.14037
3.15051
3.16032
3.16983
3.17872
3.18697
3.19479
3.20266
3.21165
3.22173
3.23257
3.24417
3.25665
3.27002
3.28427
3.29939
3.3154
3.3324
3.35053
3.37009
3.39006
3.41031
3.43096
3.45238
3.47508
3.4992
3.52465
3.55133
3.57976
3.60966
3.64091
3.67319
3.7068
3.74218
3.77979
3.82012
3.8637
3.91114
3.9632
4.0208
4.0851
4.15754
4.23996
4.33508
4.44746
4.58782
4.76804
4.99507
5.27562
5.61526
6.00283
6.36588
8.12037
6.73349
5.80385
5.18561
4.79795
4.52993
4.33114
4.17442
4.04615
3.93652
3.84413
3.76921
3.71006
3.66314
3.62603
3.59692
3.57443
3.55749
3.54522
3.53683
3.53158
3.52873
3.52761
3.52814
3.53003
3.53296
3.53711
3.54209
3.54748
3.55268
3.55668
3.55895
3.56012
3.56053
3.56042
3.56009
3.56011
3.56082
3.56256
3.56607
3.57197
3.57992
3.58965
3.60099
3.61387
3.62839
3.64486
3.66231
3.68015
3.69825
3.71663
3.73548
3.75509
3.77585
3.79803
3.82147
3.84609
3.87227
3.9001
3.92933
3.9599
3.99139
4.02446
4.05957
4.09729
4.13816
4.1828
4.2319
4.28625
4.3468
4.41478
4.49222
4.58339
4.69596
4.8346
5.00071
5.19476
5.41488
5.64935
5.86556
8.05019
7.19493
6.5275
6.06203
5.73134
5.47339
5.26312
5.08615
4.932
4.79732
4.68106
4.58326
4.50048
4.43005
4.3698
4.31801
4.27329
4.23452
4.20078
4.17132
4.14546
4.12268
4.10256
4.08478
4.06922
4.05564
4.04371
4.03323
4.02402
4.01583
4.00838
4.00147
3.99505
3.98908
3.98345
3.97797
3.972
3.96601
3.96081
3.95727
3.95627
3.95824
3.96268
3.96929
3.97802
3.9892
4.00167
4.0148
4.02837
4.0422
4.05623
4.07054
4.08529
4.10066
4.11699
4.13467
4.15337
4.17323
4.19443
4.21747
4.2421
4.26823
4.29589
4.32467
4.35534
4.38845
4.42453
4.46415
4.50785
4.55624
4.61013
4.67115
4.74335
4.83122
4.93623
5.05794
5.19501
5.34423
5.49719
5.63727
8.36836
7.79536
7.29801
6.91219
6.61394
6.37007
6.1637
5.98539
5.82801
5.68876
5.56479
5.45406
5.35499
5.2661
5.18609
5.11377
5.04804
4.98811
4.93319
4.88266
4.83599
4.79268
4.75233
4.71466
4.67967
4.64743
4.61744
4.58952
4.56358
4.53953
4.5173
4.4968
4.47803
4.46097
4.44564
4.43205
4.42023
4.4102
4.402
4.396
4.39203
4.39026
4.39061
4.39311
4.39805
4.40408
4.4108
4.41806
4.42569
4.43354
4.44153
4.44965
4.45799
4.46662
4.47568
4.48557
4.49645
4.50841
4.52148
4.53579
4.55155
4.56939
4.58889
4.61016
4.63319
4.65777
4.68448
4.71387
4.74635
4.78233
4.82241
4.86803
4.92256
4.98823
5.06529
5.15281
5.24906
5.35106
5.45317
5.54626
8.85704
8.49701
8.12284
7.77516
7.48067
7.23391
7.0272
6.84862
6.69199
6.55099
6.42183
6.30247
6.19202
6.08931
5.99373
5.90481
5.82185
5.74432
5.67168
5.60338
5.53892
5.47789
5.41994
5.36482
5.31241
5.26316
5.21701