/*--------------------------------*- C++ -*----------------------------------*\
| =========                 |                                                 |
| \\      /  F ield         | OpenFOAM: The Open Source CFD Toolbox           |
|  \\    /   O peration     | Version:  v2012                                 |
|   \\  /    A nd           | Website:  www.openfoam.com                      |
|    \\/     M anipulation  |                                                 |
\*---------------------------------------------------------------------------*/
FoamFile
{
    version     2.0;
    format      ascii;
    class       volScalarField;
    location    "643";
    object      p;
}
// * * * * * * * * * * * * * * * * * * * * * * * * * * * * * * * * * * * * * //

dimensions      [0 2 -2 0 0 0 0];


internalField   nonuniform List<scalar> 
6532
(
0.4032
0.402568
0.402226
0.402082
0.40202
0.40202
0.402081
0.402225
0.402567
0.403199
0.402494
0.402314
0.402139
0.402031
0.40198
0.40198
0.40203
0.402139
0.402314
0.402493
0.402007
0.402022
0.401953
0.401877
0.401841
0.401841
0.401877
0.401952
0.402021
0.402007
0.401712
0.401769
0.401733
0.401677
0.401652
0.401652
0.401676
0.401731
0.401767
0.401711
0.401474
0.401536
0.401512
0.401467
0.401447
0.401446
0.401466
0.401511
0.401534
0.401472
0.401247
0.401305
0.401286
0.40125
0.401232
0.401231
0.401248
0.401284
0.401302
0.401244
0.401024
0.401075
0.401056
0.401024
0.401009
0.401008
0.401022
0.401052
0.40107
0.40102
0.400806
0.400849
0.400828
0.400798
0.400783
0.400782
0.400794
0.400822
0.400842
0.400799
0.400589
0.400625
0.400602
0.400573
0.400559
0.400556
0.400567
0.400593
0.400614
0.400578
0.400373
0.400403
0.400379
0.40035
0.400335
0.400331
0.400341
0.400365
0.400387
0.400357
0.400158
0.400183
0.400157
0.400128
0.400111
0.400106
0.400114
0.400136
0.400158
0.400133
0.399944
0.399965
0.399938
0.399908
0.399889
0.399881
0.399886
0.399906
0.399928
0.399907
0.399734
0.399751
0.399722
0.399689
0.399667
0.399656
0.399657
0.399674
0.399695
0.399678
0.399529
0.399543
0.399511
0.399475
0.399446
0.399429
0.399425
0.399438
0.399458
0.399444
0.399333
0.399343
0.399307
0.399263
0.399226
0.3992
0.399188
0.399196
0.399215
0.399204
0.399149
0.399156
0.399113
0.399059
0.399007
0.398966
0.398942
0.398944
0.398964
0.398958
0.398986
0.398988
0.398935
0.398863
0.398788
0.398723
0.39868
0.398673
0.398701
0.398707
0.398852
0.398849
0.398781
0.398682
0.398573
0.398468
0.398389
0.398368
0.398418
0.398458
0.398765
0.398755
0.398664
0.398525
0.398361
0.398188
0.398038
0.397971
0.398063
0.398279
0.398747
0.398728
0.398608
0.398414
0.398167
0.397888
0.39761
0.397467
0.397649
0.398309
0.398827
0.3988
0.398646
0.398378
0.398015
0.397562
0.397008
0.396432
0.395741
0.391644
0.39905
0.399021
0.398831
0.398487
0.398007
0.397393
0.396568
0.395403
0.394811
0.396857
0.399467
0.399443
0.399223
0.39881
0.398224
0.39749
0.396567
0.395134
0.393325
0.39505
0.400127
0.400112
0.399866
0.399388
0.398696
0.397823
0.396773
0.395195
0.392417
0.392867
0.401075
0.401073
0.400801
0.400253
0.399452
0.398426
0.397207
0.39559
0.392574
0.392188
0.402362
0.402375
0.402072
0.401448
0.400528
0.399344
0.397935
0.396219
0.393052
0.391651
0.404045
0.404072
0.403732
0.403015
0.401954
0.400583
0.398937
0.397039
0.393813
0.391198
0.406187
0.406227
0.405839
0.405007
0.403768
0.402161
0.400207
0.397975
0.394603
0.391009
0.408862
0.408912
0.408467
0.407493
0.406037
0.40414
0.401813
0.399102
0.395377
0.391372
0.412171
0.412235
0.41171
0.410566
0.408854
0.406622
0.40389
0.400687
0.396554
0.39223
0.416216
0.416296
0.415669
0.414327
0.412321
0.409704
0.406518
0.402805
0.398324
0.393568
0.421101
0.421188
0.420451
0.418884
0.416538
0.413472
0.409747
0.40544
0.400533
0.395247
0.426961
0.427053
0.42619
0.424363
0.421621
0.418031
0.413668
0.40865
0.403104
0.397195
0.433949
0.434046
0.433036
0.430909
0.427712
0.423519
0.418415
0.412553
0.406171
0.399489
0.442228
0.44233
0.441154
0.438689
0.434978
0.4301
0.424152
0.417311
0.409901
0.402248
0.451968
0.452077
0.450718
0.447882
0.443605
0.437966
0.431071
0.423121
0.414496
0.405658
0.463341
0.463465
0.461913
0.458681
0.453797
0.447334
0.439408
0.430234
0.420237
0.410009
0.476507
0.476669
0.474914
0.471271
0.465755
0.458433
0.449421
0.438946
0.427462
0.415672
0.49142
0.491582
0.489603
0.485551
0.479412
0.471241
0.461149
0.449367
0.436365
0.422921
0.508024
0.508154
0.505956
0.501511
0.494779
0.485799
0.474677
0.461639
0.447157
0.432045
0.526512
0.526653
0.524261
0.519448
0.512162
0.502431
0.490352
0.476141
0.460257
0.443512
0.546958
0.547109
0.544529
0.539376
0.531595
0.521195
0.508269
0.493019
0.475874
0.457613
0.569347
0.569489
0.566714
0.561247
0.553032
0.542062
0.528427
0.512312
0.494107
0.474528
0.59354
0.593649
0.590667
0.584904
0.576316
0.564884
0.550694
0.533917
0.514898
0.494271
0.619311
0.619355
0.616144
0.610092
0.601185
0.589395
0.574809
0.557586
0.538026
0.516672
0.646357
0.646296
0.642818
0.636468
0.627281
0.615226
0.600394
0.582936
0.56311
0.541368
0.6743
0.674082
0.670284
0.663605
0.654161
0.641915
0.626969
0.609467
0.589631
0.567829
0.702679
0.702244
0.698055
0.691002
0.681306
0.668933
0.653984
0.636603
0.616977
0.595402
0.730951
0.73023
0.72557
0.718089
0.708146
0.695703
0.680853
0.663734
0.6445
0.623385
0.758476
0.757396
0.752187
0.744242
0.734078
0.721639
0.706994
0.690267
0.671577
0.651101
0.784497
0.782979
0.777175
0.768788
0.758485
0.746169
0.731866
0.715668
0.697658
0.677957
0.808066
0.806037
0.799721
0.791043
0.780776
0.768775
0.755001
0.739499
0.722304
0.703488
0.82798
0.825456
0.818921
0.8103
0.800398
0.789019
0.776034
0.761432
0.745202
0.727368
0.842224
0.840398
0.834273
0.826073
0.816951
0.806598
0.794729
0.781265
0.766159
0.749398
0.849117
0.84902
0.844756
0.83793
0.830229
0.821395
0.811002
0.798923
0.785095
0.76948
0.850944
0.851622
0.849913
0.845665
0.840216
0.833432
0.824875
0.814399
0.801953
0.787507
0.851128
0.851438
0.851263
0.849826
0.847174
0.842883
0.836492
0.827819
0.816827
0.803533
0.851102
0.85067
0.850868
0.851539
0.851582
0.849912
0.845867
0.839125
0.829632
0.817447
0.851749
0.850856
0.850933
0.852551
0.854642
0.855291
0.853259
0.848122
0.839933
0.828675
0.852861
0.852357
0.852749
0.85482
0.857845
0.860146
0.859951
0.856399
0.849864
0.840098
0.370697
0.373615
0.375428
0.377165
0.378674
0.379825
0.380603
0.380915
0.380779
0.380266
0.379365
0.378209
0.376954
0.375631
0.374358
0.37329
0.372538
0.372161
0.372211
0.372695
0.373525
0.37451
0.375369
0.375854
0.376023
0.378958
0.375308
0.374787
0.375654
0.376748
0.377732
0.378491
0.378896
0.378822
0.37828
0.377379
0.376278
0.375123
0.373987
0.372957
0.372121
0.371551
0.371316
0.371453
0.37197
0.372811
0.373855
0.37491
0.375675
0.376038
0.379456
0.375888
0.374725
0.374916
0.375564
0.37622
0.376718
0.376942
0.376821
0.376357
0.375611
0.37469
0.37371
0.37276
0.371917
0.371253
0.370825
0.37067
0.370807
0.371237
0.371929
0.37281
0.373775
0.374668
0.375315
0.378174
0.374975
0.373865
0.37397
0.374601
0.375226
0.375665
0.375826
0.375671
0.37521
0.374498
0.373622
0.372684
0.37178
0.370993
0.370384
0.37
0.369864
0.369984
0.370351
0.370932
0.371661
0.372455
0.373249
0.373977
0.378746
0.374279
0.372633
0.372695
0.373474
0.374213
0.374743
0.374951
0.374819
0.374371
0.373667
0.372796
0.371861
0.370963
0.370185
0.369588
0.369207
0.369058
0.369139
0.369438
0.369923
0.370538
0.371204
0.371872
0.372578
0.380157
0.374484
0.371916
0.371775
0.372477
0.37327
0.373877
0.374158
0.374075
0.373657
0.372968
0.372102
0.371166
0.370265
0.369486
0.368888
0.368502
0.368335
0.368376
0.368611
0.369006
0.369514
0.370068
0.370605
0.371196
0.380953
0.375129
0.372108
0.371569
0.371951
0.372623
0.373207
0.373521
0.373477
0.373088
0.372416
0.371554
0.370614
0.369707
0.368923
0.36832
0.367926
0.367742
0.367749
0.367927
0.36824
0.368647
0.369089
0.369497
0.369954
0.381511
0.37618
0.373108
0.372045
0.372008
0.37243
0.372899
0.373161
0.373117
0.372739
0.372071
0.371203
0.37025
0.369328
0.368532
0.367919
0.367514
0.367312
0.367289
0.367418
0.367663
0.367981
0.368321
0.368618
0.368962
0.382724
0.377678
0.374572
0.373104
0.372705
0.372842
0.373109
0.37324
0.373112
0.372696
0.372007
0.371112
0.370126
0.369172
0.368347
0.367712
0.367288
0.367064
0.367014
0.367102
0.367289
0.367534
0.367789
0.367996
0.368244
0.384493
0.379598
0.376441
0.374698
0.373989
0.373831
0.373839
0.373774
0.373514
0.37301
0.372275
0.371334
0.370287
0.369273
0.368399
0.367723
0.367262
0.367006
0.366925
0.366978
0.367119
0.367305
0.367491
0.367625
0.36779
0.38652
0.381739
0.378565
0.376645
0.375674
0.375242
0.375015
0.374753
0.374337
0.373702
0.372863
0.37189
0.37077
0.369666
0.368711
0.367969
0.367448
0.367139
0.36702
0.367041
0.367148
0.367288
0.367416
0.367491
0.367588
0.388616
0.383928
0.38075
0.378724
0.377564
0.376918
0.376482
0.376047
0.375502
0.374765
0.373809
0.372715
0.371563
0.370373
0.369318
0.368487
0.367879
0.367479
0.367298
0.367284
0.367362
0.36747
0.367553
0.367583
0.367623
0.390704
0.386022
0.382805
0.380705
0.379418
0.378616
0.378021
0.377454
0.376815
0.376042
0.375059
0.373853
0.372608
0.371389
0.370245
0.369297
0.368569
0.368045
0.367772
0.367714
0.367764
0.367841
0.367885
0.367874
0.367874
0.392816
0.387953
0.384601
0.382401
0.381011
0.380098
0.379402
0.37876
0.378075
0.377297
0.376371
0.375236
0.373919
0.372638
0.37146
0.370386
0.369496
0.368844
0.368449
0.36831
0.368319
0.368365
0.368373
0.368328
0.368289
0.395057
0.389764
0.386112
0.383721
0.382199
0.381191
0.38043
0.379755
0.379082
0.378356
0.377532
0.376557
0.375382
0.374062
0.372841
0.371748
0.370694
0.369863
0.369329
0.369062
0.368978
0.368975
0.368958
0.368888
0.368809
0.39762
0.391616
0.387439
0.384695
0.382949
0.381807
0.380979
0.380293
0.379662
0.379034
0.378363
0.377595
0.376678
0.375564
0.374359
0.37327
0.372193
0.37114
0.370395
0.369988
0.369766
0.369652
0.369591
0.369501
0.369357
0.40081
0.39379
0.388807
0.385485
0.383359
0.381988
0.381046
0.380329
0.379737
0.379215
0.378724
0.378206
0.3776
0.376857
0.375942
0.374945
0.373944
0.372798
0.371727
0.371036
0.370714
0.370476
0.370272
0.370094
0.369829
0.405028
0.39668
0.390575
0.386399
0.38367
0.381913
0.380751
0.379942
0.37935
0.378912
0.378594
0.37834
0.378081
0.377754
0.377318
0.376807
0.376081
0.375058
0.373885
0.372599
0.37171
0.371372
0.3712
0.3708
0.370066
0.41063
0.400689
0.393158
0.387828
0.384236
0.381885
0.380353
0.379346
0.378683
0.378276
0.378087
0.37807
0.378155
0.378277
0.378386
0.378428
0.378332
0.378006
0.377172
0.37571
0.373719
0.37208
0.371302
0.370892
0.369456
0.417991
0.406254
0.397024
0.39024
0.385499
0.382306
0.380207
0.378852
0.378005
0.377544
0.377416
0.377578
0.377969
0.37853
0.379213
0.379961
0.38069
0.381237
0.381312
0.380968
0.379489
0.376698
0.373875
0.373354
0.375167
0.427636
0.413944
0.402759
0.394207
0.387996
0.383659
0.380727
0.378814
0.377626
0.376988
0.376818
0.377069
0.377693
0.37864
0.379878
0.381378
0.383106
0.384995
0.386897
0.38861
0.389987
0.390263
0.390192
0.390645
0.392439
0.439955
0.424245
0.410921
0.400324
0.392315
0.386505
0.382436
0.379693
0.377944
0.376962
0.37661
0.376817
0.37754
0.378746
0.380413
0.382525
0.385071
0.388055
0.391492
0.39532
0.399302
0.403209
0.40751
0.412318
0.416973
0.455237
0.437567
0.422029
0.409184
0.399087
0.391471
0.385929
0.382046
0.379459
0.377894
0.377167
0.377165
0.377823
0.379113
0.381038
0.383577
0.38666
0.390218
0.394215
0.398622
0.403349
0.408295
0.413698
0.419635
0.425654
0.473604
0.454164
0.436484
0.42131
0.408915
0.399198
0.391849
0.386487
0.382742
0.380306
0.378946
0.378506
0.378894
0.380084
0.382101
0.384859
0.388205
0.392029
0.396243
0.400839
0.405819
0.411074
0.416488
0.421898
0.427212
0.494969
0.474076
0.454485
0.437067
0.422297
0.410272
0.400825
0.393651
0.388405
0.384765
0.382463
0.381298
0.38114
0.381952
0.383764
0.386459
0.38981
0.39368
0.398006
0.402703
0.407657
0.412757
0.417883
0.422869
0.427547
0.519021
0.497087
0.475964
0.456564
0.439523
0.425131
0.413395
0.40413
0.397055
0.391866
0.388277
0.38605
0.385004
0.385097
0.386351
0.388651
0.391757
0.395502
0.399766
0.4044
0.409246
0.414163
0.419009
0.423637
0.427905
0.545234
0.522718
0.500542
0.479587
0.460571
0.443944
0.429889
0.418372
0.409215
0.402169
0.396962
0.393337
0.391066
0.390051
0.390394
0.392041
0.394647
0.397971
0.401883
0.406228
0.410831
0.415515
0.420112
0.42447
0.428458
0.572924
0.550266
0.527552
0.505567
0.485033
0.466499
0.450294
0.436539
0.425186
0.416076
0.408988
0.40368
0.399911
0.397493
0.396535
0.397126
0.398922
0.40154
0.404816
0.408613
0.41275
0.417037
0.421298
0.425371
0.429118
0.601321
0.578901
0.55612
0.533642
0.512131
0.492165
0.474165
0.458382
0.444899
0.433668
0.424553
0.417362
0.411877
0.407873
0.405289
0.404362
0.404991
0.406655
0.409048
0.412024
0.415433
0.419095
0.42283
0.426476
0.429892
0.62967
0.60777
0.585297
0.562789
0.540824
0.51995
0.500627
0.483184
0.467816
0.454585
0.443452
0.434302
0.426972
0.42127
0.417004
0.414254
0.413169
0.413524
0.414849
0.416821
0.41929
0.422102
0.425096
0.428118
0.431027
0.657307
0.636113
0.614198
0.591997
0.569996
0.548686
0.528517
0.509857
0.492968
0.478005
0.465019
0.453979
0.444795
0.437337
0.431449
0.426992
0.423985
0.422458
0.422213
0.42297
0.424403
0.42624
0.428345
0.430585
0.432819
0.683713
0.663325
0.642106
0.62041
0.598645
0.577242
0.55662
0.53715
0.51913
0.502772
0.4882
0.47546
0.464529
0.455338
0.447789
0.441763
0.437146
0.433829
0.431749
0.430791
0.430724
0.431325
0.432434
0.433842
0.435324
0.708527
0.688986
0.668509
0.647395
0.625996
0.604694
0.583876
0.563899
0.545074
0.527645
0.511783
0.49759
0.485102
0.474304
0.465143
0.457537
0.451389
0.446585
0.442983
0.440403
0.438747
0.437918
0.437713
0.437944
0.438456
0.731524
0.712826
0.693072
0.672529
0.651515
0.630382
0.60949
0.589186
0.569779
0.551529
0.534636
0.519238
0.505417
0.493198
0.482565
0.473469
0.465835
0.459563
0.454537
0.45062
0.447683
0.445571
0.444074
0.443088
0.442564
0.752579
0.734685
0.715589
0.695545
0.674859
0.653867
0.632922
0.612361
0.592494
0.573587
0.555855
0.539463
0.524517
0.511077
0.499157
0.488733
0.479751
0.472133
0.465778
0.460569
0.45638
0.453074
0.450511
0.448573
0.447151
0.771539
0.75437
0.735832
0.71619
0.695743
0.674827
0.653798
0.632993
0.612723
0.593258
0.574824
0.557598
0.54171
0.527238
0.51422
0.502653
0.492503
0.483707
0.476183
0.469828
0.46453
0.460167
0.456616
0.453755
0.451468
0.788419
0.77185
0.753711
0.734286
0.713903
0.692928
0.671733
0.650655
0.63
0.610036
0.590996
0.573067
0.556388
0.541055
0.52712
0.514598
0.503468
0.493685
0.485178
0.477858
0.471624
0.466365
0.461967
0.458315
0.455297
0.803068
0.786923
0.769002
0.749671
0.729282
0.708195
0.686795
0.66544
0.64443
0.624033
0.604482
0.585968
0.56864
0.552603
0.53792
0.524618
0.512688
0.502096
0.492783
0.48467
0.477667
0.47167
0.466572
0.462267
0.458647
0.814734
0.798775
0.780922
0.761561
0.741074
0.719847
0.698246
0.676612
0.655257
0.634456
0.614446
0.595427
0.577554
0.560941
0.545661
0.531748
0.519202
0.507996
0.49808
0.489383
0.481817
0.475287
0.469688
0.464915
0.460856
0.827023
0.811323
0.79356
0.774177
0.753541
0.732046
0.710079
0.688004
0.666145
0.64479
0.624188
0.604546
0.586029
0.568759
0.552819
0.538247
0.525056
0.513232
0.50273
0.493481
0.485402
0.478398
0.472368
0.467211
0.462825
0.366613
0.366671
0.367084
0.374735
0.373166
0.382673
0.395927
0.401989
0.41318
0.421571
0.42639
0.431553
0.430752
0.434729
0.437786
0.431854
0.435605
0.438482
0.431516
0.434781
0.437485
0.431468
0.434358
0.436777
0.431763
0.434422
0.436646
0.43223
0.434736
0.436841
0.432772
0.435119
0.437114
0.43354
0.435634
0.437448
0.434804
0.436505
0.438017
0.436691
0.437898
0.438999
0.439076
0.439706
0.440328
0.442374
0.442352
0.442404
0.446185
0.445502
0.444955
0.449764
0.44847
0.44738
0.452969
0.451152
0.449595
0.455807
0.453551
0.4516
0.457616
0.455037
0.4528
0.459269
0.456381
0.453923
0.463096
0.463047
0.462865
0.462252
0.460917
0.458922
0.456457
0.453701
0.450804
0.447874
0.444984
0.442179
0.439487
0.436923
0.434492
0.432195
0.430031
0.427996
0.426084
0.42429
0.422608
0.421033
0.41956
0.418184
0.416899
0.415702
0.414588
0.413554
0.412596
0.411711
0.410896
0.410149
0.409468
0.408851
0.408299
0.407811
0.407389
0.407034
0.406752
0.406545
0.40642
0.406381
0.406439
0.406606
0.406889
0.407298
0.40784
0.408526
0.409373
0.410398
0.411613
0.413026
0.414648
0.41649
0.418562
0.420874
0.423433
0.426247
0.429317
0.432643
0.436218
0.440027
0.444046
0.448236
0.45254
0.456882
0.461169
0.465267
0.468957
0.471963
0.474105
0.475452
0.476031
0.475679
0.474572
0.473119
0.471825
0.471202
0.471277
0.47164
0.463228
0.463059
0.462748
0.461832
0.460239
0.458131
0.45565
0.452945
0.450136
0.44731
0.444526
0.441821
0.43922
0.436734
0.43437
0.432129
0.430012
0.428014
0.426133
0.424365
0.422703
0.421145
0.419684
0.418317
0.417039
0.415847
0.414736
0.413703
0.412745
0.411859
0.411042
0.410292
0.409605
0.408981
0.408419
0.407919
0.407481
0.407109
0.406804
0.406571
0.406416
0.406347
0.406368
0.406485
0.40671
0.407054
0.40753
0.408151
0.408924
0.409859
0.41097
0.412269
0.413769
0.415477
0.417403
0.419553
0.421935
0.424552
0.427407
0.430497
0.433815
0.437349
0.441074
0.444958
0.448949
0.452985
0.456981
0.460833
0.464396
0.467501
0.470003
0.471843
0.472966
0.473267
0.472734
0.471642
0.470572
0.470047
0.470238
0.470888
0.463277
0.462622
0.461707
0.460309
0.458468
0.4563
0.453895
0.451348
0.448734
0.44611
0.443517
0.440986
0.438535
0.436179
0.433925
0.431777
0.429738
0.427806
0.42598
0.424258
0.422635
0.421109
0.419675
0.418331
0.417072
0.415896
0.414798
0.413775
0.412826
0.411947
0.411135
0.410387
0.409702
0.409077
0.40851
0.408002
0.407552
0.407163
0.406838
0.406579
0.406393
0.406286
0.406264
0.406335
0.406508
0.406792
0.4072
0.407743
0.408433
0.409282
0.4103
0.411499
0.412888
0.414476
0.41627
0.418277
0.420502
0.422948
0.425617
0.428508
0.431614
0.434923
0.438416
0.442063
0.445822
0.449637
0.453439
0.45714
0.460636
0.463809
0.466531
0.468696
0.470232
0.471106
0.471302
0.470934
0.470322
0.469861
0.469841
0.470226
0.46217
0.461142
0.459848
0.458218
0.456301
0.454171
0.451893
0.449523
0.447106
0.44468
0.442274
0.439913
0.437615
0.435394
0.433257
0.431212
0.429261
0.427406
0.425647
0.423981
0.422408
0.420925
0.419528
0.418215
0.416983
0.415829
0.41475
0.413743
0.412807
0.411939
0.411136
0.410396
0.409714
0.409088
0.408516
0.407998
0.407533
0.407123
0.406771
0.406479
0.406254
0.4061
0.406024
0.406034
0.406138
0.406347
0.406671
0.407122
0.407714
0.408456
0.409362
0.410442
0.411704
0.413156
0.414803
0.416651
0.418704
0.420965
0.423436
0.426117
0.429005
0.43209
0.435356
0.43878
0.442328
0.445957
0.449609
0.453214
0.456692
0.459953
0.462897
0.465425
0.467473
0.468995
0.469951
0.470371
0.470416
0.470267
0.47012
0.470134
0.460016
0.458822
0.457462
0.455836
0.453971
0.45194
0.449799
0.447589
0.445341
0.443085
0.440844
0.438639
0.436484
0.434393
0.432375
0.430436
0.42858
0.426809
0.425124
0.423524
0.422008
0.420575
0.419222
0.417947
0.416748
0.415623
0.414568
0.413583
0.412665
0.411813
0.411023
0.410294
0.409619
0.408996
0.408421
0.407894
0.407415
0.406984
0.406603
0.406276
0.406009
0.405806
0.405674
0.405619
0.405651
0.405779
0.406014
0.406369
0.406858
0.407495
0.408289
0.40925
0.410386
0.411705
0.413208
0.414898
0.41678
0.418855
0.421127
0.423596
0.42626
0.429113
0.432143
0.435333
0.438658
0.442081
0.44556
0.449041
0.452462
0.455754
0.458847
0.461675
0.46419
0.466339
0.468057
0.469317
0.470185
0.47063
0.4705
0.470184
0.457359
0.456084
0.454772
0.453229
0.451476
0.449578
0.447585
0.445529
0.443441
0.441343
0.439257
0.437199
0.435183
0.433221
0.431322
0.429492
0.427734
0.426052
0.424447
0.422918
0.421466
0.420089
0.418786
0.417554
0.416393
0.4153
0.414274
0.413313
0.412417
0.411583
0.410812
0.4101
0.40944
0.408824
0.408249
0.407718
0.407226
0.406769
0.406354
0.405987
0.405673
0.405415
0.405221
0.405096
0.405049
0.405088
0.405226
0.405479
0.405865
0.4064
0.407085
0.40793
0.408947
0.410138
0.411502
0.413039
0.414752
0.416644
0.418718
0.420976
0.423418
0.426041
0.428839
0.431797
0.434899
0.438117
0.44142
0.444769
0.448117
0.451416
0.454612
0.457661
0.460522
0.463153
0.465493
0.467494
0.469162
0.470302
0.470373
0.469891
0.454328
0.453109
0.451913
0.45049
0.448876
0.447127
0.445287
0.443387
0.441454
0.43951
0.437572
0.435656
0.433776
0.431941
0.43016
0.428438
0.42678
0.425189
0.423666
0.422212
0.420826
0.419508
0.418256
0.417071
0.415949
0.414891
0.413895
0.412961
0.412088
0.411277
0.410531
0.409849
0.409215
0.408606
0.408014
0.407451
0.406924
0.406436
0.405987
0.405584
0.405228
0.404925
0.40468
0.404498
0.404385
0.404351
0.404406
0.404562
0.404834
0.405237
0.405793
0.406526
0.407442
0.408527
0.409769
0.411165
0.41272
0.414438
0.416325
0.418383
0.420615
0.423021
0.425598
0.428338
0.431228
0.43425
0.437382
0.440595
0.443855
0.447126
0.450369
0.45355
0.456635
0.45959
0.462364
0.464901
0.467182
0.468993
0.469566
0.469058
0.45113
0.450044
0.448995
0.447711
0.446249
0.444655
0.44297
0.441224
0.439443
0.437647
0.435852
0.434075
0.432325
0.430614
0.428948
0.427333
0.425774
0.424273
0.422832
0.421451
0.420132
0.418873
0.417674
0.416534
0.415452
0.414428
0.413462
0.412553
0.411702
0.410914
0.410198
0.409537
0.408897
0.408264
0.407647
0.407051
0.406493
0.405978
0.405506
0.405078
0.404696
0.404364
0.404086
0.403867
0.403712
0.403629
0.403625
0.403708
0.403887
0.404176
0.404603
0.405195
0.405973
0.406949
0.408088
0.409358
0.410767
0.412325
0.414038
0.415912
0.417952
0.42016
0.422536
0.425075
0.427771
0.430611
0.433581
0.436658
0.439818
0.443033
0.446272
0.449505
0.452702
0.455829
0.458842
0.461679
0.46431
0.466597
0.46779
0.467449
0.447974
0.447028
0.446115
0.444971
0.443662
0.442223
0.440692
0.439098
0.437466
0.435814
0.43416
0.432515
0.430892
0.4293
0.427745
0.426234
0.42477
0.423355
0.421993
0.420685
0.419429
0.418227
0.417078
0.415982
0.414938
0.413945
0.413004
0.412115
0.411279
0.410504
0.409798
0.40913
0.408459
0.407802
0.407174
0.406578
0.406015
0.405491
0.405005
0.40456
0.404158
0.403804
0.403501
0.403252
0.403062
0.402936
0.402884
0.402913
0.403035
0.403263
0.403609
0.404082
0.404711
0.405537
0.406547
0.407693
0.408965
0.410373
0.411928
0.413637
0.415505
0.417537
0.419733
0.422095
0.424617
0.427292
0.43011
0.433054
0.436106
0.439241
0.442433
0.445652
0.448866
0.452038
0.455121
0.458048
0.460767
0.463191
0.464744
0.464728
0.444957
0.444136
0.443341
0.442331
0.44117
0.439885
0.438508
0.437066
0.435581
0.434071
0.432552
0.431036
0.429534
0.428055
0.426606
0.425192
0.423817
0.422485
0.421197
0.419955
0.418759
0.41761
0.416507
0.41545
0.41444
0.413474
0.412554
0.411679
0.41085
0.41007
0.40935
0.408664
0.407992
0.407343
0.406718
0.406121
0.405556
0.405025
0.40453
0.404073
0.403658
0.403287
0.402963
0.402689
0.402471
0.402312
0.402218
0.4022
0.40227
0.40244
0.402725
0.403132
0.403673
0.404369
0.405228
0.406231
0.407364
0.408632
0.410045
0.411607
0.413326
0.415205
0.417248
0.419455
0.421826
0.424355
0.427036
0.429855
0.432795
0.435836
0.43895
0.442106
0.445265
0.448387
0.451416
0.454278
0.456905
0.459216
0.460783
0.460926
0.442096
0.44139
0.440707
0.439832
0.438822
0.437693
0.436472
0.435183
0.433844
0.432473
0.431085
0.429692
0.428304
0.426931
0.425579
0.424255
0.422962
0.421704
0.420483
0.419301
0.418159
0.417056
0.415994
0.414972
0.41399
0.413047
0.412143
0.411278
0.410452
0.409663
0.408921
0.408227
0.407567
0.406927
0.406305
0.405708
0.40514
0.404605
0.404104
0.403639
0.403213
0.402829
0.402489
0.402197
0.401955
0.401768
0.401642
0.401585
0.40161
0.40173
0.40196
0.402309
0.402788
0.4034
0.40413
0.404986
0.405986
0.407129
0.408417
0.409855
0.411448
0.413201
0.415116
0.417196
0.419441
0.421847
0.42441
0.427116
0.429952
0.432895
0.435915
0.438978
0.442038
0.445045
0.447933
0.450627
0.453046
0.455109
0.456491
0.456589
0.439379
0.438787
0.438225
0.437498
0.436653
0.435691
0.434634
0.4335
0.432307
0.431072
0.429809
0.428531
0.427249
0.425972
0.424709
0.423464
0.422243
0.42105
0.419887
0.418757
0.41766
0.416597
0.415568
0.414574
0.413615
0.41269
0.411799
0.410942
0.410117
0.409323
0.408564
0.407863
0.407209
0.406573
0.405953
0.405355
0.404786
0.404247
0.403741
0.40327
0.402835
0.402441
0.402089
0.401781
0.401522
0.401313
0.401161
0.401072
0.40106
0.40114
0.401327
0.401633
0.402061
0.402582
0.403192
0.403935
0.404829
0.40587
0.407059
0.408398
0.409892
0.411546
0.413362
0.415344
0.417491
0.419802
0.422271
0.424887
0.427634
0.430489
0.433419
0.436382
0.439325
0.442184
0.444885
0.447341
0.449461
0.451148
0.452223
0.452164
0.436764
0.436298
0.435885
0.435342
0.434689
0.433917
0.433036
0.432065
0.431019
0.429916
0.428771
0.427599
0.426412
0.42522
0.424032
0.422854
0.421694
0.420554
0.419438
0.418349
0.417287
0.416255
0.415252
0.414279
0.413337
0.412425
0.411543
0.41069
0.409867
0.409071
0.408304
0.407593
0.406935
0.406298
0.405678
0.405079
0.404507
0.403964
0.403453
0.402975
0.402534
0.40213
0.401768
0.401448
0.401175
0.40095
0.400776
0.400663
0.400621
0.40067
0.400826
0.4011
0.401465
0.401887
0.402405
0.403075
0.403895
0.404862
0.405977
0.407244
0.408668
0.410251
0.411999
0.413914
0.415995
0.418243
0.420649
0.423205
0.425892
0.428685
0.431548
0.43443
0.437271
0.439993
0.44251
0.444724
0.44651
0.447778
0.448586
0.448162
0.434155
0.433857
0.433655
0.433361
0.432955
0.432409
0.431727
0.430927
0.430029
0.429052
0.428015
0.426936
0.425828
0.424706
0.423578
0.422453
0.421338
0.420237
0.419156
0.418095
0.417058
0.416047
0.415061
0.414102
0.413169
0.412264
0.411387
0.410537
0.409714
0.408916
0.408146
0.407423
0.406753
0.40611
0.405488
0.404886
0.40431
0.403762
0.403245
0.402761
0.402313
0.401901
0.401529
0.4012
0.400915
0.400677
0.400488
0.400354
0.40029
0.400316
0.400452
0.400682
0.400965
0.401315
0.401791
0.402416
0.403188
0.404106
0.405174
0.406396
0.407777
0.409321
0.411032
0.412912
0.414963
0.417183
0.419566
0.4221
0.424768
0.427541
0.430378
0.433225
0.436009
0.438642
0.441031
0.443062
0.444576
0.445584
0.446467
0.445487
0.431356
0.431314
0.431463
0.431546
0.431479
0.431213
0.430757
0.430138
0.429383
0.428521
0.427577
0.426573
0.425527
0.424455
0.423369
0.422278
0.421192
0.420115
0.419053
0.418009
0.416984
0.415982
0.415004
0.41405
0.41312
0.412216
0.411338
0.410487
0.409661
0.408862
0.40809
0.407354
0.406665
0.406012
0.405385
0.404779
0.404198
0.403645
0.403121
0.402631
0.402175
0.401755
0.401376
0.401037
0.400743
0.400494
0.400293
0.400145
0.400063
0.400074
0.400184
0.400354
0.400574
0.400898
0.401358
0.401961
0.402708
0.403602
0.404649
0.405852
0.407218
0.408752
0.410457
0.412338
0.414395
0.416627
0.419029
0.421589
0.424288
0.427097
0.42997
0.432844
0.435633
0.438234
0.440527
0.442352
0.443538
0.444473
0.445852
0.443796
0.427951
0.428447
0.429222
0.429917
0.430332
0.430408
0.430194
0.429754
0.42913
0.428364
0.427489
0.426536
0.425527
0.424482
0.423415
0.422339
0.421263
0.420193
0.419135
0.418092
0.417068
0.416064
0.415083
0.414125
0.413191
0.412282
0.411398
0.41054
0.409709
0.408906
0.40813
0.407379
0.406668
0.406002
0.405368
0.404757
0.40417
0.403611
0.403081
0.402583
0.40212
0.401693
0.401305
0.400959
0.400657
0.4004
0.400191
0.400032
0.399938
0.399933
0.400002
0.400123
0.400326
0.400653
0.401113
0.401712
0.402455
0.403347
0.404395
0.405604
0.406982
0.408534
0.410264
0.412179
0.414279
0.416565
0.419033
0.421673
0.424465
0.427381
0.430371
0.433365
0.436258
0.438907
0.441109
0.442538
0.442954
0.443261
0.443668
0.437376
0.422817
0.42472
0.426896
0.428542
0.429584
0.430089
0.430139
0.429847
0.429317
0.428609
0.427771
0.426837
0.425835
0.424789
0.423717
0.422632
0.421545
0.420464
0.419393
0.418338
0.417302
0.416286
0.415292
0.414322
0.413376
0.412456
0.411562
0.410695
0.409856
0.409044
0.408257
0.407489
0.406757
0.406077
0.405433
0.404816
0.404223
0.403657
0.403121
0.402617
0.402147
0.401713
0.401319
0.400966
0.400658
0.400395
0.40018
0.400015
0.399911
0.399881
0.399917
0.400026
0.400243
0.400585
0.401057
0.401668
0.402425
0.403334
0.404404
0.405642
0.407055
0.40865
0.410434
0.412413
0.414591
0.416971
0.419552
0.422326
0.425281
0.428391
0.431615
0.434885
0.438093
0.441071
0.443527
0.444954
0.444973
0.443983
0.438409
0.419066
0.414235
0.420558
0.425022
0.427811
0.429487
0.430377
0.430669
0.430494
0.42999
0.429275
0.428425
0.427471
0.426441
0.425362
0.424258
0.423142
0.422025
0.420915
0.419817
0.418736
0.417675
0.416637
0.415622
0.414633
0.41367
0.412735
0.411828
0.410949
0.410099
0.409272
0.40846
0.407671
0.406925
0.406232
0.405578
0.404953
0.404355
0.403783
0.403242
0.402732
0.402258
0.401819
0.401421
0.401063
0.400751
0.400486
0.400269
0.400103
0.399989
0.399932
0.399955
0.400084
0.400327
0.400692
0.40119
0.401827
0.402614
0.403558
0.404668
0.405953
0.407421
0.409082
0.410943
0.413013
0.415299
0.417807
0.420539
0.423497
0.426676
0.430064
0.433641
0.437371
0.441194
0.445018
0.448655
0.451736
0.454275
0.455455
0.443086
0.407025
0.394293
0.415504
0.42374
0.428148
0.430431
0.431514
0.431854
0.431694
0.431162
0.430372
0.429433
0.428406
0.427306
0.426162
0.424999
0.42383
0.422665
0.421512
0.420375
0.419258
0.418164
0.417095
0.416053
0.415039
0.414056
0.413105
0.412186
0.411295
0.41042
0.409562
0.408724
0.407921
0.407167
0.406462
0.405798
0.405166
0.404563
0.403988
0.403443
0.402931
0.402454
0.402014
0.401614
0.401256
0.400944
0.40068
0.400467
0.400306
0.400192
0.400121
0.400137
0.400286
0.400565
0.400967
0.401502
0.402179
0.403009
0.404001
0.405165
0.40651
0.408048
0.409789
0.411744
0.413922
0.416333
0.418987
0.421893
0.425056
0.428484
0.432183
0.436156
0.440408
0.444957
0.449873
0.455196
0.460873
0.467406
0.474599
0.476486
0.478502
0.40437
0.419315
0.426367
0.430685
0.432773
0.43364
0.433771
0.433424
0.432747
0.431838
0.430773
0.429609
0.428385
0.42714
0.425895
0.424657
0.423432
0.422226
0.421041
0.419882
0.418748
0.417644
0.41657
0.415529
0.414525
0.41356
0.412624
0.411702
0.410793
0.409908
0.409058
0.408249
0.407486
0.406769
0.406094
0.405456
0.404848
0.404271
0.403726
0.403214
0.402738
0.4023
0.401903
0.40155
0.401243
0.400987
0.400785
0.400637
0.400538
0.400481
0.400489
0.400634
0.400943
0.401394
0.401979
0.402707
0.40359
0.40464
0.405867
0.407283
0.408901
0.410732
0.412788
0.415082
0.417627
0.420433
0.423514
0.426882
0.430551
0.434537
0.438857
0.443535
0.448639
0.454367
0.460783
0.467731
0.475157
0.483101
0.491675
0.505098
0.424158
0.429615
0.433094
0.435288
0.436231
0.43644
0.436147
0.435502
0.434609