/*--------------------------------*- C++ -*----------------------------------*\
| =========                 |                                                 |
| \\      /  F ield         | OpenFOAM: The Open Source CFD Toolbox           |
|  \\    /   O peration     | Version:  v2012                                 |
|   \\  /    A nd           | Website:  www.openfoam.com                      |
|    \\/     M anipulation  |                                                 |
\*---------------------------------------------------------------------------*/
FoamFile
{
    version     2.0;
    format      ascii;
    class       surfaceScalarField;
    location    "643";
    object      phi;
}
// * * * * * * * * * * * * * * * * * * * * * * * * * * * * * * * * * * * * * //

dimensions      [0 3 -1 0 0 0 0];
oriented        oriented;


internalField   nonuniform List<scalar> 
12792
(
5.31023e-08
0.000199947
3.59836e-08
0.000200017
2.17174e-08
0.000200014
1.02454e-08
0.000200011
1.85456e-11
0.00020001
-1.02114e-08
0.00020001
-2.16922e-08
0.000200011
-3.5972e-08
0.000200014
-5.30995e-08
0.000200017
0.000199947
8.53008e-08
0.000199862
7.52687e-08
0.000200027
5.09942e-08
0.000200039
2.5299e-08
0.000200037
5.60853e-11
0.000200035
-2.51955e-08
0.000200035
-5.09158e-08
0.000200037
-7.52285e-08
0.000200039
-8.52924e-08
0.000200027
0.000199862
8.8e-08
0.000199774
8.84779e-08
0.000200027
6.42906e-08
0.000200063
3.3107e-08
0.000200068
1.07638e-10
0.000200068
-3.29033e-08
0.000200068
-6.41175e-08
0.000200068
-8.83412e-08
0.000200063
-8.79206e-08
0.000200027
0.000199774
8.51078e-08
0.000199688
8.90549e-08
0.000200023
6.73828e-08
0.000200084
3.56572e-08
0.0002001
1.80848e-10
0.000200104
-3.5313e-08
0.000200104
-6.7088e-08
0.0002001
-8.88394e-08
0.000200085
-8.49894e-08
0.000200023
0.000199689
8.14176e-08
0.000199607
8.64994e-08
0.000200018
6.66039e-08
0.000200104
3.56855e-08
0.000200131
2.8673e-10
0.000200139
-3.51383e-08
0.000200139
-6.61335e-08
0.000200131
-8.61545e-08
0.000200105
-8.12316e-08
0.000200018
0.000199607
7.69391e-08
0.00019953
8.24667e-08
0.000200012
6.42849e-08
0.000200122
3.47111e-08
0.000200161
4.40307e-10
0.000200174
-3.38731e-08
0.000200174
-6.35705e-08
0.000200161
-8.19389e-08
0.000200123
-7.66517e-08
0.000200013
0.000199531
7.25461e-08
0.000199458
7.78717e-08
0.000200007
6.08537e-08
0.000200139
3.31086e-08
0.000200188
6.71865e-10
0.000200206
-3.18306e-08
0.000200206
-5.97652e-08
0.000200189
-7.70699e-08
0.00020014
-7.21074e-08
0.000200008
0.000199459
6.86846e-08
0.000199389
7.3609e-08
0.000200002
5.76039e-08
0.000200156
3.15447e-08
0.000200214
1.02734e-09
0.000200237
-2.95883e-08
0.000200237
-5.59315e-08
0.000200215
-7.23773e-08
0.000200157
-6.80099e-08
0.000200003
0.000199391
6.54884e-08
0.000199323
7.00366e-08
0.000199997
5.49165e-08
0.000200171
3.03464e-08
0.000200239
1.56832e-09
0.000200265
-2.73587e-08
0.000200266
-5.23601e-08
0.00020024
-6.81518e-08
0.000200172
-6.44534e-08
0.0002
0.000199326
6.29614e-08
0.00019926
6.72582e-08
0.000199993
5.2926e-08
0.000200185
2.96593e-08
0.000200262
2.38795e-09
0.000200293
-2.51095e-08
0.000200293
-4.90324e-08
0.000200264
-6.43924e-08
0.000200188
-6.1388e-08
0.000199997
0.000199265
6.10736e-08
0.000199199
6.53062e-08
0.000199989
5.17335e-08
0.000200199
2.96196e-08
0.000200284
3.62661e-09
0.000200319
-2.27106e-08
0.00020032
-4.58247e-08
0.000200287
-6.09684e-08
0.000200203
-5.86954e-08
0.000199994
0.000199206
5.98322e-08
0.00019914
6.42552e-08
0.000199984
5.14668e-08
0.000200211
3.04077e-08
0.000200305
5.49311e-09
0.000200344
-1.99505e-08
0.000200345
-4.25368e-08
0.00020031
-5.76953e-08
0.000200218
-5.62397e-08
0.000199993
0.00019915
5.93154e-08
0.00019908
6.42907e-08
0.000199979
5.23751e-08
0.000200223
3.23244e-08
0.000200325
8.313e-09
0.000200368
-1.65158e-08
0.00020037
-3.88988e-08
0.000200332
-5.43633e-08
0.000200234
-5.38898e-08
0.000199992
0.000199096
5.96661e-08
0.000199021
6.56781e-08
0.000199973
5.48903e-08
0.000200234
3.58772e-08
0.000200344
1.26024e-08
0.000200391
-1.19488e-08
0.000200394
-3.45678e-08
0.000200355
-5.07645e-08
0.00020025
-5.15423e-08
0.000199993
0.000199044
6.10217e-08
0.00019896
6.8685e-08
0.000199966
5.95664e-08
0.000200243
4.18356e-08
0.000200362
1.91574e-08
0.000200413
-5.57524e-09
0.000200419
-2.91082e-08
0.000200378
-4.67364e-08
0.000200267
-4.92141e-08
0.000199996
0.000198995
6.39019e-08
0.000198896
7.43474e-08
0.000199955
6.76335e-08
0.00020025
5.14901e-08
0.000200378
2.92589e-08
0.000200436
3.65304e-09
0.000200445
-2.1938e-08
0.000200404
-4.22564e-08
0.000200288
-4.71678e-08
0.000200001
0.000198948
6.89651e-08
0.000198827
8.38213e-08
0.00019994
8.06531e-08
0.000200253
6.66769e-08
0.000200392
4.47669e-08
0.000200458
1.74277e-08
0.000200472
-1.22495e-08
0.000200434
-3.79556e-08
0.000200313
-4.69726e-08
0.00020001
0.000198901
7.71682e-08
0.00019875
9.89434e-08
0.000199919
1.01391e-07
0.000200251
9.09643e-08
0.000200403
6.97378e-08
0.000200479
3.89009e-08
0.000200503
8.7614e-10
0.000200472
-3.71692e-08
0.000200352
-5.44212e-08
0.000200027
0.000198847
8.98262e-08
0.00019866
1.22293e-07
0.000199886
1.3377e-07
0.000200239
1.29878e-07
0.000200407
1.11167e-07
0.000200498
7.65416e-08
0.000200538
2.66417e-08
0.000200522
-2.8791e-08
0.000200407
-6.56598e-08
0.000200064
0.000198781
1.08495e-07
0.000198551
1.57063e-07
0.000199838
1.82833e-07
0.000200213
1.90289e-07
0.000200399
1.77479e-07
0.00020051
1.38875e-07
0.000200576
6.12428e-08
0.000200599
-6.43915e-08
0.000200533
-2.42351e-07
0.000200242
0.000198539
1.3813e-07
0.000198413
2.12599e-07
0.000199763
2.62738e-07
0.000200163
2.93479e-07
0.000200368
3.03915e-07
0.0002005
2.92137e-07
0.000200588
2.58216e-07
0.000200633
2.07406e-07
0.000200583
4.8996e-07
0.000199959
0.000193772
5.25649e-06
1.75029e-07
0.000198238
2.84164e-07
0.000199654
3.68859e-07
0.000200078
4.3516e-07
0.000200302
4.83981e-07
0.000200451
5.20325e-07
0.000200552
5.69894e-07
0.000200583
7.00911e-07
0.000200452
1.0602e-06
0.0001996
0.000191451
3.38159e-06
2.21657e-07
0.000198016
3.74965e-07
0.000199501
5.03708e-07
0.00019995
6.15161e-07
0.000200191
7.11968e-07
0.000200354
8.00573e-07
0.000200463
9.05204e-07
0.000200479
1.13571e-06
0.000200222
1.8679e-06
0.000198868
0.000188063
5.25568e-06
2.78082e-07
0.000197738
4.85061e-07
0.000199294
6.66966e-07
0.000199768
8.3232e-07
0.000200025
9.86169e-07
0.0002002
1.14046e-06
0.000200309
1.33508e-06
0.000200284
1.71457e-06
0.000199842
2.77925e-06
0.000197803
0.000184339
6.50299e-06
3.44964e-07
0.000197393
6.15565e-07
0.000199023
8.60186e-07
0.000199523
1.08858e-06
0.000199797
1.30832e-06
0.000199981
1.53756e-06
0.000200079
1.82861e-06
0.000199993
2.34423e-06
0.000199327
3.62645e-06
0.000196521
0.000180642
7.3241e-06
4.23488e-07
0.00019697
7.68495e-07
0.000198678
1.08597e-06
0.000199206
1.38663e-06
0.000199496
1.67992e-06
0.000199687
1.98873e-06
0.000199771
2.37585e-06
0.000199606
3.02765e-06
0.000198675
4.54478e-06
0.000195004
0.000177119
8.06748e-06
5.15445e-07
0.000196454
9.47079e-07
0.000198246
1.34901e-06
0.000198804
1.73265e-06
0.000199113
2.1089e-06
0.000199311
2.50469e-06
0.000199375
2.99099e-06
0.00019912
3.76251e-06
0.000197903
5.41163e-06
0.000193355
0.000173913
8.61716e-06
6.23242e-07
0.000195831
1.15614e-06
0.000197714
1.65701e-06
0.000198303
2.13757e-06
0.000198632
2.61031e-06
0.000198838
3.10606e-06
0.000198879
3.70386e-06
0.000198522
4.60339e-06
0.000197004
6.35136e-06
0.000191607
0.000171
9.26453e-06
7.52025e-07
0.000195079
1.40204e-06
0.000197064
2.0195e-06
0.000197685
2.61478e-06
0.000198037
3.20233e-06
0.000198251
3.81725e-06
0.000198264
4.54774e-06
0.000197791
5.60495e-06
0.000195947
7.47774e-06
0.000189734
0.000168393
1.00846e-05
9.02377e-07
0.000194177
1.69279e-06
0.000196273
2.44667e-06
0.000196932
3.17717e-06
0.000197306
3.89992e-06
0.000197528
4.65322e-06
0.000197511
5.52981e-06
0.000196915
6.73991e-06
0.000194737
8.70147e-06
0.000187772
0.000166136
1.09583e-05
1.07663e-06
0.0001931
2.03529e-06
0.000195314
2.94939e-06
0.000196018
3.83773e-06
0.000196418
4.71698e-06
0.000196649
5.62688e-06
0.000196601
6.65988e-06
0.000195882
8.01405e-06
0.000193382
1.00169e-05
0.000185769
0.00016427
1.18832e-05
1.28267e-06
0.000191817
2.43592e-06
0.000194161
3.5386e-06
0.000194915
4.61144e-06
0.000195345
5.672e-06
0.000195588
6.76002e-06
0.000195513
7.96449e-06
0.000194677
9.46619e-06
0.000191881
1.14652e-05
0.00018377
0.000162773
1.29625e-05
1.52422e-06
0.000190293
2.9041e-06
0.000192781
4.22752e-06
0.000193591
5.51629e-06
0.000194056
6.78791e-06
0.000194317
8.08029e-06
0.000194221
9.47484e-06
0.000193283
1.11193e-05
0.000190236
1.30706e-05
0.000181819
0.000161593
1.42502e-05
1.80565e-06
0.000188488
3.45004e-06
0.000191137
5.03117e-06
0.00019201
6.5724e-06
0.000192515
8.09032e-06
0.000192799
9.61873e-06
0.000192692
1.12257e-05
0.000191676
1.30108e-05
0.000188451
1.49045e-05
0.000179925
0.000160682
1.58158e-05
2.13183e-06
0.000186356
4.08381e-06
0.000189185
5.96483e-06
0.000190129
7.8005e-06
0.000190679
9.60589e-06
0.000190993
1.14085e-05
0.00019089
1.32577e-05
0.000189827
1.51988e-05
0.00018651
1.70544e-05
0.00017807
0.000159978
1.7758e-05
2.50702e-06
0.000183849
4.81453e-06
0.000186877
7.0428e-06
0.000187901
9.22035e-06
0.000188502
1.13605e-05
0.000188853
1.3483e-05
0.000188767
1.56149e-05
0.000187695
1.77464e-05
0.000184379
1.96098e-05
0.000176206
0.000159405
2.01832e-05
2.93416e-06
0.000180915
5.65011e-06
0.000184162
8.27729e-06
0.000185274
1.08488e-05
0.00018593
1.33765e-05
0.000186325
1.58715e-05
0.000186272
1.83373e-05
0.000185229
2.07113e-05
0.000182005
2.26534e-05
0.000174264
0.000158864
2.31943e-05
3.40887e-06
0.000177506
6.59431e-06
0.000180976
9.67649e-06
0.000182192
1.26975e-05
0.000182909
1.56694e-05
0.000183354
1.8595e-05
0.000183346
2.14549e-05
0.000182369
2.41393e-05
0.00017932
2.62538e-05
0.00017215
0.000158236
2.68823e-05
3.78468e-06
0.000173721
7.32858e-06
0.000177432
1.07669e-05
0.000178753
1.41432e-05
0.000179533
1.74691e-05
0.000180028
2.07405e-05
0.000180075
2.39193e-05
0.00017919
2.68636e-05
0.000176376
2.91602e-05
0.000169853
0.000157418
2.99779e-05
4.34849e-06
0.000169373
8.41063e-06
0.00017337
1.23623e-05
0.000174802
1.62503e-05
0.000175645
2.00874e-05
0.00017619
2.38642e-05
0.000176298
2.75274e-05
0.000175527
3.09083e-05
0.000172995
3.35763e-05
0.000167185
0.000156248
3.47457e-05
4.95971e-06
0.000164413
9.58979e-06
0.00016874
1.40985e-05
0.000170293
1.8541e-05
0.000171203
2.29334e-05
0.000171798
2.72634e-05
0.000171968
3.14675e-05
0.000171323
3.53613e-05
0.000169101
3.85128e-05
0.000164034
0.000154579
4.01825e-05
5.61614e-06
0.000158797
1.08559e-05
0.0001635
1.59604e-05
0.000165188
2.09941e-05
0.000166169
2.5978e-05
0.000166814
3.09004e-05
0.000167046
3.56935e-05
0.00016653
4.01684e-05
0.000164626
4.39079e-05
0.000160294
0.000152264
4.6223e-05
6.31555e-06
0.000152481
1.22004e-05
0.000157615
1.79312e-05
0.000159458
2.35832e-05
0.000160517
2.91839e-05
0.000161214
3.47255e-05
0.000161504
4.01419e-05
0.000161114
4.52512e-05
0.000159517
4.96651e-05
0.00015588
0.000149176
5.27527e-05
7.05491e-06
0.000145426
1.36145e-05
0.000151056
1.99929e-05
0.000153079
2.62788e-05
0.000154231
3.2508e-05
0.000154984
3.86797e-05
0.000155332
4.47354e-05
0.000155058
5.05098e-05
0.000153743
5.56557e-05
0.000150734
0.000145221
5.96104e-05
7.83175e-06
0.000137594
1.50892e-05
0.000143798
2.21272e-05
0.000146041
2.90502e-05
0.000147308
3.59044e-05
0.00014813
4.2699e-05
0.000148538
4.93883e-05
0.000148369
5.58309e-05
0.0001473
6.17299e-05
0.000144835
0.000140351
6.65999e-05
8.64525e-06
0.000128949
1.66183e-05
0.000135825
2.43177e-05
0.000138342
3.1868e-05
0.000139758
3.9328e-05
0.00014067
4.67196e-05
0.000141146
5.40137e-05
0.000141075
6.10981e-05
0.000140216
6.77308e-05
0.000138202
0.000134573
7.35094e-05
9.4975e-06
0.000119452
1.81997e-05
0.000127123
2.65527e-05
0.000129989
3.4707e-05
0.000131604
4.27377e-05
0.000132639
5.06823e-05
0.000133202
5.85309e-05
0.000133226
6.62027e-05
0.000132544
7.3511e-05
0.000130894
0.000127947
8.01369e-05
1.03945e-05
0.000109057
1.98373e-05
0.00011768
2.88257e-05
0.000121
3.75468e-05
0.000122883
4.60981e-05
0.000124088
5.45352e-05
0.000124765
6.28696e-05
0.000124892
7.10515e-05
0.000124362
7.89463e-05
0.000122999
0.00012058
8.63132e-05
1.13472e-05
9.771e-05
2.15403e-05
0.000107487
3.11344e-05
0.000111406
4.03702e-05
0.000113647
4.93768e-05
0.000115081
5.82324e-05
0.000115909
6.69703e-05
0.000116154
7.55704e-05
0.000115762
8.39434e-05
0.000114626
0.000112607
9.19165e-05
1.23722e-05
8.53378e-05
2.3321e-05
9.65384e-05
3.3475e-05
0.000101252
4.31558e-05
0.000103966
5.2538e-05
0.000105699
6.1727e-05
0.00010672
7.0779e-05
0.000107102
7.96998e-05
0.000106841
8.84374e-05
0.000105889
0.000104171
9.68738e-05
1.34913e-05
7.18466e-05
2.51851e-05
8.48446e-05
3.58295e-05
9.06077e-05
4.58651e-05
9.39305e-05
5.55284e-05
9.6036e-05
6.49584e-05
9.72899e-05
7.42339e-05
9.78265e-05
8.33822e-05
9.76927e-05
9.23793e-05
9.68917e-05
9.5402e-05
0.000101148
1.47463e-05
5.71003e-05
2.70912e-05
7.24997e-05
3.81319e-05
7.95669e-05
4.84185e-05
8.36439e-05
5.82583e-05
8.61962e-05
6.78342e-05
8.77139e-05
7.72486e-05
8.84121e-05
8.65445e-05
8.83968e-05
9.5716e-05
8.77201e-05
8.64057e-05
0.000104712
1.61497e-05
4.09507e-05
2.89351e-05
5.97143e-05
4.0214e-05
6.82879e-05
5.06318e-05
7.32261e-05
6.05515e-05
7.62764e-05
7.01946e-05
7.80708e-05
7.96835e-05
7.89232e-05
8.90716e-05
7.90087e-05
9.83625e-05
7.84292e-05
7.72481e-05
0.00010752
1.66304e-05
2.43203e-05
3.0343e-05
4.60016e-05
4.18512e-05
5.67797e-05
5.22615e-05
6.28159e-05
6.21503e-05
6.63876e-05
7.17926e-05
6.84285e-05
8.13177e-05
6.93982e-05
9.07768e-05
6.95496e-05
0.000100173
6.90332e-05
6.79474e-05
0.000109474
1.44565e-05
9.86382e-06
2.94951e-05
3.0963e-05
4.19058e-05
4.4369e-05
5.26311e-05
5.20905e-05
6.25834e-05
5.64354e-05
7.22433e-05
5.87686e-05
8.18177e-05
5.98238e-05
9.13741e-05
5.99932e-05
0.000100911
5.94963e-05
5.84688e-05
0.00011039
9.91425e-06
-5.04331e-08
2.47338e-05
1.61435e-05
3.83344e-05
3.07684e-05
5.0118e-05
4.0307e-05
6.07232e-05
4.58301e-05
7.076e-05
4.87318e-05
8.05982e-05
4.99856e-05
9.0399e-05
5.01924e-05
0.000100194
4.97008e-05
4.8711e-05
0.000109952
5.8656e-06
-5.91603e-06
1.72979e-05
4.71113e-06
3.04155e-05
1.76508e-05
4.30673e-05
2.76552e-05
5.48229e-05
3.40745e-05
6.58673e-05
3.76873e-05
7.65094e-05
3.93435e-05
8.69608e-05
3.9741e-05
9.73152e-05
3.93465e-05
3.84418e-05
0.000107584
2.73818e-06
-8.65421e-06
9.28769e-06
-1.83839e-06
1.9444e-05
7.49453e-06
3.12624e-05
1.58368e-05
4.35551e-05
2.17818e-05
5.57757e-05
2.54667e-05
6.77444e-05
2.73747e-05
7.9427e-05
2.80584e-05
9.08657e-05
2.79078e-05
2.72057e-05
0.000102102
-1.65415e-06
-7.00006e-06
4.54186e-07
-3.94672e-06
6.68312e-06
1.2656e-06
1.6075e-05
6.445e-06
2.75921e-05
1.02647e-05
4.03472e-05
1.27116e-05
5.35869e-05
1.4135e-05
6.67485e-05
1.48967e-05
7.96979e-05
1.49585e-05
1.44963e-05
9.24073e-05
-7.00005e-06
-1.09468e-05
-9.68118e-06
-3.23619e-06
7.02851e-06
1.97402e-05
3.38752e-05
4.87719e-05
6.37304e-05
7.82267e-05
-2.89857e-05
3.42422e-05
-2.83151e-05
-6.7062e-07
-2.50944e-05
-3.22074e-06
-2.11004e-05
-3.994e-06
-1.65092e-05
-4.59116e-06
-1.15414e-05
-4.96778e-06
-6.45313e-06
-5.0883e-06
-1.44836e-06
-5.00476e-06
3.42069e-06
-4.86906e-06
8.13554e-06
-4.71484e-06
1.26048e-05
-4.46921e-06
1.66661e-05
-4.06139e-06
2.01135e-05
-3.44735e-06
2.28532e-05
-2.73976e-06
2.48362e-05
-1.98295e-06
2.60244e-05
-1.18824e-06
2.63742e-05
-3.4975e-07
2.5782e-05
5.92236e-07
2.41678e-05
1.61414e-06
2.14687e-05
2.69917e-06
1.76627e-05
3.80595e-06
1.28479e-05
4.81485e-06
7.50751e-06
5.34035e-06
2.71069e-06
4.79683e-06
2.71069e-06
-1.42063e-05
5.18302e-05
-2.01637e-05
5.28672e-06
-2.01319e-05
-3.2525e-06
-1.82019e-05
-5.92402e-06
-1.52921e-05
-7.50093e-06
-1.17419e-05
-8.51805e-06
-7.75182e-06
-9.07834e-06
-3.48902e-06
-9.26756e-06
8.0128e-07
-9.15936e-06
4.87531e-06
-8.78887e-06
8.59001e-06
-8.18392e-06
1.18763e-05
-7.34768e-06
1.47152e-05
-6.28627e-06
1.70424e-05
-5.06696e-06
1.8803e-05
-3.74347e-06
1.99596e-05
-2.34483e-06
2.04891e-05
-8.79256e-07
2.04149e-05
6.66432e-07
1.97242e-05
2.30476e-06
1.83808e-05
4.04259e-06
1.63266e-05
5.86022e-06
1.3483e-05
7.65842e-06
9.71594e-06
9.10739e-06
5.09177e-06
9.421e-06
7.80246e-06
-8.43576e-06
6.55216e-05
-1.56523e-05
1.25033e-05
-1.74371e-05
-1.46776e-06
-1.67587e-05
-6.6024e-06
-1.47897e-05
-9.46991e-06
-1.20191e-05
-1.12886e-05
-8.73281e-06
-1.23646e-05
-5.15938e-06
-1.2841e-05
-1.50796e-06
-1.28108e-05
2.0411e-06
-1.23379e-05
5.33774e-06
-1.14806e-05
8.27954e-06
-1.02895e-05
1.081e-05
-8.81677e-06
1.28752e-05
-7.13212e-06
1.44331e-05
-5.30135e-06
1.54607e-05
-3.37245e-06
1.59542e-05
-1.37273e-06
1.593e-05
6.90587e-07
1.54095e-05
2.82522e-06
1.44103e-05
5.04187e-06
1.29338e-05
7.33666e-06
1.09421e-05
9.65011e-06
8.29898e-06
1.17506e-05
4.7475e-06
1.29725e-05
1.255e-05
-5.80908e-06
7.78337e-05
-1.40732e-05
2.07674e-05
-1.69087e-05
1.36778e-06
-1.69207e-05
-6.59047e-06
-1.54479e-05
-1.09427e-05
-1.31193e-05
-1.36173e-05
-1.0261e-05
-1.5223e-05
-7.10404e-06
-1.59979e-05
-3.83534e-06
-1.60795e-05
-6.12596e-07
-1.55607e-05
2.42469e-06
-1.45178e-05
5.16175e-06
-1.30265e-05
7.5154e-06
-1.11704e-05
9.42575e-06
-9.04246e-06
1.08579e-05
-6.73347e-06
1.18024e-05
-4.31699e-06
1.2271e-05
-1.84132e-06
1.22898e-05
6.7176e-07
1.18918e-05
3.22319e-06
1.11081e-05
5.82564e-06
9.96037e-06
8.48437e-06
8.44613e-06
1.11644e-05
6.49457e-06
1.37021e-05
3.85418e-06
1.56129e-05
1.64041e-05
-2.94879e-06
8.81066e-05
-1.25685e-05
3.03871e-05
-1.67114e-05
5.51068e-06
-1.75321e-05
-5.76982e-06
-1.65825e-05
-1.18922e-05
-1.4655e-05
-1.55448e-05
-1.21553e-05
-1.77227e-05
-9.32632e-06
-1.88269e-05
-6.34092e-06
-1.90649e-05
-3.34728e-06
-1.85543e-05
-4.8108e-07
-1.7384e-05
2.13485e-06
-1.56425e-05
4.39922e-06
-1.34348e-05
6.24098e-06
-1.08842e-05
7.62456e-06
-8.11705e-06
8.54909e-06
-5.24152e-06
9.03927e-06
-2.3315e-06
9.13347e-06
5.77562e-07
8.87357e-06
3.48309e-06
8.29783e-06
6.40138e-06
7.43484e-06
9.34735e-06
6.29368e-06
1.23055e-05
4.83012e-06
1.51657e-05
2.82568e-06
1.76173e-05
1.92298e-05
-5.30724e-08
9.62271e-05
-9.96584e-06
4.02999e-05
-1.55235e-05
1.10683e-05
-1.75031e-05
-3.7902e-06
-1.73784e-05
-1.20169e-05
-1.60516e-05
-1.68716e-05
-1.40344e-05
-1.97399e-05
-1.16035e-05
-2.12577e-05
-8.93376e-06
-2.17347e-05
-6.17081e-06
-2.13173e-05
-3.45355e-06
-2.01013e-05
-9.16628e-07
-1.81794e-05
1.31905e-06
-1.56705e-05
3.16286e-06
-1.2728e-05
4.56829e-06
-9.52248e-06
5.53494e-06
-6.20817e-06
6.09604e-06
-2.8926e-06
6.30113e-06
3.72475e-07
6.20149e-06
3.58273e-06
5.84149e-06
6.76138e-06
5.25348e-06
9.93536e-06
4.45083e-06
1.31082e-05
3.40468e-06
1.62118e-05
1.96909e-06
1.90529e-05
2.11989e-05
2.37188e-06
0.000102472
-6.75709e-06
4.94289e-05
-1.32134e-05
1.75247e-05
-1.64382e-05
-5.65458e-07
-1.74071e-05
-1.1048e-05
-1.69635e-05
-1.73152e-05
-1.56445e-05
-2.10589e-05
-1.37565e-05
-2.31457e-05
-1.1503e-05
-2.39882e-05
-9.03467e-06
-2.37855e-05
-6.49331e-06
-2.26427e-05
-4.02759e-06
-2.06451e-05
-1.78304e-06
-1.7915e-05
1.21319e-07
-1.46324e-05
1.61498e-06
-1.10161e-05
2.68569e-06
-7.27888e-06
3.36822e-06
-3.57512e-06
3.72098e-06
1.97091e-08
3.80494e-06
3.49877e-06
3.67176e-06
6.89456e-06
3.35879e-06
1.02483e-05
2.8844e-06
1.35826e-05
2.23187e-06
1.68643e-05
1.30677e-06
1.9978e-05
2.25057e-05
4.41227e-06
0.000107325
-3.68787e-06
5.7529e-05
-1.0449e-05
2.42858e-05
-1.47056e-05
3.6911e-06
-1.68023e-05
-8.95118e-06
-1.73844e-05
-1.67331e-05
-1.69117e-05
-2.15316e-05
-1.57058e-05
-2.43516e-05
-1.39921e-05
-2.57019e-05
-1.19165e-05
-2.58612e-05
-9.61293e-06
-2.49462e-05
-7.23671e-06
-2.30213e-05
-4.96032e-06
-2.01914e-05
-2.9419e-06
-1.66508e-05
-1.29121e-06
-1.26668e-05
-4.95125e-08
-8.52058e-06
8.07993e-07
-4.43263e-06
1.3454e-06
-5.17703e-07
1.63503e-06
3.20915e-06
1.73823e-06
6.79136e-06
1.69887e-06
1.02877e-05
1.54066e-06
1.37408e-05
1.2557e-06
1.71493e-05
7.76926e-07
2.04568e-05
2.32826e-05
6.19463e-06
0.000111215
-9.81662e-07
6.47053e-05
-7.71794e-06
3.10221e-05
-1.26668e-05
8.63998e-06
-1.57518e-05
-5.86622e-06
-1.73315e-05
-1.51534e-05
-1.77932e-05
-2.10699e-05
-1.74193e-05
-2.47255e-05
-1.63839e-05
-2.67374e-05
-1.48226e-05
-2.74224e-05
-1.28489e-05
-2.69199e-05
-1.06087e-05
-2.52616e-05
-8.29342e-06
-2.25067e-05
-6.10789e-06
-1.88363e-05
-4.2215e-06
-1.45532e-05
-2.72816e-06
-1.00139e-05
-1.63198e-06
-5.52882e-06
-8.69687e-07
-1.27999e-06
-3.53657e-07
2.69312e-06
-7.45198e-09
6.44516e-06
2.22223e-07
1.0058e-05
3.64438e-07
1.35986e-05
4.16859e-07
1.70969e-05
3.28621e-07
2.0545e-05
2.36112e-05
7.79296e-06
0.00011438
1.41422e-06
7.10841e-05
-5.16714e-06
3.76035e-05
-1.05755e-05
1.40483e-05
-1.448e-05
-1.96172e-06
-1.7007e-05
-1.26264e-05
-1.84277e-05
-1.96492e-05
-1.89476e-05
-2.42056e-05
-1.86915e-05
-2.69935e-05
-1.77669e-05
-2.83471e-05
-1.62467e-05
-2.84401e-05
-1.42267e-05
-2.72816e-05
-1.18964e-05
-2.4837e-05
-9.50131e-06
-2.12314e-05
-7.28745e-06
-1.67671e-05
-5.43584e-06
-1.18655e-05
-4.01429e-06
-6.95036e-06
-2.97407e-06
-2.32022e-06
-2.2062e-06
1.92524e-06
-1.60958e-06
5.84853e-06
-1.11553e-06
9.56397e-06
-6.87919e-07
1.31709e-05
-3.2624e-07
1.67352e-05
-7.58397e-08
2.02946e-05
2.35354e-05
9.24664e-06
0.000117017
3.54429e-06
7.67864e-05
-2.82669e-06
4.39744e-05
-8.53549e-06
1.97571e-05
-1.31104e-05
2.61315e-06
-1.65075e-05
-9.22925e-06
-1.88627e-05
-1.72941e-05
-2.03162e-05
-2.27521e-05
-2.09361e-05
-2.63736e-05
-2.07427e-05
-2.85405e-05
-1.98183e-05
-2.93644e-05
-1.81596e-05
-2.89403e-05
-1.58997e-05
-2.70969e-05
-1.3296e-05
-2.38351e-05
-1.06679e-05
-1.93952e-05
-8.31755e-06
-1.42158e-05
-6.43749e-06
-8.83043e-06
-5.03449e-06
-3.72321e-06
-3.97344e-06
8.64191e-07
-3.11113e-06
4.98623e-06
-2.35178e-06
8.80462e-06
-1.64726e-06
1.24664e-05
-9.95994e-07
1.6084e-05
-4.44681e-07
1.97433e-05
2.30907e-05
1.06719e-05
0.000119307
5.49334e-06
8.1965e-05
-6.7018e-07
5.0138e-05
-6.58117e-06
2.56681e-05
-1.16957e-05
7.72772e-06
-1.58546e-05
-5.07037e-06
-1.90869e-05
-1.40618e-05
-2.14671e-05
-2.03718e-05
-2.30289e-05
-2.48118e-05
-2.3723e-05
-2.78465e-05
-2.35076e-05
-2.95797e-05
-2.24013e-05
-3.00467e-05
-2.03949e-05
-2.91033e-05
-1.76862e-05
-2.65438e-05
-1.46198e-05
-2.24616e-05
-1.16205e-05
-1.72151e-05
-9.07479e-06
-1.13762e-05
-7.15098e-06
-5.64702e-06
-5.71244e-06
-5.74354e-07
-4.54676e-06
3.82055e-06
-3.51172e-06
7.76959e-06
-2.53422e-06
1.14889e-05
-1.61076e-06
1.51605e-05
-7.91407e-07
1.8924e-05
2.22993e-05
1.21629e-05
0.000121394
7.37052e-06
8.67574e-05
1.38584e-06
5.61226e-05
-4.66729e-06
3.17212e-05
-1.02132e-05
1.32736e-05
-1.50185e-05
-2.65095e-07
-1.90297e-05
-1.00506e-05
-2.22684e-05
-1.71331e-05
-2.47443e-05
-2.23358e-05
-2.64099e-05
-2.61809e-05
-2.71014e-05
-2.88882e-05
-2.67601e-05
-3.03879e-05
-2.53237e-05
-3.05398e-05
-2.27843e-05
-2.90832e-05
-1.94199e-05
-2.58261e-05
-1.56989e-05
-2.0936e-05
-1.21971e-05
-1.48779e-05
-9.42453e-06
-8.41963e-06
-7.41811e-06
-2.58077e-06
-5.87276e-06
2.2752e-06
-4.5497e-06
6.44652e-06
-3.31948e-06
1.02587e-05
-2.15217e-06
1.39932e-05
-1.08714e-06
1.78589e-05
2.12122e-05
1.38351e-05
0.000123375
9.31819e-06
9.12743e-05
3.47626e-06
6.19646e-05
-2.68126e-06
3.78788e-05
-8.56823e-06
1.91606e-05
-1.39036e-05
5.07031e-06
-1.85825e-05
-5.37176e-06
-2.25867e-05
-1.31289e-05
-2.59076e-05
-1.90149e-05
-2.84938e-05
-2.35947e-05
-3.02241e-05
-2.71578e-05
-3.08886e-05
-2.97235e-05
-3.03537e-05
-3.10747e-05
-2.84651e-05
-3.09717e-05
-2.52163e-05
-2.90749e-05
-2.09681e-05
-2.51843e-05
-1.63414e-05
-1.95046e-05
-1.22105e-05
-1.25505e-05
-9.20648e-06
-5.58482e-06
-7.10224e-06
1.7096e-07
-5.44111e-06
4.7854e-06
-3.97215e-06
8.78974e-06
-2.59907e-06
1.26201e-05
-1.32704e-06
1.65869e-05
1.98851e-05
1.58324e-05
0.000125301
1.15104e-05
9.55963e-05
5.77965e-06
6.76954e-05
-4.54199e-07
4.41126e-05
-6.60728e-06
2.53137e-05
-1.23669e-05
1.083e-05
-1.75982e-05
-1.40513e-07
-2.2256e-05
-8.47109e-06
-2.6329e-05
-1.49419e-05
-2.97808e-05
-2.01429e-05
-3.25091e-05
-2.44295e-05
-3.43267e-05
-2.79058e-05
-3.4967e-05
-3.04344e-05
-3.42055e-05
-3.17332e-05
-3.17903e-05
-3.14901e-05
-2.76934e-05
-2.92812e-05
-2.23307e-05
-2.48673e-05
-1.65324e-05
-1.83487e-05
-1.17057e-05
-1.04116e-05
-8.46909e-06
-3.0656e-06
-6.26722e-06
2.58352e-06
-4.51091e-06
7.03343e-06
-2.93791e-06
1.10471e-05
-1.47995e-06
1.5129e-05
1.84052e-05
1.83035e-05
0.00012718
1.41325e-05
9.97673e-05
8.49478e-06
7.33331e-05
2.2124e-06
5.0395e-05
-4.1396e-06
3.16657e-05
-1.02275e-05
1.69179e-05
-1.58903e-05
5.52228e-06
-2.10727e-05
-3.28877e-06
-2.5766e-05
-1.02485e-05
-2.99589e-05
-1.595e-05
-3.35909e-05
-2.07976e-05
-3.65178e-05
-2.49789e-05
-3.84868e-05
-2.84654e-05
-3.91771e-05
-3.1043e-05
-3.8258e-05
-3.24092e-05
-3.53761e-05
-3.2163e-05
-3.04122e-05
-2.98313e-05
-2.36833e-05
-2.50777e-05
-1.65117e-05
-1.75832e-05
-1.08564e-05
-8.72091e-06
-7.30526e-06
-9.67587e-07
-4.99213e-06
4.7203e-06
-3.16245e-06
9.21742e-06
-1.48487e-06
1.34514e-05
1.69203e-05
2.13931e-05
0.000128982
1.73703e-05
0.00010379
1.18317e-05
7.88718e-05
5.53574e-06
5.66909e-05
-9.52846e-07
3.81543e-05
-7.28176e-06
2.32468e-05
-1.32664e-05
1.15069e-05
-1.88427e-05
2.28752e-06
-2.40064e-05
-5.08475e-06
-2.87707e-05
-1.11857e-05
-3.31226e-05
-1.64457e-05
-3.69842e-05
-2.11173e-05
-4.01835e-05
-2.5266e-05
-4.24314e-05
-2.87951e-05
-4.33601e-05
-3.14805e-05
-4.25194e-05
-3.30038e-05
-3.94539e-05
-3.28967e-05
-3.37731e-05
-3.07585e-05
-2.55899e-05
-2.57664e-05
-1.67617e-05
-1.75492e-05
-9.84535e-06
-7.88388e-06
-5.69385e-06
5.68805e-07
-3.1568e-06
6.68036e-06
-1.15092e-06
1.14455e-05
1.57694e-05
2.52326e-05
0.000130631
2.13978e-05
0.000107625
1.59926e-05
8.4277e-05
9.72847e-06
6.2955e-05
3.16535e-06
4.47174e-05
-3.3266e-06
2.97388e-05
-9.54018e-06
1.77205e-05
-1.53934e-05
8.14078e-06
-2.08861e-05
4.07965e-07
-2.60495e-05
-6.02233e-06
-3.09117e-05
-1.15836e-05
-3.54605e-05
-1.65684e-05
-3.96132e-05
-2.11133e-05
-4.31914e-05
-2.52169e-05
-4.59085e-05
-2.87635e-05
-4.7378e-05
-3.15342e-05
-4.7068e-05
-3.32067e-05
-4.43292e-05
-3.34972e-05
-3.83446e-05
-3.1751e-05
-2.90646e-05
-2.68292e-05
-1.82812e-05
-1.86673e-05
-9.14846e-06
-8.5639e-06
-3.20381e-06
7.35723e-07
1.0232e-07
8.13934e-06
1.58717e-05
2.86412e-05
0.000131968
2.52151e-05
0.000111051
2.02161e-05
8.9276e-05
1.42925e-05
6.88786e-05
7.98442e-06
5.10254e-05
1.66505e-06
3.60582e-05
-4.44281e-06
2.38283e-05
-1.02394e-05
1.39373e-05
-1.57164e-05
5.88495e-06
-2.09148e-05
-8.23855e-07
-2.58879e-05
-6.61056e-06
-3.06716e-05
-1.17847e-05
-3.52586e-05
-1.65263e-05
-3.95798e-05
-2.08956e-05
-4.34873e-05
-2.48561e-05
-4.67268e-05
-2.82947e-05
-4.89094e-05
-3.10242e-05
-4.96654e-05
-3.27412e-05
-4.82112e-05
-3.32052e-05
-4.32044e-05
-3.1836e-05
-3.44969e-05
-2.73748e-05
-2.28693e-05
-2.01915e-05
-1.08535e-05
-1.12801e-05
1.75408e-07
-2.88955e-06
3.73137e-06
1.23158e-05
3.37812e-05
0.000132932
3.072e-05
0.000114112
2.60066e-05
9.39893e-05
2.02565e-05
7.46288e-05
1.40154e-05
5.72666e-05
7.67845e-06
4.23951e-05
1.49364e-06
3.00132e-05
-4.41386e-06
1.98448e-05
-1.00159e-05
1.1487e-05
-1.53497e-05
4.50995e-06
-2.04835e-05
-1.47669e-06
-2.54848e-05
-6.78348e-06
-3.03958e-05
-1.16154e-05
-3.52196e-05
-1.60718e-05
-3.99141e-05
-2.01616e-05
-4.43861e-05
-2.38226e-05
-4.84685e-05
-2.69417e-05
-5.18482e-05
-2.93614e-05
-5.41935e-05
-3.08599e-05
-5.48327e-05
-3.11969e-05
-5.29226e-05
-2.92849e-05
-4.79656e-05
-2.51485e-05
-4.03101e-05
-1.89356e-05
-3.24757e-05
-1.07239e-05
-5.97224e-08
-2.86846e-05
3.97422e-05
0.000133373
3.71942e-05
0.00011666
3.29018e-05
9.82817e-05
2.7441e-05
8.00896e-05
2.13614e-05
6.33461e-05
1.50845e-05
4.8672e-05
8.88768e-06
3.621e-05
2.92453e-06
2.5808e-05
-2.75049e-06
1.7162e-05
-8.15573e-06
9.91519e-06
-1.33573e-05
3.72492e-06
-1.84374e-05
-1.70345e-06
-2.34661e-05
-6.58658e-06
-2.8487e-05
-1.1051e-05
-3.35171e-05
-1.51315e-05
-3.85587e-05
-1.8781e-05
-4.36061e-05
-2.18944e-05
-4.86267e-05
-2.43408e-05
-5.35247e-05
-2.59619e-05
-5.8194e-05
-2.65276e-05
-6.18968e-05
-2.55822e-05
-6.43786e-05
-2.26666e-05
-6.60397e-05
-1.72745e-05
-6.7281e-05
-9.48271e-06
4.20434e-08
-6.73827e-05
4.647e-05
0.000133126
4.46122e-05
0.000118518
4.09154e-05
0.000101978
3.59001e-05
8.51049e-05
3.01117e-05
6.91346e-05
2.39967e-05
5.4787e-05
1.78677e-05
4.23391e-05
1.19111e-05
3.17645e-05
6.21184e-06
2.28613e-05
7.77482e-07
1.53495e-05
-4.43769e-06
8.94009e-06
-9.50959e-06
3.36845e-06
-1.45154e-05
-1.58073e-06
-1.95095e-05
-6.05695e-06
-2.4518e-05
-1.0123e-05
-2.95544e-05
-1.37445e-05
-3.46452e-05
-1.68036e-05
-3.9832e-05
-1.9154e-05
-4.5159e-05
-2.06349e-05
-5.06317e-05
-2.1055e-05
-5.60019e-05
-2.02119e-05
-6.07219e-05
-1.79467e-05
-6.40651e-05
-1.39313e-05
-6.53105e-05
-8.23729e-06
-1.28168e-06
-6.39868e-05
5.38457e-05
0.000132033
5.28701e-05
0.000119494
4.99772e-05
0.000104871
4.56074e-05
8.94748e-05
4.02838e-05
7.44581e-05
3.44716e-05
6.05992e-05
2.85194e-05
4.82912e-05
2.26533e-05
3.76307e-05
1.69924e-05
2.85221e-05
1.15739e-05
2.07681e-05
6.3783e-06
1.41357e-05
1.35159e-06
8.39517e-06
-3.57155e-06
3.34241e-06
-8.44071e-06
-1.18778e-06
-1.32659e-05
-5.29783e-06
-1.80305e-05
-8.97989e-06
-2.27292e-05
-1.21049e-05
-2.7359e-05
-1.45241e-05
-3.19228e-05
-1.60711e-05
-3.63833e-05
-1.65944e-05
-4.05738e-05
-1.60215e-05
-4.41797e-05
-1.43409e-05
-4.65915e-05
-1.15195e-05
-4.71038e-05
-7.72498e-06
-3.20771e-06
-4.51778e-05
6.16832e-05
0.00012996
6.17747e-05
0.000119402
5.99116e-05
0.000106735
5.64262e-05
9.29602e-05
5.1791e-05
7.90932e-05
4.64727e-05
6.59176e-05
4.0851e-05
5.39128e-05
3.51942e-05
4.32875e-05
2.9663e-05
3.40533e-05
2.43303e-05
2.61008e-05
1.92045e-05
1.92615e-05
1.4253e-05
1.33466e-05
9.42671e-06
8.16874e-06
4.6884e-06
3.55052e-06
4.76639e-08
-6.57088e-07
-4.47147e-06
-4.46075e-06
-8.86271e-06
-7.71371e-06
-1.31093e-05
-1.02776e-05
-1.71428e-05
-1.20376e-05
-2.08277e-05
-1.29095e-05
-2.39787e-05
-1.28704e-05
-2.63862e-05
-1.19334e-05
-2.77568e-05
-1.01489e-05
-2.78203e-05
-7.6615e-06
-4.68594e-06
-2.63421e-05
6.97393e-05
0.00012682
7.10467e-05
0.000118095
7.04282e-05
0.000107353
6.80855e-05
9.53028e-05
6.4406e-05
8.27727e-05
5.98285e-05
7.04951e-05
5.47485e-05
5.89929e-05
4.94719e-05
4.85641e-05
4.42054e-05
3.93198e-05
3.90653e-05
3.1241e-05
3.40964e-05
2.42304e-05
2.92923e-05
1.81507e-05
2.46189e-05
1.28422e-05
2.00542e-05
8.11519e-06
1.56014e-05
3.79573e-06
1.1242e-05