/*--------------------------------*- C++ -*----------------------------------*\
| =========                 |                                                 |
| \\      /  F ield         | OpenFOAM: The Open Source CFD Toolbox           |
|  \\    /   O peration     | Version:  v2012                                 |
|   \\  /    A nd           | Website:  www.openfoam.com                      |
|    \\/     M anipulation  |                                                 |
\*---------------------------------------------------------------------------*/
FoamFile
{
    version     2.0;
    format      ascii;
    class       volVectorField;
    location    "643";
    object      U;
}
// * * * * * * * * * * * * * * * * * * * * * * * * * * * * * * * * * * * * * //

dimensions      [0 1 -1 0 0 0 0];


internalField   nonuniform List<vector> 
6532
(
(6.93691e-05 -0.999779 0)
(0.000180725 -1.00003 0)
(0.000124441 -1.00002 0)
(6.46339e-05 -1.00001 0)
(2.00567e-05 -1.00001 0)
(-1.99116e-05 -1.00001 0)
(-6.45121e-05 -1.00001 0)
(-0.000124363 -1.00002 0)
(-0.000180709 -1.00003 0)
(-6.9364e-05 -0.999779 0)
(0.000280857 -0.999509 0)
(0.000335716 -1.00012 0)
(0.000256679 -1.00012 0)
(0.00015314 -1.00011 0)
(5.05463e-05 -1.0001 0)
(-5.0102e-05 -1.0001 0)
(-0.000152765 -1.00011 0)
(-0.000256414 -1.00012 0)
(-0.000335675 -1.00012 0)
(-0.000280843 -0.999509 0)
(0.000346535 -0.999111 0)
(0.000381543 -1.00014 0)
(0.000308927 -1.00025 0)
(0.000198027 -1.00026 0)
(6.75192e-05 -1.00025 0)
(-6.66605e-05 -1.00025 0)
(-0.000197268 -1.00026 0)
(-0.000308331 -1.00025 0)
(-0.000381026 -1.00014 0)
(-0.000346371 -0.999112 0)
(0.00035018 -0.998665 0)
(0.000375763 -1.00013 0)
(0.000318108 -1.00037 0)
(0.000212468 -1.00042 0)
(7.38291e-05 -1.00043 0)
(-7.23873e-05 -1.00043 0)
(-0.000211178 -1.00042 0)
(-0.000317064 -1.00037 0)
(-0.000375073 -1.00013 0)
(-0.000349849 -0.998665 0)
(0.000337364 -0.998236 0)
(0.000361468 -1.0001 0)
(0.000312968 -1.00048 0)
(0.000211708 -1.00058 0)
(7.46105e-05 -1.00061 0)
(-7.23271e-05 -1.00061 0)
(-0.000209645 -1.00058 0)
(-0.000311286 -1.00048 0)
(-0.000360407 -1.0001 0)
(-0.000336823 -0.998237 0)
(0.000319549 -0.997837 0)
(0.000340788 -1.00007 0)
(0.00030242 -1.00057 0)
(0.00020506 -1.00073 0)
(7.29432e-05 -1.00078 0)
(-6.94372e-05 -1.00078 0)
(-0.000201893 -1.00073 0)
(-0.000299915 -1.00057 0)
(-0.000339124 -1.00008 0)
(-0.000318714 -0.99784 0)
(0.00030138 -0.997464 0)
(0.000320299 -1.00005 0)
(0.000286136 -1.00066 0)
(0.000195147 -1.00087 0)
(7.0143e-05 -1.00095 0)
(-6.47908e-05 -1.00095 0)
(-0.000190317 -1.00088 0)
(-0.000282347 -1.00066 0)
(-0.000317729 -1.00005 0)
(-0.000300162 -0.997469 0)
(0.000284804 -0.997112 0)
(0.000302016 -1.00002 0)
(0.000270692 -1.00074 0)
(0.000185283 -1.00101 0)
(6.75905e-05 -1.00111 0)
(-5.94056e-05 -1.00111 0)
(-0.000177895 -1.00101 0)
(-0.000264836 -1.00074 0)
(-0.000298075 -1.00003 0)
(-0.000282977 -0.997119 0)
(0.000270558 -0.996777 0)
(0.000286761 -0.999998 0)
(0.000257912 -1.00082 0)
(0.000177123 -1.00114 0)
(6.61209e-05 -1.00126 0)
(-5.36272e-05 -1.00126 0)
(-0.000165841 -1.00114 0)
(-0.000248939 -1.00082 0)
(-0.000280751 -1.00001 0)
(-0.000267744 -0.996788 0)
(0.000258809 -0.996457 0)
(0.000274782 -0.999976 0)
(0.000248196 -1.00089 0)
(0.000171389 -1.00125 0)
(6.62674e-05 -1.0014 0)
(-4.72459e-05 -1.0014 0)
(-0.000154208 -1.00126 0)
(-0.000234528 -1.0009 0)
(-0.000265673 -0.99999 0)
(-0.000254521 -0.996474 0)
(0.00024948 -0.996147 0)
(0.000266073 -0.999954 0)
(0.000241776 -1.00096 0)
(0.000168615 -1.00137 0)
(6.86077e-05 -1.00153 0)
(-3.9722e-05 -1.00153 0)
(-0.000142531 -1.00138 0)
(-0.000221045 -1.00098 0)
(-0.000252324 -0.999977 0)
(-0.000243028 -0.996174 0)
(0.000242499 -0.995846 0)
(0.000260786 -0.999933 0)
(0.000239057 -1.00103 0)
(0.000169425 -1.00148 0)
(7.39477e-05 -1.00166 0)
(-3.01984e-05 -1.00166 0)
(-0.000129994 -1.00149 0)
(-0.000207713 -1.00105 0)
(-0.000239992 -0.999967 0)
(-0.000232856 -0.995887 0)
(0.000237942 -0.995549 0)
(0.00025942 -0.99991 0)
(0.000240979 -1.00109 0)
(0.00017491 -1.00158 0)
(8.35627e-05 -1.00178 0)
(-1.73688e-05 -1.00179 0)
(-0.000115419 -1.00161 0)
(-0.000193575 -1.00113 0)
(-0.000227926 -0.999962 0)
(-0.000223588 -0.995612 0)
(0.000236094 -0.995252 0)
(0.000262729 -0.999883 0)
(0.000248982 -1.00114 0)
(0.000187012 -1.00168 0)
(9.95388e-05 -1.0019 0)
(7.61897e-07 -1.00191 0)
(-9.71777e-05 -1.00172 0)
(-0.000177531 -1.00121 0)
(-0.000215477 -0.999963 0)
(-0.000214897 -0.995349 0)
(0.000237375 -0.994952 0)
(0.000271552 -0.99985 0)
(0.000264228 -1.00119 0)
(0.000208809 -1.00177 0)
(0.000125089 -1.00201 0)
(2.72197e-05 -1.00203 0)
(-7.30044e-05 -1.00183 0)
(-0.000158398 -1.00129 0)
(-0.000202365 -0.99997 0)
(-0.000206832 -0.995097 0)
(0.000242772 -0.994641 0)
(0.000288826 -0.999806 0)
(0.000292149 -1.00124 0)
(0.000244947 -1.00185 0)
(0.00016551 -1.00212 0)
(6.68492e-05 -1.00216 0)
(-3.95696e-05 -1.00195 0)
(-0.000135082 -1.00138 0)
(-0.000188844 -0.999988 0)
(-0.000200565 -0.994856 0)
(0.000253734 -0.994311 0)
(0.000318536 -0.999744 0)
(0.000337913 -1.00126 0)
(0.000302846 -1.00193 0)
(0.000227765 -1.00223 0)
(0.00012738 -1.00229 0)
(8.43864e-06 -1.00209 0)
(-0.000107141 -1.0015 0)
(-0.000179643 -1.00002 0)
(-0.00020061 -0.994622 0)
(0.000272345 -0.993949 0)
(0.00036643 -0.999656 0)
(0.000410516 -1.00127 0)
(0.000394849 -1.00199 0)
(0.000329409 -1.00234 0)
(0.000223086 -1.00243 0)
(8.02087e-05 -1.00225 0)
(-7.86549e-05 -1.00165 0)
(-0.000195645 -1.00009 0)
(-0.000223545 -0.994363 0)
(0.000301435 -0.993537 0)
(0.000440389 -0.999524 0)
(0.000523294 -1.00123 0)
(0.000539389 -1.00203 0)
(0.000495379 -1.00244 0)
(0.000386575 -1.00259 0)
(0.000210008 -1.00247 0)
(-2.04951e-05 -1.00187 0)
(-0.000209803 -1.00017 0)
(-0.000164105 -0.994049 0)
(0.000344351 -0.993049 0)
(0.00054985 -0.999328 0)
(0.000692456 -1.00115 0)
(0.000761649 -1.00203 0)
(0.000755318 -1.00253 0)
(0.000656425 -1.00278 0)
(0.000420066 -1.00277 0)
(1.09829e-05 -1.0023 0)
(-0.000605094 -1.00087 0)
(-0.000834874 -0.996462 0)
(0.000407323 -0.992439 0)
(0.000707363 -0.999031 0)
(0.000942903 -1.00097 0)
(0.00110472 -1.00195 0)
(0.00118907 -1.00256 0)
(0.00119234 -1.00295 0)
(0.00107448 -1.00316 0)
(0.000975074 -1.00291 0)
(0.00187637 -1.00083 0)
(0.00927473 -0.981549 0)
(0.000494915 -0.99167 0)
(0.000920802 -0.998584 0)
(0.00128929 -1.00065 0)
(0.00158724 -1.00172 0)
(0.00181576 -1.00243 0)
(0.00199131 -1.00291 0)
(0.0021186 -1.00311 0)
(0.00207699 -1.00275 0)
(0.00259673 -0.999218 0)
(0.0168267 -0.96352 0)
(0.000606143 -0.990691 0)
(0.00119035 -0.997941 0)
(0.00172944 -1.00013 0)
(0.00220022 -1.00129 0)
(0.00260513 -1.00208 0)
(0.00297717 -1.00261 0)
(0.00337876 -1.00277 0)
(0.00368092 -1.00187 0)
(0.00376929 -0.996449 0)
(0.0209025 -0.948403 0)
(0.000741098 -0.989453 0)
(0.00151677 -0.997052 0)
(0.00226319 -0.999361 0)
(0.00294269 -1.00061 0)
(0.00355974 -1.00146 0)
(0.00415694 -1.00201 0)
(0.00486761 -1.00201 0)
(0.00580698 -1.00034 0)
(0.00602973 -0.992085 0)
(0.0244864 -0.93151 0)
(0.000901067 -0.987908 0)
(0.00190366 -0.99587 0)
(0.00289552 -0.998306 0)
(0.00382045 -0.999635 0)
(0.00468737 -1.00054 0)
(0.00554312 -1.00106 0)
(0.00654996 -1.00081 0)
(0.0080873 -0.998105 0)
(0.00883683 -0.986163 0)
(0.0269411 -0.912403 0)
(0.00108859 -0.986001 0)
(0.00235747 -0.994344 0)
(0.00363579 -0.996913 0)
(0.00484379 -0.998324 0)
(0.00599531 -0.999264 0)
(0.00714111 -0.999728 0)
(0.00844896 -0.999122 0)
(0.0105149 -0.995173 0)
(0.0120645 -0.979057 0)
(0.0290419 -0.894036 0)
(0.00130776 -0.98367 0)
(0.00288808 -0.992416 0)
(0.00449979 -0.995128 0)
(0.00603461 -0.996626 0)
(0.00751062 -0.997601 0)
(0.00898366 -0.997974 0)
(0.0106156 -0.996939 0)
(0.0131413 -0.991596 0)
(0.0156556 -0.971054 0)
(0.030556 -0.87709 0)
(0.00156383 -0.980842 0)
(0.00350927 -0.990024 0)
(0.00551193 -0.992889 0)
(0.00742895 -0.994483 0)
(0.00928308 -0.995495 0)
(0.0111386 -0.99576 0)
(0.0131543 -0.994242 0)
(0.0161157 -0.987419 0)
(0.0196282 -0.962504 0)
(0.0327608 -0.861945 0)
(0.00186627 -0.977427 0)
(0.00424754 -0.987075 0)
(0.00670058 -0.990114 0)
(0.00907105 -0.991815 0)
(0.011373 -0.992867 0)
(0.013685 -0.993007 0)
(0.0161809 -0.990946 0)
(0.0196226 -0.982553 0)
(0.0240189 -0.953442 0)
(0.0365347 -0.848082 0)
(0.00222467 -0.973319 0)
(0.00511472 -0.983527 0)
(0.00810146 -0.986713 0)
(0.0110071 -0.988526 0)
(0.0138353 -0.989617 0)
(0.016679 -0.989612 0)
(0.0197345 -0.986949 0)
(0.0237021 -0.976895 0)
(0.0288145 -0.943842 0)
(0.0407612 -0.835861 0)
(0.00264029 -0.968402 0)
(0.00612421 -0.979171 0)
(0.00975585 -0.982572 0)
(0.0132834 -0.984508 0)
(0.0167248 -0.985639 0)
(0.0201772 -0.985477 0)
(0.023852 -0.982187 0)
(0.0283596 -0.970475 0)
(0.0342101 -0.933925 0)
(0.0451161 -0.825553 0)
(0.00312543 -0.962539 0)
(0.00730959 -0.973923 0)
(0.0116956 -0.977564 0)
(0.0159507 -0.979638 0)
(0.020108 -0.98082 0)
(0.0242616 -0.980507 0)
(0.0286255 -0.976609 0)
(0.0337239 -0.963334 0)
(0.040301 -0.923791 0)
(0.0499085 -0.817174 0)
(0.00369178 -0.955566 0)
(0.0086978 -0.967633 0)
(0.0139624 -0.971539 0)
(0.0190701 -0.973773 0)
(0.0240646 -0.975027 0)
(0.029033 -0.974589 0)
(0.0341741 -0.970132 0)
(0.0399494 -0.955445 0)
(0.0470286 -0.913877 0)
(0.0554322 -0.810532 0)
(0.00434999 -0.947291 0)
(0.0103167 -0.96012 0)
(0.016605 -0.964324 0)
(0.0227104 -0.966744 0)
(0.0286836 -0.968098 0)
(0.0346016 -0.967576 0)
(0.0406357 -0.962656 0)
(0.0471531 -0.946876 0)
(0.0546078 -0.904271 0)
(0.0619934 -0.805366 0)
(0.00511065 -0.937504 0)
(0.0121948 -0.951184 0)
(0.0196736 -0.955722 0)
(0.026942 -0.958356 0)
(0.0340573 -0.959842 0)
(0.0410831 -0.959297 0)
(0.0481528 -0.954055 0)
(0.055513 -0.937586 0)
(0.0633341 -0.89493 0)
(0.0699445 -0.8014 0)
(0.00598256 -0.925969 0)
(0.0143576 -0.940595 0)
(0.0232139 -0.945509 0)
(0.031831 -0.948383 0)
(0.0402744 -0.950039 0)
(0.0485921 -0.949543 0)
(0.0568709 -0.944154 0)
(0.0652239 -0.927452 0)
(0.0735161 -0.885696 0)
(0.0796566 -0.798303 0)
(0.00697451 -0.912435 0)
(0.0168259 -0.928108 0)
(0.0272648 -0.93344 0)
(0.0374336 -0.93658 0)
(0.0474105 -0.938439 0)
(0.0572281 -0.938069 0)
(0.0669208 -0.932729 0)
(0.0764663 -0.916261 0)
(0.0854354 -0.87628 0)
(0.0914842 -0.795645 0)
(0.00806849 -0.896579 0)
(0.0195958 -0.913424 0)
(0.0318511 -0.919234 0)
(0.0437892 -0.922666 0)
(0.0555179 -0.924759 0)
(0.0670601 -0.92459 0)
(0.0783972 -0.919493 0)
(0.0893782 -0.903706 0)
(0.0993171 -0.866269 0)
(0.105732 -0.792886 0)
(0.0092731 -0.878804 0)
(0.0226399 -0.896646 0)
(0.0368848 -0.902976 0)
(0.0507592 -0.906716 0)
(0.0644156 -0.909058 0)
(0.0778702 -0.909147 0)
(0.0910553 -0.904456 0)
(0.103709 -0.889718 0)
(0.114944 -0.855372 0)
(0.122229 -0.789442 0)
(0.0106256 -0.858436 0)
(0.025975 -0.877672 0)
(0.042341 -0.884547 0)
(0.0582997 -0.888604 0)
(0.0740398 -0.891202 0)
(0.0895756 -0.891583 0)
(0.104799 -0.88742 0)
(0.119361 -0.874 0)
(0.132238 -0.843102 0)
(0.140911 -0.784659 0)
(0.0121072 -0.835229 0)
(0.02961 -0.855997 0)
(0.0482783 -0.86345 0)
(0.0665003 -0.867832 0)
(0.0844993 -0.870685 0)
(0.102301 -0.871378 0)
(0.119769 -0.867826 0)
(0.136497 -0.855914 0)
(0.151387 -0.828701 0)
(0.161996 -0.777759 0)
(0.0136975 -0.808877 0)
(0.0335114 -0.831393 0)
(0.0546484 -0.839476 0)
(0.0752894 -0.844196 0)
(0.0956925 -0.847298 0)
(0.115909 -0.848304 0)
(0.135794 -0.845402 0)
(0.15491 -0.835088 0)
(0.172154 -0.811615 0)
(0.185214 -0.767991 0)
(0.0153877 -0.779126 0)
(0.0376582 -0.803643 0)
(0.0614014 -0.812438 0)
(0.0845812 -0.817525 0)
(0.107492 -0.820876 0)
(0.130225 -0.822184 0)
(0.152643 -0.819928 0)
(0.174314 -0.8112 0)
(0.194183 -0.791345 0)
(0.210131 -0.754651 0)
(0.0171719 -0.74577 0)
(0.0420292 -0.772583 0)
(0.0684828 -0.782203 0)
(0.0942805 -0.787708 0)
(0.119751 -0.791321 0)
(0.145043 -0.792918 0)
(0.170041 -0.791271 0)
(0.194351 -0.78403 0)
(0.217015 -0.767517 0)
(0.236154 -0.737162 0)
(0.019046 -0.708624 0)
(0.0466043 -0.738087 0)
(0.0758381 -0.748688 0)
(0.104289 -0.754698 0)
(0.132316 -0.758613 0)
(0.160141 -0.760496 0)
(0.187688 -0.759402 0)
(0.214623 -0.75349 0)
(0.240123 -0.739924 0)
(0.262586 -0.715149 0)
(0.0210104 -0.667509 0)
(0.0513722 -0.700054 0)
(0.0834222 -0.711861 0)
(0.114518 -0.718512 0)
(0.14504 -0.722809 0)
(0.175302 -0.725001 0)
(0.205282 -0.724407 0)
(0.234723 -0.719634 0)
(0.262962 -0.708559 0)
(0.288687 -0.688502 0)
(0.0230721 -0.622244 0)
(0.0563362 -0.658412 0)
(0.0912081 -0.671738 0)
(0.124892 -0.679232 0)
(0.15779 -0.684044 0)
(0.190324 -0.686607 0)
(0.222541 -0.686485 0)
(0.254275 -0.682669 0)
(0.285022 -0.67362 0)
(0.313763 -0.657392 0)
(0.0252474 -0.57263 0)
(0.0615199 -0.6131 0)
(0.0991914 -0.628384 0)
(0.135361 -0.63701 0)
(0.170454 -0.642532 0)
(0.205031 -0.645578 0)
(0.239222 -0.645938 0)
(0.27295 -0.64293 0)
(0.305872 -0.635487 0)
(0.337234 -0.622255 0)
(0.0275625 -0.518436 0)
(0.0669678 -0.564075 0)
(0.107389 -0.581919 0)
(0.145885 -0.592066 0)
(0.182932 -0.59856 0)
(0.219264 -0.602253 0)
(0.255109 -0.603151 0)
(0.290481 -0.600852 0)
(0.325177 -0.594671 0)
(0.358674 -0.583719 0)
(0.0300575 -0.459373 0)
(0.0727402 -0.511303 0)
(0.11582 -0.532531 0)
(0.156417 -0.544704 0)
(0.195106 -0.552494 0)
(0.232852 -0.557035 0)
(0.269996 -0.55856 0)
(0.306634 -0.556922 0)
(0.342684 -0.551745 0)
(0.377806 -0.542507 0)
(0.0327642 -0.395098 0)
(0.0788952 -0.454802 0)
(0.124467 -0.480485 0)
(0.166839 -0.495308 0)
(0.206785 -0.504762 0)
(0.245557 -0.510369 0)
(0.283628 -0.512626 0)
(0.321163 -0.511631 0)
(0.358172 -0.507275 0)
(0.394453 -0.499329 0)
(0.0358383 -0.325168 0)
(0.0853913 -0.394658 0)
(0.133113 -0.426232 0)
(0.176849 -0.444418 0)
(0.217617 -0.455886 0)
(0.257 -0.462735 0)
(0.295632 -0.465794 0)
(0.333736 -0.465421 0)
(0.371379 -0.461751 0)
(0.408447 -0.454793 0)
(0.0392134 -0.24973 0)
(0.092098 -0.331383 0)
(0.141172 -0.369953 0)
(0.185689 -0.392408 0)
(0.226856 -0.40635 0)
(0.266493 -0.414591 0)
(0.305393 -0.418461 0)
(0.343827 -0.41865 0)
(0.38189 -0.415538 0)
(0.419508 -0.409344 0)
(0.0397668 -0.166099 0)
(0.0964961 -0.268163 0)
(0.147413 -0.31394 0)
(0.192439 -0.340291 0)
(0.233483 -0.356647 0)
(0.272988 -0.366262 0)
(0.311944 -0.370873 0)
(0.3506 -0.371515 0)
(0.389018 -0.368821 0)
(0.427132 -0.3632 0)
(0.0328158 -0.0784828 0)
(0.0907718 -0.192949 0)
(0.145967 -0.254748 0)
(0.193611 -0.288274 0)
(0.235298 -0.307416 0)
(0.274791 -0.318134 0)
(0.313828 -0.323191 0)
(0.352785 -0.324053 0)
(0.391697 -0.321586 0)
(0.430461 -0.316356 0)
(0.0200588 -0.0148526 0)
(0.0709168 -0.114085 0)
(0.128838 -0.188393 0)
(0.181507 -0.232647 0)
(0.226767 -0.257015 0)
(0.268163 -0.269619 0)
(0.308353 -0.275095 0)
(0.348293 -0.275915 0)
(0.38822 -0.273416 0)
(0.428077 -0.268377 0)
(0.00803576 0.0238469 0)
(0.0448843 -0.0442303 0)
(0.0965658 -0.117815 0)
(0.150579 -0.17001 0)
(0.20043 -0.201283 0)
(0.246395 -0.217817 0)
(0.290225 -0.224909 0)
(0.333048 -0.226156 0)
(0.37539 -0.223729 0)
(0.417399 -0.218864 0)
(-0.00552393 0.0423405 0)
(0.0204997 0.00281357 0)
(0.0573906 -0.0554488 0)
(0.103166 -0.105153 0)
(0.152582 -0.138869 0)
(0.202584 -0.158837 0)
(0.251824 -0.168629 0)
(0.299944 -0.17158 0)
(0.347002 -0.17014 0)
(0.393152 -0.165983 0)
(-0.0209331 0.0427927 0)
(-0.00929868 0.0204539 0)
(0.014045 -0.0138058 0)
(0.0463504 -0.0497439 0)
(0.0883503 -0.0774667 0)
(0.137627 -0.0951335 0)
(0.190959 -0.104445 0)
(0.245091 -0.108214 0)
(0.298423 -0.10787 0)
(0.350658 -0.104668 0)
(-0.025843 0.0120304 0)
(-0.044214 0.000963394 0)
(-0.0494529 -0.0152058 0)
(-0.024603 -0.0294097 0)
(0.00875392 -0.0407975 0)
(0.0537805 -0.0465152 0)
(0.105999 -0.0500282 0)
(0.167099 -0.0527365 0)
(0.229503 -0.053368 0)
(0.289484 -0.0517925 0)
(-0.0402733 -0.156314 0)
(-0.119607 0.0121122 0)
(-0.105295 0.017582 0)
(-0.0905621 0.0193276 0)
(-0.0739908 0.0215224 0)
(-0.0549259 0.0229225 0)
(-0.0345127 0.0234223 0)
(-0.0153399 0.023609 0)
(0.00380875 0.0234134 0)
(0.0225163 0.0219415 0)
(0.0399546 0.0205466 0)
(0.0578018 0.0188683 0)
(0.07246 0.0162961 0)
(0.0844844 0.0132883 0)
(0.0938345 0.0101235 0)
(0.100167 0.00703189 0)
(0.103292 0.00407542 0)
(0.102906 0.000481057 0)
(0.0987833 -0.00347929 0)
(0.0905791 -0.00759169 0)
(0.078116 -0.0116852 0)
(0.0614829 -0.0153769 0)
(0.0410664 -0.0170999 0)
(0.0186389 -0.0145043 0)
(0.00404815 -0.00752564 0)
(-0.0235758 -0.230776 0)
(-0.072587 -0.011398 0)
(-0.079394 0.0187278 0)
(-0.0756593 0.027575 0)
(-0.0661754 0.0331868 0)
(-0.053303 0.0369863 0)
(-0.0383375 0.0390838 0)
(-0.022056 0.0398155 0)
(-0.00520642 0.0392682 0)
(0.0112555 0.0374054 0)
(0.026556 0.0345789 0)
(0.0403776 0.0308218 0)
(0.0524234 0.0260511 0)
(0.0625711 0.0206843 0)
(0.0706206 0.0149658 0)
(0.0763657 0.00894815 0)
(0.0796504 0.00258718 0)
(0.0805519 -0.00413626 0)
(0.0791357 -0.0112258 0)
(0.075287 -0.0186988 0)
(0.0688433 -0.0263974 0)
(0.0595264 -0.033718 0)
(0.0472499 -0.0387773 0)
(0.0298156 -0.0379041 0)
(0.0120016 -0.0277271 0)
(-0.00346041 -0.306613 0)
(-0.0527865 -0.0445463 0)
(-0.066624 0.0134838 0)
(-0.0679553 0.033498 0)
(-0.0625415 0.0450148 0)
(-0.0529976 0.0523911 0)
(-0.0409254 0.0566718 0)
(-0.027326 0.058413 0)
(-0.0130397 0.058025 0)
(0.00117169 0.0557742 0)
(0.0146633 0.0518923 0)
(0.0269543 0.0465407 0)
(0.0377254 0.0399043 0)
(0.0467641 0.0323033 0)
(0.0538878 0.0240259 0)
(0.0589654 0.0152645 0)
(0.0619396 0.00611336 0)
(0.0628443 -0.00345117 0)
(0.0617763 -0.0135086 0)
(0.0588235 -0.0240922 0)
(0.0540515 -0.0351111 0)
(0.0474022 -0.0460865 0)
(0.0387183 -0.0554435 0)
(0.0270534 -0.059147 0)
(0.0139139 -0.051476 0)
(0.00731728 -0.379863 0)
(-0.0449989 -0.084148 0)
(-0.0633283 0.00256824 0)
(-0.067462 0.0358859 0)
(-0.0642218 0.0543102 0)
(-0.0564781 0.065946 0)
(-0.0461051 0.0729317 0)
(-0.0341591 0.0761732 0)
(-0.0214426 0.076252 0)
(-0.00861963 0.0735917 0)
(0.00373453 0.0685506 0)
(0.0151242 0.0614647 0)
(0.0251597 0.0526951 0)
(0.0335553 0.0426617 0)
(0.0401236 0.0317628 0)
(0.0447785 0.0203081 0)
(0.0475292 0.0084933 0)
(0.0484622 -0.00360148 0)
(0.0477023 -0.0159978 0)
(0.0453839 -0.0287655 0)
(0.0416293 -0.0419202 0)
(0.0364812 -0.055225 0)
(0.0297802 -0.0676306 0)
(0.0212922 -0.0759608 0)
(0.0129182 -0.0774601 0)
(0.016558 -0.440358 0)
(-0.0363477 -0.133738 0)
(-0.0605589 -0.0157986 0)
(-0.0683135 0.0341931 0)
(-0.067864 0.061131 0)
(-0.0617403 0.0774621 0)
(-0.052853 0.0872493 0)
(-0.0422608 0.0920972 0)
(-0.0307469 0.092846 0)
(-0.0189274 0.0900433 0)
(-0.00735102 0.0841329 0)
(0.0034787 0.0755564 0)
(0.0131156 0.0648173 0)
(0.0212115 0.0524804 0)
(0.0275501 0.0391047 0)
(0.0320619 0.0251549 0)
(0.0348038 0.0109443 0)
(0.0359157 -0.00337818 0)
(0.0355624 -0.0178069 0)
(0.033908 -0.03241 0)
(0.0311006 -0.0472393 0)
(0.0272201 -0.0621722 0)
(0.0221476 -0.0765201 0)
(0.0155281 -0.0882202 0)
(0.0103054 -0.0948772 0)
(0.025065 -0.487984 0)
(-0.0250219 -0.186757 0)
(-0.0526876 -0.0418766 0)
(-0.0664067 0.0268899 0)
(-0.0695455 0.0643324 0)
(-0.0661707 0.086336 0)
(-0.0593291 0.099402 0)
(-0.0504755 0.106129 0)
(-0.0403598 0.107861 0)
(-0.0296082 0.105276 0)
(-0.0187656 0.0988625 0)
(-0.00836726 0.0891097 0)
(0.00107781 0.0766157 0)
(0.00913867 0.0621104 0)
(0.0155328 0.0463659 0)
(0.0201676 0.0300552 0)
(0.0231219 0.0136426 0)
(0.0245795 -0.00264717 0)
(0.0247472 -0.0187973 0)
(0.0238177 -0.0349051 0)
(0.0219576 -0.0510765 0)
(0.0192678 -0.0672778 0)
(0.015706 -0.0830502 0)
(0.0107204 -0.097119 0)
(0.00761057 -0.107121 0)
(0.0304251 -0.524702 0)
(-0.0117898 -0.237557 0)
(-0.0414023 -0.0748667 0)
(-0.0601263 0.0129593 0)
(-0.067633 0.0622437 0)
(-0.0681916 0.0913684 0)
(-0.0644059 0.108497 0)
(-0.0579573 0.117713 0)
(-0.049714 0.120982 0)
(-0.0403559 0.119162 0)
(-0.0304276 0.112769 0)
(-0.0204934 0.102287 0)
(-0.0111449 0.0883709 0)
(-0.00292149 0.071905 0)
(0.00378523 0.0539081 0)
(0.00880463 0.035333 0)
(0.012196 0.0168459 0)
(0.0141709 -0.00123253 0)
(0.0149775 -0.0188768 0)
(0.0148411 -0.0362278 0)
(0.0139516 -0.0534612 0)
(0.0124313 -0.0706429 0)
(0.0102999 -0.0875098 0)
(0.00692282 -0.103282 0)
(0.00547583 -0.115699 0)
(0.0344908 -0.553528 0)
(0.000563892 -0.282762 0)
(-0.029675 -0.109977 0)
(-0.0511796 -0.0071393 0)
(-0.0631385 0.0540818 0)
(-0.0679137 0.090995 0)
(-0.0679087 0.113273 0)
(-0.0643645 0.126025 0)
(-0.0585261 0.131595 0)
(-0.0510085 0.131263 0)
(-0.0423217 0.125619 0)
(-0.0330117 0.115069 0)
(-0.0237419 0.100243 0)
(-0.0151924 0.0821527 0)
(-0.00792001 0.0620835 0)
(-0.00223672 0.0413183 0)
(0.0018348 0.0208165 0)
(0.00450527 0.00105372 0)
(0.00606474 -0.0179271 0)
(0.00678259 -0.0363244 0)
(0.00688022 -0.0543941 0)
(0.00650359 -0.0723043 0)
(0.00570856 -0.0899678 0)
(0.0038603 -0.106952 0)
(0.00383701 -0.121144 0)
(0.0382563 -0.57627 0)
(0.010707 -0.322852 0)
(-0.0184847 -0.145749 0)
(-0.0415221 -0.0318085 0)
(-0.0569909 0.0400867 0)
(-0.0658471 0.0851104 0)
(-0.0695539 0.113366 0)
(-0.0695986 0.130307 0)
(-0.0667026 0.138975 0)
(-0.0615263 0.140984 0)
(-0.0545248 0.136999 0)
(-0.0461299 0.127292 0)
(-0.037014 0.112327 0)
(-0.0280058 0.0931428 0)
(-0.0198834 0.0712725 0)
(-0.013203 0.0483905 0)
(-0.00815983 0.0258572 0)
(-0.00459281 0.00440617 0)
(-0.00216578 -0.0158444 0)
(-0.000542674 -0.0351568 0)
(0.00054725 -0.0538922 0)
(0.00127664 -0.0723326 0)
(0.00171909 -0.0905521 0)
(0.00129255 -0.108395 0)
(0.0024533 -0.123981 0)
(0.0419894 -0.594546 0)
(0.0192463 -0.358383 0)
(-0.00819306 -0.180926 0)
(-0.0320592 -0.0593177 0)
(-0.0502458 0.0215115 0)
(-0.0626678 0.0742838 0)
(-0.0702214 0.108364 0)
(-0.0738991 0.129944 0)
(-0.0743485 0.14247 0)
(-0.0719391 0.147676 0)
(-0.0671201 0.146352 0)
(-0.0601044 0.138621 0)
(-0.0513659 0.124601 0)
(-0.0418542 0.105151 0)
(-0.0325912 0.081934 0)
(-0.0244861 0.0570326 0)
(-0.0180674 0.0323492 0)
(-0.0133293 0.00906576 0)
(-0.00989014 -0.0125094 0)
(-0.00730611 -0.0326959 0)
(-0.00522221 -0.051992 0)
(-0.00342391 -0.0708225 0)
(-0.00183468 -0.089432 0)
(-0.000941012 -0.107896 0)
(0.00113806 -0.124592 0)
(0.0457622 -0.609532 0)
(0.026673 -0.389961 0)
(0.00111047 -0.215027 0)
(-0.0231178 -0.0887306 0)
(-0.0433589 -0.0010169 0)
(-0.0589054 0.0585163 0)
(-0.0700768 0.0983687 0)
(-0.0774522 0.124767 0)
(-0.0814963 0.141617 0)
(-0.0823603 0.150701 0)
(-0.0800228 0.153029 0)
(-0.075059 0.148502 0)
(-0.0672025 0.136822 0)
(-0.0573683 0.118344 0)
(-0.0467774 0.0945795 0)
(-0.0367476 0.067893 0)
(-0.0283645 0.0408417 0)
(-0.0220136 0.015374 0)
(-0.0173253 -0.00775114 0)
(-0.013682 -0.0288748 0)
(-0.0105818 -0.048697 0)
(-0.00773249 -0.0678374 0)
(-0.00505648 -0.0867456 0)
(-0.00294085 -0.10575 0)
(-5.39456e-05 -0.123192 0)
(0.0500437 -0.622251 0)
(0.0334726 -0.41838 0)
(0.00958989 -0.247963 0)
(-0.0147336 -0.119385 0)
(-0.0365295 -0.0266597 0)
(-0.0547261 0.0384757 0)
(-0.0691761 0.083541 0)
(-0.0801171 0.11461 0)
(-0.0878277 0.135887 0)
(-0.0923754 0.149628 0)
(-0.0933411 0.15603 0)
(-0.0906894 0.15615 0)
(-0.0846399 0.148357 0)
(-0.0751365 0.132532 0)
(-0.0633915 0.109588 0)
(-0.0510504 0.0817552 0)
(-0.0399103 0.0521196 0)
(-0.0311628 0.0238375 0)
(-0.0247488 -0.00132351 0)
(-0.0198338 -0.0235942 0)
(-0.0156402 -0.0439752 0)
(-0.0117334 -0.0633958 0)
(-0.00801519 -0.0825848 0)
(-0.00476633 -0.102128 0)
(-0.00121277 -0.119924 0)
(0.0550243 -0.633602 0)
(0.0401439 -0.444434 0)
(0.0176195 -0.27986 0)
(-0.00666284 -0.150901 0)
(-0.02966 -0.0548169 0)
(-0.05005 0.0147501 0)
(-0.0673358 0.0643472 0)
(-0.0815185 0.0997123 0)
(-0.0927124 0.125181 0)
(-0.100885 0.143363 0)
(-0.105786 0.155194 0)
(-0.106448 0.160082 0)
(-0.10303 0.157992 0)
(-0.0952025 0.14681 0)
(-0.0832407 0.126808 0)
(-0.0687932 0.0994281 0)
(-0.0540903 0.0675994 0)
(-0.0414889 0.0356179 0)
(-0.0322608 0.00739105 0)
(-0.0256117 -0.0166335 0)
(-0.0201972 -0.0378449 0)
(-0.0152778 -0.0575875 0)
(-0.0106301 -0.0770583 0)
(-0.00639528 -0.0971468 0)
(-0.00207867 -0.114946 0)
(0.0609926 -0.6442 0)
(0.0472528 -0.468782 0)
(0.0257651 -0.310907 0)
(0.00156908 -0.18304 0)
(-0.0223644 -0.0849728 0)
(-0.0445081 -0.0120552 0)
(-0.0641717 0.0413409 0)
(-0.0811872 0.0805284 0)
(-0.0955431 0.109832 0)
(-0.107176 0.132137 0)
(-0.115773 0.14878 0)
(-0.120777 0.159615 0)
(-0.121121 0.163403 0)
(-0.11649 0.159281 0)
(-0.106288 0.144943 0)
(-0.0911567 0.120929 0)
(-0.0730456 0.0890274 0)
(-0.0549439 0.0529903 0)
(-0.0406975 0.0197851 0)
(-0.0311842 -0.00730718 0)
(-0.0241692 -0.0300733 0)
(-0.0182414 -0.0504985 0)
(-0.0127834 -0.0703465 0)
(-0.00773027 -0.090974 0)
(-0.00281847 -0.10853 0)
(0.0684144 -0.654424 0)
(0.0554455 -0.49194 0)
(0.034739 -0.341303 0)
(0.0106366 -0.215655 0)
(-0.0140052 -0.116719 0)
(-0.0375294 -0.0413473 0)
(-0.0591397 0.0151384 0)
(-0.0785215 0.0575978 0)
(-0.0956209 0.0902422 0)
(-0.110402 0.11614 0)
(-0.122629 0.137006 0)
(-0.131752 0.153152 0)
(-0.136925 0.163521 0)
(-0.136914 0.166673 0)
(-0.130812 0.16108 0)
(-0.117911 0.144067 0)
(-0.0990329 0.116281 0)
(-0.0759033 0.0791396 0)
(-0.0535476 0.0389728 0)
(-0.0379842 0.00555505 0)
(-0.0280769 -0.0202385 0)
(-0.0207393 -0.0420522 0)
(-0.0144392 -0.0625932 0)
(-0.00867517 -0.0837611 0)
(-0.00335002 -0.101045 0)
(0.0777804 -0.664439 0)
(0.0653934 -0.514242 0)
(0.0453129 -0.37119 0)
(0.0213234 -0.248607 0)
(-0.00382039 -0.149679 0)
(-0.0284053 -0.0726138 0)
(-0.0515223 -0.013652 0)
(-0.0727745 0.0315523 0)
(-0.0921048 0.0670054 0)
(-0.109514 0.0958407 0)
(-0.124912 0.120086 0)
(-0.137936 0.140529 0)
(-0.14782 0.156741 0)
(-0.153449 0.167203 0)
(-0.153313 0.170346 0)
(-0.146016 0.16414 0)
(-0.130854 0.145411 0)
(-0.107505 0.114074 0)
(-0.0780182 0.07069 0)
(-0.0510623 0.0266202 0)
(-0.0337823 -0.00686828 0)
(-0.0232507 -0.0318031 0)
(-0.0155699 -0.0536848 0)
(-0.00905107 -0.0757032 0)
(-0.00358099 -0.0931081 0)
(0.0895628 -0.674187 0)
(0.0777565 -0.535817 0)
(0.058276 -0.40061 0)
(0.0344785 -0.281739 0)
(0.00903248 -0.183526 0)
(-0.0163143 -0.105372 0)
(-0.0405472 -0.0444025 0)
(-0.0632092 0.00310809 0)
(-0.0842178 0.0408977 0)
(-0.103631 0.0720642 0)
(-0.121495 0.0988328 0)
(-0.137686 0.122392 0)
(-0.151723 0.142872 0)
(-0.162728 0.159478 0)
(-0.169403 0.170656 0)
(-0.169992 0.174428 0)
(-0.16265 0.168663 0)
(-0.146314 0.149995 0)
(-0.118409 0.114857 0)
(-0.0820475 0.0656762 0)
(-0.0486839 0.0168321 0)
(-0.0282605 -0.0180108 0)
(-0.0162734 -0.0427882 0)
(-0.00794891 -0.0654554 0)
(-0.00300138 -0.085716 0)
(0.104184 -0.683388 0)
(0.0931409 -0.55657 0)
(0.0743809 -0.429468 0)
(0.0509309 -0.314853 0)
(0.0253907 -0.217945 0)
(-0.000439886 -0.139188 0)
(-0.0254581 -0.0765952 0)
(-0.0491202 -0.0270816 0)
(-0.0713096 0.0127074 0)
(-0.0921211 0.0457471 0)
(-0.11171 0.074334 0)
(-0.130164 0.0999339 0)
(-0.147315 0.123113 0)
(-0.162674 0.143656 0)
(-0.175366 0.160688 0)
(-0.183818 0.172766 0)
(-0.186894 0.177464 0)
(-0.181563 0.1738 0)
(-0.165372 0.156448 0)
(-0.135337 0.119896 0)
(-0.0926728 0.0675637 0)
(-0.0498706 0.0114314 0)
(-0.0201209 -0.0310646 0)
(-0.00426316 -0.057802 0)
(-0.00116605 -0.0831456 0)
(0.12156 -0.691396 0)
(0.11162 -0.575795 0)
(0.093851 -0.456946 0)
(0.071002 -0.347014 0)
(0.0456288 -0.251904 0)
(0.0196011 -0.172993 0)
(-0.00589056 -0.109114 0)
(-0.0302095 -0.0578412 0)
(-0.05317 -0.0162904 0)
(-0.0748636 0.0183043 0)
(-0.0955212 0.0482154 0)
(-0.115375 0.0750498 0)
(-0.134504 0.0996684 0)
(-0.152757 0.122263 0)
(-0.169711 0.142485 0)
(-0.184585 0.15952 0)
(-0.196085 0.17218 0)
(-0.202227 0.178451 0)
(-0.202323 0.177083 0)
(-0.190514 0.161778 0)
(-0.162434 0.129828 0)
(-0.119779 0.0832474 0)
(-0.0661814 0.0310804 0)
(-0.0150837 -0.0154252 0)
(0.0193306 -0.0531095 0)
(0.141687 -0.69764 0)
(0.133322 -0.593039 0)
(0.116949 -0.482654 0)
(0.0950538 -0.37786 0)
(0.070158 -0.285031 0)
(0.0442092 -0.206387 0)
(0.0185037 -0.141533 0)
(-0.00621838 -0.0887011 0)
(-0.0296769 -0.0455052 0)
(-0.0519026 -0.00949907 0)
(-0.0731397 0.0214836 0)
(-0.0937232 0.0490961 0)
(-0.113895 0.0743697 0)
(-0.133746 0.0977472 0)
(-0.153197 0.11919 0)
(-0.171979 0.138292 0)
(-0.189586 0.154339 0)
(-0.205151 0.166267 0)
(-0.217331 0.172654 0)
(-0.223673 0.173155 0)
(-0.222823 0.157988 0)
(-0.209513 0.131272 0)
(-0.184635 0.0967367 0)
(-0.145294 0.0585219 0)
(-0.108369 0.0111517 0)
(0.164853 -0.701558 0)
(0.158677 -0.608026 0)
(0.144282 -0.506563 0)
(0.123858 -0.407541 0)
(0.0998688 -0.317596 0)
(0.0743463 -0.23969 0)
(0.0487133 -0.174205 0)
(0.0238284 -0.120004 0)
(8.3924e-05 -0.0752313 0)
(-0.0224523 -0.0378095 0)
(-0.0439726 -0.00579293 0)
(-0.06483 0.022432 0)
(-0.085368 0.0479926 0)
(-0.105816 0.0714919 0)
(-0.126284 0.0930525 0)
(-0.146799 0.112408 0)
(-0.167348 0.129031 0)
(-0.187876 0.14222 0)
(-0.208217 0.150943 0)
(-0.227806 0.153356 0)
(-0.245786 0.146395 0)
(-0.259075 0.125609 0)
(-0.266281 0.0881646 0)
(-0.272831 0.0347786 0)
(-0.276432 -0.0274099 0)
(0.190796 -0.702305 0)
(0.187513 -0.619888 0)
(0.175823 -0.527858 0)
(0.157555 -0.435356 0)
(0.13506 -0.349033 0)
(0.110435 -0.27246 0)
(0.08524 -0.206761 0)
(0.0604762 -0.151465 0)
(0.036672 -0.10523 0)
(0.0139987 -0.0663776 0)
(-0.0076317 -0.033244 0)
(-0.0284996 -0.00434113 0)
(-0.0489586 0.0214793 0)
(-0.0692949 0.0449495 0)
(-0.0896593 0.0663217 0)
(-0.110108 0.0853629 0)
(-0.130709 0.101475 0)
(-0.151597 0.11393 0)
(-0.172932 0.121983 0)
(-0.194899 0.124761 0)
(-0.217513 0.120888 0)
(-0.239128 0.109013 0)
(-0.255774 0.0859269 0)
(-0.265678 0.0506158 0)
(-0.266912 0.00523047 0)
(0.219027 -0.699003 0)
(0.219356 -0.627627 0)
(0.211204 -0.545518 0)
(0.195945 -0.460368 0)
(0.175717 -0.378553 0)
(0.152632 -0.304076 0)
(0.128381 -0.238731 0)
(0.104128 -0.182711 0)
(0.0805592 -0.135227 0)
(0.0579704 -0.0950151 0)
(0.036379 -0.0606888 0)
(0.015613 -0.0309456 0)
(-0.00459102 -0.00467331 0)
(-0.0245025 0.0189642 0)
(-0.0442497 0.040386 0)
(-0.0637975 0.0594544 0)
(-0.0830779 0.0755469 0)
(-0.102104 0.0879315 0)
(-0.120811 0.0957597 0)
(-0.139261 0.0979735 0)
(-0.157147 0.0937587 0)
(-0.173636 0.0830127 0)
(-0.186444 0.0656523 0)
(-0.192844 0.0431591 0)
(-0.190264 0.0165939 0)
(0.248826 -0.690851 0)
(0.253415 -0.630214 0)
(0.249654 -0.558369 0)
(0.238377 -0.481408 0)
(0.221379 -0.405115 0)
(0.20069 -0.333678 0)
(0.178085 -0.269443 0)
(0.154895 -0.213233 0)
(0.131982 -0.164832 0)
(0.109803 -0.123425 0)
(0.0885035 -0.0879441 0)
(0.06801 -0.0572746 0)
(0.048126 -0.0303727 0)
(0.0286579 -0.00633959 0)
(0.00958498 0.0154585 0)
(-0.00910392 0.0351122 0)
(-0.0272633 0.0519171 0)
(-0.0449013 0.0650324 0)
(-0.0619148 0.0735945 0)
(-0.0777747 0.0770411 0)
(-0.0918778 0.0753739 0)