/*--------------------------------*- C++ -*----------------------------------*\
| =========                 |                                                 |
| \\      /  F ield         | OpenFOAM: The Open Source CFD Toolbox           |
|  \\    /   O peration     | Version:  v2012                                 |
|   \\  /    A nd           | Website:  www.openfoam.com                      |
|    \\/     M anipulation  |                                                 |
\*---------------------------------------------------------------------------*/
FoamFile
{
    version     2.0;
    format      ascii;
    class       volScalarField;
    location    "500";
    object      k;
}
// * * * * * * * * * * * * * * * * * * * * * * * * * * * * * * * * * * * * * //

dimensions      [0 2 -2 0 0 0 0];


internalField   nonuniform List<scalar> 
6556
(
2.069
2.6165
2.71882
2.74622
2.75954
2.75954
2.74622
2.71882
2.6165
2.069
1.13512
1.83212
2.02787
2.09186
2.11266
2.11266
2.09186
2.02787
1.83212
1.13512
0.714088
1.33883
1.5595
1.64442
1.67347
1.67347
1.64442
1.5595
1.33883
0.714088
0.494285
1.01876
1.23237
1.32493
1.35939
1.35939
1.32493
1.23237
1.01876
0.494285
0.366019
0.802177
0.997188
1.08922
1.12592
1.12592
1.08922
0.997189
0.802178
0.366019
0.284535
0.649556
0.823414
0.910653
0.947233
0.947234
0.910653
0.823415
0.649557
0.284535
0.22927
0.538057
0.691734
0.772313
0.807333
0.807333
0.772314
0.691736
0.538059
0.22927
0.189825
0.454033
0.589667
0.663063
0.695781
0.695782
0.663065
0.589669
0.454035
0.189826
0.160513
0.389016
0.508954
0.575337
0.605466
0.605467
0.57534
0.508957
0.389019
0.160514
0.138014
0.337563
0.443995
0.503861
0.531379
0.531381
0.503864
0.443999
0.337567
0.138016
0.120285
0.296057
0.390906
0.444872
0.469903
0.469905
0.444877
0.390911
0.296064
0.120287
0.106008
0.262023
0.346929
0.395633
0.418367
0.418369
0.395639
0.346937
0.262032
0.106011
0.0943013
0.233719
0.310067
0.354113
0.374765
0.374768
0.354121
0.310078
0.233731
0.0943053
0.0845558
0.209891
0.278846
0.318783
0.337568
0.337572
0.318794
0.278861
0.209908
0.0845612
0.0763369
0.189617
0.252155
0.288473
0.305593
0.305599
0.288488
0.252176
0.18964
0.0763442
0.0693278
0.172205
0.229149
0.262277
0.277917
0.277925
0.262298
0.229177
0.172235
0.0693376
0.0632921
0.157126
0.209171
0.239483
0.253809
0.25382
0.239512
0.209209
0.157165
0.063305
0.0580503
0.143969
0.191705
0.219525
0.232684
0.232699
0.219566
0.191756
0.144018
0.0580666
0.0534634
0.132414
0.176341
0.201952
0.214073
0.214094
0.202008
0.176411
0.132471
0.0534831
0.0494222
0.122201
0.16275
0.186396
0.197594
0.197623
0.186473
0.16284
0.12223
0.0494433
0.0458397
0.113124
0.150663
0.172556
0.182932
0.182973
0.172667
0.1508
0.113229
0.0461307
0.0426458
0.105014
0.139861
0.160187
0.169829
0.169885
0.160343
0.140067
0.105228
0.0443003
0.0397832
0.0977312
0.130162
0.149082
0.158068
0.158144
0.149293
0.130457
0.0981721
0.0436662
0.0372048
0.0911609
0.121414
0.13907
0.147469
0.147566
0.139338
0.121775
0.0920114
0.0442392
0.0348716
0.0852074
0.113493
0.130008
0.137879
0.137996
0.130313
0.113916
0.0867669
0.0460599
0.0327509
0.0797899
0.106291
0.121775
0.129171
0.129307
0.122107
0.106871
0.0824407
0.0489333
0.0308152
0.0748401
0.0997184
0.114267
0.121237
0.121403
0.114696
0.100626
0.0788842
0.0525165
0.029041
0.0703
0.0936976
0.107398
0.113986
0.114197
0.107997
0.0951127
0.0760561
0.056448
0.0274083
0.0661192
0.0881627
0.101092
0.107342
0.107617
0.101936
0.0902594
0.0738603
0.0599865
0.0258999
0.062255
0.0830565
0.0952847
0.101237
0.101596
0.0964501
0.0859928
0.0721612
0.0627023
0.0245007
0.0586698
0.0783295
0.0899205
0.0956126
0.0960774
0.0914783
0.0822398
0.0708276
0.0646948
0.0231976
0.0553307
0.0739389
0.0849506
0.0904187
0.0910087
0.0869647
0.0789208
0.0696721
0.0660423
0.0219791
0.0522089
0.0698468
0.0803324
0.08561
0.0863435
0.0828554
0.0759551
0.0685957
0.0668183
0.0208349
0.0492792
0.0660199
0.0760283
0.0811466
0.0820392
0.0791007
0.073273
0.0675296
0.0670858
0.0197561
0.0465192
0.062429
0.0720052
0.0769929
0.0780574
0.0756542
0.0708142
0.0664204
0.0668943
0.0187343
0.0439092
0.0590478
0.0682336
0.0731172
0.0743632
0.0724745
0.0685267
0.0652296
0.0662859
0.0177623
0.0414315
0.0558534
0.0646873
0.0694912
0.0709253
0.0695243
0.0663676
0.0639342
0.0653024
0.0168335
0.0390708
0.0528251
0.0613431
0.0660896
0.0677159
0.0667718
0.0643043
0.0625267
0.0639892
0.0159419
0.0368135
0.0499448
0.0581803
0.0628901
0.0647104
0.0641907
0.062315
0.0610155
0.0624027
0.015082
0.0346474
0.047196
0.0551802
0.0598723
0.0618875
0.0617599
0.0603884
0.0594235
0.0606116
0.014249
0.0325623
0.044564
0.0523257
0.0570178
0.0592281
0.0594632
0.0585222
0.0577856
0.0586962
0.0134385
0.0305492
0.0420348
0.0496001
0.0543086
0.0567145
0.0572875
0.0567202
0.0561435
0.0567434
0.0126465
0.0286004
0.0395951
0.0469868
0.0517266
0.054329
0.0552209
0.0549888
0.0545398
0.0548398
0.0118696
0.0267089
0.0372313
0.0444679
0.0492513
0.0520517
0.0532494
0.053331
0.0530098
0.0530603
0.0111044
0.024868
0.0349291
0.0420231
0.0468592
0.0498583
0.0513536
0.0517419
0.0515732
0.051457
0.010348
0.0230712
0.032673
0.039629
0.0445216
0.0477182
0.0495058
0.0502033
0.0502279
0.050049
0.00959742
0.0213124
0.0304459
0.0372583
0.0422036
0.0455924
0.0476668
0.0486803
0.0489452
0.0488153
0.00884969
0.0195849
0.0282289
0.0348792
0.0398634
0.0434323
0.0457847
0.0471197
0.047669
0.047694
0.00810149
0.0178823
0.0260021
0.0324561
0.0374526
0.0411803
0.0437953
0.0454512
0.0463183
0.0465869
0.00734886
0.016198
0.0237449
0.0299509
0.0349177
0.038771
0.041624
0.0435904
0.0447935
0.0453696
0.0065866
0.0145253
0.0214377
0.0273258
0.0322043
0.0361368
0.0391918
0.0414461
0.0429857
0.0439053
0.00580709
0.0128559
0.019068
0.024553
0.0292674
0.033217
0.0364248
0.0389312
0.0407893
0.0420613
0.0049985
0.0111671
0.0166242
0.0216232
0.0260877
0.0299778
0.033274
0.0359807
0.0381211
0.0397282
0.00412612
0.00956499
0.0141745
0.018581
0.022696
0.0264362
0.0297409
0.032579
0.0349423
0.0368393
0.0031995
0.00818804
0.0119761
0.0156639
0.019281
0.0227378
0.0259354
0.0288018
0.031299
0.033405
0.00223442
0.00693669
0.0101916
0.0132052
0.0162236
0.0192379
0.0221594
0.0248994
0.027388
0.0295777
0.00118818
0.00551172
0.00861665
0.0112652
0.0138125
0.0163614
0.0188929
0.0213422
0.0236436
0.0257409
0.000885798
0.00373651
0.00687152
0.00951861
0.011916
0.0141882
0.0163731
0.0184582
0.0204207
0.0222319
0.000844033
0.00216811
0.00506765
0.00763592
0.0100438
0.012161
0.0140638
0.0157583
0.0172752
0.0186345
0.000950469
0.00169048
0.00260653
0.00389021
0.00533198
0.00644907
0.00735
0.00813554
0.00880896
0.0093773
0.00965293
0.00338362
0.00348783
0.00370828
0.00389102
0.00400469
0.00403968
0.00398916
0.00383625
0.00365536
0.00344595
0.00321027
0.00295442
0.00269141
0.00242891
0.00217151
0.00191766
0.00169623
0.00149529
0.00130646
0.00112427
0.000943581
0.000758049
0.000557638
0.000308014
0.0186407
0.00836995
0.00742859
0.00759273
0.00786165
0.0080526
0.00810416
0.00798875
0.00767458
0.00722822
0.00672474
0.00619314
0.00565585
0.00513497
0.00464393
0.00418788
0.00376352
0.00333874
0.00291695
0.00250191
0.0021008
0.00172393
0.00139077
0.00109086
0.000570292
0.0278045
0.0137118
0.0105374
0.00990932
0.00983748
0.00980481
0.00966705
0.00938411
0.008924
0.0082985
0.0076268
0.006954
0.00630163
0.00568859
0.00512998
0.00463123
0.00418643
0.00377066
0.00336833
0.00296612
0.00255401
0.0021334
0.00172696
0.00134387
0.000683356
0.0378016
0.0205678
0.0142194
0.0123049
0.0115441
0.0110532
0.0105603
0.00999232
0.00931882
0.00853877
0.00773259
0.00697238
0.00626364
0.00561956
0.00505321
0.00456638
0.00414931
0.00377834
0.00343116
0.00308593
0.0027206
0.00232143
0.00189561
0.00145214
0.000727246
0.0476505
0.0294327
0.0192705
0.0152688
0.0134647
0.0123043
0.0113308
0.0103957
0.00946144
0.00853183
0.00761685
0.00676984
0.00601059
0.00534713
0.00478613
0.00432335
0.0039437
0.0036219
0.00333085
0.00304426
0.00273423
0.00237655
0.00196206
0.00148573
0.000729879
0.0551134
0.0386216
0.0254855
0.0189731
0.0158229
0.013817
0.0122396
0.0108712
0.00963345
0.00850869
0.00748826
0.00655873
0.00574243
0.00504985
0.00448499
0.00403819
0.00368951
0.0034105
0.00316809
0.00293194
0.00267109
0.00235554
0.00196454
0.00147648
0.000709402
0.0603426
0.0476003
0.0326084
0.0235608
0.0187448
0.0157128
0.0134453
0.0115678
0.00996924
0.00860651
0.0074393
0.0064335
0.00556539
0.00481996
0.00423063
0.00378018
0.00344678
0.00319811
0.00299322
0.0027967
0.002575
0.00229497
0.00192844
0.00144084
0.000675995
0.0642282
0.0548622
0.0397125
0.0289715
0.0223657
0.0180934
0.014979
0.0125275
0.0105277
0.00888442
0.0075311
0.0064133
0.00548001
0.00469791
0.00406417
0.00358353
0.00324281
0.00300886
0.00282952
0.00266191
0.00246932
0.00221652
0.00187046
0.00138864
0.00063404
0.0671686
0.0607304
0.0464626
0.0347819
0.026555
0.020981
0.0169079
0.0137723
0.0112943
0.0093377
0.00777926
0.00652313
0.00550198
0.0046601
0.00397134
0.00344574
0.00308457
0.00285108
0.00268453
0.00253558
0.00236362
0.00213131
0.00180159
0.00132711
0.000588346
0.0693371
0.0652776
0.0527093
0.0405376
0.0310759
0.0242753
0.0192169
0.0153361
0.0123149
0.00998707
0.00817728
0.00675862
0.00563245
0.00471418
0.0039551
0.00336333
0.00295753
0.0027097
0.00254807
0.00241197
0.00225548
0.00203911
0.00172308
0.00125753
0.000547827
0.0708653
0.0687149
0.0581883
0.046037
0.0357397
0.0278501
0.021832
0.0172063
0.0136296
0.0108772
0.0087646
0.00713577
0.00587634
0.00487072
0.00403138
0.00335112
0.00286815
0.00257867
0.0024121
0.00228453
0.0021412
0.00193901
0.00163586
0.00118032
0.000509264
0.071876
0.0712436
0.0627267
0.0511118
0.0404606
0.0315781
0.02467
0.0193375
0.0152186
0.0120293
0.00959459
0.00769868
0.00626444
0.00515781
0.00423712
0.00345018
0.00284927
0.00247435
0.00227691
0.00214855
0.00201617
0.00182897
0.00154122
0.00109931
0.000471206
0.0724085
0.0729566
0.0662104
0.0556127
0.0447674
0.0352439
0.0276205
0.0216738
0.0170697
0.013489
0.0106925
0.00851567
0.00685562
0.00560939
0.00461224
0.00372078
0.00297012
0.00244702
0.00215976
0.00200716
0.00187941
0.00170917
0.00144468
0.00102704
0.00043402
0.0724703
0.0739179
0.068743
0.0593331
0.0485968
0.0387577
0.0306039
0.0241625
0.0191553
0.015243
0.0121478
0.00967498
0.00773898
0.00628336
0.00517516
0.00422117
0.00333047
0.00260666
0.00213152
0.00188783
0.0017445
0.00159247
0.00136287
0.000990603
0.000401808
0.0720624
0.0741707
0.0703736
0.0621953
0.0519371
0.0420996
0.0335562
0.0267496
0.0214458
0.0172885
0.0139652
0.0112462
0.0090345
0.00729301
0.00596994
0.00493231
0.00399561
0.00311711
0.00240817
0.0019308
0.00168843
0.00153646
0.00135885
0.00106663
0.000512013
0.0711911
0.0737606
0.0711404
0.0641652
0.0547297
0.045013
0.0363827
0.0293752
0.0238972
0.0195952
0.0161421
0.0132725
0.0108524
0.00882623
0.00717305
0.00587339
0.00483861
0.00393579
0.00313477
0.00246393
0.00195524
0.00166651
0.00147251
0.00125196
0.00103959
0.0698799
0.0727418
0.0711366
0.0653496
0.0569352
0.047581
0.0391174
0.0320143
0.0264736
0.0221207
0.0186246
0.0157409
0.0132676
0.0110794
0.00910984
0.00741124
0.00599042
0.00486157
0.00398792
0.00331449
0.00284793
0.00255707
0.00245885
0.00253693
0.00274417
0.0681621
0.0711534
0.070406
0.0657736
0.0584462
0.0498553
0.0416121
0.0346335
0.0290884
0.0248085
0.0214044
0.0186016
0.0162275
0.0141012
0.0120699
0.0100883
0.00821068
0.00654796
0.00517445
0.00416395
0.00352446
0.00322058
0.00317659
0.00327663
0.0035065
0.0660929
0.0690642
0.0690118
0.0654829
0.059297
0.0517156
0.043901
0.0371377
0.0316884
0.0275084
0.0242972
0.0217239
0.0195771
0.0176873
0.0158861
0.0140456
0.0121301
0.010194
0.00837132
0.00681582
0.00566801
0.00498678
0.00472516
0.00473447
0.00493483
0.0637503
0.0665604
0.0670348
0.0645136
0.0594861
0.05297
0.0460206
0.0395073
0.0342337
0.0301528
0.0270718
0.0247473
0.0229194
0.0213892
0.0199872
0.018584
0.0170734
0.015417
0.013643
0.0118511
0.0101966
0.00884739
0.0079268
0.00745143
0.00730524
0.0612332
0.0637516
0.0645746
0.0629338
0.0590349
0.0536221
0.0476036
0.0417769
0.0366593
0.0327252
0.0297643
0.0275557
0.025955
0.0247432
0.0237453
0.0228294
0.0218808
0.0208079
0.0195508
0.0181141
0.0165547
0.0149742
0.0134888
0.0123367
0.01155
0.0586563
0.0607702
0.0617561
0.0608289
0.0579658
0.0536621
0.0486231
0.0435485
0.0389677
0.035191
0.0323251
0.0302582
0.0287624
0.0277207
0.0269755
0.0263932
0.0258725
0.0253168
0.0246311
0.0237582
0.0226867
0.0214365
0.0200453
0.0186666
0.0174596
0.0561419
0.0577671
0.0587325
0.058318
0.0563446
0.0530852
0.0490505
0.0447968
0.0408082
0.0374114
0.0347347
0.0327542
0.0313767
0.030452
0.0298337
0.0294394
0.02916
0.0289099
0.0285991
0.0281503
0.0275225
0.0267041
0.0257055
0.0245489
0.0233884
0.053806
0.0549006
0.0556828
0.0555606
0.0542786
0.0519334
0.0488527
0.045453
0.0421298
0.0391872
0.0367957
0.0349957
0.0337432
0.0329317
0.0324337
0.0321347
0.0319868
0.0319172
0.0318413
0.0316882
0.0314004
0.0309502
0.030332
0.0295505
0.028641
0.0517417
0.0523175
0.0527975
0.052754
0.0519303
0.0503085
0.0480644
0.0454778
0.0428479
0.0404311
0.0384027
0.0368427
0.0357488
0.035055
0.0346639
0.0344823
0.0344385
0.0344842
0.034581
0.0346515
0.0346354
0.0344951
0.0342135
0.0337842
0.0332114
0.0500025
0.0501289
0.0502527
0.0501148
0.0495138
0.0483831
0.0467929
0.0449078
0.0429322
0.0410599
0.0394432
0.0381756
0.0372832
0.0367304
0.0364478
0.0363572
0.0364261
0.0366106
0.0368462
0.0370876
0.037292
0.0374142
0.0374262
0.0373246
0.0370956
0.0485884
0.0483858
0.0481752
0.0478418
0.0472678
0.0463923
0.0452327
0.0438734
0.0424368
0.0410546
0.0398434
0.0388865
0.0382201
0.0378304
0.0376651
0.0376697
0.03783
0.0381143
0.0384799
0.0388797
0.0392671
0.0396099
0.039883
0.0400674
0.0401478
0.0474409
0.047063
0.0466094
0.0460682
0.0454038
0.0445931
0.0436442
0.0425997
0.041529
0.0405131
0.0396303
0.0389424
0.0384832
0.03825
0.0382019
0.0382934
0.0385191
0.0388624
0.0392987
0.0397973
0.0403239
0.0408452
0.0413287
0.0417529
0.0421013
0.0464475
0.046057
0.0454985
0.0448191
0.0440443
0.0431929
0.042289
0.041368
0.0404753
0.0396611
0.0389741
0.0384548
0.0381282
0.0379961
0.038035
0.0381814
0.038439
0.0387972
0.039243
0.0397598
0.0403269
0.0409215
0.0415198
0.0420996
0.0426384
0.0454561
0.0452001
0.0446901
0.0439959
0.0431744
0.0422749
0.041344
0.0404266
0.039565
0.0387989
0.0381625
0.0376824
0.0373755
0.0372453
0.0372789
0.0374379
0.037676
0.0379972
0.0383928
0.0388531
0.0393674
0.039923
0.0405056
0.0410999
0.0416883
0.0442946
0.0442883
0.0439645
0.043392
0.0426364
0.0417612
0.0408266
0.0398881
0.0389943
0.0381863
0.0374964
0.0369481
0.0365554
0.036323
0.036247
0.0363098
0.0364817
0.0367174
0.0370095
0.0373561
0.0377507
0.0381851
0.0386516
0.0391417
0.0396439
0.0427947
0.0431114
0.0430737
0.0427398
0.0421704
0.0414283
0.0405758
0.0396722
0.0387711
0.0379177
0.0371482
0.0364892
0.0359577
0.0355622
0.035304
0.0351777
0.0351712
0.0352617
0.0354285
0.0356371
0.0358787
0.0361514
0.0364525
0.0367782
0.0371206
0.0408106
0.0414794
0.0417821
0.0417637
0.0414739
0.0409664
0.0402976
0.0395233
0.0386963
0.0378631
0.037063
0.0363265
0.0356756
0.0351244
0.0346801
0.0343441
0.0341137
0.033981
0.0339349
0.033958
0.0340369
0.0341593
0.0343069
0.0344679
0.0346406
0.0382397
0.0392484
0.0398997
0.0402255
0.0402634
0.0400558
0.0396491
0.0390914
0.0384298
0.0377081
0.0369651
0.0362331
0.0355375
0.034897
0.0343242
0.0338264
0.033407
0.0330656
0.0327992
0.0326015
0.0324654
0.0323824
0.0323414
0.0323323
0.032348
0.0350581
0.0363562
0.0373209
0.0379722
0.0383362
0.0384446
0.0383334
0.0380414
0.0376082
0.037072
0.0364683
0.0358281
0.0351775
0.0345376
0.0339244
0.0333493
0.0328202
0.0323416
0.0319155
0.0315418
0.0312188
0.030943
0.0307101
0.030515
0.0303535
0.0313766
0.0328711
0.0340695
0.0349808
0.0356207
0.0360104
0.0361764
0.0361487
0.0359593
0.0356398
0.0352207
0.0347299
0.0341919
0.0336278
0.0330547
0.0324862
0.0319328
0.031402
0.0308992
0.0304275
0.0299889
0.0295836
0.0292111
0.0288703
0.0285606
0.0275244
0.0290655
0.0303594
0.0314041
0.032207
0.0327823
0.0331476
0.0333248
0.0333379
0.0332121
0.0329717
0.0326404
0.0322395
0.0317882
0.0313029
0.0307974
0.0302829
0.0297685
0.0292611
0.0287659
0.0282865
0.0278256
0.0273847
0.0269649
0.026568
0.0238008
0.0251929
0.0264014
0.0274196
0.0282338
0.0288471
0.029277
0.0295405
0.0296559
0.0296421
0.0295181
0.0293022
0.0290118
0.0286626
0.0282686
0.0278422
0.0273937
0.0269317
0.0264635
0.0259946
0.0255295
0.0250716
0.0246234
0.024187
0.0237653
0.0197899
0.0208054
0.0216754
0.0223932
0.0229678
0.0234038
0.023711
0.0239002
0.0239831
0.0239716
0.0238777
0.0237134
0.0234898
0.0232176
0.0229065
0.022565
0.0222007
0.0218202
0.0214289
0.0210314
0.0206316
0.0202326
0.0198368
0.0194464
0.019064
0.00984382
0.0102545
0.0106118
0.0109094
0.0111522
0.0113436
0.0114867
0.0115845
0.0116406
0.0116585
0.0116419
0.0115946
0.0115202
0.0114224
0.0113046
0.0111701
0.011022
0.010863
0.0106956
0.010522
0.0103442
0.0101639
0.0099826
0.00980145
0.00962158
0.000477416
0.000509091
0.00182263
0.00225978
0.00256849
0.00258981
0.00301837
0.0031092
0.00346377
0.00379711
0.00415636
0.00470166
0.00523821
0.00561093
0.00607456
0.00738867
0.00757755
0.00783001
0.0110867
0.010856
0.0107585
0.0165067
0.0158132
0.0152917
0.0223427
0.0214627
0.0206968
0.0277451
0.0269136
0.0261125
0.0325619
0.0319019
0.0312048
0.0367626
0.0363518
0.0358652
0.04012
0.0400053
0.0398003
0.0423456
0.0425035
0.0425819
0.0430844
0.043468
0.0438001
0.0422112
0.0427055
0.0431746
0.0401057
0.0405627
0.0410203
0.0374422
0.0377695
0.0381066
0.034806
0.0349782
0.03516
0.03238
0.0324256
0.0324832
0.0302329
0.0301331
0.0300499
0.0283067
0.0280749
0.0278601
0.0262311
0.0259127
0.0256077
0.0234013
0.0230506
0.022709
0.0187317
0.0184076
0.0180896
0.00946512
0.00931123
0.00915988
0.000113997
0.000238583
0.000382948
0.000507636
0.00061995
0.000720818
0.000814094
0.000901421
0.000983916
0.00106232
0.00113714
0.00120879
0.00127757
0.00134376
0.0014076
0.00146933
0.00152916
0.00158729
0.00164392
0.00169927
0.00175351
0.00180686
0.00185952
0.00191168
0.00196356
0.00201538
0.00206735
0.0021197
0.00217269
0.00222655
0.00228156
0.00233803
0.00239627
0.00245666
0.00251959
0.00258555
0.00265508
0.00272886
0.00280768
0.00289254
0.00298416
0.00308015
0.00318062
0.00328571
0.00339556
0.00351046
0.00363068
0.00375645
0.00388795
0.00402531
0.00416861
0.00431783
0.00447283
0.00463328
0.00479866
0.00496809
0.00514028
0.00531334
0.00548455
0.0056501
0.00580473
0.00594122
0.00604996
0.00611904
0.00613722
0.00609628
0.00599624
0.00583691
0.00561534
0.00532021
0.00495338
0.00450585
0.00399587
0.00345382
0.00291254
0.0024445
0.00201724
0.00161111
0.0012012
0.00071916
0.000389061
0.00074354
0.000950967
0.00113689
0.00133954
0.00155542
0.00177303
0.00199103
0.00220704
0.00241916
0.00262589
0.00282622
0.00301959
0.0032058
0.00338488
0.00355702
0.00372251
0.00388172
0.00403504
0.00418291
0.00432577
0.00446409
0.00459833
0.004729
0.00485658
0.00498158
0.00510452
0.00522593
0.00534634
0.00546632
0.00558641
0.00570719
0.00582925
0.00595319
0.00607961
0.00620914
0.00634241
0.00648008
0.00662268
0.00677091
0.00692605
0.00709151
0.00726527
0.00744736
0.00763823
0.00783844
0.00804857
0.00826918
0.00850076
0.00874377
0.00899852
0.00926517
0.00954364
0.00983354
0.010134
0.0104435
0.0107598
0.0110793
0.0113969
0.0117053
0.0119944
0.0122501
0.012454
0.0125854
0.0126253
0.0125701
0.0123852
0.01205
0.0115486
0.0108213
0.00995862
0.00896046
0.00789745
0.00682024
0.00573794
0.004649
0.0036284
0.00274403
0.00201588
0.00104601
0.000581901
0.00112212
0.00137967
0.00164244
0.00194869
0.00227904
0.00261618
0.00295154
0.00327871
0.00359398
0.00389551
0.00418282
0.00445622
0.00471643
0.00496431
0.00520072
0.0054265
0.00564237
0.00584903
0.00604707
0.00623708
0.00641959
0.00659515
0.00676428
0.00692751
0.00708537
0.00723842
0.00738721
0.00753235
0.00767443
0.00781408
0.00795197
0.00808876
0.00822517
0.00836192
0.00849978
0.00863954
0.008782
0.00892796
0.0090782
0.00923355
0.00939562
0.00956701
0.00974671
0.009935
0.0101325
0.0103398
0.0105578
0.010787
0.011028
0.0112813
0.0115469
0.0118249
0.0121147
0.012415
0.0127241
0.0130389
0.0133553
0.0136673
0.013967
0.014244
0.0144846
0.0146716
0.014784
0.0147935
0.0146867
0.0144415
0.0140351
0.0134446
0.0126534
0.0116577
0.0104404
0.00915149
0.0078374
0.00658009
0.00537448
0.00424029
0.00319805
0.0022834
0.0011303
0.000713481
0.00141588
0.00174878
0.00209637
0.00249597
0.00292042
0.003348
0.00376553
0.00416584
0.00454604
0.00490582
0.00524628
0.00556911
0.00587603
0.0061686
0.00644812
0.00671561
0.00697189
0.00721759
0.00745324
0.00767929
0.00789613
0.00810416
0.00830375
0.00849531
0.00867924
0.00885598
0.00902599
0.00918979
0.00934789
0.00950086
0.00964932
0.00979392
0.00993534
0.0100743
0.0102116
0.0103481
0.0104845
0.0106218
0.0107609
0.0109027
0.0110482
0.0111999
0.011359
0.0115252
0.0116989
0.0118808
0.0120716
0.012272
0.0124824
0.0127033
0.0129348
0.0131764
0.0134274
0.0136865
0.0139513
0.0142186
0.014484
0.0147415
0.0149833
0.0151999
0.0153797
0.0155087
0.0155699
0.0155392
0.0153953
0.015124
0.0147075
0.0141256
0.0133622
0.0124092
0.0112412
0.00989241
0.00840427
0.00699056
0.00568146
0.00449594
0.00338932
0.00235358
0.00110983
0.000810139
0.00164093
0.00207005
0.00250515
0.00298574
0.00348292
0.00397297
0.00444313
0.00488815
0.00530751
0.00570308
0.00607762
0.00643392
0.00677437
0.00710084
0.00741467
0.0077168
0.00800785
0.00828819
0.0085581
0.00881773
0.00906723
0.00930674
0.0095364
0.00975641
0.00996697
0.0101683
0.0103609
0.0105448
0.0107207
0.0108889
0.0110499
0.0112044
0.0113528
0.0114959
0.0116344
0.0117691
0.0119009
0.0120307
0.0121593
0.0122879
0.0124174
0.012549
0.0126861
0.0128285
0.0129763
0.0131304
0.0132912
0.0134596
0.013636
0.0138206
0.0140135
0.0142143
0.0144221
0.0146352
0.0148514
0.0150673
0.0152783
0.0154787
0.015661
0.0158165
0.0159344
0.0160023
0.016006
0.0159301
0.0157606
0.0154849
0.0150911
0.0145618
0.0138836
0.0130264
0.0119619
0.0106793
0.00920626
0.00764495
0.00611035
0.00475814
0.00353712
0.00236973
0.00104405
0.000881512
0.00182513
0.00235596
0.00287314
0.00341972
0.00396831
0.00449747
0.00499767
0.00546723
0.00590856
0.00632565
0.0067226
0.00710294
0.00746935
0.00782367
0.00816708
0.00850021
0.00882331
0.00913641
0.00943938
0.00973205
0.0100142
0.0102858
0.0105465
0.0107964
0.0110355
0.0112638
0.0114814
0.0116886
0.0118856
0.0120726
0.0122501
0.0124184
0.0125782
0.01273
0.0128744
0.0130122
0.0131443
0.0132714
0.0133947
0.0135152
0.0136339
0.0137522
0.0138716
0.0139949
0.0141221
0.0142537
0.0143904
0.0145329
0.0146819
0.0148378
0.0150007
0.0151702
0.0153456
0.0155254
0.0157072
0.0158878
0.0160628
0.0162265
0.0163717
0.0164897
0.0165701
0.0166008
0.0165687
0.0164602
0.0162645
0.0159742
0.0155855
0.0150946
0.0144935
0.0137604
0.0128523
0.0117136
0.0103001
0.00864327
0.00689337
0.00525823
0.00380398
0.00242486
0.000961042
0.000938977
0.00198573
0.00261388
0.00320239
0.00379845
0.00437922
0.00492857
0.00544199
0.00592186
0.00637342
0.00680247
0.00721407
0.00761214
0.00799938
0.00837743
0.00874711
0.00910862
0.00946178
0.00980617
0.0101413
0.0104665
0.0107813
0.0110853
0.0113779
0.0116589
0.0119281
0.0121852
0.0124303
0.0126634
0.0128845
0.0130937
0.0132914
0.0134779
0.0136534
0.0138186
0.013974
0.0141202
0.0142581
0.0143885
0.0145125
0.0146311
0.0147456
0.0148571
0.0149669
0.0150786
0.0151925
0.0153096
0.0154306
0.0155567
0.0156885
0.0158268
0.015972
0.0161242
0.0162828
0.0164467
0.0166139
0.0167814
0.0169452
0.0170995
0.0172374
0.0173499
0.0174264
0.0174544
0.0174203
0.0173099
0.0171107
0.0168145
0.0164195
0.0159299
0.0153521
0.0146863
0.0139071
0.0129448
0.011682
0.0100281
0.00804836
0.00600526
0.0042091
0.0025508
0.000911796
0.000990978
0.00213392
0.00284969
0.00349609
0.00412522
0.00472145
0.00527595
0.0057899
0.00626967
0.00672303
0.00715717
0.00757778
0.00798889
0.00839303
0.00879146
0.00918455
0.00957204
0.00995324
0.0103273
0.0106932
0.01105
0.0113969
0.011733
0.0120575
0.0123701
0.0126701
0.0129573
0.0132313
0.0134921
0.0137396
0.0139738
0.0141947
0.0144025
0.0145976
0.0147803
0.0149511
0.0151105
0.0152593
0.0153984
0.0155288
0.0156517
0.0157682
0.0158799
0.015988
0.0160946
0.0162026
0.0163129
0.0164265
0.0165447
0.0166687
0.0167996
0.0169383
0.0170852
0.0172404
0.0174034
0.0175726
0.0177457
0.0179191
0.0180875
0.0182441
0.0183801
0.0184843
0.0185437
0.0185431
0.018466
0.0182959
0.0180186
0.0176252
0.0171201
0.0165155
0.015834
0.0150869
0.0142422
0.0131775
0.0116886
0.00962311
0.00712876
0.00479809
0.00275496
0.000892745
0.00104358
0.00227928
0.00307072
0.00376034
0.0044068
0.00500393
0.00555128
0.0060558
0.00652751
0.0069763
0.00741031
0.00783557
0.00825598
0.00867369
0.00908952
0.00950331
0.00991427
0.0103212
0.0107229
0.0111178
0.0115046
0.0118822
0.0122493
0.0126051
0.0129487
0.0132795
0.0135969
0.0139005
0.01419
0.0144652
0.0147259
0.0149721
0.0152039
0.0154213
0.0156248
0.0158145
0.0159911
0.0161551
0.0163075
0.0164492
0.0165814
0.0167054
0.0168228
0.016935
0.0170436
0.0171523
0.0172623
0.0173753
0.0174926
0.0176161
0.0177472
0.0178872
0.0180374
0.0181983
0.01837
0.0185519
0.0187424
0.0189385
0.0191358
0.0193282
0.0195071
0.019662
0.0197792
0.0198425
0.0198333
0.019731
0.0195161
0.0191618
0.0186674
0.0180333
0.0172846
0.0164605
0.0155919
0.0146335
0.0133931
0.0115109
0.00883892
0.00577396
0.00314627
0.000915636
0.00110246
0.00243282
0.0032873
0.00400472
0.00465317
0.00523808
0.00576776
0.00625467
0.00671202
0.00715125
0.00758108
0.00800748
0.00843403
0.00886236
0.00929273
0.00972443
0.0101561
0.0105862
0.0110129
0.0114344
0.0118491
0.0122553
0.0126517
0.0130372
0.0134106
0.0137712
0.0141182
0.014451
0.0147693
0.0150725
0.0153606
0.0156333
0.0158905
0.0161324
0.0163589
0.0165704
0.0167672
0.0169499
0.0171193
0.0172763
0.0174222
0.0175583
0.0176863
0.0178076
0.0179241
0.0180387
0.0181538
0.0182713
0.0183931
0.0185213
0.0186577
0.0188043
0.0189627
0.0191343
0.0193199
0.0195197
0.0197329
0.0199577
0.0201906
0.0204266
0.0206581
0.0208755
0.0210657
0.0212128
0.0212971
0.0212955
0.0211817
0.0209284
0.020512
0.019909
0.0191264
0.0181897
0.0171609
0.0160977
0.0149472
0.0133956
0.0109282
0.00736672
0.00389993
0.00101428
0.00117725
0.00261073
0.00351369
0.00424263
0.00487784
0.00543799
0.00594049
0.00640282
0.00684062
0.0072663
0.00768866
0.00811328
0.00854313
0.00897925
0.00942125
0.00986787
0.0103173
0.0107674
0.0112161
0.0116613
0.0121009
0.0125331
0.0129564
0.0133693
0.0137706
0.0141594
0.0145346
0.0148957
0.0152419
0.015573
0.0158884
0.016188
0.0164714
0.0167387
0.0169899
0.0172251
0.0174445
0.0176485
0.0178379
0.0180136
0.0181768
0.0183289
0.0184715
0.0186064
0.0187353
0.0188603
0.018985
0.0191114
0.0192417
0.0193783
0.0195236
0.0196799
0.0198493
0.020034
0.0202354
0.0204545
0.0206916
0.0209458
0.021215
0.0214953
0.0217808
0.0220632
0.0223311
0.02257
0.0227613
0.0228823
0.0229054
0.0227987
0.0225269
0.0220533
0.0213482
0.0203903
0.019211
0.0178928
0.0165225
0.0150582
0.0130514
0.00980665
0.00522254
0.00123402
0.00127863
0.00283444
0.0037669
0.00449259
0.00509888
0.0056216
0.0060876
0.00651896
0.00693276
0.00734153
0.00775355
0.00817367
0.00860407
0.00904501
0.00949551
0.00995372
0.0104174
0.0108841
0.0113512
0.0118165
0.0122777
0.0127328
0.0131799
0.0136175
0.0140441
0.0144588
0.0148603
0.015248
0.015621
0.0159788
0.016321
0.016647
0.0169568
0.01725
0.0175266
0.0177866
0.0180302
0.0182576
0.0184695
0.0186665
0.01885
0.0190214
0.0191822
0.0193341
0.019479
0.0196187
0.0197569
0.0198959
0.0200381
0.0201861
0.0203428
0.0205107
0.0206927
0.0208911
0.0211083
0.021346
0.0216054
0.0218867
0.0221891
0.02251
0.0228453
0.0231885
0.0235305
0.0238589
0.0241577
0.0244067
0.0245805
0.0246484
0.0245726
0.0243079
0.0238026
0.0230037
0.0218709
0.0203975
0.0186649
0.0168305
0.0148552
0.0121256
0.00743542
0.00159888
0.00143429
0.00312053
0.00406001
0.00476829
0.00533699
0.00581097
0.00623095
0.0066253
0.00701102
0.00739977
0.00779868
0.00821146
0.00863933
0.00908177
0.00953714
0.0100031
0.0104771
0.0109562
0.0114378
0.0119192
0.0123982
0.0128723
0.0133398
0.0137988
0.0142479
0.0146857
0.0151112
0.0155233
0.0159212
0.0163043
0.016672
0.0170237
0.0173591
0.0176779
0.01798
0.0182653
0.0185339
0.018786
0.019022
0.0192428
0.0194492
0.0196427
0.0198247
0.0199969
0.0201611
0.0203192
0.0204741
0.0206287
0.0207857
0.0209477
0.0211178
0.0212989
0.021494
0.0217063
0.0219384
0.0221928
0.0224716
0.0227759
0.0231062
0.0234614
0.0238391
0.0242347
0.0246414
0.0250497
0.0254467
0.0258158
0.0261359
0.0263806
0.0265168
0.0265025
0.0262845
0.0257956
0.024954
0.0236741
0.0218925
0.0196399
0.0170984
0.0142902
0.0106218
0.00232535
0.00165655
0.0035706
0.00444256
0.00509146
0.00560677
0.00602813
0.00639502
0.00674769
0.00710177
0.00746745
0.00785019
0.00825233
0.00867401
0.00911395
0.00956991
0.0100392
0.0105188
0.0110058
0.0114973
0.0119905
0.0124828
0.012972
0.013456
0.0139329
0.014401
0.014859
0.0153056
0.0157397
0.0161603
0.0165667
0.0169582
0.0173341
0.017694
0.0180375
0.0183643
0.0186745
0.0189681
0.0192453
0.0195067
0.019753
0.0199846
0.0202027
0.0204085
0.0206037
0.0207901
0.0209695
0.021144
0.0213171
0.0214914
0.0216696
0.0218548
0.0220502
0.0222591
0.0224848
0.0227305
0.0229994
0.023294
0.0236167
0.0239687
0.0243505
0.0247612
0.0251983
0.0256573
0.0261314
0.0266108
0.027083
0.0275316
0.0279363
0.0282713
0.0285041
0.0285924
0.0284799
0.0280896
0.0273154
0.0260137
0.0240221
0.021244
0.0177615
0.0138621
0.00930711
0.00226699
0.00410582
0.00490186
0.00546802
0.00591212
0.00627907
0.00660241
0.0069125
0.00723379
0.00757418
0.00793768
0.00832536
0.00873648
0.00916913
0.00962067
0.0100881
0.0105682
0.011058
0.0115543
0.0120543
0.0125555
0.0130554
0.0135517
0.0140426
0.0145261
0.0150009
0.0154655
0.0159187
0.0163595
0.0167868
0.0171999
0.0175979
0.0179804
0.018347
0.0186972
0.0190311
0.0193488
0.0196512
0.0199388
0.0202116
0.0204698
0.0207142
0.0209459
0.0211664
0.0213772
0.0215801
0.021777
0.0219711
0.0221649
0.0223612
0.0225632
0.022774
0.022997
0.0232358
0.0234939
0.0237748
0.0240818
0.0244177
0.0247849
0.025185
0.0256187
0.0260851
0.026582
0.0271049
0.0276473
0.0282001
0.0287514
0.0292866
0.0297873
0.0302309
0.0305891
0.0308255
0.0308911
0.0307178
0.0302049
0.0292032
0.0275016
0.024856
0.0212036
0.0170092
0.00322684
0.00472746
0.00542171
0.00588789
0.00625758
0.0065732
0.00686161
0.00714269