/*--------------------------------*- C++ -*----------------------------------*\
| =========                 |                                                 |
| \\      /  F ield         | OpenFOAM: The Open Source CFD Toolbox           |
|  \\    /   O peration     | Version:  v2012                                 |
|   \\  /    A nd           | Website:  www.openfoam.com                      |
|    \\/     M anipulation  |                                                 |
\*---------------------------------------------------------------------------*/
FoamFile
{
    version     2.0;
    format      ascii;
    class       volScalarField;
    location    "500";
    object      nut;
}
// * * * * * * * * * * * * * * * * * * * * * * * * * * * * * * * * * * * * * //

dimensions      [0 2 -1 0 0 0 0];


internalField   nonuniform List<scalar> 
6556
(
0.00323017
0.0114031
0.0137112
0.0141109
0.0140173
0.0140173
0.0141109
0.0137112
0.0114031
0.00323017
0.00239257
0.00929561
0.0125229
0.01344
0.0135474
0.0135474
0.01344
0.0125229
0.00929561
0.00239257
0.00189767
0.00796432
0.0114549
0.0127483
0.0130661
0.0130661
0.0127483
0.0114549
0.00796432
0.00189767
0.00157882
0.00703335
0.0105419
0.0120737
0.0125625
0.0125625
0.0120737
0.0105419
0.00703336
0.00157882
0.00135861
0.00633769
0.00976858
0.011436
0.0120472
0.0120472
0.011436
0.00976859
0.0063377
0.00135862
0.00119788
0.00579245
0.00910951
0.0108429
0.0115341
0.0115341
0.0108429
0.00910953
0.00579247
0.00119788
0.00107527
0.00534946
0.00854142
0.0102953
0.0110339
0.0110339
0.0102953
0.00854145
0.00534949
0.00107527
0.000978411
0.00497944
0.00804562
0.0097913
0.0105538
0.0105538
0.00979133
0.00804566
0.00497948
0.000978413
0.000899704
0.00466358
0.0076078
0.00932749
0.0100977
0.0100977
0.00932754
0.00760787
0.00466365
0.000899707
0.000834269
0.00438931
0.00721718
0.00890029
0.00966756
0.00966758
0.00890036
0.00721728
0.00438941
0.000834274
0.000778843
0.00414786
0.0068656
0.00850619
0.00926357
0.00926361
0.0085063
0.00686575
0.004148
0.000778849
0.000731161
0.00393294
0.00654682
0.00814193
0.00888514
0.0088852
0.0081421
0.00654705
0.00393315
0.000731171
0.00068961
0.0037399
0.00625598
0.00780459
0.00853109
0.00853119
0.00780484
0.00625632
0.0037402
0.000689624
0.000653005
0.00356519
0.00598925
0.00749152
0.0082
0.00820015
0.0074919
0.00598976
0.00356564
0.000653025
0.000620457
0.00340607
0.00574355
0.0072004
0.00789029
0.00789052
0.00720096
0.00574429
0.00340674
0.000620487
0.000591287
0.00326037
0.00551632
0.00692914
0.00760041
0.00760074
0.00692996
0.0055174
0.00326131
0.000591328
0.000564962
0.00312628
0.00530544
0.00667587
0.0073288
0.00732928
0.0066771
0.00530699
0.00312757
0.00056502
0.000541062
0.00300235
0.00510911
0.00643891
0.00707402
0.0070747
0.00644072
0.00511125
0.00300394
0.000541138
0.000519245
0.00288731
0.00492575
0.00621675
0.00683469
0.00683567
0.00621937
0.0049288
0.00288913
0.000519341
0.000499235
0.00278008
0.00475395
0.00600799
0.00660953
0.00661096
0.00601182
0.00475811
0.00278043
0.000499342
0.000480801
0.00267969
0.00459247
0.00581136
0.00639733
0.00639954
0.00581782
0.00460399
0.00271061
0.000554368
0.000463749
0.00258531
0.00444017
0.00562567
0.00619701
0.0062005
0.00563682
0.00446489
0.00265635
0.000628181
0.000447913
0.00249619
0.00429604
0.00544988
0.00600754
0.00601295
0.00546809
0.00433962
0.00262017
0.000720549
0.000433155
0.0024117
0.00415919
0.00528301
0.005828
0.00583592
0.00531029
0.00422485
0.00261574
0.00083791
0.000419353
0.00233128
0.00402881
0.00512418
0.00565746
0.00566819
0.0051608
0.00412536
0.00263969
0.000986793
0.000406402
0.0022544
0.00390417
0.00497258
0.00549513
0.00550921
0.00501883
0.00404435
0.00267943
0.00116714
0.000394209
0.00218061
0.00378457
0.00482748
0.00534037
0.00535904
0.0048903
0.00397347
0.00272264
0.0013738
0.000382693
0.00210947
0.00366939
0.00468818
0.00519261
0.00521746
0.00477376
0.00391406
0.00276836
0.00159834
0.00037178
0.00204053
0.003558
0.00455404
0.00505132
0.00508405
0.00466805
0.00386524
0.00282002
0.00182513
0.000361404
0.00197343
0.0034498
0.00442444
0.00491596
0.00495835
0.00457222
0.00382634
0.00287898
0.00204241
0.000351507
0.00190782
0.00334423
0.00429877
0.00478599
0.00483982
0.00448542
0.00379678
0.00294498
0.00224779
0.000342031
0.00184331
0.00324074
0.00417643
0.00466084
0.00472788
0.00440687
0.00377578
0.00301534
0.00243933
0.000332927
0.00177956
0.00313878
0.00405683
0.00453994
0.00462191
0.00433573
0.00376225
0.00308825
0.00261576
0.000324146
0.00171624
0.00303778
0.00393934
0.00442265
0.00452122
0.00427118
0.00375509
0.00316192
0.00277634
0.000315642
0.00165305
0.00293718
0.00382329
0.00430829
0.00442509
0.00421228
0.00375305
0.00323455
0.00292062
0.000307371
0.00158967
0.00283642
0.00370798
0.00419612
0.00433268
0.00415804
0.00375479
0.00330442
0.0030484
0.000299292
0.00152586
0.0027349
0.00359268
0.00408531
0.00424309
0.00410735
0.0037589
0.00337008
0.00315979
0.000291362
0.0014614
0.0026321
0.00347662
0.00397497
0.0041553
0.00405904
0.00376393
0.00343038
0.0032552
0.00028354
0.00139614
0.00252749
0.00335901
0.00386415
0.00406821
0.00401179
0.00376846
0.00348449
0.00333556
0.000275787
0.00132998
0.00242063
0.00323904
0.0037518
0.00398058
0.00396422
0.00377109
0.00353193
0.00340228
0.000268063
0.00126291
0.00231115
0.00311593
0.00363679
0.00389106
0.00391481
0.00377043
0.00357246
0.00345724
0.000260328
0.00119504
0.00219878
0.00298889
0.00351793
0.00379812
0.00386191
0.00376505
0.00360595
0.00350258
0.00025254
0.00112654
0.00208341
0.00285719
0.00339392
0.00370007
0.00380366
0.00375337
0.00363214
0.00354041
0.00024466
0.00105764
0.00196501
0.00272014
0.00326339
0.00359503
0.00373792
0.0037335
0.0036503
0.00357227
0.000236642
0.000988586
0.00184368
0.00257712
0.0031249
0.00348085
0.0036622
0.00370308
0.00365898
0.00359858
0.00022844
0.000919653
0.00171963
0.0024276
0.00297693
0.00335518
0.00357357
0.00365907
0.00365561
0.00361808
0.00022
0.000851077
0.00159311
0.00227114
0.00281797
0.00321543
0.00346865
0.0035977
0.00363636
0.00362743
0.000211256
0.000783055
0.00146444
0.00210745
0.00264661
0.00305893
0.00334373
0.00351446
0.00359612
0.00362107
0.000202128
0.000715734
0.00133397
0.00193644
0.00246163
0.00288315
0.00319493
0.00340435
0.00352872
0.00359155
0.000192511
0.000649212
0.00120212
0.00175829
0.00226235
0.002686
0.00301871
0.00326233
0.00342748
0.00353017
0.000182253
0.000583557
0.00106948
0.00157377
0.00204891
0.00246648
0.00281257
0.00308419
0.00328616
0.00342816
0.000171129
0.000518811
0.000937065
0.00138458
0.00182301
0.00222554
0.00257609
0.00286771
0.00310028
0.00327812
0.000158768
0.00045498
0.000806603
0.0011942
0.00158905
0.00196743
0.00231248
0.00261431
0.00286875
0.00307508
0.000108646
0.000397228
0.000683336
0.00100924
0.00135513
0.0017009
0.00202994
0.00233037
0.00259393
0.00281678
0.000108654
0.000352814
0.00058028
0.00084424
0.00113622
0.00144089
0.00174241
0.00202637
0.00228447
0.00251224
0.000106152
0.000321545
0.000509551
0.000718511
0.000954867
0.00120998
0.00146928
0.00172258
0.00196185
0.00218122
7.74081e-05
0.000309339
0.000471899
0.000641427
0.000828719
0.00102964
0.00123972
0.00145192
0.00165909
0.00185508
6.68362e-05
0.000293746
0.000456778
0.000602172
0.00073267
0.00085859
0.000994871
0.00113959
0.00128588
0.0014292
6.52415e-05
0.000222519
0.000428892
0.00055662
0.000676109
0.000706802
0.000767676
0.000860198
0.000966396
0.00107523
6.92331e-05
0.000115414
0.000143313
0.000175082
0.000204974
0.000225425
0.000240657
0.000253191
0.000263461
0.000271827
0.00014325
0.000163285
0.00016578
0.000170939
0.0001751
0.000177639
0.000178413
0.000177294
0.000173863
0.000169715
0.000164782
0.000159047
0.000152577
0.000145628
0.000138344
0.000130808
0.000122925
0.00011561
0.000108547
0.000101462
9.41215e-05
8.62271e-05
7.72863e-05
6.62872e-05
4.25471e-05
0.000255989
0.000531429
0.00080228
0.000949029
0.0010277
0.00107467
0.001099
0.00110333
0.00108652
0.00105534
0.00101615
0.000969139
0.000915097
0.000856893
0.000796391
0.000734256
0.000668151
0.000577746
0.000480474
0.000387826
0.000306421
0.000239403
0.000188293
0.000147961
5.09467e-05
0.000403242
0.000666504
0.00103725
0.00133836
0.00151562
0.00161808
0.00167289
0.00169246
0.00155881
0.00149371
0.00152713
0.00152752
0.00145456
0.00137579
0.00129289
0.00120544
0.00110886
0.000985336
0.000838814
0.000682081
0.000530353
0.000397395
0.000291872
0.000206679
5.50157e-05
0.00066548
0.000699135
0.00105851
0.00140036
0.0016486
0.00178704
0.00185792
0.0018838
0.001774
0.00168533
0.00168689
0.00171418
0.00164262
0.00156951
0.00149552
0.00141773
0.00132898
0.00121345
0.00106634
0.000893284
0.000708324
0.000531284
0.000379542
0.000248278
5.75318e-05
0.00101386
0.000876926
0.00119686
0.00141875
0.00166301
0.00182335
0.00189842
0.00192063
0.00190486
0.00186043
0.00179607
0.00172205
0.00164881
0.00158268
0.00152358
0.00146569
0.00139845
0.00130569
0.00117777
0.00101423
0.000824429
0.000627726
0.000445391
0.00027534
5.76359e-05
0.00127984
0.00119784
0.00139078
0.00152366
0.00168755
0.00182824
0.00190181
0.00191661
0.00188928
0.00183188
0.00175423
0.00166714
0.00158493
0.00151913
0.00147086
0.00143186
0.00138716
0.0013186
0.00121341
0.00106765
0.00088677
0.000686848
0.000488199
0.000289908
5.68216e-05
0.00150024
0.00160248
0.00162075
0.00167891
0.00178229
0.00186402
0.00190855
0.00191211
0.00187242
0.00180058
0.00170721
0.00160424
0.00150753
0.00143317
0.00138816
0.00136334
0.00133813
0.00129018
0.00120455
0.00107648
0.000909176
0.000714924
0.000510372
0.000294501
5.54676e-05
0.0017141
0.00185273
0.00186495
0.00187984
0.00192573
0.00196309
0.00196674
0.00193448
0.00187103
0.00178307
0.00167314
0.0015522
0.00143816
0.00134969
0.00129839
0.00128012
0.00127007
0.00123867
0.00116829
0.0010557
0.000903019
0.000718978
0.000515608
0.000291444
5.37188e-05
0.00192298
0.00208161
0.00211294
0.00210865
0.0021053
0.00210109
0.00207031
0.0020072
0.00191338
0.00179546
0.00166096
0.00151882
0.00138422
0.00127705
0.00121097
0.00118862
0.00118459
0.00116514
0.00110833
0.00101112
0.000874599
0.000704154
0.000507084
0.000281857
5.17469e-05
0.00212583
0.00229972
0.00235543
0.00234434
0.00230843
0.0022687
0.0022067
0.00211518
0.001993
0.00184589
0.00167998
0.00150927
0.0013493
0.00121895
0.00113071
0.00109189
0.0010863
0.00107407
0.00102817
0.000945503
0.000825772
0.000670946
0.000483824
0.000263873
4.99332e-05
0.00232155
0.00250774
0.0025883
0.00258176
0.00252678
0.00245782
0.00236845
0.00225276
0.002106
0.00192927
0.00173037
0.00152573
0.00133511
0.00117705
0.00106267
0.000996334
0.000977138
0.000967283
0.000932633
0.000863845
0.000760734
0.000622572
0.000448866
0.000241299
4.81437e-05
0.00250908
0.00270442
0.00280863
0.00281662
0.00275824
0.00266146
0.00254919
0.00241449
0.00224804
0.00204476
0.00181458
0.00157236
0.00134572
0.00115669
0.00101341
0.000914888
0.000866719
0.000851935
0.000826719
0.000770259
0.000683152
0.000562751
0.000406535
0.000217872
4.63099e-05
0.00268599
0.00288725
0.00301305
0.00303813
0.00297964
0.00286924
0.00274229
0.00259548
0.00241668
0.00219512
0.00193459
0.00165683
0.00139077
0.00116667
0.000993064
0.00082761
0.000773607
0.000734919
0.00071537
0.000669517
0.000597717
0.000495086
0.000362685
0.000198305
4.4445e-05
0.00284954
0.00305425
0.00319859
0.00324083
0.00318916
0.00307665
0.00294226
0.00279078
0.00260828
0.00237833
0.00209937
0.00179051
0.00148411
0.00121925
0.00101109
0.000788226
0.000660642
0.000639917
0.000600656
0.000567911
0.00051083
0.000422914
0.000308945
0.000186695
4.2764e-05
0.0029971
0.00319658
0.00336139
0.0034216
0.00338454
0.00328194
0.00314396
0.00299515
0.00281895
0.00259309
0.00230976
0.00198294
0.00164281
0.00133377
0.00108105
0.000883685
0.000615893
0.000503265
0.00049501
0.000478364
0.000433272
0.00035884
0.000239916
0.000147482
5.78269e-05
0.00312658
0.00331893
0.00347762
0.00357683
0.00355834
0.00346713
0.00333984
0.0032024
0.00304301
0.00283495
0.00256498
0.00224001
0.00188279
0.00153746
0.00123302
0.000983066
0.000785287
0.000517193
0.000389859
0.000336741
0.000332041
0.000292227
0.000246633
0.000196681
0.000126274
0.00323693
0.00343393
0.00359994
0.00370516
0.00370667
0.00363411
0.00352857
0.00340702
0.00327368
0.00298608
0.00274147
0.00255933
0.00221376
0.00185602
0.00151151
0.00120164
0.000937901
0.000727152
0.000559133
0.000394982
0.000321967
0.000290743
0.000279356
0.000256133
0.000202466
0.0033276
0.00351529
0.00369437
0.00380405
0.00382749
0.00377812
0.00369436
0.0036018
0.00350043
0.00325102
0.00295736
0.0027282
0.00255299
0.00229213
0.00194626
0.00160258
0.00127726
0.000988831
0.000752253
0.000577861
0.000464698
0.000402912
0.000378123
0.000371375
0.00038001
0.00339911
0.00357329
0.00375122
0.00387197
0.00391807
0.00389568
0.00383552
0.00377257
0.00370975
0.00363272
0.00339786
0.00313995
0.00291694
0.00271191
0.00250261
0.00218327
0.00184907
0.00152082
0.00121864
0.000964096
0.000774901
0.000656567
0.000600322
0.000583824
0.00059031
0.00345313
0.00360944
0.00378137
0.00391029
0.00397612
0.00398132
0.00394707
0.00390945
0.00388332
0.00385609
0.00381227
0.00372809
0.00351509
0.00328998
0.00305106
0.00278098
0.00248166
0.00216668
0.00185236
0.00155222
0.00128452
0.00104768
0.000854233
0.0007366
0.000669292
0.00349233
0.00362656
0.00378716
0.00391968
0.00400083
0.00403178
0.00402641
0.00401005
0.00400988
0.00402386
0.00403894
0.00403299
0.00398212
0.00388034
0.00373887
0.00356799
0.00327909
0.00293606
0.00256996
0.00221648
0.00190214
0.0016313
0.00140491
0.00124742
0.00116871
0.00352029
0.00362887
0.00377258
0.00390305
0.00399529
0.00404607
0.00406672
0.00407474
0.00409083
0.00412815
0.00418455
0.0042411
0.00427006
0.00425905
0.00421183
0.00413551
0.00403681
0.00385768
0.00352634
0.00319229
0.00289274
0.00263244
0.00240776
0.00223435
0.00212966
0.00354107
0.00362174
0.00374329
0.00386523
0.00396261
0.00402814
0.00406813
0.00409728
0.00413069
0.00417961
0.00425204
0.00434144
0.00442618
0.004487
0.0045185
0.00452223
0.00450178
0.00446162
0.00431953
0.00407663
0.00385586
0.00366397
0.0034937
0.00334394
0.00323255
0.0035586
0.00361119
0.00370642
0.00381318
0.00390856
0.00398265
0.00403707
0.00408133
0.00412783
0.00418693
0.0042653
0.0043627
0.00446877
0.00457045
0.004658
0.00472385
0.00476373
0.00478113
0.00467715
0.00454942
0.004441
0.00434508
0.00425409
0.00416589
0.00408435
0.00357582
0.00360298
0.00366989
0.00375568
0.00384148
0.00391659
0.00397911
0.00403399
0.00408982
0.00415534
0.00423665
0.00433562
0.00444794
0.00456438
0.00467527
0.0047728
0.0047526
0.00468246
0.00462449
0.00458737
0.00456498
0.00454991
0.00453717
0.00452186
0.00450241
0.00359372
0.00360125
0.00364112
0.00370238
0.00377183
0.00383995
0.00390296
0.00396236
0.00402299
0.00409113
0.00417264
0.00427014
0.00438192
0.00450139
0.00461938
0.0045612
0.00446421
0.00439527
0.00435902
0.00434901
0.00435916
0.00438566
0.00444205
0.00445701
0.00448943
0.00361042
0.00360712
0.00362511
0.00366195
0.00371074
0.00376484
0.00382036
0.00387672
0.00393616
0.00400271
0.00408046
0.00417209
0.00427729
0.00439159
0.00442376
0.0042813
0.00416701
0.00409096
0.00404861
0.00402918
0.00403387
0.00405999
0.00410128
0.00415317
0.00420968
0.00362074
0.00361738
0.00362237
0.00363939
0.00366729
0.00370315
0.0037445
0.00379058
0.00384227
0.00390161
0.00397108
0.00405262
0.00414639
0.00424935
0.00423428
0.00404548
0.00390209
0.00380154
0.00373595
0.00370167
0.00369411
0.00370829
0.00373918
0.00378312
0.00383512
0.00361629
0.00362411
0.00362744
0.00363338
0.00364493
0.00366277
0.0036871
0.00371804
0.00375618
0.00380266
0.00385884
0.0039259
0.00400411
0.00409182
0.00418406
0.00394593
0.00375614
0.0036245
0.00353169
0.00346948
0.00343415
0.00342211
0.0034294
0.0034517
0.00348625
0.00358636
0.00361532
0.00362868
0.00363452
0.00363824
0.00364371
0.00365324
0.00366838
0.00369037
0.00372035
0.00375936
0.00380817
0.00386704
0.00393526
0.00401035
0.00402759
0.0037858
0.00360174
0.00347091
0.00337752
0.00331155
0.00326892
0.0032468
0.00324178
0.00325096
0.00351927
0.00357647
0.00360924
0.00362569
0.00363259
0.00363501
0.0036367
0.00364049
0.00364854
0.00366253
0.00368374
0.00371305
0.0037509
0.00379714
0.0038509
0.00390998
0.00397072
0.00378841
0.00359859
0.00345838
0.00335559
0.00328061
0.00322801
0.00319358
0.00317443
0.00340392
0.00349155
0.0035498
0.00358588
0.00360611
0.00361576
0.00361917
0.00361987
0.00362069
0.00362389
0.00363118
0.00364385
0.00366268
0.00368806
0.0037199
0.00375763
0.00380004
0.00384494
0.00389057
0.00376097
0.00360522
0.00348632
0.00339784
0.00333232
0.00328526
0.00322974
0.00334703
0.00343331
0.00349415
0.00353487
0.00356025
0.00357452
0.00358131
0.00358372
0.0035843
0.00358513
0.00358783
0.00359361
0.00360328
0.00361732
0.00363586
0.00365876
0.00368551
0.00371537
0.00374699
0.00377951
0.00381228
0.00376888
0.00366568
0.00358589
0.00299346
0.00313596
0.00324851
0.00333494
0.00339923
0.00344526
0.0034767
0.00349686
0.00350872
0.00351484
0.00351743
0.0035183
0.00351892
0.00352043
0.00352365
0.00352917
0.00353733
0.00354827
0.00356197
0.00357817
0.00359656
0.00361673
0.003638
0.00365975
0.00368162
0.00270103
0.00286086
0.00299394
0.00310239
0.00318878
0.00325591
0.0033066
0.00334361
0.00336953
0.00338672
0.00339729
0.00340305
0.00340557
0.00340611
0.00340573
0.00340524
0.00340525
0.00340624
0.00340851
0.00341224
0.00341752
0.00342433
0.00343253
0.00344197
0.00345243
0.00236983
0.00253577
0.00267955
0.00280185
0.00290397
0.0029876
0.00305469
0.00310729
0.00314745
0.00317713
0.00319817
0.00321221
0.00322074
0.00322503
0.00322618
0.0032251
0.00322253
0.00321909
0.00321527
0.00321144
0.00320789
0.00320483
0.0032024
0.00320068
0.00319975
0.00202851
0.00218566
0.00232588
0.00244876
0.00255472
0.00264467
0.00271965
0.00278097
0.00283003
0.00286827
0.00289711
0.00291791
0.00293192
0.00294028
0.002944
0.00294397
0.00294097
0.00293564
0.00292854
0.00292014
0.00291082
0.00290091
0.00289066
0.0028803
0.00287009
0.00156628
0.00170613
0.00185332
0.00201141
0.00213587
0.00221575
0.0022831
0.00233873
0.0023836
0.00241869
0.00244502
0.0024636
0.00247539
0.00248132
0.00248224
0.00247892
0.00247207
0.0024623
0.00245017
0.00243615
0.00242066
0.00240405
0.00238664
0.00236871
0.00235058
0.0011839
0.00130131
0.00140354
0.00145951
0.0015072
0.00154662
0.00157819
0.00160244
0.00161995
0.00163134
0.00163725
0.0016383
0.00163514
0.00162833
0.00161846
0.00160602
0.0015915
0.00157531
0.00155784
0.0015394
0.00152029
0.00150076
0.00148101
0.00146124
0.00144165
0.000278507
0.000284258
0.000289167
0.000293194
0.000296439
0.000298972
0.000300851
0.00030213
0.00030286
0.000303093
0.000302878
0.000302261
0.00030129
0.000300008
0.000298457
0.000296677
0.000294703
0.00029257
0.000290306
0.000287941
0.000285498
0.000282999
0.000280463
0.000277907
0.000275345
4.42625e-05
6.33366e-05
4.26774e-05
0.000131985
9.53468e-05
0.0002106
0.00020041
0.000287908
0.000351866
0.000406975
0.000461534
0.000384728
0.000483551
0.000459001
0.000515514
0.000654328
0.000696663
0.000804872
0.00116948
0.00122984
0.00132903
0.00209
0.00210035
0.00214298
0.00315866
0.00312089
0.00311576
0.00402159
0.00398187
0.00396429
0.00448179
0.00446804
0.00446308
0.00451761
0.00454003
0.00456344
0.00426287
0.00431122
0.00435807
0.00387888
0.00394294
0.0040077
0.00352654
0.00357134
0.00359777
0.00326798
0.00329334
0.00332561
0.0031661
0.0031685
0.00317892
0.00325203
0.0032312
0.00321916
0.00352758
0.00348553
0.00345386
0.00370127
0.00372083
0.00374056
0.00346242
0.00347303
0.00348426
0.00319935
0.00319963
0.00320046
0.00286094
0.00285215
0.00284355
0.00233423
0.00231805
0.00230187
0.00142443
0.00140757
0.00139096
0.000273097
0.000270868
0.000268658
2.6172e-05
4.33587e-05
5.49322e-05
5.49465e-05
6.98933e-05
7.5365e-05
8.0093e-05
8.42793e-05
8.80514e-05
9.14923e-05
9.46597e-05
9.7596e-05
0.000100334
0.0001029
0.000105317
0.000107601
0.00010977
0.000111837
0.000113815
0.000115714
0.000117547
0.000119322
0.000121048
0.000122734
0.000124388
0.000126019
0.000127633
0.000129239
0.000130844
0.000132456
0.000134083
0.000135732
0.000137412
0.000139133
0.000140903
0.000142736
0.000144642
0.000146638
0.000148741
0.000150972
0.000153344
0.000155791
0.000158311
0.000160905
0.000163573
0.000166318
0.000169141
0.000172046
0.000175032
0.000178097
0.000181239
0.000184454
0.000187736
0.000191073
0.000194453
0.000197857
0.000201256
0.000204616
0.000207886
0.000211001
0.000213868
0.000216368
0.000218339
0.000219582
0.000219908
0.000219173
0.000217368
0.00021446
0.00021035
0.000204748
0.000197563
0.000188427
0.000177444
0.00016497
0.000151493
0.000138788
0.000126077
0.000112673
9.72887e-05
6.57357e-05
4.29108e-05
0.00012358
0.000141791
0.000159848
0.00018308
0.000210331
0.000239777
0.000270696
0.000302419
0.000334397
0.000366188
0.000397462
0.000427982
0.000457592
0.000486198
0.00051375
0.000540235
0.000565661
0.000590059
0.000613468
0.000635942
0.000657539
0.000678323
0.000698362
0.000717725
0.000736482
0.000754702
0.000772455
0.000789803
0.00080681
0.000823529
0.00084001
0.000856294
0.000872411
0.000888374
0.000904183
0.000919816
0.000935234
0.000950277
0.000964828
0.000979055
0.000994641
0.00101093
0.00102786
0.00104543
0.00106365
0.00108255
0.00110213
0.00112238
0.0011433
0.00116484
0.00118693
0.00120951
0.00123242
0.00125551
0.00127854
0.00130121
0.0013231
0.00134371
0.00136235
0.0013781
0.00138978
0.00139577
0.00139408
0.00138339
0.00136599
0.00134148
0.00130915
0.00126791
0.00121405
0.00114945
0.00107029
0.000980508
0.000878295
0.000742755
0.000570421
0.000414164
0.000294886
0.00020899
7.03599e-05
5.24787e-05
0.000183122
0.000221327
0.000260922
0.000311663
0.000371444
0.000437399
0.000507215
0.000578948
0.000651082
0.000722492
0.000792399
0.000860294
0.000925871
0.000988962
0.0010495
0.00110747
0.00116293
0.00121593
0.00126656
0.00131493
0.00136115
0.00140534
0.0014476
0.00148806
0.00152685
0.00156406
0.00159982
0.00163423
0.00166739
0.00169939
0.00173033
0.00176028
0.0017893
0.00181747
0.00184482
0.0018714
0.00189722
0.00192228
0.00194658
0.00197013
0.00199344
0.00201797
0.00204297
0.00206826
0.00209374
0.00211934
0.00214496
0.00217047
0.00219572
0.00222047
0.00224446
0.00226736
0.00228876
0.00230817
0.00232502
0.00233862
0.00234817
0.00235276
0.00235135
0.0023428
0.00232583
0.00229907
0.00222809
0.00203987
0.0018813
0.00176413
0.00168873
0.00166087
0.00169001
0.00170366
0.00158624
0.00146412
0.00133082
0.00116773
0.000934123
0.000678193
0.000454833
0.000283796
7.31397e-05
5.81099e-05
0.000232207
0.000302394
0.00037026
0.000453942
0.000550077
0.000655203
0.000765281
0.000877242
0.000988835
0.0010985
0.00120523
0.0013084
0.00140768
0.00150292
0.00159407
0.00168117
0.00176431
0.00184359
0.00191914
0.0019911
0.00205962
0.00212484
0.00218691
0.00224597
0.00230216
0.00235562
0.00240648
0.00245485
0.00250085
0.00254459
0.00258618
0.00262569
0.00266323
0.00269885
0.00273264
0.00276465
0.00279491
0.00282347
0.00285032
0.00287545
0.00289884
0.00292164
0.00294419
0.00296588
0.00298641
0.0030056
0.0030232
0.00303897
0.00305259
0.0030637
0.00307186
0.00307657
0.00307724
0.00307322
0.00306375
0.00304802
0.00302513
0.00299416
0.00295416
0.00290423
0.0028436
0.00277165
0.00268806
0.00249558
0.00225795
0.00207192
0.00193669
0.00185363
0.00183254
0.00185526
0.00172692
0.00160056
0.0014738
0.0013308
0.00112237
0.0008493
0.000569987
0.000329319
7.24747e-05
6.19211e-05
0.000278771
0.000383767
0.00048427
0.000602573
0.000735649
0.0008782
0.00102543
0.0011736
0.00132013
0.0014633
0.00160207
0.00173584
0.00186432
0.0019874
0.00210508
0.00221743
0.00232459
0.00242669
0.00252388
0.00261632
0.00270417
0.0027876
0.00286676
0.00294181
0.00301287
0.0030801
0.00314362
0.00320355
0.00326
0.00331308
0.00336287
0.00340945
0.00345291
0.00349331
0.00353069
0.00356511
0.00359659
0.00362515
0.00365078
0.00367347
0.00369316
0.00370978
0.00372505
0.00373821
0.00374882
0.00375658
0.00376117
0.00376228
0.0037595
0.00375242
0.00374051
0.0037232
0.00369981
0.00366961
0.00363177
0.00358543
0.00352966
0.00346356
0.00338627
0.00329704
0.00319537
0.00308105
0.00295428
0.00281585
0.00266691
0.00251003
0.00234884
0.00216467
0.00202419
0.00187757
0.00173485
0.00160335
0.00148355
0.0013648
0.00120384
0.000947267
0.000645102
0.000353902
7.02939e-05
6.45911e-05
0.000318481
0.00046438
0.000599562
0.000752205
0.000919683
0.00109595
0.00127568
0.00145497
0.00163119
0.00180268
0.00196848
0.00212808
0.00228123
0.0024279
0.00256814
0.00270205
0.00282978
0.00295149
0.00306735
0.00317751
0.00328215
0.00338142
0.00347549
0.0035645
0.00364858
0.00372789
0.00380252
0.0038726
0.00393822
0.00399946
0.00405642
0.00410914
0.00415768
0.00420209
0.0042424
0.00427863
0.00431079
0.00433889
0.00436291
0.00438282
0.00439857
0.00441012
0.00441776
0.0044226
0.00442386
0.00442112
0.00441402
0.00440221
0.00438529
0.0043628
0.0043342
0.00429887
0.00425609
0.00420505
0.00414486
0.00407454
0.00399308
0.00389946
0.00379269
0.00367195
0.00353667
0.00338664
0.00322222
0.0030445
0.00285569
0.00265931
0.00246002
0.00226312
0.00207387
0.00189661
0.00173411
0.00158812
0.00145967
0.00134451
0.00121399
0.00100301
0.000701606
0.000371354
6.74417e-05
6.66632e-05
0.000354433
0.000543175
0.000713331
0.00089835
0.00109668
0.00130218
0.00150952
0.0017149
0.00191586
0.0021109
0.00229918
0.0024803
0.00265411
0.00282063
0.00297995
0.00313219
0.00327753
0.00341611
0.00354812
0.0036737
0.00379303
0.00390627
0.00401355
0.00411502
0.00421082
0.00430107
0.00438589
0.00446537
0.0045396
0.00460865
0.00467258
0.00473145
0.00478529
0.00483412
0.00487797
0.00491682
0.00495069
0.00497956
0.0050034
0.00502219
0.00503588
0.00504438
0.00504761
0.00504695
0.00504191
0.00503209
0.00501713
0.00499669
0.00497039
0.00493776
0.00489827
0.00485129
0.00479606
0.00473172
0.00465727
0.00457159
0.0044735
0.0043617
0.00423495
0.00409205
0.00393205
0.00375441
0.0035592
0.00334741
0.00312131
0.00288476
0.00264341
0.00240418
0.00217451
0.00196108
0.00176803
0.00159545
0.00144506
0.00131611
0.00119215
0.00101911
0.000731842
0.000378313
6.5691e-05
6.84843e-05
0.000387669
0.000619661
0.000823922
0.0010385
0.00126369
0.00149391
0.00172419
0.00195106
0.0021723
0.00238664
0.00259342
0.00279233
0.00298333
0.00316648
0.00334189
0.00350971
0.00367011
0.00382324
0.00396927
0.00410835
0.00424063
0.00436626
0.00448539
0.00459815
0.00470467
0.00480506
0.00489943
0.00498788
0.00507049
0.00514732
0.00521842
0.00528383
0.00534357
0.00539767
0.00544612
0.00548891
0.00552603
0.00555746
0.00558318
0.00560316
0.00561736
0.00562573
0.00562821
0.00562498
0.00561708
0.00560393
0.00558519
0.00556053
0.0055296
0.00549199
0.00544718
0.00539455
0.00533336
0.0052627
0.0051815
0.00508853
0.00498239
0.00486152
0.00472427
0.00456896
0.00439403
0.00419821
0.00398082
0.00374208
0.00348357
0.00320863
0.00292301
0.00263499
0.00235416
0.00208999
0.00184855
0.00163568
0.00145305
0.00129771
0.00115003
0.000949185
0.000702672
0.000383305
6.5001e-05
7.02785e-05
0.00041941
0.000694188
0.000930992
0.00117196
0.00141996
0.00167057
0.00191945
0.0021636
0.00240114
0.00263105
0.00285283
0.00306631
0.0032715
0.00346849
0.00365741
0.00383843
0.00401168
0.00417733
0.00433551
0.00448638
0.00463007
0.00476673
0.0048965
0.00501949
0.00513584
0.00524566
0.00534904
0.00544609
0.00553688
0.00562148
0.00569992
0.00577225
0.00583848
0.00589862
0.00595266
0.00600059
0.00604239
0.00607802
0.00610746
0.00613067
0.0061476
0.00615821
0.00616241
0.00616009
0.00615244
0.00613915
0.00611997
0.00609464
0.00606287
0.00602429
0.00597847
0.00592485
0.00586272
0.00579121
0.00570923
0.00561551
0.0055085
0.00538646
0.00524738
0.00508909
0.00490937
0.00470605
0.00447733
0.0042221
0.00394052
0.00363468
0.00330875
0.00297112
0.00263195
0.00230255
0.00199641
0.0017253
0.00149432
0.00130055
0.00108564
0.000917258
0.000697341
0.000402312
6.5829e-05
7.22338e-05
0.000451251
0.000768082
0.00103552
0.00129958
0.00156644
0.0018333
0.00209674
0.00235432
0.00260457
0.00284672
0.00308044
0.00330563
0.00352236
0.00373073
0.00393087
0.00412293
0.00430704
0.00448334
0.00465195
0.00481301
0.00496666
0.00511302
0.00525222
0.0053844
0.00550967
0.00562813
0.00573991
0.00584508
0.00594372
0.00603589
0.00612165
0.00620103
0.00627404
0.0063407
0.00640098
0.00645487
0.00650234
0.00654334
0.00657784
0.00660579
0.00662713
0.00664181
0.00664974
0.0066508
0.00664555
0.0066344
0.00661715
0.00659362
0.00656359
0.0065268
0.0064829
0.00643144
0.00637179
0.00630319
0.00622463
0.00613488
0.00603241
0.00591538
0.00578163
0.00562867
0.00545372
0.00525384
0.00502607
0.00476779
0.00447713
0.0041538
0.00380008
0.00342126
0.00302605
0.00262822
0.00224476
0.00189402
0.00159043
0.0013386
0.00109524
0.000880176
0.000700758
0.000442361
6.92844e-05
7.46436e-05
0.0004856
0.000843742
0.00113985
0.00142376
0.00170557
0.00198468
0.00225884
0.00252628
0.00278595
0.00303731
0.00328017
0.00351449
0.00374033
0.00395781
0.00416703
0.0043681
0.00456113
0.00474626
0.00492358
0.00509323
0.00525532
0.00540999
0.00555737
0.00569756
0.00583071
0.00595691
0.00607626
0.00618887
0.0062948
0.00639412
0.00648689
0.00657313
0.00665286
0.0067261
0.00679283
0.00685302
0.00690665
0.00695365
0.00699397
0.00702755
0.00705433
0.00707423
0.00708715
0.00709301
0.00709171
0.00708422
0.00707042
0.00705022
0.00702352
0.00699016
0.00694991
0.00690245
0.0068473
0.00678386
0.00671128
0.00662847
0.00653405
0.00642627
0.006303
0.00616169
0.00599931
0.00581245
0.00559733
0.00535004
0.00506684
0.00474484
0.00438257
0.00398148
0.0035471
0.00309039
0.00262825
0.00218324
0.00178022
0.0014379
0.00116088
0.000881332
0.000695466
0.000486798
7.64216e-05
7.77913e-05
0.000524715
0.000877378
0.00122925
0.00154866
0.00184144
0.00212876
0.00240987
0.00268374
0.00294969
0.0032074
0.00345673
0.00369769
0.00393031
0.00415464
0.00437078
0.00457879
0.00477877
0.00497081
0.00515501
0.0053315
0.00550039
0.00566182
0.00581591
0.00596279
0.00610257
0.00623537
0.0063613
0.00648043
0.00659284
0.0066986
0.00679775
0.00689034
0.00697638
0.00705588
0.00712884
0.00719523
0.00725502
0.00730816
0.00735456
0.00739414
0.0074268
0.00745243
0.00747094
0.00748217
0.00748596
0.00748305
0.00747355
0.00745752
0.00743496
0.00740585
0.00737008
0.00732749
0.0072778
0.00722056
0.00715517
0.00708077
0.00699621
0.00689999
0.00679021
0.00666447
0.00651988
0.00635294
0.00615959
0.0059352
0.00567478
0.00537321
0.00502594
0.00462977
0.00418442