/*--------------------------------*- C++ -*----------------------------------*\
| =========                 |                                                 |
| \\      /  F ield         | OpenFOAM: The Open Source CFD Toolbox           |
|  \\    /   O peration     | Version:  v2012                                 |
|   \\  /    A nd           | Website:  www.openfoam.com                      |
|    \\/     M anipulation  |                                                 |
\*---------------------------------------------------------------------------*/
FoamFile
{
    version     2.0;
    format      ascii;
    class       volScalarField;
    location    "500";
    object      omega;
}
// * * * * * * * * * * * * * * * * * * * * * * * * * * * * * * * * * * * * * //

dimensions      [0 0 -1 0 0 0 0];


internalField   nonuniform List<scalar> 
6556
(
640.525
229.455
198.292
194.616
196.867
196.867
194.616
198.292
229.455
640.525
474.435
197.095
161.932
155.645
155.946
155.946
155.645
161.932
197.095
474.435
376.297
168.103
136.143
128.991
128.077
128.077
128.991
136.143
168.103
376.297
313.072
144.846
116.902
109.736
108.21
108.21
109.736
116.902
144.846
313.072
269.406
126.572
102.081
95.2449
93.4591
93.4591
95.2448
102.081
126.572
269.406
237.533
112.138
90.3906
83.9863
82.1247
82.1247
83.9862
90.3905
112.138
237.533
213.22
100.582
80.9858
75.0158
73.1685
73.1685
75.0158
80.9858
100.581
213.221
194.014
91.1815
73.2905
67.7196
65.9273
65.9273
67.7196
73.2904
91.1813
194.014
178.406
83.4156
66.8989
61.6819
59.9607
59.9606
61.6818
66.8988
83.4152
178.407
165.431
76.9056
61.5192
56.6118
54.9652
54.9652
56.6116
61.5189
76.905
165.432
154.44
71.3758
56.9368
52.2999
50.7259
50.7259
52.2997
56.9364
71.375
154.442
144.985
66.6226
52.992
48.592
47.0862
47.0861
48.5917
52.9914
66.6213
144.987
136.746
62.4934
49.5634
45.3724
43.9293
43.9291
45.372
49.5624
62.4915
136.749
129.487
58.8724
46.5577
42.5525
41.1668
41.1666
42.5518
46.5563
58.8695
129.491
123.033
55.6703
43.9024
40.0635
38.7303
38.7299
40.0625
43.9003
55.6661
123.039
117.249
52.8177
41.5402
37.8513
36.5661
36.5656
37.8498
41.5372
52.8116
117.257
112.029
50.2595
39.4257
35.8729
34.6317
34.6309
35.8706
39.4214
50.2514
112.04
107.29
47.9522
37.5221
34.0935
32.8927
32.8917
34.0903
37.5164
47.9431
107.305
102.964
45.8605
35.7999
32.4851
31.3215
31.3201
32.4805
35.792
45.8515
102.983
98.9957
43.956
34.2346
31.0246
29.8953
29.8932
31.0178
34.2236
43.9608
99.0169
95.3403
42.2154
32.8065
29.693
28.595
28.5915
29.679
32.7542
41.7724
83.2131
91.9589
40.6195
31.499
28.4742
27.4049
27.3986
28.4456
31.3709
39.6138
70.5215
88.8189
39.1521
30.298
27.3551
26.3115
26.3006
27.3027
30.0618
37.4678
60.6013
85.8924
37.7994
29.1918
26.324
25.3035
25.2859
26.2393
28.8234
35.176
52.797
83.1556
36.5497
28.1704
25.3715
24.3712
24.3457
25.2505
27.6136
32.8701
46.6763
80.5874
35.3929
27.2251
24.4892
23.5064
23.4711
24.3299
26.4247
30.768
41.9259
78.1696
34.3207
26.3486
23.6702
22.7019
22.6538
23.4539
25.3246
28.9734
38.2273
75.8859
33.3259
25.5349
22.9082
21.9516
21.8876
22.623
24.3003
27.4733
35.3167
73.7219
32.4029
24.7787
22.1983
21.2502
21.1676
21.837
23.3516
26.1914
32.867
71.6646
31.5465
24.0757
21.536
20.5934
20.4899
21.0948
22.4739
25.0648
30.7002
69.7019
30.7523
23.4223
20.9177
19.9776
19.8514
20.3946
21.6604
24.0503
28.7815
67.823
30.017
22.8154
20.3405
19.3996
19.2494
19.7339
20.9019
23.1059
27.0739
66.0177
29.3381
22.2529
19.8017
18.8571
18.6814
19.1099
20.1887
22.2118
25.5445
64.2764
28.7134
21.7329
19.2998
18.3479
18.1454
18.5196
19.513
21.3571
24.1634
62.5901
28.1415
21.2547
18.8333
17.8709
17.6397
17.9604
18.8684
20.5347
22.9041
60.9501
27.6216
20.8178
18.4018
17.425
17.1633
17.43
18.2505
19.7401
21.7445
59.3479
27.1529
20.4224
18.0053
17.01
16.7155
16.9268
17.6561
18.9711
20.6667
57.7754
26.7351
20.0696
17.6445
16.6264
16.2963
16.4502
17.0843
18.2273
19.6575
56.2245
26.368
19.7606
17.3207
16.2753
15.9063
16.0005
16.5359
17.5106
18.7083
54.6872
26.0511
19.4974
17.036
15.9583
15.5473
15.5794
16.0135
16.8247
17.815
53.1555
25.7835
19.2822
16.7929
15.678
15.2216
15.1893
15.5213
16.1753
16.9778
51.6216
25.5633
19.1173
16.5948
15.4377
14.9323
14.834
15.0649
15.5697
16.2005
50.0774
25.3878
19.005
16.4451
15.2409
14.6832
14.5178
14.6505
15.0159
15.4897
48.5147
25.2534
18.9471
16.3477
15.0921
14.4788
14.2457
14.2844
14.522
14.8534
46.9249
25.1551
18.9453
16.3062
14.9954
14.3236
14.0226
13.9727
14.095
14.2993
45.2985
25.0869
19.0001
16.3244
14.9555
14.2223
13.8533
13.7202
13.74
13.833
43.6247
25.0417
19.111
16.4051
14.9766
14.1793
13.7422
13.531
13.4599
13.4573
41.8909
25.0109
19.2763
16.5504
15.0621
14.1985
13.6927
13.4074
13.2557
13.1712
40.081
24.9846
19.4922
16.7608
15.2145
14.2831
13.7077
13.3509
13.1261
12.9713
38.1738
24.9503
19.7524
17.034
15.4343
14.4345
13.7887
13.3617
13.0689
12.852
36.1398
24.8911
20.045
17.3633
15.7178
14.6511
13.9345
13.4383
13.0808
12.8073
33.934
24.7795
20.3487
17.7332
16.0544
14.9254
14.1396
13.5757
13.1566
12.8309
31.4829
24.5443
20.6102
18.1068
16.4172
15.237
14.3889
13.763
13.2884
12.9194
28.604
24.0793
20.7431
18.411
16.7481
15.5425
14.6511
13.9802
13.4708
13.0785
25.1882
23.2078
20.6385
18.5539
16.9693
15.7804
14.8848
14.2135
13.7008
13.2969
21.0493
21.3991
20.0011
18.3786
16.9905
15.8994
15.0818
14.4547
13.9603
13.5602
15.3496
17.8177
18.2595
17.5627
16.6674
15.8904
15.2396
14.6993
14.2509
13.8758
13.2533
12.7202
15.0435
15.8071
15.8663
15.6439
15.3219
14.9792
14.6518
14.3535
12.937
9.74347
11.8157
13.7184
14.8552
15.4695
15.7556
15.8272
15.7913
15.7139
13.7285
14.6471
18.1877
22.2194
26.0129
28.6084
30.5414
32.1321
33.4355
34.4972
35.0006
20.7223
21.0389
21.6936
22.2217
22.544
22.6422
22.5002
22.0648
21.5383
20.9122
20.1844
19.3634
18.4814
17.557
16.6007
15.6002
14.6719
13.7755
12.8764
11.9448
10.943
9.80832
8.41245
7.23937
43.8333
15.7499
9.25935
8.00052
7.64977
7.4931
7.3741
7.2406
7.06349
6.84918
6.61787
6.39036
6.1806
5.99255
5.83122
5.70357
5.63274
5.77891
6.07098
6.45111
6.85592
7.20098
7.38619
7.3726
11.1939
47.4041
20.5728
10.159
7.4041
6.49072
6.05954
5.77867
5.54467
5.30866
5.04545
4.79132
4.55249
4.33231
4.13478
3.96783
3.84195
3.77544
3.82677
4.01559
4.34863
4.81568
5.36845
5.91684
6.50221
12.2534
47.342
24.5545
13.4335
8.78693
7.00237
6.18519
5.68393
5.30434
4.97184
4.64824
4.34269
4.06748
3.8132
3.58046
3.37891
3.22091
3.12217
3.11372
3.2177
3.45459
3.84089
4.36946
4.99446
5.84884
12.6408
45.559
27.5656
16.1008
10.7622
8.0966
6.74814
5.96856
5.41265
4.96701
4.58595
4.24084
3.93128
3.64541
3.37852
3.14138
2.94971
2.82005
2.77393
2.82809
3.00156
3.31652
3.78597
4.40525
5.39598
12.6636
43.0628
28.9912
18.3246
12.4523
9.37627
7.55752
6.43577
5.67213
5.09901
4.64479
4.26869
3.93411
3.62313
3.32416
3.04924
2.82025
2.65976
2.58646
2.61089
2.74617
3.01216
3.42949
4.02405
5.09292
12.4847
40.2218
29.6103
20.1193
14.0334
10.5172
8.42954
7.04477
6.04977
5.32427
4.77985
4.35757
4.0103
3.69174
3.36314
3.04764
2.77273
2.57582
2.47882
2.48492
2.598
2.83224
3.21009
3.7785
4.8925
12.1872
37.4706
29.6116
21.2941
15.4117
11.6141
9.2168
7.61614
6.47588
5.62666
4.98266
4.50117
4.13176
3.81042
3.48074
3.13015
2.79936
2.55325
2.4291
2.42194
2.52147
2.73452
3.08288
3.62767
4.76468
11.8029
34.9294
29.1748
21.9896
16.4949
12.6134
9.98577
8.16686
6.86144
5.90282
5.20074
4.68358
4.29485
3.97478
3.6491
3.27948
2.89895
2.60391
2.44699
2.42215
2.50771
2.70252
3.02677
3.55284
4.70844
11.3697
32.6165
28.385
22.3777
17.2917
13.4619
10.7001
8.70845
7.25053
6.17908
5.41044
4.86748
4.47808
4.17436
3.86742
3.49788
3.08029
2.72257
2.52283
2.47826
2.551
2.73137
3.03916
3.56139
4.76567
10.9712
30.525
27.4011
22.4813
17.8316
14.1444
11.3313
9.21784
7.63787
6.47179
5.63798
5.06515
4.67697
4.40139
4.13806
3.79364
3.36345
2.93526
2.66589
2.58633
2.64461
2.81465
3.11451
3.64442
4.89152
10.578
28.6464
26.3434
22.3336
18.1465
14.669
11.865
9.67756
8.00893
6.7697
5.88297
5.28748
4.89627
4.65508
4.45911
4.18107
3.77115
3.28742
2.90439
2.75415
2.78939
2.95127
3.25005
3.79112
5.04565
10.1751
26.9578
25.2685
21.9745
18.3049
15.0244
12.2834
10.0721
8.35059
7.06328
6.145
5.52701
5.13975
4.92938
4.80803
4.64445
4.31999
3.83931
3.32965
3.01908
2.99793
3.14432
3.44169
3.98328
5.17907
9.76532
25.4323
24.2017
21.4916
18.308
15.2381
12.5974
10.4015
8.65797
7.34406
6.4091
5.7864
5.40347
5.21458
5.15345
5.11839
4.97857
4.6146
4.07344
3.54865
3.32417
3.41503
3.70132
4.23088
5.30601
9.39595
24.0441
23.1619
20.9359
18.1773
15.3454
12.8276
10.6732
8.93098
7.60772
6.66714
6.04615
5.67149
5.49941
5.46798
5.52237
5.58152
5.5187
5.18907
4.62622
4.03627
3.89693
4.11237
4.6177
5.543
8.62288
22.7696
22.1567
20.3383
17.9391
15.3807
12.9828
10.8935
9.17289
7.85313
6.912
6.29325
5.92517
5.76396
5.7408
5.81747
5.97456
6.16159
6.28531
6.19993
5.83857
5.28794
5.1282
5.43395
6.17153
8.2328
21.5883
21.1833
19.7076
17.6375
15.3602
13.0929
11.0859
9.39657
8.08681
7.14271
6.51582
6.15041
5.99326
5.96947
6.02699
6.1676
6.38705
6.68577
7.03035
7.36829
7.66634
7.96404
8.48397
9.40951
10.5588
20.4839
20.2411
19.0577
17.2904
15.2701
13.1958
11.2637
9.61561
8.30994
7.3594
6.71784
6.33912
6.17642
6.15199
6.20161
6.29503
6.42837
6.62191
6.87861
7.2058
7.5844
7.99326
8.40093
8.82298
9.2274
19.4442
19.3279
18.3972
16.9121
15.1342
13.2751
11.4459
9.84414
8.54191
7.57239
6.90304
6.49401
6.30874
6.27685
6.33155
6.43329
6.56011
6.70296
6.86938
7.06965
7.3145
7.59524
7.87104
8.10942
8.26239
18.4616
18.4407
17.7277
16.4984
14.9608
13.3046
11.6594
10.1056
8.81557
7.81953
7.10122
6.63805
6.40141
6.33153
6.36645
6.46418
6.59801
6.75075
6.91105
7.07157
7.22782
7.376
7.49856
7.55078
7.47483
17.5336
17.5791
17.0509
16.0559
14.7557
13.2999
11.8228
10.418
9.14226
8.13279
7.36935
6.83258
6.51787
6.37657
6.35091
6.3984
6.49032
6.60628
6.72917
6.84187
6.92834
6.9758
6.97147
6.88375
6.67562
16.6623
16.7463
16.3697
15.585
14.5085
13.2628
11.9564
10.6874
9.52561
8.52466
7.72486
7.13452
6.73583
6.50865
6.40468
6.38211
6.40915
6.46169
6.51964
6.56399
6.57807
6.5513
6.47844
6.34837
6.1412
15.8545
15.9501
15.6901
15.0878
14.2191
13.1786
12.0572
10.9333
9.87928
8.95093
8.16896
7.54454
7.08888
6.78672
6.60256
6.50993
6.47744
6.47969
6.49399
6.50054
6.48318
6.43209
6.343
6.21462
6.04353
15.12
15.2029
15.0233
14.5707
13.8871
13.0399
12.101
11.1368
10.2063
9.35941
8.62675
8.02158
7.55089
7.20534
6.96302
6.80265
6.71465
6.67566
6.66225
6.65311
6.63129
6.58659
6.51374
6.40986
6.27424
14.4699
14.5206
14.3867
14.0465
13.5183
12.845
12.0792
11.2736
10.4767
9.72992
9.06441
8.49769
8.03716
7.68012
7.41431
7.22475
7.09811
7.02179
6.98465
6.96528
6.94697
6.9178
6.87055
6.80094
6.70581
13.9139
13.9198
13.8014
13.5358
13.1273
12.5999
11.9891
11.3336
10.6717
10.0363
9.45282
8.94013
8.50841
8.15978
7.89019
7.69055
7.55232
7.4642
7.41051
7.38077
7.36454
7.3488
7.32467
7.28974
7.23777
13.4578
13.414
13.2893
13.0646
12.7381
12.3225
11.8399
11.3171
10.7813
10.2567
9.76442
9.32061
8.93559
8.61428
8.35731
8.16125
8.02024
7.92639
7.86977
7.84035
7.82635
7.82007
7.81542
7.80592
7.78677
13.1025
13.0103
12.8671
12.6582
12.3807
12.042
11.6555
11.2383
10.8084
10.3837
9.97971
9.6092
9.28114
9.00138
8.77337
8.59567
8.46453
8.3754
8.32193
8.2968
8.29146
8.29757
8.30695
8.31541
8.32023
12.844
12.7085
12.5429
12.3354
12.0837
11.7924
11.4694
11.1263
10.7756
10.4298
10.1
9.79514
9.52227
9.28589
9.09044
8.93767
8.82406
8.74648
8.7011
8.68298
8.68618
8.70433
8.73123
8.7614
8.78948
12.6747
12.5024
12.3158
12.105
11.8668
11.6021
11.3171
11.0203
10.7212
10.4288
10.1513
9.89515
9.66513
9.4645
9.29567
9.16117
9.06068
8.99127
8.94996
8.93343
8.938
8.95941
8.9931
9.03459
9.07947
12.5863
12.3832
12.1811
11.9679
11.7372
11.4886
11.2263
10.9568
10.6876
10.4262
10.1789
9.95086
9.74578
9.56589
9.41259
9.28644
9.18768
9.1155
9.06781
9.04193
9.03512
9.04459
9.06736
9.10041
9.14055
12.5722
12.3474
12.1341
11.9189
11.6942
11.4577
11.2113
10.9596
10.7082
10.4633
10.2303
10.0139
9.81732
9.64253
9.49056
9.36167
9.25547
9.17093
9.10626
9.05986
9.03
9.0145
9.01117
9.01801
9.03293
12.6359
12.3929
12.1696
11.9525
11.7328
11.5066
11.2736
11.036
10.7978
10.5636
10.338
10.1249
9.92752
9.74789
9.58723
9.44594
9.32384
9.22016
9.13364
9.06276
9.00564
8.96035
8.92534
8.89933
8.88091
12.7744
12.5156
12.2825
12.0619
11.8449
11.6263
11.4042
11.179
10.9527
10.7283
10.5091
10.2985
10.099
9.91271
9.74108
9.58481
9.44414
9.3188
9.20816
9.11122
9.02679
8.95349
8.88989
8.83456
8.78636
12.9795
12.7081
12.4655
12.2396
12.0222
11.8076
11.593
11.3773
11.1612
10.9463
10.7345
10.5282
10.3294
10.1399
9.96096
9.79353
9.6381
9.4948
9.36347
9.24372
9.13491
9.03624
8.94677
8.86556
8.7919
13.24
12.963
12.7146
12.4849
12.2662
12.0533
11.8429
11.6335
11.4249
11.2176
11.0128
10.8118
10.6162
10.4271
10.2458
10.0729
9.90923
9.75494
9.61014
9.47475
9.34848
9.23095
9.12165
9.02006
8.9259
13.5688
13.2982
13.0529
12.8245
12.6069
12.3956
12.1882
11.9831
11.7801
11.5791
11.3809
11.1862
10.996
10.8113
10.6328
10.4612
10.2969
10.1404
9.99172
9.85086
9.71771
9.59204
9.47352
9.36183
9.25687
14.0952
13.8581
13.6361
13.4239
13.2189
13.0191
12.8234
12.631
12.4416
12.2554
12.0727
11.8941
11.7201
11.5513
11.3884
11.2316
11.0813
10.9376
10.8007
10.6704
10.5465
10.4289
10.3172
10.211
10.1104
15.6269
15.5362
15.4434
15.343
15.2387
15.1322
15.0242
14.9149
14.8049
14.6944
14.5841
14.4743
14.3657
14.2585
14.1533
14.0502
13.9495
13.8513
13.7555
13.6621
13.5708
13.4816
13.3941
13.3082
13.2237
35.3449
36.0748
36.6978
37.2088
37.6206
37.9421
38.1806
38.3429
38.4356
38.4651
38.4378
38.3595
38.2362
38.0735
37.8768
37.6509
37.4004
37.1296
36.8424
36.5422
36.2322
35.915
35.5932
35.2688
34.9437
7.78382
8.03788
15.2087
12.7002
13.8444
12.2973
11.2208
10.7993
9.84402
9.33008
9.00555
8.21777
8.18012
7.75308
6.91048
7.17682
6.65906
5.92123
6.31721
5.87002
5.34602
5.857
5.54219
5.19869
5.83607
5.61729
5.38595
6.11967
5.95907
5.79154
6.59276
6.47257
6.34177
7.17095
7.0907
6.99614
7.75721
7.71721
7.66389
8.31844
8.30767
8.28715
8.81093
8.82715
8.83853
9.12033
9.15831
9.1926
9.1808
9.2226
9.26494
9.05194
9.07486
9.1009
8.86979
8.86289
8.85939
8.74835
8.7146
8.68405
8.73171
8.67631
8.62449
8.84763
8.77442
8.70503
9.1687
9.0853
9.00554
10.0253
9.94394
9.86546
13.1503
13.0776
13.0052
34.6584
34.3755
34.095
4.35569
5.50255
6.97129
8.02637
8.86995
9.56435
10.1644
10.6956
11.1743
11.611
12.013
12.3856
12.7331
13.0588
13.3654
13.6553
13.9306
14.1929
14.4439
14.685
14.9175
15.1428
15.3618
15.5758
15.7858
15.9927
16.1976
16.4014
16.6051
16.8097
17.0161
17.2254
17.4386
17.657
17.8817
18.1142
18.3562
18.6095
18.8763
19.1595
19.4605
19.7711
20.0909
20.4201
20.7587
21.107
21.4654
21.834
22.2129
22.6019
23.0006
23.4087
23.8251
24.2487
24.6777
25.1096
25.541
25.9674
26.3824
26.7777
27.1416
27.4589
27.709
27.8668
27.9081
27.8149
27.5857
27.2168
26.6952
25.9842
25.0724
23.9129
22.5191
20.936
19.2256
17.6133
16.0001
14.2991
12.3467
10.9402
9.06673
6.01665
6.70682
7.11234
7.31673
7.3951
7.39451
7.35523
7.29796
7.23441
7.17087
7.11067
7.05543
7.00581
6.96194
6.92363
6.89054
6.86226
6.83837
6.81846
6.80214
6.78908
6.77897
6.77156
6.76663
6.76402
6.76362
6.76535
6.76921
6.77522
6.7835
6.79419
6.80753
6.82383
6.84352
6.86712
6.8953
6.92884
6.96921
7.01773
7.07421
7.12972
7.18669
7.24549
7.30632
7.36937
7.43483
7.50293
7.57385
7.64785
7.72514
7.80596
7.89053
7.97904
8.07162
8.16833
8.26911
8.3737
8.48162
8.59201
8.70356
8.81441
8.92269
9.02775
9.12635
9.20224
9.23253
9.20442
9.10837
8.91342
8.6638
8.37203
8.05445
7.76533
7.72521
8.15012
8.76078
9.30541
9.64582
14.8666
11.0883
6.12772
6.23362
6.29475
6.25255
6.13563
5.98122
5.81912
5.66322
5.52
5.39176
5.27868
5.17988
5.09405
5.01972
4.95544
4.89989
4.85188
4.81035
4.7744
4.74326
4.71629
4.69294
4.67276
4.65538
4.64053
4.62797
4.61754
4.60912
4.60267
4.59817
4.59564
4.59517
4.59685
4.60086
4.60738
4.61663
4.62889
4.64446
4.66366
4.68677
4.71327
4.7409
4.77085
4.80356
4.83941
4.8788
4.92213
4.96987
5.02251
5.08058
5.14465
5.21529
5.29312
5.37872
5.47268
5.57548
5.68754
5.80906
5.94
6.07989
6.22769
6.38156
6.5389
6.69622
6.84605
6.97028
7.05039
7.06637
6.99949
6.84275
6.58187
6.25052
5.88914
5.63496
5.75351
6.25233
7.03125
8.04592
15.4539
12.2781
6.04486
5.78311
5.66189
5.49842
5.30912
5.10987
4.92045
4.7488
4.59737
4.46592
4.35295
4.25643
4.17426
4.10442
4.04507
3.9946
3.95163
3.91497
3.88364
3.85681
3.83378
3.81401
3.79703
3.78247
3.77003
3.75951
3.75071
3.74353
3.73788
3.73374
3.73112
3.73003
3.73057
3.73282
3.73691
3.743
3.75129
3.76199
3.77535
3.79165
3.81124
3.83344
3.85811
3.88593
3.91737
3.95288
3.99298
4.0382
4.08913
4.14641
4.21073
4.28282
4.36346
4.45347
4.55366
4.66488
4.7879
4.9234
5.07192
5.2337
5.40855
5.59547
5.79224
5.99606
6.20318
6.40141
6.57309
6.69585
6.74259
6.68865
6.50941
6.18061
5.70245
5.2529
5.06202
5.2937
5.94632
7.14679
15.3134
13.0834
5.88628
5.39404
5.17305
4.95499
4.73449
4.52399
4.33295
4.16508
4.02045
3.89741
3.7936
3.70651
3.63369
3.57293
3.52228
3.48006
3.44484
3.41544
3.39085
3.37028
3.35305
3.33862
3.32654
3.31647
3.30813
3.3013
3.29583
3.29161
3.28856
3.28664
3.28587
3.28626
3.28789
3.29084
3.29522
3.3012
3.30895
3.31867
3.33061
3.34504
3.36228
3.38268
3.40563
3.43171
3.46144
3.4953
3.5338
3.57752
3.62706
3.68312
3.74642
3.81777
3.89806
3.98823
4.0893
4.20237
4.32855
4.46901
4.62487
4.79717
4.9867
5.19378
5.41788
5.65731
5.90967
6.16923
6.42493
6.65888
6.84289
6.93793
6.89503
6.66061
6.20554
5.60151
5.0757
5.02301
5.48304
6.69601
14.8526
13.6476
5.73075
5.07335
4.79206
4.54626
4.31487
4.1037
3.91764
3.75763
3.62224
3.50902
3.41512
3.33773
3.27426
3.2224
3.18016
3.14584
3.11802
3.09552
3.07737
3.06279
3.05112
3.04184
3.03454
3.02888
3.0246
3.0215
3.01943
3.01829
3.018
3.01855
3.01992
3.02215
3.02529
3.02944
3.0347
3.04121
3.04915
3.05872
3.07014
3.08368
3.09963
3.11832
3.13996
3.16441
3.19226
3.224
3.26015
3.30128
3.348
3.40099
3.46101
3.52889
3.60557
3.69208
3.78956
3.89929
4.02266
4.16123
4.31666
4.49072
4.68521
4.90184
5.14201
5.40654
5.69546
6.00692
6.33552
6.66982
6.98864
7.25526
7.41149
7.37575
7.0565
6.42856
5.67829
5.24243
5.42182
6.52979
14.25
14.0854
5.60256
4.81223
4.48934
4.22825
3.99317
3.78487
3.60512
3.45318
3.32666
3.22255
3.13767
3.06904
3.01396
2.97006
2.93532
2.90806
2.88686
2.87056
2.85821
2.84903
2.8424
2.83782
2.83487
2.83326
2.83272
2.83307
2.83417
2.83591
2.83824
2.84113
2.84456
2.84857
2.85321
2.85855
2.86471
2.87181
2.88002
2.88952
2.90053
2.9133
2.92811
2.94528
2.96515
2.98766
3.01325
3.04239
3.07559
3.11339
3.15639
3.20526
3.26075
3.32369
3.39503
3.47583
3.5673
3.6708
3.7879
3.92038
4.07028
4.23991
4.43187
4.64903
4.89443
5.17113
5.48192
5.82874
6.21151
6.62591
7.06
7.48888
7.86586
8.11356
8.08408
7.61948
6.75113
5.89264
5.75138
6.74255
13.8801
14.4701
5.50449
4.59878
4.24323
3.97227
3.73624
3.53164
3.35803
3.21347
3.09489
2.99884
2.92193
2.86101
2.8133
2.77642
2.74831
2.7273
2.71197
2.70118
2.694
2.68966
2.68755
2.68719
2.68818
2.69023
2.6931
2.69659
2.70059
2.70498
2.70972
2.71476
2.72011
2.72578
2.73181
2.73828
2.74527
2.75292
2.76136
2.77077
2.78136
2.79337
2.80706
2.82272
2.84069
2.86126
2.88453
2.91097
2.94108
2.97538
3.01445
3.05893
3.10955
3.16712
3.23257
3.30693
3.39141
3.4874
3.59648
3.72055
3.86179
4.02281
4.20669
4.41705
4.65811
4.93469
5.25206
5.61567
6.0298
6.49723
7.01544
7.5761
8.16146
8.7072
9.06886
9.00711
8.29616
7.08728
6.44445
7.18738
13.7343
14.8492
5.4345
4.42346
4.03907
3.76019
3.52399
3.32299
3.15496
3.01697
2.90541
2.81648
2.74659
2.69248
2.65129
2.6206
2.59837
2.5829
2.5728
2.56692
2.56435
2.56435
2.56631
2.56975
2.57431
2.57969
2.58566
2.59203
2.59869
2.60554
2.61251
2.61957
2.62672
2.63396
2.64133
2.64889
2.65671
2.66492
2.67363
2.68303
2.69329
2.70466
2.71739
2.73177
2.74811
2.76678
2.78789
2.81184
2.83911
2.87017
2.90557
2.94593
2.99194
3.04436
3.10406
3.17205
3.24946
3.33761
3.43804
3.55258
3.68339
3.83313
4.00499
4.20292
4.43178
4.69749
5.0072
5.36941
5.79126
6.28295
6.8517
7.50673
8.24507
9.03719
9.79272
10.2981
10.1688
9.07692
7.60512
7.82047
13.9093
15.2624
5.39129
4.27988
3.86736
3.58051
3.34394
3.14611
2.98305
2.85094
2.74565
2.66309
2.59946
2.55141
2.51603
2.49086
2.47386
2.46333
2.45789
2.45641
2.45798
2.46188
2.46751
2.47441
2.48222
2.49064
2.49946
2.5085
2.51764
2.52679
2.53588
2.54488
2.55377
2.56256
2.57129
2.57998
2.58872
2.5976
2.60674
2.61629
2.62644
2.63741
2.64946
2.66287
2.67795
2.69504
2.7144
2.73632
2.76121
2.78954
2.82182
2.85862
2.90059
2.94844
3.00297
3.0651
3.13588
3.21652
3.30842
3.41325
3.53301
3.67016
3.82775
4.00958
4.22055
4.46687
4.75649
5.09936
5.50736
5.99544
6.57922
7.27734
8.10319
9.0606
10.1217
11.1663
11.8602
11.5296
9.62018
8.81618
14.6394
15.7716
5.37629
4.16442
3.7221
3.42603
3.18837
2.99317
2.83456
2.70778
2.6082
2.5314
2.47343
2.43083
2.40065
2.38042
2.36809
2.36197
2.36069
2.36315
2.36845
2.37588
2.38484
2.3949
2.40569
2.41694
2.42841
2.43996
2.45145
2.4628
2.47394
2.48485
2.49549
2.50587
2.51602
2.52597
2.53577
2.54551
2.5553
2.56526
2.57559
2.5865
2.59825
2.6111
2.62537
2.64138
2.65948
2.6799
2.70301
2.72924
2.75906
2.79301
2.83167
2.87569
2.92582
2.98287
3.04778
3.12162
3.20564
3.30129
3.41032
3.53488
3.67762
3.84195
4.03228
4.25442
4.51608
4.82742
5.20213
5.65792
6.21728
6.90791
7.75813
8.79933
10.0509
11.4907
12.9714
13.9777
13.3392
10.7284
16.1475
16.4366
5.40188
4.07695
3.59989
3.29245
3.05282
2.85969
2.70511
2.58325
2.48891
2.4174
2.36456
2.32688
2.30135
2.28552
2.27733
2.27514
2.27759
2.28358
2.29224
2.30286
2.31488
2.32785
2.34141
2.3553
2.36929
2.38323
2.39699
2.41049
2.42366
2.43647
2.4489
2.46095
2.47263
2.48397
2.49502
2.50585
2.51655
2.52724
2.53809
2.54932
2.56119
2.57395
2.58791
2.60339
2.62074
2.64022
2.66217
2.68696
2.71503
2.74686
2.78297
2.82398
2.87053
2.92336
2.9833
3.05128
3.12837
3.21581
3.31507
3.42792
3.55659
3.70387
3.87346
4.07024
4.3009
4.57464
4.90423
5.30752
5.80914
6.44252
7.25163
8.2907
9.61663
11.282
13.3032
15.4975
17.0265
15.3425
18.3803
17.4084
5.44505
4.01179
3.49672
3.17596
2.93438
2.74362
2.59283
2.47557
2.38608
2.31937
2.27116
2.23784
2.21643
2.20446
2.19994
2.20121
2.20697
2.21613
2.22783
2.24138
2.25622
2.2719
2.28807
2.30447
2.32087
2.33712
2.3531
2.36872
2.38392
2.39866
2.41292
2.4267
2.44002
2.45289
2.46537
2.47751
2.48938
2.5011
2.51283
2.52477
2.53717
2.55031
2.56446
2.57993
2.59705
2.61617
2.63755
2.66154
2.68852
2.71893
2.75325
2.79201
2.8358
2.88528
2.94116
3.00424
3.07545
3.15583
3.24657
3.34913
3.46525
3.59715
3.74769
3.92068
4.12139
4.35715
4.63843
4.98039
5.40516
5.94532
6.64876
7.58457
8.84938
10.5675
12.8756
15.9064
19.6345
23.2238
22.166
18.7087
5.64601
3.9861
3.41976
3.07757
2.83226
2.64468
2.49791
2.38499
2.29993
2.2375
2.19332
2.16378
2.14591
2.13729
2.13594
2.14025
2.14894
2.16095
2.17543
2.19168
2.20916
2.22741
2.24608
2.26489
2.28362
2.30212
2.32026
2.33797
2.35518
2.37185
2.38797
2.40353
2.41854
2.43304
2.44707
2.46069
2.47396
2.48698
2.49989
2.5129
2.52623
2.54015
2.55494
2.57088
2.5883
2.60756
2.62892
2.65268
2.67919
2.70882
2.74201
2.77923
2.82101
2.86791
2.92056
2.97967
3.04599
3.12042
3.20393
3.2977
3.40307
3.52173
3.6558
3.80807
3.98232
4.18386
4.42026
4.70258
5.04725
5.47932
6.03774
6.78441
7.81916
9.30225
11.4877
14.7672
19.7704
27.8293
44.3456
14.3314
5.59723
3.98158
3.3672
3.00057
2.74757
2.56254
2.4215
2.31326
2.23232
2.17363
2.13287
2.1065
2.09159
2.08579
2.08716
2.09414
2.10545
2.12006
2.13711
2.15591
2.17589
2.1966
2.21767
2.2388
2.25978
2.28043
2.30066
2.32036
2.3395
2.35803
2.37594
2.39323
2.40992
2.42604
2.44165
2.45681
2.47161
2.48612
2.50045
2.51479
2.52937
2.54444
2.56024
2.57707
2.59523
2.61506
2.63687
2.66091
2.68746
2.71687
2.74952
2.78581
2.82621
2.87121
2.92137
2.97726
3.03955
3.10899
3.18641
3.27273
3.36903
3.47656
3.59685
3.73183
3.88406
4.05706
4.25578
4.48725
4.76174
5.0945
5.5089
6.04166
6.75276
7.74347
9.19017
11.4
14.8769
20.428
29.2067
10.6437
5.3445
3.94787
3.31972
2.94173
2.68338
2.50029
2.3653
2.26306
2.18655
2.13138
2.09361
2.0699
2.05749
2.05409
2.05785
2.06723
2.08095
2.09798
2.11746
2.13869
2.16108
2.18414
2.20747
2.23077
2.25381
2.27641
2.29849
2.31996
2.34078
2.36093
2.38039
2.39918
2.41733
2.4349
2.45196
2.46862
2.48494
2.50097
2.51682
2.53264
2.54866
2.5651
2.58221
2.60024
2.61948
2.64025
2.6629
2.68762
2.71466
2.74429
2.77686
2.81271
2.85225
2.89592
2.94416
2.99746
3.05638
3.12158
3.19375
3.2737
3.36228
3.46043
3.56925
3.69001
3.82437
3.97457
4.14359
4.33552
4.55592
4.81252
5.11611
5.48166
5.92972
6.48769
7.18948
8.07011
9.15232
10.4127
11.7127
8.35065
5.0161
3.86766
3.27215
2.90146
2.64505
2.46387
2.33408
2.23885
2.16811
2.11707
2.08243
2.06132
2.05126
2.05015
2.05618
2.06785
2.08387
2.10321
2.12499
2.14849
2.17309
2.19826
2.22355
2.24864
2.27327
2.2973
2.32067
2.34333
2.36524
2.38642
2.40687
2.42662
2.44573
2.46433
2.48255
2.50046
2.51808
2.53546
2.55271
2.56996
2.5874
2.60528
2.62381
2.64323
2.66379
2.68578
2.70954
2.73524
2.76305
2.79324
2.82606
2.86182
2.90088
2.94363
2.9904
3.04153
3.09752
3.15895
3.22648
3.30079
3.38258
3.4726
3.57169
3.68059
3.80033
3.9323
4.07834
4.2407
4.42213
4.62617
4.8571
5.11983
5.41928
5.75948
6.14242
6.56293
7.00261
7.42298
7.74921
6.7884
4.69688
3.77145
3.23933
2.88933
2.64242
2.46599
2.33997
2.25118
2.18816
2.14307
2.1126
2.09472
2.08744
2.08887
2.09731
2.11132
2.12952
2.15091
2.17462
2.19991
2.22616
2.25277
2.27921
2.3051
2.33019
2.3544
2.37774
2.40028
2.42204
2.44306
2.46334
2.48301
2.50224
2.52121
2.53996
2.55852
2.57694
2.59524
2.6135
2.63185
2.65046
2.66954
2.68935
2.71009
2.73204
2.75541
2.78045
2.80728
2.83607
2.86701
2.90032
2.93624
2.97506
3.01705
3.06247
3.11161
3.16483
3.22272
3.28594
3.35505
3.43058
3.51318
3.60378
3.70242
3.80964
3.92649
4.05415
4.19401
4.34719
4.51514
4.69948
4.90138
5.1207
5.35442
5.5974
5.84098
6.06747
6.25038
6.36505
5.73464
4.42527
3.70149
3.24336
2.92489
2.69535
2.52929
2.41053
2.3284
2.2738
2.23652
2.21164
2.19806
2.19441
2.19887
2.20972
2.22554
2.24511
2.26748
2.29183
2.31741
2.34355
2.36962
2.39507
2.41958
2.44262
2.46432
2.48494
2.50479
2.52404
2.54269
2.56094
2.57898
2.59699
2.61502
2.63311
2.65126
2.66951
2.68787
2.70639
2.72517
2.74435
2.76411
2.78468
2.8063
2.82925
2.8538
2.88005
2.90797
2.93767
2.96931
3.00306
3.03912
3.0777
3.119
3.1632
3.21039
3.26096
3.31566
3.375
3.43937
3.50919
3.5849
3.66694
3.75564
3.85141
3.95485
4.06678
4.18862
4.31996
4.46143
4.61385
4.77711
4.95011
5.12872
5.30652
5.47505
5.62278
5.73426
5.79389
5.09122
4.25971
3.70822
3.32673
3.05066
2.8506
2.70763
2.60629
2.53617
2.48943
2.45801
2.43781
2.42739
2.42526
2.42997
2.44
2.45412
2.47128
2.4909
2.51217
2.53437
2.5568
2.57875
2.59954
2.61774
2.63358
2.64756
2.66037
2.67295
2.6862
2.69961
2.71325
2.72722
2.7417
2.75673
2.77227
2.78834
2.80491
2.82199
2.83958
2.85773
2.87653
2.89612
2.91668
2.93842
2.96161
2.98663
3.01334
3.04177
3.07198
3.10397
3.13776
3.17357
3.21155
3.25185
3.29458
3.3399
3.38807
3.43982
3.49541
3.55518
3.61949
3.68864
3.76296
3.8427
3.92813
4.01957
4.11739
4.22212
4.33406
4.454
4.5827
4.71981
4.86347
5.00816
5.14983
5.28232
5.39711
5.48355
5.53118
4.80475
4.26771
3.86437
3.57113
3.35336
3.1953
3.08243
2.99813
2.93304
2.88352
2.84595
2.8196
2.80199
2.79167
2.78735
2.78803
2.79281
2.80086
2.81162
2.82435
2.83833
2.85281
2.86687
2.87984
2.89072
2.90001
2.90759
2.91359
2.91857
2.92343
2.92835
2.9336
2.93976
2.94768
2.95703
2.96757
2.97928
2.9922
3.00625
3.02137
3.03755
3.05478
3.07312
3.09268
3.11365
3.13624
3.16073
3.18679
3.21457
3.24408
3.2753
3.30833
3.34322
3.37994
3.41861
3.45946
3.5027
3.54873
3.59777
3.64962
3.70474
3.76344
3.82602
3.89273
3.96375
4.03924
4.11933
4.20419
4.29438
4.39068
4.49366
4.60305
4.71797
4.83675
4.95655
5.07387
5.18393
5.28026
5.35511
5.40095
4.84657
4.49981
4.22794
4.03024
3.87456
3.74326
3.6296
3.53469
3.4548
3.3877
3.33466
3.29364
3.2622
3.23858
3.22139
3.20952
3.20208
3.19834
3.19744
3.19873
3.20153
3.20526
3.20929
3.21351
3.21836
3.22304
3.22693
3.2297
3.23106
3.23065
3.22935
3.22773
3.22638
3.226
3.22692
3.22944
3.23409
3.24114
3.25025
3.26126
3.27403
3.28843
3.3044
3.32197
3.34129
3.36264
3.38553
3.40988
3.43569
3.46304
3.49204
3.52281
3.55529
3.5895
3.62559
3.66366
3.70388
3.74669
3.79186
3.83956
3.89002
3.943
3.99885
4.05781
4.11998
4.18552
4.25458
4.32763
4.40527
4.48783
4.57533
4.66746
4.76346
4.86201
4.9611
5.05802
5.14917
5.22987
5.29466
5.33824
5.14926
4.9287
4.74931
4.5954
4.4586
4.33838
4.23086
4.1347
4.04897
3.97415
3.91145
3.85887
3.81487
3.77808
3.74735
3.72172
3.70039
3.68262
3.66775
3.65523
3.6445
3.63526
3.62736
3.62045
3.61433
3.60864
3.60328
3.59842
3.59394
3.58948
3.58491
3.58018
3.57518
3.56963
3.56437
3.56023
3.55788
3.55789
3.56055
3.5663
3.57466
3.58531
3.59804
3.61283
3.6298
3.6488
3.66908
3.69064
3.71347
3.7376
3.76309
3.78998
3.81837
3.84845
3.88027
3.91382
3.94915
3.98647
4.02596
4.06803
4.11237
4.159
4.20801
4.25913
4.31246
4.36838
4.42709
4.48904
4.55446
4.62351
4.69618
4.77217
4.85082
4.93106
5.01139
5.08979
5.16363
5.22957
5.28382
5.32261
5.6222
5.4588
5.31534
5.18877
5.07388
4.96786
4.86896
4.77705
4.69285
4.61708
4.54928
4.48872
4.4347
4.38653
4.34347
4.30477
4.26991
4.23831
4.20947
4.183
4.15859
4.1359
4.11462
4.09459
4.07562
4.05776
4.04143
4.02666
4.01321
4.00087
3.98952
3.97904
3.96939
3.96055
3.95266
3.94592
3.94035
3.93617
3.93432
3.93569
3.94006
3.94702
3.95637
3.96814
3.98219
3.99745
4.01384
4.03134
4.04994
4.06964
4.09048
4.1125
4.13574
4.16028
4.1862
4.21354
4.2424
4.27296
4.30531
4.33951
4.37566
4.41412
4.4546
4.49699
4.5415
4.58802
4.6363
4.68669
4.73954
4.79498
4.85295
4.91319
4.97517
5.03807
5.10074
5.16169
5.21901
5.27035
5.31305
5.34446
6.19999
6.06217
5.93919
5.82688
5.72325
5.62641
5.53436
5.4464
5.36387
5.28738
5.21634
5.14985
5.08778
5.03021
4.97679
4.92705
4.88061
4.83711
4.79619
4.75749
4.72072
4.68562
4.65177
4.61936
4.58861
4.55989
4.53339
4.50897
4.48656
4.46606
4.44741
4.43054
4.41539
4.40199
4.39048
4.38099
4.37358
4.3685
4.36619
4.36598
4.36795
4.37206
4.37859
4.38696
4.39629
4.40653
4.41766
4.42968
4.4426
4.45645
4.47124
4.48701
4.50381
4.52169
4.54069
4.56084
4.58219
4.60482
4.62878
4.65414
4.68095
4.70926
4.73913
4.77081
4.80428
4.83924
4.87591
4.91436
4.95453
4.99628
5.03955
5.08427
5.13007
5.17632
5.22213
5.26642
5.30782
5.34466
5.3751
5.39723
6.87967
6.75287
6.6324
6.5203
6.41855
6.32398
6.23288
6.14362
6.05701
5.97462
5.89658
5.82287
5.75339