/*--------------------------------*- C++ -*----------------------------------*\
| =========                 |                                                 |
| \\      /  F ield         | OpenFOAM: The Open Source CFD Toolbox           |
|  \\    /   O peration     | Version:  v2012                                 |
|   \\  /    A nd           | Website:  www.openfoam.com                      |
|    \\/     M anipulation  |                                                 |
\*---------------------------------------------------------------------------*/
FoamFile
{
    version     2.0;
    format      ascii;
    class       volScalarField;
    location    "500";
    object      p;
}
// * * * * * * * * * * * * * * * * * * * * * * * * * * * * * * * * * * * * * //

dimensions      [0 2 -2 0 0 0 0];


internalField   nonuniform List<scalar> 
6556
(
0.392392
0.391768
0.39143
0.391287
0.391226
0.391226
0.391287
0.391429
0.391767
0.392392
0.391696
0.391518
0.391345
0.391237
0.391187
0.391187
0.391237
0.391344
0.391518
0.391695
0.391215
0.39123
0.391161
0.391086
0.39105
0.39105
0.391085
0.39116
0.391229
0.391214
0.390923
0.390979
0.390944
0.390889
0.390864
0.390863
0.390888
0.390942
0.390978
0.390922
0.390688
0.390749
0.390726
0.390681
0.390661
0.39066
0.39068
0.390724
0.390747
0.390686
0.390464
0.390521
0.390502
0.390466
0.390448
0.390447
0.390464
0.390499
0.390518
0.390461
0.390244
0.390294
0.390274
0.390243
0.390228
0.390227
0.39024
0.390271
0.390289
0.390239
0.390028
0.39007
0.390049
0.390019
0.390005
0.390003
0.390015
0.390043
0.390063
0.390021
0.389813
0.389849
0.389826
0.389797
0.389783
0.389781
0.389791
0.389817
0.389838
0.389803
0.3896
0.389629
0.389605
0.389577
0.389561
0.389558
0.389567
0.389591
0.389613
0.389584
0.389387
0.389412
0.389386
0.389357
0.389341
0.389336
0.389343
0.389365
0.389387
0.389363
0.389177
0.389197
0.38917
0.38914
0.389121
0.389113
0.389118
0.389138
0.38916
0.38914
0.388969
0.388986
0.388957
0.388924
0.388902
0.38889
0.388892
0.388909
0.38893
0.388913
0.388767
0.38878
0.388748
0.388712
0.388683
0.388666
0.388663
0.388676
0.388696
0.388682
0.388573
0.388583
0.388547
0.388503
0.388466
0.388439
0.388428
0.388437
0.388456
0.388446
0.388392
0.388399
0.388356
0.388301
0.388249
0.388207
0.388184
0.388187
0.388209
0.388203
0.388232
0.388234
0.38818
0.388107
0.388032
0.387966
0.387923
0.387919
0.387949
0.387957
0.388103
0.388099
0.388029
0.387928
0.387817
0.38771
0.387633
0.387616
0.387671
0.387716
0.388021
0.388009
0.387916
0.387773
0.387604
0.387428
0.387277
0.387217
0.387322
0.387552
0.388011
0.38799
0.387866
0.387664
0.387408
0.387121
0.386837
0.386702
0.386913
0.387611
0.388104
0.388075
0.387912
0.387631
0.387252
0.386787
0.386226
0.385652
0.385017
0.381084
0.388343
0.388309
0.388107
0.387743
0.387236
0.386595
0.385751
0.384569
0.38396
0.386175
0.388778
0.388746
0.388508
0.388064
0.387435
0.386649
0.385671
0.384187
0.38229
0.384082
0.389459
0.389436
0.389166
0.388644
0.387892
0.386941
0.385799
0.384129
0.381193
0.381608
0.390441
0.39043
0.390128
0.389525
0.388645
0.387516
0.386169
0.38442
0.381205
0.380771
0.391776
0.391781
0.391444
0.390754
0.389739
0.388428
0.386855
0.384964
0.381551
0.380049
0.393526
0.393548
0.393171
0.392382
0.391212
0.389691
0.387847
0.385723
0.382155
0.379326
0.395755
0.395795
0.395371
0.394465
0.393111
0.39134
0.389162
0.386665
0.382904
0.378928
0.398537
0.398594
0.398119
0.397076
0.395508
0.393448
0.390888
0.387883
0.383786
0.379304
0.401965
0.402045
0.401502
0.400303
0.398497
0.39612
0.393174
0.389679
0.385171
0.380392
0.406128
0.406234
0.405608
0.404238
0.402168
0.399444
0.396091
0.392132
0.387291
0.382135
0.411119
0.411245
0.41053
0.408969
0.406604
0.403489
0.399671
0.395204
0.390028
0.384426
0.41705
0.417193
0.416378
0.414598
0.411895
0.408332
0.403974
0.398919
0.393261
0.387185
0.424045
0.424205
0.42327
0.421237
0.418148
0.414072
0.409089
0.403337
0.397027
0.390368
0.432237
0.432411
0.431337
0.429016
0.425487
0.420826
0.415127
0.408556
0.401415
0.393996
0.441765
0.44195
0.440719
0.438076
0.434055
0.428736
0.422223
0.41471
0.406558
0.398182
0.452773
0.452968
0.451562
0.448569
0.444011
0.437967
0.430552
0.421977
0.412651
0.403114
0.465406
0.46561
0.464017
0.460651
0.455523
0.448706
0.440317
0.430584
0.419945
0.409048
0.479794
0.480008
0.47822
0.474471
0.468758
0.461143
0.451744
0.440793
0.428749
0.416342
0.496052
0.496276
0.494287
0.490156
0.483862
0.475455
0.465047
0.452871
0.439392
0.425387
0.514259
0.514485
0.512295
0.507794
0.500943
0.49178
0.48041
0.467056
0.452175
0.436558
0.534434
0.534656
0.532265
0.527412
0.520049
0.510194
0.497947
0.483518
0.46734
0.450181
0.556537
0.556742
0.554149
0.548967
0.541145
0.530686
0.517683
0.502331
0.485026
0.466485
0.580455
0.580624
0.57782
0.572329
0.564107
0.553144
0.53953
0.523442
0.505236
0.485552
0.605993
0.606099
0.603065
0.597272
0.588705
0.577341
0.56327
0.546657
0.52781
0.507284
0.632875
0.632878
0.629579
0.62348
0.614609
0.602939
0.588562
0.571633
0.552419
0.531383
0.660737
0.660588
0.656973
0.650541
0.641392
0.629495
0.614949
0.597902
0.578581
0.557366
0.68913
0.688771
0.684773
0.677964
0.668547
0.65649
0.641892
0.624899
0.605704
0.584611
0.71752
0.716882
0.712421
0.705183
0.695503
0.683345
0.668803
0.652014
0.633139
0.612418
0.745271
0.744282
0.739277
0.731571
0.721649
0.709463
0.695084
0.678636
0.660246
0.640093
0.771626
0.770209
0.764608
0.756442
0.746353
0.734253
0.720173
0.704208
0.686446
0.667013
0.795634
0.793728
0.787593
0.779095
0.768999
0.757169
0.743572
0.728258
0.711268
0.692677
0.816085
0.813694
0.807297
0.798797
0.789008
0.777745
0.764887
0.75043
0.734368
0.716727
0.831032
0.829205
0.823143
0.815011
0.80594
0.795645
0.783854
0.770496
0.755527
0.738936
0.838639
0.838455
0.834125
0.827274
0.819555
0.810721
0.800364
0.788361
0.774648
0.75919
0.840807
0.841474
0.839675
0.835328
0.829802
0.82298
0.81443
0.80401
0.79167
0.777377
0.841065
0.841409
0.841207
0.839674
0.836926
0.832577
0.82618
0.817557
0.806672
0.793537
0.841041
0.840649
0.840846
0.841451
0.841409
0.839683
0.835634
0.828951
0.819578
0.807567
0.841671
0.840807
0.84088
0.842451
0.844467
0.845072
0.843061
0.838006
0.829953
0.81889
0.84279
0.842304
0.84269
0.844713
0.847676
0.84995
0.849792
0.846338
0.839944
0.830398
0.359807
0.362768
0.364636
0.366455
0.368038
0.369274
0.370042
0.370207
0.369865
0.369054
0.367815
0.36634
0.364742
0.363108
0.361624
0.360467
0.359731
0.359472
0.359732
0.36049
0.361622
0.362892
0.363964
0.364549
0.364742
0.36799
0.364295
0.363793
0.364727
0.3659
0.366968
0.367739
0.368009
0.367665
0.366794
0.365576
0.364164
0.362697
0.361299
0.360097
0.359184
0.358639
0.358512
0.358838
0.359603
0.36073
0.36207
0.363394
0.364333
0.36476
0.368296
0.364756
0.363573
0.363795
0.364499
0.365222
0.365747
0.365869
0.365501
0.36473
0.363686
0.362453
0.361152
0.359938
0.358929
0.358196
0.357784
0.357717
0.358007
0.358642
0.359578
0.360729
0.361969
0.363095
0.363875
0.366698
0.363643
0.362518
0.362627
0.363299
0.363981
0.364444
0.364514
0.364106
0.363319
0.362296
0.361113
0.359869
0.358718
0.357783
0.35712
0.35676
0.356712
0.356971
0.357519
0.358312
0.359276
0.360312
0.361327
0.362215
0.366945
0.362591
0.360949
0.361021
0.361856
0.362648
0.363188
0.363298
0.362926
0.36216
0.361135
0.359955
0.358739
0.357632
0.356738
0.356114
0.355778
0.355725
0.355942
0.356409
0.357084
0.357904
0.358779
0.359636
0.36051
0.368053
0.362314
0.359715
0.359621
0.360439
0.361316
0.361964
0.362168
0.361877
0.361166
0.36016
0.358987
0.35779
0.356709
0.35585
0.355259
0.354944
0.354889
0.355071
0.355466
0.356035
0.356728
0.357465
0.358156
0.358889
0.368567
0.362506
0.359367
0.358901
0.359453
0.360288
0.360954
0.361238
0.361035
0.360388
0.359407
0.358244
0.357065
0.356013
0.355188
0.354631
0.354341
0.354288
0.354445
0.35478
0.355259
0.355834
0.356438
0.356967
0.35754
0.368841
0.363215
0.359986
0.358977
0.359121
0.359771
0.360383
0.360665
0.360506
0.35991
0.358951
0.357797
0.356631
0.355604
0.354812
0.35429
0.354024
0.353979
0.354117
0.354406
0.35481
0.355287
0.355777
0.356175
0.356605
0.369956
0.364566
0.361286
0.359843
0.359617
0.36
0.360459
0.360645
0.360435
0.359863
0.358901
0.357726
0.356552
0.355529
0.354755
0.354256
0.35401
0.353974
0.354101
0.354358
0.354708
0.35511
0.355511
0.355808
0.356115
0.371928
0.366626
0.363265
0.361522
0.360979
0.361081
0.361322
0.361346
0.361009
0.36032
0.359325
0.358088
0.356868
0.355812
0.355027
0.354532
0.354297
0.354268
0.354392
0.354631
0.354943
0.355292
0.35562
0.355842
0.356051
0.374439
0.36924
0.365842
0.363902
0.363087
0.36291
0.362929
0.362792
0.36232
0.361459
0.360317
0.358946
0.357619
0.356468
0.35562
0.355094
0.354853
0.35483
0.354957
0.355189
0.355484
0.355799
0.356075
0.35624
0.356365
0.377283
0.372231
0.368832
0.366776
0.36576
0.365358
0.365156
0.364824
0.364216
0.363254
0.361925
0.3604
0.358859
0.357525
0.356536
0.355919
0.355635
0.35561
0.355745
0.355983
0.356277
0.35658
0.356826
0.356942
0.356983
0.380339
0.375381
0.371991
0.36988
0.368747
0.368191
0.367824
0.36734
0.366582
0.365503
0.36413
0.362522
0.36067
0.359042
0.357806
0.357013
0.356625
0.356561
0.356699
0.356948
0.357256
0.357571
0.357816
0.357876
0.357779
0.383534
0.378536
0.375121
0.372967
0.371758
0.371103
0.370636
0.370077
0.369268
0.368156
0.366764
0.365126
0.363197
0.36118
0.35956
0.358439
0.357845
0.357669
0.35777
0.358019
0.358348
0.358706
0.359021
0.359046
0.358508
0.386866
0.381614
0.378066
0.375831
0.374536
0.373812
0.373304
0.372741
0.371975
0.370958
0.369636
0.368027
0.366226
0.364158
0.362068
0.360442
0.359388
0.35895
0.358958
0.359182
0.359503
0.359875
0.36026
0.36033
0.35902
0.390464
0.384704
0.380782
0.378319
0.376893
0.376104
0.375572
0.375036
0.374371
0.373559
0.372501
0.371099
0.369418
0.367574
0.365447
0.363434
0.36179
0.360641
0.360141
0.360232
0.360544
0.360891
0.361283
0.361732
0.362329
0.394502
0.387966
0.38339
0.380487
0.378819
0.377893
0.377307
0.376787
0.376248
0.375655
0.374889
0.373856
0.372559
0.371009
0.369414
0.367623
0.36579
0.363993
0.362578
0.361722
0.361438
0.361693
0.362451
0.363696
0.36531
0.399228
0.391616
0.386152
0.382582
0.380462
0.379265
0.378556
0.378029
0.37757
0.377126
0.376613
0.375961
0.375173
0.374289
0.373348
0.372339
0.371208
0.370196
0.369244
0.368259
0.367571
0.36745
0.368087
0.369813
0.372931
0.405058
0.39606
0.389405
0.384889
0.382065
0.380407
0.37945
0.37885
0.378408
0.378048
0.377718
0.37739
0.377066
0.376771
0.376574
0.376507
0.376559
0.376858
0.377261
0.37781
0.378637
0.379855
0.381389
0.383773
0.387429
0.41245
0.401799
0.393615
0.387815
0.383988
0.381614
0.380206
0.379373
0.378865
0.378548
0.37833
0.378205
0.37821
0.37836
0.378682
0.379259
0.380156
0.381393
0.382922
0.384716
0.386766
0.389025
0.391417
0.393976
0.396723
0.421858
0.409347
0.399332
0.391901
0.386733
0.383335
0.381206
0.379924
0.379173
0.378765
0.378597
0.37862
0.378839
0.379267
0.379917
0.380857
0.382172
0.383903
0.385968
0.388261
0.39074
0.393368
0.396046
0.398646
0.401051
0.433704
0.419217
0.40714
0.397764
0.390907
0.386143
0.382983
0.380977
0.379771
0.379107
0.378828
0.378866
0.379202
0.379824
0.380718
0.381882
0.383365
0.385245
0.387492
0.389956
0.392526
0.395162
0.3978
0.400335
0.402652
0.448332
0.431871
0.417605
0.406036
0.397167
0.390686
0.38615
0.383105
0.381163
0.380019
0.379461
0.379359
0.379655
0.380324
0.381354
0.382729
0.384412
0.386374
0.388598
0.391001
0.393483
0.395982
0.398452
0.400826
0.403024
0.465936
0.44764
0.431198
0.417302
0.406169
0.397644
0.391375
0.386939
0.383933
0.382017
0.380928
0.380483
0.380574
0.381148
0.382189
0.383676
0.385494
0.387502
0.389645
0.391914
0.394259
0.396604
0.398898
0.401094
0.403137
0.486514
0.466656
0.448212
0.432015
0.418487
0.407668
0.399339
0.393151
0.388722
0.385693
0.383762
0.3827
0.382349
0.382629
0.383524
0.38494
0.386679
0.388594
0.390644
0.392821
0.395053
0.397266
0.399417
0.401463
0.403361
0.509833
0.488794
0.468683
0.450393
0.434514
0.421284
0.410657
0.4024
0.396188
0.391677
0.388549
0.386535
0.385432
0.385128
0.385591
0.386652
0.388086
0.3898
0.391737
0.393816
0.39594
0.398045
0.400079
0.401994
0.403772
0.535433
0.513659
0.492335
0.472335
0.454347
0.438781
0.425768
0.415226
0.40693
0.400588
0.395893
0.392554
0.390328
0.389075
0.388739
0.38917
0.390152
0.391533
0.393208
0.395071
0.397025
0.398988
0.400891
0.402692
0.404377
0.562668
0.540608
0.51858
0.497376
0.477702
0.460079
0.444794
0.431923
0.421371
0.412933
0.406347
0.401334
0.397619
0.395009
0.39352
0.393095
0.393419
0.394239
0.395434
0.396907
0.398551
0.400268
0.401977
0.403622
0.405185
0.590783
0.568835
0.546593
0.524726
0.503899
0.484668
0.467429
0.452392
0.439598
0.428956
0.420283
0.413347
0.407886
0.403644
0.400587
0.398884
0.398296
0.398351
0.398858
0.399737
0.400889
0.402203
0.403586
0.404969
0.406304
0.619008
0.597483
0.575429
0.553391
0.531949
0.51164
0.492906
0.47605
0.461228
0.448465
0.43768
0.428716
0.421368
0.415404
0.410622
0.407148
0.405122
0.404162
0.403818
0.403919
0.404373
0.405086
0.40597
0.406944
0.40794
0.646649
0.625758
0.604177
0.582341
0.560736
0.539849
0.520117
0.501887
0.485396
0.470767
0.458015
0.447073
0.437813
0.430069
0.423654
0.418457
0.414551
0.41193
0.410358
0.409528
0.409162
0.409129
0.409357
0.409762
0.410267
0.673145
0.653014
0.632071
0.61067
0.589215
0.568131
0.547829
0.528662
0.51091
0.494761
0.480311
0.467576
0.456505
0.447004
0.43895
0.432218
0.426679
0.422293
0.419035
0.416728
0.415161
0.414185
0.413661
0.413418
0.413335
0.698099
0.678785
0.658551
0.637691
0.616549
0.595502
0.574924
0.555161
0.536507
0.519187
0.503352
0.489082
0.476393
0.465249
0.455583
0.447304
0.440313
0.43451
0.429743
0.425901
0.422939
0.420722
0.41908
0.417879
0.417012
0.721257
0.702771
0.683243
0.662933
0.64215
0.621234
0.600537
0.580389
0.561088
0.542879
0.525944
0.510408
0.496334
0.483736
0.472588
0.462836
0.454405
0.447204
0.441124
0.436059
0.431896
0.428475
0.425665
0.423419
0.42167
0.742476
0.724788
0.705913
0.686097
0.66563
0.644839
0.624063
0.603627
0.583827
0.564917
0.5471
0.530526
0.515293
0.50145
0.489006
0.477935
0.468185
0.459685
0.452347
0.44607
0.440747
0.436263
0.43251
0.4294
0.426837
0.761598
0.74464
0.726327
0.706913
0.686683
0.665962
0.645089
0.624392
0.604166
0.584672
0.566125
0.548693
0.532495
0.517606
0.504059
0.491853
0.480957
0.471315
0.462857
0.455495
0.449134
0.443674
0.439013
0.435053
0.4317
0.778622
0.762275
0.744373
0.725185
0.705024
0.684243
0.663198
0.642217
0.621593
0.601585
0.582416
0.564263
0.547262
0.531504
0.51704
0.503886
0.492027
0.481425
0.47202
0.463737
0.456492
0.450193
0.444743
0.440049
0.436018
0.793405
0.777501
0.759833
0.74075
0.720587
0.699693
0.678442
0.657178
0.636192
0.615742
0.596052
0.577307
0.559651
0.543187
0.527977
0.514051
0.501408
0.490018
0.479834
0.470792
0.462814
0.455816
0.449708
0.4444
0.439803
0.805186
0.789486
0.771899
0.752787
0.732523
0.711488
0.690033
0.66849
0.647158
0.626301
0.606152
0.586902
0.568703
0.551665
0.535862
0.521333
0.508084
0.496097
0.485328
0.475721
0.467205
0.459697
0.453112
0.447358
0.44234
0.817592
0.80218
0.784701
0.765571
0.745163
0.723865
0.702052
0.680074
0.658245
0.636842
0.616107
0.59624
0.577404
0.559719
0.543267
0.528095
0.514217
0.50162
0.490271
0.48012
0.471097
0.463123
0.456114
0.449982
0.444646
0.356273
0.35615
0.356136
0.362686
0.362656
0.366861
0.367487
0.372508
0.380368
0.377
0.383125
0.390072
0.391261
0.394693
0.397968
0.399287
0.401434
0.403279
0.40307
0.404736
0.406147
0.40455
0.406074
0.407345
0.404853
0.406337
0.407583
0.404864
0.406291
0.407518
0.404981
0.406335
0.407516
0.405295
0.406566
0.407681
0.405808
0.406989
0.408029
0.406527
0.407625
0.408576
0.407465
0.40846
0.409347
0.408842
0.409619
0.410329
0.410779
0.41126
0.411721
0.413361
0.413446
0.413562
0.416425
0.416028
0.415737
0.420385
0.419415
0.418608
0.424852
0.42328
0.421919
0.429043
0.426913
0.425053
0.432781
0.430165
0.427866
0.436085
0.433051
0.430371
0.438231
0.434885
0.431928
0.44021
0.436531
0.433345
0.431817
0.431772
0.431675
0.431339
0.4305
0.429159
0.427442
0.425474
0.423364
0.421195
0.419029
0.416906
0.414853
0.412888
0.411021
0.409256
0.407595
0.406038
0.404582
0.403225
0.401964
0.400794
0.399714
0.398718
0.397805
0.396971
0.396214
0.395533
0.394925
0.394391
0.393929
0.39354
0.393225
0.392984
0.39282
0.392735
0.392732
0.392818
0.392996
0.393268
0.393639
0.394113
0.394702
0.395416
0.39626
0.397239
0.398361
0.399635
0.401067
0.402665
0.404432
0.406372
0.408485
0.410765
0.413205
0.415787
0.418486
0.421264
0.424069
0.426834
0.429473
0.431866
0.433843
0.435241
0.436014
0.436285
0.435966
0.43501
0.43352
0.431471
0.42895
0.42634
0.423964
0.422037
0.420853
0.420673
0.42155
0.423091
0.424462
0.425101
0.431931
0.431813
0.431667
0.431139
0.430114
0.428697
0.426966
0.425028
0.422973
0.42087
0.418772
0.416714
0.41472
0.412807
0.410984
0.409256
0.407626
0.406094
0.404658
0.403317
0.402067
0.400907
0.399831
0.398839
0.397926
0.39709
0.39633
0.395642
0.395027
0.394482
0.394007
0.393603
0.393271
0.39301
0.392823
0.392714
0.392683
0.392731
0.392865
0.39309
0.393413
0.393837
0.394368
0.395008
0.395769
0.396656
0.397678
0.39884
0.400147
0.401605
0.403217
0.404985
0.406907
0.408977
0.411187
0.41352
0.415952
0.418449
0.420966
0.423444
0.425813
0.42798
0.429823
0.431229
0.432182
0.432726
0.432745
0.432063
0.430637
0.428615
0.42619
0.423704
0.421517
0.419814
0.418834
0.418767
0.419718
0.421496
0.423445
0.42464
0.432061
0.431646
0.431096
0.430215
0.428991
0.427501
0.425798
0.42395
0.422016
0.420044
0.418074
0.416133
0.414245
0.412423
0.410679
0.409019
0.407446
0.405962
0.404567
0.40326
0.402039
0.400901
0.399845
0.398867
0.397965
0.397137
0.396381
0.395695
0.395078
0.394529
0.394048
0.393633
0.393287
0.39301
0.392803
0.392669
0.39261
0.392628
0.392727
0.392911
0.393186
0.393556
0.394026
0.394602
0.39529
0.396095
0.397024
0.398082
0.399275
0.400606
0.402079
0.403693
0.405447
0.407335
0.409349
0.411472
0.413683
0.415952
0.418241
0.4205
0.422674
0.424702
0.426497
0.42793
0.428928
0.429493
0.429553
0.429007
0.427859
0.426198
0.42415
0.42199
0.420062
0.418601
0.417751
0.417594
0.418185
0.419456
0.421133
0.422591
0.431528
0.43082
0.429959
0.42887
0.427551
0.426048
0.424401
0.422652
0.42084
0.418998
0.417155
0.415335
0.413557
0.411835
0.410179
0.408597
0.407092
0.405668
0.404324
0.403062
0.401879
0.400773
0.399743
0.398787
0.397903
0.397088
0.396341
0.39566
0.395045
0.394494
0.394006
0.393582
0.393222
0.392927
0.392698
0.392537
0.392446
0.392428
0.392486
0.392624
0.392846
0.393157
0.393561
0.394062
0.394668
0.395383
0.396213
0.397164
0.398239
0.399442
0.400777
0.402244
0.403842
0.405567
0.40741
0.40936
0.411398
0.413501
0.415636
0.417762
0.419834
0.421806
0.423624
0.425181
0.426326
0.42698
0.427113
0.426689
0.425745
0.424388
0.422702
0.420835
0.419079
0.417708
0.416869
0.416628
0.416971
0.4178
0.418951
0.42021
0.430225
0.429351
0.42839
0.427254
0.425927
0.424454
0.422873
0.421215
0.419509
0.41778
0.416053
0.414345
0.412674
0.411052
0.409488
0.407989
0.40656
0.405203
0.403919
0.402709
0.401571
0.400505
0.399509
0.398582
0.397721
0.396925
0.396192
0.39552
0.39491
0.39436
0.393869
0.393438
0.393067
0.392756
0.392507
0.392321
0.392201
0.392148
0.392166
0.392258
0.392428
0.392681
0.39302
0.39345
0.393976
0.394604
0.395339
0.396185
0.397148
0.39823
0.399435
0.400763
0.402215
0.403787
0.405472
0.407262
0.409141
0.41109
0.413081
0.415082
0.41705
0.418938
0.420695
0.422242
0.423465
0.424275
0.42463
0.424506
0.423919
0.422935
0.421618
0.420064
0.418518
0.417249
0.416425
0.416108
0.416259
0.416784
0.417503
0.418455
0.428452
0.427469
0.42649
0.42537
0.424085
0.422675
0.421175
0.419613
0.418013
0.416397
0.414783
0.413188
0.411625
0.410106
0.408638
0.407228
0.40588
0.404596
0.403378
0.402226
0.40114
0.40012
0.399163
0.398269
0.397435
0.396662
0.395946
0.395288
0.394686
0.39414
0.393648
0.393212
0.392831
0.392505
0.392237
0.392027
0.391877
0.39179
0.391768
0.391815
0.391934
0.392129
0.392404
0.392763
0.393212
0.393754
0.394395
0.395139
0.395991
0.396955
0.398033
0.399226
0.400536
0.401959
0.403491
0.405124
0.406847
0.408643
0.41049
0.412362
0.414223
0.416033
0.417741
0.419281
0.420574
0.421562
0.422202
0.422458
0.422303
0.421753
0.420836
0.419635
0.418361
0.417254
0.416483
0.416114
0.416118
0.416406
0.416788
0.417375
0.426245
0.425252
0.424315
0.42325
0.422041
0.420721
0.419322
0.41787
0.416385
0.414887
0.413391
0.411911
0.41046
0.409047
0.407678
0.40636
0.405096
0.403889
0.402741
0.401651
0.400621
0.399649
0.398734
0.397876
0.397074
0.396325
0.39563
0.394986
0.394394
0.393853
0.393362
0.392922
0.392532
0.392194
0.391907
0.391674
0.391496
0.391376
0.391315
0.391318
0.391386
0.391525
0.391738
0.392029
0.392402
0.392862
0.393413
0.394059
0.394806
0.395656
0.396613
0.397677
0.398851
0.400132
0.401517
0.403
0.404573
0.406222
0.40793
0.409676
0.41143
0.413161
0.414828
0.416381
0.417767
0.418935
0.419839
0.420441
0.4207
0.420603
0.420153
0.419405
0.418508
0.417656
0.41701
0.416625
0.416494
0.416551
0.416671
0.416955
0.423688
0.422757
0.421904
0.420931
0.419832
0.41863
0.417355
0.416028
0.41467
0.413298
0.411926
0.410567
0.40923
0.407925
0.406657
0.405432
0.404255
0.403126
0.402049
0.401023
0.400049
0.399127
0.398256
0.397436
0.396665
0.395942
0.395268
0.39464
0.394059
0.393524
0.393035
0.392591
0.392194
0.391843
0.391539
0.391285
0.39108
0.390928
0.39083
0.39079
0.390811
0.390896
0.39105
0.391276
0.391578
0.39196
0.392427
0.392983
0.393632
0.394377
0.395222
0.396168
0.397216
0.398367
0.399619
0.400966
0.402402
0.403918
0.4055
0.40713
0.408788
0.410447
0.412076
0.413637
0.415095
0.416411
0.417534
0.418431
0.419083
0.419447
0.419509
0.419279
0.418844
0.418332
0.41787
0.417486
0.41722
0.417093
0.417026
0.417068
0.420876
0.420032
0.419286
0.418442
0.417489
0.416437
0.415311
0.414131
0.412916
0.411681
0.410441
0.409206
0.407986
0.40679
0.405624
0.404493
0.403401
0.40235
0.401343
0.40038
0.399462
0.398589
0.39776
0.396977
0.396237
0.39554
0.394886
0.394274
0.393704
0.393175
0.392688
0.392242
0.391838
0.391475
0.391156
0.390881
0.390651
0.390469
0.390336
0.390256
0.390232
0.390267
0.390366
0.390532
0.390769
0.391081
0.391472
0.391946
0.392507
0.393158
0.393903
0.394744
0.395683
0.39672
0.397855
0.399084
0.400403
0.401806
0.403281
0.404817
0.406396
0.407999
0.409601
0.411177
0.412703
0.414156
0.415446
0.416581
0.417578
0.418355
0.418897
0.419179
0.419235
0.419099
0.418834
0.418479
0.418116
0.417826
0.417601
0.417441
0.417798
0.417064
0.416463
0.415801
0.415043
0.414182
0.413238
0.412229
0.411175
0.410089
0.408987
0.407881
0.40678
0.405693
0.404626
0.403586
0.402576
0.4016
0.40066
0.399756
0.398891
0.398065
0.397277
0.396528
0.395817
0.395144
0.394509
0.393912
0.393352
0.392829
0.392343
0.391895
0.391484
0.391111
0.390777
0.390482
0.390229
0.390019
0.389853
0.389736
0.389671
0.389661
0.38971
0.389821
0.39
0.390249
0.390573
0.390975
0.391459
0.392029
0.392689
0.393441
0.394287
0.395229
0.396267
0.397399
0.398624
0.399937
0.401329
0.402793
0.404315
0.405881
0.407472
0.409066
0.410641
0.412178
0.413674
0.415074
0.416315
0.417403
0.418351
0.419068
0.419538
0.419804
0.419774
0.419465
0.419022
0.418532
0.418109
0.417755
0.414292
0.413726
0.413378
0.413011
0.412528
0.411914
0.411191
0.410382
0.409506
0.408581
0.407622
0.406645
0.405661
0.404679
0.403707
0.402753
0.40182
0.400913
0.400034
0.399185
0.398368
0.397583
0.396831
0.396113
0.395428
0.394776
0.394158
0.393573
0.393022
0.392504
0.392019
0.391568
0.391151
0.390768
0.390419
0.390107
0.389832
0.389595
0.3894
0.389249
0.389146
0.389094
0.389098
0.389162
0.38929
0.389484
0.38975
0.390091
0.39051
0.391013
0.391602
0.39228
0.393052
0.393917
0.394879
0.395937
0.39709
0.398336
0.399671
0.401087
0.402576
0.404128
0.405728
0.40736
0.409006
0.410645
0.412261
0.413836
0.415358
0.416779
0.418042
0.419075
0.419903
0.420462
0.420662
0.420451
0.419892
0.419211
0.418414
0.417788
0.410006
0.409822
0.409942
0.410069
0.409996
0.409702
0.409244
0.40866
0.407977
0.407217
0.406402
0.40555
0.404676
0.403792
0.402907
0.402029
0.401165
0.400318
0.399493
0.398691
0.397915
0.397166
0.396445
0.395752
0.395089
0.394454
0.39385
0.393275
0.39273
0.392215
0.39173
0.391276
0.390852
0.390459
0.390098
0.389769
0.389474
0.389213
0.388989
0.388806
0.388668
0.38858
0.388546
0.388568
0.388652
0.3888
0.389017
0.389307
0.389674
0.390122
0.390654
0.391275
0.391989
0.392797
0.393702
0.394706
0.39581
0.397012
0.398311
0.399703
0.401183
0.402742
0.404371
0.406058
0.407788
0.409544
0.411307
0.413058
0.414773
0.416429
0.418029
0.419455
0.420655
0.421525
0.421962
0.421822
0.421038
0.420048
0.418794
0.417577
0.403861
0.404755
0.405988
0.406924
0.407471
0.407626
0.40748
0.407142
0.406657
0.406061
0.405382
0.404644
0.403869
0.403069
0.402258
0.401446
0.400638
0.399841
0.399059
0.398296
0.397552
0.396831
0.396134
0.395461
0.394814
0.394192
0.393597
0.393029
0.392488
0.391974
0.391488
0.39103
0.390599
0.390198
0.389825
0.389481
0.389167
0.388882
0.38863
0.388416
0.388247
0.388128
0.38806
0.388048
0.388095
0.388205
0.388383
0.388632
0.388957
0.389362
0.389852
0.39043
0.391101
0.391868
0.392735
0.393704
0.394777
0.395957
0.397241
0.398631
0.400121
0.401708
0.403385
0.405144
0.406972
0.408857
0.410781
0.412726
0.414669
0.416583
0.41844
0.420189
0.421821
0.42314
0.423993
0.424174
0.42356
0.422027
0.419309
0.416865
0.394523
0.398879
0.401787
0.403747
0.405047
0.405783
0.406025
0.405929
0.405627
0.405175
0.404612
0.40397
0.403273
0.402541
0.401787
0.401024
0.400259
0.399499
0.398749
0.398012
0.397292
0.396591
0.39591
0.39525
0.394613
0.393999
0.39341
0.392845
0.392305
0.391791
0.391302
0.390839
0.390402
0.389991
0.389608
0.389253
0.388923
0.388613
0.388329
0.388082
0.387885
0.387741
0.387647
0.387607
0.387624
0.387704
0.387851
0.388069
0.388363
0.388737
0.389195
0.389743
0.390386
0.391127
0.39197
0.392921
0.393981
0.395155
0.396443
0.397846
0.399365
0.400997
0.402739
0.404584
0.406526
0.408554
0.410655
0.412813
0.415006
0.417212
0.419399
0.421533
0.423581
0.425437
0.426928
0.427949
0.428931
0.428181
0.422318
0.414507
0.375796
0.39096
0.39723
0.400855
0.403002
0.404309
0.404972
0.40512
0.404959
0.404613
0.404133
0.403557
0.402913
0.402224
0.401507
0.400775
0.400037
0.3993
0.398569
0.397848
0.397142
0.396451
0.395779
0.395125
0.394493
0.393882
0.393294
0.392729
0.392188
0.391671
0.391178
0.390709
0.390265
0.389847
0.389455
0.389086
0.388734
0.388402
0.388096
0.387824
0.387596
0.387424
0.387309
0.387248
0.387243
0.3873
0.387424
0.387619
0.38789
0.388242
0.38868
0.38921
0.389836
0.390563
0.391397
0.392343
0.393404
0.394586
0.395891
0.397323
0.398883
0.400572
0.40239
0.404334
0.4064
0.408583
0.410873
0.41326
0.415729
0.418262
0.420837
0.423433
0.426029
0.428596
0.431103
0.433619
0.436354
0.438786
0.439462
0.443287
0.379774
0.39
0.395786
0.39977
0.402143
0.403614
0.404468
0.404789
0.404715
0.404414
0.403969
0.40342
0.402797
0.402125
0.401422
0.400702
0.399973
0.399244
0.398519
0.397804
0.397101
0.396413
0.395741
0.395088
0.394454
0.393842
0.393251
0.392683
0.392139
0.391618
0.39112
0.390645
0.390195
0.389768
0.389362
0.388969
0.388594
0.388247
0.387934
0.387651
0.387401
0.387196
0.387052
0.386972
0.386952
0.386993
0.387101
0.38728
0.387537
0.387876
0.388303
0.388824
0.389443
0.390167
0.391002
0.391954
0.393027
0.394227
0.39556
0.39703
0.39864
0.400394
0.402294
0.404341
0.406535
0.408875
0.411357
0.413976
0.416726
0.419596
0.422577
0.425658
0.428833
0.432101
0.435494
0.439123
0.443111
0.447439
0.452931
0.462287
0.388496
0.394421
0.398304
0.401106
0.402873
0.404002
0.404688
0.404978
0.404907
0.404587
0.40412
0.403552
0.402916
0.402233
0.401521
0.400794
0.400059
0.399324
0.398595
0.397875
0.397167
0.396473
0.395796
0.395137
0.394498
0.39388
0.393284
0.392712
0.392163
0.391637
0.391134
0.390653
0.390196
0.389754
0.389321
0.388905
0.388518
0.388164
0.387843
0.387554
0.387296
0.387072
0.386896
0.386786
0.386748
0.38678
0.38688
0.387051
0.387301
0.387634
0.388058
0.388577
0.389198
0.389928
0.390773
0.391738
0.392831
0.394058
0.395425
0.396938
0.398602
0.400424
0.402406
0.404554
0.406871
0.409359
0.41202
0.414857
0.417869
0.421056
0.424419
0.42796
0.431685
0.435597
0.439733
0.444145
0.448808
0.453701
0.459185
0.465888
0.395556
0.399217
0.40175
0.403462
0.404548
0.405212
0.405562
0.405651
0.405489
0.405104
0.404564
0.403931
0.403245
0.402526
0.401786
0.401035
0.400281
0.39953
0.398786
0.398053
0.397333
0.396629
0.395941
0.395273
0.394625
0.393998
0.393396
0.392817
0.392264
0.391735
0.391229
0.390739
0.390258
0.389786
0.389333
0.388908
0.388516
0.388157
0.38783
0.387536
0.387275
0.387048
0.38686
0.386721
0.386651
0.386662
0.386755
0.386926
0.387177
0.387512
0.387939
0.388464
0.389093
0.389835
0.390695
0.391681
0.392799
0.394057
0.395462
0.397021
0.39874
0.400627
0.402687
0.404927
0.407353
0.409971
0.412788
0.415811
0.419047
0.422506
0.426193
0.430111
0.434251
0.438566
0.443042
0.44772
0.452571
0.457611
0.463165
0.46931
0.400892
0.403156
0.404765
0.405802
0.40642
0.406728
0.406792
0.406663
0.406359
0.405882
0.405249
0.404517
0.403752
0.402976
0.402194
0.401409
0.400628
0.399853
0.399089
0.398338
0.397601
0.396882
0.396182
0.395501
0.394841
0.394205
0.393594
0.39301
0.392455
0.391922
0.391398
0.390878
0.390367
0.389877
0.389419
0.388993
0.388598
0.388236
0.387907
0.38761
0.387348
0.387123
0.386937
0.386795
0.386705
0.386683
0.386745
0.386904
0.387159
0.387503
0.387941
0.388479
0.389123
0.389881
0.390762
0.391772
0.392919
0.394211
0.395655
0.397259
0.39903
0.400975
0.403104
0.405422
0.407939
0.410663
0.413603
0.416772
0.420183
0.423849
0.427745
0.431827
0.436087
0.440518
0.44508
0.449774
0.454657
0.459771
0.465151
0.470701
0.404927
0.406277
0.407223
0.407811
0.40811
0.408173
0.408045
0.407765
0.407354
0.406792
0.406065
0.405233
0.404384
0.403548
0.40272
0.401898
0.401085
0.400284
0.399497
0.398725
0.397971
0.397237
0.396522
0.395829
0.39516
0.394514
0.393895
0.393304
0.392736
0.392175
0.391615
0.391068
0.390547
0.390057
0.389597
0.389168
0.388772
0.388408
0.388079
0.387784
0.387524
0.387303
0.387123
0.38699
0.386907
0.386879
0.386918
0.387045
0.387271
0.387605
0.388055
0.388613
0.389278
0.39006
0.390966
0.392004
0.393182
0.394508
0.39599
0.397636
0.399453
0.40145
0.403635
0.406016
0.408603
0.411404
0.414433
0.417703
0.421211
0.424934
0.428852
0.432946
0.437203
0.441649
0.446283
0.451082
0.456034
0.461121
0.466302
0.471464
0.40736