/*--------------------------------*- C++ -*----------------------------------*\
| =========                 |                                                 |
| \\      /  F ield         | OpenFOAM: The Open Source CFD Toolbox           |
|  \\    /   O peration     | Version:  v2012                                 |
|   \\  /    A nd           | Website:  www.openfoam.com                      |
|    \\/     M anipulation  |                                                 |
\*---------------------------------------------------------------------------*/
FoamFile
{
    version     2.0;
    format      ascii;
    class       surfaceScalarField;
    location    "500";
    object      phi;
}
// * * * * * * * * * * * * * * * * * * * * * * * * * * * * * * * * * * * * * //

dimensions      [0 3 -1 0 0 0 0];
oriented        oriented;


internalField   nonuniform List<scalar> 
12848
(
5.21632e-08
0.000199948
3.54234e-08
0.000200017
2.14142e-08
0.000200014
1.01112e-08
0.000200011
1.82525e-11
0.00020001
-1.00778e-08
0.00020001
-2.13895e-08
0.000200011
-3.54121e-08
0.000200014
-5.21606e-08
0.000200017
0.000199948
8.39309e-08
0.000199864
7.41121e-08
0.000200027
5.02527e-08
0.000200038
2.49464e-08
0.000200037
5.52254e-11
0.000200035
-2.48445e-08
0.000200035
-5.01755e-08
0.000200037
-7.40725e-08
0.000200038
-8.39226e-08
0.000200027
0.000199864
8.66525e-08
0.000199777
8.71599e-08
0.000200026
6.33564e-08
0.000200062
3.2637e-08
0.000200067
1.06059e-10
0.000200068
-3.24363e-08
0.000200068
-6.31859e-08
0.000200067
-8.70253e-08
0.000200062
-8.65744e-08
0.000200026
0.000199777
8.3789e-08
0.000199693
8.771e-08
0.000200022
6.63894e-08
0.000200083
3.51385e-08
0.000200099
1.78323e-10
0.000200102
-3.47991e-08
0.000200103
-6.60988e-08
0.000200099
-8.74976e-08
0.000200083
-8.36724e-08
0.000200022
0.000199694
8.01328e-08
0.000199613
8.51671e-08
0.000200017
6.55967e-08
0.000200103
3.51503e-08
0.000200129
2.8294e-10
0.000200137
-3.46104e-08
0.000200137
-6.51326e-08
0.000200129
-8.48268e-08
0.000200103
-7.99494e-08
0.000200017
0.000199614
7.57051e-08
0.000199538
8.11608e-08
0.000200012
6.32705e-08
0.00020012
3.41672e-08
0.000200158
4.3481e-10
0.000200171
-3.33397e-08
0.000200171
-6.25651e-08
0.000200158
-8.06399e-08
0.000200121
-7.54216e-08
0.000200012
0.000199538
7.13659e-08
0.000199466
7.66055e-08
0.000200006
5.98633e-08
0.000200137
3.25723e-08
0.000200185
6.63952e-10
0.000200203
-3.13094e-08
0.000200203
-5.87878e-08
0.000200186
-7.58135e-08
0.000200138
-7.09328e-08
0.000200007
0.000199467
6.75591e-08
0.000199399
7.23978e-08
0.000200002
5.66566e-08
0.000200153
3.10277e-08
0.000200211
1.01592e-09
0.000200233
-2.90931e-08
0.000200233
-5.50029e-08
0.000200212
-7.11799e-08
0.000200154
-6.68919e-08
0.000200003
0.0001994
6.44148e-08
0.000199334
6.88811e-08
0.000199997
5.40103e-08
0.000200168
2.98489e-08
0.000200235
1.55182e-09
0.000200261
-2.68927e-08
0.000200262
-5.14809e-08
0.000200236
-6.70161e-08
0.00020017
-6.33907e-08
0.000199999
0.000199337
6.19355e-08
0.000199272
6.61545e-08
0.000199993
5.2058e-08
0.000200182
2.91791e-08
0.000200258
2.36417e-09
0.000200288
-2.46748e-08
0.000200289
-4.82035e-08
0.00020026
-6.33175e-08
0.000200185
-6.03778e-08
0.000199996
0.000199277
6.00909e-08
0.000199212
6.425e-08
0.000199989
5.09004e-08
0.000200195
2.91537e-08
0.00020028
3.59253e-09
0.000200314
-2.231e-08
0.000200315
-4.50483e-08
0.000200283
-5.99541e-08
0.0002002
-5.77358e-08
0.000199994
0.000199219
5.88914e-08
0.000199153
6.32461e-08
0.000199984
5.06655e-08
0.000200208
2.99526e-08
0.000200301
5.4444e-09
0.000200338
-1.95895e-08
0.00020034
-4.18185e-08
0.000200305
-5.67454e-08
0.000200215
-5.53319e-08
0.000199993
0.000199164
5.84171e-08
0.000199095
6.33279e-08
0.000199979
5.16084e-08
0.00020022
3.18801e-08
0.00020032
8.24528e-09
0.000200362
-1.62036e-08
0.000200364
-3.82511e-08
0.000200327
-5.34899e-08
0.00020023
-5.30409e-08
0.000199992
0.000199111
5.88001e-08
0.000199036
6.47471e-08
0.000199974
5.41592e-08
0.00020023
3.54481e-08
0.000200339
1.2511e-08
0.000200385
-1.17022e-08
0.000200388
-3.40183e-08
0.000200349
-4.99986e-08
0.000200246
-5.07723e-08
0.000199993
0.00019906
6.02195e-08
0.000198976
6.78477e-08
0.000199966
5.89157e-08
0.000200239
4.14397e-08
0.000200356
1.90394e-08
0.000200407
-5.42191e-09
0.000200413
-2.87085e-08
0.000200373
-4.6139e-08
0.000200263
-4.85766e-08
0.000199996
0.000199011
6.3197e-08
0.000198913
7.36484e-08
0.000199955
6.71104e-08
0.000200246
5.11682e-08
0.000200372
2.9122e-08
0.000200429
3.67086e-09
0.000200438
-2.17861e-08
0.000200398
-4.19598e-08
0.000200283
-4.67676e-08
0.0002
0.000198964
6.84222e-08
0.000198844
8.33704e-08
0.00019994
8.04039e-08
0.000200249
6.65833e-08
0.000200386
4.47193e-08
0.000200451
1.72708e-08
0.000200466
-1.25455e-08
0.000200428
-3.82638e-08
0.000200309
-4.70238e-08
0.000200009
0.000198917
7.69004e-08
0.000198767
9.89373e-08
0.000199918
1.01651e-07
0.000200246
9.13089e-08
0.000200397
6.98607e-08
0.000200473
3.85023e-08
0.000200497
-2.45803e-10
0.000200467
-3.8903e-08
0.000200348
-5.59218e-08
0.000200026
0.000198862
9.00245e-08
0.000198677
1.23104e-07
0.000199885
1.35022e-07
0.000200234
1.31113e-07
0.0002004
1.11764e-07
0.000200492
7.5929e-08
0.000200533
2.41971e-08
0.000200518
-3.30487e-08
0.000200405
-6.9387e-08
0.000200063
0.000198792
1.09398e-07
0.000198568
1.59327e-07
0.000199835
1.85976e-07
0.000200207
1.93467e-07
0.000200393
1.79591e-07
0.000200506
1.38716e-07
0.000200574
5.71471e-08
0.0002006
-7.42652e-08
0.000200536
-2.55872e-07
0.000200244
0.000198536
1.37156e-07
0.000198431
2.12112e-07
0.00019976
2.62543e-07
0.000200157
2.92659e-07
0.000200363
3.00981e-07
0.000200497
2.84793e-07
0.00020059
2.43969e-07
0.000200641
1.80035e-07
0.0002006
4.27708e-07
0.000199996
0.000193864
5.09992e-06
1.74784e-07
0.000198256
2.8454e-07
0.000199651
3.69347e-07
0.000200072
4.34243e-07
0.000200298
4.79148e-07
0.000200453
5.07781e-07
0.000200561
5.44238e-07
0.000200604
6.53678e-07
0.000200491
9.72216e-07
0.000199678
0.000191645
3.19146e-06
2.22682e-07
0.000198033
3.77428e-07
0.000199496
5.06853e-07
0.000199943
6.17141e-07
0.000200188
7.0983e-07
0.00020036
7.89982e-07
0.000200481
8.79135e-07
0.000200515
1.08483e-06
0.000200285
1.76774e-06
0.000198995
0.000188379
5.03322e-06
2.81179e-07
0.000197752
4.91317e-07
0.000199286
6.75548e-07
0.000199758
8.41296e-07
0.000200022
9.92379e-07
0.000200209
1.13909e-06
0.000200334
1.31853e-06
0.000200336
1.67072e-06
0.000199933
2.68325e-06
0.000197983
0.000184771
6.29198e-06
3.5098e-07
0.000197401
6.27441e-07
0.000199009
8.77145e-07
0.000199509
1.10881e-06
0.00019979
1.32871e-06
0.000199989
1.55314e-06
0.00020011
1.8312e-06
0.000200058
2.31856e-06
0.000199446
3.54099e-06
0.00019676
0.000181184
7.12809e-06
4.33134e-07
0.000196968
7.8761e-07
0.000198655
1.114e-06
0.000199182
1.42214e-06
0.000199482
1.72013e-06
0.000199691
2.02871e-06
0.000199801
2.40647e-06
0.00019968
3.02993e-06
0.000198822
4.4788e-06
0.000195311
0.000177755
7.90701e-06
5.29094e-07
0.000196439
9.74505e-07
0.000198209
1.39013e-06
0.000198767
1.78671e-06
0.000199086
2.17401e-06
0.000199304
2.57674e-06
0.000199399
3.06128e-06
0.000199195
3.8125e-06
0.000198071
5.40798e-06
0.000193716
0.000174622
8.54104e-06
6.40937e-07
0.000195798
1.19196e-06
0.000197658
1.71166e-06
0.000198247
2.21143e-06
0.000198586
2.70293e-06
0.000198812
3.21501e-06
0.000198887
3.82197e-06
0.000198588
4.71242e-06
0.000197181
6.42097e-06
0.000192007
0.000171761
9.28236e-06
7.7217e-07
0.000195026
1.44477e-06
0.000196986
2.08572e-06
0.000197606
2.70634e-06
0.000197965
3.32065e-06
0.000198198
3.96228e-06
0.000198245
4.71563e-06
0.000197835
5.78214e-06
0.000196114
7.63148e-06
0.000190158
0.000169177
1.02148e-05
9.22948e-07
0.000194103
1.7385e-06
0.00019617
2.51928e-06
0.000196825
3.2799e-06
0.000197205
4.03631e-06
0.000197441
4.82591e-06
0.000197455
5.7384e-06
0.000196922
6.97566e-06
0.000194877
8.94248e-06
0.000188191
0.000166888
1.12321e-05
1.09512e-06
0.000193008
2.07762e-06
0.000195188
3.01932e-06
0.000195884
3.93991e-06
0.000196284
4.85705e-06
0.000196524
5.81028e-06
0.000196502
6.88975e-06
0.000195843
8.28653e-06
0.00019348
1.03267e-05
0.000186151
0.000164928
1.22866e-05
1.29429e-06
0.000191714
2.46642e-06
0.000194016
3.59306e-06
0.000194757
4.69597e-06
0.000195181
5.79419e-06
0.000195426
6.92797e-06
0.000195368
8.18494e-06
0.000194586
9.74235e-06
0.000191923
1.18159e-05
0.000184077
0.000163281
1.34625e-05
1.52316e-06
0.00019019
2.91182e-06
0.000192627
4.25002e-06
0.000193419
5.5608e-06
0.00019387
6.86356e-06
0.000194123
8.19751e-06
0.000194034
9.64429e-06
0.000193139
1.13547e-05
0.000190212
1.34101e-05
0.000182022
0.000161919
1.47729e-05
1.78529e-06
0.000188405
3.42183e-06
0.00019099
5.00181e-06
0.000191839
6.54976e-06
0.000192322
8.08446e-06
0.000192589
9.64187e-06
0.000192477
1.12926e-05
0.000191489
1.31456e-05
0.000188359
1.51594e-05
0.000180008
0.000160802
1.62761e-05
2.08492e-06
0.00018632
4.00497e-06
0.00018907
5.86118e-06
0.000189983
7.68001e-06
0.000190503
9.47889e-06
0.00019079
1.12883e-05
0.000190668
1.31628e-05
0.000189614
1.51614e-05
0.000186361
1.71392e-05
0.00017803
0.000159884
1.80569e-05
2.42635e-06
0.000183894
4.66977e-06
0.000186827
6.84108e-06
0.000187811
8.96928e-06
0.000188375
1.10701e-05
0.000188689
1.31667e-05
0.000188571
1.52937e-05
0.000187487
1.74585e-05
0.000184196
1.94287e-05
0.00017606
0.000159109
2.02042e-05
2.81352e-06
0.00018108
5.42416e-06
0.000184216
7.95357e-06
0.000185282
1.04342e-05
0.000185895
1.288e-05
0.000186243
1.53059e-05
0.000186145
1.77242e-05
0.000185069
2.00924e-05
0.000181828
2.2106e-05
0.000174046
0.000158402
2.28129e-05
3.2492e-06
0.000177831
6.2745e-06
0.000181191
9.20839e-06
0.000182348
1.20882e-05
0.000183015
1.49265e-05
0.000183405
1.77299e-05
0.000183342
2.04885e-05
0.00018231
2.31136e-05
0.000179203
2.52453e-05
0.000171915
0.000157664
2.59828e-05
3.737e-06
0.000174094
7.22481e-06
0.000177703
1.06114e-05
0.000178961
1.39391e-05
0.000179687
1.72203e-05
0.000180124
2.04537e-05
0.000180108
2.36089e-05
0.000179155
2.65582e-05
0.000176253
2.89021e-05
0.000169571
0.000156777
2.97895e-05
4.27928e-06
0.000169815
8.27643e-06
0.000173706
1.21636e-05
0.000175074
1.59879e-05
0.000175863
1.97623e-05
0.000176349
2.34793e-05
0.000176391
2.70915e-05
0.000175543
3.04407e-05
0.000172904
3.31045e-05
0.000166907
0.000155602
3.42789e-05
4.8745e-06
0.00016494
9.42762e-06
0.000169153
1.38609e-05
0.000170641
1.82273e-05
0.000171496
2.25419e-05
0.000172035
2.67936e-05
0.00017214
3.09223e-05
0.000171414
3.47502e-05
0.000169076
3.7848e-05
0.000163809
0.000153992
3.94589e-05
5.52014e-06
0.00015942
1.06732e-05
0.000164
1.56934e-05
0.000165621
2.06418e-05
0.000166548
2.55372e-05
0.000167139
3.03676e-05
0.000167309
3.50664e-05
0.000166715
3.94473e-05
0.000164695
4.30904e-05
0.000160166
0.000151793
4.52891e-05
6.21303e-06
0.000153207
1.20052e-05
0.000158208
1.76467e-05
0.000159979
2.32086e-05
0.000160986
2.87154e-05
0.000161632
3.41576e-05
0.000161867
3.94682e-05
0.000161405
4.44638e-05
0.0001597
4.87492e-05
0.000155881
0.000148867
5.1675e-05
6.94986e-06
0.000146257
1.34146e-05
0.000151743
1.97032e-05
0.000153691
2.58995e-05
0.00015479
3.20355e-05
0.000155496
3.81076e-05
0.000155795
4.40544e-05
0.000155458
4.9706e-05
0.000154048
5.47051e-05
0.000150881
0.000145103
5.84689e-05
7.72793e-06
0.000138529
1.48923e-05
0.000144579
2.18445e-05
0.000146738
2.86836e-05
0.000147951
3.54516e-05
0.000148728
4.21536e-05
0.000149093
4.87398e-05
0.000148872
5.5062e-05
0.000147726
6.08109e-05
0.000145133
0.000140434
6.548e-05
8.54618e-06
0.000129983
1.64316e-05
0.000136693
2.40535e-05
0.000139116
3.15306e-05
0.000140474
3.89169e-05
0.000141342
4.62297e-05
0.00014178
5.34347e-05
0.000141667
6.04118e-05
0.000140749
6.69056e-05
0.000138639
0.000134847
7.24928e-05
9.40639e-06
0.000120577
1.80297e-05
0.00012807
2.63171e-05
0.000130829
3.44133e-05
0.000132378
4.23878e-05
0.000133368
5.02728e-05
0.000133895
5.80529e-05
0.000133887
6.56391e-05
0.000133163
7.28319e-05
0.000131446
0.000128386
7.92928e-05
1.03143e-05
0.000110262
1.96896e-05
0.000118695
2.86277e-05
0.000121891
3.73092e-05
0.000123696
4.58253e-05
0.000124852
5.42259e-05
0.000125494
6.25169e-05
0.000125596
7.06409e-05
0.000125039
7.84518e-05
0.000123635
0.000121146
8.56918e-05
1.12806e-05
9.89819e-05
2.14203e-05
0.000108555
3.09821e-05
0.000112329
4.01995e-05
0.000114479
4.91942e-05
0.000115857
5.80384e-05
0.00011665
6.67601e-05
0.000116874
7.53325e-05
0.000116466
8.36568e-05
0.000115311
0.000113256
9.15467e-05
1.23216e-05
8.66602e-05
2.32343e-05
9.76424e-05
3.33772e-05
0.000102186
4.30627e-05
0.000104793
5.24571e-05
0.000106462
6.166e-05
0.000107447
7.07225e-05
0.000107812
7.9645e-05
0.000107544
8.83685e-05
0.000106587
0.00010486
9.6765e-05
1.34592e-05
7.32011e-05
2.51395e-05
8.5962e-05
3.57969e-05
9.15287e-05
4.58613e-05
9.47288e-05
5.55608e-05
9.6763e-05
6.50283e-05
9.79795e-05
7.43384e-05
9.85015e-05
8.35145e-05
9.83676e-05
9.25278e-05
9.7574e-05
9.60928e-05
0.000101295
1.47264e-05
5.84747e-05
2.71011e-05
7.35873e-05
3.81824e-05
8.04474e-05
4.85203e-05
8.43909e-05
5.84172e-05
8.68661e-05
6.80506e-05
8.83461e-05
7.75192e-05
8.90329e-05
8.68636e-05
8.90232e-05
9.60753e-05
8.83622e-05
8.70684e-05
0.0001051
1.61387e-05
4.23359e-05
2.90103e-05
6.07157e-05
4.03681e-05
6.90897e-05
5.08606e-05
7.38983e-05
6.08539e-05
7.68728e-05
7.05682e-05
7.86318e-05
8.01244e-05
7.94766e-05
8.95751e-05
7.95725e-05
9.89228e-05
7.90145e-05
7.78615e-05
0.00010813
1.67472e-05
2.55887e-05
3.05202e-05
4.69428e-05
4.21251e-05
5.74847e-05
5.26324e-05
6.3391e-05
6.26093e-05
6.6896e-05
7.23318e-05
6.89093e-05
8.19313e-05
6.98771e-05
9.14604e-05
7.00434e-05
0.000100922
6.95526e-05
6.8499e-05
0.000110285
1.48009e-05
1.07878e-05
2.98967e-05
3.1847e-05
4.23682e-05
4.50132e-05
5.31739e-05
5.25853e-05
6.32104e-05
5.68595e-05
7.29505e-05
5.91691e-05
8.26e-05
6.02276e-05
9.22276e-05
6.04159e-05
0.000101833
5.9947e-05
5.89526e-05
0.00011138
1.03093e-05
4.78537e-07
2.53227e-05
1.68336e-05
3.90064e-05
3.13295e-05
5.0852e-05
4.07396e-05
6.15225e-05
4.6189e-05
7.16276e-05
4.90641e-05
8.15339e-05
5.03213e-05
9.14021e-05
5.05477e-05
0.000101265
5.00837e-05
4.91251e-05
0.000111093
6.09805e-06
-5.61952e-06
1.78451e-05
5.08649e-06
3.11459e-05
1.80287e-05
4.39036e-05
2.7982e-05
5.57346e-05
3.4358e-05
6.6845e-05
3.79537e-05
7.75508e-05
3.96155e-05
8.8067e-05
4.00314e-05
9.8489e-05
3.96617e-05
3.87841e-05
0.00010883
2.91352e-06
-8.53304e-06
9.67826e-06
-1.67825e-06
2.00468e-05
7.66016e-06
3.20265e-05
1.60023e-05
4.44309e-05
2.19536e-05
5.67339e-05
2.56506e-05
6.8776e-05
2.75735e-05
8.05325e-05
2.8275e-05
9.20475e-05
2.81467e-05
2.74674e-05
0.000103364
-1.53091e-06
-7.00213e-06
7.09851e-07
-3.91901e-06
7.07202e-06
1.29799e-06
1.65916e-05
6.48273e-06
2.82198e-05
1.03254e-05
4.10713e-05
1.27991e-05
5.44094e-05
1.42354e-05
6.76739e-05
1.50104e-05
8.07251e-05
1.50955e-05
1.46514e-05
9.35412e-05
-7.00213e-06
-1.09211e-05
-9.62315e-06
-3.14041e-06
7.185e-06
1.99841e-05
3.42195e-05
4.923e-05
6.43255e-05
7.89769e-05
-2.86902e-05
3.37901e-05
-2.80341e-05
-6.56125e-07
-2.47426e-05
-3.29145e-06
-2.05362e-05
-4.20646e-06
-1.55781e-05
-4.9581e-06
-1.01653e-05
-5.41277e-06
-4.58181e-06
-5.58351e-06
9.24679e-07
-5.50647e-06
6.25396e-06
-5.32929e-06
1.13983e-05
-5.14438e-06
1.62264e-05
-4.82807e-06
2.05274e-05
-4.30104e-06
2.40858e-05
-3.55839e-06
2.6815e-05
-2.72913e-06
2.86708e-05
-1.85582e-06
2.96587e-05
-9.87895e-07
2.97191e-05
-6.04184e-08
2.87772e-05
9.41861e-07
2.67628e-05
2.01442e-06
2.36147e-05
3.14813e-06
1.93084e-05
4.30624e-06
1.39507e-05
5.35775e-06
8.08274e-06
5.86791e-06
2.88929e-06
5.19348e-06
2.88929e-06
-1.41791e-05
5.11607e-05
-1.99814e-05
5.14621e-06
-1.98559e-05
-3.41694e-06
-1.77647e-05
-6.29767e-06
-1.45888e-05
-8.13397e-06
-1.06329e-05
-9.36866e-06
-6.1305e-06
-1.0086e-05
-1.31021e-06
-1.03268e-05
3.48853e-06
-1.0128e-05
7.97813e-06
-9.63398e-06
1.20349e-05
-8.88487e-06
1.55761e-05
-7.8422e-06
1.85465e-05
-6.52884e-06
2.08814e-05
-5.06399e-06
2.25555e-05
-3.52989e-06
2.35361e-05
-1.96851e-06
2.38507e-05
-3.7505e-07
2.35217e-05
1.2708e-06
2.25381e-05
2.99807e-06
2.08585e-05
4.82768e-06
1.84177e-05
6.7471e-06
1.5126e-05
8.64942e-06
1.08313e-05
1.01626e-05
5.62164e-06
1.04031e-05
8.51094e-06
-8.50847e-06
6.47024e-05
-1.55049e-05
1.21427e-05
-1.72306e-05
-1.69123e-06
-1.64438e-05
-7.08453e-06
-1.42495e-05
-1.03283e-05
-1.11256e-05
-1.24925e-05
-7.39968e-06
-1.38119e-05
-3.32267e-06
-1.44038e-05
9.15265e-07
-1.4366e-05
5.00964e-06
-1.37284e-05
8.67853e-06
-1.25538e-05
1.18133e-05
-1.09769e-05
1.44009e-05
-9.11648e-06
1.64178e-05
-7.0809e-06
1.78474e-05
-4.95953e-06
1.86869e-05
-2.80796e-06
1.89561e-05
-6.44265e-07
1.86837e-05
1.54324e-06
1.78976e-05
3.78417e-06
1.66153e-05
6.10994e-06
1.48304e-05
8.532e-06
1.24857e-05
1.09941e-05
9.41158e-06
1.32367e-05
5.33385e-06
1.44808e-05
1.38448e-05
-6.00205e-06
7.69964e-05
-1.40174e-05
2.0158e-05
-1.67695e-05
1.0609e-06
-1.66898e-05
-7.16423e-06
-1.50094e-05
-1.20087e-05
-1.23384e-05
-1.51635e-05
-9.04264e-06
-1.71077e-05
-5.39444e-06
-1.8052e-05
-1.61069e-06
-1.81497e-05
2.07646e-06
-1.74155e-05
5.43803e-06
-1.59153e-05
8.32464e-06
-1.38635e-05
1.06865e-05
-1.14783e-05
1.24993e-05
-8.89371e-06
1.3761e-05
-6.22127e-06
1.44925e-05
-3.53947e-06
1.47287e-05
-8.80434e-07
1.45093e-05
1.76267e-06
1.38708e-05
4.42259e-06
1.28423e-05
7.13849e-06
1.14389e-05
9.93535e-06
9.64547e-06
1.27876e-05
7.36908e-06
1.55131e-05
4.33857e-06
1.75114e-05
1.81834e-05
-3.25958e-06
8.73841e-05
-1.26779e-05
2.95763e-05
-1.66661e-05
5.04909e-06
-1.73582e-05
-6.4721e-06
-1.61873e-05
-1.31795e-05
-1.39174e-05
-1.74335e-05
-1.0971e-05
-2.00541e-05
-7.65887e-06
-2.13641e-05
-4.25198e-06
-2.15566e-05
-9.39665e-07
-2.07278e-05
2.14117e-06
-1.89962e-05
4.84779e-06
-1.65702e-05
7.06373e-06
-1.36942e-05
8.74206e-06
-1.0572e-05
9.89575e-06
-7.37497e-06
1.057e-05
-4.21372e-06
1.08196e-05
-1.13e-06
1.06943e-05
1.88796e-06
1.0234e-05
4.88286e-06
9.46804e-06
7.90443e-06
8.41436e-06
1.0989e-05
7.07174e-06
1.41302e-05
5.38542e-06
1.71995e-05
3.11546e-06
1.97813e-05
2.12988e-05
-4.01537e-07
9.56926e-05
-1.02571e-05
3.94319e-05
-1.56115e-05
1.04035e-05
-1.73925e-05
-4.6911e-06
-1.70057e-05
-1.35664e-05
-1.53334e-05
-1.91058e-05
-1.2891e-05
-2.24964e-05
-1.00138e-05
-2.42413e-05
-6.96312e-06
-2.46073e-05
-3.93312e-06
-2.37578e-05
-1.07982e-06
-2.18495e-05
1.44642e-06
-1.90964e-05
3.51865e-06
-1.57665e-05
5.08413e-06
-1.21375e-05
6.1626e-06
-8.45345e-06
6.81649e-06
-4.86761e-06
7.11659e-06
-1.4301e-06
7.12064e-06
1.88391e-06
6.86885e-06
5.13465e-06
6.3868e-06
8.38647e-06
5.6888e-06
1.1687e-05
4.77543e-06
1.50436e-05
3.61214e-06
1.83627e-05
2.04215e-06
2.13513e-05
2.3341e-05
2.08948e-06
0.000102144
-7.05987e-06
4.85812e-05
-1.33267e-05
1.66703e-05
-1.63048e-05
-1.71295e-06
-1.69946e-05
-1.28766e-05
-1.61973e-05
-1.99031e-05
-1.44674e-05
-2.42263e-05
-1.21756e-05
-2.65332e-05
-9.58093e-06
-2.72019e-05
-6.88449e-06
-2.64543e-05
-4.27187e-06
-2.44621e-05
-1.92029e-06
-2.1448e-05
3.16299e-08
-1.77184e-05
1.51759e-06
-1.36235e-05
2.55684e-06
-9.49269e-06
3.22521e-06
-5.53599e-06
3.60788e-06
-1.81277e-06
3.76858e-06
1.7232e-06
3.74641e-06
5.15683e-06
3.5631e-06
8.56978e-06
3.23016e-06
1.202e-05
2.74962e-06
1.55241e-05
2.10128e-06
1.90111e-05
1.19542e-06
2.22571e-05
2.45364e-05
4.26633e-06
0.00010716
-3.86039e-06
5.6708e-05
-1.04453e-05
2.32553e-05
-1.44277e-05
2.26936e-06
-1.62187e-05
-1.10855e-05
-1.64405e-05
-1.96813e-05
-1.55918e-05
-2.5075e-05
-1.40317e-05
-2.80933e-05
-1.20347e-05
-2.91989e-05
-9.77599e-06
-2.8713e-05
-7.44799e-06
-2.67901e-05
-5.26238e-06
-2.36336e-05
-3.39256e-06
-1.95882e-05
-1.93732e-06
-1.50787e-05
-8.92604e-07
-1.05374e-05
-1.75967e-07
-6.25263e-06
3.12757e-07
-2.30149e-06
6.45756e-07
1.3902e-06
8.62256e-07
4.94032e-06
9.81155e-07
8.45087e-06
1.01192e-06
1.19892e-05
9.57193e-07
1.55788e-05
8.0189e-07
1.91664e-05
4.90111e-07
2.25689e-05
2.50265e-05
6.22034e-06
0.000111155
-9.64079e-07
6.38924e-05
-7.52256e-06
2.98137e-05
-1.21882e-05
6.93497e-06
-1.4946e-05
-8.32764e-06
-1.61818e-05
-1.84456e-05
-1.62935e-05
-2.49633e-05
-1.55835e-05
-2.88032e-05
-1.43294e-05
-3.04529e-05
-1.26305e-05
-3.04119e-05
-1.06456e-05
-2.87751e-05
-8.61975e-06
-2.56594e-05
-6.77512e-06
-2.14328e-05
-5.27617e-06
-1.65777e-05
-4.16301e-06
-1.16506e-05
-3.35971e-06
-7.05593e-06
-2.74788e-06
-2.91332e-06
-2.2387e-06
8.81013e-07
-1.78728e-06
4.4889e-06
-1.37503e-06
8.03862e-06
-9.94389e-07
1.16086e-05
-6.44595e-07
1.5229e-05
-3.42332e-07
1.88641e-05
-1.30717e-07
2.23573e-05
2.48958e-05
8.01919e-06
0.000114368
1.66052e-06
7.0251e-05
-4.736e-06
3.62103e-05
-9.85633e-06
1.20553e-05
-1.34383e-05
-4.7457e-06
-1.56477e-05
-1.62361e-05
-1.67596e-05
-2.38514e-05
-1.69981e-05
-2.85648e-05
-1.65317e-05
-3.09193e-05
-1.55056e-05
-3.1438e-05
-1.39453e-05
-3.03353e-05
-1.20953e-05
-2.75094e-05
-1.02151e-05
-2.33131e-05
-8.56271e-06
-1.82301e-05
-7.27749e-06
-1.29358e-05
-6.3267e-06
-8.00672e-06
-5.56992e-06
-3.6701e-06
-4.88438e-06
1.95465e-07
-4.20832e-06
3.81284e-06
-3.5184e-06
7.3487e-06
-2.8077e-06
1.08979e-05
-2.07875e-06
1.45001e-05
-1.35346e-06
1.81388e-05
-6.77307e-07
2.16811e-05
2.42185e-05
9.66891e-06
0.000116985
4.02378e-06
7.58962e-05
-2.15598e-06
4.239e-05
-7.58026e-06
1.74796e-05
-1.18425e-05
-4.83472e-07
-1.49383e-05
-1.31403e-05
-1.70243e-05
-2.17653e-05
-1.82622e-05
-2.73269e-05
-1.86743e-05
-3.05072e-05
-1.84079e-05
-3.17045e-05
-1.74204e-05
-3.13228e-05
-1.5838e-05
-2.90918e-05
-1.39095e-05
-2.52416e-05
-1.19802e-05
-2.01593e-05
-1.03538e-05
-1.45622e-05
-9.13229e-06
-9.22824e-06
-8.17784e-06
-4.62456e-06
-7.30625e-06
-6.76125e-07
-6.41471e-06
2.9213e-06
-5.4643e-06
6.3983e-06
-4.44405e-06
9.87759e-06
-3.359e-06
1.3415e-05
-2.24212e-06
1.70219e-05
-1.15993e-06
2.0599e-05
2.30585e-05
1.12543e-05
0.000119194
6.17208e-06
8.09784e-05
2.05868e-07
4.83562e-05
-5.42866e-06
2.31141e-05
-1.0249e-05
4.33691e-06
-1.41324e-05
-9.25703e-06
-1.71282e-05
-1.87695e-05
-1.93232e-05
-2.51319e-05
-2.07443e-05
-2.90861e-05
-2.13476e-05
-3.11012e-05
-2.11186e-05
-3.15518e-05
-2.00093e-05
-3.02011e-05
-1.81495e-05
-2.71014e-05
-1.58882e-05
-2.24207e-05
-1.36994e-05
-1.67509e-05
-1.19507e-05
-1.0977e-05
-1.06524e-05
-5.9229e-06
-9.54529e-06
-1.7832e-06
-8.43386e-06
1.80987e-06
-7.23523e-06
5.19966e-06
-5.92211e-06
8.56448e-06
-4.49475e-06
1.19877e-05
-2.9935e-06
1.55207e-05
-1.51962e-06
1.91251e-05
2.15389e-05
1.28227e-05
0.000121144
8.17044e-06
8.56307e-05
2.39207e-06
5.41346e-05
-3.40234e-06
2.89085e-05
-8.69115e-06
9.62572e-06
-1.3274e-05
-4.67421e-06
-1.71158e-05
-1.49276e-05
-2.02438e-05
-2.20039e-05
-2.26625e-05
-2.66674e-05
-2.42767e-05
-2.9487e-05
-2.50468e-05
-3.07817e-05
-2.4679e-05
-3.0569e-05
-2.3195e-05
-2.85854e-05
-2.0781e-05
-2.48347e-05
-1.7914e-05
-1.96179e-05
-1.52452e-05
-1.36458e-05
-1.32236e-05
-7.94447e-06
-1.17054e-05
-3.30143e-06
-1.03206e-05
4.25119e-07
-8.86452e-06
3.74357e-06
-7.26084e-06
6.9608e-06
-5.48045e-06
1.02073e-05
-3.53041e-06
1.35706e-05
-1.55682e-06
1.71515e-05
1.99821e-05
1.44747e-05
0.000122945
1.01305e-05
8.99749e-05
4.49915e-06
5.97659e-05
-1.42767e-06
3.48353e-05
-7.10989e-06
1.53079e-05
-1.22973e-05
5.13235e-07
-1.68922e-05
-1.03327e-05
-2.08761e-05
-1.802e-05
-2.42328e-05
-2.33107e-05
-2.69024e-05
-2.68175e-05
-2.87849e-05
-2.88992e-05
-2.9603e-05
-2.97509e-05
-2.89924e-05
-2.91959e-05
-2.69956e-05
-2.68315e-05
-2.38089e-05
-2.28046e-05
-2.00702e-05
-1.73844e-05
-1.66763e-05
-1.13384e-05
-1.41592e-05
-5.81849e-06
-1.22383e-05
-1.49585e-06
-1.04496e-05
1.95489e-06
-8.53453e-06
5.04576e-06
-6.38774e-06
8.06049e-06
-3.94118e-06
1.11241e-05
-1.23057e-06
1.44409e-05
1.87515e-05
1.63376e-05
0.000124664
1.2206e-05
9.41065e-05
6.679e-06
6.52929e-05
6.41735e-07
4.08726e-05
-5.36386e-06
2.13135e-05
-1.10511e-05
6.20049e-06
-1.62867e-05
-5.09715e-06
-2.10245e-05
-1.32822e-05
-2.52407e-05
-1.90945e-05
-2.88731e-05
-2.31851e-05
-3.183e-05
-2.59423e-05
-3.39991e-05
-2.75818e-05
-3.49416e-05
-2.82535e-05
-3.41967e-05
-2.75763e-05
-3.17662e-05
-2.52352e-05
-2.77924e-05
-2.13582e-05
-2.2977e-05
-1.61539e-05
-1.84802e-05
-1.03152e-05
-1.50395e-05
-4.9366e-06
-1.23864e-05
-6.98247e-07
-9.87149e-06
2.53088e-06
-7.03196e-06
5.22097e-06
-3.48725e-06
7.57938e-06
1.78033e-06
9.17331e-06
8.47419e-06
1.20577e-05
1.85365e-05
0.000126332
1.45572e-05
9.80858e-05
9.09866e-06
7.07514e-05
2.97683e-06
4.69944e-05
-3.27304e-06
2.75634e-05
-9.34415e-06
1.22716e-05
-1.50808e-05
6.39472e-07
-2.042e-05
-7.94294e-06
-2.53507e-05
-1.41638e-05
-2.9836e-05
-1.86997e-05
-3.38098e-05
-2.19685e-05
-3.71688e-05
-2.42228e-05
-3.97792e-05
-2.5643e-05
-4.10855e-05
-2.62701e-05
-4.06446e-05
-2.5676e-05
-3.82243e-05
-2.37785e-05
-3.39064e-05
-2.04718e-05
-2.82437e-05
-1.5978e-05
-2.24107e-05
-1.07695e-05
-1.73963e-05
-5.7127e-06
-1.32954e-05
-1.56996e-06
-9.5975e-06
1.52302e-06
-5.84028e-06
3.82216e-06
-2.43959e-06
5.77261e-06
8.58151e-06
-2.54691e-06
2.12021e-05
0.000127943
1.73586e-05
0.000101929
1.1971e-05
7.6139e-05
5.7958e-06
5.31696e-05
-6.27862e-07
3.39871e-05
-6.97362e-06
1.86174e-05
-1.30584e-05
6.72429e-06
-1.88094e-05
-2.19195e-06
-2.42435e-05
-8.72974e-06
-2.93949e-05
-1.35483e-05
-3.41921e-05
-1.71714e-05
-3.85549e-05
-1.986e-05
-4.24161e-05
-2.17819e-05
-4.56376e-05
-2.30486e-05
-4.77231e-05
-2.35905e-05
-4.83034e-05
-2.31982e-05
-4.69864e-05
-2.17888e-05
-4.37999e-05
-1.91645e-05
-3.90708e-05
-1.54987e-05
-3.3748e-05
-1.10355e-05
-2.89313e-05
-6.38664e-06
-2.57581e-05
-1.65019e-06
-2.5314e-05
3.37812e-06
-2.86788e-05
9.13737e-06
1.65445e-05
-3.66418e-05
2.44791e-05
0.000129447
2.07912e-05
0.000105617
1.55056e-05
8.14246e-05
9.32173e-06
5.93534e-05
2.7854e-06
4.05234e-05
-3.75219e-06
2.51549e-05
-1.00778e-05
1.30499e-05
-1.609e-05
3.82022e-06
-2.17877e-05
-3.03197e-06
-2.72543e-05
-8.08174e-06
-3.25169e-05
-1.19088e-05
-3.75178e-05
-1.48591e-05
-4.22036e-05
-1.70961e-05
-4.65569e-05
-1.86953e-05
-5.04639e-05
-1.96835e-05
-5.36406e-05
-2.00214e-05
-5.58214e-05
-1.9608e-05
-5.69308e-05
-1.8055e-05
-5.69958e-05
-1.54338e-05
-5.63557e-05
-1.16756e-05
-5.57104e-05
-7.03201e-06
-5.56771e-05
-1.68343e-06
-5.67405e-05
4.44149e-06
-5.87686e-05
1.11655e-05
1.81712e-05
-6.03954e-05
2.84791e-05
0.000130757
2.50046e-05
0.000109092
1.98753e-05
8.6554e-05
1.37455e-05
6.54832e-05
7.16348e-06
4.71054e-05
5.05655e-07
3.18128e-05
-5.98516e-06
1.95407e-05
-1.21686e-05
1.00037e-05
-1.79883e-05
2.78772e-06
-2.34798e-05
-2.59023e-06
-2.87577e-05
-6.63089e-06
-3.38736e-05
-9.74325e-06
-3.88115e-05
-1.21581e-05
-4.35596e-05
-1.39472e-05
-4.81091e-05
-1.5134e-05
-5.24269e-05
-1.57036e-05
-5.64461e-05
-1.55888e-05
-5.98506e-05
-1.46505e-05
-6.24879e-05
-1.27965e-05
-6.42286e-05
-9.9349e-06
-6.51752e-05
-6.08542e-06
-6.5473e-05
-1.38563e-06
-6.49438e-05
3.91235e-06
-6.32833e-05
9.50493e-06
1.47949e-05
-5.99069e-05
3.32818e-05
0.000131754
3.01223e-05
0.000112251
2.52379e-05
9.14383e-05
1.92467e-05
7.14744e-05
1.27011e-05
5.36511e-05
6.00533e-06
3.85085e-05
-5.67472e-07
2.61135e-05
-6.84228e-06
1.62785e-05
-1.27297e-05
8.67513e-06
-1.82108e-05
2.89089e-06
-2.33418e-05
-1.49991e-06
-2.82133e-05
-4.87178e-06
-3.29042e-05
-7.46722e-06
-3.74303e-05
-9.42109e-06
-4.17826e-05
-1.07817e-05
-4.59386e-05
-1.15476e-05
-4.98333e-05
-1.16941e-05
-5.33313e-05
-1.11526e-05
-5.62815e-05
-9.84621e-06
-5.84923e-05
-7.72414e-06
-5.97312e-05
-4.84656e-06
-5.9752e-05
-1.36475e-06
-5.83453e-05
2.50564e-06
-5.53048e-05
6.46442e-06
1.00573e-05
-5.05672e-05
3.89234e-05
0.00013229
3.62214e-05
0.000114953
3.17123e-05
9.59474e-05
2.59753e-05
7.72115e-05
1.95672e-05
6.00592e-05
1.29227e-05
4.51529e-05
6.34797e-06
3.26883e-05
4.75886e-08
2.25789e-05
-5.85745e-06
1.45802e-05
-1.13234e-05
8.35688e-06
-1.63691e-05
3.54573e-06
-2.10558e-05
-1.85004e-07
-2.54419e-05
-3.08112e-06
-2.95547e-05
-5.30837e-06
-3.33914e-05
-6.94499e-06
-3.69292e-05
-8.00977e-06
-4.01354e-05
-8.48786e-06
-4.29261e-05
-8.36187e-06
-4.51793e-05
-7.59302e-06
-4.67451e-05
-6.15836e-06
-4.74438e-05
-4.14785e-06
-4.70941e-05
-1.71447e-06
-4.55595e-05
9.71026e-07
-4.28089e-05
3.71385e-06
6.29305e-06
-3.90447e-05
4.53811e-05
0.000132198
4.33123e-05
0.000117022
3.935e-05
9.99098e-05
3.40214e-05
8.254e-05
2.78809e-05
6.61997e-05
2.13906e-05
5.16432e-05
1.48924e-05
3.91865e-05
8.62032e-06
2.8851e-05
2.72163e-06
2.04789e-05
-2.73384e-06
1.38123e-05
-7.7391e-06
8.55099e-06
-1.23275e-05
4.40344e-06
-1.65361e-05
1.12746e-06
-2.03885e-05
-1.45597e-06
-2.38787e-05
-3.45487e-06
-2.69754e-05
-4.91306e-06
-2.96389e-05
-5.82434e-06
-3.18259e-05
-6.17482e-06
-3.34805e-05
-5.93849e-06
-3.45248e-05
-5.11404e-06
-3.4874e-05
-3.79868e-06
-3.4451e-05
-2.13741e-06
-3.32178e-05
-2.62225e-07
-3.12084e-05
1.70448e-06
3.64369e-06
-2.8559e-05
5.25621e-05
0.000131311
5.13225e-05
0.000118262
4.8115e-05
0.000103117
4.33923e-05
8.72628e-05
3.76895e-05
7.19024e-05
3.14879e-05
5.78449e-05
2.51632e-05
4.55112e-05
1.89836e-05
3.50305e-05
1.31233e-05
2.63392e-05
7.67752e-06
1.92581e-05
2.67861e-06
1.35499e-05
-1.88363e-06
8.96568e-06
-6.03456e-06
5.27839e-06
-9.7921e-06
2.30158e-06
-1.31494e-05
-9.76046e-08
-1.60758e-05
-1.98662e-06
-1.85361e-05
-3.36406e-06
-2.05079e-05
-4.203e-06
-2.19706e-05
-4.47577e-06
-2.28921e-05
-4.19255e-06
-2.32355e-05
-3.45532e-06
-2.29773e-05
-2.39558e-06
-2.21188e-05
-1.12076e-06
-2.06957e-05
2.81458e-07
1.72988e-06
-1.87819e-05
6.02997e-05
0.00012948
6.00854e-05
0.000118476
5.78639e-05
0.000105339
5.39852e-05
9.11415e-05
4.89389e-05
7.69487e-05
4.32085e-05
6.35752e-05
3.71977e-05
5.15221e-05
3.12095e-05
4.10187e-05
2.54513e-05
3.20974e-05
2.00467e-05
2.46626e-05
1.50522e-05
1.85444e-05
1.04768e-05
1.35411e-05
6.30629e-06
9.44894e-06
2.52864e-06
6.07923e-06
-8.4391e-07
3.27494e-06
-3.77812e-06
9.47597e-07
-6.25821e-06
-8.83972e-07
-8.28518e-06
-2.17603e-06
-9.85009e-06
-2.91086e-06
-1.09193e-05
-3.12336e-06
-1.1467e-05
-2.90762e-06
-1.14938e-05
-2.36881e-06
-1.10152e-05
-1.59932e-06
-1.00633e-05
-6.70449e-07
3.53855e-07
-8.68727e-06
6.83615e-05
0.000126598
6.93396e-05
0.000117498
6.83319e-05
0.000106346
6.55615e-05
9.39119e-05
6.14374e-05
8.10728e-05
5.64185e-05
6.85941e-05
5.09217e-05
5.70188e-05
4.52812e-05
4.66592e-05
3.97399e-05
3.76387e-05
3.4456e-05
2.99466e-05
2.95151e-05
2.34853e-05
2.49475e-05
1.81086e-05
2.07508e-05
1.36457e-05
1.69182e-05