/*--------------------------------*- C++ -*----------------------------------*\
| =========                 |                                                 |
| \\      /  F ield         | OpenFOAM: The Open Source CFD Toolbox           |
|  \\    /   O peration     | Version:  v2012                                 |
|   \\  /    A nd           | Website:  www.openfoam.com                      |
|    \\/     M anipulation  |                                                 |
\*---------------------------------------------------------------------------*/
FoamFile
{
    version     2.0;
    format      ascii;
    class       volVectorField;
    location    "500";
    object      U;
}
// * * * * * * * * * * * * * * * * * * * * * * * * * * * * * * * * * * * * * //

dimensions      [0 1 -1 0 0 0 0];


internalField   nonuniform List<vector> 
6556
(
(6.81477e-05 -0.999784 0)
(0.000177723 -1.00003 0)
(0.000122593 -1.00002 0)
(6.37656e-05 -1.00001 0)
(1.97997e-05 -1.00001 0)
(-1.96569e-05 -1.00001 0)
(-6.36459e-05 -1.00001 0)
(-0.000122516 -1.00002 0)
(-0.000177707 -1.00003 0)
(-6.81429e-05 -0.999784 0)
(0.000276601 -0.999517 0)
(0.000330265 -1.00011 0)
(0.000252859 -1.00012 0)
(0.000150999 -1.00011 0)
(4.98642e-05 -1.0001 0)
(-4.94267e-05 -1.0001 0)
(-0.00015063 -1.00011 0)
(-0.000252598 -1.00012 0)
(-0.000330224 -1.00011 0)
(-0.000276587 -0.999517 0)
(0.000341376 -0.999126 0)
(0.00037578 -1.00014 0)
(0.000304344 -1.00025 0)
(0.000195204 -1.00025 0)
(6.65805e-05 -1.00025 0)
(-6.57344e-05 -1.00025 0)
(-0.000194456 -1.00025 0)
(-0.000303756 -1.00025 0)
(-0.000375272 -1.00014 0)
(-0.000341215 -0.999126 0)
(0.000344852 -0.998686 0)
(0.000370025 -1.00013 0)
(0.000313365 -1.00036 0)
(0.000209352 -1.00041 0)
(7.27664e-05 -1.00042 0)
(-7.13447e-05 -1.00042 0)
(-0.00020808 -1.00042 0)
(-0.000312336 -1.00036 0)
(-0.000369345 -1.00013 0)
(-0.000344524 -0.998687 0)
(0.000332125 -0.998264 0)
(0.000355816 -1.0001 0)
(0.000308216 -1.00047 0)
(0.000208513 -1.00057 0)
(7.34942e-05 -1.0006 0)
(-7.1241e-05 -1.0006 0)
(-0.000206478 -1.00057 0)
(-0.000306557 -1.00047 0)
(-0.000354769 -1.0001 0)
(-0.000331591 -0.998265 0)
(0.0003145 -0.997872 0)
(0.00033537 -1.00007 0)
(0.000297604 -1.00056 0)
(0.000201848 -1.00072 0)
(7.18046e-05 -1.00077 0)
(-6.83423e-05 -1.00077 0)
(-0.00019872 -1.00072 0)
(-0.000295131 -1.00056 0)
(-0.000333728 -1.00007 0)
(-0.000313677 -0.997874 0)
(0.000296548 -0.997505 0)
(0.000315119 -1.00004 0)
(0.000281413 -1.00065 0)
(0.000191991 -1.00086 0)
(6.90147e-05 -1.00094 0)
(-6.37255e-05 -1.00094 0)
(-0.00018722 -1.00086 0)
(-0.000277671 -1.00065 0)
(-0.000312579 -1.00005 0)
(-0.00029535 -0.997509 0)
(0.000280196 -0.997158 0)
(0.000297063 -1.00002 0)
(0.000266195 -1.00073 0)
(0.00018224 -1.00099 0)
(6.6493e-05 -1.00109 0)
(-5.83991e-05 -1.00109 0)
(-0.000174934 -1.001 0)
(-0.000260406 -1.00073 0)
(-0.000293164 -1.00003 0)
(-0.000278393 -0.997165 0)
(0.000266171 -0.996829 0)
(0.000282034 -0.999996 0)
(0.000253626 -1.0008 0)
(0.000174201 -1.00112 0)
(6.50541e-05 -1.00124 0)
(-5.26917e-05 -1.00124 0)
(-0.000163039 -1.00112 0)
(-0.000244748 -1.00081 0)
(-0.000276084 -1.00001 0)
(-0.000263388 -0.99684 0)
(0.000254628 -0.996514 0)
(0.00027027 -0.999975 0)
(0.000244098 -1.00088 0)
(0.000168583 -1.00123 0)
(6.52229e-05 -1.00138 0)
(-4.63909e-05 -1.00138 0)
(-0.000151574 -1.00124 0)
(-0.000230567 -1.00089 0)
(-0.000261249 -0.999989 0)
(-0.000250383 -0.996531 0)
(0.000245489 -0.996209 0)
(0.000261757 -0.999954 0)
(0.000237848 -1.00094 0)
(0.000165914 -1.00135 0)
(6.75734e-05 -1.00151 0)
(-3.89597e-05 -1.00151 0)
(-0.000140078 -1.00136 0)
(-0.000217316 -1.00096 0)
(-0.000248139 -0.999976 0)
(-0.000239097 -0.996236 0)
(0.000238687 -0.995913 0)
(0.000256666 -0.999933 0)
(0.000235291 -1.00101 0)
(0.000166816 -1.00145 0)
(7.2908e-05 -1.00163 0)
(-2.95482e-05 -1.00164 0)
(-0.000127745 -1.00147 0)
(-0.000204236 -1.00104 0)
(-0.000236056 -0.999967 0)
(-0.000229129 -0.995954 0)
(0.000234305 -0.99562 0)
(0.000255495 -0.99991 0)
(0.00023738 -1.00107 0)
(0.000172399 -1.00155 0)
(8.25095e-05 -1.00175 0)
(-1.68582e-05 -1.00176 0)
(-0.00011342 -1.00158 0)
(-0.0001904 -1.00111 0)
(-0.00022428 -0.999962 0)
(-0.000220077 -0.995683 0)
(0.000232624 -0.995328 0)
(0.000258937 -0.999884 0)
(0.000245486 -1.00113 0)
(0.000184654 -1.00165 0)
(9.847e-05 -1.00187 0)
(1.08918e-06 -1.00188 0)
(-9.55198e-05 -1.00169 0)
(-0.00017478 -1.00119 0)
(-0.000212232 -0.999963 0)
(-0.000211648 -0.995423 0)
(0.000234114 -0.995032 0)
(0.000268071 -0.99985 0)
(0.000261159 -1.00118 0)
(0.000206662 -1.00174 0)
(0.000124045 -1.00198 0)
(2.73055e-05 -1.002 0)
(-7.18524e-05 -1.0018 0)
(-0.000156307 -1.00127 0)
(-0.000199758 -0.99997 0)
(-0.00020399 -0.995175 0)
(0.0002398 -0.994725 0)
(0.000285867 -0.999806 0)
(0.000289632 -1.00121 0)
(0.000243231 -1.00182 0)
(0.000164606 -1.00209 0)
(6.66281e-05 -1.00213 0)
(-3.92195e-05 -1.00192 0)
(-0.000134123 -1.00136 0)
(-0.000187349 -0.999988 0)
(-0.000198486 -0.994937 0)
(0.000251197 -0.994398 0)
(0.000316472 -0.999745 0)
(0.000336462 -1.00124 0)
(0.00030212 -1.0019 0)
(0.000227728 -1.0022 0)
(0.000126946 -1.00226 0)
(7.51477e-06 -1.00206 0)
(-0.000108425 -1.00147 0)
(-0.000180451 -1.00002 0)
(-0.000199542 -0.994704 0)
(0.000270492 -0.994038 0)
(0.000365914 -0.999655 0)
(0.000411074 -1.00124 0)
(0.000396117 -1.00196 0)
(0.000330636 -1.00231 0)
(0.0002227 -1.0024 0)
(7.71121e-05 -1.00223 0)
(-8.42522e-05 -1.00163 0)
(-0.00020292 -1.00009 0)
(-0.000226836 -0.994442 0)
(0.000300718 -0.993626 0)
(0.00044261 -0.999522 0)
(0.00052757 -1.00121 0)
(0.000544781 -1.002 0)
(0.000499368 -1.00241 0)
(0.000387026 -1.00257 0)
(0.000203929 -1.00244 0)
(-3.45524e-05 -1.00185 0)
(-0.000227487 -1.00017 0)
(-0.000170125 -0.994117 0)
(0.000345098 -0.993135 0)
(0.000556693 -0.999321 0)
(0.000703574 -1.00112 0)
(0.000775038 -1.002 0)
(0.000766771 -1.0025 0)
(0.000661643 -1.00276 0)
(0.000410998 -1.00276 0)
(-1.53589e-05 -1.0023 0)
(-0.000654598 -1.00087 0)
(-0.000872614 -0.996494 0)
(0.00041057 -0.992528 0)
(0.000720309 -0.999019 0)
(0.000962883 -1.00094 0)
(0.00112815 -1.00192 0)
(0.00120891 -1.00254 0)
(0.00120107 -1.00294 0)
(0.0010573 -1.00318 0)
(0.000908847 -1.00295 0)
(0.00171079 -1.0009 0)
(0.00916199 -0.981775 0)
(0.000501562 -0.99176 0)
(0.000941928 -0.99857 0)
(0.00132045 -1.00061 0)
(0.0016234 -1.0017 0)
(0.00184684 -1.00242 0)
(0.00200316 -1.00294 0)
(0.00209733 -1.00317 0)
(0.00199841 -1.00288 0)
(0.00237003 -0.999484 0)
(0.0165956 -0.964156 0)
(0.000618179 -0.990779 0)
(0.00122455 -0.997921 0)
(0.00178006 -1.00009 0)
(0.00226172 -1.00127 0)
(0.00266614 -1.00209 0)
(0.00302079 -1.00268 0)
(0.00338587 -1.00291 0)
(0.00363583 -1.00212 0)
(0.00356774 -0.996949 0)
(0.0206055 -0.949642 0)
(0.000760981 -0.989533 0)
(0.00157018 -0.997022 0)
(0.00234408 -0.999321 0)
(0.00304571 -1.00059 0)
(0.00367328 -1.0015 0)
(0.00426359 -1.00212 0)
(0.00494286 -1.00223 0)
(0.00584612 -1.00073 0)
(0.00590757 -0.992844 0)
(0.0242818 -0.93338 0)
(0.000931419 -0.987966 0)
(0.0019828 -0.995819 0)
(0.00301828 -0.998249 0)
(0.00398215 -0.999613 0)
(0.00487699 -1.00058 0)
(0.00574429 -1.00121 0)
(0.00673422 -1.0011 0)
(0.00825295 -0.998628 0)
(0.00883052 -0.987208 0)
(0.0269654 -0.914907 0)
(0.00113179 -0.986021 0)
(0.0024683 -0.994256 0)
(0.00381132 -0.996823 0)
(0.00508068 -0.998277 0)
(0.00628403 -0.999298 0)
(0.0074674 -0.999887 0)
(0.00878151 -0.999472 0)
(0.0108506 -0.995839 0)
(0.0122236 -0.980415 0)
(0.0292796 -0.896972 0)
(0.00136546 -0.983632 0)
(0.00303492 -0.992272 0)
(0.00473683 -0.994983 0)
(0.00636062 -0.99653 0)
(0.00791923 -0.997599 0)
(0.00946516 -0.998119 0)
(0.011141 -0.997321 0)
(0.0137178 -0.992391 0)
(0.0160667 -0.97273 0)
(0.0311685 -0.880462 0)
(0.00163674 -0.980726 0)
(0.00369461 -0.989798 0)
(0.00581439 -0.992663 0)
(0.00785162 -0.994307 0)
(0.00982442 -0.99542 0)
(0.0117959 -0.995851 0)
(0.0139042 -0.99461 0)
(0.0169756 -0.988296 0)
(0.0204061 -0.964431 0)
(0.0336928 -0.865605 0)
(0.00195288 -0.977215 0)
(0.0044663 -0.986753 0)
(0.00706575 -0.989782 0)
(0.00958746 -0.991528 0)
(0.0120457 -0.992679 0)
(0.0145209 -0.992992 0)
(0.0171674 -0.991238 0)
(0.0207719 -0.983433 0)
(0.0252811 -0.955536 0)
(0.037828 -0.852032 0)
(0.00232005 -0.973003 0)
(0.00535734 -0.983076 0)
(0.00851676 -0.986253 0)
(0.0115999 -0.988099 0)
(0.0146188 -0.989276 0)
(0.0176704 -0.989437 0)
(0.0209371 -0.987094 0)
(0.0251296 -0.977687 0)
(0.0304533 -0.945977 0)
(0.0426271 -0.839769 0)
(0.00273877 -0.967985 0)
(0.00637759 -0.978598 0)
(0.0101951 -0.981972 0)
(0.0139186 -0.983922 0)
(0.0175763 -0.985116 0)
(0.0212716 -0.9851 0)
(0.0252103 -0.982123 0)
(0.0300083 -0.971091 0)
(0.0361178 -0.935969 0)
(0.0475039 -0.82915 0)
(0.00321805 -0.962043 0)
(0.00755108 -0.973239 0)
(0.0121223 -0.97683 0)
(0.0165775 -0.978891 0)
(0.0209614 -0.980103 0)
(0.0253762 -0.979902 0)
(0.0300386 -0.976292 0)
(0.0354731 -0.963703 0)
(0.0423914 -0.925574 0)
(0.0526754 -0.82016 0)
(0.00376669 -0.955036 0)
(0.0088981 -0.966872 0)
(0.0143292 -0.970702 0)
(0.0196213 -0.972888 0)
(0.0248312 -0.974129 0)
(0.0300552 -0.973757 0)
(0.0355022 -0.969546 0)
(0.0416363 -0.955508 0)
(0.0491559 -0.91519 0)
(0.0583482 -0.812671 0)
(0.00439337 -0.946806 0)
(0.0104413 -0.959349 0)
(0.016855 -0.963444 0)
(0.023104 -0.965778 0)
(0.0292544 -0.96707 0)
(0.0353935 -0.966558 0)
(0.0417068 -0.961819 0)
(0.0485811 -0.946589 0)
(0.0565274 -0.905005 0)
(0.0647605 -0.806511 0)
(0.00510746 -0.937178 0)
(0.0122056 -0.950502 0)
(0.0197425 -0.954897 0)
(0.0270854 -0.957404 0)
(0.034309 -0.958777 0)
(0.0414883 -0.958177 0)
(0.0487742 -0.953032 0)
(0.0564473 -0.93697 0)
(0.064758 -0.895041 0)
(0.0722204 -0.801476 0)
(0.0059184 -0.925952 0)
(0.0142164 -0.940144 0)
(0.0230347 -0.944878 0)
(0.0316264 -0.947586 0)
(0.0400764 -0.949076 0)
(0.0484441 -0.948457 0)
(0.0568369 -0.943065 0)
(0.0654116 -0.926591 0)
(0.0741301 -0.885212 0)
(0.0810557 -0.797314 0)
(0.00683544 -0.912911 0)
(0.0164967 -0.928066 0)
(0.0267712 -0.933182 0)
(0.036784 -0.93612 0)
(0.0466329 -0.937766 0)
(0.0563611 -0.937205 0)
(0.0660255 -0.931754 0)
(0.0756531 -0.91531 0)
(0.0849197 -0.875323 0)
(0.0916055 -0.793702 0)
(0.00786246 -0.897819 0)
(0.019065 -0.914039 0)
(0.030984 -0.919585 0)
(0.0426036 -0.92278 0)
(0.0540399 -0.924618 0)
(0.0653212 -0.924195 0)
(0.0764514 -0.918877 0)
(0.0873308 -0.902901 0)
(0.097378 -0.865062 0)
(0.104209 -0.79022 0)
(0.00901854 -0.880422 0)
(0.0219327 -0.897817 0)
(0.0356926 -0.903848 0)
(0.0491128 -0.907325 0)
(0.0623336 -0.909386 0)
(0.0753731 -0.909173 0)
(0.0881848 -0.904169 0)
(0.100554 -0.889058 0)
(0.111687 -0.854003 0)
(0.119123 -0.786321 0)
(0.0103134 -0.860461 0)
(0.0251053 -0.879172 0)
(0.0409014 -0.885728 0)
(0.0563155 -0.889511 0)
(0.0715166 -0.891815 0)
(0.0865208 -0.891869 0)
(0.101238 -0.887333 0)
(0.115357 -0.873417 0)
(0.127929 -0.841631 0)
(0.136486 -0.781354 0)
(0.0117319 -0.837652 0)
(0.0285806 -0.857863 0)
(0.0465986 -0.86499 0)
(0.064189 -0.869097 0)
(0.0815534 -0.871657 0)
(0.0987159 -0.872017 0)
(0.115554 -0.868063 0)
(0.131687 -0.855582 0)
(0.146072 -0.827381 0)
(0.156295 -0.774593 0)
(0.0132667 -0.811741 0)
(0.0323454 -0.833663 0)
(0.0527544 -0.841416 0)
(0.0726839 -0.845867 0)
(0.0923695 -0.848688 0)
(0.111856 -0.849373 0)
(0.131004 -0.846068 0)
(0.149393 -0.835162 0)
(0.165949 -0.810678 0)
(0.178374 -0.765272 0)
(0.0149109 -0.782484 0)
(0.0363783 -0.806361 0)
(0.0593248 -0.814814 0)
(0.0817272 -0.819638 0)
(0.103855 -0.822727 0)
(0.125789 -0.823738 0)
(0.147389 -0.821102 0)
(0.168228 -0.811804 0)
(0.187262 -0.790985 0)
(0.202363 -0.752644 0)
(0.0166577 -0.749653 0)
(0.0406556 -0.775776 0)
(0.066257 -0.785032 0)
(0.0912293 -0.790277 0)
(0.115874 -0.793648 0)
(0.140323 -0.79498 0)
(0.164452 -0.792994 0)
(0.187861 -0.785241 0)
(0.209587 -0.767864 0)
(0.227726 -0.73606 0)
(0.0185024 -0.713036 0)
(0.0451559 -0.741755 0)
(0.0734971 -0.751963 0)
(0.101094 -0.757708 0)
(0.128276 -0.761398 0)
(0.15524 -0.763049 0)
(0.181899 -0.761667 0)
(0.207904 -0.755324 0)
(0.232414 -0.741035 0)
(0.253789 -0.715054 0)
(0.0204442 -0.672433 0)
(0.0498663 -0.70418 0)
(0.0809988 -0.71555 0)
(0.111229 -0.721921 0)
(0.140908 -0.726001 0)
(0.170319 -0.727991 0)
(0.199423 -0.727163 0)
(0.227945 -0.722051 0)
(0.255193 -0.710412 0)
(0.279812 -0.689412 0)
(0.0224892 -0.627647 0)
(0.0547881 -0.662957 0)
(0.0887316 -0.675789 0)
(0.121557 -0.682975 0)
(0.153634 -0.687567 0)
(0.185349 -0.689949 0)
(0.216731 -0.689644 0)
(0.247588 -0.685579 0)
(0.277388 -0.676125 0)
(0.305067 -0.659214 0)
(0.0246527 -0.578464 0)
(0.0599423 -0.618015 0)
(0.0966873 -0.632729 0)
(0.13202 -0.641001 0)
(0.166332 -0.646288 0)
(0.200142 -0.649165 0)
(0.233557 -0.649382 0)
(0.266478 -0.646206 0)
(0.29853 -0.6385 0)
(0.328919 -0.624821 0)
(0.0269605 -0.524639 0)
(0.0653719 -0.569295 0)
(0.10488 -0.586474 0)
(0.142576 -0.596206 0)
(0.178895 -0.602438 0)
(0.214526 -0.605963 0)
(0.249669 -0.606746 0)
(0.284316 -0.604345 0)
(0.318239 -0.598018 0)
(0.350878 -0.586815 0)
(0.0294513 -0.465869 0)
(0.071137 -0.516751 0)
(0.11333 -0.537199 0)
(0.153177 -0.548882 0)
(0.191205 -0.556373 0)
(0.228323 -0.560739 0)
(0.264844 -0.56217 0)
(0.300846 -0.560478 0)
(0.336224 -0.555247 0)
(0.37061 -0.545908 0)
(0.0321596 -0.401798 0)
(0.077299 -0.460375 0)
(0.122029 -0.485152 0)
(0.163717 -0.499404 0)
(0.203076 -0.508519 0)
(0.241296 -0.513942 0)
(0.278823 -0.516118 0)
(0.315804 -0.515108 0)
(0.352234 -0.510765 0)
(0.387891 -0.502826 0)
(0.0352101 -0.331962 0)
(0.0838194 -0.400258 0)
(0.130793 -0.43078 0)
(0.173925 -0.44831 0)
(0.214177 -0.459405 0)
(0.253078 -0.466065 0)
(0.291233 -0.469058 0)
(0.328852 -0.4687 0)
(0.365992 -0.465091 0)
(0.402527 -0.458213 0)
(0.0385528 -0.25645 0)
(0.0905477 -0.336689 0)
(0.139047 -0.37425 0)
(0.183075 -0.396006 0)
(0.223793 -0.409542 0)
(0.263001 -0.417592 0)
(0.301472 -0.421412 0)
(0.339469 -0.421642 0)
(0.37708 -0.418625 0)
(0.414228 -0.412557 0)
(0.0394486 -0.17317 0)
(0.0952812 -0.272789 0)
(0.14562 -0.317635 0)
(0.190231 -0.343426 0)
(0.230903 -0.359433 0)
(0.270025 -0.368882 0)
(0.308582 -0.373463 0)
(0.346823 -0.374167 0)
(0.384815 -0.371592 0)
(0.422491 -0.366125 0)
(0.0332607 -0.0850049 0)
(0.0905842 -0.197994 0)
(0.145008 -0.258174 0)
(0.192088 -0.290921 0)
(0.23336 -0.30973 0)
(0.272468 -0.320332 0)
(0.311105 -0.325395 0)
(0.349646 -0.326342 0)
(0.388129 -0.32401 0)
(0.42646 -0.318947 0)
(0.0207919 -0.0180809 0)
(0.0716909 -0.118137 0)
(0.129001 -0.191526 0)
(0.181008 -0.234987 0)
(0.225708 -0.258959 0)
(0.266621 -0.271438 0)
(0.306354 -0.276938 0)
(0.34584 -0.27786 0)
(0.385309 -0.275504 0)
(0.424715 -0.270629 0)
(0.00866117 0.0221109 0)
(0.0458064 -0.046955 0)
(0.0973855 -0.120297 0)
(0.150992 -0.17201 0)
(0.200297 -0.202933 0)
(0.245698 -0.219323 0)
(0.288986 -0.226422 0)
(0.331286 -0.227761 0)
(0.373123 -0.225466 0)
(0.414645 -0.220749 0)
(-0.00477882 0.0416212 0)
(0.0212478 0.00178625 0)
(0.0583223 -0.0567412 0)
(0.10405 -0.106425 0)
(0.153121 -0.140063 0)
(0.202583 -0.160002 0)
(0.251229 -0.169832 0)
(0.298764 -0.172872 0)
(0.345265 -0.17155 0)
(0.390889 -0.167517 0)
(-0.0204509 0.0426152 0)
(-0.00828768 0.0201977 0)
(0.0150462 -0.0140878 0)
(0.0472992 -0.0500797 0)
(0.089041 -0.0779342 0)
(0.13784 -0.0957559 0)
(0.190584 -0.105205 0)
(0.244128 -0.109083 0)
(0.296901 -0.10886 0)
(0.348603 -0.105765 0)
(-0.0254527 0.0119863 0)
(-0.0433678 0.000930815 0)
(-0.0484214 -0.0151108 0)
(-0.0238777 -0.0293331 0)
(0.00910624 -0.0407973 0)
(0.0536045 -0.0466414 0)
(0.105315 -0.0502007 0)
(0.165574 -0.0529537 0)
(0.227431 -0.0536897 0)
(0.28692 -0.0522043 0)
(-0.041011 -0.154812 0)
(-0.121182 0.0124755 0)
(-0.106394 0.0182373 0)
(-0.0909113 0.0206254 0)
(-0.0728586 0.0234255 0)
(-0.0509655 0.0250482 0)
(-0.029035 0.0258854 0)
(-0.00724375 0.0263904 0)
(0.014202 0.0253767 0)
(0.034807 0.0236071 0)
(0.0550931 0.0219832 0)
(0.0741346 0.0198148 0)
(0.0897343 0.0167686 0)
(0.102336 0.0133461 0)
(0.11165 0.00975512 0)
(0.117442 0.00661773 0)
(0.119633 0.00326586 0)
(0.117963 -0.000560218 0)
(0.11225 -0.00466988 0)
(0.102162 -0.00889212 0)
(0.0875368 -0.0131109 0)
(0.068473 -0.0169049 0)
(0.0453677 -0.0185372 0)
(0.0202594 -0.0154545 0)
(0.00414695 -0.00794148 0)
(-0.0244352 -0.227849 0)
(-0.0738196 -0.0114591 0)
(-0.080275 0.0193871 0)
(-0.0760301 0.0291653 0)
(-0.0654654 0.0359001 0)
(-0.0509032 0.0405725 0)
(-0.0337551 0.0433163 0)
(-0.0149885 0.0441709 0)
(0.00438013 0.0428203 0)
(0.0231307 0.0402586 0)
(0.0403618 0.0369954 0)
(0.0556459 0.0325422 0)
(0.0687268 0.0268437 0)
(0.0793967 0.020524 0)
(0.0874636 0.0139568 0)
(0.0927913 0.0072554 0)
(0.0953359 0.000360087 0)
(0.095339 -0.00674542 0)
(0.0928007 -0.014161 0)
(0.0876143 -0.0219719 0)
(0.0796012 -0.0300438 0)
(0.068423 -0.0377261 0)
(0.0540302 -0.0428969 0)
(0.0337682 -0.0414824 0)
(0.0130988 -0.0301541 0)
(-0.00414982 -0.302381 0)
(-0.0537827 -0.0432615 0)
(-0.067409 0.0144243 0)
(-0.0685341 0.035759 0)
(-0.0623391 0.0489352 0)
(-0.0513792 0.0577689 0)
(-0.0373693 0.0630755 0)
(-0.0216898 0.0652277 0)
(-0.00496184 0.0645722 0)
(0.0121099 0.0615813 0)
(0.027835 0.0565498 0)
(0.0414158 0.0497278 0)
(0.0528767 0.0414395 0)
(0.0621525 0.0322815 0)
(0.069071 0.0226849 0)
(0.0736065 0.012897 0)
(0.0758061 0.00296671 0)
(0.0757802 -0.00722326 0)
(0.0736593 -0.0178302 0)
(0.0695488 -0.028971 0)
(0.0635079 -0.0406087 0)
(0.0554165 -0.052246 0)
(0.0450901 -0.0621148 0)
(0.031226 -0.0656287 0)
(0.0153983 -0.0561808 0)
(0.00671556 -0.375303 0)
(-0.0463098 -0.0816988 0)
(-0.0643515 0.00383234 0)
(-0.0683101 0.0386154 0)
(-0.0644401 0.0593612 0)
(-0.0553793 0.0731693 0)
(-0.0431417 0.0816887 0)
(-0.029095 0.0857251 0)
(-0.0141368 0.0860066 0)
(0.0010916 0.0824426 0)
(0.0154267 0.0752791 0)
(0.0279471 0.065601 0)
(0.0384545 0.054393 0)
(0.0468694 0.0422327 0)
(0.0530284 0.0296058 0)
(0.0569921 0.0168467 0)
(0.0588986 0.00409087 0)
(0.0589057 -0.00869648 0)
(0.0571704 -0.0216791 0)
(0.0538345 -0.0350506 0)
(0.0490085 -0.0489208 0)
(0.042702 -0.0630873 0)
(0.0347076 -0.0763754 0)
(0.0246291 -0.0849672 0)
(0.0143696 -0.0856984 0)
(0.0158248 -0.436097 0)
(-0.0380635 -0.129672 0)
(-0.0620478 -0.0138512 0)
(-0.0694328 0.0374712 0)
(-0.0683529 0.0672907 0)
(-0.0609286 0.086527 0)
(-0.0502341 0.0983784 0)
(-0.0374764 0.104245 0)
(-0.0238684 0.104954 0)
(-0.0102761 0.100776 0)
(0.00264922 0.0921997 0)
(0.0143356 0.0803386 0)
(0.0242641 0.0664588 0)
(0.0320944 0.0514198 0)
(0.0377495 0.0359398 0)
(0.0413654 0.0205035 0)
(0.04317 0.00530819 0)
(0.0433849 -0.00968873 0)
(0.0421885 -0.0246733 0)
(0.0397266 -0.0398691 0)
(0.0361094 -0.05544 0)
(0.0313813 -0.0713215 0)
(0.0253748 -0.0867405 0)
(0.0175977 -0.0990387 0)
(0.0114154 -0.105226 0)
(0.0245781 -0.484657 0)
(-0.0270899 -0.182131 0)
(-0.0547202 -0.0387561 0)
(-0.067762 0.0311214 0)
(-0.0702488 0.0717835 0)
(-0.0654953 0.0972167 0)
(-0.0569678 0.112851 0)
(-0.0461078 0.120722 0)
(-0.034064 0.122012 0)
(-0.0217488 0.117446 0)
(-0.00984306 0.107788 0)
(0.00104252 0.0941191 0)
(0.0103372 0.0777449 0)
(0.0176558 0.0599411 0)
(0.0229266 0.0417835 0)
(0.0263379 0.0239565 0)
(0.0281919 0.00670439 0)
(0.0287623 -0.0100602 0)
(0.02824 -0.0265985 0)
(0.0267601 -0.0432018 0)
(0.0244146 -0.0600904 0)
(0.0212478 -0.07727 0)
(0.0171817 -0.0941772 0)
(0.0114583 -0.10901 0)
(0.00812419 -0.118395 0)
(0.0304924 -0.52241 0)
(-0.0136618 -0.232991 0)
(-0.0432239 -0.0708183 0)
(-0.0613981 0.0183533 0)
(-0.0680462 0.0711922 0)
(-0.0674388 0.104048 0)
(-0.0619414 0.124112 0)
(-0.0536978 0.134558 0)
(-0.0437351 0.137084 0)
(-0.0330014 0.132696 0)
(-0.0222175 0.122263 0)
(-0.012141 0.10696 0)
(-0.00342154 0.088296 0)
(0.00350754 0.0679102 0)
(0.00853951 0.0472958 0)
(0.0118913 0.0273835 0)
(0.0139305 0.00845546 0)
(0.0149767 -0.00966602 0)
(0.0152272 -0.0273534 0)
(0.0148031 -0.0449812 0)
(0.0137801 -0.0628292 0)
(0.0122002 -0.0809627 0)
(0.0100641 -0.0989558 0)
(0.00640897 -0.115496 0)
(0.00561655 -0.126897 0)
(0.0351319 -0.552274 0)
(-0.000439703 -0.278365 0)
(-0.0307973 -0.105007 0)
(-0.0517774 -0.000365858 0)
(-0.0627757 0.0644733 0)
(-0.0664069 0.105615 0)
(-0.06485 0.131035 0)
(-0.0597826 0.144867 0)
(-0.052464 0.149349 0)
(-0.043862 0.145859 0)
(-0.034499 0.135311 0)
(-0.0252811 0.118871 0)
(-0.0170214 0.0982701 0)
(-0.0102918 0.0755513 0)
(-0.00530716 0.0526865 0)
(-0.00185673 0.0309519 0)
(0.000482238 0.0106909 0)
(0.00208299 -0.0084056 0)
(0.00315586 -0.0268685 0)
(0.00381281 -0.0451696 0)
(0.00411768 -0.0636391 0)
(0.00411004 -0.0823856 0)
(0.00383326 -0.101086 0)
(0.00221916 -0.118702 0)
(0.00353128 -0.131308 0)
(0.0395296 -0.57575 0)
(0.0107687 -0.31857 0)
(-0.0186411 -0.13985 0)
(-0.0411331 -0.0235698 0)
(-0.0556487 0.0522235 0)
(-0.0633719 0.101612 0)
(-0.0657703 0.132989 0)
(-0.0644692 0.150948 0)
(-0.0602221 0.158122 0)
(-0.0543659 0.156422 0)
(-0.0468335 0.14673 0)
(-0.0385499 0.129938 0)
(-0.0306064 0.107949 0)
(-0.02377 0.083189 0)
(-0.0185309 0.0582419 0)
(-0.0147843 0.0348675 0)
(-0.0120482 0.0135346 0)
(-0.00986136 -0.00622205 0)
(-0.00796828 -0.0251311 0)
(-0.00625472 -0.0437847 0)
(-0.00466492 -0.0625637 0)
(-0.00316259 -0.0816088 0)
(-0.00171422 -0.100683 0)
(-0.00134061 -0.118909 0)
(0.00155604 -0.132182 0)
(0.043986 -0.594452 0)
(0.02043 -0.354102 0)
(-0.00719692 -0.174088 0)
(-0.0305129 -0.0495847 0)
(-0.0477904 0.0353286 0)
(-0.0592031 0.0924623 0)
(-0.0656695 0.129735 0)
(-0.068288 0.152239 0)
(-0.0676959 0.162474 0)
(-0.0645847 0.16381 0)
(-0.0594981 0.156216 0)
(-0.0523242 0.140198 0)
(-0.0446226 0.117681 0)
(-0.037287 0.0913164 0)
(-0.0313051 0.0643792 0)
(-0.0269187 0.0393705 0)
(-0.0236373 0.0170859 0)
(-0.020835 -0.00309272 0)
(-0.0181485 -0.0221625 0)
(-0.0154339 -0.0408778 0)
(-0.0126286 -0.0596823 0)
(-0.00970114 -0.0787547 0)
(-0.00667913 -0.0979492 0)
(-0.00440336 -0.116513 0)
(-0.000214956 -0.130009 0)
(0.0484835 -0.609509 0)
(0.0289217 -0.385492 0)
(0.0032756 -0.207219 0)
(-0.0204254 -0.0775056 0)
(-0.0398287 0.0144773 0)
(-0.0544671 0.0783421 0)
(-0.0647433 0.121238 0)
(-0.0713076 0.148326 0)
(-0.0747406 0.162875 0)
(-0.0747311 0.167073 0)
(-0.0725628 0.163116 0)
(-0.0670582 0.149429 0)
(-0.0598083 0.127745 0)
(-0.0516788 0.100589 0)
(-0.0442652 0.0717777 0)
(-0.0385757 0.0448759 0)
(-0.0344106 0.0214846 0)
(-0.0309031 0.000968174 0)
(-0.0274382 -0.018038 0)
(-0.0237819 -0.0365478 0)
(-0.0198355 -0.0551081 0)
(-0.01557 -0.0739568 0)
(-0.0110807 -0.0930669 0)
(-0.00703785 -0.111838 0)
(-0.00185714 -0.125129 0)
(0.0533963 -0.621965 0)
(0.0366175 -0.413522 0)
(0.0127766 -0.23914 0)
(-0.0110504 -0.106682 0)
(-0.0320944 -0.00958387 0)
(-0.0495123 0.0598183 0)
(-0.0632737 0.107749 0)
(-0.0736417 0.139251 0)
(-0.0808792 0.158168 0)
(-0.0850533 0.16651 0)
(-0.0858552 0.166559 0)
(-0.0832508 0.156826 0)
(-0.0770687 0.137999 0)
(-0.0683445 0.111647 0)
(-0.058887 0.081526 0)
(-0.0507488 0.0522669 0)
(-0.0447926 0.0271684 0)
(-0.0402651 0.00607428 0)
(-0.035962 -0.0127937 0)
(-0.0313946 -0.0308942 0)
(-0.026371 -0.0489661 0)
(-0.0208279 -0.0673554 0)
(-0.0148869 -0.0862087 0)
(-0.00918936 -0.105144 0)
(-0.0030574 -0.117956 0)
(0.0586626 -0.632733 0)
(0.0438766 -0.438949 0)
(0.021519 -0.269975 0)
(-0.00229908 -0.136776 0)
(-0.0246845 -0.0362683 0)
(-0.0445217 0.0374256 0)
(-0.0614264 0.0896442 0)
(-0.0753847 0.125136 0)
(-0.0865285 0.147903 0)
(-0.0947863 0.160827 0)
(-0.0994616 0.165438 0)
(-0.100885 0.160918 0)
(-0.0969984 0.147354 0)
(-0.0887975 0.124468 0)
(-0.0776146 0.0949082 0)
(-0.0657787 0.0633459 0)
(-0.056153 0.0352106 0)
(-0.049452 0.0126769 0)
(-0.0439926 -0.00632859 0)
(-0.0384301 -0.0239463 0)
(-0.0323477 -0.0413115 0)
(-0.0255097 -0.0589455 0)
(-0.0179322 -0.0771792 0)
(-0.0103121 -0.0961136 0)
(-0.00321156 -0.109607 0)
(0.0645736 -0.642467 0)
(0.0511693 -0.462458 0)
(0.0299369 -0.299928 0)
(0.00614954 -0.167627 0)
(-0.0173595 -0.0652047 0)
(-0.0392521 0.0116047 0)
(-0.0589065 0.0673212 0)
(-0.0761174 0.106317 0)
(-0.0908557 0.132636 0)
(-0.103019 0.149408 0)
(-0.112215 0.15845 0)
(-0.118011 0.160719 0)
(-0.118977 0.153345 0)
(-0.113468 0.137071 0)
(-0.102706 0.111798 0)
(-0.0879652 0.0805425 0)
(-0.0725992 0.0485378 0)
(-0.0606485 0.0220997 0)
(-0.0523803 0.00187096 0)
(-0.045338 -0.0154642 0)
(-0.0381087 -0.0320496 0)
(-0.0299368 -0.0487369 0)
(-0.0202254 -0.0661214 0)
(-0.00994027 -0.0847465 0)
(-0.00507106 -0.101327 0)
(0.0715528 -0.651652 0)
(0.0590642 -0.484613 0)
(0.0386859 -0.3292 0)
(0.0148681 -0.199124 0)
(-0.0095536 -0.0960203 0)
(-0.0331229 -0.0171257 0)
(-0.0550823 0.0413024 0)
(-0.0751062 0.0832098 0)
(-0.0930599 0.112564 0)
(-0.108826 0.13269 0)
(-0.122163 0.145609 0)
(-0.132537 0.15236 0)
(-0.139379 0.15373 0)
(-0.14036 0.145001 0)
(-0.133744 0.128251 0)
(-0.120633 0.102752 0)
(-0.101991 0.0714252 0)
(-0.0817717 0.0395159 0)
(-0.065684 0.0136052 0)
(-0.0543467 -0.00560793 0)
(-0.0446076 -0.0215108 0)
(-0.0342331 -0.0366379 0)
(-0.020564 -0.0517994 0)
(-0.00132153 -0.0671558 0)
(0.0158205 -0.0851165 0)
(0.0800271 -0.660553 0)
(0.0681611 -0.505928 0)
(0.0483884 -0.358041 0)
(0.0245446 -0.231077 0)
(-0.000549923 -0.128321 0)
(-0.0254059 -0.0481707 0)
(-0.0491634 0.0122798 0)
(-0.0713953 0.0565131 0)
(-0.0919543 0.0883265 0)
(-0.110785 0.111209 0)
(-0.127831 0.127219 0)
(-0.142686 0.1377 0)
(-0.154739 0.143539 0)
(-0.163381 0.144969 0)
(-0.165654 0.13708 0)
(-0.159793 0.122067 0)
(-0.146247 0.0990953 0)
(-0.125444 0.0704878 0)
(-0.100724 0.0404769 0)
(-0.0779116 0.01423 0)
(-0.0607314 -0.0052322 0)
(-0.0456942 -0.0185521 0)
(-0.0311648 -0.0267332 0)
(-0.0161387 -0.0274493 0)
(-0.00108458 -0.0158499 0)
(0.0904183 -0.669188 0)
(0.0790929 -0.526487 0)
(0.0598248 -0.386615 0)
(0.0360815 -0.263491 0)
(0.0104937 -0.161737 0)
(-0.0152945 -0.080944 0)
(-0.0403179 -0.0189736 0)
(-0.0640878 0.0271167 0)
(-0.0863666 0.0607529 0)
(-0.1075 0.0855732 0)
(-0.127595 0.103939 0)
(-0.14594 0.117109 0)
(-0.162501 0.126131 0)
(-0.176973 0.131455 0)
(-0.188 0.132749 0)
(-0.193908 0.127615 0)
(-0.192595 0.11593 0)
(-0.183716 0.0981935 0)
(-0.167035 0.0754225 0)
(-0.145752 0.0518441 0)
(-0.124426 0.0312013 0)
(-0.10716 0.0133873 0)
(-0.0988812 -0.0046776 0)
(-0.103213 -0.0278808 0)
(-0.126747 -0.0655488 0)
(0.103189 -0.677465 0)
(0.0925099 -0.546332 0)
(0.0738539 -0.414735 0)
(0.0503223 -0.296079 0)
(0.0244587 -0.195911 0)
(-0.00196289 -0.114926 0)
(-0.0278733 -0.051727 0)
(-0.0526745 -0.00399248 0)
(-0.0760086 0.0311755 0)
(-0.0982387 0.0570836 0)
(-0.119748 0.0768398 0)
(-0.140388 0.0919397 0)
(-0.15978 0.103066 0)
(-0.177874 0.110826 0)
(-0.194569 0.115192 0)
(-0.209097 0.115877 0)
(-0.220226 0.112267 0)
(-0.2263 0.101271 0)
(-0.229054 0.0841797 0)
(-0.227304 0.0601545 0)
(-0.223954 0.0320652 0)
(-0.2221 0.00138162 0)
(-0.22378 -0.0316444 0)
(-0.230409 -0.0681733 0)
(-0.23934 -0.109575 0)
(0.118716 -0.68501 0)
(0.108933 -0.565288 0)
(0.0911171 -0.442221 0)
(0.0680102 -0.328554 0)
(0.0421415 -0.230508 0)
(0.0153654 -0.149726 0)
(-0.0111368 -0.085529 0)
(-0.0366236 -0.0361504 0)
(-0.0606763 0.000796398 0)
(-0.083194 0.0280563 0)
(-0.104628 0.0485912 0)
(-0.125434 0.0645187 0)
(-0.14557 0.0768968 0)
(-0.164968 0.0859461 0)
(-0.183531 0.091828 0)
(-0.201339 0.0944441 0)
(-0.218178 0.0931719 0)
(-0.233288 0.0871305 0)
(-0.245563 0.0755938 0)
(-0.254481 0.0580223 0)
(-0.259497 0.0344765 0)
(-0.261857 0.0058376 0)
(-0.262565 -0.0266403 0)
(-0.257425 -0.0606182 0)
(-0.247863 -0.0923755 0)
(0.137237 -0.691266 0)
(0.128781 -0.58291 0)
(0.112166 -0.468714 0)
(0.0898403 -0.360571 0)
(0.064304 -0.26516 0)
(0.0374939 -0.184964 0)
(0.0107266 -0.119986 0)
(-0.015129 -0.0689913 0)
(-0.0395275 -0.030024 0)
(-0.0622507 -0.000720089 0)
(-0.0834311 0.0212851 0)
(-0.103324 0.038158 0)
(-0.122392 0.051217 0)
(-0.14086 0.0609966 0)
(-0.158637 0.0676369 0)
(-0.175671 0.071051 0)
(-0.191862 0.0711089 0)
(-0.206784 0.0672839 0)
(-0.219861 0.0591346 0)
(-0.230404 0.0463239 0)
(-0.237514 0.0289818 0)
(-0.240277 0.0077492 0)
(-0.237789 -0.0162333 0)
(-0.229002 -0.0410491 0)
(-0.2132 -0.0634274 0)
(0.158825 -0.69552 0)
(0.152278 -0.598553 0)
(0.137403 -0.493637 0)
(0.116359 -0.391612 0)
(0.09159 -0.299395 0)
(0.0651249 -0.220186 0)
(0.0384294 -0.154682 0)
(0.0124997 -0.102146 0)
(-0.0120151 -0.0610842 0)
(-0.0347811 -0.0295159 0)
(-0.0557741 -0.0053519 0)
(-0.0751783 0.0132301 0)
(-0.0932735 0.0275041 0)
(-0.110269 0.0383371 0)
(-0.126207 0.0460788 0)
(-0.140977 0.0508152 0)
(-0.15449 0.0524223 0)
(-0.166556 0.0506527 0)
(-0.176797 0.0452578 0)
(-0.184619 0.0360922 0)
(-0.189326 0.0236174 0)
(-0.190147 0.00868498 0)
(-0.186475 -0.00776099 0)
(-0.177872 -0.0245905 0)
(-0.164527 -0.0403111 0)
(0.183335 -0.696929 0)
(0.179388 -0.611374 0)
(0.166954 -0.516196 0)
(0.147854 -0.420972 0)
(0.124428 -0.332617 0)
(0.0987773 -0.254904 0)
(0.0725139 -0.189194 0)
(0.0467734 -0.135309 0)
(0.0223085 -0.0921762 0)
(-0.000454228 -0.058246 0)
(-0.0213741 -0.0317686 0)
(-0.0405256 -0.0110922 0)
(-0.0580819 0.0050866 0)
(-0.0741958 0.0176694 0)
(-0.0889089 0.027148 0)
(-0.102146 0.033679 0)
(-0.113703 0.0372445 0)
(-0.123398 0.0378509 0)
(-0.13113 0.0352867 0)
(-0.136651 0.029491 0)
(-0.139525 0.0210122 0)
(-0.139422 0.0106319 0)
(-0.136098 -0.000893059 0)
(-0.129539 -0.0128333 0)
(-0.120056 -0.0244528 0)
(0.210378 -0.694591 0)
(0.209765 -0.62037 0)
(0.200596 -0.535382 0)
(0.184269 -0.447731 0)
(0.162932 -0.364052 0)
(0.138712 -0.288519 0)
(0.113343 -0.223095 0)
(0.0881096 -0.168179 0)
(0.0638863 -0.123183 0)
(0.041198 -0.0869481 0)
(0.0202839 -0.0580576 0)
(0.00117448 -0.0350872 0)
(-0.016227 -0.0167848 0)
(-0.0320373 -0.00217708 0)
(-0.046285 0.00937342 0)
(-0.0588852 0.0181543 0)
(-0.0697036 0.0241405 0)
(-0.0785752 0.0272387 0)
(-0.0854459 0.0273917 0)
(-0.0902652 0.0246061 0)
(-0.0928376 0.0193372 0)
(-0.0930159 0.0123405 0)
(-0.0907575 0.00424604 0)
(-0.0861332 -0.00443138 0)
(-0.0793797 -0.0132086 0)
(0.239313 -0.687642 0)
(0.242724 -0.624476 0)
(0.23769 -0.550013 0)
(0.2251 -0.470734 0)
(0.206787 -0.392686 0)
(0.18481 -0.320216 0)
(0.160986 -0.255792 0)
(0.136735 -0.200372 0)
(0.113072 -0.153876 0)
(0.0906481 -0.115575 0)
(0.069807 -0.0843878 0)
(0.0506615 -0.0591184 0)
(0.0331774 -0.0386231 0)
(0.0172768 -0.0219081 0)
(0.00296277 -0.00821307 0)
(-0.00964557 0.00285191 0)
(-0.0204972 0.0112993 0)
(-0.0295367 0.0169891 0)
(-0.0367414 0.0197271 0)
(-0.0420314 0.0195813 0)
(-0.0452813 0.0171257 0)