/*--------------------------------*- C++ -*----------------------------------*\
| =========                 |                                                 |
| \\      /  F ield         | OpenFOAM: The Open Source CFD Toolbox           |
|  \\    /   O peration     | Version:  v2012                                 |
|   \\  /    A nd           | Website:  www.openfoam.com                      |
|    \\/     M anipulation  |                                                 |
\*---------------------------------------------------------------------------*/
FoamFile
{
    version     2.0;
    format      ascii;
    class       volVectorField;
    location    "0";
    object      C;
}
// * * * * * * * * * * * * * * * * * * * * * * * * * * * * * * * * * * * * * //

dimensions      [0 1 0 0 0 0 0];


internalField   nonuniform List<vector> 
6508
(
(0.01 1.4875 -0.005)
(0.03 1.4875 -0.005)
(0.05 1.4875 -0.005)
(0.07 1.4875 -0.005)
(0.09 1.4875 -0.005)
(0.11 1.4875 -0.005)
(0.13 1.4875 -0.005)
(0.15 1.4875 -0.005)
(0.17 1.4875 -0.005)
(0.19 1.4875 -0.005)
(0.01 1.4625 -0.005)
(0.03 1.4625 -0.005)
(0.05 1.4625 -0.005)
(0.07 1.4625 -0.005)
(0.09 1.4625 -0.005)
(0.11 1.4625 -0.005)
(0.13 1.4625 -0.005)
(0.15 1.4625 -0.005)
(0.17 1.4625 -0.005)
(0.19 1.4625 -0.005)
(0.01 1.4375 -0.005)
(0.03 1.4375 -0.005)
(0.05 1.4375 -0.005)
(0.07 1.4375 -0.005)
(0.09 1.4375 -0.005)
(0.11 1.4375 -0.005)
(0.13 1.4375 -0.005)
(0.15 1.4375 -0.005)
(0.17 1.4375 -0.005)
(0.19 1.4375 -0.005)
(0.01 1.4125 -0.005)
(0.03 1.4125 -0.005)
(0.05 1.4125 -0.005)
(0.07 1.4125 -0.005)
(0.09 1.4125 -0.005)
(0.11 1.4125 -0.005)
(0.13 1.4125 -0.005)
(0.15 1.4125 -0.005)
(0.17 1.4125 -0.005)
(0.19 1.4125 -0.005)
(0.01 1.3875 -0.005)
(0.03 1.3875 -0.005)
(0.05 1.3875 -0.005)
(0.07 1.3875 -0.005)
(0.09 1.3875 -0.005)
(0.11 1.3875 -0.005)
(0.13 1.3875 -0.005)
(0.15 1.3875 -0.005)
(0.17 1.3875 -0.005)
(0.19 1.3875 -0.005)
(0.01 1.3625 -0.005)
(0.03 1.3625 -0.005)
(0.05 1.3625 -0.005)
(0.07 1.3625 -0.005)
(0.09 1.3625 -0.005)
(0.11 1.3625 -0.005)
(0.13 1.3625 -0.005)
(0.15 1.3625 -0.005)
(0.17 1.3625 -0.005)
(0.19 1.3625 -0.005)
(0.01 1.3375 -0.005)
(0.03 1.3375 -0.005)
(0.05 1.3375 -0.005)
(0.07 1.3375 -0.005)
(0.09 1.3375 -0.005)
(0.11 1.3375 -0.005)
(0.13 1.3375 -0.005)
(0.15 1.3375 -0.005)
(0.17 1.3375 -0.005)
(0.19 1.3375 -0.005)
(0.01 1.3125 -0.005)
(0.03 1.3125 -0.005)
(0.05 1.3125 -0.005)
(0.07 1.3125 -0.005)
(0.09 1.3125 -0.005)
(0.11 1.3125 -0.005)
(0.13 1.3125 -0.005)
(0.15 1.3125 -0.005)
(0.17 1.3125 -0.005)
(0.19 1.3125 -0.005)
(0.01 1.2875 -0.005)
(0.03 1.2875 -0.005)
(0.05 1.2875 -0.005)
(0.07 1.2875 -0.005)
(0.09 1.2875 -0.005)
(0.11 1.2875 -0.005)
(0.13 1.2875 -0.005)
(0.15 1.2875 -0.005)
(0.17 1.2875 -0.005)
(0.19 1.2875 -0.005)
(0.01 1.2625 -0.005)
(0.03 1.2625 -0.005)
(0.05 1.2625 -0.005)
(0.07 1.2625 -0.005)
(0.09 1.2625 -0.005)
(0.11 1.2625 -0.005)
(0.13 1.2625 -0.005)
(0.15 1.2625 -0.005)
(0.17 1.2625 -0.005)
(0.19 1.2625 -0.005)
(0.01 1.2375 -0.005)
(0.03 1.2375 -0.005)
(0.05 1.2375 -0.005)
(0.07 1.2375 -0.005)
(0.09 1.2375 -0.005)
(0.11 1.2375 -0.005)
(0.13 1.2375 -0.005)
(0.15 1.2375 -0.005)
(0.17 1.2375 -0.005)
(0.19 1.2375 -0.005)
(0.01 1.2125 -0.005)
(0.03 1.2125 -0.005)
(0.05 1.2125 -0.005)
(0.07 1.2125 -0.005)
(0.09 1.2125 -0.005)
(0.11 1.2125 -0.005)
(0.13 1.2125 -0.005)
(0.15 1.2125 -0.005)
(0.17 1.2125 -0.005)
(0.19 1.2125 -0.005)
(0.01 1.1875 -0.005)
(0.03 1.1875 -0.005)
(0.05 1.1875 -0.005)
(0.07 1.1875 -0.005)
(0.09 1.1875 -0.005)
(0.11 1.1875 -0.005)
(0.13 1.1875 -0.005)
(0.15 1.1875 -0.005)
(0.17 1.1875 -0.005)
(0.19 1.1875 -0.005)
(0.01 1.1625 -0.005)
(0.03 1.1625 -0.005)
(0.05 1.1625 -0.005)
(0.07 1.1625 -0.005)
(0.09 1.1625 -0.005)
(0.11 1.1625 -0.005)
(0.13 1.1625 -0.005)
(0.15 1.1625 -0.005)
(0.17 1.1625 -0.005)
(0.19 1.1625 -0.005)
(0.01 1.1375 -0.005)
(0.03 1.1375 -0.005)
(0.05 1.1375 -0.005)
(0.07 1.1375 -0.005)
(0.09 1.1375 -0.005)
(0.11 1.1375 -0.005)
(0.13 1.1375 -0.005)
(0.15 1.1375 -0.005)
(0.17 1.1375 -0.005)
(0.19 1.1375 -0.005)
(0.01 1.1125 -0.005)
(0.03 1.1125 -0.005)
(0.05 1.1125 -0.005)
(0.07 1.1125 -0.005)
(0.09 1.1125 -0.005)
(0.11 1.1125 -0.005)
(0.13 1.1125 -0.005)
(0.15 1.1125 -0.005)
(0.17 1.1125 -0.005)
(0.19 1.1125 -0.005)
(0.01 1.0875 -0.005)
(0.03 1.0875 -0.005)
(0.05 1.0875 -0.005)
(0.07 1.0875 -0.005)
(0.09 1.0875 -0.005)
(0.11 1.0875 -0.005)
(0.13 1.0875 -0.005)
(0.15 1.0875 -0.005)
(0.17 1.0875 -0.005)
(0.19 1.0875 -0.005)
(0.01 1.0625 -0.005)
(0.03 1.0625 -0.005)
(0.05 1.0625 -0.005)
(0.07 1.0625 -0.005)
(0.09 1.0625 -0.005)
(0.11 1.0625 -0.005)
(0.13 1.0625 -0.005)
(0.15 1.0625 -0.005)
(0.17 1.0625 -0.005)
(0.19 1.0625 -0.005)
(0.01 1.0375 -0.005)
(0.03 1.0375 -0.005)
(0.05 1.0375 -0.005)
(0.07 1.0375 -0.005)
(0.09 1.0375 -0.005)
(0.11 1.0375 -0.005)
(0.13 1.0375 -0.005)
(0.15 1.0375 -0.005)
(0.17 1.0375 -0.005)
(0.19 1.0375 -0.005)
(0.01 1.0125 -0.005)
(0.03 1.0125 -0.005)
(0.05 1.0125 -0.005)
(0.07 1.0125 -0.005)
(0.09 1.0125 -0.005)
(0.11 1.0125 -0.005)
(0.13 1.0125 -0.005)
(0.15 1.0125 -0.005)
(0.17 1.0125 -0.005)
(0.19 1.0125 -0.005)
(0.01 0.987273 -0.005)
(0.03 0.987273 -0.005)
(0.05 0.987273 -0.005)
(0.07 0.987273 -0.005)
(0.09 0.987273 -0.005)
(0.11 0.987273 -0.005)
(0.13 0.987273 -0.005)
(0.15 0.987273 -0.005)
(0.17 0.987273 -0.005)
(0.19 0.987273 -0.005)
(0.01 0.961818 -0.005)
(0.03 0.961818 -0.005)
(0.05 0.961818 -0.005)
(0.07 0.961818 -0.005)
(0.09 0.961818 -0.005)
(0.11 0.961818 -0.005)
(0.13 0.961818 -0.005)
(0.15 0.961818 -0.005)
(0.17 0.961818 -0.005)
(0.19 0.961818 -0.005)
(0.01 0.936364 -0.005)
(0.03 0.936364 -0.005)
(0.05 0.936364 -0.005)
(0.07 0.936364 -0.005)
(0.09 0.936364 -0.005)
(0.11 0.936364 -0.005)
(0.13 0.936364 -0.005)
(0.15 0.936364 -0.005)
(0.17 0.936364 -0.005)
(0.19 0.936364 -0.005)
(0.01 0.910909 -0.005)
(0.03 0.910909 -0.005)
(0.05 0.910909 -0.005)
(0.07 0.910909 -0.005)
(0.09 0.910909 -0.005)
(0.11 0.910909 -0.005)
(0.13 0.910909 -0.005)
(0.15 0.910909 -0.005)
(0.17 0.910909 -0.005)
(0.19 0.910909 -0.005)
(0.01 0.885455 -0.005)
(0.03 0.885455 -0.005)
(0.05 0.885455 -0.005)
(0.07 0.885455 -0.005)
(0.09 0.885455 -0.005)
(0.11 0.885455 -0.005)
(0.13 0.885455 -0.005)
(0.15 0.885455 -0.005)
(0.17 0.885455 -0.005)
(0.19 0.885455 -0.005)
(0.01 0.86 -0.005)
(0.03 0.86 -0.005)
(0.05 0.86 -0.005)
(0.07 0.86 -0.005)
(0.09 0.86 -0.005)
(0.11 0.86 -0.005)
(0.13 0.86 -0.005)
(0.15 0.86 -0.005)
(0.17 0.86 -0.005)
(0.19 0.86 -0.005)
(0.01 0.834545 -0.005)
(0.03 0.834545 -0.005)
(0.05 0.834545 -0.005)
(0.07 0.834545 -0.005)
(0.09 0.834545 -0.005)
(0.11 0.834545 -0.005)
(0.13 0.834545 -0.005)
(0.15 0.834545 -0.005)
(0.17 0.834545 -0.005)
(0.19 0.834545 -0.005)
(0.01 0.809091 -0.005)
(0.03 0.809091 -0.005)
(0.05 0.809091 -0.005)
(0.07 0.809091 -0.005)
(0.09 0.809091 -0.005)
(0.11 0.809091 -0.005)
(0.13 0.809091 -0.005)
(0.15 0.809091 -0.005)
(0.17 0.809091 -0.005)
(0.19 0.809091 -0.005)
(0.01 0.783636 -0.005)
(0.03 0.783636 -0.005)
(0.05 0.783636 -0.005)
(0.07 0.783636 -0.005)
(0.09 0.783636 -0.005)
(0.11 0.783636 -0.005)
(0.13 0.783636 -0.005)
(0.15 0.783636 -0.005)
(0.17 0.783636 -0.005)
(0.19 0.783636 -0.005)
(0.01 0.758182 -0.005)
(0.03 0.758182 -0.005)
(0.05 0.758182 -0.005)
(0.07 0.758182 -0.005)
(0.09 0.758182 -0.005)
(0.11 0.758182 -0.005)
(0.13 0.758182 -0.005)
(0.15 0.758182 -0.005)
(0.17 0.758182 -0.005)
(0.19 0.758182 -0.005)
(0.01 0.732727 -0.005)
(0.03 0.732727 -0.005)
(0.05 0.732727 -0.005)
(0.07 0.732727 -0.005)
(0.09 0.732727 -0.005)
(0.11 0.732727 -0.005)
(0.13 0.732727 -0.005)
(0.15 0.732727 -0.005)
(0.17 0.732727 -0.005)
(0.19 0.732727 -0.005)
(0.01 0.707273 -0.005)
(0.03 0.707273 -0.005)
(0.05 0.707273 -0.005)
(0.07 0.707273 -0.005)
(0.09 0.707273 -0.005)
(0.11 0.707273 -0.005)
(0.13 0.707273 -0.005)
(0.15 0.707273 -0.005)
(0.17 0.707273 -0.005)
(0.19 0.707273 -0.005)
(0.01 0.681818 -0.005)
(0.03 0.681818 -0.005)
(0.05 0.681818 -0.005)
(0.07 0.681818 -0.005)
(0.09 0.681818 -0.005)
(0.11 0.681818 -0.005)
(0.13 0.681818 -0.005)
(0.15 0.681818 -0.005)
(0.17 0.681818 -0.005)
(0.19 0.681818 -0.005)
(0.01 0.656364 -0.005)
(0.03 0.656364 -0.005)
(0.05 0.656364 -0.005)
(0.07 0.656364 -0.005)
(0.09 0.656364 -0.005)
(0.11 0.656364 -0.005)
(0.13 0.656364 -0.005)
(0.15 0.656364 -0.005)
(0.17 0.656364 -0.005)
(0.19 0.656364 -0.005)
(0.01 0.630909 -0.005)
(0.03 0.630909 -0.005)
(0.05 0.630909 -0.005)
(0.07 0.630909 -0.005)
(0.09 0.630909 -0.005)
(0.11 0.630909 -0.005)
(0.13 0.630909 -0.005)
(0.15 0.630909 -0.005)
(0.17 0.630909 -0.005)
(0.19 0.630909 -0.005)
(0.01 0.605455 -0.005)
(0.03 0.605455 -0.005)
(0.05 0.605455 -0.005)
(0.07 0.605455 -0.005)
(0.09 0.605455 -0.005)
(0.11 0.605455 -0.005)
(0.13 0.605455 -0.005)
(0.15 0.605455 -0.005)
(0.17 0.605455 -0.005)
(0.19 0.605455 -0.005)
(0.01 0.58 -0.005)
(0.03 0.58 -0.005)
(0.05 0.58 -0.005)
(0.07 0.58 -0.005)
(0.09 0.58 -0.005)
(0.11 0.58 -0.005)
(0.13 0.58 -0.005)
(0.15 0.58 -0.005)
(0.17 0.58 -0.005)
(0.19 0.58 -0.005)
(0.01 0.554545 -0.005)
(0.03 0.554545 -0.005)
(0.05 0.554545 -0.005)
(0.07 0.554545 -0.005)
(0.09 0.554545 -0.005)
(0.11 0.554545 -0.005)
(0.13 0.554545 -0.005)
(0.15 0.554545 -0.005)
(0.17 0.554545 -0.005)
(0.19 0.554545 -0.005)
(0.01 0.529091 -0.005)
(0.03 0.529091 -0.005)
(0.05 0.529091 -0.005)
(0.07 0.529091 -0.005)
(0.09 0.529091 -0.005)
(0.11 0.529091 -0.005)
(0.13 0.529091 -0.005)
(0.15 0.529091 -0.005)
(0.17 0.529091 -0.005)
(0.19 0.529091 -0.005)
(0.01 0.503636 -0.005)
(0.03 0.503636 -0.005)
(0.05 0.503636 -0.005)
(0.07 0.503636 -0.005)
(0.09 0.503636 -0.005)
(0.11 0.503636 -0.005)
(0.13 0.503636 -0.005)
(0.15 0.503636 -0.005)
(0.17 0.503636 -0.005)
(0.19 0.503636 -0.005)
(0.01 0.478182 -0.005)
(0.03 0.478182 -0.005)
(0.05 0.478182 -0.005)
(0.07 0.478182 -0.005)
(0.09 0.478182 -0.005)
(0.11 0.478182 -0.005)
(0.13 0.478182 -0.005)
(0.15 0.478182 -0.005)
(0.17 0.478182 -0.005)
(0.19 0.478182 -0.005)
(0.01 0.452727 -0.005)
(0.03 0.452727 -0.005)
(0.05 0.452727 -0.005)
(0.07 0.452727 -0.005)
(0.09 0.452727 -0.005)
(0.11 0.452727 -0.005)
(0.13 0.452727 -0.005)
(0.15 0.452727 -0.005)
(0.17 0.452727 -0.005)
(0.19 0.452727 -0.005)
(0.01 0.427778 -0.005)
(0.03 0.427778 -0.005)
(0.05 0.427778 -0.005)
(0.07 0.427778 -0.005)
(0.09 0.427778 -0.005)
(0.11 0.427778 -0.005)
(0.13 0.427778 -0.005)
(0.15 0.427778 -0.005)
(0.17 0.427778 -0.005)
(0.19 0.427778 -0.005)
(0.01 0.403333 -0.005)
(0.03 0.403333 -0.005)
(0.05 0.403333 -0.005)
(0.07 0.403333 -0.005)
(0.09 0.403333 -0.005)
(0.11 0.403333 -0.005)
(0.13 0.403333 -0.005)
(0.15 0.403333 -0.005)
(0.17 0.403333 -0.005)
(0.19 0.403333 -0.005)
(0.01 0.378889 -0.005)
(0.03 0.378889 -0.005)
(0.05 0.378889 -0.005)
(0.07 0.378889 -0.005)
(0.09 0.378889 -0.005)
(0.11 0.378889 -0.005)
(0.13 0.378889 -0.005)
(0.15 0.378889 -0.005)
(0.17 0.378889 -0.005)
(0.19 0.378889 -0.005)
(0.01 0.354444 -0.005)
(0.03 0.354444 -0.005)
(0.05 0.354444 -0.005)
(0.07 0.354444 -0.005)
(0.09 0.354444 -0.005)
(0.11 0.354444 -0.005)
(0.13 0.354444 -0.005)
(0.15 0.354444 -0.005)
(0.17 0.354444 -0.005)
(0.19 0.354444 -0.005)
(0.01 0.33 -0.005)
(0.03 0.33 -0.005)
(0.05 0.33 -0.005)
(0.07 0.33 -0.005)
(0.09 0.33 -0.005)
(0.11 0.33 -0.005)
(0.13 0.33 -0.005)
(0.15 0.33 -0.005)
(0.17 0.33 -0.005)
(0.19 0.33 -0.005)
(0.01 0.305556 -0.005)
(0.03 0.305556 -0.005)
(0.05 0.305556 -0.005)
(0.07 0.305556 -0.005)
(0.09 0.305556 -0.005)
(0.11 0.305556 -0.005)
(0.13 0.305556 -0.005)
(0.15 0.305556 -0.005)
(0.17 0.305556 -0.005)
(0.19 0.305556 -0.005)
(0.01 0.281111 -0.005)
(0.03 0.281111 -0.005)
(0.05 0.281111 -0.005)
(0.07 0.281111 -0.005)
(0.09 0.281111 -0.005)
(0.11 0.281111 -0.005)
(0.13 0.281111 -0.005)
(0.15 0.281111 -0.005)
(0.17 0.281111 -0.005)
(0.19 0.281111 -0.005)
(0.01 0.256667 -0.005)
(0.03 0.256667 -0.005)
(0.05 0.256667 -0.005)
(0.07 0.256667 -0.005)
(0.09 0.256667 -0.005)
(0.11 0.256667 -0.005)
(0.13 0.256667 -0.005)
(0.15 0.256667 -0.005)
(0.17 0.256667 -0.005)
(0.19 0.256667 -0.005)
(0.01 0.232222 -0.005)
(0.03 0.232222 -0.005)
(0.05 0.232222 -0.005)
(0.07 0.232222 -0.005)
(0.09 0.232222 -0.005)
(0.11 0.232222 -0.005)
(0.13 0.232222 -0.005)
(0.15 0.232222 -0.005)
(0.17 0.232222 -0.005)
(0.19 0.232222 -0.005)
(0.01 0.207778 -0.005)
(0.03 0.207778 -0.005)
(0.05 0.207778 -0.005)
(0.07 0.207778 -0.005)
(0.09 0.207778 -0.005)
(0.11 0.207778 -0.005)
(0.13 0.207778 -0.005)
(0.15 0.207778 -0.005)
(0.17 0.207778 -0.005)
(0.19 0.207778 -0.005)
(0.01 0.183333 -0.005)
(0.03 0.183333 -0.005)
(0.05 0.183333 -0.005)
(0.07 0.183333 -0.005)
(0.09 0.183333 -0.005)
(0.11 0.183333 -0.005)
(0.13 0.183333 -0.005)
(0.15 0.183333 -0.005)
(0.17 0.183333 -0.005)
(0.19 0.183333 -0.005)
(0.01 0.158889 -0.005)
(0.03 0.158889 -0.005)
(0.05 0.158889 -0.005)
(0.07 0.158889 -0.005)
(0.09 0.158889 -0.005)
(0.11 0.158889 -0.005)
(0.13 0.158889 -0.005)
(0.15 0.158889 -0.005)
(0.17 0.158889 -0.005)
(0.19 0.158889 -0.005)
(0.01 0.134444 -0.005)
(0.03 0.134444 -0.005)
(0.05 0.134444 -0.005)
(0.07 0.134444 -0.005)
(0.09 0.134444 -0.005)
(0.11 0.134444 -0.005)
(0.13 0.134444 -0.005)
(0.15 0.134444 -0.005)
(0.17 0.134444 -0.005)
(0.19 0.134444 -0.005)
(0.01 0.11 -0.005)
(0.03 0.11 -0.005)
(0.05 0.11 -0.005)
(0.07 0.11 -0.005)
(0.09 0.11 -0.005)
(0.11 0.11 -0.005)
(0.13 0.11 -0.005)
(0.15 0.11 -0.005)
(0.17 0.11 -0.005)
(0.19 0.11 -0.005)
(0.01 0.0855556 -0.005)
(0.03 0.0855556 -0.005)
(0.05 0.0855556 -0.005)
(0.07 0.0855556 -0.005)
(0.09 0.0855556 -0.005)
(0.11 0.0855556 -0.005)
(0.13 0.0855556 -0.005)
(0.15 0.0855556 -0.005)
(0.17 0.0855556 -0.005)
(0.19 0.0855556 -0.005)
(0.01 0.0611111 -0.005)
(0.03 0.0611111 -0.005)
(0.05 0.0611111 -0.005)
(0.07 0.0611111 -0.005)
(0.09 0.0611111 -0.005)
(0.11 0.0611111 -0.005)
(0.13 0.0611111 -0.005)
(0.15 0.0611111 -0.005)
(0.17 0.0611111 -0.005)
(0.19 0.0611111 -0.005)
(0.01 0.0366667 -0.005)
(0.03 0.0366667 -0.005)
(0.05 0.0366667 -0.005)
(0.07 0.0366667 -0.005)
(0.09 0.0366667 -0.005)
(0.11 0.0366667 -0.005)
(0.13 0.0366667 -0.005)
(0.15 0.0366667 -0.005)
(0.17 0.0366667 -0.005)
(0.19 0.0366667 -0.005)
(0.01 0.0122222 -0.005)
(0.03 0.0122222 -0.005)
(0.05 0.0122222 -0.005)
(0.07 0.0122222 -0.005)
(0.09 0.0122222 -0.005)
(0.11 0.0122222 -0.005)
(0.13 0.0122222 -0.005)
(0.15 0.0122222 -0.005)
(0.17 0.0122222 -0.005)
(0.19 0.0122222 -0.005)
(0.2095 0.987273 -0.005)
(0.2285 0.987273 -0.005)
(0.2475 0.987273 -0.005)
(0.2665 0.987273 -0.005)
(0.2855 0.987273 -0.005)
(0.3045 0.987273 -0.005)
(0.3235 0.987273 -0.005)
(0.3425 0.987273 -0.005)
(0.3615 0.987273 -0.005)
(0.3805 0.987273 -0.005)
(0.3995 0.987273 -0.005)
(0.4185 0.987273 -0.005)
(0.4375 0.987273 -0.005)
(0.4565 0.987273 -0.005)
(0.4755 0.987273 -0.005)
(0.4945 0.987273 -0.005)
(0.5135 0.987273 -0.005)
(0.5325 0.987273 -0.005)
(0.5515 0.987273 -0.005)
(0.5705 0.987273 -0.005)
(0.5895 0.987273 -0.005)
(0.6085 0.987273 -0.005)
(0.6275 0.987273 -0.005)
(0.6465 0.987273 -0.005)
(0.6655 0.987273 -0.005)
(0.2095 0.961818 -0.005)
(0.2285 0.961818 -0.005)
(0.2475 0.961818 -0.005)
(0.2665 0.961818 -0.005)
(0.2855 0.961818 -0.005)
(0.3045 0.961818 -0.005)
(0.3235 0.961818 -0.005)
(0.3425 0.961818 -0.005)
(0.3615 0.961818 -0.005)
(0.3805 0.961818 -0.005)
(0.3995 0.961818 -0.005)
(0.4185 0.961818 -0.005)
(0.4375 0.961818 -0.005)
(0.4565 0.961818 -0.005)
(0.4755 0.961818 -0.005)
(0.4945 0.961818 -0.005)
(0.5135 0.961818 -0.005)
(0.5325 0.961818 -0.005)
(0.5515 0.961818 -0.005)
(0.5705 0.961818 -0.005)
(0.5895 0.961818 -0.005)
(0.6085 0.961818 -0.005)
(0.6275 0.961818 -0.005)
(0.6465 0.961818 -0.005)
(0.6655 0.961818 -0.005)
(0.2095 0.936364 -0.005)
(0.2285 0.936364 -0.005)
(0.2475 0.936364 -0.005)
(0.2665 0.936364 -0.005)
(0.2855 0.936364 -0.005)
(0.3045 0.936364 -0.005)
(0.3235 0.936364 -0.005)
(0.3425 0.936364 -0.005)
(0.3615 0.936364 -0.005)
(0.3805 0.936364 -0.005)
(0.3995 0.936364 -0.005)
(0.4185 0.936364 -0.005)
(0.4375 0.936364 -0.005)
(0.4565 0.936364 -0.005)
(0.4755 0.936364 -0.005)
(0.4945 0.936364 -0.005)
(0.5135 0.936364 -0.005)
(0.5325 0.936364 -0.005)
(0.5515 0.936364 -0.005)
(0.5705 0.936364 -0.005)
(0.5895 0.936364 -0.005)
(0.6085 0.936364 -0.005)
(0.6275 0.936364 -0.005)
(0.6465 0.936364 -0.005)
(0.6655 0.936364 -0.005)
(0.2095 0.910909 -0.005)
(0.2285 0.910909 -0.005)
(0.2475 0.910909 -0.005)
(0.2665 0.910909 -0.005)
(0.2855 0.910909 -0.005)
(0.3045 0.910909 -0.005)
(0.3235 0.910909 -0.005)
(0.3425 0.910909 -0.005)
(0.3615 0.910909 -0.005)
(0.3805 0.910909 -0.005)
(0.3995 0.910909 -0.005)
(0.4185 0.910909 -0.005)
(0.4375 0.910909 -0.005)
(0.4565 0.910909 -0.005)
(0.4755 0.910909 -0.005)
(0.4945 0.910909 -0.005)
(0.5135 0.910909 -0.005)
(0.5325 0.910909 -0.005)
(0.5515 0.910909 -0.005)
(0.5705 0.910909 -0.005)
(0.5895 0.910909 -0.005)
(0.6085 0.910909 -0.005)
(0.6275 0.910909 -0.005)
(0.6465 0.910909 -0.005)
(0.6655 0.910909 -0.005)
(0.2095 0.885455 -0.005)
(0.2285 0.885455 -0.005)
(0.2475 0.885455 -0.005)
(0.2665 0.885455 -0.005)
(0.2855 0.885455 -0.005)
(0.3045 0.885455 -0.005)
(0.3235 0.885455 -0.005)
(0.3425 0.885455 -0.005)
(0.3615 0.885455 -0.005)
(0.3805 0.885455 -0.005)
(0.3995 0.885455 -0.005)
(0.4185 0.885455 -0.005)
(0.4375 0.885455 -0.005)
(0.4565 0.885455 -0.005)
(0.4755 0.885455 -0.005)
(0.4945 0.885455 -0.005)
(0.5135 0.885455 -0.005)
(0.5325 0.885455 -0.005)
(0.5515 0.885455 -0.005)
(0.5705 0.885455 -0.005)
(0.5895 0.885455 -0.005)
(0.6085 0.885455 -0.005)
(0.6275 0.885455 -0.005)
(0.6465 0.885455 -0.005)
(0.6655 0.885455 -0.005)
(0.2095 0.86 -0.005)
(0.2285 0.86 -0.005)
(0.2475 0.86 -0.005)
(0.2665 0.86 -0.005)
(0.2855 0.86 -0.005)
(0.3045 0.86 -0.005)
(0.3235 0.86 -0.005)
(0.3425 0.86 -0.005)
(0.3615 0.86 -0.005)
(0.3805 0.86 -0.005)
(0.3995 0.86 -0.005)
(0.4185 0.86 -0.005)
(0.4375 0.86 -0.005)
(0.4565 0.86 -0.005)
(0.4755 0.86 -0.005)
(0.4945 0.86 -0.005)
(0.5135 0.86 -0.005)
(0.5325 0.86 -0.005)
(0.5515 0.86 -0.005)
(0.5705 0.86 -0.005)
(0.5895 0.86 -0.005)
(0.6085 0.86 -0.005)
(0.6275 0.86 -0.005)
(0.6465 0.86 -0.005)
(0.6655 0.86 -0.005)
(0.2095 0.834545 -0.005)
(0.2285 0.834545 -0.005)
(0.2475 0.834545 -0.005)
(0.2665 0.834545 -0.005)
(0.2855 0.834545 -0.005)
(0.3045 0.834545 -0.005)
(0.3235 0.834545 -0.005)
(0.3425 0.834545 -0.005)
(0.3615 0.834545 -0.005)
(0.3805 0.834545 -0.005)
(0.3995 0.834545 -0.005)
(0.4185 0.834545 -0.005)
(0.4375 0.834545 -0.005)
(0.4565 0.834545 -0.005)
(0.4755 0.834545 -0.005)
(0.4945 0.834545 -0.005)
(0.5135 0.834545 -0.005)
(0.5325 0.834545 -0.005)
(0.5515 0.834545 -0.005)
(0.5705 0.834545 -0.005)
(0.5895 0.834545 -0.005)
(0.6085 0.834545 -0.005)
(0.6275 0.834545 -0.005)
(0.6465 0.834545 -0.005)
(0.6655 0.834545 -0.005)
(0.2095 0.809091 -0.005)
(0.2285 0.809091 -0.005)
(0.2475 0.809091 -0.005)
(0.2665 0.809091 -0.005)
(0.2855 0.809091 -0.005)
(0.3045 0.809091 -0.005)
(0.3235 0.809091 -0.005)
(0.3425 0.809091 -0.005)
(0.3615 0.809091 -0.005)
(0.3805 0.809091 -0.005)
(0.3995 0.809091 -0.005)
(0.4185 0.809091 -0.005)
(0.4375 0.809091 -0.005)
(0.4565 0.809091 -0.005)
(0.4755 0.809091 -0.005)
(0.4945 0.809091 -0.005)
(0.5135 0.809091 -0.005)
(0.5325 0.809091 -0.005)
(0.5515 0.809091 -0.005)
(0.5705 0.809091 -0.005)
(0.5895 0.809091 -0.005)
(0.6085 0.809091 -0.005)
(0.6275 0.809091 -0.005)
(0.6465 0.809091 -0.005)
(0.6655 0.809091 -0.005)
(0.2095 0.783636 -0.005)
(0.2285 0.783636 -0.005)
(0.2475 0.783636 -0.005)
(0.2665 0.783636 -0.005)
(0.2855 0.783636 -0.005)
(0.3045 0.783636 -0.005)
(0.3235 0.783636 -0.005)
(0.3425 0.783636 -0.005)
(0.3615 0.783636 -0.005)
(0.3805 0.783636 -0.005)
(0.3995 0.783636 -0.005)
(0.4185 0.783636 -0.005)
(0.4375 0.783636 -0.005)
(0.4565 0.783636 -0.005)
(0.4755 0.783636 -0.005)
(0.4945 0.783636 -0.005)
(0.5135 0.783636 -0.005)
(0.5325 0.783636 -0.005)
(0.5515 0.783636 -0.005)
(0.5705 0.783636 -0.005)
(0.5895 0.783636 -0.005)
(0.6085 0.783636 -0.005)
(0.6275 0.783636 -0.005)
(0.6465 0.783636 -0.005)
(0.6655 0.783636 -0.005)
(0.2095 0.758182 -0.005)
(0.2285 0.758182 -0.005)
(0.2475 0.758182 -0.005)
(0.2665 0.758182 -0.005)
(0.2855 0.758182 -0.005)
(0.3045 0.758182 -0.005)
(0.3235 0.758182 -0.005)
(0.3425 0.758182 -0.005)
(0.3615 0.758182 -0.005)
(0.3805 0.758182 -0.005)
(0.3995 0.758182 -0.005)
(0.4185 0.758182 -0.005)
(0.4375 0.758182 -0.005)
(0.4565 0.758182 -0.005)
(0.4755 0.758182 -0.005)
(0.4945 0.758182 -0.005)
(0.5135 0.758182 -0.005)
(0.5325 0.758182 -0.005)
(0.5515 0.758182 -0.005)
(0.5705 0.758182 -0.005)
(0.5895 0.758182 -0.005)
(0.6085 0.758182 -0.005)
(0.6275 0.758182 -0.005)
(0.6465 0.758182 -0.005)
(0.6655 0.758182 -0.005)
(0.2095 0.732727 -0.005)
(0.2285 0.732727 -0.005)
(0.2475 0.732727 -0.005)
(0.2665 0.732727 -0.005)
(0.2855 0.732727 -0.005)
(0.3045 0.732727 -0.005)
(0.3235 0.732727 -0.005)
(0.3425 0.732727 -0.005)
(0.3615 0.732727 -0.005)
(0.3805 0.732727 -0.005)
(0.3995 0.732727 -0.005)
(0.4185 0.732727 -0.005)
(0.4375 0.732727 -0.005)
(0.4565 0.732727 -0.005)
(0.4755 0.732727 -0.005)
(0.4945 0.732727 -0.005)
(0.5135 0.732727 -0.005)
(0.5325 0.732727 -0.005)
(0.5515 0.732727 -0.005)
(0.5705 0.732727 -0.005)
(0.5895 0.732727 -0.005)
(0.6085 0.732727 -0.005)
(0.6275 0.732727 -0.005)
(0.6465 0.732727 -0.005)
(0.6655 0.732727 -0.005)
(0.2095 0.707273 -0.005)
(0.2285 0.707273 -0.005)
(0.2475 0.707273 -0.005)
(0.2665 0.707273 -0.005)
(0.2855 0.707273 -0.005)
(0.3045 0.707273 -0.005)
(0.3235 0.707273 -0.005)
(0.3425 0.707273 -0.005)
(0.3615 0.707273 -0.005)
(0.3805 0.707273 -0.005)
(0.3995 0.707273 -0.005)
(0.4185 0.707273 -0.005)
(0.4375 0.707273 -0.005)
(0.4565 0.707273 -0.005)
(0.4755 0.707273 -0.005)
(0.4945 0.707273 -0.005)
(0.5135 0.707273 -0.005)
(0.5325 0.707273 -0.005)
(0.5515 0.707273 -0.005)
(0.5705 0.707273 -0.005)
(0.5895 0.707273 -0.005)
(0.6085 0.707273 -0.005)
(0.6275 0.707273 -0.005)
(0.6465 0.707273 -0.005)
(0.6655 0.707273 -0.005)
(0.2095 0.681818 -0.005)
(0.2285 0.681818 -0.005)
(0.2475 0.681818 -0.005)
(0.2665 0.681818 -0.005)
(0.2855 0.681818 -0.005)
(0.3045 0.681818 -0.005)
(0.3235 0.681818 -0.005)
(0.3425 0.681818 -0.005)
(0.3615 0.681818 -0.005)
(0.3805 0.681818 -0.005)
(0.3995 0.681818 -0.005)
(0.4185 0.681818 -0.005)
(0.4375 0.681818 -0.005)
(0.4565 0.681818 -0.005)
(0.4755 0.681818 -0.005)
(0.4945 0.681818 -0.005)
(0.5135 0.681818 -0.005)
(0.5325 0.681818 -0.005)
(0.5515 0.681818 -0.005)
(0.5705 0.681818 -0.005)
(0.5895 0.681818 -0.005)
(0.6085 0.681818 -0.005)
(0.6275 0.681818 -0.005)
(0.6465 0.681818 -0.005)
(0.6655 0.681818 -0.005)
(0.2095 0.656364 -0.005)
(0.2285 0.656364 -0.005)
(0.2475 0.656364 -0.005)
(0.2665 0.656364 -0.005)
(0.2855 0.656364 -0.005)
(0.3045 0.656364 -0.005)
(0.3235 0.656364 -0.005)
(0.3425 0.656364 -0.005)
(0.3615 0.656364 -0.005)
(0.3805 0.656364 -0.005)
(0.3995 0.656364 -0.005)
(0.4185 0.656364 -0.005)
(0.4375 0.656364 -0.005)
(0.4565 0.656364 -0.005)
(0.4755 0.656364 -0.005)
(0.4945 0.656364 -0.005)
(0.5135 0.656364 -0.005)
(0.5325 0.656364 -0.005)
(0.5515 0.656364 -0.005)
(0.5705 0.656364 -0.005)
(0.5895 0.656364 -0.005)
(0.6085 0.656364 -0.005)
(0.6275 0.656364 -0.005)
(0.6465 0.656364 -0.005)
(0.6655 0.656364 -0.005)
(0.2095 0.630909 -0.005)
(0.2285 0.630909 -0.005)
(0.2475 0.630909 -0.005)
(0.2665 0.630909 -0.005)
(0.2855 0.630909 -0.005)
(0.3045 0.630909 -0.005)
(0.3235 0.630909 -0.005)
(0.3425 0.630909 -0.005)
(0.3615 0.630909 -0.005)
(0.3805 0.630909 -0.005)
(0.3995 0.630909 -0.005)
(0.4185 0.630909 -0.005)
(0.4375 0.630909 -0.005)
(0.4565 0.630909 -0.005)
(0.4755 0.630909 -0.005)
(0.4945 0.630909 -0.005)
(0.5135 0.630909 -0.005)
(0.5325 0.630909 -0.005)
(0.5515 0.630909 -0.005)
(0.5705 0.630909 -0.005)
(0.5895 0.630909 -0.005)
(0.6085 0.630909 -0.005)
(0.6275 0.630909 -0.005)
(0.6465 0.630909 -0.005)
(0.6655 0.630909 -0.005)
(0.2095 0.605455 -0.005)
(0.2285 0.605455 -0.005)
(0.2475 0.605455 -0.005)
(0.2665 0.605455 -0.005)
(0.2855 0.605455 -0.005)
(0.3045 0.605455 -0.005)
(0.3235 0.605455 -0.005)
(0.3425 0.605455 -0.005)
(0.3615 0.605455 -0.005)
(0.3805 0.605455 -0.005)
(0.3995 0.605455 -0.005)
(0.4185 0.605455 -0.005)
(0.4375 0.605455 -0.005)
(0.4565 0.605455 -0.005)
(0.4755 0.605455 -0.005)
(0.4945 0.605455 -0.005)
(0.5135 0.605455 -0.005)
(0.5325 0.605455 -0.005)
(0.5515 0.605455 -0.005)
(0.5705 0.605455 -0.005)
(0.5895 0.605455 -0.005)
(0.6085 0.605455 -0.005)
(0.6275 0.605455 -0.005)
(0.6465 0.605455 -0.005)
(0.6655 0.605455 -0.005)
(0.2095 0.58 -0.005)
(0.2285 0.58 -0.005)
(0.2475 0.58 -0.005)
(0.2665 0.58 -0.005)
(0.2855 0.58 -0.005)
(0.3045 0.58 -0.005)
(0.3235 0.58 -0.005)
(0.3425 0.58 -0.005)
(0.3615 0.58 -0.005)
(0.3805 0.58 -0.005)
(0.3995 0.58 -0.005)
(0.4185 0.58 -0.005)
(0.4375 0.58 -0.005)
(0.4565 0.58 -0.005)
(0.4755 0.58 -0.005)
(0.4945 0.58 -0.005)
(0.5135 0.58 -0.005)
(0.5325 0.58 -0.005)
(0.5515 0.58 -0.005)
(0.5705 0.58 -0.005)
(0.5895 0.58 -0.005)
(0.6085 0.58 -0.005)
(0.6275 0.58 -0.005)
(0.6465 0.58 -0.005)
(0.6655 0.58 -0.005)
(0.2095 0.554545 -0.005)
(0.2285 0.554545 -0.005)
(0.2475 0.554545 -0.005)
(0.2665 0.554545 -0.005)
(0.2855 0.554545 -0.005)
(0.3045 0.554545 -0.005)
(0.3235 0.554545 -0.005)
(0.3425 0.554545 -0.005)
(0.3615 0.554545 -0.005)
(0.3805 0.554545 -0.005)
(0.3995 0.554545 -0.005)
(0.4185 0.554545 -0.005)
(0.4375 0.554545 -0.005)
(0.4565 0.554545 -0.005)
(0.4755 0.554545 -0.005)
(0.4945 0.554545 -0.005)
(0.5135 0.554545 -0.005)
(0.5325 0.554545 -0.005)
(0.5515 0.554545 -0.005)
(0.5705 0.554545 -0.005)
(0.5895 0.554545 -0.005)
(0.6085 0.554545 -0.005)
(0.6275 0.554545 -0.005)
(0.6465 0.554545 -0.005)
(0.6655 0.554545 -0.005)
(0.2095 0.529091 -0.005)
(0.2285 0.529091 -0.005)
(0.2475 0.529091 -0.005)
(0.2665 0.529091 -0.005)
(0.2855 0.529091 -0.005)
(0.3045 0.529091 -0.005)
(0.3235 0.529091 -0.005)
(0.3425 0.529091 -0.005)
(0.3615 0.529091 -0.005)
(0.3805 0.529091 -0.005)
(0.3995 0.529091 -0.005)
(0.4185 0.529091 -0.005)
(0.4375 0.529091 -0.005)
(0.4565 0.529091 -0.005)
(0.4755 0.529091 -0.005)
(0.4945 0.529091 -0.005)
(0.5135 0.529091 -0.005)
(0.5325 0.529091 -0.005)
(0.5515 0.529091 -0.005)
(0.5705 0.529091 -0.005)
(0.5895 0.529091 -0.005)
(0.6085 0.529091 -0.005)
(0.6275 0.529091 -0.005)
(0.6465 0.529091 -0.005)
(0.6655 0.529091 -0.005)
(0.2095 0.503636 -0.005)
(0.2285 0.503636 -0.005)
(0.2475 0.503636 -0.005)
(0.2665 0.503636 -0.005)
(0.2855 0.503636 -0.005)
(0.3045 0.503636 -0.005)
(0.3235 0.503636 -0.005)
(0.3425 0.503636 -0.005)
(0.3615 0.503636 -0.005)
(0.3805 0.503636 -0.005)
(0.3995 0.503636 -0.005)
(0.4185 0.503636 -0.005)
(0.4375 0.503636 -0.005)
(0.4565 0.503636 -0.005)
(0.4755 0.503636 -0.005)
(0.4945 0.503636 -0.005)
(0.5135 0.503636 -0.005)
(0.5325 0.503636 -0.005)
(0.5515 0.503636 -0.005)
(0.5705 0.503636 -0.005)
(0.5895 0.503636 -0.005)
(0.6085 0.503636 -0.005)
(0.6275 0.503636 -0.005)
(0.6465 0.503636 -0.005)
(0.6655 0.503636 -0.005)
(0.2095 0.478182 -0.005)
(0.2285 0.478182 -0.005)
(0.2475 0.478182 -0.005)
(0.2665 0.478182 -0.005)
(0.2855 0.478182 -0.005)
(0.3045 0.478182 -0.005)
(0.3235 0.478182 -0.005)
(0.3425 0.478182 -0.005)
(0.3615 0.478182 -0.005)
(0.3805 0.478182 -0.005)
(0.3995 0.478182 -0.005)
(0.4185 0.478182 -0.005)
(0.4375 0.478182 -0.005)
(0.4565 0.478182 -0.005)
(0.4755 0.478182 -0.005)
(0.4945 0.478182 -0.005)
(0.5135 0.478182 -0.005)
(0.5325 0.478182 -0.005)
(0.5515 0.478182 -0.005)
(0.5705 0.478182 -0.005)
(0.5895 0.478182 -0.005)
(0.6085 0.478182 -0.005)
(0.6275 0.478182 -0.005)
(0.6465 0.478182 -0.005)
(0.6655 0.478182 -0.005)
(0.2095 0.452727 -0.005)
(0.2285 0.452727 -0.005)
(0.2475 0.452727 -0.005)
(0.2665 0.452727 -0.005)
(0.2855 0.452727 -0.005)
(0.3045 0.452727 -0.005)
(0.3235 0.452727 -0.005)
(0.3425 0.452727 -0.005)
(0.3615 0.452727 -0.005)
(0.3805 0.452727 -0.005)
(0.3995 0.452727 -0.005)
(0.4185 0.452727 -0.005)
(0.4375 0.452727 -0.005)
(0.4565 0.452727 -0.005)
(0.4755 0.452727 -0.005)
(0.4945 0.452727 -0.005)
(0.5135 0.452727 -0.005)
(0.5325 0.452727 -0.005)
(0.5515 0.452727 -0.005)
(0.5705 0.452727 -0.005)
(0.5895 0.452727 -0.005)
(0.6085 0.452727 -0.005)
(0.6275 0.452727 -0.005)
(0.6465 0.452727 -0.005)
(0.6655 0.452727 -0.005)
(0.2095 0.427778 -0.005)
(0.2285 0.427778 -0.005)
(0.2475 0.427778 -0.005)
(0.2665 0.427778 -0.005)
(0.2855 0.427778 -0.005)
(0.3045 0.427778 -0.005)
(0.3235 0.427778 -0.005)
(0.3425 0.427778 -0.005)
(0.3615 0.427778 -0.005)
(0.3805 0.427778 -0.005)
(0.3995 0.427778 -0.005)
(0.4185 0.427778 -0.005)
(0.4375 0.427778 -0.005)
(0.4565 0.427778 -0.005)
(0.4755 0.427778 -0.005)
(0.4945 0.427778 -0.005)
(0.5135 0.427778 -0.005)
(0.5325 0.427778 -0.005)
(0.5515 0.427778 -0.005)
(0.5705 0.427778 -0.005)
(0.5895 0.427778 -0.005)
(0.6085 0.427778 -0.005)
(0.6275 0.427778 -0.005)
(0.6465 0.427778 -0.005)
(0.6655 0.427778 -0.005)
(0.2095 0.403333 -0.005)
(0.2285 0.403333 -0.005)
(0.2475 0.403333 -0.005)
(0.2665 0.403333 -0.005)
(0.2855 0.403333 -0.005)
(0.3045 0.403333 -0.005)
(0.3235 0.403333 -0.005)
(0.3425 0.403333 -0.005)
(0.3615 0.403333 -0.005)
(0.3805 0.403333 -0.005)
(0.3995 0.403333 -0.005)
(0.4185 0.403333 -0.005)
(0.4375 0.403333 -0.005)
(0.4565 0.403333 -0.005)
(0.4755 0.403333 -0.005)
(0.4945 0.403333 -0.005)
(0.5135 0.403333 -0.005)
(0.5325 0.403333 -0.005)
(0.5515 0.403333 -0.005)
(0.5705 0.403333 -0.005)
(0.5895 0.403333 -0.005)
(0.6085 0.403333 -0.005)
(0.6275 0.403333 -0.005)
(0.6465 0.403333 -0.005)
(0.6655 0.403333 -0.005)
(0.2095 0.378889 -0.005)
(0.2285 0.378889 -0.005)
(0.2475 0.378889 -0.005)
(0.2665 0.378889 -0.005)
(0.2855 0.378889 -0.005)
(0.3045 0.378889 -0.005)
(0.3235 0.378889 -0.005)
(0.3425 0.378889 -0.005)
(0.3615 0.378889 -0.005)
(0.3805 0.378889 -0.005)
(0.3995 0.378889 -0.005)
(0.4185 0.378889 -0.005)
(0.4375 0.378889 -0.005)
(0.4565 0.378889 -0.005)
(0.4755 0.378889 -0.005)
(0.4945 0.378889 -0.005)
(0.5135 0.378889 -0.005)
(0.5325 0.378889 -0.005)
(0.5515 0.378889 -0.005)
(0.5705 0.378889 -0.005)
(0.5895 0.378889 -0.005)
(0.6085 0.378889 -0.005)
(0.6275 0.378889 -0.005)
(0.6465 0.378889 -0.005)
(0.6655 0.378889 -0.005)
(0.2095 0.354444 -0.005)
(0.2285 0.354444 -0.005)
(0.2475 0.354444 -0.005)
(0.2665 0.354444 -0.005)
(0.2855 0.354444 -0.005)
(0.3045 0.354444 -0.005)
(0.3235 0.354444 -0.005)
(0.3425 0.354444 -0.005)
(0.3615 0.354444 -0.005)
(0.3805 0.354444 -0.005)
(0.3995 0.354444 -0.005)
(0.4185 0.354444 -0.005)
(0.4375 0.354444 -0.005)
(0.4565 0.354444 -0.005)
(0.4755 0.354444 -0.005)
(0.4945 0.354444 -0.005)
(0.5135 0.354444 -0.005)