/*--------------------------------*- C++ -*----------------------------------*\
| =========                 |                                                 |
| \\      /  F ield         | OpenFOAM: The Open Source CFD Toolbox           |
|  \\    /   O peration     | Version:  v2012                                 |
|   \\  /    A nd           | Website:  www.openfoam.com                      |
|    \\/     M anipulation  |                                                 |
\*---------------------------------------------------------------------------*/
FoamFile
{
    version     2.0;
    format      ascii;
    class       volScalarField;
    location    "2000";
    object      k;
}
// * * * * * * * * * * * * * * * * * * * * * * * * * * * * * * * * * * * * * //

dimensions      [0 2 -2 0 0 0 0];


internalField   nonuniform List<scalar> 
6502
(
0.0234965
0.0227262
0.0379405
0.0493397
0.0546602
0.0546606
0.0493406
0.0379414
0.0227265
0.0234967
0.0128933
0.00696407
0.0160126
0.0271351
0.0343673
0.0343685
0.027137
0.0160139
0.00696456
0.0128947
0.00718849
0.00278396
0.00733871
0.0147895
0.0204894
0.020491
0.0147918
0.00734009
0.00278462
0.0071912
0.0044724
0.0013977
0.00371295
0.00828237
0.0121055
0.0121071
0.00828477
0.00371433
0.00139854
0.00447631
0.0034687
0.000890771
0.00205517
0.00478485
0.00719556
0.00719705
0.00478708
0.00205648
0.000891811
0.00347428
0.00307186
0.000666475
0.00121705
0.00283338
0.00431553
0.00431684
0.00283538
0.00121831
0.000667844
0.0030799
0.00289834
0.000556685
0.000762608
0.00171004
0.0026094
0.00261057
0.00171186
0.00076389
0.000558553
0.00290989
0.00282589
0.000500181
0.000505215
0.00104965
0.00158962
0.00159067
0.00105135
0.00050662
0.000502847
0.00284293
0.00279812
0.00047018
0.000355628
0.000656476
0.000976433
0.000977412
0.000658139
0.000357309
0.000474156
0.00282416
0.00278614
0.000453557
0.000267571
0.000420929
0.000606638
0.000607518
0.000422661
0.000269779
0.000459575
0.00282565
0.0027766
0.000443743
0.000216135
0.00027972
0.00038349
0.000384323
0.000281623
0.00021921
0.00045283
0.00283646
0.0027635
0.000436873
0.000184956
0.000194546
0.000248647
0.000249498
0.00019676
0.000189271
0.00045061
0.0028545
0.0027433
0.0004309
0.000165464
0.00014285
0.000167023
0.000167969
0.000145611
0.000171677
0.000451659
0.00288122
0.00271256
0.000424528
0.000152851
0.000111322
0.000117578
0.000118719
0.000114998
0.000162002
0.000455976
0.00292172
0.00266699
0.000416668
0.000144154
9.20373e-05
8.76769e-05
8.9164e-05
9.72206e-05
0.000157895
0.000464616
0.00298586
0.00260105
0.000406204
0.000137354
7.99397e-05
6.95929e-05
7.165e-05
8.75197e-05
0.000158375
0.000480122
0.00309207
0.0025081
0.000391951
0.000131059
7.1948e-05
5.866e-05
6.16777e-05
8.35081e-05
0.000164015
0.000508016
0.00327615
0.00238088
0.000372683
0.000124276
6.61845e-05
5.20886e-05
5.67133e-05
8.44666e-05
0.000177783
0.000562282
0.00362856
0.00221243
0.000347258
0.000116259
6.14259e-05
4.81074e-05
5.51408e-05
9.02461e-05
0.000205051
0.000678178
0.00444979
0.00199978
0.000315098
0.000106496
5.67564e-05
4.51792e-05
5.45051e-05
9.57887e-05
0.000233127
0.000833292
0.00586317
0.00174811
0.000276767
9.47977e-05
5.14338e-05
4.15917e-05
5.00748e-05
8.20255e-05
0.000161457
0.000356687
0.000862422
0.00147473
0.000234684
8.16126e-05
4.52517e-05
3.69661e-05
4.31262e-05
6.38956e-05
0.00010409
0.000168173
0.000244923
0.00120499
0.000192596
6.79331e-05
3.84912e-05
3.16624e-05
3.55656e-05
4.80568e-05
6.79696e-05
9.05747e-05
0.00010338
0.000959543
0.000153808
5.48551e-05
3.16757e-05
2.6215e-05
2.85025e-05
3.58184e-05
4.58902e-05
5.45986e-05
5.59486e-05
0.000749469
0.000120293
4.32012e-05
2.53122e-05
2.10733e-05
2.23802e-05
2.67042e-05
3.20489e-05
3.57977e-05
3.52479e-05
0.000577532
9.26948e-05
3.33821e-05
1.97426e-05
1.65244e-05
1.7295e-05
1.99528e-05
2.30046e-05
2.48803e-05
2.4294e-05
0.000441302
7.0756e-05
2.54572e-05
1.51146e-05
1.26996e-05
1.31907e-05
1.49249e-05
1.68342e-05
1.7965e-05
1.76462e-05
0.000335773
5.37427e-05
1.92606e-05
1.14212e-05
9.61023e-06
9.95142e-06
1.11582e-05
1.24693e-05
1.32823e-05
1.32096e-05
0.00025521
4.07612e-05
1.45206e-05
8.56105e-06
7.19232e-06
7.44269e-06
8.32796e-06
9.2997e-06
9.95869e-06
1.00575e-05
0.000194235
3.09512e-05
1.09456e-05
6.39309e-06
5.34485e-06
5.53073e-06
6.20227e-06
6.95923e-06
7.52506e-06
7.72881e-06
0.00014827
2.35721e-05
8.26999e-06
4.77259e-06
3.9578e-06
4.09274e-06
4.61011e-06
5.2149e-06
5.70884e-06
5.96692e-06
0.000113624
1.80242e-05
6.27285e-06
3.57074e-06
2.92874e-06
3.02231e-06
3.4221e-06
3.90938e-06
4.33882e-06
4.61573e-06
8.74414e-05
1.38427e-05
4.78025e-06
2.68185e-06
2.17061e-06
2.23132e-06
2.53904e-06
2.93115e-06
3.29988e-06
3.57225e-06
6.75619e-05
1.06759e-05
3.66002e-06
2.02363e-06
1.61368e-06
1.64944e-06
1.88468e-06
2.19842e-06
2.51037e-06
2.76408e-06
5.23712e-05
8.26175e-06
2.81374e-06
1.53407e-06
1.20434e-06
1.22223e-06
1.40079e-06
1.65004e-06
1.91022e-06
2.13778e-06
4.06666e-05
6.40545e-06
2.16892e-06
1.16755e-06
9.02648e-07
9.08619e-07
1.04334e-06
1.23998e-06
1.45425e-06
1.65278e-06
3.15145e-05
4.96011e-06
1.67323e-06
8.91741e-07
6.79866e-07
6.78395e-07
7.79486e-07
9.33613e-07
1.10811e-06
1.27766e-06
2.44304e-05
3.84984e-06
1.29849e-06
6.87072e-07
5.16638e-07
5.09957e-07
5.84996e-07
7.04896e-07
8.45563e-07
9.87932e-07
1.96284e-05
3.09429e-06
1.04008e-06
5.42804e-07
3.99457e-07
3.87424e-07
4.41782e-07
5.34159e-07
6.4648e-07
7.64364e-07
1.68411e-05
2.62498e-06
8.61958e-07
4.37305e-07
3.1271e-07
2.96786e-07
3.35466e-07
4.06201e-07
4.95262e-07
5.91824e-07
1.24858e-05
1.96533e-06
6.5505e-07
3.35523e-07
2.39759e-07
2.26144e-07
2.54836e-07
3.09398e-07
3.79909e-07
4.58455e-07
8.86712e-06
1.4048e-06
4.75309e-07
2.47781e-07
1.79425e-07
1.70433e-07
1.92927e-07
2.35566e-07
2.915e-07
3.5513e-07
6.75953e-06
1.06228e-06
3.55542e-07
1.84298e-07
1.33676e-07
1.27725e-07
1.45596e-07
1.7913e-07
2.23551e-07
2.74936e-07
5.24007e-06
8.2032e-07
2.71861e-07
1.39244e-07
1.00308e-07
9.59505e-08
1.1005e-07
1.36481e-07
1.71813e-07
2.13269e-07
3.99728e-06
6.25831e-07
2.06853e-07
1.0526e-07
7.53951e-08
7.21425e-08
8.32201e-08
1.04038e-07
1.32111e-07
1.65467e-07
2.972e-06
4.65934e-07
1.54223e-07
7.84716e-08
5.62142e-08
5.40013e-08
6.27611e-08
7.91486e-08
1.01398e-07
1.28124e-07
2.14564e-06
3.3693e-07
1.11902e-07
5.72199e-08
4.12923e-08
4.00836e-08
4.71135e-08
6.00332e-08
7.76284e-08
9.89519e-08
1.49261e-06
2.34901e-07
7.84374e-08
4.05156e-08
2.97064e-08
2.93956e-08
3.51344e-08
4.53474e-08
5.92375e-08
7.618e-08
9.88332e-07
1.56065e-07
5.25651e-08
2.76259e-08
2.08184e-08
2.12362e-08
2.59894e-08
3.40858e-08
4.50355e-08
5.84491e-08
6.11308e-07
9.70749e-08
3.31729e-08
1.79478e-08
1.41387e-08
1.50847e-08
1.9059e-08
2.54955e-08
3.41254e-08
4.47285e-08
3.42761e-07
5.49851e-08
1.92771e-08
1.09585e-08
9.2613e-09
1.05336e-08
1.38717e-08
1.90091e-08
2.58334e-08
3.42481e-08
1.65333e-07
2.70649e-08
9.96805e-09
6.18854e-09
5.8439e-09
7.25616e-09
1.00616e-08
1.41941e-08
1.96537e-08
2.64418e-08
6.12394e-08
1.05494e-08
4.34573e-09
3.19525e-09
3.58449e-09
4.9798e-09
7.33476e-09
1.07121e-08
1.52017e-08
2.08975e-08
1.27768e-08
2.66706e-09
1.50928e-09
1.55311e-09
2.2045e-09
3.46436e-09
5.44177e-09
8.2864e-09
1.21776e-08
1.73221e-08
9.48477e-10
4.78365e-10
5.23808e-10
8.15693e-10
1.42821e-09
2.48579e-09
4.15988e-09
6.68208e-09
1.0353e-08
1.55472e-08
6.24372e-09
1.01289e-09
4.75609e-10
5.7813e-10
1.01493e-09
1.84812e-09
3.29481e-09
5.71536e-09
9.61662e-09
1.566e-08
1.1888e-08
1.76113e-09
6.27233e-10
5.50696e-10
8.09026e-10
1.41186e-09
2.69997e-09
5.31456e-09
1.01874e-08
1.85477e-08
1.0547e-08
1.61709e-09
7.46445e-10
7.73386e-10
8.95211e-10
1.17197e-09
2.31913e-09
5.74882e-09
1.35183e-08
2.82706e-08
4.51071e-09
1.10879e-09
1.63611e-09
2.34997e-09
2.27717e-09
1.56765e-09
2.30352e-09
8.95258e-09
2.80136e-08
6.78161e-08
6.93557e-10
4.13421e-09
1.08698e-08
1.65327e-08
1.55513e-08
7.27318e-09
4.33045e-09
3.58754e-08
1.44273e-07
3.83664e-07
0.00153801
0.000206572
3.08614e-05
3.15654e-05
3.64111e-05
3.70166e-05
3.3392e-05
2.78606e-05
2.33942e-05
1.94942e-05
1.66926e-05
1.53685e-05
1.25489e-05
1.33533e-05
9.608e-06
4.80231e-06
3.45818e-06
2.49103e-06
1.64556e-06
9.62916e-07
4.76214e-07
1.82883e-07
4.57189e-08
5.28234e-09
7.34536e-10
0.000243264
7.39485e-05
1.93269e-05
8.27844e-06
6.35844e-06
5.83001e-06
5.1797e-06
4.36739e-06
3.66418e-06
3.0798e-06
2.674e-06
2.42738e-06
2.07171e-06
1.96018e-06
1.4278e-06
8.30744e-07
5.64105e-07
3.96169e-07
2.62967e-07
1.57644e-07
8.1887e-08
3.4734e-08
1.10584e-08
3.2741e-09
6.48386e-09
8.59997e-05
4.266e-05
1.8057e-05
7.99442e-06
4.23405e-06
2.77101e-06
2.06176e-06
1.61663e-06
1.30975e-06
1.094e-06
9.51176e-07
8.45359e-07
7.29167e-07
6.22264e-07
4.63141e-07
3.05432e-07
2.05485e-07
1.40055e-07
9.25021e-08
5.69231e-08
3.16737e-08
1.59971e-08
9.45351e-09
1.43741e-08
7.58171e-08
4.56817e-05
2.89197e-05
1.61228e-05
8.6863e-06
4.80998e-06
2.84731e-06
1.82175e-06
1.25068e-06
9.15183e-07
7.11462e-07
5.8287e-07
4.90327e-07
4.084e-07
3.2946e-07
2.47741e-07
1.74284e-07
1.1953e-07
8.07187e-08
5.30575e-08
3.35475e-08
2.09266e-08
1.51452e-08
1.86961e-08
4.81148e-08
2.93083e-07
2.95746e-05
2.1379e-05
1.40277e-05
8.77485e-06
5.42121e-06
3.38982e-06
2.17756e-06
1.44892e-06
1.00396e-06
7.2692e-07
5.48909e-07
4.27108e-07
3.34839e-07
2.58709e-07
1.93323e-07
1.39049e-07
9.69509e-08
6.58222e-08
4.36534e-08
2.89047e-08
2.10311e-08
2.12034e-08
3.6184e-08
1.06252e-07
6.73678e-07
2.11112e-05
1.6583e-05
1.20795e-05
8.39513e-06
5.69512e-06
3.83519e-06
2.59441e-06
1.77756e-06
1.24071e-06
8.85534e-07
6.46645e-07
4.80912e-07
3.60583e-07
2.69337e-07
1.98177e-07
1.42463e-07
9.97064e-08
6.79383e-08
4.55032e-08
3.13423e-08
2.54668e-08
3.04471e-08
5.83981e-08
1.79543e-07
1.15667e-06
1.58505e-05
1.31989e-05
1.03394e-05
7.7575e-06
5.66206e-06
4.07037e-06
2.90903e-06
2.08102e-06
1.4973e-06
1.08677e-06
7.96358e-07
5.87987e-07
4.35319e-07
3.20932e-07
2.33759e-07
1.67078e-07
1.16511e-07
7.91707e-08
5.30311e-08
3.70064e-08
3.13904e-08
3.99816e-08
8.00685e-08
2.51054e-07
1.62938e-06
1.22229e-05
1.06417e-05
8.80063e-06
6.99831e-06
5.41141e-06
4.10701e-06
3.08223e-06
2.30019e-06
1.7137e-06
1.27764e-06
9.53839e-07
7.12231e-07
5.3027e-07
3.91758e-07
2.8547e-07
2.03804e-07
1.41776e-07
9.58658e-08
6.36992e-08
4.39716e-08
3.69843e-08
4.72455e-08
9.56106e-08
3.02339e-07
1.96956e-06
9.55834e-06
8.62732e-06
7.44619e-06
6.20036e-06
5.02317e-06
3.9882e-06
3.12171e-06
2.42008e-06
1.86429e-06
1.4298e-06
1.09227e-06
8.30303e-07
6.26471e-07
4.67292e-07
3.42774e-07
2.45729e-07
1.71063e-07
1.15251e-07
7.57535e-08
5.09993e-08
4.10411e-08
5.03413e-08
1.00661e-07
3.1887e-07
2.08119e-06
7.52567e-06
7.00281e-06
6.26063e-06
5.41417e-06
4.55907e-06
3.75992e-06
3.05167e-06
2.44678e-06
1.94324e-06
1.53111e-06
1.19719e-06
9.28011e-07
7.11473e-07
5.37495e-07
3.98152e-07
2.87438e-07
2.00895e-07
1.35202e-07
8.79024e-08
5.72803e-08
4.29213e-08
4.83948e-08
9.31734e-08
2.93534e-07
1.91638e-06
5.94182e-06
5.67788e-06
5.23063e-06
4.67064e-06
4.06417e-06
3.4627e-06
2.90033e-06
2.39567e-06
1.95573e-06
1.57987e-06
1.26304e-06
9.98205e-07
7.78083e-07
5.96048e-07
4.46568e-07
3.25251e-07
2.28673e-07
1.54121e-07
9.9354e-08
6.25493e-08
4.27438e-08
4.18631e-08
7.41049e-08
2.28673e-07
1.48744e-06
4.69379e-06
4.59305e-06
4.34357e-06
3.98772e-06
3.57003e-06
3.12919e-06
2.69447e-06
2.28525e-06
1.91245e-06
1.58068e-06
1.29023e-06
1.03885e-06
8.23169e-07
6.39654e-07
4.85126e-07
3.56934e-07
2.52901e-07
1.71136e-07
1.0983e-07
6.71639e-08
4.15522e-08
3.2922e-08
4.85184e-08
1.40632e-07
9.01658e-07
3.70529e-06
3.70502e-06
3.58658e-06
3.37449e-06
3.09772e-06
2.7841e-06
2.45693e-06
2.1337e-06
1.82618e-06
1.54141e-06
1.28283e-06
1.05136e-06
8.46542e-07
6.67347e-07
5.12668e-07
3.81516e-07
2.73e-07
1.86167e-07
1.19791e-07
7.22298e-08
4.14585e-08
2.55707e-08
2.50287e-08
5.65156e-08
3.33985e-07
2.92116e-06
2.9798e-06
2.9463e-06
2.83374e-06
2.66027e-06
2.44511e-06
2.20587e-06
1.95704e-06
1.7096e-06
1.47123e-06
1.24685e-06
1.03927e-06
8.49996e-07
6.79854e-07
5.29397e-07
3.99079e-07
2.89217e-07
1.99818e-07
1.30359e-07
7.95919e-08
4.54774e-08
2.52575e-08
1.57527e-08
1.43734e-08
2.89409e-08
2.29956e-06
2.38962e-06
2.40913e-06
2.36391e-06
2.26465e-06
2.12408e-06
1.9549e-06
1.76846e-06
1.57412e-06
1.37919e-06
1.18897e-06
1.0072e-06
8.36534e-07
6.79052e-07
5.36532e-07
4.10586e-07
3.02584e-07
2.13463e-07
1.43492e-07
9.21227e-08
5.80409e-08
3.96886e-08
3.7376e-08
6.59337e-08
3.19672e-07
1.8077e-06
1.91123e-06
1.96179e-06
1.96068e-06
1.9135e-06
1.82822e-06
1.7136e-06
1.57811e-06
1.42929e-06
1.27348e-06
1.11576e-06
9.60107e-07
8.09758e-07
6.67525e-07
5.36026e-07
4.17747e-07
3.14939e-07
2.2941e-07
1.62319e-07
1.14183e-07
8.54948e-08
7.91661e-08
1.10842e-07
2.74751e-07
1.61215e-06
1.41937e-06
1.52504e-06
1.59173e-06
1.61812e-06
1.60643e-06
1.56121e-06
1.48817e-06
1.39337e-06
1.28257e-06
1.16099e-06
1.03311e-06
9.02788e-07
7.73425e-07
6.48225e-07
5.30352e-07
4.22959e-07
3.29071e-07
2.51364e-07
1.92032e-07
1.5314e-07
1.38445e-07
1.60049e-07
2.66335e-07
7.27109e-07
4.44347e-06
1.1135e-06
1.21446e-06
1.2874e-06
1.32959e-06
1.34113e-06
1.32416e-06
1.28215e-06
1.21918e-06
1.13948e-06
1.04715e-06
9.46001e-07
8.39537e-07
7.31134e-07
6.24201e-07
5.2232e-07
4.29278e-07
3.48957e-07
2.85132e-07
2.41443e-07
2.22247e-07
2.3645e-07
3.11737e-07
5.56545e-07
1.56563e-06
9.68081e-06
8.73053e-07
9.6551e-07
1.03837e-06
1.08831e-06
1.11416e-06
1.11648e-06
1.09708e-06
1.05853e-06
1.00381e-06
9.3606e-07
8.58393e-07
7.73972e-07
6.86092e-07
5.98356e-07
5.14856e-07
4.40278e-07
3.7989e-07
3.39472e-07
3.25477e-07
3.46524e-07
4.20017e-07
5.98518e-07
1.09329e-06
3.07927e-06
1.90951e-05
6.84259e-07
7.66481e-07
8.3545e-07
8.87746e-07
9.21549e-07
9.3643e-07
9.33063e-07
9.12908e-07
8.77956e-07
8.3054e-07
7.73245e-07
7.08939e-07
6.4092e-07
5.73153e-07
5.10588e-07
4.59511e-07
4.27929e-07
4.26065e-07
4.67344e-07
5.71289e-07
7.74108e-07
1.17334e-06
2.14857e-06
5.85811e-06
3.56219e-05
5.36054e-07
6.0764e-07
6.70639e-07
7.21843e-07
7.59192e-07
7.81699e-07
7.89305e-07
7.82695e-07
7.63137e-07
7.32366e-07
6.92563e-07
6.46437e-07
5.97448e-07
5.50207e-07
5.11087e-07
4.8914e-07
4.97538e-07
5.55965e-07
6.95066e-07
9.66107e-07
1.4661e-06
2.42445e-06
4.61478e-06
1.22489e-05
7.13402e-05
4.19659e-07
4.81011e-07
5.37119e-07
5.85157e-07
6.23087e-07
6.49672e-07
6.64427e-07
6.67536e-07
6.59771e-07
6.42455e-07
6.17506e-07
5.87602e-07
5.56532e-07
5.29822e-07
5.15821e-07
5.27591e-07
5.86353e-07
7.28248e-07
1.01882e-06
1.58678e-06
2.71233e-06
5.10327e-06
1.10424e-05
3.18537e-05
0.000186403
3.28197e-07
3.80137e-07
4.29169e-07
4.72915e-07
5.09513e-07
5.37685e-07
5.56743e-07
5.66582e-07
5.67663e-07
5.61045e-07
5.485e-07
5.32759e-07
5.18001e-07
5.1074e-07
5.21428e-07
5.67446e-07
6.79029e-07
9.11989e-07
1.37774e-06
2.32226e-06
4.36385e-06
9.34685e-06
2.42546e-05
8.7463e-05
0.000612327
2.57043e-07
3.00656e-07
3.42937e-07
3.81946e-07
4.16077e-07
4.44134e-07
4.65385e-07
4.79586e-07
4.87032e-07
4.88626e-07
4.86056e-07
4.82111e-07
4.81266e-07
4.90749e-07
5.22464e-07
5.96605e-07
7.48765e-07
1.04494e-06
1.61524e-06
2.73641e-06
5.05365e-06
1.02567e-05
2.35135e-05
6.45566e-05
0.000238941
2.01262e-07
2.37595e-07
2.73634e-07
3.07842e-07
3.38888e-07
3.65733e-07
3.87689e-07
4.04483e-07
4.16327e-07
4.24036e-07
4.29228e-07
4.34675e-07
4.44933e-07
4.67435e-07
5.14432e-07
6.06519e-07
7.79273e-07
1.09633e-06
1.6762e-06
2.75044e-06
4.79673e-06
8.86526e-06
1.74415e-05
3.68979e-05
8.45095e-05
1.57215e-07
1.87233e-07
2.17612e-07
2.47169e-07
2.74845e-07
2.99782e-07
3.21392e-07
3.3943e-07
3.54085e-07
3.66107e-07
3.77019e-07
3.89472e-07
4.0783e-07
4.39168e-07
4.94967e-07
5.94023e-07
7.67568e-07
1.06849e-06
1.58817e-06
2.4879e-06
4.05778e-06
6.82617e-06
1.17488e-05
2.04439e-05
3.49005e-05
1.22451e-07
1.47053e-07
1.724e-07
1.97607e-07
2.21862e-07
2.44491e-07
2.65028e-07
2.83287e-07
2.99456e-07
3.14225e-07
3.28987e-07
3.46154e-07
3.69658e-07
4.05768e-07
4.64395e-07
5.61192e-07
7.20943e-07
9.83039e-07
1.41014e-06
2.10142e-06
3.21124e-06
4.96961e-06
7.68389e-06
1.16455e-05
1.67167e-05
9.50495e-08
1.15061e-07
1.36014e-07
1.57266e-07
1.78218e-07
1.98369e-07
2.17373e-07
2.35113e-07
2.51782e-07
2.68001e-07
2.84998e-07
3.04858e-07
3.30926e-07
3.68405e-07
4.2527e-07
5.1361e-07
6.51589e-07
8.66206e-07
1.19689e-06
1.69943e-06
2.44845e-06
3.53281e-06
5.0309e-06
6.93956e-06
9.02438e-06
7.35247e-08
8.9701e-08
1.06893e-07
1.24654e-07
1.42562e-07
1.60262e-07
1.7752e-07
1.9428e-07
2.10737e-07
2.27437e-07
2.45414e-07
2.6639e-07
2.93056e-07
3.29487e-07
3.81714e-07
4.58501e-07
5.72334e-07
7.40563e-07
9.86441e-07
1.33936e-06
1.83276e-06
2.49684e-06
3.34151e-06
4.32523e-06
5.3145e-06
5.67473e-08
6.9793e-08
8.38661e-08
9.86719e-08
1.1393e-07
1.2941e-07
1.44967e-07
1.60597e-07
1.76491e-07
1.93114e-07
2.11308e-07
2.32426e-07
2.58528e-07
2.92638e-07
3.39069e-07
4.03832e-07
4.95052e-07
6.23312e-07
8.01651e-07
1.04477e-06
1.36667e-06
1.77567e-06
2.26588e-06
2.8059e-06
3.32999e-06
4.38826e-08
5.44818e-08
6.61124e-08
7.86002e-08
9.17772e-08
1.05508e-07
1.19721e-07
1.34453e-07
1.4989e-07
1.66422e-07
1.84714e-07
2.05791e-07
2.31156e-07
2.62938e-07
3.04065e-07
3.58445e-07
4.31105e-07
5.28198e-07
6.56714e-07
8.23679e-07
1.03452e-06
1.29032e-06
1.58413e-06
1.89718e-06
2.19777e-06
3.43375e-08
4.31949e-08
5.31432e-08
6.41086e-08
7.60121e-08
8.87917e-08
1.02434e-07
1.1701e-07
1.3271e-07
1.49874e-07
1.69028e-07
1.90931e-07
2.16633e-07
2.47555e-07
2.85575e-07
3.33091e-07
3.93045e-07
4.68828e-07
5.64003e-07
6.81733e-07
8.23833e-07
9.89435e-07
1.17346e-06
1.36552e-06
1.55009e-06
2.7714e-08
3.56078e-08
4.47895e-08
5.52837e-08
6.70883e-08
8.01939e-08
9.46308e-08
1.10522e-07
1.2809e-07
1.47675e-07
1.69729e-07
1.94819e-07
2.23655e-07
2.57126e-07
2.96338e-07
3.42643e-07
3.97619e-07
4.62977e-07
5.4036e-07
6.30998e-07
7.35212e-07
8.51801e-07
9.77454e-07
1.10644e-06
1.23093e-06
2.3784e-08
3.16434e-08
4.12525e-08
5.27686e-08
6.62693e-08
8.1757e-08
9.92764e-08
1.19093e-07
1.41528e-07
1.67032e-07
1.96071e-07
2.29101e-07
2.66578e-07
3.08984e-07
3.56865e-07
4.10833e-07
4.71553e-07
5.3967e-07
6.1568e-07
6.99747e-07
7.91453e-07
8.89534e-07
9.9167e-07
1.09443e-06
1.19346e-06
2.25353e-08
3.15939e-08
4.33648e-08
5.8272e-08
7.65192e-08
9.79501e-08
1.22385e-07
1.50753e-07
1.83576e-07
2.21651e-07
2.65574e-07
3.15735e-07
3.72361e-07
4.35584e-07
5.05476e-07
5.82061e-07
6.65289e-07
7.54983e-07
8.50761e-07
9.51936e-07
1.05741e-06
1.16556e-06
1.27418e-06
1.3805e-06
1.48129e-06
2.44516e-08
3.66381e-08
5.35146e-08
7.62423e-08
1.05503e-07
1.40281e-07
1.78041e-07
2.23891e-07
2.7821e-07
3.42613e-07
4.17892e-07
5.04269e-07
6.01653e-07
7.09764e-07
8.28171e-07
9.56261e-07
1.09319e-06
1.23781e-06
1.38864e-06
1.54375e-06
1.70083e-06
1.85705e-06
2.0092e-06
2.15369e-06
2.28669e-06
3.16149e-08
5.07543e-08
7.88403e-08
1.19556e-07
1.76692e-07
2.46924e-07
3.06272e-07
3.89689e-07
4.92104e-07
6.1638e-07
7.63061e-07
9.31711e-07
1.12164e-06
1.33201e-06
1.56165e-06
1.80893e-06
2.07163e-06
2.3468e-06
2.63073e-06
2.91893e-06
3.20614e-06
3.48644e-06
3.75344e-06
4.00043e-06
4.22071e-06
5.26876e-08
8.96132e-08
1.45512e-07
2.32555e-07
3.75314e-07
5.87863e-07
6.51351e-07
8.30283e-07
1.06501e-06
1.35498e-06
1.69762e-06
2.09054e-06
2.53229e-06
3.0212e-06
3.55466e-06
4.12859e-06
4.73721e-06
5.37284e-06
6.02577e-06
6.68438e-06
7.33524e-06
7.96349e-06
8.55338e-06
9.08895e-06
9.5549e-06
1.36465e-07
2.41037e-07
3.95823e-07
6.36186e-07
1.10489e-06
2.26217e-06
1.97756e-06
2.50681e-06
3.27719e-06
4.22897e-06
5.3428e-06
6.61292e-06
8.03885e-06
9.61769e-06
1.13416e-05
1.31972e-05
1.51649e-05
1.72186e-05
1.9325e-05
2.14445e-05
2.35314e-05
2.55354e-05
2.74033e-05
2.90823e-05
3.05228e-05
8.06306e-07
1.4539e-06
2.38139e-06
3.68581e-06
6.08084e-06
1.8194e-05
1.2396e-05
1.56391e-05
2.07954e-05
2.70765e-05
3.43463e-05
4.26013e-05
5.1865e-05
6.21275e-05
7.33398e-05
8.54147e-05
9.82235e-05
0.000111593
0.000125306
0.000139097
0.000152666
0.000165678
0.000177784
0.000188632
0.000197898
0.00142088
0.00094807
0.000678573
0.000191126
0.000154439
0.00011055
5.18335e-05
4.87876e-05
3.88956e-05
2.08924e-05
2.11089e-05
1.87292e-05
1.05318e-05
1.09557e-05
1.04268e-05
6.0241e-06
6.35219e-06
6.30247e-06
3.71951e-06
3.95026e-06
4.01764e-06
2.43107e-06
2.59097e-06
2.67513e-06
1.69933e-06
1.81208e-06
1.88789e-06
1.33525e-06
1.41979e-06
1.48523e-06
1.27835e-06
1.35025e-06
1.4105e-06
1.56741e-06
1.6408e-06
1.70351e-06
2.39703e-06
2.48813e-06
2.56317e-06
4.39629e-06
4.53381e-06
4.63896e-06
9.91363e-06
1.018e-05
1.03672e-05
3.16108e-05
3.23902e-05
3.29055e-05
0.000204867
0.000209793
0.000212989
6.47553e-11
9.26529e-11
6.86045e-10
4.98507e-09
1.76486e-08
4.33948e-08
8.55304e-08
1.45222e-07
2.21252e-07
3.10394e-07
4.0805e-07
5.0883e-07
6.07132e-07
6.97646e-07
7.7565e-07
8.37074e-07
8.78496e-07
8.97397e-07
8.94702e-07
8.70829e-07
8.26677e-07
7.65574e-07
6.90675e-07
6.05567e-07
5.14213e-07
4.20687e-07
3.28998e-07
2.43021e-07
1.66601e-07
1.02501e-07
5.22766e-08
1.88562e-08
3.36869e-09
7.09995e-09
2.96512e-08
7.04168e-08
1.27767e-07
2.00073e-07
2.85515e-07
3.81726e-07
4.8606e-07
5.95728e-07
7.07924e-07
8.19827e-07
9.28622e-07
1.03161e-06
1.12618e-06
1.20997e-06
1.28098e-06
1.33754e-06
1.37833e-06
1.40226e-06
1.40895e-06
1.39827e-06
1.36989e-06
1.3248e-06
1.26395e-06
1.18875e-06
1.101e-06
1.00288e-06
8.96884e-07
7.85858e-07
6.72926e-07
5.61289e-07
4.54093e-07
3.54342e-07
2.647e-07
1.87357e-07
1.23832e-07
7.47646e-08
3.97791e-08
1.74079e-08
5.37783e-09
8.60008e-10
6.1183e-10
1.64981e-09
2.0746e-09
1.53931e-09
6.54987e-10
1.49052e-10
7.50497e-11
6.98343e-11
2.78589e-10
1.13974e-09
3.30908e-09
7.45533e-09
1.40572e-08
2.32844e-08
3.49601e-08
4.86069e-08
6.35355e-08
7.89332e-08
9.39515e-08
1.07779e-07
1.1969e-07
1.29057e-07
1.3537e-07
1.38296e-07
1.37885e-07
1.34224e-07
1.27495e-07
1.18152e-07
1.0669e-07
9.36629e-08
7.9675e-08
6.53506e-08
5.13068e-08
3.81403e-08
2.64173e-08
1.65674e-08
8.88986e-09
3.76794e-09
1.41106e-09
1.98106e-09
5.44625e-09
1.17004e-08
2.05168e-08
3.1641e-08
4.47826e-08
5.95821e-08
7.56358e-08
9.25166e-08
1.09791e-07
1.27024e-07
1.43782e-07
1.59648e-07
1.74222e-07
1.87142e-07
1.98097e-07
2.06829e-07
2.13129e-07
2.16841e-07
2.17891e-07
2.16255e-07
2.1191e-07
2.04981e-07
1.95622e-07
1.8405e-07
1.70543e-07
1.55437e-07
1.3912e-07
1.22028e-07
1.04638e-07
8.74439e-08
7.0928e-08
5.555e-08
4.17174e-08
2.97629e-08
1.99148e-08
1.22676e-08
6.76227e-09
3.18121e-09
1.18263e-09
3.38429e-10
1.71667e-10
2.48984e-10
2.89781e-10
2.25472e-10
1.7608e-10
7.67954e-10
1.39357e-09
3.56917e-10
3.30746e-10
6.58478e-10
1.45093e-09
2.86345e-09
5.01547e-09
7.94621e-09
1.16012e-08
1.58397e-08
2.04569e-08
2.52092e-08
2.98396e-08
3.40998e-08
3.77652e-08
4.06435e-08
4.25846e-08
4.34982e-08
4.33789e-08
4.22538e-08
4.01914e-08
3.7318e-08
3.37861e-08
2.9768e-08
2.54502e-08
2.10256e-08
1.66855e-08
1.26141e-08
8.98003e-09
5.92055e-09
3.54417e-09
1.95583e-09
1.22503e-09
1.39794e-09
2.47439e-09
4.41483e-09
7.15626e-09
1.06198e-08
1.47128e-08
1.93244e-08
2.43309e-08
2.96001e-08
3.49967e-08
4.03843e-08
4.56276e-08
5.05957e-08
5.51643e-08
5.92202e-08
6.26652e-08
6.54167e-08
6.74086e-08
6.85925e-08
6.89419e-08
6.84472e-08
6.71087e-08
6.49571e-08
6.20414e-08
5.84296e-08
5.42089e-08
4.94846e-08
4.43785e-08
3.90275e-08
3.35796e-08
2.81875e-08
2.30021e-08
1.81655e-08
1.38035e-08
1.00177e-08
6.87702e-09
4.40926e-09
2.59653e-09
1.37523e-09
6.44411e-10
2.77789e-10
1.39452e-10
1.05841e-10
9.7603e-11
1.04537e-10
2.42758e-10
1.60376e-09
1.03113e-08
1.85493e-09
8.41637e-10
7.52409e-10
1.05531e-09
1.69795e-09
2.68869e-09
4.01913e-09
5.65577e-09
7.53508e-09
9.56941e-09
1.16557e-08
1.36848e-08
1.55505e-08
1.71563e-08
1.84204e-08
1.92808e-08
1.97014e-08
1.96755e-08
1.92138e-08
1.83475e-08
1.71279e-08
1.56198e-08
1.3897e-08
1.20399e-08
1.01315e-08
8.25486e-09
6.48983e-09
4.90831e-09
3.57091e-09
2.52959e-09
1.83167e-09
1.50469e-09
1.56638e-09
2.01881e-09
2.849e-09
4.03109e-09
5.5301e-09
7.30591e-09
9.31076e-09
1.14912e-08
1.37904e-08
1.61494e-08
1.85084e-08
2.0808e-08
2.29905e-08
2.50014e-08
2.67907e-08
2.83144e-08
2.95353e-08
3.04234e-08
3.09566e-08
3.1122e-08
3.09145e-08
3.03348e-08
2.93946e-08
2.81146e-08
2.65246e-08
2.46628e-08
2.25757e-08
2.0317e-08
1.7947e-08
1.55303e-08
1.31338e-08
1.08234e-08
8.66109e-09
6.70145e-09
4.98813e-09
3.55048e-09
2.4005e-09
1.53136e-09
9.17892e-10
5.19879e-10
2.86761e-10
1.64101e-10
1.03907e-10
7.65461e-11
8.50284e-11
2.22553e-10
1.48444e-09
3.46327e-08
5.7388e-09
2.13503e-09
1.30677e-09
1.19395e-09
1.43752e-09
1.94279e-09
2.66657e-09
3.57153e-09
4.61253e-09
5.73831e-09
6.89263e-09
8.01727e-09
9.05597e-09
9.95798e-09
1.06809e-08
1.1193e-08
1.1476e-08
1.15246e-08
1.13435e-08
1.09484e-08
1.03645e-08
9.624e-09
8.76416e-09
7.8257e-09
6.85119e-09
5.88392e-09
4.96698e-09
4.13838e-09
3.43069e-09
2.87175e-09
2.48511e-09
2.28655e-09
2.28569e-09
2.48467e-09
2.87818e-09
3.45455e-09
4.1976e-09
5.08799e-09
6.1001e-09
7.20616e-09
8.37736e-09
9.58368e-09
1.07939e-08
1.19767e-08
1.31017e-08
1.41404e-08
1.50663e-08
1.58557e-08
1.64883e-08
1.69475e-08
1.72211e-08
1.73014e-08
1.7185e-08
1.68718e-08
1.63671e-08
1.56811e-08
1.48291e-08
1.38311e-08
1.27114e-08
1.14984e-08
1.02238e-08
8.92152e-09
7.62665e-09
6.37378e-09
5.1953e-09
4.1196e-09
3.16937e-09
2.35988e-09
1.69768e-09
1.18021e-09
7.96203e-10
5.26232e-10
3.46178e-10
2.30501e-10
1.56615e-10
1.09299e-10
8.45367e-11
1.022e-10
3.92752e-10
8.15998e-08
1.31113e-08
4.53715e-09
2.40598e-09
1.74491e-09
1.6468e-09
1.86049e-09
2.2878e-09
2.87245e-09
3.56938e-09
4.33682e-09
5.1341e-09
5.9214e-09
6.66165e-09
7.32227e-09
7.87647e-09
8.30439e-09
8.59409e-09
8.73992e-09
8.74336e-09
8.61256e-09
8.36079e-09
8.00528e-09
7.56658e-09
7.06758e-09
6.53269e-09
5.98714e-09
5.45592e-09
4.96282e-09
4.52756e-09
4.16736e-09
3.89677e-09
3.72653e-09
3.6635e-09
3.7103e-09
3.86534e-09
4.12341e-09
4.47658e-09
4.91451e-09
5.42389e-09
5.98992e-09
6.59705e-09
7.22887e-09
7.86697e-09
8.49305e-09
9.0897e-09
9.64049e-09
1.01301e-08
1.05445e-08
1.08712e-08
1.11e-08
1.12232e-08
1.12357e-08
1.1135e-08
1.09205e-08
1.05944e-08
1.01623e-08
9.63279e-09
9.01713e-09
8.32942e-09
7.58612e-09
6.80563e-09
6.00772e-09
5.21275e-09
4.44081e-09
3.71066e-09
3.03859e-09
2.43759e-09
1.9167e-09
1.47984e-09
1.12578e-09
8.48782e-10
6.39236e-10
4.85429e-10
3.75521e-10
2.99991e-10
2.54816e-10
2.4893e-10
3.49454e-10
1.26992e-09
1.56724e-07
2.48239e-08
8.31033e-09
4.14634e-09
2.71207e-09
2.2284e-09
2.20702e-09
2.46492e-09
2.91148e-09
3.48808e-09
4.14888e-09
4.85437e-09
5.56921e-09
6.26219e-09
6.90667e-09
7.48108e-09
7.96932e-09
8.35955e-09
8.64471e-09
8.82309e-09
8.89761e-09
8.87493e-09
8.76464e-09
8.5788e-09
8.33137e-09
8.03764e-09
7.71425e-09
7.37782e-09
7.044e-09
6.72693e-09
6.43925e-09
6.19187e-09
5.99351e-09
5.85047e-09
5.76636e-09
5.74214e-09
5.77651e-09
5.86626e-09
6.00652e-09
6.19074e-09
6.41127e-09
6.65967e-09
6.92662e-09
7.20179e-09
7.4746e-09
7.73477e-09
7.97251e-09
8.1786e-09
8.34414e-09
8.46097e-09
8.52234e-09
8.52311e-09
8.45991e-09
8.33069e-09
8.13442e-09
7.87206e-09
7.54657e-09
7.16289e-09
6.72783e-09
6.24993e-09
5.73928e-09
5.20716e-09
4.66569e-09
4.12735e-09
3.6044e-09
3.10827e-09
2.64856e-09
2.23264e-09
1.86546e-09
1.54919e-09
1.28336e-09
1.06556e-09
8.92338e-10
7.60875e-10
6.71432e-10
6.32518e-10
6.76164e-10
9.23808e-10
2.02031e-09
1.08801e-08
2.63679e-07
4.14525e-08
1.36391e-08
6.60462e-09
4.1183e-09
3.16554e-09
2.91853e-09
3.07453e-09
3.49161e-09
4.086e-09
4.79821e-09
5.5809e-09
6.39441e-09
7.2052e-09
7.98545e-09
8.71279e-09
9.36943e-09
9.94009e-09
1.04153e-08
1.07901e-08
1.10636e-08
1.12384e-08
1.13195e-08
1.13146e-08
1.12332e-08
1.10864e-08
1.08865e-08
1.0646e-08
1.03773e-08
1.00923e-08
9.802e-09
9.5163e-09
9.24378e-09
8.9914e-09
8.76427e-09
8.56575e-09
8.39753e-09
8.25988e-09
8.15183e-09
8.07122e-09
8.01496e-09
7.97917e-09
7.95921e-09
7.94972e-09
7.94496e-09
7.93911e-09
7.9264e-09
7.9012e-09
7.85802e-09
7.79175e-09
7.69801e-09
7.57341e-09
7.4157e-09
7.22308e-09
6.99438e-09
6.72978e-09
6.43084e-09
6.1005e-09
5.74295e-09
5.36361e-09
4.96887e-09
4.56591e-09
4.16234e-09
3.76589e-09
3.38393e-09
3.02301e-09
2.68833e-09
2.38353e-09
2.11068e-09
1.87055e-09
1.66322e-09
1.4893e-09
1.35176e-09
1.25895e-09
1.23072e-09
1.31451e-09
1.63982e-09
2.66037e-09
6.80381e-09
3.9983e-08
4.04768e-07
6.33643e-08
2.06469e-08
9.83995e-09
5.99584e-09
4.47343e-09
3.99528e-09
4.10036e-09
4.57657e-09
5.30328e-09
6.19839e-09
7.19906e-09
8.25433e-09
9.3222e-09
1.03684e-08
1.13654e-08
1.22873e-08
1.31154e-08
1.38364e-08
1.44421e-08
1.49286e-08
1.52958e-08
1.55465e-08
1.56862e-08
1.5723e-08
1.56665e-08
1.55275e-08
1.53175e-08
1.50484e-08
1.47318e-08
1.43792e-08
1.40011e-08
1.36073e-08
1.32063e-08
1.28054e-08
1.24104e-08
1.20258e-08
1.16549e-08
1.13e-08
1.09622e-08
1.06418e-08
1.03383e-08
1.00505e-08
9.77635e-09
9.51347e-09
9.25906e-09
9.01014e-09
8.7636e-09
8.51627e-09
8.26516e-09
8.00763e-09
7.74161e-09
7.46577e-09
7.17851e-09
6.87866e-09
6.56607e-09
6.2416e-09
5.90708e-09
5.56532e-09
5.21991e-09
4.87516e-09
4.53579e-09
4.2067e-09
3.89257e-09
3.59751e-09
3.32464e-09
3.07583e-09
2.85164e-09
2.65164e-09
2.47531e-09
2.32349e-09
2.20083e-09
2.1197e-09
2.10703e-09
2.21931e-09
2.58366e-09
3.53835e-09
6.28214e-09
1.72088e-08
1.04527e-07
5.8158e-07
9.0815e-08
2.94239e-08
1.39026e-08
8.3832e-09
6.18837e-09
5.47749e-09
5.58832e-09
6.21785e-09
7.19563e-09
8.40739e-09
9.76696e-09
1.12055e-08
1.26669e-08
1.41059e-08
1.54835e-08
1.67642e-08
1.79239e-08
1.89452e-08
1.98172e-08
2.05333e-08
2.10922e-08
2.14968e-08
2.1753e-08
2.18691e-08
2.18554e-08
2.17234e-08
2.1486e-08
2.11562e-08
2.07475e-08
2.02731e-08
1.97457e-08
1.91773e-08
1.85788e-08
1.79601e-08
1.73297e-08
1.66951e-08
1.60626e-08
1.54371e-08
1.48228e-08
1.42228e-08
1.36392e-08
1.30735e-08
1.25262e-08
1.19974e-08
1.14864e-08
1.09924e-08
1.0514e-08
1.00499e-08
9.59857e-09
9.15866e-09
8.72919e-09
8.30966e-09
7.89859e-09
7.49501e-09
7.09878e-09
6.71054e-09
6.33174e-09
5.96454e-09
5.61179e-09
5.27676e-09
4.96297e-09
4.67384e-09
4.41227e-09
4.18024e-09
3.97842e-09
3.80593e-09
3.6605e-09
3.53924e-09
3.44025e-09
3.36558e-09
3.32595e-09
3.34871e-09
3.49237e-09
3.87906e-09
4.78389e-09
6.94525e-09
1.29891e-08
3.68996e-08
2.2786e-07
7.95526e-07
1.24035e-07
4.00567e-08
1.88493e-08
1.13357e-08
8.37673e-09
7.45008e-09
7.64591e-09
8.54645e-09
9.91616e-09
1.15973e-08
1.34716e-08