/*--------------------------------*- C++ -*----------------------------------*\
| =========                 |                                                 |
| \\      /  F ield         | OpenFOAM: The Open Source CFD Toolbox           |
|  \\    /   O peration     | Version:  v2012                                 |
|   \\  /    A nd           | Website:  www.openfoam.com                      |
|    \\/     M anipulation  |                                                 |
\*---------------------------------------------------------------------------*/
FoamFile
{
    version     2.0;
    format      ascii;
    class       volScalarField;
    location    "2000";
    object      nut;
}
// * * * * * * * * * * * * * * * * * * * * * * * * * * * * * * * * * * * * * //

dimensions      [0 2 -1 0 0 0 0];


internalField   nonuniform List<scalar> 
6502
(
1.46852e-06
9.00074e-06
5.76465e-05
0.000218865
0.000481275
0.000481305
0.000218885
5.76499e-05
9.00092e-06
1.46853e-06
8.05825e-07
2.38808e-06
1.66271e-05
6.69469e-05
0.000153681
0.0001537
6.69592e-05
1.66294e-05
2.38829e-06
8.05915e-07
4.4928e-07
9.66054e-07
7.24996e-06
3.1282e-05
7.16738e-05
7.16877e-05
3.12917e-05
7.25192e-06
9.66306e-07
4.49449e-07
2.79525e-07
4.95617e-07
3.7256e-06
1.69729e-05
3.8688e-05
3.8699e-05
1.69814e-05
3.72749e-06
4.95956e-07
2.79769e-07
2.16794e-07
3.30361e-07
2.13635e-06
9.9049e-06
2.24041e-05
2.24129e-05
9.9122e-06
2.13807e-06
3.30766e-07
2.17142e-07
1.91991e-07
2.49877e-07
1.2921e-06
5.96208e-06
1.34176e-05
1.3425e-05
5.96853e-06
1.29374e-06
2.50407e-07
1.92494e-07
1.81146e-07
2.09516e-07
8.18959e-07
3.64687e-06
8.16413e-06
8.1706e-06
3.65273e-06
8.20615e-07
2.1024e-07
1.81868e-07
1.76618e-07
1.8856e-07
5.45829e-07
2.25899e-06
5.00924e-06
5.01512e-06
2.2645e-06
5.4763e-07
1.89594e-07
1.77683e-07
1.74882e-07
1.77373e-07
3.85428e-07
1.42095e-06
3.0952e-06
3.10065e-06
1.4263e-06
3.87554e-07
1.78914e-07
1.7651e-07
1.74133e-07
1.71152e-07
2.90883e-07
9.15303e-07
1.93248e-06
1.93721e-06
9.20673e-07
2.936e-07
1.73467e-07
1.76603e-07
1.73538e-07
1.67534e-07
2.39239e-07
6.13762e-07
1.22871e-06
1.23299e-06
6.19441e-07
2.43101e-07
1.71027e-07
1.77278e-07
1.72719e-07
1.64969e-07
2.06462e-07
4.29602e-07
8.0061e-07
8.04775e-07
4.35908e-07
2.11726e-07
1.7025e-07
1.78406e-07
1.71456e-07
1.62698e-07
1.85075e-07
3.16343e-07
5.39534e-07
5.43974e-07
3.23974e-07
1.92597e-07
1.70679e-07
1.80076e-07
1.69535e-07
1.60253e-07
1.7097e-07
2.46894e-07
3.80678e-07
3.85858e-07
2.56893e-07
1.82012e-07
1.72343e-07
1.82607e-07
1.66687e-07
1.57229e-07
1.61187e-07
2.0573e-07
2.84969e-07
2.91575e-07
2.20061e-07
1.77751e-07
1.75657e-07
1.86616e-07
1.62565e-07
1.532e-07
1.53415e-07
1.79514e-07
2.2683e-07
2.35551e-07
1.99807e-07
1.78664e-07
1.81597e-07
1.93254e-07
1.56756e-07
1.47717e-07
1.46071e-07
1.61458e-07
1.91208e-07
2.03513e-07
1.91763e-07
1.85504e-07
1.92285e-07
2.04759e-07
1.48805e-07
1.40322e-07
1.38068e-07
1.47898e-07
1.69343e-07
1.87678e-07
1.95182e-07
2.01918e-07
2.13112e-07
2.26785e-07
1.38277e-07
1.30594e-07
1.28623e-07
1.36347e-07
1.55731e-07
1.83406e-07
2.11098e-07
2.35322e-07
2.58039e-07
2.78111e-07
1.24986e-07
1.18343e-07
1.17258e-07
1.24986e-07
1.45804e-07
1.84238e-07
2.32914e-07
2.80488e-07
3.27096e-07
3.66447e-07
1.09257e-07
1.03818e-07
1.03892e-07
1.12438e-07
1.34651e-07
1.77373e-07
2.29697e-07
2.68628e-07
2.86075e-07
2.69649e-07
9.21703e-08
8.7954e-08
8.91219e-08
9.84192e-08
1.20757e-07
1.62728e-07
2.1276e-07
2.45954e-07
2.51096e-07
2.21218e-07
7.53121e-08
7.21531e-08
7.40444e-08
8.3547e-08
1.04743e-07
1.43071e-07
1.88122e-07
2.19303e-07
2.2224e-07
1.93636e-07
5.99714e-08
5.76273e-08
5.97819e-08
6.88275e-08
8.79918e-08
1.21517e-07
1.6143e-07
1.9104e-07
1.96842e-07
1.75764e-07
4.68418e-08
4.50904e-08
4.71417e-08
5.52015e-08
7.18296e-08
1.00279e-07
1.34923e-07
1.6277e-07
1.7278e-07
1.6089e-07
3.60958e-08
3.47686e-08
3.65098e-08
4.32941e-08
5.72122e-08
8.0794e-08
1.10278e-07
1.3615e-07
1.49448e-07
1.45878e-07
2.75814e-08
2.65601e-08
2.79219e-08
3.33692e-08
4.4657e-08
6.38249e-08
8.84779e-08
1.1194e-07
1.27077e-07
1.29933e-07
2.09858e-08
2.01897e-08
2.11907e-08
2.54003e-08
3.43074e-08
4.96224e-08
6.9913e-08
9.06185e-08
1.06234e-07
1.13383e-07
1.59506e-08
1.53245e-08
1.6025e-08
1.91813e-08
2.6048e-08
3.80985e-08
5.45689e-08
7.24169e-08
8.75453e-08
9.69094e-08
1.21397e-08
1.16445e-08
1.21149e-08
1.44268e-08
1.96199e-08
2.8974e-08
4.21798e-08
5.7263e-08
7.12513e-08
8.15587e-08
9.26684e-09
8.87385e-09
9.17793e-09
1.08419e-08
1.47096e-08
2.18861e-08
3.23588e-08
4.48962e-08
5.73898e-08
6.77422e-08
7.10147e-09
6.78898e-09
6.97807e-09
8.16069e-09
1.10079e-08
1.64605e-08
2.46861e-08
3.49636e-08
4.58327e-08
5.56526e-08
5.46509e-09
5.21637e-09
5.3287e-09
6.16206e-09
8.24066e-09
1.23517e-08
1.87594e-08
2.70867e-08
3.63517e-08
4.53095e-08
4.22262e-09
4.0246e-09
4.08724e-09
4.67145e-09
6.18082e-09
9.26313e-09
1.42211e-08
2.09029e-08
2.86743e-08
3.66175e-08
3.2732e-09
3.11555e-09
3.14699e-09
3.55566e-09
4.64895e-09
6.9518e-09
1.07683e-08
1.60873e-08
2.2522e-08
2.94162e-08
2.54166e-09
2.41618e-09
2.42894e-09
2.71558e-09
3.50833e-09
5.22654e-09
8.15396e-09
1.23612e-08
1.76337e-08
2.35184e-08
1.96966e-09
1.87137e-09
1.87586e-09
2.0804e-09
2.65913e-09
3.94213e-09
6.18268e-09
9.49387e-09
1.37773e-08
1.87332e-08
1.5269e-09
1.45266e-09
1.45705e-09
1.6074e-09
2.0338e-09
2.99209e-09
4.70348e-09
7.2982e-09
1.07529e-08
1.48806e-08
1.22677e-09
1.1677e-09
1.16801e-09
1.27341e-09
1.585e-09
2.29561e-09
3.5978e-09
5.6223e-09
8.39089e-09
1.17968e-08
1.05257e-09
9.90959e-10
9.68915e-10
1.02877e-09
1.25141e-09
1.77523e-09
2.76429e-09
4.33966e-09
6.54771e-09
9.33667e-09
7.80366e-10
7.42147e-10
7.36959e-10
7.90911e-10
9.63702e-10
1.36199e-09
2.12037e-09
3.34841e-09
5.10514e-09
7.37595e-09
5.54195e-10
5.30496e-10
5.34991e-10
5.84778e-10
7.2224e-10
1.03109e-09
1.61754e-09
2.57721e-09
3.9729e-09
5.81345e-09
4.2247e-10
4.01165e-10
4.00325e-10
4.35382e-10
5.38899e-10
7.75586e-10
1.22844e-09
1.97788e-09
3.08423e-09
4.56942e-09
3.27504e-10
3.09804e-10
3.062e-10
3.29268e-10
4.05304e-10
5.84715e-10
9.33611e-10
1.5188e-09
2.39519e-09
3.59082e-09
2.4983e-10
2.36364e-10
2.33046e-10
2.49119e-10
3.05275e-10
4.40992e-10
7.09283e-10
1.1654e-09
1.85786e-09
2.81651e-09
1.8575e-10
1.75982e-10
1.73793e-10
1.85832e-10
2.27858e-10
3.30816e-10
5.36837e-10
8.91267e-10
1.43596e-09
2.19988e-09
1.34103e-10
1.27263e-10
1.26125e-10
1.35545e-10
1.67307e-10
2.45779e-10
4.03918e-10
6.78491e-10
1.10473e-09
1.70901e-09
9.32881e-11
8.87284e-11
8.84203e-11
9.59734e-11
1.20119e-10
1.80172e-10
3.01473e-10
5.13381e-10
8.44753e-10
1.31823e-09
6.17707e-11
5.89521e-11
5.92624e-11
6.54296e-11
8.39795e-11
1.30012e-10
2.2286e-10
3.85521e-10
6.4085e-10
1.00712e-09
3.82067e-11
3.66705e-11
3.74031e-11
4.24981e-11
5.69753e-11
9.22103e-11
1.62982e-10
2.86863e-10
4.81184e-10
7.59641e-10
2.14226e-11
2.07715e-11
2.17345e-11
2.5917e-11
3.72432e-11
6.41453e-11
1.1776e-10
2.11084e-10
3.56526e-10
5.63459e-10
1.03333e-11
1.02244e-11
1.12324e-11
1.45578e-11
2.33562e-11
4.37734e-11
8.40117e-11
1.53253e-10
2.59766e-10
4.09434e-10
3.82746e-12
3.98503e-12
4.88539e-12
7.39294e-12
1.41254e-11
2.94453e-11
5.91816e-11
1.09438e-10
1.85398e-10
2.90859e-10
7.98551e-13
1.00671e-12
1.68068e-12
3.55217e-12
8.521e-12
1.97234e-11
4.10459e-11
7.63229e-11
1.29002e-10
2.02402e-10
5.92798e-14
1.78843e-13
5.70737e-13
1.8306e-12
5.31285e-12
1.30752e-11
2.74871e-11
5.11065e-11
8.69795e-11
1.38988e-10
3.90232e-13
3.82327e-13
5.2829e-13
1.2711e-12
3.46522e-12
8.20195e-12
1.69496e-11
3.19791e-11
5.66147e-11
9.53978e-11
7.43003e-13
6.64343e-13
6.83928e-13
1.09465e-12
2.19675e-12
4.40373e-12
8.96755e-12
1.82947e-11
3.59297e-11
6.68802e-11
6.59185e-13
6.02225e-13
7.15801e-13
1.09889e-12
1.44127e-12
1.92461e-12
3.84518e-12
9.71021e-12
2.31945e-11
4.8772e-11
2.81919e-13
3.54499e-13
8.52729e-13
1.33224e-12
1.3083e-12
9.01893e-13
1.31729e-12
5.15706e-12
1.61583e-11
3.91308e-11
4.33473e-14
3.94288e-13
1.03667e-12
1.57676e-12
1.48316e-12
6.93657e-13
4.13003e-13
3.42151e-12
1.37596e-11
3.65908e-11
1.5282e-07
2.05254e-08
3.06645e-09
3.1364e-09
3.61788e-09
3.67804e-09
3.3179e-09
2.76828e-09
2.32449e-09
1.93698e-09
1.65861e-09
1.52704e-09
1.24688e-09
1.32681e-09
9.5467e-10
4.77167e-10
3.43612e-10
2.47514e-10
1.63506e-10
9.56773e-11
4.73176e-11
1.81716e-11
4.54272e-12
5.24864e-13
5.28581e-14
1.38132e-07
4.22396e-08
1.11514e-08
4.90738e-09
3.80249e-09
3.49874e-09
3.11089e-09
2.62375e-09
2.20197e-09
1.85119e-09
1.60744e-09
1.45931e-09
1.24554e-09
1.17852e-09
8.58411e-10
4.99433e-10
3.39121e-10
2.38139e-10
1.58019e-10
9.46257e-11
4.89403e-11
2.03263e-11
5.75586e-12
9.46212e-13
3.6573e-13
1.32986e-07
6.6241e-08
2.86341e-08
1.31515e-08
7.17158e-09
4.85406e-09
3.66164e-09
2.88824e-09
2.34586e-09
1.96301e-09
1.70921e-09
1.52052e-09
1.31224e-09
1.12012e-09
8.33561e-10
5.49408e-10
3.69149e-10
2.50822e-10
1.64356e-10
9.90133e-11
5.18311e-11
2.17674e-11
8.24253e-12
4.83615e-12
4.27656e-12
1.32866e-07
8.50073e-08
4.89437e-08
2.76601e-08
1.60259e-08
9.86946e-09
6.48628e-09
4.53203e-09
3.35988e-09
2.65005e-09
2.19208e-09
1.85328e-09
1.54721e-09
1.24871e-09
9.37298e-10
6.56244e-10
4.45702e-10
2.94915e-10
1.85482e-10
1.0663e-10
5.54236e-11
2.80771e-11
1.84917e-11
1.63782e-11
1.65317e-11
1.32156e-07
9.76673e-08
6.68064e-08
4.40965e-08
2.88063e-08
1.8944e-08
1.26739e-08
8.69972e-09
6.17456e-09
4.55776e-09
3.48903e-09
2.73617e-09
2.15188e-09
1.6605e-09
1.23132e-09
8.71181e-10
5.88965e-10
3.77927e-10
2.2644e-10
1.25606e-10
6.82231e-11
4.35203e-11
3.65978e-11
3.62125e-11
3.79996e-11
1.28418e-07
1.04425e-07
7.99037e-08
5.88019e-08
4.24119e-08
3.02954e-08
2.15896e-08
1.54508e-08
1.11713e-08
8.19669e-09
6.1062e-09
4.59615e-09
3.45769e-09
2.56476e-09
1.85082e-09
1.28197e-09
8.41718e-10
5.16577e-10
2.93382e-10
1.57483e-10
8.92332e-11
6.44448e-11
5.93663e-11
6.12084e-11
6.52433e-11
1.21275e-07
1.05823e-07
8.76549e-08
6.99287e-08
5.43905e-08
4.16617e-08
3.15996e-08
2.38303e-08
1.79287e-08
1.34859e-08
1.0141e-08
7.59888e-09
5.63478e-09
4.09271e-09
2.87494e-09
1.92795e-09
1.21499e-09
7.09647e-10
3.82937e-10
1.98584e-10
1.13349e-10
8.54667e-11
8.15388e-11
8.56028e-11
9.19073e-11
1.11299e-07
1.02728e-07
9.03968e-08
7.67348e-08
6.34113e-08
5.13785e-08
4.10595e-08
3.24733e-08
2.5454e-08
1.97788e-08
1.52118e-08
1.15343e-08
8.56463e-09
6.16819e-09
4.25656e-09
2.77523e-09
1.68681e-09
9.44835e-10
4.88396e-10
2.43647e-10
1.35394e-10
1.01446e-10
9.747e-11
1.03109e-10
1.11096e-10
9.94479e-08
9.6229e-08
8.89407e-08
7.93502e-08
6.88807e-08
5.85136e-08
4.88485e-08
4.0205e-08
3.26742e-08
2.61876e-08
2.06358e-08
1.59038e-08
1.18958e-08
8.54947e-09
5.83412e-09
3.73183e-09
2.20989e-09
1.20111e-09
6.00495e-10
2.87455e-10
1.51365e-10
1.0838e-10
1.02709e-10
1.08769e-10
1.17392e-10
8.682e-08
8.74918e-08
8.43104e-08
7.84127e-08
7.0909e-08
6.26761e-08
5.43334e-08
4.62844e-08
3.87791e-08
3.193e-08
2.57269e-08
2.01518e-08
1.52115e-08
1.09486e-08
7.42789e-09
4.69563e-09
2.73704e-09
1.45898e-09
7.10926e-10
3.26056e-10
1.58915e-10
1.04298e-10
9.51151e-11
1.00138e-10
1.08096e-10
7.44545e-08
7.76325e-08
7.75533e-08
7.47676e-08
7.00212e-08
6.40206e-08
5.73208e-08
5.03229e-08
4.33082e-08
3.64923e-08
2.99851e-08
2.38441e-08
1.81736e-08
1.31316e-08
8.89536e-09
5.59088e-09
3.23051e-09
1.70211e-09
8.13781e-10
3.5785e-10
1.58278e-10
9.00035e-11
7.5653e-11
7.80181e-11
8.39011e-11
6.2976e-08
6.7601e-08
6.96433e-08
6.92773e-08
6.6902e-08
6.29985e-08
5.80093e-08
5.22827e-08
4.60814e-08
3.96306e-08
3.31396e-08
2.67253e-08
2.05743e-08
1.49523e-08
1.01479e-08
6.37099e-09
3.66903e-09
1.92167e-09
9.06922e-10
3.84586e-10
1.52924e-10
6.97333e-11
4.94707e-11
4.79823e-11
5.08591e-11
5.26616e-08
5.80424e-08
6.13861e-08
6.27438e-08
6.2251e-08
6.01693e-08
5.67936e-08
5.23851e-08
4.7159e-08
4.1319e-08
3.51148e-08
2.87005e-08
2.23259e-08
1.63452e-08
1.11456e-08
7.01649e-09
4.04653e-09
2.11946e-09
9.963e-10
4.14302e-10
1.522e-10
5.39032e-11
2.54308e-11
1.92749e-11
1.88388e-11
4.3623e-08
4.92623e-08
5.33535e-08
5.58219e-08
5.67096e-08
5.60972e-08
5.41322e-08
5.09712e-08
4.67587e-08
4.16894e-08
3.59762e-08
2.97927e-08
2.34297e-08
1.73058e-08
1.18861e-08
7.52992e-09
4.36983e-09
2.30507e-09
1.09263e-09
4.57728e-10
1.66444e-10
5.26508e-11
1.55988e-11
4.86228e-12
1.63245e-12
3.58558e-08
4.1411e-08
4.58468e-08
4.899e-08
5.08031e-08
5.12941e-08
5.04849e-08
4.84293e-08
4.52036e-08
4.09695e-08
3.58772e-08
3.01002e-08
2.39462e-08
1.78716e-08
1.23951e-08
7.93201e-09
4.65868e-09
2.49849e-09
1.21601e-09
5.34375e-10
2.14149e-10
8.36372e-11
3.77601e-11
2.24876e-11
1.80315e-11
2.92835e-08
3.45334e-08
3.90217e-08
4.2523e-08
4.49237e-08
4.61818e-08
4.62645e-08
4.51407e-08
4.28235e-08
3.94173e-08
3.5011e-08
2.97607e-08
2.39699e-08
1.81064e-08
1.27174e-08
8.25808e-09
4.9443e-09
2.72927e-09
1.3945e-09
6.70252e-10
3.18943e-10
1.68662e-10
1.13187e-10
9.3784e-11
9.09354e-11
2.37909e-08
2.86056e-08
3.2945e-08
3.65657e-08
3.93084e-08
4.10772e-08
4.18088e-08
4.14346e-08
3.9915e-08
3.7282e-08
3.35763e-08
2.89256e-08
2.36115e-08
1.80904e-08
1.29139e-08
8.55927e-09
5.27498e-09
3.04592e-09
1.67692e-09
9.12683e-10
5.24718e-10
3.4781e-10
2.72882e-10
2.48257e-10
2.50639e-10
1.92462e-08
2.35619e-08
2.76228e-08
3.11903e-08
3.40844e-08
3.61753e-08
3.73657e-08
3.75707e-08
3.67189e-08
3.47796e-08
3.17558e-08
2.77415e-08
2.29849e-08
1.79124e-08
1.30588e-08
8.90545e-09
5.72368e-09
3.5278e-09
2.14779e-09
1.34629e-09
9.09227e-10
6.82628e-10
5.71183e-10
5.34675e-10
5.46058e-10
1.55153e-08
1.9314e-08
2.30213e-08
2.64175e-08
2.93196e-08
3.15816e-08
3.30846e-08
3.37258e-08
3.34144e-08
3.20831e-08
2.97045e-08
2.634e-08
2.21984e-08
1.7664e-08
1.32374e-08
9.38795e-09
6.39832e-09
4.30591e-09
2.96153e-09
2.1411e-09
1.64281e-09
1.3185e-09
1.12393e-09
1.05192e-09
1.07708e-09
1.24696e-08
1.57642e-08
1.90831e-08
2.2233e-08
2.50402e-08
2.73552e-08
2.90493e-08
3.0008e-08
3.01279e-08
2.93229e-08
2.75456e-08
2.48299e-08
2.13461e-08
1.74299e-08
1.35375e-08
1.01136e-08
7.44274e-09
5.57872e-09
4.38489e-09
3.62637e-09
3.07479e-09
2.60244e-09
2.21409e-09
2.00225e-09
2.0093e-09
9.99216e-09
1.28151e-08
1.57392e-08
1.8601e-08
2.12433e-08
2.35227e-08
2.53098e-08
2.64868e-08
2.69452e-08
2.65921e-08
2.53697e-08
2.32929e-08
2.04983e-08
1.72746e-08
1.40298e-08
1.11796e-08
9.0086e-09
7.59057e-09
6.77574e-09
6.31718e-09
5.93983e-09
5.43683e-09
4.77715e-09
4.19095e-09
4.02403e-09
7.98188e-09
1.03758e-08
1.29178e-08
1.54738e-08
1.79073e-08
2.00873e-08
2.18912e-08
2.32046e-08
2.3922e-08
2.39524e-08
2.32364e-08
2.1779e-08
1.96918e-08
1.72229e-08
1.47359e-08
1.26212e-08
1.11745e-08
1.04762e-08
1.04408e-08
1.08483e-08
1.13939e-08
1.17364e-08
1.15807e-08
1.09372e-08
1.05143e-08
6.35442e-09
8.36581e-09
1.05496e-08
1.27989e-08
1.49994e-08
1.70362e-08
1.87985e-08
2.01817e-08
2.10888e-08
2.14376e-08
2.11749e-08
2.03043e-08
1.89215e-08
1.72425e-08
1.55934e-08
1.43462e-08
1.37914e-08
1.40817e-08
1.52487e-08
1.72315e-08
1.99439e-08
2.33001e-08
2.71353e-08
3.10475e-08
3.45391e-08
5.05358e-09
6.7321e-09
8.59069e-09
1.05465e-08
1.25063e-08
1.43731e-08
1.6051e-08
1.74485e-08
1.84821e-08
1.90826e-08
1.92084e-08
1.88677e-08
1.8148e-08
1.72403e-08
1.64364e-08
1.60831e-08
1.6455e-08
1.7764e-08
2.01226e-08
2.35868e-08
2.82453e-08
3.43445e-08
4.25315e-08
5.45467e-08
7.58447e-08
4.00811e-09
5.39772e-09
6.96356e-09
8.64306e-09
1.03624e-08
1.20426e-08
1.36039e-08
1.49705e-08
1.60742e-08
1.68616e-08
1.73051e-08
1.74212e-08
1.72936e-08
1.70927e-08
1.70776e-08
1.75508e-08
1.87726e-08
2.09677e-08
2.42831e-08
2.88259e-08
3.47488e-08
4.23725e-08
5.2365e-08
6.60352e-08
8.58165e-08
3.16276e-09
4.30157e-09
5.6046e-09
7.0259e-09
8.50894e-09
9.9916e-09
1.14108e-08
1.27067e-08
1.38275e-08
1.47361e-08
1.54192e-08
1.59022e-08
1.62664e-08
1.6664e-08
1.73211e-08
1.84927e-08
2.04117e-08
2.32858e-08
2.72593e-08
3.24356e-08
3.89368e-08
4.69723e-08
5.68791e-08
6.90419e-08
8.33332e-08
2.47949e-09
3.40138e-09
4.46974e-09
5.65178e-09
6.90564e-09
8.18452e-09
9.44087e-09
1.06305e-08
1.17174e-08
1.26791e-08
1.35155e-08
1.42589e-08
1.49873e-08
1.58351e-08
1.69952e-08
1.86856e-08
2.11003e-08
2.44156e-08
2.8751e-08
3.41743e-08
4.07314e-08
4.8467e-08
5.73856e-08
6.7258e-08
7.70483e-08
1.92702e-09
2.66161e-09
3.52112e-09
4.48273e-09
5.51659e-09
6.58918e-09
7.66683e-09
8.71943e-09
9.72456e-09
1.06724e-08
1.15723e-08
1.24606e-08
1.34093e-08
1.45338e-08
1.59938e-08
1.79806e-08
2.06525e-08
2.41508e-08
2.85656e-08
3.3924e-08
4.0196e-08
4.72926e-08
5.5014e-08
6.29002e-08
6.99337e-08
1.4801e-09
2.05332e-09
2.72786e-09
3.48826e-09
4.31421e-09
5.18318e-09
6.07321e-09
6.96595e-09
7.84988e-09
8.7243e-09
9.60399e-09
1.05248e-08
1.15499e-08
1.27738e-08
1.4324e-08
1.63532e-08
1.90136e-08
2.24106e-08
2.66128e-08
3.1621e-08
3.73605e-08
4.36698e-08
5.02671e-08
5.66794e-08
6.21504e-08
1.11894e-09
1.55422e-09
2.06728e-09
2.64809e-09
3.28377e-09
3.96054e-09
4.66572e-09
5.3899e-09
6.12928e-09
6.88841e-09
7.68346e-09
8.54581e-09
9.52588e-09
1.06961e-08
1.21515e-08
1.40054e-08
1.63768e-08
1.93741e-08
2.30543e-08
2.74057e-08
3.2351e-08
3.77227e-08
4.32407e-08
4.85002e-08
5.2975e-08
8.28856e-10
1.14894e-09
1.52586e-09
1.95384e-09
2.42579e-09
2.93454e-09
3.47413e-09
4.0412e-09
4.63649e-09
5.26657e-09
5.94572e-09
6.6981e-09
7.55979e-09
8.58053e-09
9.82421e-09
1.13669e-08
1.32908e-08
1.56719e-08
1.85613e-08
2.19666e-08
2.584e-08
3.00636e-08
3.44032e-08
3.85479e-08
4.21395e-08
5.99741e-10
8.28271e-10
1.09789e-09
1.4064e-09
1.75105e-09
2.12912e-09
2.53897e-09
2.98081e-09
3.45748e-09
3.97545e-09
4.5458e-09
5.18502e-09
5.91594e-09
6.7682e-09
7.77848e-09
8.99009e-09
1.04505e-08
1.22056e-08
1.42885e-08
1.67076e-08
1.94341e-08
2.23891e-08
2.54334e-08
2.83767e-08
3.09999e-08
4.24687e-10
5.86378e-10
7.80036e-10
1.00639e-09
1.2655e-09
1.55711e-09
1.88186e-09
2.24208e-09
2.64128e-09
3.08536e-09
3.58255e-09
4.14339e-09
4.78102e-09
5.51028e-09
6.34721e-09
7.3105e-09
8.42155e-09
9.70225e-09
1.11663e-08
1.28142e-08
1.46268e-08
1.65588e-08
1.85361e-08
2.04607e-08
2.22214e-08
2.97467e-10
4.15787e-10
5.62879e-10
7.41814e-10
9.54118e-10
1.19994e-09
1.48081e-09
1.80167e-09
2.16581e-09
2.57921e-09
3.04863e-09
3.5806e-09
4.18124e-09
4.85625e-09
5.61112e-09
6.45135e-09
7.38211e-09
8.40713e-09
9.52611e-09
1.07319e-08
1.20075e-08
1.3323e-08
1.46369e-08
1.59062e-08
1.70885e-08
2.10032e-10
3.03535e-10
4.26422e-10
5.84368e-10
7.7957e-10
1.00967e-09
1.27297e-09
1.57949e-09
1.93477e-09
2.34714e-09
2.82278e-09
3.36551e-09
3.9772e-09
4.65828e-09
5.40809e-09
6.22494e-09
7.10585e-09
8.04598e-09
9.03778e-09
1.00701e-08
1.11272e-08
1.21884e-08
1.32287e-08
1.42202e-08
1.51337e-08
1.52413e-10
2.32828e-10
3.44695e-10
4.95704e-10
6.9066e-10
9.23066e-10
1.17624e-09
1.48394e-09
1.84886e-09
2.28181e-09
2.78803e-09
3.36888e-09
4.02342e-09
4.74927e-09
5.54282e-09
6.39898e-09
7.31086e-09
8.26932e-09
9.26269e-09
1.02764e-08
1.12932e-08
1.22927e-08
1.32526e-08
1.41493e-08
1.49585e-08
1.15325e-10
1.86363e-10
2.90716e-10
4.42169e-10
6.54972e-10
9.17e-10
1.1391e-09
1.45115e-09
1.83442e-09
2.29965e-09
2.8489e-09
3.48045e-09
4.19159e-09
4.9789e-09
5.83767e-09
6.76134e-09
7.74096e-09
8.76482e-09
9.81826e-09
1.08836e-08
1.19405e-08
1.29661e-08
1.39362e-08
1.48258e-08
1.56105e-08
9.11028e-11
1.55142e-10
2.52126e-10
4.03209e-10
6.5111e-10
1.02044e-09
1.13121e-09
1.44253e-09
1.85091e-09
2.35548e-09
2.95174e-09
3.63554e-09
4.40425e-09
5.25493e-09
6.18284e-09
7.18074e-09
8.23832e-09
9.34192e-09
1.04744e-08
1.16152e-08
1.27406e-08
1.38246e-08
1.48398e-08
1.57583e-08
1.65538e-08
7.87557e-11
1.39121e-10
2.2848e-10
3.67254e-10
6.37887e-10
1.30623e-09
1.14207e-09
1.44784e-09
1.89287e-09
2.44269e-09
3.08614e-09
3.81989e-09
4.64364e-09
5.55571e-09
6.55153e-09
7.62332e-09
8.75973e-09
9.94553e-09
1.11616e-08
1.23848e-08
1.35888e-08
1.47444e-08
1.58209e-08
1.67879e-08
1.76167e-08
7.6899e-11
1.38662e-10
2.27118e-10
3.51523e-10
5.79942e-10
1.7352e-09
1.18223e-09
1.49153e-09
1.98329e-09
2.58234e-09
3.27568e-09
4.06297e-09
4.94647e-09
5.92522e-09
6.99457e-09
8.14617e-09
9.36777e-09
1.06429e-08
1.19506e-08
1.3266e-08
1.45601e-08
1.58011e-08
1.69556e-08
1.79902e-08
1.8874e-08
1.35512e-07
9.04192e-08
6.47168e-08
1.14165e-07
8.90198e-08
6.78118e-08
9.55718e-08
8.56886e-08
7.26087e-08
8.30749e-08
8.02122e-08
7.36179e-08
7.39259e-08
7.3837e-08
7.10301e-08
6.54513e-08
6.64963e-08
6.56991e-08
5.59153e-08
5.74176e-08
5.76459e-08
4.46744e-08
4.62488e-08
4.69405e-08
3.29698e-08
3.43468e-08
3.51724e-08
2.3617e-08
2.46819e-08
2.5441e-08
1.80639e-08
1.88538e-08
1.94771e-08
1.58892e-08
1.65097e-08
1.70143e-08
1.56137e-08
1.61393e-08
1.65547e-08
1.62268e-08
1.67005e-08
1.70518e-08
1.71625e-08
1.76107e-08
1.79206e-08
1.82418e-08
1.86887e-08
1.8983e-08
1.95385e-08
2.00084e-08
2.03132e-08
4.77668e-15
9.20618e-15
6.81668e-14
4.95326e-13
1.7536e-12
4.3118e-12
8.49847e-12
1.44295e-11
2.19841e-11
3.08414e-11
4.05447e-11
5.05583e-11
6.03259e-11
6.93195e-11
7.70701e-11
8.31733e-11
8.72891e-11
8.91672e-11
8.88994e-11
8.65273e-11
8.21403e-11
7.6069e-11
6.86269e-11
6.01704e-11
5.10933e-11
4.18003e-11
3.26899e-11
2.41471e-11
1.65538e-11
1.01847e-11
5.1943e-12
1.87359e-12
3.3472e-13
7.05465e-13
2.9462e-12
6.99675e-12
1.26952e-11
1.98796e-11
2.83694e-11
3.7929e-11
4.82959e-11
5.91927e-11
7.03407e-11
8.14597e-11
9.22697e-11
1.02503e-10
1.119e-10
1.20225e-10
1.27281e-10
1.32901e-10
1.36954e-10
1.39331e-10
1.39996e-10
1.38935e-10
1.36115e-10
1.31635e-10
1.25589e-10
1.18116e-10
1.09397e-10
9.96477e-11
8.91161e-11
7.80845e-11
6.68633e-11
5.57708e-11
4.51196e-11
3.52081e-11
2.63012e-11
1.86162e-11
1.23042e-11
7.42877e-12
3.95253e-12
1.72968e-12
5.34352e-13
8.54521e-14
6.07926e-14
1.63928e-13
2.06136e-13
1.52949e-13
6.50808e-14
1.09948e-14
4.40203e-15
2.07528e-14
1.41811e-13
6.65236e-13
1.97606e-12
4.4711e-12
8.43873e-12
1.3982e-11
2.09955e-11
2.9193e-11
3.81609e-11
4.74114e-11
5.64351e-11
6.47448e-11
7.19037e-11
7.75355e-11
8.13328e-11
8.30954e-11
8.28526e-11
8.06547e-11
7.66132e-11
7.10008e-11
6.41145e-11
5.62869e-11
4.78817e-11
3.92738e-11
3.08342e-11
2.29216e-11
1.58762e-11
9.9564e-12
5.34201e-12
2.26353e-12
8.46648e-13
1.18951e-12
3.27216e-12
7.03119e-12
1.23301e-11
1.90158e-11
2.69138e-11
3.58079e-11
4.54555e-11
5.55999e-11
6.59807e-11
7.63359e-11
8.64056e-11
9.59387e-11
1.04695e-10
1.12457e-10
1.19038e-10
1.24283e-10
1.28067e-10
1.30294e-10
1.30923e-10
1.29935e-10
1.2732e-10
1.23152e-10
1.17525e-10
1.10569e-10
1.02451e-10
9.33734e-11
8.35685e-11
7.32992e-11
6.28523e-11
5.2523e-11
4.26019e-11
3.33648e-11
2.50563e-11
1.78761e-11
1.19611e-11
7.36807e-12
4.06142e-12
1.91047e-12
7.09993e-13
2.02955e-13
1.02904e-13
1.48841e-13
1.70285e-13
1.19627e-13
5.44195e-14
4.50442e-14
8.17398e-14
1.24744e-13
2.95595e-13
9.07635e-13
2.38392e-12
4.97985e-12
8.89211e-12
1.41869e-11
2.07707e-11
2.83959e-11
3.66984e-11
4.52438e-11
5.35724e-11
6.12392e-11
6.78404e-11
7.30304e-11
7.65383e-11
7.81999e-11
7.79989e-11
7.59863e-11
7.22862e-11
6.71256e-11
6.07785e-11
5.35543e-11
4.57886e-11
3.78282e-11
3.00183e-11
2.26906e-11
1.61484e-11
1.06377e-11
6.35405e-12
3.48611e-12
2.14531e-12
2.44931e-12
4.41681e-12
7.92207e-12
1.2864e-11
1.91021e-11
2.64709e-11
3.47717e-11
4.37813e-11
5.32621e-11
6.29705e-11
7.26609e-11
8.20899e-11
9.10219e-11
9.92333e-11
1.06521e-10
1.12708e-10
1.17646e-10
1.21217e-10
1.23334e-10
1.23949e-10
1.23041e-10
1.20615e-10
1.16729e-10
1.11472e-10
1.04966e-10
9.73682e-11
8.88692e-11
7.96878e-11
7.00697e-11
6.02808e-11
5.05951e-11
4.12829e-11
3.25988e-11
2.47682e-11
1.79726e-11
1.23349e-11
7.90469e-12
4.6496e-12
2.45535e-12
1.14092e-12
4.8018e-13
2.37158e-13
1.74566e-13
1.39007e-13
9.68554e-14
8.5135e-14
9.40679e-14
6.04807e-13
6.56872e-13
8.64071e-13
1.43843e-12
2.85141e-12
5.45162e-12
9.44401e-12
1.46888e-11
2.10553e-11
2.83048e-11
3.61159e-11
4.41094e-11
5.18794e-11
5.90266e-11
6.51855e-11
7.00458e-11
7.33702e-11
7.50167e-11
7.49503e-11
7.32166e-11
6.9936e-11
6.53035e-11
5.95641e-11
5.29978e-11
4.59087e-11
3.86135e-11
3.14323e-11
2.46791e-11
1.8622e-11
1.34719e-11
9.42162e-12
6.77197e-12
5.52166e-12
5.75207e-12
7.48439e-12
1.06949e-11
1.52678e-11
2.1023e-11
2.78296e-11
3.55059e-11
4.3845e-11
5.26307e-11
6.16402e-11
7.06451e-11
7.94173e-11
8.77366e-11
9.5395e-11
1.02203e-10
1.07993e-10
1.12624e-10
1.15982e-10
1.17984e-10
1.18577e-10
1.17743e-10
1.15489e-10
1.11863e-10
1.06948e-10
1.00858e-10
9.37398e-11
8.57719e-11
7.71594e-11
6.8131e-11
5.89326e-11
4.98173e-11
4.10343e-11
3.28175e-11
2.53721e-11
1.88622e-11
1.33976e-11
9.02251e-12
5.71085e-12
3.36776e-12
1.8524e-12
9.78422e-13
5.18869e-13
2.79752e-13
1.46675e-13
8.74683e-14
7.8822e-14
8.70696e-14
2.03138e-12
2.03511e-12
2.24905e-12
2.78884e-12
4.00837e-12
6.40796e-12
1.02479e-11
1.54942e-11
2.19752e-11
2.92662e-11
3.70364e-11
4.49419e-11
5.26132e-11
5.96857e-11
6.5828e-11
7.07612e-11
7.42753e-11
7.62425e-11
7.66213e-11
7.54543e-11
7.28562e-11
6.8994e-11
6.40733e-11
5.83309e-11
5.20234e-11
4.54147e-11
3.87878e-11
3.2576e-11
2.70413e-11
2.23088e-11
1.85474e-11
1.59656e-11
1.46375e-11
1.46415e-11
1.59974e-11
1.86633e-11
2.25452e-11
2.75432e-11
3.36473e-11
4.05466e-11
4.80203e-11
5.59032e-11
6.4019e-11
7.21512e-11
8.00818e-11
8.76076e-11
9.45405e-11
1.00708e-10
1.05953e-10
1.10141e-10
1.1316e-10
1.14929e-10
1.15396e-10
1.14539e-10
1.12366e-10
1.08916e-10
1.04264e-10
9.85154e-11
9.18055e-11
8.42982e-11
7.61831e-11
6.76702e-11
5.89845e-11
5.03572e-11
4.20154e-11
3.41708e-11
2.70071e-11
2.06713e-11
1.52639e-11
1.08225e-11
7.34373e-12
4.78863e-12
2.99233e-12
1.79e-12
1.00972e-12
5.1532e-13
2.26058e-13
8.64888e-14
3.6207e-14
2.30368e-14
4.78622e-12
4.65072e-12
4.80656e-12
5.31763e-12
6.39474e-12
8.60789e-12
1.23719e-11
1.77953e-11
2.46803e-11
3.262e-11
4.12001e-11
5.00534e-11
5.87315e-11
6.6829e-11
7.40151e-11
8.00226e-11
8.4649e-11
8.77585e-11
8.9299e-11
8.93318e-11
8.80176e-11
8.54974e-11
8.19032e-11
7.74189e-11
7.22608e-11
6.66686e-11
6.09151e-11
5.53265e-11
5.01667e-11
4.56022e-11
4.18045e-11
3.89606e-11
3.71883e-11
3.6577e-11
3.71515e-11
3.88703e-11
4.1654e-11
4.54226e-11
5.01028e-11
5.55048e-11
6.14645e-11
6.78715e-11
7.46748e-11
8.1517e-11
8.81484e-11
9.44085e-11
1.00154e-10
1.05249e-10
1.0955e-10
1.12917e-10
1.1524e-10
1.16438e-10
1.16462e-10
1.15291e-10
1.12927e-10
1.09407e-10
1.04794e-10
9.91825e-11
9.26939e-11
8.54759e-11
7.76984e-11
6.95495e-11
6.12296e-11
5.29455e-11
4.49021e-11
3.7289e-11
3.02585e-11
2.39363e-11
1.84665e-11
1.3881e-11
1.01366e-11
7.17487e-12
4.88938e-12
3.17038e-12
1.92124e-12
1.06797e-12
5.41178e-13
2.55803e-13
1.23828e-13
7.44869e-14
9.19259e-12
8.80584e-12
8.8177e-12
9.27211e-12
1.03764e-11
1.25874e-11
1.66344e-11
2.28559e-11
3.11899e-11
4.12218e-11
5.23847e-11
6.41073e-11
7.58413e-11
8.71048e-11
9.75039e-11
1.0673e-10
1.14555e-10
1.20793e-10
1.25364e-10
1.28284e-10
1.29642e-10
1.29548e-10
1.28122e-10
1.25518e-10
1.21919e-10
1.17542e-10
1.1265e-10
1.07534e-10
1.02452e-10
9.76101e-11
9.32099e-11
8.94536e-11
8.65008e-11
8.44659e-11
8.33943e-11
8.32649e-11
8.40196e-11
8.55935e-11
8.7912e-11
9.08506e-11
9.42932e-11
9.81446e-11
1.023e-10
1.06548e-10
1.10697e-10
1.14608e-10
1.18177e-10
1.21348e-10
1.23947e-10
1.25755e-10
1.26652e-10
1.26575e-10
1.25491e-10
1.23382e-10
1.20253e-10
1.16134e-10
1.11081e-10
1.05174e-10
9.85174e-11
9.12398e-11
8.34868e-11
7.54172e-11
6.7198e-11
5.90034e-11
5.1026e-11
4.34849e-11
3.64859e-11
3.00955e-11
2.43801e-11
1.93563e-11
1.50003e-11
1.12794e-11
8.1624e-12
5.63869e-12
3.70782e-12
2.34482e-12
1.47291e-12
9.74694e-13
7.16504e-13
6.38168e-13
1.5466e-11
1.47049e-11
1.44795e-11
1.48313e-11
1.6021e-11
1.85858e-11
2.35136e-11
3.15708e-11
4.30008e-11
5.74852e-11
7.42944e-11
9.25356e-11
1.11332e-10
1.29921e-10
1.47689e-10
1.64168e-10
1.78991e-10
1.91843e-10
2.02566e-10
2.11104e-10
2.17482e-10
2.21765e-10
2.2405e-10
2.24466e-10
2.23184e-10
2.20425e-10
2.1645e-10
2.11557e-10
2.06032e-10
2.00143e-10
1.9415e-10
1.88308e-10
1.82836e-10
1.77899e-10
1.73591e-10
1.69938e-10
1.66926e-10
1.64525e-10
1.62691e-10
1.61357e-10
1.60457e-10
1.59929e-10
1.59689e-10
1.59606e-10
1.59551e-10
1.59418e-10
1.59123e-10
1.58582e-10
1.5767e-10
1.56242e-10
1.54194e-10
1.51462e-10
1.48011e-10
1.43818e-10
1.38879e-10
1.33218e-10
1.26876e-10
1.19915e-10
1.12422e-10
1.04506e-10
9.62884e-11
8.78996e-11
7.94739e-11
7.11487e-11
6.30606e-11
5.53313e-11
4.80256e-11
4.11675e-11
3.47613e-11
2.87951e-11
2.32666e-11
1.82189e-11
1.37538e-11
1.00088e-11
7.08913e-12
5.00277e-12
3.65258e-12
2.82071e-12
2.41348e-12
2.34519e-12
2.37416e-11
2.24782e-11
2.19236e-11
2.21338e-11
2.34965e-11
2.68171e-11
3.33657e-11
4.46303e-11
6.13876e-11
8.36309e-11
1.10565e-10
1.40881e-10
1.731e-10
2.05843e-10
2.3796e-10
2.68564e-10
2.96835e-10
3.22242e-10
3.44446e-10
3.63264e-10
3.78627e-10
3.90555e-10
3.99116e-10
4.04443e-10
4.06735e-10
4.06246e-10
4.03287e-10
3.98211e-10
3.91386e-10
3.83181e-10
3.73965e-10
3.64092e-10
3.53883e-10
3.43598e-10
3.33425e-10
3.23479e-10
3.1383e-10
3.04517e-10
2.95566e-10
2.86982e-10
2.78767e-10
2.70915e-10
2.63398e-10
2.56159e-10
2.49135e-10
2.42267e-10
2.355e-10
2.28771e-10
2.21993e-10
2.15069e-10
2.07923e-10
2.00501e-10
1.92776e-10
1.84716e-10
1.76314e-10
1.67581e-10
1.5855e-10
1.4927e-10
1.3981e-10
1.30254e-10
1.20693e-10
1.11222e-10
1.01929e-10
9.28901e-11
8.41585e-11
7.57504e-11
6.763e-11
5.97233e-11
5.19499e-11
4.42691e-11
3.67372e-11
2.95489e-11
2.30155e-11
1.74684e-11
1.31292e-11
1.00328e-11
7.94013e-12
6.66919e-12
6.10482e-12
6.13103e-12
3.41125e-11
3.22163e-11
3.12458e-11
3.12944e-11
3.29582e-11
3.74562e-11
4.66058e-11
6.28399e-11
8.7764e-11
1.21992e-10
1.64896e-10
2.14784e-10
2.69356e-10
3.262e-10
3.83141e-10
4.38293e-10
4.90017e-10
5.37251e-10
5.79268e-10
6.15656e-10
6.46175e-10
6.70774e-10
6.89551e-10
7.0269e-10
7.10467e-10
7.13237e-10
7.11432e-10
7.05543e-10
6.96098e-10
6.83641e-10
6.68719e-10
6.51864e-10
6.33565e-10
6.14249e-10
5.94261e-10
5.73872e-10
5.53292e-10
5.32689e-10
5.12202e-10
4.91948e-10
4.72026e-10
4.52517e-10
4.33478e-10
4.14939e-10
3.96913e-10
3.79403e-10
3.62402e-10
3.45885e-10
3.29809e-10
3.14122e-10
2.98775e-10
2.83737e-10
2.68996e-10
2.54509e-10
2.40265e-10
2.26272e-10
2.12554e-10
1.99148e-10
1.86107e-10
1.73489e-10
1.61353e-10
1.49746e-10
1.38691e-10
1.28171e-10
1.18114e-10
1.08381e-10
9.87653e-11
8.90289e-11
7.89733e-11
6.85392e-11
5.79004e-11
4.74906e-11
3.79119e-11
2.97449e-11
2.33581e-11
1.87699e-11
1.56334e-11
1.37966e-11
1.30908e-11
1.33651e-11