/*--------------------------------*- C++ -*----------------------------------*\
| =========                 |                                                 |
| \\      /  F ield         | OpenFOAM: The Open Source CFD Toolbox           |
|  \\    /   O peration     | Version:  v2012                                 |
|   \\  /    A nd           | Website:  www.openfoam.com                      |
|    \\/     M anipulation  |                                                 |
\*---------------------------------------------------------------------------*/
FoamFile
{
    version     2.0;
    format      ascii;
    class       volScalarField;
    location    "2000";
    object      omega;
}
// * * * * * * * * * * * * * * * * * * * * * * * * * * * * * * * * * * * * * //

dimensions      [0 0 -1 0 0 0 0];


internalField   nonuniform List<scalar> 
6502
(
16000.1
2524.92
658.159
225.435
113.574
113.567
225.418
658.134
2524.9
16000.1
16000.1
2916.18
963.042
405.322
223.628
223.608
405.277
962.986
2916.13
16000.1
16000
2881.79
1012.24
472.778
285.871
285.837
472.707
1012.16
2881.71
16000
16000
2820.12
996.604
487.975
312.901
312.855
487.874
996.47
2819.89
16000
16000
2696.36
962.004
483.079
321.172
321.112
482.948
961.843
2696.2
16000
16000
2667.21
941.912
475.233
321.632
321.554
475.055
941.695
2667.03
16000
16000
2657.01
931.192
468.907
319.618
319.507
468.652
930.875
2656.74
16000
16000
2652.64
925.593
464.656
317.337
317.176
464.276
925.113
2652.23
16000
16000
2650.81
922.684
461.999
315.467
315.228
461.43
921.96
2650.18
16000
16000
2650.02
919.857
459.879
313.916
313.604
459.078
918.865
2649.34
16000
16000
2648.68
903.425
455.748
312.109
311.701
454.64
901.726
2647.71
16000
16000
2648.21
895.837
452.851
310.572
310.022
451.381
893.942
2646.76
16000
16000
2648.46
894.037
451.565
309.569
308.781
449.454
891.382
2646.24
16000
16000
2649.1
894.025
450.892
308.865
307.675
447.651
890.061
2645.75
16000
16000
2650.07
894.329
447.368
307.672
305.801
441.79
888.296
2645.02
16000
16000
2651.47
895.307
445.312
306.807
304.18
438.022
886.437
2643.88
16000
16000
2653.39
897.228
445.615
306.786
303.065
435.476
884.161
2642
16000
16000
2655.92
900.107
447.503
307.592
302.185
432.757
880.47
2638.43
16000
16000
2659.07
903.88
450.512
308.913
300.649
427.507
871.363
2628.2
16000
16000
2662.58
908.218
454.102
309.863
295.84
411.262
831.148
2547.55
16000
16000
2665.88
912.459
457.442
308.885
282.313
357.103
601.044
1246.83
3198.32
16000
2668.26
915.741
459.786
306.119
265.02
300.318
423.209
669.754
1107.15
16000
2669.27
917.464
460.714
302.286
248.587
255.455
309.935
407.553
533.888
16000
2669.01
917.588
460.218
297.926
234.555
221.882
240.212
277.372
318.316
16000
2667.82
916.411
458.542
293.379
223.179
197.923
196.897
207.187
219.081
16000
2666.05
914.332
456.011
288.827
214.063
180.931
168.964
166.481
166.537
16000
2663.99
911.73
452.951
284.381
206.67
168.686
150.386
141.37
135.81
16000
2661.88
908.917
449.646
280.122
200.543
159.601
137.602
125.029
116.504
16000
2659.86
906.12
446.322
276.117
195.354
152.614
128.419
113.755
103.783
16000
2658.01
903.479
443.139
272.42
190.886
147.044
121.531
105.613
94.7637
16000
2656.35
901.073
440.198
269.062
187.001
142.468
116.154
99.4749
88.0828
16000
2654.92
898.937
437.553
266.057
183.61
138.625
111.813
94.6665
82.9382
16000
2653.69
897.076
435.221
263.402
180.648
135.347
108.214
90.7763
78.8411
16000
2652.65
895.473
433.192
261.078
178.065
132.527
105.173
87.5477
75.4851
16000
2651.78
894.106
431.445
259.056
175.815
130.084
102.568
84.8158
72.6735
16000
2651.07
892.952
429.945
257.287
173.847
127.955
100.313
82.4698
70.2761
16000
2650.52
891.982
428.638
255.672
172.089
126.076
98.3385
80.4299
68.2032
16000
2650.2
891.178
427.444
254.026
170.435
124.375
96.5849
78.6361
66.3908
16000
2649.91
890.475
426.26
252.023
168.767
122.792
95.0072
77.0454
64.7944
16000
2648.93
889.612
425.076
249.885
167.182
121.357
93.602
75.639
63.3871
16000
2648.16
888.855
424.223
248.789
166.04
120.185
92.4015
74.417
62.1554
16000
2648.09
888.444
423.718
248.429
165.293
119.272
91.4035
73.372
61.0876
16000
2647.99
888.133
423.302
248.054
164.682
118.522
90.5665
72.4818
60.1686
16000
2647.87
887.854
422.891
247.489
164.098
117.875
89.861
71.7323
59.3929
16000
2647.75
887.606
422.531
246.974
163.591
117.33
89.2719
71.1089
58.749
16000
2647.63
887.397
422.272
246.707
163.237
116.909
88.8046
70.6132
58.2413
16000
2647.52
887.228
422.147
246.805
163.088
116.641
88.4805
70.2689
57.9
16000
2647.42
887.097
422.154
247.307
163.153
116.542
88.331
70.124
57.7894
16000
2647.32
886.989
422.224
247.898
163.34
116.618
88.4148
70.2747
58.0357
16000
2647.22
886.903
422.32
248.155
163.59
116.939
88.877
70.9197
58.8811
16000
2647.14
886.936
422.832
248.671
164.214
117.796
90.0548
72.4588
60.7819
16000
2647.09
887.441
425.102
250.208
165.766
119.765
92.6186
75.6592
64.5814
16000
2647.27
889.536
432.203
253.761
169.121
123.936
97.8835
81.9952
71.8475
16000
2649.29
898.019
437.227
258.714
175.647
132.578
108.57
94.3988
85.5826
16000
2674.78
917.774
445.589
268.822
190.115
151.339
130.748
119.028
111.86
16000
2649.29
900.28
454.825
292.89
225.327
194.389
178.722
169.861
164.154
16000
2650.94
917.104
503.08
368.284
320.606
301.083
290.497
283.538
277.327
16000
2685.2
1042.81
703.79
621.126
608.938
603.127
592.038
582.825
579.648
16000
3127.76
1918.67
1763.92
1740.56
1738.18
1748.67
1735.99
1733.7
1733.06
16000
10485.3
10485.3
10485.3
10485.3
10485.3
10485.3
10485.3
10485.3
10485.3
10064.2
10064.2
10064.2
10064.2
10064.2
10064.2
10064.2
10064.2
10064.2
10064.2
10064.2
10064.2
10064.2
10064.2
10064.2
10064.2
10064.2
10064.2
10064.2
10064.2
10064.2
10064.2
10064.2
10064.2
13896.4
1761.1
1750.69
1733.13
1686.94
1672.17
1666.32
1665.02
1664.56
1664.04
1663.69
1663.51
1663.38
1663.3
1663.25
1663.31
1663.37
1663.43
1663.6
1664.15
1665.98
1673.2
1708.82
1921.25
3460.22
17728.5
646.685
644.012
630.612
607.871
590.392
570.865
563.071
559.73
558.326
557.308
556.499
555.968
555.664
555.531
555.618
555.929
556.645
558.383
562.815
574.903
611.095
734.912
1146.92
2972.22
17728.5
343.819
340.203
329.416
314.037
300.139
288.497
280.863
275.964
272.386
268.471
265.898
264.573
263.96
263.841
264.314
265.578
268.185
273.701
286.053
314.617
377.576
539.415
1011.05
2937.73
17728.5
223.785
218.897
209.975
198.992
188.195
178.939
171.815
166.548
162.596
159.491
157.324
156.097
155.603
155.802
157.005
159.61
164.612
174.167
192.781
230.123
308.269
487.207
988.695
2934.13
17728.5
164.394
158.802
151.176
142.77
134.281
126.593
120.169
115.047
111.062
108.036
105.9
104.634
104.284
105.015
107.075
111.128
118.456
131.516
155.099
199.02
285.397
472.452
983.69
2933.31
17728.5
130.7
124.726
117.956
110.934
104.1
97.7006
92.0588
87.3268
83.5144
80.5859
78.5283
77.378
77.2558
78.4156
81.3092
86.6612
95.8948
111.564
138.485
186.351
276.937
467.803
981.969
2932.77
17728.5
109.82
103.592
97.3555
91.2012
85.3382
79.9363
75.0674
70.8331
67.3255
64.5965
62.7041
61.7491
61.9139
63.5127
67.0659
73.4368
84.0497
101.463
130.425
180.473
273.161
465.72
980.924
2932.24
17728.5
96.1141
89.654
83.7207
78.1392
72.9257
68.1584
63.906
60.1936
57.0571
54.5985
52.9306
52.2079
52.6633
54.6574
58.7534
65.8469
77.4078
95.9541
126.152
177.417
271.14
464.488
980.058
2931.62
17728.5
86.6813
80.0396
74.2569
69.0472
64.2947
59.9897
56.1656
52.8642
50.1106
47.9521
46.5344
46.0509
46.7721
49.0924
53.6023
61.214
73.3985
92.6687
123.645
175.676
270.089
464.006
979.585
2931.3
17728.5
79.8046
73.1379
67.4455
62.4688
58.042
54.0874
50.5982
47.606
45.1584
43.2932
42.1222
41.8638
42.814
45.3903
50.2024
58.1752
70.7854
90.5468
122.089
174.792
270.056
465.128
979.536
2931.02
17728.5
74.533
67.9435
62.3688
57.5618
53.362
49.6709
46.449
43.7095
41.5017
39.8853
38.9332
38.8714
40.0095
42.7798
47.8056
56.0249
68.9286
89.0561
121.102
174.639
271.717
472.114
980.752
2930.91
17728.5
70.3603
63.833
58.4266
53.7821
49.7619
46.271
43.2607
40.7309
38.7239
37.3052
36.5325
36.6321
37.9175
40.8284
45.9975
54.3741
67.4652
87.8368
120.236
174.341
272.396
474.383
984.186
2932.08
17728.5
66.9637
60.4885
55.2222
50.7639
46.9104
43.5871
40.7497
38.3951
36.5621
35.2902
34.6575
34.8833
36.2786
39.2847
44.539
52.9991
66.1849
86.6867
119.307
173.885
273.229
479.717
1009.87
2956.09
17728.5
64.1336
57.7049
52.5474
48.2529
44.5771
41.41
38.7225
36.5162
34.8229
33.6638
33.14
33.4615
34.9339
37.9961
43.2859
51.7632
64.9506
85.4366
118.003
172.393
271.03
474.533
989.826
2932.01
17728.5
61.7309
55.3445
50.2744
46.1087
42.5945
39.5875
37.0392
34.9598
33.3762
32.3077
31.8689
32.2609
33.7823
36.8667
42.1489
50.5864
63.6973
84.0555
116.399
170.358
268.057
469.376
979.287
2929.62
17728.5
59.6603
53.3126
48.3148
44.2524
40.8674
38.0066
35.5947
33.6281
32.1324
31.1406
30.7691
31.2107
32.7563
35.8325
41.0682
49.4153
62.3833
82.5247
114.515
167.791
263.847
460.161
976.009
2928.86
17728.5
57.8555
51.5432
46.6063
42.6283
39.3472
36.6041
34.3137
32.4503
31.0325
30.1083
29.7899
30.2628
31.8093
34.8474
39.9976
48.204
60.9672
80.8242
112.414
165.081
260.057
456.672
974.373
2928.19
17728.5
56.2703
49.9901
45.1049
41.1966
38.0003
35.3521
33.1597
31.3864
30.0413
29.1761
28.8977
29.3839
30.9072
33.8744
38.8942
46.8982
59.3734
78.8385
109.902
161.844
255.67
453.938
972.74
2927.28
17728.5
54.874
48.6215
43.7796
39.9293
36.8028
34.2322
32.12
30.4221
29.141
28.3239
28.0714
28.5518
30.0252
32.8833
37.7166
45.4349
57.4961
76.3732
106.581
157.538
251.76
450.86
970.408
2925.76
17728.5
53.6474
47.4161
42.6094
38.8067
35.738
33.2318
31.1857
29.5504
28.3219
27.5407
27.2988
27.7526
29.1462
31.8506
36.4286
43.7531
55.2293
73.2441
102.582
152.933
246.826
445.931
966.011
2922.69
17728.5
52.5764
46.359
41.5796
37.8159
34.7951
32.3424
30.3514
28.7674
27.5801
26.8222
26.575
26.9803
28.262
30.7625
35.0044
41.8019
52.4723
69.5144
97.5809
146.27
238.051
434.825
953.513
2912.42
17728.5
51.6487
45.4394
40.6812
36.9495
33.9689
31.5613
29.6163
28.0741
26.9177
26.1711
25.9033
26.2388
27.3763
29.621
33.4389
39.5538
49.2355
64.7639
90.3515
134.768
218.806
401.151
893.839
2817.07
17728.5
50.8635
44.66
39.9196
36.2153
33.2693
30.9004
28.9942
27.4858
26.3515
25.6058
25.3044
25.5522
26.5189
28.4652
31.787
37.0952
45.5037
58.8232
80.2701
116.015
178.92
298.642
552.85
1183.51
3150.39
50.2137
44.0177
39.2952
35.6172
32.7036
30.3701
28.4984
27.0187
25.9003
25.1481
24.8035
24.9508
25.7282
27.3471
30.1233
34.5578
41.5112
52.2864
69.0274
95.4158
138.04
209.222
333.076
558.76
984.77
49.7082
43.5266
38.8274
35.1797
32.3007
30.0034
28.1657
26.7128
25.6073
24.8442
24.4513
24.4917
25.0719
26.3543
28.576
32.1221
37.6044
45.8858
58.2616
76.7026
104.214
145.323
206.557
296.109
418.807
49.3855
43.2332
38.5705
34.9637
32.1277
29.8724
28.0724
26.6484
25.5565
24.7828
24.3415
24.2763
24.6646
25.6245
27.325
30.0334
34.1674
40.2627
49.0466
61.4913
78.8395
102.536
133.899
173.147
216.964
49.3245
43.2297
38.628
35.0826
32.3058
30.1052
28.3525
26.9643
25.8913
25.1115
24.6275
24.4658
24.6788
25.3481
26.5896
28.5647
31.5501
35.8666
41.8995
50.0952
60.9127
74.7011
91.4477
110.327
129.042
49.6755
43.686
39.1859
35.7354
33.0447
30.9196
29.23
27.89
26.8459
26.0693
25.5534
25.3106
25.3731
25.7939
26.6486
28.0374
30.1014
33.0453
37.0665
42.3565
49.0559
57.1754
66.4751
76.3104
85.5102
50.7153
44.9054
40.5682
37.2616
34.695
32.6748
31.0706
29.7958
28.7947
28.0346
27.5016
27.1976
27.1396
27.3593
27.9035
28.8341
30.2288
32.1724
34.7723
38.1222
42.2449
47.0715
52.4016
57.8534
62.8597
52.9436
47.4191
43.328
40.2286
37.8339
35.9537
34.4608
33.2706
32.3283
31.5998
31.0668
30.7238
30.5771
30.6436
30.9505
31.534
32.4364
33.7035
35.3808
37.4969
40.0354
42.9199
46.0459
49.2161
52.1546
57.2538
52.1507
48.4049
45.5833
43.4095
41.7034
40.3447
39.2545
38.3835
37.6999
37.1834
36.8235
36.6185
36.5762
36.7135
37.051
37.61
38.411
39.4727
40.8038
42.3911
44.1927
46.1386
48.1211
50.0029
65.2576
60.7249
57.4199
54.9325
53.0131
51.5016
50.2858
49.2945
48.4954
47.8633
47.3765
47.0193
46.7798
46.663
46.6879
46.87
47.2144
47.7185
48.3919
49.2419
50.2646
51.4409
52.7324
54.0765
55.3939
79.9551
76.1048
73.2883
71.1346
69.4561
68.134
67.0419
66.1016
65.3465
64.761
64.3146
63.9839
63.7556
63.6262
63.5995
63.6818
63.8779
64.1919
64.6308
65.2022
65.9132
66.7669
67.7512
68.8052
69.84
107.295
104.086
101.695
99.718
98.1557
97.0124
96.141
95.444
94.8826
94.4346
94.0827
93.8149
93.624
93.5075
93.4666
93.5046
93.6255
93.8336
94.1338
94.5313
95.0294
95.6281
96.3191
97.08
97.8803
160.429
157.362
155.252
153.806
152.757
151.973
151.365
150.876
150.477
150.15
149.888
149.685
149.538
149.447
149.413
149.44
149.53
149.687
149.917
150.223
150.607
151.07
151.608
152.212
152.869
274.136
272.341
271.193
270.386
269.77
269.274
268.871
268.539
268.262
268.032
267.844
267.699
267.594
267.531
267.513
267.541
267.62
267.752
267.943
268.195
268.51
268.889
269.33
269.829
270.377
578.331
577.62
577.14
576.761
576.421
576.091
575.802
575.576
575.394
575.246
575.125
575.03
574.964
574.927
574.923
574.953
575.022
575.132
575.286
575.487
575.737
576.035
576.382
576.772
577.201
1732.76
1732.57
1732.42
1732.28
1732.11
1731.83
1731.55
1731.41
1731.33
1731.27
1731.22
1731.18
1731.15
1731.14
1731.14
1731.16
1731.21
1731.29
1731.39
1731.52
1731.68
1731.87
1732.09
1732.34
1732.61
10485.3
10485.3
10485.3
10485.3
10485.3
10485.3
10485.3
10485.3
10485.3
10485.3
10485.3
10485.3
10485.3
10485.3
10485.3
10485.3
10485.3
10485.3
10485.3
10485.3
10485.3
10485.3
10485.3
10485.3
10485.3
10485.3
10485.3
10485.3
1674.12
1734.88
1630.25
542.351
569.359
535.688
251.489
263.163
254.411
142.464
148.377
146.795
92.0394
95.5269
95.9293
66.5205
68.7987
69.6951
54.4174
56.0224
56.9897
51.542
52.7585
53.6754
56.5374
57.5236
58.3793
70.7683
71.6166
72.4184
98.6466
99.3843
100.122
153.521
154.166
154.831
270.928
271.477
272.051
577.633
578.061
578.509
1732.88
1733.14
1733.42
10485.3
10485.3
10485.3
13556.6
10064.2
10064.2
10064.2
10064.2
10064.2
10064.2
10064.2
10064.2
10064.2
10064.2
10064.2
10064.2
10064.2
10064.2
10064.2
10064.2
10064.2
10064.2
10064.2
10064.2
10064.2
10064.2
10064.2
10064.2
10064.2
10064.2
10064.2
10064.2
10064.2
10064.2
10064.2
10064.2
10064.2
10064.2
10064.2
10064.2
10064.2
10064.2
10064.2
10064.2
10064.2
10064.2
10064.2
10064.2
10064.2
10064.2
10064.2
10064.2
10064.2
10064.2
10064.2
10064.2
10064.2
10064.2
10064.2
10064.2
10064.2
10064.2
10064.2
10064.2
10064.2
10064.2
10064.2
10064.2
10064.2
10064.2
10064.2
10064.2
10064.2
10064.2
10064.2
10064.2
10064.2
10064.2
10064.2
10064.2
10064.2
10064.2
13556.6
17048.9
3365.05
1964.51
1713.29
1674.58
1667.45
1665.8
1665.31
1665.12
1665.02
1664.94
1664.86
1664.77
1664.68
1664.59
1664.49
1664.4
1664.3
1664.23
1664.18
1664.14
1664.1
1664.06
1664.03
1664
1663.97
1663.96
1663.95
1663.95
1664
1664.14
1664.63
1666.64
1665.44
1664.42
1664.08
1663.97
1663.93
1663.93
1663.94
1663.95
1663.97
1663.99
1664.01
1664.04
1664.06
1664.09
1664.12
1664.15
1664.18
1664.21
1664.24
1664.27
1664.33
1664.39
1664.45
1664.51
1664.57
1664.63
1664.68
1664.74
1664.79
1664.83
1664.87
1664.9
1664.93
1664.94
1664.95
1664.96
1664.96
1665
1665.15
1665.69
1667.51
1668.21
1672.82
1701.74
1884.8
3235.61
17048.9
17048.9
2861.18
1118.92
725.487
608.635
575.007
564.036
560.108
558.534
557.816
557.433
557.185
556.995
556.83
556.677
556.528
556.383
556.245
556.147
556.071
556.003
555.942
555.889
555.847
555.821
555.817
555.845
555.916
556.094
556.563
557.78
561.035
571.028
570.751
560.221
557.283
556.301
555.951
555.81
555.753
555.737
555.744
555.764
555.791
555.825
555.863
555.905
555.95
555.997
556.046
556.097
556.151
556.214
556.297
556.386
556.476
556.566
556.654
556.741
556.825
556.905
556.982
557.054
557.12
557.182
557.243
557.307
557.391
557.527
557.803
558.442
560.096
564.816
578.51
588.015
606.307
702.142
1079.31
2851.44
17048.9
17048.9
2823.89
974.037
523.076
370.101
311.458
284.698
273.619
268.614
266.212
264.964
264.245
263.781
263.45
263.192
262.976
262.789
262.627
262.514
262.424
262.347
262.282
262.234
262.218
262.256
262.381
262.623
262.968
263.576
265.063
268.488
270.477
272.507
272.315
269.736
266.389
264.025
263.051
262.523
262.232
262.088
262.022
261.994
261.991
262.008
262.04
262.083
262.132
262.187
262.246
262.31
262.381
262.461
262.559
262.664
262.772
262.881
262.99
263.099
263.206
263.312
263.418
263.526
263.639
263.764
263.917
264.127
264.452
265.008
266.056
268.149
272.552
280.651
293.085
316.266
371.425
521.876
972.105
2823.49
17048.9
17048.9
2819.89
949.303
468.573
297.865
224.333
189.579
172.101
162.526
157.606
154.937
153.367
152.381
151.728
151.273
150.942
150.696
150.52
150.41
150.336
150.274
150.223
150.203
150.249
150.426
150.858
151.695
152.474
153.039
153.782
154.833
155.653
156.212
156.111
155.317
154.216
153.228
152.4
151.215
150.447
150.065
149.855
149.701
149.601
149.555
149.55
149.57
149.604
149.648
149.701
149.766
149.841
149.93
150.036
150.151
150.273
150.398
150.526
150.656
150.791
150.932
151.083
151.252
151.451
151.701
152.039
152.538
153.322
154.606
156.866
160.71
166.269
175.86
193.396
228.282
303.918
483.502
977.429
2822.67
17048.9
17048.9
2819.2
943.951
452.453
272.866
191.312
150.38
128.562
116.387
109.423
105.262
102.572
100.822
99.6821
98.9293
98.428
98.1038
97.9289
97.8726
97.8751
97.8505
97.7899
97.7408
97.7356
97.8065
97.9874
98.2867
98.613
98.9267
99.2838
99.6868
100.018
100.207
100.159
99.8696
99.4418
98.992
98.5542
98.0885
97.7193
97.4532
97.1992
96.8046
96.5071
96.3495
96.2806
96.2564
96.2485
96.2525
96.2757
96.3211
96.3878
96.4749
96.5822
96.7035
96.8349
96.9745
97.1219
97.2785
97.4476
97.6355
97.8532
98.1178
98.4548
98.8999
99.511
100.421
101.837
103.793
106.609
111.062
118.299
130.74
153.114
195.458
280.899
470.854
973.13
2822.09
17048.9
17048.9
2819.02
942.46
447.184
261.37
177.035
132.678
107.846
93.347
84.6172
79.2001
75.7225
73.4325
71.8927
70.8348
70.0935
69.5678
69.2056
68.9567
68.7778
68.6322
68.5069
68.4083
68.3474
68.3355
68.3808
68.4796
68.6091
68.7544
68.9164
69.0833
69.2187
69.2885
69.2644
69.1457
68.9623
68.7519
68.5363
68.3242
68.1419
67.9929
67.8557
67.7087
67.5922
67.523
67.4891
67.4625
67.3977
67.3204
67.2817
67.2894
67.3362
67.4146
67.5197
67.6442
67.7841
67.9375
68.1054
68.2908
68.5
68.7447
69.0448
69.432
69.951
70.6385
71.4793
72.5912
74.1851
76.5156
80.0355
85.5559
94.4689
109.323
134.938
181.086
269.751
459.067
947.792
2819.68
17048.9
17048.9
2818.96
941.962
445.317
257.056
170.32
124.121
97.3854
81.1988
71.0792
64.5837
60.3108
57.4355
55.4585
54.0694
53.0723
52.3458
51.8138
51.4168
51.1126
50.8715
50.6768
50.5222
50.4068
50.3313
50.2956
50.2954
50.3221
50.3675
50.4255
50.4866
50.5357
50.5578
50.5422
50.4882
50.4052
50.3068
50.2045
50.1064
50.021
49.9508
49.8921
49.8421
49.8085
49.7959
49.8005
49.8131
49.824
49.8385
49.8698
49.9241
50.002
50.1023
50.2239
50.363
50.517
50.6862
50.8736
51.0839
51.3236
51.604
51.9446
52.3737
52.9298
53.6616
54.6346
55.977
57.8982
60.7193
64.9608
71.4852
81.745
98.2823
125.784
173.607
262.756
448.949
943.157
2819.09
17048.9
17048.9
2818.93
941.768
444.566
255.18
166.813
119.742
91.8739
74.5521
63.4129
56.061
51.1004
47.6853
45.2879
43.5719
42.3191
41.3945
40.7004
40.1699
39.7564
39.4282
39.1643
38.9522
38.7846
38.6566
38.564
38.5023
38.4658
38.449
38.4461
38.4506
38.4547
38.4513
38.4353
38.4057
38.3654
38.3196
38.2735
38.2318
38.1982
38.1745
38.1607
38.157
38.1651
38.186
38.2185
38.2596
38.3073
38.3628
38.4302
38.5125
38.6114
38.7278
38.8624
39.0137
39.1815
39.3669
39.5732
39.8063
40.075
40.393
40.7815
41.2709
41.9051
42.7468
43.8895
45.4803
47.7475
51.0424
55.9152
63.2461
74.481
92.0988
120.62
169.036
257.52
445.628
941.965
2818.88
17048.9
17048.9
2818.91
941.688
444.252
254.359
165.216
117.528
88.9294
70.8474
58.9845
50.986
45.4735
41.601
38.8316
36.8163
35.3268
34.2114
33.3623
32.7054
32.1888
31.7768
31.4446
31.1751
30.9568
30.7814
30.6425
30.5348
30.4531
30.3926
30.3486
30.3164
30.2912
30.2689
30.2464
30.2225
30.1979
30.1742
30.1537
30.1387
30.1308
30.1314
30.1408
30.1595
30.1881
30.2267
30.2749
30.332
30.3974
30.4719
30.5569
30.6541
30.7651
30.8914
31.0346
31.1948
31.3728
31.5711
31.7941
32.049
32.3465
32.7031
33.1425
33.6997
34.4249
35.3916
36.7078
38.5351
41.1159
44.8157
50.194
58.127
70.0338
88.3288
117.411
166.069
254.87
444.257
941.469
2818.75
17048.9
17048.9
2818.91
941.66
444.133
254.033
164.554
116.455
87.3816
68.7927
56.4265
47.9561
42.0205
37.7812
34.7012
32.4275
30.7275
29.4378
28.4444
27.6691
27.0552
26.5626
26.1629
25.836
25.5675
25.3469
25.1661
25.0188
24.8997
24.804
24.7275
24.6663
24.617
24.5766
24.5427
24.5141
24.4904
24.4718
24.4591
24.4531
24.4546
24.4642
24.4822
24.5091
24.5448
24.5897
24.6435
24.7062
24.7778
24.8587
24.9499
25.0526
25.1682
25.2985
25.4456
25.6103
25.7947
26.0023
26.2387
26.5124
26.8361
27.2286
27.7167
28.3395
29.1529
30.2378
31.7111
33.7435
36.5852
40.6069
46.3672
54.7301
67.0852
85.7914
115.151
163.772
253.368
443.492
941.141
2818.62
17048.9
17048.9
2818.9
941.66
444.121
253.98
164.418
116.032
86.6414
67.7128
55.0003
46.1935
39.9443
35.4222
32.0939
29.6087
27.7272
26.2849
25.1634
24.2794
23.5736
23.0031
22.5371
22.1531
21.8346
21.5695
21.3483
21.1638
21.0101
20.8824
20.7765
20.6888
20.6163
20.5563
20.507
20.4668
20.4348
20.4107
20.3944
20.3859
20.3856
20.3936
20.41
20.435
20.4687
20.5111
20.5624
20.6225
20.6918
20.7706
20.8599
20.9607
21.0744
21.2032
21.3491
21.5139
21.7003
21.9128
22.158
22.4459
22.7907
23.2133
23.7433
24.423
25.3127
26.4979
28.1013
30.2983
33.3428
37.6058
43.6409
52.2993
64.9462
83.8998
113.398
162.226
252.373
442.934
940.851
2818.48
17048.9
17048.9
2818.9
941.68
444.185
254.126
164.688
116.041
86.4132
67.2484
54.2976
45.2549
38.7796
34.0461
30.5274
27.8749
25.846
24.273
23.0373
22.0542
21.2624
20.6175
20.0869
19.6464
19.2781
18.9684
18.707
18.4857
18.2981
18.1391
18.0043
17.8901
17.7935
17.7121
17.6437
17.587
17.5406
17.5038
17.4763
17.4575
17.4475
17.4461
17.4533
17.4692
17.4937
17.5268
17.5689
17.6199
17.6803
17.7506
17.8316
17.9244
18.0303
18.1525
18.2924
18.4524
18.6359
18.8482
19.0969
19.3929
19.752
20.1966
20.7584
21.482
22.4307
23.693
25.3945
27.713
30.9029
35.3336
41.5533
50.4022
63.2275
82.3187
111.875
161.042
251.578
442.434
940.554
2818.33
17048.9
17048.9
2818.9
941.714
444.313
254.453
165.369
116.383
86.5428
67.2042
54.0895
44.8833
38.2508
33.3701
29.7122
26.9271
24.7754
23.0904
21.7539
20.6808
19.8091
19.0935
18.5002
18.0041
17.5861
17.2317
16.9297
16.6713
16.4497
16.259
16.0949
15.9534
15.8315
15.7265
15.6364
15.5595
15.4944
15.4401
15.396
15.3614
15.3361
15.3197
15.3121
15.3132
15.323
15.3417
15.3692
15.406
15.4523
15.5088
15.5763
15.656
15.7495
15.8599
15.9888
16.139
16.3145
16.5211
16.7671
17.0643
17.4296
17.8863
18.4678
19.2201
20.2079
21.5216
23.2876
25.6842
28.9648
33.496
39.821
48.7722
61.6854
80.8334
110.522
160.003
250.836
441.924
940.231
2818.17
17048.9
17048.9
2818.9
941.765
444.504
254.918
166.252
116.935
86.9273
67.4674
54.2499
44.9482
38.2141
33.2257
29.4585
26.5656
24.3106
22.5285
21.102
19.9465
19.0002
18.217
17.5629
17.012
16.5446
16.1454
15.8027
15.507
15.2509
15.0283
14.8343
14.6648
14.5164
14.3865
14.2727
14.1732
14.0865
14.0115
13.9472
13.893
13.8484
13.813
13.7865
13.7689
13.7601
13.7601
13.7691
13.7874
13.8155
13.854
13.9038
13.9662
14.043
14.1371
14.2504
14.3861
14.5484
14.7436
14.9805
15.2716
15.6341
16.0925
16.6804
17.4449
18.4511
19.7896
21.5864
24.0185
27.3367
31.9036
38.2575
47.223
60.1452
79.3466
109.222
158.974
250.056
441.359
939.877
2818.04
17048.9
17048.9
2818.91
941.856
444.788
255.512
166.952
117.575
87.5114
68.0156
54.7505
45.385
38.5739
33.4994
29.6413
26.6562
24.3104
22.4409
20.9319
19.6994
18.682
17.8338
17.1204
16.5156
15.9993
15.5558
15.1726
14.8399
14.5496
14.2951
14.0713
13.8736
13.6984
13.5428
13.4043
13.2809
13.171
13.0733
12.9867
12.9106
12.8442
12.7871
12.7391
12.6999
12.6696
12.6481
12.6356
12.6324
12.6391
12.6563
12.6851
12.7268
12.7832
12.8572
12.9509
13.0675
13.2117
13.39
13.6115
13.8889
14.2398
14.6889
15.27
16.0301
17.0339
18.371
20.1657
22.5918
25.8953
30.4303
36.7471
45.6869
58.6088
77.8684
107.893
157.854
249.154
440.691
939.527
2818.14
17048.9
17048.9
2818.92
942.027
445.304
256.6
167.899
118.487
88.4116
68.8868
55.5785
46.1533
39.2706
34.1164
30.174
27.1029
24.6717
22.7194
21.1315
19.8248
18.7385
17.8268
17.0555
16.3981
15.8341
15.3473
14.925
14.5564
14.233
13.9478
13.695
13.4699
13.2684
13.0875
12.9243
12.7768
12.6431
12.5219
12.4121
12.3128
12.2233
12.1432
12.072
12.0097
11.9561
11.9112
11.8753
11.8486
11.8317
11.8254
11.8306
11.8488
11.8821
11.9328
12.0033
12.0971
12.2188
12.3751
12.5751
12.8317
13.1625
13.5918
14.1532
14.8928
15.8743
17.1851
18.9464
21.3269
24.5722
29.057
35.3254
44.2185
57.1075
76.3704
106.459
156.544
248.015
439.818
939.33
2820.82
17048.9
17048.9
2819
942.377
446.288
258.918
169.547
119.898
89.7129
70.1126
56.7293
47.2251
40.2588
35.0179
30.9873
27.8285
25.3116
23.2769
21.6107
20.2308
19.0767
18.1032
17.2756
16.5675
15.9579
15.4305
14.9716
14.57
14.2162
13.9026
13.6231
13.3724
13.1463
12.9412
12.7543
12.5833
12.4264
12.2819
12.1488
12.0262
11.9133
11.8097
11.7149
11.6287
11.5511
11.482
11.4216
11.3703
11.3285
11.2971
11.2772
11.2701
11.2781
11.3032
11.3478
11.4155
11.511
11.6408
11.814
12.0433
12.346
12.7458
13.2755
13.9799
14.9206
16.1821
17.8814
20.1905
23.3685
27.779
33.9643
42.7685
55.5709
74.7654
104.825
154.933
246.457
438.265
937.448
2816.71
17048.9
17048.9
2819.15
942.982
447.948
262.081
171.838
121.821
91.4316
71.6811
58.1726
48.5553
41.4828
36.1403
32.0124
28.7603
26.1546
24.0361
22.2914
20.8389
19.6185
18.5854
17.7047
16.9494
16.2983
15.7348
15.2446
14.8148
14.4351
14.0971
13.7943
13.5212
13.2731
13.0462
12.8376
12.6446
12.4655
12.2987
12.1431
11.9978
11.862
11.7353
11.6171
11.5072
11.4056
11.3122
11.2272
11.1509
11.0838
11.0268
10.9808
10.9475
10.9288
10.9267
10.9435
10.9827
11.0489
11.1485
11.2904
11.4868
11.7544
12.1162
12.6034
13.2592
14.1425
15.3343
16.9514
19.1767
22.2579
26.5543
32.6067
41.2604
53.9005
72.9337
102.857
152.894
244.441
436.336
935.596
2814.79
17048.9
17048.9
2819.56
944.567
451.879
265.474
174.623
124.167
93.4672
73.4925
59.8104
50.0496
42.8522
37.3976
33.1667
29.819
27.1241
24.9225
23.1025
21.5836
20.3053
19.2215
18.2964
17.5019
16.8157
16.2202
15.701
15.2463
14.8447
14.487
14.1657
13.8745
13.6082
13.3626
13.1346
12.9217
12.7222
12.5346
12.3578
12.191
12.0334
11.8844
11.7437
11.611
11.4861
11.369
11.2598
11.1589
11.0668
10.9842
10.9122
10.8523
10.8064
10.7762
10.764
10.773
10.8078
10.8745
10.9814
11.1404
11.3671
11.6834
12.119
12.7145
13.5258
14.6299
16.1533
18.2679
21.2146
25.3472
31.2016
39.6194
51.9857
70.7141
100.323
150.086
241.49
433.485
933.171
2813.29
17048.9
17048.9
2821.07
950.654
462.637
270.697
177.899
126.608
95.4904
75.2703
61.4204
51.5292
44.2212
38.6676
34.3457
30.9133
28.1413
25.8724
23.9949
22.4266
21.1057
19.9848
19.0272
18.204
17.4921
16.8735
16.3333
15.8586
15.4381
15.0623
14.7235
14.415
14.1314
13.8684
13.6225
13.3914
13.1731
12.9663
12.7699
12.5831
12.4051
12.2354
12.0735
11.9192
11.7722
11.6325
11.5002
11.3756
11.2592
11.1517
11.0542
10.9682
10.8952
10.8368
10.795
10.7731
10.7751
10.8069
10.8763
10.9943
11.1757
11.4407
11.817
12.3425
13.0691
14.0755
15.4841
17.4571
20.2268
24.1369
29.7106
37.7755
49.7013
67.8886
96.8558
145.912
236.668
428.356
928.483
2810.12
17048.9
17048.9
2826.45
972.913
468.693
272.848
179.113
127.677
96.5975
76.4301
62.6067
52.7138
45.3829
39.7926
35.4274
31.952
29.1409
26.8378
24.9302
23.3356
21.9916
20.8505
19.8752
19.0364
18.3109
17.6802
17.1279
16.6403
16.2062
15.8161
15.462
15.1375
14.8371
14.5569
14.2936
14.0449
13.809
13.5844
13.3701
13.165
12.9683
12.7796
12.5982
12.4238
12.2562
12.0954
11.9413
11.7943
11.6548
11.5235
11.4015
11.2904
11.1909
11.1047
11.0336
10.9805
10.9493
10.9452
10.9755
11.0503
11.1831
11.3925
11.704
12.1522
12.7846
13.6807
14.9528
16.753
19.3006
22.9215
28.1145
35.6713
46.9103
64.1588
91.8349
139.135
227.622
416.808
915.414
2799.3
17048.9
17048.9
2770.31
920.932
443.201
260.321
172.896
124.708
95.3658
76.1516
62.8603
53.2674
46.1063
40.6127
36.3032
32.8605
30.069
27.7774
25.8766
24.2859
22.9442
21.8048
20.8308
19.9933
19.269
18.6373
18.0814
17.5878
17.145
16.7438
16.3767
16.0377
15.7222
15.4266
15.148
14.884
14.6327
14.3926
14.1623
13.941
13.7276
13.5217
13.3225
13.1299
12.9434
12.7631
12.5889
12.421
12.26
12.1064
11.9613
11.8262
11.7014
11.5883
11.4887
11.4049
11.3406
11.3004
11.2909
11.3212
11.4036
11.5548
11.7978
12.1639
12.6961
13.4689
14.5847
16.1827
18.4639
21.7268
26.4275
33.2888
43.5108
59.2065
84.3871
127.44
208.297
383.295
856.183
2704.32
17048.9
3060.3
1176.5
578.311
335.377
218.064
153.976
115.544
90.7591
73.8566
61.8217
52.953
46.2314
41.0176
36.8945
33.5812
30.8828
28.6604
26.8127
25.2638
23.9562
22.8455
21.8964
21.0795
20.3696
19.7467
19.1943
18.6994
18.2515
17.8426
17.4662
17.1171
16.7909
16.4842
16.194
15.9179
15.6541
15.401
15.1572
14.9218
14.6938
14.4726
14.2577
14.0487
13.8453
13.6473
13.4547
13.2679
13.0871
12.913
12.7468
12.5893
12.4408
12.3024
12.1755
12.0624
11.966
11.8905
11.8419
11.8281
11.86
11.9525
12.1261
12.4084
12.8377
13.4789
14.4247
15.799
17.7793
20.6274
24.7388
30.7305
39.6035
53.0616
74.1784
108.897
169.703
285.588
533.016
1151.79
3102.19
970.349
572.872
362.058
244.798
175.501
132.152
103.628
84.0017
69.9757
59.634
51.8105
45.7635
41.0037
37.1986
34.116
31.5902
29.5004
27.7569
26.2921
25.0533
24.0016
23.0991
22.3165
21.6305
21.0229
20.4796
19.9895
19.5435
19.1341
18.7554
18.4022
18.0705
17.757
17.4589
17.174
16.9005
16.6369
16.3819
16.1345
15.8939
15.6596
15.4308
15.2073
14.9886
14.7748
14.5658
14.3617
14.163
13.9704
13.7851
13.6071
13.4367
13.2747
13.1224
12.9814
12.8545
12.7453
12.6588
12.6021
12.5846
12.6195
12.7245
12.9239
13.251
13.7577
14.5263
15.6644
17.3227
19.7203
23.1812
28.1975
35.5362
46.4329
62.9521
88.6825
130.127
199.592
321.399
545.584
973.425
423.075
314.844
234.544
178.091
138.659
110.81
90.7888
76.0767
65.0357
56.5875
50.012
44.817
40.6587
37.2915
34.5368
32.2626
30.3695
28.7829
27.4464
26.3124
25.3395
24.4963
23.7587
23.1074
22.5268
22.0043
21.5297
21.0946
20.6924
20.3175
19.9654
19.6326
19.3159
19.0131
18.7221
18.4413
18.1692
17.9049
17.6474
17.396
17.1501
16.909
16.6726
16.4404
16.2123
15.9883
15.7686
15.5537
15.3442
15.1414
14.9446
14.754
14.5701
14.3937