/*--------------------------------*- C++ -*----------------------------------*\
| =========                 |                                                 |
| \\      /  F ield         | OpenFOAM: The Open Source CFD Toolbox           |
|  \\    /   O peration     | Version:  v2012                                 |
|   \\  /    A nd           | Website:  www.openfoam.com                      |
|    \\/     M anipulation  |                                                 |
\*---------------------------------------------------------------------------*/
FoamFile
{
    version     2.0;
    format      ascii;
    class       surfaceScalarField;
    location    "2000";
    object      phi;
}
// * * * * * * * * * * * * * * * * * * * * * * * * * * * * * * * * * * * * * //

dimensions      [0 3 -1 0 0 0 0];
oriented        oriented;


internalField   nonuniform List<scalar> 
12722
(
5.49683e-05
0.000145032
4.64583e-05
0.00020851
2.83575e-05
0.000218101
1.28666e-05
0.000215491
9.48676e-09
0.000212857
-1.28484e-05
0.000212858
-2.83406e-05
0.000215492
-4.64467e-05
0.000218106
-5.49648e-05
0.000208518
0.000145035
4.24753e-05
0.000102556
5.44559e-05
0.000196529
4.34648e-05
0.000229092
2.29727e-05
0.000235983
2.83999e-08
0.000235801
-2.29196e-05
0.000235806
-4.34228e-05
0.000235995
-5.44294e-05
0.000229112
-4.24656e-05
0.000196554
0.00010257
2.27893e-05
7.97669e-05
3.92193e-05
0.000180099
3.68092e-05
0.000231502
2.13741e-05
0.000251418
4.8809e-08
0.000257126
-2.12847e-05
0.000257139
-3.6742e-05
0.000251452
-3.91814e-05
0.000231552
-2.27773e-05
0.00018015
7.97923e-05
1.13865e-05
6.83803e-05
2.35573e-05
0.000167928
2.53119e-05
0.000229747
1.58312e-05
0.000260898
7.25893e-08
0.000272885
-1.56999e-05
0.000272911
-2.52154e-05
0.000260968
-2.35034e-05
0.00022984
-1.13693e-05
0.000168016
6.8423e-05
5.5241e-06
6.28562e-05
1.3015e-05
0.000160437
1.5375e-05
0.000227387
1.02507e-05
0.000266022
9.28255e-08
0.000283043
-1.0078e-05
0.000283082
-1.52446e-05
0.000266134
-1.29408e-05
0.000227536
-5.50061e-06
0.000160575
6.29224e-05
2.54577e-06
6.03103e-05
6.67673e-06
0.000156306
8.48667e-06
0.000225577
5.91174e-06
0.000268597
1.26357e-07
0.000288828
-5.67683e-06
0.000288885
-8.30525e-06
0.000268762
-6.5727e-06
0.000225803
-2.51305e-06
0.000156516
6.04093e-05
1.10118e-06
5.92091e-05
3.19855e-06
0.000154208
4.33385e-06
0.000224441
3.1215e-06
0.000269809
1.89044e-07
0.00029176
-2.77565e-06
0.00029185
-4.06961e-06
0.000270056
-3.04626e-06
0.000224779
-1.05267e-06
0.000154522
5.93567e-05
4.3822e-07
5.87708e-05
1.43927e-06
0.000153207
2.09328e-06
0.000223787
1.62276e-06
0.00027028
2.75017e-07
0.000293108
-1.11104e-06
0.000293236
-1.69784e-06
0.000270643
-1.2087e-06
0.00022429
-3.62884e-07
0.000153676
5.89938e-05
1.71202e-07
5.85995e-05
6.59706e-07
0.000152718
1.0677e-06
0.000223379
9.86654e-07
0.000270361
4.2857e-07
0.000293666
-1.91394e-07
0.000293855
-4.56962e-07
0.000270908
-3.0421e-07
0.000224137
-5.48377e-08
0.000153426
5.89389e-05
9.70826e-08
5.85024e-05
4.04056e-07
0.000152411
7.34375e-07
0.000223049
8.57966e-07
0.000270237
6.76665e-07
0.000293847
3.89817e-07
0.000294142
2.12902e-07
0.000271085
1.42621e-07
0.000224207
7.97214e-08
0.000153489
5.90186e-05
1.11694e-07
5.83906e-05
4.13554e-07
0.000152109
7.7135e-07
0.000222691
1.01793e-06
0.00026999
1.02572e-06
0.000293839
8.74673e-07
0.000294293
6.67087e-07
0.000271293
4.1657e-07
0.000224458
1.56286e-07
0.000153749
5.91749e-05
1.71619e-07
5.8219e-05
5.72835e-07
0.000151708
1.04117e-06
0.000222222
1.40536e-06
0.000269626
1.5297e-06
0.000293715
1.42158e-06
0.000294401
1.11612e-06
0.000271598
6.75884e-07
0.000224898
2.32921e-07
0.000154192
5.94078e-05
2.66917e-07
5.7952e-05
8.53948e-07
0.000151121
1.52312e-06
0.000221553
2.05419e-06
0.000269095
2.28624e-06
0.000293482
2.17406e-06
0.000294513
1.71267e-06
0.000272059
1.02527e-06
0.000225585
3.4456e-07
0.000154873
5.97524e-05
4.03892e-07
5.75481e-05
1.2754e-06
0.000150249
2.26175e-06
0.000220567
3.05406e-06
0.000268302
3.43351e-06
0.000293103
3.29893e-06
0.000294648
2.61279e-06
0.000272746
1.56876e-06
0.000226629
5.2872e-07
0.000155913
6.02811e-05
5.9696e-07
5.69511e-05
1.88222e-06
0.000148964
3.3458e-06
0.000219103
4.54893e-06
0.000267099
5.1718e-06
0.00029248
5.02436e-06
0.000294795
4.02575e-06
0.000273744
2.45375e-06
0.000228201
8.45871e-07
0.000157521
6.1127e-05
8.63819e-07
5.60873e-05
2.7327e-06
0.000147095
4.88994e-06
0.000216946
6.71923e-06
0.00026527
7.74587e-06
0.000291453
7.64645e-06
0.000294894
6.26141e-06
0.000275129
3.9303e-06
0.000230532
1.41812e-06
0.000160033
6.25451e-05
1.22201e-06
5.48652e-05
3.88896e-06
0.000144428
7.02271e-06
0.000213812
9.77295e-06
0.00026252
1.14491e-05
0.000289777
1.15697e-05
0.000294774
9.83126e-06
0.000276868
6.47673e-06
0.000233887
2.51837e-06
0.000163992
6.50635e-05
1.68821e-06
5.3177e-05
5.41565e-06
0.000140701
9.89993e-06
0.000209328
1.40126e-05
0.000258407
1.67584e-05
0.000287031
1.74736e-05
0.000294059
1.56886e-05
0.000278653
1.11004e-05
0.000238475
4.73598e-06
0.000170356
6.97995e-05
2.26741e-06
5.09096e-05
7.34472e-06
0.000135623
1.36477e-05
0.000203025
1.98001e-05
0.000252255
2.44985e-05
0.000282333
2.67279e-05
0.000291829
2.57046e-05
0.000279676
2.02161e-05
0.000243964
1.00383e-05
0.000180534
7.98378e-05
2.91018e-06
4.79994e-05
9.5387e-06
0.000128995
1.805e-05
0.000194513
2.6898e-05
0.000243407
3.47498e-05
0.000274481
4.03716e-05
0.000286208
4.2634e-05
0.000277413
3.97403e-05
0.000246858
2.86244e-05
0.00019165
0.000108462
3.54186e-06
4.44575e-05
1.17752e-05
0.000120761
2.26957e-05
0.000183593
3.46836e-05
0.000231419
4.65242e-05
0.00026264
5.71857e-05
0.000275546
6.58618e-05
0.000268737
7.17042e-05
0.000241015
7.25643e-05
0.00019079
0.00012
6.1027e-05
3.96905e-06
4.04884e-05
1.34125e-05
0.000111318
2.62797e-05
0.000170725
4.08917e-05
0.000216807
5.59026e-05
0.000247629
7.00711e-05
0.000261377
8.21771e-05
0.000256631
9.05695e-05
0.000232623
9.12496e-05
0.00019011
0.00013401
7.72387e-05
4.13725e-06
3.63512e-05
1.42347e-05
0.00010122
2.82914e-05
0.000156669
4.45557e-05
0.000200542
6.14657e-05
0.000230719
7.74772e-05
0.000245366
9.08807e-05
0.000243228
9.94151e-05
0.000224088
9.97444e-05
0.00018978
0.000145201
8.85538e-05
4.07438e-06
3.22768e-05
1.42764e-05
9.10181e-05
2.87515e-05
0.000142194
4.57389e-05
0.000183555
6.35286e-05
0.00021293
8.03654e-05
0.000228529
9.4318e-05
0.000229275
0.000103118
0.000215288
0.000104311
0.000188587
0.000153356
9.61552e-05
3.8486e-06
2.84281e-05
1.37215e-05
8.11451e-05
2.79772e-05
0.000127938
4.49299e-05
0.000166602
6.28293e-05
0.00019503
7.98309e-05
0.000211527
9.39554e-05
0.00021515
0.000103138
0.000206105
0.000105701
0.000186025
0.000158481
0.000100576
3.52445e-06
2.49036e-05
1.27704e-05
7.1899e-05
2.63397e-05
0.000114368
4.26909e-05
0.000150251
6.01401e-05
0.000177581
7.68869e-05
0.00019478
9.10661e-05
0.000200971
0.000100896
0.000196275
0.000104927
0.000181994
0.000160857
0.000102551
3.15512e-06
2.17485e-05
1.16033e-05
6.34507e-05
2.41916e-05
0.00010178
3.95665e-05
0.000134876
5.61888e-05
0.000160958
7.23917e-05
0.000178577
8.64796e-05
0.000186883
9.68935e-05
0.000185861
0.000102414
0.000176474
0.000160679
0.000102591
2.77975e-06
1.89687e-05
1.03619e-05
5.58684e-05
2.18207e-05
9.03211e-05
3.60067e-05
0.00012069
5.15676e-05
0.000145398
6.70158e-05
0.000163129
8.08414e-05
0.000173058
9.16678e-05
0.000175035
9.84514e-05
0.00016969
0.00015837
0.000100761
2.42329e-06
1.65454e-05
9.143e-06
4.91486e-05
1.94322e-05
8.00318e-05
3.23406e-05
0.000107781
4.6715e-05
0.000131023
6.12652e-05
0.000148578
7.46709e-05
0.000159652
8.57248e-05
0.000163981
9.35035e-05
0.000161911
0.000154345
9.75283e-05
2.0987e-06
1.44466e-05
8.00416e-06
4.3243e-05
1.71564e-05
7.08795e-05
2.87856e-05
9.6152e-05
4.1931e-05
0.000117878
5.5497e-05
0.000135012
6.83469e-05
0.000146802
7.94244e-05
0.000152903
8.78875e-05
0.000153448
0.000149017
9.3216e-05
1.80982e-06
1.26368e-05
6.97425e-06
3.80785e-05
1.50659e-05
6.27878e-05
2.5471e-05
8.57468e-05
3.7403e-05
0.000105946
4.99466e-05
0.000122469
6.21348e-05
0.000134614
7.30475e-05
0.000141991
8.19172e-05
0.000144578
0.000142719
8.82149e-05
1.56036e-06
1.10764e-05
6.06541e-06
3.35733e-05
1.31939e-05
5.56592e-05
2.24627e-05
7.64779e-05
3.32356e-05
9.51725e-05
4.47574e-05
0.000110947
5.62133e-05
0.000123158
6.68075e-05
0.000131396
7.58468e-05
0.000135539
0.000135754
8.2812e-05
1.34854e-06
9.72785e-06
5.27645e-06
2.96453e-05
1.1547e-05
4.93885e-05
1.97833e-05
6.82415e-05
2.94757e-05
8.54801e-05
4.0006e-05
0.000100416
5.06935e-05
0.00011247
6.08552e-05
0.000121235
6.98721e-05
0.000126522
0.000128377
7.72487e-05
1.16856e-06
8.55926e-06
4.59839e-06
2.62154e-05
1.01159e-05
4.38709e-05
1.74291e-05
6.09282e-05
2.61322e-05
7.6777e-05
3.57227e-05
9.08258e-05
4.56358e-05
0.000102557
5.52894e-05
0.000111581
6.41373e-05
0.000117674
0.000120797
7.17172e-05
1.0183e-06
7.54093e-06
4.02147e-06
2.32121e-05
8.88434e-06
3.90079e-05
1.53813e-05
5.44311e-05
2.31908e-05
6.89674e-05
3.19068e-05
8.21097e-05
4.10629e-05
9.34009e-05
5.01666e-05
0.000102477
5.87405e-05
0.0001091
0.000113176
6.63616e-05
8.95641e-07
6.64527e-06
3.53528e-06
2.05724e-05
7.83237e-06
3.47108e-05
1.3613e-05
4.86504e-05
2.06236e-05
6.19567e-05
2.85373e-05
7.41959e-05
3.69708e-05
8.49673e-05
4.551e-05
9.39379e-05
5.37412e-05
0.000100869
0.000105634
6.12831e-05
7.96019e-07
5.84924e-06
3.12846e-06
1.82399e-05
6.93773e-06
3.09014e-05
1.20926e-05
4.34954e-05
1.8394e-05
5.56553e-05
2.55801e-05
6.70097e-05
3.33372e-05
7.72101e-05
4.13184e-05
8.59566e-05
4.91678e-05
9.30196e-05
9.82559e-05
5.6546e-05
7.21078e-07
5.12815e-06
2.78727e-06
1.61737e-05
6.17512e-06
2.75135e-05
1.07844e-05
3.8886e-05
1.64599e-05
4.99798e-05
2.29929e-05
6.04766e-05
3.01271e-05
7.00758e-05
3.75726e-05
7.8511e-05
4.50249e-05
8.55673e-05
9.1096e-05
5.21848e-05
6.0239e-07
4.52573e-06
2.47347e-06
1.43025e-05
5.50737e-06
2.44795e-05
9.64578e-06
3.47476e-05
1.47751e-05
4.48504e-05
2.07293e-05
5.45223e-05
2.72989e-05
6.35062e-05
3.42422e-05
7.15677e-05
4.12998e-05
7.85096e-05
8.41852e-05
4.82106e-05
5.11182e-07
4.01451e-06
2.17283e-06
1.26408e-05
4.8988e-06
2.17535e-05
8.63684e-06
3.10095e-05
1.32972e-05
4.019e-05
1.87454e-05
4.9074e-05
2.48103e-05
5.74413e-05
3.12912e-05
6.50867e-05
3.79689e-05
7.18319e-05
7.75368e-05
4.46173e-05
4.92474e-07
3.522e-06
1.92168e-06
1.12115e-05
4.36403e-06
1.93111e-05
7.75449e-06
2.76189e-05
1.20079e-05
3.59366e-05
1.70121e-05
4.40696e-05
2.26267e-05
5.18267e-05
2.86855e-05
5.90278e-05
3.5004e-05
6.55133e-05
7.11528e-05
4.1388e-05
4.25255e-07
3.0967e-06
1.7199e-06
9.91674e-06
3.92779e-06
1.71031e-05
7.01121e-06
2.45354e-05
1.09026e-05
3.20451e-05
1.55107e-05
3.94615e-05
2.072e-05
4.66173e-05
2.63928e-05
5.33549e-05
3.23742e-05
5.95319e-05
6.50286e-05
3.84984e-05
3.72175e-07
2.72448e-06
1.56557e-06
8.72322e-06
3.57775e-06
1.50909e-05
6.39201e-06
2.17211e-05
9.96184e-06
2.84752e-05
1.42155e-05
3.52077e-05
1.90592e-05
4.17736e-05
2.4379e-05
4.8035e-05
3.00453e-05
5.38655e-05
5.91565e-05
3.59174e-05
3.39451e-07
2.38498e-06
1.41359e-06
7.64896e-06
3.22135e-06
1.3283e-05
5.75348e-06
1.91889e-05
8.97775e-06
2.52509e-05
1.284e-05
3.13453e-05
1.72664e-05
3.73471e-05
2.21658e-05
4.31355e-05
2.74324e-05
4.85988e-05
5.36388e-05
3.295e-05
3.17865e-07
2.06707e-06
1.30993e-06
6.65676e-06
2.97844e-06
1.16144e-05
5.31796e-06
1.68492e-05
8.30534e-06
2.22634e-05
1.18993e-05
2.77513e-05
1.60414e-05
3.32049e-05
2.06578e-05
3.8519e-05
2.56615e-05
4.35951e-05
4.83451e-05
3.09551e-05
2.98298e-07
1.76872e-06
1.21813e-06
5.73678e-06
2.76489e-06
1.00675e-05
4.93541e-06
1.46786e-05
7.71321e-06
1.94855e-05
1.10672e-05
2.43972e-05
1.49518e-05
2.93202e-05
1.9308e-05
3.41627e-05
2.40651e-05
3.88379e-05
4.32674e-05
2.91427e-05
2.79575e-07
1.48909e-06
1.13543e-06
4.88076e-06
2.57373e-06
8.62905e-06
4.59326e-06
1.26589e-05
7.1827e-06
1.68959e-05
1.03191e-05
2.12606e-05
1.39678e-05
2.56714e-05
1.80822e-05
3.00481e-05
2.26059e-05
3.43141e-05
3.84e-05
2.74732e-05
2.61758e-07
1.22728e-06
1.05931e-06
4.08304e-06
2.39851e-06
7.2897e-06
4.27983e-06
1.07774e-05
6.69625e-06
1.44794e-05
9.63166e-06
1.83251e-05
1.30603e-05
2.22427e-05
1.69466e-05
2.61616e-05
2.1246e-05
3.00147e-05
3.374e-05
2.59058e-05
2.44588e-07
9.8263e-07
9.86985e-07
3.34047e-06
2.23257e-06
6.04396e-06
3.98344e-06
9.02638e-06
6.23644e-06
1.22262e-05
8.98136e-06
1.558e-05
1.22002e-05
1.90237e-05
1.58666e-05
2.2495e-05
1.99465e-05
2.59347e-05
2.9288e-05
2.43984e-05
2.27367e-07
7.55203e-07
9.15185e-07
2.65249e-06
2.06867e-06
4.89033e-06
3.69184e-06
7.40304e-06
5.78529e-06
1.01326e-05
8.34425e-06
1.30208e-05
1.13576e-05
1.60102e-05
1.48069e-05
1.90455e-05
1.86672e-05
2.20743e-05
2.50486e-05
2.29064e-05
2.09157e-07
5.4599e-07
8.40171e-07
2.02131e-06
1.89897e-06
3.83139e-06
3.39208e-06
5.90976e-06
5.32414e-06
8.20041e-06
7.69559e-06
1.06492e-05
1.05015e-05
1.32041e-05
1.37308e-05
1.5816e-05
1.73659e-05
1.8439e-05
2.10311e-05
2.13832e-05
1.88707e-07
3.57231e-07
7.57841e-07
1.45203e-06
1.71521e-06
2.8739e-06
3.07084e-06
4.55398e-06
4.83401e-06
6.4371e-06
7.01041e-06
8.47261e-06
9.60098e-06
1.06134e-05
1.26008e-05
1.2816e-05
1.59993e-05
1.50404e-05
1.72506e-05
1.97796e-05
1.64546e-07
1.92642e-07
6.64315e-07
9.52141e-07
1.5093e-06
2.02882e-06
2.71525e-06
3.34789e-06
4.29686e-06
4.85538e-06
6.26506e-06
6.50423e-06
8.62622e-06
8.25209e-06
1.13811e-05
1.00609e-05
1.45248e-05
1.18965e-05
1.37287e-05
1.80466e-05
1.39629e-07
5.29803e-08
5.56783e-07
5.34895e-07
1.27402e-06
1.31151e-06
2.31447e-06
2.30732e-06
3.69789e-06
3.47187e-06
5.44009e-06
4.76186e-06
7.55236e-06
6.13972e-06
1.00403e-05
7.57277e-06
1.29041e-05
9.03263e-06
1.04949e-05
1.61378e-05
1.01191e-07
-4.82332e-08
4.25409e-07
2.10612e-07
1.00274e-06
7.34135e-07
1.86226e-06
1.4477e-06
3.0295e-06
2.30456e-06
4.52512e-06
3.2661e-06
6.36468e-06
4.3001e-06
8.55786e-06
5.37945e-06
1.1109e-05
6.4815e-06
7.58749e-06
1.40163e-05
5.82231e-08
-1.06473e-07
2.77991e-07
-9.19882e-09
7.0184e-07
3.10244e-07
1.36534e-06
7.84126e-07
2.29873e-06
1.37111e-06
3.52634e-06
2.03841e-06
5.06662e-06
2.75981e-06
6.93217e-06
3.51389e-06
9.13035e-06
4.28346e-06
5.05538e-06
1.16624e-05
1.4326e-08
-1.20811e-07
1.24092e-07
-1.19021e-07
3.87808e-07
4.64917e-08
8.46535e-07
3.25286e-07
1.53361e-06
6.84018e-07
2.47483e-06
1.09707e-06
3.68952e-06
1.54527e-06
5.19128e-06
2.01217e-06
6.98929e-06
2.48573e-06
2.95838e-06
9.08632e-06
-2.86793e-08
-9.21625e-08
-1.9947e-08
-1.27813e-07
9.11937e-08
-6.47559e-08
3.51762e-07
6.46465e-08
7.91452e-07
2.44221e-07
1.43672e-06
4.51807e-07
2.30384e-06
6.78338e-07
3.40598e-06
9.10272e-07
4.7523e-06
1.1398e-06
1.36697e-06
6.34384e-06
-5.18276e-08
-4.03731e-08
-1.15914e-07
-6.38142e-08
-1.25522e-07
-5.52384e-08
-3.9768e-08
-2.12203e-08
1.68763e-07
3.56439e-08
5.23174e-07
9.74254e-08
1.03242e-06
1.69406e-07
1.70653e-06
2.3638e-07
2.54987e-06
2.97038e-07
3.59846e-07
3.55667e-06
-4.03825e-08
-1.04212e-07
-1.59466e-07
-1.80704e-07
-1.45065e-07
-4.76221e-08
1.21855e-07
3.58254e-07
6.55403e-07
1.01514e-06
1.65753e-05
4.44517e-05
8.69211e-07
1.57063e-05
-5.40356e-06
6.27278e-06
-7.92761e-06
2.52425e-06
-8.60522e-06
6.77652e-07
-8.29829e-06
-3.06813e-07
-7.62605e-06
-6.72289e-07
-7.0348e-06
-5.91225e-07
-6.50284e-06
-5.32062e-07
-5.9348e-06
-5.68058e-07
-5.39005e-06
-5.44687e-07
-4.78692e-06
-6.03177e-07
-4.12075e-06
-6.65955e-07
-3.41863e-06
-7.02154e-07
-2.99133e-06
-4.27145e-07
-2.73571e-06
-2.55723e-07
-2.39806e-06
-3.37608e-07
-2.00052e-06
-3.97585e-07
-1.57556e-06
-4.24949e-07
-1.15064e-06
-4.2489e-07
-7.51986e-07
-3.98623e-07
-4.08379e-07
-3.4356e-07
-1.51238e-07
-2.57082e-07
-1.26455e-08
-1.38544e-07
-1.26392e-08
4.71686e-05
7.4522e-05
2.25588e-05
4.03162e-05
7.22222e-06
2.16097e-05
-1.70584e-06
1.14525e-05
-6.85865e-06
5.83072e-06
-9.81544e-06
2.65009e-06
-1.13606e-05
8.72917e-07
-1.19304e-05
-2.15526e-08
-1.18325e-05
-6.30142e-07
-1.13856e-05
-1.01488e-06
-1.07806e-05
-1.14971e-06
-1.01091e-05
-1.27432e-06
-9.40018e-06
-1.37472e-06
-8.6941e-06
-1.40793e-06
-7.79e-06
-1.33116e-06
-6.75701e-06
-1.28873e-06
-5.76382e-06
-1.33084e-06
-4.78227e-06
-1.3792e-06
-3.80806e-06
-1.39915e-06
-2.85972e-06
-1.37319e-06
-1.97129e-06
-1.28697e-06
-1.18786e-06
-1.12687e-06
-5.63312e-07
-8.81526e-07
-1.53927e-07
-5.47816e-07
-1.66559e-07
6.74245e-05
9.56512e-05
4.50389e-05
6.27018e-05
2.67825e-05
3.98662e-05
1.33664e-05
2.48688e-05
3.97211e-06
1.52253e-05
-2.41387e-06
9.03616e-06
-6.62041e-06
5.07947e-06
-9.19738e-06
2.55532e-06
-1.06925e-05
8.64839e-07
-1.14888e-05
-2.18496e-07
-1.17369e-05
-9.01585e-07
-1.15905e-05
-1.42041e-06
-1.11506e-05
-1.81442e-06
-1.04782e-05
-2.08009e-06
-9.60516e-06
-2.20406e-06
-8.57516e-06
-2.31873e-06
-7.44649e-06
-2.45955e-06
-6.2668e-06
-2.55896e-06
-5.06517e-06
-2.60081e-06
-3.87461e-06
-2.56374e-06
-2.73881e-06
-2.42271e-06
-1.71178e-06
-2.15384e-06
-8.58132e-07
-1.73502e-06
-2.54088e-07
-1.15177e-06
-4.20642e-07
8.06597e-05
0.000111147
6.22302e-05
8.11313e-05
4.47699e-05
5.73266e-05
3.00212e-05
3.96176e-05
1.83422e-05
2.69044e-05
9.44016e-06
1.79383e-05
2.8494e-06
1.16702e-05
-1.89067e-06
7.29533e-06
-5.23988e-06
4.21397e-06
-7.49644e-06
2.03813e-06
-8.87024e-06
4.72272e-07
-9.60012e-06
-6.90266e-07
-9.84895e-06
-1.56542e-06
-9.70182e-06
-2.22699e-06
-9.21296e-06
-2.69284e-06
-8.47206e-06
-3.05961e-06
-7.54606e-06
-3.38557e-06
-6.48718e-06
-3.6179e-06
-5.34314e-06
-3.74486e-06
-4.16046e-06
-3.74643e-06
-2.99408e-06
-3.58903e-06
-1.90679e-06
-3.24103e-06
-9.74888e-07
-2.66687e-06
-2.94339e-07
-1.83223e-06
-7.14975e-07
8.95341e-05
0.000122189
7.50076e-05
9.56577e-05
5.97017e-05
7.26325e-05
4.5407e-05
5.39123e-05
3.29953e-05
3.93163e-05
2.27084e-05
2.82252e-05
1.44574e-05
1.99213e-05
8.0074e-06
1.37453e-05
3.07148e-06
9.14986e-06
-6.06064e-07
5.71575e-06
-3.25739e-06
3.12366e-06
-5.08798e-06
1.14054e-06
-6.25827e-06
-3.95005e-07
-6.89024e-06
-1.59481e-06
-7.04966e-06
-2.53335e-06
-6.83276e-06
-3.27646e-06
-6.34143e-06
-3.87691e-06
-5.63326e-06
-4.3261e-06
-4.76798e-06
-4.61016e-06
-3.80126e-06
-4.71315e-06
-2.79247e-06
-4.59778e-06
-1.81023e-06
-4.22327e-06
-9.39194e-07
-3.53777e-06
-2.86561e-07
-2.48481e-06
-1.00153e-06
9.51404e-05
0.000129599
8.41423e-05
0.000106656
7.14152e-05
8.53597e-05
5.85065e-05
6.6821e-05
4.64312e-05
5.13916e-05
3.57227e-05
3.89337e-05
2.65744e-05
2.90696e-05
1.89732e-05
2.13466e-05
1.27952e-05
1.53279e-05
7.87496e-06
1.0636e-05
4.03649e-06
6.96219e-06
1.11319e-06
4.06402e-06
-1.04011e-06
1.7584e-06
-2.54443e-06
-9.03249e-08
-3.49677e-06
-1.58094e-06
-3.98647e-06
-2.78671e-06
-4.10641e-06
-3.75697e-06
-3.92477e-06
-4.50776e-06
-3.50383e-06
-5.03111e-06
-2.91604e-06
-5.30095e-06
-2.217e-06
-5.29681e-06
-1.47624e-06
-4.96395e-06
-7.8299e-07
-4.23102e-06
-2.43385e-07
-3.02438e-06
-1.24492e-06
9.81359e-05
0.000134054
9.02158e-05
0.000114576
8.00973e-05
9.54781e-05
6.90179e-05
7.79005e-05
5.79479e-05
6.24616e-05
4.75354e-05
4.93462e-05
3.81464e-05
3.84586e-05
2.99378e-05
2.95553e-05
2.29287e-05
2.23371e-05
1.70587e-05
1.65061e-05
1.2227e-05
1.17939e-05
8.31798e-06
7.97322e-06
5.21664e-06
4.85983e-06
2.81721e-06
2.30924e-06
1.02493e-06
2.11393e-07
-2.46965e-07
-1.51476e-06
-1.08096e-06
-2.92298e-06
-1.54936e-06
-4.03936e-06
-1.71226e-06
-4.86822e-06
-1.62012e-06
-5.39309e-06
-1.3392e-06
-5.57772e-06
-9.54164e-07
-5.34902e-06
-5.34953e-07
-4.65016e-06
-1.74285e-07
-3.38502e-06
-1.4192e-06
9.88563e-05
0.000135959
9.3653e-05
0.000119779
8.60347e-05
0.000103096
7.69607e-05
8.69745e-05
6.72841e-05
7.21382e-05
5.7663e-05
5.89674e-05
4.85469e-05
4.75747e-05
4.02047e-05
3.78975e-05
3.2767e-05
2.97748e-05
2.62692e-05
2.3004e-05
2.06863e-05
1.73768e-05
1.59596e-05
1.27001e-05
1.2014e-05
8.80547e-06
8.77033e-06
5.55306e-06
6.15053e-06
2.83124e-06
4.08057e-06
5.55269e-07
2.49113e-06
-1.33353e-06
1.3202e-06
-2.86842e-06
5.10675e-07
-4.05869e-06
4.81585e-09
-4.88723e-06
-2.5865e-07
-5.31426e-06
-3.1563e-07
-5.292e-06
-2.29555e-07
-4.73623e-06
-9.00126e-08
-3.52454e-06
-1.50921e-06
9.77801e-05
0.000135707
9.49169e-05
0.000122642
8.9592e-05
0.000108421
8.25279e-05
9.40386e-05
7.44328e-05
8.02334e-05
6.5915e-05
6.74852e-05
5.74444e-05
5.60454e-05
4.935e-05
4.59919e-05
4.18387e-05
3.72862e-05
3.50217e-05
2.98211e-05
2.89414e-05
2.34572e-05
2.35944e-05
1.80472e-05
1.89489e-05
1.3451e-05
1.49582e-05
9.54383e-06
1.15687e-05
6.22084e-06
8.72517e-06
3.39882e-06
6.37449e-06
1.01717e-06
4.46742e-06
-9.61318e-07
2.95877e-06
-2.55003e-06
1.80915e-06
-3.73759e-06
9.84211e-07
-4.4893e-06
4.43068e-07
-4.75086e-06
1.34692e-07
-4.42781e-06
1.06299e-08
-3.40046e-06
-1.49858e-06
9.52162e-05
0.000133707
9.43787e-05
0.00012348
9.11202e-05
0.00011168
8.59774e-05
9.91814e-05
7.952e-05
8.66909e-05
7.22796e-05
7.47257e-05
6.47057e-05
6.36193e-05
5.71475e-05
5.35502e-05
4.98554e-05
4.45783e-05
4.29939e-05
3.66826e-05
3.66591e-05
2.97921e-05
3.08962e-05
2.38102e-05
2.57152e-05
1.86321e-05
2.11032e-05
1.41559e-05
1.70345e-05
1.02896e-05
1.34771e-05
6.95628e-06
1.03978e-05
4.0965e-06
7.76573e-06
1.67077e-06
5.55434e-06
-3.38629e-07
3.74257e-06
-1.92579e-06
2.31324e-06
-3.05996e-06
1.24586e-06
-3.68344e-06
5.22474e-07
-3.70439e-06
1.18649e-07
-2.99661e-06
-1.37993e-06
9.15845e-05
0.000130337
9.24263e-05
0.000122638
9.09751e-05
0.000113131
8.76038e-05
0.000102553
8.27507e-05
9.1544e-05
7.68593e-05
8.06171e-05
7.03342e-05
7.01444e-05
6.35158e-05
6.03686e-05
5.66713e-05
5.14229e-05
4.99967e-05
4.33572e-05
4.36263e-05
3.61625e-05
3.76441e-05
2.97925e-05
3.20964e-05
2.41799e-05
2.70027e-05
1.92497e-05
2.23652e-05
1.49271e-05
1.81768e-05
1.11447e-05
1.44268e-05
7.84656e-06
1.11055e-05
4.99208e-06
8.20761e-06
2.55932e-06
5.73352e-06
5.48333e-07
3.68912e-06
-1.01553e-06
2.08318e-06
-2.07748e-06
9.27413e-07
-2.54859e-06
2.31651e-07
-2.30082e-06
-1.14827e-06
8.72276e-05
0.000125921
8.9426e-05
0.000120439
8.95119e-05
0.000113045
8.77228e-05
0.000104342
8.43786e-05
9.48883e-05
7.98317e-05
8.5164e-05
7.44283e-05
7.55479e-05
6.84804e-05
6.63165e-05
6.22509e-05
5.76525e-05
5.59486e-05
4.96596e-05
4.97305e-05
4.23807e-05
4.37083e-05
3.58147e-05
3.79571e-05
2.99312e-05
3.25241e-05
2.46827e-05
2.74377e-05
2.00136e-05
2.27147e-05
1.58677e-05
1.83674e-05
1.21939e-05
1.44088e-05
8.95074e-06
1.08567e-05
6.11143e-06
7.73656e-06
3.66852e-06
5.08191e-06
1.63916e-06
2.93365e-06
7.07995e-08
1.33842e-06
-9.53314e-07
3.45249e-07
-1.30762e-06
-8.03023e-07
8.24305e-05
0.00012074
8.56973e-05
0.000117173
8.70591e-05
0.000111684
8.66469e-05
0.000104754
8.46775e-05
9.68577e-05
8.14173e-05
8.84242e-05
7.71482e-05
7.9817e-05
7.21417e-05
7.13231e-05
6.66411e-05
6.31531e-05
6.08526e-05
5.54482e-05
5.49419e-05
4.82914e-05
4.90371e-05
4.17195e-05
4.32334e-05
3.5735e-05
3.75997e-05
3.03164e-05
3.21862e-05
2.54272e-05
2.70313e-05
2.10226e-05
2.21691e-05
1.70562e-05
1.76349e-05
1.34849e-05
1.34711e-05
1.02753e-05
9.7303e-06
7.40936e-06
6.47735e-06
4.89215e-06
3.78899e-06
2.75922e-06
1.7514e-06
1.0843e-06
4.56886e-07
-1.30667e-08
-3.46134e-07
7.74286e-05
0.000115028
8.15115e-05
0.00011309
8.39085e-05
0.000109287
8.46678e-05
0.000103995
8.39208e-05
9.76047e-05
8.18556e-05
9.04894e-05
7.86904e-05
8.29823e-05
7.46499e-05
7.53637e-05
6.99479e-05
6.78551e-05
6.47757e-05
6.06205e-05
5.92963e-05
5.37709e-05
5.36434e-05
4.73725e-05
4.79234e-05
4.1455e-05
4.22198e-05
3.60201e-05
3.65988e-05
3.10482e-05
3.11166e-05
2.6505e-05
2.58257e-05
2.23471e-05
2.07826e-05
1.85281e-05
1.60536e-05
1.50043e-05
1.17202e-05
1.17428e-05
7.88171e-06
8.7307e-06
4.65547e-06
5.98549e-06
2.17342e-06
3.56643e-06
5.75692e-07
1.58469e-06
2.2956e-07
7.24088e-05
0.000108981
7.70932e-05
0.000108405
8.0311e-05
0.000106069
8.20479e-05
0.000102258
8.23664e-05
9.72863e-05
8.13868e-05
9.1469e-05
7.92671e-05
8.5102e-05
7.6184e-05
7.84469e-05
7.23159e-05
7.17232e-05
6.78307e-05
6.51057e-05
6.28793e-05
5.87223e-05
5.75918e-05
5.266e-05
5.20772e-05
4.69697e-05
4.64258e-05
4.16716e-05
4.07134e-05
3.67606e-05
3.50081e-05
3.22104e-05
2.93766e-05
2.79787e-05
2.38925e-05
2.40122e-05
1.86445e-05
2.02524e-05
1.37427e-05
1.66447e-05
9.3239e-06
1.31496e-05
5.55224e-06
9.75723e-06
2.61399e-06
6.50471e-06
7.0218e-07
3.49655e-06
9.31743e-07
6.75128e-05
0.000102751
7.26215e-05
0.000103297
7.64753e-05
0.000102215
7.90147e-05
9.97185e-05
8.02479e-05
9.60531e-05
8.02383e-05
9.14786e-05
7.90903e-05
8.625e-05
7.69339e-05
8.06033e-05
7.39109e-05
7.47463e-05
7.01593e-05
6.88573e-05
6.5811e-05
6.30707e-05
6.09853e-05
5.74858e-05
5.57859e-05
5.21691e-05
5.03023e-05
4.71553e-05
4.46128e-05
4.24501e-05
3.879e-05
3.80332e-05
3.29083e-05
3.38605e-05
2.70527e-05
2.98678e-05
2.13292e-05
2.59759e-05
1.58744e-05
2.20995e-05
1.08637e-05
1.81603e-05
6.51394e-06
1.4107e-05
3.07719e-06
9.94153e-06
8.21162e-07
5.75261e-06
1.75291e-06
6.28419e-05
9.64554e-05
6.8233e-05
9.79055e-05
7.25685e-05
9.78795e-05
7.57577e-05
9.65293e-05
7.77676e-05
9.40432e-05
7.86157e-05
9.06305e-05
7.83596e-05
8.65061e-05
7.70864e-05
8.18765e-05
7.49048e-05
7.69279e-05
7.19163e-05
7.18459e-05
6.8231e-05
6.6756e-05
6.39517e-05
6.17652e-05
5.91705e-05
5.69504e-05
5.39686e-05
5.23572e-05
4.8419e-05
4.79998e-05
4.25909e-05
4.38613e-05
3.65577e-05
3.98938e-05
3.04068e-05
3.60186e-05
2.42532e-05
3.21296e-05
1.82534e-05
2.80994e-05
1.262e-05
2.37938e-05
7.62998e-06
1.90971e-05
3.62058e-06
1.39509e-05
9.63131e-07
8.4101e-06
2.71604e-06
5.84621e-05
9.01781e-05
6.40258e-05
9.23417e-05
6.87181e-05
9.31872e-05
7.24285e-05
9.28188e-05
7.50946e-05
9.13771e-05
7.66979e-05
8.90272e-05
7.72572e-05
8.59469e-05
7.68195e-05
8.23141e-05
7.54578e-05
7.82897e-05
7.32525e-05
7.40512e-05
7.02825e-05
6.97261e-05
6.66296e-05
6.54181e-05
6.23688e-05
6.12112e-05
5.75672e-05
5.71588e-05
5.22852e-05
5.3282e-05
4.658e-05
4.95666e-05
4.05134e-05
4.59604e-05
3.41629e-05
4.23692e-05
2.76381e-05
3.86544e-05
2.11022e-05
3.46354e-05
1.47958e-05
3.01002e-05
9.05951e-06
2.48334e-05
4.34078e-06
1.86698e-05
1.16048e-06
1.15904e-05
3.87652e-06
5.44107e-05
8.3978e-05
6.00647e-05
8.66876e-05
6.50149e-05
8.8237e-05
6.91405e-05
8.86933e-05
7.23593e-05
8.81583e-05
7.46268e-05
8.67597e-05
7.59314e-05
8.46424e-05
7.62842e-05
8.19614e-05
7.57194e-05
7.88546e-05
7.43101e-05
7.54605e-05
7.21039e-05
7.19323e-05
6.91564e-05
6.83656e-05
6.55225e-05
6.48452e-05
6.12509e-05
6.14305e-05
5.63836e-05
5.81493e-05
5.09581e-05
5.49922e-05
4.50132e-05
5.19053e-05
3.86007e-05
4.87818e-05
3.18038e-05
4.54514e-05
2.4766e-05
4.16731e-05
1.77314e-05
3.71349e-05
1.10918e-05
3.14731e-05
5.42853e-06
2.4333e-05
1.49082e-06
1.55282e-05
5.36735e-06
5.0702e-05
7.78932e-05
5.63862e-05
8.10034e-05
6.15176e-05
8.31056e-05
6.59718e-05
8.42391e-05
6.96549e-05
8.44752e-05
7.2504e-05
8.39106e-05
7.44852e-05
8.26611e-05
7.55926e-05
8.0854e-05
7.58296e-05
7.86177e-05
7.52254e-05
7.60646e-05
7.38226e-05
7.33352e-05
7.16562e-05
7.05321e-05
6.876e-05
6.77414e-05
6.51627e-05
6.50278e-05
6.08849e-05
6.24271e-05
5.59388e-05
5.99383e-05
5.03311e-05
5.7513e-05
4.40712e-05
5.50417e-05
3.71886e-05
5.23341e-05
2.97659e-05
4.90959e-05
2.19941e-05
4.49068e-05
1.42603e-05
3.92069e-05
7.27122e-06
3.13222e-05
2.12694e-06
2.06725e-05
7.49429e-06
4.7334e-05
7.19472e-05
5.30056e-05
7.53319e-05
5.82597e-05
7.78514e-05
6.29736e-05
7.95251e-05
6.70485e-05
8.04003e-05
7.04104e-05
8.05487e-05
7.30105e-05
8.00611e-05
7.4823e-05
7.90414e-05
7.58415e-05
7.75992e-05
7.60637e-05
7.58425e-05
7.55115e-05
7.38874e-05
7.42063e-05
7.18373e-05
7.21667e-05
6.97811e-05
6.94051e-05
6.77895e-05
6.59233e-05
6.59089e-05
6.17101e-05
6.41517e-05
5.67389e-05
6.24843e-05
5.09681e-05
6.08126e-05
4.435e-05
5.89523e-05
3.68549e-05
5.6591e-05
2.85255e-05
5.32362e-05
1.95924e-05
4.814e-05
1.07307e-05
4.01839e-05
3.47373e-06
2.79295e-05
1.0968e-05
4.4292e-05
6.61534e-05
4.99205e-05
6.97034e-05
5.52524e-05
7.25195e-05
6.01709e-05
7.46066e-05
6.45771e-05
7.5994e-05
6.83924e-05
7.67334e-05
7.15587e-05
7.68949e-05
7.40379e-05
7.65622e-05
7.58089e-05
7.58283e-05
7.68605e-05
7.47908e-05
7.7197e-05
7.3551e-05
7.6828e-05
7.22065e-05
7.57629e-05
7.08463e-05
7.40057e-05
6.95467e-05
7.15494e-05
6.83653e-05
6.83709e-05
6.73303e-05
6.44264e-05
6.64288e-05
5.9638e-05
6.5601e-05
5.38876e-05
6.47027e-05
4.70124e-05
6.34663e-05
3.8817e-05
6.14316e-05
2.91287e-05
5.78284e-05
1.80828e-05
5.12299e-05
6.92783e-06
3.90844e-05
1.78959e-05
4.15513e-05
6.05195e-05
4.71145e-05
6.41401e-05
5.24886e-05
6.71453e-05
5.75654e-05
6.95298e-05
6.225e-05
7.13094e-05
6.64635e-05
7.252e-05
7.01439e-05
7.32144e-05
7.32465e-05
7.34597e-05
7.57417e-05
7.33331e-05
7.76133e-05
7.29193e-05
7.88573e-05
7.23071e-05
7.94782e-05
7.15855e-05
7.94848e-05
7.08397e-05
7.88845e-05
7.0147e-05
7.76772e-05
6.95727e-05
7.58495e-05
6.9158e-05
7.33698e-05
6.89086e-05
7.01839e-05
6.8787e-05
6.61808e-05
6.87059e-05
6.11735e-05
6.84737e-05
5.48242e-05
6.7781e-05
4.66277e-05
6.6025e-05
3.58155e-05
6.2042e-05
2.0866e-05
5.40341e-05
3.87618e-05
3.83108e-05
5.51586e-05
4.36813e-05
5.87695e-05
4.89587e-05
6.18679e-05
5.40467e-05
6.44418e-05
5.88589e-05
6.64972e-05
6.33211e-05
6.80577e-05
6.7373e-05
6.91625e-05
7.09687e-05
6.9864e-05
7.40764e-05
7.02255e-05
7.66779e-05
7.03179e-05
7.87674e-05
7.02175e-05
8.03506e-05
7.00025e-05
8.14419e-05
6.97485e-05
8.20634e-05
6.95255e-05
8.22407e-05
6.93954e-05
8.1994e-05
6.94048e-05
8.13387e-05
6.95639e-05
8.02856e-05
6.98402e-05
7.88318e-05
7.01597e-05
7.70033e-05
7.03022e-05
7.48767e-05
6.99077e-05
7.25537e-05
6.83479e-05
7.00223e-05
6.45737e-05
6.7039e-05
5.70172e-05
4.29648e-05
6.28363e-05
3.61566e-05
4.99571e-05
4.14346e-05
5.34915e-05
4.66992e-05
5.66033e-05
5.18647e-05
5.92762e-05
5.68529e-05
6.15091e-05
6.15947e-05
6.33159e-05
6.6033e-05
6.47243e-05
7.01229e-05
6.57742e-05
7.38328e-05
6.65156e-05
7.71445e-05
6.70063e-05
8.00527e-05
6.73094e-05
8.25649e-05
6.74903e-05
8.47e-05
6.76135e-05
8.64875e-05
6.77381e-05
8.79724e-05
6.79107e-05
8.92164e-05
6.81609e-05
9.02827e-05
6.84977e-05
9.12476e-05
6.88755e-05
9.22399e-05
6.91674e-05
9.33802e-05
6.9162e-05
9.47599e-05
6.85281e-05
9.64453e-05
6.66627e-05
9.83657e-05
6.26532e-05
9.9963e-05
5.54201e-05
4.37749e-05
9.9153e-05
3.41827e-05
4.4917e-05
3.93558e-05
4.83183e-05
4.45843e-05
5.13747e-05
4.97934e-05
5.4067e-05
5.49135e-05
5.6389e-05
5.98824e-05
5.8347e-05
6.46473e-05
5.99593e-05
6.91666e-05
6.12549e-05
7.34105e-05
6.22718e-05
7.7362e-05
6.30548e-05
8.10177e-05
6.36538e-05
8.43878e-05
6.41203e-05
8.74969e-05
6.45045e-05