/*--------------------------------*- C++ -*----------------------------------*\
| =========                 |                                                 |
| \\      /  F ield         | OpenFOAM: The Open Source CFD Toolbox           |
|  \\    /   O peration     | Version:  v2012                                 |
|   \\  /    A nd           | Website:  www.openfoam.com                      |
|    \\/     M anipulation  |                                                 |
\*---------------------------------------------------------------------------*/
FoamFile
{
    version     2.0;
    format      ascii;
    class       volVectorField;
    location    "2000";
    object      U;
}
// * * * * * * * * * * * * * * * * * * * * * * * * * * * * * * * * * * * * * //

dimensions      [0 1 -1 0 0 0 0];


internalField   nonuniform List<vector> 
6502
(
(0.114287 -0.711303 0)
(0.220134 -1.00221 0)
(0.15879 -1.04158 0)
(0.0825748 -1.02723 0)
(0.0251378 -1.01755 0)
(-0.0250618 -1.01755 0)
(-0.0825063 -1.02722 0)
(-0.158727 -1.04159 0)
(-0.220106 -1.00223 0)
(-0.114283 -0.711306 0)
(0.0982486 -0.598439 0)
(0.221752 -1.02089 0)
(0.211423 -1.12438 0)
(0.137612 -1.12796 0)
(0.0464467 -1.11559 0)
(-0.0462199 -1.11559 0)
(-0.137416 -1.12799 0)
(-0.211287 -1.12443 0)
(-0.221678 -1.02097 0)
(-0.0982393 -0.598478 0)
(0.034352 -0.456 0)
(0.148374 -0.945921 0)
(0.167342 -1.16036 0)
(0.125014 -1.22482 0)
(0.0454003 -1.23602 0)
(-0.0450113 -1.23605 0)
(-0.124689 -1.22493 0)
(-0.167133 -1.16052 0)
(-0.148281 -0.946098 0)
(-0.0343399 -0.456092 0)
(0.0118109 -0.363355 0)
(0.0804194 -0.865922 0)
(0.110147 -1.15574 0)
(0.0913926 -1.28732 0)
(0.03509 -1.33231 0)
(-0.0345142 -1.33241 0)
(-0.090921 -1.28757 0)
(-0.10985 -1.15608 0)
(-0.0802843 -0.866255 0)
(-0.0117943 -0.36352 0)
(0.00489489 -0.323472 0)
(0.0407686 -0.816033 0)
(0.0643497 -1.14266 0)
(0.0586498 -1.32158 0)
(0.0231479 -1.39608 0)
(-0.0224184 -1.39626 0)
(-0.0580082 -1.32203 0)
(-0.0639401 -1.14325 0)
(-0.0405818 -0.81658 0)
(-0.00487409 -0.323736 0)
(0.00188509 -0.306001 0)
(0.0195093 -0.789024 0)
(0.0344284 -1.13178 0)
(0.0342845 -1.33901 0)
(0.0120356 -1.43407 0)
(-0.0110597 -1.43428 0)
(-0.0333851 -1.33968 0)
(-0.0338569 -1.13269 0)
(-0.0192464 -0.789867 0)
(-0.00185714 -0.306404 0)
(0.000577441 -0.29791 0)
(0.00875932 -0.774764 0)
(0.0170358 -1.12454 0)
(0.018708 -1.34743 0)
(0.00517615 -1.45467 0)
(-0.00370203 -1.45504 0)
(-0.0174237 -1.34843 0)
(-0.0161966 -1.1259 0)
(-0.00836937 -0.776026 0)
(-0.000535955 -0.298504 0)
(0.000106437 -0.294517 0)
(0.00366276 -0.767732 0)
(0.00791142 -1.12024 0)
(0.00956713 -1.35091 0)
(0.00282199 -1.46346 0)
(-0.000653333 -1.46399 0)
(-0.00767253 -1.35238 0)
(-0.00664353 -1.12226 0)
(-0.00305923 -0.769615 0)
(-4.74678e-05 -0.295402 0)
(-1.27848e-05 -0.293256 0)
(0.00153412 -0.764461 0)
(0.00377917 -1.11777 0)
(0.00516207 -1.35196 0)
(0.00238777 -1.46759 0)
(0.00102365 -1.46834 0)
(-0.00226702 -1.35414 0)
(-0.00182093 -1.1208 0)
(-0.000600809 -0.767289 0)
(0.000105268 -0.294617 0)
(-8.47939e-07 -0.292723 0)
(0.000893592 -0.762737 0)
(0.00238166 -1.11606 0)
(0.00364376 -1.35171 0)
(0.00304855 -1.46914 0)
(0.0023691 -1.4703 0)
(0.000828068 -1.35505 0)
(0.000645825 -1.12066 0)
(0.000523604 -0.767028 0)
(0.000155054 -0.294791 0)
(5.36249e-05 -0.292267 0)
(0.000964523 -0.761359 0)
(0.00240027 -1.11444 0)
(0.0037714 -1.35072 0)
(0.0043161 -1.4694 0)
(0.00389078 -1.4712 0)
(0.00302443 -1.35589 0)
(0.00219963 -1.12147 0)
(0.00118218 -0.767896 0)
(0.000179567 -0.295399 0)
(0.000126854 -0.291599 0)
(0.00141333 -0.759699 0)
(0.00324716 -1.11246 0)
(0.00499255 -1.3492 0)
(0.00626162 -1.46901 0)
(0.0059532 -1.47176 0)
(0.00520992 -1.35709 0)
(0.00366457 -1.12315 0)
(0.00181981 -0.769631 0)
(0.000224581 -0.296361 0)
(0.000218789 -0.290543 0)
(0.00215965 -0.757329 0)
(0.0047844 -1.10972 0)
(0.00723203 -1.34704 0)
(0.00925979 -1.46813 0)
(0.00898094 -1.47226 0)
(0.00806483 -1.35893 0)
(0.00559979 -1.12588 0)
(0.00271783 -0.772346 0)
(0.000316273 -0.297755 0)
(0.000339091 -0.288918 0)
(0.00324925 -0.753809 0)
(0.00712064 -1.10574 0)
(0.0107142 -1.34386 0)
(0.0138199 -1.46667 0)
(0.0135746 -1.47287 0)
(0.0122925 -1.3617 0)
(0.00855347 -1.13005 0)
(0.00416482 -0.776474 0)
(0.000488266 -0.299843 0)
(0.000501621 -0.286485 0)
(0.00479356 -0.748587 0)
(0.0105121 -1.09983 0)
(0.0158833 -1.33908 0)
(0.0206611 -1.46429 0)
(0.0206123 -1.47359 0)
(0.0188149 -1.36581 0)
(0.0132689 -1.13635 0)
(0.00659822 -0.782808 0)
(0.000812206 -0.303112 0)
(0.000720072 -0.282921 0)
(0.00693138 -0.740922 0)
(0.0152904 -1.09107 0)
(0.0233283 -1.33178 0)
(0.0306806 -1.46039 0)
(0.0311155 -1.47432 0)
(0.0289383 -1.37168 0)
(0.0209262 -1.1458 0)
(0.0108305 -0.792647 0)
(0.00146342 -0.308438 0)
(0.00100458 -0.277816 0)
(0.00980212 -0.729863 0)
(0.0218148 -1.07822 0)
(0.0337387 -1.32075 0)
(0.0449145 -1.45402 0)
(0.0463239 -1.47454 0)
(0.044646 -1.37956 0)
(0.0336335 -1.15966 0)
(0.0185619 -0.80806 0)
(0.00286155 -0.317409 0)
(0.00136298 -0.270667 0)
(0.0135374 -0.714219 0)
(0.03048 -1.05969 0)
(0.0480022 -1.30423 0)
(0.0648655 -1.4436 0)
(0.0685365 -1.47288 0)
(0.0692601 -1.38871 0)
(0.0555317 -1.17917 0)
(0.0335145 -0.832467 0)
(0.0060885 -0.333656 0)
(0.00179398 -0.26089 0)
(0.0181655 -0.692541 0)
(0.0415176 -1.03331 0)
(0.0670021 -1.27944 0)
(0.0921721 -1.4262 0)
(0.103105 -1.46712 0)
(0.108839 -1.39724 0)
(0.0952414 -1.20546 0)
(0.065185 -0.873258 0)
(0.0184512 -0.369642 0)
(0.00223739 -0.247981 0)
(0.0232848 -0.663449 0)
(0.0541693 -0.996697 0)
(0.0899025 -1.2428 0)
(0.125827 -1.39646 0)
(0.151743 -1.45014 0)
(0.170369 -1.39805 0)
(0.169343 -1.23111 0)
(0.144278 -0.926731 0)
(0.0847089 -0.429203 0)
(0.00259787 -0.231763 0)
(0.0280871 -0.626156 0)
(0.0666188 -0.948074 0)
(0.113383 -1.19086 0)
(0.162147 -1.34761 0)
(0.206969 -1.41031 0)
(0.24633 -1.37226 0)
(0.276729 -1.22929 0)
(0.293269 -0.970107 0)
(0.285906 -0.603204 0)
(0.00276141 -0.212759 0)
(0.0315143 -0.581435 0)
(0.0762244 -0.887903 0)
(0.132205 -1.12349 0)
(0.192242 -1.27931 0)
(0.251191 -1.34652 0)
(0.303631 -1.31818 0)
(0.347354 -1.18835 0)
(0.370063 -0.956809 0)
(0.35154 -0.644508 0)
(0.0026973 -0.192222 0)
(0.0329525 -0.531887 0)
(0.0812653 -0.819579 0)
(0.143034 -1.04499 0)
(0.210272 -1.19779 0)
(0.277 -1.26869 0)
(0.336758 -1.25085 0)
(0.38306 -1.14194 0)
(0.404583 -0.948973 0)
(0.385686 -0.698445 0)
(0.00248284 -0.171463 0)
(0.0325871 -0.480515 0)
(0.0818874 -0.747319 0)
(0.14602 -0.960703 0)
(0.216641 -1.10976 0)
(0.28698 -1.18531 0)
(0.349919 -1.18153 0)
(0.397195 -1.09845 0)
(0.420105 -0.947226 0)
(0.406493 -0.750021 0)
(0.00219643 -0.151497 0)
(0.0309162 -0.429868 0)
(0.0790614 -0.674787 0)
(0.142692 -0.875004 0)
(0.213562 -1.01969 0)
(0.284552 -1.10011 0)
(0.348251 -1.11129 0)
(0.39613 -1.05441 0)
(0.421564 -0.938484 0)
(0.416094 -0.783114 0)
(0.00188767 -0.13297 0)
(0.0284326 -0.381775 0)
(0.0738904 -0.604745 0)
(0.134877 -0.79115 0)
(0.203639 -0.930732 0)
(0.273199 -1.01528 0)
(0.336329 -1.04032 0)
(0.385374 -1.00677 0)
(0.414624 -0.921865 0)
(0.41705 -0.801654 0)
(0.00158956 -0.11623 0)
(0.0255544 -0.337386 0)
(0.0673962 -0.539072 0)
(0.124344 -0.711464 0)
(0.189415 -0.845159 0)
(0.256136 -0.932571 0)
(0.317811 -0.969407 0)
(0.36773 -0.955937 0)
(0.400412 -0.897883 0)
(0.411654 -0.806782 0)
(0.00132119 -0.10139 0)
(0.0225958 -0.297264 0)
(0.0603958 -0.478838 0)
(0.112554 -0.637375 0)
(0.172991 -0.764475 0)
(0.235948 -0.853215 0)
(0.295423 -0.899407 0)
(0.345513 -0.902622 0)
(0.381235 -0.866808 0)
(0.399536 -0.799925 0)
(0.00108944 -0.0884022 0)
(0.019761 -0.261536 0)
(0.0534578 -0.424464 0)
(0.100563 -0.569586 0)
(0.15592 -0.689536 0)
(0.214562 -0.778077 0)
(0.271248 -0.831143 0)
(0.320823 -0.847668 0)
(0.358885 -0.830006 0)
(0.38258 -0.783604 0)
(0.000883489 -0.0771326 0)
(0.0171653 -0.230041 0)
(0.0469307 -0.375927 0)
(0.0890544 -0.508279 0)
(0.139244 -0.620724 0)
(0.193315 -0.707712 0)
(0.246783 -0.765353 0)
(0.295182 -0.792093 0)
(0.334613 -0.78904 0)
(0.362308 -0.759788 0)
(0.000685605 -0.0674014 0)
(0.0148573 -0.202457 0)
(0.0409978 -0.332925 0)
(0.0784198 -0.453284 0)
(0.123597 -0.558077 0)
(0.173063 -0.642417 0)
(0.22304 -0.70265 0)
(0.26969 -0.736906 0)
(0.309566 -0.745392 0)
(0.340028 -0.730324 0)
(0.000542092 -0.0590128 0)
(0.0128453 -0.178381 0)
(0.0357337 -0.294999 0)
(0.0688467 -0.404219 0)
(0.109314 -0.5014 0)
(0.154301 -0.582276 0)
(0.200662 -0.643476 0)
(0.245128 -0.682975 0)
(0.284665 -0.700356 0)
(0.316807 -0.696823 0)
(0.000460222 -0.0517777 0)
(0.011113 -0.157394 0)
(0.0311407 -0.26163 0)
(0.0603855 -0.360589 0)
(0.0965272 -0.450344 0)
(0.137271 -0.5272 0)
(0.18002 -0.588095 0)
(0.22201 -0.630972 0)
(0.260594 -0.655008 0)
(0.29351 -0.660683 0)
(0.000393757 -0.0455208 0)
(0.0096386 -0.139089 0)
(0.0271795 -0.232283 0)
(0.053003 -0.321849 0)
(0.0852392 -0.404473 0)
(0.122043 -0.476972 0)
(0.161284 -0.536604 0)
(0.200644 -0.581364 0)
(0.237832 -0.610193 0)
(0.270804 -0.623064 0)
(0.000339923 -0.0400859 0)
(0.00840025 -0.123089 0)
(0.0237962 -0.206448 0)
(0.0466239 -0.287451 0)
(0.0753766 -0.363311 0)
(0.108578 -0.431293 0)
(0.14449 -0.488966 0)
(0.181178 -0.534439 0)
(0.216678 -0.566535 0)
(0.249167 -0.584889 0)
(0.000300285 -0.0353342 0)
(0.00737532 -0.109056 0)
(0.0209307 -0.183651 0)
(0.041151 -0.256875 0)
(0.0668234 -0.326375 0)
(0.0967684 -0.389811 0)
(0.129577 -0.445044 0)
(0.163642 -0.490329 0)
(0.197291 -0.524458 0)
(0.228915 -0.546857 0)
(0.000290719 -0.0311093 0)
(0.00652554 -0.0966778 0)
(0.0185164 -0.163467 0)
(0.0364737 -0.229639 0)
(0.0594378 -0.293201 0)
(0.0864678 -0.352154 0)
(0.116424 -0.40463 0)
(0.14798 -0.449048 0)
(0.179715 -0.484226 0)
(0.210226 -0.509474 0)
(0.000385266 -0.0273859 0)
(0.00579552 -0.0857146 0)
(0.0164784 -0.145542 0)
(0.0324674 -0.205318 0)
(0.05306 -0.263357 0)
(0.0775016 -0.317947 0)
(0.104872 -0.367472 0)
(0.134076 -0.410517 0)
(0.163915 -0.445966 0)
(0.193174 -0.473078 0)
(0.000514021 -0.0240335 0)
(0.00487666 -0.0759169 0)
(0.0146634 -0.129567 0)
(0.0289741 -0.183541 0)
(0.0475139 -0.236444 0)
(0.0696825 -0.286822 0)
(0.0947386 -0.333288 0)
(0.12178 -0.374593 0)
(0.1498 -0.409705 0)
(0.177749 -0.437877 0)
(0.000311957 -0.0211562 0)
(0.0042559 -0.0671467 0)
(0.0129646 -0.115244 0)
(0.0258566 -0.163941 0)
(0.0426404 -0.212065 0)
(0.0628376 -0.258405 0)
(0.0858495 -0.301778 0)
(0.110933 -0.341086 0)
(0.137245 -0.375391 0)
(0.16389 -0.403973 0)
(-8.91542e-05 -0.0187928 0)
(0.00412983 -0.0594582 0)
(0.0114709 -0.102365 0)
(0.0231338 -0.146178 0)
(0.0383906 -0.189847 0)
(0.0568682 -0.232343 0)
(0.0780731 -0.272641 0)
(0.101392 -0.309785 0)
(0.126122 -0.342929 0)
(0.151501 -0.371395 0)
(-0.000125676 -0.0165547 0)
(0.00364516 -0.0526364 0)
(0.0102795 -0.0907547 0)
(0.0208617 -0.130024 0)
(0.0347712 -0.169528 0)
(0.0517223 -0.208361 0)
(0.0713113 -0.245631 0)
(0.0930328 -0.280497 0)
(0.1163 -0.312206 0)
(0.140468 -0.340133 0)
(3.54517e-05 -0.0144877 0)
(0.00317091 -0.0464414 0)
(0.00936316 -0.0802418 0)
(0.0189937 -0.115322 0)
(0.0317175 -0.150922 0)
(0.0473104 -0.186255 0)
(0.06545 -0.220545 0)
(0.0857221 -0.253054 0)
(0.107639 -0.283114 0)
(0.13066 -0.310154 0)
(0.000113375 -0.0127336 0)
(0.00290171 -0.0408204 0)
(0.00861675 -0.0707456 0)
(0.0174408 -0.102015 0)
(0.0291431 -0.133999 0)
(0.0435499 -0.166027 0)
(0.0604076 -0.197428 0)
(0.0793808 -0.227557 0)
(0.100067 -0.255821 0)
(0.122014 -0.281703 0)
(0.000119786 -0.0111053 0)
(0.00269952 -0.0356746 0)
(0.00797547 -0.0620844 0)
(0.0161166 -0.0898722 0)
(0.0269383 -0.118509 0)
(0.0403088 -0.147426 0)
(0.056032 -0.176044 0)
(0.0738392 -0.203799 0)
(0.0934019 -0.230168 0)
(0.114344 -0.254686 0)
(0.000110863 -0.00956492 0)
(0.00252368 -0.0309025 0)
(0.00740948 -0.0540638 0)
(0.0149552 -0.0786222 0)
(0.0250015 -0.104126 0)
(0.0374506 -0.130088 0)
(0.0521529 -0.156007 0)
(0.0688967 -0.181393 0)
(0.0874172 -0.205784 0)
(0.107406 -0.228766 0)
(0.000102329 -0.00812072 0)
(0.00236083 -0.0264686 0)
(0.0069011 -0.0466132 0)
(0.0139169 -0.0681649 0)
(0.0232692 -0.0907298 0)
(0.0348871 -0.113885 0)
(0.0486598 -0.137196 0)
(0.0644234 -0.160235 0)
(0.0819676 -0.182596 0)
(0.101043 -0.203909 0)
(9.52414e-05 -0.00676825 0)
(0.0022082 -0.0223389 0)
(0.00643409 -0.0396774 0)
(0.012966 -0.0584244 0)
(0.0216823 -0.0782298 0)
(0.0325351 -0.0987214 0)
(0.0454458 -0.119519 0)
(0.0602907 -0.140246 0)
(0.0769066 -0.160546 0)
(0.0950949 -0.180092 0)
(8.91527e-05 -0.00550266 0)
(0.00206186 -0.0184903 0)
(0.0059909 -0.0332189 0)
(0.012066 -0.0493495 0)
(0.0201822 -0.0665637 0)
(0.0303119 -0.084529 0)
(0.0424039 -0.102908 0)
(0.0563693 -0.12137 0)
(0.0720851 -0.1396 0)
(0.0893969 -0.157308 0)
(8.37089e-05 -0.00432196 0)
(0.00191538 -0.0149131 0)
(0.00555167 -0.02722 0)
(0.0111787 -0.0409138 0)
(0.0187085 -0.0556981 0)
(0.0281327 -0.0712701 0)
(0.0394248 -0.0873283 0)
(0.0525264 -0.103579 0)
(0.0673491 -0.119745 0)
(0.0837763 -0.135571 0)
(7.86942e-05 -0.00322895 0)
(0.00176055 -0.0116108 0)
(0.00509415 -0.0216829 0)
(0.0102627 -0.0331164 0)
(0.0171976 -0.0456277 0)
(0.0259098 -0.0589375 0)
(0.0363961 -0.072773 0)
(0.048625 -0.0868738 0)
(0.0625385 -0.100995 0)
(0.0780525 -0.114913 0)
(7.34833e-05 -0.00223254 0)
(0.00158763 -0.00860192 0)
(0.00459439 -0.0166311 0)
(0.00927513 -0.0259817 0)
(0.0155846 -0.0363764 0)
(0.0235546 -0.047554 0)
(0.0332042 -0.0592671 0)
(0.0445266 -0.0712843 0)
(0.05749 -0.0833917 0)
(0.0720384 -0.0953947 0)
(7.42058e-05 -0.00134261 0)
(0.00138494 -0.005919 0)
(0.00402849 -0.0121096 0)
(0.00817422 -0.0195597 0)
(0.0138075 -0.0279955 0)
(0.0209832 -0.0371721 0)
(0.0297417 -0.0468659 0)
(0.0400983 -0.0568729 0)
(0.0520445 -0.0670083 0)
(0.0655482 -0.0771064 0)
(0.000123999 -0.000572748 0)
(0.0011428 -0.00361132 0)
(0.00337539 -0.00818621 0)
(0.00692384 -0.0139235 0)
(0.011815 -0.0205608 0)
(0.0181272 -0.0278712 0)
(0.0259197 -0.0356546 0)
(0.0352275 -0.0437339 0)
(0.0460621 -0.0519527 0)
(0.0584114 -0.0601744 0)
(9.63239e-05 3.1946e-05 0)
(0.000833347 -0.00174316 0)
(0.00261035 -0.0049326 0)
(0.00549917 -0.00915366 0)
(0.00958011 -0.0141613 0)
(0.0149513 -0.0197496 0)
(0.0216889 -0.0257433 0)
(0.0298443 -0.0319927 0)
(0.0394457 -0.0383701 0)
(0.0504976 -0.0447675 0)
(4.63933e-05 0.000436517 0)
(0.000491773 -0.000373921 0)
(0.00175554 -0.00241674 0)
(0.0039261 -0.00533001 0)
(0.0071317 -0.00889001 0)
(0.0114841 -0.0129161 0)
(0.0170709 -0.0172613 0)
(0.0239547 -0.0218039 0)
(0.0321758 -0.0264446 0)
(0.0417511 -0.0311037 0)
(-2.59053e-06 0.000614083 0)
(0.000138325 0.000447112 0)
(0.00086329 -0.000698326 0)
(0.00228423 -0.00252108 0)
(0.00457441 -0.00482964 0)
(0.00784772 -0.00747514 0)
(0.012195 -0.0103433 0)
(0.0176823 -0.0133397 0)
(0.0243558 -0.0163923 0)
(0.0322389 -0.0194495 0)
(-9.82653e-05 0.000567904 0)
(-0.000171018 0.00073028 0)
(2.11811e-05 0.000217396 0)
(0.000731015 -0.000749309 0)
(0.00212045 -0.00201955 0)
(0.00429508 -0.00349452 0)
(0.00734153 -0.00509903 0)
(0.0113174 -0.00676335 0)
(0.0162684 -0.00844154 0)
(0.0222137 -0.0101093 0)
(-0.000104928 0.00035282 0)
(-0.000365743 0.000530148 0)
(-0.000565679 0.000411765 0)
(-0.000443178 0.000100851 0)
(0.000131175 -0.000413883 0)
(0.00124857 -0.00101573 0)
(0.0029884 -0.00167953 0)
(0.00537939 -0.00236175 0)
(0.00844868 -0.00301948 0)
(0.0121914 -0.00365357 0)
(-6.72773e-05 8.75219e-05 0)
(-0.000304074 0.000155293 0)
(-0.000554554 0.000179831 0)
(-0.000723228 0.000106078 0)
(-0.000712356 -1.07064e-05 0)
(-0.000451766 -8.04837e-05 0)
(8.73322e-05 -0.000189728 0)
(0.000903191 -0.000194484 0)
(0.00198964 -0.000138904 0)
(0.00332231 -0.0001474 0)
(0.146297 -0.184572 0)
(0.0318321 -0.0395389 0)
(-0.017606 -0.00805742 0)
(-0.0307857 -0.00293284 0)
(-0.03383 -0.000100924 0)
(-0.0339177 0.00392518 0)
(-0.0318751 0.00533058 0)
(-0.0291615 0.00367746 0)
(-0.026959 0.00192581 0)
(-0.0246394 0.00125275 0)
(-0.0224523 0.00105818 0)
(-0.0203094 0.000973887 0)
(-0.0180156 0.000766441 0)
(-0.0147712 0.000282606 0)
(-0.0118394 -0.000126531 0)
(-0.0117917 1.07911e-05 0)
(-0.0102612 0.000242929 0)
(-0.00875828 0.000351676 0)
(-0.00710201 0.000390662 0)
(-0.00539242 0.000393754 0)
(-0.0037368 0.000366254 0)
(-0.00224274 0.000296534 0)
(-0.00102171 0.000196265 0)
(-0.000222376 7.89682e-05 0)
(4.63082e-05 -6.30018e-05 0)
(0.252261 -0.324728 0)
(0.131796 -0.148765 0)
(0.0509951 -0.0676105 0)
(0.00617842 -0.029104 0)
(-0.0196225 -0.0103736 0)
(-0.0349305 -0.00166762 0)
(-0.0431277 0.00220381 0)
(-0.0469322 0.0031304 0)
(-0.0476527 0.00402315 0)
(-0.0462446 0.00512756 0)
(-0.0440752 0.00540317 0)
(-0.0415889 0.00587519 0)
(-0.0388688 0.00608607 0)
(-0.0359211 0.00628282 0)
(-0.0325885 0.00478111 0)
(-0.0288851 0.00363964 0)
(-0.0248783 0.00393524 0)
(-0.0209459 0.00424711 0)
(-0.0170379 0.00439389 0)
(-0.0131887 0.00434091 0)
(-0.00950362 0.00406106 0)
(-0.00613713 0.00351996 0)
(-0.0032895 0.00268338 0)
(-0.00123872 0.00155054 0)
(-0.000101152 0.000347444 0)
(0.315475 -0.451494 0)
(0.221187 -0.273444 0)
(0.137644 -0.160441 0)
(0.0753187 -0.0919486 0)
(0.0309798 -0.0512433 0)
(0.000597835 -0.026864 0)
(-0.0197229 -0.0122806 0)
(-0.0326337 -0.00357262 0)
(-0.0402293 0.0022559 0)
(-0.0446418 0.0053562 0)
(-0.0465819 0.00642126 0)
(-0.0465965 0.00750423 0)
(-0.045349 0.00873424 0)
(-0.0430885 0.00948105 0)
(-0.0399419 0.00951767 0)
(-0.0361514 0.00964356 0)
(-0.0318533 0.00999796 0)
(-0.0272481 0.0103023 0)
(-0.0224902 0.0104036 0)
(-0.0177038 0.0101921 0)
(-0.0130389 0.00956302 0)
(-0.00868456 0.0084186 0)
(-0.00488177 0.00667481 0)
(-0.00199303 0.00429994 0)
(-0.0001759 0.00146778 0)
(0.356258 -0.550064 0)
(0.284236 -0.383411 0)
(0.210077 -0.257911 0)
(0.14532 -0.169395 0)
(0.0929972 -0.109043 0)
(0.0526083 -0.0684801 0)
(0.0223581 -0.0414261 0)
(0.000344647 -0.0234343 0)
(-0.0153594 -0.0113296 0)
(-0.02622 -0.00310943 0)
(-0.033168 0.00275352 0)
(-0.0371827 0.00704561 0)
(-0.039003 0.0101373 0)
(-0.0391358 0.0123597 0)
(-0.0377763 0.0135807 0)
(-0.0352528 0.0146094 0)
(-0.0319243 0.0157832 0)
(-0.0279399 0.0165691 0)
(-0.0235234 0.0169309 0)
(-0.0188613 0.0167621 0)
(-0.0141444 0.0159123 0)
(-0.00959868 0.0142339 0)
(-0.00550547 0.0115809 0)
(-0.00229922 0.00783106 0)
(-0.000215264 0.00297581 0)
(0.382062 -0.619263 0)
(0.328371 -0.470096 0)
(0.266832 -0.34523 0)
(0.206854 -0.247514 0)
(0.15342 -0.174156 0)
(0.108383 -0.120392 0)
(0.0718082 -0.0815028 0)
(0.0429247 -0.0535105 0)
(0.0206162 -0.0332827 0)
(0.00377627 -0.0185869 0)
(-0.0085589 -0.00779647 0)
(-0.0172735 0.000283009 0)
(-0.0230906 0.00642715 0)
(-0.0265634 0.0111415 0)
(-0.0280434 0.0147596 0)
(-0.0278357 0.0175505 0)
(-0.0263644 0.0198223 0)
(-0.0239344 0.0214941 0)
(-0.0207423 0.0224716 0)
(-0.0170666 0.0226621 0)
(-0.0130892 0.0218651 0)
(-0.00905317 0.0198812 0)
(-0.00528062 0.0164924 0)
(-0.00223882 0.0114577 0)
(-0.000212696 0.00454998 0)
(0.396587 -0.666684 0)
(0.358136 -0.53659 0)
(0.309302 -0.419164 0)
(0.257198 -0.319899 0)
(0.206921 -0.239677 0)
(0.161415 -0.17673 0)
(0.121976 -0.128232 0)
(0.0888458 -0.091225 0)
(0.0616736 -0.0630622 0)
(0.0398386 -0.0415874 0)
(0.0226411 -0.0251028 0)
(0.00938632 -0.0123196 0)
(-0.000550385 -0.00230317 0)
(-0.00769639 0.00561335 0)
(-0.0124723 0.0119017 0)
(-0.0152398 0.0169389 0)
(-0.0163675 0.0209674 0)
(-0.0162001 0.0240247 0)
(-0.014936 0.0260493 0)
(-0.012835 0.0269292 0)
(-0.0102838 0.0265054 0)
(-0.00730904 0.0245667 0)
(-0.00437298 0.02074 0)
(-0.00189746 0.0146874 0)
(-0.000186614 0.00598021 0)
(0.402035 -0.697372 0)
(0.376299 -0.585944 0)
(0.339228 -0.479233 0)
(0.296083 -0.3834 0)
(0.251366 -0.301248 0)
(0.208283 -0.233091 0)
(0.168777 -0.177778 0)
(0.13381 -0.133504 0)
(0.103665 -0.0983152 0)
(0.0782134 -0.0704043 0)
(0.0571038 -0.048218 0)
(0.0398874 -0.0304909 0)
(0.026096 -0.016232 0)
(0.0152877 -0.00468643 0)
(0.00706612 0.00470739 0)
(0.00107456 0.0123623 0)
(-0.00302406 0.0185504 0)
(-0.0055363 0.0233878 0)
(-0.0067451 0.0268694 0)
(-0.00685147 0.0288707 0)
(-0.00598242 0.0292612 0)
(-0.00461939 0.0276656 0)
(-0.00294148 0.0237718 0)
(-0.00134743 0.0171257 0)
(-0.000145548 0.00710643 0)
(0.399376 -0.713553 0)
(0.384595 -0.619936 0)
(0.358194 -0.52568 0)
(0.324171 -0.436533 0)
(0.286239 -0.356202 0)
(0.247432 -0.286327 0)
(0.209934 -0.227052 0)
(0.175129 -0.17762 0)
(0.143767 -0.136835 0)
(0.116136 -0.103372 0)
(0.0922281 -0.0759579 0)
(0.0718545 -0.0534659 0)
(0.0547364 -0.0349494 0)
(0.0405599 -0.0196444 0)
(0.0290094 -0.00695604 0)
(0.0197817 0.00355849 0)
(0.0125914 0.012199 0)
(0.00717544 0.0191262 0)
(0.00329156 0.0243779 0)
(0.000759621 0.0278726 0)
(-0.000694865 0.029404 0)
(-0.00135157 0.0286156 0)
(-0.00116426 0.025175 0)
(-0.00066839 0.018493 0)
(-0.000100584 0.00781694 0)
(0.390583 -0.717472 0)
(0.384845 -0.640833 0)
(0.367923 -0.559488 0)
(0.342631 -0.478942 0)
(0.311912 -0.403118 0)
(0.278437 -0.334369 0)
(0.244361 -0.273735 0)
(0.211258 -0.221312 0)
(0.180164 -0.176602 0)
(0.151683 -0.138798 0)
(0.126095 -0.106982 0)
(0.103457 -0.0802467 0)
(0.083685 -0.0577673 0)
(0.0666122 -0.0388361 0)
(0.0520333 -0.0228738 0)
(0.0397284 -0.00943172 0)
(0.02948 0.00180838 0)
(0.0210836 0.0110344 0)
(0.014352 0.0183056 0)
(0.00912462 0.0235432 0)
(0.00521643 0.0265394 0)
(0.00259729 0.02708 0)
(0.000927386 0.0246347 0)
(0.000133971 0.0185655 0)
(-3.91211e-05 0.00803716 0)
(0.376551 -0.710968 0)
(0.378538 -0.650085 0)
(0.369939 -0.581744 0)
(0.352722 -0.510902 0)
(0.329167 -0.44142 0)
(0.301517 -0.37599 0)
(0.271749 -0.316215 0)
(0.241451 -0.262821 0)
(0.211805 -0.215899 0)
(0.183617 -0.175128 0)
(0.157386 -0.13996 0)
(0.133374 -0.109751 0)
(0.111678 -0.0838502 0)
(0.0922815 -0.0616541 0)
(0.0750993 -0.0426381 0)
(0.0600112 -0.0263749 0)
(0.0468839 -0.0125452 0)
(0.0355876 -0.000944863 0)
(0.0260073 0.00850859 0)
(0.0180497 0.0157696 0)
(0.0116365 0.0206671 0)
(0.00670659 0.0228871 0)
(0.00316925 0.0219492 0)
(0.00100152 0.0171994 0)
(1.88289e-05 0.00771264 0)
(0.359049 -0.6964 0)
(0.367252 -0.649639 0)
(0.365737 -0.593787 0)
(0.355764 -0.533078 0)
(0.339012 -0.471092 0)
(0.317284 -0.410583 0)
(0.292295 -0.353458 0)
(0.265538 -0.300869 0)
(0.23822 -0.253357 0)
(0.211255 -0.211021 0)
(0.185284 -0.173662 0)
(0.16073 -0.140908 0)
(0.137839 -0.112305 0)
(0.11673 -0.0873839 0)
(0.0974387 -0.0657037 0)
(0.0799487 -0.0468801 0)
(0.0642191 -0.0306072 0)
(0.0502057 -0.0166732 0)
(0.0378765 -0.00497399 0)
(0.0272216 0.00447334 0)
(0.0182532 0.0115183 0)
(0.0109991 0.0158582 0)
(0.00550483 0.0170143 0)
(0.00190884 0.0143131 0)
(7.84171e-05 0.00679047 0)
(0.339336 -0.675525 0)
(0.35242 -0.641243 0)
(0.356775 -0.597031 0)
(0.353116 -0.546395 0)
(0.342598 -0.492507 0)
(0.326602 -0.438004 0)
(0.306544 -0.384898 0)
(0.283752 -0.334591 0)
(0.259375 -0.287943 0)
(0.234348 -0.245383 0)
(0.209392 -0.207013 0)
(0.185032 -0.172719 0)
(0.16163 -0.142246 0)
(0.139418 -0.115272 0)
(0.11854 -0.0914534 0)
(0.0990764 -0.0704641 0)
(0.0810802 -0.0520208 0)
(0.0645963 -0.0359084 0)
(0.0496826 -0.0220001 0)
(0.0364237 -0.0102794 0)
(0.0249349 -0.000862549 0)
(0.0153589 0.0059761 0)
(0.00787897 0.00977819 0)
(0.00282375 0.00987161 0)
(0.000139722 0.00527379 0)
(0.318457 -0.649931 0)
(0.335261 -0.626507 0)
(0.344366 -0.59289 0)
(0.346072 -0.551914 0)
(0.341106 -0.506297 0)
(0.330461 -0.458444 0)
(0.315255 -0.410334 0)
(0.296608 -0.363475 0)
(0.275553 -0.318927 0)
(0.252986 -0.277357 0)
(0.229645 -0.239111 0)
(0.206109 -0.204295 0)
(0.182814 -0.172841 0)
(0.160079 -0.144571 0)
(0.138133 -0.119244 0)
(0.117143 -0.0965951 0)
(0.0972478 -0.0763685 0)
(0.0785786 -0.058344 0)
(0.0612853 -0.042366 0)
(0.0455539 -0.0283727 0)
(0.0316148 -0.0164285 0)
(0.0197411 -0.00675836 0)
(0.0102681 0.000218857 0)
(0.00373444 0.00385461 0)
(0.00020279 0.00315855 0)
(0.297263 -0.620985 0)
(0.316791 -0.606861 0)
(0.329642 -0.582699 0)
(0.335809 -0.550736 0)
(0.335671 -0.513238 0)
(0.329891 -0.472321 0)
(0.319298 -0.429834 0)
(0.304793 -0.387287 0)
(0.287257 -0.345839 0)
(0.267504 -0.30631 0)
(0.246238 -0.269226 0)
(0.224048 -0.234869 0)
(0.201406 -0.203333 0)
(0.178683 -0.174569 0)
(0.15617 -0.148435 0)
(0.134102 -0.124724 0)
(0.112688 -0.103202 0)
(0.0921378 -0.0836365 0)
(0.0726888 -0.0658307 0)
(0.0546306 -0.0496579 0)
(0.0383181 -0.0351059 0)
(0.0241708 -0.0223237 0)
(0.0126953 -0.0116678 0)
(0.00465933 -0.00374717 0)
(0.000347403 0.00044422 0)
(0.276412 -0.589816 0)
(0.297835 -0.583534 0)
(0.313561 -0.567662 0)
(0.32336 -0.543924 0)
(0.327342 -0.51416 0)
(0.32589 -0.480181 0)
(0.319578 -0.443649 0)
(0.309084 -0.406003 0)
(0.295129 -0.368417 0)
(0.278409 -0.331796 0)
(0.25956 -0.296784 0)
(0.239141 -0.263793 0)
(0.217626 -0.233045 0)
(0.195405 -0.204604 0)
(0.172804 -0.178407 0)
(0.1501 -0.1543 0)
(0.127553 -0.13206 0)
(0.105434 -0.111429 0)
(0.0840562 -0.0921454 0)
(0.0638095 -0.0739895 0)
(0.0451776 -0.0568357 0)
(0.0287436 -0.0407188 0)
(0.0152163 -0.025904 0)
(0.00565887 -0.012963 0)
(0.000455779 -0.00290121 0)
(0.256388 -0.557335 0)
(0.279035 -0.557555 0)
(0.296901 -0.548831 0)
(0.309601 -0.532455 0)
(0.317044 -0.509886 0)
(0.319385 -0.482632 0)
(0.316972 -0.452144 0)
(0.310285 -0.419739 0)
(0.299876 -0.386551 0)
(0.286309 -0.353517 0)
(0.270125 -0.32134 0)
(0.251825 -0.290521 0)
(0.231853 -0.261375 0)
(0.21059 -0.234052 0)
(0.188363 -0.208559 0)
(0.165465 -0.184775 0)
(0.14218 -0.162478 0)
(0.118815 -0.141362 0)
(0.0957366 -0.121075 0)
(0.073419 -0.10126 0)
(0.0524709 -0.0816271 0)
(0.0336538 -0.0620374 0)
(0.017925 -0.0426166 0)
(0.00669836 -0.0238848 0)
(0.000382994 -0.00689566 0)
(0.237517 -0.524244 0)
(0.260865 -0.529762 0)
(0.28027 -0.527099 0)
(0.29525 -0.517195 0)
(0.305565 -0.501181 0)
(0.311193 -0.480283 0)
(0.312294 -0.455735 0)
(0.309165 -0.428705 0)
(0.302209 -0.400246 0)
(0.291851 -0.371288 0)
(0.278515 -0.342551 0)
(0.262627 -0.314585 0)
(0.244577 -0.287769 0)
(0.224707 -0.262319 0)
(0.203321 -0.23829 0)
(0.180692 -0.215587 0)
(0.157096 -0.193969 0)
(0.13284 -0.173064 0)
(0.10831 -0.152394 0)
(0.0840317 -0.131413 0)
(0.0607202 -0.109589 0)
(0.039323 -0.0865168 0)
(0.0210978 -0.0620893 0)
(0.00790866 -0.0367117 0)
(0.000358692 -0.0115608 0)
(0.219998 -0.491066 0)
(0.243653 -0.50081 0)
(0.26412 -0.503197 0)
(0.280866 -0.498886 0)
(0.293548 -0.48873 0)
(0.302012 -0.473704 0)
(0.306265 -0.454835 0)
(0.306449 -0.433125 0)
(0.302801 -0.409495 0)
(0.29565 -0.384969 0)
(0.285309 -0.360128 0)
(0.2721 -0.33556 0)
(0.256339 -0.311696 0)
(0.238309 -0.288801 0)
(0.218258 -0.266968 0)
(0.196415 -0.246115 0)
(0.173007 -0.225979 0)
(0.148297 -0.206104 0)
(0.122636 -0.185851 0)
(0.0965444 -0.164423 0)
(0.0707917 -0.14094 0)
(0.0464911 -0.114585 0)
(0.0252462 -0.0848443 0)
(0.00953434 -0.0518811 0)
(0.000460375 -0.0170801 0)
(0.203923 -0.45817 0)
(0.227599 -0.471199 0)
(0.248762 -0.47771 0)
(0.266857 -0.478141 0)
(0.281481 -0.473119 0)
(0.292385 -0.463406 0)
(0.29946 -0.449847 0)
(0.302756 -0.433324 0)
(0.302231 -0.414577 0)
(0.29829 -0.394477 0)
(0.291065 -0.3738 0)
(0.280788 -0.353026 0)
(0.267688 -0.33261 0)
(0.251969 -0.312852 0)
(0.23381 -0.29388 0)
(0.213365 -0.27563 0)
(0.190777 -0.257817 0)
(0.166211 -0.239904 0)
(0.139911 -0.221073 0)
(0.112296 -0.200219 0)
(0.0840817 -0.175991 0)
(0.0564524 -0.146933 0)
(0.031361 -0.111804 0)
(0.0121444 -0.0702185 0)
(0.000704607 -0.0237845 0)
(0.189308 -0.425804 0)
(0.212804 -0.441296 0)
(0.234386 -0.451093 0)
(0.253499 -0.455463 0)
(0.269711 -0.454852 0)
(0.282709 -0.449843 0)
(0.292305 -0.441116 0)
(0.298433 -0.429411 0)
(0.301079 -0.415461 0)
(0.300313 -0.399832 0)
(0.296298 -0.383364 0)
(0.289185 -0.366587 0)
(0.279116 -0.349944 0)
(0.266216 -0.333756 0)
(0.250585 -0.31819 0)
(0.232287 -0.303211 0)
(0.211353 -0.288539 0)
(0.187804 -0.273588 0)
(0.161693 -0.257386 0)
(0.133204 -0.238502 0)
(0.102798 -0.215008 0)
(0.0714782 -0.184526 0)
(0.0413742 -0.144536 0)
(0.0169486 -0.093373 0)
(0.00126488 -0.0327377 0)
(0.17611 -0.394122 0)
(0.199294 -0.411367 0)
(0.221088 -0.423697 0)
(0.240961 -0.431257 0)
(0.258473 -0.434351 0)
(0.273278 -0.433416 0)
(0.285135 -0.428988 0)
(0.293902 -0.421671 0)
(0.299518 -0.412084 0)
(0.301965 -0.400833 0)
(0.301291 -0.388562 0)
(0.297588 -0.375827 0)
(0.29094 -0.36309 0)
(0.281412 -0.350708 0)
(0.269036 -0.338895 0)
(0.253795 -0.327674 0)
(0.235616 -0.316819 0)
(0.214357 -0.305767 0)
(0.189829 -0.293491 0)
(0.161844 -0.278331 0)
(0.130334 -0.257799 0)
(0.0956022 -0.228398 0)
(0.0592953 -0.185543 0)
(0.0268538 -0.124578 0)
(0.00259033 -0.0457949 0)
(0.164248 -0.363216 0)
(0.187031 -0.381598 0)
(0.208885 -0.395788 0)
(0.229316 -0.405844 0)
(0.247892 -0.411961 0)
(0.264261 -0.414456 0)
(0.278151 -0.413749 0)
(0.289373 -0.410328 0)
(0.297816 -0.404724 0)
(0.303415 -0.397483 0)
(0.306161 -0.389172 0)
(0.306086 -0.380323 0)
(0.303235 -0.371409 0)
(0.29764 -0.362819 0)
(0.289298 -0.354829 0)
(0.278157 -0.347547 0)
(0.264088 -0.340855 0)
(0.246858 -0.334325 0)
(0.226083 -0.327058 0)
(0.201216 -0.317428 0)
(0.171486 -0.302757 0)
(0.135844 -0.278784 0)
(0.0940237 -0.238608 0)
(0.0502316 -0.172196 0)
(0.0092095 -0.072819 0)
(0.153611 -0.333136 0)
(0.175933 -0.352121 0)
(0.197731 -0.367573 0)
(0.218553 -0.379485 0)
(0.237994 -0.387972 0)
(0.255706 -0.393258 0)
(0.27141 -0.395663 0)
(0.284896 -0.395581 0)
(0.296018 -0.393457 0)
(0.304686 -0.389771 0)
(0.310863 -0.385025 0)
(0.314555 -0.379713 0)
(0.315791 -0.3743 0)
(0.31461 -0.369196 0)
(0.31103 -0.364731 0)
(0.30504 -0.361088 0)
(0.296536 -0.358235 0)
(0.285371 -0.355966 0)
(0.271213 -0.353652 0)
(0.253596 -0.350195 0)
(0.231535 -0.343642 0)
(0.202794 -0.33018 0)
(0.165343 -0.301937 0)
(0.117276 -0.244093 0)
(0.056375 -0.129576 0)
(0.144156 -0.304208 0)
(0.165981 -0.323333 0)
(0.18763 -0.339508 0)
(0.2087 -0.352682 0)
(0.228817 -0.36291 0)
(0.247655 -0.370344 0)
(0.264939 -0.375223 0)
(0.280456 -0.377859 0)
(0.294048 -0.378619 0)
(0.305615 -0.377914 0)
(0.31511 -0.376179 0)
(0.322534 -0.373857 0)
(0.327931 -0.371377 0)
(0.331377 -0.369135 0)
(0.332952 -0.367485 0)
(0.332822 -0.366692 0)
(0.330974 -0.366837 0)
(0.327533 -0.367724 0)
(0.322483 -0.369065 0)
(0.315907 -0.369735 0)
(0.307707 -0.367906 0)
(0.298539 -0.360591 0)
(0.289163 -0.342531 0)
(0.280403 -0.305747 0)
(0.272318 -0.237809 0)
(0.135699 -0.27641 0)
(0.157 -0.295294 0)
(0.178425 -0.311735 0)
(0.199616 -0.325654 0)
(0.22024 -0.337062 0)
(0.239995 -0.346054 0)
(0.258626 -0.352805 0)
(0.275924 -0.357554 0)
(0.291735 -0.360597 0)