/*--------------------------------*- C++ -*----------------------------------*\
| =========                 |                                                 |
| \\      /  F ield         | OpenFOAM: The Open Source CFD Toolbox           |
|  \\    /   O peration     | Version:  v2012                                 |
|   \\  /    A nd           | Website:  www.openfoam.com                      |
|    \\/     M anipulation  |                                                 |
\*---------------------------------------------------------------------------*/
FoamFile
{
    version     2.0;
    format      ascii;
    class       volScalarField;
    location    "659";
    object      age;
}
// * * * * * * * * * * * * * * * * * * * * * * * * * * * * * * * * * * * * * //

dimensions      [0 0 1 0 0 0 0];


internalField   nonuniform List<scalar> 
6508
(
0.0125018
0.0124996
0.0124997
0.0124998
0.0124999
0.0124999
0.0124998
0.0124997
0.0124996
0.0125018
0.03751
0.0374971
0.0374973
0.0374978
0.037498
0.037498
0.0374978
0.0374973
0.0374971
0.03751
0.0625294
0.0624936
0.0624919
0.0624924
0.0624928
0.0624928
0.0624924
0.0624918
0.0624936
0.0625294
0.0875606
0.08749
0.0874832
0.087483
0.0874834
0.0874834
0.0874829
0.0874832
0.08749
0.0875606
0.112603
0.112487
0.112472
0.112469
0.112469
0.112469
0.112469
0.112472
0.112487
0.112603
0.137657
0.137484
0.137457
0.137451
0.13745
0.13745
0.137451
0.137457
0.137484
0.137657
0.162722
0.162482
0.16244
0.16243
0.162427
0.162427
0.162429
0.16244
0.162482
0.162722
0.187797
0.187481
0.187421
0.187404
0.187399
0.187399
0.187404
0.187421
0.187481
0.187796
0.212881
0.212481
0.2124
0.212375
0.212366
0.212366
0.212374
0.212399
0.21248
0.21288
0.237974
0.237481
0.237377
0.237342
0.23733
0.23733
0.237341
0.237376
0.23748
0.237973
0.263076
0.262483
0.262351
0.262306
0.26229
0.26229
0.262305
0.26235
0.262481
0.263074
0.288187
0.287484
0.287324
0.287267
0.287247
0.287246
0.287266
0.287322
0.287482
0.288184
0.313306
0.312487
0.312295
0.312225
0.3122
0.312199
0.312223
0.312292
0.312483
0.313301
0.338433
0.33749
0.337264
0.337181
0.33715
0.337148
0.337178
0.337259
0.337484
0.338425
0.363569
0.362494
0.362232
0.362134
0.362096
0.362094
0.362129
0.362225
0.362484
0.363562
0.388713
0.387499
0.387199
0.387085
0.38704
0.387037
0.387077
0.387188
0.387485
0.388679
0.413867
0.412506
0.412165
0.412033
0.41198
0.411976
0.412022
0.412148
0.412482
0.413914
0.43903
0.437516
0.437131
0.43698
0.436918
0.436912
0.436962
0.437104
0.43749
0.438678
0.464204
0.462529
0.462098
0.461926
0.461853
0.461843
0.461898
0.462056
0.462442
0.465474
0.489391
0.487547
0.487066
0.486871
0.486786
0.486771
0.486826
0.486998
0.487616
0.483694
0.514593
0.512572
0.512039
0.511819
0.511719
0.511695
0.511747
0.511928
0.511772
0.600456
0.539814
0.537608
0.537018
0.536771
0.536654
0.536619
0.536667
0.536855
0.540044
0.700525
0.565058
0.562659
0.562009
0.561732
0.561596
0.561548
0.561592
0.561792
0.567991
0.794111
0.590331
0.587731
0.587017
0.586708
0.586551
0.58649
0.586532
0.586752
0.594568
0.880035
0.61564
0.61283
0.612047
0.611706
0.611526
0.611452
0.611497
0.611749
0.620286
0.957643
0.640992
0.637965
0.637108
0.636731
0.636529
0.636442
0.636497
0.636801
0.645602
1.02566
0.666397
0.663142
0.662207
0.661793
0.661567
0.661471
0.661544
0.661924
0.670768
1.08402
0.691865
0.688374
0.687354
0.686901
0.686651
0.686546
0.686649
0.687131
0.695891
1.13232
0.717409
0.713671
0.712559
0.712064
0.711789
0.711679
0.711822
0.712438
0.721014
1.17043
0.743042
0.739047
0.737836
0.737297
0.736994
0.736882
0.737077
0.737858
0.746161
1.19866
0.768783
0.76452
0.7632
0.762612
0.762281
0.762168
0.762427
0.763406
0.771344
1.21778
0.794653
0.790109
0.788669
0.788027
0.787666
0.787553
0.787887
0.789095
0.796557
1.22851
0.820678
0.815839
0.814264
0.813565
0.813169
0.813057
0.813471
0.814938
0.821783
1.23166
0.846888
0.84174
0.840013
0.839249
0.838815
0.8387
0.839199
0.840948
0.846984
1.22787
0.873321
0.86785
0.86595
0.865112
0.864633
0.864511
0.865091
0.867139
0.872108
1.21794
0.900024
0.894212
0.892116
0.891193
0.890662
0.890525
0.891174
0.893531
0.897095
1.20288
0.927054
0.920881
0.918559
0.917539
0.916947
0.916784
0.917483
0.920155
0.921887
1.1844
0.95448
0.947926
0.945344
0.94421
0.943546
0.943342
0.944061
0.947054
0.946434
1.16471
0.982384
0.975426
0.972544
0.971277
0.970529
0.970268
0.970964
0.9743
0.970685
1.14627
1.01087
1.00348
1.00025
0.998826
0.997982
0.997645
0.998266
1.00197
0.994666
1.13143
1.04006
1.03221
1.02858
1.02696
1.02601
1.02558
1.02606
1.03027
1.01759
1.12159
1.0701
1.06176
1.05766
1.05582
1.05473
1.05419
1.05445
1.05918
1.04502
1.11827
1.10119
1.0923
1.08766
1.08554
1.0843
1.08363
1.0836
1.08872
1.07529
1.12309
1.13354
1.12404
1.11879
1.11632
1.1149
1.11409
1.1137
1.11892
1.10776
1.13641
1.16745
1.15726
1.15129
1.14839
1.14675
1.14579
1.145
1.14994
1.14199
1.15611
1.20329
1.19229
1.18546
1.18203
1.1801
1.17898
1.17781
1.18199
1.17786
1.17824
1.24154
1.22955
1.22171
1.21759
1.21528
1.21396
1.21247
1.21548
1.21528
1.20273
1.28287
1.26962
1.26053
1.25554
1.25271
1.2511
1.24941
1.25082
1.25503
1.22687
1.32821
1.31328
1.30261
1.29646
1.2929
1.29088
1.28906
1.28875
1.29535
1.27304
1.37895
1.36167
1.34887
1.34116
1.33657
1.3339
1.33196
1.33026
1.3361
1.32644
1.43729
1.41647
1.40063
1.39072
1.38465
1.38098
1.37871
1.37626
1.37931
1.37865
1.50721
1.48067
1.46011
1.44689
1.43858
1.43336
1.43026
1.42749
1.42767
1.42969
1.59625
1.55865
1.52998
1.51164
1.50002
1.49254
1.48796
1.48473
1.48307
1.48403
1.72639
1.66524
1.61968
1.59109
1.57322
1.56176
1.5545
1.5499
1.54701
1.54617
1.94463
1.80921
1.73064
1.68607
1.6596
1.64285
1.632
1.62513
1.62093
1.6188
3.25541
2.25714
1.9394
1.83577
1.78125
1.75039
1.7311
1.71855
1.71058
1.70595
13.1152
7.22613
3.47232
2.11779
1.92281
1.87254
1.84842
1.83428
1.82491
1.81871
11.9121
11.5587
8.13448
4.53265
2.76053
2.15077
2.01627
1.97403
1.95369
1.9441
11.3717
11.4823
11.0746
8.30035
5.62332
3.85888
2.94338
2.49252
2.31389
2.23686
10.8533
9.97556
9.56945
8.72907
7.37085
6.2276
5.40628
4.77939
4.32199
4.00005
1186.06
1410.52
1397.81
1397.54
1397.17
1397.16
1397.16
1397.14
1397.14
1397.6
1398.98
1401.09
1403.43
1405.6
1407.32
1408.47
1408.93
1409.32
1409.7
1410.07
1410.44
1410.81
1411.21
1411.75
1414.3
1176.3
1421.67
1402.47
1400.42
1396.76
1395.69
1395.47
1395.29
1395.63
1398.75
1408.32
1422.28
1437.84
1452.77
1465.32
1474.17
1478.34
1476.69
1469.21
1456.97
1442.22
1428.16
1418.1
1413.46
1413.98
1129.16
1444.53
1432.29
1421.45
1406.31
1397.55
1395.08
1394.56
1395.06
1402.13
1426.07
1458.82
1495.31
1531.5
1563.17
1586.33
1597.79
1595.68
1579.65
1550.99
1513.33
1473.3
1439.72
1419.67
1414.3
1070.43
1470.59
1478.79
1462.3
1432.78
1407.95
1396.05
1394.16
1394.2
1403.3
1439.55
1490.31
1550.38
1613.66
1671.33
1714.73
1737.35
1735.7
1709.72
1662.42
1599.7
1531
1469.83
1429.52
1415.11
1003.59
1497.53
1537.3
1522.26
1478.96
1434
1403.37
1394.08
1393.24
1400.93
1441.65
1507
1590.04
1682.53
1769.3
1836.03
1873.29
1874.09
1838.35
1771.78
1684.21
1588.31
1500.92
1440.34
1416.16
927.168
1519.45
1601.17
1597.97
1545.34
1479.61
1424.44
1396.65
1392.49
1396
1432.09
1504.21
1603.55
1720.6
1834.29
1924.74
1980.89
1988.35
1947.06
1864.47
1755.31
1636.55
1527.55
1449.9
1417.17
847.067
1524.25
1660.57
1681.09
1627.99
1546.06
1466.45
1411.02
1392.72
1391.53
1414.78
1482.15
1586.17
1717.26
1851.72
1964.18
2036.85
2047.03
2012.2
1926.36
1805.01
1670.93
1546.96
1457.14
1418.02
765.75
1512.17
1711.72
1762.36
1720.23
1630.37
1530.19
1446.03
1399.36
1390.36
1398.64
1447.5
1541.48
1673.23
1818.58
1947.2
2034.74
2066.34
2035.54
1953.04
1829.48
1689.48
1558.27
1461.75
1418.71
684.68
1483.34
1744.52
1837.2
1816.09
1729.13
1617.24
1509.71
1428.23
1391.87
1389.49
1412.86
1481.92
1597.78
1741.28
1879.57
1983
2030.69
2018.68
1945.87
1829.53
1692.79
1561.82
1463.79
1419.22
605.224
1436.76
1767.07
1901.99
1912.16
1838.83
1724.7
1601.77
1493.08
1416.96
1388.48
1392.7
1426.11
1509.47
1635.15
1772.63
1888.63
1957.93
1964.57
1909.06
1808.53
1682.95
1558.8
1463.68
1419.66
528.841
1374.67
1780.87
1959.91
2006.53
1958.01
1852.75
1723.67
1594.61
1485
1412.36
1388.11
1394.32
1432.32
1522.36
1644.93
1762.85
1848.48
1879.39
1849.9
1771.2
1662.79
1550.55
1461.82
1420.09
456.293
1300.61
1782.13
2003.38
2098.85
2084.53
2000.23
1877.2
1738.65
1602.97
1488.04
1413.5
1387.75
1392.32
1429.34
1520.06
1628.21
1723.08
1777.44
1775.66
1722.7
1635.57
1538.67
1458.76
1420.52
387.911
1217.17
1770.78
2040.35
2186.82
2216.08
2164.09
2059.89
1925.65
1778.1
1632.62
1506.56
1421.07
1387.2
1386.53
1422.14
1503.69
1595.09
1666.88
1693.1
1667.77
1604.38
1524.76
1455.07
1420.95
323.432
1125.1
1745.49
2068.11
2268.83
2349.95
2340.44
2267.18
2150.45
2005.63
1846.09
1686.12
1542.98
1437.53
1387.61
1379.61
1410.94
1481
1556.41
1607.12
1610.13
1571.56
1510.11
1451.26
1421.39
262.706
1024.92
1703.1
2085.09
2341.18
2480.96
2523.67
2492.64
2406.38
2278.29
2119.91
1943.31
1762.98
1596.66
1465.39
1392.98
1372.9
1399.11
1458.28
1520.38
1553.18
1538.46
1495.79
1447.72
1421.84
205.065
912.666
1639.24
2087.02
2398.24
2601.59
2704.64
2725.99
2682.36
2584.94
2442.98
2266.36
2067.16
1860.59
1665.3
1503.6
1402.69
1367.43
1388.97
1439.42
1491.34
1507.58
1481.99
1444.6
1422.29
153.801
786.971
1547.94
2067.44
2432.69
2701.73
2870.89
2953.11
2961.95
2907.8
2796.94
2636.63
2436.5
2209.45
1971.81
1743.4
1548.22
1415.15
1363.52
1381.06
1425.56
1470.92
1468.59
1441.92
1422.75
110.791
650.087
1422.79
2016.38
2437.21
2769.39
3007.43
3156.16
3225.57
3223.78
3156.93
3028.4
2844.68
2615.85
2356.26
2084.08
1820.8
1591.4
1426.56
1360.43
1372.41
1416.9
1456.96
1438.59
1423.22
76.3246
507.525
1259.43
1921.45
2403.23
2791.62
3097.8
3314.96
3449.24
3506.8
3492.29
3409.19
3259.36
3048.57
2787.69
2492.86
2184.73
1886.54
1624.83
1433
1353.45
1363.08
1411.98
1437.44
1423.69
50.0572
367.931
1058.33
1769.04
2318.76
2757.73
3125
3409.41
3608.44
3726.94
3769.37
3739.29
3638.12
3465.84
3227.52
2934.34
2604.93
2263.29
1934.61
1646.21
1432.37
1341.71
1356.71
1418.49
1424.23
31.1747
241.752
830.517
1550.61
2167.27
2658.56
3074.6
3420.45
3682.59
3858.9
3956.55
3981.39
3934.57
3816.92
3625.15
3362.3
3039.77
2680.7
2312.6
1962.77
1656.91
1425.5
1323.51
1337.71
1424.71
18.4741
139.067
587.207
1265.98
1931.11
2480.95
2939
3331.77
3652.66
3888.93
4045.75
4116.92
4111.16
4054.96
3926.76
3721.15
3438.54
3093.81
2715.12
2332.97
1977.75
1667.47
1424.63
1298.73
1279.12
10.4326
72.4261
361.471
934.439
1600.52
2204.25
2709.28
3137.88
3502.1
3793.42
4009.29
4124.13
4163.65
4151.62
4094.66
3957.69
3743.22
3447.24
3096.04
2712.58
2336.29
1996.93
1700.6
1453.54
1303.85
5.69945
35.736
187.18
602.579
1195.01
1813.82
2365.55
2833.09
3229.24
3559.19
3823.11
4005.53
4108.04
4135.95
4127.75
4042.17
3902.23
3674.93
3388.85
3049.48
2685.03
2341.67
2050.92
1807.02
1599.05
3.17965
16.9901
78.5835
317.735
767.263
1328.28
1892.16
2396.97
2827.86
3188.63
3485.06
3714.74
3879.02
3975.01
4005.88
3977.97
3885.67
3725.04
3514.2
3254.93
2952.55
2632.78
2345.94
2139.2
2005.11
1.9986
7.671
29.9465
129.561
400.313
822.597
1322.13
1822.81
2277.89
2669.51
2995.74
3258.53
3460.26
3601.48
3681.92
3702.62
3664.33
3571.02
3427.51
3240.49
3021.21
2775.87
2512.12
2276.43
2120.72
1.51479
3.41362
11.5045
38.873
152.603
399.576
757.502
1175.15
1599.94
1994.82
2340.43
2629.65
2861.37
3036.71
3156.8
3222.27
3234.7
3196.72
3112.98
2989.78
2834.67
2657.65
2473.59
2294.59
2124.85
1.34068
1.88234
4.25156
10.5223
37.8851
134.743
325.147
595.543
914.149
1246.2
1563.7
1848.43
2090.54
2285.81
2433.1
2532.35
2584.41
2592.96
2561.26
2494.4
2399.15
2283.54
2156.35
2026.66
1904.06
1.30111
1.45154
1.80536
2.77277
3.4655
19.4087
77.0445
197.441
375.257
590.448
820.902
1047.46
1255.74
1436.29
1583.65
1694.95
1769.42
1808.19
1815.29
1794.4
1750.11
1688.03
1614.27
1534.93
1455.8
1.3226
1.34165
1.42
1.57957
1.7455
2.1758
2.39045
20.195
68.3806
151.533
269.411
403.259
539.816
668.853
782.933
877.004
948.341
996.313
1021.77
1027.67
1016.85
992.432
958.168
917.845
875.016
1.37274
1.36276
1.37126
1.41464
1.4803
1.57505
1.65973
1.82906
1.95426
2.75189
18.3775
48.3969
90.4861
140.774
194.57
247.791
293.744
329.329
353.632
366.905
370.732
366.716
356.256
341.343
323.985
1.42929
1.42193
1.41165
1.41614
1.43109
1.467
1.50981
1.5657
1.61634
1.68292
1.75271
1.80459
1.84715
1.88157
1.90858
4.61828
8.88013
13.4073
17.2534
19.8533
20.9812
21.122
20.888
20.4061
19.773
1.48621
1.48615
1.48136
1.47206
1.46815
1.47814
1.49043
1.51461
1.54433
1.57678
1.61225
1.64842
1.68198
1.71441
1.74217
1.79063
1.82408
1.85565
1.88633
1.91638
1.94587
1.97488
2.00316
2.03033
2.05684
1.54755
1.55014
1.55216
1.55027
1.5467
1.5429
1.54396
1.54925
1.56276
1.57796
1.59549
1.61755
1.64192
1.66706
1.69225
1.71782
1.74346
1.76905
1.79458
1.81985
1.84558
1.87134
1.897
1.92248
1.94777
1.6187
1.62056
1.6241
1.62782
1.63079
1.63202
1.63321
1.63528
1.63866
1.64501
1.65403
1.66558
1.67949
1.6956
1.71464
1.73416
1.75348
1.77285
1.79362
1.81509
1.83708
1.85945
1.88212
1.90502
1.92809
1.70392
1.70409
1.70632
1.71037
1.71571
1.72157
1.72752
1.73363
1.73985
1.74671
1.75464
1.76381
1.77436
1.78624
1.7994
1.81389
1.82969
1.84662
1.86448
1.88316
1.90255
1.92257
1.94312
1.96412
1.9855
1.81505
1.81354
1.81393
1.8162
1.82025
1.8259
1.83285
1.84083
1.84965
1.85919
1.86945
1.88046
1.89228
1.90494
1.91845
1.93282
1.94805
1.96414
1.98103
1.99866
2.01695
2.03584
2.05525
2.07512
2.09539
1.94052
1.94031
1.94216
1.94559
1.95037
1.95642
1.9637
1.97213
1.98164
1.99213
2.00353
2.01577
2.02881
2.04261
2.05714
2.07237
2.08826
2.10478
2.1219
2.13956
2.15774
2.17637
2.19542
2.21482
2.23453
2.19842
2.17726
2.16545
2.15962
2.15791
2.15926
2.163
2.16871
2.17608
2.18491
2.19501
2.20627
2.21857
2.23182
2.24594
2.26085
2.27648
2.29279
2.3097
2.32717
2.34513
2.36353
2.38232
2.40143
2.42091
3.7865
3.64453
3.54499
3.47216
3.4174
3.37577
3.34419
3.32057
3.30343
3.29165
3.2844
3.28102
3.28099
3.28382
3.28916
3.29672
3.30623
3.31747
3.33024
3.34434
3.35961
3.37589
3.39304
3.41091
3.42951
1250.12
1241.49
1241.2
1459.28
1411.86
1457.42
1913.71
1855
1862.86
2072.58
2108.6
2183.03
1976.82
1863.97
1794.7
1802.59
1725.11
1665.75
1385.87
1327.57
1278.01
835.234
800.326
768.905
307.058
291.68
277.425
19.1527
18.5382
17.9536
2.0798
2.10256
2.12531
1.97143
1.9936
2.01522
1.94988
1.97036
1.99092
2.00585
2.02507
2.04443
2.11469
2.13294
2.15136
2.25326
2.27093
2.28875
2.4389
2.45623
2.47365
3.44622
3.46314
3.48018
1260.74
1218.46
1216.91
1216.52
1216.18
1215.87
1215.56
1215.26
1214.96
1214.66
1214.35
1214.05
1213.74
1213.43
1213.11
1212.8
1212.48
1212.16
1211.84
1211.52
1211.19
1210.87
1210.54
1210.21
1209.88
1209.55
1209.22
1208.89
1208.55
1208.22
1207.88
1207.55
1207.21
1206.87
1206.54
1206.2
1205.86
1205.52
1205.18
1204.84
1204.5
1204.16
1203.81
1203.47
1203.13
1202.78
1202.44
1202.1
1201.75
1201.41
1201.06
1200.36
1199.25
1197.68
1195.6
1192.95
1189.71
1185.83
1181.27
1175.98
1169.93
1163.1
1155.44
1146.95
1137.6
1127.38
1116.3
1104.4
1091.73
1078.39
1064.54
1050.44
1036.48
1023.32
1012.04
1004.26
1001.55
1000.85
999.902
1005.88
1231.54
1219.12
1220.82
1226.73
1238.65
1258.82
1288.36
1326.55
1369.98
1416.23
1463.84
1511.72
1559.11
1605.53
1650.67
1694.35
1736.47
1777
1815.92
1853.27
1889.07
1923.37
1956.24
1987.71
2017.84
2046.7
2074.35
2100.83
2126.21
2150.55
2173.92
2196.37
2217.94
2238.69
2258.64
2277.8
2296.17
2313.75
2330.51
2346.41
2361.41
2375.42
2388.38
2400.19
2410.72
2419.85
2427.43
2433.29
2437.21
2439.02
2438.58
2435.93
2430.69
2422.61
2411.39
2396.77
2378.46
2356.19
2329.69
2298.68
2262.91
2222.13
2176.1
2124.57
2067.29
2004.07
1934.75
1859.24
1777.57
1689.93
1596.77
1498.91
1397.84
1296.16
1198.29
1111.59
1047.63
1011.69
1000.8
998.324
1220.76
1221.19
1234.4
1268.09
1330.39
1422.06
1536.63
1664.59
1797.9
1933.17
2066.93
2197.08
2322.35
2442.13
2556.14
2664.39
2767
2864.18
2956.2
3043.32
3125.83
3204
3278.09
3348.35
3415.03
3478.33
3538.48
3595.67
3650.11
3701.99
3751.5
3798.81
3844.09
3887.45
3929
3968.78
4006.84
4043.18
4077.79
4110.63
4141.62
4170.66
4197.63
4222.35
4244.65
4264.3
4281.03
4294.55
4304.49
4310.49
4312.12
4308.92
4300.33
4285.73
4264.54
4236.14
4199.9
4155.19
4101.4
4037.95
3964.3
3879.88
3784.17
3676.52
3556.32
3422.98
3275.97
3114.94
2939.67
2750.19
2546.87
2330.63
2103.33
1868.56
1632.94
1408.32
1213.57
1073.7
1010.25
996.611
1221.27
1228.9
1270.97
1361.6
1506.51
1695.94
1913.5
2144.62
2379.43
2611.59
2836.67
3052.34
3257.46
3451.65
3635.02
3807.93
3970.86
4124.37
4269.06
4405.48
4534.19
4655.7
4770.51
4879.06
4981.77
5079.02
5171.17
5258.56
5341.53
5420.4
5495.49
5567.1
5635.52
5700.96
5763.58
5823.47
5880.69
5935.25
5987.16
6036.37
6082.78
6126.27
6166.66
6203.76
6237.3
6266.99
6292.48
6313.36
6329.15
6339.33
6343.29
6340.32
6329.54
6310.04
6280.92
6241.18
6189.78
6125.65
6047.73
5954.99
5846.44
5721.08
5577.94
5416.13
5234.53
5031.96
4807.34
4559.87
4289.13
3995.37
3679.24
3342.12
2986.33
2615.63
2236.42
1860.33
1508.89
1218.84
1042.4
996.322
1221.79
1242.71
1329.4
1494.74
1735.58
2029.32
2351.88
2685.37
3017.89
3341.83
3652.79
3948.63
4228.48
4492.25
4740.28
4973.17
5191.67
5396.57
5588.68
5768.81
5937.75
6096.24
6244.97
6384.61
6515.76
6638.99
6754.83
6863.76
6966.28
7062.86
7153.98
7240.11
7321.68
7399.04
7472.45
7542.05
7607.93
7670.18
7728.85
7783.93
7835.38
7883.12
7927.04
7967
8002.83
8034.31
8061.18
8083.09
8099.66
8110.4
8114.79
8112.19
8101.95
8083.17
8054.72
8015.29
7963.27
7896.89
7814.29
7713.69
7593.6
7451.89
7284.42
7089.85
6866.75
6613.92
6329.35
6010.79
5657.06
5267.87
4844.89
4390.86
3910.05
3408.44
2893.99
2377.76
1878.54
1433.36
1109.87
996.066
1222.21
1261.83
1402.05
1649.1
1987.45
2382.49
2804.41
3232.72
3654.33
4061.37
4449.57
4816.72
5161.86
5484.79
5785.8
6065.55
6324.91
6564.92
6786.69
6991.39
7180.18
7354.2
7514.51
7662.14
7798.03
7923.05
8038
8143.65
8240.7
8329.83
8411.66
8486.9
8556.15
8619.95
8678.68
8732.65
8782.11
8827.31
8868.46
8905.6
8938.37
8967.12
8992.17
9013.82
9032.3
9047.82
9060.55
9070.59
9077.99
9082.74
9084.76
9083.89
9080.28
9073.55
9063.08
9047.97
9026.9
8997.87
8957.86
8902.57
8827.48
8729.38
8601.12
8435.42
8226.13
7972.56
7674.42
7324.88
6925.77
6471.68
5964.91
5409.64
4813.17
4185.4
3539.31
2890.02
2255.86
1668.7
1201.36
995.807
1222.58
1284.11
1480.74
1809.3
2240.56
2729.53
3241.9
3755.32
4255.98
4735.72
5189.75
5615.2
6010.55
6375.28
6709.69
7014.72
7291.79
7542.61
7769.07
7973.05
8156.38
8320.73
8467.58
8598.22
8713.67
8815.18
8903.93
8980.93
9046.69
9099.97
9143.26
9178.26
9206.39
9228.82
9246.45
9260.04
9270.24
9277.61
9282.65
9285.77
9287.42
9288.71
9289.81
9290.71
9291.44
9292.01
9292.44
9292.73
9292.88
9292.9
9292.75
9292.44
9291.81
9290.79
9289.26
9287.08
9284.04
9279.82
9273.92
9265.54
9253.29
9234.54
9204.34
9153.78
9063.28
8909.65
8680.97
8366.21
7981.86
7516.07
6969.44
6345.93
5657.23
4917.97
4147.92
3370.7
2611.24
1899.13
1300.85
995.533
1222.98
1307.61
1559.34
1964.92
2481.41
3055
3647.8
4235.93
4804.74
5345.08
5850.92
6318.4
6745.52
7131.95
7478.77
7788.06
8062.45
8304.7
8517.31
8702.23
8860.69
8993.5
9101.07
9178.79
9234.08
9271.76
9295.85
9309.54
9315.36
9315.44
9315.44
9315.39
9315.3
9315.18
9315.04
9314.88
9314.69
9314.49
9314.28
9314.04
9313.78
9313.51
9313.25
9312.99
9312.72
9312.46
9312.21
9311.96
9311.71
9311.47
9311.24
9311.05
9311.06
9311.23
9311.49
9311.66
9311.54
9311.18
9310.69
9310.51
9310.09
9309.63
9307.75
9302.6
9292.37
9269.77
9206.61
9040.44
8745.11
8332.76
7803.36
7156.33
6408.81
5582.28
4704.13
3807.95
2931.12
2108.86
1399
995.24
1223.67
1331.03
1633.92
2109.66
2702.19
3350.31
4013.14
4665.3
5290.71
5878.53
6421.23
6914.29
7356.09
7747.51
8091.2
8390.41
8647.92
8864.98
9040.47
9169.76
9250.17
9294.99
9314.08
9314.52
9314.7
9314.68
9314.56
9314.33
9313.67
9312.59
9311.2
9309.41
9307.15
9304.33
9300.87
9296.67
9291.66
9285.75
9278.89
9271.09
9262.33
9252.7
9242.38
9231.69
9221.17
9211.2
9202.19
9194.58
9188.81
9185.31
9184.48
9186.59
9191.76
9200.07
9211.4
9225.37
9241.05
9257.3
9273.12
9287.41
9299.18
9308.34
9314.42
9317.07
9316.8
9316.15
9312.7
9295.21
9181.31
8892
8438.56
7816.76
7047.28
6161.31
5196.41
4195.85
3211.64
2291.85
1489.83
994.925
1224.52
1352.97
1702.04
2239.82
2898.54
3610.87
4333.33
5038.77
5709.16
6331.64
6897.57
7402.63
7846.57
8231.88
8561.58
8836.73
9054.38
9205.84
9284.62
9313.87
9314.89
9315.04
9314.66
9314.27
9313.43
9312.01
9309.7
9306.11
9301
9294.25
9285.27
9273.69
9259.68
9243.11
9223.96
9202.32
9178.39
9152.47
9124.99
9096.44
9067.43
9038.58
9010.57
8984.05
8959.56
8937.45
8918.35
8902.86
8891.61
8885.24
8884.37
8889.59
8901.38
8920
8945.43
8977.34
9015.03
9057.34
9102.64
9148.82
9193.44
9233.94
9268
9293.71
9309.14
9317.05
9319.26
9319.01
9316.08
9202.83
8874.62
8322.26
7565.63
6646.74
5617.28
4530.23
3451.68
2446.42
1570.06
994.582
1225.42
1372.69
1762.19
2353.29
3068.15
3834.42
4606.28
5354.54
6058.94
6704.86
7283.29
7791.11
8229.62
8601.01
8903.94
9130.16
9263.38
9312.51
9314.62
9315.8
9315.01
9314.49
9313.12
9310.57
9305.63
9297.74
9286.33
9270.86
9251.1
9226.89
9198.34
9165.9
9129.94
9090.28
9047.4
9001.85
8954.27
8905.33
8855.74
8806.19
8757.37
8709.97
8664.64
8622.07
8582.97
8548.09
8518.26
8494.32
8477.19
8467.79
8467.11
8476.17
8495.85
8526.69
8568.95
8622.5
8686.64
8760.05
8840.65
8925.46
9010.7
9092.02
9164.94
9225.47
9270.81
9299.9
9314.33
9318.19
9318.73
9304.56
9133.99
8683.49
7967.31
7037.6
5963.55
4808.54
3650.97
2572.78
1637.86
994.217
1226.31
1389.78
1813.45
2448.91
3209.9
4020.05
4831.37
5612.6
6341.34
7001.79
7585.47
8090.64
8518.37
8865.98
9122.52
9271.2
9315.32
9316.91
9316.78
9315.63
9314.32
9311.52
9305.71
9295.65
9280.21
9259.01
9231.53
9197.45
9157.04
9110.81
9059.48
9003.71
8943.9
8880.51
8814.26
8745.88
8676.14
8605.79
8535.57
8466.22
8398.5
8333.21
8271.21
8213.39
8160.71
8114.13
8074.64
8043.26
8021.04
8009.09
8008.64
8021
8047.35
8088.47
8144.84
8216.92
8304.73
8407.12
8521.98
8645.88
8774.17
8901.04
9019.85
9123.77
9207.02
9266.23
9301.39
9315.45
9318.27
9316.28
9249.71
8922.08
8262.4
7337.48
6235.11
5029.52
3809.4
2671.69
1692.2
993.84
1227.12
1403.97
1855.36
2526.18
3323.49
4167.7
5008.97
5814.12
6559.07
7227.54
7811.97
8311.19
8723.51
9039.5
9242.07
9314.74
9318.26
9317.45
9316.57
9314.63
9310.9
9303.2
9289.75
9269.2
9240.71
9203.9
9158.59
9105.15
9044.41
8977.36
8905.1
8828.53
8748.32
8665.08
8579.52
8492.38
8404.49
8316.67
8229.81
8144.85
8062.8
7984.73
7911.74
7844.91
7785.25
7733.68
7691.02
7658
7635.18
7623.22
7623.05
7636.01
7664.21
7710.16
7774.03
7855.73
7958.45
8080.91
8221.21
8375.6
8538.9
8704.45
8864.24
9009.23
9130.5
9221.46
9280.1
9309.59
9317.8
9317.03
9291
9064.65
8464.03
7551.91
6433.38
5192.7
3926.7
2743.9
1732.43
993.46
1227.85
1415.16
1887.78
2585.14
3409.16
4277.89
5140.01
5960.88
6715.33
7387.16
7969.69
8461.63
8858.47
9145.49
9293.08
9317.97
9318.88
9317.6
9316.09
9312.74
9305.71
9292.48
9271.28
9240.86
9200.6
9150.32
9090.32
9021.51
8945.09
8862.35
8774.6
8683.02
8588.45
8491.47
8392.74
8293.1
8193.51
8095.05
7998.93
7906.46
7819.06
7738.14
7665.04
7600.93
7546.84
7503.86
7474.24
7455.58
7444.87
7439.76
7438.87
7441.92
7451.34
7476.89
7530.38
7609.25
7715.62
7847.07
8001.63
8174.95
8361.08
8552.59
8740.69
8915.27
9065.35
9181.66
9259.29
9301.49
9317.25
9317.05
9299.96
9137.84
8585.02
7686.22
6559.86
5297.75
4002.34
2789.8
1758.07
993.091
1228.46
1423.38
1910.94
2626.3
3467.73
4351.66
5225.88
6054.89
6813.14
7484.85
8064.1
8549.36
8933.76
9197.17
9305.15
9318.72
9319.22
9317.76
9315.78
9311.21
9301.71
9284.72
9258.5
9221.93
9174.53
9116.32
9047.96
8970.61
8885.64
8794.51
8698.65
8599.39
8497.67
8394.07
8289.27
8184.16
8079.82
7977.52
7878.69
7784.89
7697.73
7618.79
7549.54
7491.51
7447.41
7423.45
7419.49
7420.02
7419.82
7419.32
7418.53
7417.89
7417.63
7417.64
7440.24
7505.77
7608.13
7740.43
7899.66
8080.75
8276.96
8480.16
8680.99
8869.02
9032.45
9161.07
9248.44
9296.03
9316.82
9316.8
9301.84
9165.88
8634.81
7743.91
6615.22
5343.97
4035.32
2809.19
1768.59
992.738
1228.98
1428.95
1925.6
2650.84
3500.6
4390.55
5268.23
6098.12
6854.96
7523.6
8098.78
8579.11
8957.32
9212.04
9306.71
9319.09
9319.64
9318.14
9316.07
9311.35
9301.5
9284.02
9257.19
9219.96
9171.86
9112.98
9044
8966.11
8880.73
8789.3
8693.31
8594.09
8492.65
8389.66
8285.78
8181.85
8078.88
7978.07
7880.77
7788.41
7702.5
7624.46
7555.57
7497.05
7449.29
7430.29
7424.42
7422.15
7421.2
7420.83
7420.79
7421.01
7421.19
7431.36
7465.7
7533.62
7635.97
7768.34
7927.01
8106.84
8301.08
8501.63
8699.19
8883.46
9042.82
9167.52
9251.65
9296.93
9316.52
9316.52
9301.45
9158.08
8617.02
7725.42
6598.52
5329.84
4024.13
2801.27
1763.96
992.385
1229.42
1432.26
1932.86
2660.53
3509.98
4396.76
5269.11
6092.41
6842.46
7505.07
8075.6
8553.35
8932.47
9194.36
9302.68
9319.2
9320.07
9318.99
9317.16
9313.36
9305.38
9290.82
9267.93
9235.6
9193.29
9140.95
9079.06
9008.57
8930.71
8846.85
8758.42
8666.67
8572.61
8477
8380.55
8284.02
8188.25
8094.2
8002.93
7915.56
7833.25
7757.17
7688.21
7628.02
7573.64
7529.95
7499.01
7479.81
7469.74
7465.66
7467.97
7478.35
7500.02
7538.86
7599.59
7683.98
7792.71
7924.99
8078.19
8247.91
8428.3
8612.1
8790.8
8954.82
9093.54
9199.29
9267.78
9302.81
9316.71
9316.14
9296.53
9108.37
8527.07
7627.08
6506.79
5252.8
3966.5
2764.46
1745.72
989.387
1229.87
1434.27
1935.03
2658.58
3499
4373.08
5230.72
6039.29
6776.45
7429.34
7993.96
8470.54
8855.94
9137.43
9283.55
9318.72
9320.62
9320.17
9318.77
9316.24
9311.19
9301.66
9285.87
9262.53
9230.91
9190.73
9142.15
9085.69
9022.23
8952.86
8878.77
8801.14
8720.91
8638.87
8555.75
8472.28
8389.21
8307.33
8227.45
8150.42
8077.1
8008.38
7945.06
7888.14
7837.92
7794.9
7759.31
7732.14
7714.59
7707.56
7711.98
7729.44
7762.06
7811.63
7879.47
7966.22
8071.62
8194.27
8331.6
8479.9
8634.18
8788.05
8934.05
9063.78
9168.59
9244.5
9289.33
9309.92
9316.94
9315.25
9277.5
8995.73
8354.84
7441.99
6335
5109.07
3859.69
2696.9
1712.87
983.173
1230.47
1437.1
1935.99
2649.75
3472.29
4323.32
5155.76
5940.13
6656.86
7294.89
7850.84
8325.72
8719.26
9025.33
9225.04
9308.94
9320.97
9321.35
9320.78
9319.35
9316.66
9311.74
9303.26
9289.97
9270.94
9245.56
9213.62
9175.19
9130.68
9080.72
9026.15
8967.85
8906.65
8843.29
8778.46
8712.84
8647.1
8581.95
8518.09
8456.23
8397.08
8341.35
8289.76
8243.03
8201.92
8167.09
8139.15
8118.78
8106.71
8104.03
8111.48
8130.51
8162.62
8208.73
8269.27
8344.08
8432.39
8532.69
8642.62
8758.82
8876.43
8989.99
9093.24
9179.52
9243.58
9286.07
9306.33
9314.09
9315.72
9311.16
9193.74
8780.98
8080.15
7159.35
6075.83
4893.55
3700.19
2596.14
1663.86
973.245
1231.52
1441.89
1939.97
2639.28
3434.05
4250.17
5045.62
5795.01
6482.21
7098.4
7640.9
8111.01
8510.55
8838.79
9086.86
9246.21
9311.81
9320.1
9321.18
9321.24
9320.72
9319.12
9316
9310.3
9301.53
9289.08
9272.5
9251.56
9226.27
9196.83
9163.57
9126.99
9087.6
9045.94
9002.54
8957.96
8912.75
8867.49
8822.77
8779.21
8737.39
8697.94
8661.46
8628.57
8599.88
8576.03
8557.62
8545.23
8539.4
8540.74
8549.73
8567.2
8594.06
8630.78
8677.42
8733.68
8798.73
8870.99
8947.95
9026.11
9100.93
9169.14
9226.13
9268.14
9294.78
9308.8
9312.78
9314.73
9313.45
9249.01
8969.72
8431.01
7682.2
6765.26
5719.77
4600.06
3483.98
2459.38
1597.14
959.015
1234.59
1461.32
1960.11
2636.84
3390.06
4155.3
4898.59
5599.94
6247.11
6833.22
7355.77
7815.82
8216
8558.67
8842.41
9062.04
9216.92
9293.79
9313.01
9318.07
9319.88
9320.53
9320.79
9320.26
9318.6
9315.49
9310.59
9303.14
9292.56
9279.27
9263.53
9245.53
9225.48
9203.65
9180.33
9155.87
9130.63
9105
9079.39
9054.26
9030.02
9007.14
8986.06
8967.23
8951.12
8938.16
8928.8
8923.41
8922.43
8926.08
8934.63
8948.48
8967.99
8993.15
9024.2
9060.55
9100.83
9142.94
9184.33
9222.34
9254.73
9280.11
9297.26
9307.06
9311.73
9313.44
9313.22
9311.21
9234.03
8991.22
8537.95
7911.34
7138.78
6243.87
5256.17
4222.43
3208.07
2285.24
1511.81
939.605
1241
1490.54
2005.08
2651.6
3345.84
4040.57
4713.52
5351.03
5944.74
6489.49
6983.01
7425.58
7819.19
8166.65
8470.07
8728.84
8941.85
9112.27
9222.81
9277.04
9299.11
9309.09
9314.28
9317.06
9318.31
9318.77
9319.19
9319.64
9319.23
9317.83
9315.39
9311.95
9307.49
9301.78
9294.83
9286.74
9277.65
9267.75
9257.26
9246.43
9235.83
9225.8
9216.63
9208.59
9201.93
9196.91
9193.75
9192.7
9194.06
9197.88
9204.15
9212.75
9223.48
9235.94
9249.67
9263.43
9276.25
9287.44
9296.62
9303.71
9308.85
9312.33
9314.24
9314.71
9314.29
9313.3
9267.86
9130.13
8849.92
8420.68
7864.8
7196.69
6429.51
5580.32
4675.53
3755.78
2871.97
2076.81
1411.78
915.511
1331.15
1656.67
2138.1
2708.7
3308.31
3905.78
4487.14
5043.04
5567.57
6056.86
6508.94
6923.38
7300.83
7642.79
7951.21
8227.65
8472.27
8687.08
8873.96
9024.75
9135.06
9207.99
9249.47
9273.59
9288.63
9298.17
9304.44
9308.81
9311.81
9313.74
9314.68
9315.05
9315.39
9315.72
9316.04
9316.31
9316.63
9316.93
9317.19
9317.15
9316.9
9316.52
9316.09
9315.7
9315.41
9315.28
9315.35
9315.56
9315.77
9315.98
9316.2
9316.41
9316.63
9316.85
9317.06
9317.28
9317.46
9317.55
9317.66
9317.62
9317.41
9316.98
9315.14
9283.03
9205.82
9062.93
8825.54
8487.56
8057.78
7541.83
6944.99
6274.9
5543.62
4768.59
3975.01
3197.35
2472.57
1833.27
1301.61
887.831
1636.13
1969.57
2350.2
2794.67
3264.25
3738.69
4208.2
4665.3
5105.15
5524.54
5921.54
6294.88
6643.62
6967.43
7266.75
7542.62
7795.97
8027.49
8239.64
8432.27
8604.35
8757.11
8885.39
8988.58
9070.12
9130.75
9173.85
9204.81
9227.65
9244.93
9258.3
9268.49
9276.32
9282.43
9287.27
9291.18
9294.35
9296.93
9299.03
9300.74
9302.11
9303.2
9304.04
9304.67
9305.12
9305.42
9305.63
9305.76
9305.8
9305.74
9305.56
9305.24
9304.74
9304.02
9303.02
9301.72
9297.71
9286.39
9263.95
9225.44
9164.38
9072.23
8938.73
8747.84
8502.18
8198.38
7833.89
7408.13
6922.21
6379.55
5786.83
5154.45
4496.13
3828.45
3172.81
2554.76
1998.72
1523.91
1143.23
873.722
2009.32
2246.07
2498.18
2805.71
3137.56
3482.76
3833.81
4184.88
4532.06
4872.35
5203.25
5522.53
5828.14
6118.65
6393.3
6651.93
6894.85
7122.39
7335.22
7534.29
7720.32
7894.08
8055.33
8202.47
8337.16
8459.67
8568.75
8664.16
8746.68
8817.6
8878.3
8930.33
8973.88
9009.68
9039.07
9063.28
9083.24
9099.69
9113.16
9124.1
9132.79
9139.47
9144.29
9147.33
9148.57
9147.79
9144.76
9139.23
9130.77
9118.84
9102.66
9081.22
9053.18
9016.82
8969.93
8909.78
8832.61
8734.99
8614.61
8468.13
8291.82
8081.94
7834.97
7548.37
7220.19
6849.46
6436.65
5984
5495.85
4978.89
4442.09
3896.27
3352.96
2824.37