/*--------------------------------*- C++ -*----------------------------------*\
| =========                 |                                                 |
| \\      /  F ield         | OpenFOAM: The Open Source CFD Toolbox           |
|  \\    /   O peration     | Version:  v2012                                 |
|   \\  /    A nd           | Website:  www.openfoam.com                      |
|    \\/     M anipulation  |                                                 |
\*---------------------------------------------------------------------------*/
FoamFile
{
    version     2.0;
    format      ascii;
    class       volScalarField;
    location    "659";
    object      k;
}
// * * * * * * * * * * * * * * * * * * * * * * * * * * * * * * * * * * * * * //

dimensions      [0 2 -2 0 0 0 0];


internalField   nonuniform List<scalar> 
6508
(
1.79967
2.26842
2.35467
2.3772
2.38698
2.38698
2.3772
2.35467
2.26842
1.79967
1.00867
1.6113
1.7774
1.83071
1.84761
1.84761
1.83071
1.7774
1.6113
1.00867
0.643263
1.19066
1.38047
1.45228
1.47652
1.47652
1.45228
1.38047
1.19066
0.643263
0.449224
0.91378
1.09983
1.17918
1.20837
1.20837
1.17918
1.09983
0.913781
0.449224
0.334653
0.724317
0.895975
0.97584
1.00734
1.00734
0.975841
0.895976
0.724318
0.334654
0.261278
0.589632
0.74405
0.820564
0.852334
0.852335
0.820565
0.744052
0.589634
0.261278
0.211233
0.490559
0.628099
0.699436
0.730179
0.730179
0.699437
0.628101
0.490561
0.211233
0.175373
0.41549
0.53768
0.603196
0.632194
0.632195
0.603198
0.537683
0.415493
0.175374
0.148649
0.357145
0.465812
0.525499
0.55243
0.552431
0.525502
0.465815
0.357149
0.14865
0.128093
0.310802
0.407716
0.461889
0.486671
0.486673
0.461893
0.407721
0.310807
0.128095
0.111867
0.273301
0.360051
0.409164
0.431855
0.431857
0.409168
0.360058
0.273309
0.11187
0.0987832
0.242467
0.320431
0.364978
0.385707
0.38571
0.364985
0.320441
0.242477
0.0987867
0.088042
0.216761
0.287118
0.327584
0.346512
0.346516
0.327594
0.287131
0.216775
0.0880467
0.0790899
0.195073
0.258821
0.29566
0.312955
0.31296
0.295672
0.258839
0.195092
0.0790963
0.0715319
0.176581
0.234566
0.268187
0.284013
0.28402
0.268204
0.23459
0.176607
0.0715406
0.0650795
0.160667
0.213607
0.244374
0.258885
0.258895
0.244399
0.213641
0.160703
0.0650912
0.0595174
0.14686
0.195364
0.223598
0.236934
0.236946
0.223633
0.19541
0.146909
0.059533
0.0546815
0.134793
0.179381
0.205363
0.217648
0.217665
0.20541
0.179444
0.134855
0.054702
0.0504452
0.124174
0.165291
0.189267
0.200614
0.200638
0.189332
0.16538
0.124254
0.0504714
0.0467088
0.114775
0.152802
0.174988
0.185496
0.185528
0.175076
0.15292
0.114844
0.0467403
0.0433927
0.106407
0.141675
0.162257
0.172015
0.172059
0.16238
0.141841
0.106555
0.0436198
0.0404331
0.0989193
0.131712
0.150856
0.159942
0.160002
0.151024
0.131947
0.0991709
0.0418822
0.0377778
0.0921861
0.122752
0.140602
0.149086
0.149164
0.140822
0.123069
0.0926452
0.0412695
0.0353837
0.0861043
0.114659
0.131343
0.139284
0.139381
0.131612
0.11503
0.086935
0.0418186
0.0332155
0.0805876
0.107321
0.122948
0.1304
0.130513
0.123244
0.107738
0.0820679
0.0435848
0.0312433
0.0755636
0.100642
0.115312
0.122321
0.122448
0.115621
0.101188
0.0780488
0.0463976
0.0294423
0.0709707
0.0945413
0.10834
0.114949
0.115099
0.108723
0.0953692
0.0747473
0.0499463
0.0277911
0.0667564
0.0889488
0.101955
0.108205
0.10839
0.102476
0.090222
0.0721386
0.0539211
0.0262714
0.0628753
0.0838052
0.0960892
0.102018
0.102255
0.0968149
0.0856846
0.0701388
0.0575876
0.0248675
0.0592876
0.0790584
0.090684
0.0963282
0.0966338
0.0916828
0.0816934
0.068623
0.0604539
0.0235655
0.0559594
0.0746629
0.0856884
0.0910825
0.0914763
0.087027
0.0781845
0.067468
0.0625944
0.0223534
0.0528599
0.070579
0.0810578
0.0862346
0.0867357
0.0827975
0.075086
0.0664898
0.0640697
0.0212202
0.0499615
0.0667714
0.0767525
0.0817435
0.0823698
0.0789465
0.0723229
0.0655771
0.0649338
0.0201562
0.04724
0.0632086
0.0727378
0.0775726
0.0783403
0.0754288
0.0698283
0.0646563
0.0652408
0.0191526
0.0446738
0.0598629
0.0689826
0.0736892
0.0746123
0.0722022
0.0675441
0.0636705
0.0650406
0.0182015
0.0422436
0.0567094
0.0654594
0.0700641
0.0711541
0.0692282
0.0654196
0.0625806
0.0643832
0.0172955
0.0399325
0.0537262
0.0621437
0.0666712
0.067937
0.0664724
0.0634135
0.0613655
0.0633236
0.0164281
0.0377258
0.0508939
0.0590142
0.0634877
0.0649356
0.0639053
0.0614951
0.0600231
0.0619248
0.0155933
0.0356105
0.0481955
0.0560518
0.060493
0.0621279
0.0615025
0.0596451
0.0585691
0.0602595
0.0147857
0.0335757
0.0456162
0.0532396
0.0576691
0.0594945
0.0592453
0.0578554
0.0570347
0.0584098
0.0140005
0.0316118
0.0431424
0.0505623
0.0549995
0.0570183
0.0571194
0.0561269
0.0554625
0.0564655
0.0132333
0.0297105
0.0407616
0.048005
0.052468
0.0546834
0.0551136
0.0544671
0.0539008
0.0545192
0.0124802
0.0278648
0.0384616
0.0455523
0.0500578
0.0524736
0.0532177
0.0528847
0.0523967
0.0526597
0.0117378
0.0260684
0.0362294
0.0431872
0.0477496
0.0503699
0.0514187
0.0513847
0.0509877
0.0509616
0.011003
0.0243154
0.0340515
0.0408902
0.0455204
0.0483483
0.0496975
0.0499623
0.0496938
0.049475
0.0102728
0.0225998
0.0319124
0.0386378
0.0433411
0.0463779
0.0480256
0.0485982
0.0485105
0.0482148
0.00954435
0.0209156
0.0297949
0.0364019
0.041176
0.0444182
0.046362
0.0472548
0.0474047
0.0471542
0.00881481
0.0192566
0.0276798
0.0341497
0.0389817
0.0424187
0.0446521
0.045875
0.046314
0.046223
0.00808089
0.0176165
0.0255464
0.0318441
0.0367073
0.0403185
0.0428277
0.044383
0.04515
0.0453135
0.00733862
0.0159884
0.0233732
0.029445
0.0342967
0.038049
0.0408101
0.0426891
0.0438053
0.0442909
0.00658267
0.0143653
0.0211397
0.0269128
0.0316929
0.0355391
0.038516
0.0406967
0.0421637
0.0430091
0.00580507
0.0127368
0.0188323
0.0242186
0.028849
0.0327257
0.0358684
0.0383145
0.0401142
0.0413277
0.00499087
0.0110774
0.0164349
0.0213508
0.0257451
0.0295745
0.0328174
0.0354759
0.0375709
0.0391336
0.00410447
0.00951922
0.0140319
0.0183607
0.0224144
0.0261043
0.0293662
0.0321667
0.0344959
0.0363606
0.00315937
0.00819752
0.0119119
0.0155175
0.0190688
0.0224759
0.0256352
0.0284709
0.0309422
0.0330249
0.00215521
0.00695717
0.0102079
0.0131593
0.0161107
0.0190692
0.0219483
0.0246567
0.0271212
0.0292914
0.00115074
0.00551066
0.00866719
0.0113046
0.01381
0.0163112
0.0188003
0.0212151
0.0234891
0.0255634
0.000889529
0.00365289
0.00688803
0.00957891
0.0119729
0.0142265
0.0163868
0.018447
0.0203854
0.0221743
0.00087123
0.00215356
0.00509369
0.00769703
0.0101358
0.0122684
0.0141763
0.0158692
0.0173762
0.0187219
0.000983734
0.00173578
0.00265032
0.00394625
0.00536809
0.00653599
0.00744865
0.00823925
0.00891735
0.00948635
0.00923469
0.00331623
0.00336407
0.00351385
0.00362234
0.00366522
0.00364674
0.00357003
0.00343892
0.00328552
0.00310497
0.00290038
0.00268075
0.00245458
0.00222587
0.00199718
0.00176693
0.00156374
0.00137688
0.00119951
0.00102747
0.000856938
0.000682916
0.000497143
0.000270573
0.018009
0.00793927
0.00707021
0.00714394
0.00730085
0.00738916
0.00736719
0.00722438
0.00695347
0.00660241
0.00620487
0.00577972
0.00534228
0.004904
0.00447292
0.00405377
0.0036462
0.00322707
0.00280494
0.00238624
0.00198113
0.00160258
0.00127034
0.000975905
0.000502834
0.0271032
0.0133119
0.0100333
0.00927169
0.0090814
0.00896874
0.00880493
0.00855329
0.00820325
0.00775901
0.00726941
0.00675395
0.00622863
0.0057064
0.00519873
0.00471383
0.00425369
0.00380635
0.0033648
0.00292189
0.00247354
0.00202579
0.00160272
0.00121446
0.00060588
0.0371474
0.0202563
0.0135494
0.0114675
0.0105794
0.0100505
0.00961557
0.00918735
0.00873089
0.00822907
0.00768532
0.00712743
0.00656488
0.00600702
0.00546595
0.00495204
0.00447069
0.00401699
0.00358152
0.00315102
0.00271109
0.002254
0.00178994
0.00132949
0.000649024
0.0470656
0.0292705
0.0185444
0.0142248
0.0122574
0.0111067
0.0102969
0.0096395
0.00905199
0.00849071
0.00792877
0.00734691
0.00676766
0.00618806
0.00562084
0.00507886
0.00457298
0.00410506
0.00366759
0.00324484
0.00281741
0.0023676
0.00189007
0.00138194
0.000656875
0.0545405
0.0385437
0.0247686
0.017709
0.014313
0.0123749
0.011083
0.0101412
0.00939555
0.0087593
0.00817593
0.00760508
0.00702079
0.00641887
0.00581886
0.00523338
0.00468425
0.00418156
0.00372347
0.00329222
0.00286568
0.00242009
0.00193811
0.00139978
0.000645665
0.059764
0.0474031
0.0317434
0.0219958
0.0168793
0.0139659
0.0121118
0.0108172
0.00987178
0.00914101
0.00852755
0.00796105
0.00739104
0.0067899
0.00615496
0.00550338
0.00488497
0.00431733
0.00381124
0.00334787
0.00290307
0.00244884
0.00195888
0.00139827
0.00062445
0.0636343
0.0544622
0.0385314
0.0268962
0.0199967
0.0159251
0.0134109
0.0117235
0.0105325
0.00967924
0.00902412
0.00846092
0.00790895
0.00731441
0.00665665
0.00595289
0.00524627
0.00457874
0.00398276
0.00345406
0.00296481
0.00248178
0.00197142
0.00138735
0.000597611
0.0665554
0.0600888
0.0448832
0.0322362
0.0235914
0.0182857
0.0149877
0.0128549
0.0113933
0.0103865
0.00967277
0.00911035
0.00858721
0.00801843
0.00735546
0.0065991
0.00579762
0.00500773
0.00428502
0.00365545
0.00308771
0.00254741
0.00199527
0.00137539
0.000567536
0.0686958
0.0643846
0.0505398
0.0372929
0.0273753
0.0209296
0.0168384
0.0142074
0.0124443
0.0112614
0.0104685
0.0098985
0.00941439
0.00889945
0.00826774
0.00748481
0.00659212
0.00566133
0.00476296
0.00398151
0.00329339
0.00266173
0.0020436
0.0013757
0.000541935
0.0701726
0.0675051
0.0553765
0.0419778
0.031208
0.0237569
0.0189096
0.0157759
0.0136948
0.0123025
0.0114067
0.0108123
0.0103684
0.00993488
0.00938699
0.00863797
0.0076835
0.00660894
0.00550468
0.00449669
0.00362136
0.00284791
0.00212909
0.00138986
0.000523372
0.0710603
0.0696623
0.0592519
0.04613
0.0349578
0.0266482
0.0211215
0.0175156
0.0151256
0.0135261
0.0124824
0.0118373
0.011417
0.0110743
0.0106581
0.0100306
0.00910494
0.00791778
0.00660246
0.00529292
0.0041386
0.00314213
0.00227098
0.0014279
0.000511591
0.0713896
0.0709727
0.0621602
0.0495964
0.0382501
0.0294468
0.0233853
0.0193724
0.0166998
0.0149029
0.0137154
0.012963
0.0125269
0.0122475
0.0119764
0.0115437
0.0107864
0.0096142
0.00810988
0.00648236
0.00495277
0.00363049
0.00252316
0.00151453
0.000509547
0.0712122
0.0715271
0.0641508
0.0524179
0.0411563
0.0321593
0.0256471
0.0212923
0.018377
0.0164079
0.0150862
0.0142216
0.0136913
0.01341
0.0132332
0.0130043
0.0125223
0.0115795
0.0100654
0.00816697
0.00617083
0.00441948
0.0029639
0.00169232
0.000524991
0.070546
0.071394
0.0652903
0.0546608
0.0436332
0.0345524
0.0278411
0.0232185
0.0201148
0.0180152
0.0165889
0.0156185
0.0149773
0.0145882
0.0143996
0.0142797
0.0140593
0.0134931
0.0122712
0.0103112
0.0079272
0.00561482
0.00368973
0.00203115
0.000573993
0.0694153
0.0706498
0.0657136
0.0563286
0.0457191
0.0367003
0.0299108
0.0251246
0.0218789
0.019697
0.0182146
0.0171789
0.0164398
0.0159164
0.0155845
0.0154124
0.0152843
0.0150219
0.0142901
0.0127172
0.0102266
0.00727042
0.00476763
0.00259924
0.000680007
0.0678608
0.0693687
0.0655105
0.0574212
0.0475135
0.0386497
0.0318383
0.0270042
0.0236534
0.0214256
0.0199419
0.0189094
0.0181404
0.0175275
0.0170215
0.0166519
0.0163873
0.0161587
0.0157701
0.0147924
0.0127768
0.00966883
0.00627309
0.00342344
0.000860724
0.0659384
0.0676211
0.0647462
0.0579227
0.0490908
0.0404695
0.0336764
0.0288004
0.0254459
0.0231741
0.0217231
0.0207625
0.0200617
0.0194698
0.0189046
0.0183392
0.0177779
0.0172977
0.0168281
0.016196
0.0148523
0.0122072
0.00823327
0.00447408
0.00110897
0.0637183
0.065479
0.0634789
0.0579013
0.0502493
0.0422777
0.0355022
0.0305612
0.0271665
0.0249244
0.0234931
0.0226368
0.0220849
0.0216392
0.0211626
0.0205767
0.0198574
0.0190099
0.0181351
0.0172472
0.0162082
0.0142922
0.0107813
0.00584263
0.00140921
0.0612846
0.0630214
0.06177
0.0573861
0.0509356
0.0438692
0.0374126
0.0323601
0.0288679
0.0265929
0.0252059
0.0244317
0.0240571
0.0238477
0.0236183
0.0232269
0.022576
0.0216178
0.020361
0.0188796
0.017361
0.0156123
0.0127612
0.00791084
0.00174117
0.0587355
0.0603405
0.0596868
0.0564005
0.0511469
0.0450536
0.0391972
0.0343033
0.0306277
0.0282327
0.0268129
0.026089
0.0258532
0.0258944
0.0259967
0.0259758
0.0256726
0.0249505
0.0237017
0.0218934
0.0195734
0.0170327
0.0141133
0.00999069
0.00209834
0.05618
0.0575456
0.0573128
0.0549764
0.0508737
0.045804
0.0406519
0.0361026
0.0325031
0.0299592
0.0283651
0.027608
0.0274144
0.0276362
0.0280512
0.0284583
0.0286718
0.0285081
0.0277625
0.0262188
0.0237246
0.0202851
0.0161442
0.0115258
0.00584087
0.0537325
0.0547646
0.0547603
0.0531807
0.0501125
0.0460708
0.0417193
0.0376499
0.0342417
0.031673
0.0299643
0.0290494
0.028794
0.0290354
0.0296353
0.0303914
0.0311195
0.0316438
0.0317428
0.031109
0.0293855
0.0262428
0.0215383
0.0157952
0.00923772
0.0515017
0.0521372
0.052174
0.0511243
0.0489142
0.0458231
0.0423076
0.0388332
0.0357544
0.0332851
0.0315184
0.0304562
0.0300411
0.030175
0.0307448
0.031652
0.0327143
0.0337999
0.0347477
0.0352762
0.0350184
0.0335019
0.0301716
0.024746
0.0180382
0.0495753
0.0497989
0.049722
0.0489674
0.0473912
0.0451029
0.042379
0.0395518
0.0369126
0.0346702
0.0329506
0.0318051
0.0312312
0.0311875
0.0315941
0.0323688
0.0334189
0.0347037
0.0361636
0.0375516
0.0386374
0.0391167
0.0385202
0.036295
0.0322251
0.0480021
0.0478566
0.0475713
0.0469058
0.0457211
0.0440309
0.0419767
0.0397682
0.0376171
0.0356978
0.0341357
0.0330047
0.0323345
0.0321189
0.0323182
0.032866
0.0337143
0.0348671
0.0362881
0.0378973
0.0395869
0.0412105
0.0424271
0.0429036
0.0423157
0.0467776
0.0463614
0.0458506
0.0451342
0.0441246
0.0428057
0.0412392
0.0395411
0.0378467
0.0362824
0.0349508
0.0339243
0.033245
0.0329259
0.0329514
0.0332779
0.0338631
0.03473
0.0358734
0.0372718
0.0388825
0.0406265
0.0423535
0.0438474
0.0448483
0.045837
0.0452884
0.0446119
0.0437945
0.0428137
0.0416679
0.0403889
0.0390382
0.0376945
0.0364384
0.0353425
0.0344628
0.0338376
0.0334865
0.0334074
0.0335708
0.0339349
0.0345165
0.0353238
0.0363576
0.0376106
0.0390569
0.0406359
0.0422364
0.0436929
0.0450593
0.0445315
0.043805
0.0429255
0.0419234
0.0408271
0.0396713
0.0385002
0.0373632
0.0363101
0.035386
0.0346282
0.0340645
0.0337117
0.0335728
0.033635
0.0338445
0.0342082
0.0347368
0.0354324
0.0362963
0.0373264
0.0385072
0.0397992
0.0411279
0.0442817
0.0439165
0.0432792
0.0424389
0.0414546
0.0403796
0.0392646
0.038157
0.0370995
0.0361297
0.0352784
0.0345697
0.0340209
0.0336426
0.0334388
0.0334045
0.0335135
0.0337237
0.0340437
0.0344827
0.0350395
0.0357116
0.036497
0.0373853
0.0383499
0.0433216
0.0432305
0.0428113
0.0421324
0.0412606
0.0402612
0.0391958
0.0381198
0.0370803
0.0361156
0.0352546
0.0345177
0.0339182
0.0334632
0.0331552
0.0329938
0.03297
0.0330643
0.0332311
0.0334735
0.0337994
0.0342065
0.0346877
0.0352398
0.0358524
0.042002
0.042255
0.0421476
0.0417376
0.0410863
0.0402574
0.0393136
0.0383139
0.0373098
0.0363442
0.03545
0.034651
0.0339626
0.0333936
0.0329476
0.0326251
0.0324241
0.0323387
0.0323535
0.0324514
0.0325952
0.0327931
0.0330461
0.0333467
0.0336884
0.0401722
0.0407952
0.0410486
0.0409772
0.0406306
0.0400633
0.0393316
0.038491
0.037593
0.0366824
0.0357961
0.0349624
0.0342018
0.0335276
0.0329478
0.0324659
0.032083
0.0317979
0.0316065
0.031502
0.0314713
0.0315047
0.0315858
0.0316983
0.0318358
0.0377299
0.0387068
0.0393243
0.0396139
0.0396128
0.0393638
0.0389133
0.0383091
0.0375976
0.0368219
0.0360193
0.0352208
0.0344506
0.0337269
0.0330622
0.0324647
0.0319391
0.0314878
0.0311111
0.0308072
0.0305721
0.0304008
0.0302852
0.0302168
0.0301907
0.0346562
0.0359323
0.0368737
0.0374998
0.0378364
0.0379148
0.0377711
0.037444
0.0369731
0.0363961
0.035748
0.0350592
0.0343554
0.0336574
0.0329812
0.0323386
0.031738
0.0311852
0.0306835
0.0302347
0.0298387
0.0294942
0.0291983
0.0289472
0.0287378
0.0310732
0.0325511
0.0337316
0.0346235
0.0352417
0.0356073
0.0357464
0.0356891
0.0354673
0.0351128
0.034656
0.0341249
0.033544
0.0329344
0.0323135
0.0316953
0.0310907
0.0305078
0.0299525
0.0294289
0.0289396
0.0284857
0.0280673
0.0276838
0.0273352
0.0273259
0.0288493
0.0301284
0.0311558
0.0319388
0.0324914
0.0328311
0.0329798
0.0329619
0.0328023
0.0325261
0.0321569
0.0317165
0.0312245
0.0306976
0.0301501
0.0295937
0.0290377
0.0284896
0.0279548
0.0274375
0.0269405
0.0264655
0.0260138
0.0255874
0.0237225
0.0250957
0.0262866
0.0272876
0.0280858
0.0286778
0.0290823
0.029317
0.0294006
0.0293525
0.029192
0.0289381
0.0286084
0.0282193
0.0277852
0.027319
0.0268313
0.0263313
0.0258264
0.0253226
0.0248244
0.0243353
0.0238581
0.0233948
0.0229484
0.0198625
0.0208627
0.0217217
0.0224219
0.0229764
0.0233887
0.023669
0.0238285
0.0238792
0.0238336
0.023704
0.0235028
0.0232417
0.0229318
0.0225829
0.022204
0.0218031
0.0213869
0.0209611
0.0205307
0.0200996
0.019671
0.0192476
0.0188316
0.0184257
0.00994977
0.0103551
0.0107101
0.0110027
0.0112387
0.0114216
0.0115546
0.0116409
0.0116841
0.0116878
0.0116557
0.0115917
0.0114996
0.011383
0.0112457
0.0110911
0.0109224
0.0107425
0.0105542
0.0103599
0.0101619
0.0099621
0.00976222
0.00956379
0.00936815
0.0038909
0.00184307
0.00187386
0.0114182
0.00615024
0.00413369
0.0267838
0.0208648
0.0145822
0.0404734
0.0375622
0.0333122
0.0450695
0.0444455
0.042798
0.04473
0.0452998
0.0452896
0.0422947
0.043299
0.0440666
0.0392691
0.0401791
0.0410523
0.0364539
0.0370828
0.0377366
0.0340301
0.0343964
0.0347898
0.0319808
0.0321428
0.0323235
0.0301946
0.0302185
0.0302566
0.0285835
0.0284557
0.0283472
0.0270499
0.0267912
0.0265527
0.025226
0.024885
0.0245594
0.022564
0.0221947
0.0218359
0.0180744
0.0177331
0.0173993
0.00919893
0.00903343
0.00887193
0.000140004
0.000412667
0.000600023
0.000758448
0.000892484
0.00100946
0.00111457
0.00121078
0.00129964
0.00138225
0.00145939
0.00153167
0.00159961
0.00166362
0.00172408
0.00178131
0.0018356
0.0018872
0.00193636
0.00198329
0.00202817
0.0020712
0.00211253
0.00215234
0.00219076
0.00222794
0.00226401
0.00229911
0.00233336
0.00236686
0.00239974
0.00243211
0.00246405
0.00249566
0.00252704
0.00255826
0.00258941
0.00262057
0.00265182
0.00268325
0.00271497
0.00274707
0.00277968
0.00281296
0.00284707
0.00288223
0.00291868
0.00295671
0.00299671
0.00303911
0.00308449
0.0031304
0.00317634
0.00322201
0.00326706
0.00331121
0.00335413
0.00339548
0.00343482
0.00347169
0.00350557
0.00353589
0.00356198
0.00358309
0.00359833
0.0036067
0.00360706
0.00359814
0.0035785
0.00354643
0.00349976
0.00343543
0.00334883
0.00323244
0.00307366
0.0028519
0.00253676
0.00208737
0.00141135
0.000461371
0.000640124
0.00113216
0.00139006
0.00161726
0.00184891
0.00209216
0.0023382
0.0025844
0.002827
0.00306273
0.00328913
0.00350473
0.00370887
0.00390153
0.00408304
0.00425396
0.00441493
0.00456663
0.00470972
0.00484484
0.00497257
0.00509348
0.00520809
0.00531689
0.00542035
0.00551889
0.00561292
0.00570281
0.00578891
0.00587157
0.0059511
0.0060278
0.00610199
0.00617396
0.00624397
0.00631225
0.00637901
0.00644442
0.0065086
0.0065717
0.00663381
0.00669504
0.00675548
0.00681522
0.00687434
0.00693297
0.0069912
0.00704917
0.00710693
0.00716463
0.0072226
0.00728322
0.00734398
0.0074044
0.00746414
0.00752284
0.00757999
0.00763494
0.00768681
0.00773457
0.00777696
0.00781246
0.00783921
0.00785486
0.00785648
0.00784041
0.00780229
0.00773702
0.00763881
0.00750139
0.00731801
0.00708152
0.00678393
0.00641523
0.00596119
0.00539954
0.00469244
0.0037818
0.00261144
0.000901878
0.000868661
0.00160956
0.00192647
0.00223732
0.00259488
0.00298103
0.0033766
0.00376932
0.00414945
0.00451099
0.00485102
0.00516882
0.00546511
0.00574126
0.00599891
0.00623968
0.00646506
0.00667635
0.00687472
0.00706117
0.00723657
0.00740173
0.00755737
0.00770416
0.0078427
0.00797358
0.00809732
0.00821443
0.00832535
0.00843049
0.00853024
0.00862496
0.00871508
0.00880102
0.00888323
0.00896213
0.00903807
0.00911136
0.00918226
0.00925097
0.00931767
0.0093825
0.00944558
0.00950701
0.0095669
0.00962536
0.0096825
0.00973847
0.00979335
0.00984724
0.00990024
0.0099533
0.0100065
0.0100595
0.0101122
0.0101644
0.0102161
0.0102667
0.0103157
0.0103622
0.0104048
0.010442
0.0104718
0.0104912
0.0104964
0.010482
0.0104408
0.010364
0.0102403
0.0100566
0.00979793
0.00944841
0.00899244
0.00841703
0.00771419
0.00688095
0.00591158
0.0047838
0.00344373
0.00149496
0.00101625
0.00194265
0.00233748
0.00274278
0.00321386
0.00371644
0.00422413
0.00471817
0.00518772
0.00562788
0.00603775
0.00641869
0.00677312
0.00710371
0.00741292
0.00770289
0.00797538
0.0082318
0.00847332
0.00870086
0.00891524
0.00911715
0.0093072
0.009486
0.0096541
0.00981207
0.00996044
0.0100997
0.0102304
0.0103528
0.0104674
0.0105746
0.0106746
0.0107682
0.0108558
0.0109381
0.0110156
0.0110889
0.0111585
0.0112247
0.011288
0.0113485
0.0114064
0.0114618
0.0115151
0.0115662
0.0116154
0.0116627
0.0117084
0.0117524
0.0117951
0.0118364
0.0118771
0.0119172
0.0119568
0.0119963
0.0120358
0.0120754
0.0121148
0.0121538
0.0121917
0.0122279
0.0122609
0.0122891
0.0123091
0.0123162
0.0123029
0.0122594
0.0121729
0.0120272
0.0118026
0.0114758
0.0110205
0.0104089
0.00961454
0.00861667
0.00739965
0.00594479
0.00422695
0.00202047
0.00111118
0.00215781
0.00264899
0.00315427
0.00372235
0.00431385
0.00489826
0.00545731
0.00598226
0.00647117
0.00692572
0.0073492
0.00774524
0.00811716
0.00846771
0.00879906
0.00911282
0.00941018
0.00969202
0.00995897
0.0102115
0.0104501
0.010675
0.0108866
0.0110853
0.0112714
0.0114454
0.0116077
0.0117586
0.0118987
0.012028
0.012147
0.0122559
0.0123557
0.012447
0.0125303
0.0126061
0.0126754
0.0127393
0.0127983
0.0128528
0.0129032
0.0129496
0.0129925
0.013032
0.0130684
0.0131019
0.0131329
0.0131616
0.0131881
0.0132127
0.0132357
0.0132571
0.0132776
0.0132976
0.0133174
0.0133374
0.0133581
0.0133792
0.0134008
0.0134237
0.0134485
0.0134756
0.013505
0.0135353
0.0135631
0.0135822
0.0135831
0.013553
0.0134751
0.0133276
0.0130836
0.01271
0.0121677
0.0114113
0.0103909
0.00905259
0.00733344
0.00517479
0.00250845
0.0011634
0.00229486
0.00288966
0.00348656
0.0041322
0.00478629
0.00541954
0.00601707
0.00657437
0.00709275
0.00757619
0.00802937
0.00845666
0.00886162
0.00924695
0.00961459
0.00996583
0.0103015
0.010622
0.0109277
0.0112186
0.0114946
0.0117559
0.0120023
0.012234
0.0124509
0.0126532
0.0128411
0.013015
0.013175
0.0133208
0.0134524
0.0135703
0.0136767
0.0137728
0.013859
0.013936
0.0140044
0.0140652
0.0141188
0.0141655
0.0142057
0.0142396
0.0142676
0.0142898
0.0143068
0.0143189
0.0143265
0.01433
0.01433
0.0143268
0.014321
0.0143127
0.0143029
0.0142923
0.0142817
0.0142718
0.0142632
0.0142567
0.0142524
0.0142516
0.0142553
0.0142658
0.014286
0.0143169
0.014357
0.0144014
0.014442
0.0144667
0.0144589
0.0143966
0.0142511
0.0139857
0.013554
0.0128977
0.0119436
0.0105983
0.00873713
0.00621094
0.0029645
0.00118995
0.00238429
0.00307443
0.00374822
0.00445107
0.005145
0.00580539
0.0064226
0.00699633
0.00753089
0.00803208
0.00850554
0.00895601
0.00938712
0.00980137
0.0102004
0.0105851
0.0109558
0.0113127
0.0116554
0.0119837
0.0122971
0.0125952
0.0128776
0.0131439
0.0133938
0.0136271
0.0138437
0.0140433
0.0142258
0.0143901
0.014538
0.0146703
0.0147893
0.0148959
0.0149912
0.0150761
0.0151507
0.015215
0.0152691
0.0153132
0.0153474
0.0153718
0.0153867
0.0153922
0.0153889
0.0153771
0.0153573
0.0153304
0.0152969
0.0152577
0.0152135
0.0151653
0.0151145
0.0150623
0.0150102
0.0149594
0.0149114
0.0148678
0.0148302
0.0147995
0.014776
0.0147638
0.0147684
0.0147931
0.0148383
0.0149006
0.0149734
0.0150458
0.0151021
0.0151206
0.0150722
0.0149183
0.0146084
0.0140759
0.0132312
0.0119492
0.0100446
0.00725004
0.00340512
0.00120142
0.00244197
0.00321239
0.00394601
0.00468698
0.00540213
0.00607343
0.00669663
0.00727529
0.0078161
0.00832626
0.00881211
0.00927861
0.00972933
0.0101666
0.0105916
0.0110049
0.0114065
0.0117959
0.0121725
0.0125356
0.0128843
0.0132177
0.0135352
0.013836
0.0141192
0.0143844
0.0146309
0.0148582
0.0150657
0.0152537
0.0154251
0.0155805
0.0157201
0.0158449
0.0159556
0.0160527
0.0161363
0.0162063
0.0162627
0.0163056
0.016335
0.0163508
0.0163533
0.0163425
0.016319
0.0162832
0.0162357
0.0161777
0.01611
0.016034
0.0159504
0.0158614
0.0157687
0.0156741
0.0155793
0.0154862
0.0153968
0.0153132
0.0152372
0.0151709
0.0151161
0.0150784
0.0150647
0.0150798
0.0151253
0.0151998
0.015298
0.0154106
0.0155231
0.0156147
0.0156563
0.0156088
0.0154194
0.0150161
0.0142987
0.0131191
0.0112406
0.00827127
0.00383918
0.00120333
0.00247676
0.00331034
0.00408678
0.00484918
0.00557096
0.00624097
0.00685996
0.0074347
0.00797383
0.00848559
0.00897682
0.00945266
0.00991658
0.0103707
0.0108158
0.0112522
0.0116794
0.0120964
0.0125024
0.012896
0.0132761
0.0136414
0.0139908
0.0143233
0.0146378
0.0149333
0.015209
0.0154644
0.0156993
0.0159158
0.016114
0.0162933
0.0164543
0.0165977
0.0167243
0.0168345
0.0169282
0.0170056
0.0170664
0.0171106
0.0171381
0.0171488
0.0171428
0.0171202
0.0170814
0.0170267
0.0169571
0.0168736
0.0167776
0.0166705
0.0165539
0.0164302
0.0163014
0.0161697
0.0160373
0.0159064
0.0157793
0.0156584
0.0155461
0.0154451
0.0153588
0.0152961
0.0152639
0.015268
0.0153111
0.0153933
0.0155112
0.0156572
0.0158182
0.0159747
0.0160982
0.0161494
0.016074
0.0157972
0.0152115
0.0141523
0.0123417
0.00927014
0.00427441
0.00119848
0.00249367
0.00337384
0.0041776
0.00494764
0.00566479
0.00632434
0.00693133
0.00749516
0.00802602
0.008533
0.00902333
0.00950224
0.00997313
0.0104379
0.0108971
0.0113506
0.0117974
0.0122365
0.0126662
0.0130849
0.0134912
0.0138834
0.0142601
0.0146198
0.0149615
0.0152839
0.0155862
0.0158679
0.0161294
0.0163714
0.016594
0.0167958
0.0169771
0.0171385
0.0172809
0.0174046
0.0175099
0.0175967
0.0176649
0.0177144
0.017745
0.0177565
0.0177489
0.0177222
0.0176766
0.0176124
0.0175304
0.0174315
0.0173174
0.0171897
0.0170504
0.0169021
0.0167471
0.0165878
0.0164264
0.0162655
0.0161075
0.015955
0.0158107
0.0156781
0.0155653
0.0154807
0.0154318
0.0154248
0.0154637
0.0155504
0.0156831
0.0158563
0.0160586
0.016272
0.0164689
0.0166102
0.0166412
0.0164847
0.0160284
0.0150958
0.0133762
0.010253
0.00471843
0.00118837
0.00249576
0.00340782
0.0042256
0.00499234
0.00569637
0.00633857
0.00692756
0.00747491
0.00799204
0.00848871
0.00897248
0.00944868
0.00992062
0.01039
0.0108572
0.0113217
0.0117822
0.0122372
0.0126847
0.0131227
0.0135495
0.013963
0.0143615
0.0147434
0.0151074
0.0154522
0.0157772
0.0160817
0.0163656
0.0166292
0.016873
0.0170953
0.0172956
0.0174744
0.0176325
0.0177706
0.0178891
0.017988
0.0180672
0.0181267
0.018166
0.0181852
0.0181838
0.0181619
0.0181192
0.0180561
0.0179729
0.0178704
0.0177502
0.0176139
0.017464
0.0173028
0.017133
0.0169568
0.0167766
0.0165948
0.016414
0.0162369
0.0160667
0.0159108
0.0157778
0.0156761
0.0156132
0.0155961
0.01563
0.0157185
0.0158618
0.0160563
0.016293
0.0165554
0.0168174
0.0170404
0.0171695
0.017126
0.0167941
0.0159883
0.0143711
0.0112302
0.00517959
0.00117383
0.00248521
0.00341675
0.00423774
0.00499287
0.00567754
0.00629732
0.00686378
0.00739025
0.00788914
0.0083708
0.00884305
0.0093113
0.00977884
0.0102472
0.0107165
0.0111861
0.0116542
0.0121191
0.0125784
0.01303
0.0134714
0.0139007
0.0143157
0.0147147
0.0150963
0.0154592
0.0158026
0.0161259
0.0164285
0.0167104
0.0169725
0.0172133
0.0174316
0.0176274
0.0178017
0.0179554
0.0180889
0.0182026
0.0182963
0.0183701
0.0184236
0.0184565
0.0184686
0.0184596
0.0184291
0.0183769
0.0183032
0.0182085
0.0180937
0.0179607
0.0178116
0.0176493
0.0174758
0.0172936
0.0171046
0.0169113
0.0167164
0.0165226
0.0163369
0.0161673
0.0160219
0.0159088
0.0158359
0.0158106
0.0158397
0.015928
0.016078
0.0162885
0.0165527
0.0168562
0.017175
0.0174714
0.0176905
0.0177527
0.0175393
0.016858
0.0153492
0.0122137
0.00566787
0.00115548
0.00246384
0.0034049
0.00422077
0.00495828
0.00561921
0.00621301
0.00675364
0.00725587
0.00773295
0.00819568
0.00865215
0.00910784
0.00956604
0.0100282
0.0104942
0.0109632
0.0114332
0.0119022
0.0123677
0.0128271
0.0132778
0.0137176
0.0141442
0.0145557
0.0149506
0.0153275
0.0156856
0.0160242
0.0163427
0.0166405
0.0169183
0.0171762
0.0174118
0.0176249
0.0178161
0.0179867
0.0181371
0.018268
0.0183793
0.0184711
0.0185431
0.018595
0.0186265
0.018637
0.0186261
0.0185934
0.0185383
0.0184609
0.0183617
0.0182423
0.0181048
0.0179516
0.0177849
0.0176064
0.0174181
0.0172229
0.0170227
0.0168243
0.0166346
0.0164611
0.0163114
0.0161934
0.0161151
0.0160846
0.0161096
0.0161966
0.0163502
0.0165714
0.0168562
0.0171932
0.0175604
0.017922
0.0182235
0.0183845
0.0182844
0.017725
0.0163286
0.0132158
0.00619627
0.00113381
0.00243347
0.00337643
0.00418121
0.0048971
0.00553151
0.00609704
0.00660965
0.00708525
0.00753781
0.00797853
0.0084157
0.00885492
0.00929945
0.00975067
0.0102085
0.0106717
0.0111383
0.011606
0.0120722
0.012534
0.0129889
0.0134344
0.013868
0.0142878
0.0146921
0.0150795
0.015449
0.0158
0.0161318
0.0164436
0.0167358
0.0170094
0.0172621
0.0174928
0.017702
0.0178908
0.01806
0.0182103
0.0183418
0.0184546
0.0185485
0.0186234
0.0186787
0.018714
0.0187286
0.0187217
0.0186925
0.0186404
0.0185654
0.0184684
0.0183513
0.0182164
0.0180654
0.0178996
0.0177212
0.0175327
0.01734
0.017149
0.0169661
0.0167982
0.0166523
0.0165361
0.0164577
0.0164257
0.0164484
0.0165337
0.0166881
0.0169152
0.0172141
0.0175766
0.017984
0.0184026
0.0187792
0.0190332
0.0190421
0.0186034
0.017324
0.0142498
0.0067828
0.00110944
0.0023961
0.00333571
0.00412564
0.00481772
0.00542419
0.00596032
0.00644369
0.00689121
0.00731741
0.00773385
0.00814903
0.00856861
0.0089958
0.009432
0.00987709
0.0103298
0.0107882
0.0112496
0.0117113
0.0121706
0.0126248
0.0130713
0.0135077
0.0139319
0.014342
0.0147367
0.0151148
0.0154755
0.0158182
0.0161423
0.0164479
0.0167362
0.0170056
0.0172543
0.0174824
0.0176909
0.0178807
0.0180523
0.0182062
0.0183425
0.0184611
0.0185619
0.0186445
0.0187083
0.0187527
0.0187766
0.0187789
0.0187585
0.0187145
0.0186473
0.0185582
0.0184492
0.0183217
0.0181767
0.0180171
0.0178477
0.0176736
0.0175005
0.0173339
0.0171802
0.017046
0.0169385
0.0168659
0.0168365
0.0168594
0.0169434
0.0170967
0.0173255
0.0176322
0.0180124
0.0184513
0.0189187
0.0193633
0.019705
0.01982
0.0195028
0.0183474
0.015329
0.00745413
0.00108347
0.00235424
0.00328765
0.00406117
0.00472909
0.00530757
0.0058142
0.00626802
0.00668682
0.00708565
0.00747638
0.00786779
0.00826558
0.00867242
0.00909003
0.00951839
0.00995631
0.0104018
0.0108523
0.011305
0.011757
0.0122057
0.0126488
0.0130838
0.0135086
0.0139213
0.0143202
0.0147043
0.0150724
0.015424
0.0157585
0.0160763
0.0163785
0.0166639
0.0169308
0.0171787
0.0174082
0.0176201
0.0178148
0.017993