/*--------------------------------*- C++ -*----------------------------------*\
| =========                 |                                                 |
| \\      /  F ield         | OpenFOAM: The Open Source CFD Toolbox           |
|  \\    /   O peration     | Version:  v2012                                 |
|   \\  /    A nd           | Website:  www.openfoam.com                      |
|    \\/     M anipulation  |                                                 |
\*---------------------------------------------------------------------------*/
FoamFile
{
    version     2.0;
    format      ascii;
    class       volScalarField;
    location    "659";
    object      nut;
}
// * * * * * * * * * * * * * * * * * * * * * * * * * * * * * * * * * * * * * //

dimensions      [0 2 -1 0 0 0 0];


internalField   nonuniform List<scalar> 
6508
(
0.0030126
0.0106177
0.012715
0.0130723
0.0130088
0.0130088
0.0130723
0.012715
0.0106177
0.0030126
0.00225537
0.00870014
0.0116531
0.0124744
0.0125792
0.0125792
0.0124744
0.0116531
0.00870014
0.00225537
0.0018011
0.00747989
0.0106928
0.0118587
0.0121447
0.0121447
0.0118587
0.0106928
0.00747989
0.0018011
0.00150514
0.00662266
0.0098672
0.011257
0.0116948
0.0116948
0.011257
0.00986721
0.00662267
0.00150514
0.0012991
0.00598026
0.00916473
0.0106866
0.0112366
0.0112366
0.0106866
0.00916474
0.00598027
0.0012991
0.00114788
0.00547587
0.00856417
0.0101546
0.0107806
0.0107806
0.0101546
0.00856419
0.00547589
0.00114788
0.00103211
0.00506564
0.00804538
0.00966218
0.0103353
0.0103353
0.00966221
0.00804541
0.00506567
0.00103211
0.000940428
0.00472274
0.00759192
0.00920781
0.00990684
0.00990685
0.00920784
0.00759198
0.00472279
0.000940431
0.000865815
0.0044299
0.00719106
0.00878873
0.00949859
0.00949861
0.00878879
0.00719114
0.00442998
0.000865819
0.000803724
0.00417548
0.00683307
0.00840189
0.00911226
0.00911229
0.00840197
0.00683319
0.0041756
0.00080373
0.000751097
0.00395139
0.00651055
0.00804424
0.00874827
0.00874833
0.00804437
0.00651074
0.00395156
0.000751106
0.000705807
0.00375178
0.00621783
0.00771297
0.00840625
0.00840633
0.00771317
0.00621811
0.00375204
0.00070582
0.00066633
0.00357234
0.00595046
0.00740552
0.00808532
0.00808545
0.00740583
0.00595088
0.00357273
0.000666348
0.000631546
0.0034098
0.00570495
0.00711961
0.00778435
0.00778454
0.00712006
0.00570557
0.00341036
0.000631571
0.000600613
0.0032616
0.00547847
0.00685318
0.00750207
0.00750234
0.00685385
0.00547938
0.00326242
0.000600649
0.000572884
0.00312572
0.00526871
0.00660441
0.00723718
0.00723758
0.00660541
0.00527004
0.0031269
0.000572935
0.000547856
0.00300052
0.00507375
0.00637166
0.0069884
0.00698896
0.00637316
0.00507567
0.00300219
0.000547928
0.000525128
0.00288464
0.00489193
0.00615347
0.0067545
0.00675529
0.00615564
0.00489471
0.00288686
0.000525226
0.000504376
0.00277691
0.00472183
0.00594849
0.00653429
0.00653542
0.00595161
0.00472593
0.0027798
0.000504507
0.000485337
0.00267636
0.0045622
0.0057555
0.00632668
0.00632831
0.00576001
0.00456801
0.00267871
0.000485501
0.000467792
0.0025821
0.0044119
0.00557339
0.00613064
0.00613306
0.00558055
0.00442465
0.00261277
0.000537037
0.000451558
0.00249338
0.00426995
0.00540112
0.00594521
0.00594887
0.00541274
0.00429492
0.00256113
0.000606478
0.000436478
0.00240956
0.00413545
0.00523778
0.00576953
0.00577498
0.00525593
0.00417769
0.00252662
0.000693527
0.000422422
0.00233007
0.00400765
0.00508255
0.00560279
0.00561049
0.00510885
0.00406981
0.00252262
0.00080458
0.000409274
0.00225443
0.00388585
0.00493468
0.00544419
0.00545429
0.00496899
0.00397624
0.00254522
0.000946031
0.000396938
0.00218222
0.00376944
0.00479348
0.00529306
0.00530597
0.00483574
0.00389971
0.00258234
0.00111812
0.000385328
0.00211301
0.00365784
0.00465833
0.00514886
0.00516561
0.0047147
0.00383221
0.00262241
0.0013163
0.000374367
0.00204643
0.0035505
0.00452865
0.00501112
0.00503304
0.00460455
0.00377501
0.00266472
0.00153332
0.000363987
0.00198209
0.00344687
0.00440388
0.00487939
0.00490794
0.00450424
0.0037273
0.0027125
0.00175385
0.000354128
0.00191957
0.00334641
0.00428347
0.00475321
0.00478992
0.00441295
0.00368856
0.00276725
0.00196538
0.000344733
0.00185853
0.00324855
0.00416685
0.00463209
0.00467854
0.00432999
0.00365845
0.00282897
0.00216531
0.00033575
0.00179857
0.00315271
0.00405342
0.00451553
0.00457333
0.00425474
0.00363642
0.00289515
0.00235142
0.000327129
0.00173928
0.0030583
0.00394258
0.00440297
0.00447375
0.00418659
0.00362165
0.00296389
0.00252201
0.000318822
0.00168022
0.00296467
0.00383366
0.0042938
0.00437924
0.00412485
0.00361323
0.00303348
0.00267608
0.000310784
0.00162102
0.00287117
0.00372594
0.00418735
0.00428913
0.00406881
0.00361016
0.00310216
0.00281312
0.000302969
0.00156128
0.00277713
0.00361868
0.00408289
0.00420269
0.00401761
0.00361128
0.00316831
0.00293305
0.000295333
0.00150071
0.00268187
0.00351107
0.00397959
0.00411909
0.0039703
0.00361534
0.00323059
0.00303629
0.000287832
0.00143905
0.00258478
0.00340229
0.00387658
0.00403738
0.00392579
0.00362105
0.00328801
0.00312373
0.000280423
0.00137614
0.00248528
0.0032915
0.00377288
0.0039565
0.00388289
0.00362713
0.00334002
0.00319684
0.000273065
0.00131193
0.00238289
0.00317787
0.00366746
0.00387525
0.00384028
0.00363229
0.00338641
0.00325756
0.000265715
0.00124645
0.00227725
0.00306058
0.00355918
0.00379231
0.00379647
0.00363527
0.00342723
0.00330826
0.000258332
0.00117982
0.00216813
0.00293883
0.00344682
0.00370615
0.00374985
0.00363471
0.00346262
0.00335151
0.000250874
0.00111229
0.00205542
0.00281188
0.00332907
0.00361506
0.00369853
0.00362908
0.00349251
0.00338968
0.000243298
0.00104415
0.00193917
0.00267903
0.0032045
0.00351707
0.00364032
0.00361645
0.00351628
0.0034245
0.000235559
0.00097575
0.00181956
0.00253965
0.00307157
0.00340995
0.00357259
0.00359432
0.00353241
0.00345643
0.000227608
0.00090741
0.00169688
0.00239322
0.0029287
0.00329114
0.00349223
0.00355947
0.00353815
0.00348408
0.00021939
0.000839426
0.00157148
0.00223932
0.00277427
0.0031579
0.00339558
0.00350777
0.00352928
0.00350371
0.000210839
0.000772037
0.00144376
0.0020777
0.00260676
0.00300731
0.00327859
0.00343431
0.00350016
0.00350921
0.000201871
0.000705413
0.00131418
0.00190833
0.00242493
0.00283663
0.00313705
0.00333358
0.003444
0.00349233
0.000192376
0.000639659
0.00118322
0.00173149
0.00222808
0.00264365
0.00296709
0.00320009
0.00335345
0.00344354
0.000182199
0.000574828
0.00105152
0.00154808
0.00201647
0.00242733
0.00276602
0.00302921
0.00322166
0.00335323
0.000171099
0.000510897
0.000920196
0.00136002
0.00179206
0.00218881
0.00253346
0.00281856
0.00304375
0.00321337
0.000153658
0.000447874
0.000790951
0.00117103
0.00155967
0.00193281
0.00227297
0.00256972
0.00281858
0.00301874
0.000101714
0.00039176
0.000669636
0.000988139
0.00132792
0.00166866
0.00199334
0.00228963
0.00254896
0.00276725
0.00010959
0.000347804
0.000570389
0.000827085
0.00111271
0.00141214
0.00170937
0.00198964
0.00224425
0.00246846
0.000104253
0.000316504
0.000504552
0.000707309
0.000937349
0.00118689
0.00144163
0.00169108
0.00192693
0.00214309
7.61787e-05
0.000310409
0.000469794
0.000636344
0.0008185
0.00101426
0.00121959
0.0014276
0.00163113
0.00182384
6.69768e-05
0.000294171
0.000458715
0.000601558
0.000719861
0.000838905
0.000969285
0.00110911
0.00125208
0.00139288
6.62843e-05
0.000218623
0.000432496
0.000558389
0.000675981
0.000700675
0.000755504
0.000841775
0.000945044
0.00105125
7.04341e-05
0.000116951
0.000144512
0.000176338
0.000205667
0.00022694
0.000242266
0.000254799
0.000265077
0.000273403
0.000136866
0.00016165
0.000162812
0.000166397
0.000168946
0.000169944
0.000169514
0.000167722
0.000164614
0.0001609
0.000156417
0.000151176
0.000145339
0.000139073
0.000132436
0.000125448
0.000117995
0.000111003
0.00010416
9.72201e-05
8.99784e-05
8.2173e-05
7.33564e-05
6.25886e-05
3.98774e-05
0.000244503
0.000504915
0.000770963
0.00091649
0.000992929
0.00103636
0.00105735
0.00106018
0.00104699
0.00102008
0.000983835
0.000940744
0.000892602
0.000840663
0.00078563
0.00072748
0.000663643
0.000575196
0.000479162
0.000386475
0.000304115
0.000235824
0.000183514
0.000142164
4.78388e-05
0.000393537
0.000642092
0.000972063
0.00126532
0.00145102
0.00156501
0.00163064
0.00165891
0.00165667
0.00162929
0.00158393
0.00152723
0.0014627
0.00139183
0.00131462
0.00122961
0.00113204
0.00100606
0.000856233
0.000695168
0.000538283
0.000400109
0.000290116
0.000201278
5.25123e-05
0.000655743
0.000683928
0.000995649
0.00131166
0.00156447
0.00172725
0.00182575
0.00187384
0.00188133
0.00185829
0.00181491
0.00176094
0.00170182
0.00163895
0.00157073
0.00149313
0.00139896
0.00127453
0.00111641
0.000931324
0.000734165
0.000545662
0.00038411
0.000244783
5.43499e-05
0.00100283
0.000872774
0.00113322
0.00131932
0.00156147
0.00175377
0.00187269
0.00193096
0.00193995
0.00191431
0.00186905
0.00181611
0.00176324
0.00171229
0.00166048
0.00160155
0.00152544
0.00141798
0.00127106
0.00108637
0.000875265
0.000658745
0.000459232
0.000274919
5.46776e-05
0.00126384
0.00120042
0.00132872
0.00142147
0.00157335
0.00174481
0.00187701
0.00194285
0.00194888
0.0019154
0.00186354
0.00180791
0.00175657
0.00171272
0.00167394
0.00163304
0.001577
0.00148951
0.00135828
0.001182
0.000969279
0.00073918
0.000513975
0.000293683
5.4209e-05
0.00148183
0.00158494
0.00155525
0.00156886
0.00166049
0.00177194
0.00188179
0.0019513
0.00195411
0.00191021
0.00184891
0.00178786
0.0017348
0.0016922
0.00165949
0.0016313
0.00159262
0.0015248
0.00140878
0.00124152
0.00103059
0.000793546
0.000550827
0.000303712
5.3311e-05
0.00169196
0.00182351
0.00179006
0.00175427
0.00178804
0.001858
0.00192661
0.00197638
0.00197178
0.00191615
0.00184377
0.00177537
0.00171794
0.00167268
0.00163955
0.00161421
0.00158613
0.00153784
0.00143945
0.00128162
0.00107273
0.000830484
0.00057435
0.00030765
5.21528e-05
0.00189614
0.00204573
0.00202748
0.00197096
0.00194922
0.00197854
0.00201723
0.00203265
0.00200917
0.00193944
0.00185445
0.00177731
0.0017138
0.00166304
0.00162415
0.00159459
0.00156456
0.00152729
0.00145206
0.00131029
0.00110666
0.000859903
0.000591129
0.000308026
5.08236e-05
0.00209312
0.00225485
0.00225666
0.00218836
0.00213042
0.00212399
0.0021349
0.00212307
0.00207357
0.00198276
0.00188195
0.00179385
0.001723
0.00166579
0.0016194
0.00158241
0.00154312
0.00150078
0.00144704
0.00132818
0.00113384
0.00088336
0.000602454
0.000306674
4.9664e-05
0.00228166
0.00245163
0.00247373
0.00240322
0.00232403
0.00228705
0.00227257
0.00223701
0.00216097
0.00204567
0.00192585
0.00182337
0.00174245
0.00167815
0.00162468
0.00157932
0.00153476
0.00148019
0.00142477
0.00133647
0.00115044
0.000904845
0.000612065
0.000303703
4.88061e-05
0.00245981
0.00263485
0.00267558
0.002611
0.00252515
0.0024605
0.00242379
0.00236808
0.00226806
0.00212979
0.00198724
0.0018668
0.00177256
0.00169943
0.00163903
0.0015852
0.00153583
0.00147762
0.0014062
0.00133425
0.00113314
0.000889649
0.00062506
0.000303015
4.82536e-05
0.00262495
0.0028021
0.00285854
0.00280322
0.00271339
0.00263542
0.00258209
0.00251105
0.00239328
0.00223513
0.00207108
0.00192868
0.00181728
0.00173096
0.0016611
0.00159903
0.0015398
0.00148122
0.00140761
0.0013209
0.00114513
0.000906575
0.000652839
0.00031025
4.81572e-05
0.00277512
0.00295103
0.00302051
0.00297804
0.00288978
0.0028104
0.00274262
0.00266161
0.00253439
0.0023626
0.0021807
0.00201757
0.00188351
0.00177804
0.00169273
0.0016191
0.00154934
0.00147994
0.00140863
0.00132041
0.00116516
0.000949071
0.000691648
0.000331786
4.88816e-05
0.00290824
0.00308032
0.00316088
0.00313213
0.00304752
0.00296825
0.00290053
0.00281647
0.00268918
0.00251341
0.00232071
0.00214016
0.00198358
0.00185206
0.00174332
0.00165007
0.00156505
0.00148117
0.00131749
0.0012407
0.00116729
0.00100367
0.000757093
0.000374519
5.1112e-05
0.00302288
0.00318903
0.0032789
0.00326423
0.00318644
0.00311049
0.00304947
0.00297293
0.00285567
0.00268764
0.00249426
0.0023036
0.00212824
0.00197057
0.00183089
0.00170809
0.00159734
0.00149311
0.00128792
0.00114282
0.00109897
0.0010195
0.000833144
0.000436258
5.56322e-05
0.00311851
0.0032766
0.00337379
0.00337418
0.00330722
0.0032358
0.00318374
0.00312657
0.00303026
0.00288241
0.00270059
0.00251078
0.0023258
0.00214828
0.00197806
0.00181836
0.00166974
0.00153186
0.00140082
0.00111053
0.000988684
0.000968355
0.000868822
0.000498246
6.25895e-05
0.00319549
0.00334315
0.00344516
0.00346195
0.00341047
0.00334418
0.0033009
0.00326532
0.00320649
0.00309017
0.00293283
0.00275676
0.00257487
0.0023896
0.0022
0.00200669
0.00181291
0.00162679
0.00145107
0.00124543
0.000940141
0.000837349
0.000794383
0.000534923
7.10444e-05
0.00325514
0.00338972
0.00349426
0.00352689
0.00349431
0.00343671
0.00339926
0.0033824
0.00336225
0.00329786
0.00317748
0.00302855
0.00286385
0.00268597
0.00249221
0.00228055
0.00205272
0.00181438
0.00157765
0.00135278
0.00106847
0.000767086
0.000676604
0.000535736
8.00861e-05
0.00329965
0.00341818
0.00352227
0.00356859
0.0035567
0.00351359
0.00347982
0.00347441
0.00348493
0.00347462
0.00341379
0.00330603
0.00317287
0.00301836
0.00283915
0.00263001
0.00238818
0.00211588
0.00182166
0.00152056
0.00123481
0.000880918
0.00058242
0.000472423
8.90202e-05
0.00333206
0.00343139
0.00353102
0.00358771
0.00359536
0.0035711
0.00354472
0.00354137
0.00356873
0.00360257
0.00360674
0.00356063
0.00347397
0.00335816
0.00321136
0.00302701
0.00279834
0.00252164
0.00219833
0.00183748
0.00145757
0.00109126
0.000706027
0.000372749
9.77251e-05
0.00335612
0.00343325
0.00352366
0.00358652
0.00360996
0.00360455
0.00359064
0.0035895
0.00361759
0.00367137
0.00372792
0.00375153
0.00372886
0.00366718
0.00356863
0.0034283
0.00323803
0.00299056
0.0026813
0.00230927
0.00187886
0.00140685
0.000931946
0.000504842
0.000163045
0.00337595
0.00342873
0.00350482
0.00356818
0.00360327
0.00361322
0.00361215
0.00361663
0.00364281
0.00369613
0.00376744
0.00383844
0.00389027
0.00389802
0.00386244
0.003782
0.00364964
0.00345797
0.00320137
0.00287773
0.0024861
0.00202801
0.00151384
0.000983813
0.00049658
0.00339548
0.00342344
0.00348063
0.00353798
0.00357881
0.00360062
0.00361097
0.00362165
0.00364558
0.00369128
0.00375849
0.00384034
0.00392591
0.00399921
0.00403974
0.00403246
0.00397145
0.00385207
0.00366687
0.003416
0.00309933
0.00269524
0.00221043
0.00176154
0.00123024
0.00341766
0.00342287
0.00345826
0.00350333
0.00354285
0.00357102
0.00359019
0.00360709
0.00363068
0.00366907
0.00372558
0.00379939
0.00388655
0.00397971
0.00406683
0.00412733
0.00397428
0.00376087
0.00355388
0.0033402
0.00309931
0.00279598
0.00241339
0.00203747
0.00177616
0.00344336
0.00343105
0.00344473
0.00347293
0.00350421
0.00353195
0.0035551
0.00357647
0.00360111
0.00363497
0.00368187
0.00374328
0.00381854
0.0039049
0.00399664
0.0040265
0.00381171
0.00359107
0.00339854
0.00323148
0.00308133
0.00293294
0.0027551
0.00253793
0.00230426
0.00347046
0.003449
0.00344494
0.00345504
0.00347298
0.00349359
0.00351454
0.00353623
0.0035609
0.00359181
0.00363192
0.00368299
0.0037454
0.00381804
0.0038977
0.00387357
0.00365072
0.0034377
0.00325395
0.0031006
0.00297711
0.00287951
0.00280276
0.00274562
0.00269613
0.00349329
0.00347329
0.00345941
0.00345464
0.00345786
0.00346671
0.0034795
0.00349593
0.00351685
0.0035438
0.00357826
0.00362115
0.00367307
0.0037335
0.00380027
0.00377366
0.00353733
0.00332322
0.00314026
0.00298546
0.00286009
0.00276584
0.00270499
0.0026799
0.00268809
0.0035027
0.00349549
0.00348254
0.00347052
0.00346235
0.00345882
0.00346033
0.00346711
0.00347966
0.00349873
0.00352515
0.00355951
0.00360203
0.00365208
0.00370802
0.00376667
0.00352212
0.00329012
0.00310065
0.002941
0.00280764
0.00270209
0.00262697
0.00258542
0.00257924
0.00348704
0.00350279
0.0035022
0.00349321
0.00348114
0.00346981
0.00346149
0.00345766
0.00345939
0.0034675
0.00348264
0.00350525
0.00353554
0.00357332
0.00361791
0.00366762
0.00365719
0.00339319
0.00317256
0.00299495
0.00284966
0.00273025
0.00263757
0.00257335
0.00253876
0.00343364
0.00347968
0.0035008
0.00350512
0.00349938
0.00348862
0.00347651
0.00346577
0.00345836
0.00345569
0.00345873
0.0034681
0.00348414
0.00350688
0.00353615
0.00357142
0.00361123
0.00365289
0.00341349
0.00319431
0.00301806
0.00287647
0.00276392
0.0026785
0.00261956
0.00333061
0.00340925
0.0034581
0.00348446
0.00349467
0.00349403
0.00348685
0.00347655
0.00346583
0.00345673
0.00345073
0.0034489
0.00345189
0.00346006
0.00347355
0.00349229
0.00351601
0.00354407
0.00357489
0.00358492
0.00336299
0.00317768
0.00303263
0.00292042
0.00283725
0.00316691
0.00327728
0.00335624
0.00340948
0.00344238
0.00345979
0.00346595
0.00346444
0.00345827
0.00344988
0.00344117
0.0034336
0.00342825
0.00342584
0.00342687
0.00343161
0.0034402
0.00345265
0.00346874
0.00348804
0.00350949
0.00353254
0.00348029
0.00332934
0.00321187
0.00293912
0.00307646
0.00318347
0.00326409
0.00332237
0.00336227
0.00338747
0.00340131
0.00340671
0.00340619
0.00340185
0.00339541
0.00338823
0.00338137
0.00337561
0.00337156
0.00336963
0.00337012
0.00337322
0.00337901
0.0033874
0.00339823
0.00341108
0.00342551
0.00344136
0.00265358
0.00280952
0.00293845
0.00304251
0.00312433
0.00318673
0.00323261
0.00326472
0.00328566
0.00329777
0.0033031
0.00330342
0.00330024
0.0032948
0.00328808
0.00328091
0.00327391
0.00326758
0.00326233
0.00325843
0.00325611
0.00325547
0.00325653
0.00325928
0.00326367
0.00232866
0.00249151
0.00263205
0.00275097
0.00284956
0.00292953
0.00299284
0.00304157
0.00307775
0.00310337
0.00312023
0.00312998
0.00313407
0.00313376
0.00313013
0.00312408
0.00311638
0.00310765
0.00309841
0.00308907
0.00307998
0.00307141
0.00306356
0.00305659
0.00305067
0.00198776
0.00214021
0.00228619
0.00240638
0.00250952
0.00259654
0.00266851
0.0027267
0.00277253
0.00280745
0.00283287
0.00285014
0.00286052
0.00286513
0.00286501
0.00286104
0.00285399
0.00284454
0.00283327
0.00282065
0.00280712
0.00279303
0.00277867
0.0027643
0.00275024
0.00152754
0.00166492
0.00180953
0.00196548
0.0021012
0.00217906
0.00224423
0.00229757
0.00234002
0.00237256
0.00239623
0.00241202
0.00242092
0.00242384
0.00242165
0.00241514
0.00240501
0.00239191
0.00237641
0.002359
0.00234015
0.00232024
0.00229962
0.0022786
0.00225757
0.00115722
0.00127235
0.00138989
0.00144486
0.00149159
0.00152992
0.00156028
0.0015832
0.00159926
0.00160907
0.00161327
0.0016125
0.00160738
0.00159853
0.0015865
0.00157185
0.00155504
0.00153654
0.00151673
0.00149599
0.00147463
0.00145292
0.00143112
0.00140944
0.00138814
0.000280002
0.000285648
0.000290504
0.000294445
0.000297586
0.000299997
0.000301739
0.000302864
0.000303425
0.000303473
0.000303057
0.000302224
0.00030102
0.000299491
0.000297679
0.000295625
0.000293368
0.000290942
0.000288381
0.000285715
0.000282971
0.000280175
0.00027735
0.000274517
0.000271695
0.000175097
0.00012051
5.3471e-05
0.000649753
0.000257817
0.000143832
0.00145683
0.000972975
0.000581837
0.00209026
0.00193191
0.0017994
0.00262948
0.00257046
0.00258107
0.00271774
0.00276671
0.00284563
0.00260232
0.00265374
0.00273377
0.00253011
0.00254885
0.00259324
0.00258417
0.00257272
0.00258208
0.00277926
0.00274423
0.00272735
0.00312777
0.00307018
0.00303205
0.00345614
0.00347123
0.00347034
0.00326904
0.00327547
0.00328267
0.0030461
0.00304268
0.00304016
0.00273783
0.00272599
0.00271456
0.0022388
0.0022204
0.00220218
0.00136956
0.00135151
0.00133387
0.00026923
0.000266797
0.000264401
2.90041e-05
5.70234e-05
5.96036e-05
6.23452e-05
7.86801e-05
8.91862e-05
9.37145e-05
9.76753e-05
0.000101196
0.000104363
0.000107235
0.000109859
0.000112269
0.000114493
0.000116555
0.000118474
0.000120266
0.000121944
0.000123523
0.00012501
0.000126417
0.000127751
0.000129019
0.000130229
0.000131386
0.000132496
0.000133565
0.000134596
0.000135595
0.000136565
0.00013751
0.000138434
0.00013934
0.000140232
0.00014111
0.000141979
0.000142841
0.000143698
0.000144552
0.000145407
0.000146263
0.000147125
0.000147996
0.000148879
0.00014978
0.000150701
0.000151651
0.000152636
0.000153665
0.000154748
0.000155899
0.000157055
0.000158204
0.000159337
0.000160447
0.000161528
0.000162571
0.00016357
0.000164515
0.000165396
0.000166201
0.000166918
0.000167532
0.000168028
0.000168385
0.000168581
0.000168589
0.000168381
0.00016792
0.000167166
0.000166063
0.00016453
0.000162443
0.000159595
0.000155626
0.000149907
0.000141382
0.000128249
0.000105456
5.26517e-05
5.5041e-05
0.000142894
0.00015264
0.000184015
0.000209052
0.000237998
0.000269284
0.000301903
0.000334973
0.000367787
0.000399813
0.000430697
0.000460232
0.000488323
0.000514944
0.000540123
0.00056391
0.000586373
0.000607585
0.000627623
0.000646562
0.000664477
0.000681439
0.000697517
0.000712778
0.000727288
0.00074111
0.000754305
0.000766935
0.000779061
0.000790748
0.000802059
0.000813058
0.000823804
0.000834352
0.000844748
0.000855031
0.000865231
0.00087537
0.000885462
0.000895509
0.000905504
0.000915428
0.000925249
0.00093492
0.00094438
0.000953545
0.000962316
0.000970511
0.000977949
0.000984482
0.000991362
0.000998054
0.00100442
0.00101035
0.00101569
0.0010203
0.00102399
0.00102653
0.00102769
0.00102718
0.00102466
0.00101976
0.00101204
0.00100095
0.000985897
0.000966214
0.000941181
0.000910062
0.000872155
0.00082684
0.000773648
0.000712323
0.000642867
0.000565591
0.00048117
0.000390499
0.000294112
0.000192139
6.53326e-05
6.41179e-05
0.00018564
0.000237417
0.000289343
0.000344664
0.000409422
0.000480326
0.000554345
0.000629001
0.000702485
0.000773601
0.000841659
0.000906332
0.00096753
0.0010253
0.00107978
0.00113111
0.00117947
0.00122505
0.001268
0.0013085
0.00134669
0.00138273
0.00141677
0.00144893
0.00147936
0.00150818
0.00153553
0.00156152
0.00158627
0.00160991
0.00163255
0.00165431
0.0016753
0.00169561
0.00171534
0.00173454
0.00175326
0.00177153
0.00178935
0.00180671
0.00182358
0.0018399
0.00185559
0.00187057
0.00188472
0.00189793
0.00191004
0.0019209
0.00193031
0.00193809
0.0019445
0.00194978
0.00195353
0.00195549
0.00195537
0.00195287
0.00194762
0.00193925
0.0019273
0.0019113
0.00189071
0.00186492
0.00183322
0.00179476
0.00174857
0.00169357
0.00162858
0.0015524
0.00146389
0.0013621
0.00124647
0.00111711
0.000975228
0.000823538
0.000666589
0.000510394
0.000360848
0.000223123
7.98067e-05
6.357e-05
0.000237406
0.000322922
0.000396617
0.000487205
0.000590258
0.000701816
0.000816653
0.000931032
0.00104249
0.00114958
0.00125157
0.0013482
0.00143949
0.0015256
0.00160677
0.00168324
0.00175529
0.00182315
0.00188706
0.00194723
0.00200388
0.00205721
0.00210739
0.00215462
0.00219908
0.00224094
0.00228037
0.00231754
0.00235262
0.00238577
0.00241715
0.00244691
0.00247522
0.0025022
0.00252798
0.00255266
0.00257634
0.0025991
0.00262097
0.00264195
0.002662
0.00268108
0.00269911
0.00271599
0.00273162
0.00274585
0.00275852
0.00276945
0.00277841
0.00278516
0.00278944
0.00279154
0.00279113
0.00278788
0.00278145
0.00277143
0.00275742
0.00273896
0.00271557
0.00268681
0.00265217
0.00261102
0.00256259
0.00250589
0.00243968
0.00236247
0.00227254
0.00216804
0.00204701
0.00190762
0.0017483
0.0015682
0.00136773
0.00114944
0.000919132
0.000686109
0.000463668
0.000266254
8.23925e-05
7.25179e-05
0.000292983
0.000395696
0.00050141
0.000627139
0.000767698
0.000916266
0.00106702
0.00121562
0.00135944
0.00149706
0.00162787
0.00175174
0.0018688
0.0019793
0.00208355
0.00218188
0.00227459
0.00236197
0.00244428
0.00252177
0.00259466
0.00266317
0.00272751
0.00278787
0.00284444
0.00289743
0.00294703
0.00299343
0.00303683
0.00307743
0.00311543
0.00315108
0.00318461
0.00321618
0.00324587
0.00327369
0.00329995
0.00332497
0.0033488
0.0033715
0.00339305
0.00341345
0.00343266
0.00345062
0.00346723
0.00348238
0.00349591
0.00350764
0.00351734
0.00352473
0.0035295
0.00353143
0.00353037
0.00352595
0.00351771
0.00350512
0.00348755
0.00346425
0.0034344
0.00339791
0.00335452
0.00330379
0.00324509
0.00317738
0.00309919
0.00300861
0.00290333
0.00278071
0.00263784
0.00247171
0.00227945
0.00205879
0.00180867
0.00153029
0.00122864
0.000914459
0.000605548
0.000327606
0.000108958
7.42026e-05
0.000324981
0.000462477
0.000600314
0.000759111
0.000932778
0.00111331
0.00129419
0.00147114
0.00164166
0.00180452
0.00195925
0.00210584
0.00224452
0.00237561
0.00249949
0.0026165
0.00272697
0.00283122
0.00292952
0.00302212
0.00310924
0.0031911
0.00326789
0.00333979
0.00340699
0.00346965
0.00352797
0.00358213
0.00363232
0.00367872
0.00372155
0.00376117
0.00379837
0.00383346
0.00386655
0.00387231
0.00386252
0.00385331
0.00384376
0.0038334
0.0038228
0.00381259
0.00380336
0.00379573
0.00379033
0.00378782
0.00378875
0.00379356
0.00380253
0.0038159
0.00383385
0.00385654
0.00388439
0.00391766
0.00395644
0.00400101
0.00405156
0.00410157
0.00408792
0.00404747
0.0039984
0.0039408
0.00387478
0.00379952
0.00371346
0.00361437
0.00349941
0.00336518
0.00320777
0.00302292
0.00280623
0.00255361
0.00226204
0.00193072
0.00156296
0.00116897
0.000769545
0.00040099
0.000118449
7.50445e-05
0.000350574
0.00052249
0.000690709
0.000878918
0.00108074
0.00128764
0.00149313
0.0016931
0.00188531
0.00206872
0.00224304
0.00240835
0.00256496
0.00271325
0.00285363
0.00298647
0.00311212
0.00323089
0.00334304
0.00344882
0.00354845
0.00364211
0.00372998
0.00381222
0.00388896
0.00396033
0.00402647
0.00408749
0.00414348
0.00419451
0.00422258
0.0041943
0.00417286
0.00415507
0.00413574
0.00411506
0.00409426
0.00407353
0.00405258
0.0040317
0.00401158
0.00399288
0.00397629
0.00396254
0.00395245
0.00394688
0.00394661
0.00395229
0.00396433
0.00398296
0.0040084
0.00404102
0.00408142
0.00413001
0.00418683
0.00425187
0.00432538
0.0044063
0.00449126
0.00457296
0.00457178
0.00450803
0.0044358
0.00435464
0.00426302
0.00415857
0.00403805
0.00389743
0.00373185
0.00353573
0.00330298
0.0030274
0.00270348
0.00232775
0.00190099
0.00143189
0.0009428
0.00047956
0.000126947
7.54052e-05
0.000370907
0.00057529
0.000771049
0.000984353
0.00120926
0.00143738
0.00166248
0.0018808
0.00209034
0.00229024
0.00248037
0.00266091
0.00283223
0.00299476
0.00314892
0.00329511
0.00343367
0.0035649
0.00368907
0.0038064
0.00391709
0.00402131
0.00411921
0.00421092
0.00429655
0.00437617
0.00444984
0.00451759
0.00457941
0.00453202
0.00448068
0.0044432
0.00441359
0.0043861
0.00435797
0.0043299
0.00430286
0.00427727
0.00425299
0.00422994
0.00420844
0.00418894
0.00417201
0.00415833
0.00414878
0.00414432
0.004146
0.00415469
0.004171
0.00419525
0.00422764
0.00426895
0.00432028
0.00438286
0.00445792
0.00454651
0.00464805
0.00475909
0.00488057
0.00501507
0.00506595
0.00499536
0.00491709
0.00483081
0.0047351
0.00462757
0.0045048
0.00436228
0.00419433
0.00399411
0.00375372
0.00346458
0.00311824
0.00270784
0.00223083
0.00169345
0.00111857
0.000560524
0.000134795
7.54651e-05
0.000386801
0.000620754
0.000840665
0.00107465
0.00131789
0.00156255
0.00180287
0.00203542
0.00225846
0.00247132
0.00267397
0.0028667
0.00304992
0.00322411
0.0033897
0.00354708
0.0036966
0.00383854
0.00397315
0.00410065
0.0042212
0.00433496
0.00444208
0.00454266
0.0046368
0.00472457
0.004806
0.00488111
0.00487596
0.00481046
0.00475217
0.0047088
0.00467424
0.00464415
0.00461539
0.0045874
0.00456081
0.00453602
0.00451294
0.00449151
0.00447189
0.00445442
0.00443954
0.0044279
0.0044204
0.00441822
0.00442273
0.00443525
0.00445668
0.00448749
0.00452791
0.00457881
0.00464172
0.00471879
0.00481242
0.00492391
0.0050512
0.00519348
0.00536428
0.00554999
0.00547822
0.00540005
0.00531564
0.00522461
0.00512575
0.00501681
0.00489439
0.00475371
0.00458848
0.0043907
0.00415068
0.00385731
0.00349875
0.00306412
0.00254659
0.00194893
0.00129356
0.000642454
0.000142231
7.5313e-05
0.00039882
0.000658947
0.000899469
0.00114994
0.00140718
0.00166423
0.00191586
0.00215901
0.00239218
0.00261488
0.00282717
0.00302942
0.0032221
0.00340569
0.00358064
0.00374734
0.00390611
0.00405722
0.0042009
0.00433734
0.0044667
0.00458913
0.00470474
0.00481365
0.00491597
0.00501179
0.0051012
0.00518428
0.00518134
0.005111
0.00504801
0.00500153
0.00496747
0.00493993
0.00491484
0.00489095
0.00486848
0.00484763
0.00482836
0.00481066
0.00479464
0.00478056
0.0047688
0.00475998
0.00475506
0.0047555
0.00476312
0.00477984
0.00480709
0.00484549
0.00489504
0.00495637
0.00503138
0.00512341
0.00523536
0.00536642
0.00551638
0.00570169
0.00591687
0.00589133
0.00581126
0.00572575
0.0056353
0.0055398
0.00543839
0.00532916
0.00520894
0.00507294
0.00491448
0.00472465
0.0044921
0.00420311
0.00384221
0.00339381
0.00284584
0.00219645
0.00146649
0.000724804
0.000149436
7.49944e-05
0.000407378
0.000690068
0.000947738
0.00121087
0.00147825
0.00174398
0.00200346
0.00225398
0.00249428
0.00272404
0.00294341
0.00315282
0.00335278
0.00354377
0.00372624
0.00390057
0.00406705
0.00422594
0.00437743
0.00452169
0.00465886
0.00478907
0.00491243
0.00502905
0.00513904
0.00524252
0.0053396
0.00543043
0.00548629
0.00541437
0.00534823
0.00530238
0.0052725
0.00525135
0.00523346
0.00521668
0.00520083
0.00518612
0.00517259
0.00516028
0.00514928
0.00513982
0.00513223
0.00512711
0.00512547
0.00512898
0.00514006
0.00516147
0.00519544
0.00524273
0.00530285
0.0053758
0.00546369
0.00557019
0.00569706
0.00584554
0.00603317
0.0062555
0.00624307
0.00616078
0.00607293
0.00598053
0.00588435
0.00578468
0.00568112
0.00557227
0.00545537
0.00532588
0.00517706
0.00499936
0.00478004
0.0045029
0.00414865
0.00369649
0.00312807
0.00243556
0.00163701
0.000807386
0.000156568
7.45344e-05
0.000412817
0.000714429
0.000985997
0.00125839
0.00153249
0.00180363
0.00206785
0.00232284
0.00256759
0.0028019
0.00302604
0.00324047
0.00344573
0.0036423
0.00383062
0.00401102
0.00418379
0.00434913
0.00450721
0.00465818
0.00480214
0.00493921
0.00506946
0.00519301
0.00530995
0.00542039
0.00552444
0.00562223
0.00571387
0.00569262
0.00562668
0.00558147
0.00555791
0.00554623
0.00553868
0.00553187
0.00552522
0.00551894
0.00551322
0.00550816
0.00550391
0.00550068
0.00549878
0.00549875
0.00550158
0.00550913
0.00552442
0.00555132
0.00559325
0.00565137
0.0057245
0.00581134
0.0059125
0.00603035
0.00617151
0.00635465
0.00657281
0.00653853
0.00645601
0.00636682
0.00627238
0.00617398
0.00607273
0.00596938
0.00586404
0.00575591
0.00564284
0.00552079
0.00538323
0.00522041
0.00501857
0.00475931
0.00441957
0.00397288
0.00339361
0.00266641
0.00180506
0.000890065
0.000163782
7.39495e-05
0.000415467
0.000732451
0.00101494
0.0012936
0.00157145
0.00184508
0.00211127
0.00236813
0.00261487
0.00285146
0.00307824
0.00329572
0.00350444
0.00370489
0.00389746