/*--------------------------------*- C++ -*----------------------------------*\
| =========                 |                                                 |
| \\      /  F ield         | OpenFOAM: The Open Source CFD Toolbox           |
|  \\    /   O peration     | Version:  v2012                                 |
|   \\  /    A nd           | Website:  www.openfoam.com                      |
|    \\/     M anipulation  |                                                 |
\*---------------------------------------------------------------------------*/
FoamFile
{
    version     2.0;
    format      ascii;
    class       volScalarField;
    location    "659";
    object      omega;
}
// * * * * * * * * * * * * * * * * * * * * * * * * * * * * * * * * * * * * * //

dimensions      [0 0 -1 0 0 0 0];


internalField   nonuniform List<scalar> 
6508
(
597.382
213.645
185.188
181.851
183.49
183.49
181.851
185.188
213.645
597.382
447.228
185.203
152.526
146.758
146.879
146.879
146.758
152.526
185.203
447.228
357.149
159.181
129.103
122.465
121.578
121.578
122.465
129.103
159.181
357.149
298.461
137.978
111.463
104.75
103.326
103.326
104.75
111.463
137.978
298.461
257.604
121.118
97.7634
91.314
89.6479
89.6479
91.314
97.7634
121.118
257.604
227.618
107.678
86.8795
80.8071
79.0621
79.0621
80.8071
86.8794
107.678
227.618
204.661
96.8405
78.0695
72.389
70.6488
70.6488
72.389
78.0694
96.8403
204.662
186.482
87.9764
70.8227
65.5092
63.8139
63.8139
65.5091
70.8225
87.9761
186.482
171.687
80.6214
64.7765
59.7924
58.1592
58.1592
59.7923
64.7763
80.6209
171.687
159.374
74.4349
59.668
54.9745
53.4084
53.4084
54.9743
59.6677
74.4342
159.375
148.939
69.1658
55.3027
50.8642
49.3646
49.3645
50.8639
55.3021
69.1647
148.94
139.958
64.6271
51.5343
47.32
45.8834
45.8832
47.3196
51.5335
64.6254
139.96
132.13
60.6776
48.2514
44.2351
42.857
42.8568
44.2346
48.2502
60.6751
132.133
125.232
57.2094
45.3678
41.5275
40.2031
40.2028
41.5267
45.366
57.2057
125.237
119.098
54.1392
42.8159
39.1332
37.858
37.8576
39.1319
42.8133
54.1338
119.105
113.6
51.4016
40.5426
37.0017
35.7716
35.7709
36.9998
40.5387
51.3937
113.61
108.637
48.9449
38.505
35.0926
33.9038
33.903
35.0898
38.4994
48.9339
108.651
104.13
46.7277
36.6687
33.3735
32.2226
32.2214
33.3694
36.6608
46.7135
104.15
100.015
44.7167
35.0057
31.8177
30.7017
30.7
31.812
34.9942
44.6991
100.041
96.2398
42.8847
33.4931
30.4035
29.3196
29.3171
30.3952
33.4762
42.873
96.2722
92.7607
41.2096
32.1119
29.1129
28.0583
28.0544
29.0976
32.057
40.7822
81.223
89.5415
39.6727
30.8463
27.9306
26.9027
26.8962
27.9016
30.7216
38.7215
69.058
86.5513
38.2585
29.6828
26.8439
25.8402
25.8293
26.793
29.4586
36.6676
59.5067
83.764
36.9535
28.6101
25.8418
24.8597
24.8429
25.7615
28.2641
34.4623
51.9756
81.1569
35.7463
27.6185
24.9152
23.9522
23.9284
24.8025
27.0954
32.2439
46.0713
78.7108
34.627
26.6995
24.0559
23.1097
23.0774
23.9098
25.9475
30.2241
41.4961
76.4084
33.5875
25.8462
23.2573
22.3252
22.2818
23.0605
24.8862
28.5033
37.9446
74.2349
32.6209
25.0525
22.5134
21.593
21.5357
22.2554
23.8998
27.0717
35.1663
72.1767
31.7217
24.3134
21.8192
20.908
20.8345
21.4942
22.9884
25.8576
32.835
70.2217
30.8858
23.6248
21.1707
20.2659
20.1744
20.7759
22.1478
24.7982
30.7593
68.3588
30.1096
22.9834
20.5643
19.6634
19.5523
20.0987
21.3709
23.849
28.9078
66.5774
29.3899
22.3867
19.9974
19.0973
18.9655
19.4601
20.6483
22.9659
27.2473
64.8679
28.7254
21.8329
19.4676
18.5655
18.4118
18.857
19.9696
22.1253
25.7469
63.2208
28.1153
21.3206
18.9735
18.0662
17.889
18.2864
19.3257
21.3142
24.3792
61.6268
27.5591
20.8497
18.5141
17.598
17.3957
17.7453
18.7095
20.5246
23.1204
60.0771
27.057
20.4202
18.0893
17.1604
16.9306
17.2312
18.1154
19.752
21.9509
58.5629
26.6091
20.0331
17.6994
16.7533
16.4932
16.7424
17.5401
18.9951
20.8556
57.0755
26.2157
19.6898
17.3454
16.3772
16.0836
16.2783
16.9827
18.2551
19.824
55.6064
25.877
19.3924
17.0292
16.0336
15.7028
15.8394
16.4442
17.5355
18.8497
54.1473
25.5926
19.1432
16.7532
15.7246
15.3524
15.4274
15.9281
16.8423
17.9305
52.6898
25.3615
18.9449
16.5205
15.4529
15.0352
15.0454
15.4396
16.1829
17.068
51.2258
25.1822
18.8004
16.3347
15.2221
14.7548
14.6976
14.9853
15.5665
16.2671
49.7469
25.0518
18.7123
16.1999
15.0365
14.5153
14.3889
14.5725
15.0026
15.5353
48.2447
24.9661
18.683
16.1205
14.9008
14.3215
14.1248
14.2086
14.5005
14.8815
46.7101
24.9197
18.7141
16.1007
14.8199
14.1786
13.9108
13.9003
14.068
14.3139
45.1335
24.9058
18.8066
16.1447
14.7988
14.0917
13.7521
13.6532
13.7107
13.8386
43.504
24.9165
18.9598
16.2557
14.8421
14.0658
13.6537
13.4715
13.4318
13.4584
41.8083
24.9426
19.172
16.4363
14.9541
14.1052
13.6193
13.3579
13.232
13.1719
40.03
24.9733
19.4391
16.687
15.1375
14.2135
13.6522
13.3139
13.1098
12.9751
38.1472
24.9952
19.7539
17.0056
15.393
14.3926
13.7542
13.34
13.0628
12.862
36.1291
24.9906
20.1039
17.3846
15.717
14.6412
13.9247
13.4348
13.0876
12.8261
33.9281
24.9302
20.4656
17.8075
16.0982
14.9514
14.1579
13.5936
13.1792
12.8612
31.4589
24.7333
20.7787
18.2326
16.5067
15.3013
14.4381
13.8053
13.3297
12.9636
28.5288
24.2986
20.9545
18.5811
16.8793
15.6438
14.7322
14.0489
13.5333
13.1396
25.0297
23.4324
20.8839
18.7617
17.1372
15.9161
14.9969
14.3096
13.7873
13.3788
20.6728
21.5146
20.2316
18.6048
17.1875
16.0665
15.2246
14.5804
14.0748
13.6678
15.1058
17.7529
18.4035
17.7649
16.8723
16.0819
15.4152
14.8607
14.4005
14.0163
13.2811
12.4176
15.0159
15.9235
16.0458
15.8465
15.5284
15.1809
14.8448
14.5368
13.1438
9.85057
11.7774
13.7843
14.9942
15.6565
15.9704
16.0543
16.0162
15.9301
13.9667
14.842
18.3398
22.3789
26.1009
28.8006
30.7457
32.3362
33.6406
34.6972
34.2339
20.5148
20.6623
21.1173
21.4408
21.5673
21.5128
21.2854
20.8909
20.4196
19.8506
19.1855
18.4448
17.6496
16.8072
15.9204
14.9746
14.0873
13.2188
12.3381
11.419
10.4285
9.30956
7.94303
6.78511
43.8715
15.724
9.17062
7.79489
7.35284
7.12988
6.9676
6.81431
6.64138
6.47244
6.30682
6.14378
5.98506
5.83349
5.69342
5.57235
5.49422
5.61039
5.85384
6.17436
6.51442
6.79565
6.92231
6.86464
10.511
47.4681
20.732
10.3216
7.32756
6.25865
5.7308
5.39968
5.15598
4.95166
4.76221
4.58947
4.42235
4.2583
4.09993
3.95455
3.83358
3.75754
3.78343
3.92977
4.20315
4.59525
5.0631
5.52439
6.03378
11.5379
47.4205
24.852
13.6086
8.74275
6.76226
5.81876
5.26665
4.90296
4.6408
4.4283
4.23455
4.04752
3.85757
3.66515
3.47987
3.31655
3.19571
3.15174
3.20806
3.38338
3.69276
4.13077
4.65996
5.43131
11.9416
45.6406
27.9031
16.3644
10.7819
7.84995
6.33304
5.49841
4.99207
4.6661
4.43538
4.24213
4.04541
3.8382
3.61391
3.38507
3.17122
2.99781
2.89501
2.88546
2.98688
3.21892
3.59411
4.11572
5.02673
12.0136
43.1545
29.3096
18.641
12.4583
9.09716
7.09238
5.90461
5.21976
4.82101
4.57309
4.3873
4.20656
3.99687
3.74776
3.47616
3.20469
2.97036
2.80734
2.74131
2.78529
2.9565
3.27402
3.77082
4.76629
11.9107
40.3313
29.9084
20.4105
14.0202
10.1653
7.8817
6.43635
5.5436
5.0518
4.78534
4.61221
4.45284
4.26045
4.01246
3.70896
3.37361
3.06726
2.8314
2.70535
2.6966
2.81691
3.08594
3.55624
4.60392
11.7133
37.6099
29.8666
21.5252
15.3318
11.1836
8.5711
6.96087
5.93179
5.3416
5.05139
4.89437
4.76572
4.60375
4.37287
4.06004
3.6878
3.3076
2.97737
2.76687
2.69508
2.76379
2.98835
3.43244
4.50952
11.4588
35.1004
29.3728
22.1374
16.3556
12.103
9.24203
7.42986
6.3242
5.67063
5.3554
5.21598
5.12592
5.01061
4.82155
4.52881
4.13842
3.7056
3.27884
2.95099
2.7898
2.79011
2.96244
3.37535
4.4652
11.1668
32.8198
28.5538
22.3959
17.0415
12.8498
9.8539
7.88718
6.69193
6.0014
5.67967
5.5626
5.51801
5.46395
5.34249
5.10544
4.73
4.27194
3.77226
3.29151
2.99771
2.90463
3.01318
3.39213
4.48586
10.912
30.7551
27.5348
22.3858
17.4673
13.4284
10.3876
8.32078
7.05222
6.33735
6.01393
5.92294
5.92984
5.95047
5.92013
5.77776
5.46944
5.00633
4.46491
3.86356
3.36459
3.12425
3.14271
3.47853
4.57637
10.7235
28.8885
26.4388
22.1454
17.6676
13.8438
10.8304
8.71425
7.39656
6.66893
6.35093
6.28128
6.34093
6.44095
6.51648
6.50268
6.32766
5.92835
5.35848
4.69524
3.96696
3.49338
3.36725
3.63321
4.71232
10.6021
27.1966
25.3283
21.7454
17.6927
14.0968
11.1735
9.0567
7.71488
6.9778
6.66758
6.62233
6.72121
6.89323
7.07558
7.20992
7.21914
7.00507
6.49073
5.76145
4.90752
4.10497
3.73065
3.86491
4.88165
10.5809
25.661
24.238
21.2384
17.6015
14.242
11.443
9.35131
7.99976
7.25105
6.94485
6.91803
7.04888
7.26903
7.54202
7.81768
8.03182
8.08233
7.82426
7.14557
6.18518
5.05675
4.31069
4.20998
5.10064
10.7401
24.2573
23.1774
20.6557
17.4517
14.3176
11.6406
9.59862
8.24383
7.47989
7.16765
7.14818
7.29785
7.55063
7.87674
8.25986
8.65399
8.98329
9.10975
8.80706
7.8747
6.53805
5.23621
4.74845
5.42336
11.2301
22.9633
22.154
20.0414
17.2563
14.348
11.7989
9.80854
8.45111
7.66158
7.32871
7.30262
7.45741
7.7246
8.07709
8.51198
9.02321
9.56858
10.0608
10.3094
9.93464
8.60331
6.66318
5.61652
5.95803
12.2233
21.7607
21.1709
19.4175
17.0178
14.3666
11.9444
10.0003
8.63702
7.80574
7.43323
7.38428
7.53126
7.79966
8.15887
8.60512
9.15768
9.81426
10.5484
11.2577
11.6833
11.207
9.34488
7.12242
6.871
13.7519
20.6348
20.2268
18.7934
16.7312
14.3941
12.1015
10.2022
8.82007
7.93576
7.49928
7.40688
7.5315
7.79134
8.14772
8.59299
9.13904
9.80628
10.633
11.597
12.6013
13.2603
12.5636
9.75636
8.36396
15.6096
19.5747
19.3169
18.1667
16.4171
14.3803
12.3018
10.4441
9.03535
8.07986
7.55774
7.39363
7.47445
7.7116
8.05638
8.49151
9.0227
9.67371
10.4773
11.495
12.7494
14.1715
15.1934
14.2573
10.9058
17.5962
18.5731
18.4371
17.537
16.0809
14.321
12.4856
10.7513
9.31385
8.28364
7.65348
7.38355
7.39004
7.58213
7.9009
8.31878
8.83149
9.45323
10.217
11.1772
12.4163
14.0597
16.0745
17.6728
16.2318
19.5592
17.6274
17.5849
16.9036
15.7205
14.2258
12.6162
11.0579
9.68643
8.58224
7.83684
7.43411
7.32707
7.44197
7.71089
8.09524
8.58132
9.17421
9.89457
10.7817
11.9149
13.4288
15.6083
18.6542
22.0593
21.4719
16.7396
16.7612
16.2651
15.3286
14.0926
12.7073
11.3216
10.0578
8.98474
8.16023
7.60884
7.35912
7.35194
7.53609
7.86049
8.30099
8.8547
9.5327
10.3541
11.3537
12.6272
14.4188
17.3231
22.8305
35.8237
15.9163
15.9723
15.6243
14.9042
13.9075
12.7506
11.5497
10.4102
9.3998
8.56925
7.9535
7.56804
7.40154
7.44876
7.67269
8.0358
8.52673
9.151
9.91537
10.8103
11.8199
12.9401
14.2276
16.0551
18.6027
15.1677
15.2295
14.9898
14.4501
13.6678
12.7264
11.7164
10.7225
9.80759
9.01724
8.38593
7.9306
7.652
7.54523
7.61059
7.8493
8.23737
8.77449
9.47612
10.3268
11.2987
12.3327
13.3038
14.048
14.6624
14.5056
14.5489
14.3778
13.9774
13.3766
12.6302
11.8041
10.965
10.1669
9.4493
8.84443
8.37112
8.03571
7.83662
7.76874
7.84255
8.06363
8.44338
9.01905
9.75133
10.6325
11.6523
12.7242
13.6831
14.3714
13.9405
13.9481
13.8099
13.5061
13.0475
12.4665
11.8075
11.1194
10.446
9.82066
9.2713
8.81705
8.46778
8.22529
8.08634
8.04815
8.13104
8.35006
8.71228
9.21704
9.86882
10.692
11.5986
12.4891
13.2654
13.4788
13.442
13.3096
13.0633
12.7051
12.2527
11.7339
11.1817
10.6284
10.1014
9.62321
9.21106
8.87622
8.62378
8.45406
8.36649
8.36152
8.45782
8.66457
8.98553
9.42234
9.97194
10.6076
11.277
11.9115
13.1215
13.0391
12.8958
12.677
12.3816
12.0194
11.6077
11.1668
10.7183
10.2823
9.87698
9.51708
9.21235
8.96919
8.79078
8.67954
8.63644
8.66095
8.76356
8.95013
9.22317
9.58084
10.0114
10.4879
10.967
12.8642
12.7397
12.5785
12.3686
12.1084
11.8037
11.4646
11.1044
10.7376
10.3781
10.0381
9.72836
9.45701
9.23083
9.05412
8.92964
8.85983
8.84481
8.88379
8.9813
9.13971
9.35893
9.63467
9.95532
10.2991
12.6989
12.5376
12.3577
12.149
11.9083
11.6374
11.3433
11.0355
10.7243
10.4195
10.1298
9.86227
9.62256
9.41494
9.24257
9.10793
9.01509
8.96514
8.95738
8.99146
9.06834
9.18789
9.34811
9.544
9.76567
12.6168
12.4237
12.229
12.0203
11.7908
11.5407
11.2745
10.9989
10.7219
10.4511
10.1929
9.95291
9.73503
9.54214
9.37608
9.23828
9.12986
9.05154
9.00325
8.98438
8.99609
9.03895
9.11098
9.20919
9.32852
12.6109
12.3942
12.1881
11.9782
11.7569
11.5218
11.2748
11.0206
10.765
10.5141
10.2732
10.047
9.83885
9.65115
9.48528
9.34203
9.22183
9.12473
9.05022
8.99723
8.96535
8.95412
8.96264
8.98907
9.03095
12.685
12.4479
12.2305
12.0186
11.8031
11.5797
11.348
11.1103
10.8704
10.633
10.4023
10.1824
9.97647
9.78668
9.61454
9.46084
9.3259
9.2097
9.11179
9.03142
8.96748
8.91842
8.88302
8.86065
8.8497
12.8371
12.5816
12.3526
12.1363
11.9231
11.7075
11.4874
11.263
11.0363
10.8103
10.5881
10.3731
10.1677
9.97435
9.79444
9.62899
9.47854
9.34324
9.22294
9.11721
9.02525
8.94607
8.87847
8.82112
8.7729
13.0601
12.7895
12.5487
12.3253
12.1103
11.8977
11.6844
11.4693
11.2528
11.0366
10.8226
10.613
10.41
10.2153
10.0305
9.8566
9.69423
9.5438
9.4054
9.27889
9.16392
9.0599
8.96606
8.88147
8.80537
13.3438
13.0648
12.8157
12.5859
12.3674
12.1546
11.944
11.7338
11.5238
11.3144
11.1069
10.9026
10.703
10.5095
10.3234
10.1455
9.97652
9.81698
9.66706
9.5268
9.39603
9.27447
9.16166
9.05709
8.9604
13.7028
13.4275
13.1785
12.9472
12.7271
12.5133
12.3032
12.0952
11.8887
11.684
11.4817
11.2826
11.0877
10.8981
10.7147
10.5382
10.3692
10.2082
10.0554
9.91074
9.77423
9.64561
9.52455
9.41063
9.30368
14.2699
14.025
13.7962
13.5777
13.3666
13.1606
12.9587
12.76
12.5643
12.3717
12.1825
11.9975
11.8172
11.6424
11.4737
11.3116
11.1564
11.0085
10.8679
10.7344
10.608
10.4883
10.3748
10.2672
10.1651
15.8325
15.7301
15.6284
15.5184
15.404
15.2876
15.1697
15.0508
14.9314
14.812
14.6932
14.5754
14.4594
14.3456
14.2344
14.1261
14.0209
13.9189
13.8199
13.7238
13.6303
13.5389
13.4493
13.361
13.2737
35.5346
36.2512
36.8675
37.3676
37.7662
38.0723
38.2933
38.4361
38.5073
38.5134
38.4605
38.3548
38.202
38.0079
37.778
37.5174
37.2309
36.9231
36.5981
36.2597
35.9115
35.5567
35.1982
34.8386
34.4804
22.2214
15.2939
15.4211
15.3862
15.6232
14.9738
14.8596
15.1732
14.8706
13.7654
13.8714
13.5398
12.3982
12.6692
12.627
11.3638
11.6628
11.8216
10.6088
10.8864
11.1093
9.97845
10.1896
10.3887
9.44986
9.57866
9.71117
9.07992
9.13715
9.20102
8.84823
8.8532
8.86337
8.73649
8.70541
8.67837
8.74371
8.68752
8.63542
8.88019
8.80513
8.73397
9.21385
9.12881
9.04729
10.0786
9.99583
9.9156
13.1972
13.1209
13.0442
34.1676
33.8588
33.5548
4.82705
7.2368
8.72632
9.81093
10.6426
11.3186
11.8933
12.3959
12.8428
13.2446
13.6092
13.9422
14.248
14.5303
14.792
15.0355
15.2629
15.4759
15.6762
15.865
16.0435
16.2128
16.3738
16.5273
16.6742
16.8151
16.9507
17.0816
17.2083
17.3314
17.4514
17.5686
17.6836
17.7967
17.9082
18.0185
18.1279
18.2366
18.3451
18.4535
18.5622
18.6716
18.7821
18.8942
19.0084
19.1254
19.246
19.371
19.5015
19.639
19.7851
19.9318
20.0775
20.2214
20.3622
20.4994
20.6318
20.7586
20.8785
20.9902
21.0924
21.1834
21.2614
21.3243
21.3697
21.3945
21.3955
21.3691
21.3107
21.215
21.0749
20.8803
20.6155
20.254
19.7503
19.0245
17.9426
16.2759
13.3833
8.7627
11.6299
7.92305
8.53892
8.78873
8.84425
8.79068
8.683
8.56037
8.43947
8.32745
8.22668
8.13734
8.05869
7.98966
7.92909
7.87591
7.82914
7.78793
7.75154
7.71934
7.69078
7.66539
7.64279
7.6226
7.60454
7.58831
7.57367
7.56035
7.54812
7.53672
7.52591
7.51541
7.50499
7.49445
7.48361
7.47235
7.46056
7.4482
7.43526
7.42177
7.40787
7.39372
7.37959
7.36582
7.35287
7.3413
7.3318
7.32522
7.32287
7.32618
7.33644
7.34668
7.3583
7.3718
7.38771
7.40662
7.42918
7.45609
7.48812
7.52616
7.5712
7.62443
7.68727
7.76145
7.84904
7.95257
8.07512
8.22054
8.39373
8.60098
8.85058
9.15342
9.52368
9.97909
10.5398
11.2217
12.0165
12.8584
13.5914
13.8044
13.5479
7.92977
7.87542
7.73242
7.52873
7.28107
7.02981
6.7996
6.59689
6.42148
6.2707
6.14123
6.02992
5.93394
5.85087
5.77869
5.71569
5.66045
5.61179
5.56873
5.53044
5.49623
5.46553
5.43784
5.41275
5.38988
5.36893
5.34958
5.33158
5.31467
5.29859
5.28313
5.26811
5.25341
5.23895
5.2247
5.21065
5.19682
5.18324
5.17001
5.15725
5.1451
5.13376
5.12345
5.11445
5.10705
5.10162
5.09856
5.09832
5.10139
5.10824
5.11869
5.13215
5.14942
5.17119
5.19822
5.23132
5.2714
5.31945
5.37652
5.44383
5.5228
5.61512
5.72283
5.84835
5.99458
6.16498
6.3638
6.5964
6.86975
7.19325
7.58015
8.04972
8.63084
9.36713
10.3226
11.5824
13.2571
15.4342
17.7729
14.6536
7.68314
7.23852
6.91543
6.59652
6.2963
6.01886
5.77745
5.572
5.39849
5.25212
5.1285
5.02382
4.93488
4.85902
4.79403
4.7381
4.68971
4.64763
4.61081
4.57842
4.54974
4.52419
4.50129
4.48064
4.4619
4.44476
4.42899
4.41433
4.40055
4.38745
4.37481
4.36249
4.3504
4.3385
4.3268
4.31534
4.30412
4.29321
4.28267
4.2726
4.26314
4.2544
4.24653
4.23973
4.23419
4.23015
4.22788
4.22769
4.22992
4.23497
4.24328
4.25466
4.26965
4.28886
4.31298
4.34281
4.37922
4.42314
4.47558
4.53762
4.61051
4.69584
4.79556
4.91207
5.04826
5.20764
5.39459
5.61472
5.87549
6.18708
6.56397
7.0275
7.61035
8.36454
9.37479
10.7849
12.8212
15.8756
20.6619
15.3228
7.36495
6.69451
6.2908
5.93545
5.6192
5.34589
5.11454
4.92115
4.76018
4.62622
4.51461
4.42145
4.34352
4.27814
4.2231
4.17658
4.13708
4.10336
4.0744
4.04935
4.02754
4.00839
3.99142
3.97627
3.96261
3.95019
3.93877
3.92815
3.91813
3.90847
3.89897
3.88944
3.87981
3.87011
3.86039
3.85074
3.84109
3.83141
3.82176
3.8122
3.80282
3.79371
3.78496
3.77671
3.76912
3.76236
3.75665
3.75225
3.74945
3.74858
3.75002
3.75404
3.76097
3.77134
3.7858
3.80513
3.83021
3.86209
3.90194
3.95058
4.00908
4.07884
4.16168
4.25991
4.37635
4.51443
4.67844
4.87395
5.10839
5.39207
5.73978
6.17352
6.72743
7.45696
8.45719
9.89939
12.1104
15.7958
23.0222
15.6787
7.06151
6.24823
5.8079
5.44347
5.13122
4.86795
4.64928
4.46891
4.32047
4.19846
4.0982
4.01582
3.94812
3.89245
3.84663
3.80885
3.77763
3.75175
3.7302
3.71215
3.69693
3.68397
3.67281
3.66309
3.65451
3.64681
3.63981
3.63332
3.62715
3.62103
3.61472
3.60801
3.60068
3.59277
3.58434
3.57541
3.56595
3.55597
3.54553
3.53466
3.52343
3.51188
3.50011
3.48822
3.47636
3.4647
3.45346
3.4429
3.43332
3.42507
3.41854
3.41417
3.41224
3.41325
3.41779
3.42655
3.4403
3.45993
3.48647
3.52112
3.56525
3.62003
3.68692
3.76809
3.86621
3.9845
4.12699
4.29894
4.50747
4.76249
5.07838
5.47683
5.99194
6.68025
7.64162
9.06641
11.3536
15.489
25.0276
15.8566
6.80109
5.88419
5.42662
5.06426
4.76063
4.50855
4.30144
4.13226
3.99452
3.88262
3.79197
3.71874
3.65976
3.61241
3.57453
3.54434
3.52038
3.50142
3.48647
3.47472
3.46548
3.45821
3.45245
3.44783
3.44407
3.4409
3.43817
3.43569
3.43329
3.4307
3.42735
3.42291
3.41727
3.41052
3.4027
3.39378
3.38379
3.37277
3.36076
3.34777
3.33383
3.31901
3.30338
3.28706
3.27022
3.25304
3.2358
3.21881
3.20243
3.18708
3.17327
3.16139
3.1518
3.14501
3.14159
3.14218
3.14743
3.15808
3.17489
3.19906
3.23201
3.275
3.32936
3.3971
3.48069
3.58311
3.70808
3.86045
4.04682
4.27652
4.56321
4.92776
5.40357
6.04703
6.96017
8.3451
10.654
15.1181
26.8232
15.9328
6.5838
5.58396
5.11772
4.76148
4.46729
4.22535
4.02809
3.86819
3.73916
3.63553
3.55274
3.48701
3.43522
3.39479
3.36356
3.33977
3.32195
3.3089
3.29962
3.29329
3.28925
3.28693
3.28588
3.28573
3.28618
3.28699
3.28796
3.28896
3.28987
3.29018
3.28911
3.28628
3.28182
3.27582
3.26835
3.25939
3.24894
3.23698
3.22353
3.20861
3.19226
3.17454
3.15555
3.13541
3.11432
3.09251
3.07028
3.048
3.02612
3.00513
2.98565
2.96799
2.95259
2.93997
2.93072
2.92544
2.92483
2.92957
2.94038
2.95812
2.98385
3.01848
3.06374
3.12158
3.1943
3.28461
3.39592
3.53268
3.70097
3.90942
4.17088
4.50526
4.94489
5.5454
6.40957
7.74698
10.0491
14.7563
28.4816
15.9455
6.4032
5.33277
4.86137
4.51234
4.22718
3.99409
3.80502
3.65266
3.53065
3.43362
3.35711
3.29741
3.25142
3.21659
3.19079
3.17224
3.15949
3.15131
3.14671
3.14487
3.14509
3.14683
3.14961
3.15306
3.15687
3.16077
3.16459
3.16821
3.1715
3.17379
3.17446
3.17314
3.16984
3.16464
3.15762
3.14879
3.13815
3.12567
3.11139
3.09531
3.07748
3.05798
3.03691
3.01441
2.99069
2.96599
2.94066
2.9151
2.88982
2.86536
2.84239
2.82124
2.80239
2.78636
2.77372
2.76507
2.76103
2.76219
2.76922
2.7829
2.80362
2.83258
2.87152
2.92232
2.98709
3.06834
3.16918
3.29367
3.44738
3.6383
3.87844
4.18669
4.59421
5.15554
5.97327
7.26158
9.5409
14.4293
30.0526
15.9134
6.25261
5.12004
4.64452
4.30252
4.02563
3.80017
3.61787
3.47157
3.35511
3.26325
3.19165
3.13665
3.09523
3.06483
3.04333
3.02897
3.02026
3.01598
3.01511
3.01681
3.0204
3.02528
3.031
3.03716
3.04344
3.04958
3.0554
3.06078
3.06557
3.06943
3.07163
3.0717
3.06953
3.06522
3.05887
3.05053
3.04021
3.02793
3.01369
2.99753
2.9795
2.95968
2.93816
2.91509
2.89066
2.86511
2.83879
2.81212
2.78563
2.75993
2.73564
2.7132
2.69307
2.67575
2.6618
2.65175
2.64613
2.64547
2.6504
2.66121
2.67848
2.7037
2.73843
2.78436
2.84344
2.91797
3.01081
3.12566
3.26762
3.44406
3.66619
3.95189
4.33116
4.85729
5.63223
6.87284
9.12119
14.1459
31.575
15.8461
6.12641
4.93837
4.45861
4.12293
3.85346
3.63454
3.45781
3.31632
3.20414
3.11622
3.04833
2.9969
2.95893
2.93191
2.91372
2.90257
2.89699
2.89573
2.89774
2.90218
2.90832
2.91559
2.92349
2.93164
2.93972
2.94749
2.95475
2.9614
2.9673
2.97234
2.9759
2.97732
2.9764
2.97321
2.96787
2.9605
2.95115
2.93983
2.92659
2.91145
2.89447
2.87572
2.85529
2.83331
2.80994
2.7854
2.75998
2.7341
2.70828
2.68316
2.65936
2.63737
2.61764
2.60067
2.58692
2.57687
2.57099
2.56979
2.57352
2.58259
2.59805
2.62118
2.65335
2.6961
2.75122
2.82084
2.90756
3.01478
3.14716
3.3115
3.51825
3.78432
4.13857
4.63305
5.36884
6.56451
8.77885
13.9094
33.082
15.7489
6.02012
4.7825
4.29793
3.96767
3.70478
3.49148
3.31929
3.18156
3.07259
2.98754
2.92232
2.87344
2.83796
2.81338
2.7976
2.78883
2.78557
2.78656
2.79073
2.79722
2.80529
2.81435
2.82391
2.83357
2.84302
2.85205
2.86049
2.86824
2.87519
2.88123
2.88607
2.88896
2.88952
2.88778
2.88389
2.87801
2.87023
2.8606
2.84916
2.83596
2.82105
2.8045
2.78637
2.76678
2.74586
2.72376
2.70074
2.67713
2.65344
2.63029
2.60834
2.58809
2.57002
2.55455
2.54209
2.53306
2.52794
2.52697
2.5305
2.5393
2.55435
2.57675
2.6077
2.64862
2.70115
2.76724
2.84928
2.9504
3.07486
3.22891
3.42229
3.671
4.00277
4.46846
5.16834
6.32234
8.50343
13.7223
34.6062
15.6253
5.93029
4.64864
4.15864
3.83292
3.57581
3.36734
3.19885
3.06397
2.9573
2.87421
2.81075
2.76354
2.72969
2.70674
2.69259
2.68543
2.68378
2.68636
2.69209
2.70008
2.70959
2.72002
2.73086
2.74174
2.75235
2.76248
2.772
2.78083
2.78889
2.79606
2.80225
2.80679
2.80914
2.80924
2.80725
2.80335
2.79768
2.79032
2.78133
2.77076
2.75867
2.74511
2.73016
2.71389
2.69639
2.67778
2.65823
2.638
2.61753
2.59741
2.57832
2.56079
2.54529
2.53218
2.52182
2.51465
2.51099
2.51117
2.51578
2.52558
2.54139
2.56418
2.59502
2.63521
2.68624
2.74989
2.82837
2.92453
3.04229
3.18742
3.36895
3.60202
3.91326
4.3524
5.019
6.13469
8.28626
13.5891
36.1834
15.4781
5.85429
4.53408
4.03819
3.71618
3.46419
3.25987
3.09439
2.96164
2.8565
2.77459
2.71211
2.66579
2.63282
2.61076
2.59754
2.59135
2.59068
2.59425
2.60101
2.61005
2.62061
2.63209
2.64398
2.65591
2.66758
2.67879
2.6894
2.69937
2.70865
2.71718
2.72488
2.73126
2.7357
2.73803
2.73838
2.73693
2.73385
2.72924
2.72319
2.71576
2.70701
2.697
2.68579
2.67345
2.66004
2.64564
2.63034
2.61431
2.59789
2.58164
2.56621
2.55217
2.53994
2.52988
2.52235
2.51771
2.51638
2.51881
2.52561
2.53741
2.55495
2.57905
2.61071
2.65106
2.70145
2.76352
2.83927
2.93132
3.04329
3.18048
3.35131
3.57004
3.86222
4.27649
4.91191
5.99253
8.12096
13.5179
37.8572
15.3108
5.78995
4.43691
3.93497
3.61601
3.36856
3.16789
3.00488
2.87368
2.76946
2.68807
2.6259
2.5798
2.54704
2.52523
2.51231
2.5065
2.50628
2.51035
2.51764
2.52728
2.53856
2.55083
2.56361
2.5765
2.5892
2.60151
2.61331
2.62452
2.63516
2.64522
2.65464
2.66305
2.66985
2.67477
2.67786
2.67929
2.67922
2.67778
2.67508
2.67118
2.66616
2.66009
2.65302
2.64501
2.63613
2.62641
2.61591
2.6047
2.59301
2.58133
2.57026
2.56034
2.55202
2.54567
2.54166
2.54041
2.54235
2.54797
2.5578
2.5724
2.59242
2.6186
2.65179
2.693
2.74342
2.80453
2.87815
2.96669
3.07348
3.20344
3.36441
3.56978
3.84403
4.23469
4.84056
5.88924
8.00398
13.5285
39.6865
15.1305
5.73523
4.35577
3.8481
3.53172
3.28838
3.091
2.93012
2.80008
2.69635
2.61501
2.5526
2.50613
2.47305
2.45093
2.43776
2.43178
2.43149
2.43562
2.44306
2.45293
2.46455
2.47738
2.49089
2.50467
2.51843
2.53192
2.54501
2.55764
2.5698
2.58154
2.59287
2.60347
2.61284
2.62064
2.62684
2.63154
2.63488
2.63701
2.63801
2.63799
2.63702
2.63517
2.63252
2.62913
2.62507
2.62036
2.61504
2.60912
2.60274
2.59625
2.59017
2.585
2.58126
2.57937
2.57971
2.58267
2.58868
2.59819
2.61169
2.6297
2.65279
2.68159
2.71683
2.75937
2.81026
2.8708
2.94265
3.02803
3.13001
3.25319
3.40486
3.59761
3.85482
4.22286
4.80047
5.82029
7.93392
13.6515
41.7565
14.9458
5.68959
4.28997
3.77745
3.46269
3.22317
3.02913
2.87048
2.74168
2.63842
2.55699
2.49413
2.44697
2.413
2.38998
2.37593
2.36918
2.36828
2.37199
2.37924
2.38912
2.40089
2.41403
2.42816
2.44282
2.45768
2.47247
2.48704
2.50129
2.5152
2.52886
2.54228
2.55525
2.56737
2.57829
2.5879
2.59622
2.60334
2.60937
2.61442
2.61858
2.62193
2.62456
2.62655
2.62798
2.62893
2.62944
2.62955
2.62926
2.6286
2.62785
2.62734
2.62755
2.62913
2.63245
2.63783
2.64561
2.65619
2.67
2.68755
2.70933
2.73579
2.76746
2.80496
2.849
2.90049
2.96058
3.03075
3.11304
3.21032
3.32682
3.46931
3.64954
3.88955
4.23411
4.78111
5.76724
7.87248
13.7901
44.0391
14.7805
5.64968
4.23859
3.72249
3.41107
3.17571
2.98509
2.82875
2.70118
2.59825
2.51648
2.4528
2.40451
2.36921
2.34479
2.32939
2.32143
2.31954
2.32252
2.32937
2.33922
2.3513
2.36494
2.37975
2.39541
2.41153
2.42782
2.44408
2.4602
2.47615
2.49201
2.50779
2.52337
2.53845
2.55271
2.56596
2.57815
2.58931
2.59952
2.60887
2.61745
2.62533
2.63262
2.6394
2.64577
2.65183
2.65766
2.66333
2.66885
2.67424
2.67962
2.68518
2.69144
2.69897
2.70805
2.7189
2.73177
2.74707
2.76537
2.78714
2.81276
2.84261
2.8771
2.91675
2.96215
3.01406
3.07349
3.14178
3.22078
3.31311
3.42269
3.55573
3.72301
3.94495
4.26403
4.776
5.71943
7.80017
13.9137
46.6183
14.6747
5.61756
4.2059
3.68823
3.38046
3.14918
2.96199
2.80806
2.68182
2.5792
2.49697
2.43229
2.38263
2.34577
2.31972
2.30279
2.2935
2.29057
2.29289
2.29951
2.30958
2.32236
2.33715
2.3533
2.37039
2.3881
2.40612
2.42429
2.44253
2.46083
2.4792
2.49767
2.51615
2.53439
2.55212
2.56912
2.58528
2.6006
2.61509
2.62883
2.64189
2.65436
2.66633
2.6779
2.68919
2.70032
2.71141
2.72259
2.73395
2.74556
2.75723
2.7692
2.78191
2.79573
2.81081
2.8271
2.84498
2.86506
2.88787
2.91372
2.94292
2.9758
3.0127
3.05401
3.10024
3.15204
3.21028
3.27616
3.35135
3.43825
3.54043
3.66349
3.81712
4.01982
4.31091
4.78227
5.6708
7.70205
13.9943
49.6368
14.7059
5.61029
4.2102
3.68678
3.37881
3.14963
2.96529
2.81353
2.68865
2.58661
2.50431
2.43905
2.38841
2.35036
2.32313
2.30518
2.29517
2.29191
2.29437
2.30164
2.31289
2.3273
2.34406
2.36236
2.38149
2.40098
2.42079
2.44101
2.46161
2.48249
2.50363
2.52501
2.54652
2.56796
2.58907
2.60966
2.62957
2.64878
2.66728
2.68513
2.70239
2.71914
2.73548
2.75151
2.76736
2.7832
2.79919
2.81552
2.83238
2.84988
2.86756
2.88564
2.90466
2.92457
2.94547
2.96724
2.99033
3.01524
3.04223
3.07161
3.10369
3.13876
3.17714
3.21916
3.26525
3.31598
3.37211
3.43473
3.50532
3.58606
3.6801
3.79244
3.93151
4.11349
4.37364
4.79773
5.61511
7.55673
13.9714
53.3401
15.0903
5.68432
4.27933
3.74667
3.42637
3.19324
3.00685
2.85454
2.73087
2.63083
2.55026
2.48652
2.43702
2.39991
2.37363
2.35682
2.34824
2.34676
2.3514
2.36122
2.37531
2.39266
2.41211
2.43238
2.45268
2.4732
2.49454
2.51673
2.53959
2.56296
2.58671
2.61074
2.63493
2.65906
2.68291
2.70629
2.72906
2.75122
2.77279
2.79381
2.81434
2.83446
2.85425
2.87385
2.8934
2.91308
2.93314
2.95388
2.97566
2.99796
3.02057
3.04355
3.06745
3.09248
3.11852
3.14577
3.17411
3.2033
3.23362
3.26542
3.29908
3.33492
3.37327
3.41449
3.45897
3.50723
3.55995
3.6181
3.68302
3.75661
3.84162
3.94228
4.06566
4.22516
4.45073
4.81934
5.54296
7.32385
13.6834
58.1706
16.2075
6.26386
4.56465
3.95012
3.56887
3.31636
3.12103
2.96542
2.84197
2.74533
2.67016
2.61279
2.57015
2.53979
2.52026
2.50988
2.50719
2.51096
2.52014
2.53374
2.55077
2.57004
2.59005
2.60867
2.62699
2.64677
2.66855
2.6917
2.71575
2.7404
2.7654
2.79057
2.81571
2.84062
2.86508
2.88894
2.91218
2.93495
2.95737
2.97947
3.00124
3.02276
3.04414
3.06553
3.0871
3.10908
3.1318
3.15572
3.18074
3.20621
3.23192
3.25783
3.28421
3.31174
3.3405
3.37083
3.40209
3.43409
3.46605
3.49851
3.53183
3.56643
3.60272
3.64112
3.68207
3.72607
3.77375
3.82598
3.88393
3.94922
4.02413
4.11207
4.21853
4.35367
4.53953
4.83939
5.43024
6.9097
12.6047
65.122
13.6656
7.19406
5.42924
4.44423
3.90639
3.60826
3.40615
3.25799
3.14672
3.0627
2.99883
2.94996
2.91391
2.88948
2.87475
2.86761
2.86649
2.87026
2.87805
2.88912
2.90273
2.91805
2.93397
2.94955
2.96633
2.98514
3.00555
3.02691
3.04883
3.07095
3.09301
3.11476
3.136
3.15653
3.1762
3.195
3.21318
3.23167
3.25073
3.26993
3.28911
3.30834
3.32787
3.34792
3.36871
3.39046
3.41365
3.43848
3.46392
3.48972
3.51562
3.54148
3.56739
3.59363
3.62071
3.64888
3.6784
3.70891
3.73982
3.77065
3.80138
3.83244
3.86437
3.89773
3.93304
3.97084
4.01173
4.05648
4.10609
4.16188
4.22563
4.29988
4.38858
4.49901
4.64952
4.88275
5.29037
6.15366
8.71193
20.8473
12.7751
8.42943
6.57696
5.33585
4.64666
4.34032
4.16333
4.03439
3.9288
3.838
3.75713
3.68745
3.62843
3.58041
3.54221
3.51281
3.49111
3.47602
3.46653
3.46175
3.46087
3.46335
3.46895
3.47852
3.49021
3.50245
3.5149
3.52772
3.5409
3.55432
3.56787
3.58144
3.59491
3.60814
3.62101
3.6334
3.64531
3.65686
3.66803
3.6788
3.68948
3.7006
3.71338
3.72806
3.74457
3.76311
3.7839
3.80546
3.82754
3.84988
3.87219
3.89425
3.916
3.93753
3.95898
3.98058
4.00309
4.02653
4.05114
4.07646
4.10214
4.12748
4.15308
4.1795
4.20736
4.23727
4.26982
4.30572
4.34578
4.39103
4.44278
4.50276
4.5739
4.66223
4.78261
4.95743
5.22328
5.66399
6.50115
8.33143
13.0541
9.91397
8.02476
6.89289
6.29188
5.89555
5.60123
5.36763
5.17015
5.00197
4.85777
4.73549
4.63368
4.5483
4.47643
4.4158
4.36461
4.32139
4.28493
4.25422
4.22849
4.20724
4.1906
4.17834
4.16949
4.16247
4.15699
4.15289
4.15006
4.14837
4.14776
4.14814
4.14946
4.15162
4.1545
4.15794
4.16161
4.1646
4.16671
4.16855
4.17078
4.17395
4.17909
4.18707
4.19785
4.21118
4.2254
4.24023
4.25542
4.2707
4.28582
4.30055
4.31475
4.32839
4.34152
4.35417
4.36657
4.3794
4.39287
4.4078
4.42412
4.44162
4.45967
4.47811
4.49753
4.51852
4.54175
4.56785
4.59752
4.63155
4.67081
4.71645
4.77072
4.83921
4.93174
5.05768
5.22864
5.46428
5.79674
6.25104
12.6404
10.9172
9.49421
8.58535
7.95815
7.48754
7.11647
6.8094
6.54955
6.32705
6.13752
5.97384
5.83151
5.70691
5.59712
5.49979
5.41306
5.33541
5.26563
5.20269
5.14577
5.09424
5.04774
5.00623
4.96963
4.937
4.90705
4.87948
4.85405
4.83057
4.80888
4.78888
4.7705
4.75374
4.73868
4.72542
4.71394
4.7041
4.69586