/*--------------------------------*- C++ -*----------------------------------*\
| =========                 |                                                 |
| \\      /  F ield         | OpenFOAM: The Open Source CFD Toolbox           |
|  \\    /   O peration     | Version:  v2012                                 |
|   \\  /    A nd           | Website:  www.openfoam.com                      |
|    \\/     M anipulation  |                                                 |
\*---------------------------------------------------------------------------*/
FoamFile
{
    version     2.0;
    format      ascii;
    class       volScalarField;
    location    "659";
    object      p;
}
// * * * * * * * * * * * * * * * * * * * * * * * * * * * * * * * * * * * * * //

dimensions      [0 2 -2 0 0 0 0];


internalField   nonuniform List<scalar> 
6508
(
0.392994
0.392317
0.391951
0.391797
0.391731
0.391731
0.391796
0.39195
0.392316
0.392993
0.392233
0.392038
0.391854
0.39174
0.391686
0.391686
0.391739
0.391854
0.392037
0.392232
0.39171
0.391723
0.391651
0.391572
0.391535
0.391535
0.391572
0.39165
0.391722
0.391708
0.391393
0.391452
0.391414
0.391357
0.391331
0.391331
0.391356
0.391412
0.391451
0.391391
0.391138
0.391204
0.391179
0.391132
0.391111
0.39111
0.391131
0.391177
0.391201
0.391136
0.390894
0.390956
0.390937
0.3909
0.390881
0.39088
0.390897
0.390934
0.390952
0.39089
0.390655
0.390709
0.39069
0.390658
0.390642
0.390641
0.390655
0.390685
0.390704
0.390649
0.39042
0.390467
0.390446
0.390415
0.3904
0.390398
0.39041
0.390438
0.390458
0.390411
0.390188
0.390227
0.390204
0.390174
0.390159
0.390156
0.390166
0.390193
0.390214
0.390174
0.389956
0.38999
0.389965
0.389935
0.389918
0.389914
0.389923
0.389947
0.389969
0.389936
0.389726
0.389754
0.389727
0.389697
0.389679
0.389673
0.389679
0.389701
0.389723
0.389695
0.389498
0.389521
0.389493
0.389461
0.38944
0.389431
0.389434
0.389453
0.389474
0.389451
0.389274
0.389293
0.389263
0.389228
0.389203
0.389189
0.389188
0.389202
0.389223
0.389203
0.389057
0.389072
0.389038
0.388998
0.388967
0.388945
0.388938
0.388947
0.388966
0.388949
0.388849
0.388861
0.388822
0.388774
0.388732
0.3887
0.388682
0.388685
0.388701
0.388686
0.388656
0.388664
0.388618
0.388558
0.388499
0.38845
0.388417
0.38841
0.388424
0.388414
0.388485
0.388489
0.388432
0.388354
0.388269
0.388191
0.388135
0.388114
0.38813
0.388129
0.388349
0.388347
0.388273
0.388167
0.388046
0.387924
0.387826
0.387781
0.387809
0.387836
0.388262
0.388253
0.388158
0.38801
0.387832
0.387639
0.38746
0.387357
0.387406
0.387583
0.388249
0.388232
0.388109
0.387905
0.387644
0.387342
0.387029
0.386829
0.386925
0.387495
0.388339
0.388315
0.388159
0.387886
0.387511
0.387039
0.386452
0.385823
0.385054
0.380929
0.388569
0.388545
0.388357
0.388014
0.387532
0.386909
0.386067
0.384871
0.384211
0.386197
0.388983
0.388964
0.388752
0.388351
0.387777
0.387051
0.386134
0.384697
0.382859
0.384625
0.389621
0.389614
0.389383
0.38893
0.38827
0.387431
0.386414
0.384868
0.382088
0.382707
0.390521
0.390529
0.39028
0.389775
0.389031
0.388073
0.386928
0.385388
0.382409
0.38234
0.391722
0.391746
0.391477
0.390916
0.390085
0.389011
0.387731
0.386153
0.383073
0.382104
0.393265
0.393305
0.393009
0.392379
0.391444
0.390236
0.388789
0.387112
0.384054
0.381957
0.395199
0.395251
0.394917
0.394197
0.393126
0.391742
0.390071
0.388168
0.385097
0.382107
0.397581
0.397641
0.397255
0.396418
0.395171
0.39356
0.391608
0.389375
0.386127
0.38277
0.400482
0.400542
0.400092
0.399107
0.397639
0.395745
0.393458
0.390838
0.387298
0.383741
0.404002
0.404065
0.40352
0.402344
0.400604
0.39836
0.395665
0.392595
0.38878
0.384865
0.408243
0.408309
0.407634
0.406228
0.404153
0.401476
0.398268
0.394627
0.390447
0.38605
0.413316
0.41337
0.412551
0.410873
0.408395
0.405191
0.401345
0.39699
0.392207
0.387185
0.419369
0.419406
0.418422
0.416425
0.413471
0.409639
0.405024
0.399784
0.394124
0.388242
0.426574
0.426595
0.425421
0.42306
0.419557
0.414998
0.409484
0.403193
0.39642
0.389453
0.435116
0.435122
0.433739
0.430972
0.42686
0.421485
0.414955
0.407464
0.399376
0.391105
0.445185
0.44518
0.443574
0.440373
0.435604
0.429345
0.421704
0.412893
0.403321
0.393544
0.456972
0.456961
0.455125
0.451475
0.446023
0.438838
0.430028
0.419812
0.408638
0.397189
0.470653
0.470645
0.468578
0.464478
0.45834
0.450221
0.440225
0.428575
0.415741
0.402505
0.486377
0.486378
0.484086
0.479549
0.472748
0.463722
0.45257
0.439513
0.425029
0.409959
0.504249
0.504262
0.501752
0.496805
0.489383
0.479512
0.467281
0.452905
0.436853
0.419979
0.524314
0.524334
0.521614
0.516289
0.508309
0.497683
0.484494
0.468942
0.451472
0.432914
0.54654
0.546554
0.543626
0.537958
0.529493
0.518224
0.50423
0.487694
0.469024
0.448989
0.570801
0.57079
0.567651
0.561667
0.552791
0.541003
0.526379
0.509085
0.489485
0.468261
0.596882
0.596817
0.59345
0.587166
0.577946
0.56576
0.550685
0.532876
0.512646
0.490581
0.624477
0.624318
0.620686
0.614098
0.604584
0.592108
0.576755
0.558669
0.538118
0.515587
0.653184
0.652877
0.648926
0.642008
0.632229
0.619554
0.604073
0.585928
0.565345
0.542716
0.682511
0.681993
0.677649
0.670353
0.66032
0.647516
0.632036
0.614019
0.593656
0.571257
0.711872
0.711068
0.706245
0.698514
0.688231
0.67536
0.659992
0.642262
0.622325
0.600425
0.740578
0.739407
0.734017
0.725807
0.715297
0.702435
0.687292
0.669988
0.650647
0.629448
0.767807
0.766182
0.760168
0.751494
0.740836
0.728104
0.713326
0.696594
0.677994
0.657648
0.792543
0.790372
0.783811
0.774823
0.764194
0.751787
0.737567
0.72158
0.703863
0.684487
0.813464
0.810758
0.803954
0.795014
0.784757
0.772994
0.759604
0.744574
0.727896
0.709591
0.828346
0.826422
0.820048
0.811532
0.802077
0.791385
0.779168
0.765348
0.749876
0.732736
0.83539
0.835318
0.830947
0.823888
0.815921
0.806822
0.796165
0.783818
0.769715
0.753815
0.83718
0.837883
0.836189
0.831854
0.826261
0.819328
0.810618
0.799981
0.787361
0.772725
0.837321
0.837632
0.837471
0.836041
0.833385
0.829092
0.822692
0.813986
0.802931
0.78954
0.837273
0.836807
0.836981
0.837682
0.837824
0.836298
0.832404
0.825778
0.816338
0.804153
0.837968
0.837007
0.837024
0.83863
0.840859
0.841753
0.840008
0.835102
0.827042
0.815869
0.839164
0.838613
0.838925
0.840978
0.84411
0.84663
0.846807
0.843541
0.837142
0.827573
0.360279
0.363521
0.365593
0.367435
0.368873
0.369897
0.370413
0.370399
0.369972
0.369148
0.368016
0.366745
0.365396
0.364049
0.362841
0.361891
0.361267
0.361018
0.361184
0.361757
0.362645
0.363661
0.364527
0.365006
0.365167
0.36834
0.364987
0.364758
0.365817
0.366955
0.367883
0.368449
0.368522
0.36809
0.367248
0.366159
0.364972
0.363775
0.362644
0.361666
0.360906
0.360427
0.360277
0.360492
0.361067
0.361948
0.363015
0.364079
0.364838
0.365187
0.368993
0.365613
0.364663
0.365039
0.365748
0.366356
0.366691
0.366663
0.366263
0.365547
0.364617
0.363592
0.362563
0.361607
0.360792
0.360177
0.359806
0.359705
0.35989
0.360357
0.361077
0.361979
0.362961
0.363861
0.364495
0.36797
0.364903
0.363938
0.364207
0.364874
0.365425
0.365687
0.365603
0.365183
0.364484
0.363593
0.362609
0.361627
0.360727
0.359973
0.359413
0.359079
0.358988
0.359144
0.359537
0.360134
0.360877
0.361684
0.362484
0.363203
0.368777
0.364388
0.362903
0.36312
0.363931
0.364568
0.364882
0.364817
0.364402
0.363704
0.362817
0.361842
0.360873
0.359992
0.359261
0.358722
0.358397
0.358294
0.358409
0.35873
0.359226
0.359846
0.360516
0.36118
0.361872
0.370469
0.364813
0.362421
0.362441
0.363199
0.363863
0.36422
0.364186
0.363786
0.363093
0.362207
0.361234
0.360271
0.3594
0.358681
0.358152
0.357829
0.357712
0.35779
0.358046
0.35845
0.358958
0.359507
0.360031
0.360601
0.371668
0.365855
0.362995
0.362618
0.363044
0.363573
0.363866
0.36381
0.3634
0.362698
0.3618
0.360817
0.35985
0.358982
0.358271
0.357748
0.357425
0.357295
0.357341
0.357541
0.357863
0.358266
0.358697
0.359082
0.359515
0.372701
0.367444
0.364535
0.363637
0.36363
0.363891
0.36401
0.363822
0.363334
0.36259
0.361654
0.36064
0.359651
0.358771
0.358058
0.357538
0.357213
0.357071
0.357089
0.357241
0.357492
0.357803
0.358127
0.358393
0.358707
0.374321
0.369485
0.366592
0.365306
0.364924
0.364844
0.364682
0.364296
0.363661
0.362815
0.361811
0.360735
0.359699
0.358789
0.35806
0.357533
0.357202
0.357045
0.357036
0.357146
0.357336
0.357569
0.357802
0.357973
0.358179
0.376331
0.371788
0.368919
0.367385
0.366683
0.366279
0.365824
0.365204
0.364385
0.36338
0.362273
0.36111
0.359998
0.359032
0.358269
0.357724
0.357382
0.35721
0.357174
0.357243
0.357374
0.357535
0.357689
0.357783
0.3579
0.378296
0.374023
0.371226
0.369563
0.368617
0.367931
0.367216
0.366368
0.36537
0.364219
0.362965
0.361712
0.360518
0.359481
0.358666
0.35809
0.357727
0.357539
0.357479
0.357507
0.357579
0.357666
0.357749
0.357781
0.357825
0.380004
0.375909
0.373191
0.371475
0.370372
0.369484
0.368569
0.367541
0.3664
0.365141
0.363775
0.362409
0.36117
0.360078
0.35921
0.358597
0.358208
0.357995
0.357905
0.357886
0.357897
0.357921
0.357947
0.357926
0.357904
0.381311
0.377231
0.374544
0.372799
0.371601
0.37058
0.36953
0.368392
0.367172
0.365872
0.364489
0.363068
0.361769
0.360697
0.359824
0.359193
0.358789
0.358548
0.358404
0.358318
0.358271
0.358251
0.358227
0.358154
0.358075
0.382204
0.377962
0.375163
0.373329
0.37204
0.370928
0.369794
0.3686
0.367358
0.366074
0.364752
0.363424
0.362153
0.361111
0.360345
0.359785
0.359431
0.359203
0.358999
0.358799
0.358661
0.358585
0.358513
0.358392
0.358264
0.382865
0.378191
0.375074
0.373026
0.371588
0.370378
0.369171
0.367936
0.366695
0.365461
0.364238
0.363066
0.362008
0.361105
0.360495
0.360162
0.359995
0.359869
0.359669
0.359377
0.359096
0.358897
0.358741
0.35857
0.358393
0.383606
0.378177
0.374484
0.372035
0.370327
0.368943
0.367635
0.366338
0.365082
0.36389
0.362772
0.361762
0.360918
0.36033
0.360013
0.360001
0.360161
0.360302
0.36026
0.360008
0.359589
0.359176
0.358864
0.358613
0.358394
0.384812
0.378305
0.373748
0.370661
0.368507
0.366828
0.36534
0.363933
0.362618
0.361429
0.36039
0.359534
0.358889
0.358475
0.358585
0.359117
0.359682
0.360236
0.360585
0.360524
0.36012
0.359499
0.3589
0.358486
0.358218
0.386942
0.379052
0.373325
0.369328
0.36651
0.364377
0.362594
0.361002
0.359572
0.358335
0.357324
0.356576
0.356145
0.356044
0.356274
0.357108
0.358361
0.359492
0.360403
0.360827
0.360598
0.359894
0.35895
0.358249
0.357875
0.390515
0.380958
0.373752
0.36855
0.364818
0.362037
0.359815
0.357932
0.356316
0.354977
0.353943
0.35325
0.352948
0.35309
0.353691
0.354737
0.356233
0.357957
0.359526
0.360633
0.36087
0.36025
0.359153
0.358004
0.357385
0.396065
0.384602
0.375619
0.368909
0.363984
0.360318
0.35748
0.355181
0.353288
0.351781
0.350679
0.350005
0.349798
0.350104
0.350958
0.352355
0.354218
0.356365
0.358436
0.360247
0.361051
0.360727
0.359666
0.358163
0.356923
0.404107
0.390562
0.379543
0.371022
0.364605
0.359784
0.356104
0.353228
0.350947
0.349186
0.347947
0.347253
0.347124
0.347592
0.348682
0.350393
0.352671
0.355356
0.358094
0.360593
0.362187
0.362497
0.361107
0.358349
0.356284
0.415094
0.399387
0.386132
0.375525
0.36731
0.361038
0.35625
0.35257
0.349739
0.347616
0.346154
0.345362
0.345264
0.34588
0.347236
0.349339
0.352147
0.355517
0.359164
0.362701
0.365507
0.367223
0.365998
0.359394
0.354007
0.429366
0.411536
0.39595
0.383039
0.372739
0.364706
0.358513
0.353763
0.350152
0.347486
0.345669
0.344675
0.344514
0.345205
0.346794
0.349331
0.352824
0.357147
0.362063
0.367225
0.372191
0.376244
0.377712
0.376346
0.377461
0.447093
0.427319
0.409446
0.394125
0.381515
0.371427
0.363512
0.357388
0.352727
0.349285
0.346913
0.345541
0.345154
0.345777
0.347465
0.350335
0.354428
0.359622
0.36575
0.372634
0.380111
0.387719
0.394558
0.402138
0.412195
0.46823
0.44683
0.42688
0.409198
0.394169
0.381801
0.37187
0.364055
0.358032
0.353529
0.350352
0.34838
0.347557
0.347874
0.349387
0.352272
0.356613
0.362253
0.368999
0.376717
0.385291
0.394553
0.404233
0.414422
0.425682
0.492477
0.469885
0.448235
0.428431
0.411049
0.396305
0.384144
0.374351
0.36665
0.360771
0.356491
0.353647
0.352136
0.351906
0.352994
0.355578
0.359756
0.365406
0.372334
0.380388
0.389395
0.399164
0.409527
0.420228
0.430704
0.519291
0.496007
0.473162
0.451659
0.432193
0.415165
0.400706
0.388747
0.379102
0.371542
0.365845
0.361825
0.359339
0.358289
0.358676
0.360671
0.364398
0.369712
0.376409
0.38433
0.393274
0.402972
0.413105
0.423294
0.433072
0.54793
0.52445
0.500974
0.478325
0.457233
0.438225
0.421601
0.407449
0.39571
0.386235
0.378839
0.373341
0.369578
0.367413
0.366781
0.367861
0.370815
0.37544
0.381471
0.38875
0.397083
0.406191
0.415712
0.425208
0.434194
0.577538
0.554299
0.530724
0.507519
0.485372
0.464865
0.44641
0.430242
0.416434
0.404946
0.395667
0.388449
0.38314
0.379592
0.377667
0.377433
0.379176
0.382792
0.387851
0.39411
0.401405
0.409485
0.418008
0.426568
0.434731
0.607258
0.58459
0.56135
0.538114
0.515487
0.494038
0.474232
0.456401
0.44074
0.427319
0.416119
0.407058
0.400022
0.394877
0.391483
0.389728
0.389796
0.391896
0.395699
0.400724
0.406724
0.413474
0.420695
0.428044
0.435151
0.636324
0.614444
0.591835
0.568958
0.546325
0.52445
0.503802
0.484761
0.4676
0.452487
0.439492
0.428611
0.419788
0.412929
0.407924
0.404645
0.403024
0.403163
0.405082
0.408544
0.413131
0.418443
0.424225
0.430207
0.436082
0.664134
0.643159
0.621343
0.599056
0.576729
0.554814
0.533752
0.513931
0.495668
0.479192
0.464648
0.452103
0.441565
0.432991
0.426309
0.421426
0.418239
0.416623
0.41654
0.417951
0.420619
0.424257
0.428564
0.433188
0.437804
0.69027
0.670244
0.649274
0.627669
0.605798
0.584062
0.562866
0.54259
0.523562
0.506049
0.490243
0.476268
0.464183
0.453997
0.445674
0.43915
0.434339
0.431132
0.429411
0.42898
0.429701
0.431455
0.433979
0.436987
0.440217
0.714477
0.695393
0.675246
0.654311
0.632917
0.611431
0.590233
0.569687
0.550125
0.531828
0.515016
0.499851
0.486431
0.474804
0.46497
0.456892
0.4505
0.4457
0.442374
0.440374
0.439543
0.439672
0.440525
0.441948
0.443784
0.736621
0.718432
0.699034
0.678687
0.657701
0.63643
0.615242
0.594493
0.574515
0.555592
0.537963
0.52181
0.507259
0.494386
0.483219
0.473742
0.465907
0.459634
0.454816
0.451323
0.449001
0.447681
0.447183
0.44734
0.447966
0.756555
0.739175
0.720414
0.700536
0.679854
0.658714
0.637489
0.616537
0.596187
0.57673
0.558411
0.541427
0.525922
0.511989
0.499677
0.48899
0.479896
0.472331
0.4662
0.461387
0.457756
0.455155
0.453423
0.452396
0.451909
0.774301
0.75759
0.739294
0.719692
0.699112
0.67794
0.65657
0.635365
0.614645
0.5947
0.575777
0.558083
0.54177
0.526947
0.513675
0.501972
0.491821
0.483169
0.475936
0.470018
0.465292
0.461619
0.458854
0.456846
0.455446
0.789731
0.773504
0.755458
0.735967
0.715398
0.694128
0.67256
0.651077
0.630003
0.609621
0.59018
0.571888
0.554907
0.53935
0.525288
0.512751
0.501734
0.492193
0.484061
0.477242
0.471624
0.467082
0.463481
0.460682
0.458549
0.801946
0.785932
0.767975
0.748458
0.727774
0.706351
0.684576
0.662811
0.641383
0.620586
0.600675
0.581862
0.564318
0.548162
0.533471
0.520285
0.508604
0.498396
0.489598
0.482122
0.475864
0.470705
0.466517
0.463167
0.460522
0.814634
0.798943
0.781113
0.761591
0.740754
0.719044
0.696884
0.674654
0.652695
0.631315
0.610779
0.591309
0.573078
0.556215
0.54081
0.526921
0.514556
0.503685
0.494251
0.486172
0.479348
0.473663
0.468992
0.465205
0.462172
0.380907
0.370964
0.364451
0.420177
0.423118
0.430106
0.437006
0.447768
0.456916
0.439907
0.44839
0.456
0.441432
0.448171
0.453507
0.441755
0.447777
0.452554
0.441649
0.44719
0.451657
0.441274
0.446285
0.450448
0.441234
0.445547
0.449245
0.44192
0.445436
0.448528
0.443242
0.445933
0.448389
0.445682
0.447453
0.449112
0.448815
0.449687
0.450537
0.451815
0.451926
0.45213
0.454576
0.454042
0.453675
0.457058
0.456002
0.455167
0.458567
0.457158
0.456052
0.45988
0.458148
0.456774
0.478568
0.47851
0.478252
0.477347
0.47544
0.472672
0.469338
0.465694
0.461935
0.458195
0.454559
0.451076
0.44777
0.444651
0.441719
0.43897
0.436396
0.433989
0.43174
0.429641
0.427682
0.425856
0.424154
0.422571
0.421099
0.419731
0.418463
0.417287
0.416199
0.415193
0.414264
0.413408
0.412619
0.411896
0.411235
0.410636
0.410098
0.409621
0.409207
0.408859
0.408578
0.408371
0.408241
0.408194
0.408238
0.408381
0.408631
0.409004
0.409511
0.41016
0.410965
0.411937
0.413098
0.414471
0.41607
0.41791
0.420005
0.422372
0.425026
0.42798
0.431244
0.434827
0.438737
0.442978
0.447552
0.452454
0.457673
0.463191
0.468975
0.474976
0.481129
0.487338
0.493445
0.499161
0.504059
0.507784
0.510101
0.510595
0.509952
0.509629
0.47873
0.478514
0.478028
0.476673
0.474415
0.471518
0.468187
0.46463
0.461002
0.45741
0.453921
0.450573
0.447385
0.444367
0.441519
0.43884
0.436323
0.433962
0.43175
0.429681
0.427746
0.425939
0.424253
0.422681
0.421218
0.419858
0.418595
0.417424
0.416339
0.415336
0.41441
0.413554
0.412765
0.412039
0.411374
0.410769
0.410223
0.409736
0.40931
0.408946
0.408647
0.408418
0.408263
0.408189
0.408202
0.40831
0.408522
0.408846
0.409293
0.409879
0.410617
0.411523
0.412609
0.413888
0.415379
0.417102
0.419073
0.421308
0.42382
0.426621
0.429719
0.433122
0.436836
0.440864
0.445206
0.449859
0.45481
0.460039
0.465513
0.471184
0.476988
0.482843
0.488633
0.494182
0.499254
0.503606
0.506975
0.508969
0.509477
0.509318
0.478712
0.477831
0.476528
0.474538
0.471991
0.469057
0.465869
0.462553
0.459203
0.455887
0.452652
0.449526
0.446529
0.44367
0.440956
0.438387
0.435961
0.433676
0.431527
0.42951
0.427618
0.425847
0.424191
0.422645
0.421203
0.419861
0.418614
0.417457
0.416385
0.415394
0.414478
0.413631
0.412848
0.412125
0.411461
0.410855
0.410304
0.409811
0.409374
0.408996
0.408681
0.408431
0.408252
0.408148
0.408127
0.408195
0.408362
0.408636
0.409027
0.409548
0.410213
0.411037
0.412034
0.413219
0.414609
0.41622
0.418072
0.420179
0.422555
0.425212
0.428156
0.431392
0.434924
0.438755
0.442884
0.447308
0.452014
0.45698
0.462173
0.46754
0.473015
0.478512
0.48393
0.489152
0.494043
0.498488
0.502473
0.505927
0.508076
0.508197
0.477123
0.475761
0.473971
0.471711
0.46911
0.466274
0.463291
0.460235
0.457162
0.454113
0.451122
0.448214
0.445407
0.442713
0.44014
0.437691
0.435369
0.433172
0.431099
0.429146
0.427309
0.425585
0.42397
0.422458
0.421047
0.419731
0.418507
0.417371
0.416319
0.415346
0.414446
0.413612
0.412839
0.412121
0.411457
0.410848
0.410292
0.409789
0.409338
0.408941
0.408602
0.408324
0.408112
0.407969
0.407903
0.407919
0.408026
0.408233
0.408549
0.408988
0.409561
0.410282
0.411167
0.41223
0.413488
0.414959
0.41666
0.41861
0.420822
0.423306
0.426064
0.429096
0.432404
0.43599
0.439854
0.443994
0.448401
0.453053
0.457921
0.462955
0.468093
0.473254
0.478345
0.483267
0.487917
0.492215
0.496223
0.500098
0.503297
0.504395
0.474207
0.472644
0.470795
0.468579
0.466087
0.463419
0.460648
0.457825
0.454987
0.452167
0.449391
0.446681
0.444053
0.441519
0.439087
0.436764
0.434552
0.432451
0.430462
0.428583
0.426811
0.425144
0.423578
0.422109
0.420735
0.419453
0.418259
0.41715
0.416124
0.415177
0.414301
0.413489
0.412731
0.412022
0.411362
0.410756
0.410198
0.409685
0.409216
0.408797
0.40843
0.40812
0.40787
0.407684
0.407568
0.407528
0.407571
0.407705
0.407941
0.40829
0.408763
0.409376
0.410141
0.411074
0.412193
0.413514
0.415057
0.416845
0.418896
0.421212
0.423787
0.426616
0.429693
0.433021
0.436603
0.440439
0.444522
0.448836
0.453352
0.458028
0.462806
0.467613
0.472364
0.476968
0.481331
0.485369
0.489095
0.492645
0.495775
0.497314
0.470705
0.469056
0.467307
0.465243
0.462934
0.46047
0.457915
0.45531
0.452689
0.450078
0.447501
0.444976
0.442519
0.440142
0.437852
0.435656
0.433559
0.43156
0.429662
0.427864
0.426163
0.424558
0.423047
0.421627
0.420296
0.419052
0.417892
0.416816
0.415823
0.414913
0.414076
0.413297
0.412558
0.41185
0.41118
0.410552
0.409969
0.40943
0.408937
0.408491
0.408096
0.407754
0.407469
0.407244
0.407084
0.406995
0.406982
0.407054
0.407221
0.407492
0.407879
0.408395
0.409054
0.409869
0.410857
0.412033
0.413417
0.415028
0.416881
0.418994
0.421377
0.424009
0.426859
0.429924
0.433218
0.436745
0.4405
0.444472
0.448635
0.452952
0.45737
0.461823
0.46623
0.470502
0.474542
0.478258
0.481608
0.484648
0.487232
0.488554
0.466812
0.465262
0.463705
0.461831
0.459731
0.457483
0.455142
0.452748
0.450331
0.447916
0.445526
0.443176
0.440883
0.438656
0.436505
0.434436
0.432453
0.430559
0.428754
0.427038
0.425412
0.423873
0.42242
0.421051
0.419765
0.418561
0.417437
0.416395
0.415441
0.414577
0.413769
0.412987
0.412234
0.411514
0.410827
0.410175
0.409564
0.409001
0.408487
0.408022
0.407605
0.407241
0.406932
0.40668
0.40649
0.406367
0.406315
0.406342
0.406457
0.40667
0.406991
0.407432
0.408006
0.408725
0.409603
0.410657
0.411899
0.413343
0.415
0.416902
0.419073
0.421479
0.424078
0.42687
0.429875
0.433097
0.436534
0.440174
0.443997
0.447967
0.452037
0.456143
0.460208
0.464142
0.467842
0.471203
0.474145
0.476651
0.478621
0.479593
0.462832
0.461479
0.460141
0.458471
0.456583
0.454545
0.452409
0.450213
0.447987
0.445756
0.44354
0.441356
0.439217
0.437134
0.435117
0.43317
0.431299
0.429506
0.427793
0.42616
0.424608
0.423135
0.42174
0.420421
0.419179
0.418012
0.41692
0.415906
0.41498
0.414131
0.413317
0.412519
0.41175
0.411024
0.410336
0.409686
0.409077
0.408512
0.407991
0.407516
0.407088
0.40671
0.406384
0.406113
0.405899
0.405747
0.405662
0.40565
0.405718
0.405876
0.406135
0.406505
0.407
0.40763
0.408409
0.409351
0.410471
0.411781
0.413295
0.415036
0.417001
0.419145
0.421458
0.423971
0.426693
0.429625
0.432762
0.436093
0.439598
0.443246
0.44699
0.450771
0.454513
0.458122
0.461494
0.464513
0.467078
0.469126
0.470579
0.471238
0.459052
0.457895
0.456747
0.455266
0.453577
0.451736
0.44979
0.447778
0.44573
0.443669
0.441615
0.439585
0.437591
0.435643
0.433751
0.431921
0.430156
0.42846
0.426836
0.425282
0.423801
0.422391
0.421051
0.41978
0.418578
0.417443
0.416374
0.415374
0.414449
0.413589
0.412773
0.411992
0.411244
0.410528
0.409847
0.409203
0.408598
0.408034
0.407512
0.407033
0.406599
0.406211
0.405872
0.405585
0.405352
0.405175
0.405061
0.405012
0.405038
0.405146
0.405348
0.405654
0.406077
0.406627
0.407316
0.408159
0.409166
0.410354
0.411747
0.413351
0.415105
0.416978
0.419028
0.421289
0.423756
0.426425
0.429292
0.432345
0.435565
0.438924
0.442377
0.445866
0.449317
0.452635
0.455715
0.458436
0.460685
0.462381
0.463457
0.4639
0.455603
0.454613
0.453618
0.4523
0.450788
0.449123
0.447352
0.445509
0.443625
0.441721
0.439817
0.437928
0.436067
0.434245
0.432469
0.430746
0.42908
0.427474
0.425932
0.424452
0.423037
0.421686
0.420397
0.41917
0.418004
0.416897
0.415847
0.414852
0.413913
0.41305
0.412257
0.411502
0.410771
0.410068
0.409396
0.40876
0.40816
0.407599
0.407078
0.406597
0.406158
0.405764
0.405415
0.405114
0.404864
0.404668
0.404527
0.404448
0.404437
0.404501
0.404653
0.404903
0.405263
0.405743
0.406355
0.40711
0.408022
0.409114
0.410401
0.411827
0.413334
0.414978
0.416825
0.418876
0.421125
0.423569
0.426203
0.429017
0.431994
0.435104
0.438309
0.44155
0.444755
0.447832
0.450673
0.453158
0.455172
0.456624
0.457457
0.457784
0.452529
0.451681
0.450811
0.449636
0.448278
0.446772
0.445157
0.443469
0.441733
0.439972
0.438203
0.436443
0.434702
0.432993
0.431322
0.429695
0.428119
0.426595
0.425126
0.423713
0.422357
0.421059
0.419816
0.418628
0.417495
0.416415
0.415384
0.414399
0.413457
0.412587
0.411805
0.411071
0.410358
0.409667
0.409004
0.408375
0.407781
0.407223
0.406703
0.406221
0.405779
0.405379
0.405022
0.40471
0.404447
0.404233
0.404072
0.403967
0.403924
0.403951
0.40406
0.404263
0.40457
0.404992
0.405538
0.40622
0.407061
0.408075
0.409211
0.410411
0.411722
0.413212
0.4149
0.416781
0.418851
0.421111
0.423555
0.426174
0.428951
0.431862
0.434867
0.437912
0.440926
0.44382
0.446487
0.44881
0.450675
0.451987
0.452693
0.452995
0.449849
0.449125
0.448364
0.447316
0.446096
0.444732
0.44326
0.44171
0.440107
0.438474
0.436826
0.435179
0.433545
0.431934
0.430355
0.428813
0.427314
0.42586
0.424455
0.4231
0.421795
0.420542
0.419339
0.418186
0.417081
0.416025
0.415014
0.414045
0.413114
0.412235
0.411445
0.410724
0.410024
0.409342
0.408686
0.408062
0.407472
0.406916
0.406396
0.405913
0.405468
0.405063
0.404699
0.404379
0.404104
0.403876
0.403698
0.403572
0.403503
0.4035
0.403574
0.403737
0.404003
0.404377
0.404871
0.405503
0.406286
0.407171
0.408108
0.409141
0.410339
0.41172
0.413286
0.415036
0.416971
0.419089
0.421388
0.423859
0.426488
0.429249
0.432108
0.435014
0.437898
0.440675
0.44324
0.445479
0.447282
0.448553
0.449234
0.449593
0.447578
0.446966
0.446305
0.445374
0.44428
0.443045
0.441701
0.440276
0.438792
0.43727
0.435728
0.434178
0.432635
0.431108
0.429605
0.428133
0.426698
0.425302
0.423949
0.422641
0.421378
0.420161
0.41899
0.417864
0.416783
0.415747
0.414753
0.4138
0.412884
0.412007
0.411204
0.410477
0.409782
0.409106
0.408454
0.407832
0.407243
0.406687
0.406166
0.405681
0.405232
0.404822
0.404452
0.404123
0.403838
0.403599
0.403407
0.403264
0.403175
0.403147
0.403193
0.403326
0.403558
0.403899
0.404363
0.40495
0.405618
0.406331
0.407137
0.408095
0.409224
0.410527
0.412007
0.413666
0.415507
0.417529
0.41973
0.422102
0.424633
0.4273
0.430071
0.432898
0.435717
0.438445
0.440983
0.44322
0.445049
0.446376
0.447131
0.447627
0.445717
0.445214
0.444649
0.443831
0.442857
0.441743
0.440517
0.439203
0.437824
0.436398
0.434943
0.433475
0.432004
0.430544
0.429101
0.427683
0.426296
0.424944
0.42363
0.422356
0.421123
0.419932
0.418784
0.417678
0.416614
0.415592
0.41461
0.413669
0.412765
0.411899
0.411086
0.41034
0.40964
0.408965
0.408313
0.40769
0.407099
0.406541
0.406017
0.405527
0.405074
0.404658
0.404281
0.403945
0.403651
0.403402
0.403199
0.403044
0.402939
0.402892
0.402916
0.403026
0.403238
0.403561
0.403986
0.404473
0.405003
0.405621
0.406386
0.407309
0.408395
0.40965
0.411079
0.412686
0.414474
0.416444
0.418594
0.420919
0.423405
0.426035
0.428777
0.431588
0.434409
0.437161
0.439748
0.442065
0.444008
0.445485
0.446412
0.44715
0.444256
0.443863
0.443398
0.442699
0.441847
0.440851
0.439735
0.438522
0.437232
0.435886
0.434501
0.433094
0.431678
0.430264
0.428863
0.427481
0.426126
0.424802
0.423511
0.422258
0.421043
0.419867
0.418732
0.417637
0.416581
0.415566
0.41459
0.413653
0.412755
0.411896
0.411078
0.410313
0.409598
0.408917
0.408263
0.407636
0.407041
0.406478
0.405949
0.405454
0.404995
0.404573
0.404189
0.403845
0.403544
0.403286
0.403074
0.402908
0.402791
0.402729
0.402737
0.402834
0.403038
0.403326
0.403665
0.404049
0.404523
0.405129
0.405882
0.40679
0.407858
0.409096
0.410508
0.4121
0.413876
0.415838
0.417985
0.420311
0.422808
0.425458
0.428234
0.431096
0.433988
0.436837
0.439553
0.442033
0.44418
0.445901
0.447108
0.448165
0.443168
0.442886
0.442541
0.44198
0.441261
0.440387
0.439378
0.438256
0.437041
0.435757
0.434422
0.433055
0.431671
0.430284
0.428904
0.427539
0.426197
0.424883
0.423601
0.422353
0.421142
0.41997
0.418836
0.417741
0.416686
0.415669
0.414692
0.413753
0.412853
0.411992
0.411169
0.410385
0.40965
0.408958
0.408297
0.407666
0.407064
0.406495
0.405959
0.405458
0.404992
0.404563
0.404173
0.403822
0.403512
0.403247
0.403027
0.402854
0.402728
0.402655
0.402653
0.402747
0.402923
0.403143
0.403411
0.403768
0.404247
0.404862
0.405622
0.406535
0.407612
0.408861
0.410288
0.411901
0.413704
0.4157
0.41789
0.420269
0.422832
0.425561
0.428434
0.431415
0.434451
0.437476
0.440403
0.443134
0.445575
0.447633
0.449225
0.45067
0.442381
0.442239
0.442061
0.44167
0.441109
0.44037
0.439467
0.438425
0.437269
0.436025
0.434717
0.433367
0.431992
0.430607
0.429225
0.427857
0.426508
0.425186
0.423896
0.422639
0.421419
0.420236
0.419093
0.417989
0.416924
0.415898
0.414911
0.413963
0.413055
0.412185
0.411344
0.410536
0.409783
0.409079
0.40841
0.407772
0.407163
0.406587
0.406044
0.405536
0.405063
0.404627
0.404229
0.403872
0.403555
0.403283
0.403056
0.402877
0.402745
0.402665
0.402655
0.402735
0.402869
0.403044
0.403305
0.403679
0.40418
0.404817
0.405601
0.406543
0.407653
0.40894
0.410414
0.41208
0.413946
0.416017
0.418294
0.420776
0.423457
0.426326
0.429361
0.432531
0.43579
0.439074
0.442304
0.445385
0.448226
0.450738
0.452877
0.454785
0.441803
0.441849
0.441898
0.441753
0.441399
0.440817
0.440022
0.439049
0.437932
0.436703
0.435395
0.434033
0.43264
0.431232
0.429825
0.42843
0.427055
0.425706
0.42439
0.423108
0.421865
0.42066
0.419496
0.418373
0.417289
0.416247
0.415244
0.414281
0.413355
0.412459
0.411587
0.410758
0.409991
0.409274
0.408595
0.407948
0.407333
0.406749
0.406199
0.405684
0.405204
0.404762
0.404358
0.403993
0.403671
0.403393
0.403161
0.402977
0.402842
0.402759
0.402739
0.402791
0.402902
0.403085
0.403372
0.403778
0.404313
0.404989
0.405816
0.406807
0.407973
0.409324
0.41087
0.412621
0.414584
0.416766
0.419171
0.421802
0.424654
0.427719
0.430981
0.434413
0.437974
0.441609
0.445244
0.448793
0.452163
0.455292
0.458252
0.460835
0.441208
0.441579
0.442017
0.442234
0.44216
0.44176
0.441065
0.44014
0.439035
0.43779
0.436448
0.435044
0.433603
0.432145
0.430687
0.429241
0.427819
0.426425
0.425066
0.423745
0.422465
0.421227
0.420032
0.41888
0.417772
0.416706
0.41568
0.414687
0.413723
0.412789
0.411894
0.411054
0.410272
0.40954
0.408849
0.408193
0.407569
0.406978
0.406421
0.4059
0.405414
0.404967
0.404558
0.404189
0.403863
0.403581
0.403347
0.403161
0.403027
0.402943
0.402912
0.402941
0.403058
0.403278
0.403607
0.404058
0.404642
0.405372
0.406261
0.40732
0.408562
0.409999
0.411643
0.413504
0.415593
0.417919
0.420489
0.423308
0.426377
0.429691
0.43324
0.437004
0.440949
0.445028
0.449182
0.453326
0.457348
0.461255
0.465383
0.468641
0.440183
0.441264
0.442428
0.443222
0.443506
0.443297
0.442677
0.441744
0.440585
0.439269
0.437852
0.436373
0.434854
0.433317
0.431782
0.430264
0.428774
0.427318
0.425901
0.424527
0.423198
0.421917
0.420684
0.419499
0.418359
0.417256
0.416184
0.415144
0.414142
0.413185
0.412278
0.411424
0.410624
0.409875
0.409171
0.408504
0.407872
0.407274
0.406711
0.406185
0.405696
0.405245
0.404834
0.404465
0.404139
0.403858
0.403625
0.403444
0.403316
0.40324
0.403209
0.403226
0.403352
0.403619
0.404004
0.404515
0.405164
0.405965
0.406931
0.408075
0.409411
0.410953
0.412714
0.414708
0.416947
0.419443
0.422206
0.425247
0.428569
0.432176
0.436064
0.440222
0.44463
0.449256
0.454064
0.458962
0.463716
0.468345
0.473429
0.476516
0.437603
0.440569
0.443318
0.444976
0.44564
0.445555
0.444926
0.443914
0.442633
0.441167
0.439599
0.437988
0.436355
0.434709
0.433072
0.431461
0.429886
0.428353
0.426866
0.425427