/*--------------------------------*- C++ -*----------------------------------*\
| =========                 |                                                 |
| \\      /  F ield         | OpenFOAM: The Open Source CFD Toolbox           |
|  \\    /   O peration     | Version:  v2012                                 |
|   \\  /    A nd           | Website:  www.openfoam.com                      |
|    \\/     M anipulation  |                                                 |
\*---------------------------------------------------------------------------*/
FoamFile
{
    version     2.0;
    format      ascii;
    class       surfaceScalarField;
    location    "659";
    object      phi;
}
// * * * * * * * * * * * * * * * * * * * * * * * * * * * * * * * * * * * * * //

dimensions      [0 3 -1 0 0 0 0];
oriented        oriented;


internalField   nonuniform List<scalar> 
12736
(
5.89677e-08
0.000199941
3.94595e-08
0.00020002
2.35909e-08
0.000200016
1.10747e-08
0.000200013
2.41958e-11
0.000200011
-1.10303e-08
0.000200011
-2.35577e-08
0.000200013
-3.94437e-08
0.000200016
-5.89633e-08
0.00020002
0.000199941
9.38357e-08
0.000199847
8.24589e-08
0.000200031
5.55942e-08
0.000200043
2.74887e-08
0.000200041
7.2992e-11
0.000200038
-2.73539e-08
0.000200038
-5.54921e-08
0.000200041
-8.2407e-08
0.000200043
-9.38251e-08
0.000200031
0.000199847
9.6376e-08
0.000199751
9.66593e-08
0.000200031
7.00876e-08
0.000200069
3.6031e-08
0.000200075
1.3958e-10
0.000200074
-3.57668e-08
0.000200074
-6.98628e-08
0.000200075
-9.64812e-08
0.000200069
-9.62725e-08
0.000200031
0.000199751
9.33136e-08
0.000199658
9.74175e-08
0.000200026
7.3559e-08
0.000200093
3.88977e-08
0.000200109
2.33626e-10
0.000200113
-3.84529e-08
0.000200113
-7.31778e-08
0.000200109
-9.71386e-08
0.000200093
-9.31599e-08
0.000200027
0.000199658
8.94237e-08
0.000199568
9.48003e-08
0.000200021
7.28891e-08
0.000200115
3.90523e-08
0.000200143
3.68898e-10
0.000200152
-3.83483e-08
0.000200152
-7.22837e-08
0.000200143
-9.43563e-08
0.000200115
-8.91837e-08
0.000200022
0.000199569
8.46433e-08
0.000199483
9.06283e-08
0.000200015
7.06531e-08
0.000200135
3.81688e-08
0.000200176
5.64197e-10
0.000200189
-3.70948e-08
0.000200189
-6.97372e-08
0.000200176
-8.99505e-08
0.000200136
-8.4274e-08
0.000200016
0.000199484
7.99378e-08
0.000199404
8.58268e-08
0.000200009
6.7121e-08
0.000200154
3.65713e-08
0.000200206
8.57581e-10
0.000200225
-3.49399e-08
0.000200225
-6.5731e-08
0.000200207
-8.48015e-08
0.000200155
-7.93755e-08
0.00020001
0.000199405
7.57678e-08
0.000199328
8.12781e-08
0.000200004
6.36716e-08
0.000200171
3.49616e-08
0.000200235
1.30654e-09
0.000200259
-3.24734e-08
0.000200259
-6.15441e-08
0.000200236
-7.97116e-08
0.000200173
-7.49095e-08
0.000200006
0.00019933
7.22916e-08
0.000199255
7.74365e-08
0.000199999
6.08296e-08
0.000200188
3.37523e-08
0.000200262
1.98786e-09
0.00020029
-2.99648e-08
0.000200291
-5.7588e-08
0.000200264
-7.50495e-08
0.00020019
-7.09816e-08
0.000200002
0.000199259
6.95321e-08
0.000199186
7.44476e-08
0.000199994
5.87503e-08
0.000200204
3.31233e-08
0.000200288
3.01658e-09
0.000200321
-2.73743e-08
0.000200321
-5.38286e-08
0.00020029
-7.08283e-08
0.000200207
-6.75457e-08
0.000199998
0.000199192
6.74759e-08
0.000199118
7.23743e-08
0.000199989
5.7557e-08
0.000200218
3.32378e-08
0.000200312
4.56404e-09
0.000200349
-2.45415e-08
0.00020035
-5.01158e-08
0.000200316
-6.69021e-08
0.000200224
-6.44725e-08
0.000199996
0.000199127
6.61473e-08
0.000199052
7.13311e-08
0.000199984
5.74252e-08
0.000200232
3.43266e-08
0.000200335
6.88971e-09
0.000200377
-2.12054e-08
0.000200379
-4.6204e-08
0.000200341
-6.30472e-08
0.000200241
-6.16013e-08
0.000199994
0.000199065
6.56384e-08
0.000198987
7.15179e-08
0.000199978
5.86632e-08
0.000200245
3.67613e-08
0.000200357
1.03975e-08
0.000200403
-1.69719e-08
0.000200406
-4.17454e-08
0.000200365
-5.89875e-08
0.000200258
-5.87605e-08
0.000199994
0.000199007
6.60389e-08
0.000198921
7.3136e-08
0.000199971
6.17192e-08
0.000200257
4.11341e-08
0.000200378
1.5712e-08
0.000200428
-1.12609e-08
0.000200433
-3.62707e-08
0.00020039
-5.44001e-08
0.000200276
-5.57793e-08
0.000199996
0.000198951
6.76199e-08
0.000198853
7.67232e-08
0.000199962
6.7328e-08
0.000200266
4.83366e-08
0.000200397
2.37777e-08
0.000200453
-3.22034e-09
0.00020046
-2.91479e-08
0.000200416
-4.89358e-08
0.000200296
-5.25377e-08
0.000199999
0.000198898
7.08761e-08
0.000198782
8.32204e-08
0.000199949
7.66943e-08
0.000200273
5.97816e-08
0.000200413
3.60724e-08
0.000200477
8.45155e-09
0.000200488
-1.95164e-08
0.000200444
-4.23405e-08
0.000200319
-4.91405e-08
0.000200006
0.000198849
7.6467e-08
0.000198706
9.3826e-08
0.000199932
9.14681e-08
0.000200275
7.73299e-08
0.000200428
5.45285e-08
0.0002005
2.5764e-08
0.000200516
-6.01317e-09
0.000200476
-3.44602e-08
0.000200347
-4.65099e-08
0.000200018
0.000198803
8.53453e-08
0.00019862
1.10422e-07
0.000199907
1.14574e-07
0.000200271
1.04926e-07
0.000200437
8.38506e-08
0.000200521
5.25096e-08
0.000200548
1.31418e-08
0.000200515
-2.74473e-08
0.000200388
-4.90246e-08
0.00020004
0.000198754
9.87599e-08
0.000198522
1.35521e-07
0.00019987
1.49864e-07
0.000200256
1.48165e-07
0.000200439
1.31232e-07
0.000200538
9.77069e-08
0.000200581
4.80463e-08
0.000200565
-9.2133e-09
0.000200445
-5.27746e-08
0.000200083
0.000198701
1.18061e-07
0.000198403
1.72098e-07
0.000199816
2.02106e-07
0.000200226
2.1348e-07
0.000200428
2.04616e-07
0.000200546
1.70152e-07
0.000200616
9.7022e-08
0.000200638
-2.49994e-08
0.000200567
-2.02902e-07
0.000200261
0.000198498
1.4487e-07
0.000198259
2.23775e-07
0.000199737
2.78031e-07
0.000200172
3.13409e-07
0.000200392
3.29433e-07
0.00020053
3.24583e-07
0.00020062
2.98287e-07
0.000200664
2.53849e-07
0.000200612
5.24461e-07
0.00019999
0.000193886
5.13617e-06
1.80154e-07
0.000198078
2.92506e-07
0.000199625
3.80523e-07
0.000200084
4.5119e-07
0.000200322
5.05937e-07
0.000200476
5.49673e-07
0.000200577
6.06451e-07
0.000200608
7.39956e-07
0.000200478
1.07699e-06
0.000199653
0.00019167
3.29297e-06
2.23617e-07
0.000197855
3.7766e-07
0.000199471
5.07624e-07
0.000199954
6.21835e-07
0.000200207
7.23504e-07
0.000200374
8.18892e-07
0.000200481
9.30543e-07
0.000200496
1.15964e-06
0.000200249
1.85644e-06
0.000198957
0.000188391
5.13543e-06
2.74942e-07
0.00019758
4.78406e-07
0.000199267
6.57688e-07
0.000199775
8.22414e-07
0.000200043
9.78211e-07
0.000200218
1.13666e-06
0.000200323
1.33485e-06
0.000200298
1.70831e-06
0.000199876
2.73185e-06
0.000197933
0.000184754
6.36946e-06
3.34346e-07
0.000197246
5.94936e-07
0.000199007
8.30832e-07
0.000199539
1.0529e-06
0.00019982
1.26929e-06
0.000200002
1.49762e-06
0.000200095
1.78687e-06
0.000200009
2.2901e-06
0.000199372
3.5238e-06
0.000196699
0.000181108
7.16988e-06
4.02554e-07
0.000196843
7.2829e-07
0.000198681
1.02812e-06
0.000199239
1.31382e-06
0.000199535
1.5954e-06
0.00019972
1.89517e-06
0.000199795
2.27258e-06
0.000199631
2.90521e-06
0.00019874
4.37576e-06
0.000195229
0.000177577
7.90595e-06
4.80878e-07
0.000196362
8.8075e-07
0.000198281
1.25266e-06
0.000198867
1.60896e-06
0.000199178
1.9611e-06
0.000199368
2.33549e-06
0.00019942
2.80051e-06
0.000199166
3.54536e-06
0.000197995
5.1585e-06
0.000193616
0.00017431
8.42606e-06
5.71496e-07
0.000195791
1.05635e-06
0.000197796
1.51057e-06
0.000198413
1.94688e-06
0.000198742
2.378e-06
0.000198937
2.83422e-06
0.000198964
3.39316e-06
0.000198607
4.25512e-06
0.000197133
5.98068e-06
0.00019189
0.000171301
8.98989e-06
6.7723e-07
0.000195113
1.26064e-06
0.000197213
1.81052e-06
0.000197863
2.33939e-06
0.000198213
2.86133e-06
0.000198415
3.41029e-06
0.000198415
4.0719e-06
0.000197946
5.05589e-06
0.000196149
6.87941e-06
0.000190067
0.000168573
9.60734e-06
8.04109e-07
0.000194309
1.50077e-06
0.000196516
2.16273e-06
0.000197201
2.79985e-06
0.000197576
3.4273e-06
0.000197788
4.08168e-06
0.000197761
4.85359e-06
0.000197174
5.956e-06
0.000195047
7.8486e-06
0.000188174
0.000166184
1.02378e-05
9.52804e-07
0.000193356
1.78644e-06
0.000195682
2.57947e-06
0.000196408
3.34386e-06
0.000196812
4.09428e-06
0.000197037
4.86841e-06
0.000196987
5.75771e-06
0.000196284
6.96735e-06
0.000193837
8.8771e-06
0.000186264
0.000164202
1.08588e-05
1.12656e-06
0.00019223
2.12693e-06
0.000194682
3.07575e-06
0.000195459
3.99068e-06
0.000195897
4.88586e-06
0.000196142
5.79844e-06
0.000196074
6.81745e-06
0.000195265
8.1347e-06
0.00019252
1.00187e-05
0.00018438
0.00016265
1.15709e-05
1.33552e-06
0.000190894
2.53107e-06
0.000193486
3.66694e-06
0.000194324
4.76205e-06
0.000194802
5.83013e-06
0.000195074
6.90629e-06
0.000194998
8.07297e-06
0.000194099
9.49455e-06
0.000191098
1.12977e-05
0.000182577
0.000161505
1.24422e-05
1.58438e-06
0.00018931
3.01085e-06
0.00019206
4.37014e-06
0.000192964
5.68168e-06
0.00019349
6.95813e-06
0.000193797
8.23083e-06
0.000193725
9.57081e-06
0.000192759
1.11001e-05
0.000189569
1.28106e-05
0.000180867
0.0001607
1.36157e-05
1.87815e-06
0.000187432
3.57836e-06
0.00019036
5.2033e-06
0.000191339
6.774e-06
0.00019192
8.30169e-06
0.00019227
9.81224e-06
0.000192215
1.13603e-05
0.000191211
1.3016e-05
0.000187913
1.46516e-05
0.000179231
0.00016017
1.51819e-05
2.22212e-06
0.00018521
4.2445e-06
0.000188337
6.183e-06
0.000189401
8.06166e-06
0.000190041
9.89027e-06
0.000190441
1.16879e-05
0.000190417
1.34887e-05
0.00018941
1.53075e-05
0.000186094
1.69137e-05
0.000177625
0.000159832
1.72519e-05
2.62066e-06
0.000182589
5.01822e-06
0.00018594
7.32284e-06
0.000187096
9.56322e-06
0.0001878
1.17481e-05
0.000188256
1.38888e-05
0.000188276
1.59971e-05
0.000187302
1.80327e-05
0.000184059
1.96803e-05
0.000175977
0.000159582
1.99301e-05
3.07669e-06
0.000179512
5.90564e-06
0.000183111
8.63207e-06
0.00018437
1.12912e-05
0.000185141
1.38914e-05
0.000185656
1.64363e-05
0.000185732
1.89148e-05
0.000184823
2.12357e-05
0.000181738
2.30175e-05
0.000174195
0.000159296
2.33029e-05
3.59127e-06
0.000175921
6.90938e-06
0.000179793
1.01144e-05
0.000181165
1.32501e-05
0.000182006
1.63259e-05
0.00018258
1.93384e-05
0.000182719
2.22549e-05
0.000181907
2.49407e-05
0.000179052
2.69674e-05
0.000172169
0.000158833
2.74309e-05
4.16452e-06
0.000171757
8.02813e-06
0.000175929
1.17674e-05
0.000177425
1.54357e-05
0.000178337
1.90452e-05
0.000178971
2.25871e-05
0.000179177
2.60108e-05
0.000178483
2.91477e-05
0.000175915
3.15417e-05
0.000169775
0.000158034
3.23406e-05
4.79635e-06
0.00016696
9.25675e-06
0.000171469
1.35818e-05
0.0001731
1.7834e-05
0.000174085
2.203e-05
0.000174775
2.6158e-05
0.000175049
3.01545e-05
0.000174486
3.38288e-05
0.000172241
3.67163e-05
0.000166887
0.000156734
3.8016e-05
5.48408e-06
0.000161476
1.05872e-05
0.000166366
1.55428e-05
0.000168145
2.04224e-05
0.000169206
2.52486e-05
0.000169948
3.00096e-05
0.000170288
3.46356e-05
0.00016986
3.89263e-05
0.00016795
4.24274e-05
0.000163386
0.000154771
4.43911e-05
6.22235e-06
0.000155254
1.20089e-05
0.000160579
1.76312e-05
0.000162522
2.31711e-05
0.000163666
2.86586e-05
0.000164461
3.4086e-05
0.000164861
3.93832e-05
0.000164563
4.43537e-05
0.00016298
4.85704e-05
0.000159169
0.000151996
5.13453e-05
7.0059e-06
0.000148248
1.35101e-05
0.000154075
1.98249e-05
0.000156208
2.60451e-05
0.000157446
3.22102e-05
0.000158296
3.83194e-05
0.000158752
4.43096e-05
0.000158573
4.99996e-05
0.00015729
5.5004e-05
0.000154165
0.000148295
5.87047e-05
7.8307e-06
0.000140417
1.50791e-05
0.000146827
2.21014e-05
0.000149185
2.9008e-05
0.000150539
3.58496e-05
0.000151454
4.2636e-05
0.000151965
4.93169e-05
0.000151892
5.57356e-05
0.000150871
6.156e-05
0.00014834
0.000143603
6.62525e-05
8.69491e-06
0.000131722
1.67075e-05
0.000138814
2.44408e-05
0.000141452
3.20249e-05
0.000142955
3.9524e-05
0.000143955
4.69616e-05
0.000144528
5.43049e-05
0.000144549
6.14283e-05
0.000143748
6.80593e-05
0.000141709
0.000137913
7.37489e-05
9.60002e-06
0.000122122
1.83915e-05
0.000130022
2.68281e-05
0.000133016
3.50657e-05
0.000134717
4.31855e-05
0.000135835
5.12275e-05
0.000136486
5.91798e-05
0.000136596
6.6951e-05
0.000135976
7.43301e-05
0.00013433
0.000131284
8.09591e-05
1.0552e-05
0.00011157
2.01341e-05
0.00012044
2.92548e-05
0.000123895
3.81065e-05
0.000125866
4.67929e-05
0.000127149
5.53737e-05
0.000127905
6.386e-05
0.00012811
7.2195e-05
0.000127641
8.02259e-05
0.000126299
0.000123828
8.76818e-05
1.15626e-05
0.000100008
2.19452e-05
0.000110058
3.17183e-05
0.000114122
4.1128e-05
0.000116456
5.03104e-05
0.000117967
5.93486e-05
0.000118867
6.82779e-05
0.000119181
7.70741e-05
0.000118845
8.56362e-05
0.000117737
0.000115695
9.37696e-05
1.26504e-05
8.73573e-05
2.38389e-05
9.88692e-05
3.42156e-05
0.000103745
4.41088e-05
0.000106563
5.37004e-05
0.000108375
6.31025e-05
0.000109465
7.23746e-05
0.000109909
8.15219e-05
0.000109698
9.04858e-05
0.000108773
0.000107046
9.91342e-05
1.3842e-05
7.35153e-05
2.58253e-05
8.68859e-05
3.67307e-05
9.28397e-05
4.70104e-05
9.6283e-05
5.69091e-05
9.84762e-05
6.65732e-05
9.98005e-05
7.60867e-05
0.000100395
8.54789e-05
0.000100306
9.47233e-05
9.95291e-05
9.80353e-05
0.000103734
1.51846e-05
5.83307e-05
2.78638e-05
7.42067e-05
3.91982e-05
8.15053e-05
4.97531e-05
8.57281e-05
5.98453e-05
8.8384e-05
6.96667e-05
8.9979e-05
7.93266e-05
9.07353e-05
8.8872e-05
9.07603e-05
9.82974e-05
9.01036e-05
8.87844e-05
0.000107548
1.67025e-05
4.16282e-05
2.98553e-05
6.10538e-05
4.14454e-05
6.99153e-05
5.21443e-05
7.50292e-05
6.23251e-05
7.82032e-05
7.22173e-05
8.00868e-05
8.1951e-05
8.10016e-05
9.15853e-05
8.1126e-05
0.000101126
8.05627e-05
7.9374e-05
0.000110537
1.72116e-05
2.44166e-05
3.13908e-05
4.68747e-05
4.32408e-05
5.80652e-05
5.3935e-05
6.4335e-05
6.40808e-05
6.80574e-05
7.39666e-05
7.0201e-05
8.37295e-05
7.12387e-05
9.34263e-05
7.14292e-05
0.000103063
7.09263e-05
6.98299e-05
0.000112607
1.48333e-05
9.5833e-06
3.0461e-05
3.1247e-05
4.33279e-05
4.51983e-05
5.43892e-05
5.32737e-05
6.46102e-05
5.78364e-05
7.45089e-05
6.03024e-05
8.43117e-05
6.14359e-05
9.40953e-05
6.16456e-05
0.000103862
6.11598e-05
6.01181e-05
0.000113574
1.00135e-05
-4.30147e-07
2.53465e-05
1.5914e-05
3.9502e-05
3.10427e-05
5.17354e-05
4.10404e-05
6.26829e-05
4.68889e-05
7.29929e-05
4.99924e-05
8.30704e-05
5.13583e-05
9.30988e-05
5.16173e-05
0.000103121
5.11378e-05
5.0132e-05
0.000113107
5.87526e-06
-6.3054e-06
1.75238e-05
4.2654e-06
3.10922e-05
1.74743e-05
4.42323e-05
2.79003e-05
5.64159e-05
3.47053e-05
6.78141e-05
3.85942e-05
7.8755e-05
4.04174e-05
8.94739e-05
4.08984e-05
0.000100078
4.05334e-05
3.96216e-05
0.000110589
2.7415e-06
-9.0469e-06
9.27478e-06
-2.26788e-06
1.96017e-05
7.14734e-06
3.17476e-05
1.57544e-05
4.44401e-05
2.20128e-05
5.70624e-05
2.5972e-05
6.94103e-05
2.80694e-05
8.14477e-05
2.8861e-05
9.32095e-05
2.87716e-05
2.80876e-05
0.000104743
-1.77198e-06
-7.27492e-06
1.9545e-07
-4.23531e-06
6.36962e-06
9.73173e-07
1.58253e-05
6.29868e-06
2.75696e-05
1.02685e-05
4.06454e-05
1.28962e-05
5.42862e-05
1.44286e-05
6.78802e-05
1.5267e-05
8.12302e-05
1.54217e-05
1.49912e-05
9.43266e-05
-7.27491e-06
-1.15102e-05
-1.05371e-05
-4.23837e-06
6.03017e-06
1.89263e-05
3.33549e-05
4.86219e-05
6.40436e-05
7.90348e-05
-2.82956e-05
3.34318e-05
-2.69342e-05
-1.36142e-06
-2.30182e-05
-3.91599e-06
-1.83841e-05
-4.6341e-06
-1.328e-05
-5.10409e-06
-8.05228e-06
-5.22772e-06
-2.91761e-06
-5.13467e-06
2.03275e-06
-4.95035e-06
6.78763e-06
-4.75488e-06
1.1301e-05
-4.51336e-06
1.54318e-05
-4.13079e-06
1.90109e-05
-3.57909e-06
2.19396e-05
-2.92869e-06
2.41885e-05
-2.24888e-06
2.57303e-05
-1.54188e-06
2.65571e-05
-8.26813e-07
2.66011e-05
-4.39298e-08
2.57751e-05
8.25941e-07
2.40013e-05
1.77385e-06
2.12095e-05
2.79183e-06
1.7368e-05
3.84149e-06
1.25654e-05
4.80255e-06
7.28544e-06
5.27999e-06
2.59701e-06
4.68844e-06
2.59702e-06
-1.38757e-05
5.06004e-05
-1.92539e-05
4.0168e-06
-1.86967e-05
-4.47316e-06
-1.6282e-05
-7.04878e-06
-1.29709e-05
-8.41526e-06
-9.07863e-06
-9.11996e-06
-4.85417e-06
-9.35914e-06
-5.47206e-07
-9.25731e-06
3.58141e-06
-8.8835e-06
7.3609e-06
-8.29285e-06
1.07335e-05
-7.50343e-06
1.36813e-05
-6.52682e-06
1.61685e-05
-5.41595e-06
1.81455e-05
-4.22587e-06
1.95879e-05
-2.98425e-06
2.0463e-05
-1.70196e-06
2.07828e-05
-3.63669e-07
2.05565e-05
1.05224e-06
1.97612e-05
2.56913e-06
1.83519e-05
4.20117e-06
1.6261e-05
5.9324e-06
1.34005e-05
7.663e-06
9.62746e-06
9.05303e-06
5.01751e-06
9.2984e-06
7.61452e-06
-8.291e-06
6.40268e-05
-1.51188e-05
1.08446e-05
-1.64544e-05
-3.13757e-06
-1.53403e-05
-8.16293e-06
-1.29798e-05
-1.07757e-05
-9.89717e-06
-1.22026e-05
-6.42798e-06
-1.28283e-05
-2.82764e-06
-1.28576e-05
7.08718e-07
-1.24199e-05
4.02655e-06
-1.16107e-05
7.02648e-06
-1.05034e-05
9.65692e-06
-9.15727e-06
1.18757e-05
-7.63474e-06
1.36448e-05
-5.99499e-06
1.49404e-05
-4.27978e-06
1.57496e-05
-2.51114e-06
1.60774e-05
-6.9151e-07
1.59386e-05
1.19104e-06
1.53503e-05
3.15742e-06
1.43235e-05
5.22798e-06
1.28498e-05
7.40608e-06
1.08765e-05
9.63629e-06
8.24839e-06
1.16812e-05
4.70597e-06
1.28408e-05
1.23205e-05
-5.78987e-06
7.61862e-05
-1.37317e-05
1.87865e-05
-1.6225e-05
-6.44217e-07
-1.58478e-05
-8.54016e-06
-1.4014e-05
-1.26095e-05
-1.14159e-05
-1.48007e-05
-8.42377e-06
-1.58205e-05
-5.27335e-06
-1.60081e-05
-2.13344e-06
-1.55598e-05
8.64438e-07
-1.46086e-05
3.61642e-06
-1.32553e-05
6.04712e-06
-1.1588e-05
8.1024e-06
-9.69002e-06
9.74482e-06
-7.63741e-06
1.09559e-05
-5.49084e-06
1.17339e-05
-3.28915e-06
1.20908e-05
-1.04839e-06
1.20477e-05
1.23417e-06
1.16291e-05
3.57602e-06
1.08575e-05
5.99958e-06
9.74615e-06
8.51739e-06
8.28234e-06
1.11001e-05
6.38186e-06
1.35816e-05
3.78808e-06
1.54346e-05
1.61086e-05
-3.03869e-06
8.63947e-05
-1.23896e-05
2.81374e-05
-1.62225e-05
3.1887e-06
-1.66996e-05
-8.06308e-06
-1.54385e-05
-1.38706e-05
-1.33026e-05
-1.69366e-05
-1.07363e-05
-1.83867e-05
-7.96957e-06
-1.87748e-05
-5.15487e-06
-1.83745e-05
-2.41308e-06
-1.73503e-05
1.52629e-07
-1.58211e-05
2.45472e-06
-1.38901e-05
4.42554e-06
-1.16608e-05
6.02144e-06
-9.23331e-06
7.22364e-06
-6.69304e-06
8.03539e-06
-4.1009e-06
8.47565e-06
-1.48865e-06
8.57134e-06
1.13848e-06
8.35119e-06
3.79616e-06
7.84091e-06
6.50987e-06
7.05844e-06
9.29985e-06
6.00458e-06
1.2154e-05
4.62917e-06
1.49571e-05
2.71029e-06
1.73535e-05
1.88189e-05
-1.93943e-07
9.44946e-05
-9.90571e-06
3.78491e-05
-1.51595e-05
8.44247e-06
-1.68343e-05
-6.38825e-06
-1.64796e-05
-1.42253e-05
-1.50483e-05
-1.83679e-05
-1.30484e-05
-2.03866e-05
-1.07486e-05
-2.10747e-05
-8.3023e-06
-2.08207e-05
-5.82751e-06
-1.98251e-05
-3.43282e-06
-1.82158e-05
-1.2189e-06
-1.6104e-05
7.29189e-07
-1.36089e-05
2.35185e-06
-1.0856e-05
3.62016e-06
-7.96136e-06
4.53364e-06
-5.01438e-06
5.11293e-06
-2.06794e-06
5.38982e-06
8.61589e-07
5.39776e-06
3.78823e-06
5.16492e-06
6.7427e-06
4.71037e-06
9.7544e-06
4.03861e-06
1.28257e-05
3.11812e-06
1.58776e-05
1.80473e-06
1.86669e-05
2.06236e-05
2.19956e-06
0.000100721
-6.76564e-06
4.68143e-05
-1.29888e-05
1.46657e-05
-1.59972e-05
-3.37987e-06
-1.68473e-05
-1.33753e-05
-1.63894e-05
-1.88258e-05
-1.51564e-05
-2.16196e-05
-1.34707e-05
-2.27604e-05
-1.14963e-05
-2.27952e-05
-9.34865e-06
-2.19728e-05
-7.14325e-06
-2.04212e-05
-4.99896e-06
-1.82483e-05
-3.02513e-06
-1.55828e-05
-1.30685e-06
-1.25743e-05
1.04109e-07
-9.37232e-06
1.19153e-06
-6.1018e-06
1.96887e-06
-2.84527e-06
2.46919e-06
3.61272e-07
2.73175e-06
3.52566e-06
2.78997e-06
6.68449e-06
2.66633e-06
9.87804e-06
2.36961e-06
1.31224e-05
1.88189e-06
1.63653e-05
1.11678e-06
1.9432e-05
2.17404e-05
4.17156e-06
0.000105539
-3.79797e-06
5.47839e-05
-1.03995e-05
2.12672e-05
-1.45434e-05
7.64061e-07
-1.66113e-05
-1.13074e-05
-1.72711e-05
-1.81659e-05
-1.7003e-05
-2.18877e-05
-1.60892e-05
-2.36741e-05
-1.47141e-05
-2.41703e-05
-1.29805e-05
-2.37063e-05
-1.10079e-05
-2.23938e-05
-8.93069e-06
-2.03255e-05
-6.88894e-06
-1.76245e-05
-5.00521e-06
-1.4458e-05
-3.36799e-06
-1.10095e-05
-2.0235e-06
-7.44629e-06
-9.78422e-07
-3.89035e-06
-2.06799e-07
-4.1035e-07
3.36865e-07
2.982e-06
6.9583e-07
6.32552e-06
8.99375e-07
9.6745e-06
9.62191e-07
1.30596e-05
8.75448e-07
1.6452e-05
5.82078e-07
1.97254e-05
2.23225e-05
5.77243e-06
0.000109374
-1.31417e-06
6.18705e-05
-7.97446e-06
2.79275e-05
-1.29262e-05
5.71579e-06
-1.61005e-05
-8.13305e-06
-1.78907e-05
-1.63757e-05
-1.86614e-05
-2.1117e-05
-1.8637e-05
-2.36986e-05
-1.79691e-05
-2.48383e-05
-1.67565e-05
-2.49189e-05
-1.50866e-05
-2.40636e-05
-1.30987e-05
-2.23134e-05
-1.09603e-05
-1.97629e-05
-8.84015e-06
-1.65781e-05
-6.88065e-06
-1.2969e-05
-5.17748e-06
-9.14945e-06
-3.77319e-06
-5.29463e-06
-2.66342e-06
-1.52012e-06
-1.80361e-06
2.12219e-06
-1.1352e-06
5.65711e-06
-6.16465e-07
9.15577e-06
-2.22376e-07
1.26655e-05
4.67952e-08
1.61828e-05
1.46325e-07
1.96258e-05
2.24688e-05
7.09947e-06
0.000112513
7.4974e-07
6.82202e-05
-5.84185e-06
3.45191e-05
-1.13607e-05
1.12347e-05
-1.5487e-05
-4.00682e-06
-1.83508e-05
-1.35118e-05
-2.01896e-05
-1.92782e-05
-2.11486e-05
-2.27396e-05
-2.12872e-05
-2.46996e-05
-2.06977e-05
-2.55084e-05
-1.94381e-05
-2.53233e-05
-1.76073e-05
-2.41442e-05
-1.53801e-05
-2.19901e-05
-1.29689e-05
-1.89893e-05
-1.05842e-05
-1.53538e-05
-8.39637e-06
-1.13372e-05
-6.50962e-06
-7.18138e-06
-4.96071e-06
-3.06904e-06
-3.72369e-06
8.8517e-07
-2.72476e-06
4.65819e-06
-1.90168e-06
8.3327e-06
-1.21031e-06
1.19742e-05
-6.30928e-07
1.56035e-05
-2.05711e-07
1.92006e-05
2.22631e-05
8.20296e-06
0.000115169
2.45241e-06
7.39708e-05
-4.02251e-06
4.0994e-05
-9.94837e-06
1.71605e-05
-1.48602e-05
9.04972e-07
-1.87e-05
-9.67205e-06
-2.15704e-05
-1.64078e-05
-2.35473e-05
-2.07627e-05
-2.46207e-05
-2.36262e-05
-2.47734e-05
-2.53557e-05
-2.40646e-05
-2.60322e-05
-2.25287e-05
-2.56801e-05
-2.02959e-05
-2.42228e-05
-1.75959e-05
-2.16893e-05
-1.4704e-05
-1.82457e-05
-1.18888e-05
-1.41524e-05
-9.3574e-06
-9.71277e-06
-7.2222e-06
-5.20423e-06
-5.50164e-06
-8.35393e-07
-4.1229e-06
3.27945e-06
-2.99031e-06
7.20011e-06
-2.02796e-06
1.10118e-05
-1.18001e-06
1.47555e-05
-4.83715e-07
1.85043e-05
2.17794e-05
9.20171e-06
0.000117538
3.90155e-06
7.92709e-05
-2.4528e-06
4.73483e-05
-8.6696e-06
2.33773e-05
-1.42066e-05
6.44193e-06
-1.88839e-05
-4.99469e-06
-2.26981e-05
-1.25936e-05
-2.56652e-05
-1.77956e-05
-2.77451e-05
-2.15463e-05
-2.88196e-05
-2.42811e-05
-2.88248e-05
-2.6027e-05
-2.7802e-05
-2.67028e-05
-2.5771e-05
-2.62538e-05
-2.29094e-05
-2.45509e-05
-1.95178e-05
-2.16373e-05
-1.5959e-05
-1.77112e-05
-1.25843e-05
-1.30875e-05
-9.65042e-06
-8.1381e-06
-7.27161e-06
-3.2142e-06
-5.40283e-06
1.41067e-06
-3.90708e-06
5.70436e-06
-2.66676e-06
9.7715e-06
-1.59246e-06
1.36812e-05
-6.8819e-07
1.76001e-05
2.10912e-05
1.02214e-05
0.000119759
5.24569e-06
8.42467e-05
-9.97452e-07
5.35915e-05
-7.41687e-06
2.97967e-05
-1.34301e-05
1.24552e-05
-1.87877e-05
3.62896e-07
-2.34103e-05
-7.97107e-06
-2.72762e-05
-1.39297e-05
-3.03266e-05
-1.84958e-05
-3.24368e-05
-2.2171e-05
-3.34077e-05
-2.50561e-05
-3.31423e-05
-2.69682e-05
-3.16498e-05
-2.77463e-05
-2.89418e-05
-2.72589e-05
-2.52512e-05
-2.5328e-05
-2.09706e-05
-2.19918e-05
-1.65841e-05
-1.7474e-05
-1.25653e-05
-1.21569e-05
-9.24539e-06
-6.53413e-06
-6.67763e-06
-1.15708e-06
-4.70474e-06
3.73147e-06
-3.14712e-06
8.21389e-06
-1.86331e-06
1.23974e-05
-7.98095e-07
1.65349e-05
2.02931e-05
1.14449e-05
0.000121929
6.6788e-06
8.90127e-05
5.28929e-07
5.97413e-05
-6.0188e-06
3.63445e-05
-1.23714e-05
1.88078e-05
-1.82336e-05
6.22512e-06
-2.34927e-05
-2.71196e-06
-2.81082e-05
-9.31423e-06
-3.20246e-05
-1.45794e-05
-3.51223e-05
-1.90733e-05
-3.72112e-05
-2.29673e-05
-3.80272e-05
-2.61522e-05
-3.74322e-05
-2.83413e-05
-3.53707e-05
-2.93204e-05
-3.18549e-05
-2.88439e-05
-2.71765e-05
-2.66703e-05
-2.18357e-05
-2.28147e-05
-1.64884e-05
-1.75042e-05
-1.18034e-05
-1.12191e-05
-8.17113e-06
-4.78935e-06
-5.50332e-06
1.06366e-06
-3.5275e-06
6.23807e-06
-2.01274e-06
1.08827e-05
-8.24369e-07
1.53465e-05
1.94687e-05
1.30096e-05
0.000124102
8.39444e-06
9.36279e-05
2.33767e-06
6.57981e-05
-4.26759e-06
4.29497e-05
-1.08332e-05
2.53734e-05
-1.70318e-05
1.24237e-05
-2.27354e-05
2.9917e-06
-2.79034e-05
-4.14621e-06
-3.2502e-05
-9.98089e-06
-3.64432e-05
-1.51321e-05
-3.95611e-05
-1.98494e-05
-4.16179e-05
-2.40953e-05
-4.23007e-05
-2.76585e-05
-4.13871e-05
-3.0234e-05
-3.87299e-05
-3.1501e-05
-3.43515e-05
-3.10487e-05
-2.85745e-05
-2.85918e-05
-2.20013e-05
-2.40774e-05
-1.55254e-05
-1.7695e-05
-1.01946e-05
-1.01201e-05
-6.42086e-06
-2.71011e-06
-3.85271e-06
3.66992e-06
-2.06134e-06
9.0913e-06
-7.79043e-07
1.40642e-05
1.86897e-05
1.50784e-05
0.000126275
1.05907e-05
9.81156e-05
4.63943e-06
7.17494e-05
-1.95891e-06
4.95481e-05
-8.62514e-06
3.20396e-05
-1.50118e-05
1.88104e-05
-2.09722e-05
8.95201e-06
-2.64797e-05
1.36133e-06
-3.153e-05
-4.93061e-06
-3.60819e-05
-1.05801e-05
-4.00196e-05
-1.59118e-05
-4.31427e-05
-2.09722e-05
-4.51831e-05
-2.56181e-05
-4.5815e-05
-2.96021e-05
-4.46786e-05
-3.26374e-05
-4.14925e-05
-3.42348e-05
-3.6263e-05
-3.38213e-05
-2.92801e-05
-3.10603e-05
-2.13063e-05
-2.56687e-05
-1.37055e-05
-1.7721e-05
-7.9641e-06
-8.45146e-06
-4.32625e-06
3.20657e-08
-2.09456e-06
6.85963e-06
-7.12307e-07
1.26819e-05
1.79774e-05
1.77977e-05
0.000128408
1.34494e-05
0.000102464
7.63002e-06
7.75687e-05
1.09848e-06
5.60796e-05
-5.57512e-06
3.87132e-05
-1.20293e-05
2.52645e-05
-1.80959e-05
1.50186e-05
-2.37528e-05
7.01829e-06
-2.90317e-05
3.48252e-07
-3.39407e-05
-5.67108e-06
-3.84269e-05
-1.14256e-05
-4.23532e-05
-1.70459e-05
-4.54893e-05
-2.2482e-05
-4.75355e-05
-2.75558e-05
-4.81884e-05
-3.19845e-05
-4.70295e-05
-3.53937e-05
-4.3502e-05
-3.73488e-05
-3.75031e-05
-3.70592e-05
-2.93376e-05
-3.38342e-05
-1.98938e-05
-2.71648e-05
-1.12815e-05
-1.70638e-05
-5.46597e-06
-5.78343e-06
-2.31984e-06
3.71349e-06
-7.04298e-07
1.10664e-05
1.72731e-05
2.12894e-05
0.000130421
1.71258e-05
0.000106627
1.14803e-05
8.32143e-05
5.07236e-06
6.24875e-05
-1.53582e-06
4.53214e-05
-7.96949e-06
3.16982e-05
-1.40391e-05
2.10882e-05
-1.97117e-05
1.26908e-05
-2.50408e-05
5.67742e-06
-3.00866e-05
-6.25255e-07
-3.4859e-05
-6.6532e-06
-3.92968e-05
-1.26082e-05
-4.32587e-05
-1.85201e-05
-4.65112e-05
-2.43033e-05
-4.87207e-05
-2.9775e-05
-4.95016e-05
-3.46127e-05
-4.83954e-05
-3.8455e-05
-4.47727e-05
-4.0682e-05
-3.82046e-05
-4.04023e-05
-2.87785e-05
-3.6591e-05
-1.78117e-05
-2.80305e-05
-8.41393e-06
-1.51812e-05
-3.04453e-06
-1.6559e-06
-7.85346e-07
8.80722e-06
1.64877e-05
2.56454e-05
0.000132207
2.17446e-05
0.000110528
1.63339e-05
8.86251e-05
1.01054e-05
6.8716e-05
3.61968e-06
5.18072e-05
-2.73541e-06
3.80533e-05
-8.74739e-06
2.71002e-05
-1.43637e-05
1.83072e-05
-1.96373e-05
1.09511e-05
-2.46614e-05
4.39878e-06
-2.9505e-05
-1.80959e-06
-3.41761e-05
-7.93707e-06
-3.86156e-05
-1.40806e-05
-4.26912e-05
-2.02277e-05
-4.61807e-05
-2.62856e-05
-4.87126e-05
-3.20807e-05
-4.98692e-05
-3.72985e-05
-4.9068e-05
-4.14831e-05
-4.55595e-05
-4.39107e-05
-3.85585e-05
-4.3592e-05
-2.77227e-05
-3.88663e-05
-1.51103e-05
-2.77936e-05
-5.30738e-06
-1.14589e-05
-1.15389e-06
4.65374e-06
1.53338e-05
3.09204e-05
0.000133627
2.73932e-05
0.000114055
2.23025e-05
9.37158e-05
1.63176e-05
7.47008e-05
1.00049e-05
5.81199e-05
3.76639e-06
4.42918e-05
-2.16044e-06
3.30271e-05
-7.69611e-06
2.38428e-05
-1.28806e-05
1.61356e-05
-1.78131e-05
9.33124e-06
-2.26005e-05
2.97785e-06
-2.73101e-05
-3.22755e-06
-3.19492e-05
-9.44145e-06
-3.6466e-05
-1.57109e-05
-4.07422e-05
-2.20094e-05
-4.45775e-05
-2.82454e-05
-4.76309e-05
-3.42451e-05
-4.94217e-05
-3.96923e-05
-4.92528e-05
-4.40797e-05
-4.62423e-05
-4.66025e-05
-3.88892e-05
-4.62194e-05
-2.64908e-05
-4.0192e-05
-1.20655e-05
-2.58841e-05
-2.3652e-06
-5.04661e-06
1.29686e-05
3.71213e-05
0.000134521
3.41118e-05
0.000117065
2.94585e-05
9.83691e-05
2.38029e-05
8.03564e-05
1.77205e-05
6.42023e-05
1.16343e-05
5.0378e-05
5.80579e-06
3.88555e-05
3.46951e-07
2.93017e-05
-4.75624e-06
2.12388e-05
-9.59457e-06
1.41696e-05
-1.42876e-05
7.67084e-06
-1.89424e-05
1.42729e-06
-2.36241e-05
-4.75974e-06
-2.83416e-05
-1.09934e-05
-3.30495e-05
-1.73015e-05
-3.7644e-05
-2.36509e-05
-4.19555e-05
-2.99336e-05
-4.56974e-05
-3.59504e-05
-4.83795e-05
-4.13976e-05
-4.92861e-05
-4.56958e-05
-4.72386e-05
-4.82669e-05
-3.9873e-05
-4.75576e-05
-2.58967e-05
-3.98604e-05
-8.27887e-06
-2.26644e-05
4.68976e-06
4.41964e-05
0.000134716
4.18796e-05
0.000119382
3.78198e-05
0.000102429
3.26156e-05
8.55607e-05
2.68468e-05
6.99711e-05
2.09632e-05
5.62616e-05
1.52571e-05
4.45616e-05
9.87188e-06
3.46869e-05
4.82812e-06
2.62825e-05
5.83701e-08
1.89393e-05
-4.5515e-06
1.22807e-05
-9.12746e-06
6.00325e-06
-1.37767e-05
-1.10487e-07
-1.85643e-05
-6.20586e-06
-2.35045e-05
-1.23614e-05
-2.85603e-05
-1.8595e-05
-3.36502e-05
-2.48438e-05
-3.86587e-05
-3.09419e-05
-4.34029e-05
-3.66533e-05
-4.74284e-05
-4.16703e-05
-5.01169e-05
-4.55784e-05
-5.00828e-05
-4.75917e-05
-4.38521e-05
-4.60912e-05
-2.85875e-05
-3.79291e-05
-2.38977e-05
5.20252e-05
0.000134036
5.05983e-05
0.000120809
4.73282e-05
0.000105699
4.27453e-05
9.01436e-05
3.74191e-05
7.52973e-05
3.18243e-05
6.18564e-05
2.62915e-05
5.00944e-05
2.10045e-05
3.99739e-05
1.60205e-05
3.12665e-05
1.13015e-05
2.36583e-05
6.75241e-06
1.68298e-05
2.2513e-06
1.05044e-05
-2.32544e-06
4.46625e-06
-7.0873e-06
-1.44399e-06
-1.21033e-05
-7.34539e-06
-1.73887e-05
-1.33095e-05
-2.29195e-05
-1.9313e-05
-2.86908e-05
-2.51706e-05
-3.46943e-05
-3.06499e-05
-4.08514e-05
-3.55132e-05
-4.6954e-05
-3.94759e-05
-5.24341e-05
-4.21115e-05
-5.56329e-05
-4.28924e-05
-5.50692e-05
-3.84927e-05
-2.72451e-05
-5.17219e-05
6.04135e-05
0.000132327
6.00766e-05
0.000121146
5.78232e-05
0.000107952
5.40827e-05
9.38842e-05
4.93877e-05
7.99923e-05
4.42257e-05
6.70185e-05
3.8966e-05
5.53541e-05
3.38405e-05
4.50994e-05
2.89532e-05
3.61538e-05
2.43057e-05
2.83058e-05
1.98297e-05
2.13059e-05
1.54181e-05
1.49159e-05
1.09496e-05
8.93473e-06
6.30446e-06
3.20116e-06
1.38015e-06
-2.42107e-06
-3.8752e-06
-8.05419e-06
-9.48746e-06
-1.37007e-05
-1.55177e-05
-1.91403e-05
-2.2036e-05
-2.41316e-05
-2.911e-05
-2.84392e-05
-3.67932e-05
-3.17927e-05
-4.50512e-05
-3.38535e-05
-5.3877e-05
-3.40665e-05
-6.11086e-05
-3.12612e-05
-2.44488e-05
-6.39049e-05
6.91e-05
0.00012948
7.00267e-05
0.000120219
6.90223e-05
0.000108957
6.63839e-05
9.65226e-05
6.25701e-05
8.3806e-05
5.80556e-05
7.1533e-05
5.32375e-05
6.01722e-05
4.83964e-05
4.99405e-05
4.36911e-05
4.08591e-05
3.91752e-05
3.28217e-05
3.48224e-05
2.56587e-05
3.05547e-05
1.91836e-05
2.62668e-05
1.32226e-05
2.18472e-05
7.62082e-06
1.71998e-05
2.22628e-06
1.22552e-05
-3.10961e-06
6.91367e-06
-8.35918e-06