/*--------------------------------*- C++ -*----------------------------------*\
| =========                 |                                                 |
| \\      /  F ield         | OpenFOAM: The Open Source CFD Toolbox           |
|  \\    /   O peration     | Version:  v2012                                 |
|   \\  /    A nd           | Website:  www.openfoam.com                      |
|    \\/     M anipulation  |                                                 |
\*---------------------------------------------------------------------------*/
FoamFile
{
    version     2.0;
    format      ascii;
    class       volVectorField;
    location    "659";
    object      U;
}
// * * * * * * * * * * * * * * * * * * * * * * * * * * * * * * * * * * * * * //

dimensions      [0 1 -1 0 0 0 0];


internalField   nonuniform List<vector> 
6508
(
(7.70219e-05 -0.999752 0)
(0.000199412 -1.00003 0)
(0.000135885 -1.00002 0)
(6.99996e-05 -1.00002 0)
(2.16537e-05 -1.00001 0)
(-2.14644e-05 -1.00001 0)
(-6.984e-05 -1.00002 0)
(-0.000135781 -1.00002 0)
(-0.000199388 -1.00003 0)
(-7.70136e-05 -0.999752 0)
(0.00030733 -0.999456 0)
(0.000369723 -1.00013 0)
(0.000280369 -1.00014 0)
(0.000166411 -1.00012 0)
(5.48052e-05 -1.00011 0)
(-5.42271e-05 -1.00011 0)
(-0.000165922 -1.00012 0)
(-0.000280022 -1.00014 0)
(-0.000369677 -1.00013 0)
(-0.000307308 -0.999456 0)
(0.000378569 -0.999021 0)
(0.000417348 -1.00016 0)
(0.000337372 -1.00028 0)
(0.000215544 -1.00028 0)
(7.3403e-05 -1.00027 0)
(-7.22895e-05 -1.00027 0)
(-0.00021456 -1.00028 0)
(-0.000336598 -1.00028 0)
(-0.000416671 -1.00016 0)
(-0.000378361 -0.999021 0)
(0.000383302 -0.998531 0)
(0.000411452 -1.00015 0)
(0.000347593 -1.00041 0)
(0.000231866 -1.00046 0)
(8.05407e-05 -1.00047 0)
(-7.86781e-05 -1.00047 0)
(-0.000230199 -1.00046 0)
(-0.000346243 -1.00041 0)
(-0.000410556 -1.00015 0)
(-0.000382878 -0.998532 0)
(0.000369967 -0.99806 0)
(0.000396684 -1.00012 0)
(0.000342575 -1.00052 0)
(0.000231694 -1.00063 0)
(8.17491e-05 -1.00066 0)
(-7.88118e-05 -1.00066 0)
(-0.000229039 -1.00063 0)
(-0.00034041 -1.00053 0)
(-0.000395319 -1.00012 0)
(-0.000369274 -0.998062 0)
(0.000351021 -0.997622 0)
(0.000374616 -1.00009 0)
(0.000332574 -1.00063 0)
(0.000225304 -1.0008 0)
(8.03613e-05 -1.00085 0)
(-7.58695e-05 -1.00085 0)
(-0.000221245 -1.0008 0)
(-0.000329358 -1.00063 0)
(-0.000372483 -1.00009 0)
(-0.000349952 -0.997626 0)
(0.00033158 -0.997212 0)
(0.000352758 -1.00006 0)
(0.000315902 -1.00072 0)
(0.000215242 -1.00096 0)
(7.76986e-05 -1.00104 0)
(-7.08674e-05 -1.00104 0)
(-0.000209077 -1.00096 0)
(-0.00031106 -1.00073 0)
(-0.000349484 -1.00007 0)
(-0.000329993 -0.997218 0)
(0.000313702 -0.996824 0)
(0.000333248 -1.00003 0)
(0.000299307 -1.00081 0)
(0.000204974 -1.00111 0)
(7.52531e-05 -1.00121 0)
(-6.48442e-05 -1.00121 0)
(-0.000195576 -1.00111 0)
(-0.000291856 -1.00082 0)
(-0.000328254 -1.00004 0)
(-0.000311355 -0.996833 0)
(0.000298208 -0.996454 0)
(0.000316843 -1.00001 0)
(0.000285576 -1.0009 0)
(0.000196494 -1.00124 0)
(7.40406e-05 -1.00138 0)
(-5.82047e-05 -1.00138 0)
(-0.00018219 -1.00125 0)
(-0.000274199 -1.00091 0)
(-0.000309253 -1.00002 0)
(-0.000294639 -0.996468 0)
(0.000285349 -0.9961 0)
(0.000303891 -0.99998 0)
(0.000275222 -1.00098 0)
(0.000190686 -1.00138 0)
(7.47198e-05 -1.00153 0)
(-5.06897e-05 -1.00153 0)
(-0.000168971 -1.00139 0)
(-0.000257945 -1.00099 0)
(-0.000292411 -0.999999 0)
(-0.00027995 -0.996123 0)
(0.000275106 -0.995758 0)
(0.000294539 -0.999956 0)
(0.000268529 -1.00106 0)
(0.00018819 -1.0015 0)
(7.79967e-05 -1.00168 0)
(-4.16396e-05 -1.00168 0)
(-0.000155359 -1.00151 0)
(-0.000242407 -1.00108 0)
(-0.000277185 -0.999985 0)
(-0.000267003 -0.995793 0)
(0.000267454 -0.995425 0)
(0.000289054 -0.999931 0)
(0.000266091 -1.00113 0)
(0.000189833 -1.00162 0)
(8.4875e-05 -1.00182 0)
(-2.9995e-05 -1.00182 0)
(-0.00014035 -1.00164 0)
(-0.000226619 -1.00116 0)
(-0.000262747 -0.999975 0)
(-0.000255332 -0.995478 0)
(0.000262504 -0.995097 0)
(0.000287982 -0.999904 0)
(0.000268993 -1.0012 0)
(0.000196974 -1.00173 0)
(9.69347e-05 -1.00195 0)
(-1.41259e-05 -1.00196 0)
(-0.000122448 -1.00177 0)
(-0.000209327 -1.00125 0)
(-0.000248124 -0.99997 0)
(-0.000244416 -0.995177 0)
(0.000260504 -0.994769 0)
(0.000291783 -0.999872 0)
(0.000278365 -1.00126 0)
(0.000211959 -1.00184 0)
(0.000116633 -1.00208 0)
(8.42647e-06 -1.0021 0)
(-9.95186e-05 -1.00189 0)
(-0.000188942 -1.00134 0)
(-0.000232274 -0.999973 0)
(-0.000233757 -0.994891 0)
(0.000262003 -0.994436 0)
(0.00030208 -0.999833 0)
(0.000296835 -1.00131 0)
(0.00023804 -1.00194 0)
(0.000147758 -1.0022 0)
(4.13587e-05 -1.00223 0)
(-6.85317e-05 -1.00202 0)
(-0.000163499 -1.00143 0)
(-0.000214226 -0.999984 0)
(-0.000223051 -0.994619 0)
(0.000268001 -0.994091 0)
(0.000321773 -0.99978 0)
(0.000329015 -1.00135 0)
(0.000280374 -1.00203 0)
(0.000196238 -1.00233 0)
(9.04161e-05 -1.00237 0)
(-2.50209e-05 -1.00215 0)
(-0.000130771 -1.00153 0)
(-0.000193762 -1.00001 0)
(-0.00021268 -0.994365 0)
(0.000279937 -0.993725 0)
(0.000354812 -0.999708 0)
(0.000380534 -1.00137 0)
(0.000346739 -1.00211 0)
(0.000268698 -1.00244 0)
(0.000164326 -1.00251 0)
(3.8008e-05 -1.0023 0)
(-8.78681e-05 -1.00166 0)
(-0.000171652 -1.00005 0)
(-0.000206313 -0.994126 0)
(0.000299876 -0.993325 0)
(0.000406972 -0.999605 0)
(0.000460673 -1.00137 0)
(0.000450075 -1.00217 0)
(0.000385921 -1.00255 0)
(0.000279204 -1.00266 0)
(0.000132803 -1.00247 0)
(-3.46555e-05 -1.00183 0)
(-0.000164274 -1.00014 0)
(-0.000214666 -0.993881 0)
(0.000330515 -0.992869 0)
(0.000485854 -0.999455 0)
(0.000582648 -1.00133 0)
(0.000608524 -1.0022 0)
(0.000573012 -1.00265 0)
(0.000469531 -1.00282 0)
(0.000296461 -1.00269 0)
(6.33038e-05 -1.00206 0)
(-0.000139701 -1.00025 0)
(-0.000148177 -0.993607 0)
(0.000374638 -0.992334 0)
(0.000599986 -0.999235 0)
(0.000761648 -1.00123 0)
(0.000846636 -1.00218 0)
(0.000856276 -1.00272 0)
(0.000773212 -1.00299 0)
(0.000555852 -1.00298 0)
(0.000163251 -1.00249 0)
(-0.000449469 -1.00096 0)
(-0.000718328 -0.996038 0)
(0.000437381 -0.991686 0)
(0.000758865 -0.998912 0)
(0.00101701 -1.00103 0)
(0.00119916 -1.00208 0)
(0.00130595 -1.00272 0)
(0.00133369 -1.00313 0)
(0.0012455 -1.00333 0)
(0.00117072 -1.00306 0)
(0.00205319 -1.00094 0)
(0.00919053 -0.981772 0)
(0.000522403 -0.990883 0)
(0.000967581 -0.998445 0)
(0.00135804 -1.00068 0)
(0.00167697 -1.00183 0)
(0.00193069 -1.00257 0)
(0.00213704 -1.00306 0)
(0.00229931 -1.00326 0)
(0.00229589 -1.00288 0)
(0.00280771 -0.999418 0)
(0.016718 -0.964366 0)
(0.000627967 -0.989884 0)
(0.00122497 -0.997789 0)
(0.00178101 -1.00015 0)
(0.00226902 -1.00138 0)
(0.00269772 -1.00219 0)
(0.00310094 -1.00272 0)
(0.00354158 -1.00287 0)
(0.00388362 -1.002 0)
(0.00393535 -0.996794 0)
(0.0208923 -0.949794 0)
(0.000753001 -0.988648 0)
(0.00152913 -0.996905 0)
(0.00228141 -0.999385 0)
(0.00296808 -1.00069 0)
(0.00360125 -1.00155 0)
(0.00422379 -1.00209 0)
(0.00496897 -1.00209 0)
(0.00594389 -1.00049 0)
(0.00608097 -0.992621 0)
(0.0245919 -0.933389 0)
(0.000897713 -0.987135 0)
(0.00188103 -0.995754 0)
(0.00285969 -0.998355 0)
(0.0037733 -0.99973 0)
(0.00463997 -1.00063 0)
(0.00550669 -1.00113 0)
(0.00653537 -1.00088 0)
(0.00809596 -0.998295 0)
(0.00869927 -0.986933 0)
(0.0271167 -0.914695 0)
(0.00106361 -0.985303 0)
(0.00228445 -0.994298 0)
(0.00352042 -0.997025 0)
(0.00468792 -0.998468 0)
(0.00581139 -0.999387 0)
(0.00694198 -0.999815 0)
(0.00824799 -0.999214 0)
(0.0103184 -0.995442 0)
(0.0116735 -0.980069 0)
(0.0292109 -0.896397 0)
(0.00125365 -0.983107 0)
(0.00274683 -0.992495 0)
(0.00427471 -0.995355 0)
(0.00572645 -0.996871 0)
(0.00713183 -0.997809 0)
(0.00854732 -0.998133 0)
(0.0101376 -0.997105 0)
(0.0126356 -0.991981 0)
(0.0149385 -0.972295 0)
(0.0305423 -0.879302 0)
(0.00147294 -0.98049 0)
(0.0032805 -0.990296 0)
(0.00514269 -0.993302 0)
(0.00691817 -0.994901 0)
(0.00864096 -0.995861 0)
(0.0103754 -0.996064 0)
(0.012286 -0.994549 0)
(0.0151626 -0.987955 0)
(0.0184783 -0.963884 0)
(0.0323708 -0.863722 0)
(0.00172783 -0.977386 0)
(0.00390181 -0.987643 0)
(0.00615279 -0.990808 0)
(0.00830363 -0.992504 0)
(0.0103921 -0.993493 0)
(0.0124916 -0.993565 0)
(0.0147773 -0.991509 0)
(0.0180396 -0.983349 0)
(0.0221233 -0.954973 0)
(0.0351912 -0.849361 0)
(0.00202973 -0.973705 0)
(0.00464233 -0.984446 0)
(0.00733662 -0.987797 0)
(0.00993013 -0.989608 0)
(0.0124449 -0.990638 0)
(0.0149632 -0.990572 0)
(0.0176774 -0.987936 0)
(0.0213472 -0.978131 0)
(0.0260125 -0.945644 0)
(0.038496 -0.836421 0)
(0.00239032 -0.969342 0)
(0.00551682 -0.98068 0)
(0.00873862 -0.984186 0)
(0.0118549 -0.986128 0)
(0.0148689 -0.987215 0)
(0.0178695 -0.987019 0)
(0.02106 -0.983791 0)
(0.025129 -0.972339 0)
(0.030407 -0.936133 0)
(0.0417518 -0.825447 0)
(0.00281222 -0.964175 0)
(0.00654425 -0.97611 0)
(0.0104151 -0.979861 0)
(0.014145 -0.981959 0)
(0.0177497 -0.983128 0)
(0.0213156 -0.982825 0)
(0.0250468 -0.979033 0)
(0.0295371 -0.966016 0)
(0.035444 -0.926536 0)
(0.0453652 -0.816609 0)
(0.00331192 -0.958058 0)
(0.00776945 -0.970654 0)
(0.0124117 -0.974687 0)
(0.0168739 -0.976971 0)
(0.0211867 -0.978255 0)
(0.0254275 -0.977884 0)
(0.0297883 -0.973589 0)
(0.0347795 -0.959154 0)
(0.0411237 -0.917249 0)
(0.0495741 -0.809897 0)
(0.00390451 -0.950807 0)
(0.00922725 -0.964146 0)
(0.0147828 -0.968495 0)
(0.0201234 -0.971 0)
(0.0252888 -0.972438 0)
(0.0303449 -0.972053 0)
(0.0354598 -0.967353 0)
(0.0410518 -0.951779 0)
(0.0476914 -0.908459 0)
(0.0548374 -0.805082 0)
(0.00460271 -0.942208 0)
(0.010951 -0.956384 0)
(0.0175876 -0.961088 0)
(0.0239778 -0.963848 0)
(0.0301679 -0.965483 0)
(0.03621 -0.965147 0)
(0.04224 -0.960177 0)
(0.04856 -0.943846 0)
(0.0554807 -0.90013 0)
(0.0615836 -0.801831 0)
(0.00541809 -0.93202 0)
(0.012972 -0.947139 0)
(0.0208815 -0.95224 0)
(0.028515 -0.955287 0)
(0.0359271 -0.957155 0)
(0.0431553 -0.956939 0)
(0.0502938 -0.951863 0)
(0.0575136 -0.935211 0)
(0.064817 -0.892091 0)
(0.0702123 -0.799766 0)
(0.00636018 -0.919983 0)
(0.015316 -0.936158 0)
(0.0247099 -0.941701 0)
(0.033799 -0.945059 0)
(0.0426512 -0.947193 0)
(0.0512898 -0.947166 0)
(0.0597613 -0.942162 0)
(0.0680984 -0.925648 0)
(0.075989 -0.884054 0)
(0.081083 -0.798431 0)
(0.00743556 -0.905815 0)
(0.0180005 -0.923165 0)
(0.0291036 -0.929196 0)
(0.0398727 -0.932885 0)
(0.0503967 -0.935307 0)
(0.060687 -0.935532 0)
(0.0707392 -0.930778 0)
(0.080451 -0.914851 0)
(0.0892205 -0.87561 0)
(0.0944899 -0.79726 0)
(0.00864539 -0.889225 0)
(0.0210324 -0.907876 0)
(0.0340755 -0.914443 0)
(0.046753 -0.918474 0)
(0.0591836 -0.921197 0)
(0.0713724 -0.921723 0)
(0.0832657 -0.917383 0)
(0.0946377 -0.902444 0)
(0.104645 -0.866242 0)
(0.11063 -0.795582 0)
(0.00999358 -0.869917 0)
(0.0244076 -0.889998 0)
(0.0396183 -0.897157 0)
(0.0544264 -0.90154 0)
(0.06899 -0.904561 0)
(0.0833162 -0.90542 0)
(0.0973085 -0.901626 0)
(0.110638 -0.888007 0)
(0.122283 -0.855359 0)
(0.129573 -0.792641 0)
(0.0114891 -0.847601 0)
(0.0281124 -0.869259 0)
(0.0457035 -0.877068 0)
(0.0628481 -0.881809 0)
(0.0797498 -0.885119 0)
(0.0964294 -0.886323 0)
(0.112759 -0.883166 0)
(0.128336 -0.871098 0)
(0.142031 -0.842327 0)
(0.15123 -0.787619 0)
(0.0131229 -0.821987 0)
(0.0321271 -0.845421 0)
(0.0522855 -0.853931 0)
(0.0719445 -0.859041 0)
(0.0913554 -0.862624 0)
(0.110566 -0.864166 0)
(0.129434 -0.861688 0)
(0.147513 -0.851294 0)
(0.163642 -0.826516 0)
(0.175331 -0.77968 0)
(0.0148748 -0.792801 0)
(0.0364253 -0.818263 0)
(0.0593054 -0.827542 0)
(0.081619 -0.833042 0)
(0.103664 -0.836886 0)
(0.12553 -0.838742 0)
(0.147077 -0.836939 0)
(0.167856 -0.828227 0)
(0.186737 -0.807356 0)
(0.201419 -0.768027 0)
(0.0167323 -0.759809 0)
(0.040975 -0.787594 0)
(0.0666957 -0.797743 0)
(0.0917602 -0.803675 0)
(0.116509 -0.807781 0)
(0.141089 -0.809926 0)
(0.165383 -0.808752 0)
(0.18897 -0.801628 0)
(0.210813 -0.784394 0)
(0.228858 -0.751982 0)
(0.018687 -0.722797 0)
(0.0457475 -0.753265 0)
(0.0743896 -0.764433 0)
(0.102253 -0.770875 0)
(0.129712 -0.77527 0)
(0.15699 -0.777685 0)
(0.18401 -0.777073 0)
(0.210409 -0.771367 0)
(0.235288 -0.757356 0)
(0.256884 -0.731071 0)
(0.0207363 -0.681567 0)
(0.0507246 -0.715161 0)
(0.0823311 -0.727564 0)
(0.112989 -0.734648 0)
(0.143101 -0.7394 0)
(0.172984 -0.742095 0)
(0.202615 -0.741976 0)
(0.231714 -0.737476 0)
(0.259549 -0.726189 0)
(0.284668 -0.705103 0)
(0.0228856 -0.635926 0)
(0.0559052 -0.673199 0)
(0.0904845 -0.687148 0)
(0.123883 -0.695075 0)
(0.156525 -0.700313 0)
(0.18884 -0.703338 0)
(0.220879 -0.703666 0)
(0.252455 -0.70016 0)
(0.283012 -0.691075 0)
(0.311417 -0.674209 0)
(0.0251509 -0.585667 0)
(0.0613109 -0.627318 0)
(0.0988398 -0.643255 0)
(0.134872 -0.652315 0)
(0.169855 -0.658236 0)
(0.204359 -0.6617 0)
(0.238522 -0.662472 0)
(0.272257 -0.65978 0)
(0.305181 -0.652413 0)
(0.336454 -0.63883 0)
(0.0275602 -0.530548 0)
(0.0669885 -0.577474 0)
(0.107413 -0.596011 0)
(0.145914 -0.606606 0)
(0.182981 -0.613481 0)
(0.219367 -0.61755 0)
(0.255309 -0.618814 0)
(0.290818 -0.616814 0)
(0.325669 -0.610765 0)
(0.359279 -0.599648 0)
(0.0301572 -0.470265 0)
(0.073006 -0.523634 0)
(0.116231 -0.545617 0)
(0.156962 -0.558273 0)
(0.195786 -0.566443 0)
(0.233686 -0.571332 0)
(0.27102 -0.573182 0)
(0.307888 -0.571811 0)
(0.344197 -0.566779 0)
(0.379573 -0.557477 0)
(0.0329855 -0.404442 0)
(0.0794371 -0.465817 0)
(0.125288 -0.492358 0)
(0.167906 -0.507727 0)
(0.208079 -0.517588 0)
(0.247079 -0.523536 0)
(0.285399 -0.526087 0)
(0.323216 -0.525326 0)
(0.360539 -0.521103 0)
(0.397149 -0.513135 0)
(0.0361898 -0.332612 0)
(0.0862552 -0.404115 0)
(0.134378 -0.436719 0)
(0.178451 -0.455552 0)
(0.219511 -0.467483 0)
(0.259167 -0.474691 0)
(0.298074 -0.478033 0)
(0.336473 -0.477867 0)
(0.37444 -0.474308 0)
(0.411855 -0.467333 0)
(0.0397236 -0.254865 0)
(0.0933811 -0.339057 0)
(0.142922 -0.378876 0)
(0.18782 -0.402139 0)
(0.229317 -0.416649 0)
(0.269246 -0.4253 0)
(0.308421 -0.429464 0)
(0.347134 -0.429847 0)
(0.385496 -0.426823 0)
(0.423438 -0.420598 0)
(0.0403059 -0.168114 0)
(0.0980547 -0.274064 0)
(0.149629 -0.32137 0)
(0.195096 -0.348622 0)
(0.236466 -0.365631 0)
(0.276242 -0.375723 0)
(0.315446 -0.380659 0)
(0.354346 -0.381495 0)
(0.39302 -0.378874 0)
(0.431408 -0.373207 0)
(0.0328766 -0.0772306 0)
(0.0918777 -0.195728 0)
(0.148134 -0.260194 0)
(0.196515 -0.295156 0)
(0.238636 -0.315141 0)
(0.278398 -0.326405 0)
(0.317645 -0.331812 0)
(0.3568 -0.33287 0)
(0.395916 -0.330465 0)
(0.4349 -0.325174 0)
(0.0196577 -0.0127318 0)
(0.0709779 -0.113915 0)
(0.13007 -0.191153 0)
(0.183855 -0.237584 0)
(0.229886 -0.263301 0)
(0.271724 -0.276686 0)
(0.312176 -0.282592 0)
(0.352309 -0.283618 0)
(0.392412 -0.281167 0)
(0.432452 -0.276048 0)
(0.00779671 0.0257732 0)
(0.0442436 -0.0420643 0)
(0.0964901 -0.117721 0)
(0.151547 -0.172362 0)
(0.202385 -0.205573 0)
(0.249068 -0.223358 0)
(0.293377 -0.231143 0)
(0.33653 -0.232702 0)
(0.379129 -0.230349 0)
(0.421348 -0.225403 0)
(-0.00564359 0.0443555 0)
(0.0198813 0.00537843 0)
(0.0564849 -0.0536181 0)
(0.102509 -0.105179 0)
(0.15255 -0.140857 0)
(0.203284 -0.162367 0)
(0.253187 -0.173155 0)
(0.301888 -0.176651 0)
(0.349442 -0.175446 0)
(0.395992 -0.171298 0)
(-0.0209317 0.0445156 0)
(-0.0104711 0.022235 0)
(0.0125786 -0.0117916 0)
(0.0443897 -0.0486139 0)
(0.0861919 -0.077652 0)
(0.13565 -0.0966541 0)
(0.189458 -0.106892 0)
(0.244274 -0.111216 0)
(0.298336 -0.111274 0)
(0.351207 -0.108218 0)
(-0.0259456 0.0124991 0)
(-0.045335 0.00151084 0)
(-0.0517584 -0.0148536 0)
(-0.0281226 -0.0290781 0)
(0.00465266 -0.0408312 0)
(0.0492672 -0.0471877 0)
(0.101741 -0.0507564 0)
(0.162113 -0.053557 0)
(0.225649 -0.0545704 0)
(0.28654 -0.0532221 0)
(-0.0404775 -0.1532 0)
(-0.118186 0.0150348 0)
(-0.100303 0.0206762 0)
(-0.083149 0.0220273 0)
(-0.0636537 0.023647 0)
(-0.0417354 0.0239199 0)
(-0.0217715 0.0238345 0)
(-0.00173062 0.0237937 0)
(0.0175311 0.0224516 0)
(0.0356449 0.0208219 0)
(0.0536942 0.0191037 0)
(0.0694299 0.0167711 0)
(0.0823219 0.0139714 0)
(0.0927128 0.0110713 0)
(0.100401 0.00812372 0)
(0.105219 0.00551008 0)
(0.107058 0.00268441 0)
(0.105587 -0.000627774 0)
(0.100578 -0.00423721 0)
(0.0916743 -0.00802479 0)
(0.0786784 -0.0118428 0)
(0.0616399 -0.0153087 0)
(0.0408996 -0.0168321 0)
(0.0182804 -0.014075 0)
(0.003779 -0.00718305 0)
(-0.0240156 -0.225258 0)
(-0.071514 -0.00610821 0)
(-0.0763519 0.0237947 0)
(-0.0706284 0.0323494 0)
(-0.0590941 0.0370964 0)
(-0.0443739 0.0395119 0)
(-0.0279642 0.0403054 0)
(-0.0107626 0.0397896 0)
(0.00620091 0.0379321 0)
(0.0220773 0.0351119 0)
(0.0364878 0.0315134 0)
(0.049197 0.0270939 0)
(0.0601006 0.0221506 0)
(0.0690685 0.01698 0)
(0.0759468 0.011664 0)
(0.0806 0.00616577 0)
(0.0829511 0.000366213 0)
(0.0831767 -0.00577538 0)
(0.0812197 -0.0123259 0)
(0.0769451 -0.0193313 0)
(0.0701596 -0.0266454 0)
(0.0605327 -0.0336595 0)
(0.0479665 -0.0384381 0)
(0.0300748 -0.0372715 0)
(0.0118407 -0.0269879 0)
(-0.00384132 -0.299303 0)
(-0.0525898 -0.0368428 0)
(-0.0649432 0.0211785 0)
(-0.0646686 0.0405753 0)
(-0.0574128 0.0508339 0)
(-0.046202 0.0563891 0)
(-0.0328575 0.0586571 0)
(-0.0185405 0.0584508 0)
(-0.00413755 0.0562866 0)
(0.00966516 0.0525613 0)
(0.0223788 0.0475405 0)
(0.0337009 0.0414369 0)
(0.0434436 0.0345353 0)
(0.0514533 0.0271084 0)
(0.0576061 0.0193278 0)
(0.0618245 0.0112747 0)
(0.0640924 0.00292545 0)
(0.0644594 -0.00583338 0)
(0.0630072 -0.0151299 0)
(0.0598039 -0.0250437 0)
(0.0548878 -0.0355161 0)
(0.0481501 -0.0460783 0)
(0.0393983 -0.0551126 0)
(0.027466 -0.0584578 0)
(0.013838 -0.0502903 0)
(0.00699805 -0.371467 0)
(-0.0454417 -0.0745235 0)
(-0.062512 0.0123118 0)
(-0.0654922 0.045136 0)
(-0.0605749 0.0621828 0)
(-0.051345 0.0715272 0)
(-0.0399259 0.0757941 0)
(-0.0274724 0.0763078 0)
(-0.0147674 0.073915 0)
(-0.00239368 0.0692249 0)
(0.0091885 0.0627 0)
(0.0196234 0.0547324 0)
(0.028649 0.0457048 0)
(0.0360794 0.0359652 0)
(0.041803 0.0257741 0)
(0.0457806 0.0152869 0)
(0.0480392 0.00455266 0)
(0.0486517 -0.00646233 0)
(0.0477163 -0.0178631 0)
(0.0453364 -0.0297707 0)
(0.0416036 -0.0422402 0)
(0.0365292 -0.0550618 0)
(0.0299256 -0.0671642 0)
(0.0214234 -0.075154 0)
(0.0128335 -0.0760941 0)
(0.0160732 -0.431388 0)
(-0.0371456 -0.122388 0)
(-0.0603769 -0.00432993 0)
(-0.067195 0.0454718 0)
(-0.0653621 0.070807 0)
(-0.0580004 0.0843328 0)
(-0.0483721 0.0906799 0)
(-0.0375498 0.0920835 0)
(-0.026271 0.0897401 0)
(-0.0150588 0.0844297 0)
(-0.00435469 0.0767418 0)
(0.00546113 0.0671876 0)
(0.0140713 0.0562625 0)
(0.0212467 0.0444232 0)
(0.0268597 0.0320462 0)
(0.0308824 0.0193863 0)
(0.0333684 0.00656425 0)
(0.0344199 -0.00641556 0)
(0.0341525 -0.0196388 0)
(0.0326827 -0.0332253 0)
(0.0301141 -0.0472625 0)
(0.0264943 -0.0616558 0)
(0.0216808 -0.0757027 0)
(0.0152373 -0.0871027 0)
(0.0101091 -0.09307 0)
(0.0246669 -0.478921 0)
(-0.0259211 -0.174347 0)
(-0.0529147 -0.028754 0)
(-0.0656668 0.0398543 0)
(-0.0678925 0.0755169 0)
(-0.0637293 0.0941545 0)
(-0.0565869 0.102987 0)
(-0.0478293 0.105616 0)
(-0.0382276 0.103719 0)
(-0.028284 0.0982358 0)
(-0.0184433 0.0898195 0)
(-0.00913128 0.0790489 0)
(-0.000726609 0.0665139 0)
(0.00647235 0.0528059 0)
(0.0122816 0.0384512 0)
(0.0166432 0.0238337 0)
(0.0196075 0.00916545 0)
(0.0212948 -0.00550256 0)
(0.0218404 -0.0202521 0)
(0.0213739 -0.0352249 0)
(0.0200054 -0.0505485 0)
(0.0177959 -0.0661972 0)
(0.0146818 -0.0816751 0)
(0.0100309 -0.0954643 0)
(0.00726368 -0.104585 0)
(0.0301447 -0.515555 0)
(-0.0126402 -0.224232 0)
(-0.0417314 -0.0603888 0)
(-0.0600045 0.02735 0)
(-0.0670305 0.0743509 0)
(-0.0673858 0.0993338 0)
(-0.0636318 0.111743 0)
(-0.057621 0.116311 0)
(-0.0501991 0.115504 0)
(-0.0418593 0.110496 0)
(-0.0330367 0.101963 0)
(-0.024219 0.0904983 0)
(-0.0158771 0.0767673 0)
(-0.00841182 0.0614983 0)
(-0.00210419 0.0453865 0)
(0.0029055 0.0289863 0)
(0.00661766 0.0126422 0)
(0.00914486 -0.00352452 0)
(0.0106403 -0.0195863 0)
(0.0112565 -0.0357155 0)
(0.0111217 -0.0520907 0)
(0.0103131 -0.0687586 0)
(0.00883353 -0.0853764 0)
(0.00593121 -0.100884 0)
(0.00512023 -0.112224 0)
(0.0340903 -0.544301 0)
(-0.000306887 -0.268673 0)
(-0.0303106 -0.0944984 0)
(-0.0517496 0.00801537 0)
(-0.0637519 0.0663935 0)
(-0.0687016 0.0988369 0)
(-0.0693178 0.115839 0)
(-0.0667212 0.123313 0)
(-0.0620282 0.124488 0)
(-0.05574 0.12082 0)
(-0.0482082 0.113018 0)
(-0.0399631 0.101606 0)
(-0.0315826 0.0872729 0)
(-0.0236106 0.0708694 0)
(-0.0164845 0.053275 0)
(-0.0104835 0.0352494 0)
(-0.0057095 0.017317 0)
(-0.00210468 -0.000265084 0)
(0.000489633 -0.0175155 0)
(0.00225922 -0.0346428 0)
(0.00336856 -0.0518889 0)
(0.00392156 -0.0693731 0)
(0.00396528 -0.0868821 0)
(0.00271809 -0.103643 0)
(0.00347965 -0.116632 0)
(0.0373252 -0.566748 0)
(0.00933111 -0.308144 0)
(-0.019942 -0.129608 0)
(-0.0433174 -0.0163252 0)
(-0.0593535 0.0524188 0)
(-0.0690474 0.092255 0)
(-0.0739547 0.114505 0)
(-0.0753198 0.125856 0)
(-0.0738076 0.129926 0)
(-0.0699889 0.128712 0)
(-0.0641392 0.122695 0)
(-0.0566634 0.112339 0)
(-0.0482252 0.0982386 0)
(-0.039533 0.0813062 0)
(-0.0312334 0.062597 0)
(-0.0238249 0.0431111 0)
(-0.0175863 0.0236108 0)
(-0.0125809 0.00456389 0)
(-0.00868705 -0.013892 0)
(-0.0056814 -0.0319675 0)
(-0.00333964 -0.0499859 0)
(-0.00150711 -0.0681484 0)
(-9.88236e-05 -0.0863604 0)
(0.000180545 -0.104082 0)
(0.0020152 -0.118454 0)
(0.0401824 -0.584752 0)
(0.0169087 -0.343313 0)
(-0.0109214 -0.164582 0)
(-0.0355043 -0.0441277 0)
(-0.0548224 0.0329524 0)
(-0.0687177 0.0799218 0)
(-0.0779905 0.10762 0)
(-0.0835027 0.123476 0)
(-0.0856972 0.131431 0)
(-0.0846687 0.133537 0)
(-0.0809531 0.130542 0)
(-0.074649 0.122487 0)
(-0.066314 0.109755 0)
(-0.0567995 0.0931685 0)
(-0.0469895 0.0738871 0)
(-0.0376886 0.0531651 0)
(-0.029462 0.0320838 0)
(-0.0225842 0.0113936 0)
(-0.0170644 -0.00848334 0)
(-0.0126593 -0.0276211 0)
(-0.00908153 -0.0464421 0)
(-0.00606121 -0.0652464 0)
(-0.00347203 -0.0840759 0)
(-0.00181975 -0.102616 0)
(0.00076876 -0.118203 0)
(0.0428153 -0.599674 0)
(0.022971 -0.374927 0)
(-0.00330707 -0.198967 0)
(-0.0286489 -0.074398 0)
(-0.0505302 0.00894995 0)
(-0.0680661 0.0620863 0)
(-0.0814441 0.095116 0)
(-0.0911102 0.115727 0)
(-0.0972662 0.128422 0)
(-0.0997373 0.134843 0)
(-0.0985389 0.135937 0)
(-0.0940277 0.131561 0)
(-0.0862997 0.121641 0)
(-0.0761474 0.106663 0)
(-0.0646553 0.0876853 0)
(-0.0529741 0.0661319 0)
(-0.0421091 0.043467 0)
(-0.0327073 0.0208597 0)
(-0.0250273 -0.000893059 0)
(-0.0189137 -0.021484 0)
(-0.0140185 -0.0413506 0)
(-0.00986981 -0.0608674 0)
(-0.00622129 -0.0802468 0)
(-0.00340101 -0.0996025 0)
(-0.000230042 -0.116312 0)
(0.0455724 -0.612675 0)
(0.0281166 -0.403796 0)
(0.00318967 -0.232676 0)
(-0.0226111 -0.106428 0)
(-0.0464335 -0.0187132 0)
(-0.0669929 0.0394827 0)
(-0.0840097 0.0773781 0)
(-0.0975781 0.102629 0)
(-0.107741 0.120094 0)
(-0.114227 0.131892 0)
(-0.116415 0.137948 0)
(-0.114292 0.138667 0)
(-0.108147 0.133205 0)
(-0.0981038 0.121545 0)
(-0.0852185 0.104303 0)
(-0.0709179 0.0827858 0)
(-0.05672 0.0587286 0)
(-0.0439089 0.0338798 0)
(-0.0332348 0.00961781 0)
(-0.0248758 -0.0131214 0)
(-0.0183196 -0.0345235 0)
(-0.0129146 -0.0551305 0)
(-0.00829212 -0.0751859 0)
(-0.00456517 -0.095347 0)
(-0.00104794 -0.113143 0)
(0.0487985 -0.624563 0)
(0.0329829 -0.43063 0)
(0.00912972 -0.265761 0)
(-0.0169106 -0.139735 0)
(-0.0421552 -0.0492318 0)
(-0.065111 0.0129045 0)
(-0.0851437 0.0550013 0)
(-0.102148 0.0845088 0)
(-0.116063 0.106524 0)
(-0.126549 0.123508 0)
(-0.132978 0.135813 0)
(-0.134412 0.142255 0)
(-0.130817 0.143051 0)
(-0.122366 0.136733 0)
(-0.109224 0.123339 0)
(-0.0927911 0.103568 0)
(-0.0749275 0.0789922 0)
(-0.0576846 0.0517806 0)
(-0.0427997 0.024238 0)
(-0.0311437 -0.00173185 0)
(-0.0222615 -0.0255805 0)
(-0.0153155 -0.0478437 0)
(-0.00973938 -0.0689817 0)
(-0.00527771 -0.0901047 0)
(-0.00149107 -0.109128 0)
(0.0532461 -0.635984 0)
(0.0383117 -0.456129 0)
(0.0152769 -0.298321 0)
(-0.010841 -0.173901 0)
(-0.037064 -0.0818918 0)
(-0.0617515 -0.0167934 0)
(-0.0840859 0.0287937 0)
(-0.103868 0.0619933 0)
(-0.121003 0.0880303 0)
(-0.135197 0.10972 0)
(-0.145805 0.127763 0)
(-0.151931 0.141393 0)
(-0.152422 0.148837 0)
(-0.147081 0.150082 0)
(-0.135837 0.143094 0)
(-0.119016 0.127775 0)
(-0.0983357 0.104831 0)
(-0.076248 0.0760962 0)
(-0.0556354 0.0445097 0)
(-0.0388899 0.0139689 0)
(-0.0264988 -0.0136543 0)
(-0.0174123 -0.0386653 0)
(-0.0106734 -0.0616459 0)
(-0.00552508 -0.0841417 0)
(-0.0017141 -0.104755 0)
(0.0592282 -0.647377 0)
(0.0448471 -0.48074 0)
(0.022467 -0.330423 0)
(-0.00355831 -0.208566 0)
(-0.0303477 -0.116002 0)
(-0.0561576 -0.0486828 0)
(-0.0800707 -0.000250972 0)
(-0.101831 0.0360192 0)
(-0.121404 0.065387 0)
(-0.138615 0.0909836 0)
(-0.152958 0.113915 0)
(-0.163576 0.133782 0)
(-0.1694 0.149276 0)
(-0.169111 0.158371 0)
(-0.161983 0.160391 0)
(-0.147776 0.152773 0)
(-0.126935 0.135106 0)
(-0.101545 0.107961 0)
(-0.0744274 0.073432 0)
(-0.0499084 0.0363847 0)
(-0.0317904 0.00247499 0)
(-0.0195158 -0.0270137 0)
(-0.0111663 -0.0530012 0)
(-0.00535075 -0.0775913 0)
(-0.00175554 -0.100447 0)
(0.0672766 -0.658835 0)
(0.0533313 -0.504676 0)
(0.0315464 -0.362033 0)
(0.00577734 -0.243373 0)
(-0.021216 -0.15093 0)
(-0.0476192 -0.0819486 0)
(-0.0724306 -0.0311255 0)
(-0.0953692 0.00770175 0)
(-0.116484 0.0397334 0)
(-0.135763 0.0683459 0)
(-0.152915 0.0950563 0)
(-0.167283 0.119881 0)
(-0.177922 0.141891 0)
(-0.183555 0.159738 0)
(-0.182995 0.171049 0)
(-0.174343 0.173978 0)
(-0.157449 0.165735 0)
(-0.132503 0.145321 0)
(-0.101673 0.112682 0)
(-0.0687741 0.0699573 0)
(-0.0411163 0.0260197 0)
(-0.0228144 -0.011488 0)
(-0.0117232 -0.042655 0)
(-0.00498543 -0.0705364 0)
(-0.00168473 -0.0964649 0)
(0.0778922 -0.670239 0)
(0.0644365 -0.52796 0)
(0.0432942 -0.393046 0)
(0.0179492 -0.277991 0)
(-0.0089325 -0.186127 0)
(-0.0354942 -0.115857 0)
(-0.0606674 -0.0629175 0)
(-0.0841089 -0.0218626 0)
(-0.105939 0.0123156 0)
(-0.126328 0.0431645 0)
(-0.14522 0.0725663 0)
(-0.162213 0.100992 0)
(-0.176626 0.127907 0)
(-0.187489 0.15215 0)
(-0.192728 0.172564 0)
(-0.192511 0.186201 0)
(-0.183693 0.190205 0)
(-0.164164 0.181562 0)
(-0.135644 0.157378 0)
(-0.0990321 0.11651 0)
(-0.0601811 0.0628278 0)
(-0.0304619 0.0111946 0)
(-0.0137049 -0.0293563 0)
(-0.00485823 -0.0627982 0)
(-0.00161675 -0.0927444 0)
(0.0914867 -0.681272 0)
(0.0787305 -0.55044 0)
(0.0583838 -0.42328 0)
(0.0336485 -0.312112 0)
(0.00714805 -0.221155 0)
(-0.0192508 -0.149858 0)
(-0.0444052 -0.0949487 0)
(-0.0678925 -0.0517954 0)
(-0.0898245 -0.015773 0)
(-0.110524 0.0167292 0)
(-0.130192 0.0478992 0)
(-0.148712 0.0786295 0)
(-0.165669 0.108887 0)
(-0.180398 0.137946 0)
(-0.191873 0.164443 0)
(-0.197774 0.186788 0)
(-0.197872 0.202994 0)
(-0.189214 0.208513 0)
(-0.168736 0.198705 0)
(-0.136663 0.169262 0)
(-0.0935801 0.11665 0)
(-0.0490759 0.0495092 0)
(-0.0193731 -0.00943602 0)
(-0.00542978 -0.0534305 0)
(-0.00160437 -0.0890061 0)
(0.108357 -0.691438 0)
(0.0966554 -0.571789 0)
(0.0773673 -0.452472 0)
(0.0534716 -0.345445 0)
(0.0275738 -0.255686 0)
(0.00156988 -0.183569 0)
(-0.0233287 -0.126793 0)
(-0.0466069 -0.0815564 0)
(-0.0683124 -0.043757 0)
(-0.0888098 -0.00991929 0)
(-0.108504 0.0223596 0)
(-0.127564 0.0543194 0)
(-0.145873 0.0863147 0)
(-0.163058 0.118127 0)
(-0.178459 0.149042 0)
(-0.190991 0.177735 0)
(-0.19857 0.202277 0)
(-0.200131 0.22013 0)
(-0.192183 0.226892 0)
(-0.17192 0.216152 0)
(-0.136388 0.178543 0)
(-0.0855642 0.110482 0)
(-0.0358885 0.0271364 0)
(-0.00869064 -0.0381029 0)
(-0.00174689 -0.0838784 0)
(0.128655 -0.700081 0)
(0.118499 -0.591511 0)
(0.100656 -0.480245 0)
(0.077899 -0.377685 0)
(0.0528254 -0.289441 0)
(0.0273911 -0.216764 0)
(0.00287876 -0.158234 0)
(-0.0200896 -0.110912 0)
(-0.0414689 -0.0712864 0)
(-0.0615916 -0.0361605 0)
(-0.0809341 -0.0030933 0)
(-0.0998896 0.0294394 0)
(-0.11861 0.0621138 0)
(-0.136998 0.0950387 0)
(-0.154722 0.127939 0)
(-0.171166 0.16016 0)
(-0.185341 0.190503 0)
(-0.195484 0.216844 0)
(-0.199764 0.235821 0)
(-0.193709 0.243231 0)
(-0.176018 0.231245 0)
(-0.135233 0.183012 0)
(-0.0767157 0.0941239 0)
(-0.0215781 -0.0119575 0)
(-0.00318232 -0.0783841 0)
(0.152349 -0.706411 0)
(0.144352 -0.608938 0)
(0.128484 -0.506077 0)
(0.107274 -0.408459 0)
(0.0833079 -0.322154 0)
(0.0586225 -0.24926 0)
(0.0345915 -0.189204 0)
(0.0119473 -0.13984 0)
(-0.0091382 -0.0983391 0)
(-0.0289169 -0.06185 0)
(-0.0478574 -0.0280489 0)
(-0.0664572 0.00472537 0)
(-0.0850906 0.0374396 0)
(-0.103903 0.0704941 0)
(-0.122818 0.103909 0)
(-0.141539 0.137377 0)
(-0.159515 0.170217 0)
(-0.175918 0.201225 0)
(-0.189479 0.228464 0)
(-0.197112 0.247798 0)
(-0.19685 0.255866 0)
(-0.180542 0.240898 0)
(-0.138274 0.180184 0)
(-0.0721391 0.0665398 0)
(-0.00552266 -0.0652504 0)
(0.179188 -0.709534 0)
(0.174062 -0.623223 0)
(0.160843 -0.529256 0)
(0.141747 -0.437241 0)
(0.1193 -0.353486 0)
(0.0956251 -0.280851 0)
(0.0722196 -0.219613 0)
(0.0499404 -0.168407 0)
(0.029089 -0.125034 0)
(0.00954109 -0.0871075 0)
(-0.00909303 -0.0525072 0)
(-0.0273372 -0.0195704 0)
(-0.0456896 0.0128234 0)
(-0.0645181 0.0453457 0)
(-0.0839808 0.0782942 0)
(-0.104018 0.111638 0)
(-0.124372 0.144941 0)
(-0.144663 0.177312 0)
(-0.164382 0.207452 0)
(-0.182461 0.233451 0)
(-0.196707 0.252667 0)
(-0.202828 0.260144 0)
(-0.195295 0.240798 0)
(-0.161698 0.185715 0)
(-0.0820733 0.0840278 0)
(0.208671 -0.708507 0)
(0.207172 -0.633371 0)
(0.197409 -0.548854 0)
(0.181179 -0.463276 0)
(0.160856 -0.382906 0)
(0.13862 -0.311216 0)
(0.116106 -0.24929 0)
(0.0943367 -0.19655 0)
(0.0737712 -0.151458 0)
(0.05442 -0.112096 0)
(0.0359854 -0.076613 0)
(0.0180024 -0.0434697 0)
(-2.58208e-05 -0.0115064 0)
(-0.0185936 0.0201043 0)
(-0.038105 0.051889 0)
(-0.0586998 0.0840868 0)
(-0.0803195 0.11645 0)
(-0.10289 0.14811 0)
(-0.126438 0.177896 0)
(-0.150861 0.204455 0)
(-0.17552 0.226013 0)
(-0.199026 0.239661 0)
(-0.220103 0.242607 0)
(-0.228988 0.203881 0)
(-0.21232 0.116673 0)
(0.240045 -0.702433 0)
(0.242889 -0.638303 0)
(0.237459 -0.563736 0)
(0.225018 -0.485535 0)
(0.207657 -0.409595 0)
(0.187528 -0.339778 0)
(0.166389 -0.277878 0)
(0.145448 -0.224078 0)
(0.12536 -0.177516 0)
(0.106314 -0.136799 0)
(0.0881462 -0.100414 0)
(0.0704771 -0.0669868 0)
(0.05283 -0.0354002 0)
(0.0347086 -0.00479242 0)
(0.0156503 0.025509 0)
(-0.00461744 0.0559959 0)
(-0.0262834 0.0867001 0)
(-0.0494976 0.116546 0)
(-0.0745329 0.144202 0)
(-0.10166 0.168403 0)
(-0.130957 0.187759 0)