/*--------------------------------*- C++ -*----------------------------------*\
| =========                 |                                                 |
| \\      /  F ield         | OpenFOAM: The Open Source CFD Toolbox           |
|  \\    /   O peration     | Version:  v2012                                 |
|   \\  /    A nd           | Website:  www.openfoam.com                      |
|    \\/     M anipulation  |                                                 |
\*---------------------------------------------------------------------------*/
FoamFile
{
    version     2.0;
    format      ascii;
    class       volScalarField;
    location    "2000";
    object      age;
}
// * * * * * * * * * * * * * * * * * * * * * * * * * * * * * * * * * * * * * //

dimensions      [0 0 1 0 0 0 0];


internalField   nonuniform List<scalar> 
6502
(
0.0139117
0.0122415
0.0122546
0.0123884
0.012423
0.012423
0.0123883
0.0122543
0.0122411
0.0139115
0.045567
0.0368807
0.035488
0.0361483
0.0364989
0.0364987
0.0361477
0.0354866
0.036878
0.0455642
0.0876355
0.0635308
0.0575946
0.0583751
0.059231
0.0592305
0.0583736
0.057589
0.0635157
0.0876139
0.141052
0.092999
0.0792227
0.0792488
0.080568
0.0805674
0.079246
0.0792054
0.0929486
0.140971
0.204494
0.124759
0.100794
0.0991486
0.100717
0.100717
0.0991428
0.10075
0.124617
0.204275
0.27542
0.158907
0.122688
0.118439
0.119948
0.119949
0.118426
0.122595
0.158625
0.274935
0.351382
0.193327
0.144809
0.137397
0.138508
0.13851
0.137371
0.144632
0.192764
0.350442
0.430609
0.228045
0.167173
0.156193
0.156593
0.156597
0.156141
0.166855
0.22701
0.428956
0.511952
0.262847
0.189445
0.17489
0.17435
0.174355
0.174801
0.188945
0.261067
0.509196
0.595006
0.297843
0.212841
0.193586
0.191882
0.191886
0.193421
0.211921
0.294887
0.590742
0.678468
0.332952
0.236667
0.212319
0.209263
0.209265
0.212
0.235373
0.328202
0.671509
0.766343
0.368314
0.259428
0.23106
0.226547
0.226533
0.230517
0.257506
0.360776
0.757539
0.856824
0.404266
0.2822
0.249828
0.24377
0.243711
0.24894
0.279291
0.39271
0.843608
0.94804
0.441166
0.305199
0.268658
0.260957
0.260813
0.26724
0.300798
0.423847
0.927163
1.03983
0.479521
0.328551
0.2876
0.278134
0.277843
0.285379
0.321925
0.453879
1.00653
1.13265
0.520031
0.352408
0.306718
0.29533
0.294801
0.303303
0.342498
0.48233
1.08041
1.22726
0.563654
0.376987
0.326104
0.312582
0.311683
0.320935
0.362263
0.508431
1.14537
1.32448
0.611612
0.402584
0.345889
0.329954
0.328491
0.338181
0.380843
0.530904
1.19719
1.42556
0.66556
0.42963
0.36625
0.34752
0.345238
0.354946
0.397775
0.548023
1.21802
1.5315
0.727119
0.458569
0.387783
0.365522
0.361969
0.371138
0.412179
0.553401
1.18473
1.64497
0.800085
0.490964
0.410151
0.384177
0.378902
0.386869
0.423461
0.542186
0.982484
1.76766
0.884719
0.528242
0.434195
0.403712
0.396273
0.402536
0.433547
0.528973
0.84849
1.90124
0.980978
0.57174
0.460335
0.424286
0.414248
0.418503
0.444085
0.519662
0.758445
2.04787
1.08898
0.622925
0.489054
0.44614
0.433037
0.435048
0.455849
0.51524
0.696149
2.21006
1.20906
0.683381
0.520918
0.469557
0.452832
0.452348
0.468931
0.515514
0.653313
2.39035
1.34188
0.754806
0.556474
0.494842
0.473851
0.470572
0.483308
0.519916
0.624735
2.59222
1.48869
0.839849
0.598052
0.522456
0.496304
0.489897
0.49896
0.527696
0.607016
2.81918
1.65127
0.938436
0.647529
0.552901
0.520399
0.510519
0.515936
0.53826
0.597824
3.07682
1.83214
1.0518
0.707431
0.587409
0.546449
0.532632
0.534355
0.551248
0.595478
3.37024
2.0343
1.18181
0.780034
0.628028
0.575105
0.55646
0.55436
0.566431
0.598718
3.71475
2.26319
1.33085
0.867144
0.676914
0.607459
0.582367
0.576142
0.583729
0.606692
4.11433
2.52485
1.50219
0.971238
0.736528
0.645089
0.610989
0.599974
0.60317
0.618876
4.58035
2.82682
1.70008
1.09537
0.80973
0.690112
0.643367
0.626285
0.624904
0.634673
5.12957
3.17886
1.93006
1.24329
0.899875
0.745247
0.681083
0.655787
0.649209
0.654061
5.78541
3.594
2.19939
1.41965
1.01091
0.813879
0.726405
0.689645
0.676608
0.676697
6.58097
4.09013
2.51775
1.63041
1.14757
0.900131
0.782412
0.729669
0.708018
0.702643
7.56486
4.69249
2.89825
1.88324
1.31553
1.00897
0.853124
0.778528
0.744938
0.732526
8.81059
5.43853
3.35997
2.18877
1.52199
1.14635
0.94356
0.839933
0.789695
0.767641
10.442
6.38414
3.92795
2.56055
1.77614
1.3197
1.06006
0.918867
0.845706
0.810123
12.6591
7.63596
4.65403
3.02202
2.08972
1.53728
1.20994
1.02168
0.91781
0.863255
15.9709
9.29764
5.56512
3.59966
2.48465
1.81355
1.40311
1.15615
1.01226
0.931712
21.0284
12.1644
6.92853
4.33324
2.96562
2.15863
1.65204
1.33314
1.13756
1.02188
34.5321
14.3876
8.73241
5.43772
3.62515
2.59686
1.96797
1.56438
1.30507
1.14308
226.885
53.6074
11.4506
6.74245
4.49341
3.17828
2.37069
1.85771
1.52278
1.30426
250.046
134.054
30.3461
8.17051
5.43993
3.9396
2.92175
2.24482
1.8036
1.51438
240.543
222.846
102.431
23.3449
6.46777
4.70297
3.61893
2.78586
2.19087
1.79409
233.786
210.376
183.278
81.9156
19.7203
5.55394
4.28918
3.44947
2.73658
2.19449
229.528
192.639
193.034
159.376
71.4079
17.9714
4.99329
4.04865
3.37783
2.7563
225.278
187.223
187.418
196.76
148.132
67.1077
17.7236
4.67552
3.91867
3.37063
221.817
183.617
187.44
202.067
202.568
143.154
65.4557
18.0909
4.58361
3.88149
218.42
180.173
188.242
217.012
235.326
213.995
142.797
65.792
18.9795
4.65523
214.634
177.579
188.289
227.032
261.412
268.193
224.12
143.353
66.8852
20.4212
212.046
175.643
186.569
228.398
274.39
303.989
289.329
226.636
141.405
68.2112
210.682
173.191
182.662
221.602
270.261
307.615
317.368
287.674
216.39
135.245
210.844
170.92
175.805
207.465
251.553
291.949
312.465
311.493
265.521
195.645
215.368
169.306
167.999
188.757
221.7
256.795
283.02
290.044
269.957
223.666
226.419
169.37
161.851
170.078
188.279
210.167
229.337
239.272
235.003
213.374
247.123
173.974
159.576
157.669
162.324
170.7
179.982
186.556
187.308
179.759
286.672
189.199
162.245
154.284
151.281
149.777
148.903
148.637
147.819
145.166
347.431
216.983
173.557
160.32
152.776
147.839
144.201
141.235
138.521
135.696
16.2586
68.4482
68.1632
67.8813
68.1686
68.7845
69.4975
70.1567
70.7494
71.2958
71.8192
72.3836
73.0846
74.0344
75.425
77.5186
80.6161
85.0731
91.3453
100.725
115.535
139.604
178.721
245.818
342.151
9.53295
60.9436
61.5799
60.3622
60.186
59.8525
59.5182
59.2344
58.9565
58.717
58.4884
58.243
57.9765
57.6857
57.3657
57.1758
57.3005
57.8164
58.7487
60.9095
65.5961
76.8422
102.325
163.617
290.835
5.2673
49.3843
64.1136
67.3592
69.0852
68.8598
67.9837
66.7287
65.376
64.0464
62.7512
61.4804
60.2412
59.0338
57.729
56.4641
55.3609
54.6697
54.4107
54.3298
55.1772
57.7676
62.939
73.7786
97.4699
3.17354
35.3251
65.4362
76.4324
83.2067
85.77
86.0077
84.9953
83.223
81.0048
78.4613
75.6836
72.7024
69.5525
66.3059
63.06
59.9532
57.1683
54.9334
53.4835
52.9857
53.3387
55.8681
61.852
71.5521
2.08272
22.8896
60.9278
82.4988
95.9069
103.354
106.736
107.353
106.119
103.56
100.032
95.7785
90.9558
85.694
80.1376
74.4768
68.9155
63.6854
59.0534
55.3405
52.9179
52.1001
52.6863
56.4056
63.2394
1.47275
13.2955
50.6156
83.3885
104.675
119.22
128.032
132.222
132.903
130.948
126.908
121.239
114.339
106.537
98.1474
89.529
81.0218
72.9506
65.6257
59.3755
54.6111
51.9195
51.2913
53.1272
57.7434
1.12089
6.81758
36.485
76.8249
107.867
130.619
146.988
157.01
161.589
161.675
158.11
151.51
142.572
131.931
120.197
107.996
95.91
84.4513
74.0379
65.0183
57.7608
52.7849
50.7827
51.0791
54.3871
0.91217
3.7018
23.0119
63.4723
103.608
135.346
160.548
178.545
189.313
193.478
191.896
185.441
174.975
161.532
146.141
129.82
113.516
98.0385
84.012
71.8625
61.9112
54.5692
50.6369
49.8683
52.1413
0.789174
2.23852
12.6699
46.4819
91.1123
131.769
165.987
193.373
212.464
223.056
225.578
220.937
210.105
194.416
175.434
154.711
133.698
113.624
95.4388
79.7464
66.8703
57.1042
51.025
49.1492
50.433
0.719416
1.49903
6.24813
29.2495
71.8418
118.76
161.489
198.284
227.235
246.462
255.553
254.834
245.511
228.831
206.888
181.905
156.003
130.958
108.162
88.5255
72.4461
60.1044
51.9067
48.7836
49.0762
0.682941
1.10025
3.29875
15.8054
50.0467
97.3409
146.266
191.27
229.865
259.314
277.148
283.294
277.632
261.982
238.451
209.972
179.485
149.476
121.859
98.0069
78.5158
63.499
53.1449
48.4569
47.9901
0.667324
0.887569
1.97288
7.36504
29.5685
70.7886
121.128
171.902
218.426
257.487
287.388
304.327
302.277
290.023
267.008
236.627
202.543
168.146
135.925
107.843
84.8627
67.1447
54.6875
48.2337
47.103
0.665181
0.782196
1.31937
3.54939
14.6716
44.6745
89.7768
141.626
193.137
239.51
278.492
303.306
315.864
308.616
288.391
258.636
222.824
185.37
149.37
117.474
91.1804
70.8442
56.3807
48.2342
46.3754
0.672582
0.735943
0.990049
1.99723
6.2285
23.3226
57.7576
104.517
156.345
206.73
251.786
285.691
306.285
314.206
297.771
271.952
237.274
198.984
160.786
126.074
97.0288
74.3709
58.0956
48.3809
45.8076
0.686586
0.72124
0.839885
1.29634
2.84668
9.98896
31.3329
67.2662
113.283
162.85
210.431
250.581
278.982
292.924
290.532
272.285
242.453
206.418
168.436
132.588
101.82
77.4184
59.6722
48.6135
45.292
0.706675
0.724738
0.781559
0.970012
1.62619
3.73283
13.4024
36.2586
71.3507
114.375
159.768
201.956
235.841
257.385
264.393
256.268
235.195
204.937
170.198
135.583
104.704
79.5466
60.886
48.8508
44.7992
0.731436
0.739781
0.766745
0.84431
1.09751
1.81092
4.66233
15.3607
37.346
69.2777
107.353
146.615
181.927
208.706
223.671
225.5
214.283
192.49
164.106
133.559
104.704
80.2118
61.4676
48.9689
44.3193
0.760606
0.762702
0.775043
0.808172
0.89287
1.17204
1.83176
4.9859
15.4064
34.6986
61.7151
93.2889
125.182
152.985
172.922
182.471
180.969
169.09
149.386
125.438
100.927
78.8389
61.1358
48.8305
43.8303
0.795059
0.791448
0.795885
0.81086
0.839943
0.92897
1.1857
1.46275
4.31431
12.8951
28.5428
49.9248
74.464
98.8018
119.483
133.605
139.473
136.826
126.559
110.905
92.7421
74.8718
59.546
48.2723
43.2844
0.836788
0.826071
0.824449
0.830855
0.842844
0.8659
0.953775
1.08526
1.26103
3.04106
8.90127
20.3536
36.0664
53.9562
71.5113
86.2248
96.0737
99.9802
97.9277
90.7003
79.9698
67.8008
56.2597
47.0361
42.5849
0.889052
0.868322
0.859808
0.859914
0.865669
0.873755
0.895602
0.956383
1.02838
1.19557
1.72246
4.82436
11.6313
22.1071
34.3667
46.5126
56.8118
63.947
67.2441
66.7888
63.1199
57.2995
50.7278
44.7382
41.6667
0.956537
0.921433
0.903449
0.896477
0.897214
0.901078
0.905551
0.927658
0.963343
1.0198
1.13143
1.28406
2.08046
4.98608
10.3511
17.8317
25.7979
33.0048
38.569
42.0581
43.5415
43.4124
42.2776
40.7171
40.3545
1.04626
0.990524
0.958812
0.942289
0.936147
0.936634
0.937602
0.943849
0.960624
0.982816
1.02541
1.08262
1.19202
1.32498
1.69182
3.36097
6.3674
10.4895
15.1627
19.5652
23.3969
26.7285
29.9101
33.692
38.2593
1.16632
1.08196
1.03048
1.00037
0.984479
0.978648
0.977573
0.978747
0.985577
0.996357
1.01403
1.03906
1.08299
1.13893
1.21947
1.33244
1.44411
1.8398
2.95301
4.74916
7.20955
10.4271
14.3281
18.9707
25.8136
1.32609
1.20482
1.12608
1.07647
1.04663
1.0307
1.02401
1.02205
1.02398
1.02955
1.03864
1.05166
1.0711
1.0972
1.13621
1.18629
1.24279
1.31757
1.40813
1.50493
1.6424
2.26768
3.55878
5.65534
9.1141
1.53678
1.36877
1.25522
1.17928
1.12978
1.09911
1.08203
1.07385
1.07132
1.07302
1.07805
1.08614
1.09728
1.11187
1.13204
1.15761
1.19092
1.23131
1.27746
1.32961
1.38555
1.46005
1.54101
1.61388
1.95699
1.82691
1.58758
1.42657
1.31674
1.24166
1.19116
1.15874
1.13951
1.12947
1.12583
1.12682
1.13141
1.1389
1.14897
1.1619
1.17778
1.19792
1.22245
1.25074
1.28353
1.32066
1.36116
1.40499
1.45017
1.50641
2.25789
1.90492
1.66382
1.50142
1.39077
1.31438
1.26186
1.22683
1.20479
1.19231
1.18683
1.18658
1.19031
1.19719
1.20669
1.21853
1.23284
1.24982
1.26953
1.29204
1.31759
1.34544
1.37498
1.40731
1.44169
2.83913
2.3793
2.02366
1.7715
1.59926
1.48186
1.4008
1.34445
1.30576
1.2802
1.26456
1.25647
1.25419
1.25642
1.26221
1.27089
1.28199
1.29524
1.3106
1.32798
1.34736
1.36865
1.39153
1.41611
1.44198
3.42053
2.96805
2.53856
2.18261
1.91601
1.72757
1.59717
1.50679
1.44365
1.39956
1.36937
1.34967
1.33808
1.33289
1.33275
1.33669
1.34392
1.35383
1.36604
1.38026
1.39625
1.41388
1.43303
1.45358
1.4754
3.92611
3.53097
3.13505
2.73734
2.38473
2.10372
1.89508
1.74599
1.64092
1.56688
1.5146
1.47794
1.4529
1.43678
1.42769
1.42426
1.42542
1.43034
1.43837
1.44901
1.46185
1.47659
1.49302
1.51097
1.53031
4.71851
3.91708
3.64461
3.32815
2.97612
2.63679
2.34566
2.11553
1.94286
1.81697
1.72637
1.66146
1.61517
1.5826
1.56038
1.54622
1.53847
1.53595
1.53772
1.54309
1.55149
1.56246
1.57567
1.59084
1.60778
22.4735
5.91718
4.08537
3.7875
3.52259
3.23089
2.92805
2.64449
2.40143
2.20595
2.05523
1.94205
1.85839
1.79724
1.75307
1.72179
1.70043
1.68687
1.67956
1.67737
1.67943
1.68509
1.69384
1.70528
1.71913
68.7534
26.0313
8.12019
4.47523
3.98297
3.72081
3.48592
3.23938
2.99003
2.75606
2.55098
2.3802
2.24312
2.13595
2.05379
1.99187
1.94607
1.91304
1.89018
1.8755
1.86747
1.86496
1.86708
1.87314
1.88271
125.985
69.1874
30.4567
11.6323
5.34356
4.31231
3.98677
3.75453
3.55292
3.35522
3.16012
2.9749
2.8069
2.66047
2.53683
2.43506
2.35311
2.28844
2.23855
2.20114
2.17424
2.15618
2.14563
2.14149
2.14298
168.515
114.939
69.0515
36.5138
17.0296
8.06412
5.36492
4.58602
4.21553
3.96151
3.761
3.59185
3.44025
3.30158
3.17567
3.06342
2.96529
2.88124
2.81077
2.75303
2.70703
2.67169
2.64599
2.62894
2.61984
180.283
142.374
104.297
70.7168
44.5416
25.8323
14.7182
8.87505
6.52803
5.52368
4.96735
4.6
4.33316
4.12653
3.95867
3.81898
3.7039
3.60988
3.53298
3.47052
3.42068
3.38215
3.35392
3.33513
3.32523
164.508
144.347
121.747
98.2341
76.0011
56.2987
40.6026
28.373
19.8795
14.3138
10.8951
8.93535
7.73856
6.94654
6.39094
5.98074
5.66701
5.42363
5.23357
5.08511
4.96995
4.88211
4.81723
4.77203
4.74415
139.151
130.705
121.526
111.259
98.9753
85.9968
73.6974
62.5255
52.7453
44.3243
37.1918
31.4511
26.9567
23.4649
20.7557
18.6047
16.9337
15.6434
14.64
13.8542
13.2371
12.7536
12.3785
12.0927
11.8825
132.933
130.225
126.463
121.172
115.575
109.251
102.894
97.5085
91.2344
84.862
79.558
74.692
70.1977
66.27
62.8816
59.8977
57.2796
55.0159
53.0858
51.4615
50.1133
49.0127
48.1339
47.4544
46.9545
28.266
28.3992
28.5149
12.9782
15.4079
16.7008
2.67348
3.47771
4.16129
1.55674
1.60141
1.64391
1.47483
1.50625
1.53768
1.46727
1.4918
1.51705
1.49687
1.51784
1.53962
1.54956
1.56853
1.58836
1.62506
1.64241
1.66081
1.734
1.74948
1.76635
1.89434
1.90745
1.92248
2.1486
2.15739
2.1692
2.61746
2.6205
2.62815
3.32314
3.32744
3.33735
4.73193
4.73155
4.74094
11.7451
11.6599
11.6134
46.646
46.4563
46.3751
1655.97
1616.29
1408.16
792.147
540.182
486.168
458.588
439.678
425.962
415.619
407.963
401.428
395.881
391.17
387.584
383.918
379.674
375.774
372.736
369.734
367.07
364.664
362.449
360.365
358.39
356.514
354.714
352.98
351.297
349.659
348.044
346.403
344.663
342.809
341.014
339.343
337.687
335.957
334.146
332.247
330.261
328.245
326.214
323.919
324.747
323.553
322.115
320.865
319.901
319.171
318.634
318.348
318.37
318.752
320.654
320.579
323.858
322.359
322.512
323.489
324.76
326.439
328.612
331.585
335.636
342.013
354.502
355.815
357.791
364.751
369.346
378.667
394.216
416.89
447.893
488.93
548.812
642.388
788.431
957.531
1374.54
1223.95
876.682
558.859
466.821
437.336
414.425
396.727
382.64
370.984
361.096
352.618
345.616
339.886
334.922
328.878
320.777
314.223
309.038
303.901
299.388
295.568
292.311
289.503
287.043
284.858
282.897
281.122
279.504
278.019
276.647
275.364
274.139
272.974
271.939
270.993
270.109
269.288
268.534
267.846
267.22
266.627
266.055
265.534
265.188
264.566
263.87
263.27
262.691
262.092
261.477
260.846
260.203
259.545
258.909
258.216
257.462
256.283
255.212
254.508
253.863
253.214
252.644
252.254
252.146
252.338
252.635
252.555
252.421
253.678
255.609
258.559
263.48
271.587
284.971
306.872
342.258
405.477
524.724
721.391
1140.17
895.735
599.2
456.016
418.515
392.423
369.52
350.397
334.564
321.535
311.018
303.219
297.64
293.507
290.233
287.394
284.951
282.965
281.49
280.4
279.588
278.848
278.285
277.898
277.438
276.982
276.532
276.089
275.653
275.223
274.799
274.38
273.968
273.568
273.171
272.795
272.426
272.056
271.676
271.282
270.836
270.31
269.721
269.067
268.362
267.596
266.773
265.896
264.967
263.99
262.963
261.893
260.76
259.562
258.314
257.054
255.748
254.388
252.974
251.515
250.006
248.422
246.7
244.882
243.067
241.599
240.306
239.26
238.124
237.112
236.136
235.43
235.293
236.44
240.09
248.41
262.473
286.212
327.714
396.198
970.809
692.95
477.147
409.031
380.265
352.824
330.397
313.248
302.046
295.587
291.985
290.146
288.867
287.851
287.359
286.862
286.555
286.639
287.421
288.726
290.447
292.511
294.756
297.038
299.369
301.707
304.016
306.263
308.421
310.464
312.37
314.115
315.672
317.019
318.129
318.972
319.53
319.785
319.733
319.386
318.794
317.999
317.017
315.861
314.535
313.045
311.397
309.596
307.648
305.559
303.325
300.939
298.408
295.754
293.002
290.153
287.205
284.157
281.013
277.766
274.408
270.931
267.327
263.592
259.73
255.763
251.75
247.788
244.005
240.544
236.918
233.835
231.318
229.824
229.081
231.205
238.722
253.633
279.546
315.564
852.008
576.079
422.29
378.613
348.369
323.065
306.3
297.325
293.536
291.892
291.234
290.942
291.446
293.051
295.728
299.498
304.262
309.897
315.969
322.245
328.563
334.782
340.791
346.598
352.164
357.434
362.37
366.946
371.143
374.955
378.376
381.393
383.991
386.161
387.898
389.19
390.016
390.357
390.205
389.57
388.499
387.049
385.259
383.153
380.737
378.023
375.029
371.768
368.253
364.493
360.49
356.241
351.765
347.111
342.321
337.396
332.331
327.127
321.784
316.297
310.659
304.864
298.907
292.786
286.508
280.095
273.587
267.042
260.523
254.072
247.738
241.601
235.87
230.88
227.199
225.586
227.246
236.281
256.532
287.854
768.365
510.171
393.089
354.463
324.979
305.861
296.8
294.072
293.409
293.557
295.666
299.992
306.414
314.467
323.694
333.718
344.256
355.116
366.055
376.906
387.54
397.868
407.822
417.345
426.38
434.88
442.805
450.125
456.822
462.896
468.349
473.147
477.251
480.634
483.288
485.2
486.327
486.632
486.1
484.749
482.677
479.986
476.741
472.975
468.699
463.945
458.756
453.161
447.174
440.812
434.098
427.057
419.733
412.192
404.478
396.602
388.568
380.382
372.045
363.557
354.914
346.111
337.147
328.022
318.747
309.347
299.86
290.341
280.852
271.454
262.212
253.223
244.626
236.651
229.726
224.676
222.865
226.408
241.233
269.969
708.846
468.955
372.025
335.485
309.835
298.103
295.105
294.881
296.832
302.34
311.193
322.758
336.232
351.037
366.647
382.725
399.054
415.469
431.811
447.951
463.773
479.17
494.041
508.292
521.835
534.587
546.471
557.414
567.37
576.351
584.367
591.338
597.174
601.82
605.265
607.516
608.538
608.292
606.772
604.043
600.232
595.472
589.855
583.437
576.261
568.393
559.908
550.87
541.307
531.25
520.76
509.902
498.744
487.357
475.795
464.088
452.257
440.314
428.268
416.121
403.872
391.518
379.057
366.49
353.825
341.085
328.303
315.53
302.832
290.287
277.997
266.088
254.718
244.076
234.436
226.409
221.645
221.099
230.899
257.599
662.073
440.745
355.533
321.18
301.638
296.514
296.179
299.499
307.731
320.628
337.089
356.031
376.581
398.191
420.465
443.168
466.122
489.168
512.144
534.886
557.226
578.996
600.035
620.186
639.302
657.241
673.871
689.071
702.762
714.971
725.701
734.822
742.209
747.782
751.531
753.477
753.621
751.944
748.506
743.406
736.792
728.818
719.615
709.289
697.939
685.677
672.62
658.871
644.506
629.594
614.23
598.513
582.536
566.388
550.138
533.837
517.522
501.217
484.938
468.692
452.478
436.294
420.133
403.991
387.87
371.784
355.757
339.83
324.059
308.527
293.344
278.658
264.66
251.577
239.667
229.306
221.375
218.278
224.089
248.2
626.535
420.106
342.499
311.485
298.813
297.097
300.285
309.897
325.742
346.47
370.531
396.832
424.67
453.627
483.422
513.84
544.668
575.678
606.629
637.268
667.337
696.584
724.764
751.642
776.999
800.634
822.361
842.023
859.516
874.826
887.905
898.615
906.834
912.494
915.59
916.152
914.201
909.814
903.108
894.231
883.371
870.725
856.482
840.815
823.894
805.887
786.963
767.274
746.958
726.14
704.95
683.519
661.968
640.405
618.918
597.579
576.437
555.528
534.872
514.479
494.346
474.465
454.822
435.401
416.189
397.184
378.395
359.843
341.569
323.639
306.15
289.245
273.115
258.006
244.197
232.052
222.21
216.475
219.052
240.696
600.802
404.619
332.108
305.585
298.618
299.517
308.414
325.471
349.21
377.652
409.27
443.184
478.893
516.069
554.432
593.69
633.516
673.562
713.466
752.859
791.38
828.677
864.416
898.281
929.98
959.247
985.847
1009.59
1030.33
1047.97
1062.43
1073.57
1081.32
1085.63
1086.52
1084
1078.23
1069.35
1057.58
1043.13
1026.27
1007.27
986.398
963.905
940.041
915.042
889.136
862.536
835.433
808.007
780.427
752.854
725.431
698.286
671.522
645.222
619.445
594.232
569.603
545.563
522.101
499.199
476.826
454.948
433.531
412.548
391.978
371.816
352.072
332.782
314.011
295.872
278.535
262.226
247.227
233.908
222.794
215.449
215.063
234.426
586.706
393.675
324.201
302.871
299.132
304.47
320.199
344.971
376.42
412.422
451.726
493.695
537.932
584.089
631.778
680.557
729.949
779.461
828.6
876.884
923.847
969.045
1012.06
1052.48
1089.95
1124.14
1154.73
1181.49
1204.2
1222.71
1236.9
1246.67
1251.97
1252.78
1249.09
1241.18
1229.25
1213.63
1194.62
1172.56
1147.84
1120.81
1091.83
1061.25
1029.39
996.55
963.021
929.062
894.916
860.797
826.904
793.419
760.498
728.278
696.869
666.353
636.789
608.213
580.637
554.054
528.439
503.753
479.945
456.954
434.719
413.18
392.281
371.974
352.228
333.035
314.416
296.431
279.19
262.878
247.749
234.166
222.636
214.179
211.864
228.981
586.129
391.049
318.429
302.058
301.058
311.847
334.819
367.115
405.955
449.414
496.554
546.883
599.982
655.372
712.495
770.737
829.469
888.068
945.93
1002.47
1057.14
1109.38
1158.69
1204.57
1246.56
1284.23
1317.18
1345.08
1367.65
1384.71
1396.11
1401.77
1401.61
1395.29
1382.89
1367.06
1346.3
1321.57
1293.23
1261.79
1227.75
1191.55
1153.64
1114.44
1074.32
1033.64
992.707
951.819
911.248
871.224
831.955
793.626
756.395
720.391
685.714
652.436
620.603
590.232
561.318
533.833
507.731
482.95
459.412
437.031
415.711
395.357
375.876
357.175
339.174
321.807
305.043
288.885
273.374
258.603
244.731
232.05
221.054
212.624
209.176
224.078
558.209
377.926
314.217
302.322
304.281
321.335
351.399
390.778
436.616
487.324
542.187
600.713
662.348
726.422
792.192
858.882
925.729
991.994
1056.96
1119.94
1180.26
1237.28
1290.37
1338.94
1382.43
1420.28
1451.91
1476.95
1495.21
1506.57
1511
1508.42
1499.9
1486.86
1462.98
1436.63
1405.21
1369.89
1331.23
1289.82
1246.27
1201.08
1154.73
1107.68
1060.32
1013.01
966.08
919.835
874.53
830.399
787.642
746.43
706.902
669.164
633.291
599.329
567.294
537.175
508.94
482.532
457.879
434.892
413.47
393.51
374.888
357.477
341.15
325.786
311.264
297.474
284.32
271.723
259.629
248.03
236.985
226.677
217.48
210.175
206.76
219.559
515.934
362.966
311.458
302.78
308.723
332.403
369.099
414.931
467.191
524.601
586.519
652.324
721.259
792.451
864.979
937.929
1010.42
1081.59
1150.64
1216.79
1279.3
1337.5
1390.74
1438.4
1479.61
1512.17
1536.4
1553.25
1563.28
1567.77
1562.48
1547.66
1526.23
1498.3
1465.18
1427.23
1385.21
1339.85
1291.85
1241.85
1190.45
1138.17
1085.49
1032.86
980.653
929.228
878.899
829.944
782.607
737.097
693.585
652.208
613.065
576.221
541.708
509.527
479.652
452.034
426.603
403.27
381.936
362.491
344.816
328.79
314.285
301.167
289.303
278.56
268.807
259.908
251.729
244.129
236.969
230.128
223.526
217.175
211.258
206.353
204.156
215.62
501.109
353.979
309.725
303.554
314.223
344.443
387.029
438.438
496.181
559.169
626.676
697.871
771.777
847.33
923.456
999.119
1073.33
1145.13
1213.64
1278
1337.41
1391.14
1438.48
1479.18
1511.99
1532.06
1546.88
1549.13
1545.29
1535.26
1517.6
1491.63
1458.8
1420.21
1376.79
1329.44
1278.99
1226.18
1171.71
1116.17
1060.12
1004.05
948.409
893.602
839.994
787.908
737.633
689.415
643.457
599.92
558.921
520.534
484.796
451.707
421.235
393.322
367.888
344.834
324.052
305.422
288.823
274.129
261.22
249.976
240.284
232.03
225.109
219.418
214.851
211.296
208.638
206.713
205.354
204.37
203.545
202.67
201.624
200.64
200.904
212.012
490.048
347.068
308.788
305.069
321.06
356.757
404.206
459.937
521.641
588.244
658.85
732.411
807.746
883.639
958.902
1032.4
1103.07
1169.9
1231.96
1288.36
1338.32
1380.96
1416.91
1441.84
1459.7
1468.44
1468.54
1459.49
1442.04
1416.86
1384.74
1346.6
1303.37
1255.94
1205.16
1151.82
1096.62
1040.2
983.145
925.998
869.252
813.362
758.74
705.759
654.746
605.984
559.706
516.088
475.254
437.274
402.173
369.932
340.497
313.785
289.687
268.077
248.82
231.772
216.79
203.736
192.477
182.893
174.874
168.327
163.171
159.341
156.794
155.474
155.329
156.334
158.457
161.668
165.881
170.927
176.532
182.297
187.727
192.442
196.713
208.551
480.017
341.17
308.562
307.181
328.416
368.479
419.307
477.445
540.701
607.931
678.05
749.82
821.933
893.087
962.019
1027.59
1088.75
1144.54
1194.09
1236.63
1271.61
1298.19
1317.4
1327.21
1327.97
1320.02
1303.89
1280.23
1249.82
1213.48
1172.08
1126.47
1077.44
1025.74
972.067
917.067
861.351
805.497
750.05
695.515
642.352
590.977
541.751
494.981
450.914
409.726
371.523
336.35
304.194
274.997
248.665
225.07
204.06
185.47
169.124
154.845
142.459
131.803
122.724
115.085
108.769
103.675
99.7255
96.8639
95.0591
94.2999
94.5872
95.974
98.5462
102.398
107.636
114.37
122.688
132.606
143.986
156.422
169.132
181.009
191.032
205.01
467.022
336.113
308.88
309.721
335.566
378.246
430.112
487.843
549.273
613.143
678.184
743.099
806.575
867.357
924.27
976.284
1022.5
1062.16
1094.64
1119.47
1136.38
1145.13
1145.59
1137.97
1122.79
1100.66
1072.29
1038.4
999.735
957.047
911.052
862.445
811.897
760.057
707.56
655.026
603.06
552.214
502.982
455.798
411.03
368.979
329.863
293.834
260.937
231.136
204.352
180.468
159.334
140.773
124.584
110.557
98.4779
88.1385
79.3417
71.9061
65.6685
60.4856
56.2345
52.8126
50.138
48.1487
46.8047
46.0833
46.0086
46.622
47.9927
50.2182
53.4384
57.8463
63.696
71.3038
81.0362
93.2652
108.26
125.974
145.693
165.701
183.273
200.904
454.398
332.019
309.415
312.083
340.884
383.513
433.237
486.733
541.95
597.572
652.352
705.087
754.637
799.963
840.155
874.455
902.271
923.164
936.911
943.243
942.143
933.914
919.073
898.158
871.738
840.406
804.767
765.443
723.097
678.399
632.022
584.641
536.936
489.58
443.214
398.442
355.718
315.415
277.847
243.258
211.801
183.53
158.4
136.323
116.973
100.155
85.7138
73.4493
63.128
54.5047
47.3416
41.4194
36.5431
32.544
29.2782
26.626
24.4884
22.7855
21.4536
20.4441
19.7188
19.2565
19.0367
19.1014
19.4642
20.1582
21.2486
22.8387
25.0825
28.2039
32.5222
38.485
46.701
57.9543
73.1502
93.0895
117.879
145.893
172.637
195.855
442.436
329.406
309.944
313.049
342.622
381.053
423.9
468.286
512.33
554.763
594.546
630.762
662.61
689.42
710.662
725.976
735.113
737.946
734.546
725.26
710.457
690.504
665.798
636.786
603.988
568.011
529.525
489.31
448.075
406.507
365.316
325.206
286.823
250.71
217.277
186.793
159.069
134.305
112.617
93.9529
78.125
64.8649
53.8685
44.8274
37.4407
31.5512
26.8991
23.2124
20.2728
17.9152
16.0163
14.4826
13.2425
12.2407
11.4343
10.79
10.2819
9.89017
9.59965
9.39966
9.2855
9.25145
9.31504
9.45623
9.67643
9.99616
10.4529
11.1076
12.0583
13.4621
15.5714
18.7905
23.76
31.4694
43.3692
61.362
87.3026
121.241
158.017
189.225
432.571
325.574
310.3
312.417
332.434
361.704
393.077
423.882
452.705
478.617
500.924
519.102
532.762
541.646
545.685
544.782
538.917
528.185
512.745
492.855
468.856
441.228
410.613
377.788
343.609
308.952
274.613
241.473
209.491
179.338
151.669
126.893
105.172
86.4724
70.6306
57.3942
46.5182
37.9493
31.2529
26.0013
21.8582
18.5717
15.9531
13.8593
12.1805
10.8296
9.74011
8.86089
8.1517
7.58038
7.12115
6.75348
6.46093
6.23051
6.052
5.91751
5.82077
5.75715
5.72384
5.71936
5.742
5.79502
5.87513
5.98053
6.11449
6.28271
6.49422
6.76476
7.12379
7.62822
8.38913
9.62292
11.747
15.5529
22.4918
35.0662
57.0667
92.2777
137.894
179.943
432.676
353.498
323.326
316.327
320.611
331.127
343.993
356.746
367.939
376.606
382.366
384.616
382.814
376.65
366.013
351.12
332.44
310.588
286.42
260.301
232.795
204.942
177.744
151.998
128.267
106.893
88.0349
71.7183
57.7813
46.5884
37.7712
30.839
25.3727
21.0481
17.6174
14.8902
12.7187
10.9833
9.59464
8.48383
7.59583
6.88636
6.31986
5.86787
5.50773
5.22144
4.99463
4.81591
4.67629
4.5687
4.48754
4.42838
4.38749
4.36219
4.35045
4.35061
4.36169
4.383
4.4139
4.45411
4.50353
4.56318
4.63142
4.70901
4.79771
4.9001
5.01956
5.1605
5.32924
5.53686
5.80728
6.19937
6.86012
8.15336
10.9659
17.3066
31.3951
60.9469
111.73
166.536
260.866
271.587
280.731
284.616
285.065
283.076
278.715
272.067
262.13
249.313
233.776
216.041
196.795
176.734
156.498
136.649
117.655
99.8768
83.6012
68.8874
56.2517
45.9225
37.6044
30.9241
25.5555
21.2365
17.7593
14.9586
12.7038
10.8837
9.41416
8.22917
7.27545
6.50938
5.89519
5.40372
5.01126
4.69874
4.45063
4.25445
4.10026
3.98012
3.88771
3.81797
3.76685
3.73098
3.70765
3.69486
3.69102
3.6948
3.70512
3.72104
3.74232
3.76829
3.79844
3.83237
3.8698
3.91059
3.95472
4.00214
4.05358
4.10825
4.16633
4.22835
4.29509
4.36765
4.44755
4.53683
4.63808
4.75422
4.88877
5.046
5.25069
5.56104
6.22718
8.12026
13.9453
30.8745
74.0091
147.268
27.6723
27.188
26.9131
26.6591
26.3486
25.9328
25.3796
24.6723
23.8111
22.807
21.6789
20.4515
19.1527
17.8119
16.4581
15.118
13.8154
12.5702
11.3981
10.3106
9.31416
8.41152
7.59622
6.86984
6.23283
5.68235
5.21285
4.8171
4.48702
4.21448
3.99161
3.81109
3.66637
3.55166
3.46197
3.39309
3.34152
3.30434
3.27897
3.26355
3.25653
3.25662
3.26273
3.27394
3.28945
3.30879
3.33173
3.35771
3.38626
3.41705
3.44979
3.48427
3.52036
3.55793
3.59692
3.63733
3.67915
3.72245
3.76729
3.81382
3.86213
3.91218
3.96416
4.01834
4.07508
4.13485
4.19826
4.26617
4.33978
4.4207
4.51074
4.61059
4.71658
4.83715
5.02544
5.24356
6.20337
10.734
27.1424
75.9744
17.1307
17.1499
16.8707
16.4042
15.8146
15.134
14.3847
13.5794
12.7316
11.8568
10.9716
10.0929
9.23685
8.41767
7.64725
6.93464
6.28591
5.70428
5.19048
4.74304
4.35887
4.03357
3.76234
3.54473
3.37375
3.24105
3.13923
3.06217
3.00502
2.96393
2.93587
2.91839
2.90956
2.90774
2.91172
2.92058
2.93359
2.95008
2.96995
2.99265
3.0177
3.04473
3.07343
3.10356
3.13494
3.1674
3.20083
3.23514
3.27026
3.30616
3.3428
3.38018
3.41831
3.4572
3.49687
3.53736
3.57872
3.62101
3.6643
3.70871
3.75425
3.80101
3.84915
3.89884
3.95029
4.00378
4.05961
4.11818
4.18
4.24581