/*--------------------------------*- C++ -*----------------------------------*\
| =========                 |                                                 |
| \\      /  F ield         | OpenFOAM: The Open Source CFD Toolbox           |
|  \\    /   O peration     | Version:  v2012                                 |
|   \\  /    A nd           | Website:  www.openfoam.com                      |
|    \\/     M anipulation  |                                                 |
\*---------------------------------------------------------------------------*/
FoamFile
{
    version     2.0;
    format      ascii;
    class       volScalarField;
    location    "2000";
    object      k;
}
// * * * * * * * * * * * * * * * * * * * * * * * * * * * * * * * * * * * * * //

dimensions      [0 2 -2 0 0 0 0];


internalField   nonuniform List<scalar> 
6502
(
0.0351144
0.0417146
0.064303
0.0764462
0.0807358
0.0807372
0.0764495
0.0643064
0.0417159
0.0351144
0.0187878
0.0170242
0.0373153
0.0564778
0.0665715
0.0665789
0.0564923
0.0373265
0.0170276
0.0187925
0.011041
0.00792593
0.0220363
0.0403142
0.0525231
0.0525384
0.0403393
0.0220518
0.00793075
0.0110517
0.00678493
0.00421117
0.0137909
0.0288704
0.0405241
0.0405466
0.0289041
0.0138096
0.0042171
0.0068014
0.00485595
0.0025579
0.00918202
0.0210303
0.0310393
0.0310678
0.0210704
0.00920302
0.00256487
0.00487847
0.00399379
0.0017551
0.00644515
0.0156271
0.0237963
0.0238294
0.0156724
0.00646827
0.00176332
0.0040245
0.00354282
0.00132113
0.0047114
0.0118194
0.0183235
0.0183601
0.011869
0.00473664
0.00133102
0.00358482
0.0032797
0.00106101
0.00354645
0.00906037
0.0141866
0.0142258
0.00911404
0.00357388
0.00107314
0.003337
0.00311572
0.000892905
0.00272723
0.00701588
0.0110389
0.0110809
0.00707345
0.00275705
0.000908097
0.0031935
0.00300453
0.000787491
0.00213657
0.00547622
0.00862915
0.00867397
0.00553808
0.0021693
0.000807194
0.00311013
0.00292053
0.000706857
0.00169499
0.00429982
0.00677195
0.00681984
0.00436676
0.0017312
0.000732199
0.00306489
0.00284989
0.000642434
0.00135633
0.00338989
0.0053306
0.00537993
0.00346479
0.00139724
0.000675669
0.00304861
0.00278306
0.000590137
0.00109256
0.00267948
0.00420526
0.00425513
0.0027609
0.00114107
0.000635207
0.00305658
0.00271267
0.000546551
0.0008851
0.00212118
0.00332235
0.00337296
0.00220866
0.000942372
0.00060771
0.00309047
0.00263266
0.000508793
0.000720754
0.00168039
0.00262688
0.00267874
0.00177419
0.000787922
0.000591845
0.00315703
0.00253754
0.000474469
0.000589702
0.00133115
0.00207729
0.0021309
0.00143198
0.000668596
0.000587878
0.00326941
0.00242215
0.000441567
0.000484448
0.00105371
0.00164185
0.0016976
0.00116247
0.000578004
0.000598201
0.00345363
0.00228217
0.000408433
0.000399187
0.000832881
0.00129622
0.0013542
0.000950502
0.000512031
0.000629076
0.00376381
0.00211497
0.000373817
0.000329395
0.000656856
0.00102153
0.00108159
0.000784331
0.00046823
0.000693663
0.00434766
0.00192091
0.000337012
0.000271561
0.000516454
0.000803187
0.0008649
0.000653852
0.000437164
0.000753055
0.00497615
0.00170426
0.000297904
0.000222781
0.000403891
0.000628552
0.00069109
0.000546595
0.000377069
0.00043215
0.000873839
0.00147587
0.000257646
0.000181542
0.000314484
0.000490021
0.000551997
0.000457751
0.00032378
0.000281493
0.000304144
0.00125073
0.000218142
0.000146664
0.000243847
0.000380767
0.000440457
0.000383286
0.000280906
0.00021361
0.000169829
0.00104114
0.000181272
0.00011736
0.000188334
0.000295095
0.000351007
0.000320508
0.000245582
0.000179587
0.000127491
0.000854229
0.000148296
9.30171e-05
0.000144915
0.000228222
0.000279343
0.000267425
0.000215218
0.000159193
0.000111203
0.000692279
0.00011972
7.30526e-05
0.000111095
0.000176181
0.000221966
0.000222384
0.000188224
0.000144156
0.000103261
0.000554625
9.55045e-05
5.68736e-05
8.48482e-05
0.00013576
0.000176058
0.000184213
0.000163826
0.000131121
9.7824e-05
0.000439236
7.53076e-05
4.38973e-05
6.45454e-05
0.000104401
0.000139343
0.000151944
0.000141657
0.000118785
9.27422e-05
0.00034357
5.86639e-05
3.35806e-05
4.88883e-05
8.00937e-05
0.000109999
0.00012476
0.000121682
0.000106787
8.72444e-05
0.000265077
4.50953e-05
2.54423e-05
3.68506e-05
6.12684e-05
8.65704e-05
0.000101954
0.000103765
9.51198e-05
8.11683e-05
0.000201379
3.41525e-05
1.90712e-05
2.76258e-05
4.67063e-05
6.78871e-05
8.28945e-05
8.78334e-05
8.39022e-05
7.45973e-05
0.0001503
2.54284e-05
1.41235e-05
2.05833e-05
3.54618e-05
5.30147e-05
6.70288e-05
7.37927e-05
7.32965e-05
6.77227e-05
0.000109901
1.85643e-05
1.03164e-05
1.52314e-05
2.68011e-05
4.12055e-05
5.38798e-05
6.15242e-05
6.3415e-05
6.07498e-05
7.84673e-05
1.32472e-05
7.4189e-06
1.11872e-05
2.01537e-05
3.18604e-05
4.30359e-05
5.08933e-05
5.43417e-05
5.38681e-05
5.44762e-05
9.2039e-06
5.24251e-06
8.15193e-06
1.50741e-05
2.44973e-05
3.41435e-05
4.17584e-05
4.61216e-05
4.7233e-05
3.65781e-05
6.19579e-06
3.63324e-06
5.89241e-06
1.12137e-05
1.87267e-05
2.68985e-05
3.39765e-05
3.87674e-05
4.09624e-05
2.358e-05
4.01497e-06
2.46509e-06
4.22602e-06
8.29814e-06
1.42321e-05
2.10386e-05
2.74076e-05
3.2267e-05
3.51387e-05
1.44392e-05
2.48192e-06
1.63511e-06
3.00971e-06
6.11136e-06
1.07555e-05
1.63374e-05
2.19164e-05
2.65898e-05
2.98149e-05
8.26103e-06
1.44424e-06
1.05991e-06
2.13162e-06
4.48298e-06
8.08617e-06
1.25985e-05
1.73734e-05
2.16918e-05
2.50199e-05
4.2992e-06
7.75721e-07
6.72768e-07
1.50473e-06
3.27899e-06
6.05189e-06
9.65167e-06
1.36555e-05
1.7519e-05
2.07637e-05
1.95121e-06
3.74175e-07
4.20987e-07
1.06176e-06
2.39439e-06
4.51261e-06
7.35018e-06
1.06466e-05
1.40098e-05
1.7041e-05
6.53627e-07
1.494e-07
2.62147e-07
7.5099e-07
1.74767e-06
3.35543e-06
5.56854e-06
8.23863e-06
1.10978e-05
1.38333e-05
1.13604e-07
4.82266e-08
1.67245e-07
5.34705e-07
1.27714e-06
2.49097e-06
4.20134e-06
6.3334e-06
8.71421e-06
1.11121e-05
3.18487e-08
2.53578e-08
1.17136e-07
3.88852e-07
9.41257e-07
1.85653e-06
3.17234e-06
4.85882e-06
6.81087e-06
8.86544e-06
1.8931e-07
4.35169e-08
9.35563e-08
2.90244e-07
7.00216e-07
1.38883e-06
2.39584e-06
3.7171e-06
5.29393e-06
7.01773e-06
4.54368e-07
8.00466e-08
8.38858e-08
2.2192e-07
5.25238e-07
1.04245e-06
1.80987e-06
2.83656e-06
4.09392e-06
5.514e-06
7.10061e-07
1.1878e-07
8.14418e-08
1.74201e-07
3.9777e-07
7.85957e-07
1.36927e-06
2.16221e-06
3.15436e-06
4.30627e-06
9.53452e-07
1.69031e-07
8.69727e-08
1.41914e-07
3.04981e-07
5.95962e-07
1.0386e-06
1.64828e-06
2.42465e-06
3.34706e-06
3.47294e-06
4.49203e-07
1.35367e-07
1.28712e-07
2.39179e-07
4.55179e-07
7.90142e-07
1.25713e-06
1.86042e-06
2.59095e-06
1.42819e-06
2.4664e-07
1.0197e-07
1.04942e-07
1.86851e-07
3.48453e-07
6.01636e-07
9.57872e-07
1.42336e-06
1.99575e-06
1.62004e-06
2.55941e-07
9.69783e-08
8.8593e-08
1.46275e-07
2.66141e-07
4.56248e-07
7.25819e-07
1.08125e-06
1.52371e-06
1.53505e-06
2.43581e-07
8.97864e-08
7.40687e-08
1.13324e-07
2.00765e-07
3.4134e-07
5.41932e-07
8.08248e-07
1.14305e-06
1.54746e-06
2.36902e-07
8.09546e-08
5.98343e-08
8.5323e-08
1.47227e-07
2.48234e-07
3.92819e-07
5.85676e-07
8.30015e-07
9.78506e-07
1.56197e-07
5.67484e-08
4.31994e-08
6.08522e-08
1.03249e-07
1.72227e-07
2.70899e-07
4.02775e-07
5.70807e-07
7.10435e-07
1.11019e-07
3.95771e-08
2.98578e-08
4.14174e-08
6.87788e-08
1.12256e-07
1.74006e-07
2.56549e-07
3.61908e-07
4.58117e-07
7.17317e-08
2.57592e-08
1.99077e-08
2.77192e-08
4.49274e-08
7.05844e-08
1.04619e-07
1.49935e-07
2.07568e-07
2.25415e-07
3.64941e-08
1.45788e-08
1.379e-08
2.14669e-08
3.54089e-08
5.33709e-08
6.78508e-08
8.96945e-08
1.15898e-07
7.057e-08
1.28717e-08
8.21404e-09
1.38104e-08
2.74238e-08
5.22108e-08
8.99134e-08
7.75354e-08
8.9547e-08
1.00879e-07
9.4454e-09
3.63148e-09
1.0295e-08
2.87403e-08
6.4118e-08
1.43526e-07
3.83713e-07
2.11418e-07
2.28679e-07
2.40104e-07
5.32053e-10
7.54969e-09
4.80949e-08
1.54387e-07
3.36918e-07
7.02242e-07
3.43119e-06
1.35779e-06
1.44134e-06
1.49949e-06
0.000681347
0.000160124
0.000162017
0.000149604
0.000119388
9.38246e-05
7.45924e-05
6.04874e-05
5.03667e-05
4.24859e-05
3.59816e-05
3.02829e-05
2.50631e-05
2.01765e-05
1.5619e-05
1.14805e-05
7.89131e-06
4.9733e-06
2.80064e-06
1.39626e-06
5.14375e-07
1.31182e-07
1.55426e-08
3.16149e-09
2.19956e-09
0.000161767
5.21901e-05
3.03781e-05
2.37391e-05
1.86879e-05
1.46679e-05
1.16527e-05
9.44122e-06
7.8291e-06
6.58198e-06
5.55782e-06
4.66686e-06
3.85743e-06
3.10608e-06
2.41046e-06
1.78195e-06
1.23795e-06
7.94839e-07
4.62332e-07
2.39549e-07
1.00309e-07
3.25828e-08
7.57627e-09
1.83452e-09
2.45784e-09
9.30429e-05
4.05053e-05
1.91915e-05
1.11376e-05
7.40469e-06
5.34684e-06
4.0569e-06
3.19457e-06
2.59111e-06
2.14223e-06
1.78617e-06
1.48621e-06
1.22161e-06
9.82293e-07
7.65264e-07
5.71894e-07
4.05536e-07
2.69534e-07
1.65625e-07
9.27155e-08
4.56593e-08
1.98358e-08
8.78236e-09
7.44957e-09
2.60784e-08
7.57012e-05
3.98032e-05
2.01686e-05
1.07998e-05
6.30496e-06
3.99025e-06
2.71699e-06
1.96709e-06
1.49394e-06
1.17441e-06
9.43206e-07
7.64384e-07
6.18045e-07
4.93526e-07
3.85612e-07
2.92242e-07
2.12991e-07
1.48028e-07
9.73957e-08
6.06139e-08
3.63536e-08
2.33378e-08
2.1469e-08
4.07878e-08
2.17602e-07
7.07648e-05
4.18879e-05
2.37277e-05
1.31974e-05
7.68198e-06
4.69577e-06
3.0188e-06
2.04059e-06
1.44921e-06
1.0741e-06
8.22486e-07
6.43496e-07
5.08662e-07
4.02e-07
3.14609e-07
2.41746e-07
1.81052e-07
1.31479e-07
9.26233e-08
6.43876e-08
4.69838e-08
4.19319e-08
5.66963e-08
1.36212e-07
7.8412e-07
6.97309e-05
4.48462e-05
2.77599e-05
1.67404e-05
1.00911e-05
6.28663e-06
4.05685e-06
2.71554e-06
1.88591e-06
1.36267e-06
1.01943e-06
7.82994e-07
6.11513e-07
4.80816e-07
3.76954e-07
2.9214e-07
2.22297e-07
1.65576e-07
1.21459e-07
9.03722e-08
7.409e-08
7.85055e-08
1.26898e-07
3.51333e-07
2.17724e-06
6.96968e-05
4.78201e-05
3.17597e-05
2.05874e-05
1.31336e-05
8.44469e-06
5.57763e-06
3.79138e-06
2.65483e-06
1.91475e-06
1.4272e-06
1.09238e-06
8.51378e-07
6.69348e-07
5.25846e-07
4.09298e-07
3.13644e-07
2.36233e-07
1.76518e-07
1.3549e-07
1.16404e-07
1.29317e-07
2.12668e-07
5.82162e-07
3.57489e-06
6.94322e-05
5.03015e-05
3.54037e-05
2.43609e-05
1.64905e-05
1.10594e-05
7.50296e-06
5.21001e-06
3.70735e-06
2.70334e-06
2.02076e-06
1.54955e-06
1.2096e-06
9.52706e-07
7.50197e-07
5.85701e-07
4.50678e-07
3.41566e-07
2.57945e-07
2.01774e-07
1.78685e-07
2.05749e-07
3.48432e-07
9.75601e-07
6.08003e-06
6.83925e-05
5.19776e-05
3.8454e-05
2.7844e-05
1.98328e-05
1.39752e-05
9.80529e-06
6.96096e-06
5.04236e-06
3.72733e-06
2.80762e-06
2.16105e-06
1.69177e-06
1.33597e-06
1.05488e-06
8.26072e-07
6.37857e-07
4.85643e-07
3.69458e-07
2.92965e-07
2.65617e-07
3.1516e-07
5.47039e-07
1.553e-06
9.72549e-06
6.63996e-05
5.26855e-05
4.07367e-05
3.08489e-05
2.29801e-05
1.6918e-05
1.23746e-05
9.04463e-06
6.67229e-06
5.00606e-06
3.81688e-06
2.95063e-06
2.31791e-06
1.83635e-06
1.45474e-06
1.143e-06
8.85489e-07
6.76476e-07
5.1695e-07
4.13322e-07
3.80631e-07
4.61215e-07
8.14057e-07
2.32952e-06
1.46237e-05
6.34793e-05
5.23829e-05
4.21442e-05
3.32221e-05
2.5762e-05
1.97297e-05
1.49884e-05
1.13486e-05
8.60454e-06
6.5547e-06
5.06294e-06
3.9509e-06
3.11676e-06
2.47912e-06
1.97168e-06
1.55498e-06
1.20853e-06
9.25371e-07
7.08227e-07
5.67775e-07
5.26988e-07
6.47462e-07
1.15719e-06
3.33169e-06
2.09528e-05
5.97718e-05
5.11224e-05
4.26393e-05
3.48557e-05
2.80304e-05
2.2253e-05
1.75046e-05
1.36967e-05
1.0701e-05
8.37297e-06
6.57166e-06
5.1911e-06
4.12043e-06
3.29426e-06
2.63247e-06
2.08514e-06
1.62598e-06
1.24674e-06
9.52979e-07
7.61737e-07
7.07172e-07
8.75876e-07
1.58232e-06
4.58347e-06
2.88781e-05
5.54677e-05
4.9025e-05
4.22529e-05
3.56981e-05
2.96745e-05
2.43466e-05
1.97777e-05
1.59595e-05
1.28337e-05
1.03115e-05
8.29206e-06
6.67656e-06
5.36467e-06
4.31294e-06
3.46597e-06
2.75956e-06
2.16019e-06
1.65807e-06
1.26295e-06
1.00098e-06
9.21904e-07
1.14425e-06
2.08754e-06
6.08892e-06
3.84444e-05
5.0769e-05
4.62531e-05
4.10734e-05
3.57568e-05
3.06322e-05
2.59004e-05
2.16739e-05
1.80003e-05
1.48766e-05
1.22635e-05
1.00987e-05
8.30931e-06
6.81871e-06
5.55477e-06
4.49738e-06
3.60414e-06
2.83557e-06
2.17962e-06
1.65233e-06
1.29206e-06
1.16968e-06
1.44389e-06
2.65777e-06
7.81968e-06
4.95159e-05
4.58663e-05
4.29821e-05
3.92292e-05
3.50927e-05
3.08956e-05
2.68489e-05
2.30882e-05
1.96936e-05
1.67004e-05
1.4108e-05
1.18889e-05
9.99764e-06
8.3791e-06
6.97307e-06
5.7253e-06
4.63942e-06
3.67637e-06
2.83382e-06
2.13899e-06
1.64349e-06
1.44697e-06
1.75702e-06
3.25545e-06
9.68249e-06
6.15674e-05
4.09253e-05
3.93827e-05
3.68678e-05
3.38076e-05
3.05081e-05
2.71776e-05
2.39575e-05
2.09422e-05
1.8189e-05
1.57235e-05
1.35454e-05
1.1634e-05
9.95287e-06
8.45265e-06
7.0782e-06
5.82116e-06
4.67677e-06
3.6404e-06
2.74512e-06
2.06753e-06
1.75075e-06
2.05717e-06
3.81356e-06
1.14833e-05
7.34194e-05
3.60813e-05
3.56091e-05
3.41372e-05
3.20259e-05
2.95538e-05
2.69212e-05
2.42677e-05
2.16907e-05
1.92564e-05
1.70056e-05
1.49563e-05
1.31073e-05
1.14387e-05
9.91351e-06
8.48462e-06
7.10447e-06
5.80127e-06
4.57581e-06
3.46978e-06
2.58097e-06
2.08467e-06
2.31577e-06
4.24108e-06
1.29241e-05
8.31471e-05
3.14388e-05
3.1792e-05
3.11747e-05
2.98759e-05
2.81401e-05
2.61537e-05
2.4052e-05
2.19312e-05
1.98592e-05
1.78833e-05
1.60325e-05
1.43179e-05
1.27326e-05
1.12509e-05
9.83261e-06
8.43118e-06
7.01121e-06
5.62197e-06
4.30783e-06
3.18163e-06
2.45275e-06
2.51553e-06
4.44211e-06
1.36686e-05
8.86563e-05
2.70752e-05
2.80368e-05
2.80994e-05
2.74788e-05
2.63798e-05
2.49708e-05
2.33799e-05
2.17008e-05
2.00013e-05
1.83306e-05
1.67221e-05
1.51941e-05
1.37487e-05
1.23696e-05
1.10227e-05
9.66082e-06
8.2343e-06
6.73747e-06
5.24491e-06
3.8751e-06
2.86132e-06
2.64099e-06
4.32943e-06
1.33033e-05
8.70777e-05
2.30451e-05
2.4426e-05
2.50098e-05
2.49408e-05
2.438e-05
2.34734e-05
2.23393e-05
2.10678e-05
1.97259e-05
1.83629e-05
1.70139e-05
1.5701e-05
1.44321e-05
1.31985e-05
1.19729e-05
1.071e-05
9.35427e-06
7.86035e-06
6.25289e-06
4.66711e-06
3.33777e-06
2.70746e-06
3.82038e-06
1.13552e-05
7.48995e-05
1.93845e-05
2.10221e-05
2.19845e-05
2.23504e-05
2.22347e-05
2.17566e-05
2.10211e-05
2.01135e-05
1.9099e-05
1.80268e-05
1.69328e-05
1.58413e-05
1.47641e-05
1.3699e-05
1.26258e-05
1.15042e-05
1.02762e-05
8.88088e-06
7.28872e-06
5.56692e-06
3.95166e-06
2.83748e-06
3.0196e-06
7.5785e-06
4.87962e-05
1.61139e-05
1.78719e-05
1.90861e-05
1.97796e-05
2.00224e-05
1.99035e-05
1.9511e-05
1.8921e-05
1.81973e-05
1.73883e-05
1.65307e-05
1.56503e-05
1.47622e-05
1.38694e-05
1.29593e-05
1.19997e-05
1.09371e-05
9.70381e-06
8.24615e-06
6.57885e-06
4.84905e-06
3.41071e-06
2.7866e-06
3.86701e-06
1.35229e-05
1.32409e-05
1.50092e-05
1.63643e-05
1.72873e-05
1.78075e-05
1.79822e-05
1.78797e-05
1.75652e-05
1.70964e-05
1.65206e-05
1.58748e-05
1.5186e-05
1.44723e-05
1.37414e-05
1.2988e-05
1.21901e-05
1.13052e-05
1.02728e-05
9.03636e-06
7.60117e-06
6.14971e-06
5.27031e-06
6.64077e-06
1.73617e-05
0.0001103
1.07889e-05
1.24852e-05
1.38877e-05
1.49501e-05
1.56694e-05
1.60738e-05
1.62093e-05
1.61276e-05
1.58784e-05
1.55061e-05
1.50444e-05
1.45236e-05
1.39632e-05
1.3375e-05
1.276e-05
1.21064e-05
1.13858e-05
1.05544e-05
9.57073e-06
8.4551e-06
7.44409e-06
7.40084e-06
1.12246e-05
3.07307e-05
0.000136815
8.70707e-06
1.02734e-05
1.16495e-05
1.27747e-05
1.36234e-05
1.41991e-05
1.45263e-05
1.46409e-05
1.45819e-05
1.43882e-05
1.40937e-05
1.37211e-05
1.32967e-05
1.28342e-05
1.23398e-05
1.18099e-05
1.12295e-05
1.05719e-05
9.81187e-06
8.96846e-06
8.22003e-06
8.17967e-06
1.06012e-05
2.04546e-05
5.26878e-05
6.96193e-06
8.36286e-06
9.65742e-06
1.07818e-05
1.16969e-05
1.23882e-05
1.28615e-05
1.31364e-05
1.32403e-05
1.32032e-05
1.30552e-05
1.28204e-05
1.25235e-05
1.21719e-05
1.17831e-05
1.13592e-05
1.08947e-05
1.03768e-05
9.79242e-06
9.15375e-06
8.56151e-06
8.3405e-06
9.29539e-06
1.31244e-05
2.26925e-05
5.52151e-06
6.74087e-06
7.91704e-06
8.99064e-06
9.9177e-06
1.06724e-05
1.12463e-05
1.16449e-05
1.18833e-05
1.19822e-05
1.19649e-05
1.18534e-05
1.16684e-05
1.14241e-05
1.11358e-05
1.08041e-05
1.04365e-05
1.00288e-05
9.57625e-06
9.08613e-06
8.60713e-06
8.28573e-06
8.44619e-06
9.63961e-06
1.24346e-05
4.34881e-06
5.3855e-06
6.42282e-06
7.41025e-06
8.30517e-06
9.07685e-06
9.70768e-06
1.01922e-05
1.05349e-05
1.07471e-05
1.08443e-05
1.08439e-05
1.0763e-05
1.06165e-05
1.04178e-05
1.01748e-05
9.89626e-06
9.57722e-06
9.22435e-06
8.84307e-06
8.4555e-06
8.1224e-06
7.96631e-06
8.1676e-06
8.86245e-06
3.40383e-06
4.26723e-06
5.15861e-06
6.03797e-06
6.86799e-06
7.6179e-06
8.26576e-06
8.79906e-06
9.21389e-06
9.51338e-06
9.7058e-06
9.80259e-06
9.81665e-06
9.76075e-06
9.64677e-06
9.48427e-06
9.28174e-06
9.04316e-06
8.77295e-06
8.4776e-06
8.16571e-06
7.86499e-06
7.62132e-06
7.49628e-06
7.53301e-06
2.6456e-06
3.35093e-06
4.09871e-06
4.85925e-06
5.6023e-06
6.30031e-06
6.93084e-06
7.47786e-06
7.93207e-06
8.29033e-06
8.5546e-06
8.73066e-06
8.82673e-06
8.85224e-06
8.81682e-06
8.72943e-06
8.59829e-06
8.43011e-06
8.22987e-06
8.00348e-06
7.75782e-06
7.50492e-06
7.26335e-06
7.05637e-06
6.90167e-06
2.03441e-06
2.59869e-06
3.21054e-06
3.84924e-06
4.4919e-06
5.11587e-06
5.70076e-06
6.23001e-06
6.69165e-06
7.07851e-06
7.38782e-06
7.62059e-06
7.78062e-06
7.8737e-06
7.90664e-06
7.88665e-06
7.82086e-06
7.7159e-06
7.5774e-06
7.41091e-06
7.22241e-06
7.01877e-06
6.80874e-06
6.60275e-06
6.41025e-06
1.53477e-06
1.97404e-06
2.45952e-06
2.97772e-06
3.51249e-06
4.04656e-06
4.56307e-06
5.04693e-06
5.48581e-06
5.87063e-06
6.19572e-06
6.4586e-06
6.65952e-06
6.8009e-06
6.88669e-06
6.92183e-06
6.91178e-06
6.8621e-06
6.77806e-06
6.66479e-06
6.52742e-06
6.37113e-06
6.20138e-06
6.02413e-06
5.84554e-06
1.11915e-06
1.44746e-06
1.81635e-06
2.21776e-06
2.64118e-06
3.07447e-06
3.50486e-06
3.91998e-06
4.30878e-06
4.66211e-06
4.97314e-06
5.23744e-06
5.45285e-06
5.61926e-06
5.73819e-06
5.81239e-06
5.84546e-06
5.84151e-06
5.80482e-06
5.73975e-06
5.65062e-06
5.5417e-06
5.4172e-06
5.28143e-06
5.13896e-06
7.71555e-07
1.00198e-06
1.2647e-06
1.55558e-06
1.86853e-06
2.19584e-06
2.52878e-06
2.85828e-06
3.17563e-06
3.47302e-06
3.74398e-06
3.98366e-06
4.18888e-06
4.35811e-06
4.49125e-06
4.58936e-06
4.65441e-06
4.68901e-06
4.6962e-06
4.67926e-06
4.64155e-06
4.58645e-06
4.51723e-06
4.43713e-06
4.34945e-06
4.88668e-07
6.35459e-07
8.05006e-07
9.95984e-07
1.20575e-06
1.43023e-06
1.66437e-06
1.90253e-06
2.13892e-06
2.36808e-06
2.58514e-06
2.78616e-06
2.96826e-06
3.12969e-06
3.2697e-06
3.38826e-06
3.48603e-06
3.56422e-06
3.62447e-06
3.66867e-06
3.69882e-06
3.71695e-06
3.72501e-06
3.72476e-06
3.71765e-06
2.76931e-07
3.57345e-07
4.50601e-07
5.57929e-07
6.79973e-07
8.15681e-07
9.63316e-07
1.12067e-06
1.2855e-06
1.45556e-06
1.62864e-06
1.80278e-06
1.97643e-06
2.14854e-06
2.31846e-06
2.48521e-06
2.64798e-06
2.80621e-06
2.95953e-06
3.10762e-06
3.25009e-06
3.38647e-06
3.51628e-06
3.63858e-06
3.75159e-06
1.4678e-07
1.81457e-07
2.17104e-07
2.60166e-07
3.1691e-07
3.88843e-07
4.7777e-07
5.85432e-07
7.14884e-07
8.68962e-07
1.04963e-06
1.25794e-06
1.49432e-06
1.75873e-06
2.05065e-06
2.36658e-06
2.70252e-06
3.0542e-06
3.41681e-06
3.785e-06
4.15297e-06
4.5147e-06
4.86402e-06
5.19469e-06
5.50005e-06
1.13961e-07
1.28599e-07
1.14777e-07
1.04238e-07
1.17742e-07
1.58715e-07
2.35512e-07
3.555e-07
5.34981e-07
7.88832e-07
1.12736e-06
1.55705e-06
2.08098e-06
2.69858e-06
3.40533e-06
4.19203e-06
5.04562e-06
5.94996e-06
6.88655e-06
7.83532e-06
8.77547e-06
9.68631e-06
1.05481e-05
1.13427e-05
1.20535e-05
2.55605e-07
3.14847e-07
1.75345e-07
7.4818e-08
4.68461e-08
1.00392e-07
2.74341e-07
5.81723e-07
1.0975e-06
1.88246e-06
2.97652e-06
4.40376e-06
6.17557e-06
8.28697e-06
1.07165e-05
1.34255e-05
1.63605e-05
1.94553e-05
2.26354e-05
2.58221e-05
2.89363e-05
3.19022e-05
3.46509e-05
3.71228e-05
3.92702e-05
1.51789e-06
2.16267e-06
7.96504e-07
2.86992e-07
6.31198e-08
3.07927e-07
1.38014e-06
3.24427e-06
6.54915e-06
1.16591e-05
1.88495e-05
2.82837e-05
4.00442e-05
5.4091e-05
7.02687e-05
8.83022e-05
0.000107809
0.000128324
0.000149327
0.000170273
0.000190626
0.000209876
0.000227569
0.000243322
0.000256848
0.00102607
0.000803448
0.000573489
0.00014059
0.000130725
9.85066e-05
3.79057e-05
4.07376e-05
3.59306e-05
1.60736e-05
1.78833e-05
1.76178e-05
9.80107e-06
1.04856e-05
1.06714e-05
7.67908e-06
7.81711e-06
7.85466e-06
6.80239e-06
6.72132e-06
6.62722e-06
6.24711e-06
6.09577e-06
5.94465e-06
5.68254e-06
5.52392e-06
5.36474e-06
5.00411e-06
4.86985e-06
4.73283e-06
4.26367e-06
4.17642e-06
4.08586e-06
3.70571e-06
3.68972e-06
3.66941e-06
3.84643e-06
3.92943e-06
4.00236e-06
5.75543e-06
5.9761e-06
6.16751e-06
1.26264e-05
1.30955e-05
1.34772e-05
4.09445e-05
4.22367e-05
4.32183e-05
0.000267287
0.000275096
0.000280867
1.27805e-10
2.26234e-10
1.4352e-10
6.53646e-10
4.53123e-09
1.54318e-08
3.70824e-08
7.23663e-08
1.22684e-07
1.87362e-07
2.63337e-07
3.43755e-07
4.22432e-07
5.90101e-07
1.93494e-06
2.17131e-06
1.59939e-06
1.62908e-06
1.47802e-06
1.67601e-06
1.94999e-06
2.22071e-06
2.4797e-06
2.72736e-06
2.96558e-06
3.19533e-06
3.41676e-06
3.62954e-06
3.83314e-06
4.02688e-06
4.20992e-06
4.38118e-06
4.53937e-06
4.68305e-06
4.81051e-06
4.91979e-06
5.00882e-06
5.07598e-06
5.12048e-06
5.14226e-06
5.14434e-06
5.12839e-06
5.09503e-06
5.04638e-06
4.98346e-06
4.90704e-06
4.81763e-06
4.71582e-06
4.60209e-06
4.47654e-06
4.3389e-06
4.18911e-06
4.0282e-06
3.85837e-06
3.68187e-06
3.49998e-06
3.31302e-06
3.12087e-06
2.92311e-06
2.71909e-06
2.50775e-06
2.28753e-06
2.05603e-06
1.81172e-06
1.56323e-06
1.38277e-06
1.59101e-06
1.90148e-06
1.20174e-06
6.49542e-07
4.38742e-07
3.17663e-07
2.15271e-07
1.30956e-07
6.88662e-08
2.92991e-08
8.88774e-09
1.41251e-09
1.23271e-10
8.12075e-11
2.67523e-10
5.95957e-11
7.3776e-11
2.69136e-10
1.03055e-09
2.89148e-09
6.39501e-09
1.19645e-08
1.98068e-08
2.9849e-08
4.1788e-08
5.55479e-08
7.45377e-08
1.21967e-07
2.90897e-07
3.61329e-07
2.86207e-07
2.60823e-07
2.41901e-07
2.65281e-07
3.043e-07
3.45514e-07
3.85619e-07
4.24117e-07
4.6114e-07
4.96813e-07
5.31166e-07
5.64155e-07
5.95701e-07
6.25698e-07
6.5401e-07
6.8047e-07
7.04878e-07
7.27006e-07
7.4659e-07
7.63332e-07
7.76938e-07
7.87175e-07
7.93939e-07
7.97276e-07
7.97544e-07
7.95016e-07
7.89828e-07
7.82248e-07
7.72445e-07
7.60541e-07
7.46625e-07
7.30783e-07
7.13081e-07
6.93536e-07
6.72129e-07
6.48884e-07
6.23964e-07
5.97672e-07
5.70318e-07
5.42094e-07
5.13063e-07
4.83214e-07
4.52487e-07
4.20783e-07
3.87949e-07
3.5378e-07
3.18111e-07
2.81426e-07
2.47202e-07
2.29156e-07
2.61857e-07
2.96274e-07
2.03462e-07
1.16379e-07
7.40153e-08
5.10762e-08
3.4377e-08
2.12687e-08
1.16243e-08
5.34628e-09
1.92513e-09
4.93511e-10
1.19882e-10
1.02952e-10
1.00855e-10
7.06285e-11
1.08643e-10
2.42979e-10
5.89993e-10
1.30688e-09
2.5463e-09
4.43653e-09
7.06331e-09
1.04956e-08
1.49247e-08
2.11273e-08
3.18023e-08
5.42034e-08
9.88588e-08
1.19302e-07
1.04274e-07
9.12692e-08
8.5102e-08
8.95696e-08
9.98452e-08
1.1206e-07
1.24546e-07
1.36759e-07
1.48566e-07
1.59947e-07
1.70895e-07
1.81392e-07
1.91413e-07
2.0092e-07
2.09871e-07
2.18209e-07
2.25871e-07
2.32783e-07
2.38864e-07
2.44026e-07
2.4819e-07
2.51297e-07
2.53326e-07
2.54305e-07
2.54334e-07
2.53476e-07
2.51785e-07
2.49329e-07
2.46161e-07
2.42322e-07
2.37842e-07
2.32747e-07
2.27056e-07
2.20778e-07
2.13919e-07
2.06499e-07
1.98571e-07
1.90215e-07
1.81511e-07
1.72512e-07
1.63242e-07
1.53704e-07
1.43888e-07
1.33774e-07
1.23351e-07
1.12653e-07
1.01885e-07
9.17786e-08
8.43354e-08
8.36506e-08
9.36443e-08
9.61179e-08
7.24384e-08
4.60733e-08
2.89957e-08
1.88942e-08
1.23404e-08
7.71521e-09
4.44712e-09
2.2988e-09
1.07407e-09
5.66854e-10
6.66353e-10
2.80317e-09
2.59673e-09
5.63124e-10
3.32099e-10
3.6146e-10
5.58303e-10
9.61778e-10
1.6305e-09
2.62377e-09
4.00011e-09
5.85443e-09
8.41044e-09
1.22335e-08
1.85853e-08
2.9428e-08
4.45806e-08
5.21638e-08
4.95474e-08
4.52341e-08
4.31903e-08
4.4632e-08
4.85155e-08
5.35799e-08
5.90482e-08
6.45519e-08
6.99417e-08
7.51604e-08
8.01834e-08
8.49941e-08
8.95765e-08
9.39118e-08
9.79779e-08
1.01749e-07
1.05196e-07
1.08286e-07
1.10984e-07
1.13258e-07
1.15077e-07
1.16425e-07
1.173e-07
1.17718e-07
1.17719e-07
1.17321e-07
1.16549e-07
1.15426e-07
1.13976e-07
1.12217e-07
1.10163e-07
1.07826e-07
1.05214e-07
1.02334e-07
9.91937e-08
9.58056e-08
9.21933e-08
8.83858e-08
8.44106e-08
8.02882e-08
7.60311e-08
7.16448e-08
6.71322e-08
6.25013e-08
5.77809e-08
5.30592e-08
4.85675e-08
4.4826e-08
4.27677e-08
4.33657e-08
4.58557e-08
4.4273e-08
3.5487e-08
2.48794e-08
1.65079e-08
1.08293e-08
7.0616e-09
4.51228e-09
2.79686e-09
1.73423e-09
1.24715e-09
1.42185e-09
3.20828e-09
1.81178e-08
1.45332e-08
2.55317e-09
1.06112e-09
7.41949e-10
7.64744e-10
1.00563e-09
1.45699e-09
2.13945e-09
3.08833e-09
4.36786e-09
6.10697e-09
8.5599e-09
1.21599e-08
1.73303e-08
2.33456e-08
2.70362e-08
2.75798e-08
2.70315e-08
2.70141e-08
2.8157e-08
3.03028e-08
3.30587e-08
3.60985e-08
3.92219e-08
4.2323e-08
4.53493e-08
4.82734e-08
5.10785e-08
5.37514e-08
5.62792e-08
5.86478e-08
6.0842e-08
6.28453e-08
6.46408e-08
6.62113e-08
6.75408e-08
6.86175e-08
6.94354e-08
6.99958e-08
7.03163e-08
7.04033e-08
7.02655e-08
6.99135e-08
6.9359e-08
6.86131e-08
6.76853e-08
6.65831e-08
6.53125e-08
6.38784e-08
6.2285e-08
6.05377e-08
5.86443e-08
5.66156e-08
5.44641e-08
5.22011e-08
4.98363e-08
4.73765e-08
4.48266e-08
4.21922e-08
3.94847e-08
3.67318e-08
3.39993e-08
3.14279e-08
2.92755e-08
2.78895e-08
2.74047e-08
2.7104e-08
2.5174e-08
2.09682e-08
1.59055e-08
1.13953e-08
7.92931e-09
5.43737e-09
3.71124e-09
2.59894e-09
2.0476e-09
2.15086e-09
3.47093e-09
9.38433e-09
5.69998e-08
4.45683e-08
7.36111e-09
2.69692e-09
1.55532e-09
1.25521e-09
1.32478e-09
1.64973e-09
2.20313e-09
2.98861e-09
4.03059e-09
5.37845e-09
7.11431e-09
9.34736e-09
1.21255e-08
1.50941e-08
1.7372e-08
1.86657e-08
1.94776e-08
2.03748e-08
2.16539e-08
2.33368e-08
2.53132e-08
2.74559e-08
2.96672e-08
3.18837e-08
3.40673e-08
3.61948e-08
3.82509e-08
4.02238e-08
4.2103e-08
4.38779e-08
4.55376e-08
4.70714e-08
4.84685e-08
4.97186e-08
5.08128e-08
5.17446e-08
5.25113e-08
5.31149e-08
5.35584e-08
5.38411e-08
5.3966e-08
5.3938e-08
5.37629e-08
5.34462e-08
5.29926e-08
5.24061e-08
5.16896e-08
5.08454e-08
4.98753e-08
4.8782e-08
4.75689e-08
4.62407e-08
4.48029e-08
4.32604e-08
4.16175e-08
3.98772e-08
3.8042e-08
3.61147e-08
3.41014e-08
3.20166e-08
2.98923e-08
2.77917e-08
2.5819e-08
2.40914e-08
2.26095e-08
2.1073e-08
1.89543e-08
1.60981e-08
1.29162e-08
9.91466e-09
7.38277e-09
5.40904e-09
3.99659e-09
3.15662e-09
2.98261e-09
3.82318e-09
7.0581e-09
2.04409e-08
1.27766e-07
1.01971e-07
1.63993e-08
5.66916e-09
2.97975e-09
2.11166e-09
1.93142e-09
2.13889e-09
2.63329e-09
3.37679e-09
4.3569e-09
5.57423e-09
7.03573e-09
8.74479e-09
1.06722e-08
1.26711e-08
1.44824e-08
1.60002e-08
1.73477e-08
1.87123e-08
2.0218e-08
2.18976e-08
2.3724e-08
2.56486e-08
2.76255e-08
2.96187e-08
3.16027e-08
3.35593e-08
3.5475e-08
3.73388e-08
3.91411e-08
4.08726e-08
4.25243e-08
4.40872e-08
4.55526e-08
4.69121e-08
4.81588e-08
4.92868e-08
5.02926e-08
5.11685e-08
5.19084e-08
5.25091e-08
5.297e-08
5.32923e-08
5.34774e-08
5.35271e-08
5.34427e-08
5.32253e-08
5.28757e-08
5.23943e-08
5.17807e-08
5.1035e-08
5.01578e-08
4.91502e-08
4.80135e-08
4.67487e-08
4.53562e-08
4.38357e-08
4.21856e-08
4.04043e-08
3.84912e-08
3.64486e-08
3.42861e-08
3.20255e-08
2.9704e-08
2.73633e-08
2.50069e-08
2.25517e-08
1.98713e-08
1.69553e-08
1.39643e-08
1.11213e-08
8.61275e-09
6.56847e-09
5.09133e-09
4.30781e-09
4.46777e-09
6.26485e-09
1.22886e-08
3.68045e-08
2.33326e-07
1.95074e-07
3.09308e-08
1.03635e-08
5.18364e-09
3.42273e-09
2.87326e-09
2.93969e-09
3.4102e-09
4.19231e-09
5.23671e-09
6.511e-09
7.98804e-09
9.63848e-09
1.14225e-08
1.32721e-08
1.51011e-08
1.68695e-08
1.86072e-08
2.03752e-08
2.2222e-08
2.41666e-08
2.62023e-08
2.83098e-08
3.04659e-08
3.26498e-08
3.48437e-08
3.70329e-08
3.92049e-08
4.13486e-08
4.34542e-08
4.55124e-08
4.75144e-08
4.94507e-08
5.13116e-08
5.30876e-08
5.47706e-08
5.63529e-08
5.78156e-08
5.91456e-08
6.03345e-08
6.13761e-08
6.22663e-08
6.30025e-08
6.35829e-08
6.40059e-08
6.42701e-08
6.4374e-08
6.43166e-08
6.40962e-08
6.3711e-08
6.3159e-08
6.24384e-08
6.15476e-08
6.04846e-08
5.92471e-08
5.7832e-08
5.62345e-08
5.44489e-08
5.24678e-08
5.02835e-08
4.78891e-08
4.52804e-08
4.24596e-08
3.94377e-08
3.62339e-08
3.28654e-08
2.93375e-08
2.56602e-08
2.18914e-08
1.81554e-08
1.46173e-08
1.14518e-08
8.83036e-09
6.93169e-09
5.98715e-09
6.42222e-09
9.35978e-09
1.8948e-08
5.78724e-08
3.69958e-07
3.29238e-07
5.17608e-08
1.70431e-08
8.30441e-09
5.27868e-09
4.21837e-09
4.10687e-09
4.57939e-09
5.47283e-09
6.69633e-09
8.18795e-09
9.89829e-09
1.17834e-08
1.38016e-08
1.59105e-08
1.80712e-08
2.02642e-08
2.24947e-08
2.4782e-08
2.71439e-08
2.95888e-08
3.2114e-08
3.471e-08
3.73635e-08
4.00604e-08
4.27872e-08
4.55306e-08
4.82783e-08
5.10176e-08
5.37374e-08
5.64274e-08
5.90768e-08
6.16739e-08
6.42061e-08
6.66608e-08
6.90262e-08
7.12719e-08
7.33739e-08
7.53198e-08
7.70981e-08
7.86991e-08
8.01148e-08
8.13392e-08
8.23669e-08
8.31937e-08
8.38155e-08
8.42289e-08
8.44307e-08
8.44178e-08
8.41869e-08
8.37346e-08
8.30571e-08
8.21506e-08
8.10104e-08
7.96308e-08
7.80046e-08
7.61227e-08
7.39733e-08
7.15429e-08
6.88161e-08
6.57767e-08
6.24099e-08
5.87058e-08
5.46632e-08
5.02934e-08
4.56222e-08
4.06917e-08
3.55695e-08
3.03619e-08
2.52215e-08
2.03399e-08
1.59353e-08
1.22448e-08
9.53365e-09
8.14832e-09
8.7119e-09
1.2838e-08
2.64492e-08
8.18645e-08
5.2637e-07
5.04278e-07
7.88895e-08
2.5846e-08
1.24928e-08
7.80461e-09
6.06952e-09
5.73171e-09
6.23115e-09
7.31392e-09
8.8374e-09
1.07056e-08
1.2846e-08
1.52002e-08
1.77208e-08
2.037e-08
2.31194e-08
2.59536e-08
2.88693e-08
3.18707e-08
3.49634e-08
3.81497e-08
4.14271e-08
4.47889e-08
4.82257e-08
5.1726e-08
5.52773e-08
5.88664e-08
6.24795e-08
6.61024e-08
6.97211e-08
7.33219e-08
7.68903e-08
8.04106e-08
8.3866e-08
8.72393e-08
9.04843e-08
9.35649e-08
9.64643e-08
9.91663e-08
1.01656e-07
1.03919e-07
1.05944e-07
1.07722e-07
1.09243e-07
1.10502e-07
1.11493e-07
1.12209e-07
1.12646e-07
1.128e-07
1.12667e-07
1.12242e-07
1.11521e-07
1.10498e-07
1.09166e-07
1.07516e-07
1.05537e-07
1.03214e-07
1.00529e-07
9.74609e-08
9.39857e-08
9.00762e-08
8.57058e-08
8.08521e-08
7.55029e-08
6.96621e-08
6.33576e-08
5.66491e-08
4.96365e-08
4.24686e-08
3.5348e-08
2.85276e-08
2.23026e-08
1.70028e-08
1.30004e-08
1.07752e-08
1.11616e-08
1.62743e-08
3.38023e-08
1.05698e-07
6.82891e-07
7.04314e-07
1.11455e-07
3.73194e-08
1.82147e-08
1.12849e-08
8.60871e-09
7.95816e-09
8.50687e-09
9.87119e-09
1.18353e-08
1.4257e-08
1.70333e-08
2.0086e-08
2.33562e-08
2.68006e-08
3.03899e-08
3.41063e-08