/*--------------------------------*- C++ -*----------------------------------*\
| =========                 |                                                 |
| \\      /  F ield         | OpenFOAM: The Open Source CFD Toolbox           |
|  \\    /   O peration     | Version:  v2012                                 |
|   \\  /    A nd           | Website:  www.openfoam.com                      |
|    \\/     M anipulation  |                                                 |
\*---------------------------------------------------------------------------*/
FoamFile
{
    version     2.0;
    format      ascii;
    class       volScalarField;
    location    "2000";
    object      nut;
}
// * * * * * * * * * * * * * * * * * * * * * * * * * * * * * * * * * * * * * //

dimensions      [0 2 -1 0 0 0 0];


internalField   nonuniform List<scalar> 
6502
(
6.53927e-06
4.99087e-05
0.000323223
0.00103659
0.00168558
0.00168583
0.0010369
0.000323293
4.99123e-05
6.53927e-06
3.499e-06
1.6209e-05
0.00011335
0.000447174
0.00097741
0.000977951
0.00044758
0.000113429
1.62145e-05
3.49988e-06
2.0563e-06
7.54174e-06
5.91731e-05
0.000252277
0.000600199
0.000600809
0.000252673
5.92474e-05
7.5478e-06
2.05831e-06
1.26366e-06
4.14987e-06
3.67035e-05
0.000164809
0.000399457
0.000400079
0.000165214
3.67817e-05
4.15687e-06
1.26673e-06
9.04406e-07
2.6035e-06
2.50834e-05
0.000116984
0.000282536
0.000283164
0.000117409
2.5168e-05
2.61163e-06
9.086e-07
7.43832e-07
1.8268e-06
1.8196e-05
8.73338e-05
0.000208484
0.000209125
8.77903e-05
1.82889e-05
1.83638e-06
7.49553e-07
6.59843e-07
1.3941e-06
1.36926e-05
6.71314e-05
0.000158243
0.000158901
6.76251e-05
1.37952e-05
1.40564e-06
6.67665e-07
6.10838e-07
1.12857e-06
1.05363e-05
5.24353e-05
0.000122379
0.000123057
5.29684e-05
1.06491e-05
1.1427e-06
6.2151e-07
5.80296e-07
9.55295e-07
8.23736e-06
4.133e-05
9.57862e-05
9.64941e-05
4.19081e-05
8.36173e-06
9.73051e-07
5.94782e-07
5.59588e-07
8.69189e-07
6.58857e-06
3.28309e-05
7.55948e-05
7.63479e-05
3.34636e-05
6.72869e-06
8.93336e-07
5.79255e-07
5.43943e-07
7.87833e-07
5.29941e-06
2.6161e-05
5.99619e-05
6.07712e-05
2.68582e-05
5.45598e-06
8.18538e-07
5.7083e-07
5.30786e-07
7.17896e-07
4.27245e-06
2.08481e-05
4.76722e-05
4.85095e-05
2.16366e-05
4.44982e-06
7.57993e-07
5.67797e-07
5.18341e-07
6.59812e-07
3.45308e-06
1.6591e-05
3.7914e-05
3.87593e-05
1.74354e-05
3.6573e-06
7.13471e-07
5.69283e-07
5.0523e-07
6.10911e-07
2.79909e-06
1.31757e-05
3.01243e-05
3.09797e-05
1.40667e-05
3.03339e-06
6.8315e-07
5.75594e-07
4.90329e-07
5.68263e-07
2.27613e-06
1.04365e-05
2.38892e-05
2.4764e-05
1.13789e-05
2.54546e-06
6.65878e-07
5.87991e-07
4.72613e-07
5.29281e-07
1.85642e-06
8.24112e-06
1.88921e-05
1.97962e-05
9.24394e-06
2.16832e-06
6.62128e-07
6.08921e-07
4.51122e-07
4.91769e-07
1.51782e-06
6.48295e-06
1.48864e-05
1.58259e-05
7.55583e-06
1.88363e-06
6.748e-07
6.43231e-07
4.2505e-07
4.53941e-07
1.24282e-06
5.07703e-06
1.16781e-05
1.26538e-05
6.22861e-06
1.68e-06
7.11367e-07
7.01001e-07
3.9391e-07
4.14491e-07
1.01768e-06
3.95557e-06
9.11403e-06
1.01228e-05
5.19747e-06
1.55373e-06
7.88242e-07
8.09739e-07
3.57767e-07
3.72751e-07
8.31809e-07
3.06517e-06
7.07549e-06
8.11726e-06
4.42728e-06
1.49785e-06
8.77956e-07
9.26791e-07
3.17417e-07
3.28741e-07
6.76514e-07
2.35996e-06
5.4617e-06
6.55315e-06
3.94581e-06
1.55586e-06
8.48838e-07
6.78462e-07
2.74879e-07
2.83836e-07
5.47201e-07
1.81092e-06
4.20573e-06
5.32799e-06
3.61307e-06
1.66648e-06
8.77363e-07
6.01116e-07
2.32947e-07
2.40119e-07
4.39776e-07
1.38775e-06
3.23739e-06
4.34759e-06
3.33295e-06
1.79004e-06
9.72527e-07
6.11778e-07
1.93911e-07
1.99529e-07
3.50957e-07
1.06329e-06
2.49448e-06
3.54913e-06
3.05924e-06
1.8939e-06
1.10768e-06
6.97775e-07
1.591e-07
1.63324e-07
2.7803e-07
8.14743e-07
1.92492e-06
2.89237e-06
2.77562e-06
1.95546e-06
1.25183e-06
8.25494e-07
1.28937e-07
1.31976e-07
2.18628e-07
6.24085e-07
1.48749e-06
2.35029e-06
2.48163e-06
1.96273e-06
1.3781e-06
9.65949e-07
1.03299e-07
1.05397e-07
1.70625e-07
4.7755e-07
1.15051e-06
1.90312e-06
2.18522e-06
1.91447e-06
1.46819e-06
1.09691e-06
8.18077e-08
8.32047e-08
1.3212e-07
3.6473e-07
8.90033e-07
1.53515e-06
1.89638e-06
1.81754e-06
1.5126e-06
1.20293e-06
6.39897e-08
6.48929e-08
1.01445e-07
2.77782e-07
6.88066e-07
1.23338e-06
1.62394e-06
1.68421e-06
1.51009e-06
1.27407e-06
4.93705e-08
4.99425e-08
7.71675e-08
2.1077e-07
5.31112e-07
9.86842e-07
1.37416e-06
1.52723e-06
1.4652e-06
1.30678e-06
3.75069e-08
3.78672e-08
5.80841e-08
1.59178e-07
4.08991e-07
7.86189e-07
1.15047e-06
1.35878e-06
1.38573e-06
1.30173e-06
2.79934e-08
2.82259e-08
4.31975e-08
1.19548e-07
3.13974e-07
6.23537e-07
9.54001e-07
1.18891e-06
1.28122e-06
1.26322e-06
2.04691e-08
2.06293e-08
3.16886e-08
8.92127e-08
2.40137e-07
4.92256e-07
7.84248e-07
1.02518e-06
1.16106e-06
1.1975e-06
1.46145e-08
1.47365e-08
2.28868e-08
6.61055e-08
1.82897e-07
3.86786e-07
6.3962e-07
8.72731e-07
1.03372e-06
1.11166e-06
1.01462e-08
1.02494e-08
1.62429e-08
4.86136e-08
1.38678e-07
3.02478e-07
5.17895e-07
7.34608e-07
9.06127e-07
1.01281e-06
6.81266e-09
6.9067e-09
1.13057e-08
3.54729e-08
1.0467e-07
2.35444e-07
4.16557e-07
6.12219e-07
7.83507e-07
9.0747e-07
4.39178e-09
4.4801e-09
7.7037e-09
2.56883e-08
7.86514e-08
1.82445e-07
3.33016e-07
5.05759e-07
6.6943e-07
8.01169e-07
2.6893e-09
2.7721e-09
5.13154e-09
1.84748e-08
5.88604e-08
1.40784e-07
2.64761e-07
4.14588e-07
5.66029e-07
6.98197e-07
1.53862e-09
1.61456e-09
3.33999e-09
1.32132e-08
4.38975e-08
1.08222e-07
2.09446e-07
3.3754e-07
4.74274e-07
6.016e-07
8.00725e-10
8.67937e-10
2.12828e-09
9.41676e-09
3.26505e-08
8.29086e-08
1.6494e-07
2.73155e-07
3.94263e-07
5.13284e-07
3.63412e-10
4.18941e-10
1.3362e-09
6.70315e-09
2.42355e-08
6.3318e-08
1.29351e-07
2.19858e-07
3.2549e-07
4.34205e-07
1.21738e-10
1.67044e-10
8.32356e-10
4.77045e-09
1.79514e-08
4.82062e-08
1.01042e-07
1.76093e-07
2.6708e-07
3.64597e-07
2.11588e-11
5.20372e-11
5.23094e-10
3.39441e-09
1.32721e-08
3.66063e-08
7.8661e-08
1.40439e-07
2.18004e-07
3.04216e-07
5.93183e-12
2.7375e-11
3.67278e-10
2.48595e-09
9.92419e-09
2.79341e-08
6.13442e-08
1.11987e-07
1.77666e-07
2.53118e-07
3.52589e-11
4.87348e-11
2.9952e-10
1.88544e-09
7.52026e-09
2.14322e-08
4.79078e-08
8.92188e-08
1.44441e-07
2.09851e-07
8.46261e-11
8.99094e-11
2.70249e-10
1.45668e-09
5.73484e-09
1.64886e-08
3.7432e-08
7.09947e-08
1.17146e-07
1.73398e-07
1.32249e-10
1.33568e-10
2.6335e-10
1.15278e-09
4.40762e-09
1.27262e-08
2.92729e-08
5.6453e-08
9.48299e-08
1.4288e-07
1.7758e-10
1.902e-10
2.82684e-10
9.47795e-10
3.43004e-09
9.87175e-09
2.29303e-08
4.48713e-08
7.66258e-08
1.17405e-07
6.46834e-10
5.0531e-10
4.497e-10
8.7308e-10
2.73498e-09
7.70941e-09
1.79872e-08
3.56175e-08
6.17196e-08
9.60427e-08
2.66e-10
2.76903e-10
3.4034e-10
7.17349e-10
2.16318e-09
6.01386e-09
1.40672e-08
2.81145e-08
4.93194e-08
7.7798e-08
3.01732e-10
2.87984e-10
3.24884e-10
6.09112e-10
1.70964e-09
4.66036e-09
1.08855e-08
2.18664e-08
3.86732e-08
6.16242e-08
2.85902e-10
2.74289e-10
3.01464e-10
5.11333e-10
1.33283e-09
3.54372e-09
8.21436e-09
1.64624e-08
2.91322e-08
4.658e-08
2.88214e-10
2.66798e-10
2.71989e-10
4.13579e-10
1.004e-09
2.58752e-09
5.89474e-09
1.16364e-08
2.03404e-08
3.22709e-08
1.82247e-10
1.7592e-10
1.90686e-10
2.9801e-10
7.08157e-10
1.7623e-09
3.87098e-09
7.3757e-09
1.25084e-08
1.94088e-08
1.32318e-10
1.25066e-10
1.32869e-10
2.03969e-10
4.65462e-10
1.08605e-09
2.215e-09
3.96032e-09
6.39578e-09
9.57978e-09
8.53243e-11
8.0799e-11
8.59773e-11
1.31409e-10
2.83296e-10
5.9537e-10
1.08218e-09
1.74187e-09
2.6215e-09
3.74336e-09
4.19835e-11
4.10377e-11
4.72487e-11
8.1107e-11
1.72855e-10
3.29846e-10
5.30664e-10
6.96598e-10
9.39018e-10
1.22811e-09
1.31437e-11
1.42415e-11
2.2768e-11
5.66038e-11
1.30601e-10
2.60192e-10
4.54283e-10
3.93899e-10
4.57493e-10
5.17608e-10
1.75921e-12
3.33195e-12
1.58488e-11
4.83919e-11
1.09652e-10
2.46424e-10
6.57935e-10
3.6172e-10
3.92006e-10
4.12595e-10
9.90949e-14
2.14569e-12
1.3669e-11
4.3878e-11
9.57548e-11
1.99583e-10
9.75174e-10
3.85895e-10
4.0964e-10
4.26167e-10
2.01745e-07
4.74125e-08
4.79729e-08
4.42976e-08
3.53508e-08
2.77813e-08
2.20867e-08
1.79102e-08
1.49135e-08
1.258e-08
1.06541e-08
8.96673e-09
7.42116e-09
5.97422e-09
4.62477e-09
3.39937e-09
2.33661e-09
1.47259e-09
8.29266e-10
4.13432e-10
1.52306e-10
3.88429e-11
4.60214e-12
9.36114e-13
4.71684e-13
2.38581e-07
8.53162e-08
5.30184e-08
4.23169e-08
3.34611e-08
2.63179e-08
2.09227e-08
1.69548e-08
1.40591e-08
1.18192e-08
9.98069e-09
8.38171e-09
6.92917e-09
5.5806e-09
4.33157e-09
3.20249e-09
2.22478e-09
1.42812e-09
8.30182e-10
4.29444e-10
1.78832e-10
5.66008e-11
1.13784e-11
1.57727e-12
4.13141e-13
3.21716e-07
1.621e-07
8.87947e-08
5.62637e-08
3.88979e-08
2.84712e-08
2.17661e-08
1.72151e-08
1.39977e-08
1.15914e-08
9.67647e-09
8.06002e-09
6.63157e-09
5.33659e-09
4.15899e-09
3.10672e-09
2.1989e-09
1.45472e-09
8.84481e-10
4.82832e-10
2.22223e-10
7.99186e-11
2.2606e-11
7.45739e-12
4.38354e-12
4.3201e-07
2.67637e-07
1.62054e-07
9.99071e-08
6.38906e-08
4.26331e-08
2.98837e-08
2.21283e-08
1.70342e-08
1.34999e-08
1.08985e-08
8.86258e-09
7.18014e-09
5.73481e-09
4.46992e-09
3.36474e-09
2.41743e-09
1.63283e-09
1.01496e-09
5.70586e-10
2.82707e-10
1.26553e-10
6.22036e-11
4.12965e-11
3.65768e-11
5.64118e-07
3.9335e-07
2.69649e-07
1.78594e-07
1.18898e-07
7.99166e-08
5.47036e-08
3.84512e-08
2.8007e-08
2.11068e-08
1.63317e-08
1.28454e-08
1.01566e-08
7.98121e-09
6.16034e-09
4.61374e-09
3.30782e-09
2.23521e-09
1.40051e-09
8.07147e-10
4.37856e-10
2.47497e-10
1.68885e-10
1.38054e-10
1.31803e-10
7.0719e-07
5.30156e-07
3.95867e-07
2.88893e-07
2.05628e-07
1.45743e-07
1.03553e-07
7.41359e-08
5.3745e-08
3.9909e-08
3.03143e-08
2.3381e-08
1.81314e-08
1.3975e-08
1.05708e-08
7.74239e-09
5.41487e-09
3.56774e-09
2.19542e-09
1.27352e-09
7.36226e-10
4.79329e-10
3.79593e-10
3.55955e-10
3.65973e-10
8.48039e-07
6.6885e-07
5.29371e-07
4.14819e-07
3.18069e-07
2.3944e-07
1.7876e-07
1.33349e-07
9.95941e-08
7.46345e-08
5.66594e-08
4.33434e-08
3.31255e-08
2.50217e-08
1.84572e-08
1.31313e-08
8.90337e-09
5.69828e-09
3.43605e-09
1.98951e-09
1.17768e-09
7.93937e-10
6.35932e-10
5.89471e-10
6.00906e-10
9.74832e-07
8.00428e-07
6.60887e-07
5.44191e-07
4.42851e-07
3.534e-07
2.7759e-07
2.15629e-07
1.66526e-07
1.27726e-07
9.74362e-08
7.42299e-08
5.60622e-08
4.15943e-08
3.0011e-08
2.0843e-08
1.38043e-08
8.66457e-09
5.16767e-09
3.00169e-09
1.81478e-09
1.26372e-09
1.04114e-09
9.87619e-10
1.022e-09
1.07785e-06
9.16665e-07
7.82723e-07
6.68512e-07
5.67655e-07
4.76078e-07
3.91937e-07
3.17139e-07
2.52515e-07
1.98304e-07
1.53057e-07
1.16624e-07
8.74682e-08
6.41223e-08
4.55845e-08
3.11684e-08
2.03469e-08
1.26299e-08
7.49559e-09
4.37731e-09
2.69795e-09
1.93384e-09
1.633e-09
1.57179e-09
1.63476e-09
1.14979e-06
1.01053e-06
8.88387e-07
7.81162e-07
6.8483e-07
5.95729e-07
5.11307e-07
4.30335e-07
3.54106e-07
2.84733e-07
2.23875e-07
1.7148e-07
1.28553e-07
9.38086e-08
6.62099e-08
4.48915e-08
2.90592e-08
1.79084e-08
1.05848e-08
6.1955e-09
3.86598e-09
2.82711e-09
2.42776e-09
2.35697e-09
2.45811e-09
1.1881e-06
1.07716e-06
9.72698e-07
8.76922e-07
7.88687e-07
7.05591e-07
6.25127e-07
5.45258e-07
4.64938e-07
3.84511e-07
3.08777e-07
2.40347e-07
1.81409e-07
1.32759e-07
9.36601e-08
6.33115e-08
4.07798e-08
2.49756e-08
1.467e-08
8.55692e-09
5.36026e-09
3.96742e-09
3.44869e-09
3.37e-09
3.52197e-09
1.19481e-06
1.11454e-06
1.03217e-06
9.51833e-07
8.74958e-07
8.00777e-07
7.27464e-07
6.52799e-07
5.74759e-07
4.9232e-07
4.06503e-07
3.24122e-07
2.48414e-07
1.83691e-07
1.30355e-07
8.82551e-08
5.6704e-08
3.45088e-08
2.00775e-08
1.15903e-08
7.22217e-09
5.37192e-09
4.71443e-09
4.6352e-09
4.85414e-09
1.17295e-06
1.12318e-06
1.06513e-06
1.0033e-06
9.4057e-07
8.77758e-07
8.14057e-07
7.47637e-07
6.76154e-07
5.97508e-07
5.11151e-07
4.21168e-07
3.31653e-07
2.49414e-07
1.79173e-07
1.22095e-07
7.84679e-08
4.74579e-08
2.72641e-08
1.54634e-08
9.48705e-09
7.03672e-09
6.22203e-09
6.15705e-09
6.46214e-09
1.12632e-06
1.10694e-06
1.0722e-06
1.03027e-06
9.83669e-07
9.34139e-07
8.81905e-07
8.25838e-07
7.63807e-07
6.93231e-07
6.12174e-07
5.21939e-07
4.27126e-07
3.31369e-07
2.42881e-07
1.67627e-07
1.08225e-07
6.51363e-08
3.68736e-08
2.04053e-08
1.21843e-08
8.92464e-09
7.9319e-09
7.90781e-09
8.32315e-09
1.05996e-06
1.06916e-06
1.05665e-06
1.03353e-06
1.00374e-06
9.68664e-07
9.29126e-07
8.84716e-07
8.33811e-07
7.73885e-07
7.02208e-07
6.18107e-07
5.24893e-07
4.24291e-07
3.21551e-07
2.27548e-07
1.48646e-07
8.9331e-08
4.98607e-08
2.67621e-08
1.53489e-08
1.09521e-08
9.74186e-09
9.79553e-09
1.03489e-08
9.79384e-07
1.0135e-06
1.02239e-06
1.01624e-06
1.00192e-06
9.81335e-07
9.54972e-07
9.22781e-07
8.83656e-07
8.35496e-07
7.75505e-07
7.02182e-07
6.1673e-07
5.18219e-07
4.09029e-07
2.99103e-07
2.00498e-07
1.22063e-07
6.75868e-08
3.50388e-08
1.90454e-08
1.2987e-08
1.14647e-08
1.16274e-08
1.23411e-08
8.90086e-07
9.44287e-07
9.72387e-07
9.82613e-07
9.81621e-07
9.73776e-07
9.59978e-07
9.39745e-07
9.12155e-07
8.75748e-07
8.28331e-07
7.68653e-07
6.95601e-07
6.06069e-07
4.99093e-07
3.7934e-07
2.62459e-07
1.62917e-07
9.03884e-08
4.58495e-08
2.34254e-08
1.48755e-08
1.28364e-08
1.31045e-08
1.39762e-08
7.97054e-07
8.66034e-07
9.10149e-07
9.35282e-07
9.47085e-07
9.49905e-07
9.46433e-07
9.36802e-07
9.19706e-07
8.94441e-07
8.59889e-07
8.1484e-07
7.56558e-07
6.80696e-07
5.83169e-07
4.64117e-07
3.33232e-07
2.12455e-07
1.18973e-07
5.92788e-08
2.84577e-08
1.64499e-08
1.35674e-08
1.38908e-08
1.49023e-08
7.04466e-07
7.83052e-07
8.39459e-07
8.77252e-07
9.00743e-07
9.13769e-07
9.19067e-07
9.17857e-07
9.10005e-07
8.95227e-07
8.72772e-07
8.4121e-07
7.97716e-07
7.37526e-07
6.54432e-07
5.43822e-07
4.09373e-07
2.70315e-07
1.54175e-07
7.60685e-08
3.43548e-08
1.75372e-08
1.33259e-08
1.355e-08
1.46369e-08
6.15532e-07
6.99115e-07
7.64008e-07
8.11765e-07
8.45266e-07
8.67582e-07
8.81256e-07
8.87881e-07
8.88157e-07
8.82273e-07
8.6985e-07
8.49768e-07
8.19606e-07
7.74876e-07
7.08586e-07
6.12678e-07
4.84132e-07
3.35282e-07
1.96874e-07
9.73418e-08
4.17311e-08
1.8248e-08
1.18703e-08
1.15927e-08
1.25899e-08
5.32487e-07
6.17261e-07
6.87109e-07
7.42002e-07
7.83491e-07
8.13768e-07
8.34975e-07
8.48756e-07
8.56169e-07
8.57791e-07
8.53638e-07
8.43034e-07
8.24165e-07
7.93296e-07
7.43802e-07
6.66081e-07
5.51415e-07
4.03291e-07
2.48502e-07
1.25364e-07
5.23731e-08
1.9775e-08
9.50697e-09
7.76527e-09
8.20218e-09
4.56692e-07
5.39735e-07
6.11506e-07
6.70845e-07
7.18186e-07
7.54858e-07
7.82479e-07
8.02499e-07
8.16091e-07
8.24045e-07
8.26685e-07
8.23755e-07
8.14072e-07
7.94836e-07
7.60514e-07
7.01766e-07
6.06697e-07
4.69706e-07
3.08271e-07
1.6422e-07
7.01005e-08
2.50425e-08
8.854e-09
3.99099e-09
2.27308e-09
3.88823e-07
4.68047e-07
5.39311e-07
6.00726e-07
6.51864e-07
6.93279e-07
7.26038e-07
7.51294e-07
7.70112e-07
7.83357e-07
7.91549e-07
7.94754e-07
7.92333e-07
7.82394e-07
7.60788e-07
7.19695e-07
6.47007e-07
5.31015e-07
3.76407e-07
2.19116e-07
1.04141e-07
4.478e-08
2.36632e-08
1.87067e-08
1.85404e-08
3.29739e-07
4.03854e-07
4.72829e-07
5.3437e-07
5.87449e-07
6.31993e-07
6.68546e-07
6.97916e-07
7.20972e-07
7.3854e-07
7.51168e-07
7.59179e-07
7.62326e-07
7.5947e-07
7.47786e-07
7.21501e-07
6.70552e-07
5.81921e-07
4.50156e-07
2.96584e-07
1.67107e-07
9.26411e-08
6.97366e-08
8.21466e-08
1.29524e-07
2.78381e-07
3.46608e-07
4.12029e-07
4.72192e-07
5.2568e-07
5.7195e-07
6.1109e-07
6.43557e-07
6.69971e-07
6.91033e-07
7.07337e-07
7.19146e-07
7.26613e-07
7.29131e-07
7.24954e-07
7.10251e-07
6.77817e-07
6.16701e-07
5.16986e-07
3.84314e-07
2.51386e-07
1.57739e-07
1.17878e-07
1.22325e-07
1.63593e-07
2.34059e-07
2.96044e-07
3.57092e-07
4.14758e-07
4.6742e-07
5.14202e-07
5.54831e-07
5.89442e-07
6.18392e-07
6.42201e-07
6.61399e-07
6.7634e-07
6.87292e-07
6.93831e-07
6.95187e-07
6.89031e-07
6.70772e-07
6.32745e-07
5.65539e-07
4.65434e-07
3.46851e-07
2.42177e-07
1.78445e-07
1.59211e-07
1.7567e-07
1.96112e-07
2.51813e-07
3.08019e-07
3.62408e-07
4.13282e-07
4.59563e-07
5.00709e-07
5.3658e-07
5.67309e-07
5.9321e-07
6.1468e-07
6.32071e-07
6.45661e-07
6.55396e-07
6.60911e-07
6.60786e-07
6.52533e-07
6.31441e-07
5.90795e-07
5.24588e-07
4.34727e-07
3.37762e-07
2.58579e-07
2.13108e-07
1.99812e-07
1.63738e-07
2.133e-07
2.6444e-07
3.15027e-07
3.63386e-07
4.08336e-07
4.49154e-07
4.85491e-07
5.17279e-07
5.44646e-07
5.6784e-07
5.87142e-07
6.02804e-07
6.14932e-07
6.2341e-07
6.2759e-07
6.26167e-07
6.16366e-07
5.94341e-07
5.55388e-07
4.96997e-07
4.23714e-07
3.49104e-07
2.89232e-07
2.52336e-07
1.3598e-07
1.79594e-07
2.25549e-07
2.71949e-07
3.17208e-07
3.60122e-07
3.99859e-07
4.35919e-07
4.68067e-07
4.9627e-07
5.2063e-07
5.41328e-07
5.5856e-07
5.72469e-07
5.83075e-07
5.90133e-07
5.93021e-07
5.90409e-07
5.80206e-07
5.5967e-07
5.26188e-07
4.79659e-07
4.24587e-07
3.69869e-07
3.24432e-07
1.11674e-07
1.49401e-07
1.89967e-07
2.31751e-07
2.73312e-07
3.13477e-07
3.51366e-07
3.86374e-07
4.18135e-07
4.46473e-07
4.71358e-07
4.92857e-07
5.11088e-07
5.2617e-07
5.38171e-07
5.4704e-07
5.52534e-07
5.54089e-07
5.50711e-07
5.41046e-07
5.23585e-07
4.97458e-07
4.63497e-07
4.24944e-07
3.86722e-07
8.9455e-08
1.21031e-07
1.55679e-07
1.92109e-07
2.29091e-07
2.65545e-07
3.00589e-07
3.33553e-07
3.63964e-07
3.91523e-07
4.16072e-07
4.37562e-07
4.56013e-07
4.71486e-07
4.84042e-07
4.937e-07
5.00403e-07
5.03956e-07
5.03978e-07
4.99918e-07
4.91134e-07
4.77122e-07
4.57912e-07
4.3446e-07
4.08715e-07
6.80386e-08
9.27892e-08
1.20513e-07
1.50323e-07
1.81285e-07
2.12497e-07
2.43146e-07
2.72543e-07
3.00142e-07
3.25537e-07
3.48447e-07
3.68704e-07
3.86224e-07
4.00987e-07
4.13011e-07
4.22323e-07
4.28936e-07
4.32826e-07
4.33911e-07
4.32053e-07
4.27094e-07
4.18919e-07
4.0758e-07
3.93438e-07
3.77248e-07
4.70303e-08
6.42648e-08
8.39537e-08
1.05635e-07
1.28742e-07
1.52652e-07
1.76725e-07
2.00352e-07
2.22988e-07
2.44171e-07
2.63534e-07
2.8081e-07
2.95825e-07
3.08482e-07
3.18748e-07
3.26627e-07
3.32147e-07
3.3535e-07
3.36281e-07
3.34993e-07
3.3155e-07
3.26048e-07
3.18639e-07
3.09572e-07
2.99224e-07
2.79172e-08
3.79161e-08
4.9525e-08
6.25982e-08
7.69e-08
9.21174e-08
1.07871e-07
1.23749e-07
1.39334e-07
1.54228e-07
1.68079e-07
1.80608e-07
1.91614e-07
2.0098e-07
2.08647e-07
2.14592e-07
2.1882e-07
2.21378e-07
2.22341e-07
2.21813e-07
2.1992e-07
2.16811e-07
2.12657e-07
2.07644e-07
2.01972e-07
1.34719e-08
1.80479e-08
2.34121e-08
2.95657e-08
3.64597e-08
4.40029e-08
5.20418e-08
6.03878e-08
6.88331e-08
7.71423e-08
8.50913e-08
9.24974e-08
9.92326e-08
1.05226e-07
1.10448e-07
1.14839e-07
1.18366e-07
1.21039e-07
1.22899e-07
1.24012e-07
1.2446e-07
1.24339e-07
1.23766e-07
1.22829e-07
1.21567e-07
5.09809e-09
6.67542e-09
8.51247e-09
1.06603e-08
1.31444e-08
1.59758e-08
1.91198e-08
2.25361e-08
2.61867e-08
2.99872e-08
3.38562e-08
3.7734e-08
4.15847e-08
4.54025e-08
4.92102e-08
5.29043e-08
5.6417e-08
5.9721e-08
6.28067e-08
6.56705e-08
6.83133e-08
7.07499e-08
7.30517e-08
7.52197e-08
7.71122e-08
1.56687e-09
1.94386e-09
2.32165e-09
2.7885e-09
3.40868e-09
4.22215e-09
5.23861e-09
6.48474e-09
8.01862e-09
9.84563e-09
1.19733e-08
1.44139e-08
1.71775e-08
2.02862e-08
2.384e-08
2.76409e-08
3.16069e-08
3.5692e-08
3.98431e-08
4.3998e-08
4.80898e-08
5.20513e-08
5.58197e-08
5.93294e-08
6.25048e-08
5.85736e-10
6.60346e-10
5.79147e-10
5.23353e-10
5.87e-10
8.00196e-10
1.19588e-09
1.81771e-09
2.78257e-09
4.14453e-09
5.94732e-09
8.23031e-09
1.10118e-08
1.42898e-08
1.80429e-08
2.22135e-08
2.67246e-08
3.14854e-08
3.6394e-08
4.13412e-08
4.62159e-08
5.09088e-08
5.53179e-08
5.93507e-08
6.29244e-08
4.39568e-10
5.41726e-10
3.01581e-10
1.28276e-10
7.81902e-11
1.72176e-10
4.72819e-10
1.00383e-09
1.89572e-09
3.25386e-09
5.14722e-09
7.61747e-09
1.06841e-08
1.43379e-08
1.85411e-08
2.32257e-08
2.82975e-08
3.3641e-08
3.91263e-08
4.46165e-08
4.99749e-08
5.50702e-08
5.97842e-08
6.4015e-08
6.76815e-08
4.31398e-10
6.1465e-10
2.26373e-10
8.15655e-11
1.79392e-11
8.75154e-11
3.92246e-10
9.2205e-10
1.86132e-09
3.31363e-09
5.3572e-09
8.03848e-09
1.13809e-08
1.53731e-08
1.9971e-08
2.50962e-08
3.06403e-08
3.64708e-08
4.24399e-08
4.83931e-08
5.41776e-08
5.96484e-08
6.46768e-08
6.91541e-08
7.29982e-08
2.91616e-07
2.28346e-07
1.6299e-07
2.46431e-07
2.17981e-07
1.74588e-07
2.1077e-07
2.05469e-07
1.85827e-07
2.04733e-07
2.02374e-07
1.9367e-07
2.34887e-07
2.23715e-07
2.14089e-07
2.93946e-07
2.72153e-07
2.55633e-07
3.55292e-07
3.29127e-07
3.07362e-07
3.84755e-07
3.62265e-07
3.41349e-07
3.61206e-07
3.45033e-07
3.28784e-07
2.88825e-07
2.781e-07
2.6696e-07
1.96273e-07
1.90378e-07
1.84199e-07
1.20124e-07
1.18496e-07
1.16654e-07
7.85634e-08
7.97064e-08
8.05764e-08
6.50936e-08
6.72677e-08
6.90849e-08
6.57718e-08
6.80731e-08
6.99123e-08
7.05317e-08
7.27236e-08
7.43797e-08
7.59652e-08
7.81846e-08
7.98247e-08
2.8094e-14
6.69876e-14
4.24961e-14
1.93544e-13
1.34169e-12
4.56935e-12
1.098e-11
2.14276e-11
3.63265e-11
5.54776e-11
7.79736e-11
1.01786e-10
1.25082e-10
1.74728e-10
5.72933e-10
6.42922e-10
4.73578e-10
4.8237e-10
4.3764e-10
4.96266e-10
5.77389e-10
6.57549e-10
7.34235e-10
8.07567e-10
8.78103e-10
9.46133e-10
1.0117e-09
1.0747e-09
1.13499e-09
1.19235e-09
1.24655e-09
1.29726e-09
1.3441e-09
1.38665e-09
1.42439e-09
1.45674e-09
1.48311e-09
1.50299e-09
1.51617e-09
1.52262e-09
1.52323e-09
1.51851e-09
1.50863e-09
1.49423e-09
1.4756e-09
1.45297e-09
1.42649e-09
1.39635e-09
1.36267e-09
1.3255e-09
1.28474e-09
1.24039e-09
1.19275e-09
1.14246e-09
1.0902e-09
1.03634e-09
9.80982e-10
9.24087e-10
8.6553e-10
8.0512e-10
7.42542e-10
6.77336e-10
6.08789e-10
5.36449e-10
4.62871e-10
4.09436e-10
4.71096e-10
5.63027e-10
3.55835e-10
1.92329e-10
1.29911e-10
9.40597e-11
6.37415e-11
3.8776e-11
2.03912e-11
8.67544e-12
2.63165e-12
4.18242e-13
3.65005e-14
1.7851e-14
4.67607e-14
5.47211e-14
1.1261e-13
4.67419e-13
1.83181e-12
5.16352e-12
1.14319e-11
2.13937e-11
3.54194e-11
5.3381e-11
7.47426e-11
9.93829e-11
1.33427e-10
2.18402e-10
5.20172e-10
6.45083e-10
5.11183e-10
4.66077e-10
4.32459e-10
4.74311e-10
5.44129e-10
6.17894e-10
6.89685e-10
7.58606e-10
8.2489e-10
8.88763e-10
9.50278e-10
1.00936e-09
1.06586e-09
1.11959e-09
1.17032e-09
1.21774e-09
1.26149e-09
1.30117e-09
1.3363e-09
1.36636e-09
1.39082e-09
1.40925e-09
1.42146e-09
1.42753e-09
1.4281e-09
1.42362e-09
1.41436e-09
1.40082e-09
1.3833e-09
1.36201e-09
1.33712e-09
1.30878e-09
1.2771e-09
1.24213e-09
1.20381e-09
1.16221e-09
1.1176e-09
1.07053e-09
1.02155e-09
9.71013e-10
9.1903e-10
8.65581e-10
8.10557e-10
7.53784e-10
6.94986e-10
6.33796e-10
5.69914e-10
5.04209e-10
4.42906e-10
4.10579e-10
4.69175e-10
5.30875e-10
3.64609e-10
2.08555e-10
1.32629e-10
9.15166e-11
6.1587e-11
3.809e-11
2.07949e-11
9.52144e-12
3.35003e-12
7.48664e-13
1.06151e-13
1.79951e-14
1.76285e-14
7.10606e-14
2.84714e-13
9.87746e-13
2.82302e-12
6.71794e-12
1.33858e-11
2.35066e-11
3.75346e-11
5.58429e-11
7.94627e-11
1.12545e-10
1.69487e-10
2.88924e-10
5.26597e-10
6.34962e-10
5.54957e-10
4.85834e-10
4.53147e-10
4.77079e-10
5.31988e-10
5.97281e-10
6.64063e-10
7.29414e-10
7.92628e-10
8.53594e-10
9.12271e-10
9.68566e-10
1.02234e-09
1.07339e-09
1.12149e-09
1.16635e-09
1.20762e-09
1.24491e-09
1.27779e-09
1.30579e-09
1.32848e-09
1.34552e-09
1.35681e-09
1.36245e-09
1.36288e-09
1.35848e-09
1.34959e-09
1.33658e-09
1.31974e-09
1.2993e-09
1.27541e-09
1.24822e-09
1.21783e-09
1.18428e-09
1.14761e-09
1.10793e-09
1.0655e-09
1.02076e-09
9.74127e-10
9.25908e-10
8.76233e-10
8.25116e-10
7.72496e-10
7.18279e-10
6.62395e-10
6.05021e-10
5.47264e-10
4.93043e-10
4.53105e-10
4.49452e-10
5.03163e-10
5.16462e-10
3.89187e-10
2.4745e-10
1.55624e-10
1.01268e-10
6.59364e-11
4.09121e-11
2.31114e-11
1.12706e-11
4.41062e-12
1.50821e-12
6.93741e-13
4.8997e-13
4.53885e-13
5.92799e-13
9.9013e-13
2.02643e-12
4.42971e-12
9.08687e-12
1.67568e-11
2.81973e-11
4.38345e-11
6.47329e-11
9.34401e-11
1.36306e-10
2.07469e-10
3.28902e-10
4.98462e-10
5.83267e-10
5.54049e-10
5.05882e-10
4.83172e-10
4.9956e-10
5.43402e-10
6.00587e-10
6.62403e-10
7.24705e-10
7.85804e-10
8.45053e-10
9.02165e-10
9.5695e-10
1.00922e-09
1.05877e-09
1.10533e-09
1.14864e-09
1.18834e-09
1.22408e-09
1.25546e-09
1.28209e-09
1.30363e-09
1.31986e-09
1.33071e-09
1.3363e-09
1.33692e-09
1.33289e-09
1.32453e-09
1.31215e-09
1.29603e-09
1.27638e-09
1.25336e-09
1.2271e-09
1.19771e-09
1.16524e-09
1.12979e-09
1.0915e-09
1.05061e-09
1.00744e-09
9.62331e-10
9.15524e-10
8.67163e-10
8.17313e-10
7.66007e-10
7.13331e-10
6.59612e-10
6.05851e-10
5.54684e-10
5.12048e-10
4.88596e-10
4.9543e-10
5.23752e-10
5.05312e-10
4.04394e-10
2.82651e-10
1.86471e-10
1.21026e-10
7.73275e-11
4.73365e-11
2.67767e-11
1.39336e-11
7.08008e-12
4.3404e-12
3.38337e-12
3.16683e-12
2.54027e-12
2.69789e-12
3.31883e-12
4.64343e-12
7.56622e-12
1.32166e-11
2.25719e-11
3.63349e-11
5.51205e-11
8.01658e-11
1.14186e-10
1.62032e-10
2.32012e-10
3.32348e-10
4.49033e-10
5.20854e-10
5.31782e-10
5.21457e-10
5.21352e-10
5.43828e-10
5.85972e-10
6.40201e-10
7.00161e-10
7.61932e-10
8.23431e-10
8.83613e-10
9.41932e-10
9.98047e-10
1.05168e-09
1.10259e-09
1.15047e-09
1.19505e-09
1.23598e-09
1.27292e-09
1.30551e-09
1.33344e-09
1.35643e-09
1.37432e-09
1.38706e-09
1.39469e-09
1.39739e-09
1.39543e-09
1.3891e-09
1.3787e-09
1.36448e-09
1.34663e-09
1.32532e-09
1.30066e-09
1.27273e-09
1.24161e-09
1.20738e-09
1.17018e-09
1.13019e-09
1.08765e-09
1.04283e-09
9.95922e-10
9.47071e-10
8.96373e-10
8.43933e-10
7.89969e-10
7.35026e-10
6.80409e-10
6.28935e-10
5.85773e-10
5.57863e-10
5.47739e-10
5.4072e-10
5.0035e-10
4.1388e-10
3.10137e-10
2.1737e-10
1.45538e-10
9.41733e-11
5.81866e-11
3.4304e-11
2.03068e-11
1.35663e-11
1.08586e-11
9.90887e-12
9.96307e-12
7.79015e-12
7.78232e-12
8.51535e-12
1.0222e-11
1.36589e-11
2.05377e-11
3.24077e-11
5.03078e-11
7.48177e-11
1.0667e-10
1.47335e-10
1.99246e-10
2.65795e-10
3.4925e-10
4.38532e-10
5.07152e-10
5.46244e-10
5.70505e-10
5.96838e-10
6.34689e-10
6.85237e-10
7.4522e-10
8.10673e-10
8.78528e-10
9.46809e-10
1.01434e-09
1.08039e-09
1.1445e-09
1.20628e-09
1.2654e-09
1.32155e-09
1.3744e-09
1.42357e-09
1.46872e-09
1.50949e-09
1.54557e-09
1.57668e-09
1.60263e-09
1.62328e-09
1.63836e-09
1.64803e-09
1.65251e-09
1.65213e-09
1.64721e-09
1.63803e-09
1.62482e-09
1.60773e-09
1.58682e-09
1.56209e-09
1.5335e-09
1.50106e-09
1.46481e-09
1.42488e-09
1.38141e-09
1.33459e-09
1.28455e-09
1.23138e-09
1.17515e-09
1.11592e-09
1.05384e-09
9.89326e-10
9.23308e-10
8.5768e-10
7.95568e-10
7.40434e-10
6.91993e-10
6.40654e-10
5.70256e-10
4.75413e-10
3.7074e-10
2.72194e-10
1.89112e-10
1.24626e-10
7.82765e-11
4.8433e-11
3.20991e-11
2.49543e-11
2.21968e-11
2.15869e-11
2.23324e-11
1.78237e-11
1.734e-11
1.79433e-11
1.9883e-11
2.40358e-11
3.24987e-11
4.79299e-11
7.22042e-11
1.06122e-10
1.49743e-10
2.03032e-10
2.6615e-10
3.39274e-10
4.21504e-10
5.06682e-10
5.83913e-10
6.48645e-10
7.0593e-10
7.6372e-10
8.27604e-10
8.99338e-10
9.77933e-10
1.06135e-09
1.14758e-09
1.23506e-09
1.32268e-09
1.40962e-09
1.49528e-09
1.57914e-09
1.66078e-09
1.73981e-09
1.81584e-09
1.88845e-09
1.95718e-09
2.02161e-09
2.08136e-09
2.13608e-09
2.18545e-09
2.22837e-09
2.26463e-09
2.29421e-09
2.31723e-09
2.33389e-09
2.34442e-09
2.34897e-09
2.34768e-09
2.34062e-09
2.32781e-09
2.3092e-09
2.28468e-09
2.25415e-09
2.21758e-09
2.17495e-09
2.1263e-09
2.07167e-09
2.01107e-09
1.94443e-09
1.87163e-09
1.79251e-09
1.7069e-09
1.61474e-09
1.51627e-09
1.4122e-09
1.30389e-09
1.19282e-09
1.07871e-09
9.57607e-10
8.24264e-10
6.79092e-10
5.3128e-10
3.92619e-10
2.73002e-10
1.78704e-10
1.11947e-10
7.08416e-11
4.98186e-11
4.13254e-11
3.87003e-11
3.88692e-11
4.07834e-11
3.40972e-11
3.27072e-11
3.28293e-11
3.47892e-11
3.98088e-11
5.03884e-11
7.08197e-11
1.04407e-10
1.5288e-10
2.16052e-10
2.92463e-10
3.8018e-10
4.77177e-10
5.81123e-10
6.882e-10
7.93612e-10
8.95154e-10
9.94616e-10
1.09568e-09
1.20147e-09
1.31346e-09
1.43154e-09
1.55472e-09
1.68173e-09
1.8114e-09
1.94268e-09
2.07473e-09
2.20679e-09
2.33814e-09
2.46816e-09
2.59641e-09
2.7224e-09
2.8455e-09
2.96502e-09
3.08027e-09
3.19062e-09
3.29548e-09
3.39263e-09
3.48099e-09
3.56014e-09
3.62981e-09
3.68988e-09
3.74035e-09
3.78125e-09
3.81258e-09
3.8343e-09
3.84635e-09
3.84862e-09
3.84094e-09
3.82307e-09
3.79475e-09
3.75575e-09
3.70587e-09
3.64491e-09
3.57266e-09
3.48879e-09
3.39287e-09
3.28429e-09
3.16229e-09
3.02596e-09
2.87435e-09
2.70658e-09
2.52209e-09
2.32084e-09
2.10342e-09
1.87062e-09
1.62335e-09
1.36415e-09
1.10012e-09
8.43869e-10
6.10615e-10
4.14328e-10
2.64156e-10
1.61938e-10
1.01873e-10
7.29199e-11
6.2022e-11
5.97121e-11
6.11218e-11
6.46654e-11
5.7548e-11
5.47355e-11
5.40097e-11
5.58705e-11
6.19734e-11
7.55876e-11
1.03032e-10
1.49817e-10
2.19677e-10
3.13223e-10
4.28116e-10
5.60351e-10
7.05584e-10
8.59863e-10
1.01963e-09
1.18197e-09
1.34561e-09
1.5113e-09
1.68093e-09
1.85643e-09
2.03896e-09
2.22877e-09
2.42547e-09
2.62825e-09
2.83619e-09
3.04834e-09
3.26374e-09
3.48142e-09
3.70038e-09
3.91976e-09
4.1389e-09
4.35703e-09
4.57315e-09
4.78612e-09
4.99471e-09
5.19775e-09
5.39144e-09
5.57304e-09
5.74157e-09
5.89614e-09
6.03605e-09
6.16079e-09
6.27001e-09
6.3634e-09
6.4407e-09
6.50162e-09
6.54587e-09
6.57312e-09
6.583e-09
6.57504e-09
6.54877e-09
6.50365e-09
6.43916e-09
6.35469e-09
6.2495e-09
6.12261e-09
5.97275e-09
5.79827e-09
5.59711e-09
5.36684e-09
5.10471e-09
4.80793e-09
4.47409e-09
4.10183e-09
3.69164e-09
3.24681e-09
2.77458e-09
2.28758e-09
1.80489e-09
1.35101e-09
9.51502e-10
6.2702e-10
3.87673e-10
2.30471e-10
1.41173e-10
9.97499e-11
8.52901e-11
8.34012e-11
8.64687e-11
9.20048e-11
8.81433e-11
8.34251e-11
8.19217e-11
8.41518e-11
9.20851e-11
1.10286e-10
1.47334e-10
2.12319e-10
3.12294e-10
4.50169e-10
6.23863e-10
8.27556e-10
1.054e-09
1.29647e-09
1.54976e-09
1.81047e-09
2.07713e-09
2.34991e-09
2.63001e-09
2.91886e-09
3.21758e-09
3.5267e-09
3.84622e-09
4.17566e-09
4.51429e-09
4.86111e-09
5.21502e-09
5.57475e-09
5.93893e-09
6.30631e-09
6.6757e-09
7.04572e-09
7.41472e-09
7.7808e-09
8.14189e-09
8.49127e-09
8.82388e-09
9.13791e-09
9.43165e-09
9.70355e-09
9.95224e-09
1.01766e-08
1.03759e-08
1.05491e-08
1.06959e-08
1.08154e-08
1.09071e-08
1.09704e-08
1.10047e-08
1.10091e-08
1.0983e-08
1.09254e-08
1.08353e-08
1.07113e-08
1.05519e-08
1.03548e-08
1.01172e-08
9.8355e-09
9.50511e-09
9.12073e-09
8.67626e-09
8.16543e-09
7.58282e-09
6.92539e-09
6.19466e-09
5.39934e-09
4.55793e-09
3.70021e-09
2.8662e-09
2.10111e-09
1.44641e-09
9.29942e-10
5.59277e-10
3.21421e-10
1.88788e-10
1.28322e-10
1.08342e-10
1.06667e-10
1.11659e-10
1.19363e-10
1.23108e-10
1.17868e-10
1.18302e-10
1.22778e-10