/*--------------------------------*- C++ -*----------------------------------*\
| =========                 |                                                 |
| \\      /  F ield         | OpenFOAM: The Open Source CFD Toolbox           |
|  \\    /   O peration     | Version:  v2012                                 |
|   \\  /    A nd           | Website:  www.openfoam.com                      |
|    \\/     M anipulation  |                                                 |
\*---------------------------------------------------------------------------*/
FoamFile
{
    version     2.0;
    format      ascii;
    class       volScalarField;
    location    "2000";
    object      omega;
}
// * * * * * * * * * * * * * * * * * * * * * * * * * * * * * * * * * * * * * //

dimensions      [0 0 -1 0 0 0 0];


internalField   nonuniform List<scalar> 
6502
(
5369.78
835.819
198.943
73.7481
47.898
47.8917
73.7291
198.911
835.783
5369.78
5369.47
1050.29
329.204
126.299
68.1101
68.08
126.217
329.073
1050.14
5369.47
5369.33
1050.94
372.403
159.801
87.5095
87.446
159.65
372.199
1050.74
5369.33
5369.25
1014.77
375.737
175.175
101.448
101.346
174.949
375.447
1014.49
5369.25
5369.22
982.484
366.059
179.77
109.86
109.716
179.461
365.663
982.093
5369.22
5369.2
960.75
354.207
178.935
114.14
113.948
178.521
353.673
960.214
5369.2
5369.19
947.656
344.084
176.064
115.794
115.544
175.512
343.354
946.916
5369.19
5369.19
940.137
336.595
172.792
115.923
115.604
172.066
335.604
939.13
5369.19
5369.19
934.69
331.081
169.753
115.245
114.835
168.785
329.722
933.248
5369.19
5369.18
906.007
324.285
166.801
114.15
113.611
165.496
322.396
903.574
5369.18
5369.18
897.216
319.845
164.36
112.937
112.222
162.586
317.304
894.521
5369.18
5369.18
894.883
317.459
162.599
111.818
110.905
160.135
314
891.393
5369.18
5369.18
894.402
316.401
161.502
110.916
109.783
158.35
311.999
890.305
5369.18
5369.18
894.649
316.21
160.992
110.288
108.876
157.013
310.666
889.57
5369.18
5369.18
895.348
316.658
161.01
109.961
108.17
155.92
309.541
888.818
5369.19
5369.17
896.44
317.655
161.525
109.955
107.642
154.911
308.347
887.86
5369.19
5369.17
897.916
319.173
162.536
110.292
107.267
153.85
306.857
886.486
5369.19
5369.17
899.748
321.195
164.049
110.996
107.019
152.603
304.781
884.32
5369.2
5369.17
901.87
323.673
166.059
112.083
106.848
150.906
301.359
880.013
5369.21
5369.16
904.118
326.47
168.491
113.517
106.551
147.687
291.861
857.736
5369.22
5369.16
906.196
329.308
171.143
115.084
105.459
138.525
242.354
509.108
1287.97
5369.15
907.728
331.765
173.66
116.513
103.603
126.693
194.289
320.84
505.965
5369.15
908.478
333.498
175.714
117.615
101.311
114.999
156.928
219.645
277.599
5369.15
908.501
334.399
177.123
118.299
98.8995
104.767
129.67
162.13
182.71
5369.14
907.99
334.558
177.866
118.562
96.5792
96.348
110.06
127.168
134.71
5369.14
907.136
334.141
178.012
118.442
94.4421
89.6121
95.8993
104.605
106.901
5369.14
906.138
333.325
177.674
118
92.5103
84.2995
85.5725
89.3081
89.1815
5369.14
905.089
332.254
176.968
117.3
90.7682
80.123
77.9386
78.5303
77.0968
5369.13
904.012
331.022
175.996
116.404
89.185
76.8256
72.2486
70.7152
68.477
5369.13
902.945
329.702
174.838
115.359
87.7247
74.1939
67.943
64.9191
62.1133
5369.13
901.903
328.338
173.552
114.199
86.3497
72.0528
64.6416
60.5472
57.3065
5369.13
900.888
326.952
172.176
112.945
85.0225
70.2607
62.0678
57.2085
53.6113
5369.13
899.9
325.556
170.732
111.608
83.7075
68.7024
60.0131
54.6183
50.7303
5369.13
898.934
324.155
169.232
110.191
82.372
67.2836
58.315
52.5692
48.4573
5369.13
897.99
322.756
167.688
108.699
80.9888
65.9275
56.8445
50.8997
46.6358
5369.13
897.07
321.363
166.11
107.134
79.5376
64.5734
55.4973
49.4794
45.1391
5369.13
896.178
319.987
164.511
105.505
78.0073
63.176
54.191
48.2007
43.8593
5369.13
895.321
318.64
162.909
103.828
76.3973
61.7063
52.863
46.976
42.7027
5369.13
894.508
317.339
161.324
102.124
74.7183
60.1515
51.4707
45.7368
41.5889
5369.13
893.753
316.109
159.792
100.427
72.9947
58.5163
49.9918
44.4347
40.4527
5369.13
893.144
315.062
158.397
98.7966
71.2689
56.8234
48.4248
43.0422
39.2464
5369.13
894.373
314.945
157.425
97.3557
69.6057
55.1112
46.7857
41.5523
37.9413
5369.13
926.771
319.723
157.525
96.2271
68.0476
53.4107
45.0971
39.9726
36.5271
5369.13
926.311
318.931
156.42
94.8447
66.4609
51.7137
43.3872
38.3352
35.025
5369.13
892.933
312.354
153.94
93.1105
64.8012
50.0095
41.6627
36.6511
33.4414
5369.13
890.302
310.402
152.347
91.5873
63.2224
48.3509
39.9545
34.9472
31.7997
5369.13
889.285
309.252
151.114
90.2461
61.7592
46.7761
38.3011
33.2633
30.139
5369.13
888.702
307.667
149.731
88.9146
60.3704
45.294
36.7336
31.6427
28.5087
5369.13
888.965
301.016
147.423
87.4518
59.0421
43.928
35.2954
30.1431
26.977
5369.13
890.71
299.611
146.292
86.3779
57.9417
42.7687
34.0704
28.8601
25.6529
5369.13
888.735
298.502
145.446
85.5592
57.1073
41.9136
33.1934
27.9585
24.7258
5369.13
888.046
297.835
144.854
85.0255
56.6539
41.554
32.9194
27.7441
24.5395
5369.13
887.945
297.639
144.674
84.9827
56.899
42.1111
33.7578
28.7938
25.7203
5369.13
887.886
297.602
144.959
85.9304
58.5874
44.492
36.7285
32.2004
29.4098
5369.13
887.683
297.867
146.384
88.9813
63.3295
50.6797
43.9374
40.1123
37.7783
5369.13
887.779
299.605
151.494
97.8453
75.4613
65.224
60.0617
57.1942
55.4498
5369.13
889.282
308.553
170.022
124.19
107.35
100.574
97.4031
95.5195
94.3708
5369.13
903.818
360.772
243.983
209.982
200.663
197.924
196.841
195.734
194.894
5369.13
1089.89
649.574
593.909
584.741
582.437
583.208
584.479
583.358
581.936
5369.13
3518.54
3518.54
3518.54
3518.54
3518.54
3518.54
3518.54
3518.54
3518.54
3377.26
3377.25
3377.25
3377.25
3377.25
3377.25
3377.25
3377.25
3377.25
3377.25
3377.25
3377.25
3377.25
3377.25
3377.25
3377.25
3377.25
3377.25
3377.25
3377.25
3377.25
3377.25
3377.25
3377.25
4663.21
678.038
611.726
572.972
560.984
558.498
557.335
556.94
556.846
556.871
556.887
556.857
556.791
556.694
556.584
556.486
556.427
556.437
556.562
556.905
557.81
560.916
575.659
665.847
1163.1
5949.17
289.208
249.878
216.134
197.953
190.362
187.798
186.387
185.568
185.109
184.813
184.589
184.393
184.212
184.068
184.002
184.083
184.427
185.282
187.257
192.024
205.466
248.2
388.497
998.95
5949.17
175.23
148.721
124.456
108.098
98.6837
93.5951
90.9188
88.8951
87.7024
86.9938
86.5447
86.2485
86.0769
86.0579
86.2683
86.8543
88.1065
90.6569
95.9599
106.231
128.591
184.411
345.14
987.681
5949.17
125.443
106.49
87.9949
73.8957
64.6098
58.7583
55.1847
53.0695
51.7447
50.8889
50.3613
50.0954
50.0817
50.3683
51.0701
52.3969
54.7346
58.8216
66.1353
79.7718
107.304
169.424
335.709
986.655
5949.17
98.6027
84.5906
70.1244
57.9467
49.0744
43.135
39.1765
36.6292
35.0899
34.1444
33.6286
33.4885
33.7267
34.4054
35.6599
37.7326
41.053
46.4092
55.324
70.9627
100.635
163.782
334.301
987.016
5949.17
82.1859
71.496
59.9952
49.6299
41.2917
35.2685
31.2018
28.4321
26.6565
25.6549
25.189
25.2028
25.7016
26.7507
28.49
31.1695
35.2276
41.4569
51.3723
68.1023
98.8413
162.88
334.419
987.6
5949.17
71.2247
62.8432
53.5699
44.7653
37.2372
31.2942
27.029
24.1619
22.263
21.1652
20.7393
20.875
21.5761
22.9047
24.9974
28.1006
32.6476
39.421
49.9153
67.2202
98.4612
162.812
334.664
987.831
5949.17
63.4524
56.7029
49.1285
41.6507
34.9382
29.3549
25.0175
21.9492
19.9685
18.796
18.3436
18.53
19.3415
20.8347
23.1413
26.5035
31.3492
38.4518
49.2901
66.928
98.4513
162.971
334.991
988.044
5949.17
57.7492
52.1363
45.8547
39.491
33.5559
28.3988
24.2019
21.0177
18.8426
17.5816
17.0491
17.2069
18.0308
19.5755
21.9717
25.4613
30.4719
37.7742
48.8389
66.7132
98.4565
163.14
335.312
988.354
5949.17
53.429
48.6305
43.3271
37.8849
32.6644
27.9619
23.9765
20.8132
18.5069
17.0469
16.3967
16.4383
17.1808
18.6738
21.0514
24.5608
29.6355
37.051
48.2774
66.3527
98.3139
163.195
335.547
988.631
5949.17
50.0262
45.8688
41.3105
36.6196
32.0363
27.7893
24.0625
20.9815
18.6183
17.0071
16.1663
16.0159
16.5869
17.9337
20.1946
23.6263
28.6748
36.1283
47.4651
65.7216
97.9169
163.047
335.634
988.84
5949.17
47.2892
43.6482
39.6692
35.5807
31.5495
27.7372
24.2952
21.3466
18.9804
17.2575
16.2223
15.8525
16.1755
17.2923
19.3443
22.6018
27.5296
34.9378
46.3229
64.7324
97.175
162.611
335.508
988.935
5949.17
45.0751
41.7845
38.3075
34.7062
31.1408
27.7265
24.5763
21.7964
19.4769
17.6903
16.4964
15.9201
15.9642
16.7631
18.5168
21.5009
26.2006
33.4624
44.8106
63.3198
95.9991
161.787
335.074
988.855
5949.17
43.2719
40.2017
37.1261
33.9541
30.7805
27.7175
24.8494
22.2598
20.029
18.2302
16.9307
16.1746
15.9634
16.4346
17.8053
20.3887
24.7323
31.7227
42.8994
61.4111
94.2716
160.428
334.171
988.46
5949.17
41.7868
38.8581
36.0603
33.2672
30.4497
27.6945
25.0871
22.6947
20.5838
18.8194
17.4666
16.5683
16.1381
16.311
17.3049
19.4621
23.3257
29.8239
40.6162
59.007
91.9251
158.402
332.635
987.606
5949.17
40.5368
37.7101
35.1066
32.5926
30.1072
27.6462
25.2794
23.0814
21.1109
19.4183
18.056
17.0523
16.4443
16.3571
17.0001
18.7285
22.1036
28.0869
38.3875
56.2923
88.9921
155.677
330.394
986.235
5949.17
39.4437
36.7099
34.2523
31.9432
29.7124
27.533
25.4133
23.4107
21.593
19.9939
18.6448
17.5715
16.8296
16.5285
16.8606
18.1661
21.04
26.4619
36.2084
53.6723
86.189
152.92
327.41
984.004
5949.17
38.4336
35.8045
33.4732
31.3237
29.2867
27.3273
25.4388
23.6429
21.9794
20.4759
19.1597
18.0623
17.2351
16.7717
16.8432
17.7647
20.1144
24.9245
34.0193
50.9423
83.2873
150.594
324.888
981.798
5949.17
37.4393
34.9384
32.735
30.7241
28.843
27.0562
25.3494
23.7282
22.2099
20.8132
19.5596
18.4768
17.6086
17.033
16.8968
17.4806
19.3217
23.444
31.7608
47.9456
79.9827
148.37
321.845
979.51
5949.17
36.4037
34.0571
31.9957
30.1217
28.3791
26.7356
25.1758
23.6977
22.3075
21.0154
19.8361
18.7908
17.9141
17.2685
16.9747
17.2715
18.636
22.021
29.3306
44.4059
75.4521
143.488
317.62
975.948
5949.17
35.284
33.1124
31.2116
29.4846
27.8792
26.3672
24.9349
23.5776
22.2981
21.1012
19.9964
18.9987
18.1338
17.4494
17.0402
17.0994
18.0273
20.6593
26.7497
40.0612
69.1728
136.197
314.728
968.935
5949.17
34.0538
32.0678
30.343
28.7773
27.3177
25.9379
24.6264
23.3799
22.1998
21.0895
20.0553
19.1078
18.2654
17.5633
17.0718
16.9379
17.473
19.3456
24.0069
34.6901
59.0519
117.693
280.638
928.098
5949.17
32.7194
30.915
29.3715
27.9771
26.6736
25.4335
24.2456
23.1083
22.0236
20.9956
20.028
19.1307
18.3166
17.6109
17.0637
16.7795
16.9797
18.1371
21.2609
28.5083
44.5469
79.8872
160.957
374.096
1056.29
31.2775
29.6398
28.2734
27.0541
25.9157
24.8257
23.7712
22.7499
21.765
20.8213
19.9251
19.0797
18.2996
17.6021
17.0214
16.6278
16.5671
17.1427
18.979
23.3363
32.6988
51.8556
89.934
167.215
322.066
29.7443
28.2487
27.0446
25.9954
25.0244
24.0921
23.1809
22.2862
21.4108
20.5593
19.7388
18.9556
18.2216
17.543
16.9496
16.4858
16.242
16.3996
17.3152
19.6671
24.6835
34.4397
52.0912
82.4337
129.177
28.1549
26.7694
25.7031
24.8081
23.9974
23.2229
22.4608
21.7021
20.9468
20.199
19.4653
18.7532
18.072
17.4309
16.8491
16.3503
15.9939
15.8824
16.2091
17.3205
19.7989
24.5313
32.6638
45.2335
62.2315
26.5595
25.2485
24.2883
23.5226
22.855
22.2289
21.6133
20.9937
20.3661
19.7322
19.0975
18.469
17.8549
17.2645
16.711
16.2126
15.8045
15.5382
15.5203
15.9223
17.0132
19.1695
22.8193
28.2389
35.1217
25.0318
23.7604
22.8713
22.2026
21.6514
21.1537
20.6717
20.1851
19.685
19.1698
18.6424
18.1084
17.5749
17.0503
16.5446
16.0714
15.6516
15.3168
15.1204
15.1475
15.5186
16.3971
17.95
20.2674
23.2191
23.6905
22.4291
21.5759
20.9676
20.4979
20.0982
19.7254
19.3539
18.9701
18.5685
18.1488
17.7144
17.2705
16.8239
16.3829
15.9576
15.5615
15.2144
14.9441
14.7926
14.8167
15.0866
15.6708
16.6054
17.8466
22.7423
21.4713
20.6229
20.0367
19.6075
19.2656
18.9653
18.6777
18.3855
18.0794
17.7561
17.416
17.0623
16.6997
16.3346
15.9746
15.6291
15.3107
15.0352
14.8243
14.7056
14.7106
14.8691
15.1976
15.6839
22.5574
21.2744
20.4088
19.8088
19.3755
19.0429
18.7668
18.5179
18.2773
18.0337
17.7809
17.5171
17.2427
16.9604
16.6743
16.3899
16.1138
15.8542
15.6209
15.4258
15.2833
15.2085
15.2151
15.3115
15.4952
23.7964
22.5234
21.6351
20.9946
20.5153
20.1404
19.8323
19.5655
19.3229
19.0937
18.871
18.6511
18.4327
18.2158
18.0023
17.7952
17.599
17.4192
17.2618
17.1339
17.043
16.9966
17.0011
17.0604
17.1743
27.6373
26.4262
25.5365
24.8502
24.2982
23.8374
23.4425
23.0975
22.7915
22.5188
22.2751
22.057
21.861
21.6843
21.5256
21.3865
21.2704
21.181
21.1216
21.0955
21.1056
21.1542
21.2419
21.369
21.5349
36.2732
35.2096
34.3841
33.6872
33.0706
32.5031
31.9815
31.5051
31.074
30.6975
30.3808
30.1215
29.9122
29.7425
29.604
29.5045
29.4512
29.4469
29.4914
29.5831
29.719
29.8937
30.0973
30.3247
30.5811
54.3205
53.5314
52.9343
52.3369
51.7311
51.0573
50.3831
49.7277
49.0899
48.5392
48.1045
47.7759
47.5277
47.3221
47.1135
46.9757
46.9358
46.9886
47.1213
47.3215
47.5762
47.8654
48.1342
48.3727
48.651
93.6775
93.349
93.5126
93.2997
92.9713
92.0961
91.2017
90.2784
89.153
88.2586
87.6641
87.2729
86.9931
86.6959
86.0174
85.6187
85.5041
85.5709
85.7567
86.0266
86.3587
86.7355
87.1382
87.5568
87.994
194.561
194.744
198.184
199.173
200.582
198.345
196.936
195.576
192.261
190.331
189.557
189.184
188.977
188.847
188.736
188.716
188.8
188.975
189.222
189.528
189.88
190.268
190.682
191.113
191.556
581.49
581.192
581.421
583.259
599.13
583.078
580.224
579.505
578.937
578.533
578.277
578.113
578.016
577.975
577.984
578.046
578.16
578.32
578.521
578.755
579.018
579.301
579.6
579.908
580.221
3518.54
3518.54
3518.54
3518.54
3518.54
3518.54
3518.54
3518.54
3518.54
3518.54
3518.54
3518.54
3518.54
3518.54
3518.55
3518.55
3518.55
3518.55
3518.55
3518.55
3518.55
3518.55
3518.55
3518.55
3518.55
3518.56
3518.56
3518.55
570.506
599.706
564.224
179.844
198.267
193.355
78.51
88.3673
90.9685
41.7268
46.8703
49.8456
26.1241
28.7232
30.7263
19.1459
20.4217
21.5616
16.2366
16.8268
17.4152
15.7321
16.0098
16.3169
17.3258
17.5111
17.7286
21.7232
21.9375
22.1818
30.849
31.138
31.4556
48.9596
49.2988
49.6716
88.4178
88.8406
89.2744
191.973
192.374
192.773
580.512
580.784
581.05
3518.55
3518.55
3518.55
4549.18
3377.25
3377.25
3377.25
3377.25
3377.25
3377.25
3377.25
3377.25
3377.25
3377.25
3377.25
3377.25
3377.25
3377.25
3377.25
3377.25
3377.25
3377.25
3377.25
3377.25
3377.25
3377.25
3377.25
3377.25
3377.25
3377.25
3377.25
3377.25
3377.25
3377.25
3377.25
3377.25
3377.25
3377.25
3377.25
3377.25
3377.25
3377.25
3377.25
3377.25
3377.25
3377.25
3377.25
3377.25
3377.25
3377.25
3377.25
3377.25
3377.25
3377.25
3377.25
3377.25
3377.25
3377.25
3377.25
3377.25
3377.25
3377.25
3377.25
3377.25
3377.25
3377.25
3377.25
3377.25
3377.25
3377.25
3377.25
3377.25
3377.25
3377.25
3377.25
3377.25
3377.25
3377.25
3377.25
3377.25
3377.25
3377.25
4549.18
5721.11
1089.08
655.147
575.791
562.587
559.984
559.402
559.256
559.209
559.169
559.092
558.928
558.639
558.452
559.233
560.127
559.891
559.614
559.363
559.298
559.243
559.18
559.124
559.075
559.032
558.994
558.958
558.925
558.893
558.862
558.831
558.799
558.767
558.733
558.698
558.66
558.62
558.578
558.537
558.499
558.466
558.448
558.434
558.42
558.407
558.395
558.383
558.37
558.358
558.346
558.333
558.32
558.308
558.297
558.287
558.277
558.266
558.254
558.242
558.227
558.211
558.193
558.174
558.154
558.137
558.128
558.123
558.087
558.027
558.027
558.063
558.108
558.186
558.381
558.997
561.499
574.661
659.188
1129.35
5721.11
5721.11
993.919
381.588
245.994
208.993
194.536
190.223
188.735
188.182
187.948
187.82
187.723
187.639
187.605
187.731
187.888
187.895
187.861
187.802
187.746
187.683
187.617
187.552
187.491
187.434
187.381
187.329
187.279
187.23
187.183
187.135
187.087
187.038
186.987
186.935
186.88
186.823
186.765
186.708
186.653
186.616
186.588
186.565
186.543
186.522
186.502
186.482
186.463
186.443
186.424
186.403
186.383
186.364
186.347
186.332
186.316
186.3
186.282
186.263
186.243
186.22
186.196
186.171
186.147
186.128
186.117
186.111
186.108
186.127
186.192
186.319
186.577
187.156
188.58
192.421
203.964
243.518
375.847
960.521
5721.11
5721.11
949.942
335.41
178.373
126.036
105.843
97.3039
93.0504
91.2549
90.4397
90.0089
89.7504
89.5807
89.4737
89.4363
89.4338
89.428
89.4163
89.389
89.3425
89.2812
89.2126
89.1424
89.0734
89.0065
88.9417
88.8789
88.8177
88.758
88.6993
88.641
88.5825
88.5234
88.4632
88.4017
88.3386
88.2743
88.2101
88.1483
88.0922
88.0522
88.0204
87.9929
87.9672
87.9425
87.9182
87.8942
87.8704
87.8466
87.8226
87.7982
87.7742
87.7522
87.7328
87.7147
87.6965
87.678
87.6589
87.6392
87.6189
87.5983
87.578
87.5589
87.5426
87.5318
87.5314
87.5523
87.6153
87.7534
88.0218
88.5279
89.4788
91.3207
95.3236
104.451
124.464
176.149
327.584
948.25
5721.11
5721.11
946.358
319.729
159.785
101.074
76.088
64.5488
58.8813
56.0288
54.4854
53.4826
52.8283
52.4107
52.1449
51.991
51.9074
51.863
51.8385
51.8155
51.7755
51.7136
51.6381
51.5574
51.4768
51.3984
51.3225
51.2493
51.1785
51.1099
51.043
50.9771
50.9118
50.8467
50.7817
50.7167
50.6515
50.5867
50.5235
50.4633
50.417
50.3818
50.3539
50.3299
50.3075
50.2853
50.2627
50.2393
50.215
50.19
50.1647
50.1396
50.1157
50.0941
50.075
50.0573
50.0404
50.0242
50.0089
49.9948
49.9826
49.9735
49.9689
49.9701
49.9776
49.9935
50.0323
50.1257
50.3127
50.6626
51.2855
52.4236
54.4827
57.7379
63.7816
75.7622
100.833
158.545
319.649
947.063
5721.11
5721.11
945.876
316.713
152.153
91.8969
64.5048
50.9056
43.7929
39.9453
37.7857
36.5048
35.7061
35.1675
34.7186
34.4195
34.2541
34.1711
34.141
34.1379
34.1174
34.0565
33.9674
33.868
33.7692
33.6749
33.5858
33.5015
33.4216
33.3454
33.2724
33.2017
33.1328
33.0656
33.0004
32.9373
32.8765
32.8188
32.7657
32.7208
32.6901
32.67
32.6569
32.6475
32.6388
32.6283
32.6144
32.5964
32.5744
32.5496
32.5238
32.4984
32.4743
32.4524
32.4326
32.4147
32.3985
32.3841
32.372
32.3632
32.3591
32.362
32.3752
32.4034
32.4535
32.5368
32.6731
32.893
33.2382
33.8613
34.8389
36.4249
39.0391
43.4022
51.0574
65.1751
92.9189
153.207
317.979
946.914
5721.11
5721.11
945.748
315.948
149.864
87.8547
59.4305
44.6253
36.4701
31.8199
29.0959
27.4549
26.4352
25.775
25.3194
25.008
24.8023
24.6671
24.5743
24.5015
24.4296
24.3486
24.2593
24.1661
24.0728
23.9815
23.893
23.8073
23.7247
23.645
23.5679
23.4926
23.4186
23.3457
23.2745
23.2053
23.1381
23.0734
23.0124
22.9623
22.9213
22.8876
22.8592
22.8341
22.8106
22.7875
22.764
22.7398
22.7148
22.6894
22.6643
22.6404
22.6183
22.5984
22.5808
22.5657
22.5533
22.5442
22.5395
22.5407
22.5504
22.5724
22.6121
22.6777
22.781
22.94
23.1823
23.55
24.108
24.9676
26.2842
28.326
31.5483
36.7561
45.48
60.8091
89.6807
151.598
317.533
946.882
5721.11
5721.11
945.688
315.677
149.001
85.9793
57.0222
41.5095
32.6626
27.4223
24.2381
22.2627
21.0112
20.199
19.6559
19.2853
19.0284
18.8453
18.7079
18.596
18.4957
18.3992
18.3036
18.209
18.1158
18.0247
17.9359
17.8494
17.7656
17.6845
17.6059
17.529
17.4532
17.3786
17.3056
17.2347
17.1661
17.1001
17.0415
16.991
16.9472
16.9089
16.8749
16.844
16.8153
16.7881
16.7619
16.7364
16.7116
16.6876
16.6649
16.6438
16.6248
16.6081
16.5943
16.5835
16.5765
16.5743
16.5786
16.5917
16.6174
16.6608
16.7297
16.8351
16.9928
17.2262
17.5692
18.0722
18.8104
19.8992
21.5144
23.9386
27.6395
33.4286
42.8047
58.7705
88.0723
150.911
317.322
946.838
5721.11
5721.11
945.654
315.557
148.637
85.1766
55.8077
39.8603
30.5665
24.9131
21.3788
19.1255
17.6644
16.7002
16.051
15.6042
15.2891
15.0595
14.8844
14.743
14.6216
14.5117
14.4088
14.3106
14.2161
14.1247
14.0362
13.9505
13.8674
13.7871
13.7094
13.6334
13.559
13.4861
13.4151
13.3463
13.28
13.2195
13.1659
13.1183
13.076
13.0382
13.004
12.9727
12.9439
12.9169
12.8915
12.8675
12.8448
12.8236
12.804
12.7863
12.7708
12.758
12.7481
12.7419
12.7404
12.745
12.7578
12.7821
12.8225
12.8855
12.9806
13.1213
13.3265
13.6236
14.0514
14.6659
15.549
16.822
18.6687
21.3766
25.4143
31.5854
41.366
57.7187
87.3374
150.522
317.133
946.752
5721.11
5721.11
945.633
315.496
148.455
84.7543
55.0343
38.9029
29.348
23.42
19.6313
17.1602
15.5228
14.4215
13.6686
13.144
12.7698
12.4949
12.2853
12.1181
11.9784
11.8566
11.7467
11.6449
11.5492
11.4583
11.3713
11.2879
11.2076
11.1304
11.0558
10.9834
10.9131
10.8447
10.7786
10.7149
10.6562
10.6036
10.5565
10.5142
10.4761
10.4418
10.4105
10.382
10.3557
10.3313
10.3087
10.2877
10.2682
10.2502
10.234
10.2196
10.2075
10.198
10.1917
10.1893
10.1921
10.2018
10.221
10.2535
10.3046
10.3819
10.4962
10.6625
10.9023
11.2455
11.7343
12.4287
13.4145
14.817
16.8235
19.723
23.9828
30.4013
40.4468
57.0755
86.9812
150.212
316.895
946.611
5721.11
5721.11
945.591
315.46
148.355
84.5078
54.5437
38.3286
28.62
22.5114
18.5418
15.9052
14.1255
12.9073
12.0612
11.464
11.0337
10.716
10.4741
10.2833
10.1271
9.99446
9.87816
9.77348
9.6774
9.58794
9.50382
9.4242
9.34848
9.27624
9.20705
9.14057
9.07659
9.01504
8.95593
8.90163
8.85279
8.80884
8.76926
8.73358
8.70134
8.67214
8.64558
8.62131
8.59902
8.57847
8.55947
8.54192
8.52575
8.51101
8.4978
8.48631
8.47682
8.46975
8.46571
8.46561
8.47078
8.48316
8.5056
8.54216
8.59858
8.68306
8.80713
8.98702
9.24537
9.61393
10.137
10.8771
11.9226
13.4015
15.5031
18.5181
22.9142
29.4914
39.7261
56.6102
86.9415
149.918
316.579
946.398
5721.11
5721.11
945.403
315.384
148.275
84.3537
54.2485
37.9954
28.1945
21.967
17.8699
15.1099
13.2184
11.9037
10.9776
10.3156
9.83424
9.47694
9.20515
8.99254
8.82111
8.67862
8.55675
8.44988
8.35421
8.26716
8.18697
8.1124
8.04259
7.97687
7.91472
7.85575
7.79971
7.74643
7.69808
7.65458
7.61547
7.58029
7.54863
7.52008
7.4943
7.47095
7.44969
7.43025
7.41236
7.39583
7.3805
7.36625
7.35304
7.34093
7.33
7.32042
7.31246
7.30656
7.30333
7.3037
7.30905
7.32136
7.3435
7.3796
7.43554
7.51968
7.64381
7.82455
8.08515
8.45825
8.98938
9.74251
10.8083
12.3171
14.461
17.534
22.0071
28.6854
39.0541
56.1257
86.7901
149.564
316.158
946.061
5721.11
5721.11
946.295
315.534
148.261
84.2791
54.0995
37.8358
27.9791
21.6728
17.4865
14.6357
12.6581
11.2659
10.2729
9.55498
9.02825
8.63513
8.33589
8.10301
7.91738
7.76571
7.63876
7.5301
7.43526
7.35107
7.27534
7.20647
7.14327
7.08485
7.03052
6.97972
6.93266
6.89062
6.85299
6.81933
6.78924
6.76232
6.73818
6.71646
6.69686
6.6791
6.66289
6.64794
6.63405
6.62102
6.60872
6.59705
6.58597
6.57551
6.56576
6.55687
6.54911
6.54289
6.53881
6.53776
6.54105
6.55059
6.56912
6.60061
6.65075
6.72766
6.84291
7.01288
7.26071
7.61901
8.13373
8.86974
9.91927
11.4152
13.5536
16.6331
21.1317
27.8629
38.3223
55.5336
86.3897
149.328
315.832
945.798
5721.11
5721.11
945.647
315.39
148.229
84.3034
54.1759
37.8484
27.938
21.5741
17.3247
14.4081
12.3655
10.9123
9.8645
9.09919
8.53276
8.10743
7.7829
7.53094
7.33166
7.17096
7.03883
6.92815
6.83383
6.75219
6.68065
6.61722
6.56042
6.50915
6.46246
6.42067
6.38366
6.35105
6.32226
6.29682
6.2743
6.25431
6.2365
6.22053
6.20608
6.19288
6.18064
6.16912
6.15812
6.14745
6.137
6.12667
6.11643
6.1063
6.09637
6.08677
6.07777
6.06973
6.06321
6.05901
6.05832
6.06286
6.07513
6.09875
6.13897
6.20334
6.30273
6.45272
6.67562
7.00324
7.481
8.17376
9.17468
10.6191
12.7073
15.7453
20.2219
26.9665
37.4995
54.8893
86.1323
149.991
315.675
945.52
5721.11
5721.11
945.389
315.279
148.231
84.4245
54.468
38.0219
28.0541
21.6469
17.3544
14.3917
12.3014
10.8011
9.7088
8.9034
8.30209
7.84738
7.49893
7.22825
7.01506
6.84461
6.70629
6.59241
6.4973
6.41678
6.34809
6.28878
6.23702
6.1917
6.15241
6.11816
6.08832
6.06235
6.03974
6.02003
6.00277
5.98757
5.97407
5.96193
5.95081
5.94042
5.93049
5.92076
5.91103
5.90113
5.89093
5.88035
5.86938
5.85803
5.84639
5.8346
5.82289
5.81158
5.80117
5.79237
5.78618
5.78411
5.78831
5.80196
5.82965
5.87813
5.95721
6.0812
6.27087
6.55641
6.98165
7.61022
8.53499
9.89271
11.8881
14.8353
19.2369
25.9462
36.5236
54.1162
85.913
151.283
316.251
945.253
5721.11
5721.11
945.385
315.273
148.296
84.6214
54.838
38.3144
28.3155
21.887
17.5704
14.5785
12.4543
10.9174
9.78836
8.94812
8.31498
7.83213
7.45952
7.1689
6.94033
6.75822
6.61143
6.49194
6.39368
6.31204
6.24362
6.18578
6.13653
6.09438
6.05821
6.0271
6.00031
5.97725
5.95736
5.94016
5.92518
5.912
5.90022
5.88945
5.87935
5.86959
5.85987
5.8499
5.83947
5.8284
5.81657
5.80391
5.79042
5.77613
5.76115
5.74561
5.72972
5.71378
5.69821
5.6836
5.67082
5.66108
5.65621
5.65883
5.67285
5.70403
5.76089
5.85607
6.00829
6.24525
6.608
7.15741
7.9839
9.22351
11.0836
13.8859
18.1488
24.7493
35.2912
53.0078
85.3064
152.282
323.249
945.658
5721.11
5721.11
945.393
315.306
148.43
84.9145
55.2184
38.7247
28.7414
22.3169
17.9927
14.9842
12.8355
11.2675
10.1044
9.23137
8.56657
8.05416
7.65549
7.34267
7.09506
6.89701
6.73712
6.60775
6.50217
6.41521
6.34249
6.28095
6.22853
6.18366
6.14513
6.112
6.08348
6.05892
6.03773
6.01938
6.00331
5.98903
5.97606
5.96397
5.95236
5.94083
5.92902
5.91659
5.90329
5.88892
5.87337
5.85663
5.8387
5.81966
5.79963
5.77875
5.75724
5.73537
5.71349
5.6921
5.6719
5.65388
5.63949
5.63087
5.63119
5.6452
5.68003
5.74644
5.86067
6.04726
6.3433
6.80534
7.52046
8.62185
10.3152
12.9248
16.977
23.3661
33.7222
51.3143
83.5912
150.691
321.941
944.646
5721.11
5721.11
945.379
315.387
148.706
85.4779
55.8168
39.3594
29.4064
22.9958
18.6667
15.6475
13.4774
11.8803
10.6821
9.77007
9.06566
8.51448
8.08174
7.73997
7.46779
7.24889
7.07157
6.92669
6.80652
6.7055
6.61988
6.54675
6.48387
6.42956
6.38252
6.34173
6.30637
6.27574
6.24918
6.22601
6.20556
6.18716
6.17022
6.15422
6.13866
6.12307
6.10695
6.08986
6.07146
6.05157
6.03013
6.00718
5.98281
5.95715
5.93034
5.90257
5.87404
5.845
5.81576
5.78673
5.75848
5.7318
5.70781
5.68821
5.6755
5.67346
5.68787
5.72759
5.80624
5.94482
6.17604
6.55126
7.1507
8.10051
9.60034
11.9705
15.7371
21.7995
31.7929
48.9704
80.6607
146.457
312.686
942.734
5721.11
5721.11
945.391
315.607
149.301
86.66
56.8446
40.3559
30.4278
24.0344
19.7031
16.654
14.4397
12.7911
11.536
10.5696
9.81979
9.23126
8.7645
8.39067
8.08933
7.84308
7.63848
7.46626
7.3201
7.19496
7.08691
6.9929
6.91052
6.83793
6.77367
6.7166
6.66583
6.62064
6.58044
6.5447
6.51292
6.48456
6.45904
6.43566
6.41356
6.3918
6.3694
6.34559
6.31988
6.29216
6.26251
6.23116
6.1983
6.16415
6.1289
6.09274
6.05587
6.01853
5.98098
5.94357
5.90674
5.87111
5.83757
5.80742
5.78258
5.76604
5.76234
5.77862
5.826
5.92168
6.09347
6.38603
6.87114
7.66461
8.95438
11.0486
14.4623
20.0848
29.5383
46.0413
76.7339
141.037
308.713
940.836
5721.11
5721.11
945.55
316.172
150.48
88.3842
58.4787
42.0035
32.043
25.5921
21.1879
18.0553
15.7496
14.0161
12.695
11.6726
10.8698
10.2316
9.71862
9.29972
8.95174
8.65961
8.41197
8.2
8.01696
7.8576
7.71782
7.59438
7.48466
7.3866
7.29856
7.2192
7.14749
7.08258
7.02378
6.97051
6.92225
6.87849
6.83867
6.80208
6.76784
6.73477
6.7016
6.66714
6.63069
6.59209
6.55158
6.5095
6.46616
6.42178
6.37658
6.33072
6.28439
6.23778
6.19112
6.14468
6.09882
6.05401
6.01094
5.97061
5.93451
5.90495
5.88552
5.8819
5.90237
5.96081
6.08008
6.29769
6.67555
7.31622
8.39059
10.1858
13.1917
18.2666
26.9841
42.5732
72.4321
136.54
304.865
938.115
5721.11
5721.11
946.222
317.558
153.331
91.2998
61.2141
44.5405
34.3838
27.7454
23.1609
19.8659
17.4391
15.6091
14.2011
13.099
12.22
11.5062
10.9173
10.426
10.0115
9.65816
9.3542
9.09047
8.85989
8.65688
8.477
8.3167
8.17308
8.0438
7.92696
7.82101
7.72468
7.63692
7.55684
7.48365
7.41662
7.35504
7.29806
7.24469
7.19373
7.14378
7.09352
7.04226
6.98988
6.9365
6.88228
6.82735
6.77186
6.71593
6.65966
6.60318
6.54659
6.49005
6.4337
6.37776
6.3225
6.26828
6.21565
6.16536
6.1186
6.07718
6.04401
6.023
6.02046
6.04727
6.12154
6.27367
6.55505
7.05309
7.91727
9.40539
11.9681
16.4112
24.3437
39.0265
67.9314
131.304
299.453
933.627
5721.11
5721.11
948.716
323.29
160.253
96.2082
65.2078
47.9791
37.403
30.4226
25.5887
22.1138
19.5346
17.5663
16.0273
14.7973
13.7986
12.9754
12.2877
11.7066
11.2104
10.7828
10.4113
10.0863
9.80006
9.54657
9.32084
9.11884
8.93728
8.77346
8.62515
8.49045
8.36778
8.25576
8.15314
8.05869
7.9712
7.88935
7.81162
7.73648
7.66301
7.59088
7.51984
7.44962
7.38
7.31084
7.24204
7.17354
7.1053
7.03733
6.9696
6.90215
6.83501
6.76825
6.70197
6.63628
6.5714
6.50761
6.4453
6.3851
6.32796
6.27535
6.22957
6.19299
6.17056
6.17049
6.20668
6.3029
6.50017
6.86991
7.53731
8.72382
10.8263
14.612
21.6233
35.041
62.2886
123.688
290.041
924.427
5721.12
5721.11
948.793
331.772
164.853
100.16
68.919
51.4329
40.5993
33.3924
28.342
24.6531
21.8689
19.7108
17.9997
16.6164
15.4798
14.5326
13.7336
13.0522
12.4658
11.9572
11.5131
11.123
10.7786
10.4729
10.2002
9.95594
9.73628
9.53806
9.35853
9.19525
9.04608
8.90907
8.78216
8.66315
8.55025
8.44251
8.33945
8.24054
8.14521
8.05295
7.96333
7.87595
7.79047
7.70659
7.62408
7.54273
7.46237
7.38286
7.30411
7.22604
7.14861
7.07181
6.99567
6.92025
6.84568
6.77217
6.70005
6.62983
6.56237
6.49907
6.44081
6.38976
6.34951
6.3261
6.32986
6.37869
6.50401
6.76158
7.25113
8.1528
9.79589
12.8719
18.7361
30.2665
54.2967
109.957
265.946
885.362
5721.13
1084.2
434.745
223.778
135.859
92.3888
67.963
52.862
42.8553
35.8714
30.7977
26.9901
24.0541
21.7375
19.8733
18.3478
17.0812
16.0164
15.1114
14.3349
13.6635
13.0794
12.5688
12.1202
11.7239
11.3719
11.0576
10.7759
10.5222
10.2928
10.0838
9.89182
9.7138
9.54789
9.39285
9.24749
9.1106
8.98111
8.85812
8.74082
8.6285
8.5205
8.41623
8.31518
8.21689
8.12096
8.02703
7.93479
7.84398
7.75437
7.66578
7.57806
7.49111
7.40485
7.31925
7.23432
7.15015
7.06687
6.98478
6.90435
6.82636
6.75201
6.68158
6.6167
6.55998
6.51579
6.49158
6.5004
6.56536
6.72802
7.06374
7.71053
8.92366
11.253
15.7559
24.6015
42.5426
80.9422
170.414
407.399
1159.39
358.729
226.734
152.038
108.432
81.537
63.9712
51.9446
43.3838
37.0841
32.3139
28.6113
25.6756
23.3059
21.3644
19.7534
18.4013
17.2549
16.2741
15.4283
14.6942
14.0567
13.4991
13.0085
12.5743
12.1873
11.8398
11.5256
11.2403
10.9803
10.7427
10.5245
10.3234
10.1371
9.96372
9.80178
9.64981
9.50656
9.37095
9.24199
9.11878
9.00053
8.88656
8.77625
8.66905
8.56448
8.46211
8.36156
8.2625
8.16464
8.06775
7.97163
7.87614
7.78115
7.6866
7.59246
7.49876
7.40566
7.31343
7.2226
7.13424
7.0483
6.96546
6.88686
6.81432
6.7509
6.70185
6.67633
6.69065
6.77429
6.98105
7.40995
8.24408
9.87157
13.0324
19.1529
31.0596
54.4575
101.029
194.315
374.475
161.948
128.954
102.877
82.9742
67.9511
56.6363
48.0444
41.4333
36.2688
32.1722
28.8746
26.1836
23.9601
22.1025
20.5351
19.2011
18.0566
17.0677
16.2082
15.4575
14.7988
14.2182
13.7043
13.2474
12.8395
12.4736
12.1438
11.8453
11.5741
11.3265
11.0997
10.8909
10.6979
10.5186
10.3513
10.1944
10.0465
9.90648
9.77318
9.64562
9.52295
9.40442