/*--------------------------------*- C++ -*----------------------------------*\
| =========                 |                                                 |
| \\      /  F ield         | OpenFOAM: The Open Source CFD Toolbox           |
|  \\    /   O peration     | Version:  v2012                                 |
|   \\  /    A nd           | Website:  www.openfoam.com                      |
|    \\/     M anipulation  |                                                 |
\*---------------------------------------------------------------------------*/
FoamFile
{
    version     2.0;
    format      ascii;
    class       volScalarField;
    location    "2000";
    object      p;
}
// * * * * * * * * * * * * * * * * * * * * * * * * * * * * * * * * * * * * * //

dimensions      [0 2 -2 0 0 0 0];


internalField   nonuniform List<scalar> 
6502
(
3.94192
3.58191
3.38072
3.29846
3.26544
3.26532
3.29811
3.38017
3.58117
3.94108
3.40989
3.33302
3.28114
3.2528
3.23506
3.23493
3.25241
3.28052
3.33226
3.40908
3.13028
3.14161
3.15269
3.15508
3.15324
3.15308
3.15461
3.15194
3.14067
3.12926
3.00952
3.02656
3.04668
3.05609
3.0598
3.05959
3.05546
3.0457
3.0253
3.00817
2.92352
2.93835
2.95712
2.96824
2.97308
2.97276
2.96733
2.95574
2.93661
2.92172
2.84967
2.86066
2.87539
2.88738
2.8927
2.89225
2.88613
2.87342
2.85825
2.84723
2.78649
2.7936
2.8034
2.81331
2.8181
2.81747
2.81149
2.80055
2.79028
2.78317
2.72929
2.73377
2.73979
2.74582
2.74826
2.7473
2.743
2.73572
2.72921
2.72477
2.67488
2.67775
2.68148
2.68528
2.68544
2.68385
2.68117
2.67586
2.6715
2.66868
2.62223
2.62411
2.62639
2.62898
2.62844
2.62628
2.62346
2.61873
2.61556
2.61375
2.57103
2.5723
2.5735
2.57476
2.57349
2.57077
2.56738
2.56304
2.56061
2.55944
2.52111
2.52201
2.52235
2.52207
2.51972
2.51623
2.51219
2.50808
2.50606
2.50531
2.47249
2.47318
2.47285
2.47108
2.46756
2.463
2.45779
2.45335
2.45136
2.45091
2.42531
2.42593
2.42508
2.4219
2.41689
2.41071
2.4037
2.39829
2.39596
2.39566
2.37985
2.38049
2.37916
2.37452
2.3676
2.35909
2.34949
2.34233
2.33923
2.33895
2.33647
2.33723
2.33542
2.32912
2.31981
2.30815
2.29489
2.28491
2.28036
2.27989
2.29566
2.29663
2.29437
2.28623
2.27405
2.25819
2.23982
2.22547
2.21828
2.21705
2.258
2.25932
2.25671
2.24669
2.23127
2.20989
2.18475
2.1637
2.15141
2.14817
2.22418
2.22599
2.22321
2.21144
2.19262
2.16488
2.13187
2.10069
2.07798
2.07015
2.1949
2.19734
2.19479
2.18197
2.16036
2.12749
2.08635
2.04096
1.99614
1.96756
2.17069
2.17392
2.17218
2.1598
2.13723
2.10242
2.05748
2.0039
1.94338
1.88287
2.15204
2.15613
2.15576
2.1454
2.12494
2.0936
2.05557
2.01476
1.97849
1.95234
2.13904
2.14391
2.1451
2.13749
2.12104
2.09586
2.06602
2.03728
2.01492
2.00066
2.13118
2.1366
2.13914
2.13404
2.12125
2.10107
2.07521
2.05127
2.03169
2.01837
2.12778
2.13341
2.13694
2.13374
2.12362
2.10706
2.08473
2.06291
2.04448
2.03167
2.12803
2.13363
2.13784
2.13613
2.1281
2.1142
2.0955
2.07537
2.05767
2.04451
2.1311
2.13665
2.14131
2.14076
2.13445
2.12246
2.10584
2.08751
2.06981
2.05548
2.13635
2.14187
2.14679
2.14712
2.14219
2.13176
2.11624
2.09867
2.0812
2.06557
2.14334
2.14879
2.15383
2.15482
2.15103
2.142
2.12797
2.11025
2.09231
2.0758
2.15165
2.15697
2.16204
2.16356
2.16073
2.15286
2.14002
2.12315
2.1049
2.0872
2.16092
2.16606
2.1711
2.17305
2.17107
2.16432
2.15258
2.13661
2.11826
2.09973
2.17084
2.17578
2.18073
2.18303
2.18184
2.1762
2.16566
2.15068
2.13256
2.11357
2.18114
2.18586
2.19068
2.19326
2.1928
2.18829
2.17905
2.16527
2.14795
2.12881
2.19161
2.19608
2.20074
2.20353
2.20374
2.20032
2.19248
2.1801
2.16387
2.14514
2.20205
2.20626
2.21072
2.21367
2.21446
2.2121
2.20569
2.1949
2.18008
2.16225
2.21231
2.21624
2.22047
2.22351
2.2248
2.22341
2.21844
2.20935
2.19622
2.17975
2.22226
2.22589
2.22987
2.23293
2.23462
2.23411
2.23049
2.22315
2.21192
2.19717
2.23179
2.23512
2.23882
2.24184
2.24383
2.24406
2.24169
2.23604
2.22679
2.21404
2.24082
2.24385
2.24725
2.25017
2.25236
2.25319
2.25191
2.24784
2.24054
2.22993
2.2493
2.25202
2.25512
2.2579
2.26019
2.26147
2.26109
2.25842
2.25296
2.24449
2.25714
2.2596
2.26239
2.26499
2.2673
2.2689
2.26923
2.26775
2.26394
2.25749
2.26431
2.2666
2.26908
2.27147
2.27372
2.27551
2.27637
2.27584
2.27344
2.26883
2.27085
2.27303
2.2752
2.27735
2.27949
2.28135
2.28258
2.28278
2.28153
2.27849
2.2769
2.27879
2.28066
2.28259
2.28458
2.28645
2.28789
2.28861
2.28824
2.28648
2.2825
2.28393
2.28553
2.28726
2.2891
2.29089
2.29244
2.29349
2.29377
2.29301
2.28738
2.2886
2.28997
2.29149
2.29314
2.29482
2.29639
2.29764
2.29837
2.29835
2.29174
2.2928
2.29398
2.2953
2.29677
2.29831
2.29982
2.30117
2.30219
2.3027
2.29563
2.29655
2.2976
2.29875
2.30003
2.30141
2.30283
2.30419
2.30538
2.30625
2.29963
2.30021
2.30101
2.30193
2.30299
2.30419
2.30549
2.30681
2.30807
2.30917
2.30332
2.30357
2.30414
2.30481
2.30567
2.3067
2.30786
2.30911
2.31039
2.31162
2.30626
2.30645
2.30681
2.30736
2.30806
2.30895
2.30999
2.31116
2.31242
2.31372
2.30895
2.30898
2.30919
2.30964
2.3102
2.31098
2.31192
2.31301
2.31424
2.31557
2.3115
2.3113
2.31137
2.31165
2.31211
2.31281
2.31367
2.31471
2.31591
2.31724
2.31358
2.31325
2.31317
2.3134
2.31385
2.31445
2.31526
2.31626
2.31743
2.31877
2.31502
2.31477
2.31466
2.31487
2.31531
2.31588
2.31666
2.31765
2.31882
2.32017
2.31626
2.316
2.31588
2.31604
2.31644
2.31703
2.31784
2.31885
2.32005
2.32143
2.31712
2.31684
2.31671
2.31686
2.31726
2.31789
2.31876
2.31984
2.3211
2.32251
2.31752
2.31726
2.31714
2.31731
2.31773
2.31842
2.3194
2.3206
2.32191
2.32337
2.31746
2.31724
2.31714
2.31729
2.31769
2.31839
2.31953
2.32097
2.32244
2.32409
2.31718
2.31698
2.31686
2.31695
2.31726
2.3178
2.31942
2.32137
2.32281
2.32449
1.8316
1.89666
1.94849
1.9772
1.99482
2.00745
2.01648
2.02346
2.02925
2.03413
2.03838
2.04214
2.04547
2.0484
2.05092
2.05301
2.05464
2.05579
2.05646
2.05671
2.05659
2.0562
2.05567
2.05512
2.05471
1.94185
1.9588
1.97552
1.98832
1.99956
2.00909
2.01687
2.0235
2.02889
2.03343
2.03746
2.04106
2.04429
2.04713
2.0496
2.05165
2.05328
2.05447
2.05523
2.0556
2.05561
2.05532
2.05487
2.05431
2.05379
1.99279
1.99372
1.99764
2.00299
2.00862
2.01396
2.01934
2.0244
2.02897
2.03322
2.03695
2.04029
2.04334
2.04608
2.04849
2.05053
2.05218
2.05341
2.05424
2.05468
2.05476
2.05456
2.05413
2.05349
2.05282
2.01166
2.01068
2.01179
2.01394
2.01683
2.0201
2.02342
2.02671
2.03017
2.0336
2.03682
2.03993
2.04283
2.0455
2.04789
2.04995
2.05164
2.05293
2.05382
2.0543
2.05441
2.05419
2.05368
2.05285
2.05198
2.02518
2.02274
2.02201
2.02223
2.02325
2.02489
2.02694
2.02923
2.03169
2.03425
2.03697
2.03972
2.04243
2.04503
2.04741
2.04951
2.05129
2.05268
2.05366
2.05421
2.05434
2.0541
2.05349
2.05246
2.05129
2.03662
2.03219
2.02972
2.02854
2.02827
2.02871
2.0297
2.0311
2.03285
2.03492
2.03722
2.03962
2.0421
2.0446
2.04697
2.04915
2.05105
2.05258
2.0537
2.05436
2.05457
2.05435
2.0537
2.0526
2.05151
2.04581
2.03961
2.03569
2.03338
2.03215
2.03171
2.0319
2.03261
2.03378
2.03532
2.03718
2.03935
2.04171
2.04413
2.04654
2.04883
2.05089
2.05262
2.05393
2.05476
2.05509
2.05493
2.0543
2.05317
2.05215
2.05411
2.04622
2.04087
2.03742
2.03529
2.03411
2.03364
2.03378
2.03444
2.03557
2.03711
2.03902
2.04124
2.04364
2.04612
2.04856
2.05083
2.0528
2.05436
2.05542
2.05593
2.05589
2.05527
2.05404
2.05274
2.06272
2.05306
2.0461
2.04134
2.03821
2.03625
2.03516
2.03478
2.03501
2.03578
2.03704
2.03876
2.04085
2.04324
2.04581
2.04842
2.05094
2.05321
2.05508
2.05643
2.05719
2.05732
2.05679
2.05553
2.05412
2.07236
2.0608
2.05204
2.04577
2.04145
2.03858
2.03681
2.03589
2.03568
2.03611
2.03711
2.03865
2.04065
2.04304
2.0457
2.04852
2.05131
2.05392
2.05616
2.05788
2.05896
2.05934
2.05896
2.05773
2.05628
2.08337
2.06994
2.05927
2.05129
2.04556
2.04159
2.03898
2.03743
2.03674
2.0368
2.03753
2.03889
2.0408
2.04319
2.04597
2.04899
2.0521
2.05508
2.05775
2.05991
2.06139
2.06209
2.06193
2.06079
2.05934
2.09596
2.08081
2.06823
2.0584
2.05105
2.04577
2.04213
2.03979
2.03852
2.03815
2.03858
2.03973
2.04153
2.04393
2.04681
2.05005
2.05347
2.05686
2.05999
2.06267
2.06466
2.06576
2.06589
2.06491
2.06351
2.11028
2.09367
2.07927
2.06754
2.05842
2.05161
2.04673
2.04343
2.04143
2.04052
2.04056
2.04146
2.04313
2.04551
2.04848
2.05193
2.05568
2.05948
2.06307
2.06635
2.06898
2.07054
2.07103
2.07031
2.06903
2.12621
2.10852
2.09255
2.079
2.06805
2.05956
2.05326
2.0488
2.04589
2.0443
2.04385
2.04441
2.0459
2.04822
2.05127
2.05492
2.059
2.06329
2.06745
2.07121
2.07437
2.07657
2.07755
2.07722
2.07618
2.14347
2.12521
2.10806
2.09292
2.0802
2.06998
2.06211
2.05631
2.05232
2.04989
2.04881
2.04894
2.05016
2.05236
2.05544
2.05926
2.06365
2.06839
2.07319
2.07756
2.08142
2.08426
2.08574
2.08594
2.08526
2.16167
2.1434
2.12558
2.10923
2.09497
2.08308
2.07358
2.06633
2.0611
2.05767
2.05582
2.05538
2.05622
2.05822
2.06126
2.0652
2.06985
2.07498
2.08027
2.08545
2.09015
2.09372
2.09594
2.09676
2.09656
2.18031
2.16261
2.1447
2.12764
2.11221
2.09887
2.08782
2.07908
2.0725
2.06792
2.06514
2.064
2.06434
2.06603
2.06895
2.07294
2.07782
2.08335
2.08922
2.09503
2.10032
2.10497
2.10828
2.10984
2.11032
2.19883
2.18226
2.16486
2.14768
2.13156
2.11712
2.10474
2.09458
2.08664
2.08082
2.07698
2.07498
2.07467
2.07591
2.07858
2.08253
2.08757
2.09345
2.09988
2.10642
2.11263
2.11816
2.1225
2.12524
2.12669
2.21669
2.2017
2.18539
2.16869
2.15246
2.1374
2.12403
2.11266
2.10343
2.09634
2.09136
2.08836
2.08723
2.08786
2.09011
2.09386
2.09892
2.10506
2.11198
2.11929
2.12647
2.13304
2.13854
2.14279
2.14558
2.23339
2.22032
2.20558
2.18994
2.17419
2.15906
2.14514
2.13289
2.12257
2.1143
2.10813
2.10402
2.10192
2.10172
2.10334
2.10664
2.11149
2.11769
2.12496
2.13293
2.1411
2.14891
2.15588
2.16205
2.16653
2.24856
2.2376
2.22477
2.21066
2.19595
2.18133
2.1674
2.15467
2.14354
2.13427
2.12697
2.12171
2.11848
2.11724
2.11794
2.12048
2.12477
2.13065
2.13791
2.14626
2.15527
2.16441
2.17332
2.18235
2.1893
2.26197
2.25315
2.24241
2.23017
2.21693
2.20325
2.18997
2.17737
2.16574
2.15569
2.14741
2.14102
2.13657
2.13409
2.13356
2.13495
2.13818
2.14316
2.14976
2.1578
2.16701
2.17707
2.18812
2.20177
2.21526
2.27351
2.26674
2.25813
2.24793
2.23651
2.22433
2.21192
2.19974
2.18826
2.17787
2.16882
2.16144
2.15579
2.15194
2.14993
2.14975
2.15135
2.15466
2.15959
2.16601
2.17377
2.18271
2.1933
2.20867
2.23087
2.28311
2.27819
2.2716
2.26345
2.25397
2.24349
2.23239
2.22115
2.21015
2.19992
2.19061
2.18235
2.17553
2.17032
2.16674
2.16472
2.16424
2.16517
2.16731
2.17032
2.17366
2.17636
2.17729
2.17544
2.16168
2.29096
2.28762
2.28284
2.27662
2.26908
2.26041
2.25091
2.24093
2.2308
2.22076
2.21178
2.20349
2.19558
2.18903
2.18394
2.18013
2.17754
2.17603
2.17535
2.17512
2.17473
2.1733
2.16962
2.16244
2.14829
2.29735
2.29531
2.29208
2.28761
2.28189
2.27504
2.26724
2.25872
2.24977
2.24064
2.23171
2.22305
2.21526
2.20832
2.20183
2.19631
2.19184
2.18819
2.18512
2.1823
2.17923
2.17531
2.16976
2.1618
2.15029
2.3025
2.30149
2.29955
2.29657
2.2925
2.28736
2.28124
2.27427
2.26665
2.25858
2.25031
2.24211
2.23416
2.22654
2.21963
2.21338
2.20739
2.20186
2.19691
2.19212
2.18717
2.18165
2.17512
2.1672
2.15771
2.30663
2.30641
2.3055
2.30375
2.30109
2.29748
2.29292
2.28748
2.28127
2.27443
2.26714
2.2596
2.25195
2.24437
2.23701
2.22985
2.22331
2.21705
2.21071
2.20445
2.19809
2.19153
2.1845
2.17679
2.16849
2.30995
2.31032
2.31019
2.30943
2.30793
2.30561
2.30245
2.29842
2.29359
2.28803
2.28184
2.27517
2.26816
2.26094
2.25363
2.24632
2.23919
2.23214
2.225
2.21818
2.2113
2.20401
2.19661
2.18902
2.18123
2.31267
2.31346
2.31391
2.31389
2.31331
2.31205
2.31006
2.30728
2.30371
2.29937
2.29431
2.28863
2.28242
2.27579
2.26886
2.26171
2.25444
2.24712
2.23972
2.23238
2.22501
2.21745
2.2098
2.20228
2.19491
2.31494
2.31601
2.31687
2.31742
2.31753
2.31711
2.31606
2.31432
2.31184
2.3086
2.30461
2.29992
2.29458
2.28868
2.28231
2.27556
2.26851
2.26125
2.25382
2.24627
2.23867
2.23099
2.22327
2.21566
2.20827
2.31689
2.31815
2.3193
2.32024
2.32086
2.32107
2.32076
2.31984
2.31825
2.31594
2.3129
2.30912
2.30463
2.2995
2.29378
2.28755
2.2809
2.2739
2.26663
2.25915
2.25154
2.24384
2.23612
2.22845
2.22095
2.31863
2.32001
2.32134
2.32255
2.32354
2.3242
2.32443
2.32414
2.32325
2.32169
2.31942
2.31642
2.3127
2.30828
2.3032
2.29754
2.29135
2.28472
2.27772
2.27044
2.26296
2.25534
2.24766
2.24
2.23246
2.3202
2.32165
2.32311
2.3245
2.32573
2.3267
2.32731
2.32748
2.3271
2.32612
2.32446
2.32209
2.319
2.31519
2.31069
2.30554
2.29982
2.29358
2.28691
2.27988
2.27258
2.26509
2.25749
2.24986
2.2423
2.32163
2.32314
2.32468
2.32619
2.32757
2.32874
2.32961
2.33009
2.33008
2.3295
2.32828
2.32639
2.32378
2.32046
2.31643
2.31173
2.30641
2.30054
2.29417
2.28739
2.28029
2.27295
2.26545
2.25788
2.25032
2.32293
2.32449
2.3261
2.32768
2.32916
2.33046
2.33149
2.33216
2.33239
2.33208
2.33118
2.32961
2.32735
2.32439
2.32071
2.31636
2.31136
2.30577
2.29966
2.2931
2.28617
2.27896
2.27156
2.26404
2.25649
2.32407
2.3257
2.32738
2.32903
2.33058
2.33196
2.33309
2.33389
2.33426
2.33413
2.33341
2.33206
2.33003
2.32729
2.32386
2.31973
2.31495
2.30957
2.30364
2.29724
2.29044
2.28332
2.27598
2.26849
2.26094
2.32503
2.32678
2.32855
2.33028
2.3319
2.33335
2.33458
2.33547
2.33595
2.33593
2.33532
2.33409
2.33218
2.32958
2.32628
2.32228
2.31762
2.31235
2.30651
2.30018
2.29344
2.28636
2.27903
2.27152
2.26393
2.3259
2.32787
2.32983
2.33168
2.33345
2.33508
2.33649
2.33752
2.33815
2.33824
2.33772
2.33658
2.33476
2.33222
2.32897
2.32501
2.32036
2.31509
2.30923
2.30286
2.29605
2.28889
2.28145
2.27383
2.2661
2.32622
2.32868
2.33137
2.33338
2.33534
2.33717
2.3384
2.33936
2.3402
2.34051
2.34018
2.33915
2.3374
2.3349
2.33166
2.32768
2.32299
2.31765
2.3117
2.30521
2.29827
2.29096
2.28336
2.27555
2.26764
2.10949
2.09442
2.0908
2.12545
2.11111
2.10482
2.13655
2.12626
2.12049
2.14787
2.14001
2.13457
2.16056
2.15393
2.14864
2.17405
2.16796
2.16271
2.18806
2.18202
2.17668
2.2015
2.19548
2.18987
2.21414
2.20806
2.20224
2.22559
2.21937
2.21337
2.23535
2.22903
2.22288
2.24333
2.23692
2.23066
2.24946
2.24299
2.23662
2.25388
2.24734
2.24089
2.25681
2.2502
2.24366
2.25883
2.25208
2.24539
2.26019
2.25326
2.24641
2.13336
2.1333
2.13319
2.13306
2.13293
2.13282
2.13273
2.13266
2.13263
2.13262
2.13264
2.13266
2.13265
2.13256
2.13272
2.13348
2.13443
2.13465
2.13483
2.13503
2.13536
2.13577
2.13623
2.13674
2.13728
2.13786
2.13847
2.13911
2.13978
2.14047
2.14119
2.14194
2.14272
2.14352
2.14435
2.14519
2.14606
2.14695
2.14785
2.14877
2.1497
2.15063
2.15157
2.15252
2.15346
2.15442
2.15537
2.15632
2.15727
2.15822
2.15917
2.16011
2.16103
2.16195
2.16285
2.16374
2.16462
2.16547
2.16631
2.16713
2.16792
2.16868
2.16941
2.1701
2.17072
2.17124
2.17166
2.17239
2.17359
2.17389
2.17404
2.17425
2.17444
2.17457
2.17464
2.17463
2.17457
2.17447
2.17436
2.17426
2.1335
2.13343
2.13333
2.13322
2.13311
2.13301
2.13294
2.13289
2.13288
2.13289
2.13293
2.133
2.13311
2.13325
2.13348
2.13382
2.1342
2.13451
2.13482
2.13517
2.13556
2.13598
2.13645
2.13695
2.13748
2.13804
2.13864
2.13926
2.13992
2.1406
2.14131
2.14204
2.14281
2.14359
2.14441
2.14524
2.14609
2.14697
2.14786
2.14876
2.14968
2.1506
2.15153
2.15246
2.1534
2.15434
2.15529
2.15623
2.15717
2.15811
2.15905
2.15998
2.1609
2.16181
2.1627
2.16358
2.16445
2.1653
2.16613
2.16693
2.16772
2.16848
2.1692
2.1699
2.17055
2.17116
2.17172
2.17232
2.17291
2.17334
2.17367
2.17395
2.17416
2.17432
2.1744
2.17443
2.17439
2.17431
2.17419
2.17407
2.13371
2.13359
2.13347
2.13337
2.13328
2.1332
2.13315
2.13312
2.13312
2.13314
2.1332
2.13329
2.13341
2.13357
2.1338
2.13407
2.13438
2.1347
2.13502
2.13538
2.13577
2.13619
2.13664
2.13713
2.13765
2.1382
2.13878
2.13939
2.14003
2.1407
2.14139
2.14212
2.14287
2.14364
2.14444
2.14526
2.1461
2.14696
2.14784
2.14873
2.14964
2.15055
2.15147
2.15239
2.15332
2.15426
2.15519
2.15613
2.15706
2.15799
2.15892
2.15984
2.16076
2.16166
2.16255
2.16342
2.16428
2.16512
2.16594
2.16675
2.16752
2.16827
2.16899
2.16968
2.17033
2.17095
2.17153
2.17209
2.17262
2.17306
2.17342
2.17371
2.17394
2.17411
2.17422
2.17426
2.17424
2.17416
2.17403
2.17388
2.13391
2.13375
2.1336
2.13348
2.13339
2.13332
2.13327
2.13326
2.13326
2.1333
2.13337
2.13347
2.1336
2.13377
2.13397
2.13423
2.13451
2.13481
2.13514
2.13549
2.13587
2.13629
2.13673
2.13721
2.13772
2.13826
2.13883
2.13944
2.14007
2.14072
2.14141
2.14212
2.14286
2.14362
2.14441
2.14522
2.14606
2.14691
2.14779
2.14868
2.14958
2.15049
2.1514
2.15232
2.15324
2.15417
2.1551
2.15603
2.15696
2.15789
2.15882
2.15975
2.16067
2.16156
2.16244
2.16331
2.16416
2.165
2.16581
2.16661
2.16739
2.16813
2.16885
2.16954
2.1702
2.17082
2.1714
2.17196
2.17247
2.17291
2.17329
2.17361
2.17385
2.17404
2.17416
2.17421
2.1742
2.17412
2.17395
2.17377
2.13407
2.13389
2.1337
2.13356
2.13346
2.13339
2.13334
2.13333
2.13334
2.13339
2.13346
2.13356
2.1337
2.13386
2.13406
2.1343
2.13457
2.13486
2.13518
2.13553
2.1359
2.13631
2.13675
2.13722
2.13773
2.13826
2.13883
2.13942
2.14004
2.14069
2.14137
2.14207
2.1428
2.14355
2.14433
2.14513
2.14597
2.14684
2.14773
2.14863
2.14952
2.15041
2.15131
2.15222
2.15314
2.15407
2.155
2.15594
2.15687
2.15781
2.15873
2.15965
2.16055
2.16145
2.16233
2.1632
2.16405
2.16489
2.16571
2.16651
2.16728
2.16803
2.16875
2.16945
2.17011
2.17073
2.17133
2.17188
2.1724
2.17285
2.17325
2.17358
2.17385
2.17406
2.1742
2.17426
2.17426
2.17417
2.17399
2.17378
2.13417
2.13396
2.13374
2.13358
2.13347
2.13339
2.13334
2.13333
2.13335
2.1334
2.13347
2.13358
2.13371
2.13387
2.13407
2.13429
2.13455
2.13483
2.13515
2.13549
2.13586
2.13626
2.1367
2.13716
2.13766
2.13819
2.13875
2.13935
2.13997
2.14061
2.14127
2.14198
2.14271
2.14348
2.14426
2.14507
2.1459
2.14675
2.14761
2.14849
2.14938
2.15028
2.15119
2.15211
2.15304
2.15397
2.1549
2.15583
2.15678
2.15771
2.15863
2.15953
2.16043
2.16134
2.16223
2.1631
2.16396
2.1648
2.16562
2.16642
2.1672
2.16796
2.16868
2.16938
2.17005
2.17069
2.1713
2.17186
2.17239
2.17286
2.17328
2.17364
2.17394
2.17417
2.17433
2.17442
2.17443
2.17435
2.17416
2.17393
2.1342
2.13395
2.13369
2.13352
2.13339
2.13331
2.13326
2.13325
2.13327
2.13331
2.13339
2.13349
2.13363
2.13379
2.13398
2.1342
2.13445
2.13473
2.13503
2.13537
2.13574
2.13613
2.13656
2.13702
2.13752
2.13805
2.13861
2.13921
2.13982
2.14045
2.1411
2.1418
2.14255
2.14333
2.14413
2.14494
2.14577
2.1466
2.14744
2.1483
2.14919
2.15011
2.15105
2.15198
2.15292
2.15386
2.1548
2.15574
2.15667
2.1576
2.15853
2.15944
2.16035
2.16126
2.16215
2.16303
2.16389
2.16474
2.16556
2.16637
2.16715
2.16791
2.16865
2.16936
2.17004
2.17069
2.17131
2.1719
2.17244
2.17294
2.17339
2.17378
2.17411
2.17438
2.17457
2.17469
2.17472
2.17467
2.17448
2.17426
2.13411
2.13383
2.13355
2.13336
2.13322
2.13313
2.13308
2.13307
2.13309
2.13314
2.13321
2.13332
2.13345
2.13361
2.1338
2.13401
2.13426
2.13453
2.13484
2.13517
2.13553
2.13593
2.13636
2.13681
2.1373
2.13782
2.13838
2.13896
2.13958
2.14023
2.14091
2.14161
2.14235
2.14311
2.14391
2.14472
2.14555
2.14639
2.14725
2.14813
2.14903
2.14995
2.15089
2.15183
2.15277
2.15373
2.15468
2.15563
2.15657
2.15751
2.15844
2.15937
2.16029
2.16119
2.16209
2.16298
2.16384
2.16469
2.16553
2.16634
2.16713
2.1679
2.16865
2.16938
2.17007
2.17074
2.17138
2.17199
2.17256
2.17309
2.17357
2.174
2.17437
2.17468
2.17492
2.17508
2.17515
2.17513
2.17498
2.17478
2.13391
2.1336
2.1333
2.13309
2.13295
2.13285
2.1328
2.13279
2.13281
2.13286
2.13294
2.13305
2.13318
2.13334
2.13353
2.13374
2.13399
2.13426
2.13456
2.1349
2.13526
2.13566
2.13608
2.13654
2.13703
2.13755
2.1381
2.13868
2.1393
2.13998
2.14068
2.1414
2.14213
2.14289
2.14368
2.14449
2.14533
2.14618
2.14705
2.14795
2.14886
2.14979
2.15073
2.15167
2.15263
2.15359
2.15455
2.15551
2.15647
2.15742
2.15836
2.1593
2.16023
2.16114
2.16205
2.16294
2.16382
2.16468
2.16552
2.16634
2.16715
2.16793
2.1687
2.16944
2.17015
2.17084
2.17151
2.17214
2.17274
2.17331
2.17383
2.17431
2.17474
2.17509
2.17538
2.17559
2.17573
2.17576
2.17566
2.1755
2.13359
2.13326
2.13293
2.13271
2.13256
2.13246
2.13241
2.1324
2.13242
2.13248
2.13257
2.13268
2.13282
2.13298
2.13318
2.13339
2.13364
2.13392
2.13422
2.13456
2.13493
2.13533
2.13576
2.13622
2.13672
2.13725
2.13781
2.1384
2.13903
2.1397
2.1404
2.14112
2.14186
2.14263
2.14343
2.14425
2.1451
2.14597
2.14685
2.14776
2.14868
2.14962
2.15057
2.15153
2.1525
2.15347
2.15444
2.15541
2.15638
2.15734
2.1583
2.15925
2.16019
2.16111
2.16203
2.16293
2.16382
2.16469
2.16555
2.16638
2.1672
2.168
2.16878
2.16954
2.17028
2.171
2.17169
2.17236
2.17299
2.1736
2.17418
2.17471
2.17518
2.1756
2.17596
2.17625
2.17645
2.17655
2.17654
2.17645
2.1332
2.1328
2.13243
2.13219
2.13203
2.13194
2.1319
2.1319
2.13193
2.132
2.1321
2.13222
2.13237
2.13255
2.13275
2.13298
2.13323
2.13352
2.13383
2.13418
2.13455
2.13496
2.1354
2.13587
2.13637
2.13691
2.13748
2.13809
2.13872
2.1394
2.1401
2.14083
2.14158
2.14237
2.14318
2.14402
2.14487
2.14576
2.14666
2.14758
2.14851
2.14946
2.15043
2.1514
2.15238
2.15336
2.15434
2.15532
2.1563
2.15728
2.15825
2.15921
2.16016
2.1611
2.16203
2.16295
2.16385
2.16473
2.1656
2.16646
2.16729
2.16811
2.16891
2.1697
2.17046
2.17121
2.17193
2.17263
2.17331
2.17396
2.17459
2.17518
2.17573
2.17622
2.17664
2.177
2.17731
2.17752
2.17761
2.17763
2.1329
2.13222
2.13178
2.13152
2.13136
2.13128
2.13126
2.13128
2.13134
2.13143
2.13155
2.13169
2.13186
2.13205
2.13227
2.13251
2.13278
2.13308
2.13341
2.13376
2.13415
2.13457
2.13502
2.1355
2.13601
2.13656
2.13715
2.13776
2.13841
2.13909
2.1398
2.14055
2.14132
2.14211
2.14294
2.14379
2.14466
2.14555
2.14647
2.1474
2.14835
2.14932
2.15029
2.15128
2.15227
2.15326
2.15426
2.15526
2.15625
2.15724
2.15822
2.15919
2.16016
2.16111
2.16205
2.16298
2.1639
2.1648
2.16568
2.16655
2.16741
2.16825
2.16907
2.16989
2.17069
2.17146
2.17222
2.17297
2.1737
2.17441
2.17509
2.17574
2.17635
2.17692
2.17745
2.17791
2.17832
2.17865
2.1789
2.17905
2.13198
2.1313
2.13087
2.13064
2.13052
2.13047
2.13049
2.13055
2.13065
2.13077
2.13093
2.1311
2.1313
2.13151
2.13176
2.13202
2.13231
2.13263
2.13297
2.13334
2.13374
2.13417
2.13464
2.13514
2.13567
2.13623
2.13682
2.13745
2.13811
2.13881
2.13953
2.14029
2.14107
2.14188
2.14272
2.14358
2.14447
2.14538
2.14631
2.14725
2.14822
2.14919
2.15018
2.15118
2.15218
2.15319
2.1542
2.1552
2.15621
2.15721
2.1582
2.15919
2.16016
2.16113
2.16209
2.16303
2.16396
2.16487
2.16578
2.16666
2.16754
2.1684
2.16926
2.1701
2.17093
2.17175
2.17255
2.17335
2.17413
2.1749
2.17565
2.17637
2.17706
2.17772
2.17834
2.17891
2.17944
2.17992
2.18036
2.1807
2.12997
2.12991
2.12967
2.12953
2.12949
2.12952
2.1296
2.12973
2.12988
2.13006
2.13025
2.13047
2.13071
2.13096
2.13123
2.13152
2.13184
2.13218
2.13254
2.13294
2.13336
2.13381
2.13429
2.1348
2.13535
2.13592
2.13653
2.13718
2.13785
2.13856
2.1393
2.14007
2.14086
2.14169
2.14254
2.14341
2.14431
2.14523
2.14618
2.14713
2.14811
2.1491
2.15009
2.1511
2.15211
2.15313
2.15415
2.15516
2.15618
2.15719
2.15819
2.15918
2.16017
2.16115
2.16211
2.16307
2.16401
2.16494
2.16586
2.16676
2.16766
2.16855
2.16943
2.1703
2.17116
2.17202
2.17287
2.17372
2.17455
2.17538
2.1762
2.177
2.17777
2.17852
2.17925
2.17994
2.18062
2.18128
2.18197
2.18255
2.12843
2.12848
2.12832
2.12827
2.12832
2.12843
2.1286
2.12882
2.12905
2.1293
2.12956
2.12983
2.13011
2.13041
2.13072
2.13105
2.1314
2.13177
2.13216
2.13257
2.13301
2.13349
2.13399
2.13452
2.13508
2.13567
2.1363
2.13695
2.13764
2.13836
2.13912
2.1399
2.1407
2.14154
2.1424
2.14329
2.1442
2.14513
2.14608
2.14705
2.14803
2.14903
2.15003
2.15104
2.15206
2.15308
2.15411
2.15513
2.15615
2.15716
2.15817
2.15917
2.16016
2.16114
2.16211
2.16307
2.16402
2.16496
2.16589
2.16682
2.16773
2.16864
2.16954
2.17044
2.17133
2.17223
2.17312
2.17401
2.17491
2.1758
2.17668
2.17756
2.17842
2.17927
2.1801
2.18093
2.18176
2.18264
2.18364
2.18454
2.12728
2.12704
2.12684
2.12686
2.12701
2.12722
2.12752
2.12786
2.12819
2.12851
2.12886
2.12921
2.12956
2.12991
2.13027
2.13063
2.13102
2.13142
2.13184
2.13228
2.13274
2.13323
2.13375
2.1343
2.13488
2.13549
2.13613
2.1368
2.1375
2.13823
2.139
2.13979
2.14061
2.14145
2.14232
2.14322
2.14413
2.14507
2.14603
2.147
2.14798
2.14898
2.14999
2.151
2.15202
2.15304
2.15406
2.15508
2.1561
2.15711
2.15812
2.15912
2.16011
2.16109
2.16206
2.16302
2.16397
2.16491
2.16584
2.16677
2.16769
2.16861
2.16953
2.17044
2.17136
2.17229
2.17321
2.17415
2.17509
2.17603
2.17698
2.17793
2.17887
2.17981
2.18075
2.18171
2.18272
2.18384
2.18524
2.18657
2.12552
2.12522
2.12508
2.12523
2.12554
2.12593
2.12639
2.12687
2.12732
2.12777
2.12822
2.12865
2.12907
2.12948
2.12989
2.1303
2.13072
2.13115
2.1316
2.13207
2.13256
2.13307
2.13361
2.13417
2.13477
2.13539
2.13604
2.13673
2.13744
2.13818
2.13895
2.13975
2.14057
2.14142
2.1423
2.1432
2.14411
2.14505
2.14601
2.14698
2.14796
2.14895
2.14995
2.15096
2.15197
2.15299
2.154
2.15501
2.15602
2.15702
2.15801
2.159
2.15997
2.16094
2.1619
2.16285
2.16379
2.16473
2.16565
2.16657
2.16749
2.1684
2.16932
2.17024
2.17116
2.1721
2.17304
2.17399
2.17496
2.17594
2.17693
2.17793
2.17894
2.17995
2.18099
2.18206
2.18323
2.18463
2.18653
2.18844
2.12311
2.1229
2.12292
2.12332
2.12386
2.12451
2.12522
2.1259
2.12653
2.12711
2.12766
2.12818
2.12868
2.12916
2.12962
2.13008
2.13054
2.13101
2.13148
2.13197
2.13248
2.13301
2.13357
2.13415
2.13475
2.13539
2.13605
2.13674
2.13746
2.13821
2.13898
2.13978
2.14061
2.14146
2.14233
2.14322
2.14414
2.14507
2.14602
2.14698
2.14795
2.14893
2.14991
2.15091
2.1519
2.1529
2.15389
2.15488
2.15586
2.15684
2.15781
2.15878
2.15973
2.16067
2.16161
2.16253
2.16345
2.16436
2.16526
2.16615
2.16704
2.16793
2.16883
2.16972
2.17062
2.17154
2.17246
2.1734
2.17436
2.17533
2.17632
2.17733
2.17835
2.17939
2.18046
2.1816
2.18289
2.18457
2.1871
2.18973
2.11984
2.11985
2.12023
2.12103
2.12201
2.12307
2.12409
2.12499
2.12581
2.12655
2.12723
2.12786
2.12843
2.12897
2.12949
2.13
2.13049
2.13099
2.13149
2.132
2.13253
2.13308
2.13364
2.13423
2.13485
2.13549
2.13616
2.13685
2.13757
2.13831
2.13909
2.13988
2.1407
2.14155
2.14241
2.14329
2.14419
2.14511
2.14604
2.14698
2.14793
2.14889
2.14985
2.15082
2.15178
2.15275
2.15371
2.15466
2.15561
2.15656
2.15749
2.15841
2.15933
2.16023
2.16112
2.162
2.16288
2.16374
2.16459
2.16544
2.16628
2.16711
2.16795
2.16879
2.16963
2.17048
2.17134
2.17221
2.17309
2.17398
2.17489
2.17581
2.17674
2.1777
2.1787
2.17978
2.18107
2.18296
2.18623
2.18977
2.11525
2.11574
2.11686
2.11844
2.12012
2.12167
2.12303
2.12422
2.12526
2.12618
2.12698
2.1277
2.12836
2.12896
2.12953
2.13007
2.1306
2.13112
2.13164
2.13217
2.13271
2.13327
2.13384
2.13444
2.13506
2.1357
2.13636
2.13705
2.13777
2.13851
2.13927
2.14005
2.14086
2.14169
2.14253
2.14339
2.14427
2.14516
2.14606
2.14697
2.14789
2.14881
2.14974
2.15066
2.15158
2.15251
2.15342
2.15433
2.15523
2.15612
2.157
2.15787
2.15873
2.15957
2.1604
2.16122
2.16202
2.16281
2.16359
2.16436
2.16512
2.16587
2.16661
2.16734
2.16807
2.16879
2.16951
2.17023
2.17094
2.17164
2.17234
2.17302
2.17369
2.17435
2.17503
2.17579
2.17678
2.17861
2.18263
2.18719
2.10818
2.11
2.11279
2.11576
2.11831
2.12043
2.12221
2.12371
2.12497
2.12604
2.12696
2.12777
2.12849
2.12914
2.12975
2.13032
2.13087
2.13141
2.13195
2.13249
2.13303
2.13359
2.13417
2.13476
2.13538
2.13601
2.13667
2.13735
2.13805
2.13877
2.13951
2.14028
2.14106
2.14186
2.14267
2.1435
2.14435
2.1452
2.14606
2.14693
2.1478
2.14867
2.14954
2.15041
2.15128
2.15214
2.153
2.15384
2.15468
2.1555
2.15631
2.1571
2.15788
2.15865
2.15939
2.16012
2.16083
2.16153
2.16221
2.16286
2.1635
2.16412
2.16472
2.1653
2.16585
2.16638
2.16687
2.16733
2.16775
2.1681
2.1684
2.16861
2.16872
2.16873
2.16864
2.1685
2.1685
2.16958
2.17412
2.17976
2.0951
2.10176
2.10844
2.1133
2.11683
2.1196
2.1218
2.12357
2.12501
2.1262
2.12721
2.12808
2.12885
2.12954
2.13017
2.13076
2.13132
2.13187
2.13241
2.13296
2.1335
2.13406
2.13463
2.13521
2.13581
2.13643
2.13707
2.13773
2.1384
2.1391
2.13981
2.14054
2.14129
2.14205
2.14282
2.14361
2.1444
2.1452
2.14601
2.14682
2.14763
2.14844
2.14925
2.15005
2.15084
2.15163
2.15241
2.15317
2.15392
2.15466
2.15538
2.15608
2.15676
2.15742
2.15807
2.15869
2.15928
2.15985
2.1604
2.16091
2.1614
2.16184
2.16225
2.16262
2.16293
2.16318
2.16336
2.16344
2.16341
2.16323
2.16288
2.1623
2.16144
2.16022
2.15859
2.15652
2.15411
2.15251
2.15627
2.16591
2.07588
2.0939
2.10557
2.11194
2.11626
2.1195
2.12198
2.12391
2.12546
2.12672
2.12778
2.12868
2.12947
2.13017
2.13082
2.13141
2.13198
2.13253
2.13306
2.1336
2.13413
2.13467
2.13522
2.13578
2.13636
2.13695
2.13756
2.13819
2.13883
2.13948
2.14015
2.14084
2.14153
2.14224
2.14296
2.14369
2.14442
2.14515
2.14589
2.14663
2.14736
2.14809
2.14882
2.14953
2.15024
2.15094
2.15162
2.15229
2.15294
2.15357
2.15419
2.15478
2.15534
2.15589
2.1564
2.15689
2.15734
2.15776
2.15815
2.15849
2.15878
2.15902
2.1592
2.1593
2.15931
2.15922
2.15898
2.15858
2.15797
2.15708
2.15583
2.15411
2.15176
2.14856
2.14421
2.13833
2.13041
2.12038
2.1121
2.1178
2.08992
2.10099
2.10918
2.11415
2.11788
2.1208
2.12312
2.12496
2.12646
2.12769
2.12873
2.12963
2.13041
2.1311
2.13173
2.13232
2.13287
2.1334
2.13391
2.13442
2.13493
2.13544
2.13595
2.13648
2.13702
2.13757
2.13814
2.13871
2.1393
2.1399
2.14051
2.14114
2.14177
2.14241
2.14306
2.14371
2.14437
2.14502
2.14568
2.14633
2.14697
2.14761
2.14824
2.14886
2.14947
2.15006
2.15064
2.15119
2.15173
2.15225
2.15274
2.15321
2.15364
2.15405
2.15442
2.15476
2.15505
2.15531
2.15551
2.15565
2.15573
2.15574
2.15565
2.15546
2.15513
2.15464
2.15394
2.15299
2.15171
2.14999
2.14769
2.1446
2.14039
2.13454
2.12619
2.11383
2.09468
2.06402
2.01348
1.9248
2.10392
2.10921
2.11414
2.11771
2.12056
2.12295
2.12499
2.12669
2.12805
2.12918
2.13015
2.13099
2.13172
2.13237
2.13296
2.1335
2.13401
2.1345
2.13497
2.13543
2.13589
2.13635
2.13682
2.1373
2.13778
2.13827
2.13878
2.13929
2.13981
2.14034
2.14087
2.14143
2.14199
2.14255
2.14311
2.14368
2.14424
2.1448
2.14536
2.14591
2.14646
2.14699
2.14752
2.14803
2.14852
2.149
2.14946
2.14989
2.15031
2.1507
2.15106
2.15139
2.15168
2.15194
2.15216
2.15234
2.15246
2.15253
2.15254
2.15248
2.15233
2.15209
2.15172
2.15122
2.15054
2.14965
2.14848
2.14698
2.14503
2.14252
2.13925
2.13494
2.1292
2.12139
2.11056
2.09517
2.07281
2.04005
1.99319
1.9278
2.11804
2.11893
2.12093
2.12293
2.1248
2.12649
2.12801
2.12933
2.13044
2.13139
2.13221
2.13292
2.13354
2.13409
2.13459
2.13505
2.13548
2.13589
2.13629
2.13667
2.13706
2.13745
2.13784
2.13824
2.13865
2.13906
2.13948
2.13991
2.14035
2.14078
2.14122
2.14169
2.14216
2.14263
2.14309
2.14356
2.14402
2.14448
2.14493
2.14537
2.1458
2.14622
2.14663
2.14702