/*--------------------------------*- C++ -*----------------------------------*\
| =========                 |                                                 |
| \\      /  F ield         | OpenFOAM: The Open Source CFD Toolbox           |
|  \\    /   O peration     | Version:  v2012                                 |
|   \\  /    A nd           | Website:  www.openfoam.com                      |
|    \\/     M anipulation  |                                                 |
\*---------------------------------------------------------------------------*/
FoamFile
{
    version     2.0;
    format      ascii;
    class       surfaceScalarField;
    location    "2000";
    object      phi;
}
// * * * * * * * * * * * * * * * * * * * * * * * * * * * * * * * * * * * * * //

dimensions      [0 3 -1 0 0 0 0];
oriented        oriented;


internalField   nonuniform List<scalar> 
12722
(
3.9482e-05
0.000160518
2.60267e-05
0.000213455
1.34283e-05
0.000212598
5.68638e-06
0.000207742
1.72229e-08
0.000205669
-5.65326e-06
0.00020567
-1.34e-05
0.000207747
-2.601e-05
0.00021261
-3.94752e-05
0.000213465
0.000160525
3.91546e-05
0.000121363
4.10788e-05
0.000211531
2.80958e-05
0.000225581
1.33603e-05
0.000222477
5.52301e-08
0.000218974
-1.3253e-05
0.000218979
-2.79991e-05
0.000222493
-4.10019e-05
0.000225613
-3.91168e-05
0.00021158
0.000121408
2.56221e-05
9.57414e-05
3.66154e-05
0.000200538
2.89795e-05
0.000233217
1.51128e-05
0.000236344
9.92707e-08
0.000233988
-1.49221e-05
0.000234
-2.88159e-05
0.000236387
-3.65034e-05
0.0002333
-2.55775e-05
0.000200654
9.58304e-05
1.51899e-05
8.05515e-05
2.76393e-05
0.000188088
2.51188e-05
0.000235738
1.40957e-05
0.000247367
1.55099e-07
0.000247928
-1.37993e-05
0.000247954
-2.48673e-05
0.000247455
-2.74735e-05
0.000235907
-1.51308e-05
0.000188312
8.06996e-05
8.66649e-06
7.1885e-05
1.92821e-05
0.000177473
2.01488e-05
0.000234871
1.20031e-05
0.000255513
2.30182e-07
0.000259701
-1.15655e-05
0.00025975
-1.97946e-05
0.000255684
-1.90568e-05
0.000235169
-8.58729e-06
0.000177842
7.21123e-05
4.93492e-06
6.69501e-05
1.27645e-05
0.000169643
1.48898e-05
0.000232746
9.60417e-06
0.000260799
3.30834e-07
0.000268975
-8.98066e-06
0.000269062
-1.43947e-05
0.000261098
-1.24646e-05
0.000233239
-4.82975e-06
0.000170207
6.72826e-05
2.8928e-06
6.40573e-05
8.3091e-06
0.000164227
1.06648e-05
0.00023039
7.51192e-06
0.000263951
4.57554e-07
0.000276029
-6.66309e-06
0.000276182
-9.99413e-06
0.000264429
-7.90384e-06
0.000231148
-2.75027e-06
0.000165054
6.45323e-05
1.804e-06
6.22533e-05
5.53809e-06
0.000160493
7.63648e-06
0.000228292
5.71639e-06
0.000265872
5.88292e-07
0.000281157
-4.60153e-06
0.000281372
-6.757e-06
0.000266584
-5.00033e-06
0.000229392
-1.61429e-06
0.000161668
6.2918e-05
1.2235e-06
6.10298e-05
3.8699e-06
0.000157846
5.59579e-06
0.000226566
4.42942e-06
0.000267038
7.8699e-07
0.0002848
-2.95022e-06
0.000285109
-4.41921e-06
0.000268053
-3.14899e-06
0.000228122
-9.69131e-07
0.000159488
6.19489e-05
9.04526e-07
6.01253e-05
2.85933e-06
0.000155892
4.25041e-06
0.000225175
3.56279e-06
0.000267726
1.10035e-06
0.000287262
-1.5335e-06
0.000287743
-2.646e-06
0.000269166
-1.87545e-06
0.000227351
-5.55085e-07
0.000158167
6.13938e-05
7.3453e-07
5.93907e-05
2.27951e-06
0.000154347
3.45133e-06
0.000224003
3.11966e-06
0.000268057
1.49026e-06
0.000288891
-3.32973e-07
0.000289566
-1.24259e-06
0.000270076
-9.20132e-07
0.000227029
-2.48205e-07
0.000157495
6.11456e-05
6.70852e-07
5.87199e-05
2.02965e-06
0.000152988
3.1339e-06
0.000222899
3.12017e-06
0.000268071
2.06607e-06
0.000289946
7.51763e-07
0.000290881
-6.76757e-08
0.000270895
-1.4146e-07
0.000227102
5.03259e-09
0.000157349
6.11506e-05
6.91202e-07
5.80287e-05
2.04435e-06
0.000151635
3.22609e-06
0.000221717
3.53016e-06
0.000267767
2.89608e-06
0.00029058
1.88751e-06
0.000291889
1.04729e-06
0.000271735
5.84089e-07
0.000227566
2.4935e-07
0.000157684
6.14e-05
7.80546e-07
5.72482e-05
2.27827e-06
0.000150137
3.66729e-06
0.000220328
4.30138e-06
0.000267133
4.01155e-06
0.00029087
3.21438e-06
0.000292687
2.26798e-06
0.000272682
1.37863e-06
0.000228455
5.31847e-07
0.000158531
6.19318e-05
9.33996e-07
5.63142e-05
2.71703e-06
0.000148354
4.45113e-06
0.000218594
5.4749e-06
0.000266109
5.52899e-06
0.000290815
4.89479e-06
0.000293321
3.76692e-06
0.00027381
2.37092e-06
0.000229851
9.06638e-07
0.000159995
6.28385e-05
1.15386e-06
5.51603e-05
3.36882e-06
0.000146139
5.60872e-06
0.000216354
7.13868e-06
0.000264579
7.60281e-06
0.000290351
7.13461e-06
0.000293789
5.7615e-06
0.000275183
3.73537e-06
0.000231877
1.45743e-06
0.000162273
6.42959e-05
1.44218e-06
5.37182e-05
4.24577e-06
0.000143336
7.17999e-06
0.00021342
9.3864e-06
0.000262373
1.03877e-05
0.00028935
1.01592e-05
0.000294018
8.54324e-06
0.000276799
5.75067e-06
0.00023467
2.34708e-06
0.000165676
6.6643e-05
1.79474e-06
5.19234e-05
5.34747e-06
0.000139783
9.18961e-06
0.000209578
1.22948e-05
0.000259268
1.40304e-05
0.000287614
1.42083e-05
0.00029384
1.25381e-05
0.000278469
8.9236e-06
0.000238284
3.89528e-06
0.000170705
7.05383e-05
2.19876e-06
4.97247e-05
6.65209e-06
0.00013533
1.16396e-05
0.00020459
1.59518e-05
0.000254956
1.87532e-05
0.000284813
1.96106e-05
0.000292982
1.83559e-05
0.000279724
1.42356e-05
0.000242405
7.08454e-06
0.000177856
7.76228e-05
2.62212e-06
4.71026e-05
8.07842e-06
0.000129873
1.44205e-05
0.000198248
2.02717e-05
0.000249104
2.46369e-05
0.000280448
2.69288e-05
0.00029069
2.71745e-05
0.000279478
2.45016e-05
0.000245078
1.78657e-05
0.000184492
9.54885e-05
3.03034e-06
4.40722e-05
9.5339e-06
0.00012337
1.73679e-05
0.000190414
2.49915e-05
0.000241481
3.14091e-05
0.00027403
3.60501e-05
0.000286049
3.90648e-05
0.000276463
4.01424e-05
0.000244
3.86685e-05
0.000185966
0.000107088
2.70692e-05
3.30128e-06
4.0771e-05
1.06317e-05
0.000116039
1.97533e-05
0.000181293
2.89716e-05
0.000232262
3.72118e-05
0.00026579
4.37363e-05
0.000279525
4.82802e-05
0.00027192
4.96536e-05
0.000242627
4.53139e-05
0.000190306
0.000123245
2.91568e-05
3.41711e-06
3.73539e-05
1.12888e-05
0.000108168
2.1384e-05
0.000171198
3.18599e-05
0.000221787
4.1412e-05
0.000256238
4.90716e-05
0.000271865
5.40239e-05
0.000266967
5.48692e-05
0.000241781
4.92164e-05
0.000195958
0.000137954
3.45077e-05
3.40029e-06
3.39536e-05
1.15227e-05
0.000100045
2.22514e-05
0.000160469
3.3651e-05
0.000210387
4.41894e-05
0.0002457
5.26577e-05
0.000263397
5.7847e-05
0.000261778
5.87781e-05
0.00024085
5.31821e-05
0.000201554
0.000151176
3.996e-05
3.29276e-06
3.06609e-05
1.14421e-05
9.18961e-05
2.25218e-05
0.000149389
3.45885e-05
0.00019832
4.59445e-05
0.000234344
5.5137e-05
0.000254205
6.08248e-05
0.00025609
6.20759e-05
0.000239599
5.70548e-05
0.000206576
0.000162896
4.53346e-05
3.13059e-06
2.75304e-05
1.11502e-05
8.38766e-05
2.23519e-05
0.000138188
3.48574e-05
0.000185815
4.68758e-05
0.000222325
5.68018e-05
0.000244279
6.32704e-05
0.000249622
6.5058e-05
0.000237812
6.09772e-05
0.000210656
0.000172978
5.08954e-05
2.95136e-06
2.4579e-05
1.07278e-05
7.61002e-05
2.1868e-05
0.000127048
3.46179e-05
0.000173065
4.71688e-05
0.000209774
5.78413e-05
0.000233606
6.51832e-05
0.00024228
6.79449e-05
0.00023505
6.50359e-05
0.000213565
0.000181413
5.66009e-05
2.76828e-06
2.18108e-05
1.02306e-05
6.8638e-05
2.11749e-05
0.000116103
3.40133e-05
0.000160227
4.6983e-05
0.000196805
5.8374e-05
0.000222215
6.66995e-05
0.000233954
7.05923e-05
0.000231157
6.90967e-05
0.000215061
0.000188169
6.2341e-05
2.58192e-06
1.92289e-05
9.69216e-06
6.15278e-05
2.03456e-05
0.00010545
3.31428e-05
0.00014743
4.64162e-05
0.000183531
5.84499e-05
0.000210182
6.76481e-05
0.000224756
7.26968e-05
0.000226109
7.29039e-05
0.000214854
0.000193097
6.79752e-05
2.39888e-06
1.683e-05
9.13527e-06
5.47915e-05
1.94291e-05
9.5156e-05
3.20767e-05
0.000134782
4.55446e-05
0.000170064
5.81677e-05
0.000197559
6.83414e-05
0.000214583
7.47398e-05
0.00021971
7.65679e-05
0.000213026
0.000196195
7.34706e-05
2.22109e-06
1.4609e-05
8.57161e-06
4.84411e-05
1.84544e-05
8.52733e-05
3.08598e-05
0.000122377
4.44122e-05
0.000156511
5.75344e-05
0.000184436
6.86486e-05
0.000203468
7.64125e-05
0.000211946
7.98998e-05
0.000209539
0.000197383
7.87113e-05
2.04836e-06
1.25607e-05
8.00535e-06
4.24842e-05
1.74352e-05
7.58436e-05
2.9514e-05
0.000110298
4.30382e-05
0.000142987
5.65499e-05
0.000170925
6.85275e-05
0.000191491
7.76032e-05
0.000202871
8.27554e-05
0.000204386
0.000196606
8.35326e-05
1.87992e-06
1.06808e-05
7.43726e-06
3.6927e-05
1.63775e-05
6.69035e-05
2.80506e-05
9.86253e-05
4.14305e-05
0.000129607
5.52019e-05
0.000157153
6.7926e-05
0.000178767
7.82409e-05
0.000192556
8.50724e-05
0.000197555
0.000193871
8.78077e-05
1.71514e-06
8.96573e-06
6.86761e-06
3.17746e-05
1.52853e-05
5.84859e-05
2.64777e-05
8.7433e-05
3.9595e-05
0.00011649
5.34798e-05
0.000143269
6.68008e-05
0.000165446
7.82347e-05
0.000181122
8.66662e-05
0.000189124
0.000189185
9.1352e-05
1.55384e-06
7.41195e-06
6.29748e-06
2.70312e-05
1.41635e-05
5.06201e-05
2.48048e-05
7.67918e-05
3.75413e-05
0.000103754
5.13813e-05
0.000129429
6.51227e-05
0.000151705
7.75084e-05
0.000168736
8.74074e-05
0.000179225
0.000182612
9.39804e-05
1.39635e-06
6.01568e-06
5.72936e-06
2.26984e-05
1.30194e-05
4.33302e-05
2.30455e-05
6.67659e-05
3.52858e-05
9.15136e-05
4.89166e-05
0.000115798
6.28798e-05
0.000137742
7.60105e-05
0.000155606
8.71948e-05
0.00016804
0.000174277
9.55298e-05
1.24348e-06
4.77229e-06
5.16729e-06
1.87748e-05
1.18633e-05
3.66344e-05
2.12187e-05
5.74107e-05
3.28555e-05
7.9877e-05
4.61126e-05
0.000102541
6.00859e-05
0.000123768
7.37243e-05
0.000141968
8.59634e-05
0.000155801
0.000164369
9.5872e-05
1.09646e-06
3.67594e-06
4.61671e-06
1.52548e-05
1.07087e-05
3.05427e-05
1.93494e-05
4.87703e-05
3.02875e-05
6.89391e-05
4.30149e-05
8.98139e-05
5.67834e-05
0.00011
7.06723e-05
0.000128079
8.36954e-05
0.000142778
0.000153135
9.49293e-05
9.57069e-07
2.71901e-06
4.08391e-06
1.21284e-05
9.57088e-06
2.5056e-05
1.74667e-05
4.08748e-05
2.76281e-05
5.87779e-05
3.96854e-05
7.77568e-05
5.30422e-05
9.66433e-05
6.69174e-05
0.000114204
8.04262e-05
0.00012927
0.000140874
9.26873e-05
8.26319e-07
1.89286e-06
3.5747e-06
9.38045e-06
8.46554e-06
2.01656e-05
1.56018e-05
3.37389e-05
2.49291e-05
4.9451e-05
3.61986e-05
6.64876e-05
4.89553e-05
8.38867e-05
6.256e-05
0.000100599
7.62454e-05
0.000115584
0.000127919
8.92009e-05
7.0172e-07
1.19138e-06
3.0932e-06
6.98968e-06
7.40715e-06
1.58523e-05
1.37855e-05
2.73611e-05
2.22439e-05
4.0993e-05
3.26355e-05
5.60963e-05
4.46321e-05
7.18903e-05
5.7731e-05
8.75008e-05
7.12903e-05
0.000102025
0.000114617
8.45921e-05
5.91081e-07
6.00708e-07
2.64949e-06
4.93246e-06
6.41099e-06
1.20919e-05
1.20464e-05
2.17266e-05
1.96237e-05
3.34163e-05
2.90778e-05
4.66426e-05
4.01891e-05
6.07792e-05
5.25803e-05
7.51098e-05
6.57351e-05
8.88704e-05
0.000101311
7.90413e-05
5.04856e-07
9.656e-08
2.24797e-06
3.19139e-06
5.48559e-06
8.85596e-06
1.04063e-05
1.68071e-05
1.71124e-05
2.6711e-05
2.56005e-05
3.81551e-05
3.57403e-05
5.06397e-05
4.72644e-05
6.35858e-05
5.9775e-05
7.63598e-05
8.83153e-05
7.27705e-05
4.03279e-07
-3.05482e-07
1.83229e-06
1.7653e-06
4.5404e-06
6.15014e-06
8.71206e-06
1.26369e-05
1.44678e-05
2.0956e-05
2.18484e-05
3.0775e-05
3.07947e-05
4.16937e-05
4.11346e-05
5.3246e-05
5.2582e-05
6.49124e-05
7.61474e-05
6.47499e-05
2.96729e-07
-6.00738e-07
1.48224e-06
5.838e-07
3.77812e-06
3.85668e-06
7.3569e-06
9.05951e-06
1.23505e-05
1.59629e-05
1.88301e-05
2.42956e-05
2.67878e-05
3.3736e-05
3.61236e-05
4.39101e-05
4.66392e-05
5.43968e-05
6.47438e-05
5.80428e-05
2.24705e-07
-8.23064e-07
1.17455e-06
-3.62266e-07
3.08887e-06
1.9447e-06
6.12148e-06
6.02755e-06
1.04033e-05
1.16814e-05
1.60225e-05
1.86762e-05
2.30085e-05
2.67499e-05
3.13167e-05
3.56018e-05
4.08209e-05
4.48925e-05
5.42522e-05
5.13124e-05
9.30796e-08
-9.1387e-07
8.58428e-07
-1.12507e-06
2.45271e-06
3.51728e-07
4.99929e-06
3.48118e-06
8.62707e-06
8.05361e-06
1.34385e-05
1.38646e-05
1.94902e-05
2.0698e-05
2.678e-05
2.83119e-05
3.52384e-05
3.64341e-05
4.47651e-05
4.47255e-05
-2.61684e-07
-6.51718e-07
5.27627e-07
-1.91373e-06
1.88337e-06
-1.00407e-06
3.99434e-06
1.37055e-06
7.01867e-06
5.02947e-06
1.10763e-05
9.80716e-06
1.62435e-05
1.55309e-05
2.25481e-05
2.20073e-05
2.99634e-05
2.90188e-05
3.63245e-05
3.84039e-05
9.96448e-08
-7.5209e-07
5.34608e-07
-2.35016e-06
1.49667e-06
-1.96684e-06
3.13389e-06
-2.66267e-07
5.57313e-06
2.59067e-06
8.92132e-06
6.45949e-06
1.32575e-05
1.1195e-05
1.86261e-05
1.6639e-05
2.50294e-05
2.26156e-05
2.89311e-05
3.24229e-05
4.35014e-07
-1.18869e-06
5.55536e-07
-2.47315e-06
1.15183e-06
-2.56419e-06
2.34722e-06
-1.46143e-06
4.24364e-06
6.94709e-07
6.9357e-06
3.76807e-06
1.05014e-05
7.62974e-06
1.49947e-05
1.2146e-05
2.04377e-05
1.71728e-05
2.25534e-05
2.68155e-05
9.97245e-08
-1.28989e-06
2.60571e-07
-2.63646e-06
6.8766e-07
-2.99239e-06
1.54881e-06
-2.32268e-06
2.9744e-06
-7.3064e-07
5.07502e-06
1.66794e-06
7.93646e-06
4.76867e-06
1.16222e-05
8.46051e-06
1.61695e-05
1.26256e-05
1.71377e-05
2.15851e-05
-3.92608e-08
-1.25158e-06
-3.64136e-09
-2.67389e-06
2.1922e-07
-3.21606e-06
7.5941e-07
-2.8632e-06
1.75622e-06
-1.72738e-06
3.31853e-06
1.05891e-07
5.53676e-06
2.55059e-06
8.48232e-06
5.51503e-06
1.22034e-05
8.90439e-06
1.26182e-05
1.67227e-05
-9.8683e-08
-1.1533e-06
-2.01643e-07
-2.57161e-06
-2.2027e-07
-3.1977e-06
7.37322e-09
-3.09091e-06
6.0501e-07
-2.32492e-06
1.66972e-06
-9.58733e-07
3.29827e-06
9.21965e-07
5.56721e-06
3.24574e-06
8.53192e-06
5.9391e-06
8.92339e-06
1.2226e-05
-1.34523e-07
-1.01864e-06
-3.72386e-07
-2.33319e-06
-5.95731e-07
-2.97366e-06
-6.63407e-07
-3.02273e-06
-4.5329e-07
-2.53457e-06
1.50878e-07
-1.56273e-06
1.24183e-06
-1.69431e-07
2.89677e-06
1.58977e-06
5.17429e-06
3.66009e-06
5.98077e-06
8.11526e-06
-1.64906e-07
-8.5308e-07
-5.32022e-07
-1.96437e-06
-9.39114e-07
-2.56471e-06
-1.26673e-06
-2.69367e-06
-1.3935e-06
-2.40659e-06
-1.19799e-06
-1.75793e-06
-5.83917e-07
-7.84393e-07
5.24966e-07
4.78646e-07
2.18651e-06
1.9955e-06
3.71783e-06
4.44633e-06
-2.13566e-07
-6.38492e-07
-6.80266e-07
-1.49445e-06
-1.24649e-06
-1.9957e-06
-1.78161e-06
-2.15574e-06
-2.16967e-06
-2.01636e-06
-2.307e-06
-1.61988e-06
-2.0936e-06
-9.99545e-07
-1.45098e-06
-1.67992e-07
-3.28701e-07
8.6781e-07
2.06272e-06
1.32136e-06
-2.35109e-07
-4.01704e-07
-7.51763e-07
-9.74672e-07
-1.40117e-06
-1.34169e-06
-2.06885e-06
-1.48382e-06
-2.65103e-06
-1.43093e-06
-3.04766e-06
-1.22185e-06
-3.15134e-06
-8.99022e-07
-2.88357e-06
-4.42403e-07
-2.21072e-06
1.8717e-07
9.45197e-07
-1.10029e-06
-2.19817e-07
-1.80829e-07
-7.03082e-07
-4.86882e-07
-1.33619e-06
-7.02632e-07
-2.02898e-06
-7.86638e-07
-2.7003e-06
-7.52559e-07
-3.27253e-06
-6.50412e-07
-3.58732e-06
-5.87499e-07
-3.56267e-06
-4.76022e-07
-3.23855e-06
-1.4821e-07
2.9457e-07
-2.59534e-06
-1.48111e-07
-3.15241e-08
-4.92894e-07
-1.37425e-07
-9.78576e-07
-2.12668e-07
-1.53411e-06
-2.23031e-07
-2.13285e-06
-1.51319e-07
-2.78939e-06
7.93561e-09
-3.18429e-06
-1.98187e-07
-3.21853e-06
-4.52832e-07
-3.16351e-06
-2.11768e-07
3.77616e-10
-2.87782e-06
-3.12873e-08
-1.67798e-07
-3.79588e-07
-6.01606e-07
-7.52288e-07
-7.4452e-07
-9.43467e-07
-1.39803e-06
-1.61115e-06
-1.6119e-06
-6.60611e-06
3.36753e-05
-1.54641e-05
8.85802e-06
-1.70042e-05
1.54014e-06
-1.58943e-05
-1.10991e-06
-1.42852e-05
-1.60914e-06
-1.27082e-05
-1.57696e-06
-1.14109e-05
-1.29731e-06
-1.03694e-05
-1.04156e-06
-9.49998e-06
-8.69388e-07
-8.74434e-06
-7.5568e-07
-8.04191e-06
-7.02438e-07
-7.35225e-06
-6.8971e-07
-6.64613e-06
-7.06139e-07
-5.9067e-06
-7.39493e-07
-5.12976e-06
-7.76983e-07
-4.32267e-06
-8.0719e-07
-3.50244e-06
-8.20284e-07
-2.69418e-06
-8.08393e-07
-1.92959e-06
-7.64658e-07
-1.24912e-06
-6.80664e-07
-6.85811e-07
-5.63496e-07
-2.64399e-07
-4.21712e-07
-1.39381e-08
-2.50978e-07
5.56069e-08
-7.01399e-08
5.55199e-08
3.55788e-06
5.92743e-05
-1.33819e-05
2.57978e-05
-2.15713e-05
9.72963e-06
-2.51308e-05
2.44957e-06
-2.60134e-05
-7.26566e-07
-2.5583e-05
-2.00733e-06
-2.45781e-05
-2.30222e-06
-2.33314e-05
-2.28828e-06
-2.20447e-05
-2.15616e-06
-2.07218e-05
-2.07862e-06
-1.93333e-05
-2.09102e-06
-1.78646e-05
-2.15843e-06
-1.6293e-05
-2.27784e-06
-1.4609e-05
-2.42367e-06
-1.28215e-05
-2.56467e-06
-1.09572e-05
-2.67164e-06
-9.05901e-06
-2.71871e-06
-7.18353e-06
-2.6841e-06
-5.39757e-06
-2.55095e-06
-3.76955e-06
-2.30909e-06
-2.37163e-06
-1.96196e-06
-1.27248e-06
-1.52203e-06
-5.15344e-07
-1.00956e-06
-1.06555e-07
-4.80268e-07
-5.11239e-08
1.40682e-05
7.97138e-05
-3.92949e-06
4.37956e-05
-1.62183e-05
2.20185e-05
-2.36049e-05
9.83619e-06
-2.76647e-05
3.33322e-06
-2.96736e-05
1.51527e-09
-3.02965e-05
-1.67924e-06
-3.00379e-05
-2.54695e-06
-2.92262e-05
-2.96785e-06
-2.801e-05
-3.29493e-06
-2.65209e-05
-3.58019e-06
-2.47982e-05
-3.88112e-06
-2.28429e-05
-4.23321e-06
-2.06706e-05
-4.59613e-06
-1.83134e-05
-4.92199e-06
-1.58191e-05
-5.16612e-06
-1.32507e-05
-5.28729e-06
-1.06851e-05
-5.24991e-06
-8.20937e-06
-5.02677e-06
-5.9159e-06
-4.60277e-06
-3.89909e-06
-3.97936e-06
-2.24594e-06
-3.17596e-06
-1.02183e-06
-2.23488e-06
-2.65698e-07
-1.23758e-06
-3.16891e-07
2.23666e-05
9.73072e-05
5.1627e-06
6.09996e-05
-8.54347e-06
3.57247e-05
-1.82981e-05
1.95908e-05
-2.47532e-05
9.7883e-06
-2.87478e-05
3.99618e-06
-3.10128e-05
5.85737e-07
-3.20666e-05
-1.49321e-06
-3.2172e-05
-2.86246e-06
-3.15743e-05
-3.89266e-06
-3.0451e-05
-4.7035e-06
-2.88796e-05
-5.45255e-06
-2.69195e-05
-6.19342e-06
-2.46183e-05
-6.89737e-06
-2.20331e-05
-7.50735e-06
-1.92298e-05
-7.96957e-06
-1.6287e-05
-8.2302e-06
-1.32966e-05
-8.2403e-06
-1.0362e-05
-7.96115e-06
-7.59459e-06
-7.37039e-06
-5.10811e-06
-6.46599e-06
-3.01297e-06
-5.27143e-06
-1.40827e-06
-3.8409e-06
-3.75357e-07
-2.27097e-06
-6.92252e-07
2.99231e-05
0.000112719
1.38726e-05
7.70501e-05
-1.67041e-07
4.97644e-05
-1.1217e-05
3.06408e-05
-1.93453e-05
1.79166e-05
-2.50178e-05
9.66868e-06
-2.87619e-05
4.32984e-06
-3.10289e-05
7.73739e-07
-3.21584e-05
-1.73299e-06
-3.24175e-05
-3.63352e-06
-3.19011e-05
-5.21999e-06
-3.07485e-05
-6.60522e-06
-2.90692e-05
-7.87275e-06
-2.69154e-05
-9.05122e-06
-2.43668e-05
-1.0056e-05
-2.1502e-05
-1.08344e-05
-1.84108e-05
-1.13216e-05
-1.51965e-05
-1.14543e-05
-1.19775e-05
-1.11803e-05
-8.88192e-06
-1.04657e-05
-6.04616e-06
-9.30175e-06
-3.60862e-06
-7.70954e-06
-1.7061e-06
-5.74306e-06
-4.80401e-07
-3.49645e-06
-1.17261e-06
3.73407e-05
0.000126274
2.24716e-05
9.19192e-05
8.54578e-06
6.36903e-05
-3.21438e-06
4.2401e-05
-1.25033e-05
2.72056e-05
-1.94942e-05
1.66596e-05
-2.45354e-05
9.37102e-06
-2.79923e-05
4.23062e-06
-3.0171e-05
4.45699e-07
-3.12868e-05
-2.51772e-06
-3.15001e-05
-5.00665e-06
-3.09442e-05
-7.16122e-06
-2.97253e-05
-9.09167e-06
-2.79264e-05
-1.08501e-05
-2.56202e-05
-1.23622e-05
-2.28893e-05
-1.35654e-05
-1.98291e-05
-1.43818e-05
-1.6552e-05
-1.47314e-05
-1.31884e-05
-1.4544e-05
-9.88481e-06
-1.37691e-05
-6.80092e-06
-1.23856e-05
-4.10233e-06
-1.04073e-05
-1.95639e-06
-7.8883e-06
-5.30081e-07
-4.92202e-06
-1.70263e-06
4.47057e-05
0.000138169
3.1009e-05
0.000105616
1.7456e-05
7.72433e-05
5.34952e-06
5.45076e-05
-4.74509e-06
3.73002e-05
-1.2772e-05
2.46865e-05
-1.89183e-05
1.55174e-05
-2.34491e-05
8.76138e-06
-2.66171e-05
3.61374e-06
-2.86319e-05
-5.02874e-07
-2.96689e-05
-3.96965e-06
-2.98276e-05
-7.00256e-06
-2.92082e-05
-9.71107e-06
-2.79096e-05
-1.21487e-05
-2.6e-05
-1.42719e-05
-2.35579e-05
-1.60075e-05
-2.06773e-05
-1.72623e-05
-1.74731e-05
-1.79357e-05
-1.40835e-05
-1.79335e-05
-1.06707e-05
-1.71819e-05
-7.41681e-06
-1.56391e-05
-4.51759e-06
-1.33059e-05
-2.17226e-06
-1.02327e-05
-5.75521e-07
-6.51804e-06
-2.27811e-06
5.20382e-05
0.000148472
3.95434e-05
0.000118111
2.65515e-05
9.02353e-05
1.43691e-05
6.66899e-05
3.73199e-06
4.79374e-05
-5.10913e-06
3.35277e-05
-1.21964e-05
2.26047e-05
-1.76996e-05
1.42646e-05
-2.18191e-05
7.73319e-06
-2.47402e-05
2.41828e-06
-2.66165e-05
-2.0933e-06
-2.75594e-05
-6.05963e-06
-2.76502e-05
-9.6203e-06
-2.69711e-05
-1.28278e-05
-2.55878e-05
-1.5655e-05
-2.35705e-05
-1.80248e-05
-2.10048e-05
-1.9828e-05
-1.80006e-05
-2.09398e-05
-1.46979e-05
-2.12362e-05
-1.12686e-05
-2.06111e-05
-7.91517e-06
-1.89922e-05
-4.86482e-06
-1.63558e-05
-2.36134e-06
-1.27355e-05
-6.59106e-07
-8.21973e-06
-2.93718e-06
5.93179e-05
0.000157129
4.81139e-05
0.000129315
3.5858e-05
0.000102491
2.38281e-05
7.87198e-05
1.28706e-05
5.88949e-05
3.39839e-06
4.29999e-05
-4.49118e-06
3.04943e-05
-1.08742e-05
2.06477e-05
-1.58948e-05
1.27538e-05
-1.9706e-05
6.22945e-06
-2.24416e-05
6.42348e-07
-2.42052e-05
-4.29593e-06
-2.50738e-05
-8.75166e-06
-2.51104e-05
-1.27911e-05
-2.43681e-05
-1.63972e-05
-2.29025e-05
-1.94904e-05
-2.07844e-05
-2.1946e-05
-1.81117e-05
-2.36124e-05
-1.50176e-05
-2.43302e-05
-1.16768e-05
-2.39519e-05
-8.30673e-06
-2.2362e-05
-5.16367e-06
-1.94985e-05
-2.53144e-06
-1.53673e-05
-7.09275e-07
-1.00415e-05
-3.64643e-06
6.65194e-05
0.00016408
5.67212e-05
0.000139113
4.53808e-05
0.000113832
3.3721e-05
9.03798e-05
2.26559e-05
6.996e-05
1.27284e-05
5.29275e-05
4.16774e-06
3.9055e-05
-3.00311e-06
2.78186e-05
-8.86627e-06
1.8617e-05
-1.35391e-05
1.09023e-05
-1.71346e-05
4.23789e-06
-1.97452e-05
-1.68526e-06
-2.14393e-05
-7.05752e-06
-2.22661e-05
-1.19642e-05
-2.2263e-05
-1.64002e-05
-2.14672e-05
-2.02861e-05
-1.99289e-05
-2.34841e-05
-1.77263e-05
-2.5815e-05
-1.49771e-05
-2.70793e-05
-1.1848e-05
-2.70808e-05
-8.5631e-06
-2.56467e-05
-5.40195e-06
-2.26595e-05
-2.68616e-06
-1.80828e-05
-7.65854e-07
-1.19616e-05
-4.41228e-06
7.35552e-05
0.000169236
6.53023e-05
0.000147366
5.50732e-05
0.000124061
4.40114e-05
0.000101442
3.30623e-05
8.09091e-05
2.28693e-05
6.31206e-05
1.37811e-05
4.81432e-05
5.92355e-06
3.56762e-05
-7.1437e-07
2.5255e-05
-6.2078e-06
1.63958e-05
-1.06473e-05
8.67741e-06
-1.41125e-05
1.78e-06
-1.66626e-05
-4.50725e-06
-1.83361e-05
-1.02906e-05
-1.91555e-05
-1.55807e-05
-1.91381e-05
-2.03034e-05
-1.83101e-05
-2.4312e-05
-1.67229e-05
-2.7402e-05
-1.447e-05
-2.93321e-05
-1.1698e-05
-2.98527e-05
-8.62472e-06
-2.87199e-05
-5.54298e-06
-2.57411e-05
-2.8065e-06
-2.08191e-05
-8.15674e-07
-1.39523e-05
-5.22794e-06
8.02757e-05
0.000172493
7.3728e-05
0.000153914
6.4825e-05
0.000132964
5.4609e-05
0.000111658
4.40225e-05
9.14955e-05
3.37805e-05
7.33627e-05
2.43357e-05
5.7588e-05
1.59154e-05
4.40966e-05
8.58765e-06
3.25828e-05
2.32943e-06
2.26541e-05
-2.92146e-06
1.39284e-05
-7.2305e-06
6.08912e-06
-1.06489e-05
-1.08873e-06
-1.32068e-05
-7.73263e-06
-1.4915e-05
-1.38724e-05
-1.57724e-05
-1.94459e-05
-1.5779e-05
-2.43054e-05
-1.49543e-05
-2.82266e-05
-1.33609e-05
-3.09255e-05
-1.11159e-05
-3.20975e-05
-8.41106e-06
-3.14247e-05
-5.53714e-06
-2.86149e-05
-2.86903e-06
-2.34871e-05
-8.54795e-07
-1.59664e-05
-6.08273e-06
8.65191e-05
0.000173782
8.18258e-05
0.000158607
7.44676e-05
0.000140322
6.53606e-05
0.000120765
5.54092e-05
0.000101447
4.53674e-05
8.34046e-05
3.57725e-05
6.71829e-05
2.69475e-05
5.29216e-05
1.90437e-05
4.04867e-05
1.20982e-05
2.95996e-05
6.0868e-06
1.99399e-05
9.62873e-07
1.12131e-05
-3.31614e-06
3.19038e-06
-6.77602e-06
-4.27265e-06
-9.42014e-06
-1.12282e-05
-1.12334e-05
-1.76324e-05
-1.21911e-05
-2.33476e-05
-1.22733e-05
-2.81442e-05
-1.14954e-05
-3.17033e-05
-9.97153e-06
-3.36212e-05
-7.83441e-06
-3.35617e-05
-5.33063e-06
-3.11186e-05
-2.84788e-06
-2.59697e-05
-8.76349e-07
-1.79379e-05
-6.95907e-06
9.20835e-05
0.00017305
8.93757e-05
0.000161315
8.37731e-05
0.000145925
7.60443e-05
0.000128494
6.70219e-05
0.000110469
5.74636e-05
9.29628e-05
4.79658e-05
7.66807e-05
3.89351e-05
6.19524e-05
3.06061e-05
4.88157e-05
2.30832e-05
3.71225e-05
1.63879e-05
2.66353e-05
1.04998e-05
1.71012e-05
5.38845e-06
8.30187e-06
1.03214e-06
8.37637e-08
-2.57129e-06
-7.62463e-06
-5.40111e-06
-1.48025e-05
-7.41898e-06
-2.13296e-05
-8.57971e-06
-2.69834e-05
-8.8437e-06
-3.14392e-05
-8.22202e-06
-3.42428e-05
-6.82594e-06
-3.49576e-05
-4.86424e-06
-3.30802e-05
-2.70957e-06
-2.81242e-05
-8.70716e-07
-1.97766e-05
-7.82978e-06
9.6745e-05
0.000170286
9.61213e-05
0.000161939
9.24616e-05
0.000149584
8.63719e-05
0.000134583
7.85826e-05
0.000118259
6.98194e-05
0.000101726
6.07063e-05
8.57939e-05
5.17147e-05
7.09441e-05
4.3156e-05
5.73744e-05
3.52051e-05
4.50735e-05
2.7937e-05
3.39035e-05
2.13659e-05
2.36723e-05
1.54787e-05
1.41892e-05
1.026e-05
5.30254e-06
5.7083e-06
-3.07282e-06
1.84572e-06
-1.09398e-05
-1.28103e-06
-1.82027e-05
-3.60872e-06
-2.46555e-05
-5.0718e-06
-2.99759e-05
-5.5728e-06
-3.37416e-05
-5.16191e-06
-3.53684e-05
-4.00368e-06
-3.42382e-05
-2.37965e-06
-2.97481e-05
-8.13253e-07
-2.13429e-05
-8.64302e-06
0.000100284
0.000165532
0.000101791
0.000160431
0.000100219
0.000151157
9.60019e-05
0.000138801
8.97426e-05
0.000124518
8.21004e-05
0.000109368
7.36927e-05
9.42015e-05
6.50298e-05
7.96071e-05
5.6486e-05
6.59183e-05
4.83036e-05
5.32559e-05
4.06159e-05
4.15912e-05
3.34794e-05
3.0809e-05
2.69057e-05
2.07629e-05
2.08898e-05
1.13185e-05
1.54324e-05
2.3847e-06
1.05536e-05
-6.06096e-06
6.30429e-06
-1.39533e-05
2.76722e-06
-2.11184e-05
4.63746e-08
-2.7255e-05
-1.78501e-06
-3.19101e-05
-2.66622e-06
-3.4487e-05
-2.58962e-06
-3.43147e-05
-1.77374e-06
-3.05639e-05
-6.78055e-07
-2.24385e-05
-9.32107e-06
0.000102506
0.000158898
0.000106124
0.000156813
0.000106722
0.000150559
0.000104561
0.000140962
0.000100099
0.00012898
9.38976e-05
0.000115569
8.6534e-05
0.000101565
7.85258e-05
8.76153e-05
7.02891e-05
7.4155e-05
6.21232e-05
6.14219e-05
5.42188e-05
4.94957e-05
4.66791e-05
3.83487e-05
3.95477e-05
2.78944e-05
3.28354e-05
1.80308e-05
2.65453e-05
8.67488e-06
2.0693e-05
-2.08479e-07
1.53209e-05
-8.58114e-06
1.05094e-05
-1.63068e-05
6.37663e-06
-2.31221e-05
3.07327e-06
-2.86066e-05
7.51363e-07
-3.2165e-05
-5.3966e-07
-3.30236e-05
-8.583e-07
-3.02451e-05
-4.6002e-07
-2.28367e-05
-9.78108e-06
0.000103262
0.000150565
0.000108893
0.000151182
0.000111666
0.000147787
0.000111674
0.000140953
0.000109221
0.000131433
0.000104751
0.00012004
9.87646e-05
0.000107551
9.17568e-05
9.46231e-05
8.41577e-05
8.17542e-05
7.63059e-05
6.92737e-05
6.84415e-05
5.73602e-05
6.07148e-05
4.60754e-05
5.32058e-05
3.54034e-05
4.59472e-05
2.52895e-05
3.89484e-05
1.56738e-05
3.22183e-05
6.52163e-06
2.57863e-05
-2.14901e-06
1.97186e-05
-1.0239e-05
1.41333e-05
-1.75367e-05
9.20681e-06
-2.36801e-05
5.15677e-06
-2.81149e-05
2.1836e-06
-3.00503e-05
4.41608e-07
-2.8503e-05
-1.31486e-07
-2.22635e-05
-9.91256e-06
0.000102472
0.000140781
0.000109936
0.000143718
0.000114798
0.000142925
0.000117
0.000138751
0.000116692
0.000131741
0.000114182
0.00012255
0.000109874
0.000111859
0.000104207
0.00010029
9.75954e-05
8.83655e-05
9.03942e-05
7.64749e-05
8.28777e-05
6.48767e-05
7.52375e-05
5.37157e-05
6.75906e-05
4.30504e-05
5.99962e-05
3.28839e-05
5.24754e-05
2.31947e-05
4.50328e-05
1.39643e-05
3.76794e-05
5.20439e-06
3.04557e-05
-3.0152e-06
2.34533e-05
-1.05342e-05
1.68383e-05
-1.70649e-05
1.08685e-05
-2.21451e-05
5.90175e-06
-2.50834e-05
2.31564e-06
-2.49168e-05
3.89768e-07
-2.03375e-05
-9.52279e-06
0.000100133
0.000129849
0.000109175
0.000134676
0.000115948
0.000136152
0.000120269
0.000134431
0.000122142
0.000129868
0.000121739
0.000122953
0.000119346
0.000114252
0.000115325
0.000104312
0.000110044
9.36461e-05
0.000103848
8.2671e-05
9.70256e-05
7.1699e-05
8.97976e-05
6.09437e-05
8.23139e-05
5.0534e-05
7.46618e-05
4.05361e-05
6.68792e-05
3.09774e-05
5.89718e-05
2.18718e-05
5.09327e-05
1.32435e-05
4.27662e-05
5.15142e-06
3.45155e-05
-2.28349e-06
2.62973e-05
-8.84652e-06
1.83458e-05
-1.41935e-05
1.10748e-05
-1.78124e-05
5.11714e-06
-1.8959e-05
1.2665e-06
-1.64868e-05
-8.25629e-06
9.63295e-05
0.000118111
0.000106629
0.000124377
0.000115051
0.000127729
0.000121312
0.00012817
0.000125294
0.000125885
0.000127042
0.000121205
0.00012672
0.000114574
0.000124579
0.000106453
0.000120928
9.72966e-05
0.000116078
8.75213e-05
0.000110309
7.74679e-05
0.000103855
6.73985e-05
9.68872e-05
5.75014e-05
8.95205e-05
4.79027e-05
8.18134e-05
3.86845e-05
7.378e-05
2.99052e-05
6.54031e-05
2.16204e-05
5.66508e-05
1.39037e-05
4.74998e-05
6.86753e-06
3.79703e-05
6.83059e-07
2.81819e-05
-4.40502e-06
1.84591e-05
-8.08957e-06
9.52943e-06
-1.00293e-05
2.8231e-06
-9.78045e-06
-5.43318e-06
9.12244e-05
0.000105928
0.000102418
0.000113183
0.000112157
0.00011799
0.000120093
0.000120235
0.000126011
0.000119967
0.000129849
0.000117367
0.000131635
0.000112788
0.000131503
0.000106585
0.000129707
9.90926e-05
0.000126496
9.0732e-05
0.000122118
8.18457e-05
0.000116803
7.2714e-05
0.000110733
6.3571e-05
0.000104043
5.4593e-05
9.68147e-05
4.59128e-05
8.90814e-05
3.76386e-05
8.08316e-05
2.98703e-05
7.20166e-05
2.27187e-05
6.25589e-05
1.63253e-05
5.23648e-05
1.08772e-05
4.13583e-05
6.60161e-06
2.95545e-05
3.71425e-06
1.73004e-05
2.22485e-06
6.08743e-06
1.4326e-06
6.5425e-07
8.5046e-05
9.36528e-05
9.67527e-05
0.000101477
0.00010743
0.000107312
0.000116694
0.000110972
0.000124258
0.000112402
0.000129949
0.000111677
0.00013374
0.000108996
0.000135687
0.000104638
0.000135898
9.88812e-05
0.000134556
9.20739e-05
0.000131851
8.45511e-05
0.000128009
7.6556e-05
0.000123209
6.83704e-05
0.000117599
6.02032e-05
0.000111286
5.22255e-05
0.000104335
4.45898e-05
9.67667e-05
3.74387e-05
8.8561e-05
3.09244e-05
7.96563e-05
2.523e-05
6.99427e-05
2.05909e-05
5.92426e-05
1.73017e-05
4.72839e-05
1.56731e-05
3.36646e-05
1.58442e-05
1.7757e-05
1.73402e-05
1.84113e-05
7.65521e-05
8.18506e-05
8.81592e-05
8.98695e-05
9.91489e-05
9.63225e-05
0.00010914
0.000100981
0.000117818
0.000103724
0.000124955
0.00010454
0.000130428
0.000103523
0.000134214
0.000100852
0.000136354
9.67406e-05
0.000136951
9.14774e-05
0.000136123
8.53794e-05
0.000134035
7.86432e-05
0.000130859
7.15464e-05
0.000126753
6.43096e-05
0.000121848
5.71306e-05
0.000116243
5.0195e-05
0.000110015
4.36662e-05
0.000103229
3.77104e-05
9.59493e-05
3.25101e-05
8.82673e-05
2.82729e-05
8.03446e-05
2.52245e-05
7.24654e-05
2.35523e-05
6.50418e-05
2.32679e-05
5.8558e-05
2.38242e-05
2.28059e-05
5.41633e-05
6.9358e-05
7.05355e-05
8.07782e-05
7.84492e-05
9.1927e-05
8.51737e-05
0.000102442
9.04659e-05
0.000112002
9.41645e-05
0.000120344
9.61972e-05
0.000127287
9.65802e-05
0.000132731
9.54085e-05
0.000136643
9.28288e-05
0.000139105
8.90145e-05
0.000140156
8.43286e-05
0.000139866
7.8933e-05
0.000138423
7.29891e-05
0.000135946
6.67872e-05
0.000132591
6.04851e-05
0.00012849
5.42967e-05
0.000123769
4.83865e-05
0.000118557
4.29227e-05
0.000113004
3.80629e-05
0.000107313
3.39636e-05
0.000101773
3.07652e-05