/*--------------------------------*- C++ -*----------------------------------*\
| =========                 |                                                 |
| \\      /  F ield         | OpenFOAM: The Open Source CFD Toolbox           |
|  \\    /   O peration     | Version:  v2012                                 |
|   \\  /    A nd           | Website:  www.openfoam.com                      |
|    \\/     M anipulation  |                                                 |
\*---------------------------------------------------------------------------*/
FoamFile
{
    version     2.0;
    format      ascii;
    class       volVectorField;
    location    "2000";
    object      U;
}
// * * * * * * * * * * * * * * * * * * * * * * * * * * * * * * * * * * * * * //

dimensions      [0 1 -1 0 0 0 0];


internalField   nonuniform List<vector> 
6502
(
(0.0880861 -0.802567 0)
(0.133152 -1.0159 0)
(0.0827643 -1.02177 0)
(0.0377286 -1.01103 0)
(0.0108686 -1.00776 0)
(-0.010732 -1.00776 0)
(-0.0376034 -1.01103 0)
(-0.0826634 -1.0218 0)
(-0.133129 -1.01589 0)
(-0.0880605 -0.802564 0)
(0.109444 -0.682327 0)
(0.181839 -1.07146 0)
(0.147165 -1.09423 0)
(0.0803005 -1.06847 0)
(0.0251025 -1.05322 0)
(-0.0246617 -1.05323 0)
(-0.0798863 -1.06851 0)
(-0.146823 -1.09432 0)
(-0.181563 -1.07159 0)
(-0.109411 -0.682443 0)
(0.0541502 -0.545266 0)
(0.153534 -1.04023 0)
(0.14114 -1.15299 0)
(0.0897727 -1.14771 0)
(0.0298923 -1.12979 0)
(-0.0290997 -1.12983 0)
(-0.0890421 -1.14784 0)
(-0.140575 -1.15323 0)
(-0.15321 -1.04059 0)
(-0.054112 -0.545577 0)
(0.0178068 -0.43502 0)
(0.107223 -0.973628 0)
(0.116834 -1.18017 0)
(0.0830566 -1.21368 0)
(0.0293511 -1.207 0)
(-0.028114 -1.20709 0)
(-0.0819316 -1.21398 0)
(-0.11595 -1.18077 0)
(-0.106807 -0.974435 0)
(-0.017731 -0.435601 0)
(0.00668394 -0.374884 0)
(0.0655052 -0.910166 0)
(0.0913109 -1.17864 0)
(0.0695458 -1.26069 0)
(0.0262555 -1.27236 0)
(-0.0244253 -1.27253 0)
(-0.0678869 -1.26125 0)
(-0.0901393 -1.17973 0)
(-0.0649201 -0.911599 0)
(-0.0065785 -0.375801 0)
(0.00287827 -0.344226 0)
(0.0385508 -0.864477 0)
(0.0650746 -1.16973 0)
(0.0548192 -1.29448 0)
(0.0218225 -1.32476 0)
(-0.0191937 -1.32508 0)
(-0.0524567 -1.29565 0)
(-0.0635236 -1.17163 0)
(-0.0377428 -0.866746 0)
(-0.00274674 -0.345594 0)
(0.00129294 -0.326238 0)
(0.0230497 -0.832589 0)
(0.0440782 -1.15795 0)
(0.0423085 -1.31354 0)
(0.0178343 -1.36516 0)
(-0.0141874 -1.36572 0)
(-0.0391817 -1.3154 0)
(-0.041931 -1.16099 0)
(-0.0219534 -0.835982 0)
(-0.00112487 -0.328216 0)
(0.000685574 -0.315008 0)
(0.0145464 -0.81036 0)
(0.030149 -1.14648 0)
(0.0316783 -1.32592 0)
(0.0140011 -1.39477 0)
(-0.0093092 -1.39576 0)
(-0.0275612 -1.32881 0)
(-0.027271 -1.15102 0)
(-0.0130937 -0.815255 0)
(-0.000471547 -0.317806 0)
(0.000483777 -0.307739 0)
(0.00985473 -0.794854 0)
(0.0213061 -1.13679 0)
(0.0242237 -1.33324 0)
(0.0108129 -1.417 0)
(-0.00464736 -1.4181 0)
(-0.0186325 -1.33745 0)
(-0.0174714 -1.14328 0)
(-0.00790702 -0.801741 0)
(-0.000199814 -0.311623 0)
(0.000425138 -0.302626 0)
(0.00721238 -0.783721 0)
(0.0156976 -1.12905 0)
(0.0190154 -1.33749 0)
(0.00916864 -1.4316 0)
(-0.000561299 -1.4336 0)
(-0.011439 -1.34349 0)
(-0.0104734 -1.13816 0)
(-0.00453326 -0.793293 0)
(-3.93512e-05 -0.307977 0)
(0.000430604 -0.298661 0)
(0.00580296 -0.775257 0)
(0.0124061 -1.12278 0)
(0.0157328 -1.33985 0)
(0.00899388 -1.44115 0)
(0.00277466 -1.44401 0)
(-0.00537745 -1.34829 0)
(-0.00518488 -1.13548 0)
(-0.0020737 -0.788505 0)
(9.81298e-05 -0.306055 0)
(0.000487441 -0.295245 0)
(0.00526503 -0.768223 0)
(0.0109673 -1.11726 0)
(0.0143877 -1.3407 0)
(0.0103772 -1.4477 0)
(0.00603122 -1.4516 0)
(-0.00010888 -1.35249 0)
(-0.000916712 -1.1349 0)
(-7.69735e-05 -0.786561 0)
(0.00024779 -0.305501 0)
(0.00058799 -0.291919 0)
(0.005395 -0.76163 0)
(0.0110188 -1.11171 0)
(0.0148213 -1.33999 0)
(0.0132673 -1.45177 0)
(0.00982728 -1.45727 0)
(0.00498221 -1.35654 0)
(0.00300827 -1.13623 0)
(0.00181341 -0.787043 0)
(0.000458524 -0.306124 0)
(0.000726749 -0.28831 0)
(0.00606987 -0.754667 0)
(0.0122948 -1.10543 0)
(0.0168965 -1.33768 0)
(0.0173653 -1.45404 0)
(0.0146645 -1.46167 0)
(0.0105573 -1.36089 0)
(0.00722757 -1.13953 0)
(0.00396144 -0.789925 0)
(0.000740947 -0.30801 0)
(0.00090843 -0.284092 0)
(0.00725584 -0.746627 0)
(0.0147105 -1.09779 0)
(0.0206156 -1.33362 0)
(0.0230308 -1.45464 0)
(0.0211029 -1.4652 0)
(0.017342 -1.36597 0)
(0.0123924 -1.14512 0)
(0.00674396 -0.795544 0)
(0.00116731 -0.311497 0)
(0.00113968 -0.278944 0)
(0.00897314 -0.736807 0)
(0.0183187 -1.08806 0)
(0.026149 -1.32739 0)
(0.0308048 -1.45343 0)
(0.02987 -1.46797 0)
(0.0262298 -1.37214 0)
(0.0193279 -1.15349 0)
(0.0107087 -0.804624 0)
(0.00187017 -0.317191 0)
(0.00141969 -0.272528 0)
(0.0112403 -0.724449 0)
(0.0232028 -1.07536 0)
(0.0337319 -1.31827 0)
(0.0412488 -1.44994 0)
(0.041621 -1.46982 0)
(0.038358 -1.37961 0)
(0.0292319 -1.16533 0)
(0.0168258 -0.818415 0)
(0.00313519 -0.326238 0)
(0.00173604 -0.264505 0)
(0.0140311 -0.708754 0)
(0.0293866 -1.05869 0)
(0.0435514 -1.3053 0)
(0.0548575 -1.44338 0)
(0.0569521 -1.47011 0)
(0.0551755 -1.38803 0)
(0.0440533 -1.18117 0)
(0.0269615 -0.83869 0)
(0.00561398 -0.340834 0)
(0.00206618 -0.254572 0)
(0.0172522 -0.688914 0)
(0.0367904 -1.03691 0)
(0.0557192 -1.28714 0)
(0.0721737 -1.43242 0)
(0.0771286 -1.46763 0)
(0.0783911 -1.39586 0)
(0.0670212 -1.20091 0)
(0.0450163 -0.868688 0)
(0.0132826 -0.367698 0)
(0.0023661 -0.242526 0)
(0.0206486 -0.664234 0)
(0.0449826 -1.00883 0)
(0.0698314 -1.26215 0)
(0.092707 -1.41528 0)
(0.103775 -1.46147 0)
(0.110907 -1.39994 0)
(0.105551 -1.21992 0)
(0.0867509 -0.902699 0)
(0.0529252 -0.399847 0)
(0.00256867 -0.228338 0)
(0.0237474 -0.634277 0)
(0.0529787 -0.973433 0)
(0.0844052 -1.22868 0)
(0.114061 -1.38884 0)
(0.134575 -1.4448 0)
(0.151076 -1.39332 0)
(0.158499 -1.22698 0)
(0.158463 -0.932129 0)
(0.146036 -0.525631 0)
(0.00260984 -0.212381 0)
(0.0259795 -0.599439 0)
(0.0594597 -0.930793 0)
(0.09696 -1.18634 0)
(0.132814 -1.35185 0)
(0.161453 -1.4165 0)
(0.184678 -1.37357 0)
(0.196802 -1.21889 0)
(0.195663 -0.943134 0)
(0.16191 -0.583405 0)
(0.00249157 -0.195429 0)
(0.0270429 -0.561079 0)
(0.0635659 -0.882317 0)
(0.105796 -1.13661 0)
(0.146714 -1.30671 0)
(0.180885 -1.37997 0)
(0.207212 -1.34769 0)
(0.220195 -1.21056 0)
(0.214479 -0.96355 0)
(0.17606 -0.650736 0)
(0.0022772 -0.178258 0)
(0.0270788 -0.520763 0)
(0.0653581 -0.829827 0)
(0.110904 -1.08146 0)
(0.155789 -1.25597 0)
(0.194282 -1.33901 0)
(0.221894 -1.32174 0)
(0.236399 -1.20628 0)
(0.229294 -0.993311 0)
(0.192276 -0.723531 0)
(0.00193144 -0.161451 0)
(0.026434 -0.479839 0)
(0.0653874 -0.774972 0)
(0.113075 -1.02248 0)
(0.161018 -1.20102 0)
(0.203173 -1.2949 0)
(0.232907 -1.2959 0)
(0.248926 -1.20173 0)
(0.242885 -1.02149 0)
(0.209363 -0.787467 0)
(0.00149331 -0.145344 0)
(0.0253821 -0.439251 0)
(0.0641683 -0.719016 0)
(0.113009 -0.960797 0)
(0.163226 -1.14245 0)
(0.208268 -1.24715 0)
(0.241558 -1.26525 0)
(0.259495 -1.19444 0)
(0.256012 -1.0445 0)
(0.227398 -0.841744 0)
(0.00121508 -0.130101 0)
(0.0240902 -0.399647 0)
(0.0621099 -0.662962 0)
(0.111285 -0.897437 0)
(0.163127 -1.08087 0)
(0.210688 -1.19565 0)
(0.247458 -1.23089 0)
(0.26906 -1.18378 0)
(0.269245 -1.06202 0)
(0.24628 -0.887857 0)
(0.00110284 -0.115789 0)
(0.0226729 -0.361476 0)
(0.0595369 -0.607602 0)
(0.108407 -0.833281 0)
(0.161288 -1.01692 0)
(0.211168 -1.14043 0)
(0.251168 -1.19171 0)
(0.277404 -1.1665 0)
(0.282111 -1.07356 0)
(0.265437 -0.926091 0)
(0.00101245 -0.102413 0)
(0.0212147 -0.325002 0)
(0.0566673 -0.553504 0)
(0.10474 -0.769043 0)
(0.158103 -0.951167 0)
(0.20989 -1.08178 0)
(0.253373 -1.14799 0)
(0.282453 -1.14493 0)
(0.293777 -1.07678 0)
(0.284063 -0.955431 0)
(0.000929869 -0.089961 0)
(0.0197666 -0.290362 0)
(0.0536376 -0.501061 0)
(0.100539 -0.705308 0)
(0.153908 -0.88418 0)
(0.207206 -1.02004 0)
(0.253881 -1.09954 0)
(0.287595 -1.11628 0)
(0.304781 -1.07187 0)
(0.302079 -0.975549 0)
(0.000853035 -0.078412 0)
(0.0183476 -0.257629 0)
(0.0505219 -0.450561 0)
(0.0959544 -0.642565 0)
(0.148896 -0.816494 0)
(0.203291 -0.955568 0)
(0.252805 -1.04628 0)
(0.291247 -1.08081 0)
(0.31434 -1.05836 0)
(0.318957 -0.986377 0)
(0.000779849 -0.0677398 0)
(0.0169594 -0.226849 0)
(0.0473514 -0.402229 0)
(0.0910609 -0.581253 0)
(0.143159 -0.748661 0)
(0.19819 -0.888836 0)
(0.250143 -0.988437 0)
(0.293052 -1.03867 0)
(0.32196 -1.03701 0)
(0.334006 -0.987439 0)
(0.000709323 -0.0579202 0)
(0.0155978 -0.198053 0)
(0.0441368 -0.356258 0)
(0.0858976 -0.521776 0)
(0.136748 -0.681254 0)
(0.191905 -0.820454 0)
(0.245793 -0.926517 0)
(0.29268 -0.990078 0)
(0.327484 -1.00694 0)
(0.34683 -0.978675 0)
(0.000641152 -0.0489335 0)
(0.0142595 -0.171269 0)
(0.040884 -0.312823 0)
(0.0804907 -0.464519 0)
(0.129703 -0.614861 0)
(0.184438 -0.751122 0)
(0.239661 -0.861199 0)
(0.289942 -0.935528 0)
(0.330238 -0.968651 0)
(0.356739 -0.960084 0)
(0.000575358 -0.0407625 0)
(0.0129443 -0.146523 0)
(0.0376029 -0.272078 0)
(0.0748698 -0.409848 0)
(0.122069 -0.550078 0)
(0.175819 -0.681606 0)
(0.231693 -0.793307 0)
(0.284662 -0.875746 0)
(0.329813 -0.92264 0)
(0.363083 -0.931831 0)
(0.000512195 -0.0333894 0)
(0.011656 -0.123828 0)
(0.034311 -0.234158 0)
(0.0690763 -0.358102 0)
(0.113912 -0.487493 0)
(0.166113 -0.612719 0)
(0.221899 -0.723784 0)
(0.276728 -0.811674 0)
(0.325926 -0.869674 0)
(0.365333 -0.894369 0)
(0.00045208 -0.0267936 0)
(0.0104022 -0.103188 0)
(0.0310345 -0.199173 0)
(0.0631679 -0.309584 0)
(0.105326 -0.42767 0)
(0.155438 -0.545294 0)
(0.210373 -0.65367 0)
(0.266148 -0.744436 0)
(0.318432 -0.810796 0)
(0.363116 -0.848485 0)
(0.000395891 -0.0209492 0)
(0.00919334 -0.0845853 0)
(0.0278075 -0.167194 0)
(0.0572186 -0.264545 0)
(0.0964364 -0.371121 0)
(0.143965 -0.480141 0)
(0.197305 -0.584044 0)
(0.253069 -0.675283 0)
(0.307361 -0.747275 0)
(0.356257 -0.795279 0)
(0.000345617 -0.0158241 0)
(0.00804228 -0.0679818 0)
(0.0246685 -0.13825 0)
(0.051313 -0.223173 0)
(0.0873921 -0.318284 0)
(0.131912 -0.418013 0)
(0.182967 -0.515976 0)
(0.237771 -0.605538 0)
(0.292927 -0.680554 0)
(0.344819 -0.736136 0)
(0.000297928 -0.0113853 0)
(0.00695941 -0.0533162 0)
(0.0216556 -0.112322 0)
(0.0455393 -0.185584 0)
(0.0783544 -0.269503 0)
(0.119532 -0.359562 0)
(0.167699 -0.450467 0)
(0.22065 -0.536521 0)
(0.275529 -0.612173 0)
(0.329111 -0.672654 0)
(0.000259621 -0.00755481 0)
(0.00593788 -0.0404902 0)
(0.0187989 -0.0893379 0)
(0.0399811 -0.151808 0)
(0.0694845 -0.225009 0)
(0.107088 -0.305313 0)
(0.15188 -0.3884 0)
(0.202195 -0.46948 0)
(0.255714 -0.543686 0)
(0.30967 -0.606564 0)
(0.000329512 -0.00435002 0)
(0.00499253 -0.0294073 0)
(0.0161394 -0.069189 0)
(0.0347186 -0.121803 0)
(0.0609338 -0.184918 0)
(0.0948391 -0.255643 0)
(0.135904 -0.330494 0)
(0.182939 -0.405522 0)
(0.23414 -0.476565 0)
(0.28722 -0.539618 0)
(0.000546032 -0.00160482 0)
(0.00413695 -0.0199352 0)
(0.0136993 -0.0517407 0)
(0.0298047 -0.0954621 0)
(0.0528237 -0.149238 0)
(0.0830119 -0.210773 0)
(0.120139 -0.277285 0)
(0.163417 -0.345562 0)
(0.21151 -0.412127 0)
(0.262604 -0.473485 0)
(0.000506145 0.000617704 0)
(0.00334124 -0.0120629 0)
(0.0114658 -0.0369617 0)
(0.0252925 -0.0728278 0)
(0.0453116 -0.118173 0)
(0.0719029 -0.171164 0)
(0.105059 -0.229579 0)
(0.144319 -0.290832 0)
(0.188748 -0.352062 0)
(0.236966 -0.410295 0)
(0.000164713 0.00235554 0)
(0.00260217 -0.00557454 0)
(0.00942209 -0.024511 0)
(0.0211817 -0.0535176 0)
(0.0384333 -0.0913636 0)
(0.0616193 -0.136561 0)
(0.0908909 -0.187331 0)
(0.126039 -0.241597 0)
(0.16646 -0.297029 0)
(0.211153 -0.351147 0)
(0.00018816 0.00369086 0)
(0.00194849 -0.000270439 0)
(0.00757307 -0.0140344 0)
(0.017451 -0.0370476 0)
(0.0321454 -0.0682387 0)
(0.0521227 -0.106371 0)
(0.0776411 -0.150005 0)
(0.10868 -0.197478 0)
(0.144898 -0.246909 0)
(0.185614 -0.296258 0)
(8.8002e-05 0.00453455 0)
(0.00108594 0.00403294 0)
(0.00579644 -0.00530284 0)
(0.0140503 -0.0231609 0)
(0.0264322 -0.0485357 0)
(0.0434332 -0.0803641 0)
(0.0653932 -0.117469 0)
(0.0924321 -0.158513 0)
(0.12441 -0.201985 0)
(0.160906 -0.246228 0)
(-0.000443214 0.00497196 0)
(-0.000517876 0.0079777 0)
(0.00413529 0.00205258 0)
(0.0110142 -0.0115654 0)
(0.0212906 -0.0319704 0)
(0.035534 -0.0582651 0)
(0.0541554 -0.089494 0)
(0.0773748 -0.124584 0)
(0.1052 -0.162327 0)
(0.137408 -0.201387 0)
(-3.16987e-05 0.00131753 0)
(0.000823703 0.010329 0)
(0.00347759 0.0076316 0)
(0.00862492 -0.00228475 0)
(0.0167613 -0.018381 0)
(0.0283787 -0.0398249 0)
(0.0438678 -0.0658139 0)
(0.0634861 -0.0954756 0)
(0.0873334 -0.127838 0)
(0.115328 -0.161826 0)
(3.99704e-05 0.00583315 0)
(0.00238549 0.0123859 0)
(0.00293412 0.0116777 0)
(0.00645694 0.00479417 0)
(0.0126047 -0.00758994 0)
(0.021792 -0.0247933 0)
(0.0343845 -0.0461389 0)
(0.0506551 -0.0709043 0)
(0.0707619 -0.0982988 0)
(0.0947231 -0.127457 0)
(-0.000129459 0.0063989 0)
(0.000676269 0.0130365 0)
(0.00156827 0.0142221 0)
(0.00401683 0.00990484 0)
(0.00853598 0.000665227 0)
(0.0155709 -0.0128781 0)
(0.0255347 -0.0301494 0)
(0.038734 -0.050543 0)
(0.0553756 -0.0734105 0)
(0.0755512 -0.0980526 0)
(-9.13791e-05 0.00650467 0)
(-0.000307762 0.013507 0)
(0.000273523 0.015834 0)
(0.00152325 0.0133802 0)
(0.0045856 0.00667911 0)
(0.00965459 -0.00377983 0)
(0.0172213 -0.0175229 0)
(0.0276129 -0.0340484 0)
(0.0410716 -0.0528294 0)
(0.0577428 -0.0733047 0)
(2.20527e-05 0.00595496 0)
(-0.00077559 0.0132703 0)
(-0.000979859 0.0163254 0)
(-0.00082569 0.0152808 0)
(0.000845035 0.0106298 0)
(0.0040769 0.00273612 0)
(0.00944145 -0.00797309 0)
(0.0172656 -0.0210918 0)
(0.0278153 -0.0362025 0)
(0.0412723 -0.0528623 0)
(1.86564e-05 0.00552676 0)
(-0.00109304 0.0124046 0)
(-0.00209171 0.0156691 0)
(-0.00273037 0.0156351 0)
(-0.00262804 0.012596 0)
(-0.00105988 0.00684604 0)
(0.0022853 -0.00124609 0)
(0.00777505 -0.0113613 0)
(0.0156851 -0.023181 0)
(0.0262173 -0.0363614 0)
(-8.47103e-05 0.00473553 0)
(-0.00135541 0.0108644 0)
(-0.00303924 0.0140424 0)
(-0.00453489 0.0145668 0)
(-0.0056852 0.0127205 0)
(-0.00562461 0.00875853 0)
(-0.00406643 0.00293094 0)
(-0.000647728 -0.00453447 0)
(0.00490675 -0.0134125 0)
(0.0128054 -0.0234373 0)
(-0.00016632 0.00375943 0)
(-0.00170437 0.00874333 0)
(-0.00386435 0.0115528 0)
(-0.00620794 0.0123358 0)
(-0.00820513 0.0113379 0)
(-0.0093629 0.00880712 0)
(-0.00929128 0.00490832 0)
(-0.00762803 -0.000241137 0)
(-0.00411028 -0.00652265 0)
(0.0014559 -0.0137266 0)
(-0.000189454 0.00260666 0)
(-0.00186761 0.00619593 0)
(-0.00427908 0.00839653 0)
(-0.00706169 0.00919934 0)
(-0.00969796 0.00878195 0)
(-0.0117651 0.00734234 0)
(-0.0128491 0.00507888 0)
(-0.0125894 0.00195485 0)
(-0.0107382 -0.00213219 0)
(-0.00717537 -0.00688797 0)
(-0.000175809 0.00141375 0)
(-0.001733 0.00356683 0)
(-0.00402882 0.00502101 0)
(-0.00681503 0.00561439 0)
(-0.00966832 0.00544852 0)
(-0.0122531 0.00474131 0)
(-0.0140678 0.00384752 0)
(-0.0147634 0.002498 0)
(-0.0141095 0.000270345 0)
(-0.0121744 -0.00252605 0)
(-0.000107948 0.000451924 0)
(-0.00117361 0.00138956 0)
(-0.00288695 0.00208051 0)
(-0.00507964 0.00227825 0)
(-0.00750381 0.0019394 0)
(-0.0101051 0.00117728 0)
(-0.0119816 0.0022136 0)
(-0.0131908 0.00306866 0)
(-0.013197 0.00143172 0)
(-0.0124908 -0.000390272 0)
(1.5236e-05 -1.58852e-05 0)
(-0.000334926 0.00011181 0)
(-0.00106575 0.000206557 0)
(-0.00200095 0.00022603 0)
(-0.00289229 0.000139652 0)
(-0.00381967 -9.06744e-05 0)
(-0.00153374 -0.000269787 0)
(-0.00559485 0.000353215 0)
(-0.00632656 0.000250481 0)
(-0.0066466 0.000138186 0)
(0.0365349 -0.143803 0)
(-0.0484592 -0.0283838 0)
(-0.0709648 -0.000807112 0)
(-0.0678343 0.00963489 0)
(-0.0602158 0.00726686 0)
(-0.0535302 0.00373765 0)
(-0.0477652 0.00230317 0)
(-0.0430214 0.00162086 0)
(-0.0393085 0.00117996 0)
(-0.0361291 0.000878753 0)
(-0.0332693 0.000705897 0)
(-0.0305342 0.000616728 0)
(-0.0277834 0.000587701 0)
(-0.0249239 0.000596648 0)
(-0.0219142 0.000623378 0)
(-0.0187615 0.000651523 0)
(-0.0155152 0.000667739 0)
(-0.0122622 0.000660446 0)
(-0.00912481 0.00061078 0)
(-0.00619811 0.000479594 0)
(-0.00373845 0.000346091 0)
(-0.00174737 0.000267019 0)
(-0.000391193 0.000144428 0)
(0.00023148 -5.45448e-05 0)
(0.000139983 -0.00020211 0)
(0.0664301 -0.251686 0)
(-0.0290542 -0.0878746 0)
(-0.0756902 -0.0234575 0)
(-0.0962853 0.000304553 0)
(-0.102975 0.00970626 0)
(-0.103322 0.0133518 0)
(-0.0998021 0.0118364 0)
(-0.0950897 0.00957238 0)
(-0.0900968 0.0081868 0)
(-0.084871 0.00739615 0)
(-0.0794995 0.00703739 0)
(-0.0738518 0.0069998 0)
(-0.0678361 0.00721384 0)
(-0.0613787 0.0075722 0)
(-0.0544768 0.00795677 0)
(-0.0472021 0.00825941 0)
(-0.0396947 0.0083861 0)
(-0.0321551 0.00825974 0)
(-0.024831 0.00781973 0)
(-0.0179905 0.00702164 0)
(-0.0119319 0.00588046 0)
(-0.00692373 0.00443331 0)
(-0.00319844 0.00273166 0)
(-0.000936082 0.00100944 0)
(-6.00358e-05 -0.000207528 0)
(0.0984384 -0.364732 0)
(0.0147144 -0.180805 0)
(-0.0453615 -0.0797989 0)
(-0.082839 -0.0281275 0)
(-0.104157 -0.00350369 0)
(-0.115378 0.00723137 0)
(-0.119834 0.0122609 0)
(-0.120384 0.0146596 0)
(-0.117912 0.0146914 0)
(-0.113806 0.0144996 0)
(-0.108388 0.0149608 0)
(-0.101989 0.0157514 0)
(-0.094681 0.0168195 0)
(-0.0864731 0.0180086 0)
(-0.0774533 0.019116 0)
(-0.0677802 0.0199454 0)
(-0.0576746 0.020319 0)
(-0.0474165 0.0200857 0)
(-0.0373345 0.0191308 0)
(-0.0277884 0.0173896 0)
(-0.0191552 0.0148741 0)
(-0.0117953 0.0116705 0)
(-0.00601996 0.00795737 0)
(-0.002167 0.00410897 0)
(-0.000140364 0.00078905 0)
(0.126226 -0.468113 0)
(0.0520691 -0.27666 0)
(-0.0108065 -0.150817 0)
(-0.0568577 -0.0751112 0)
(-0.0881273 -0.0318435 0)
(-0.108074 -0.00797316 0)
(-0.119889 0.00481389 0)
(-0.126155 0.011826 0)
(-0.128089 0.0163325 0)
(-0.127008 0.0201021 0)
(-0.123437 0.0226956 0)
(-0.118042 0.0250276 0)
(-0.110992 0.0276443 0)
(-0.10249 0.0302696 0)
(-0.0927418 0.0325881 0)
(-0.0819876 0.034326 0)
(-0.0705122 0.0352286 0)
(-0.0586542 0.0350732 0)
(-0.0468034 0.0336885 0)
(-0.0353899 0.0309794 0)
(-0.0248639 0.0269487 0)
(-0.0156667 0.0217156 0)
(-0.00822264 0.0155436 0)
(-0.00308611 0.00891258 0)
(-0.000121309 0.00255876 0)
(0.15198 -0.555448 0)
(0.0858695 -0.364834 0)
(0.0243481 -0.224813 0)
(-0.025637 -0.130913 0)
(-0.0632608 -0.0710796 0)
(-0.090089 -0.0339877 0)
(-0.108269 -0.0110325 0)
(-0.119814 0.00364851 0)
(-0.126251 0.0136064 0)
(-0.128824 0.0208004 0)
(-0.128232 0.0267678 0)
(-0.124749 0.0323545 0)
(-0.119092 0.0375402 0)
(-0.111422 0.0423179 0)
(-0.102023 0.0464154 0)
(-0.0912082 0.0495412 0)
(-0.0793056 0.0513823 0)
(-0.0666968 0.0516456 0)
(-0.0538227 0.0500965 0)
(-0.0411759 0.0465925 0)
(-0.0292836 0.0411125 0)
(-0.0186842 0.0337809 0)
(-0.00993411 0.0248896 0)
(-0.00389429 0.014949 0)
(-7.81901e-05 0.00485272 0)
(0.177785 -0.63108 0)
(0.118637 -0.446056 0)
(0.0597353 -0.298793 0)
(0.00813737 -0.191467 0)
(-0.0335683 -0.117445 0)
(-0.0655378 -0.0677443 0)
(-0.0890236 -0.034487 0)
(-0.105542 -0.0117068 0)
(-0.116456 0.00467679 0)
(-0.122797 0.0173718 0)
(-0.12529 0.0280731 0)
(-0.124533 0.0371019 0)
(-0.120863 0.0452972 0)
(-0.11484 0.0529347 0)
(-0.106619 0.0594245 0)
(-0.0965444 0.0644966 0)
(-0.084962 0.0677861 0)
(-0.0722804 0.0689222 0)
(-0.0589806 0.0675902 0)
(-0.0456144 0.0635762 0)
(-0.0327902 0.0568108 0)
(-0.0211474 0.0473936 0)
(-0.0113717 0.0356146 0)
(-0.00429968 0.0219682 0)
(-0.000260514 0.0074193 0)
(0.203836 -0.697838 0)
(0.1509 -0.521237 0)
(0.0951728 -0.37139 0)
(0.0433913 -0.25467 0)
(-0.000881648 -0.168815 0)
(-0.0367007 -0.107563 0)
(-0.0645556 -0.0641326 0)
(-0.0854602 -0.0328274 0)
(-0.100491 -0.00938031 0)
(-0.110583 0.00916023 0)
(-0.116497 0.024701 0)
(-0.118763 0.0383095 0)
(-0.117753 0.0503995 0)
(-0.113875 0.0612847 0)
(-0.107439 0.0707119 0)
(-0.0987271 0.0783038 0)
(-0.0880733 0.0836072 0)
(-0.0758872 0.0861513 0)
(-0.062669 0.085512 0)
(-0.049016 0.0813726 0)
(-0.0356111 0.073579 0)
(-0.0231988 0.0621814 0)
(-0.0125968 0.0474664 0)
(-0.00466499 0.029943 0)
(-0.00043907 0.0104382 0)
(0.229918 -0.756355 0)
(0.182918 -0.590303 0)
(0.13082 -0.441507 0)
(0.079883 -0.31892 0)
(0.0341753 -0.223676 0)
(-0.00451478 -0.152195 0)
(-0.0359672 -0.0991381 0)
(-0.060736 -0.0593446 0)
(-0.0796187 -0.0286141 0)
(-0.0934088 -0.00383697 0)
(-0.10279 0.0170912 0)
(-0.108281 0.0354332 0)
(-0.110248 0.0518658 0)
(-0.109011 0.0666247 0)
(-0.104855 0.0795398 0)
(-0.0980369 0.0902151 0)
(-0.0888557 0.0981184 0)
(-0.0776922 0.102661 0)
(-0.0650378 0.103278 0)
(-0.0515105 0.0995069 0)
(-0.0378523 0.0910626 0)
(-0.0249095 0.0779001 0)
(-0.0136478 0.0602517 0)
(-0.00526769 0.0386161 0)
(-0.000426666 0.0136771 0)
(0.255685 -0.806379 0)
(0.214804 -0.652838 0)
(0.166865 -0.508199 0)
(0.11764 -0.382936 0)
(0.0714452 -0.280792 0)
(0.030707 -0.20061 0)
(-0.00370664 -0.138713 0)
(-0.0318827 -0.0907352 0)
(-0.0543395 -0.0527282 0)
(-0.0717048 -0.021571 0)
(-0.0845649 0.00498222 0)
(-0.0933937 0.028379 0)
(-0.0985418 0.0494278 0)
(-0.100279 0.0684337 0)
(-0.0988259 0.0852788 0)
(-0.0943866 0.0995473 0)
(-0.0871998 0.110623 0)
(-0.0775903 0.117782 0)
(-0.0660094 0.120285 0)
(-0.0530639 0.117476 0)
(-0.0395286 0.108879 0)
(-0.0263355 0.0942889 0)
(-0.0145867 0.0738251 0)
(-0.00570779 0.0479276 0)
(-0.000413392 0.0172511 0)
(0.281 -0.847558 0)
(0.246541 -0.708289 0)
(0.203346 -0.570554 0)
(0.156664 -0.445578 0)
(0.110882 -0.339035 0)
(0.0688879 -0.251903 0)
(0.0321205 -0.182173 0)
(0.000971091 -0.126518 0)
(-0.0247644 -0.0814438 0)
(-0.045536 -0.0439325 0)
(-0.0618243 -0.0116805 0)
(-0.0740457 0.0168983 0)
(-0.0825199 0.0427445 0)
(-0.0874739 0.0662548 0)
(-0.0890696 0.0873664 0)
(-0.0874425 0.105655 0)
(-0.0827529 0.120424 0)
(-0.0752427 0.130805 0)
(-0.0652896 0.135856 0)
(-0.0534495 0.134683 0)
(-0.0404901 0.126545 0)
(-0.0273998 0.110994 0)
(-0.0154043 0.0879735 0)
(-0.00613779 0.057814 0)
(-0.000459364 0.0211594 0)
(0.30544 -0.879575 0)
(0.277835 -0.756009 0)
(0.240056 -0.627601 0)
(0.196793 -0.505696 0)
(0.152356 -0.397283 0)
(0.10995 -0.305122 0)
(0.0714958 -0.228825 0)
(0.0378495 -0.166208 0)
(0.0091591 -0.114431 0)
(-0.0148051 -0.070743 0)
(-0.0344107 -0.032849 0)
(-0.0500097 0.000916268 0)
(-0.0618837 0.0316133 0)
(-0.0702254 0.0597457 0)
(-0.0751468 0.0853242 0)
(-0.076715 0.107937 0)
(-0.0750015 0.126825 0)
(-0.070145 0.140976 0)
(-0.0624189 0.149229 0)
(-0.0522822 0.150421 0)
(-0.0404529 0.143469 0)
(-0.0279164 0.127575 0)
(-0.0159963 0.102423 0)
(-0.00650867 0.0681583 0)
(-0.000518866 0.0253341 0)
(0.328385 -0.901841 0)
(0.308138 -0.795181 0)
(0.276523 -0.678253 0)
(0.237625 -0.562043 0)
(0.19555 -0.454308 0)
(0.153675 -0.359211 0)
(0.114311 -0.277847 0)
(0.0787511 -0.209232 0)
(0.0475109 -0.151313 0)
(0.0206209 -0.10175 0)
(-0.00212975 -0.0584004 0)
(-0.0210203 -0.0195631 0)
(-0.0362944 0.0159187 0)
(-0.0481189 0.0486567 0)
(-0.0565702 0.0787563 0)
(-0.0616561 0.105851 0)
(-0.0633594 0.129154 0)
(-0.061704 0.147525 0)
(-0.0568351 0.159579 0)
(-0.0490432 0.163861 0)
(-0.0390428 0.158898 0)
(-0.0276328 0.143436 0)
(-0.016224 0.11678 0)
(-0.0067798 0.0787724 0)
(-0.000582987 0.0297513 0)
(0.349231 -0.913902 0)
(0.336773 -0.824968 0)
(0.312063 -0.721349 0)
(0.278514 -0.613263 0)
(0.239899 -0.508744 0)
(0.199617 -0.412953 0)
(0.160261 -0.328258 0)
(0.123511 -0.254853 0)
(0.0902544 -0.191572 0)
(0.0608105 -0.136622 0)
(0.0351595 -0.0881226 0)
(0.0131307 -0.0444399 0)
(-0.00546935 -0.00436157 0)
(-0.0207899 0.0328346 0)
(-0.0328932 0.0673578 0)
(-0.0417472 0.0989256 0)
(-0.0472588 0.126775 0)
(-0.0493332 0.149693 0)
(-0.0479699 0.166074 0)
(-0.0430859 0.174082 0)
(-0.0358477 0.171899 0)
(-0.0262805 0.157811 0)
(-0.0159329 0.130503 0)
(-0.00689442 0.0893618 0)
(-0.000648229 0.0343383 0)
(0.367211 -0.915426 0)
(0.362896 -0.844614 0)
(0.345778 -0.755739 0)
(0.318556 -0.657939 0)
(0.284551 -0.55909 0)
(0.247039 -0.464942 0)
(0.208763 -0.378867 0)
(0.171713 -0.302143 0)
(0.13713 -0.234524 0)
(0.105642 -0.174872 0)
(0.0774546 -0.12169 0)
(0.0525347 -0.0735121 0)
(0.030759 -0.0291373 0)
(0.0120101 0.0122332 0)
(-0.00377074 0.0509224 0)
(-0.0165505 0.0867586 0)
(-0.0261973 0.119053 0)
(-0.0325223 0.146595 0)
(-0.0354262 0.167664 0)
(-0.0346455 0.179904 0)
(-0.0304339 0.18153 0)
(-0.0236072 0.169858 0)
(-0.0149277 0.142941 0)
(-0.00677434 0.0995388 0)
(-0.000713145 0.0389864 0)
(0.381512 -0.90622 0)
(0.385549 -0.853495 0)
(0.376593 -0.780353 0)
(0.356608 -0.694652 0)
(0.328367 -0.603751 0)
(0.294879 -0.513598 0)
(0.258895 -0.428263 0)
(0.222615 -0.349938 0)
(0.187581 -0.279267 0)
(0.154728 -0.215829 0)
(0.124512 -0.158617 0)
(0.0970766 -0.106437 0)
(0.0723953 -0.0581872 0)
(0.0503943 -0.0130455 0)
(0.0310248 0.0294123 0)
(0.0143166 0.0691323 0)
(0.000409082 0.105543 0)
(-0.010456 0.1375 0)
(-0.0179926 0.163279 0)
(-0.0222018 0.180567 0)
(-0.021819 0.186458 0)
(-0.0189942 0.178388 0)
(-0.0127786 0.153196 0)
(-0.0062305 0.108716 0)
(-0.000755378 0.0434968 0)
(0.391371 -0.886342 0)
(0.403754 -0.851202 0)
(0.403338 -0.79429 0)
(0.391354 -0.722073 0)
(0.369958 -0.641118 0)
(0.341763 -0.557222 0)
(0.309384 -0.474829 0)
(0.275103 -0.396825 0)
(0.240686 -0.324645 0)
(0.207341 -0.258592 0)
(0.175785 -0.198221 0)
(0.146363 -0.142705 0)
(0.119182 -0.0911336 0)
(0.0942319 -0.0427333 0)
(0.0714872 0.00298016 0)
(0.0509734 0.0460752 0)
(0.032821 0.0861237 0)
(0.0172941 0.122119 0)
(0.00475892 0.152403 0)
(-0.00425873 0.174653 0)
(-0.0096724 0.18578 0)
(-0.0113882 0.182019 0)
(-0.00912905 0.15998 0)
(-0.00506658 0.115991 0)
(-0.000749582 0.0475326 0)
(0.39615 -0.856185 0)
(0.416604 -0.837644 0)
(0.424844 -0.796926 0)
(0.421397 -0.739073 0)
(0.407762 -0.669672 0)
(0.386058 -0.594079 0)
(0.358623 -0.516803 0)
(0.327685 -0.441164 0)
(0.295126 -0.369237 0)
(0.262365 -0.301992 0)
(0.230361 -0.239572 0)
(0.199671 -0.18159 0)
(0.170561 -0.127416 0)
(0.143114 -0.0764072 0)
(0.117339 -0.0280831 0)
(0.093252 0.0177263 0)
(0.0709533 0.0607458 0)
(0.0506751 0.100156 0)
(0.0328161 0.134448 0)
(0.0179283 0.161277 0)
(0.00649009 0.17743 0)
(-0.000284651 0.179238 0)
(-0.00383335 0.161672 0)
(-0.0032106 0.120215 0)
(-0.000699323 0.0506187 0)
(0.395412 -0.816514 0)
(0.423361 -0.813122 0)
(0.440059 -0.788011 0)
(0.445381 -0.744842 0)
(0.440168 -0.688117 0)
(0.425975 -0.62253 0)
(0.404751 -0.552378 0)
(0.378533 -0.481159 0)
(0.349193 -0.411384 0)
(0.318276 -0.344584 0)
(0.286926 -0.28146 0)
(0.255903 -0.222103 0)
(0.225645 -0.166234 0)
(0.196351 -0.113424 0)
(0.168085 -0.0632751 0)
(0.140863 -0.0155815 0)
(0.114741 0.0295265 0)
(0.089886 0.0714265 0)
(0.0666507 0.108864 0)
(0.0456092 0.13975 0)
(0.0275262 0.160989 0)
(0.0135627 0.168307 0)
(0.00391255 0.156684 0)
(-0.000513805 0.120128 0)
(-0.000576884 0.0523182 0)
(0.388981 -0.768465 0)
(0.423551 -0.778367 0)
(0.448161 -0.767749 0)
(0.462124 -0.738997 0)
(0.465653 -0.695507 0)
(0.459714 -0.641168 0)
(0.445781 -0.579846 0)
(0.425584 -0.514966 0)
(0.40086 -0.449263 0)
(0.373166 -0.384677 0)
(0.343757 -0.322388 0)
(0.313557 -0.262954 0)
(0.283165 -0.206488 0)
(0.252912 -0.152844 0)
(0.22294 -0.10179 0)
(0.193279 -0.0531639 0)
(0.16394 -0.00701824 0)
(0.134999 0.0362187 0)
(0.106689 0.0755719 0)
(0.0794951 0.109325 0)
(0.0542302 0.134749 0)
(0.0321297 0.147821 0)
(0.0147518 0.143204 0)
(0.00370794 0.114099 0)
(-0.000333546 0.0519242 0)
(0.376984 -0.713508 0)
(0.417032 -0.734537 0)
(0.448668 -0.736832 0)
(0.470754 -0.721664 0)
(0.482947 -0.691368 0)
(0.485636 -0.648963 0)
(0.479776 -0.597734 0)
(0.466697 -0.540835 0)
(0.447901 -0.481007 0)
(0.424835 -0.420417 0)
(0.398774 -0.360609 0)
(0.370736 -0.302552 0)
(0.341453 -0.24675 0)
(0.311387 -0.193384 0)
(0.28077 -0.14246 0)
(0.249673 -0.0939472 0)
(0.218076 -0.0479138 0)
(0.185949 -0.00466747 0)
(0.153354 0.0350781 0)
(0.120563 0.0700157 0)
(0.0882054 0.0980245 0)
(0.0574595 0.115849 0)
(0.0303764 0.118743 0)
(0.0105489 0.0997908 0)
(0.000201556 0.048259 0)
(0.359854 -0.653372 0)
(0.404032 -0.683173 0)
(0.441506 -0.696436 0)
(0.470817 -0.693514 0)
(0.491164 -0.675792 0)
(0.502419 -0.645438 0)
(0.505044 -0.60506 0)
(0.499879 -0.557299 0)
(0.488095 -0.504857 0)
(0.47095 -0.449916 0)
(0.449642 -0.39422 0)
(0.425207 -0.339053 0)
(0.398456 -0.285273 0)
(0.369955 -0.233396 0)
(0.340037 -0.18371 0)
(0.308837 -0.136392 0)
(0.276337 -0.0916344 0)
(0.242422 -0.0497525 0)
(0.206958 -0.011315 0)
(0.169901 0.0227211 0)
(0.131432 0.0508598 0)
(0.0922035 0.0709814 0)
(0.0540696 0.0800711 0)
(0.0223444 0.0732116 0)
(0.00135002 0.0389617 0)
(0.338293 -0.589935 0)
(0.385137 -0.626104 0)
(0.427041 -0.648155 0)
(0.462362 -0.655735 0)
(0.489974 -0.649417 0)
(0.509242 -0.630484 0)
(0.520532 -0.601137 0)
(0.523404 -0.563461 0)
(0.51941 -0.519472 0)
(0.509248 -0.471489 0)
(0.493961 -0.421353 0)
(0.474537 -0.370513 0)
(0.451808 -0.320096 0)
(0.426405 -0.27092 0)
(0.398755 -0.223565 0)
(0.369084 -0.17847 0)
(0.33743 -0.136034 0)
(0.303666 -0.0967257 0)
(0.267536 -0.0611793 0)
(0.228687 -0.0302765 0)
(0.186719 -0.00513157 0)
(0.141235 0.0130666 0)
(0.0925534 0.0235682 0)
(0.0456785 0.0263806 0)
(0.00662502 0.0151441 0)
(0.313217 -0.525106 0)
(0.361242 -0.56532 0)
(0.406038 -0.593887 0)
(0.445902 -0.609962 0)
(0.479494 -0.613488 0)
(0.505887 -0.605109 0)
(0.524638 -0.586212 0)
(0.535962 -0.558551 0)
(0.540087 -0.523731 0)
(0.53766 -0.483696 0)
(0.529431 -0.440247 0)
(0.516255 -0.394973 0)
(0.498958 -0.349152 0)
(0.478196 -0.303803 0)
(0.454474 -0.25976 0)
(0.428137 -0.21773 0)
(0.399351 -0.178368 0)
(0.368119 -0.142378 0)
(0.33428 -0.110634 0)
(0.297508 -0.0842787 0)
(0.257244 -0.0647231 0)
(0.212442 -0.0532995 0)
(0.161464 -0.0498705 0)
(0.10472 -0.0488418 0)
(0.0450755 -0.0385481 0)
(0.28594 -0.461355 0)
(0.333749 -0.50349 0)
(0.379882 -0.536326 0)
(0.422688 -0.558727 0)
(0.460742 -0.570194 0)
(0.492931 -0.570858 0)
(0.518506 -0.56146 0)
(0.537251 -0.543178 0)
(0.549129 -0.517295 0)
(0.554658 -0.485671 0)
(0.553957 -0.449839 0)
(0.547898 -0.410767 0)
(0.537102 -0.370359 0)
(0.522225 -0.329688 0)
(0.503872 -0.289685 0)
(0.482517 -0.251243 0)
(0.458512 -0.215205 0)
(0.43213 -0.182445 0)
(0.403616 -0.153966 0)
(0.373267 -0.130992 0)
(0.341554 -0.114985 0)
(0.309196 -0.1074 0)
(0.277748 -0.108884 0)
(0.251618 -0.11733 0)
(0.231664 -0.122486 0)
(0.25754 -0.400204 0)
(0.303931 -0.442487 0)
(0.349975 -0.47759 0)
(0.394159 -0.504244 0)
(0.435077 -0.52167 0)
(0.471532 -0.529616 0)
(0.502604 -0.528337 0)
(0.52774 -0.518528 0)
(0.546694 -0.501136 0)
(0.559247 -0.477241 0)