/*--------------------------------*- C++ -*----------------------------------*\
| =========                 |                                                 |
| \\      /  F ield         | OpenFOAM: The Open Source CFD Toolbox           |
|  \\    /   O peration     | Version:  v2012                                 |
|   \\  /    A nd           | Website:  www.openfoam.com                      |
|    \\/     M anipulation  |                                                 |
\*---------------------------------------------------------------------------*/
FoamFile
{
    version     2.0;
    format      ascii;
    class       volScalarField;
    location    "504";
    object      age;
}
// * * * * * * * * * * * * * * * * * * * * * * * * * * * * * * * * * * * * * //

dimensions      [0 0 1 0 0 0 0];


internalField   nonuniform List<scalar> 
6556
(
0.0125016
0.0124997
0.0124998
0.0124998
0.0124999
0.0124999
0.0124998
0.0124998
0.0124997
0.0125016
0.0375086
0.0374976
0.0374977
0.037498
0.0374982
0.0374982
0.037498
0.0374977
0.0374976
0.0375086
0.0625253
0.0624948
0.062493
0.0624933
0.0624936
0.0624936
0.0624933
0.062493
0.0624947
0.0625253
0.0875523
0.0874918
0.0874856
0.0874851
0.0874853
0.0874853
0.0874851
0.0874856
0.0874918
0.0875523
0.112589
0.112489
0.112476
0.112473
0.112473
0.112473
0.112473
0.112476
0.112489
0.112589
0.137636
0.137487
0.137463
0.137458
0.137456
0.137456
0.137458
0.137463
0.137487
0.137636
0.162692
0.162486
0.162449
0.162438
0.162435
0.162435
0.162438
0.162449
0.162486
0.162692
0.187757
0.187486
0.187432
0.187416
0.187411
0.187411
0.187416
0.187432
0.187485
0.187756
0.21283
0.212485
0.212414
0.212391
0.212383
0.212383
0.21239
0.212413
0.212485
0.212829
0.23791
0.237486
0.237394
0.237362
0.237351
0.237351
0.237362
0.237393
0.237485
0.237909
0.262998
0.262487
0.262372
0.262331
0.262316
0.262316
0.26233
0.262371
0.262486
0.262997
0.288094
0.287489
0.287348
0.287297
0.287279
0.287278
0.287296
0.287347
0.287487
0.288092
0.313197
0.312491
0.312323
0.312261
0.312238
0.312237
0.312259
0.312321
0.312488
0.313194
0.338307
0.337494
0.337296
0.337222
0.337194
0.337193
0.33722
0.337293
0.337489
0.338301
0.363424
0.362497
0.362269
0.362181
0.362147
0.362146
0.362178
0.362263
0.36249
0.363419
0.388548
0.387502
0.38724
0.387138
0.387098
0.387096
0.387133
0.387231
0.387491
0.388521
0.413681
0.412508
0.41221
0.412093
0.412046
0.412043
0.412085
0.412197
0.412492
0.413723
0.438822
0.437516
0.43718
0.437047
0.436992
0.436987
0.437033
0.437159
0.43749
0.438533
0.463972
0.462527
0.462151
0.461999
0.461935
0.461927
0.461976
0.462117
0.46249
0.465038
0.489134
0.487542
0.487123
0.486951
0.486875
0.486862
0.486912
0.487066
0.487473
0.484399
0.514309
0.512564
0.512099
0.511904
0.511814
0.511792
0.511839
0.512001
0.512449
0.534154
0.539502
0.537596
0.537081
0.536861
0.536755
0.536722
0.536763
0.536931
0.53743
0.568018
0.564717
0.562642
0.562074
0.561826
0.561701
0.561655
0.561691
0.561874
0.56242
0.601252
0.589961
0.587709
0.587083
0.586806
0.58666
0.586598
0.58663
0.586842
0.587436
0.633861
0.61524
0.612804
0.612116
0.611807
0.611638
0.61156
0.611592
0.611854
0.612501
0.665854
0.640565
0.637936
0.63718
0.636837
0.636643
0.636551
0.636589
0.636925
0.63763
0.697075
0.665945
0.663114
0.662287
0.661906
0.661687
0.661581
0.661632
0.662073
0.662841
0.727454
0.691394
0.688352
0.687446
0.687027
0.68678
0.686661
0.686736
0.687312
0.688144
0.756832
0.716927
0.713664
0.712672
0.712211
0.711936
0.711807
0.711916
0.712661
0.71354
0.785019
0.742562
0.739067
0.737982
0.737476
0.737172
0.737036
0.737189
0.738139
0.739043
0.811943
0.76832
0.764581
0.763393
0.76284
0.762506
0.762365
0.762575
0.763766
0.764672
0.837619
0.794225
0.790232
0.78893
0.788325
0.78796
0.787818
0.788094
0.789561
0.790451
0.862079
0.820306
0.816046
0.814616
0.813957
0.81356
0.813418
0.813769
0.815543
0.816405
0.885425
0.846599
0.842057
0.840485
0.839766
0.839334
0.839194
0.839624
0.841727
0.842557
0.907794
0.873143
0.868305
0.866572
0.865786
0.865317
0.865178
0.865685
0.86813
0.868932
0.929347
0.899987
0.894837
0.892921
0.89206
0.891549
0.891407
0.891983
0.894766
0.895556
0.950277
0.927189
0.921709
0.919584
0.918637
0.918079
0.917927
0.918555
0.921653
0.922462
0.970845
0.954818
0.948988
0.946624
0.945577
0.944965
0.944792
0.945446
0.948817
0.949692
0.991372
0.982958
0.976754
0.974116
0.972951
0.972275
0.972069
0.972715
0.976293
0.977301
1.01221
1.01171
1.00511
1.00215
1.00085
1.00009
0.99984
1.00044
1.00413
1.00536
1.03374
1.04119
1.03416
1.03084
1.02937
1.02852
1.0282
1.02871
1.0324
1.03392
1.05629
1.07156
1.06405
1.06032
1.05864
1.05769
1.05728
1.05765
1.06121
1.06314
1.07882
1.10299
1.09496
1.09074
1.08881
1.08773
1.08722
1.08741
1.09069
1.0932
1.10162
1.13571
1.12709
1.12231
1.12006
1.11882
1.1182
1.11818
1.12102
1.12431
1.12484
1.17001
1.16071
1.15526
1.15263
1.15119
1.15043
1.1502
1.15242
1.15678
1.14817
1.20624
1.19614
1.18991
1.18679
1.18509
1.18415
1.18372
1.18514
1.19095
1.17416
1.24489
1.2338
1.22663
1.22289
1.22084
1.21969
1.21908
1.21959
1.22617
1.21216
1.28661
1.27425
1.26592
1.26137
1.25885
1.25741
1.25663
1.2563
1.26232
1.25556
1.33229
1.31827
1.30843
1.30283
1.29964
1.29778
1.29681
1.29588
1.30015
1.2999
1.38331
1.36694
1.35508
1.34803
1.34391
1.34144
1.34015
1.3389
1.34102
1.34393
1.44176
1.42193
1.40716
1.39807
1.39258
1.38921
1.38736
1.38593
1.38629
1.38925
1.51142
1.48601
1.4667
1.45451
1.44697
1.44224
1.43946
1.43772
1.43702
1.4386
1.59912
1.5637
1.53689
1.5198
1.50904
1.50214
1.49787
1.49536
1.49402
1.49427
1.72482
1.6663
1.62369
1.59775
1.58185
1.5717
1.56515
1.56113
1.55886
1.5581
1.92584
1.81642
1.74135
1.69603
1.66929
1.65313
1.6431
1.63694
1.63344
1.63187
2.55699
2.10002
1.91508
1.83713
1.7903
1.76149
1.74298
1.73104
1.72369
1.7197
12.0804
6.32464
3.04
2.08466
1.93175
1.88542
1.86259
1.84886
1.83972
1.83377
12.331
11.4947
7.42514
4.12071
2.60332
2.13795
2.02815
1.98954
1.97087
1.96234
11.3839
11.6907
10.8209
7.83884
5.24348
3.65958
2.8574
2.4658
2.31401
2.24714
10.9107
9.96302
9.51842
8.53431
7.14816
6.05202
5.2826
4.69422
4.2634
3.96362
134.476
157.899
157.83
158.203
158.838
159.845
161.381
163.557
166.975
170.55
174.482
178.645
182.321
185.182
187.157
188.28
188.524
188.68
188.834
188.991
189.156
189.341
189.569
189.892
191.828
132.659
156.101
154.441
154.464
154.537
155.012
156.545
160.192
168.822
180.105
192.98
206.571
219.804
231.635
241.131
247.539
250.471
248.756
242.266
231.762
218.909
206.23
196.564
191.585
191.476
126.735
155.261
154.145
153.979
153.883
153.984
154.67
157.287
168.393
187.018
209.971
235.734
262.594
288.177
309.807
325.059
332.128
330.221
319.202
299.551
272.873
242.821
215.665
197.634
191.814
119.921
155.092
154.375
154.117
153.745
153.656
153.887
155.093
165.587
189.566
222.168
261.127
304.481
348.011
386.082
413.504
426.618
423.858
405.721
374.311
332.743
285.396
239.954
206.644
192.718
112.541
155.377
155.373
155.122
154.122
153.557
153.493
153.866
161.36
187.337
227.523
278.827
339.53
403.169
459.963
501.352
521.653
518.289
492.141
447.272
389.668
325.678
263.668
215.978
193.8
104.188
155.876
157.344
157.568
155.721
153.922
153.359
153.467
157.19
180.743
224.926
285.445
361.155
443.715
518.615
573.92
602.04
599.091
566.313
509.455
437.288
358.792
283.228
223.842
194.735
95.4032
155.488
160.018
161.574
159.08
155.476
153.449
153.133
154.182
171.426
215.045
279.886
365.239
462.041
551.865
619.474
655.748
655.017
618.204
553.186
470.737
381.904
296.921
229.457
195.415
86.4013
153.864
162.802
166.705
164.308
158.863
154.421
153.058
152.982
162.391
199.851
263.036
351.16
454.971
554.688
631.484
674.71
676.728
642.238
574.035
487.262
393.731
304.189
232.597
195.821
77.2301
150.871
165.042
172.123
170.923
164.191
156.985
153.312
152.765
155.871
182.545
238.058
321.121
424.665
528.035
609.58
657.254
666.025
635.598
570.925
486.594
394.334
305.206
233.325
196.019
68.0059
146.279
166.548
177.07
178.248
171.318
161.748
154.733
152.708
152.601
166.844
209.786
280.775
376.059
477.038
560.095
611.268
625.694
601.789
546.466
470.428
384.757
300.586
231.843
196.209
58.906
140.047
167.518
181.027
185.541
179.72
168.786
158.387
153.113
152.425
156.74
183.387
237.213
317.133
409.461
490.586
542.853
562.186
548.576
505.601
441.8
366.808
291.286
228.556
196.398
50.0823
131.647
167.359
183.705
192.252
188.815
177.925
165.161
155.641
152.446
152.301
163.627
197.729
256.912
334.194
410.339
464.16
488.007
483.844
453.996
404.357
342.669
278.464
224.015
196.592
41.6825
121.652
165.53
185.256
197.894
198.105
188.734
174.888
161.787
153.965
152.139
154.041
168.686
204.677
260.813
326.032
380.563
410.094
414.301
397.02
361.88
314.807
263.684
219.165
196.796
33.8268
110.401
161.7
185.756
202.621
207.12
200.84
187.824
172.682
159.882
153.227
152.048
154.619
168.533
200.383
247.095
296.396
331.862
345.296
339.171
317.844
285.43
248.095
214.409
197.005
26.6167
98.219
155.666
184.986
205.439
215.421
213.414
203.083
188.165
172.469
159.689
153.216
151.966
153.521
162.896
186.134
220.534
254.812
278.135
283.733
274.984
256.822
233.685
211.8
198.285
20.0829
85.0662
147.219
182.668
206.751
222.356
225.693
219.604
207.213
191.506
175.375
161.823
154.013
151.506
151.5
155.161
167.484
188.502
212.125
229.807
236.536
233.074
225.077
214.69
203.287
14.5744
71.047
136.094
178.266
206.184
227.355
236.722
235.945
227.889
214.948
199.275
182.893
168.006
157.316
151.41
149.505
149.446
152.12
159.715
170.113
179.779
184.86
181.647
171.019
156.912
10.3066
56.7196
122.076
171.002
203.41
229.475
245.324
250.659
247.993
239.604
227.296
212.569
196.759
181.202
167.409
157.182
150.387
146.476
144.933
144.826
144.765
144.697
144.564
143.2
141.479
7.1513
42.8172
105.215
159.96
197.789
227.952
250.382
262.291
265.745
262.773
255.119
244.158
231.038
216.749
202.204
188.286
175.854
165.544
157.794
152.895
150.069
148.738
148.661
150.173
155.213
4.90857
30.1373
85.9903
144.256
188.225
222.323
250.33
269.309
279.499
282.638
280.342
273.998
264.684
253.375
240.933
228.126
215.645
204.123
194.153
186.279
180.957
178.478
179.127
183.483
191.839
3.3853
19.4107
65.6707
123.636
173.293
211.894
244.091
269.607
286.958
296.912
300.736
299.687
295
287.573
278.284
268.023
257.51
247.484
238.515
231.085
225.684
222.796
222.812
226.106
232.591
2.40806
11.2158
45.1994
98.5377
151.721
195.409
231.27
261.463
285.368
302.47
313.068
318.092
318.588
315.564
309.845
302.479
293.944
285.148
277.017
270.341
265.44
262.443
261.552
262.971
266.737
1.81348
6.26202
27.3301
70.9998
123.226
171.136
211.095
244.694
273.039
296.009
313.284
325.818
333.082
333.641
332.322
328.626
323.379
316.706
308.838
301.239
295.441
291.697
289.953
289.996
291.616
1.48028
3.63671
14.2556
44.8754
90.0634
138.376
181.965
218.996
250.372
276.945
298.818
316.531
329.18
336.669
340.954
338.867
336.779
334.902
332.18
326.84
320.047
313.86
308.95
305.987
305.428
1.31669
2.32072
6.50243
23.4472
56.6993
99.3954
143.214
183.006
217.292
246.442
271.024
291.623
308.244
320.774
329.838
334.567
335.816
336.417
336.216
334.561
332.14
329.886
328.328
327.373
326.484
1.25108
1.67161
3.21924
9.97975
29.3266
60.5137
98.346
137.056
172.859
204.246
231.055
253.662
272.49
287.792
299.65
308.568
314.34
317.323
318.287
317.804
316.4
314.56
312.68
311.066
309.985
1.24107
1.38713
1.97625
3.779
11.5472
29.2398
55.6066
87.0843
119.775
150.82
178.699
202.883
223.409
240.524
254.361
265.163
273.177
278.679
282.076
283.826
284.367
284.092
283.322
282.324
281.324
1.25775
1.30464
1.47687
1.94995
3.69111
10.2462
23.8773
43.7835
67.7651
93.3163
118.376
141.595
162.271
180.156
195.185
207.406
217.024
224.317
229.598
233.195
235.437
236.631
237.057
236.957
236.511
1.29552
1.30551
1.33601
1.45337
1.59738
2.53386
6.38371
14.781
27.8386
44.0909
61.9687
80.1014
97.4664
113.401
127.504
139.571
149.587
157.663
163.977
168.746
172.2
174.566
176.059
176.87
177.17
1.34228
1.34149
1.34408
1.36297
1.4097
1.53086
1.6458
2.72775
6.04117
12.0495
20.9018
31.4124
42.5997
53.7339
64.2702
73.8317
82.2134
89.3452
95.2481
99.9998
103.713
106.52
108.555
109.951
110.821
1.3911
1.39127
1.3877
1.38409
1.39211
1.42178
1.46519
1.55112
1.6397
1.71465
2.84057
5.16479
8.60539
12.9578
17.9465
23.274
28.381
33.0278
37.1074
40.5812
43.4568
45.7721
47.5803
48.9441
49.9215
1.44147
1.44425
1.44485
1.44209
1.43916
1.44075
1.45064
1.47495
1.51151
1.5499
1.61162
1.66189
1.71179
1.76219
1.88657
2.34669
3.04692
3.89124
4.79579
5.69251
6.53207
7.28263
7.92616
8.45613
8.87549
1.49633
1.49973
1.50349
1.50603
1.50684
1.5055
1.50604
1.5087
1.52145
1.53561
1.55838
1.58626
1.61635
1.64618
1.68185
1.72095
1.75392
1.78511
1.81593
1.84647
1.87675
1.90674
1.93644
1.96585
1.99501
1.55896
1.56145
1.56547
1.57039
1.57545
1.57949
1.58291
1.58591
1.58884
1.59498
1.60378
1.61517
1.63288
1.64991
1.66864
1.69059
1.71445
1.73892
1.76365
1.78851
1.81345
1.83843
1.86343
1.88843
1.91344
1.63189
1.63342
1.6365
1.6411
1.64703
1.65381
1.66094
1.66826
1.67519
1.68247
1.69043
1.69938
1.7093
1.72109
1.73446
1.74919
1.7653
1.78267
1.80112
1.82035
1.84066
1.86207
1.88371
1.90504
1.92635
1.71821
1.71865
1.72073
1.72437
1.72952
1.73609
1.74388
1.7527
1.7623
1.77247
1.78316
1.79443
1.80618
1.8186
1.83182
1.84584
1.86065
1.87625
1.89261
1.90969
1.92741
1.94569
1.9645
1.9838
2.00354
1.83043
1.82925
1.82988
1.83216
1.83597
1.84124
1.84789
1.85583
1.86497
1.8752
1.88637
1.8984
1.9112
1.92469
1.93884
1.95361
1.96897
1.9849
2.00136
2.01833
2.03576
2.05362
2.07186
2.09046
2.10939
1.95927
1.95929
1.96127
1.96474
1.96947
1.97534
1.98231
1.99031
1.99934
2.00933
2.02026
2.03206
2.04468
2.05807
2.07215
2.08687
2.10219
2.11805
2.1344
2.1512
2.16841
2.186
2.20391
2.22212
2.2406
2.21318
2.19441
2.18401
2.17906
2.1779
2.17955
2.18341
2.18907
2.19625
2.20475
2.21443
2.22517
2.23685
2.24941
2.26276
2.27682
2.29154
2.30685
2.3227
2.33902
2.35578
2.37293
2.39043
2.40821
2.42635
3.76593
3.63415
3.5411
3.47251
3.42063
3.38101
3.35081
3.32808
3.31142
3.29977
3.29235
3.28851
3.28776
3.28964
3.2938
3.29998
3.30791
3.31741
3.32827
3.34034
3.35346
3.36752
3.38238
3.39795
3.41424
197.519
197.803
136.283
178.724
152.195
134.322
143.456
136.601
140.97
141.443
148.712
163.402
164.392
179.446
196.407
203.043
216.495
231.192
241.184
251.003
262.079
272.183
278.775
286.592
294.655
298.77
303.971
306.724
309.049
312.381
324.419
321.963
320.303
309.565
309.826
310.559
280.523
280.012
279.792
235.935
235.361
234.827
177.14
176.904
176.539
111.277
111.444
111.431
50.5594
50.9397
51.1534
9.1695
9.37728
9.52397
2.02044
2.04557
2.07055
1.9369
1.95881
1.98071
1.94676
1.96628
1.9856
2.02237
2.04023
2.05829
2.12741
2.14445
2.16166
2.25815
2.27472
2.29143
2.44312
2.45928
2.47555
3.42895
3.44391
3.45908
157.122
136.604
128.303
127.515
127.155
126.968
126.821
126.691
126.576
126.471
126.375
126.286
126.203
126.124
126.049
125.977
125.907
125.84
125.775
125.712
125.651
125.59
125.531
125.473
125.416
125.36
125.305
125.25
125.197
125.143
125.09
125.038
124.985
124.934
124.882
124.831
124.78
124.729
124.678
124.627
124.575
124.513
124.441
124.358
124.263
124.156
124.037
123.904
123.758
123.598
123.426
123.242
123.049
122.849
122.646
122.447
122.26
122.098
121.977
121.888
121.789
121.673
121.535
121.395
121.366
121.465
121.768
122.491
123.312
124.345
125.515
126.944
128.174
128.893
129.093
129.247
129.4
129.569
129.763
130.685
139.622
130.846
128.021
127.685
127.653
127.883
128.333
129.018
129.923
131.011
132.212
133.473
134.765
136.063
137.351
138.616
139.848
141.042
142.193
143.299
144.358
145.369
146.332
147.246
148.113
148.932
149.703
150.426
151.101
151.727
152.304
152.83
153.304
153.724
154.087
154.391
154.633
154.808
154.912
154.942
154.894
154.768
154.549
154.231
153.805
153.264
152.598
151.8
150.86
149.768
148.515
147.093
145.494
143.713
141.749
139.603
137.286
134.829
132.308
129.822
127.424
125.221
123.329
121.807
120.878
120.595
120.406
121.02
122.831
125.906
130.273
135.506
140.637
144.552
146.058
144.254
139.834
134.848
131.445
130.799
133.668
128.779
128.149
128.414
129.472
131.327
133.959
137.224
140.911
144.825
148.818
152.825
156.779
160.632
164.356
167.93
171.346
174.6
177.691
180.622
183.398
186.025
188.507
190.85
193.06
195.141
197.098
198.933
200.649
202.248
203.73
205.095
206.341
207.465
208.465
209.335
210.069
210.659
211.098
211.376
211.482
211.407
211.142
210.668
209.968
209.023
207.814
206.318
204.513
202.375
199.879
196.999
193.712
189.994
185.825
181.192
176.09
170.527
164.533
158.165
151.522
144.755
138.086
131.831
126.449
122.717
120.551
120.027
121.229
125.081
131.974
141.541
152.166
161.426
167.316
165.773
157.216
145.101
135.173
131.268
131.526
128.653
128.769
130.415
133.554
138.168
143.982
150.596
157.651
164.875
172.085
179.155
185.997
192.558
198.81
204.741
210.353
215.651
220.649
225.359
229.798
233.98
237.92
241.631
245.126
248.416
251.51
254.416
257.139
259.685
262.056
264.252
266.274
268.119
269.782
271.258
272.538
273.612
274.469
275.095
275.474
275.589
275.422
274.95
274.148
272.987
271.437
269.463
267.031
264.1
260.629
256.575
251.892
246.536
240.463
233.633
226.017
217.597
208.38
198.402
187.751
176.578
165.122
153.729
142.885
133.236
125.664
121.261
119.823
121.97
128.717
140.269
155.209
170.549
182.639
181.174
170.906
154.239
138.884
131.803
130.805
128.799
130.093
133.718
139.653
147.597
156.947
167.102
177.6
188.116
198.425
208.383
217.903
226.945
235.495
243.556
251.146
258.284
264.998
271.313
277.255
282.85
288.119
293.084
297.764
302.176
306.332
310.245
313.925
317.376
320.605
323.614
326.402
328.966
331.303
333.404
335.26
336.86
338.187
339.226
339.955
340.352
340.393
340.053
339.301
338.101
336.417
334.205
331.42
328.011
323.924
319.102
313.482
307
299.59
291.185
281.723
271.151
259.433
246.561
232.571
217.567
201.746
185.434
169.122
153.511
139.566
128.52
121.88
119.682
122.914
132.707
148.509
167.072
182.788
189.694
177.839
159.282
141.245
132.202
130.495
129.171
132.022
138.084
147.204
158.669
171.57
185.159
198.901
212.435
225.528
238.048
249.927
261.146
271.71
281.64
290.969
299.731
307.966
315.709
322.996
329.861
336.332
342.439
348.205
353.65
358.793
363.649
368.23
372.544
376.598
380.394
383.933
387.212
390.226
392.965
395.42
397.574
399.41
400.908
402.043
402.787
403.111
402.982
402.366
401.225
399.516
397.19
394.198
390.484
385.991
380.653
374.404
367.171
358.876
349.439
338.776
326.804
313.447
298.644
282.363
264.624
245.526
225.293
204.325
183.271
163.091
145.089
130.875
122.286
119.527
123.698
135.886
153.937
171.853
181.278
176.763
159.95
142.034
132.429
130.393
129.839
134.417
143.216
155.677
170.635
186.927
203.695
220.363
236.564
252.088
266.831
280.754
293.859
306.174
317.737
328.596
338.799
348.396
357.434
365.956
374.005
381.616
388.822
395.653
402.133
408.284
414.121
419.66
424.909
429.875
434.56
438.962
443.078
446.898
450.41
453.598
456.442
458.918
460.998
462.651
463.842
464.532
464.681
464.242
463.177
461.437
458.969
455.724
451.647
446.682
440.774
433.861
425.88
416.764
406.438
394.821
381.826
367.359
351.326
333.64
314.24
293.114
270.342
246.153
221.003
195.677
171.364
149.684
132.648
122.433
119.302
124.097
137.459
155.113
168.44
169.268
157.106
141.585
132.624
130.43
130.635
137.173
148.88
164.692
182.998
202.428
222.055
241.293
259.807
277.424
294.076
309.757
324.494
338.337
351.344
363.578
375.103
385.979
396.265
406.013
415.272
424.083
432.484
440.508
448.182
455.527
462.561
469.297
475.742
481.9
487.769
493.344
498.613
503.562
508.169
512.408
516.249
519.655
522.586
524.996
526.835
528.05
528.585
528.382
527.383
525.535
522.782
519.072
514.355
508.589
501.732
493.749
484.605
474.265
462.691
449.837
435.644
420.037
402.925
384.202
363.755
341.489
317.351
291.384
263.801
235.079
206.095
178.195
153.3
133.822
122.287
118.946
123.942
137.307
152.271
158.54
152.34
140.418
132.819
130.563
131.511
140.241
154.948
174.033
195.473
217.74
239.879
261.334
281.819
301.212
319.488
336.673
352.827
368.023
382.343
395.867
408.676
420.844
432.438
443.52
454.144
464.356
474.198
483.701
492.893
501.795
510.421
518.78
526.875
534.703
542.256
549.518
556.467
563.075
569.308
575.122
580.469
585.291
589.525
593.099
595.939
597.965
599.094
599.246
598.338
596.3
593.066
588.581
582.803
575.704
567.273
557.51
546.432
534.062
520.428
505.553
489.446
472.095
453.454
433.442
411.939
388.803
363.889
337.091
308.403
278.004
246.371
214.382
183.515
155.944
134.414
121.852
118.369
123.403
136.278
147.639
147.034
139.11
133.022
130.708
132.453
143.636
161.399
183.636
207.951
232.723
257.015
280.333
302.458
323.326
342.96
361.426
378.818
395.239
410.796
425.59
439.719
453.268
466.317
478.933
491.175
503.092
514.726
526.107
537.261
548.206
558.949
569.495
579.838
589.965
599.857
609.483
618.808
627.784
636.355
644.454
652.003
658.915
665.089
670.417
674.78
678.057
680.123
680.859
680.149
677.887
673.99
668.396
661.07
652.005
641.226
628.791
614.784
599.313
582.501
564.473
545.344
525.203
504.095
482.01
458.872
434.538
408.815
381.492
352.393
321.451
288.796
254.859
220.541
187.375
157.685
134.51
121.139
117.55
122.735
135.263
142.919
137.773
133.239
130.835
133.626
147.481
168.349
193.577
220.466
247.376
273.442
298.26
321.693
343.741
364.481
384.024
402.502
420.05
436.802
452.88
468.398
483.454
498.135
512.515
526.656
540.608
554.413
568.099
581.69
595.196
608.622
621.961
635.199
648.311
661.264
674.011
686.495
698.646
710.379
721.595
732.18
742
750.907
758.734
765.302
770.426
773.918
775.599
775.299
772.87
768.19
761.186
751.828
740.14
726.199
710.136
692.127
672.392
651.174
628.73
605.308
581.127
556.358
531.099
505.36
479.049
451.978
423.877
394.45
363.436
330.7
296.322
260.703
224.712
189.902
158.648
134.204
120.19
116.518
122.185
134.618
137.322
133.476
130.947
135.12
151.992
176.054
204.069
233.168
261.799
289.223
315.156
339.55
362.479
384.073
404.494
423.911
442.492
460.393
477.758
494.714
511.369
527.819
544.142
560.402
576.652
592.932
609.271
625.687
642.188
658.773
675.429
692.13
708.841
725.513
742.083
758.47
774.578
790.291
805.471
819.956
833.561
846.07
857.242
866.813
874.507
880.046
883.163
883.612
881.184
875.696
867.056
855.244
840.326
822.453
801.857
778.839
753.754
726.998
698.98
670.098
640.718
611.146
581.604
552.213
522.968
493.732
464.239
434.126
402.992
370.49
336.429
300.863
264.17
227.181
191.357
159.085
133.673
119.03
115.236
122.42
135.204
133.687
131.044
137.401
157.74
185.011
215.496
246.322
276.163
304.469
331.089
356.073
379.565
401.752
422.838
443.027
462.513
481.474
500.067
518.43
536.681
554.92
573.23
591.679
610.321
629.197
648.336
667.758
687.466
707.458
727.714
748.204
768.884
789.692
810.55
831.358
851.995
872.312
892.133
911.248
929.411
946.333
961.676
975.065
986.103
994.386
999.524
1001.16
998.999
992.777
982.388
967.838
949.234
926.839
901.019
872.234
841.011
807.915
773.523
738.394
703.037
667.89
633.29
599.46
566.487
534.312
502.722
471.359
439.754
407.406
373.894
338.998
302.782
265.637
228.342
192.241
159.503
133.365
117.751
113.412
121.583
134.087
131.241
140.602
165.328
195.854
228.325
260.236
290.656
319.284
346.112
371.281
394.995
417.487
438.993
459.743
479.946
499.794
519.452
539.065
558.756
578.629
598.771
619.252
640.129
661.445
683.233
705.512
728.29
751.561
775.307
799.497
824.081
848.996
874.154
899.444
924.726
949.828
974.541
998.617
1021.75
1043.59
1063.68
1081.52
1096.56
1108.21
1115.92
1119.18
1117.55
1110.71
1098.5
1081.1
1058.74
1031.68
1000.46
965.73
928.202
888.632
847.76
806.291
764.864
724.029
684.219
645.736
608.741
573.241
539.094
505.994
473.492
441.032
408.039
374.051
338.858
302.583
265.673
228.889
193.391
161.006
134.439
117.19
111.095
111.555
132.718
148.228
177.036
209.785
243.12
275.159
305.382
333.698
360.213
385.132
408.701
431.178
452.816
473.852
494.504
514.962
535.396
555.951
576.749
597.896
619.479
641.571
664.23
687.503
711.424
736.015
761.285
787.231
813.838
841.077
868.901
897.245
926.024
955.123
984.396
1013.66
1042.7
1071.24
1098.96
1125.45
1150.18
1172.52
1191.67
1206.76
1217.06
1222.02
1221.23
1214.36
1200.91
1180.61
1155.11
1124.13
1088.32
1048.5
1005.57
960.473
914.089
867.236
820.645
774.943
730.632
688.075
647.485
608.92
572.292
537.362
503.744
470.924
438.3
405.273
371.398
336.526
300.884
265.031
229.773
196.142
165.516
139.738
120.928
110.519
139.751
163.585
194.555
227.462
260.019
291.008
320.184
347.549
373.236
397.471
420.515
442.63
464.067
485.056
505.805
526.497
547.294
568.334
589.736
611.6
634.012
657.043
680.75
705.179
730.363
756.326
783.076
810.612
838.919
867.967
897.711
928.091
959.022
990.394
1022.07
1053.87
1085.59
1117.01
1147.85
1177.73
1206.04
1231.64
1251.83
1265.82
1274.55
1278.82
1279.16
1275.61
1266.63
1247.08
1220.32
1187.39
1149.16
1106.56
1060.59
1012.32
962.745
912.738
863.079
814.428
767.325
722.176
679.236
638.607
600.248
563.98
529.492
496.349
464.018
431.906
399.464
366.331
332.476
298.259
264.383
231.785
201.562
174.945
153.219
137.521
158.019
186.213
216.722
247.868
278.231
307.153
334.538
360.398
384.821
407.989
430.147
451.547
472.423
492.984
513.419
533.891
554.548
575.513
596.893
618.781
641.254
664.376
688.199
712.764
738.098
764.221
791.135
818.832
847.289
876.476
906.345
936.834
967.862
999.318
1031.06
1062.93
1094.72
1126.21
1157.14
1187.15
1215.7
1242.1
1261.81
1274.04
1281.81
1285.63
1288.22
1287.43
1280.08
1262.83
1237.54
1205.67
1168.33
1126.49
1081.15
1033.34
984.088
934.273
884.672
835.947
788.645
743.194
699.886
658.865
620.145
583.611
549.026
516.045
484.232
453.083
422.081
390.794
359.012
326.86
294.814
263.625
234.197
207.489
184.486
166.1
185.833
213.253
241.154
269.19
296.464
322.657
347.714
371.629
394.434
416.226
437.186
457.542
477.503
497.249
516.938
536.707
556.675
576.947
597.62
618.769
640.461
662.747
685.669
709.258
733.533
758.502
784.16
810.487
837.451
865.012
893.117
921.702
950.682
979.943
1009.34
1038.72
1067.86
1096.53
1124.47
1151.33
1176.64
1200
1219.96
1235.15
1245.96
1252.14
1253.57
1249.48
1239.3
1222.88
1200.4
1172.26
1139.09
1101.62
1060.72
1017.3
972.225
926.294
880.232
834.666
790.131
747.056
705.755
666.412
629.095
593.755
560.236
528.286
497.569
467.69
438.224
408.781
379.1
349.161
319.253
289.936
261.965
236.161
213.284
193.936
217.68
241.394
265.502
289.72
313.473
336.583
358.979
380.621
401.503
421.651
441.16
460.193
478.915
497.469
515.984
534.569
553.316
572.309
591.622
611.316
631.442
652.036
673.129
694.738
716.873
739.528
762.69
786.331
810.41
834.879
859.681
884.747
909.991
935.298
960.533
985.537
1010.12
1034.08
1057.14
1079.01
1099.33
1117.68
1133.64
1146.58
1155.97
1161.34
1162.26
1158.48
1149.81
1136.2
1117.76
1094.73
1067.53
1036.67
1002.74
966.396
928.291
889.058
849.3
809.563
770.331
732.005
694.894
659.206
625.044
592.414
561.233
531.335
502.483
474.385
446.721
419.185
391.552
363.753
335.954
308.536
282.075
257.252
234.707
214.874
248.501
267.785
287.76
307.999
328.143
348.051
367.621
386.789
405.519
423.789
441.61
459.065
476.263
493.301
510.275
527.265
544.341
561.56
578.977
596.635
614.57
632.806
651.362
670.243
689.45
708.972
728.787
748.864
769.159
789.623
810.199
830.818
851.398
871.838
892.02
911.809
931.054
949.58
967.189
983.652
998.708
1012.06
1023.41
1032.43
1038.79
1042.14
1042.21
1038.82
1031.86
1021.27
1007.11
989.501
968.671
944.92
918.619
890.185
860.062
828.706
796.566
764.069
731.602
699.496
668.015
637.35
607.615
578.852
551.03
524.052
497.762
471.958
446.412
420.907
395.293
369.522
343.719
318.155
293.246
269.507
247.455
227.475
275.228
290.349
306.341
322.791
339.465
356.223
372.951
389.568
406.005
422.201
438.121
453.775
469.204
484.461
499.604
514.687
529.756
544.852
560.008
575.253
590.608
606.09
621.706
637.459
653.343
669.344
685.441
701.603
717.791
733.96
750.058
766.027
781.799
797.292
812.417
827.072
841.144
854.51
867.034
878.561
888.921
897.93
905.389
911.098
914.86
916.486
915.807
912.712
907.116
898.983
888.324
875.207
859.752
842.126
822.544
801.258
778.544
754.691
729.996
704.746
679.208
653.614
628.159
602.988
578.198
553.834
529.888
506.3
482.966
459.749
436.504
413.103
389.468
365.605
341.624
317.75
294.313
271.707
250.32
230.506
296.234
307.701
320.1
333.116
346.579
360.354
374.321
388.374
402.442
416.438
430.287
443.944
457.406
470.684
483.802
496.788
509.668
522.466
535.202
547.891
560.546
573.176
585.785
598.373
610.935
623.457
635.923
648.308
660.579
672.701
684.635
696.336
707.755
718.836
729.515
739.724
749.388
758.428
766.756
774.279
780.895
786.493
790.961
794.179
796.035
796.412
795.23
792.412
787.904
781.677
773.729
764.093
752.833
740.035
725.819
710.327
693.713
676.138
657.773
638.787
619.337
599.566
579.594
559.512
539.381
519.229
499.044
478.777
458.355
437.69
416.697
395.32
373.546
351.428
329.101
306.778
284.742
263.311
242.792
223.465
310.707
319
328.233
338.174
348.692
359.644
370.937
382.466
394.139
405.856
417.515
429.047
440.415
451.606
462.617
473.452
484.12
494.631
504.992
515.213
525.298
535.254
545.082
554.783
564.353
573.783
583.059
592.165
601.078
609.774
618.226
626.405
634.279
641.813
648.967
655.7
661.968
667.721
672.911
677.483
681.38
684.541
686.903
688.402
688.974
688.564
687.118
684.594
680.955
676.18
670.26
663.204
655.036
645.795
635.537
624.332
612.254
599.384
585.806
571.608
556.868
541.66
526.043
510.056
493.721
477.033
459.967
442.476
424.506
406.006
386.945
367.323
347.188
326.643
305.85
285.019
264.403
244.266
224.855
206.398
316.959
322.8
329.479
336.83
344.759
353.162
361.958
371.063
380.377
389.796
399.224
408.582
417.821
426.909
435.829
444.569
453.124
461.494
469.677
477.676
485.494
493.131
500.59
507.872
514.974
521.89
528.609
535.121
541.411
547.465
553.265
558.796
564.038
568.971
573.573
577.823
581.694
585.16
588.195
590.77
592.853
594.414
595.417
595.83
595.625
594.765
593.218
590.956
587.954
584.192
579.658
574.345
568.255
561.397
553.789
545.455
536.424
526.727
516.396
505.465
493.962
481.907
469.311
456.175
442.483
428.212
413.329
397.797
381.589
364.694
347.132
328.96
310.275
291.216
271.961
252.716
233.701
215.136
197.215
180.12
320.059
321.464
324.332
328.372
333.333
339.014
345.265
351.959
358.968
366.169
373.459
380.753
387.99
395.128
402.135
408.991
415.681
422.195
428.528
434.678
440.644
446.425
452.022
457.435
462.662
467.695
472.527
477.149
481.554
485.731
489.672
493.368
496.808
499.982
502.879
505.485
507.79
509.777
511.435