/*--------------------------------*- C++ -*----------------------------------*\
| =========                 |                                                 |
| \\      /  F ield         | OpenFOAM: The Open Source CFD Toolbox           |
|  \\    /   O peration     | Version:  v2012                                 |
|   \\  /    A nd           | Website:  www.openfoam.com                      |
|    \\/     M anipulation  |                                                 |
\*---------------------------------------------------------------------------*/
FoamFile
{
    version     2.0;
    format      ascii;
    class       volScalarField;
    location    "504";
    object      k;
}
// * * * * * * * * * * * * * * * * * * * * * * * * * * * * * * * * * * * * * //

dimensions      [0 2 -2 0 0 0 0];


internalField   nonuniform List<scalar> 
6556
(
2.15707
2.73044
2.83809
2.86715
2.8819
2.8819
2.86715
2.83809
2.73044
2.15707
1.17586
1.9037
2.10924
2.17679
2.19894
2.19894
2.17679
2.10924
1.9037
1.17586
0.736704
1.38651
1.61727
1.70649
1.73715
1.73715
1.70649
1.61727
1.38651
0.736704
0.508604
1.05235
1.2749
1.37176
1.40795
1.40795
1.37176
1.2749
1.05235
0.508604
0.37596
0.826987
1.02951
1.12548
1.16386
1.16386
1.12548
1.02951
0.826988
0.37596
0.291892
0.668586
0.84866
0.939338
0.977464
0.977464
0.939339
0.848661
0.668587
0.291893
0.234968
0.553097
0.711907
0.795431
0.831815
0.831816
0.795432
0.711909
0.553099
0.234969
0.194385
0.466205
0.606097
0.68199
0.715888
0.715889
0.681992
0.606099
0.466207
0.194386
0.164251
0.399057
0.52255
0.591046
0.622183
0.622184
0.591048
0.522553
0.39906
0.164253
0.141136
0.345975
0.455398
0.517053
0.545431
0.545432
0.517056
0.455402
0.345979
0.141138
0.122929
0.303195
0.40058
0.456067
0.481829
0.481831
0.456071
0.400586
0.303201
0.122932
0.108274
0.268144
0.355219
0.40522
0.428579
0.428581
0.405225
0.355226
0.268152
0.108277
0.0962622
0.239015
0.317231
0.362391
0.383579
0.383582
0.362398
0.317242
0.239027
0.0962661
0.0862657
0.21451
0.285084
0.325983
0.345229
0.345234
0.325993
0.285099
0.214526
0.0862709
0.0778378
0.193673
0.257624
0.294777
0.312297
0.312303
0.294792
0.257644
0.193695
0.0778448
0.0706528
0.175788
0.233972
0.26783
0.283818
0.283826
0.26785
0.233999
0.175817
0.0706622
0.0644679
0.160308
0.213448
0.244401
0.259032
0.259042
0.244429
0.213484
0.160345
0.0644802
0.0590982
0.146809
0.195516
0.223903
0.23733
0.237345
0.223942
0.195565
0.146855
0.0591138
0.0544011
0.134959
0.179753
0.205866
0.218225
0.218246
0.205921
0.179819
0.135012
0.0544197
0.0502643
0.124492
0.165816
0.189911
0.20132
0.201348
0.189986
0.165901
0.124513
0.0502837
0.0465984
0.115194
0.15343
0.175725
0.18629
0.18633
0.175833
0.153561
0.115291
0.0469171
0.0433312
0.106889
0.142366
0.163053
0.172865
0.172921
0.163207
0.142567
0.107099
0.0450665
0.0404041
0.099436
0.132437
0.151684
0.160823
0.160898
0.151893
0.132728
0.0998795
0.0444334
0.0377686
0.0927151
0.123488
0.14144
0.149977
0.150074
0.141705
0.123845
0.0935787
0.0450231
0.0353847
0.0866279
0.115387
0.132172
0.140169
0.140285
0.132475
0.115808
0.0882161
0.0468725
0.0332187
0.0810913
0.108026
0.123756
0.131266
0.131403
0.124087
0.108607
0.0837939
0.0497791
0.0312424
0.0760351
0.101311
0.116085
0.12316
0.123326
0.116515
0.102227
0.0801585
0.0533912
0.0294318
0.0713992
0.0951626
0.10907
0.115755
0.115967
0.109673
0.096597
0.077266
0.0573402
0.0277662
0.0671324
0.089513
0.102633
0.108972
0.10925
0.103486
0.0916429
0.0750149
0.0608582
0.026228
0.0631903
0.0843033
0.096708
0.102743
0.103106
0.0978887
0.0872888
0.0732671
0.0635488
0.0248018
0.0595343
0.0794827
0.0912372
0.0970072
0.0974777
0.0928179
0.0834593
0.0718889
0.0655146
0.0234742
0.0561307
0.075007
0.0861708
0.0917123
0.0923103
0.0882158
0.0800717
0.070684
0.0668337
0.0222332
0.05295
0.0708373
0.081465
0.0868121
0.087556
0.084027
0.0770425
0.0695612
0.0675822
0.0210686
0.0499662
0.0669396
0.077081
0.0822656
0.0831711
0.0802003
0.0743024
0.0684515
0.0678236
0.0199709
0.0471565
0.0632836
0.0729848
0.0780362
0.079116
0.0766883
0.0717902
0.0673011
0.0676077
0.0189319
0.0445005
0.0598427
0.0691461
0.0740912
0.0753548
0.0734485
0.0694529
0.0660714
0.0669768
0.0179441
0.0419803
0.056593
0.0655381
0.0704015
0.0718554
0.0704428
0.0672472
0.0647394
0.0659725
0.0170006
0.03958
0.0535135
0.0621369
0.0669412
0.0685893
0.0676389
0.0651402
0.0632975
0.0646402
0.0160954
0.0372856
0.0505856
0.0589212
0.0636873
0.0655312
0.0650097
0.0631095
0.0617537
0.0630362
0.015223
0.0350848
0.0477924
0.0558719
0.0606189
0.0626593
0.0625338
0.0611435
0.060131
0.0612288
0.0143784
0.032967
0.0451187
0.0529713
0.0577172
0.0599539
0.0601944
0.0592397
0.0584636
0.0592979
0.0135571
0.0309231
0.0425503
0.0502026
0.0549637
0.0573971
0.0579783
0.0574018
0.0567932
0.0573302
0.0127551
0.0289452
0.0400736
0.0475486
0.0523399
0.0549707
0.0558732
0.0556357
0.055162
0.0554112
0.011969
0.027026
0.0376748
0.0449913
0.0498252
0.0526547
0.0538649
0.0539447
0.053605
0.0536157
0.0111953
0.0251588
0.0353393
0.0425101
0.0473957
0.0504245
0.0519341
0.0523235
0.0521417
0.0519953
0.010431
0.0233371
0.0330516
0.0400815
0.0450226
0.0482494
0.0500528
0.050754
0.0507701
0.0505689
0.00967329
0.0215543
0.0307942
0.0376778
0.0426709
0.0460904
0.0481819
0.0492014
0.0494616
0.0493158
0.00891901
0.019804
0.0285484
0.0352674
0.0402987
0.0438988
0.0462696
0.0476125
0.0481603
0.0481744
0.00816488
0.0180796
0.0262937
0.0328142
0.0378573
0.0416167
0.0442514
0.0459171
0.0467853
0.0470471
0.00740693
0.0163745
0.0240097
0.03028
0.0352931
0.0391788
0.0420527
0.0440307
0.0452373
0.0458099
0.00663999
0.0146819
0.0216767
0.0276269
0.0325514
0.0365168
0.039594
0.0418618
0.0434071
0.0443259
0.00585653
0.0129942
0.019282
0.0248266
0.0295864
0.0335695
0.036801
0.0393225
0.0411884
0.0424622
0.00504495
0.0112899
0.0168152
0.0218696
0.0263781
0.030302
0.033623
0.0363466
0.0384971
0.0401083
0.00417181
0.00966591
0.0143395
0.0187988
0.0229562
0.02673
0.0300602
0.0329167
0.0352921
0.0371957
0.00324381
0.00826269
0.0121043
0.0158434
0.0195034
0.0229949
0.0262194
0.0291059
0.0316174
0.0337323
0.00227769
0.00699804
0.0102837
0.0133387
0.0163979
0.0194476
0.022398
0.0251607
0.0276661
0.0298674
0.00122255
0.00557055
0.00868754
0.0113606
0.0139383
0.0165177
0.019077
0.0215496
0.0238698
0.0259812
0.000894496
0.00380577
0.00693957
0.00959554
0.0120107
0.0143033
0.0165087
0.0186128
0.0205919
0.0224171
0.000844151
0.0021973
0.00511449
0.0076962
0.0101144
0.0122417
0.0141552
0.0158596
0.017387
0.0187559
0.00095007
0.00169412
0.00262067
0.00391318
0.00537672
0.00648576
0.00738901
0.00817772
0.00885302
0.00942331
0.00981006
0.00340598
0.00350556
0.00372675
0.00391037
0.00402481
0.00406022
0.00400968
0.00385612
0.0036744
0.00346401
0.00322731
0.00297018
0.00270574
0.00244177
0.0021829
0.00192762
0.00170477
0.00150263
0.00131274
0.00112958
0.000948012
0.000761635
0.000560355
0.000309623
0.0189271
0.00843526
0.00747122
0.00763269
0.00790171
0.00809323
0.00814526
0.00802996
0.00771549
0.00726721
0.00676136
0.00622721
0.0056871
0.00516334
0.00466947
0.00421073
0.00378387
0.00335673
0.00293255
0.00251514
0.00211172
0.0017327
0.00139766
0.00109613
0.000572995
0.0281431
0.0138306
0.0106032
0.00996303
0.0098882
0.00985475
0.00971663
0.00943321
0.00897232
0.00834439
0.00766941
0.00699317
0.00633725
0.00572064
0.00515861
0.00465672
0.0042091
0.00379083
0.00338613
0.00298161
0.00256718
0.00214421
0.00173548
0.00135026
0.00068644
0.0381713
0.0207445
0.0143143
0.0123739
0.0116047
0.0111105
0.0106156
0.0100458
0.00937015
0.00858751
0.00777719
0.00701293
0.00630014
0.00565209
0.00508204
0.00459191
0.00417198
0.00379859
0.00344921
0.0031019
0.00273448
0.00233309
0.0019049
0.00145897
0.000730357
0.0480356
0.0296533
0.0193995
0.0153581
0.0135378
0.0123703
0.0113922
0.0104533
0.00951518
0.00858158
0.0076626
0.00681081
0.00604693
0.00537912
0.00481423
0.00434808
0.00396561
0.0036415
0.00334844
0.00306
0.00274813
0.00238843
0.00197165
0.00149271
0.000732837
0.0555014
0.0388755
0.0256507
0.0190864
0.0159134
0.0138947
0.0123091
0.0109342
0.00969043
0.00856004
0.00753438
0.00660012
0.00577858
0.00508125
0.00451226
0.00406198
0.0037105
0.00342925
0.00318497
0.00294717
0.00268467
0.0023673
0.00197414
0.00148342
0.000712112
0.0607409
0.0478865
0.0328113
0.023704
0.0188555
0.015805
0.0135252
0.011638
0.0100309
0.00866057
0.00748664
0.00647504
0.00560192
0.00485126
0.00425748
0.00380331
0.00346696
0.00321601
0.00300935
0.00281131
0.00258813
0.00230645
0.00193788
0.00144763
0.000678413
0.0646474
0.055172
0.03995
0.0291515
0.0225016
0.0182033
0.0150714
0.0126069
0.0105959
0.00894263
0.00758075
0.00645592
0.00551688
0.00472973
0.00409132
0.00360653
0.00326254
0.00302605
0.00284492
0.00267587
0.00248193
0.00222762
0.00187963
0.0013952
0.000636138
0.067609
0.0610603
0.0467288
0.0349897
0.0267165
0.0211113
0.0170161
0.0138631
0.0113708
0.00940153
0.00783252
0.00656788
0.00554019
0.00469302
0.00399925
0.00346892
0.00310392
0.00286768
0.00269925
0.0025489
0.00237567
0.00214197
0.00181044
0.00133341
0.000590165
0.0697965
0.0656217
0.0530021
0.040774
0.0312642
0.0244278
0.0193426
0.0154405
0.0124016
0.010058
0.00823552
0.00680665
0.00567285
0.00474893
0.00398449
0.00338732
0.0029769
0.00272581
0.00256211
0.00242461
0.00226693
0.00204926
0.00173153
0.00126349
0.000549409
0.071341
0.0690717
0.0584999
0.0462989
0.0359548
0.0280261
0.0219766
0.0173258
0.0137281
0.010957
0.00882952
0.00718851
0.00591998
0.00490807
0.00406318
0.00337694
0.00288828
0.00259447
0.00242548
0.00229642
0.00215195
0.00194856
0.00164381
0.00118586
0.000510637
0.0723643
0.0716109
0.0630497
0.0513967
0.0407036
0.0317772
0.0248339
0.0194728
0.01533
0.01212
0.0096682
0.00775809
0.0063127
0.00519861
0.00427245
0.0034793
0.0028715
0.00249084
0.0022899
0.0021597
0.00202613
0.00183781
0.00154859
0.00110439
0.000472392
0.0729055
0.0733318
0.0665409
0.0559107
0.045025
0.0354617
0.0278023
0.021825
0.0171952
0.0135927
0.0107773
0.00858412
0.0069105
0.00565491
0.00465179
0.00375435
0.00299629
0.00246579
0.00217303
0.00201773
0.00188856
0.00171723
0.00145142
0.0010317
0.000435043
0.0729724
0.0742987
0.0690769
0.0596381
0.0488668
0.038993
0.0308018
0.0243288
0.0192952
0.0153603
0.0122452
0.00975402
0.00780345
0.00633588
0.0052197
0.00426026
0.00336275
0.00263072
0.00214744
0.00189861
0.00175302
0.00159981
0.00136908
0.000995091
0.000402719
0.0725667
0.0745552
0.0707077
0.0625009
0.0522149
0.0423434
0.0337666
0.0269292
0.0215992
0.01742
0.0140775
0.0113406
0.00911202
0.00735657
0.00602254
0.00497658
0.0040341
0.00314892
0.0024311
0.00194572
0.00169817
0.00154401
0.00136532
0.00107183
0.000514037
0.0716958
0.0741484
0.0714725
0.0644688
0.0550099
0.0452636
0.0366043
0.0295663
0.0240626
0.0197397
0.0162689
0.0133832
0.0109474
0.00890581
0.0072402
0.00592753
0.00488228
0.003973
0.00316563
0.00248701
0.00197073
0.00167542
0.00147954
0.00125871
0.00105011
0.0703835
0.0731299
0.0714662
0.0656493
0.0572142
0.0478342
0.0393436
0.0322138
0.0266493
0.0222767
0.0187643
0.0158674
0.0133819
0.0111816
0.00919958
0.00748636
0.00604947
0.00490687
0.00402354
0.00334165
0.0028693
0.00257523
0.00247424
0.00255136
0.00275763
0.068664
0.0715425
0.0707321
0.0660674
0.0587192
0.0501097
0.0418424
0.0348405
0.0292717
0.0249736
0.0215557
0.0187419
0.0163587
0.0142247
0.0121852
0.0101936
0.00830272
0.00662144
0.00522943
0.00420235
0.00355216
0.00324129
0.00319436
0.00329745
0.003529
0.0665935
0.0694555
0.0693359
0.0657708
0.0595631
0.0519645
0.0441334
0.0373472
0.0318778
0.0276791
0.0244548
0.0218728
0.0197206
0.0178267
0.0160218
0.014177
0.012255
0.010309
0.00847152
0.00689797
0.00573184
0.00503704
0.00476715
0.00477398
0.00497164
0.0642502
0.0669558
0.0673593
0.064797
0.0597453
0.0532126
0.0462495
0.0397164
0.0344248
0.0303283
0.0272332
0.0248992
0.0230669
0.0215353
0.0201336
0.0187315
0.0172223
0.0155653
0.013787
0.0119857
0.0103172
0.00895078
0.00801286
0.00752498
0.0073706
0.0617328
0.0641531
0.0649028
0.0632156
0.0592887
0.0538576
0.0478246
0.0419832
0.0368526
0.0329025
0.0299293
0.0277109
0.0261043
0.0248903
0.0238928
0.0229793
0.0220349
0.0209673
0.0197145
0.0182795
0.0167181
0.0151305
0.013633
0.0124657
0.011665
0.0591558
0.0611796
0.0620916
0.061113
0.058217
0.0538921
0.0488376
0.0437497
0.0391571
0.0353696
0.032491
0.0304158
0.0289142
0.0278692
0.0271233
0.0265422
0.026024
0.0254725
0.024792
0.0239238
0.0228557
0.021607
0.0202153
0.0188288
0.0176125
0.0566406
0.0581855
0.0590789
0.0586093
0.0565978
0.0533129
0.0492604
0.0449933
0.0409933
0.0375861
0.0349
0.0329125
0.0315286
0.0306011
0.0299817
0.0295877
0.02931
0.0290626
0.0287558
0.0283113
0.0276876
0.0268724
0.0258756
0.0247189
0.0235556
0.0543024
0.0553278
0.0560426
0.0558639
0.0545393
0.0521637
0.0490616
0.0456464
0.0423111
0.0393586
0.0369585
0.0351518
0.0338942
0.03308
0.0325815
0.0322824
0.0321354
0.032068
0.0319951
0.0318459
0.0315621
0.0311157
0.0305007
0.0297222
0.0288126
0.0522336
0.052752
0.0531717
0.0530731
0.0522042
0.0505476
0.0482777
0.0456722
0.0430283
0.0406005
0.0385633
0.0369965
0.0358978
0.0352012
0.0348093
0.0346278
0.034585
0.0346323
0.0347316
0.0348055
0.0347933
0.0346569
0.0343789
0.0339529
0.0333831
0.0504871
0.0505675
0.05064
0.0504515
0.0498054
0.0486372
0.0470174
0.0451096
0.0431165
0.0412309
0.0396038
0.0383282
0.0374302
0.0368742
0.0365904
0.0364997
0.036569
0.0367547
0.0369924
0.0372367
0.0374446
0.0375707
0.0375868
0.0374884
0.0372624
0.0490626
0.0488246
0.0485725
0.0481953
0.0475793
0.0466663
0.0454749
0.0440895
0.0426322
0.0412334
0.0400091
0.039042
0.0383681
0.0379735
0.0378063
0.0378097
0.0379693
0.0382539
0.0386205
0.0390222
0.0394121
0.0397581
0.0400347
0.0402223
0.0403058
0.0479022
0.0474978
0.0470119
0.0464349
0.0457342
0.0448888
0.0439084
0.0428365
0.0417425
0.0407073
0.0398085
0.0391075
0.038638
0.0383974
0.0383454
0.038434
0.0386577
0.0389996
0.0394353
0.0399341
0.0404616
0.0409843
0.0414698
0.0418963
0.0422471
0.0468941
0.046484
0.0459011
0.0451938
0.0443894
0.0435083
0.0425759
0.0416286
0.0407122
0.0398773
0.0391723
0.0386375
0.0382979
0.0381553
0.0381866
0.0383289
0.0385828
0.038938
0.0393814
0.0398964
0.0404622
0.0410561
0.0416543
0.0422344
0.0427738
0.0458869
0.0456166
0.0450882
0.0443729
0.0435283
0.0426048
0.0416501
0.0407095
0.0398263
0.0390402
0.0383855
0.0378892
0.0375678
0.0374252
0.0374487
0.0376015
0.0378341
0.0381504
0.038542
0.0389987
0.0395099
0.0400628
0.0406432
0.0412357
0.0418226
0.044709
0.0446924
0.0443549
0.0437663
0.0429929
0.042099
0.0411454
0.040188
0.0392759
0.0384504
0.0377441
0.0371805
0.0367737
0.0365285
0.0364411
0.0364944
0.0366586
0.0368894
0.0371768
0.0375191
0.0379096
0.0383405
0.0388036
0.0392905
0.0397899
0.0431923
0.0435017
0.0434538
0.0431075
0.0425243
0.0417675
0.0409
0.0399815
0.0390657
0.0381981
0.037415
0.036743
0.0361992
0.0357923
0.0355234
0.0353874
0.0353721
0.0354553
0.0356161
0.0358208
0.0360585
0.0363276
0.0366252
0.0369475
0.0372868
0.04119
0.0418543
0.0421495
0.0421215
0.0418207
0.0413015
0.0406207
0.0398344
0.0389956
0.038151
0.03734
0.036593
0.0359322
0.0353716
0.0349184
0.0345741
0.0343358
0.034196
0.0341434
0.0341612
0.0342352
0.0343535
0.0344984
0.0346566
0.0348265
0.0385978
0.0396046
0.0402509
0.0405696
0.0405989
0.0403817
0.0399652
0.0393975
0.0387261
0.037995
0.0372431
0.0365026
0.0357989
0.0351508
0.0345708
0.0340663
0.0336405
0.0332932
0.0330212
0.0328184
0.0326776
0.0325904
0.0325458
0.0325334
0.0325462
0.0353896
0.0366884
0.0376506
0.0382972
0.0386549
0.0387558
0.0386364
0.0383361
0.0378946
0.0373504
0.0367389
0.0360914
0.035434
0.0347876
0.0341684
0.0335876
0.0330532
0.0325696
0.0321389
0.0317609
0.0314338
0.0311543
0.0309178
0.0307196
0.030555
0.0316733
0.0331711
0.0343698
0.0352791
0.0359149
0.0362992
0.036459
0.0364246
0.0362282
0.0359019
0.035476
0.0349788
0.0344347
0.0338648
0.0332862
0.0327127
0.0321545
0.0316193
0.0311123
0.0306367
0.0301944
0.0297857
0.0294101
0.0290663
0.0287538
0.0277744
0.0293217
0.0306187
0.0316638
0.0324655
0.0330378
0.0333991
0.0335715
0.0335794
0.033448
0.0332022
0.0328653
0.0324591
0.0320027
0.0315125
0.0310024
0.0304836
0.0299651
0.0294537
0.0289548
0.028472
0.0280079
0.027564
0.0271413
0.0267417
0.0239966
0.0253965
0.0266104
0.0276311
0.0284443
0.029056
0.0294836
0.0297441
0.029856
0.0298384
0.0297104
0.0294905
0.0291959
0.0288426
0.0284446
0.0280143
0.0275621
0.0270966
0.026625
0.0261528
0.0256846
0.0252238
0.0247728
0.0243337
0.0239095
0.0199191
0.0209405
0.0218129
0.0225332
0.0231088
0.023545
0.0238519
0.0240402
0.0241217
0.0241085
0.0240126
0.023846
0.02362
0.0233453
0.0230316
0.0226875
0.0223206
0.0219375
0.0215436
0.0211436
0.0207414
0.0203399
0.0199419
0.0195492
0.0191647
0.00989184
0.0103046
0.0106621
0.0109598
0.0112026
0.0113935
0.0115358
0.0116326
0.0116874
0.0117038
0.0116855
0.0116364
0.01156
0.0114602
0.0113403
0.0112037
0.0110534
0.0108922
0.0107227
0.010547
0.0103671
0.0101848
0.0100015
0.00981838
0.00963666
0.000479321
0.000511065
0.00182978
0.00226827
0.00257795
0.0026002
0.00303074
0.00312317
0.00348111
0.00381937
0.00418181
0.00472786
0.0052742
0.00564739
0.00611157
0.007449
0.00763521
0.00788614
0.0111907
0.0109521
0.0108487
0.0166502
0.0159482
0.0154189
0.0225054
0.0216202
0.0208483
0.0279155
0.027082
0.0262777
0.0327346
0.0320748
0.0313775
0.0369324
0.0365236
0.0360383
0.0402807
0.0401686
0.0399662
0.0424937
0.0426536
0.0427343
0.0432206
0.0436051
0.0439383
0.0423444
0.0428379
0.0433064
0.0402493
0.0407042
0.0411598
0.0376057
0.0379304
0.038265
0.0349896
0.0351595
0.035339
0.0325756
0.0326187
0.032674
0.0304319
0.0303298
0.0302444
0.0284975
0.0282635
0.0280466
0.0264025
0.026082
0.0257749
0.0235433
0.0231906
0.0228471
0.0188305
0.0185047
0.0181849
0.00947861
0.00932319
0.00917034
0.000114375
0.000240455
0.000385262
0.000510185
0.000622653
0.000723608
0.000816952
0.000904336
0.00098688
0.00106532
0.00114018
0.00121185
0.00128064
0.00134684
0.00141068
0.0014724
0.00153221
0.00159031
0.00164691
0.0017022
0.00175639
0.00180967
0.00186225
0.00191433
0.00196611
0.00201783
0.00206969
0.00212192
0.00217478
0.00222851
0.00228339
0.00233971
0.00239781
0.00245804
0.00252082
0.00258662
0.00265599
0.0027296
0.00280825
0.00289294
0.00298439
0.00308022
0.00318052
0.00328544
0.00339511
0.00350984
0.00362986
0.00375544
0.00388674
0.00402391
0.004167
0.00431602
0.00447082
0.00463109
0.00479629
0.00496558
0.00513767
0.00531069
0.00548197
0.00564773
0.00580277
0.00593996
0.00604977
0.00612019
0.00613979
0.00610101
0.0060031
0.00584465
0.00562247
0.00532923
0.00496325
0.00451623
0.00400556
0.00346208
0.00291761
0.00244755
0.0020189
0.00161189
0.00120154
0.000719468
0.000391899
0.000748034
0.000956302
0.00114294
0.00134653
0.00156347
0.00178218
0.00200129
0.00221837
0.0024315
0.00263916
0.00284033
0.00303446
0.00322134
0.00340101
0.00357367
0.00373962
0.00389921
0.00405286
0.004201
0.00434408
0.00448256
0.00461691
0.00474763
0.00487522
0.00500018
0.00512303
0.00524431
0.00536454
0.00548429
0.00560412
0.00572459
0.00584631
0.00596986
0.00609585
0.00622492
0.0063577
0.00649484
0.00663688
0.00678451
0.006939
0.00710383
0.00727695
0.00745836
0.00764853
0.00784801
0.00805738
0.0082772
0.00850797
0.00875013
0.00900401
0.00926978
0.00954736
0.00983637
0.010136
0.0104447
0.0107602
0.011079
0.0113962
0.0117045
0.0119939
0.0122504
0.0124559
0.0125897
0.0126316
0.0125783
0.0123968
0.0120654
0.0115678
0.0108475
0.00998436
0.00898448
0.00791844
0.00683732
0.005753
0.00465965
0.00363459
0.00274627
0.00201531
0.00104507
0.000585168
0.00112809
0.00138679
0.00165091
0.00195885
0.002291
0.0026299
0.00296695
0.00329565
0.00361229
0.00391504
0.00420343
0.00447778
0.00473884
0.00498747
0.00522457
0.00545095
0.00566736
0.00587449
0.00607295
0.00626332
0.00644614
0.00662195
0.00679127
0.00695464
0.00711258
0.00726565
0.00741441
0.00755946
0.0077014
0.00784085
0.00797848
0.00811496
0.008251
0.00838734
0.00852473
0.00866396
0.00880585
0.00895118
0.00910075
0.00925538
0.00941665
0.00958722
0.00976609
0.00995349
0.01015
0.0103564
0.0105733
0.0108015
0.0110414
0.0112936
0.0115581
0.0118349
0.0121235
0.0124227
0.0127307
0.0130446
0.0133602
0.0136716
0.0139711
0.0142482
0.0144895
0.0146779
0.0147926
0.0148047
0.0147008
0.0144589
0.0140565
0.0134705
0.012684
0.0116938
0.0104742
0.0091829
0.00786339
0.00659968
0.00538814
0.00424858
0.00320143
0.00228279
0.00112871
0.000716902
0.00142256
0.00175711
0.00210668
0.00250853
0.00293526
0.00336497
0.00378442
0.00418644
0.00456813
0.00492922
0.00527085
0.00559473
0.00590261
0.00619607
0.0064764
0.00674465
0.00700162
0.00724797
0.00748421
0.00771079
0.00792812
0.00813657
0.00833654
0.00852841
0.0087126
0.00888953
0.00905969
0.00922356
0.00938168
0.0095346
0.00968296
0.00982738
0.00996856
0.0101072
0.0102442
0.0103802
0.0105161
0.0106529
0.0107914
0.0109325
0.0110772
0.0112281
0.0113863
0.0115515
0.0117242
0.0119051
0.0120948
0.0122941
0.0125034
0.0127231
0.0129533
0.0131936
0.0134434
0.0137013
0.013965
0.0142314
0.0144959
0.0147527
0.0149942
0.0152109
0.0153913
0.0155213
0.0155842
0.0155564
0.0154155
0.0151474
0.0147345
0.0141569
0.0133977
0.0124488
0.0112835
0.00993708
0.00844324
0.00702154
0.00570331
0.00450971
0.00339613
0.00235453
0.00110809
0.000813461
0.00164788
0.00207927
0.0025169
0.00300017
0.0034999
0.00399224
0.00446441
0.00491119
0.00533208
0.00572901
0.00610479
0.00646223
0.00680374
0.00713122
0.00744601
0.00774905
0.00804095
0.00832211
0.00859278
0.00885314
0.0091033
0.00934343
0.00957365
0.00979416
0.0100052
0.0102069
0.0103998
0.010584
0.0107601
0.0109284
0.0110895
0.0112439
0.0113923
0.0115352
0.0116735
0.011808
0.0119394
0.0120687
0.0121968
0.0123248
0.0124536
0.0125845
0.0127207
0.0128622
0.0130091
0.0131622
0.013322
0.0134892
0.0136644
0.0138479
0.0140396
0.0142391
0.0144457
0.0146576
0.0148727
0.0150876
0.0152978
0.0154976
0.0156796
0.0158351
0.0159534
0.0160223
0.0160275
0.0159537
0.0157866
0.0155137
0.0151229
0.0145976
0.0139235
0.0130705
0.0120104
0.0107315
0.0092588
0.00769272
0.0061487
0.00478262
0.00355062
0.00237405
0.0010426
0.000884647
0.00183225
0.0023659
0.00288606
0.00343561
0.00398688
0.00451839
0.0050206
0.00549191
0.00593478
0.00635327
0.00675151
0.00713308
0.00750065
0.00785611
0.00820061
0.00853479
0.00885891
0.00917299
0.0094769
0.00977046
0.0100535
0.0103258
0.0105873
0.0108379
0.0110776
0.0113065
0.0115246
0.0117323
0.0119296
0.0121169
0.0122946
0.0124632
0.012623
0.0127748
0.0129192
0.0130568
0.0131887
0.0133155
0.0134384
0.0135584
0.0136766
0.0137942
0.0139129
0.0140354
0.0141617
0.0142923
0.014428
0.0145695
0.0147174
0.0148721
0.0150338
0.0152021
0.0153762
0.0155548
0.0157355
0.0159152
0.0160894
0.0162525
0.0163974
0.0165153
0.0165961
0.0166278
0.0165971
0.0164906
0.0162972
0.0160095
0.0156233
0.0151349
0.0145368
0.0138075
0.0129047
0.0117723
0.0103644
0.00870814
0.00695132
0.0052987
0.00382889
0.00243579
0.000960496
0.000941909
0.00199303
0.00262449
0.00321631
0.00381549
0.00439898
0.00495065
0.00546605
0.00594763
0.00640074
0.0068312
0.00724415
0.00764352
0.00803202
0.00841132
0.00878221
0.00914492
0.00949924
0.00984478
0.010181
0.0105073
0.0108231
0.011128
0.0114216
0.0117034
0.0119734
0.0122313
0.0124771
0.0127108
0.0129324
0.0131422
0.0133403
0.013527
0.0137028
0.0138682
0.0140237
0.0141699
0.0143077
0.014438
0.0145617
0.01468
0.014794
0.0149049
0.0150141
0.015125
0.0152381
0.0153543
0.0154744
0.0155993
0.01573
0.0158671
0.0160111
0.016162
0.0163193
0.016482
0.016648
0.0168145
0.0169774
0.0171311
0.0172686
0.0173811
0.017458
0.017487
0.0174543
0.017346
0.0171494
0.0168559
0.0164635
0.0159759
0.0154
0.0147363
0.0139609
0.0130052
0.0117518
0.0101055
0.00812396
0.00606487
0.00424892
0.00257066
0.000913044
0.000993728
0.00214148
0.00286096
0.0035109
0.00414321
0.00474212
0.00529887
0.00581473
0.00629617
0.00675105
0.00718662
0.00760861
0.00802109
0.00842657
0.00882636
0.00922079
0.0096096
0.00999211
0.0103674
0.0107346
0.0110927
0.0114407
0.0117779
0.0121035
0.0124171
0.0127181
0.0130062
0.0132811
0.0135427
0.0137909
0.0140257
0.0142471
0.0144555
0.014651
0.014834
0.015005
0.0151646
0.0153135
0.0154526
0.0155828
0.0157054
0.0158216
0.0159328
0.0160404
0.0161463
0.0162535
0.0163629
0.0164755
0.0165927
0.0167155
0.0168452
0.0169825
0.017128
0.0172819
0.0174434
0.0176113
0.0177832
0.0179555
0.0181231
0.0182792
0.018415
0.0185196
0.0185799
0.0185808
0.0185059
0.0183385
0.0180644
0.0176744
0.0171721
0.0165692
0.0158884
0.0151423
0.0143012
0.0132454
0.0117699
0.00971479
0.00721681
0.00485833
0.00278706
0.000896698
0.0010462
0.00228723
0.00308271
0.00377599
0.0044256
0.00502533
0.00557481
0.00608115
0.00655447
0.00700474
0.0074402
0.00786687
0.0082887
0.00870785
0.00912512
0.00954036
0.00995277
0.0103612
0.0107642
0.0111605
0.0115487
0.0119276
0.012296
0.0126531
0.0129979
0.0133298
0.0136482
0.0139528
0.0142432
0.0145193
0.0147808
0.0150277
0.0152602
0.0154782
0.0156821
0.0158723
0.0160491
0.0162133
0.0163658
0.0165074
0.0166395
0.0167633
0.0168803
0.016992
0.0171
0.0172079
0.0173171
0.017429
0.0175453
0.0176675
0.0177972
0.0179359
0.0180845
0.0182438
0.0184139
0.0185942
0.0187832
0.0189779
0.0191741
0.0193657
0.0195442
0.0196992
0.0198171
0.0198818
0.0198748
0.0197754
0.0195637
0.0192143
0.018724
0.0180932
0.0173456
0.016521
0.0156514
0.0146963
0.0134673
0.0116034
0.00893966
0.00585562
0.00319436
0.000923571
0.00110501
0.00244132
0.00330012
0.00402124
0.00467275
0.00526011
0.00579178
0.0062804
0.00673928
0.00717996
0.00761122
0.00803907
0.00846709
0.00889692
0.00932882
0.00976207
0.0101953
0.010627
0.0110552
0.0114783
0.0118944
0.0123021
0.0127
0.0130868
0.0134616
0.0138234
0.0141716
0.0145056
0.0148249
0.0151292
0.0154182
0.0156918
0.0159498
0.0161924
0.0164195
0.0166315
0.0168288
0.0170118
0.0171813
0.0173384
0.0174843
0.0176203
0.0177479
0.0178689
0.0179849
0.0180987
0.018213
0.0183295
0.0184502
0.018577
0.018712
0.018857
0.0190137
0.0191835
0.0193673
0.0195652
0.0197766
0.0199997
0.0202311
0.0204657
0.0206964
0.0209134
0.021104
0.0212521
0.0213384
0.0213398
0.0212301
0.0209816
0.0205702
0.0199731
0.0191939
0.0182583
0.0172271
0.0161612
0.0150133
0.013477
0.0110296
0.00747601
0.00396659
0.00102746
0.00117984
0.00262001
0.0035275
0.00426011
0.00489824
0.00546066
0.00596499
0.00642889
0.00686814
0.00729522
0.00771899
0.00814507
0.00857644
0.00901412
0.00945774
0.009906
0.0103571
0.0108089
0.0112593
0.0117061
0.0121473
0.0125811
0.013006
0.0134204
0.0138232
0.0142133
0.0145899
0.0149523
0.0152998
0.015632
0.0159485
0.0162491
0.0165335
0.0168016
0.0170536
0.0172894
0.0175093
0.0177138
0.0179036
0.0180794
0.0182427
0.0183947
0.0185372
0.0186717
0.0188001
0.0189245
0.0190483
0.0191738
0.019303
0.0194382
0.019582
0.0197366
0.0199042
0.0200869
0.0202862
0.0205032
0.0207381
0.0209902
0.0212574
0.021536
0.02182
0.0221015
0.0223691
0.0226085
0.0228012
0.0229246
0.0229514
0.0228497
0.0225839
0.0221169
0.021418
0.0204656
0.0192876
0.0179663
0.0165907
0.0151272
0.0131341
0.00990293
0.00529804
0.00125128
0.00128139
0.0028448
0.00378189
0.00451123
0.00512027
0.00564501
0.00611265
0.00654543
0.00696057
0.00737069
0.00778412
0.00820571
0.00863765
0.00908022
0.0095324
0.00999234
0.0104578
0.0109262
0.0113952
0.0118622
0.0123252
0.012782
0.0132308
0.01367
0.0140983
0.0145145
0.0149175
0.0153066
0.015681
0.0160401
0.0163834
0.0167107
0.0170215
0.0173156
0.0175931
0.0178539
0.0180981
0.0183261
0.0185384
0.0187358
0.0189195
0.0190909
0.0192517
0.0194033
0.0195478
0.019687
0.0198244
0.0199624
0.0201035
0.0202503
0.0204054
0.0205716
0.0207516
0.0209479
0.0211628
0.0213981
0.0216551
0.0219339
0.0222338
0.0225525
0.0228858
0.0232274
0.0235683
0.0238964
0.0241958
0.0244463
0.024623
0.0246951
0.0246249
0.0243672
0.02387
0.0230795
0.0219537
0.0204838
0.0187483
0.0169075
0.014929
0.0122098
0.0075274
0.00161836
0.00143745
0.00313232
0.0040765
0.00478829
0.00535955
0.00583538
0.00625676
0.00665236
0.00703933
0.00742936
0.00782965
0.00824391
0.00867336
0.00911747
0.00957458
0.0100424
0.0105181
0.0109992
0.0114826
0.011966
0.0124467
0.0129228
0.013392
0.0138528
0.0143037
0.0147432
0.0151702
0.0155839
0.0159833
0.0163679
0.0167369
0.0170898
0.0174264
0.0177463
0.0180493
0.0183355
0.0186049
0.0188577
0.0190943
0.0193155
0.0195223
0.0197159
0.019898
0.0200701
0.020234
0.0203916
0.0205458
0.0206996
0.0208554
0.0210162
0.0211847
0.021364
0.0215572
0.0217672
0.0219969
0.0222487
0.0225248
0.0228264
0.0231538
0.0235064
0.0238815
0.0242749
0.0246798
0.0250869
0.0254835
0.025853
0.0261748
0.0264225
0.0265631
0.0265549
0.0263447
0.0258651
0.0250338
0.0237639
0.021989
0.0197371
0.0171869
0.014369
0.0106985
0.00234856
0.00166038
0.00358485
0.00446116
0.00511319
0.00563075
0.00605377
0.00642195
0.00677569
0.00713091
0.00749782
0.00788191
0.00828552
0.00870881
0.00915045
0.00960821
0.0100793
0.0105609
0.0110498
0.0115433
0.0120384
0.0125327
0.0130239
0.0135098
0.0139886
0.0144586
0.0149183
0.0153667
0.0158024
0.0162247
0.0166326
0.0170255
0.0174028
0.0177639
0.0181086
0.0184366
0.0187477
0.0190421
0.0193201
0.0195823
0.0198291
0.0200612
0.0202796
0.0204856
0.0206808
0.020867
0.0210461
0.0212201
0.0213924
0.0215656
0.0217425
0.0219263
0.0221199
0.0223268
0.0225503
0.0227935
0.0230597
0.0233515
0.0236711
0.02402
0.0243987
0.0248064
0.0252407
0.0256972
0.0261692
0.0266473
0.0271189
0.0275679
0.0279741
0.028312
0.0285491
0.0286435
0.0285391
0.028159
0.027397
0.0261088
0.02413
0.0213543
0.0178642
0.0139529
0.00939229
0.00227486
0.00412329
0.00492322
0.00549195
0.00593792
0.00630632
0.00663083
0.00694192
0.00726428
0.00760586
0.00797069
0.00835984
0.00877257
0.00920695
0.0096603
0.0101296
0.0106117
0.0111035
0.0116018
0.0121039
0.0126072
0.013109
0.0136074
0.0141002
0.0145858
0.0150625
0.0155289
0.0159839
0.0164263
0.0168553
0.0172699
0.0176694
0.0180532
0.018421
0.0187724
0.0191073
0.019426
0.0197294
0.0200177
0.0202912
0.0205501
0.0207949
0.021027
0.0212476
0.0214583
0.021661
0.0218574
0.0220509
0.0222438
0.0224389
0.0226395
0.0228485
0.0230696
0.0233062
0.0235618
0.0238399
0.0241439
0.0244766
0.0248406
0.0252373
0.0256676
0.0261308
0.0266246
0.0271448
0.0276849
0.0282361
0.0287866
0.0293219
0.0298238
0.0302699
0.0306321
0.0308741
0.0309473
0.0307837
0.0302834
0.0292968
0.0276115
0.0249768
0.0213225
0.0171103
0.00324154
0.00474894
0.00544637
0.00591447
0.00628563
0.00660247
0.006892
0.00717418
0.00746792
0.00778509