/*--------------------------------*- C++ -*----------------------------------*\
| =========                 |                                                 |
| \\      /  F ield         | OpenFOAM: The Open Source CFD Toolbox           |
|  \\    /   O peration     | Version:  v2012                                 |
|   \\  /    A nd           | Website:  www.openfoam.com                      |
|    \\/     M anipulation  |                                                 |
\*---------------------------------------------------------------------------*/
FoamFile
{
    version     2.0;
    format      ascii;
    class       volScalarField;
    location    "504";
    object      nut;
}
// * * * * * * * * * * * * * * * * * * * * * * * * * * * * * * * * * * * * * //

dimensions      [0 2 -1 0 0 0 0];


internalField   nonuniform List<scalar> 
6556
(
0.0032982
0.011649
0.0140236
0.0144364
0.0143303
0.0143303
0.0144364
0.0140236
0.011649
0.0032982
0.00243513
0.00948155
0.0127951
0.013742
0.0138485
0.0138485
0.013742
0.0127951
0.00948155
0.00243513
0.00192748
0.00811529
0.0116929
0.013026
0.0133529
0.0133529
0.013026
0.0116929
0.00811529
0.00192748
0.00160153
0.00716111
0.0107522
0.0123282
0.0128324
0.0128324
0.0123282
0.0107522
0.00716111
0.00160153
0.00137694
0.00644867
0.0099564
0.0116691
0.0122991
0.0122991
0.0116691
0.00995641
0.00644868
0.00137694
0.00121327
0.00589056
0.00927881
0.0110565
0.0117678
0.0117678
0.0110565
0.00927883
0.00589057
0.00121327
0.00108855
0.00543724
0.00869512
0.0104915
0.0112502
0.0112502
0.0104915
0.00869514
0.00543727
0.00108855
0.000990093
0.00505866
0.00818591
0.00997172
0.0107537
0.0107537
0.00997175
0.00818595
0.0050587
0.000990095
0.000910121
0.00473555
0.0077364
0.00949376
0.0102826
0.0102826
0.0094938
0.00773647
0.00473561
0.000910124
0.000843652
0.00445503
0.00733547
0.00905381
0.00983856
0.00983858
0.00905388
0.00733557
0.00445512
0.000843657
0.000787358
0.00420812
0.00697471
0.0086482
0.00942196
0.009422
0.00864831
0.00697486
0.00420825
0.000787365
0.000738936
0.00398838
0.00664772
0.00827356
0.00903207
0.00903214
0.00827372
0.00664794
0.00398858
0.000738946
0.000696743
0.00379107
0.0063495
0.00792681
0.00866763
0.00866772
0.00792705
0.00634983
0.00379136
0.000696757
0.000659574
0.00361255
0.00607611
0.00760523
0.00832709
0.00832723
0.00760558
0.00607659
0.00361299
0.000659594
0.000626527
0.00345003
0.00582437
0.00730637
0.0080088
0.00800902
0.0073069
0.00582508
0.00345066
0.000626555
0.000596911
0.00330126
0.00559168
0.00702807
0.0077111
0.00771142
0.00702886
0.00559271
0.00330215
0.00059695
0.000570185
0.00316441
0.00537584
0.0067684
0.00743237
0.00743283
0.00676957
0.00537731
0.00316562
0.00057024
0.000545923
0.00303798
0.00517499
0.00652559
0.0071711
0.00717175
0.00652733
0.00517701
0.00303945
0.000545995
0.000523779
0.00292068
0.00498751
0.00629809
0.00692582
0.00692677
0.00630061
0.00499036
0.0029223
0.000523869
0.000503471
0.00281139
0.00481195
0.00608444
0.00669521
0.0066966
0.00608813
0.00481581
0.0028114
0.000503568
0.000484763
0.00270913
0.00464702
0.00588332
0.00647801
0.00648018
0.00588965
0.00465839
0.00274044
0.000559767
0.000467461
0.00261303
0.00449155
0.00569351
0.00627309
0.00627655
0.00570459
0.00451643
0.00268545
0.000635101
0.000451396
0.00252235
0.00434452
0.00551391
0.00607939
0.00608479
0.00553218
0.00438869
0.00264883
0.000729322
0.000436426
0.00243642
0.00420498
0.00534353
0.00589595
0.0059039
0.00537106
0.00427179
0.00264426
0.00084887
0.000422427
0.00235466
0.00407213
0.00518145
0.0057218
0.00573263
0.00521856
0.00417038
0.00266853
0.00100031
0.000409294
0.00227656
0.00394519
0.00502685
0.00555613
0.00557038
0.00507382
0.00408783
0.0027089
0.00118343
0.000396932
0.00220164
0.00382346
0.00487895
0.00539828
0.00541722
0.00494285
0.00401562
0.00275279
0.00139289
0.000385259
0.00212943
0.0037063
0.00473705
0.00524766
0.00527288
0.00482415
0.00395516
0.0027992
0.00162
0.000374199
0.00205951
0.00359305
0.00460049
0.00510371
0.00513697
0.00471653
0.00390549
0.00285155
0.00184859
0.000363686
0.00199151
0.00348312
0.00446862
0.00496589
0.00500897
0.004619
0.00386592
0.0029112
0.00206739
0.00035366
0.00192504
0.00337594
0.00434083
0.00483363
0.00488833
0.00453069
0.00383585
0.00297784
0.00227404
0.000344064
0.00185972
0.00327093
0.00421652
0.00470636
0.00477446
0.00445078
0.00381441
0.00304862
0.00246659
0.000334847
0.00179521
0.00316754
0.00409507
0.00458347
0.00466671
0.00437842
0.00380049
0.00312188
0.00264382
0.000325959
0.00173118
0.0030652
0.00397583
0.00446433
0.00456438
0.00431274
0.00379297
0.00319583
0.00280506
0.000317354
0.0016673
0.00296333
0.00385813
0.00434823
0.00446671
0.0042528
0.00379058
0.00326864
0.00294989
0.000308988
0.00160327
0.00286136
0.00374127
0.00423442
0.00437286
0.00419757
0.00379197
0.00333863
0.00307814
0.000300819
0.00153884
0.0027587
0.00362449
0.00412206
0.0042819
0.00414595
0.0037957
0.00340434
0.00318993
0.000292804
0.00147378
0.00265481
0.00350703
0.00401025
0.00419281
0.00409671
0.00380033
0.00346461
0.0032857
0.000284902
0.00140793
0.00254915
0.00338807
0.00389801
0.00410447
0.00404855
0.0038044
0.00351864
0.00336638
0.000277073
0.00134119
0.00244127
0.00326681
0.00378429
0.00401561
0.00400005
0.00380651
0.00356593
0.00343339
0.000269277
0.00127357
0.00233081
0.00314245
0.00366796
0.00392488
0.0039497
0.00380526
0.00360623
0.00348858
0.000261473
0.00120514
0.00221749
0.0030142
0.00354781
0.00383074
0.00389584
0.00379922
0.00363942
0.0035341
0.000253622
0.00113609
0.00210118
0.00288132
0.00342253
0.00373151
0.00383658
0.00378681
0.0036652
0.00357201
0.000245682
0.00106664
0.00198186
0.00274311
0.00329076
0.00362527
0.00376981
0.00376613
0.00368287
0.00360382
0.000237608
0.000997043
0.00185963
0.00259897
0.00315104
0.0035099
0.00369302
0.00373483
0.00369093
0.00362993
0.000229355
0.000927565
0.00173467
0.00244834
0.00300187
0.00338303
0.0036033
0.00368987
0.00368683
0.00364907
0.000220867
0.000858443
0.00160725
0.00229078
0.00284173
0.0032421
0.00349727
0.00362751
0.00366677
0.00365789
0.000212082
0.000789875
0.00147767
0.002126
0.00266919
0.00308443
0.00337122
0.00354324
0.00362564
0.00365086
0.000202917
0.000722007
0.00134629
0.00195388
0.00248304
0.00290746
0.00322129
0.00343206
0.00355728
0.00362055
0.00019327
0.00065494
0.0012135
0.00177461
0.00228257
0.00270913
0.00304393
0.00328896
0.00345504
0.00355829
0.00018299
0.000588746
0.0010799
0.00158892
0.00206789
0.00248837
0.00283658
0.00310969
0.00331266
0.00345532
0.000171856
0.000523492
0.000946512
0.00139848
0.00184065
0.00224608
0.00259879
0.00289197
0.00312562
0.00330421
0.000159504
0.000459201
0.000815063
0.00120676
0.00160515
0.0019864
0.00233365
0.00263712
0.00289274
0.00309991
0.000111293
0.000400711
0.000690617
0.00102023
0.00136944
0.00171799
0.00204925
0.0023514
0.00261625
0.00284001
0.000108528
0.00035527
0.000585871
0.000853176
0.00114828
0.00145566
0.00175943
0.00204515
0.00230463
0.00253344
0.000107175
0.000323889
0.00051325
0.000724941
0.000964126
0.00122185
0.00148337
0.00173851
0.00197927
0.00219981
7.85196e-05
0.000310178
0.000474021
0.000645501
0.000835032
0.00103819
0.00125037
0.00146439
0.0016731
0.00187034
6.71636e-05
0.000294807
0.000457908
0.000604598
0.000738399
0.000866726
0.00100516
0.00115173
0.00129935
0.00144382
6.52461e-05
0.000224985
0.000429567
0.000558232
0.000678412
0.000710281
0.000773183
0.000867952
0.000975314
0.00108529
6.92185e-05
0.000115539
0.000143701
0.000175598
0.000205832
0.000226066
0.000241295
0.000253846
0.000264119
0.000272493
0.000145104
0.000163823
0.000166201
0.000171364
0.000175535
0.000178085
0.000178866
0.00017775
0.000174313
0.000170156
0.000165213
0.000159468
0.000152984
0.000146015
0.00013871
0.000131151
0.000123244
0.000115901
0.000108813
0.000101705
9.43438e-05
8.64293e-05
7.74689e-05
6.64485e-05
4.2658e-05
0.000258958
0.00053095
0.000803675
0.000951513
0.00103055
0.0010777
0.00110214
0.00110653
0.00108973
0.00105849
0.00101919
0.0009721
0.000917922
0.000859549
0.000798863
0.000736532
0.000670228
0.000579634
0.000482063
0.000389094
0.00030739
0.000240121
0.00018882
0.000148342
5.10673e-05
0.000407839
0.000668531
0.00103913
0.00134186
0.00152018
0.00162316
0.00167826
0.00169797
0.00156382
0.00149776
0.00153058
0.00153251
0.00145928
0.00138021
0.001297
0.00120923
0.00111234
0.000988522
0.000841573
0.000684331
0.000532074
0.000398633
0.000292718
0.000207216
5.5161e-05
0.000671111
0.000701836
0.00106105
0.00140414
0.00165367
0.0017929
0.00186423
0.00189034
0.00178033
0.00169064
0.00169131
0.00171998
0.00164805
0.00157456
0.00150023
0.00142212
0.00133307
0.00121725
0.00106973
0.000896147
0.000710584
0.000532933
0.000380648
0.000248925
5.76548e-05
0.00102089
0.000881172
0.00120052
0.00142255
0.00166801
0.0018294
0.00190505
0.00192755
0.00191182
0.00186722
0.00180252
0.00172803
0.00165429
0.00158771
0.00152824
0.00147007
0.0014026
0.00130962
0.00118137
0.00101736
0.000826983
0.000629639
0.00044668
0.000276057
5.77526e-05
0.00128691
0.00120293
0.00139546
0.00152829
0.0016928
0.00183435
0.0019086
0.00192374
0.00189643
0.0018388
0.00176073
0.0016731
0.00159025
0.00152388
0.00147519
0.00143594
0.00139108
0.00132238
0.00121696
0.00107082
0.000889429
0.000688891
0.000489593
0.000290661
5.69301e-05
0.0015085
0.0016088
0.00162645
0.00168446
0.00178822
0.00187051
0.00191556
0.00191945
0.00187975
0.00180763
0.00171376
0.00161014
0.0015127
0.00143764
0.00139212
0.00136702
0.0013417
0.0012937
0.00120792
0.00107956
0.000911807
0.00071699
0.000511802
0.000295263
5.55667e-05
0.00172396
0.00185989
0.00187177
0.00188664
0.00193254
0.00197026
0.00197426
0.00194217
0.00187863
0.00179032
0.00167981
0.00155811
0.00144325
0.00135399
0.00130207
0.00128342
0.00127324
0.00124188
0.00117141
0.00105858
0.00090553
0.000720987
0.000517017
0.000292194
5.38076e-05
0.00193468
0.00209003
0.00212084
0.00211643
0.00211308
0.00210911
0.00207857
0.0020155
0.00192146
0.00180303
0.00166785
0.00152487
0.00138933
0.00128129
0.00121448
0.0011916
0.00118739
0.00116795
0.00111109
0.00101372
0.0008769
0.00070603
0.000508418
0.000282564
5.18268e-05
0.00213944
0.00230957
0.00236449
0.00235321
0.00231726
0.00227768
0.00221581
0.00212425
0.00200177
0.00185401
0.00168728
0.00151559
0.00135457
0.00122324
0.00113419
0.00109464
0.00108871
0.00107648
0.00103055
0.000947763
0.000827801
0.000672627
0.000485035
0.00026452
5.00053e-05
0.00233707
0.00251908
0.00259857
0.00259181
0.00253677
0.00246784
0.0023785
0.0022627
0.00211559
0.00193812
0.00173831
0.00153253
0.0013407
0.00118155
0.00106623
0.000999035
0.000979209
0.000969166
0.000934599
0.000865734
0.000762449
0.000624013
0.000449923
0.000241876
4.82086e-05
0.00252643
0.00271726
0.00282016
0.00282789
0.00276958
0.0026726
0.00256024
0.00242536
0.00225851
0.00205453
0.00182336
0.00157989
0.00135185
0.00116156
0.00101726
0.000917818
0.000868766
0.000853592
0.000828343
0.000771783
0.000684535
0.00056393
0.000407424
0.000218378
4.63681e-05
0.00270501
0.00290157
0.00302578
0.00305044
0.00299188
0.00288139
0.00275431
0.00260729
0.00242813
0.00220595
0.00194446
0.00166537
0.00139771
0.00117215
0.000997401
0.000829511
0.000775906
0.000736421
0.000716687
0.000670705
0.000598781
0.000495902
0.000363413
0.000198752
4.44974e-05
0.00287006
0.00306997
0.00321244
0.00325411
0.00320234
0.00308985
0.0029552
0.00280349
0.0026207
0.00239025
0.00211042
0.00180023
0.00149223
0.00122569
0.00101613
0.000792156
0.000661124
0.000641691
0.000601631
0.000568809
0.000511622
0.000423663
0.000309449
0.000187106
4.28124e-05
0.00301894
0.0032138
0.00337627
0.00343573
0.00339848
0.00329578
0.00315766
0.00300866
0.00283227
0.0026061
0.00232217
0.00199425
0.00165252
0.00134168
0.0010873
0.000888478
0.000619143
0.000503396
0.000493377
0.000479068
0.000433936
0.000359181
0.000240187
0.000147689
5.7891e-05
0.00314961
0.0033391
0.00349249
0.00359172
0.00357295
0.00348162
0.00335431
0.00321661
0.0030571
0.00284891
0.00257864
0.00225298
0.00189447
0.00154743
0.00124131
0.000989492
0.000790034
0.000521054
0.000390809
0.000336469
0.000331447
0.000292948
0.000247658
0.000197902
0.00012708
0.003261
0.00345333
0.00361737
0.00372076
0.00372184
0.00364909
0.00354343
0.00342176
0.00328837
0.00299959
0.00275366
0.00257376
0.00222743
0.00186854
0.0015226
0.00121091
0.000945049
0.000732375
0.000565956
0.000397662
0.000323342
0.000291768
0.000280235
0.000256996
0.000203278
0.00335261
0.00353573
0.00371201
0.00382029
0.00384315
0.00379355
0.00370963
0.00361702
0.00351555
0.00326771
0.00297355
0.00274265
0.0025655
0.00230685
0.0019601
0.00161529
0.00128841
0.000997832
0.000758912
0.000582358
0.000467683
0.000404946
0.000379713
0.000373072
0.000381761
0.00342501
0.00359477
0.00376974
0.00388884
0.00393418
0.00391146
0.00385107
0.00378794
0.00372512
0.00364817
0.00341722
0.00315868
0.00293417
0.00272696
0.00251559
0.00219875
0.00186371
0.00153418
0.00123017
0.000973409
0.000781944
0.000661807
0.000604374
0.000587362
0.000589994
0.00347986
0.00363196
0.00380081
0.00392785
0.00399267
0.0039974
0.00396284
0.00392495
0.00389868
0.00387155
0.00382809
0.00374447
0.00353664
0.00331071
0.00307023
0.00279855
0.00249776
0.00218134
0.00186443
0.00156237
0.00129255
0.00105491
0.000859925
0.000741246
0.000673373
0.00351987
0.00365015
0.00380761
0.00393802
0.0040179
0.00404816
0.00404239
0.00402574
0.00402524
0.00403913
0.00405453
0.0040491
0.0039988
0.00389755
0.00375655
0.00358612
0.00330143
0.00295747
0.0025897
0.0022344
0.0019183
0.00164594
0.00141794
0.00125898
0.00117914
0.00354859
0.00365355
0.00379414
0.0039223
0.00401302
0.00406285
0.00408295
0.00409061
0.00410635
0.00414333
0.00419984
0.00425675
0.00428627
0.00427585
0.00422918
0.00415335
0.00405512
0.00388102
0.00354933
0.00321424
0.00291367
0.00265257
0.00242731
0.00225276
0.00214709
0.00357004
0.00364752
0.00376606
0.00388558
0.0039812
0.00404554
0.00408475
0.00411336
0.00414636
0.00419498
0.00426722
0.00435655
0.00444172
0.00450307
0.00453514
0.00453941
0.00451944
0.0044797
0.00434072
0.00409767
0.00387655
0.00368445
0.0035141
0.0033643
0.00325265
0.00358812
0.00363803
0.00373047
0.00383478
0.00392824
0.0040009
0.00405432
0.00409785
0.00414381
0.00420251
0.00428058
0.00437782
0.00448396
0.0045859
0.0046738
0.00474025
0.00478064
0.00479847
0.00469484
0.00456697
0.00445857
0.00436282
0.00427215
0.00418455
0.00410331
0.00360571
0.00363074
0.00369522
0.00377867
0.00386247
0.00393598
0.00399727
0.00405123
0.00410636
0.00417134
0.00425224
0.00435093
0.00446315
0.00457967
0.00469079
0.00478866
0.0047687
0.00469801
0.00463937
0.00460186
0.00457936
0.0045644
0.0045519
0.00453717
0.00451848
0.00362376
0.00362973
0.00366763
0.0037268
0.00379431
0.00386074
0.00392236
0.00398065
0.0040404
0.00410784
0.0041888
0.00428589
0.00439743
0.00451684
0.00463493
0.00457842
0.00448038
0.00441015
0.00437281
0.00436207
0.00437189
0.00439812
0.00445259
0.00446962
0.00450271
0.00364038
0.00363604
0.00365256
0.00368769
0.00373474
0.00378721
0.00384128
0.00389639
0.00395479
0.00402049
0.00409754
0.00418861
0.00429342
0.00440754
0.00444603
0.00430118
0.00418479
0.00410699
0.00406311
0.00404256
0.00404649
0.0040721
0.0041131
0.00416486
0.0042215
0.00365036
0.00364641
0.00365043
0.00366619
0.00369268
0.00372709
0.00376707
0.00381189
0.00386247
0.00392084
0.00398948
0.00407031
0.00416353
0.00426616
0.00426118
0.00406913
0.00392295
0.00382036
0.00375307
0.00371735
0.00370867
0.00372199
0.00375224
0.00379576
0.00384753
0.00364538
0.00365295
0.00365574
0.00366085
0.00367138
0.00368808
0.00371125
0.00374104
0.00377811
0.0038236
0.00387889
0.00394516
0.00402268
0.00410985
0.00420182
0.0039742
0.00378172
0.00364733
0.00355255
0.00348874
0.00345207
0.00343894
0.00344536
0.00346701
0.00350109
0.00361475
0.00364372
0.00365684
0.00366221
0.00366528
0.00366996
0.00367862
0.00369284
0.00371393
0.00374302
0.00378119
0.00382921
0.00388736
0.00395495
0.0040296
0.0040625
0.0038173
0.00362961
0.0034963
0.00340106
0.00333368
0.00328981
0.00326665
0.00326078
0.0032693
0.00354681
0.00360419
0.00363693
0.00365317
0.00365971
0.00366164
0.00366276
0.00366592
0.0036733
0.00368661
0.00370713
0.00373577
0.00377296
0.00381859
0.00387182
0.00393051
0.00399099
0.00382169
0.00362948
0.00348684
0.00338221
0.00330584
0.00325206
0.00321675
0.00319685
0.00343049
0.00351837
0.00357672
0.00361276
0.00363283
0.00364222
0.00364531
0.00364562
0.00364602
0.00364875
0.00365557
0.00366775
0.00368609
0.00371098
0.00374236
0.00377967
0.00382171
0.00386635
0.00391182
0.00379365
0.0036364
0.00351578
0.00342598
0.00335948
0.00331166
0.0032551
0.00337274
0.00345919
0.0035201
0.00356079
0.00358607
0.00360017
0.00360676
0.00360893
0.00360924
0.00360978
0.00361218
0.00361764
0.00362699
0.0036407
0.00365893
0.00368152
0.003708
0.00373763
0.00376909
0.0038015
0.0038342
0.00379979
0.0036959
0.00361522
0.00301732
0.00316025
0.00327307
0.00335965
0.00342401
0.00347004
0.00350142
0.00352149
0.00353321
0.00353919
0.00354162
0.00354231
0.00354275
0.00354406
0.00354709
0.0035524
0.00356036
0.00357112
0.00358463
0.00360066
0.0036189
0.00363895
0.00366014
0.00368183
0.00370365
0.00272297
0.00288334
0.0030168
0.00312549
0.00321202
0.00327922
0.00332992
0.0033669
0.00339276
0.00340987
0.00342034
0.003426
0.00342839
0.00342882
0.00342831
0.00342769
0.00342758
0.00342843
0.00343057
0.00343418
0.00343934
0.00344603
0.00345413
0.00346347
0.00347384
0.00238929
0.00255588
0.00270013
0.00282277
0.0029251
0.00300887
0.00307603
0.00312865
0.00316879
0.00319843
0.0032194
0.00323336
0.0032418
0.003246
0.00324704
0.00324585
0.00324317
0.00323962
0.00323568
0.00323174
0.00322808
0.00322491
0.00322237
0.00322055
0.00321951
0.00204472
0.00220261
0.00234339
0.00246667
0.00257294
0.00266309
0.0027382
0.00279958
0.00284865
0.00288687
0.00291565
0.00293637
0.00295029
0.00295854
0.00296214
0.00296199
0.00295885
0.00295338
0.00294614
0.0029376
0.00292814
0.00291809
0.0029077
0.00289721
0.00288686
0.00158203
0.00172318
0.00187209
0.00203209
0.00215021
0.00223023
0.00229763
0.00235329
0.00239813
0.00243316
0.00245939
0.00247785
0.0024895
0.00249528
0.00249603
0.00249255
0.00248552
0.00247557
0.00246326
0.00244906
0.00243339
0.00241661
0.00239903
0.00238093
0.00236265
0.00119523
0.00131394
0.00141111
0.00146724
0.00151498
0.0015544
0.00158593
0.00161012
0.00162754
0.00163883
0.00164462
0.00164555
0.00164225
0.00163531
0.0016253
0.00161274
0.00159808
0.00158177
0.00156417
0.00154562
0.0015264
0.00150676
0.00148691
0.00146704
0.00144738
0.000279186
0.000284951
0.000289852
0.000293871
0.000297107
0.000299629
0.000301493
0.000302756
0.000303468
0.000303681
0.000303444
0.000302805
0.00030181
0.000300504
0.000298928
0.000297122
0.000295123
0.000292963
0.000290674
0.000288283
0.000285814
0.000283289
0.000280728
0.000278147
0.000275561
4.43356e-05
6.34592e-05
4.27589e-05
0.000132528
9.55864e-05
0.000211141
0.000201629
0.000288845
0.000353044
0.000408718
0.00046346
0.000385167
0.000484237
0.000460174
0.000517349
0.000658108
0.000700709
0.000809347
0.00117927
0.00123944
0.00133855
0.00210664
0.00211634
0.00215848
0.00317842
0.0031403
0.00313481
0.00404071
0.00400108
0.00398352
0.00449829
0.00448492
0.00448035
0.00453138
0.00455423
0.00457804
0.00427493
0.00432356
0.00437076
0.00389137
0.00395582
0.00401982
0.00354109
0.00358568
0.0036118
0.00328581
0.00331078
0.00334273
0.00318789
0.00318977
0.00319975
0.00327785
0.00325652
0.00324402
0.00355628
0.00351377
0.00348172
0.00372325
0.00374277
0.00376246
0.00348375
0.00349429
0.00350544
0.00321902
0.00321922
0.00321996
0.00287759
0.00286869
0.00285997
0.00234616
0.00232985
0.00231355
0.00143009
0.00141316
0.00139649
0.000273292
0.000271042
0.000268811
2.62154e-05
4.35284e-05
5.50979e-05
5.49336e-05
7.00454e-05
7.55107e-05
8.02334e-05
8.44155e-05
8.81839e-05
9.16216e-05
9.4786e-05
9.77195e-05
0.000100455
0.000103018
0.000105432
0.000107714
0.000109879
0.000111943
0.000113918
0.000115814
0.000117643
0.000119414
0.000121137
0.000122819
0.000124469
0.000126095
0.000127705
0.000129307
0.000130907
0.000132515
0.000134136
0.000135781
0.000137456
0.000139172
0.000140938
0.000142765
0.000144667
0.000146658
0.000148756
0.000150982
0.00015335
0.000155793
0.000158309
0.000160899
0.000163562
0.000166303
0.000169122
0.000172023
0.000175004
0.000178065
0.000181204
0.000184415
0.000187693
0.000191028
0.000194405
0.000197806
0.000201205
0.000204565
0.000207837
0.000210956
0.000213832
0.000216345
0.000218336
0.000219603
0.000219954
0.000219258
0.000217492
0.000214602
0.000210484
0.000204921
0.00019776
0.000188644
0.000177659
0.000165167
0.000151624
0.000138874
0.000126128
0.0001127
9.73025e-05
6.57498e-05
4.30671e-05
0.000123916
0.00014221
0.000160363
0.000183722
0.00021112
0.000240719
0.000271793
0.000303666
0.000335785
0.000367706
0.000399096
0.000429719
0.000459421
0.000488107
0.000515729
0.000542275
0.000567753
0.000592194
0.00061564
0.000638143
0.000659763
0.000680563
0.000700611
0.000719977
0.000738731
0.000756943
0.00077468
0.000792007
0.000808987
0.000825673
0.000842115
0.000858356
0.000874423
0.000890332
0.000906082
0.000921651
0.000937001
0.000951973
0.00096645
0.000980592
0.0009961
0.00101232
0.00102916
0.00104665
0.00106479
0.0010836
0.00110309
0.00112326
0.00114409
0.00116554
0.00118755
0.00121003
0.00123287
0.00125588
0.00127884
0.00130144
0.0013233
0.00134388
0.00136251
0.00137831
0.00139008
0.00139626
0.00139484
0.0013843
0.00136699
0.00134261
0.00131042
0.00126936
0.00121581
0.00115132
0.00107214
0.000982325
0.00088018
0.000745803
0.000572729
0.000415539
0.000295519
0.000209149
7.03282e-05
5.26258e-05
0.000183595
0.00022198
0.000261814
0.000312856
0.000372969
0.000439265
0.000509413
0.000581459
0.000653877
0.000725541
0.000795674
0.000863769
0.000929523
0.000992773
0.00105345
0.00111155
0.00116712
0.00122022
0.00127094
0.00131939
0.00136568
0.00140992
0.00145224
0.00149274
0.00153155
0.00156878
0.00160455
0.00163896
0.00167211
0.00170409
0.001735
0.00176491
0.00179389
0.00182199
0.00184928
0.00187578
0.00190152
0.0019265
0.00195071
0.00197416
0.00199734
0.00202175
0.00204664
0.0020718
0.00209716
0.00212264
0.00214813
0.00217352
0.00219863
0.00222326
0.00224712
0.0022699
0.00229119
0.0023105
0.00232726
0.00234078
0.00235028
0.00235484
0.00235343
0.00234491
0.00232802
0.00230137
0.00223817
0.00204841
0.00188837
0.00176975
0.00169256
0.00166269
0.00169
0.00170636
0.00158854
0.00146621
0.00133288
0.00117014
0.000937048
0.000680524
0.000456083
0.000284118
7.30883e-05
5.8249e-05
0.000232832
0.000303266
0.000371529
0.00045568
0.000552321
0.00065795
0.000768503
0.000880901
0.000992887
0.0011029
0.00120994
0.0013134
0.00141294
0.00150841
0.00159977
0.00168707
0.00177039
0.00184984
0.00192555
0.00199766
0.00206631
0.00213165
0.00219383
0.00225299
0.00230927
0.00236281
0.00241373
0.00246216
0.0025082
0.00255198
0.00259358
0.0026331
0.00267064
0.00270625
0.00274001
0.00277199
0.00280221
0.00283071
0.00285749
0.00288256
0.00290587
0.00292855
0.002951
0.00297257
0.002993
0.00301206
0.00302955
0.00304519
0.00305869
0.00306967
0.0030777
0.00308229
0.00308284
0.0030787
0.00306912
0.00305329
0.00303031
0.00299926
0.00295918
0.00290919
0.00284849
0.00277649
0.00269283
0.00250924
0.00226935
0.00208098
0.00194378
0.00185879
0.00183541
0.00185827
0.00172943
0.00160269
0.00147552
0.00133277
0.00112538
0.000852245
0.000571849
0.000329852
7.24176e-05
6.20479e-05
0.000279391
0.00038484
0.000485894
0.000604822
0.000738544
0.000881723
0.00102953
0.00117824
0.00132524
0.00146885
0.00160801
0.00174215
0.00187096
0.00199434
0.00211232
0.00222495
0.00233237
0.00243471
0.00253213
0.00262479
0.00271286
0.00279648
0.00287583
0.00295104
0.00302227
0.00308965
0.0031533
0.00321336
0.00326993
0.0033231
0.00337298
0.00341965
0.00346317
0.00350362
0.00354105
0.0035755
0.003607
0.00363556
0.00366119
0.00368385
0.00370351
0.00372009
0.00373529
0.00374838
0.00375892
0.00376659
0.00377109
0.00377209
0.00376921
0.00376202
0.00374999
0.00373255
0.00370904
0.00367871
0.00364074
0.00359426
0.00353835
0.0034721
0.00339465
0.00330526
0.00320339
0.00308885
0.00296183
0.0028231
0.00267381
0.00251647
0.00235472
0.00217497
0.00203157
0.00188139
0.00173793
0.00160574
0.00148536
0.00136654
0.00120701
0.000950877
0.000647733
0.00035478
7.0245e-05
6.47059e-05
0.000319147
0.000465637
0.000601513
0.000754909
0.000923143
0.00110013
0.00128053
0.00146042
0.00163719
0.0018092
0.00197547
0.0021355
0.00228906
0.00243612
0.00257673
0.002711
0.00283907
0.0029611
0.00307726
0.00318772
0.00329265
0.00339219
0.00348651
0.00357577
0.00366009
0.00373961
0.00381446
0.00388474
0.00395054
0.00401197
0.00406908
0.00412196
0.00417064
0.00421518
0.0042556
0.00429193
0.00432419
0.00435236
0.00437644
0.0043964
0.00441219
0.00442376
0.00443137
0.00443618
0.00443741
0.00443461
0.00442745
0.00441557
0.00439857
0.00437599
0.00434728
0.00431184
0.00426893
0.00421776
0.00415743
0.00408696
0.00400534
0.00391153
0.00380456
0.00368359
0.00354803
0.00339767
0.00323285
0.00305467
0.00286529
0.00266821
0.00246808
0.00227021
0.00207992
0.00190161
0.00173813
0.00159125
0.001462
0.00134636
0.00121627
0.00100692
0.000705252
0.000372996
6.74225e-05
6.67672e-05
0.000355144
0.000544608
0.00071558
0.000901453
0.00110062
0.00130691
0.00151498
0.00172104
0.00192262
0.00211823
0.00230706
0.00248869
0.00266299
0.00282997
0.00298973
0.00314241
0.00328815
0.00342714
0.00355952
0.00368548
0.00380516
0.00391873
0.00402634
0.00412813
0.00422423
0.00431478
0.00439987
0.00447961
0.0045541
0.00462339
0.00468756
0.00474664
0.00480069
0.00484971
0.00489374
0.00493276
0.00496678
0.00499578
0.00501975
0.00503865
0.00505242
0.00506099
0.00506426
0.00506362
0.00505858
0.00504875
0.00503376
0.00501328
0.00498692
0.00495422
0.00491465
0.00486757
0.00481223
0.00474777
0.00467319
0.00458737
0.00448911
0.00437714
0.00425018
0.00410704
0.00394676
0.00376876
0.0035731
0.00336075
0.00313396
0.00289655
0.00265414
0.00241364
0.00218256
0.00196768
0.00177328
0.00159953
0.00144817
0.00131851
0.00119464
0.00102319
0.000736429
0.000380829
6.57359e-05
6.85793e-05
0.000388434
0.000621265
0.000826446
0.00104196
0.00126805
0.00149912
0.00173019
0.00195778
0.0021797
0.00239469
0.00260207
0.00280156
0.00299312
0.0031768
0.00335273
0.00352105
0.00368193
0.00383552
0.003982
0.00412151
0.0042542
0.00438024
0.00449976
0.00461289
0.00471977
0.00482051
0.00491521
0.00500399
0.0050869
0.00516402
0.00523541
0.00530109
0.00536109
0.00541543
0.00546411
0.00550712
0.00554444
0.00557606
0.00560195
0.00562208
0.00563641
0.0056449
0.00564749
0.00564431
0.00563643
0.00562331
0.00560457
0.00557989
0.00554893
0.00551126
0.00546638
0.00541368
0.0053524
0.00528163
0.00520033
0.00510724
0.00500097
0.00487996
0.00474255
0.00458705
0.00441188
0.00421576
0.00399796
0.00375869
0.00349946
0.00322361
0.00293682
0.00264732
0.00236478
0.00209876
0.00185548
0.00164095
0.00145699
0.0013007
0.00115398
0.000955219
0.000708092
0.000386856
6.51448e-05
7.03664e-05
0.000420239
0.000695967
0.000933777
0.00117574
0.00142469
0.00167619
0.00192591
0.00217083
0.00240911
0.00263971
0.00286216
0.00307629
0.00328209
0.00347968
0.00366918
0.00385075
0.00402455
0.00419072
0.0043494
0.00450076
0.00464492
0.00478204
0.00491224
0.00503565
0.00515241
0.00526262
0.00536638
0.0054638
0.00555494
0.00563986
0.00571863
0.00579126
0.00585779
0.00591821
0.00597252
0.0060207
0.00606273
0.00609859
0.00612823
0.00615162
0.00616872
0.00617947
0.00618379
0.00618157
0.00617398
0.00616074
0.00614158
0.00611625
0.00608446
0.00604585
0.00599998
0.0059463
0.00588409
0.0058125
0.00573044
0.00563662
0.00552953
0.00540739
0.00526821
0.00510981
0.00492995
0.00472644
0.00449743
0.0042418
0.00395963
0.00365293
0.00332588
0.00298675
0.00264574
0.00231418
0.00200572
0.00173231
0.00149939
0.00130425
0.00109022
0.000921917
0.000703216
0.000406798
6.61136e-05
7.23172e-05
0.000452164
0.00077005
0.00103857
0.00130367
0.00157151
0.00183929
0.0021036
0.00236201
0.00261304
0.00285594
0.00309038
0.00331627
0.00353367
0.0037427
0.00394347
0.00413614
0.00432084
0.00449771
0.00466687
0.00482846
0.00498262
0.00512948
0.00526916
0.00540179
0.0055275
0.00564639
0.00575858
0.00586414
0.00596315
0.00605569
0.0061418
0.00622151
0.00629484
0.00636179
0.00642236
0.00647653
0.00652425
0.00656549
0.0066002
0.00662835
0.00664988
0.00666472
0.00667279
0.00667398
0.0066688
0.00665771
0.0066405
0.00661698
0.00658694
0.00655013
0.00650619
0.00645467
0.00639496
0.00632628
0.00624766
0.00615784
0.00605531
0.00593823
0.00580443
0.00565143
0.00547644
0.00527649
0.0050486
0.0047901
0.00449908
0.00417515
0.0038205
0.00344033
0.00304338
0.00264333
0.00225724
0.0019036
0.00159727
0.00134326
0.00110229
0.000884106
0.00070638
0.000446946
6.9733e-05
7.47257e-05
0.00048662
0.000845918
0.00114317
0.00142817
0.00171099
0.00199105
0.00226611
0.00253441
0.0027949
0.00304705
0.00329068
0.00352574
0.00375231
0.00397048
0.00418037
0.0043821
0.00457577
0.0047615
0.00493941
0.00510962
0.00527226
0.00542745
0.00557533
0.00571601
0.00584962
0.00597626
0.00609605
0.00620906
0.00631539
0.00641509
0.00650821
0.00659479
0.00667485
0.0067484
0.00681542
0.00687589
0.00692977
0.00697702
0.00701757
0.00705136
0.00707832
0.00709838
0.00711145
0.00711744
0.00711624
0.00710881
0.00709504
0.00707486
0.00704815
0.00701476
0.00697447
0.00692695
0.00687174
0.00680823
0.00673558
0.00665271
0.00655824
0.00645044
0.00632716
0.00618586
0.00602352
0.00583669
0.0056216
0.00537428
0.00509094
0.00476864
0.00440579
0.00400374
0.0035679
0.00310915
0.0026444
0.00219623
0.00178983
0.00144436
0.00116495
0.000886583
0.000698172
0.000489695
7.69544e-05
7.78754e-05
0.000525855
0.000879095
0.00123174
0.00155343
0.00184724
0.00213552
0.00241755
0.0026923
0.00295911
0.00321765
0.00346779
0.00370953
0.0039429
0.00416797
0.00438482
0.00459351
0.00479415
0.00498682
0.00517163
0.00534871
0.00551817
0.00568014
0.00583475
0.00598212
0.00612238
0.00625564
0.006382
0.00650155
0.00661436
0.0067205
0.00682002
0.00691295
0.00699931
0.00707911
0.00715236
0.00721902
0.00727907
0.00733244
0.00737906
0.00741885
0.00745169
0.00747749
0.00749613
0.00750748
0.00751137
0.00750852
0.00749905
0.00748303
0.00746045
0.0074313
0.00739548
0.00735282
0.00730305
0.00724573
0.00718026
0.00710579
0.00702118
0.00692493
0.00681515
0.00668946
0.00654494
0.0063781
0.00618487
0.0059606
0.00570024
0.00539863
0.00505113
0.00465441