/*--------------------------------*- C++ -*----------------------------------*\
| =========                 |                                                 |
| \\      /  F ield         | OpenFOAM: The Open Source CFD Toolbox           |
|  \\    /   O peration     | Version:  v2012                                 |
|   \\  /    A nd           | Website:  www.openfoam.com                      |
|    \\/     M anipulation  |                                                 |
\*---------------------------------------------------------------------------*/
FoamFile
{
    version     2.0;
    format      ascii;
    class       volScalarField;
    location    "504";
    object      omega;
}
// * * * * * * * * * * * * * * * * * * * * * * * * * * * * * * * * * * * * * //

dimensions      [0 0 -1 0 0 0 0];


internalField   nonuniform List<scalar> 
6556
(
654.015
234.394
202.379
198.606
201.105
201.105
198.606
202.379
234.394
654.015
482.873
200.78
164.847
158.405
158.786
158.786
158.405
164.847
200.78
482.873
382.21
170.851
138.312
131.007
130.095
130.095
131.007
138.312
170.851
382.21
317.574
146.953
118.571
111.27
109.718
109.718
111.27
118.571
146.953
317.574
273.04
128.241
103.402
96.4497
94.6301
94.6301
96.4497
103.402
128.241
273.04
240.584
113.501
91.4621
84.9579
83.0624
83.0624
84.9579
91.462
113.501
240.584
215.854
101.724
81.8743
75.8169
73.9378
73.9378
75.8168
81.8743
101.724
215.854
196.33
92.1598
74.0415
68.3925
66.5712
66.5712
68.3924
74.0413
92.1595
196.331
180.472
84.2682
67.5443
62.2563
60.5086
60.5086
62.2562
67.5441
84.2678
180.473
167.292
77.6594
62.0817
57.1089
55.4381
55.438
57.1088
62.0814
77.6588
167.293
156.129
72.05
57.4332
52.7354
51.139
51.1389
52.7353
57.4328
72.0491
156.13
146.527
67.2312
53.4347
48.9777
47.4508
47.4507
48.9774
53.4341
67.2299
146.529
138.16
63.047
49.9617
45.7171
44.2542
44.254
45.7167
49.9608
63.0451
138.163
130.79
59.3792
46.9189
42.863
41.4586
41.4584
42.8624
46.9175
59.3764
130.794
124.237
56.1367
44.2321
40.3453
38.9943
38.9939
40.3443
44.2301
56.1327
124.243
118.364
53.2488
41.8429
38.1086
36.8065
36.806
38.1071
41.84
53.2431
118.372
113.065
50.6595
39.705
36.1091
34.8518
34.8511
36.107
39.7009
50.6521
113.076
108.254
48.3246
37.7809
34.3115
33.0954
33.0944
34.3084
37.7756
48.3163
108.268
103.863
46.2081
36.0406
32.6871
31.5089
31.5076
32.6827
36.0333
46.2007
103.88
99.8355
44.2813
34.4593
31.2125
30.0693
30.0673
31.2059
34.4492
44.2886
99.8548
96.126
42.5205
33.0168
29.8684
28.7572
28.7538
29.8546
32.9645
42.0704
83.8154
92.695
40.9062
31.6964
28.6385
27.5566
27.5503
28.6097
31.5664
39.8813
70.9596
89.5093
39.422
30.4837
27.5093
26.4538
26.4427
27.4563
30.2431
37.7071
60.9243
86.5409
38.0539
29.367
26.4693
25.4373
25.4194
26.3831
28.9913
35.3894
53.0388
83.7651
36.7899
28.3358
25.5086
24.4973
24.4713
25.3853
27.7692
33.0579
46.8582
81.1609
35.6201
27.3817
24.6189
23.6255
23.5895
24.4563
26.5684
30.9329
42.0632
78.7096
34.5357
26.4971
23.793
22.8146
22.7655
23.5724
25.4574
29.119
38.3311
76.3948
33.5297
25.6759
23.0248
22.0584
21.9931
22.7341
24.4231
27.6029
35.3951
74.2017
32.5962
24.9128
22.3092
21.3516
21.2673
21.9412
23.4651
26.3067
32.9214
72.1171
31.7299
24.2034
21.6416
20.6898
20.5843
21.1926
22.579
25.1673
30.7387
70.1289
30.9264
23.5439
21.0184
20.0692
19.9409
20.4865
21.7577
24.1413
28.8098
68.2261
30.1824
22.9314
20.4365
19.4869
19.3342
19.8203
20.9919
23.1856
27.0956
66.3983
29.4951
22.3635
19.8934
18.9403
18.7618
19.1912
20.2717
22.2818
25.5623
64.6358
28.8626
21.8386
19.3874
18.4273
18.2218
18.5961
19.5895
21.419
24.179
62.9296
28.2832
21.3556
18.9171
17.9466
17.7124
18.0324
18.9391
20.5899
22.9187
61.2707
27.7561
20.9141
18.482
17.4974
17.2324
17.4978
18.3158
19.79
21.7589
59.6507
27.2805
20.5143
18.082
17.0792
16.7812
16.9908
17.7167
19.0167
20.6815
58.0614
26.8561
20.1572
17.7178
16.6925
16.3588
16.5106
17.1407
18.2697
19.6732
56.4945
26.4825
19.8441
17.3908
16.3384
15.9658
16.0576
16.5886
17.5505
18.7252
54.9421
26.1594
19.5768
17.1029
16.0186
15.6039
15.6332
16.0629
16.8626
17.8334
53.3962
25.8856
19.3575
16.8567
15.7355
15.2753
15.2402
15.5678
16.2118
16.9977
51.8488
25.6593
19.1885
16.6554
15.4923
14.9833
14.8821
15.1088
15.605
16.222
50.2919
25.4779
19.0719
16.5024
15.2927
14.7315
14.5633
14.692
15.0502
15.5126
48.7173
25.3376
19.0098
16.4015
15.1409
14.5243
14.2885
14.3236
14.5552
14.8775
47.1165
25.2334
19.0034
16.3565
15.0413
14.3664
14.0628
14.0096
14.127
14.324
45.4799
25.1595
19.0535
16.3709
14.9982
14.2622
13.8909
13.755
13.7707
13.858
43.7968
25.1086
19.1596
16.4476
15.0158
14.2162
13.777
13.5634
13.4891
13.482
42.0546
25.0723
19.3198
16.5886
15.0978
14.2324
13.7249
13.4376
13.2833
13.1954
40.2375
25.0408
19.5306
16.7944
15.2464
14.3137
13.7372
13.3788
13.152
12.9945
38.3243
25.0015
19.7855
17.0629
15.462
14.4618
13.8153
13.3874
13.0931
12.8741
36.286
24.9376
20.0728
17.3873
15.7414
14.6749
13.9584
13.4617
13.1034
12.8283
34.0781
24.8222
20.3717
17.7525
16.0739
14.9458
14.1608
13.5971
13.1777
12.8509
31.6289
24.5859
20.6305
18.1226
16.4334
15.2547
14.4079
13.7827
13.3081
12.9385
28.7619
24.1219
20.7633
18.4261
16.7632
15.5589
14.6689
13.9987
13.4896
13.097
25.362
23.2575
20.6604
18.5699
16.9849
15.7968
14.9022
14.2316
13.7191
13.3148
21.2521
21.4825
20.0365
18.3998
17.008
15.9165
15.0994
14.4725
13.9779
13.5773
15.57
17.9592
18.3273
17.5996
16.6919
15.9101
15.2571
14.7158
14.2668
13.8912
13.3182
12.9094
15.155
15.8709
15.9049
15.6693
15.3403
14.9939
14.6649
14.3657
12.938
9.76646
11.9061
13.7867
14.9044
15.5037
15.7795
15.8444
15.8059
15.7279
13.7257
14.6628
18.2369
22.2849
26.1219
28.6897
30.6224
32.2153
33.519
34.5818
35.2843
20.7906
21.0923
21.7476
22.2769
22.6005
22.6997
22.558
22.1218
21.5943
20.9669
20.2379
19.415
18.5306
17.6035
16.6442
15.6407
14.7089
13.8093
12.9073
11.9731
10.9686
9.83149
8.43292
7.25825
44.0991
15.8871
9.29633
8.02163
7.66745
7.5097
7.39037
7.25689
7.08017
6.86566
6.63402
6.40593
6.19563
6.00703
5.84514
5.71697
5.64564
5.79111
6.08333
6.46409
6.86985
7.21595
7.40207
7.38922
11.2204
47.575
20.688
10.2039
7.42481
6.50464
6.07133
5.78971
5.55557
5.31986
5.05662
4.80231
4.56322
4.34271
4.14476
3.97733
3.85097
3.784
3.83485
4.02358
4.35697
4.82485
5.37891
5.92886
6.51617
12.281
47.464
24.6654
13.4907
8.81243
7.01758
6.19696
5.69435
5.31428
4.98172
4.65843
4.3527
4.07734
3.82279
3.58963
3.38751
3.22891
3.12959
3.12064
3.22439
3.46138
3.84822
4.37784
5.00437
5.8611
12.6678
45.6482
27.6582
16.1593
10.7962
8.11613
6.76194
5.98
5.42309
4.97704
4.59591
4.25105
3.94138
3.6553
3.38798
3.15018
2.95774
2.82733
2.78058
2.83438
3.00779
3.32307
3.79334
4.41401
5.40723
12.6893
43.1276
29.0684
18.3815
12.4888
9.40063
7.57471
6.44926
5.68381
5.10984
4.65524
4.27911
3.94485
3.63376
3.33441
3.05876
2.8288
2.66734
2.59323
2.61716
2.75225
3.01842
3.43639
4.03221
5.10361
12.5085
40.2658
29.6757
20.1735
14.0722
10.5443
8.44956
7.06069
6.0632
5.33629
4.79111
4.36855
4.02141
3.70325
3.37446
3.05826
2.78218
2.584
2.48591
2.49134
2.60413
2.83846
3.21684
3.7864
4.90287
12.209
37.4993
29.6641
21.3434
15.4516
11.6435
9.23904
7.63398
6.49112
5.64019
4.99499
4.51287
4.14344
3.82254
3.49319
3.14217
2.8101
2.56239
2.43666
2.42863
2.52779
2.74086
3.08968
3.63553
4.77492
11.8225
34.9459
29.215
22.0331
16.5324
12.6434
10.0096
8.18645
6.87825
5.91778
5.21429
4.69617
4.30718
3.98766
3.66274
3.29297
2.91114
2.61408
2.45531
2.42937
2.51441
2.70917
3.03382
3.56092
4.71896
11.3872
32.6237
28.413
22.4159
17.327
13.4919
10.7249
8.72937
7.26871
6.1953
5.425
4.88095
4.49108
4.18795
3.88225
3.51308
3.09445
2.73433
2.53215
2.48616
2.55824
2.73849
3.04666
3.56991
4.77656
10.987
30.5258
27.4194
22.5124
17.8636
14.1734
11.3565
9.2397
7.65712
6.48903
5.65339
5.07939
4.69063
4.4156
4.15393
3.81078
3.3802
2.9496
2.67702
2.59521
2.65257
2.82241
3.12263
3.65354
4.90278
10.5922
28.6429
26.3541
22.3568
18.1749
14.6967
11.89
9.69986
8.02885
6.78763
5.89917
5.3024
4.91051
4.66968
4.47552
4.19998
3.79083
3.30526
2.91806
2.76444
2.79832
2.95986
3.25894
3.80095
5.05723
10.1879
26.952
25.2731
21.9913
18.3287
15.0491
12.3072
10.0941
8.37076
7.08169
6.16183
5.54259
5.15449
4.94414
4.82438
4.66391
4.34233
3.86167
3.34834
3.03205
3.00838
3.15401
3.45153
3.99387
5.19088
9.77682
25.4254
24.2017
21.5029
18.327
15.2597
12.6197
10.4229
8.67804
7.36263
6.42625
5.80225
5.41822
5.22937
5.16924
5.13685
5.00145
4.64114
4.09966
3.56937
3.33786
3.4264
3.71236
4.24243
5.31833
9.40659
24.0372
23.1587
20.9425
18.1914
15.3642
12.8478
10.6936
8.95055
7.62611
6.68431
6.06222
5.68662
5.51402
5.48308
5.53898
5.60124
5.54406
5.22029
4.65795
4.06148
3.91342
4.12647
4.63186
5.55768
8.63575
22.7634
22.1513
20.3413
17.9493
15.3962
13.0007
10.9126
9.19174
7.87107
6.92884
6.30909
5.94025
5.77861
5.75522
5.8327
5.99048
6.17984
6.30905
6.23127
5.87418
5.32066
5.14865
5.45205
6.1919
8.26339
21.5834
21.1766
19.7073
17.6441
15.3726
13.1085
11.1033
9.41438
8.10409
7.159
6.53105
6.16504
6.00781
5.98414
6.04202
6.1824
6.40123
6.69993
7.04663
7.38887
7.69212
7.99401
8.51132
9.43152
10.5738
20.4808
20.2341
19.0549
17.2938
15.2789
13.2092
11.2794
9.63238
8.32636
7.3749
6.73227
6.3529
6.1902
6.16627
6.21662
6.31072
6.44418
6.63582
6.8907
7.21609
7.59524
8.00427
8.41258
8.83865
9.24401
19.4433
19.3212
18.3927
16.9127
15.1399
13.2852
11.46
9.85949
8.55751
7.58712
6.91649
6.50654
6.32106
6.28956
6.34507
6.44776
6.57557
6.71956
6.88648
7.0864
7.33024
7.61104
7.88776
8.12785
8.28051
18.4634
18.4352
17.7224
16.4968
14.9637
13.3118
11.6708
10.119
8.82986
7.83364
7.11406
6.6496
6.41226
6.34227
6.37758
6.47608
6.611
6.76508
6.92683
7.08854
7.24553
7.3937
7.51594
7.56752
7.49054
17.5384
17.5755
17.0456
16.0526
14.7561
13.3042
11.8308
10.4287
9.15537
8.14595
7.3817
6.84371
6.52804
6.38615
6.36028
6.40784
6.50004
6.61651
6.74012
6.8536
6.94076
6.98862
6.98439
6.89642
6.68781
16.6702
16.7452
16.3651
15.5809
14.507
13.2646
11.9614
10.6952
9.53575
8.5365
7.73624
7.14529
6.74579
6.51782
6.41338
6.39056
6.41756
6.47023
6.52849
6.57326
6.58777
6.56131
6.48856
6.3588
6.15188
15.8655
15.952
15.6872
15.0838
14.2163
13.1782
12.0596
10.9383
9.88658
8.95979
8.17864
7.5547
7.0983
6.79562
6.61097
6.51798
6.48532
6.48762
6.50218
6.50916
6.49235
6.44179
6.35313
6.22504
6.05421
15.1339
15.2082
15.0229
14.5677
13.8839
13.038
12.1011
11.1391
10.2107
9.36551
8.63401
8.02953
7.55899
7.21342
6.97109
6.81027
6.722
6.68297
6.66975
6.66099
6.63969
6.59556
6.52325
6.41986
6.28447
14.4864
14.5293
14.3893
14.0454
13.5157
12.8424
12.0777
11.2737
10.4785
9.7332
9.06894
8.50312
8.04314
7.68641
7.42077
7.2312
7.10451
7.02817
6.99113
6.97204
6.95414
6.92546
6.87872
6.80959
6.71493
13.9322
13.9315
13.8073
13.5375
13.1264
12.5979
11.987
11.3322
10.6714
10.0371
9.4547
8.94288
8.51183
8.16371
7.89449
7.69504
7.5569
7.46885
7.41532
7.38583
7.36994
7.35464
7.33105
7.29645
7.24483
13.4774
13.428
13.2982
13.0692
12.7397
12.3221
11.8385
11.3155
10.7799
10.2558
9.76418
9.32097
8.93649
8.61558
8.35898
8.16317
8.02229
7.92854
7.87205
7.84282
7.82908
7.82318
7.81893
7.80979
7.79097
13.1226
13.0259
12.8784
12.6657
12.3851
12.0439
11.6558
11.2376
10.8072
10.3823
9.97836
9.60799
9.28011
9.00046
8.77247
8.59487
8.46377
8.37462
8.32115
8.29606
8.29081
8.29707
8.30668
8.3154
8.32053
12.864
12.725
12.5559
12.3451
12.0907
11.797
11.4721
11.1275
10.7758
10.4292
10.0988
9.79365
9.5205
9.28387
9.08811
8.93502
8.82108
8.74319
8.6975
8.67909
8.68205
8.70004
8.72685
8.75702
8.78512
12.6944
12.5192
12.3298
12.1164
11.8759
11.6091
11.3222
11.0239
10.7235
10.4301
10.1517
9.89477
9.66409
9.46286
9.2934
9.15819
9.05702
8.98698
8.94502
8.92784
8.93177
8.95258
8.98573
9.02675
9.07123
12.6054
12.4001
12.1957
11.9804
11.7476
11.4973
11.2334
10.9626
10.6923
10.4297
10.1815
9.95256
9.74664
9.56597
9.41187
9.2849
9.18533
9.11228
9.06371
9.03695
9.02927
9.03785
9.05974
9.09194
9.13127
12.5907
12.3642
12.1491
11.932
11.7056
11.4676
11.2199
10.967
10.7146
10.4688
10.235
10.0179
9.82049
9.64496
9.49223
9.36257
9.25557
9.17022
9.10474
9.05748
9.02674
9.01035
9.00611
9.01204
9.02604
12.654
12.4096
12.1848
11.966
11.7448
11.5172
11.283
11.0444
10.8053
10.5704
10.3441
10.1305
9.9325
9.75233
9.59111
9.44924
9.32653
9.22221
9.13505
9.0635
9.00571
8.95977
8.92407
8.89737
8.87825
12.7921
12.5321
12.2976
12.0755
11.8571
11.6373
11.414
11.1877
10.9606
10.7355
10.5158
10.3047
10.1048
9.91823
9.74626
9.58965
9.44862
9.32291
9.21188
9.11454
9.02969
8.95598
8.89195
8.83621
8.7876
12.9967
12.7242
12.4803
12.2532
12.0344
11.8186
11.6028
11.3862
11.1692
10.9536
10.7413
10.5346
10.3355
10.1457
9.96653
9.79892
9.64332
9.49986
9.36837
9.24845
9.13947
9.04062
8.95097
8.86958
8.79574
13.2563
12.9784
12.7289
12.498
12.2782
12.0641
11.8526
11.6423
11.4328
11.2248
11.0195
10.8181
10.6221
10.4328
10.2512
10.0783
9.91453
9.76018
9.61536
9.47995
9.35368
9.23614
9.12685
9.02526
8.93111
13.5835
13.3122
13.066
12.8367
12.618
12.4058
12.1974
11.9916
11.7878
11.5863
11.3876
11.1925
11.002
10.8171
10.6384
10.4668
10.3025
10.146
9.99739
9.85662
9.72358
9.59802
9.47963
9.36807
9.26326
14.107
13.8695
13.6469
13.4342
13.2286
13.0283
12.8321
12.6394
12.4497
12.2633
12.0804
11.9016
11.7276
11.5589
11.3959
11.2393
11.0891
10.9456
10.8088
10.6787
10.5551
10.4377
10.3262
10.2202
10.1198
15.6412
15.5511
15.458
15.3576
15.2535
15.1474
15.0397
14.9307
14.821
14.7108
14.6007
14.4912
14.3827
14.2757
14.1707
14.0677
13.9671
13.869
13.7732
13.6797
13.5885
13.4992
13.4116
13.3256
13.241
35.4311
36.1627
36.7847
37.2948
37.7055
38.0254
38.2621
38.4223
38.5127
38.5398
38.5097
38.4286
38.3023
38.1365
37.9365
37.7074
37.4536
37.1796
36.889
36.5855
36.2722
35.9519
35.6268
35.2992
34.9711
7.79933
8.05344
15.2385
12.7126
13.8595
12.315
11.2302
10.8126
9.86025
9.34476
9.02302
8.23392
8.19733
7.76938
6.92416
7.19128
6.67205
5.93273
6.32885
5.88119
5.35687
5.86788
5.55313
5.20952
5.84691
5.62806
5.39631
6.13003
5.96932
5.80116
6.60208
6.482
6.35095
7.17844
7.09849
7.00414
7.76171
7.722
7.66904
8.31899
8.30844
8.28822
8.80666
8.823
8.83454
9.11181
9.14956
9.18369
9.17084
9.21202
9.25377
9.04424
9.06635
9.0916
8.8665
8.85897
8.85485
8.74923
8.71511
8.68421
8.73538
8.67981
8.62782
8.85283
8.77962
8.71023
9.17521
9.09193
9.01229
10.0348
9.95366
9.87534
13.1674
13.0946
13.0219
34.6831
34.3976
34.1144
4.3629
5.52408
6.99232
8.0465
8.88927
9.58285
10.1822
10.7129
11.1912
11.6274
12.029
12.4013
12.7484
13.0738
13.38
13.6696
13.9445
14.2064
14.457
14.6977
14.9298
15.1545
15.3731
15.5866
15.796
16.0024
16.2067
16.41
16.6131
16.8171
17.0229
17.2316
17.4442
17.6619
17.886
18.118
18.3593
18.612
18.8782
19.1608
19.4613
19.7713
20.0906
20.4193
20.7573
21.1051
21.4629
21.8311
22.2094
22.5979
22.9962
23.4038
23.8198
24.243
24.6716
25.1032
25.5345
25.9609
26.3762
26.7721
27.137
27.456
27.7086
27.8694
27.914
27.8257
27.6015
27.2348
26.7121
26.0062
25.0973
23.9405
22.5463
20.9611
19.2424
17.6242
16.0067
14.3025
12.3485
10.9425
9.09974
6.0366
6.72458
7.12719
7.32916
7.40563
7.40359
7.36327
7.30529
7.24124
7.17736
7.11691
7.0615
7.01175
6.96776
6.92935
6.89617
6.8678
6.84381
6.8238
6.80737
6.79419
6.78396
6.77642
6.77135
6.76861
6.76806
6.76964
6.77335
6.77921
6.78734
6.79787
6.81105
6.82719
6.84672
6.87015
6.89816
6.93152
6.97171
7.02003
7.07634
7.13165
7.18842
7.24701
7.30764
7.37048
7.43574
7.50363
7.57434
7.64813
7.7252
7.80581
7.89016
7.97845
8.07081
8.16732
8.2679
8.37232
8.48008
8.59037
8.70186
8.8127
8.92095
9.02589
9.12491
9.20145
9.23336
9.20722
9.11305
8.92203
8.67211
8.37998
8.06092
7.76809
7.71384
8.13587
8.74669
9.29302
9.63577
14.8599
11.1194
6.14445
6.24735
6.30565
6.26119
6.1426
5.98706
5.82424
5.6679
5.52442
5.39602
5.28285
5.184
5.09814
5.02378
4.95948
4.90391
4.85587
4.8143
4.77831
4.74712
4.72009
4.69668
4.67643
4.65898
4.64404
4.63139
4.62087
4.61236
4.60581
4.60119
4.59855
4.59795
4.59951
4.60338
4.60976
4.61886
4.63095
4.64635
4.66536
4.68827
4.7146
4.74204
4.77177
4.80426
4.83989
4.87903
4.92211
4.96959
5.02195
5.07974
5.14351
5.21384
5.29135
5.37663
5.47026
5.57276
5.68451
5.80577
5.93648
6.07622
6.22395
6.37788
6.53543
6.69289
6.84343
6.96905
7.05126
7.06999
7.00638
6.85306
6.59363
6.26301
5.89954
5.64009
5.75012
6.24309
7.0194
8.03466
15.4431
12.3075
6.05881
5.79396
5.67031
5.50504
5.3144
5.11432
4.9244
4.75245
4.60086
4.46932
4.35629
4.25974
4.17755
4.10769
4.04832
3.99784
3.95484
3.91816
3.88679
3.85992
3.83685
3.81703
3.79999
3.78537
3.77287
3.76227
3.7534
3.74613
3.7404
3.73617
3.73343
3.73224
3.73266
3.73478
3.73873
3.74468
3.75281
3.76334
3.77651
3.79262
3.81199
3.834
3.85845
3.88604
3.91722
3.95247
3.99229
4.03721
4.08783
4.14477
4.20874
4.28047
4.36074
4.45035
4.55016
4.66099
4.78364
4.9188
5.06702
5.22858
5.40331
5.59027
5.7873
5.99143
6.19922
6.39878
6.57251
6.69816
6.74871
6.69915
6.52438
6.20024
5.72222
5.26837
5.0679
5.29156
5.93887
7.13814
15.3014
13.1102
5.89811
5.40296
5.17993
4.96042
4.73891
4.52777
4.33635
4.16824
4.02347
3.90034
3.79648
3.70935
3.6365
3.57572
3.52505
3.4828
3.44755
3.41811
3.3935
3.37289
3.35562
3.34113
3.32901
3.31888
3.31048
3.30359
3.29805
3.29375
3.29062
3.28862
3.28774
3.28803
3.28955
3.29237
3.29663
3.30246
3.31006
3.31962
3.33138
3.34562
3.36265
3.38284
3.40556
3.4314
3.46087
3.49445
3.53266
3.57606
3.62527
3.68097
3.74389
3.81485
3.89472
3.98446
4.08509
4.1977
4.32343
4.46345
4.61892
4.79088
4.98016
5.18714
5.41134
5.65113
5.90415
6.16485
6.42234
6.65896
6.8469
6.94725
6.91074
6.68321
6.23339
5.62934
5.09416
5.02969
5.48161
6.69161
14.8423
13.6718
5.74109
5.081
4.798
4.55102
4.31882
4.10712
3.92072
3.76049
3.62497
3.51165
3.41768
3.34024
3.27673
3.22484
3.18257
3.14821
3.12036
3.09783
3.07965
3.06503
3.05332
3.044
3.03665
3.03093
3.0266
3.02344
3.0213
3.02009
3.01973
3.02019
3.02147
3.0236
3.02664
3.03067
3.0358
3.04218
3.04998
3.05938
3.07064
3.08399
3.09974
3.11821
3.13964
3.16385
3.19144
3.2229
3.25876
3.29957
3.34595
3.39857
3.45819
3.52566
3.60189
3.68793
3.78492
3.89413
4.01698
4.15502
4.30992
4.48349
4.67756
4.89388
5.13388
5.3985
5.68781
6.0001
6.33014
6.66676
6.98912
7.26096
7.42448
7.39819
7.08921
6.46791
5.71527
5.26229
5.42911
6.53034
14.2459
14.1074
5.61189
4.81905
4.49469
4.2326
3.99683
3.78806
3.608
3.45584
3.32917
3.22495
3.14
3.07131
3.01617
2.97223
2.93746
2.91016
2.88893
2.8726
2.86021
2.85099
2.84432
2.83969
2.83671
2.83504
2.83446
2.83475
2.83579
2.83747
2.83973
2.84254
2.84589
2.84981
2.85435
2.85959
2.86563
2.87261
2.88068
2.89003
2.90088
2.91347
2.9281
2.94506
2.96472
2.98699
3.01233
3.04121
3.07411
3.1116
3.15425
3.20275
3.25783
3.32034
3.39122
3.47152
3.56245
3.66539
3.7819
3.91376
4.06303
4.23203
4.42338
4.63998
4.88492
5.16134
5.47211
5.81929
6.20296
6.61904
7.05592
7.48918
7.87291
8.13064
8.11493
7.66428
6.80036
5.92742
5.76963
6.75016
13.8896
14.4902
5.51313
4.60505
4.2482
3.97636
3.7397
3.53466
3.36075
3.21597
3.09723
3.00107
2.92406
2.86307
2.81531
2.77838
2.75024
2.72919
2.71383
2.70301
2.69579
2.69141
2.68927
2.68887
2.68982
2.69183
2.69465
2.6981
2.70204
2.70638
2.71105
2.71603
2.72131
2.7269
2.73284
2.73922
2.74611
2.75364
2.76196
2.77123
2.78168
2.79352
2.80704
2.82251
2.84027
2.86063
2.88365
2.90984
2.93966
2.97365
3.01238
3.0565
3.10671
3.16384
3.22881
3.30265
3.38658
3.48196
3.5904
3.71378
3.8543
4.01456
4.19767
4.40725
4.64758
4.9235
5.24038
5.60378
6.01822
6.48658
7.00665
7.57041
8.16087
8.7152
9.09091
9.04891
8.35654
7.1507
6.47868
7.2044
13.7647
14.8678
5.44268
4.42938
4.04378
3.7641
3.52731
3.32589
3.15755
3.01934
2.90761
2.81856
2.74857
2.69438
2.65314
2.6224
2.60013
2.58463
2.57449
2.56859
2.56599
2.56595
2.56788
2.5713
2.57582
2.58117
2.58709
2.59343
2.60004
2.60684
2.61376
2.62077
2.62786
2.63503
2.64233
2.64981
2.65755
2.66565
2.67426
2.68353
2.69367
2.70489
2.71746
2.73167
2.74783
2.76629
2.78717
2.81088
2.83787
2.86864
2.90371
2.94371
2.98932
3.0413
3.10052
3.16799
3.24482
3.33235
3.4321
3.54591
3.67595
3.82484
3.99581
4.19281
4.42071
4.68546
4.99425
5.35562
5.77721
6.26902
6.83863
7.49535
8.23692
9.03498
9.8015
10.3258
10.223
9.15102
7.66048
7.85245
13.9694
15.28
5.39919
4.28559
3.87192
3.5843
3.34716
3.14892
2.98555
2.8532
2.74774
2.66505
2.60132
2.55319
2.51775
2.49254
2.4755
2.46494
2.45947
2.45797
2.45952
2.46339
2.469
2.47588
2.48366
2.49205
2.50084
2.50985
2.51896
2.52807
2.53712
2.54607
2.55492
2.56366
2.57232
2.58096
2.58963
2.59842
2.60747
2.61692
2.62695
2.6378
2.64971
2.66297
2.67787
2.69477
2.71393
2.73562
2.76026
2.78831
2.82028
2.85673
2.89831
2.94573
2.99979
3.0614
3.13161
3.21162
3.30284
3.40692
3.52588
3.66216
3.8188
3.99962
4.20951
4.45469
4.74314
5.08486
5.49185
5.97913
6.56278
7.26126
8.08879
9.04978
10.118
11.1767
11.8966
11.6057
9.72574
8.87487
14.7342
15.7889
5.3841
4.17003
3.72658
3.42974
3.19152
2.9959
2.83697
2.70996
2.61019
2.53326
2.4752
2.43252
2.40229
2.38201
2.36964
2.3635
2.36221
2.36465
2.36993
2.37734
2.38629
2.39633
2.40711
2.41833
2.42979
2.44132
2.45279
2.46411
2.47523
2.4861
2.4967
2.50705
2.51715
2.52705
2.5368
2.54648
2.55619
2.56608
2.57631
2.58712
2.59874
2.61146
2.62558
2.64142
2.65933
2.67954
2.70242
2.72839
2.75792
2.79154
2.82983
2.87344
2.92311
2.97966
3.04401
3.11724
3.20059
3.2955
3.40373
3.52741
3.6692
3.8325
4.02171
4.24265
4.50302
4.81299
5.18629
5.6407
6.19886
6.88869
7.73924
8.78216
10.038
11.4866
12.9852
14.0257
13.436
10.819
16.26
16.4544
5.40986
4.08261
3.60435
3.29611
3.05592
2.86237
2.70746
2.58536
2.49085
2.4192
2.36627
2.32851
2.30293
2.28706
2.27885
2.27664
2.27907
2.28506
2.29371
2.30433
2.31634
2.3293
2.34286
2.35674
2.37072
2.38465
2.3984
2.41188
2.42504
2.43783
2.45024
2.46226
2.47391
2.48521
2.49622
2.50701
2.51765
2.52828
2.53905
2.5502
2.56196
2.57461
2.58845
2.60378
2.62096
2.64026
2.662
2.68655
2.71435
2.74587
2.78164
2.82226
2.86838
2.92073
2.98013
3.04753
3.12396
3.21069
3.30917
3.42118
3.54891
3.6952
3.86369
4.05928
4.28865
4.56097
4.88902
5.29065
5.79057
6.42237
7.23033
8.2693
9.59732
11.2683
13.3012
15.5204
17.1023
15.5139
18.4919
17.4276
5.45323
4.01758
3.50125
3.17962
2.93745
2.74627
2.59516
2.47765
2.38799
2.32115
2.27284
2.23945
2.21799
2.206
2.20146
2.20273
2.20848
2.21764
2.22935
2.2429
2.25774
2.27343
2.28961
2.30601
2.32241
2.33866
2.35463
2.37025
2.38544
2.40017
2.41442
2.42819
2.44148
2.45434
2.46679
2.47889
2.49073
2.5024
2.51407
2.52594
2.53827
2.55131
2.56535
2.5807
2.59768
2.61663
2.63783
2.66161
2.68834
2.71847
2.75247
2.79087
2.83426
2.88328
2.93865
3.00118
3.07178
3.15147
3.24147
3.34322
3.45846
3.58941
3.7389
3.91078
4.11025
4.34466
4.62445
4.96475
5.38768
5.92585
6.62727
7.56139
8.82567
10.546
12.8615
15.9069
19.6656
23.3131
22.2764
18.7303
5.6557
3.99233
3.42447
3.0813
2.83532
2.64731
2.50024
2.38709
2.30185
2.23929
2.19503
2.16543
2.14753
2.13888
2.13753
2.14185
2.15055
2.16257
2.17706
2.19333
2.21082
2.22908
2.24777
2.26658
2.28533
2.30383
2.32198
2.33969
2.3569
2.37357
2.38968
2.40524
2.42024
2.43473
2.44874
2.46234
2.47558
2.48857
2.50144
2.51439
2.52766
2.54151
2.55621
2.57205
2.58935
2.60847
2.62967
2.65324
2.67953
2.70891
2.7418
2.7787
2.8201
2.86658
2.91876
2.97735
3.04309
3.11688
3.1997
3.2927
3.39724
3.51501
3.64811
3.79933
3.97245
4.17276
4.40782
4.68863
5.03163
5.46179
6.01808
6.76243
7.795
9.27695
11.4649
14.7537
19.7818
27.8943
44.5481
14.3495
5.60802
3.98849
3.37222
3.00444
2.75068
2.5652
2.42389
2.31542
2.23432
2.17551
2.13468
2.10826
2.09333
2.08752
2.0889
2.09589
2.10723
2.12186
2.13894
2.15776
2.17777
2.1985
2.21959
2.24074
2.26173
2.2824
2.30263
2.32234
2.34148
2.36001
2.37792
2.39521
2.41189
2.428
2.4436
2.45875
2.47353
2.48802
2.50233
2.51662
2.53116
2.54617
2.5619
2.57865
2.59671
2.61642
2.63809
2.66196
2.68833
2.71751
2.74989
2.78588
2.82593
2.87056
2.92028
2.97569
3.03745
3.1063
3.18306
3.26867
3.3642
3.4709
3.59029
3.7243
3.8755
4.0474
4.24493
4.47511
4.7482
5.07942
5.49211
6.023
6.73207
7.72084
9.16644
11.378
14.8628
20.4345
29.2565
10.6597
5.35572
3.95535
3.32506
2.94578
2.68663
2.50307
2.36779
2.26537
2.18872
2.13345
2.09562
2.07188
2.05946
2.05608
2.05987
2.06927
2.08303
2.1001
2.11962
2.14088
2.16329
2.18638
2.20973
2.23304
2.25609
2.2787
2.30078
2.32225
2.34307
2.36322
2.38268
2.40146
2.4196
2.43716
2.45421
2.47087
2.48718
2.50319
2.51902
2.53482
2.5508
2.5672
2.58426
2.60222
2.62138
2.64206
2.66459
2.68917
2.71603
2.74547
2.7778
2.81338
2.85261
2.89592
2.94377
2.99663
3.05506
3.11971
3.19129
3.27058
3.35844
3.45581
3.56379
3.68368
3.8171
3.9663
4.13427
4.32508
4.54432
4.79971
5.10206
5.46637
5.91325
6.47021
7.17138
8.052
9.13501
10.3962
11.6942
8.366
5.02705
3.87536
3.27775
2.90577
2.64854
2.46688
2.33681
2.24142
2.17058
2.11948
2.08481
2.06369
2.05366
2.05258
2.05866
2.07037
2.08644
2.10582
2.12764
2.15117
2.1758
2.20098
2.22628
2.25136
2.27599
2.30001
2.32338
2.34601
2.36791
2.38907
2.4095
2.42923
2.44832
2.46691
2.48513
2.50303
2.52064
2.53802
2.55525
2.57248
2.5899
2.60774
2.62623
2.64561
2.6661
2.68801
2.71168
2.73725
2.76492
2.79493
2.82754
2.86306
2.90183
2.94424
2.99067
3.0414
3.09695
3.15789
3.22487
3.29858
3.37971
3.469
3.5673
3.67541
3.79429
3.92536
4.07043
4.23179
4.41222
4.61523
4.84518
5.10698
5.40563
5.74521
6.1277
6.54787
6.98719
7.40691
7.73156
6.80197
4.70712
3.77913
3.2452
2.89402
2.64635
2.46946
2.34318
2.25426
2.19119
2.14608
2.11562
2.09777
2.09054
2.09203
2.10054
2.11461
2.13286
2.15428
2.17802
2.20333
2.22957
2.25616
2.28256
2.30841
2.33347
2.35763
2.38093
2.40341
2.42513
2.4461
2.46633
2.48596
2.50518
2.52412
2.54286
2.56142
2.57982
2.59812
2.61637
2.63471
2.6533
2.67235
2.69212
2.71282
2.73472
2.75803
2.78299
2.80972
2.83838
2.86916
2.90228
2.93798
2.97655
3.01824
3.06334
3.11213
3.16495
3.2224
3.28513
3.35369
3.42861
3.51055
3.60037
3.69831
3.80477
3.92078
4.04755
4.18646
4.33873
4.50578
4.68923
4.8903
5.10896
5.34218
5.58482
5.82819
6.05449
6.23713
6.35127
5.74618
4.43485
3.70923
3.24968
2.93022
2.70005
2.53361
2.41465
2.33244
2.27783
2.24056
2.21574
2.20225
2.1987
2.20325
2.21418
2.23004
2.24963
2.27201
2.29634
2.32188
2.34796
2.37393
2.39923
2.42361
2.44654
2.46815
2.48867
2.5084
2.52754
2.54611
2.56428
2.58227
2.60024
2.61824
2.6363
2.65444
2.67268
2.69103
2.70955
2.72832
2.74748
2.76723
2.78776
2.80935
2.83226
2.85676
2.88294
2.91077
2.94035
2.97185
3.00543
3.04129
3.07964
3.12067
3.16457
3.21144
3.26166
3.31595
3.37485
3.43873
3.50801
3.58312
3.66452
3.75255
3.84761
3.95027
4.06137
4.18224
4.3128
4.45342
4.60497
4.76742
4.9398
5.11795
5.29543
5.46378
5.61144
5.72293
5.78259
5.10172
4.26919
3.71645
3.33392
3.05714
2.85668
2.7135
2.61206
2.54189
2.49513
2.4637
2.44353
2.43318
2.43111
2.43584
2.44587
2.45996
2.47706
2.4966
2.51777
2.53986
2.56215
2.58393
2.60451
2.62254
2.6382
2.65201
2.66462
2.67699
2.69007
2.70335
2.71688
2.73077
2.74518
2.76016
2.77568
2.79173
2.80829
2.82537
2.84296
2.86111
2.87991
2.89949
2.92002
2.94174
2.9649
2.98987
3.01652
3.04486
3.07496
3.10681
3.14045
3.17607
3.21383
3.25389
3.29635
3.34137
3.38921
3.44059
3.49577
3.55509
3.61891
3.68753
3.76127
3.8404
3.92519
4.01593
4.11302
4.21696
4.3281
4.4472
4.57501
4.71123
4.85436
4.99857
5.13988
5.27213
5.38682
5.47327
5.52099
4.81519
4.27753
3.87327
3.5793
3.36112
3.20297
3.09006
3.00569
2.94054
2.89092
2.85328
2.82682
2.80909
2.79866
2.79421
2.79476
2.7994
2.80731
2.81791
2.83048
2.84429
2.85859
2.87247
2.88528
2.89597
2.90503
2.91236
2.9181
2.92283
2.92749
2.93222
2.93733
2.94338
2.95122
2.96051
2.97102
2.98273
2.99565
3.00971
3.02486
3.04105
3.05829
3.07663
3.09619
3.11715
3.13972
3.16418
3.19017
3.21785
3.24725
3.27834
3.31122
3.34594
3.38245
3.42089
3.46148
3.50443
3.55015
3.59884
3.6503
3.70501
3.76326
3.82536
3.89156
3.96203
4.03692
4.11639
4.2006
4.29005
4.38559
4.48777
4.59638
4.71057
4.82871
4.94796
5.06484
5.17455
5.27066
5.34541
5.39123
4.85693
4.50936
4.23655
4.03832
3.88252
3.75121
3.63753
3.54263
3.46275
3.39563
3.34256
3.30147
3.26991
3.24616
3.22881
3.21677
3.20915
3.20521
3.2041
3.20517
3.20773
3.21122
3.21501
3.21897
3.22356
3.22797
3.23157
3.23408
3.23522
3.23458
3.23306
3.23126
3.22974
3.22926
3.23011
3.23263
3.23731
3.24441
3.25357
3.26464
3.27746
3.29189
3.30789
3.32549
3.34482
3.36617
3.38901
3.41329
3.43901
3.46624
3.4951
3.52573
3.55802
3.59204
3.62791
3.66573
3.70569
3.74818
3.79301
3.84035
3.89042
3.94299
3.99839
4.05688
4.11855
4.18355
4.25204
4.32447
4.40141
4.48328
4.57007
4.66149
4.75682
4.85474
4.95327
5.0497
5.14045
5.22084
5.28542
5.32888
5.15876
4.93689
4.75682
4.60275
4.46595
4.34587
4.23846
4.14238
4.05674
3.98197
3.91926
3.86662
3.8225
3.78556
3.75466
3.72883
3.70728
3.68928
3.67417
3.66138
3.65039
3.64086
3.63269
3.62549
3.61908
3.61311
3.60748
3.60237
3.59766
3.59297
3.58819
3.58324
3.57807
3.57237
3.56703
3.56286
3.56056
3.56064
3.56344
3.56932
3.57778
3.5885
3.60129
3.61612
3.63313
3.6521
3.67233
3.6938
3.71654
3.74055
3.7659
3.79264
3.82085
3.85073
3.88234
3.91565
3.95072
3.98775
4.02693
4.06867
4.11264
4.15887
4.20746
4.25814
4.31098
4.36639
4.42456
4.48592
4.55073
4.61914
4.69118
4.76653
4.84456
4.92422
5.00401
5.08192
5.15534
5.22093
5.27491
5.3135
5.63072
5.46628
5.32231
5.1955
5.08055
4.97458
4.87575
4.78389
4.69974
4.62399
4.55616
4.49553
4.44139
4.39306
4.34981
4.31089
4.27579
4.24394
4.21483
4.18809
4.16341
4.14043
4.11887
4.09856
4.07931
4.06122
4.04469
4.02972
4.01608
4.00357
3.99205
3.98143
3.97165
3.9627
3.95476
3.94799
3.94241
3.93831
3.9366
3.93816
3.94266
3.94971
3.95914
3.97097
3.98501
4.00022
4.01654
4.03395
4.05244
4.07201
4.09271
4.11456
4.13761
4.16196
4.18766
4.21476
4.24336
4.27366
4.30572
4.3396
4.37541
4.4135
4.45358
4.49554
4.53958
4.58561
4.63338
4.68324
4.73554
4.7904
4.8478
4.90748
4.96891
5.03128
5.09346
5.15395
5.21086
5.26185
5.30426
5.33544
6.20848
6.06958
5.94595
5.83325
5.72932
5.63233
5.54022
5.45218
5.36953
5.29294
5.22179
5.15519
5.09294
5.03514
4.98149
4.93149
4.88479
4.84103
4.79984
4.76088
4.72385
4.68848
4.65438
4.62175
4.59082
4.56195
4.53532
4.51078
4.48826
4.46767
4.44894
4.432
4.41681
4.40339
4.39191
4.38247
4.37515
4.37024
4.36801
4.36789
4.36993
4.3741
4.38068
4.38902
4.39829
4.40845
4.41949
4.4314
4.4442
4.4579
4.47253
4.48813
4.50474
4.52241
4.54119
4.5611
4.58219
4.60454
4.62821
4.65327
4.67974
4.70771
4.73721
4.76849
4.80155
4.83607
4.87227
4.91023
4.94989
4.99112
5.03388
5.0781
5.12342
5.1692
5.21458
5.25847
5.2995
5.33602
5.36619
5.38812
6.88776
6.76043
6.63927
6.52658
6.42408
6.32912
6.23777
6.1483
6.06146
5.97884
5.90056
5.82657
5.75675
5.69098