/*--------------------------------*- C++ -*----------------------------------*\
| =========                 |                                                 |
| \\      /  F ield         | OpenFOAM: The Open Source CFD Toolbox           |
|  \\    /   O peration     | Version:  v2012                                 |
|   \\  /    A nd           | Website:  www.openfoam.com                      |
|    \\/     M anipulation  |                                                 |
\*---------------------------------------------------------------------------*/
FoamFile
{
    version     2.0;
    format      ascii;
    class       volScalarField;
    location    "504";
    object      p;
}
// * * * * * * * * * * * * * * * * * * * * * * * * * * * * * * * * * * * * * //

dimensions      [0 2 -2 0 0 0 0];


internalField   nonuniform List<scalar> 
6556
(
0.39281
0.3922
0.391869
0.39173
0.391671
0.39167
0.39173
0.391869
0.3922
0.392809
0.392131
0.391958
0.391788
0.391682
0.391633
0.391633
0.391682
0.391787
0.391958
0.39213
0.391662
0.391677
0.39161
0.391535
0.3915
0.3915
0.391535
0.391609
0.391676
0.391661
0.391377
0.391432
0.391397
0.391343
0.391318
0.391318
0.391342
0.391396
0.391431
0.391375
0.391147
0.391207
0.391184
0.39114
0.39112
0.391119
0.391139
0.391182
0.391206
0.391145
0.390928
0.390984
0.390965
0.39093
0.390912
0.390911
0.390928
0.390963
0.390981
0.390926
0.390714
0.390762
0.390743
0.390712
0.390697
0.390696
0.390709
0.390739
0.390758
0.39071
0.390503
0.390544
0.390523
0.390494
0.390479
0.390478
0.39049
0.390518
0.390537
0.390496
0.390294
0.390328
0.390306
0.390277
0.390262
0.39026
0.390271
0.390297
0.390318
0.390284
0.390085
0.390113
0.39009
0.390061
0.390046
0.390043
0.390053
0.390077
0.390098
0.39007
0.389878
0.389901
0.389876
0.389847
0.389831
0.389826
0.389834
0.389856
0.389878
0.389855
0.389672
0.389691
0.389664
0.389634
0.389616
0.389609
0.389614
0.389634
0.389656
0.389637
0.389469
0.389484
0.389456
0.389424
0.389402
0.389391
0.389393
0.38941
0.389432
0.389416
0.389271
0.389284
0.389252
0.389216
0.389189
0.389173
0.38917
0.389183
0.389204
0.389191
0.389081
0.389091
0.389055
0.389012
0.388976
0.388951
0.388941
0.38895
0.388971
0.388961
0.388904
0.38891
0.388868
0.388814
0.388764
0.388724
0.388703
0.388707
0.38873
0.388726
0.388747
0.388749
0.388696
0.388624
0.388551
0.388488
0.388448
0.388446
0.388479
0.388488
0.38862
0.388616
0.388547
0.388448
0.38834
0.388237
0.388163
0.388151
0.388211
0.388259
0.38854
0.388528
0.388437
0.388296
0.38813
0.387958
0.387813
0.38776
0.387874
0.388111
0.38853
0.388509
0.388387
0.388187
0.387935
0.387653
0.387376
0.387253
0.387481
0.388195
0.388622
0.388592
0.388432
0.388154
0.387778
0.387318
0.386764
0.3862
0.385579
0.381627
0.388858
0.388824
0.388624
0.388262
0.38776
0.387123
0.386284
0.385104
0.384501
0.386725
0.389289
0.389257
0.389021
0.38858
0.387955
0.387172
0.386198
0.384713
0.382811
0.384602
0.389965
0.389942
0.389674
0.389155
0.388407
0.38746
0.386321
0.384649
0.381702
0.382091
0.39094
0.39093
0.39063
0.390031
0.389155
0.38803
0.386687
0.384936
0.381713
0.381233
0.392268
0.392274
0.39194
0.391254
0.390244
0.388937
0.387369
0.385478
0.382063
0.380515
0.394008
0.394032
0.39366
0.392875
0.39171
0.390195
0.388357
0.386234
0.382672
0.379799
0.396226
0.396267
0.395851
0.39495
0.393601
0.391837
0.389666
0.387169
0.38341
0.379405
0.399
0.399061
0.39859
0.397552
0.39599
0.393936
0.391384
0.388379
0.384279
0.379782
0.402416
0.402502
0.401961
0.400768
0.398969
0.396599
0.393662
0.390171
0.385662
0.380872
0.406561
0.406671
0.406052
0.40469
0.402629
0.399913
0.39657
0.392617
0.387788
0.382624
0.411533
0.411664
0.410959
0.409407
0.407052
0.403946
0.400138
0.395681
0.390523
0.384922
0.417445
0.417596
0.41679
0.415021
0.412329
0.408777
0.404429
0.399388
0.393747
0.387679
0.424421
0.424588
0.423665
0.421644
0.418567
0.414504
0.409534
0.403796
0.397504
0.39086
0.43259
0.432773
0.431712
0.429404
0.42589
0.421244
0.415561
0.409008
0.401887
0.394486
0.442093
0.442288
0.441071
0.438444
0.43444
0.429138
0.422644
0.415152
0.407023
0.39867
0.453073
0.45328
0.45189
0.448914
0.444375
0.438351
0.430957
0.422407
0.413107
0.403596
0.465676
0.465893
0.464318
0.460972
0.455865
0.44907
0.440706
0.431
0.420392
0.409527
0.480033
0.480262
0.478494
0.474766
0.469075
0.461485
0.452114
0.441195
0.429187
0.416817
0.49626
0.496499
0.494532
0.490424
0.484154
0.475773
0.465397
0.453257
0.439818
0.425856
0.514433
0.514676
0.51251
0.508033
0.501209
0.492074
0.480737
0.467422
0.452587
0.437019
0.534575
0.534815
0.532449
0.527623
0.520288
0.510463
0.498251
0.483863
0.467734
0.450629
0.556646
0.556871
0.554305
0.549151
0.541359
0.530931
0.517964
0.502654
0.4854
0.466917
0.580536
0.580725
0.577951
0.572489
0.564298
0.553367
0.539788
0.523743
0.505588
0.485963
0.606052
0.606179
0.603176
0.597415
0.588878
0.577546
0.56351
0.546936
0.528138
0.50767
0.632919
0.632944
0.629678
0.623611
0.614772
0.603133
0.588788
0.571896
0.552725
0.531743
0.660776
0.66065
0.65707
0.650672
0.641556
0.629689
0.615172
0.598155
0.578871
0.557702
0.689178
0.688843
0.684882
0.678109
0.668724
0.656694
0.642122
0.625154
0.605987
0.584929
0.717593
0.716981
0.712558
0.705359
0.69571
0.683577
0.669054
0.652282
0.633425
0.612727
0.74539
0.744429
0.739465
0.731796
0.721904
0.709738
0.695373
0.678933
0.660549
0.640405
0.771815
0.77043
0.764871
0.756742
0.746677
0.734591
0.720515
0.704548
0.68678
0.667342
0.795925
0.79406
0.787963
0.779493
0.769412
0.757587
0.743983
0.728654
0.711645
0.693034
0.816522
0.814178
0.80781
0.799321
0.789532
0.778258
0.76538
0.750893
0.734797
0.717121
0.831708
0.829872
0.82381
0.815676
0.806589
0.796265
0.784436
0.771032
0.756015
0.739373
0.839614
0.839381
0.834989
0.828096
0.820336
0.811452
0.801038
0.788972
0.775194
0.75967
0.841946
0.842607
0.840734
0.836309
0.830714
0.823819
0.815191
0.804692
0.792271
0.777899
0.842246
0.842607
0.84238
0.840782
0.837954
0.833515
0.827019
0.818297
0.807317
0.79409
0.842229
0.841857
0.842062
0.842639
0.842528
0.840703
0.836539
0.829738
0.820254
0.808139
0.842846
0.842004
0.842096
0.843674
0.845643
0.846153
0.844018
0.838837
0.830668
0.819489
0.843953
0.843483
0.843898
0.845935
0.848878
0.851094
0.850811
0.847235
0.840744
0.831068
0.36016
0.363139
0.365019
0.366847
0.36844
0.369686
0.37046
0.37063
0.370289
0.369479
0.368237
0.366757
0.365153
0.363512
0.36202
0.360856
0.360113
0.35985
0.360108
0.360868
0.362003
0.363279
0.364356
0.364945
0.365139
0.368397
0.364678
0.364171
0.36511
0.366291
0.367366
0.368144
0.368421
0.36808
0.36721
0.365988
0.364571
0.363098
0.361693
0.360484
0.359565
0.359015
0.358885
0.35921
0.359976
0.361107
0.362453
0.363782
0.364726
0.365156
0.36871
0.365142
0.36395
0.364174
0.364883
0.365612
0.366143
0.366271
0.365905
0.365134
0.364089
0.362851
0.361545
0.360325
0.35931
0.358572
0.358156
0.358087
0.358376
0.359012
0.359951
0.361106
0.362351
0.363482
0.364266
0.367109
0.364029
0.362894
0.363002
0.363678
0.364366
0.364835
0.364909
0.364505
0.363717
0.362693
0.361506
0.360257
0.359101
0.358159
0.357492
0.357128
0.357077
0.357336
0.357885
0.35868
0.359647
0.360687
0.361706
0.362598
0.367362
0.362983
0.361325
0.361393
0.362231
0.363028
0.363574
0.363689
0.36332
0.362555
0.361528
0.360344
0.359124
0.35801
0.357111
0.356483
0.356143
0.356087
0.356304
0.356771
0.357448
0.358271
0.359149
0.360008
0.360886
0.368486
0.362717
0.360097
0.359996
0.360813
0.361695
0.362348
0.362557
0.362268
0.361559
0.36055
0.359375
0.358172
0.357085
0.35622
0.355624
0.355306
0.355249
0.35543
0.355825
0.356396
0.35709
0.35783
0.358523
0.359259
0.369009
0.362915
0.359757
0.35928
0.35983
0.360668
0.361338
0.361626
0.361426
0.36078
0.359797
0.35863
0.357445
0.356388
0.355556
0.354995
0.354701
0.354647
0.354802
0.355138
0.355617
0.356194
0.3568
0.357331
0.357906
0.369294
0.363634
0.360386
0.359364
0.359504
0.360154
0.360769
0.361055
0.360898
0.360303
0.359342
0.358184
0.357012
0.355978
0.35518
0.354653
0.354384
0.354337
0.354474
0.354763
0.355168
0.355647
0.356138
0.356536
0.356969
0.370425
0.365
0.361699
0.360242
0.360009
0.36039
0.36085
0.36104
0.360831
0.360259
0.359294
0.358115
0.356935
0.355904
0.355124
0.35462
0.354371
0.354333
0.35446
0.354717
0.355067
0.355471
0.355872
0.35617
0.356478
0.37241
0.367075
0.363692
0.361934
0.361382
0.36148
0.361721
0.361747
0.361412
0.360721
0.359724
0.358481
0.357255
0.356191
0.355399
0.354899
0.35466
0.35463
0.354753
0.354992
0.355305
0.355654
0.355984
0.356206
0.356415
0.374932
0.369704
0.366284
0.364329
0.363504
0.363322
0.363338
0.363201
0.36273
0.36187
0.360725
0.35935
0.358014
0.356853
0.355996
0.355464
0.355219
0.355195
0.355321
0.355554
0.355849
0.356164
0.356441
0.356607
0.356733
0.377783
0.372706
0.369287
0.367215
0.366189
0.365781
0.365576
0.365243
0.364635
0.363673
0.36234
0.360812
0.359261
0.357918
0.356919
0.356294
0.356006
0.355979
0.356114
0.356352
0.356646
0.35695
0.357197
0.357313
0.357354
0.380842
0.375864
0.372456
0.37033
0.369186
0.368624
0.368253
0.367769
0.367012
0.36593
0.36455
0.362938
0.361086
0.35945
0.358201
0.357397
0.357002
0.356935
0.357072
0.357322
0.357631
0.357947
0.358192
0.358252
0.358155
0.384037
0.379023
0.37559
0.373423
0.372204
0.371542
0.371072
0.370513
0.369705
0.368594
0.367201
0.365559
0.36363
0.361607
0.359973
0.358836
0.358231
0.35805
0.358148
0.358397
0.358727
0.359086
0.359403
0.359428
0.358888
0.387369
0.382103
0.378538
0.37629
0.374984
0.374254
0.373742
0.373179
0.372414
0.371399
0.370081
0.368477
0.36667
0.364593
0.3625
0.360859
0.35979
0.359341
0.359344
0.359567
0.359888
0.360261
0.360647
0.360717
0.359402
0.390964
0.385195
0.381257
0.37878
0.377342
0.376545
0.376009
0.375472
0.374809
0.374
0.372947
0.371549
0.369868
0.36802
0.365891
0.363878
0.36222
0.361054
0.360536
0.360617
0.360929
0.361278
0.36167
0.362119
0.362723
0.394999
0.38846
0.38387
0.380949
0.379268
0.378333
0.377741
0.37722
0.376681
0.376092
0.37533
0.374303
0.373012
0.371466
0.36987
0.368089
0.366247
0.364449
0.363016
0.362139
0.361841
0.362092
0.362852
0.364101
0.365722
0.399726
0.392112
0.386636
0.383049
0.380914
0.379705
0.378989
0.37846
0.378001
0.377558
0.377048
0.376402
0.375621
0.374746
0.373818
0.372818
0.37168
0.370675
0.36975
0.368773
0.368078
0.367943
0.368573
0.370304
0.373439
0.405558
0.396563
0.389896
0.385364
0.382522
0.38085
0.379884
0.379279
0.378836
0.378477
0.378148
0.377824
0.377508
0.377221
0.377034
0.376981
0.377054
0.377355
0.377776
0.378351
0.379191
0.380417
0.381963
0.384359
0.388024
0.412951
0.40231
0.394118
0.388301
0.384454
0.382064
0.380644
0.379804
0.379292
0.378975
0.378759
0.378637
0.378646
0.378802
0.379133
0.379717
0.380625
0.381875
0.38342
0.385231
0.387299
0.389576
0.391983
0.394554
0.397313
0.422358
0.409865
0.399848
0.392403
0.387215
0.383799
0.381654
0.380361
0.379604
0.379193
0.379026
0.379051
0.379274
0.379708
0.380366
0.381312
0.382633
0.384374
0.386452
0.388761
0.391254
0.393897
0.396591
0.399205
0.401622
0.4342
0.419741
0.407671
0.398285
0.39141
0.386626
0.383448
0.381428
0.380212
0.379542
0.379262
0.3793
0.379639
0.380266
0.381167
0.38234
0.38383
0.385716
0.387973
0.39045
0.393033
0.39568
0.398331
0.400878
0.403207
0.448818
0.432396
0.418147
0.406577
0.397695
0.391195
0.386638
0.383576
0.381621
0.380469
0.379906
0.379803
0.3801
0.380772
0.381807
0.38319
0.384881
0.386851
0.389084
0.391497
0.39399
0.3965
0.39898
0.401365
0.403573
0.466406
0.448158
0.431745
0.41786
0.406721
0.398181
0.391892
0.387437
0.384416
0.382488
0.38139
0.380942
0.381031
0.381606
0.38265
0.384142
0.385968
0.387985
0.390136
0.392415
0.39477
0.397125
0.399429
0.401634
0.403687
0.486961
0.467158
0.448755
0.432581
0.419058
0.40823
0.399886
0.393681
0.389234
0.38619
0.384249
0.383179
0.382823
0.3831
0.383994
0.385414
0.387159
0.389083
0.391141
0.393327
0.395569
0.397792
0.399952
0.402007
0.403913
0.510252
0.489271
0.469209
0.450953
0.435092
0.421865
0.41123
0.402959
0.396731
0.392205
0.389065
0.38704
0.385928
0.385617
0.386075
0.387138
0.388576
0.390296
0.392241
0.394327
0.396461
0.398576
0.400618
0.402542
0.404329
0.535821
0.514102
0.492831
0.472874
0.454916
0.439365
0.426355
0.415807
0.4075
0.401146
0.396437
0.393088
0.390852
0.389587
0.389241
0.389671
0.390654
0.392039
0.39372
0.39559
0.397552
0.399523
0.401434
0.403245
0.404938
0.563028
0.541015
0.519038
0.497879
0.478244
0.460646
0.445377
0.432511
0.421956
0.413511
0.406917
0.401894
0.398172
0.395552
0.394046
0.393608
0.393934
0.394757
0.395957
0.397434
0.399085
0.400809
0.402526
0.404178
0.405748
0.591121
0.569209
0.547008
0.525184
0.504396
0.485198
0.467984
0.452962
0.440176
0.429536
0.420862
0.413922
0.408457
0.404211
0.401137
0.399415
0.398824
0.398882
0.399392
0.400274
0.40143
0.402749
0.404139
0.405528
0.406869
0.619335
0.597831
0.575804
0.5538
0.532392
0.512117
0.493413
0.47658
0.461776
0.449024
0.438246
0.429285
0.42194
0.415978
0.411194
0.407707
0.405661
0.404693
0.404354
0.40446
0.404919
0.405637
0.406526
0.407504
0.408506
0.646976
0.626091
0.604521
0.582704
0.561124
0.540265
0.520561
0.502358
0.485891
0.47128
0.458543
0.447613
0.438362
0.430627
0.424221
0.419022
0.415103
0.41247
0.410891
0.410061
0.409703
0.409676
0.40991
0.41032
0.41083
0.673485
0.653343
0.632396
0.610998
0.589554
0.568489
0.548208
0.529065
0.511337
0.495211
0.480782
0.468064
0.457009
0.447521
0.439478
0.432753
0.427219
0.422836
0.419573
0.417264
0.415698
0.414721
0.414201
0.413966
0.413891
0.698461
0.679121
0.658867
0.637995
0.616851
0.595809
0.575243
0.555498
0.536864
0.519567
0.503755
0.489507
0.476837
0.465712
0.45606
0.447795
0.440815
0.435021
0.430264
0.426429
0.423467
0.421253
0.419617
0.418421
0.41756
0.721647
0.70312
0.683559
0.663224
0.642424
0.621503
0.600807
0.580669
0.561384
0.543193
0.52628
0.510767
0.496715
0.484139
0.473011
0.463277
0.454861
0.447675
0.441608
0.436554
0.4324
0.428991
0.426191
0.42395
0.422206
0.742896
0.725155
0.706234
0.686381
0.665886
0.645079
0.624296
0.603862
0.584072
0.565176
0.547378
0.530826
0.515616
0.501796
0.489375
0.478325
0.468596
0.460114
0.452793
0.446532
0.441223
0.436751
0.43301
0.42991
0.427356
0.762047
0.745024
0.726656
0.707195
0.686929
0.666182
0.645295
0.624594
0.604373
0.58489
0.566359
0.548946
0.532771
0.517906
0.504383
0.4922
0.481326
0.471707
0.463268
0.455925
0.449581
0.444137
0.43949
0.435544
0.432202
0.779092
0.76267
0.744702
0.72546
0.705256
0.684446
0.663385
0.642397
0.621774
0.601774
0.582618
0.564484
0.547504
0.531769
0.517329
0.5042
0.492365
0.481786
0.472403
0.464142
0.456916
0.450634
0.445201
0.440523
0.436506
0.793881
0.777893
0.760156
0.741016
0.720808
0.699883
0.678615
0.657342
0.636356
0.615912
0.596234
0.577507
0.559871
0.543429
0.528244
0.514343
0.501724
0.490359
0.480198
0.471178
0.46322
0.456241
0.450151
0.444859
0.440278
0.805679
0.789889
0.772227
0.753058
0.732752
0.711685
0.69021
0.668656
0.647321
0.626469
0.60633
0.587096
0.568915
0.551899
0.536119
0.521613
0.508389
0.496426
0.485681
0.476096
0.4676
0.460112
0.453545
0.447808
0.442805
0.818134
0.802616
0.785051
0.765859
0.745405
0.724072
0.702236
0.680244
0.65841
0.637011
0.616285
0.596432
0.577614
0.559949
0.543519
0.528372
0.514519
0.501947
0.490621
0.48049
0.471488
0.463533
0.456542
0.450427
0.445106
0.356642
0.356522
0.35651
0.363083
0.363051
0.367288
0.367918
0.372976
0.380884
0.377531
0.383685
0.390654
0.391858
0.395293
0.39857
0.399883
0.402034
0.403881
0.403651
0.405323
0.406741
0.405116
0.406649
0.407927
0.405411
0.406903
0.408157
0.405421
0.406856
0.40809
0.405541
0.406902
0.408089
0.405859
0.407136
0.408256
0.406375
0.407562
0.408608
0.407096
0.408201
0.409157
0.408036
0.409037
0.409928
0.409413
0.410194
0.410909
0.411348
0.411833
0.412298
0.413923
0.414012
0.414132
0.416978
0.416586
0.416299
0.420927
0.419963
0.419162
0.42538
0.423817
0.422464
0.429556
0.427437
0.425586
0.433281
0.430676
0.428388
0.436573
0.433551
0.430885
0.438708
0.435372
0.432418
0.440683
0.437016
0.433839
0.43252
0.432474
0.432376
0.432036
0.431187
0.429835
0.428106
0.426126
0.424004
0.421827
0.419652
0.417522
0.415464
0.413495
0.411623
0.409855
0.408192
0.406633
0.405176
0.403818
0.402556
0.401386
0.400305
0.39931
0.398397
0.397563
0.396807
0.396127
0.39552
0.394986
0.394525
0.394138
0.393823
0.393584
0.393421
0.393337
0.393335
0.393421
0.3936
0.393874
0.394245
0.39472
0.395309
0.396024
0.396867
0.397846
0.398968
0.400242
0.401674
0.403271
0.405037
0.406977
0.409089
0.411369
0.413809
0.416392
0.419094
0.421876
0.424687
0.427462
0.430114
0.432526
0.434529
0.435957
0.436762
0.437057
0.436765
0.435834
0.434367
0.432346
0.429838
0.42723
0.424858
0.422926
0.421727
0.421527
0.422385
0.423913
0.42528
0.425919
0.432634
0.432516
0.432367
0.431832
0.430796
0.429368
0.427625
0.425676
0.423611
0.4215
0.419394
0.41733
0.415331
0.413414
0.411587
0.409856
0.408224
0.40669
0.405253
0.40391
0.40266
0.401499
0.400424
0.399431
0.398519
0.397684
0.396924
0.396237
0.395622
0.395078
0.394604
0.394201
0.39387
0.39361
0.393425
0.393316
0.393286
0.393336
0.39347
0.393696
0.394019
0.394445
0.394976
0.395617
0.396378
0.397265
0.398287
0.399449
0.400756
0.402214
0.403826
0.405594
0.407516
0.409587
0.411798
0.414132
0.416567
0.419069
0.421592
0.42408
0.426461
0.428644
0.430509
0.43194
0.432917
0.433481
0.433526
0.43288
0.431488
0.429492
0.42708
0.424598
0.422409
0.4207
0.419707
0.419622
0.420555
0.422318
0.424261
0.425455
0.432764
0.432344
0.431789
0.430898
0.429664
0.428164
0.426451
0.424594
0.422652
0.420672
0.418695
0.416749
0.414856
0.413031
0.411283
0.40962
0.408045
0.40656
0.405164
0.403855
0.402633
0.401495
0.400439
0.399461
0.398559
0.397732
0.396976
0.396291
0.395675
0.395126
0.394646
0.394233
0.393887
0.393611
0.393405
0.393272
0.393214
0.393233
0.393333
0.393518
0.393794
0.394165
0.394636
0.395212
0.3959
0.396706
0.397635
0.398694
0.399887
0.401219
0.402691
0.404306
0.40606
0.40795
0.409964
0.41209
0.414304
0.416578
0.418873
0.42114
0.423325
0.425366
0.427179
0.428636
0.429658
0.430244
0.43033
0.429816
0.428698
0.427063
0.425033
0.422882
0.420954
0.419488
0.418628
0.418459
0.419035
0.420292
0.421958
0.423411
0.432223
0.431508
0.430641
0.429544
0.428215
0.426704
0.425048
0.423292
0.421473
0.419625
0.417776
0.415951
0.414169
0.412443
0.410784
0.409199
0.407692
0.406266
0.404922
0.403658
0.402474
0.401368
0.400338
0.399382
0.398498
0.397684
0.396937
0.396257
0.395642
0.395092
0.394605
0.394182
0.393823
0.393529
0.393301
0.393142
0.393052
0.393035
0.393094
0.393233
0.393456
0.393767
0.394172
0.394674
0.395281
0.395997
0.396827
0.397778
0.398853
0.400057
0.401393
0.40286
0.404459
0.406185
0.40803
0.409982
0.412023
0.41413
0.416271
0.418405
0.420486
0.422468
0.424299
0.425877
0.427048
0.427728
0.427888
0.427495
0.426579
0.425247
0.423582
0.421728
0.419976
0.418602
0.417755
0.417504
0.417835
0.418652
0.419792
0.421043
0.430907
0.430028
0.429061
0.427918
0.426583
0.425103
0.423515
0.421851
0.420139
0.418405
0.416672
0.414961
0.413286
0.41166
0.410093
0.408592
0.407161
0.405802
0.404517
0.403306
0.402168
0.401101
0.400105
0.399178
0.398317
0.397521
0.396789
0.396118
0.395509
0.394959
0.39447
0.39404
0.393669
0.39336
0.393112
0.392927
0.392808
0.392756
0.392775
0.392868
0.393039
0.393293
0.393633
0.394064
0.394591
0.39522
0.395955
0.396802
0.397765
0.398848
0.400054
0.401383
0.402835
0.404408
0.406096
0.407888
0.40977
0.411722
0.413719
0.415726
0.417703
0.419602
0.421372
0.422937
0.424182
0.425017
0.425399
0.425304
0.424747
0.423789
0.422494
0.420956
0.419417
0.418147
0.417317
0.416992
0.417133
0.417648
0.418357
0.4193
0.429122
0.428133
0.42715
0.426025
0.424733
0.423318
0.421812
0.420245
0.41864
0.417019
0.415401
0.413802
0.412236
0.410714
0.409244
0.407831
0.406481
0.405196
0.403977
0.402824
0.401738
0.400717
0.39976
0.398865
0.398032
0.397259
0.396544
0.395887
0.395286
0.39474
0.39425
0.393814
0.393434
0.39311
0.392843
0.392634
0.392486
0.3924
0.392379
0.392427
0.392547
0.392742
0.393019
0.393379
0.393828
0.394372
0.395014
0.395759
0.396612
0.397576
0.398655
0.399849
0.40116
0.402584
0.404118
0.405753
0.407479
0.409279
0.411131
0.413009
0.414878
0.416697
0.418417
0.419973
0.421287
0.422296
0.42296
0.423243
0.423117
0.422595
0.421703
0.42052
0.419257
0.418152
0.417378
0.417002
0.416997
0.417275
0.417649
0.418228
0.426902
0.425905
0.424964
0.423895
0.422682
0.421358
0.419955
0.418498
0.417009
0.415506
0.414007
0.412524
0.41107
0.409654
0.408283
0.406963
0.405698
0.404489
0.40334
0.40225
0.401219
0.400246
0.399332
0.398474
0.397672
0.396924
0.396229
0.395586
0.394995
0.394455
0.393965
0.393525
0.393137
0.3928
0.392514
0.392283
0.392106
0.391987
0.391927
0.391931
0.392001
0.39214
0.392354
0.392647
0.393021
0.393482
0.394034
0.394681
0.395429
0.39628
0.397238
0.398304
0.399478
0.400761
0.402148
0.403634
0.405209
0.406862
0.408575
0.410325
0.412087
0.413826
0.415504
0.417071
0.418473
0.41966
0.420586
0.421211
0.421497
0.421427
0.421002
0.420276
0.419393
0.418547
0.417899
0.417509
0.41737
0.417418
0.41753
0.417807
0.424333
0.423399
0.422544
0.421568
0.420466
0.419261
0.417982
0.416652
0.415291
0.413915
0.41254
0.411178
0.409839
0.408531
0.407262
0.406035
0.404856
0.403727
0.402648
0.401622
0.400648
0.399725
0.398854
0.398034
0.397263
0.396541
0.395867
0.395241
0.39466
0.394126
0.393638
0.393196
0.3928
0.39245
0.392148
0.391894
0.391691
0.39154
0.391444
0.391405
0.391427
0.391513
0.391668
0.391895
0.392199
0.392582
0.393051
0.393608
0.394258
0.395004
0.39585
0.396797
0.397848
0.399
0.400253
0.401603
0.403042
0.404561
0.406147
0.407783
0.409447
0.411113
0.412751
0.414324
0.415795
0.417126
0.418268
0.419187
0.419861
0.420249
0.420335
0.420129
0.419711
0.419207
0.418748
0.418361
0.418086
0.417948
0.417873
0.417909
0.421511
0.420665
0.419918
0.419072
0.418116
0.417062
0.415933
0.41475
0.413533
0.412296
0.411053
0.409815
0.408594
0.407396
0.406228
0.405096
0.404002
0.402951
0.401942
0.400979
0.400061
0.399188
0.398359
0.397576
0.396836
0.39614
0.395487
0.394876
0.394306
0.393779
0.393292
0.392848
0.392444
0.392083
0.391765
0.391491
0.391263
0.391082
0.390951
0.390872
0.390849
0.390886
0.390986
0.391153
0.391391
0.391705
0.392097
0.392572
0.393134
0.393787
0.394533
0.395376
0.396317
0.397356
0.398492
0.399724
0.401046
0.402452
0.403932
0.405472
0.407056
0.408666
0.410276
0.411861
0.413398
0.414859
0.416168
0.417325
0.41834
0.419137
0.419699
0.420003
0.420077
0.419953
0.419695
0.419337
0.418965
0.418661
0.418428
0.418263
0.418423
0.417688
0.417087
0.416424
0.415664
0.414801
0.413855
0.412845
0.411788
0.410701
0.409597
0.408489
0.407386
0.406297
0.40523
0.404188
0.403178
0.402201
0.40126
0.400356
0.399491
0.398664
0.397876
0.397127
0.396417
0.395745
0.395111
0.394514
0.393955
0.393433
0.392949
0.392501
0.392092
0.39172
0.391387
0.391094
0.390842
0.390633
0.390469
0.390353
0.390289
0.39028
0.39033
0.390443
0.390623
0.390874
0.391199
0.391603
0.392088
0.39266
0.393321
0.394075
0.394923
0.395867
0.396907
0.398042
0.39927
0.400585
0.401982
0.40345
0.404977
0.406549
0.408147
0.40975
0.411335
0.412883
0.414387
0.4158
0.417066
0.41817
0.419128
0.419864
0.420353
0.420634
0.420617
0.420308
0.419854
0.419349
0.418913
0.418554
0.414906
0.414339
0.413992
0.413626
0.413143
0.412528
0.411805
0.410995
0.410117
0.40919
0.40823
0.407252
0.406266
0.405283
0.40431
0.403355
0.402421
0.401513
0.400634
0.399785
0.398967
0.398183
0.397431
0.396713
0.396028
0.395377
0.39476
0.394176
0.393626
0.393109
0.392625
0.392175
0.391759
0.391377
0.391031
0.39072
0.390446
0.390211
0.390016
0.389866
0.389764
0.389714
0.38972
0.389785
0.389914
0.39011
0.390377
0.39072
0.391141
0.391645
0.392236
0.392916
0.393689
0.394557
0.395521
0.396582
0.397738
0.398987
0.400325
0.401745
0.403239
0.404796
0.406402
0.408042
0.409696
0.411345
0.412971
0.414556
0.416088
0.417523
0.418805
0.419851
0.420694
0.421269
0.421484
0.421281
0.420711
0.420014
0.419199
0.418565
0.410607
0.410424
0.410547
0.410676
0.410605
0.410313
0.409854
0.40927
0.408585
0.407824
0.407009
0.406156
0.40528
0.404395
0.403509
0.402631
0.401766
0.400919
0.400093
0.399291
0.398515
0.397766
0.397045
0.396353
0.39569
0.395056
0.394452
0.393878
0.393334
0.39282
0.392337
0.391883
0.391461
0.39107
0.39071
0.390383
0.390089
0.389829
0.389606
0.389424
0.389288
0.389201
0.389168
0.389192
0.389276
0.389427
0.389645
0.389937
0.390306
0.390755
0.39129
0.391913
0.392628
0.393438
0.394345
0.395352
0.396458
0.397664
0.398966
0.400362
0.401846
0.40341
0.405044
0.406737
0.408474
0.410237
0.41201
0.41377
0.415495
0.417163
0.418774
0.420214
0.42143
0.422314
0.422767
0.422641
0.421854
0.420845
0.419571
0.418341
0.404441
0.405341
0.406582
0.407524
0.408074
0.408232
0.408087
0.407749
0.407264
0.406667
0.405987
0.405249
0.404472
0.403672
0.402861
0.402047
0.401239
0.400442
0.39966
0.398896
0.398153
0.397432
0.396735
0.396062
0.395415
0.394794
0.3942
0.393633
0.393093
0.39258
0.392095
0.391638
0.391209
0.390809
0.390437
0.390095
0.389782
0.389499
0.389247
0.389034
0.388867
0.388749
0.388682
0.388671
0.38872
0.388832
0.389011
0.389263
0.38959
0.389997
0.390488
0.391068
0.391741
0.39251
0.393379
0.394351
0.395427
0.396609
0.397897
0.399289
0.400784
0.402375
0.404057
0.405821
0.407655
0.409546
0.411478
0.41343
0.415382
0.417305
0.419171
0.420931
0.42258
0.423923
0.424777
0.424968
0.424394
0.422837
0.420076
0.417615
0.395069
0.399447
0.402369
0.404339
0.405645
0.406385
0.40663
0.406535
0.406233
0.40578
0.405217
0.404574
0.403877
0.403143
0.402389
0.401625
0.40086
0.4001
0.399349
0.398613
0.397893
0.397192
0.396511
0.395852
0.395215
0.394602
0.394013
0.393449
0.392911
0.392397
0.39191
0.391448
0.391012
0.390603
0.390222
0.389868
0.389539
0.38923
0.388947
0.388701
0.388504
0.388361
0.388269
0.38823
0.38825
0.388331
0.38848
0.3887
0.388995
0.389371
0.389832
0.390382
0.391026
0.391769
0.392616
0.393568
0.394632
0.395808
0.397099
0.398505
0.400027
0.401663
0.403409
0.405259
0.407206
0.409239
0.411346
0.41351
0.415711
0.417925
0.420121
0.422264
0.424323
0.426191
0.42769
0.428716
0.429744
0.429016
0.423103
0.415232
0.376266
0.391502
0.3978
0.40144
0.403595
0.404908
0.405575
0.405725
0.405565
0.405218
0.404738
0.404161
0.403517
0.402827
0.40211
0.401377
0.400638
0.399901
0.39917
0.398449
0.397743
0.397052
0.39638
0.395727
0.395095
0.394485
0.393897
0.393334
0.392794
0.392278
0.391786
0.391319
0.390876
0.390459
0.390069
0.389701
0.38935
0.389018
0.388714
0.388444
0.388217
0.388045
0.387931
0.387871
0.387869
0.387927
0.388053
0.38825
0.388523
0.388877
0.389317
0.389849
0.390477
0.391207
0.392043
0.392991
0.394055
0.395239
0.396547
0.397982
0.399545
0.401238
0.403059
0.405007
0.407078
0.409265
0.41156
0.413953
0.416428
0.418967
0.42155
0.424154
0.42676
0.429338
0.431856
0.434382
0.437127
0.439597
0.440268
0.444123
0.380272
0.390546
0.396356
0.400356
0.402738
0.404213
0.405071
0.405394
0.405321
0.40502
0.404575
0.404025
0.403401
0.402729
0.402025
0.401304
0.400575
0.399846
0.399121
0.398406
0.397703
0.397014
0.396343
0.39569
0.395057
0.394445
0.393855
0.393289
0.392745
0.392225
0.391729
0.391255
0.390806
0.390381
0.389976
0.389584
0.38921
0.388864
0.388552
0.388272
0.388023
0.387818
0.387675
0.387596
0.387577
0.387621
0.38773
0.387912
0.38817
0.388511
0.388941
0.389463
0.390085
0.390812
0.391649
0.392603
0.393678
0.394881
0.396217
0.397689
0.399302
0.401059
0.402963
0.405013
0.407211
0.409555
0.412041
0.414665
0.41742
0.420296
0.423284
0.426372
0.429555
0.432833
0.436236
0.439877
0.443879
0.448219
0.45371
0.463077
0.389047
0.394994
0.39889
0.4017
0.403472
0.404605
0.405294
0.405585
0.405515
0.405195
0.404727
0.404159
0.403521
0.402838
0.402125
0.401397
0.400662
0.399927
0.399197
0.398477
0.397769
0.397075
0.396398
0.39574
0.395101
0.394484
0.393889
0.393318
0.39277
0.392245
0.391743
0.391264
0.390808
0.390366
0.389934
0.389519
0.389133
0.388781
0.388461
0.388174
0.387918
0.387695
0.387521
0.387411
0.387374
0.387408
0.387509
0.387683
0.387934
0.38827
0.388696
0.389217
0.389841
0.390573
0.39142
0.392388
0.393483
0.394713
0.396082
0.397598
0.399266
0.40109
0.403075
0.405227
0.407546
0.410038
0.412703
0.415544
0.41856
0.421752
0.42512
0.428668
0.432401
0.436321
0.440468
0.44489
0.449565
0.45447
0.459963
0.466676
0.396143
0.399813
0.402351
0.404067
0.405155
0.40582
0.406171
0.406261
0.406099
0.405714
0.405172
0.404538
0.403851
0.403131
0.40239
0.401639
0.400885
0.400133
0.399389
0.398656
0.397936
0.397231
0.396544
0.395876
0.395229
0.394603
0.394001
0.393424
0.392872
0.392344
0.391839
0.391351
0.39087
0.390399
0.389946
0.389522
0.389132
0.388775
0.388449
0.388157
0.387897
0.387672
0.387485
0.387348
0.387279
0.38729
0.387385
0.387558
0.387811
0.388148
0.388577
0.389105
0.389737
0.390481
0.391343
0.392332
0.393453
0.394714
0.396121
0.397683
0.399405
0.401294
0.403357
0.4056
0.40803
0.410651
0.413471
0.416497
0.419736
0.423199
0.426892
0.430815
0.434962
0.439285
0.44377
0.448456
0.453314
0.458361
0.46392
0.470074
0.401496
0.403763
0.405374
0.406412
0.407031
0.407339
0.407404
0.407275
0.406971
0.406494
0.405859
0.405126
0.40436
0.403583
0.4028
0.402014
0.401232
0.400457
0.399693
0.398941
0.398205
0.397486
0.396786
0.396105
0.395447
0.394811
0.394201
0.393618
0.393064
0.392532
0.392008
0.391489
0.390978
0.39049
0.390033
0.389608
0.389215
0.388854
0.388526
0.388232
0.387971
0.387748
0.387564
0.387424
0.387334
0.387313
0.387377
0.387537
0.387793
0.38814
0.38858
0.389121
0.389767
0.390529
0.391412
0.392425
0.393575
0.394869
0.396316
0.397923
0.399697
0.401645
0.403776
0.406098
0.408618
0.411344
0.414287
0.417459
0.420873
0.424542
0.428443
0.432531
0.436797
0.441235
0.445804
0.450503
0.455393
0.460514
0.465902
0.471458
0.405533
0.406886
0.407833
0.408422
0.408721
0.408785
0.408657
0.408378
0.407967
0.407405
0.406676
0.405843
0.404993
0.404156
0.403326
0.402504
0.401691
0.400889
0.400101
0.39933
0.398576
0.397842
0.397128
0.396435
0.395766
0.395121
0.394503
0.393913
0.393346
0.392786
0.392225
0.391679
0.39116
0.39067
0.390212
0.389784
0.389389
0.389027
0.3887
0.388406
0.388148
0.387928
0.38775
0.387619
0.387538
0.387512
0.387553
0.38768
0.387907
0.388244
0.388696
0.389257
0.389924
0.390709
0.391618
0.392658
0.393839
0.395169
0.396654
0.398302
0.400123
0.402123
0.404311
0.406695
0.409285
0.412089
0.41512
0.418392
0.421904
0.425632
0.429554
0.433653
0.437916
0.442366
0.447005
0.45181
0.456769
0.461862
0.467049
0.472216
0.407959
0.40891
0.409537
0.409888
0.410009
0.409936