/*--------------------------------*- C++ -*----------------------------------*\
| =========                 |                                                 |
| \\      /  F ield         | OpenFOAM: The Open Source CFD Toolbox           |
|  \\    /   O peration     | Version:  v2012                                 |
|   \\  /    A nd           | Website:  www.openfoam.com                      |
|    \\/     M anipulation  |                                                 |
\*---------------------------------------------------------------------------*/
FoamFile
{
    version     2.0;
    format      ascii;
    class       surfaceScalarField;
    location    "504";
    object      phi;
}
// * * * * * * * * * * * * * * * * * * * * * * * * * * * * * * * * * * * * * //

dimensions      [0 3 -1 0 0 0 0];
oriented        oriented;


internalField   nonuniform List<scalar> 
12848
(
5.03108e-08
0.00019995
3.43152e-08
0.000200016
2.08131e-08
0.000200014
9.8446e-09
0.000200011
1.70741e-11
0.00020001
-9.81335e-09
0.00020001
-2.07901e-08
0.000200011
-3.43048e-08
0.000200014
-5.03085e-08
0.000200016
0.00019995
8.12257e-08
0.000199868
7.18251e-08
0.000200025
4.87836e-08
0.000200037
2.42461e-08
0.000200036
5.16974e-11
0.000200034
-2.41506e-08
0.000200034
-4.87112e-08
0.000200036
-7.17879e-08
0.000200037
-8.12179e-08
0.000200025
0.000199868
8.39866e-08
0.000199784
8.45493e-08
0.000200025
6.15033e-08
0.00020006
3.1702e-08
0.000200065
9.93474e-11
0.000200066
-3.15139e-08
0.000200066
-6.13431e-08
0.000200065
-8.44227e-08
0.00020006
-8.39132e-08
0.000200025
0.000199785
8.11795e-08
0.000199703
8.50455e-08
0.000200021
6.44172e-08
0.00020008
3.41044e-08
0.000200096
1.66929e-10
0.0002001
-3.37865e-08
0.0002001
-6.41442e-08
0.000200096
-8.48457e-08
0.00020008
-8.10701e-08
0.000200021
0.000199703
7.75877e-08
0.000199626
8.25208e-08
0.000200016
6.35892e-08
0.000200099
3.40776e-08
0.000200125
2.63953e-10
0.000200133
-3.35746e-08
0.000200133
-6.3159e-08
0.000200125
-8.22057e-08
0.000200099
-7.74177e-08
0.000200016
0.000199626
7.32589e-08
0.000199552
7.85637e-08
0.000200011
6.12459e-08
0.000200116
3.30724e-08
0.000200153
4.06308e-10
0.000200166
-3.22998e-08
0.000200166
-6.05886e-08
0.000200154
-7.80792e-08
0.000200117
-7.29947e-08
0.000200011
0.000199553
6.90249e-08
0.000199483
7.40876e-08
0.000200006
5.78866e-08
0.000200133
3.14883e-08
0.00020018
6.23651e-10
0.000200197
-3.03015e-08
0.000200197
-5.68742e-08
0.00020018
-7.33432e-08
0.000200133
-6.86188e-08
0.000200007
0.000199484
6.53227e-08
0.000199418
6.99817e-08
0.000200001
5.47535e-08
0.000200148
2.997e-08
0.000200204
9.56374e-10
0.000200226
-2.81487e-08
0.000200226
-5.31963e-08
0.000200205
-6.88346e-08
0.000200149
-6.46946e-08
0.000200002
0.00019942
6.22743e-08
0.000199356
6.65621e-08
0.000199997
5.2171e-08
0.000200162
2.88104e-08
0.000200228
1.46248e-09
0.000200253
-2.60244e-08
0.000200254
-4.97873e-08
0.000200229
-6.48038e-08
0.000200164
-6.13087e-08
0.000199999
0.000199358
5.98772e-08
0.000199296
6.39171e-08
0.000199993
5.02666e-08
0.000200176
2.81441e-08
0.00020025
2.23037e-09
0.000200279
-2.38949e-08
0.00020028
-4.66309e-08
0.000200252
-6.12404e-08
0.000200179
-5.84074e-08
0.000199996
0.0001993
5.80982e-08
0.000199238
6.20719e-08
0.000199989
4.91349e-08
0.000200189
2.80999e-08
0.000200271
3.393e-09
0.000200304
-2.16369e-08
0.000200305
-4.36093e-08
0.000200274
-5.80166e-08
0.000200193
-5.58754e-08
0.000199994
0.000199244
5.69439e-08
0.000199181
6.10973e-08
0.000199985
4.88952e-08
0.000200201
2.8848e-08
0.000200291
5.14767e-09
0.000200328
-1.90509e-08
0.000200329
-4.05345e-08
0.000200295
-5.49598e-08
0.000200207
-5.35849e-08
0.000199993
0.000199191
5.64914e-08
0.000199124
6.11727e-08
0.00019998
4.97894e-08
0.000200212
3.06775e-08
0.00020031
7.80385e-09
0.00020035
-1.58437e-08
0.000200353
-3.71592e-08
0.000200316
-5.1882e-08
0.000200222
-5.14195e-08
0.000199992
0.000199139
5.6876e-08
0.000199068
6.25518e-08
0.000199974
5.22374e-08
0.000200223
3.40811e-08
0.000200328
1.18544e-08
0.000200373
-1.159e-08
0.000200376
-3.31805e-08
0.000200338
-4.8617e-08
0.000200238
-4.93025e-08
0.000199993
0.00019909
5.82636e-08
0.000199009
6.55525e-08
0.000199967
5.68144e-08
0.000200232
3.98168e-08
0.000200345
1.80656e-08
0.000200394
-5.66222e-09
0.0002004
-2.82251e-08
0.000200361
-4.50672e-08
0.000200254
-4.7316e-08
0.000199995
0.000199043
6.11711e-08
0.000198948
7.1186e-08
0.000199957
6.47378e-08
0.000200238
4.91673e-08
0.000200361
2.76881e-08
0.000200416
2.92577e-09
0.000200425
-2.1807e-08
0.000200385
-4.13258e-08
0.000200274
-4.58355e-08
0.0002
0.000198997
6.62841e-08
0.000198882
8.06653e-08
0.000199943
7.76614e-08
0.000200241
6.41005e-08
0.000200374
4.27018e-08
0.000200437
1.58107e-08
0.000200451
-1.33355e-08
0.000200415
-3.83628e-08
0.000200299
-4.65726e-08
0.000200008
0.00019895
7.45995e-08
0.000198807
9.58878e-08
0.000199921
9.83716e-08
0.000200238
8.81072e-08
0.000200385
6.69173e-08
0.000200459
3.59699e-08
0.000200482
-2.20544e-09
0.000200453
-4.00284e-08
0.000200337
-5.61018e-08
0.000200024
0.000198894
8.7511e-08
0.00019872
1.1961e-07
0.000199889
1.31045e-07
0.000200227
1.26913e-07
0.000200389
1.07492e-07
0.000200478
7.18008e-08
0.000200518
2.03221e-08
0.000200504
-3.6415e-08
0.000200394
-7.12782e-08
0.000200059
0.000198823
1.06628e-07
0.000198613
1.553e-07
0.00019984
1.81163e-07
0.000200201
1.88087e-07
0.000200382
1.73774e-07
0.000200492
1.32514e-07
0.000200559
5.058e-08
0.000200586
-8.12125e-08
0.000200525
-2.62591e-07
0.00020024
0.00019856
1.34116e-07
0.000198479
2.07517e-07
0.000199767
2.56852e-07
0.000200152
2.86082e-07
0.000200353
2.93642e-07
0.000200485
2.76729e-07
0.000200576
2.35275e-07
0.000200628
1.70959e-07
0.00020059
4.20703e-07
0.00019999
0.000193854
5.1269e-06
1.71469e-07
0.000198307
2.79382e-07
0.000199659
3.62811e-07
0.000200068
4.26553e-07
0.000200289
4.70459e-07
0.000200441
4.98281e-07
0.000200548
5.3438e-07
0.000200591
6.45147e-07
0.000200479
9.70345e-07
0.000199665
0.000191613
3.21151e-06
2.19098e-07
0.000198088
3.71737e-07
0.000199506
4.99546e-07
0.000199941
6.085e-07
0.00020018
7.00128e-07
0.000200349
7.79655e-07
0.000200469
8.69116e-07
0.000200502
1.07751e-06
0.000200271
1.76989e-06
0.000198973
0.000188327
5.05555e-06
2.77326e-07
0.000197811
4.85113e-07
0.000199299
6.67527e-07
0.000199758
8.31824e-07
0.000200016
9.81884e-07
0.000200199
1.12829e-06
0.000200323
1.30891e-06
0.000200321
1.66547e-06
0.000199914
2.69024e-06
0.000197948
0.000184702
6.31534e-06
3.46843e-07
0.000197464
6.20713e-07
0.000199025
8.68412e-07
0.00019951
1.09853e-06
0.000199786
1.31748e-06
0.00019998
1.54199e-06
0.000200098
1.82211e-06
0.000200041
2.31542e-06
0.000199421
3.55191e-06
0.000196711
0.000181102
7.15157e-06
4.28685e-07
0.000197036
7.80295e-07
0.000198673
1.1045e-06
0.000199186
1.411e-06
0.000199479
1.70811e-06
0.000199683
2.01709e-06
0.000199789
2.39765e-06
0.000199661
3.02823e-06
0.00019879
4.49159e-06
0.000195248
0.000177668
7.92601e-06
5.24245e-07
0.000196511
9.66483e-07
0.000198231
1.37978e-06
0.000198773
1.77462e-06
0.000199084
2.16106e-06
0.000199297
2.56441e-06
0.000199386
3.05216e-06
0.000199173
3.81078e-06
0.000198031
5.41832e-06
0.000193641
0.000174533
8.55364e-06
6.36374e-07
0.000195875
1.18325e-06
0.000197684
1.7004e-06
0.000198256
2.1983e-06
0.000198586
2.68898e-06
0.000198806
3.20192e-06
0.000198873
3.81258e-06
0.000198562
4.71119e-06
0.000197133
6.43164e-06
0.00019192
0.00017167
9.29454e-06
7.66805e-07
0.000195108
1.43576e-06
0.000197015
2.07358e-06
0.000197618
2.69217e-06
0.000197968
3.30571e-06
0.000198192
3.94848e-06
0.00019823
4.70607e-06
0.000197805
5.78149e-06
0.000196057
7.64314e-06
0.000190058
0.000169085
1.02276e-05
9.16294e-07
0.000194192
1.72896e-06
0.000196202
2.5064e-06
0.000196841
3.26472e-06
0.000197209
4.02027e-06
0.000197437
4.81114e-06
0.000197439
5.72797e-06
0.000196888
6.97351e-06
0.000194812
8.95109e-06
0.000188081
0.000166796
1.12406e-05
1.08854e-06
0.000193103
2.06687e-06
0.000195224
3.00527e-06
0.000195902
3.92344e-06
0.000196291
4.83968e-06
0.000196521
5.79425e-06
0.000196485
6.87814e-06
0.000195804
8.28332e-06
0.000193407
1.03338e-05
0.00018603
0.000164837
1.22925e-05
1.28732e-06
0.000191816
2.45447e-06
0.000194057
3.57753e-06
0.000194779
4.67793e-06
0.000195191
5.77527e-06
0.000195423
6.9106e-06
0.000195349
8.17242e-06
0.000194542
9.73942e-06
0.00019184
1.18211e-05
0.000183949
0.000163192
1.34662e-05
1.51549e-06
0.0001903
2.89868e-06
0.000192674
4.23289e-06
0.000193445
5.54096e-06
0.000193883
6.84276e-06
0.000194121
8.17833e-06
0.000194014
9.63028e-06
0.00019309
1.13495e-05
0.00019012
1.34096e-05
0.000181889
0.000161828
1.47731e-05
1.77682e-06
0.000188524
3.40736e-06
0.000191043
4.98289e-06
0.000191869
6.5278e-06
0.000192338
8.06133e-06
0.000192588
9.62015e-06
0.000192455
1.12756e-05
0.000191435
1.3135e-05
0.000188261
1.5152e-05
0.000179872
0.000160709
1.62716e-05
2.07557e-06
0.000186448
3.98895e-06
0.00018913
5.84016e-06
0.000190018
7.6555e-06
0.000190523
9.45283e-06
0.000190791
1.12632e-05
0.000190644
1.31414e-05
0.000189557
1.51446e-05
0.000186258
1.71245e-05
0.000177892
0.000159787
1.80468e-05
2.41599e-06
0.000184032
4.65196e-06
0.000186894
6.81762e-06
0.000187853
8.94178e-06
0.000188398
1.10404e-05
0.000188692
1.31373e-05
0.000188548
1.52667e-05
0.000187427
1.74347e-05
0.00018409
1.94065e-05
0.00017592
0.000159005
2.01882e-05
2.80193e-06
0.00018123
5.4043e-06
0.000184292
7.92734e-06
0.000185329
1.04033e-05
0.000185922
1.28462e-05
0.000186249
1.52714e-05
0.000186122
1.7691e-05
0.000185008
2.00609e-05
0.00018172
2.20758e-05
0.000173905
0.00015829
2.27904e-05
3.23664e-06
0.000177994
6.25235e-06
0.000181276
9.17902e-06
0.000182403
1.20533e-05
0.000183048
1.48879e-05
0.000183414
1.76896e-05
0.000183321
2.0448e-05
0.000182249
2.30734e-05
0.000179095
2.5206e-05
0.000171773
0.000157544
2.59521e-05
3.72372e-06
0.00017427
7.20023e-06
0.000177799
1.05786e-05
0.000179024
1.38999e-05
0.000179727
1.71764e-05
0.000180138
2.04068e-05
0.00018009
2.35602e-05
0.000179096
2.65082e-05
0.000176147
2.88524e-05
0.000169428
0.000156648
2.97488e-05
4.26486e-06
0.000170005
8.24931e-06
0.000173815
1.21271e-05
0.000175147
1.59439e-05
0.00017591
1.97124e-05
0.000176369
2.34251e-05
0.000176378
2.70338e-05
0.000175487
3.03799e-05
0.0001728
3.30429e-05
0.000166765
0.000155465
3.4226e-05
4.85868e-06
0.000165146
9.39779e-06
0.000169276
1.38204e-05
0.000170724
1.81783e-05
0.000171552
2.24858e-05
0.000172062
2.67315e-05
0.000172132
3.08549e-05
0.000171364
3.46778e-05
0.000168978
3.77733e-05
0.00016367
0.000153846
3.93915e-05
5.50278e-06
0.000159644
1.06405e-05
0.000164138
1.56488e-05
0.000165716
2.05875e-05
0.000166613
2.54746e-05
0.000167175
3.02976e-05
0.000167309
3.49891e-05
0.000166672
3.93629e-05
0.000164604
4.30014e-05
0.000160031
0.000151643
4.52051e-05
6.19408e-06
0.000153449
1.19695e-05
0.000158363
1.75979e-05
0.000160087
2.3149e-05
0.000161062
2.86464e-05
0.000161677
3.40797e-05
0.000161876
3.93812e-05
0.000161371
4.43675e-05
0.000159617
4.86457e-05
0.000155753
0.000148715
5.15731e-05
6.92929e-06
0.00014652
1.33757e-05
0.000151916
1.96501e-05
0.000153813
2.58347e-05
0.000154878
3.19603e-05
0.000155552
3.80222e-05
0.000155814
4.39584e-05
0.000155434
4.95987e-05
0.000153977
5.45878e-05
0.000150764
0.000144954
5.83489e-05
7.70571e-06
0.000138814
1.48503e-05
0.000144772
2.17872e-05
0.000146876
2.86138e-05
0.000148051
3.53707e-05
0.000148795
4.20619e-05
0.000149123
4.86362e-05
0.00014886
5.49455e-05
0.000147668
6.06817e-05
0.000145028
0.000140292
6.53434e-05
8.52228e-06
0.000130292
1.63864e-05
0.000136908
2.39921e-05
0.00013927
3.14563e-05
0.000140587
3.88313e-05
0.00014142
4.61329e-05
0.000141821
5.33256e-05
0.000141667
6.02887e-05
0.000140705
6.67678e-05
0.000138549
0.000134717
7.23433e-05
9.38072e-06
0.000120911
1.79814e-05
0.000128307
2.62518e-05
0.000131
3.43349e-05
0.000132504
4.22984e-05
0.000133456
5.01727e-05
0.000133947
5.79408e-05
0.000133899
6.5513e-05
0.000133133
7.26899e-05
0.000131372
0.000128271
7.91359e-05
1.02867e-05
0.000110625
1.96378e-05
0.000118956
2.85584e-05
0.000122079
3.72274e-05
0.000123835
4.57334e-05
0.00012495
5.41245e-05
0.000125556
6.24048e-05
0.000125619
7.05158e-05
0.000125022
7.8311e-05
0.000123577
0.000121047
8.55344e-05
1.12506e-05
9.93741e-05
2.13647e-05
0.000108842
3.0909e-05
0.000112535
4.01148e-05
0.000114629
4.91012e-05
0.000115964
5.7938e-05
0.000116719
6.66513e-05
0.000116906
7.52127e-05
0.00011646
8.3523e-05
0.000115266
0.000113174
9.13964e-05
1.22885e-05
8.70856e-05
2.31745e-05
9.79556e-05
3.33004e-05
0.000102409
4.29761e-05
0.000104953
5.23647e-05
0.000106575
6.15632e-05
0.00010752
7.06203e-05
0.000107849
7.95351e-05
0.000107545
8.82475e-05
0.000106554
0.000104792
9.66294e-05
1.34211e-05
7.36645e-05
2.50748e-05
8.63019e-05
3.57172e-05
9.17669e-05
4.57746e-05
9.48959e-05
5.54715e-05
9.68783e-05
6.49383e-05
9.80536e-05
7.42469e-05
9.85399e-05
8.34192e-05
9.83732e-05
9.24252e-05
9.7548e-05
9.60366e-05
0.000101181
1.46771e-05
5.89875e-05
2.70325e-05
7.39465e-05
3.81026e-05
8.06968e-05
4.84368e-05
8.45617e-05
5.8335e-05
8.69801e-05
6.79717e-05
8.84169e-05
7.74431e-05
8.90685e-05
8.6788e-05
8.90282e-05
9.59968e-05
8.83393e-05
8.70192e-05
0.000105014
1.60707e-05
4.29167e-05
2.89373e-05
6.10799e-05
4.0294e-05
6.93401e-05
5.07882e-05
7.40675e-05
6.07865e-05
7.69818e-05
7.05075e-05
7.86958e-05
8.00703e-05
7.95058e-05
8.95255e-05
7.9573e-05
9.88744e-05
7.89903e-05
7.78152e-05
0.000108078
1.67225e-05
2.61942e-05
3.0459e-05
4.73434e-05
4.20617e-05
5.77374e-05
5.25776e-05
6.35516e-05
6.25652e-05
6.69942e-05
7.22986e-05
6.89625e-05
8.19079e-05
6.98964e-05
9.14447e-05
7.00363e-05
0.000100911
6.95239e-05
6.8452e-05
0.000110274
1.49019e-05
1.12923e-05
2.99381e-05
3.23072e-05
4.23687e-05
4.53068e-05
5.31639e-05
5.27564e-05
6.32061e-05
5.6952e-05
7.29576e-05
5.92109e-05
8.26188e-05
6.02352e-05
9.22561e-05
6.0399e-05
0.000101868
5.99116e-05
5.89026e-05
0.000111418
1.04905e-05
8.01897e-07
2.5514e-05
1.72836e-05
3.91449e-05
3.16759e-05
5.09472e-05
4.09541e-05
6.15985e-05
4.63008e-05
7.17015e-05
4.9108e-05
8.16136e-05
5.0323e-05
9.14894e-05
5.05232e-05
0.000101359
5.00422e-05
4.90718e-05
0.00011119
6.2229e-06
-5.421e-06
1.80929e-05
5.41361e-06
3.14103e-05
1.83585e-05
4.41391e-05
2.82253e-05
5.59384e-05
3.45015e-05
6.70284e-05
3.80181e-05
7.77245e-05
3.96268e-05
8.82374e-05
4.00103e-05
9.86587e-05
3.96209e-05
3.87315e-05
0.000108999
2.99079e-06
-8.41179e-06
9.88896e-06
-1.48456e-06
2.03544e-05
7.89301e-06
3.23727e-05
1.6207e-05
4.47758e-05
2.20984e-05
5.7062e-05
2.57318e-05
6.90846e-05
2.76043e-05
8.08229e-05
2.8272e-05
9.23247e-05
2.81192e-05
2.74247e-05
0.000103631
-1.45825e-06
-6.95354e-06
8.92606e-07
-3.83542e-06
7.3668e-06
1.41882e-06
1.69811e-05
6.59271e-06
2.86584e-05
1.04211e-05
4.15305e-05
1.28597e-05
5.48629e-05
1.42719e-05
6.81074e-05
1.50275e-05
8.1142e-05
1.50846e-05
1.46267e-05
9.39399e-05
-6.95354e-06
-1.0789e-05
-9.37014e-06
-2.77743e-06
7.64372e-06
2.05034e-05
3.47753e-05
4.98028e-05
6.48874e-05
7.95141e-05
-2.87871e-05
3.3914e-05
-2.81377e-05
-6.49319e-07
-2.48431e-05
-3.29468e-06
-2.06309e-05
-4.21217e-06
-1.56647e-05
-4.96625e-06
-1.02402e-05
-5.42444e-06
-4.64289e-06
-5.59732e-06
8.76376e-07
-5.51925e-06
6.21754e-06
-5.34117e-06
1.13741e-05
-5.15653e-06
1.6215e-05
-4.84095e-06
2.05308e-05
-4.31582e-06
2.41035e-05
-3.57262e-06
2.68451e-05
-2.74169e-06
2.87115e-05
-1.86639e-06
2.97075e-05
-9.95952e-07
2.97739e-05
-6.64233e-08
2.88355e-05
9.38415e-07
2.68214e-05
2.01411e-06
2.36704e-05
3.15098e-06
1.93576e-05
4.31272e-06
1.39896e-05
5.36807e-06
8.10802e-06
5.88155e-06
2.90011e-06
5.20793e-06
2.90012e-06
-1.42295e-05
5.1355e-05
-2.00655e-05
5.18673e-06
-1.99439e-05
-3.41637e-06
-1.785e-05
-6.30605e-06
-1.4669e-05
-8.14721e-06
-1.07071e-05
-9.38637e-06
-6.19745e-06
-1.0107e-05
-1.36695e-06
-1.03497e-05
3.44425e-06
-1.01524e-05
7.94664e-06
-9.65892e-06
1.20161e-05
-8.91041e-06
1.55688e-05
-7.86855e-06
1.85502e-05
-6.55399e-06
2.08949e-05
-5.08643e-06
2.25774e-05
-3.54887e-06
2.3565e-05
-1.98357e-06
2.38846e-05
-3.86038e-07
2.35589e-05
1.26411e-06
2.25771e-05
2.99598e-06
2.08975e-05
4.83056e-06
1.84546e-05
6.75555e-06
1.51586e-05
8.66409e-06
1.08565e-05
1.01837e-05
5.63584e-06
1.04286e-05
8.53597e-06
-8.52632e-06
6.49368e-05
-1.55645e-05
1.2225e-05
-1.73031e-05
-1.67779e-06
-1.65189e-05
-7.09022e-06
-1.43238e-05
-1.03424e-05
-1.11969e-05
-1.25132e-05
-7.46627e-06
-1.38376e-05
-3.38219e-06
-1.44338e-05
8.65165e-07
-1.43997e-05
4.9711e-06
-1.37649e-05
8.65218e-06
-1.25915e-05
1.17977e-05
-1.1014e-05
1.4395e-05
-9.15132e-06
1.64206e-05
-7.11209e-06
1.78578e-05
-4.98602e-06
1.87033e-05
-2.82911e-06
1.8977e-05
-6.59745e-07
1.87075e-05
1.53361e-06
1.79229e-05
3.78058e-06
1.66408e-05
6.1127e-06
1.48547e-05
8.54161e-06
1.25075e-05
1.10113e-05
9.42925e-06
1.3262e-05
5.34473e-06
1.45131e-05
1.38807e-05
-5.99081e-06
7.7243e-05
-1.40501e-05
2.02843e-05
-1.68243e-05
1.09644e-06
-1.6754e-05
-7.1606e-06
-1.50768e-05
-1.20196e-05
-1.2406e-05
-1.5184e-05
-9.10791e-06
-1.71357e-05
-5.45503e-06
-1.80867e-05
-1.66438e-06
-1.81904e-05
2.03185e-06
-1.74611e-05
5.40384e-06
-1.59635e-05
8.30061e-06
-1.39108e-05
1.0672e-05
-1.15227e-05
1.24934e-05
-8.93349e-06
1.37624e-05
-6.255e-06
1.44996e-05
-3.56633e-06
1.474e-05
-9.00088e-07
1.45233e-05
1.75029e-06
1.38863e-05
4.41752e-06
1.28582e-05
7.14088e-06
1.14542e-05
9.94556e-06
9.65927e-06
1.28062e-05
7.38049e-06
1.55408e-05
4.34591e-06
1.75477e-05
1.82266e-05
-3.22966e-06
8.76242e-05
-1.26847e-05
2.97393e-05
-1.67016e-05
5.11337e-06
-1.74093e-05
-6.45291e-06
-1.62463e-05
-1.31826e-05
-1.39806e-05
-1.74498e-05
-1.10348e-05
-2.00814e-05
-7.72037e-06
-2.14012e-05
-4.30867e-06
-2.16021e-05
-9.89603e-07
-2.07802e-05
2.09964e-06
-1.90527e-05
4.816e-06
-1.66272e-05
7.0417e-06
-1.37484e-05
8.72877e-06
-1.06206e-05
9.88963e-06
-7.41586e-06
1.05693e-05
-4.24605e-06
1.08228e-05
-1.15358e-06
1.07002e-05
1.87295e-06
1.02415e-05
4.8762e-06
9.47628e-06
7.90609e-06
8.42263e-06
1.09992e-05
7.07944e-06
1.41494e-05
5.39198e-06
1.72282e-05
3.11978e-06
1.98198e-05
2.13464e-05
-3.67189e-07
9.59174e-05
-1.02451e-05
3.96172e-05
-1.56296e-05
1.04979e-05
-1.74312e-05
-4.65128e-06
-1.70571e-05
-1.35566e-05
-1.53922e-05
-1.91146e-05
-1.29535e-05
-2.25202e-05
-1.00766e-05
-2.42781e-05
-7.02343e-06
-2.46552e-05
-3.98834e-06
-2.38152e-05
-1.12758e-06
-2.19135e-05
1.40795e-06
-1.91627e-05
3.48991e-06
-1.58304e-05
5.06422e-06
-1.21949e-05
6.14984e-06
-8.50149e-06
6.80903e-06
-4.90525e-06
7.11288e-06
-1.45744e-06
7.11951e-06
1.86631e-06
6.86947e-06
5.12624e-06
6.38857e-06
8.38698e-06
5.69124e-06
1.16965e-05
4.7782e-06
1.50624e-05
3.61488e-06
1.83915e-05
2.0442e-06
2.13905e-05
2.33906e-05
2.12469e-06
0.000102346
-7.03709e-06
4.87789e-05
-1.33298e-05
1.67905e-05
-1.63309e-05
-1.65009e-06
-1.70376e-05
-1.285e-05
-1.62508e-05
-1.99014e-05
-1.45275e-05
-2.42435e-05
-1.2239e-05
-2.65666e-05
-9.64469e-06
-2.72495e-05
-6.94517e-06
-2.65148e-05
-4.32613e-06
-2.45325e-05
-1.96574e-06
-2.15231e-05
-4.05805e-09
-1.77921e-05
1.49102e-06
-1.36899e-05
2.5376e-06
-9.54807e-06
3.21131e-06
-5.57896e-06
3.59768e-06
-1.84381e-06
3.76103e-06
1.70295e-06
3.74086e-06
5.14641e-06
3.55916e-06
8.56868e-06
3.22759e-06
1.20281e-05
2.74827e-06
1.55417e-05
2.10101e-06
1.90388e-05
1.19592e-06
2.22956e-05
2.45865e-05
4.30144e-06
0.000107339
-3.83109e-06
5.69115e-05
-1.04369e-05
2.33963e-05
-1.44414e-05
2.35447e-06
-1.62507e-05
-1.10407e-05
-1.64864e-05
-1.96657e-05
-1.5648e-05
-2.50819e-05
-1.4095e-05
-2.81196e-05
-1.21013e-05
-2.92432e-05
-9.84225e-06
-2.87738e-05
-7.50964e-06
-2.68651e-05
-5.31607e-06
-2.37167e-05
-3.43639e-06
-1.96718e-05
-1.9714e-06
-1.51549e-05
-9.18715e-07
-1.06008e-05
-1.96378e-07
-6.3013e-06
2.96263e-07
-2.33646e-06
6.32135e-07
1.36708e-06
8.50989e-07
4.92756e-06
9.72027e-07
8.44764e-06
1.00487e-06
1.19953e-05
9.52228e-07
1.55944e-05
7.99014e-07
1.9192e-05
4.89139e-07
2.26055e-05
2.50756e-05
6.25541e-06
0.000111312
-9.29602e-07
6.40965e-05
-7.50469e-06
2.99714e-05
-1.21909e-05
7.04071e-06
-1.49683e-05
-8.26341e-06
-1.62207e-05
-1.84133e-05
-1.63461e-05
-2.49565e-05
-1.56464e-05
-2.88192e-05
-1.43975e-05
-3.04922e-05
-1.27021e-05
-3.04692e-05
-1.07156e-05
-2.88517e-05
-8.68358e-06
-2.57487e-05
-6.82916e-06
-2.15262e-05
-5.31934e-06
-1.66648e-05
-4.19687e-06
-1.17232e-05
-3.38692e-06
-7.11124e-06
-2.77062e-06
-2.95276e-06
-2.25815e-06
8.54605e-07
-1.80391e-06
4.47331e-06
-1.38894e-06
8.03267e-06
-1.00551e-06
1.16118e-05
-6.52799e-07
1.52417e-05
-3.4752e-07
1.88867e-05
-1.3304e-07
2.2391e-05
2.49426e-05
8.0514e-06
0.000114501
1.69791e-06
7.045e-05
-4.71074e-06
3.63801e-05
-9.84952e-06
1.21795e-05
-1.34507e-05
-4.6622e-06
-1.56779e-05
-1.61861e-05
-1.6805e-05
-2.38293e-05
-1.70562e-05
-2.8568e-05
-1.65991e-05
-3.09492e-05
-1.55811e-05
-3.14873e-05
-1.40246e-05
-3.04081e-05
-1.21712e-05
-2.76021e-05
-1.02822e-05
-2.34152e-05
-8.61771e-06
-1.83293e-05
-7.32077e-06
-1.30202e-05
-6.3614e-06
-8.07062e-06
-5.59899e-06
-3.71516e-06
-4.90945e-06
1.6506e-07
-4.22998e-06
3.79385e-06
-3.53672e-06
7.3394e-06
-2.82251e-06
1.08976e-05
-2.08986e-06
1.4509e-05
-1.36071e-06
1.81576e-05
-6.80906e-07
2.17112e-05
2.42617e-05
9.69794e-06
0.000117095
4.06208e-06
7.60858e-05
-2.12559e-06
4.25677e-05
-7.56577e-06
1.76197e-05
-1.18465e-05
-3.81482e-07
-1.49604e-05
-1.30723e-05
-1.70625e-05
-2.17271e-05
-1.83146e-05
-2.7316e-05
-1.87405e-05
-3.05233e-05
-1.84847e-05
-3.17431e-05
-1.75066e-05
-3.13862e-05
-1.59269e-05
-2.91817e-05
-1.39937e-05
-2.53484e-05
-1.20519e-05
-2.0271e-05
-1.04102e-05
-1.46619e-05
-9.17619e-06
-9.30466e-06
-8.21364e-06
-4.67772e-06
-7.33675e-06
-7.11834e-07
-6.44102e-06
2.89812e-06
-5.48661e-06
6.38499e-06
-4.46218e-06
9.87319e-06
-3.3727e-06
1.34195e-05
-2.25122e-06
1.70361e-05
-1.16469e-06
2.06246e-05
2.3097e-05
1.12794e-05
0.000119282
6.20942e-06
8.11558e-05
2.39533e-07
4.85376e-05
-5.40794e-06
2.32671e-05
-1.02453e-05
4.45585e-06
-1.41466e-05
-9.17099e-06
-1.71597e-05
-1.8714e-05
-1.93708e-05
-2.5105e-05
-2.0808e-05
-2.9086e-05
-2.14251e-05
-3.1126e-05
-2.12123e-05
-3.15991e-05
-2.01131e-05
-3.0281e-05
-1.82551e-05
-2.72064e-05
-1.59837e-05
-2.25424e-05
-1.37765e-05
-1.68691e-05
-1.20084e-05
-1.10728e-05
-1.06966e-05
-5.98949e-06
-9.58151e-06
-1.82693e-06
-8.46469e-06
1.78131e-06
-7.26125e-06
5.18155e-06
-5.94326e-06
8.5552e-06
-4.5108e-06
1.19871e-05
-3.00429e-06
1.55296e-05
-1.52528e-06
1.91456e-05
2.15717e-05
1.28431e-05
0.000121212
8.20549e-06
8.57934e-05
2.42749e-06
5.43156e-05
-3.37661e-06
2.90712e-05
-8.6802e-06
9.75944e-06
-1.32801e-05
-4.57109e-06
-1.71397e-05
-1.48544e-05
-2.02854e-05
-2.19592e-05
-2.27216e-05
-2.66499e-05
-2.43514e-05
-2.94962e-05
-2.5135e-05
-3.08155e-05
-2.47877e-05
-3.06282e-05
-2.33181e-05
-2.8676e-05
-2.09048e-05
-2.49557e-05
-1.80228e-05
-1.97511e-05
-1.5328e-05
-1.37676e-05
-1.32821e-05
-8.03536e-06
-1.17491e-05
-3.3599e-06
-1.03565e-05
3.88695e-07
-8.89424e-06
3.71925e-06
-7.28478e-06
6.94574e-06
-5.49853e-06
1.02008e-05
-3.54231e-06
1.35734e-05
-1.56235e-06
1.71657e-05
2.00094e-05
1.449e-05
0.000122994
1.01623e-05
9.01211e-05
4.53515e-06
5.99428e-05
-1.39756e-06
3.50039e-05
-7.0916e-06
1.54535e-05
-1.2294e-05
6.31304e-07
-1.69054e-05
-1.0243e-05
-2.09067e-05
-1.79579e-05
-2.42816e-05
-2.3275e-05
-2.69701e-05
-2.68077e-05
-2.88695e-05
-2.89161e-05
-2.97089e-05
-2.97888e-05
-2.91223e-05
-2.92626e-05
-2.71454e-05
-2.69326e-05
-2.39598e-05
-2.29367e-05
-2.02003e-05
-1.75272e-05
-1.67699e-05
-1.14658e-05
-1.42207e-05
-5.90906e-06
-1.22818e-05
-1.55017e-06
-1.04837e-05
1.92107e-06
-8.56133e-06
5.02342e-06
-6.40797e-06
8.04747e-06
-3.95424e-06
1.11196e-05
-1.23528e-06
1.44467e-05
1.87741e-05
1.63473e-05
0.000124693
1.22343e-05
9.42341e-05
6.7152e-06
6.54619e-05
6.76322e-07
4.10428e-05
-5.33751e-06
2.14673e-05
-1.10367e-05
6.33049e-06
-1.62864e-05
-4.99336e-06
-2.10396e-05
-1.32046e-05
-2.52728e-05
-1.90418e-05
-2.89245e-05
-2.3156e-05
-3.1904e-05
-2.59365e-05
-3.40932e-05
-2.75996e-05
-3.50612e-05
-2.82946e-05
-3.43555e-05
-2.76383e-05
-3.19491e-05
-2.53431e-05
-2.79815e-05
-2.14948e-05
-2.31425e-05
-1.63047e-05
-1.85978e-05
-1.04538e-05
-1.51114e-05
-5.03655e-06
-1.24332e-05
-7.57179e-07
-9.90454e-06
2.49476e-06
-7.05367e-06
5.1966e-06
-3.49694e-06
7.56291e-06
1.78625e-06
9.16354e-06
8.47099e-06
1.20894e-05
1.85404e-05
0.000126341
1.45822e-05
9.81923e-05
9.13546e-06
7.09087e-05
3.01596e-06
4.71623e-05
-3.23814e-06
2.77214e-05
-9.31762e-06
1.241e-05
-1.50651e-05
7.54073e-07
-2.04167e-05
-7.85303e-06
-2.53613e-05
-1.40972e-05
-2.98629e-05
-1.86544e-05
-3.38563e-05
-2.19431e-05
-3.72386e-05
-2.42174e-05
-3.98745e-05
-2.56586e-05
-4.12143e-05
-2.62986e-05
-4.08168e-05
-2.57406e-05
-3.84349e-05
-2.38767e-05
-3.41438e-05
-2.05958e-05
-2.84717e-05
-1.61259e-05
-2.25934e-05
-1.09148e-05
-1.75235e-05
-5.82715e-06
-1.33817e-05
-1.64704e-06
-9.66054e-06
1.47546e-06
-5.89038e-06
3.79275e-06
-2.48891e-06
5.76207e-06
8.59779e-06
-2.61571e-06
2.11999e-05
0.000127932
1.73797e-05
0.000102013
1.20085e-05
7.62799e-05
5.84015e-06
5.33307e-05
-5.8373e-07
3.41453e-05
-6.93434e-06
1.87606e-05
-1.30267e-05
6.84648e-06
-1.87869e-05
-2.09289e-06
-2.42312e-05
-8.65287e-06
-2.9395e-05
-1.34906e-05
-3.42073e-05
-1.71308e-05
-3.85882e-05
-1.98365e-05
-4.24718e-05
-2.1775e-05
-4.57114e-05
-2.3059e-05
-4.78325e-05
-2.36195e-05
-4.84588e-05
-2.32504e-05
-4.72126e-05
-2.1842e-05
-4.40775e-05
-1.9261e-05
-3.93702e-05
-1.56221e-05
-3.4038e-05
-1.11594e-05
-2.91969e-05
-6.48809e-06
-2.60002e-05
-1.72131e-06
-2.55441e-05
3.3367e-06
-2.89065e-05
9.12446e-06
1.65541e-05
-3.68628e-05
2.44696e-05
0.000129414
2.08073e-05
0.000105675
1.55424e-05
8.15448e-05
9.37041e-06
5.95027e-05
2.83827e-06
4.06774e-05
-3.7005e-06
2.52994e-05
-1.00308e-05
1.31767e-05
-1.60495e-05
3.92585e-06
-2.17543e-05
-2.94807e-06
-2.72276e-05
-8.01735e-06
-3.24982e-05
-1.18601e-05
-3.75102e-05
-1.48245e-05
-4.22108e-05
-1.70744e-05
-4.65822e-05
-1.86876e-05
-5.05128e-05
-1.96889e-05
-5.37233e-05
-2.00398e-05
-5.59367e-05
-1.96287e-05
-5.70891e-05
-1.81086e-05
-5.72075e-05
-1.55037e-05
-5.66119e-05
-1.1755e-05
-5.59956e-05
-7.10437e-06
-5.59727e-05
-1.74427e-06
-5.702e-05
4.38404e-06
-5.90115e-05
1.1116e-05
1.81346e-05
-6.0592e-05
2.84603e-05
0.000130703
2.50138e-05
0.000109121
1.99093e-05
8.66493e-05
1.37966e-05
6.56154e-05
7.22384e-06
4.72502e-05
5.6915e-07
3.1954e-05
-5.92283e-06
1.96687e-05
-1.21102e-05
1.01132e-05
-1.79351e-05
2.87685e-06
-2.34315e-05
-2.52097e-06
-2.87127e-05
-6.57888e-06
-3.38327e-05
-9.70453e-06
-3.87769e-05
-1.21301e-05
-4.35346e-05
-1.39299e-05
-4.80968e-05
-1.51267e-05
-5.24305e-05
-1.57062e-05
-5.64582e-05
-1.5601e-05
-5.98908e-05
-1.4676e-05
-6.25601e-05
-1.28344e-05
-6.43317e-05
-9.98338e-06
-6.52943e-05
-6.14176e-06
-6.55931e-05
-1.4455e-06
-6.50618e-05
3.85276e-06
-6.33935e-05
9.44776e-06
1.4743e-05
-6.00019e-05
3.32511e-05
0.000131677
3.01218e-05
0.00011225
2.52665e-05
9.15046e-05
1.92978e-05
7.15841e-05
1.27668e-05
5.37812e-05
6.07917e-06
3.86417e-05
-4.90729e-07
2.62386e-05
-6.76623e-06
1.63887e-05
-1.26565e-05
8.76711e-06
-1.81416e-05
2.96418e-06
-2.32767e-05
-1.44382e-06
-2.8151e-05
-4.83019e-06
-3.2843e-05
-7.43821e-06
-3.73704e-05
-9.40246e-06
-4.17251e-05
-1.0772e-05
-4.58849e-05
-1.15463e-05
-4.97846e-05
-1.17014e-05
-5.32909e-05
-1.11696e-05
-5.62524e-05
-9.87294e-06
-5.84756e-05
-7.76012e-06
-5.97267e-05
-4.89063e-06
-5.97576e-05
-1.41467e-06
-5.83565e-05
2.45164e-06
-5.53179e-05
6.40919e-06
1.00045e-05
-5.05794e-05
3.88776e-05
0.000132191
3.62073e-05
0.000114921
3.17313e-05
9.59806e-05
2.60224e-05
7.72931e-05
1.96349e-05
6.01686e-05
1.3004e-05
4.52726e-05
6.43682e-06
3.28058e-05
1.3948e-07
2.2686e-05
-5.76573e-06
1.46723e-05
-1.12339e-05
8.43231e-06
-1.62826e-05
3.60492e-06
-2.09724e-05
-1.40416e-07
-2.53612e-05
-3.04943e-06
-2.94763e-05
-5.28733e-06
-3.3315e-05
-6.93333e-06
-3.68541e-05
-8.00716e-06
-4.00611e-05
-8.49446e-06
-4.28531e-05
-8.37764e-06
-4.51084e-05
-7.61766e-06
-4.66776e-05
-6.19084e-06
-4.73819e-05
-4.18636e-06
-4.70393e-05
-1.7573e-06
-4.55132e-05
9.25565e-07
-4.27716e-05
3.66763e-06
6.2482e-06
-3.90153e-05
4.53168e-05
0.00013208
4.32799e-05
0.000116958
3.93539e-05
9.99066e-05
3.40588e-05
8.25882e-05
2.79453e-05
6.62821e-05
2.14747e-05
5.17433e-05
1.49894e-05
3.9291e-05
8.72484e-06
2.89506e-05
2.82942e-06
2.05677e-05
-2.62576e-06
1.38875e-05
-7.63253e-06
8.6117e-06
-1.22234e-05
4.45049e-06
-1.64353e-05
1.16242e-06
-2.02913e-05
-1.43136e-06
-2.37851e-05
-3.43949e-06
-2.68856e-05
-4.90667e-06
-2.95527e-05
-5.82733e-06
-3.17431e-05
-6.18727e-06
-3.34009e-05
-5.95982e-06
-3.4449e-05
-5.14279e-06
-3.48027e-05
-3.83266e-06
-3.43853e-05
-2.17473e-06
-3.31583e-05
-3.01375e-07
-3.11555e-05
1.66482e-06
3.60471e-06
-2.8512e-05
5.24762e-05
0.000131177
5.12669e-05
0.000118167
4.80973e-05
0.000103076
4.34126e-05
8.72729e-05
3.77431e-05
7.19516e-05
3.15678e-05
5.79186e-05
2.52623e-05
4.55965e-05
1.90957e-05
3.51172e-05
1.32431e-05
2.64203e-05
7.80118e-06
1.93295e-05
2.80322e-06
1.36097e-05
-1.76e-06
9.01372e-06
-5.91328e-06
5.3157e-06
-9.67418e-06
2.32955e-06
-1.30357e-05
-7.79809e-08
-1.59671e-05
-1.97527e-06
-1.84328e-05
-3.3616e-06
-2.04102e-05
-4.20988e-06
-2.18784e-05
-4.49166e-06
-2.28052e-05
-4.216e-06
-2.31538e-05
-3.48406e-06
-2.29008e-05
-2.4277e-06
-2.20475e-05
-1.15472e-06
-2.06294e-05
2.46736e-07
1.69514e-06
-1.87198e-05
6.01906e-05
0.000129335
6.00024e-05
0.000118355
5.78178e-05
0.000105261
5.398e-05
9.11107e-05
4.89723e-05
7.69593e-05
4.3275e-05
6.3616e-05
3.72903e-05
5.15812e-05
3.13215e-05
4.10859e-05
2.55767e-05
3.21651e-05
2.01807e-05
2.47254e-05
1.51911e-05
1.85993e-05
1.06177e-05
1.35871e-05
6.44711e-06
9.48629e-06
2.66762e-06
6.10904e-06
-7.08474e-07
3.29811e-06
-3.64746e-06
9.6372e-07
-6.13295e-06
-8.7611e-07
-8.16577e-06
-2.17705e-06
-9.73689e-06
-2.92054e-06
-1.08125e-05
-3.14044e-06
-1.13662e-05
-2.93032e-06
-1.13985e-05
-2.39543e-06
-1.09251e-05
-1.62813e-06
-9.97788e-06
-7.00441e-07
3.23148e-07
-8.60589e-06
6.82295e-05
0.000126449
6.92271e-05
0.000117358
6.82523e-05
0.000106236
6.55223e-05
9.38407e-05
6.14401e-05
8.10414e-05
5.646e-05
6.85962e-05
5.09962e-05
5.7045e-05
4.53822e-05
4.67e-05
3.9861e-05
3.76863e-05
3.45916e-05
2.99948e-05
2.96607e-05
2.35302e-05
2.50998e-05
1.8148e-05
2.09069e-05
1.36791e-05
1.70757e-05
9.94028e-06