/*--------------------------------*- C++ -*----------------------------------*\
| =========                 |                                                 |
| \\      /  F ield         | OpenFOAM: The Open Source CFD Toolbox           |
|  \\    /   O peration     | Version:  v2012                                 |
|   \\  /    A nd           | Website:  www.openfoam.com                      |
|    \\/     M anipulation  |                                                 |
\*---------------------------------------------------------------------------*/
FoamFile
{
    version     2.0;
    format      ascii;
    class       volVectorField;
    location    "504";
    object      U;
}
// * * * * * * * * * * * * * * * * * * * * * * * * * * * * * * * * * * * * * //

dimensions      [0 1 -1 0 0 0 0];


internalField   nonuniform List<vector> 
6556
(
(6.57417e-05 -0.999792 0)
(0.000171793 -1.00003 0)
(0.000118932 -1.00002 0)
(6.20422e-05 -1.00001 0)
(1.92879e-05 -1.00001 0)
(-1.91542e-05 -1.00001 0)
(-6.19303e-05 -1.00001 0)
(-0.000118861 -1.00002 0)
(-0.000171779 -1.00003 0)
(-6.57376e-05 -0.999792 0)
(0.00026819 -0.999534 0)
(0.000319507 -1.00011 0)
(0.000245294 -1.00012 0)
(0.000146749 -1.0001 0)
(4.85046e-05 -1.00009 0)
(-4.8095e-05 -1.00009 0)
(-0.000146404 -1.0001 0)
(-0.00024505 -1.00012 0)
(-0.000319467 -1.00011 0)
(-0.000268178 -0.999534 0)
(0.000331169 -0.999155 0)
(0.000364372 -1.00013 0)
(0.000295262 -1.00024 0)
(0.000189598 -1.00025 0)
(6.47044e-05 -1.00024 0)
(-6.39118e-05 -1.00024 0)
(-0.000188896 -1.00025 0)
(-0.00029471 -1.00024 0)
(-0.000363894 -1.00013 0)
(-0.000331016 -0.999155 0)
(0.000334307 -0.998728 0)
(0.000358665 -1.00012 0)
(0.000303957 -1.00035 0)
(0.000203156 -1.0004 0)
(7.06335e-05 -1.00041 0)
(-6.93025e-05 -1.00041 0)
(-0.000201963 -1.0004 0)
(-0.00030299 -1.00035 0)
(-0.000358026 -1.00012 0)
(-0.000333998 -0.998729 0)
(0.000321753 -0.998319 0)
(0.000344617 -1.00009 0)
(0.000298747 -1.00045 0)
(0.000202139 -1.00055 0)
(7.12346e-05 -1.00058 0)
(-6.91328e-05 -1.00058 0)
(-0.000200241 -1.00055 0)
(-0.000297225 -1.00045 0)
(-0.000343637 -1.00009 0)
(-0.000321256 -0.998321 0)
(0.000304498 -0.99794 0)
(0.000324619 -1.00007 0)
(0.000288007 -1.00054 0)
(0.000195417 -1.0007 0)
(6.94786e-05 -1.00075 0)
(-6.62424e-05 -1.00075 0)
(-0.000192499 -1.0007 0)
(-0.000285711 -1.00054 0)
(-0.000323083 -1.00007 0)
(-0.000303731 -0.997942 0)
(0.000286969 -0.997585 0)
(0.000304822 -1.00004 0)
(0.000272028 -1.00062 0)
(0.000185658 -1.00083 0)
(6.66846e-05 -1.00091 0)
(-6.17156e-05 -1.00091 0)
(-0.000181178 -1.00084 0)
(-0.000268493 -1.00063 0)
(-0.00030244 -1.00004 0)
(-0.000285858 -0.997589 0)
(0.000271053 -0.99725 0)
(0.000287197 -1.00002 0)
(0.00025721 -1.0007 0)
(0.000176087 -1.00096 0)
(6.4175e-05 -1.00106 0)
(-5.65551e-05 -1.00106 0)
(-0.000169211 -1.00097 0)
(-0.000251752 -1.00071 0)
(-0.000283524 -1.00002 0)
(-0.000269365 -0.997256 0)
(0.000257447 -0.996932 0)
(0.000272578 -0.999994 0)
(0.00024499 -1.00078 0)
(0.000168214 -1.00108 0)
(6.27166e-05 -1.0012 0)
(-5.10658e-05 -1.0012 0)
(-0.000157696 -1.00109 0)
(-0.000236621 -1.00078 0)
(-0.000266963 -1 0)
(-0.000254826 -0.996942 0)
(0.000246281 -0.996627 0)
(0.000261172 -0.999973 0)
(0.000235731 -1.00085 0)
(0.000162706 -1.0012 0)
(6.28059e-05 -1.00133 0)
(-4.50396e-05 -1.00134 0)
(-0.000146662 -1.0012 0)
(-0.000222968 -1.00086 0)
(-0.000252656 -0.999987 0)
(-0.000242273 -0.996643 0)
(0.000237464 -0.996332 0)
(0.000252937 -0.999953 0)
(0.000229659 -1.00091 0)
(0.000160061 -1.0013 0)
(6.49874e-05 -1.00146 0)
(-3.79636e-05 -1.00146 0)
(-0.000135663 -1.00131 0)
(-0.000210275 -1.00093 0)
(-0.000240079 -0.999974 0)
(-0.000231424 -0.996358 0)
(0.000230919 -0.996046 0)
(0.000248014 -0.999933 0)
(0.000227156 -1.00098 0)
(0.000160862 -1.00141 0)
(7.0023e-05 -1.00158 0)
(-2.90278e-05 -1.00159 0)
(-0.000123929 -1.00142 0)
(-0.00019782 -1.001 0)
(-0.00022856 -0.999965 0)
(-0.000221885 -0.996084 0)
(0.000226724 -0.995763 0)
(0.000246888 -0.999912 0)
(0.000229134 -1.00103 0)
(0.000166164 -1.0015 0)
(7.91331e-05 -1.0017 0)
(-1.69996e-05 -1.0017 0)
(-0.000110367 -1.00153 0)
(-0.000184738 -1.00107 0)
(-0.000217423 -0.999961 0)
(-0.00021328 -0.995822 0)
(0.000225155 -0.99548 0)
(0.000250271 -0.999886 0)
(0.000236968 -1.00109 0)
(0.000177874 -1.0016 0)
(9.43264e-05 -1.00181 0)
(3.13331e-09 -1.00182 0)
(-9.34967e-05 -1.00164 0)
(-0.000170098 -1.00115 0)
(-0.000206169 -0.999961 0)
(-0.000205351 -0.99557 0)
(0.00022667 -0.995194 0)
(0.000259159 -0.999855 0)
(0.000252077 -1.00114 0)
(0.00019901 -1.00169 0)
(0.000118741 -1.00192 0)
(2.4855e-05 -1.00194 0)
(-7.12752e-05 -1.00175 0)
(-0.000152977 -1.00123 0)
(-0.000194781 -0.999968 0)
(-0.000198335 -0.995329 0)
(0.00023228 -0.994897 0)
(0.000276492 -0.999813 0)
(0.000279672 -1.00118 0)
(0.000234272 -1.00177 0)
(0.000157608 -1.00203 0)
(6.22117e-05 -1.00206 0)
(-4.071e-05 -1.00186 0)
(-0.000132704 -1.00132 0)
(-0.000183935 -0.999984 0)
(-0.000193852 -0.995096 0)
(0.000243494 -0.99458 0)
(0.000306394 -0.999753 0)
(0.000325267 -1.0012 0)
(0.000291357 -1.00184 0)
(0.000218787 -1.00213 0)
(0.00011981 -1.00219 0)
(2.98949e-06 -1.00199 0)
(-0.000110053 -1.00143 0)
(-0.000179674 -1.00001 0)
(-0.000196077 -0.994867 0)
(0.00026248 -0.994232 0)
(0.00035483 -0.999667 0)
(0.000398165 -1.00121 0)
(0.000382815 -1.0019 0)
(0.000318289 -1.00224 0)
(0.000211661 -1.00233 0)
(6.80368e-05 -1.00216 0)
(-9.10006e-05 -1.00158 0)
(-0.000204491 -1.00008 0)
(-0.000225825 -0.994605 0)
(0.00029228 -0.993831 0)
(0.000430218 -0.999538 0)
(0.000512387 -1.00117 0)
(0.000528291 -1.00194 0)
(0.000482091 -1.00234 0)
(0.000370193 -1.00249 0)
(0.000187821 -1.00237 0)
(-4.91926e-05 -1.0018 0)
(-0.00023942 -1.00015 0)
(-0.000170181 -0.994276 0)
(0.00033612 -0.993353 0)
(0.000542747 -0.999343 0)
(0.000685645 -1.00109 0)
(0.000754553 -1.00194 0)
(0.000744191 -1.00243 0)
(0.000637673 -1.00269 0)
(0.000384961 -1.00269 0)
(-4.22927e-05 -1.00224 0)
(-0.000681338 -1.00085 0)
(-0.00089228 -0.996668 0)
(0.000401072 -0.992761 0)
(0.000704703 -0.999048 0)
(0.00094206 -1.00091 0)
(0.0011035 -1.00186 0)
(0.00118094 -1.00247 0)
(0.00117028 -1.00287 0)
(0.00102316 -1.00311 0)
(0.000873279 -1.0029 0)
(0.001682 -1.00088 0)
(0.0091983 -0.981804 0)
(0.000491508 -0.992009 0)
(0.000924665 -0.998607 0)
(0.00129681 -1.00059 0)
(0.00159481 -1.00165 0)
(0.00181395 -1.00236 0)
(0.00196658 -1.00287 0)
(0.0020583 -1.00311 0)
(0.00195872 -1.00282 0)
(0.00234383 -0.999439 0)
(0.0166633 -0.964049 0)
(0.000607594 -0.991045 0)
(0.00120569 -0.997968 0)
(0.00175378 -1.00008 0)
(0.00222962 -1.00123 0)
(0.0026292 -1.00204 0)
(0.00298032 -1.00262 0)
(0.00334444 -1.00284 0)
(0.00359676 -1.00206 0)
(0.00355218 -0.996864 0)
(0.0206701 -0.949421 0)
(0.000749892 -0.989817 0)
(0.00154975 -0.99708 0)
(0.00231529 -0.999315 0)
(0.00301041 -1.00056 0)
(0.00363287 -1.00145 0)
(0.00422031 -1.00206 0)
(0.00490077 -1.00217 0)
(0.00581089 -1.00064 0)
(0.00591068 -0.992706 0)
(0.0243312 -0.933071 0)
(0.000919802 -0.988271 0)
(0.00196074 -0.995889 0)
(0.00298694 -0.998253 0)
(0.0039437 -0.999586 0)
(0.00483328 -1.00054 0)
(0.00569846 -1.00115 0)
(0.00669205 -1.00103 0)
(0.00822139 -0.998519 0)
(0.00885434 -0.987002 0)
(0.026997 -0.914526 0)
(0.00111963 -0.986347 0)
(0.00244439 -0.99434 0)
(0.00377718 -0.996837 0)
(0.00503884 -0.998258 0)
(0.00623679 -0.999257 0)
(0.00741865 -0.999826 0)
(0.00873869 -0.999385 0)
(0.0108201 -0.995697 0)
(0.0122614 -0.980137 0)
(0.0293066 -0.89655 0)
(0.00135249 -0.983981 0)
(0.00300867 -0.992371 0)
(0.0046996 -0.995009 0)
(0.00631508 -0.996519 0)
(0.00786804 -0.997562 0)
(0.00941277 -0.998056 0)
(0.0110963 -0.997218 0)
(0.0136848 -0.992212 0)
(0.0161088 -0.972382 0)
(0.0311737 -0.880015 0)
(0.00162368 -0.981099 0)
(0.00366908 -0.989911 0)
(0.00577305 -0.9927 0)
(0.00780206 -0.994305 0)
(0.00976901 -0.995387 0)
(0.0117396 -0.995784 0)
(0.0138579 -0.99449 0)
(0.0169427 -0.988079 0)
(0.0204431 -0.964023 0)
(0.0337187 -0.865157 0)
(0.00194022 -0.977613 0)
(0.00443819 -0.9869 0)
(0.00702132 -0.989834 0)
(0.00953427 -0.991536 0)
(0.0119861 -0.99265 0)
(0.0144608 -0.99292 0)
(0.0171195 -0.991098 0)
(0.0207416 -0.983173 0)
(0.0253102 -0.955069 0)
(0.0378789 -0.851568 0)
(0.00230503 -0.97343 0)
(0.00532338 -0.983224 0)
(0.00847138 -0.98632 0)
(0.011543 -0.988118 0)
(0.0145547 -0.989252 0)
(0.0176058 -0.989359 0)
(0.0208853 -0.986932 0)
(0.025098 -0.977383 0)
(0.0304701 -0.945452 0)
(0.042665 -0.839308 0)
(0.00272257 -0.968445 0)
(0.00634134 -0.978767 0)
(0.0101455 -0.982057 0)
(0.0138564 -0.983952 0)
(0.0175069 -0.985096 0)
(0.0212016 -0.985015 0)
(0.0251532 -0.981938 0)
(0.02997 -0.970744 0)
(0.0361391 -0.935397 0)
(0.0475246 -0.828692 0)
(0.003201 -0.962537 0)
(0.00751219 -0.973433 0)
(0.0120669 -0.976932 0)
(0.016509 -0.978933 0)
(0.0208857 -0.980087 0)
(0.0253003 -0.97981 0)
(0.0299755 -0.976085 0)
(0.0354342 -0.963316 0)
(0.0424154 -0.924943 0)
(0.0526836 -0.81971 0)
(0.00374841 -0.955567 0)
(0.00885574 -0.967092 0)
(0.0142677 -0.970822 0)
(0.0195459 -0.972944 0)
(0.024748 -0.974118 0)
(0.0299721 -0.973657 0)
(0.0354307 -0.969313 0)
(0.0415963 -0.955066 0)
(0.049158 -0.914533 0)
(0.0583389 -0.812224 0)
(0.00437349 -0.947377 0)
(0.0103948 -0.959597 0)
(0.0167869 -0.963586 0)
(0.0230207 -0.965848 0)
(0.0291622 -0.967064 0)
(0.035301 -0.96645 0)
(0.0416251 -0.961562 0)
(0.0485259 -0.946112 0)
(0.0565009 -0.90433 0)
(0.0647287 -0.806056 0)
(0.00508566 -0.937793 0)
(0.0121543 -0.950782 0)
(0.0196669 -0.955063 0)
(0.0269927 -0.95749 0)
(0.0342058 -0.958778 0)
(0.0413833 -0.958063 0)
(0.0486783 -0.952752 0)
(0.0563715 -0.936466 0)
(0.064701 -0.894353 0)
(0.0721627 -0.801002 0)
(0.00589455 -0.926617 0)
(0.0141595 -0.940459 0)
(0.0229505 -0.94507 0)
(0.0315229 -0.947691 0)
(0.03996 -0.949086 0)
(0.0483236 -0.948339 0)
(0.0567223 -0.94277 0)
(0.0653113 -0.926067 0)
(0.0740413 -0.884515 0)
(0.0809703 -0.796813 0)
(0.00680844 -0.91363 0)
(0.0164334 -0.92842 0)
(0.0266772 -0.933404 0)
(0.0366679 -0.936246 0)
(0.0465014 -0.937787 0)
(0.0562224 -0.937088 0)
(0.0658886 -0.931449 0)
(0.0755246 -0.914774 0)
(0.0847973 -0.874619 0)
(0.0914903 -0.793166 0)
(0.00783598 -0.898598 0)
(0.0189945 -0.914436 0)
(0.030879 -0.91984 0)
(0.0424734 -0.922931 0)
(0.0538911 -0.924656 0)
(0.0651614 -0.924085 0)
(0.0762885 -0.91857 0)
(0.0871702 -0.90236 0)
(0.0972184 -0.864353 0)
(0.104059 -0.789643 0)
(0.0089942 -0.881268 0)
(0.0218548 -0.898268 0)
(0.0355756 -0.904141 0)
(0.0489671 -0.907507 0)
(0.0621655 -0.909444 0)
(0.0751897 -0.909074 0)
(0.0879926 -0.903867 0)
(0.100357 -0.888519 0)
(0.111485 -0.85329 0)
(0.118932 -0.785698 0)
(0.0102869 -0.861374 0)
(0.0250201 -0.879682 0)
(0.0407717 -0.886066 0)
(0.0561528 -0.889727 0)
(0.0713274 -0.891899 0)
(0.0863114 -0.891789 0)
(0.101013 -0.887043 0)
(0.115121 -0.872888 0)
(0.127682 -0.840919 0)
(0.136247 -0.780686 0)
(0.0117023 -0.838641 0)
(0.0284878 -0.85844 0)
(0.0464553 -0.865378 0)
(0.0640083 -0.869353 0)
(0.0813418 -0.871773 0)
(0.0984787 -0.871963 0)
(0.115295 -0.867795 0)
(0.131408 -0.855073 0)
(0.145774 -0.826678 0)
(0.156 -0.773884 0)
(0.0132336 -0.812812 0)
(0.0322441 -0.834313 0)
(0.052597 -0.84186 0)
(0.0724844 -0.846168 0)
(0.0921347 -0.848843 0)
(0.11159 -0.849352 0)
(0.130709 -0.845831 0)
(0.14907 -0.834683 0)
(0.165599 -0.809991 0)
(0.178018 -0.76453 0)
(0.0148743 -0.783646 0)
(0.0362682 -0.807092 0)
(0.0591527 -0.81532 0)
(0.0815085 -0.81999 0)
(0.103597 -0.822926 0)
(0.125495 -0.823758 0)
(0.147059 -0.820907 0)
(0.167862 -0.811367 0)
(0.186859 -0.790326 0)
(0.201942 -0.751884 0)
(0.0166177 -0.750913 0)
(0.0405364 -0.776594 0)
(0.0660701 -0.785607 0)
(0.0909916 -0.790685 0)
(0.115593 -0.793898 0)
(0.140002 -0.795048 0)
(0.16409 -0.792847 0)
(0.187455 -0.784855 0)
(0.209135 -0.767249 0)
(0.227242 -0.735302 0)
(0.0184589 -0.714403 0)
(0.0450274 -0.742668 0)
(0.0732955 -0.752611 0)
(0.100838 -0.758177 0)
(0.127974 -0.761701 0)
(0.154895 -0.76317 0)
(0.181509 -0.761577 0)
(0.207465 -0.754999 0)
(0.231921 -0.740476 0)
(0.25325 -0.71432 0)
(0.0203973 -0.673915 0)
(0.0497283 -0.705195 0)
(0.0807825 -0.716278 0)
(0.110956 -0.722454 0)
(0.140588 -0.726361 0)
(0.169955 -0.728167 0)
(0.199013 -0.727135 0)
(0.227483 -0.721795 0)
(0.254671 -0.709923 0)
(0.279232 -0.688727 0)
(0.0224387 -0.629252 0)
(0.0546402 -0.664081 0)
(0.0885007 -0.6766 0)
(0.121267 -0.683573 0)
(0.153297 -0.687983 0)
(0.184971 -0.690182 0)
(0.216308 -0.689677 0)
(0.247113 -0.685394 0)
(0.276853 -0.675714 0)
(0.304467 -0.658597 0)
(0.0245983 -0.580202 0)
(0.0597836 -0.619256 0)
(0.0964415 -0.633626 0)
(0.131714 -0.641664 0)
(0.165983 -0.646757 0)
(0.199756 -0.64945 0)
(0.233132 -0.649473 0)
(0.266006 -0.64609 0)
(0.298001 -0.63817 0)
(0.328322 -0.624285 0)
(0.0269015 -0.526518 0)
(0.0652011 -0.57066 0)
(0.104618 -0.58746 0)
(0.142256 -0.596929 0)
(0.178537 -0.602954 0)
(0.214139 -0.606291 0)
(0.249252 -0.606887 0)
(0.283862 -0.60429 0)
(0.317735 -0.597764 0)
(0.350312 -0.586365 0)
(0.0293858 -0.467904 0)
(0.0709513 -0.518246 0)
(0.113053 -0.538271 0)
(0.152845 -0.549659 0)
(0.190844 -0.556925 0)
(0.227944 -0.561097 0)
(0.264448 -0.562346 0)
(0.300424 -0.560472 0)
(0.335765 -0.555057 0)
(0.3701 -0.545537 0)
(0.0320857 -0.404002 0)
(0.0770939 -0.462002 0)
(0.121736 -0.486306 0)
(0.163378 -0.500225 0)
(0.202721 -0.509094 0)
(0.240937 -0.514315 0)
(0.278461 -0.516312 0)
(0.315433 -0.515131 0)
(0.351842 -0.510623 0)
(0.387462 -0.502521 0)
(0.0351072 -0.334362 0)
(0.0835877 -0.40202 0)
(0.13049 -0.432002 0)
(0.173591 -0.449157 0)
(0.213842 -0.459982 0)
(0.252755 -0.466433 0)
(0.290924 -0.469249 0)
(0.328551 -0.468732 0)
(0.365687 -0.464974 0)
(0.402202 -0.457955 0)
(0.038408 -0.259054 0)
(0.090269 -0.33852 0)
(0.138748 -0.375531 0)
(0.182778 -0.396871 0)
(0.22351 -0.410106 0)
(0.262743 -0.417934 0)
(0.301243 -0.421579 0)
(0.339264 -0.421661 0)
(0.376887 -0.418512 0)
(0.414033 -0.412324 0)
(0.0394486 -0.176273 0)
(0.0950815 -0.274535 0)
(0.145364 -0.318833 0)
(0.189991 -0.34425 0)
(0.230702 -0.359961 0)
(0.26987 -0.369183 0)
(0.30847 -0.373589 0)
(0.346747 -0.374155 0)
(0.384764 -0.371464 0)
(0.422452 -0.365896 0)
(0.0336133 -0.0883101 0)
(0.0908459 -0.200362 0)
(0.145076 -0.259527 0)
(0.192053 -0.29171 0)
(0.233321 -0.310188 0)
(0.272471 -0.320565 0)
(0.311158 -0.325463 0)
(0.349742 -0.326284 0)
(0.388259 -0.323852 0)
(0.42661 -0.318706 0)
(0.021298 -0.0200895 0)
(0.0724782 -0.12053 0)
(0.129661 -0.19318 0)
(0.18146 -0.23593 0)
(0.226029 -0.259434 0)
(0.266908 -0.271627 0)
(0.306657 -0.276949 0)
(0.346174 -0.277752 0)
(0.385673 -0.275311 0)
(0.425099 -0.270373 0)
(0.00904279 0.0209488 0)
(0.0466621 -0.0490083 0)
(0.0984531 -0.122123 0)
(0.152004 -0.173228 0)
(0.201165 -0.203584 0)
(0.246457 -0.219575 0)
(0.28969 -0.226428 0)
(0.331971 -0.227624 0)
(0.373802 -0.225243 0)
(0.415324 -0.220473 0)
(-0.0045195 0.0409484 0)
(0.0218608 0.000539014 0)
(0.0593968 -0.0582387 0)
(0.105389 -0.10766 0)
(0.154518 -0.14086 0)
(0.203928 -0.160399 0)
(0.252497 -0.169939 0)
(0.299958 -0.172791 0)
(0.346397 -0.171352 0)
(0.391976 -0.167255 0)
(-0.0204192 0.0422375 0)
(-0.00760592 0.0196249 0)
(0.0160102 -0.0149743 0)
(0.0486616 -0.0509497 0)
(0.0906993 -0.0786065 0)
(0.139644 -0.0961552 0)
(0.192419 -0.105391 0)
(0.245911 -0.109118 0)
(0.298603 -0.10876 0)
(0.350232 -0.105584 0)
(-0.0254431 0.0118819 0)
(-0.042975 0.000720968 0)
(-0.0475873 -0.0153106 0)
(-0.022557 -0.0296228 0)
(0.010739 -0.0410659 0)
(0.0555233 -0.0467679 0)
(0.107353 -0.0503359 0)
(0.167996 -0.0530808 0)
(0.229707 -0.0537155 0)
(0.289102 -0.0521601 0)
(-0.0411377 -0.155301 0)
(-0.121584 0.0124616 0)
(-0.106824 0.0182596 0)
(-0.0912963 0.020655 0)
(-0.0732229 0.0234646 0)
(-0.0513013 0.0251046 0)
(-0.0292951 0.0259484 0)
(-0.0074598 0.0264545 0)
(0.0140323 0.0254504 0)
(0.0346926 0.0236688 0)
(0.0550048 0.0220423 0)
(0.0741222 0.0198817 0)
(0.0897783 0.0168344 0)
(0.102431 0.0134051 0)
(0.111793 0.00980569 0)
(0.117623 0.00665518 0)
(0.119842 0.00329788 0)
(0.118191 -0.000537223 0)
(0.112486 -0.0046612 0)
(0.102394 -0.00889473 0)
(0.0877512 -0.0131273 0)
(0.0686553 -0.016936 0)
(0.0455032 -0.0185809 0)
(0.020333 -0.0155004 0)
(0.00416654 -0.00797257 0)
(-0.0244803 -0.228705 0)
(-0.0741254 -0.0115449 0)
(-0.0806257 0.0194056 0)
(-0.0763754 0.0292069 0)
(-0.0657976 0.0359601 0)
(-0.051214 0.040652 0)
(-0.0340384 0.0434088 0)
(-0.0152368 0.0442724 0)
(0.00417729 0.042928 0)
(0.022979 0.0403643 0)
(0.0402609 0.0371013 0)
(0.0555943 0.0326544 0)
(0.0687203 0.0269507 0)
(0.0794318 0.0206184 0)
(0.0875357 0.0140355 0)
(0.0928945 0.00731692 0)
(0.0954633 0.000403547 0)
(0.0954823 -0.00672132 0)
(0.0929542 -0.0141572 0)
(0.0877717 -0.0219902 0)
(0.0797554 -0.0300863 0)
(0.0685658 -0.0377947 0)
(0.0541522 -0.0429906 0)
(0.0338538 -0.0415888 0)
(0.0131343 -0.0302446 0)
(-0.00409292 -0.303557 0)
(-0.0539798 -0.0435861 0)
(-0.0676827 0.0143995 0)
(-0.0688313 0.035804 0)
(-0.0626402 0.049013 0)
(-0.0516723 0.0578733 0)
(-0.0376469 0.0632012 0)
(-0.0219433 0.0653697 0)
(-0.00518313 0.0647268 0)
(0.0119302 0.0617438 0)
(0.0277064 0.0567167 0)
(0.0413336 0.0498948 0)
(0.0528336 0.041597 0)
(0.0621471 0.0324223 0)
(0.0690986 0.0228046 0)
(0.0736615 0.0129926 0)
(0.0758823 0.00303681 0)
(0.075871 -0.00717966 0)
(0.073759 -0.0178148 0)
(0.0696517 -0.0289859 0)
(0.0636088 -0.040657 0)
(0.0555105 -0.0523313 0)
(0.045172 -0.0622387 0)
(0.0312887 -0.0657817 0)
(0.0154336 -0.0563395 0)
(0.00685336 -0.376596 0)
(-0.0463779 -0.0822374 0)
(-0.0645452 0.00371854 0)
(-0.0685508 0.0386323 0)
(-0.0647074 0.0594322 0)
(-0.055651 0.0732818 0)
(-0.0434095 0.0818339 0)
(-0.0293484 0.0858986 0)
(-0.0143672 0.0862051 0)
(0.000892175 0.082662 0)
(0.0152692 0.0755083 0)
(0.0278317 0.0658237 0)
(0.0383774 0.0546013 0)
(0.0468297 0.0424191 0)
(0.0530208 0.0297642 0)
(0.0570105 0.0169733 0)
(0.0589366 0.00418363 0)
(0.0589574 -0.00863833 0)
(0.0572305 -0.0216562 0)
(0.0538982 -0.0350642 0)
(0.0490717 -0.0489734 0)
(0.0427612 -0.0631824 0)
(0.0347593 -0.0765164 0)
(0.0246692 -0.0851502 0)
(0.0143991 -0.0859112 0)
(0.0160097 -0.437396 0)
(-0.0380238 -0.130467 0)
(-0.0621541 -0.0141126 0)
(-0.0696098 0.0374162 0)
(-0.0685786 0.0673341 0)
(-0.0611753 0.0866309 0)
(-0.0504911 0.0985286 0)
(-0.0377294 0.104437 0)
(-0.0241067 0.105184 0)
(-0.0104912 0.101036 0)
(0.00246493 0.0924766 0)
(0.0141883 0.0806133 0)
(0.0241566 0.0667181 0)
(0.0320247 0.0516519 0)
(0.0377121 0.0361362 0)
(0.0413534 0.0206595 0)
(0.0431766 0.00542226 0)
(0.0434044 -0.00961645 0)
(0.0422163 -0.0246425 0)
(0.0397589 -0.0398801 0)
(0.0361431 -0.0554944 0)
(0.0314139 -0.071422 0)
(0.0254041 -0.0868904 0)
(0.0176204 -0.099238 0)
(0.0114357 -0.105468 0)
(0.0247341 -0.485893 0)
(-0.026983 -0.183058 0)
(-0.0547411 -0.0391767 0)
(-0.067886 0.0309721 0)
(-0.0704316 0.0717727 0)
(-0.0657211 0.0972839 0)
(-0.0572129 0.11299 0)
(-0.0463608 0.120921 0)
(-0.0343127 0.122261 0)
(-0.0219822 0.117737 0)
(-0.010051 0.108105 0)
(0.000868819 0.0944439 0)
(0.0102027 0.0780556 0)
(0.0175595 0.0602195 0)
(0.0228628 0.0420175 0)
(0.0262991 0.0241408 0)
(0.0281708 0.0068386 0)
(0.0287536 -0.00997429 0)
(0.0282398 -0.026559 0)
(0.0267655 -0.043208 0)
(0.0244235 -0.060143 0)
(0.0212587 -0.0773713 0)
(0.0171934 -0.0943301 0)
(0.011468 -0.109216 0)
(0.00813661 -0.118653 0)
(0.0306141 -0.523537 0)
(-0.0135152 -0.234008 0)
(-0.0431887 -0.0713905 0)
(-0.0614637 0.0180832 0)
(-0.0681872 0.0710989 0)
(-0.0676384 0.104072 0)
(-0.0621704 0.124223 0)
(-0.0539473 0.134747 0)
(-0.0439926 0.137339 0)
(-0.0332533 0.13301 0)
(-0.0224502 0.122619 0)
(-0.0123423 0.107333 0)
(-0.00358442 0.0886579 0)
(0.00338384 0.0682354 0)
(0.00844958 0.0475674 0)
(0.0118268 0.0275954 0)
(0.0138835 0.00860903 0)
(0.014942 -0.00956648 0)
(0.0152016 -0.0273041 0)
(0.0147845 -0.0449802 0)
(0.0137674 -0.0628765 0)
(0.0121927 -0.08106 0)
(0.0100613 -0.099106 0)
(0.00640857 -0.115702 0)
(0.00562577 -0.127161 0)
(0.0352291 -0.553276 0)
(-0.000276379 -0.279428 0)
(-0.0307209 -0.105701 0)
(-0.0517918 -0.000758285 0)
(-0.0628711 0.0642873 0)
(-0.0665658 0.105574 0)
(-0.0650567 0.131105 0)
(-0.0600248 0.145029 0)
(-0.0527281 0.149595 0)
(-0.0441303 0.146182 0)
(-0.0347589 0.135697 0)
(-0.0255147 0.119289 0)
(-0.0172179 0.0986837 0)
(-0.010447 0.0759257 0)
(-0.00542563 0.0529978 0)
(-0.00194784 0.0311923 0)
(0.000409747 0.0108641 0)
(0.00202356 -0.00829191 0)
(0.00310659 -0.026808 0)
(0.00377226 -0.045159 0)
(0.00408542 -0.0636775 0)
(0.00408617 -0.0824742 0)
(0.00381795 -0.101228 0)
(0.00221038 -0.118901 0)
(0.0035358 -0.131571 0)
(0.0396133 -0.576638 0)
(0.010938 -0.319651 0)
(-0.0185301 -0.140642 0)
(-0.0411034 -0.0240746 0)
(-0.0557011 0.0519372 0)
(-0.0634974 0.101489 0)
(-0.0659553 0.132992 0)
(-0.0647029 0.151061 0)
(-0.0604895 0.158341 0)
(-0.0546457 0.156739 0)
(-0.0471227 0.147134 0)
(-0.0388218 0.130395 0)
(-0.0308452 0.108415 0)
(-0.0239647 0.0836172 0)
(-0.0186828 0.0585976 0)
(-0.0149039 0.0351395 0)
(-0.0121465 0.0137294 0)
(-0.00994485 -0.00609244 0)
(-0.00803999 -0.0250572 0)
(-0.00631569 -0.0437614 0)
(-0.00471501 -0.0625893 0)
(-0.00320116 -0.0816843 0)
(-0.00174086 -0.100812 0)
(-0.00135648 -0.119095 0)
(0.00155568 -0.132436 0)
(0.044051 -0.595216 0)
(0.0205955 -0.355169 0)
(-0.00706111 -0.174956 0)
(-0.0304474 -0.0501934 0)
(-0.0478031 0.0349385 0)
(-0.0592905 0.0922453 0)
(-0.065823 0.129659 0)
(-0.0684949 0.152294 0)
(-0.0679523 0.162667 0)
(-0.0648694 0.164096 0)
(-0.0598162 0.156619 0)
(-0.0526398 0.140682 0)
(-0.0449142 0.118198 0)
(-0.0375339 0.091805 0)
(-0.0314998 0.0647885 0)
(-0.0270712 0.0396808 0)
(-0.0237624 0.0173061 0)
(-0.0209421 -0.0029445 0)
(-0.0182414 -0.0220724 0)
(-0.0155138 -0.0408385 0)
(-0.012695 -0.0596914 0)
(-0.00975295 -0.0788126 0)
(-0.00671583 -0.0980592 0)
(-0.00442563 -0.116681 0)
(-0.00021981 -0.130248 0)
(0.0485386 -0.610148 0)
(0.0290779 -0.386519 0)
(0.00342569 -0.208139 0)
(-0.0203324 -0.0782051 0)
(-0.0398079 0.0139872 0)
(-0.0545201 0.0780315 0)
(-0.0648656 0.121081 0)
(-0.0714913 0.148306 0)
(-0.0749754 0.162999 0)
(-0.0750221 0.167304 0)
(-0.0728873 0.163474 0)
(-0.0674186 0.149914 0)
(-0.0601636 0.128301 0)
(-0.0519977 0.101145 0)
(-0.0445219 0.0722571 0)
(-0.0387718 0.0452389 0)
(-0.0345657 0.0217389 0)
(-0.0310336 0.00113967 0)
(-0.0275509 -0.0179285 0)
(-0.023879 -0.0364894 0)
(-0.0199165 -0.0550969 0)
(-0.0156336 -0.0739932 0)
(-0.0111264 -0.0931546 0)
(-0.007066 -0.111986 0)
(-0.00186592 -0.125345 0)
(0.0534386 -0.622486 0)
(0.0367597 -0.414491 0)
(0.012932 -0.240091 0)
(-0.0109368 -0.107457 0)
(-0.0320441 -0.0101681 0)
(-0.0495329 0.0594117 0)
(-0.063366 0.107503 0)
(-0.0738012 0.139155 0)
(-0.0810993 0.158212 0)
(-0.0853412 0.166688 0)
(-0.0861903 0.166869 0)
(-0.0836578 0.157285 0)
(-0.0774969 0.13857 0)
(-0.0687596 0.11227 0)
(-0.0592391 0.082098 0)
(-0.0510157 0.0527097 0)
(-0.0449885 0.0274754 0)
(-0.0404215 0.00627892 0)
(-0.0360946 -0.0126595 0)
(-0.0315079 -0.0308129 0)
(-0.0264654 -0.0489313 0)
(-0.0209023 -0.0673669 0)
(-0.0149404 -0.0862705 0)
(-0.00922264 -0.105267 0)
(-0.00306963 -0.118146 0)
(0.058689 -0.633145 0)
(0.0440008 -0.439846 0)
(0.0216731 -0.270934 0)
(-0.00217049 -0.137612 0)
(-0.0246085 -0.0369362 0)
(-0.0445111 0.036926 0)
(-0.0614859 0.0893049 0)
(-0.0755151 0.124947 0)
(-0.0867281 0.147856 0)
(-0.0950572 0.160912 0)
(-0.0997934 0.165634 0)
(-0.101262 0.161313 0)
(-0.0974743 0.147886 0)
(-0.0893106 0.125124 0)
(-0.0780994 0.0955816 0)
(-0.0661681 0.0639128 0)
(-0.0564271 0.0356053 0)
(-0.049646 0.0129345 0)
(-0.0441482 -0.00616052 0)
(-0.0385599 -0.0238369 0)
(-0.0324548 -0.0412491 0)
(-0.0255935 -0.0589285 0)
(-0.0179917 -0.0772117 0)
(-0.0103474 -0.0962071 0)
(-0.0032239 -0.109766 0)
(0.0645818 -0.642776 0)
(0.0512732 -0.463273 0)
(0.0300852 -0.300875 0)
(0.00628882 -0.168503 0)
(-0.0172595 -0.0659433 0)
(-0.039207 0.0110195 0)
(-0.0589249 0.0668901 0)
(-0.0762039 0.106034 0)
(-0.0910126 0.132497 0)
(-0.10325 0.149413 0)
(-0.112526 0.158599 0)
(-0.118383 0.160939 0)
(-0.11944 0.15376 0)
(-0.114042 0.137676 0)
(-0.103333 0.112521 0)
(-0.0885537 0.0812598 0)
(-0.0730527 0.0491036 0)
(-0.0609429 0.0224576 0)
(-0.0525776 0.00208638 0)
(-0.0454879 -0.0153143 0)
(-0.0382292 -0.0319506 0)
(-0.0300304 -0.0486849 0)
(-0.02029 -0.0661187 0)
(-0.00997474 -0.0848054 0)
(-0.00509025 -0.10146 0)
(0.0715409 -0.651858 0)
(0.059144 -0.485336 0)
(0.0388285 -0.330113 0)
(0.0150165 -0.200021 0)
(-0.00942785 -0.0968126 0)
(-0.033039 -0.0177822 0)
(-0.0550513 0.0407899 0)
(-0.0751342 0.0828393 0)
(-0.0931521 0.112328 0)
(-0.10899 0.132585 0)
(-0.12241 0.145637 0)
(-0.132873 0.15253 0)
(-0.139799 0.154018 0)
(-0.140906 0.145471 0)
(-0.134445 0.128911 0)
(-0.121404 0.103532 0)
(-0.102738 0.0722034 0)
(-0.082358 0.0401279 0)
(-0.0660385 0.013965 0)
(-0.0545611 -0.00541916 0)
(-0.0447662 -0.0213921 0)
(-0.0343411 -0.0365648 0)
(-0.0206221 -0.0517736 0)
(-0.00132216 -0.067177 0)
(0.0158708 -0.0851945 0)
(0.0799912 -0.660651 0)
(0.0682231 -0.506549 0)
(0.0485229 -0.358907 0)
(0.0247032 -0.231971 0)
(-0.000397103 -0.129146 0)
(-0.0252803 -0.0488811 0)
(-0.0490771 0.0117013 0)
(-0.0713556 0.0560689 0)
(-0.0919671 0.0880093 0)
(-0.110857 0.11101 0)
(-0.127973 0.127133 0)
(-0.142912 0.137726 0)
(-0.155071 0.143685 0)
(-0.163818 0.145153 0)
(-0.166242 0.137564 0)
(-0.160568 0.122717 0)
(-0.147162 0.0998815 0)
(-0.126428 0.0713229 0)
(-0.101585 0.0412047 0)
(-0.0785249 0.0147362 0)
(-0.0611185 -0.00490691 0)
(-0.0459824 -0.0183216 0)
(-0.0313936 -0.0265163 0)
(-0.016335 -0.0272398 0)
(-0.0012472 -0.0157196 0)
(0.0903565 -0.669183 0)
(0.0791353 -0.526987 0)
(0.0599488 -0.387405 0)
(0.0362534 -0.264365 0)
(0.0106758 -0.162575 0)
(-0.0151245 -0.0816897 0)
(-0.0401738 -0.0196005 0)
(-0.0639782 0.0266156 0)
(-0.0862954 0.0603702 0)
(-0.107473 0.0852951 0)
(-0.127623 0.103759 0)
(-0.146032 0.117026 0)
(-0.162673 0.126145 0)
(-0.177247 0.131564 0)
(-0.188328 0.132947 0)
(-0.194431 0.128 0)
(-0.19334 0.116448 0)
(-0.18475 0.0988739 0)
(-0.168231 0.0761713 0)
(-0.146972 0.0525117 0)
(-0.125531 0.0317069 0)
(-0.108174 0.0137124 0)
(-0.0998 -0.0045422 0)
(-0.104137 -0.0279592 0)
(-0.127666 -0.0658032 0)
(0.103097 -0.67735 0)
(0.0925235 -0.546705 0)
(0.0739669 -0.415427 0)
(0.0505009 -0.296902 0)
(0.0246674 -0.196739 0)
(-0.00174999 -0.115688 0)
(-0.0276733 -0.0523864 0)
(-0.0524977 -0.00453426 0)
(-0.0758611 0.0307494 0)
(-0.098119 0.0567563 0)
(-0.119655 0.076594 0)
(-0.140331 0.0917762 0)
(-0.159778 0.102983 0)
(-0.177936 0.11083 0)
(-0.194705 0.115288 0)
(-0.20934 0.116037 0)
(-0.220672 0.112329 0)
(-0.226781 0.101635 0)
(-0.229801 0.0846877 0)
(-0.228254 0.060682 0)
(-0.225058 0.0324721 0)
(-0.223293 0.00164018 0)
(-0.224962 -0.0314681 0)
(-0.231462 -0.0680643 0)
(-0.240223 -0.109536 0)
(0.118585 -0.684782 0)
(0.108912 -0.56552 0)
(0.0912091 -0.442795 0)
(0.0681879 -0.329302 0)
(0.0423706 -0.231301 0)
(0.0156176 -0.150484 0)
(-0.010882 -0.0862043 0)
(-0.0363799 -0.0367198 0)
(-0.0604515 0.000339242 0)
(-0.082993 0.027705 0)
(-0.104443 0.0483253 0)
(-0.12526 0.0643192 0)
(-0.145416 0.0767531 0)
(-0.164845 0.0858641 0)
(-0.183456 0.0918037 0)
(-0.201317 0.0944862 0)
(-0.218209 0.0932981 0)
(-0.233381 0.0873222 0)
(-0.245784 0.0758639 0)
(-0.254819 0.0583783 0)
(-0.259989 0.0348723 0)
(-0.262329 0.00623409 0)
(-0.263045 -0.0262607 0)
(-0.257888 -0.0602675 0)
(-0.248277 -0.0920745 0)
(0.137058 -0.690921 0)
(0.128715 -0.582988 0)
(0.112225 -0.469146 0)
(0.0900063 -0.361216 0)
(0.0645442 -0.265891 0)
(0.0377783 -0.185693 0)
(0.0110317 -0.120658 0)
(-0.0148206 -0.069574 0)
(-0.0392272 -0.0305036 0)
(-0.0619654 -0.00109669 0)
(-0.083162 0.0210022 0)
(-0.103072 0.037948 0)
(-0.122146 0.0510664 0)
(-0.140615 0.0608987 0)
(-0.158401 0.0675861 0)
(-0.175449 0.0710454 0)
(-0.191655 0.0711466 0)
(-0.206602 0.0673812 0)
(-0.21972 0.0592843 0)
(-0.230311 0.0465241 0)
(-0.237472 0.0292368 0)
(-0.24028 0.00804735 0)
(-0.23783 -0.0159075 0)
(-0.229052 -0.0407193 0)
(-0.213252 -0.0631144 0)
(0.158585 -0.695058 0)
(0.152152 -0.598468 0)
(0.137414 -0.493905 0)
(0.116497 -0.392124 0)
(0.0918262 -0.300034 0)
(0.0654287 -0.22086 0)
(0.0387743 -0.155327 0)
(0.0128649 -0.102724 0)
(-0.0116452 -0.061573 0)
(-0.0344172 -0.0299103 0)
(-0.0554216 -0.00565749 0)
(-0.0748386 0.0130036 0)
(-0.0929455 0.0273483 0)
(-0.10995 0.0382366 0)
(-0.125897 0.046025 0)
(-0.140676 0.050804 0)
(-0.154193 0.0524568 0)
(-0.166259 0.0507369 0)
(-0.176507 0.0453896 0)
(-0.184341 0.0362674 0)
(-0.189065 0.0238283 0)
(-0.189912 0.00892405 0)
(-0.186271 -0.00750121 0)
(-0.177705 -0.0243233 0)
(-0.164396 -0.0400528 0)
(0.183025 -0.696356 0)
(0.179186 -0.611118 0)
(0.166896 -0.516279 0)
(0.147941 -0.421321 0)
(0.124638 -0.333132 0)
(0.0990804 -0.255492 0)
(0.0728813 -0.189786 0)
(0.047181 -0.13586 0)
(0.0227368 -0.0926584 0)
(-2.00645e-05 -0.0586465 0)
(-0.0209434 -0.0320869 0)
(-0.0401034 -0.0113351 0)
(-0.0576716 0.00490972 0)
(-0.0737992 0.017549 0)
(-0.0885266 0.0270784 0)
(-0.101778 0.0336588 0)
(-0.113353 0.0372726 0)
(-0.123061 0.0379267 0)
(-0.130804 0.0354097 0)
(-0.136339 0.0296518 0)
(-0.13923 0.0211997 0)
(-0.139147 0.0108362 0)
(-0.135848 -0.000678642 0)
(-0.129315 -0.0126155 0)
(-0.119857 -0.0242392 0)
(0.209989 -0.693922 0)
(0.209471 -0.619949 0)
(0.200446 -0.535266 0)
(0.184276 -0.44789 0)
(0.163085 -0.364408 0)
(0.138985 -0.288986 0)
(0.113708 -0.223604 0)
(0.0885373 -0.168678 0)
(0.0643546 -0.123638 0)
(0.0416884 -0.0873397 0)
(0.0207829 -0.0583791 0)
(0.00167256 -0.0353406 0)
(-0.0157361 -0.0169772 0)
(-0.0315579 -0.00231674 0)
(-0.045821 0.009281 0)
(-0.0584395 0.0181084 0)
(-0.0692786 0.0241436 0)
(-0.0781745 0.0272911 0)
(-0.0850662 0.0274897 0)
(-0.0899065 0.0247441 0)
(-0.0925003 0.0195024 0)
(-0.0926997 0.0125221 0)
(-0.0904623 0.00443579 0)
(-0.0858584 -0.0042392 0)
(-0.0791235 -0.0130182 0)
(0.238841 -0.6869 0)
(0.242326 -0.623903 0)
(0.237425 -0.549697 0)
(0.224996 -0.470682 0)
(0.206847 -0.392851 0)
(0.185015 -0.320527 0)
(0.16131 -0.256182 0)
(0.13715 -0.200787 0)
(0.113552 -0.154277 0)
(0.091171 -0.115936 0)
(0.0703558 -0.0846961 0)
(0.0512233 -0.0593713 0)
(0.0337427 -0.038824 0)
(0.0178381 -0.0220636 0)
(0.00351282 -0.00832805 0)
(-0.00911259 0.00277813 0)
(-0.0199845 0.011271 0)
(-0.0290465 0.0170095 0)
(-0.0362764 0.019795 0)
(-0.0415915 0.0196885 0)
(-0.0448664 0.0172615 0)