/*--------------------------------*- C++ -*----------------------------------*\
| =========                 |                                                 |
| \\      /  F ield         | OpenFOAM: The Open Source CFD Toolbox           |
|  \\    /   O peration     | Version:  v2012                                 |
|   \\  /    A nd           | Website:  www.openfoam.com                      |
|    \\/     M anipulation  |                                                 |
\*---------------------------------------------------------------------------*/
FoamFile
{
    version     2.0;
    format      ascii;
    class       volScalarField;
    location    "621";
    object      age;
}
// * * * * * * * * * * * * * * * * * * * * * * * * * * * * * * * * * * * * * //

dimensions      [0 0 1 0 0 0 0];


internalField   nonuniform List<scalar> 
6108
(
0.489352
0.464167
0.438995
0.413834
0.388684
0.363542
0.33841
0.313285
0.288169
0.263061
0.237962
0.212871
0.187789
0.162716
0.137653
0.112601
0.087559
0.0625286
0.0375097
0.0125018
0.487557
0.462536
0.437521
0.41251
0.387502
0.362496
0.337492
0.312488
0.287486
0.262484
0.237483
0.212482
0.187482
0.162483
0.137485
0.112487
0.0874904
0.0624938
0.0374972
0.0124996
0.487088
0.462115
0.437146
0.412177
0.387209
0.362241
0.337272
0.312301
0.287329
0.262355
0.23738
0.212403
0.187424
0.162442
0.137459
0.112472
0.0874837
0.0624921
0.0374974
0.0124998
0.486896
0.461946
0.436997
0.412047
0.387097
0.362144
0.33719
0.312233
0.287273
0.262311
0.237346
0.212378
0.187406
0.162431
0.137453
0.11247
0.0874834
0.0624926
0.0374978
0.0124998
0.486811
0.461874
0.436935
0.411995
0.387052
0.362107
0.337159
0.312207
0.287253
0.262295
0.237334
0.21237
0.187401
0.162428
0.137451
0.11247
0.0874837
0.062493
0.037498
0.0124999
0.486794
0.461862
0.436927
0.41199
0.387049
0.362105
0.337157
0.312206
0.287252
0.262295
0.237334
0.212369
0.187401
0.162428
0.137451
0.11247
0.0874837
0.062493
0.037498
0.0124999
0.486844
0.461912
0.436975
0.412033
0.387087
0.362138
0.337186
0.31223
0.287272
0.26231
0.237345
0.212377
0.187406
0.162431
0.137453
0.11247
0.0874834
0.0624926
0.0374978
0.0124998
0.487006
0.462063
0.437111
0.412155
0.387194
0.362231
0.337265
0.312297
0.287326
0.262354
0.237379
0.212402
0.187423
0.162442
0.137458
0.112472
0.0874837
0.0624921
0.0374974
0.0124998
0.487448
0.462468
0.437476
0.412481
0.387483
0.362484
0.337483
0.312483
0.287482
0.262482
0.237481
0.212481
0.187482
0.162483
0.137485
0.112487
0.0874903
0.0624938
0.0374972
0.0124996
0.484773
0.465139
0.438693
0.413857
0.388646
0.36353
0.338399
0.313279
0.288165
0.263059
0.23796
0.21287
0.187788
0.162716
0.137653
0.112601
0.0875589
0.0625286
0.0375097
0.0125018
0.590286
0.565015
0.539772
0.514552
0.587756
0.562681
0.537625
0.512585
0.587061
0.562047
0.53705
0.512065
0.586762
0.561778
0.536808
0.511849
0.586611
0.561645
0.536693
0.51175
0.586556
0.5616
0.536657
0.511724
0.586602
0.561644
0.536702
0.511772
0.586839
0.561845
0.536882
0.511941
0.587463
0.56241
0.537399
0.512416
0.630654
0.598637
0.566199
0.533308
10.9823
11.5173
12.071
13.2978
3.18782
1.95671
1.73606
1.60424
1.51391
1.44295
1.38373
1.33224
1.28625
1.24434
1.20558
1.16929
1.13499
1.10229
1.07092
1.04063
1.01124
0.982586
0.954555
0.927036
0.899942
0.873199
0.846746
0.820532
0.794515
0.768658
0.742933
0.717317
0.691788
0.666333
0.640937
0.615591
10.0968
11.6935
11.6877
7.27653
2.25382
1.82058
1.67407
1.56616
1.48704
1.42193
1.36633
1.31726
1.273
1.23239
1.19465
1.1592
1.1256
1.09352
1.06269
1.0329
1.00397
0.97575
0.948122
0.920983
0.894248
0.867845
0.841715
0.815808
0.790082
0.764503
0.739043
0.713678
0.688391
0.663166
0.637992
0.612858
9.68623
11.218
8.18132
3.47869
1.9485
1.74063
1.62796
1.53713
1.46625
1.40594
1.35346
1.30655
1.26389
1.22454
1.18782
1.15321
1.12034
1.08888
1.05859
1.02926
1.00073
0.972864
0.945541
0.918667
0.892163
0.865962
0.840009
0.814258
0.78867
0.763213
0.737863
0.712598
0.687401
0.662258
0.63716
0.612097
8.81872
8.36696
4.54555
2.1266
1.84656
1.69535
1.59901
1.51853
1.45288
1.39593
1.34568
1.30035
1.25885
1.22039
1.18435
1.15028
1.11784
1.08672
1.05671
1.02762
0.999278
0.971569
0.944381
0.917623
0.891221
0.865109
0.839235
0.813555
0.78803
0.762631
0.737333
0.712115
0.686961
0.661858
0.636796
0.611766
7.43497
5.64949
2.76635
1.93403
1.79192
1.6684
1.5809
1.50675
1.44448
1.38981
1.34105
1.29676
1.25599
1.21805
1.18239
1.14861
1.11638
1.08545
1.05558
1.02661
0.998378
0.970765
0.943661
0.916979
0.890644
0.864593
0.838773
0.81314
0.787659
0.762299
0.737035
0.711849
0.686722
0.661644
0.636605
0.611596
6.27739
3.87334
2.16188
1.88401
1.76051
1.65132
1.56924
1.49909
1.43908
1.38594
1.33818
1.29456
1.25424
1.2166
1.18116
1.14756
1.11549
1.08468
1.05493
1.02607
0.99793
0.970394
0.943355
0.916724
0.890428
0.864406
0.838609
0.812994
0.787526
0.762178
0.736924
0.711747
0.686629
0.66156
0.63653
0.61153
5.44758
2.95492
2.02854
1.85968
1.74066
1.64017
1.5617
1.49427
1.43584
1.38373
1.33652
1.29319
1.25304
1.21555
1.1803
1.14691
1.11506
1.08448
1.05494
1.02625
0.998251
0.970808
0.943822
0.917208
0.890902
0.864849
0.839007
0.813339
0.787817
0.762416
0.737115
0.711895
0.686743
0.661647
0.636596
0.611584
4.81265
2.50349
1.98615
1.84508
1.72762
1.63303
1.55695
1.49113
1.43337
1.38146
1.33442
1.29152
1.25216
1.21564
1.1813
1.14865
1.11738
1.08723
1.05796
1.02941
1.00143
0.973914
0.946781
0.919967
0.89342
0.867102
0.840985
0.815045
0.78926
0.763614
0.738092
0.712679
0.687361
0.662128
0.63697
0.611877
4.35032
2.32567
1.96555
1.83517
1.71925
1.62864
1.55394
1.4891
1.43231
1.38213
1.33755
1.29697
1.25864
1.22138
1.18524
1.15115
1.1188
1.08786
1.05811
1.02932
1.0013
0.973899
0.947009
0.920508
0.894287
0.868257
0.842354
0.816539
0.790792
0.765107
0.739484
0.71393
0.688454
0.663069
0.63778
0.612582
4.02343
2.24854
1.95554
1.82838
1.71424
1.62622
1.55258
1.48915
1.43393
1.38415
1.33634
1.28791
1.23975
1.19716
1.16881
1.1444
1.12056
1.09774
1.07572
1.05414
1.03344
1.01395
0.995086
0.976211
0.956749
0.936269
0.914477
0.891218
0.866463
0.840299
0.812849
0.784274
0.75474
0.724472
0.693649
0.662354
114.469
120.575
126.376
129.047
147.348
148.365
150.461
153.315
145.817
146.232
147.742
153.377
145.589
146.295
148.305
153.631
145.299
145.974
148.007
153.566
145.045
145.72
147.802
153.395
144.797
145.452
147.512
153.169
144.562
145.197
147.2
152.949
144.336
144.954
146.895
152.729
144.12
144.724
146.62
152.512
143.913
144.506
146.383
152.297
143.712
144.302
146.185
152.088
143.519
144.115
146.015
151.905
143.337
143.946
145.88
151.749
143.171
143.798
145.784
151.622
143.015
143.674
145.736
151.528
142.864
143.585
145.742
151.472
142.715
143.544
145.815
151.459
142.587
143.568
145.974
151.497
142.504
143.682
146.242
151.598
142.496
143.928
146.651
151.779
142.61
144.369
147.24
152.059
142.948
145.092
148.05
152.452
143.67
146.212
149.113
152.951
144.992
147.859
150.467
153.529
147.208
150.192
152.173
154.093
150.71
153.407
154.293
154.758
155.894
157.693
156.894
155.514
163.238
163.287
160.064
156.374
173.14
170.32
163.792
157.44
185.849
178.814
168.03
158.575
201.385
188.666
172.692
159.713
219.395
199.612
177.65
160.822
239.245
211.268
182.735
161.877
260.03
223.143
187.762
162.855
280.754
234.684
192.525
163.734
300.367
245.368
196.844
164.499
317.89
254.744
200.573
165.14
332.583
262.488
203.623
165.657
343.959
268.412
205.946
166.051
351.782
272.454
207.538
166.331
356.043
274.646
208.438
166.507
356.876
275.093
208.66
166.617
354.59
273.948
208.202
166.727
349.519
271.356
207.103
166.837
342.021
267.464
205.435
166.948
332.459
262.411
203.264
167.06
321.181
256.326
200.653
167.174
308.5
249.321
197.665
167.291
294.683
241.498
194.357
167.412
279.956
232.95
190.79
167.538
264.506
223.775
187.034
167.67
248.516
214.108
183.183
167.811
232.234
204.172
179.378
167.963
216.083
194.357
175.83
168.13
200.833
185.3
172.818
168.321
187.58
177.781
170.692
168.547
177.658
172.7
169.654
168.856
171.916
170.406
169.89
169.917
171.507
171.914
172.824
175.004
3.79782
2.20808
1.95154
1.82409
1.71183
1.62565
1.55321
1.49088
1.4348
1.38093
1.32912
1.28732
1.26943
1.28428
1.37165
1.5869
2.02321
2.81009
4.14316
6.26181
9.42477
13.8702
19.7
26.6302
33.8805
41.286
48.6627
55.9034
62.958
69.8448
76.5702
83.1619
89.6496
96.1088
102.51
108.662
3.64327
2.18571
1.95104
1.82208
1.71171
1.62709
1.55567
1.49271
1.433
1.37677
1.33748
1.33329
1.43348
1.7705
2.54083
4.21657
7.83025
14.9709
25.8458
39.6479
55.3475
71.571
86.9588
100.486
111.791
121.279
128.813
134.287
138.444
141.463
143.679
145.218
146.182
146.626
146.692
146.899
3.53678
2.17391
1.95287
1.82231
1.71379
1.63038
1.55841
1.49113
1.42578
1.3777
1.3707
1.52288
2.04799
3.53821
7.83426
17.5383
33.4792
54.4175
76.9376
98.6193
117.504
132.359
142.987
149.866
153.767
155.442
155.545
154.705
153.477
151.863
149.894
148.001
146.583
145.875
145.662
145.64
3.46079
2.1686
1.95646
1.82463
1.71785
1.63469
1.55972
1.48648
1.42116
1.39612
1.47966
1.92155
4.17111
11.4672
26.8945
50.4814
78.6077
106.987
131.593
150.766
164.349
173.261
178.715
181.659
182.633
181.805
179.305
175.294
170.127
164.22
158.107
152.494
148.265
146.103
145.468
145.392
3.40496
2.16765
1.96154
1.8289
1.72349
1.63911
1.55931
1.48232
1.42898
1.44051
1.62012
3.86752
12.6182
31.5595
60.3144
94.4955
127.731
155.677
176.835
192.018
202.588
209.535
213.217
213.723
211.315
206.599
200.089
192.222
183.422
174.136
164.912
156.494
149.912
146.281
145.298
145.123
3.36339
2.16986
1.96801
1.83493
1.73024
1.64299
1.55744
1.48128
1.4552
1.55455
2.54447
10.4957
30.0741
61.6594
100.545
139.159
171.81
196.977
215.694
229.224
237.996
242.079
241.898
238.397
232.362
224.371
214.91
204.388
193.19
181.721
170.473
160.131
151.722
146.6
145.121
144.889
3.3325
2.17453
1.97581
1.84249
1.73757
1.64602
1.55643
1.49201
1.495
1.66354
6.18073
23.4584
54.7305
96.5701
140.615
179.34
210.058
233.62
251.07
262.437
267.766
267.951
264.343
257.812
249.121
238.808
227.27
214.837
201.84
188.658
175.762
163.797
153.762
147.124
144.972
144.668
3.30992
2.1812
1.98485
1.85134
1.74525
1.64895
1.55821
1.51107
1.574
2.52814
13.7615
41.6003
83.2123
131.567
177.059
214.632
244.297
267.079
282.77
291.158
293.21
290.425
283.981
274.932
264.037
251.796
238.528
224.484
209.939
195.252
180.888
167.47
155.942
147.834
144.845
144.461
3.29399
2.18955
1.99507
1.86125
1.75298
1.65196
1.56708
1.54424
1.65187
5.26072
25.2726
62.8709
112.331
163.971
209.304
246.256
275.88
298.121
312.163
318.33
317.892
312.328
303.095
291.46
278.293
264.107
249.161
233.605
217.626
201.536
185.797
171.037
158.155
148.658
144.733
144.265
3.2835
2.19936
2.00638
1.872
1.76096
1.65718
1.58202
1.57781
1.72153
10.1598
39.3141
85.221
139.971
192.927
238.051
275.512
306.094
328.678
342.236
346.998
344.142
335.513
323.031
308.307
292.452
276.054
259.309
242.229
224.86
207.428
190.377
174.356
160.253
149.51
144.628
144.076
3.27752
2.21044
2.01866
1.8835
1.76963
1.66483
1.59929
1.63417
2.34612
17.2319
54.5937
107.093
165.122
218.613
264.317
303.696
336.728
361.269
375.487
379.085
373.52
361.193
344.643
326.03
306.833
287.779
268.995
250.303
231.547
212.816
194.511
177.3
162.096
150.284
144.518
143.89
3.27535
2.22266
2.03184
1.89568
1.7792
1.67554
1.62437
1.68034
3.87947
25.8139
70.0504
127.542
187.551
241.618
289.131
332.192
369.68
397.84
413.415
415.821
407.023
390.117
368.455
344.947
321.592
299.321
278.18
257.745
237.582
217.586
198.085
179.758
163.566
150.869
144.394
143.703
3.27638
2.2359
2.04583
1.90857
1.78995
1.68887
1.65189
1.72313
6.24925
34.9915
84.9442
146.121
207.431
262.616
313.447
362.266
406.307
439.371
456.703
457.772
445.087
422.596
394.66
365.145
336.73
310.625
286.782
264.457
242.862
221.632
200.996
181.634
164.567
151.168
144.245
143.513
3.28013
2.25003
2.06056
1.92213
1.80175
1.70611
1.68015
1.76618
9.30078
44.1849
98.8045
162.683
225.055
282.188
338.022
394.745
447.133
485.981
505.321
504.805
487.536
458.449
423.075
386.439
352.072
321.538
294.671
270.328
247.283
224.855
203.148
182.843
165.022
151.111
144.058
143.318
3.28623
2.26497
2.07596
1.93637
1.81483
1.72591
1.70934
1.80938
12.8419
52.9989
111.37
177.245
240.713
300.746
363.275
429.816
491.858
537.037
558.479
556.059
533.558
496.967
453.111
408.354
367.255
331.8
301.668
275.232
250.744
227.164
204.456
183.308
164.873
150.677
143.808
143.121
3.29437
2.28063
2.09198
1.95134
1.82944
1.74529
1.73618
1.85107
16.6636
61.1846
122.55
189.942
254.692
318.556
389.264
467.06
539.516
591.238
614.68
610.004
581.741
536.937
483.781
430.133
381.735
341.054
307.556
279.033
253.147
228.473
204.843
182.97
164.093
149.846
143.495
142.923
3.30428
2.29694
2.10857
1.96707
1.8453
1.76425
1.77343
2.09082
20.6392
68.604
132.357
200.958
267.246
335.765
415.776
505.638
588.692
646.787
671.89
664.598
630.217
576.748
513.781
450.788
394.836
348.88
312.094
281.592
254.397
228.706
204.249
181.783
162.644
148.644
143.158
142.726
3.31574
2.31383
2.1257
1.98351
1.86217
1.786
1.8069
2.47055
24.4191
75.2019
140.862
210.483
278.57
352.403
442.424
544.535
637.78
701.609
727.751
717.486
676.867
614.561
541.611
469.204
405.809
354.837
315.046
282.783
254.413
227.804
202.622
179.704
160.533
147.173
142.853
142.531
3.32856
2.33124
2.14333
2.00062
1.87999
1.80918
1.83628
2.93467
27.8723
80.9766
148.165
218.692
288.806
368.413
468.75
582.734
685.182
753.572
779.803
766.246
719.561
648.512
565.737
484.249
413.932
358.524
316.215
282.506
253.133
225.716
199.917
176.724
157.804
145.644
142.617
142.342
3.34256
2.34911
2.1614
2.01835
1.89868
1.83288
1.86428
3.43742
30.9488
85.9607
154.377
225.736
298.04
383.662
494.221
619.22
729.385
800.678
825.768
808.68
756.38
676.895
584.751
494.916
418.599
359.636
315.461
280.696
250.533
222.401
196.111
172.862
154.563
144.194
142.345
142.167
3.35759
2.36741
2.1799
2.03665
1.91809
1.85676
1.89191
3.94248
33.6331
90.2028
159.61
231.744
306.318
397.966
518.301
653.114
769.157
841.308
863.951
843.177
785.802
698.308
597.504
500.434
419.399
357.993
312.743
277.379
246.588
217.832
191.206
168.187
151.001
142.992
142.055
142.048
3.37353
2.38607
2.19877
2.05547
1.93812
1.88072
1.91932
4.42241
35.9273
93.7574
163.964
236.821
313.656
411.131
540.486
683.521
803.238
874.627
893.562
868.978
806.823
711.748
603.218
500.363
416.157
353.611
308.165
272.584
241.285
211.998
185.245
162.839
147.458
142.196
141.834
141.963
3.39026
2.40508
2.21799
2.07476
1.95866
1.90471
1.94654
4.85819
37.8463
96.682
167.53
241.053
320.055
422.953
560.297
710.112
832.88
899.975
913.453
886.098
818.946
716.654
601.562
494.634
408.964
346.727
301.885
266.368
234.625
204.915
178.327
157.075
144.586
141.881
141.669
141.919
3.4077
2.42438
2.23752
2.09449
1.97964
1.92872
1.97357
5.23762
39.4122
99.0342
170.391
244.51
325.502
433.243
577.39
732.443
855.354
911.973
921.02
894.911
822.089
712.977
592.658
483.404
398.27
337.731
294.119
258.792
226.615
196.648
170.648
151.34
142.561
141.566
141.591
142.074
3.42574
2.44395
2.25734
2.1146
2.00098
1.95275
2.00041
5.55388
40.6503
100.869
172.619
247.253
329.985
441.846
591.469
750.047
870.867
916.502
919.435
896.034
816.585
700.944
576.753
467.395
384.787
327.116
285.084
249.901
217.287
187.338
162.55
146.37
141.534
141.375
141.577
142.667
3.44433
2.46377
2.27742
2.13505
2.02265
1.9768
2.02708
5.80431
41.5873
102.236
174.277
249.332
333.496
448.64
602.3
762.687
880.098
917.949
918.318
890.398
802.523
680.897
554.77
447.646
369.393
315.385
274.946
239.723
206.725
177.249
154.597
142.976
141.3
141.315
141.907
144.07
3.4634
2.4838
2.29773
2.15581
2.04459
2.00086
2.05357
5.98938
42.2497
103.182
175.419
250.792
336.033
453.544
609.73
770.234
883.937
918.797
916.501
877.811
780.203
653.828
527.97
425.438
353.008
302.954
263.791
228.288
195.109
166.841
147.666
141.225
141.135
141.396
143.229
146.871
3.48291
2.50403
2.31826
2.17685
2.06676
2.02492
2.0799
6.11195
42.663
103.747
176.094
251.674
337.611
456.522
613.664
772.82
882.513
920.126
911.616
856.916
750.42
621.073
497.899
402.152
336.447
290.075
251.627
215.677
182.781
156.844
143.135
141.014
141.12
142.392
146.404
151.677
3.5028
2.52445
2.33899
2.19814
2.08915
2.049
2.10607
6.17488
42.8527
103.971
176.347
252.019
338.246
457.567
614.278
770.581
875.47
914.363
897.828
827.4
714.471
584.219
466.261
379.101
320.281
276.801
238.433
202.093
170.317
148.368
140.904
140.906
141.599
145.438
152.361
159.263
3.523
2.54503
2.35989
2.21966
2.11173
2.07309
2.13206
6.19854
42.8363
103.883
176.2
251.848
338.006
456.848
611.665
763.591
862.641
898.888
870.048
790.918
674.078
544.968
434.787
357.342
304.747
263.029
224.244
187.929
158.599
143.018
140.683
141.122
144.108
152.139
162.385
170.443
3.54351
2.56576
2.38097
2.24138
2.13447
2.0972
2.15779
6.19793
42.627
103.512
175.682
251.191
336.956
454.494
606.028
752.17
845.152
867.422
835.76
751.279
630.616
505.107
405.077
337.512
289.743
248.606
209.248
173.838
148.892
140.523
140.728
142.496
150.276
163.763
177.515
185.829
3.56427
2.58664
2.4022
2.26328
2.15737
2.12132
2.18328
6.17728
42.2455
102.886
174.826
250.083
335.161
450.646
597.659
736.734
824.572
841.834
800.301
707.734
585.331
466.617
378.364
319.723
274.937
233.47
193.858
160.77
142.914
140.368
141.317
147.28
162.446
182.173
198.792
205.818
3.58529
2.60764
2.42354
2.28534
2.18039
2.14546
2.20858
6.13971
41.7136
102.034
173.667
248.566
332.692
445.475
586.924
717.858
799.217
810.857
758.963
661.737
540.467
431.251
355.262
303.619
259.957
217.771
178.733
150.014
140.134
140.496
143.851
157.775
181.999
208.143
226.377
230.184
3.60633
2.62895
2.44497
2.30753
2.20366
2.16963
2.2337
6.08812
41.0531
100.979
172.233
246.679
329.628
439.172
574.241
696.348
768.329
770.597
714.904
615.676
497.666
400.224
335.763
288.562
244.59
201.917
164.767
143.278
139.883
141.394
151.185
176.296
210.349
241.984
259.849
258.177
3.62737
2.65058
2.46649
2.32985
2.22705
2.19382
2.25867
6.02527
40.2848
99.7481
170.558
244.463
326.05
431.942
560.061
673.028
735.227
730.378
672.205
570.58
458.347
374.285
319.29
273.886
228.918
186.537
153.066
139.768
139.867
144.682
165.593
203.381
247.101
282.586
297.773
288.485
3.64844
2.67249
2.48807
2.35229
2.25054
2.21805
2.28352
5.9537
39.4289
98.3644
168.671
241.961
322.044
423.997
544.842
648.691
701.557
691.59
630.755
527.173
423.98
353.489
304.88
259.165
213.34
172.371
144.987
138.865
140.842
153.547
188.587
239.144
291.007
327.964
338.213
319.616
3.66951
2.69465
2.50973
2.37482
2.27411
2.24232
2.30828
5.87577
38.5042
96.8517
166.603
239.215
317.695
415.547
529.027
624.067
668.395
655.234
590.69
486.689
395.616
337.125
291.549
244.376
198.452
160.145
140.116
138.763
143.914
168.903
218.96
281.471
339.27
375.21
378.482
349.738
3.69061
2.71702
2.53146
2.39746
2.29777
2.26663
2.33296
5.7936
37.5286
95.2332
164.384
236.269
313.086
406.79
513.019
599.792
636.619
621.711
551.925
450.51
373.578
323.994
278.644
229.872
184.869
150.412
137.832
139.315
151.24
191.632
255.86
327.634
388.467
421.119
416.231
377.223
3.71174
2.73956
2.55325
2.42018
2.3215
2.29098
2.35761
5.70911
36.5187
93.5318
162.045
233.164
308.297
397.907
497.179
576.393
607.077
590.862
514.63
420.031
357.342
312.823
266.012
216.205
173.075
143.877
137.406
141.011
163.649
219.738
295.703
373.626
434.936
462.771
449.412
400.754
3.73289
2.76225
2.5751
2.44297
2.3453
2.31538
2.38223
5.62399
35.4899
91.7698
159.616
229.944
303.405
389.066
481.824
554.28
580.614
562
479.499
396.233
345.674
302.697
253.951
203.906
163.358
139.848
137.317
144.409
180.931
250.71
334.838
415.881
475.574
497.84
476.4
419.348
3.75406
2.78507
2.59701
2.46584
2.36917
2.33983
2.40685
5.53974
34.4561
89.9692
157.125
226.652
298.486
380.421
467.241
533.776
557.96
534.116
447.872
379.295
337.063
293.303
242.984
193.355
155.744
137.508
137.264
150.488
201.654
281.301
369.728
451.46
507.553
524.515
496.317
432.47
3.77526
2.80798
2.61897
2.48876
2.39309
2.36433
2.4315
5.45764
33.4302
88.1515
154.604
223.331
293.613
372.115
453.679
515.14
539.514
506.325
421.569
368.44
330.271
284.878
233.625
184.754
150.09
136.348
137.469
159.51
222.558
307.97
397.741
478.277
527.441
536.714
507.524
439.918
3.79649
2.83096
2.64098
2.51174
2.41707
2.38889
2.45618
5.37877
32.4235
86.3372
152.082
220.025
288.857
364.274
441.342
498.604
525.124
478.439
402.268
362.134
324.741
277.966
226.261
178.184
146.197
135.931
138.014
169.359
240.39
328.476
417.29
494.871
537.46
543.639
511.352
441.706
3.81775
2.85399
2.66303
2.53476
2.4411
2.4135
2.48093
5.30403
31.4461
84.546
149.588
216.775
284.283
357.001
430.372
484.357
514.094
451.4
390.519
358.637
320.604
273.1
221.153
173.672
143.804
135.857
138.666
178.445
253.771
341.601
427.548
500.81
539.547
541.772
507.874
438.308
3.83904
2.87705
2.68513
2.55782
2.46518
2.43817
2.50575
5.23415
30.5064
82.7961
147.149
213.621
279.949
350.375
420.844
472.62
504.201
427.41
385.259
356.788
318.318
270.628
218.497
171.242
142.51
135.785
139.234
184.827
261.106
346.803
428.483
496.277
534.197
533.93
497.692
430.294
3.86035
2.90011
2.70726
2.58091
2.4893
2.4629
2.53066
5.16967
29.6115
81.1037
144.789
210.599
275.903
344.452
412.787
463.515
495.103
409.745
384.154
356.377
318.267
270.754
218.477
170.954
142.122
135.719
139.511
186.921
261.978
344.247
420.571
482.323
517.706
517.486
481.717
418.332
3.88169
2.92316
2.72942
2.60402
2.51345
2.48768
2.55568
5.111
28.767
79.4833
142.531
207.739
272.185
339.271
406.201
456.932
489.025
400.363
384.808
357.793
320.646
273.678
221.326
172.976
142.608
135.659
139.275
184.149
256.55
334.604
405.297
461.605
493.667
493.78
461.125
403.13
3.90306
2.94617
2.75162
2.62716
2.53764
2.51251
2.5808
5.05839
27.9769
77.9466
140.394
205.07
268.826
334.852
401.066
452.874
477.848
397.808
386.744
361.267
325.505
279.538
227.306
177.685
144.229
135.604
137.932
177.434
245.603
318.993
384.007
435.042
464.439
465.441
437.093
385.387
3.92445
2.96913
2.77383
2.65031
2.56187
2.5374
2.60605
5.01197
27.244
76.5033
138.394
202.612
265.852
331.208
397.379
451.006
460.123
399.437
390.32
366.702
332.806
288.364
236.603
185.523
147.884
135.554
135.982
167.519
229.948
298.564
358.378
404.587
431.851
434.247
410.697
365.753
3.94586
2.99203
2.79607
2.67346
2.58601
2.56234
2.63142
4.97178
26.5699
75.1609
136.543
200.385
263.279
328.34
395.043
450.844
441.766
402.499
395.38
374.005
342.423
300.083
249.342
196.841
154.421
135.988
134.172
155.936
210.76
274.506
329.935
371.87
397.461
401.534
382.88
344.802
3.9673
3.01486
2.81831
2.69663
2.61005
2.58732
2.65692
4.93774
25.955
73.9246
134.85
198.4
261.12
326.248
394.369
449.92
428.678
407.283
401.818
383.002
354.126
314.469
265.515
212.322
164.999
138.113
133.337
145.142
189.535
247.928
299.986
338.346
362.531
368.384
354.435
323.014
3.98875
3.0376
2.84057
2.71979
2.63405
2.61235
2.68256
4.90972
25.3991
72.7975
133.324
196.668
259.38
324.912
395.4
447.77
421.161
413.713
409.511
393.478
367.609
331.153
284.82
232.078
180.917
144.312
133.264
136.973
168.27
219.93
269.462
305.238
328.06
335.658
325.994
300.778
4.01022
3.06024
2.86284
2.74295
2.65802
2.63741
2.70833
4.88752
24.901
71.7812
131.968
195.194
258.06
324.368
397.723
444.518
420.334
420.914
418.354
405.194
382.519
349.654
306.728
255.741
202.308
156.99
134.377
132.181
149.494
191.855
238.872
273.508
294.855
303.971
298.048
278.407
4.03171
3.08279
2.88512
2.76611
2.68199
2.66251
2.73424
4.87089
24.4587
70.8754
130.783
193.979
257.157
324.674
400.92
441.517
422.063
428.84
428.186
417.936
398.524
369.452
330.525
282.627
229.2
178.052
141.844
130.956
136.462
165.675
208.517
243.676
263.813
273.711
271.023
256.199
4.0532
3.10522
2.90739
2.78926
2.70595
2.68764
2.76028
4.85956
24.0702
70.0785
129.769
193.021
256.66
325.869
404.634
438.979
425.031
437.535
438.863
431.528
415.359
390.102
355.469
311.651
260.307
206.264
159.079
133.216
129.829
144.277
179.129
215.416
236.095
245.412
245.39
234.567
4.07471
3.12754
2.92967
2.8124
2.7299
2.71281
2.78644
4.85321
23.7327
69.3875
128.922
192.317
256.559
327.92
408.517
437.084
430.235
446.792
450.29
445.832
432.832
411.273
380.924
341.697
294.151
240.829
187.95
146.125
128.655
131.15
152.816
187.597
212.23
220.558
221.815
214.305
4.09623
3.14976
2.95194
2.83554
2.75383
2.73802
2.81273
4.8515
23.4431
68.7987
128.239
191.858
256.847
330.915
412.672
436.155
436.983
456.52
462.359
460.735
450.814
432.772
406.492
371.881
328.96
278.624
224.215
173.316
137.679
126.536
133.5
160.133
190
201.294
201.435
196.702
4.11775
3.17187
2.97421
2.85866
2.77773
2.76325
2.83914
4.8541
23.1985
68.3073
127.713
191.633
257.534
334.763
416.039
436.791
444.787
466.671
474.967
476.122
469.193
454.492
431.984
401.684
363.579
317.834
265.563
210.534
161.332
131.727
125.373
136.567
165.344
186.842
186.263
183.235
4.13926
3.19385
2.99648
2.88177
2.80183
2.78851
2.86566
4.86063
22.9951
67.9073
127.336
191.624
258.632
339.269
418.987
438.648
453.322
477.199
488.003
491.858
487.835
476.337
457.362
430.969
397.225
356.275
308.496
255.147
200.034
152.079
126.539
123.687
139.232
168.757
178.633
174.503
4.16105
3.21589
3.01874
2.90487
2.82594
2.81381
2.89239
4.87087
22.8307
67.5958
127.105
191.825
260.167
344.229
421.789
441.69
462.388
488.054
501.335
507.778
506.562
498.131
482.528
459.799
429.991
393.259
349.96
300.758
247.055
192.47
145.505
121.716
120.651
141.618
172.613
172.103
4.17811
3.23465
3.03859
2.92547
2.84758
2.8364
2.91382
4.88158
22.7106
67.3787
126.999
192.146
261.854
348.833
424.229
445.201
470.735
497.902
513.346
522.016
523.206
517.365
504.614
485.005
458.545
425.294
385.514
339.824
289.29
235.703
182.593
137.641
115.717
117.37
144.152
171.901
4.19497
3.25162
3.05604
2.94358
2.86718
2.85628
2.93477
4.89355
22.6265
67.2379
126.991
192.55
263.611
352.955
426.511
448.916
478.242
506.678
523.974
534.523
537.725
534.028
523.604
506.548
482.88
452.602
415.819
372.936
324.862
273.201
220.389
170.255
129.668
110.854
117.066
152.23
4.21163
3.26854
3.07349
2.96168
2.8864
2.87618
2.95577
4.90707
22.5597
67.1383
127.052
193.055
265.594
357.053
428.942
453.114
485.841
515.518
534.618
546.984
552.122
550.461
542.202
527.495
506.402
478.924
445.086
405.095
359.562
309.722
257.591
206.128
159.503
123.563
105.606
102.348
102.252
101.732
101.759
101.951
110.293
103.848
101.476
100.906
128.284
110.981
102.687
100.727
150.901
122.659
105.481
100.627
174.029
136.488
109.959
100.55
195.62
150.302
115.251
100.485
215.021
163.33
120.719
100.428
232.096
175.092
126.023
100.376
247.03
185.495
130.971
100.328
260.079
194.607
135.485
100.282
271.503
202.563
139.554
100.238
281.538
209.512
143.198
100.196
290.381
215.593
146.452
100.155
298.202
220.931
149.356
100.115
305.138
225.629
151.947
100.076
311.303
229.776
154.261
100.038
316.792
233.443
156.329
100
321.681
236.69
158.175
99.9628
326.036
239.567
159.824
99.9259
329.91
242.115
161.293
99.8894
333.35
244.367
162.599
99.8533
336.391
246.35
163.754
99.8174
339.062
248.084
164.767
99.7819
341.381
249.584
165.644
99.7467
343.357
250.857
166.389
99.7119
344.992
251.905
167.003
99.6773
346.281
252.728
167.482
99.643
347.213
253.32
167.823
99.6087
347.774
253.673
168.021
99.5734
347.946
253.776
168.07
99.538
347.708
253.616
167.972
99.5016
347.038
253.174
167.743
99.4346
345.908
252.431
167.37
99.3358
344.284
251.366
166.84
99.2015
342.125
249.953
166.144
99.0299
339.386
248.166
165.267
98.8177
336.018
245.972
164.196
98.5614
331.961
243.339
162.914
98.2571
327.154
240.227
161.404
97.9006
321.53
236.597
159.645
97.4872
315.021
232.409
157.618
97.0119
307.559
227.626
155.303
96.4689
299.076
222.21
152.677
95.8508
289.5
216.122
149.723
95.1453
278.766
209.329
146.421
94.3503
266.821
201.807
142.756
93.4585
253.633
193.543
138.711
92.4616
239.178
184.51
134.259
91.3472
223.432
174.666
129.361
90.0992
206.377
163.963
123.982
88.6973
188.047
152.363
118.066
87.1029
168.534
139.83
111.526
85.2332
147.986
126.346
104.265
82.9563
126.628
111.931
96.1962
80.1711
104.795
96.664
87.2938
77.0601
82.9596
80.6586
77.5646
73.8676
61.7319
64.0333
66.8137
70.0886
42.4435
47.5794
54.9028
65.6842
26.1972
32.1568
41.4463
58.9455
13.4194
18.4717
26.9123
53.0147
4.23286
3.28855
3.09334
2.98226
2.90719
2.89883
2.98213
4.92562
22.5045
67.0753
127.207
193.762
268.133
361.747
431.951
458.439
494.572
525.646
546.731
561.087
568.327
568.855
562.866
550.578
532.11
507.508
476.767
439.972
397.511
350.244
299.63
247.907
198.322
155.186
123.22
106.649
4.25434
3.31034
3.11557
3.00532
2.93109
2.92423
3.00921
4.94702
22.4627
67.056
127.463
194.692
271.256
366.999
435.508
464.891
504.369
536.995
560.234
576.757
586.281
589.144
585.508
575.648
559.764
537.99
510.356
476.883
437.773
393.571
345.327
294.698
244.052
196.534
155.891
126.177
4.27575
3.33201
3.13781
3.02839
2.95517
2.94965
3.03624
4.96981
22.4385
67.0831
127.791
195.753
274.623
372.192
439.251
471.724
514.116
548.285
573.614
592.262
604.016
609.117
607.664
599.922
586.185
566.714
541.662
511.091
475.068
433.843
388.114
339.175
288.887
239.56
194.002
155.82
4.29713
3.35366
3.16003
3.05145
2.97929
2.97508
3.0633
4.99369
22.4281
67.1483
128.18
196.931
278.184
377.283
443.174
478.818
523.752
559.46
586.836
607.614
621.621
628.95
629.576
623.709
611.727
594.027
570.956
542.717
509.333
470.817
427.485
380.218
330.526
280.348
231.918
187.895
4.31849
3.3753
3.18226
3.07451
3.00343
3.00053
3.09038
5.01824
22.4275
67.2418
128.614
198.21
281.879
382.238
447.258
486.06
533.222
570.469
599.878
622.838
639.169
648.764
651.432
647.281
636.731
620.314
598.606
572.01
540.636
504.382
463.225
417.568
368.469
317.564
266.812
218.286
4.33986
3.39694
3.20448
3.09758
3.02757
3.02598
3.11747
5.04304
22.4324
67.3534
129.078
199.565
285.646
387.028
451.469
493.342
542.473
581.264
612.721
637.951
656.72
668.679
673.429
670.927
661.579
646.042
625.111
599.439
569.326
534.699
495.306
451.093
402.577
350.989
298.082
245.711
4.36122
3.41858
3.22672
3.12066
3.05172
3.05145
3.14455
5.06767
22.4384
67.4724
129.557
200.974
289.425
391.63
455.763
500.567
551.453
591.802
625.346
652.964
674.322
688.802
695.741
694.902
686.617
671.64
650.965
625.526
595.899
562.16
523.973
480.913
432.936
380.745
325.815
269.982
4.3826
3.44024
3.24896
3.14375
3.07589
3.07691
3.17161
5.09172
22.4412
67.588
130.034
202.406
293.155
396.022
460.088
507.649
560.116
602.042
637.732
667.877
692.013
709.216
718.513
719.412
712.125
697.465
676.598
650.765
620.877
587.262
549.633
507.322
459.769
407.079
350.323
291.323
4.40401
3.4619