/*--------------------------------*- C++ -*----------------------------------*\
| =========                 |                                                 |
| \\      /  F ield         | OpenFOAM: The Open Source CFD Toolbox           |
|  \\    /   O peration     | Version:  v2012                                 |
|   \\  /    A nd           | Website:  www.openfoam.com                      |
|    \\/     M anipulation  |                                                 |
\*---------------------------------------------------------------------------*/
FoamFile
{
    version     2.0;
    format      ascii;
    class       volScalarField;
    location    "621";
    object      k;
}
// * * * * * * * * * * * * * * * * * * * * * * * * * * * * * * * * * * * * * //

dimensions      [0 2 -2 0 0 0 0];


internalField   nonuniform List<scalar> 
6108
(
0.0473422
0.0511505
0.0554693
0.0604003
0.0660732
0.0726554
0.0803671
0.0895035
0.100469
0.113829
0.130403
0.151409
0.178731
0.21542
0.266671
0.341919
0.459643
0.65959
1.03766
1.86087
0.116515
0.126106
0.136945
0.149269
0.163373
0.179637
0.198544
0.220729
0.247037
0.278613
0.317039
0.364562
0.424445
0.501574
0.603501
0.742296
0.937953
1.22466
1.66173
2.34745
0.155139
0.167888
0.182277
0.198609
0.217257
0.238694
0.263516
0.292492
0.326629
0.367257
0.416175
0.475854
0.549758
0.642851
0.762406
0.919321
1.1303
1.42149
1.83453
2.43732
0.177672
0.192253
0.208696
0.227335
0.248583
0.272952
0.301085
0.333801
0.372152
0.417507
0.47168
0.537103
0.617106
0.71633
0.841395
1.00198
1.21267
1.49626
1.89023
2.4609
0.188349
0.203787
0.221191
0.240908
0.263363
0.289085
0.318733
0.353136
0.393353
0.440748
0.497103
0.564781
0.646971
0.748067
0.874279
1.03468
1.24307
1.52158
1.90793
2.47117
0.188388
0.203817
0.221213
0.240924
0.263376
0.289095
0.31874
0.353141
0.393357
0.440751
0.497105
0.564783
0.646972
0.748067
0.874279
1.03468
1.24307
1.52158
1.90793
2.47117
0.177785
0.192337
0.208758
0.227382
0.248617
0.272976
0.301102
0.333814
0.372161
0.417514
0.471685
0.537107
0.617109
0.716332
0.841396
1.00198
1.21267
1.49626
1.89023
2.4609
0.155306
0.168013
0.182368
0.198674
0.217304
0.238727
0.26354
0.29251
0.326642
0.367266
0.416182
0.475858
0.549761
0.642854
0.762407
0.919322
1.1303
1.42149
1.83453
2.43732
0.116684
0.126243
0.137041
0.149338
0.163424
0.179673
0.19857
0.220749
0.247052
0.278623
0.317047
0.364567
0.424449
0.501577
0.603503
0.742297
0.937954
1.22466
1.66173
2.34745
0.0474006
0.0511921
0.0554995
0.0604225
0.0660894
0.0726673
0.0803759
0.0895099
0.100473
0.113833
0.130406
0.15141
0.178733
0.215421
0.266672
0.341919
0.459643
0.65959
1.03766
1.86087
0.0358078
0.0382445
0.0409484
0.0439633
0.0872929
0.0934858
0.100346
0.10798
0.116249
0.124492
0.133625
0.143785
0.133162
0.142597
0.153051
0.16468
0.141213
0.151203
0.162273
0.17459
0.141315
0.151288
0.162342
0.174642
0.133449
0.142843
0.153248
0.164831
0.116658
0.124866
0.133922
0.14401
0.0882062
0.0940607
0.100725
0.108246
0.0423035
0.0419301
0.042605
0.0443292
0.000964538
0.000855145
0.000875914
0.00113486
0.00213113
0.00311599
0.00404783
0.00492641
0.00573607
0.0065124
0.0072695
0.00801522
0.00875479
0.00949213
0.0102304
0.0109725
0.0117211
0.012479
0.013249
0.0140345
0.0148391
0.0156668
0.0165222
0.0174103
0.0183369
0.0193084
0.0203319
0.0214155
0.0225681
0.0237999
0.025122
0.0265474
0.0280902
0.0297672
0.0315972
0.0336022
0.00170384
0.00212417
0.00360631
0.00542402
0.00685341
0.00808368
0.00939958
0.0109565
0.0126169
0.0142516
0.0158852
0.0175279
0.0191866
0.0208677
0.0225773
0.0243215
0.0261065
0.0279379
0.029822
0.031765
0.033774
0.0358567
0.0380226
0.0402823
0.0426481
0.045134
0.0477565
0.0505342
0.0534886
0.0566444
0.0600295
0.0636761
0.0676197
0.0719019
0.0765701
0.0816792
0.00260527
0.00501413
0.00678065
0.00853292
0.0100631
0.0117648
0.0138799
0.0162781
0.0186779
0.0209974
0.023252
0.0254541
0.0276226
0.0297777
0.0319387
0.0341237
0.0363496
0.0386312
0.0409825
0.0434163
0.0459451
0.0485819
0.05134
0.0542345
0.0572819
0.0605011
0.0639137
0.0675444
0.0714211
0.0755758
0.0800446
0.084869
0.0900962
0.0957804
0.101984
0.108779
0.00388088
0.00757606
0.00943218
0.0111427
0.0129941
0.0153468
0.0181794
0.0211632
0.0240372
0.0267516
0.0293166
0.0317589
0.0341151
0.0364225
0.0387162
0.0410271
0.0433825
0.0458054
0.0483156
0.0509307
0.0536665
0.0565385
0.0595627
0.0627561
0.0661377
0.0697289
0.0735541
0.0776409
0.0820206
0.086729
0.0918066
0.0972997
0.103261
0.109753
0.116843
0.124615
0.00528666
0.00998186
0.0118045
0.0136317
0.0159284
0.0188744
0.022205
0.02553
0.0286445
0.031516
0.0341622
0.0366266
0.0389624
0.0412221
0.0434535
0.0456983
0.0479911
0.0503606
0.0528307
0.0554211
0.0581496
0.0610332
0.064089
0.0673356
0.0707934
0.0744858
0.0784389
0.0826822
0.0872491
0.0921772
0.0975088
0.103292
0.109582
0.11644
0.12394
0.132165
0.00643705
0.0120928
0.0140423
0.0161194
0.0188687
0.0222567
0.0258671
0.0293322
0.0324966
0.0353415
0.0378983
0.0402257
0.0423903
0.0444565
0.0464819
0.0485153
0.0505965
0.0527572
0.0550223
0.0574122
0.0599445
0.062636
0.0655045
0.0685693
0.0718526
0.0753796
0.079179
0.0832827
0.0877265
0.0925496
0.0977957
0.103513
0.109755
0.116583
0.124064
0.132279
0.00734258
0.0139853
0.0161906
0.0185954
0.0217282
0.02539
0.0290997
0.032544
0.0356066
0.0382831
0.0406197
0.0426879
0.0445653
0.0463261
0.0480352
0.0497462
0.051501
0.0533307
0.0552577
0.0572986
0.0594669
0.0617756
0.0642397
0.0668777
0.0697123
0.0727712
0.0760869
0.0796968
0.0836423
0.087969
0.0927258
0.097964
0.103739
0.110109
0.117143
0.124915
0.00813084
0.0156687
0.0182422
0.0209982
0.0244167
0.0281986
0.031867
0.0351626
0.0380036
0.0404016
0.0424172
0.0441343
0.0456419
0.0470236
0.0483518
0.0496837
0.0510608
0.0525095
0.0540435
0.0556679
0.0573831
0.059189
0.0610884
0.0630898
0.0652091
0.0674712
0.0699096
0.072567
0.0754949
0.0787582
0.0824261
0.0865682
0.0912514
0.0965425
0.102506
0.109207
0.00881089
0.0171732
0.0201775
0.0232641
0.0268636
0.0306423
0.0341573
0.0372039
0.039729
0.0417649
0.043388
0.0446975
0.0457979
0.046787
0.0477482
0.0487451
0.0498183
0.0509862
0.0522478
0.053587
0.0549789
0.0563948
0.0578078
0.0591958
0.0605447
0.0618498
0.0631179
0.0643688
0.0656374
0.0669767
0.0684933
0.0703342
0.0726192
0.0754771
0.0789867
0.0831841
0.00939036
0.0185301
0.0219773
0.0253439
0.0290268
0.0327018
0.0359782
0.0386954
0.0408337
0.0424499
0.0436417
0.0445309
0.0452458
0.0459064
0.0466135
0.0474394
0.0484239
0.0495735
0.0508667
0.0522609
0.0537017
0.0551295
0.0564849
0.0577109
0.0587518
0.0595512
0.0600481
0.0601733
0.0598467
0.0589785
0.0574791
0.055253
0.0521877
0.0489487
0.0460339
0.0437366
0.0328232
0.0238057
0.0155789
0.00836219
0.0100398
0.00591948
0.00335704
0.00139245
0.00502495
0.00363609
0.00249091
0.00103761
0.00424812
0.00340121
0.00243055
0.000967125
0.00421777
0.00346969
0.00249406
0.000970305
0.00435353
0.00360851
0.00261111
0.00100633
0.00454444
0.00378512
0.00275045
0.00106647
0.00476479
0.00398727
0.00291231
0.00113586
0.00500485
0.00420833
0.0030923
0.00121333
0.0052598
0.00444437
0.0032868
0.00129926
0.00552691
0.00469309
0.00349348
0.00139557
0.00580436
0.0049531
0.00371326
0.00150395
0.00609297
0.00522731
0.00394628
0.00161923
0.0063925
0.00551289
0.00418984
0.00174085
0.00670014
0.00580807
0.00444272
0.00186789
0.00701351
0.00611124
0.00470383
0.00199981
0.00732993
0.00642044
0.00497182
0.00213598
0.00764613
0.00673307
0.00524472
0.00227543
0.00795805
0.00704561
0.00551977
0.00241674
0.0082607
0.00735351
0.00579308
0.00255774
0.0085482
0.00765119
0.00605965
0.00269498
0.0088137
0.00793223
0.00631367
0.00282261
0.00904896
0.00818924
0.00654878
0.00293218
0.00924447
0.00841276
0.00675452
0.003024
0.00938607
0.0085908
0.006926
0.00310929
0.00947088
0.00872335
0.00706473
0.00319144
0.00949112
0.00879961
0.00715863
0.00324998
0.00943861
0.00880707
0.00719475
0.00329204
0.00931275
0.00873894
0.00717937
0.00331251
0.00911463
0.0086025
0.00710918
0.00330113
0.00885789
0.00840641
0.00698978
0.00326215
0.00855558
0.00815951
0.00682649
0.00320042
0.00821592
0.00787141
0.00662323
0.00311805
0.00785751
0.00755308
0.00638513
0.00301681
0.00749446
0.00721931
0.00612469
0.00290064
0.00713236
0.00688066
0.00585128
0.00277312
0.00678619
0.00654936
0.00557419
0.00263804
0.00646496
0.00623375
0.00530099
0.00249897
0.00617254
0.00593859
0.00503693
0.00235888
0.00590857
0.00566519
0.00478472
0.00221984
0.00566974
0.00541224
0.00454507
0.00208358
0.00545063
0.0051764
0.00431712
0.00195117
0.00524346
0.00495173
0.00409695
0.00182606
0.0050402
0.0047318
0.00388026
0.00171282
0.00483714
0.00451383
0.00366553
0.00160799
0.00463062
0.00429492
0.00345196
0.00150925
0.00441693
0.00407202
0.00323805
0.00141497
0.00419244
0.00384203
0.00302235
0.00132391
0.00395347
0.00360187
0.00280335
0.00123507
0.00369635
0.00334846
0.00257965
0.00114764
0.00341757
0.00307901
0.00235018
0.00106086
0.0031144
0.00279162
0.00211464
0.000974057
0.00278594
0.00248631
0.00187423
0.000886561
0.00243494
0.00216664
0.00163229
0.000797713
0.00206998
0.00184126
0.00139468
0.000706748
0.00170707
0.0015243
0.00116896
0.000612558
0.00136872
0.00123408
0.000963793
0.000513424
0.00107945
0.000991304
0.000789615
0.000405641
0.000842695
0.000791372
0.000630433
0.000285858
0.00047842
0.000437708
0.000343975
0.000138824
0.00991505
0.019809
0.0236984
0.0272824
0.0309624
0.0344417
0.0373965
0.0397094
0.0413944
0.0425413
0.043281
0.043767
0.0441603
0.0446084
0.0452276
0.0460902
0.0472187
0.0485905
0.0501482
0.0518147
0.0535079
0.0551514
0.0566805
0.0580439
0.0592018
0.060122
0.0607759
0.0611337
0.0611468
0.0607199
0.0597959
0.0582723
0.0559845
0.0526986
0.0479881
0.04152
0.0103678
0.0209237
0.0252123
0.0289388
0.0325364
0.0357558
0.0383376
0.0402071
0.0414159
0.0420926
0.0424099
0.0425615
0.0427398
0.0431076
0.0437725
0.0447713
0.0460709
0.0475833
0.0491894
0.0507632
0.052191
0.0533811
0.0542653
0.0547932
0.0549276
0.0546312
0.053856
0.0525534
0.0506189
0.0478512
0.0443405
0.0400729
0.0350399
0.0293348
0.0231986
0.0161235
0.0107588
0.0218639
0.0265022
0.0302972
0.033744
0.0366576
0.0388334
0.0402419
0.0409776
0.0412139
0.0411672
0.0410679
0.0411233
0.0414784
0.0421867
0.0432035
0.0444044
0.0456207
0.046677
0.047422
0.0477434
0.047571
0.0468689
0.0456162
0.043802
0.0414174
0.038383
0.0349049
0.03119
0.0275155
0.0237554
0.0199381
0.0161698
0.0124742
0.00935571
0.00683957
0.0110782
0.022617
0.0275611
0.0313494
0.0346027
0.0371791
0.0389327
0.039882
0.040169
0.040015
0.039676
0.0394003
0.0393778
0.0396915
0.0402986
0.0410492
0.0417328
0.0421334
0.0420748
0.0414433
0.0401947
0.0383326
0.0358969
0.0329463
0.0295356
0.0260136
0.0228138
0.0198667
0.0171334
0.0146579
0.0124137
0.0103952
0.00870087
0.00727975
0.00609306
0.00510075
0.0113332
0.0232001
0.0283793
0.0321092
0.0351386
0.0373608
0.0386928
0.0392034
0.0390855
0.038606
0.0380473
0.0376474
0.0375381
0.0377048
0.0379936
0.0381674
0.0379798
0.0372374
0.0358392
0.0337773
0.0311226
0.0280006
0.024577
0.0210837
0.0181509
0.0157466
0.0137631
0.0121106
0.01072
0.00954218
0.00852988
0.00765053
0.00687968
0.00618307
0.00552248
0.00487641
0.011528
0.023619
0.0289562
0.0326017
0.035385
0.0372505
0.0381775
0.0382874
0.0378246
0.037093
0.0363802
0.0358814
0.0356372
0.0355215
0.0352909
0.0346744
0.0334615
0.0315591
0.0289989
0.0259193
0.0225386
0.0191399
0.0160692
0.0138508
0.0122107
0.0109841
0.010038
0.00927738
0.00863754
0.00807084
0.00754798
0.00704643
0.0065513
0.00605126
0.0055331
0.00497599
0.0116667
0.0238878
0.0293193
0.0328546
0.0353813
0.0369009
0.0374541
0.0372166
0.0364801
0.0355721
0.0347594
0.0341645
0.0337218
0.0332069
0.0323334
0.0308652
0.0286997
0.0258949
0.0226431
0.0192489
0.0160754
0.0134613
0.0117368
0.0106063
0.0098333
0.00927288
0.00883146
0.00845196
0.00809843
0.00774752
0.00738896
0.00701361
0.00661248
0.00617692
0.00569873
0.0051635
0.0117537
0.0240219
0.0294939
0.0328997
0.0351702
0.0363664
0.0365897
0.036069
0.0351363
0.0341239
0.0332523
0.0325521
0.0318536
0.0308695
0.0293284
0.0270925
0.024217
0.0209273
0.0175818
0.0145899
0.0122761
0.010811
0.00994284
0.00940645
0.00904303
0.00876649
0.00852569
0.00829385
0.00805206
0.00778817
0.00749392
0.00716479
0.00679664
0.00638425
0.00591989
0.00538936
0.0117938
0.0240376
0.0295061
0.0327705
0.0347948
0.0357002
0.035647
0.0349141
0.0338626
0.0328102
0.03191
0.0310917
0.0301006
0.0286313
0.0264831
0.0236646
0.0204027
0.017081
0.0141465
0.0119364
0.0105304
0.00975482
0.00931722
0.00904876
0.00886385
0.00871026
0.00855815
0.00838944
0.00819302
0.00796237
0.00769357
0.0073839
0.00703029
0.00662797
0.00616876
0.00563754
0.0117918
0.0239512
0.0293815
0.0325001
0.0342966
0.0349513
0.0346806
0.0338084
0.0327115
0.0316741
0.0307667
0.0298213
0.0285255
0.0266008
0.0239628
0.0207889
0.0174603
0.0144534
0.012154
0.010672
0.00985348
0.00942118
0.00918932
0.00905185
0.0089504
0.00885177
0.00873619
0.00859194
0.00841256
0.00819455
0.00793589
0.00763475
0.00728824
0.00689113
0.00643424
0.00590097
0.0117528
0.0237785
0.0291449
0.0321199
0.0337132
0.0341619
0.0337354
0.0327947
0.0317185
0.030741
0.0298422
0.0287669
0.0271758
0.0248564
0.0218707
0.0185579
0.0154048
0.0128725
0.011168
0.0101868
0.00968162
0.00943041
0.00930431
0.00922973
0.00916642
0.00909036
0.00898722
0.00884924
0.00867278
0.00845647
0.00819977
0.00790156
0.0075588
0.0071654
0.00671063
0.00617585
0.0116814
0.0235347
0.0288192
0.0316583
0.0330772
0.033367
0.0328452
0.0319015
0.0309028
0.0300203
0.0291417
0.0279389
0.0260768
0.0234387
0.0202433
0.0169614
0.0141132
0.0120499
0.0107877
0.0101063
0.00977456
0.00962113
0.00954908
0.00950502
0.00945737
0.00938678
0.0092825
0.00913953
0.00895663
0.00873455
0.00847435
0.0081757
0.00783531
0.00744579
0.00699438
0.00645972
0.0115826
0.0232337
0.0284252
0.03114
0.0324156
0.0325934
0.0320335
0.0311447
0.0302696
0.0295075
0.0286542
0.0273267
0.0252238
0.022347
0.0190612
0.0159194
0.0134052
0.0117229
0.010752
0.0102528
0.0100201
0.00991965
0.00987593
0.00984508
0.00979962
0.00972341
0.00960826
0.00945166
0.00925485
0.009021
0.00875306
0.00845167
0.00811323
0.00772867
0.00728273
0.00675056
0.0114608
0.0228879
0.0279807
0.0305859
0.03175
0.0318604
0.031314
0.0305292
0.0298131
0.029185
0.0283516
0.0268813
0.0245712
0.0215447
0.0182701
0.0153227
0.0131122
0.0117109
0.0109251
0.0105369
0.0103637
0.0102934
0.0102635
0.0102344
0.0101815
0.010091
0.00995682
0.00977906
0.00956171
0.00931071
0.00903132
0.00872538
0.00838893
0.00801084
0.00757442
0.00705033
0.01132
0.0225082
0.0275012
0.0300128
0.0310963
0.0311808
0.030693
0.0300519
0.029518
0.0290219
0.0281615
0.0265521
0.0240677
0.0209786
0.0177958
0.015064
0.0131063
0.0119018
0.0112399
0.0109193
0.0107813
0.0107275
0.0107008
0.0106647
0.0105964
0.0104839
0.0103233
0.0101173
0.00987312
0.00959984
0.00930544
0.00899331
0.00865911
0.00829231
0.00786917
0.00735562
0.0111641
0.0221041
0.0269994
0.029434
0.0304661
0.0305617
0.0301707
0.0297029
0.0293612
0.0289629
0.028064
0.026331
0.0237156
0.0206015
0.0175618
0.0150534
0.0133013
0.0122341
0.0116558
0.0113794
0.0112616
0.0112137
0.0111819
0.0111313
0.0110403
0.0108984
0.010704
0.0104629
0.0101856
0.00988496
0.00957204
0.00925277
0.00892401
0.00856975
0.00816264
0.0076632
0.0109963
0.0216833
0.0264853
0.0288595
0.0298672
0.0300062
0.0297427
0.0294677
0.029315
0.0289781
0.0280469
0.026211
0.023503
0.020399
0.0175165
0.0152212
0.0136403
0.0126749
0.0121533
0.0119055
0.0117976
0.0117475
0.0117033
0.0116309
0.0115099
0.0113312
0.0110957
0.0108125
0.0104957
0.0101626
0.00982954
0.0095032
0.00917875
0.00883839
0.00845061
0.00796959
0.0108196
0.0212523
0.0259672
0.0282968
0.029304
0.0295138
0.029401
0.0293276
0.0293404
0.0290573
0.0281015
0.026184
0.0234168
0.020354
0.0176171
0.0155177
0.0140827
0.0132026
0.0127218
0.0124912
0.0123853
0.012326
0.0122624
0.012161
0.0120022
0.0117789
0.0114946
0.0111621
0.0107994
0.0104321
0.0100759
0.00973937
0.00941833
0.00909338
0.00872851
0.00827083
0.0106365
0.0208164
0.025451
0.0277508
0.0287788
0.0290818
0.0291354
0.0292633
0.0294118
0.0291898
0.0282196
0.0262415
0.0234437
0.0204428
0.0178449
0.0159177
0.0146063
0.0137987
0.0133519
0.013132
0.0130219
0.0129467
0.0128565
0.0127184
0.0125138
0.0122375
0.0118962
0.0115073
0.011097
0.0106898
0.0103057
0.00995595
0.0096375
0.00932949
0.00899129
0.00856225
0.0104492
0.0203798
0.0249414
0.0272249
0.0282917
0.0287056
0.0289351
0.0292586
0.0295233
0.0293672
0.0283931
0.0263747
0.023572
0.0206475
0.0181831
0.0164024
0.0151994
0.0144553
0.0140385
0.0138245
0.0137046
0.013607
0.0134828
0.0132995
0.0130401
0.0127017
0.0122967
0.0118478
0.0113825
0.0109294
0.010513
0.0101473
0.00983068
0.00954107
0.00923332
0.00883847
0.0102597
0.0199457
0.0244418
0.0267209
0.0278416
0.0283794
0.0287889
0.0292982
0.029668
0.0295822
0.0286148
0.0265756
0.0237914
0.0209545
0.0186179
0.0169577
0.0158554
0.0151694
0.0147788
0.0145659
0.0144305
0.0143036
0.014137
0.0138994
0.0135753
0.0131684
0.0126936
0.0121764
0.0116487
0.0111441
0.0106912
0.0103073
0.00999187
0.00972212
0.00944851
0.0090934
0.0100693
0.0195166
0.0239544
0.0262396
0.0274266
0.0280967
0.0286841
0.0293586
0.0298394
0.0298281
0.028878
0.0268374
0.0240931
0.0213524
0.0191372
0.017582
0.0165686
0.0159365
0.015569
0.0153525
0.0151957
0.0150319
0.0148138
0.0145117
0.0141166
0.0136328
0.013079
0.012485
0.0118879
0.0113263
0.0108334
0.0104292
0.0101147
0.00986633
0.00963029
0.00932022
0.00987938
0.0190945
0.0234807
0.0257812
0.0270439
0.0278512
0.028611
0.0294347
0.0300314
0.0300992
0.0291773
0.0271543
0.0244692
0.0218318
0.0197309
0.0182733
0.017338
0.0167534
0.0164041
0.01618
0.0159955
0.0157862
0.0155071
0.0151335
0.0146572
0.0140864
0.0134437
0.0127643
0.0120908
0.0114674
0.0109314
0.0105058
0.0101925
0.00996695
0.0097714
0.00951102
0.00969096
0.0186807
0.0230216
0.025345
0.0266909
0.0276372
0.028562
0.0295231
0.0302391
0.0303907
0.0295081
0.027521
0.0249133
0.0223852
0.0203913
0.0190273
0.0181625
0.0176176
0.0172813
0.0170438
0.0168239
0.0165606
0.0162124
0.0157565
0.015188
0.0145191
0.0137776
0.013004
0.0122475
0.0115578
0.0109766
0.0105291
0.0102177
0.0100159
0.00986283
0.00965646
0.00950485
0.0182763
0.0225776
0.0249302
0.0263644
0.0274492
0.0285312
0.0296211
0.0304585
0.0306982
0.0298661
0.0279331
0.0254195
0.023007
0.0211178
0.0198398
0.0190388
0.0185264
0.0181964
0.0179382
0.0176754
0.0173494
0.0169211
0.0163711
0.0156985
0.0149199
0.0140689
0.0131926
0.0123467
0.0115872
0.0109597
0.0104905
0.0101811
0.0100028
0.00989091
0.0097418
0.00932171
0.0178819
0.0221488
0.0245358
0.0260616
0.0272828
0.0285138
0.0297261
0.0306859
0.0310179
0.0302481
0.0283864
0.0259808
0.02369
0.0219085
0.0207105
0.019964
0.0194761
0.0191444
0.0188584
0.0185433
0.0181437
0.0176233
0.0169665
0.0161768
0.0152764
0.0143051
0.0133175
0.0123769
0.0115453
0.0108715
0.0103815
0.0100741
0.00991519
0.0098447
0.00976051
0.009142
0.0174981
0.021735
0.0241604
0.0257798
0.0271338
0.028506
0.0298358
0.0309186
0.0313469
0.0306509
0.0288768
0.0265913
0.0244298
0.022757
0.0216342
0.0209338
0.0204622
0.0201216
0.0197975
0.0194189
0.0189334
0.0183078
0.0175305
0.0166101
0.015575
0.0144726
0.0133659
0.0123264
0.0114222
0.010704
0.0101957
0.00989148
0.00974914
0.00972265
0.00970591
0.00896599
0.0171249
0.0213361
0.023803
0.0255164
0.0269989
0.0285049
0.0299484
0.0311541
0.0316827
0.0310721
0.0294011
0.0272473
0.0252214
0.023658
0.0226055
0.0219437
0.0214814
0.0211205
0.0207466
0.0202922
0.0197074
0.0189623
0.0180499
0.0169843
0.0158014
0.0145574
0.013325
0.0121847
0.01121
0.0104522
0.009931
0.00962991
0.00950874
0.00952909
0.00957936
0.0087941
0.0167621
0.0209515
0.0234622
0.0252693
0.0268755
0.0285084
0.0300624
0.0313904
0.0320231
0.0315091
0.0299562
0.0279456
0.0260606
0.0246063
0.0236214
0.0229895
0.0225265
0.0221329
0.0216962
0.0211521
0.0204535
0.0195737
0.0185105
0.0172848
0.0159409
0.0145457
0.0131831
0.0119431
0.010904
0.0101152
0.00958966
0.00929689
0.00920352
0.00927262
0.00938663
0.00862666
0.01641
0.0205805
0.023137
0.0250368
0.0267618
0.0285158
0.0301771
0.031625
0.0323634
0.0319569
0.0305383
0.0286832
0.0269452
0.0256017
0.0246779
0.0240642
0.0235902
0.0231494
0.0226354
0.0219867
0.0211586
0.0201279
0.0188978
0.0174967
0.0159793
0.0144249
0.0129307
0.0115967
0.0105044
0.00969774
0.00918004
0.00890486
0.00884571
0.0089639
0.0091356
0.00846368
0.0160685
0.0202229
0.0228266
0.0248184
0.0266576
0.0285247
0.0302905
0.0318558
0.032703
0.0324148
0.0311444
0.0294563
0.0278709
0.026636
0.0257658
0.0251603
0.0246656
0.0241593
0.0235522
0.0227831
0.0218092
0.0206106
0.0191969
0.0176054
0.015903
0.0141841
0.0125615
0.0111455
0.0100173
0.00921118
0.00871613
0.00846902
0.00844948
0.00861521
0.00883614
0.00830523
0.0157377
0.0198789
0.0225314
0.0246121
0.0265598
0.0285339
0.0304018
0.0320825
0.0330418
0.0328823
0.0317728
0.0302609
0.028831
0.0277008
0.0268752
0.0262652
0.0257316
0.0251485
0.0244335
0.023528
0.0223913
0.0210076
0.0193934
0.0175971
0.0157002
0.0138159
0.0120746
0.0105961
0.00945611
0.00867316
0.00821477
0.00800624
0.00803013
0.00823915
0.00849556
0.00815136
0.0154189
0.019548
0.0222489
0.0244162
0.0264669
0.0285417
0.0305109
0.032305
0.0333803
0.0333591
0.0324216
0.0310928
0.0298188
0.0287871
0.0279959
0.0273679
0.0267792
0.0261046
0.0252662
0.0242077
0.022891
0.0213046
0.0194738
0.0174596
0.0153623
0.0133172
0.0114754
0.00996284
0.00884202
0.00810638
0.00769674
0.00753498
0.00760328
0.00784831
0.00811913
0.00800373
0.0151104
0.019229
0.0219784
0.0242296
0.0263781
0.0285481
0.0306176
0.0325235
0.0337187
0.033845
0.0330885
0.0319476
0.0308271
0.0298857
0.0291171
0.0284566
0.0277968
0.0270151
0.0260371
0.024809
0.0232948
0.0214886
0.0194257
0.0171834
0.0148843
0.0126912
0.0107769
0.00926823
0.00820631
0.00753684
0.00718408
0.00707262
0.00718321
0.007457
0.00774163
0.00786188
0.0148121
0.0189216
0.0217192
0.0240516
0.0262927
0.0285533
0.0307217
0.0327384
0.0340577
0.0343396
0.0337715
0.0328204
0.0318485
0.030987
0.0302275
0.0295192
0.0287719
0.027867
0.0267334
0.0253189
0.0235902
0.0215477
0.0192394
0.0167622
0.0142669
0.0119486
0.0100009
0.0085437
0.00756198
0.00698278
0.00669288
0.00663243
0.00678067
0.00707307
0.00736651
0.0077254
0.0145235
0.0186254
0.0214707
0.0238814
0.0262105
0.0285578
0.0308234
0.0329502
0.0343977
0.0348424
0.0344681
0.0337061
0.0328749
0.0320805
0.0313151
0.0305427
0.0296912
0.0286474
0.0273423
0.0257251
0.0237655
0.021472
0.018908
0.0161949
0.0135177
0.0111088
0.0091762
0.00780849
0.00694786
0.00646619
0.00623615
0.00622353
0.00640322
0.00669747
0.00700141
0.00759393
0.0142447
0.01834
0.0212324
0.0237184
0.0261312
0.0285618
0.030923
0.0331597
0.0347393
0.035353
0.0351758
0.0345994
0.0338982
0.0331556
0.0323677
0.0315144
0.0305416
0.0293437
0.0278519
0.0260167
0.0238111
0.0212541
0.0184288
0.0154864
0.0126536
0.0102014
0.00834409
0.00711539
0.00638759
0.00599168
0.0058179
0.00585049
0.00605983
0.00636455
0.00666391
0.00746715
0.0139753
0.0180652
0.0210037
0.0235622
0.0260549
0.0285658
0.031021
0.0333677
0.0350832
0.0358708
0.0358917
0.0354947
0.0349099
0.0342019
0.0333739
0.0324223
0.0313107
0.0299441
0.0282513
0.0261837
0.023719
0.0208901
0.0178049
0.01465
0.0117013
0.00926623
0.00754596
0.00648745
0.00589035
0.00556296
0.00544089
0.00551678
0.00575416
0.00606756
0.00635386
0.0073448
0.0137151
0.0178006
0.0207843
0.0234124
0.0259814
0.0285703
0.031118
0.033575
0.0354298
0.0363951
0.0366129
0.0363861
0.0359018
0.0352095
0.0343235
0.0332572
0.0319882
0.0304376
0.0285306
0.0262176
0.0234837
0.0203807
0.0170466
0.0137088
0.0106988
0.00835309
0.0068215
0.00594346
0.0054564
0.00518232
0.00510725
0.00522512
0.00548772
0.00580601
0.00607635
0.00722665
0.0134639
0.0175459
0.0205738
0.0232687
0.025911
0.0285755
0.0312147
0.0337825
0.0357798
0.036925
0.0373362
0.0372677
0.0368655
0.0361693
0.0352074
0.0340112
0.0325679
0.0308165
0.0286814
0.0261114
0.0231024
0.019732
0.0161732
0.0126976
0.00969433
0.0075085
0.00620127
0.00549105
0.00507973
0.00484836
0.00481762
0.00497536
0.00525743
0.00557609
0.00583093
0.00711251
0.0132214
0.0173008
0.0203718
0.023131
0.0258438
0.028582
0.0313118
0.0339912
0.0361336
0.0374594
0.0380582
0.0381331
0.0377924
0.0370711
0.0360156
0.0346753
0.0330455
0.031074
0.0286941
0.0258583
0.0225746
0.0189569
0.015215
0.0116627
0.00874379
0.00677675
0.00570504
0.00512836
0.00476033
0.00456
0.00457016
0.00476342
0.00505873
0.00537553
0.00561325
0.0070022
0.0129876
0.017065
0.0201781
0.0229992
0.0257798
0.0285903
0.0314099
0.0342019
0.0364914
0.037997
0.0387745
0.038975
0.0386724
0.0379034
0.0367357
0.0352366
0.0334078
0.0312055
0.0285667
0.0254507
0.0219009
0.0180764
0.0142143
0.0106597
0.0079045
0.00619204
0.00533784
0.00484623
0.00449199
0.00431227
0.0043581
0.00458039
0.00488853
0.00519851
0.00541692
0.00689556
0.012762
0.0168383
0.0199924
0.0228732
0.0257194
0.0286009
0.0315099
0.0344154
0.0368533
0.038536
0.0394804
0.0397849
0.0394943
0.0386531
0.0373533
0.035679
0.0336392
0.0311954
0.0282923
0.0249031
0.0211035
0.0171262
0.0132254
0.00974846
0.00721965
0.00576785
0.00508975
0.00463285
0.0042649
0.00409687
0.00417278
0.00442121
0.00473704
0.00503658
0.00523333
0.00679245
0.0125446
0.0166205
0.0198145
0.0227529
0.0256627
0.0286142
0.0316124
0.0346324
0.0372191
0.0390737
0.04017
0.0405537
0.0402465
0.0393078
0.0378557
0.0359911
0.0337289
0.0310366
0.0278711
0.0242282
0.0202242
0.01617
0.0123114
0.00898379
0.00671079
0.00549892
0.00494509
0.00447998
0.00407588
0.00391093
0.00401233
0.00427974
0.00459471
0.00487755
0.00505225
0.00669277
0.0123351
0.0164112
0.0196443
0.0226382
0.02561
0.0286307
0.0317181
0.0348534
0.0375881
0.0396074
0.040837
0.041272
0.0409185
0.0398571
0.038234
0.0361654
0.0336726
0.0307303
0.0273137
0.0234531
0.019313
0.0152683
0.011531
0.00840671
0.00639322
0.00536916
0.00488838
0.00438442
0.00392901
0.00375721
0.00387015
0.0041401
0.00444847
0.00471504
0.00486928
0.0065964
0.0121333
0.0162104
0.0194814
0.0225293
0.0255615
0.0286508
0.0318275
0.0350787
0.0379595
0.0401332
0.0414744
0.0419307
0.0415014
0.0402944
0.0384836
0.0361991
0.0334699
0.0302819
0.0266345
0.02261
0.0184192
0.0144737
0.0109293
0.0080372
0.0062596
0.00535503
0.00490496
0.00434759
0.00383262
0.00363306
0.00373426
0.00399642
0.00429425
0.00454468
0.0046803
0.00650325
0.0119391
0.0160178
0.0193259
0.022426
0.0255173
0.0286749
0.0319411
0.0353084
0.0383319
0.0406474
0.0420756
0.0425222
0.0419889
0.0406158
0.0386034
0.0360928
0.0331221
0.0297065
0.0258877
0.0217611
0.0175919
0.0138127
0.0105077
0.00785849
0.00627046
0.00543098
0.00498707
0.00438383
0.00379031
0.00353013
0.00359932
0.00384426
0.00412828
0.00436259
0.00448142
0.00641322
0.0117523
0.0158332
0.0191775
0.0223283
0.0254777
0.0287034
0.0320593
0.0355423
0.0387035
0.0411454
0.0426339
0.0430398
0.042377
0.0408209
0.0385956
0.0358501
0.0326606
0.0290625
0.0251218
0.0209486
0.0168649
0.0133086
0.0102673
0.00783448
0.00636831
0.00555835
0.00512355
0.00448919
0.00380091
0.0034475
0.0034625
0.00368007
0.0039471
0.00416515
0.00426889
0.00632625
0.0115727
0.0156565
0.019036
0.0222363
0.0254428
0.0287366
0.0321824
0.0357802
0.0390723
0.0416229
0.0431434
0.0434787
0.0426642
0.0409118
0.0384651
0.0354966
0.0321231
0.0283809
0.0243655
0.0202087
0.016273
0.0129664
0.010191
0.00794681
0.00652977
0.00572719
0.00530872
0.00466934
0.00387692
0.00339182
0.00332384
0.00350103
0.0037473
0.00394877
0.00403897
0.00624225
0.0114
0.0154874
0.0189015
0.02215
0.0254129
0.0287749
0.0323104
0.0360213
0.0394359
0.0420751
0.0435988
0.0438359
0.0428513
0.0408936
0.0382243
0.0350658
0.0315346
0.0276909
0.0236459
0.0195675
0.0158343
0.0127719
0.0102526
0.00817971
0.00675218
0.00593297
0.00553169
0.004927
0.00403844
0.00337859
0.00318755
0.00330547
0.00352555
0.00370981
0.00378789
0.00616116
0.0112343
0.0153257
0.0187737
0.0220694
0.0253881
0.0288183
0.0324434
0.0362648
0.0397915
0.0424977
0.0439958
0.04411
0.0429412
0.0407713
0.037903
0.0345775
0.030919
0.0270164
0.0229915
0.019045
0.015543
0.012718
0.0104293
0.00849622
0.00703325
0.00617471
0.00577376
0.00525107
0.0043087
0.00343672
0.00306546
0.00309412
0.00327871
0.00344468
0.00351202
0.0060829
0.0110752
0.0151715
0.0186526
0.0219944
0.0253685
0.0288671
0.0325813
0.0365095
0.0401363
0.0428865
0.0443313
0.0443016
0.0429395
0.0405609
0.0375206
0.0340535
0.0302992
0.0263809
0.0224224
0.0186466
0.0153872
0.0127874
0.010697
0.00887479
0.00739407
0.00646584
0.006015
0.00560895
0.00470215
0.0036102
0.00298273
0.00287303
0.00300401
0.00315036
0.00320834
0.00600743
0.0109226
0.0150243
0.0185379
0.0219251
0.0253543
0.0289214
0.0327237
0.0367541
0.0404673
0.0432376
0.0446034
0.0444129
0.0428514
0.0402845
0.0370951
0.0335155
0.0296982
0.0258043
0.0219497
0.018368
0.0153503
0.0129634
0.011036
0.00933191
0.00783312
0.0068037
0.00625255
0.00594936
0.00519869
0.00395482
0.00298985
0.00266036
0.00270192
0.002826
0.00287565
0.00593468
0.0107766
0.0148842
0.0184297
0.0218615
0.0253454
0.0289811
0.0328702
0.0369969
0.0407814
0.0435479
0.0448117
0.0444484
0.0426887
0.0399582
0.0366446
0.0329846
0.0291438
0.0253014
0.0215764
0.0182006
0.0154153
0.0132258
0.0114415
0.00986118
0.00839255
0.00720626
0.00651142
0.00622305
0.00571933
0.0045039
0.00316912
0.00249837
0.00239519
0.00247718
0.0025166
0.0058646
0.0106369
0.0147509
0.0183277
0.0218035
0.025342
0.0290462
0.0330202
0.0372362
0.0410756
0.043815
0.044957
0.0444132
0.0424667
0.0395956
0.0361846
0.0324757
0.0286461
0.024876
0.0212987
0.0181343
0.0155686
0.0135612
0.0119117
0.0104337
0.00901846
0.0077465
0.00685734
0.00643076
0.00614312
0.00519899
0.00362184
0.00246961
0.00210842
0.00211536
0.00214004
0.00579714
0.0105033
0.0146242
0.0182319
0.0217511
0.0253441
0.0291164
0.0331728
0.03747
0.0413472
0.0440373
0.0450413
0.0443131
0.0421998
0.0392096
0.0357274
0.0319988
0.0282083
0.0245312
0.0211167
0.0181603
0.0157982
0.0139582
0.0124389
0.0110569
0.00971778
0.00840675
0.00730954
0.00666012
0.00639689
0.00584447
0.00439047
0.00271352
0.00189953
0.00176264
0.0017628
0.00573222
0.0103756
0.0145039
0.0181421
0.0217043
0.0253516
0.0291916
0.0333272
0.0376963
0.0415937
0.044214
0.0450681
0.0441581
0.0418978
0.0388109
0.0352824
0.0315604
0.0278341
0.024271
0.0210257
0.0182693
0.0160938
0.0144059
0.01301
0.0117303
0.0104691
0.00919226
0.00797495
0.00705165
0.0065648
0.00626331
0.00528568
0.00340229
0.0019023
0.00146468
0.00141035
0.00566981