/*--------------------------------*- C++ -*----------------------------------*\
| =========                 |                                                 |
| \\      /  F ield         | OpenFOAM: The Open Source CFD Toolbox           |
|  \\    /   O peration     | Version:  v2012                                 |
|   \\  /    A nd           | Website:  www.openfoam.com                      |
|    \\/     M anipulation  |                                                 |
\*---------------------------------------------------------------------------*/
FoamFile
{
    version     2.0;
    format      ascii;
    class       volScalarField;
    location    "621";
    object      nut;
}
// * * * * * * * * * * * * * * * * * * * * * * * * * * * * * * * * * * * * * //

dimensions      [0 2 -1 0 0 0 0];


internalField   nonuniform List<scalar> 
6108
(
0.000488617
0.00050789
0.000528897
0.000551905
0.000577241
0.000605311
0.000636625
0.000671838
0.000711803
0.000757655
0.000810939
0.000873816
0.00094939
0.00104229
0.00115967
0.00131312
0.00152249
0.00182382
0.00228756
0.00306339
0.00270074
0.00280293
0.00291245
0.0030303
0.00315765
0.00329588
0.00344667
0.00361208
0.00379471
0.0039979
0.00422604
0.00448507
0.00478326
0.00513245
0.00555028
0.00606414
0.0067189
0.00759325
0.0088393
0.0108009
0.00460751
0.00477011
0.00494343
0.00512875
0.00532753
0.00554144
0.00577246
0.00602296
0.00629583
0.00659464
0.00692392
0.0072895
0.00769894
0.00816221
0.00869241
0.00930651
0.0100254
0.0108711
0.0118562
0.0129473
0.00581544
0.00601224
0.00622136
0.00644405
0.00668168
0.00693578
0.00720803
0.00750033
0.00781479
0.00815378
0.00851995
0.00891621
0.00934571
0.00981164
0.0103169
0.0108631
0.011449
0.0120675
0.0127005
0.0133149
0.00639413
0.00660594
0.0068307
0.00706956
0.00732375
0.00759454
0.00788328
0.00819133
0.00852003
0.0088706
0.00924396
0.00964056
0.01006
0.0105006
0.0109587
0.0114282
0.0118999
0.0123626
0.0128085
0.0132482
0.00639614
0.00660736
0.00683171
0.00707029
0.00732426
0.0075949
0.00788352
0.00819149
0.00852014
0.00887067
0.009244
0.00964059
0.01006
0.0105006
0.0109587
0.0114282
0.0118999
0.0123626
0.0128085
0.0132482
0.00582121
0.0060163
0.00622423
0.00644606
0.00668306
0.0069367
0.00720864
0.00750074
0.00781506
0.00815396
0.00852007
0.00891629
0.00934576
0.00981167
0.0103169
0.0108631
0.011449
0.0120675
0.0127005
0.0133149
0.00461597
0.00477597
0.00494752
0.00513152
0.00532938
0.00554269
0.0057733
0.00602353
0.00629621
0.00659489
0.00692409
0.00728961
0.00769901
0.00816226
0.00869244
0.00930653
0.0100254
0.0108711
0.0118562
0.0129473
0.00270785
0.0028082
0.00291596
0.00303272
0.0031593
0.00329701
0.00344743
0.0036126
0.00379506
0.00399813
0.00422619
0.00448518
0.00478333
0.00513249
0.0055503
0.00606416
0.00671891
0.00759326
0.0088393
0.0108009
0.000488918
0.000508096
0.00052904
0.000552006
0.000577312
0.00060536
0.00063666
0.000671862
0.000711819
0.000757666
0.000810947
0.000873821
0.000949394
0.00104229
0.00115967
0.00131313
0.00152249
0.00182382
0.00228756
0.00306339
0.000424946
0.000439166
0.000454426
0.000470858
0.00234966
0.00243006
0.002515
0.00260501
0.00404381
0.00417347
0.00431012
0.00445452
0.00513039
0.00528816
0.00545437
0.00562983
0.00565672
0.00582637
0.00600527
0.00619424
0.00566491
0.00583238
0.00600949
0.00619713
0.00515843
0.00530828
0.00546788
0.0056386
0.00410983
0.00421987
0.00433905
0.00447061
0.00254987
0.00255453
0.00258943
0.00264137
0.000812674
0.000702801
0.000614748
0.000542834
6.97436e-05
6.56696e-05
6.64623e-05
7.56511e-05
0.000103669
0.000109455
0.000102117
0.000154129
0.000170079
0.000181224
0.000191468
0.000201049
0.00021012
0.000218789
0.000227139
0.000235233
0.000243124
0.000250861
0.000258486
0.000266038
0.000273557
0.000281083
0.000288654
0.000296311
0.000304094
0.000312045
0.000320209
0.000328631
0.000337359
0.000346443
0.000355936
0.000365894
0.000376376
0.000387448
0.00039918
0.00041165
0.00011587
0.000217735
0.000292476
0.000308604
0.000316761
0.000348313
0.000390082
0.000446078
0.000508859
0.000572467
0.000636912
0.000702235
0.000768402
0.000835344
0.000902937
0.000971004
0.00103931
0.0011076
0.00117559
0.00124301
0.00130964
0.00137532
0.00143997
0.00150361
0.00156629
0.00162817
0.00168945
0.00175042
0.0018114
0.00187276
0.00193495
0.00199836
0.00206342
0.00213062
0.00220042
0.00227327
0.000143278
0.000429698
0.00045619
0.000468786
0.000502584
0.000568506
0.000667372
0.000787893
0.000916114
0.00104632
0.0011769
0.00130682
0.00143553
0.00156264
0.00168777
0.00181062
0.00193088
0.0020483
0.00216272
0.00227407
0.00238238
0.00248781
0.00259062
0.00269116
0.00278986
0.00288723
0.00298382
0.00308022
0.00317703
0.00327491
0.00337446
0.00347636
0.00358125
0.00368979
0.00380263
0.00392042
0.000174872
0.000555316
0.000598818
0.00063398
0.000705216
0.000824692
0.000984668
0.00116595
0.00135315
0.00153951
0.0017215
0.00189735
0.00206629
0.00222807
0.00238275
0.00253058
0.00267194
0.0028073
0.00293721
0.00306228
0.00318318
0.00330058
0.00341522
0.00352783
0.00363913
0.00374987
0.00386078
0.00397258
0.00408595
0.0042016
0.00432018
0.00444236
0.0045688
0.00470017
0.0048371
0.00498028
0.000204101
0.000672836
0.000720127
0.000816139
0.000934977
0.00110938
0.00132274
0.00155218
0.0017823
0.00200485
0.0022153
0.00241182
0.00259417
0.00276302
0.00291952
0.00306505
0.00320109
0.00332912
0.00345055
0.00356671
0.00367884
0.00378808
0.00389549
0.00400206
0.00410871
0.00421628
0.00432558
0.00443733
0.00455225
0.00467096
0.00479409
0.00492221
0.00505588
0.00519563
0.005342
0.0054955
0.000225215
0.000699624
0.000839892
0.00101186
0.00118395
0.0014075
0.00166146
0.00192281
0.00217634
0.00241317
0.00262883
0.00282227
0.00299441
0.00314731
0.00328351
0.00340571
0.00351652
0.00361833
0.00371327
0.00380324
0.00388989
0.00397466
0.00405887
0.00414367
0.00423011
0.00431913
0.00441159
0.00450826
0.00460986
0.00471702
0.00483033
0.00495034
0.00507752
0.00521231
0.00535505
0.00550594
0.000240535
0.00075523
0.000970612
0.00121708
0.00143785
0.00170312
0.00198393
0.00226038
0.00251829
0.00274929
0.00295
0.00312073
0.003264
0.0033834
0.0034829
0.00356637
0.00363731
0.00369879
0.00375341
0.00380334
0.00385045
0.00389633
0.00394238
0.00398988
0.00403997
0.00409371
0.00415206
0.0042159
0.00428604
0.00436323
0.00444816
0.00454151
0.00464399
0.00475646
0.00487996
0.0050158
0.000253118
0.000842288
0.00111037
0.00142489
0.00168631
0.00198158
0.00227774
0.00255415
0.00280001
0.0030087
0.00317868
0.00331212
0.00341333
0.0034875
0.00353988
0.00357531
0.00359793
0.00361115
0.00361766
0.0036196
0.00361866
0.00361626
0.00361363
0.00361192
0.00361221
0.00361559
0.00362307
0.00363567
0.0036543
0.0036799
0.00371325
0.00375492
0.00380535
0.0038651
0.00393507
0.00401403
0.00026349
0.000945941
0.00125227
0.00162833
0.00192119
0.00223425
0.00253414
0.00279907
0.00302007
0.00319448
0.00332323
0.00341077
0.00346347
0.00348825
0.00349174
0.00347965
0.00345656
0.00342582
0.00338969
0.00334952
0.00330605
0.0032596
0.00321037
0.00315851
0.0031043
0.00304819
0.00299085
0.00293315
0.00287609
0.0028208
0.00276898
0.00272234
0.00268088
0.00264319
0.00260623
0.00257124
0.000272017
0.00105241
0.00139211
0.00182186
0.00213715
0.00245688
0.00274919
0.0029939
0.00318173
0.00331459
0.00339717
0.00343678
0.00344226
0.00342262
0.00338597
0.00333882
0.00328577
0.00322945
0.00317082
0.00310961
0.00304474
0.00297476
0.00289808
0.0028132
0.00271869
0.00261321
0.00249552
0.00236447
0.00221908
0.00205878
0.00188382
0.00169513
0.00149418
0.00129598
0.0011119
0.0009494
0.00063025
0.000371715
0.000235425
0.00013908
0.000484441
0.000343155
0.000250715
0.000104748
0.000601133
0.000565231
0.000460051
9.04215e-05
0.00106597
0.000905124
0.000542219
8.72964e-05
0.00140449
0.00106167
0.000565247
8.74398e-05
0.00156623
0.00112436
0.000581496
8.90484e-05
0.00165918
0.00116996
0.000596305
9.16703e-05
0.00173255
0.00121727
0.000617527
9.46059e-05
0.00180144
0.00126855
0.0006437
9.7779e-05
0.0018691
0.00132237
0.000672556
0.000101182
0.00193524
0.00137673
0.000701877
0.000104865
0.00199871
0.00142977
0.000731156
0.000108861
0.00206031
0.00148432
0.000762032
0.000112956
0.00212088
0.00153921
0.00079372
0.000117121
0.00217912
0.00159365
0.000825893
0.000121319
0.00223411
0.00164701
0.000858299
0.000125531
0.00228501
0.00169864
0.000890673
0.000129734
0.00233098
0.00174785
0.000922695
0.000133902
0.00237111
0.00179383
0.000953958
0.000137997
0.00240438
0.00183562
0.000983932
0.000141966
0.00242968
0.0018721
0.00101194
0.000145725
0.00244578
0.00190199
0.00103716
0.000149135
0.00245124
0.00192386
0.00105871
0.000152002
0.00244437
0.0019361
0.00107574
0.000154364
0.00226984
0.0019365
0.00108778
0.000156526
0.00208279
0.00192868
0.00109538
0.00015858
0.0019416
0.00183509
0.00109617
0.000160028
0.00183797
0.00175351
0.00109276
0.00016106
0.00176086
0.00170301
0.00108519
0.00016156
0.00170274
0.00167059
0.00107284
0.000161282
0.00166683
0.00165815
0.00105622
0.000160327
0.00165826
0.00167268
0.00103598
0.000158803
0.00168054
0.0016823
0.00101196
0.000156746
0.00174119
0.0016328
0.000983702
0.000154181
0.00182984
0.00158293
0.000952643
0.000151183
0.00179954
0.00153174
0.000919514
0.000147822
0.00175066
0.0014801
0.000885181
0.000144177
0.00170401
0.00142874
0.000850435
0.000140325
0.00165933
0.00137814
0.000815919
0.000136335
0.00161594
0.0013285
0.000782071
0.000132256
0.00157285
0.00127972
0.000749115
0.000128133
0.00152865
0.00123122
0.000716941
0.000123995
0.00148051
0.00118075
0.000683477
0.000119954
0.00142593
0.00112578
0.000646846
0.000116175
0.00136512
0.00106711
0.00060842
0.000112563
0.00129833
0.00100548
0.000569393
0.000109053
0.00122585
0.000941376
0.000530189
0.000105591
0.00114799
0.000875106
0.000491012
0.000102137
0.00106503
0.000806831
0.000451873
9.8651e-05
0.000977187
0.000736583
0.000412666
9.50951e-05
0.000884709
0.000664339
0.000373263
9.14292e-05
0.000787939
0.000590169
0.000333622
8.76087e-05
0.000687589
0.000514485
0.000293922
8.35814e-05
0.000585151
0.000438375
0.000254696
7.92827e-05
0.000483404
0.000363944
0.000216923
7.46255e-05
0.000386811
0.000294418
0.000181965
6.9475e-05
0.000300869
0.00023377
0.000151512
6.36053e-05
0.00023088
0.00018558
0.000127523
5.04981e-05
0.000172516
0.000146997
0.000107921
4.74603e-05
5.2189e-05
4.57501e-05
4.42525e-05
3.03924e-05
0.000279513
0.0011695
0.0015375
0.00199479
0.00233974
0.00265615
0.00293069
0.00314568
0.00329505
0.00338185
0.00341664
0.00341048
0.00337528
0.00332232
0.00326099
0.00319786
0.00313649
0.00307767
0.00302024
0.00296196
0.00290024
0.00283274
0.00275763
0.00267366
0.00258014
0.00247685
0.00236392
0.00224178
0.00211071
0.00197035
0.00182168
0.00166526
0.00150098
0.00132834
0.00114362
0.000942836
0.000285823
0.00129358
0.00168525
0.0021553
0.00251504
0.00282013
0.00306992
0.00325022
0.00335858
0.00340215
0.00339437
0.00335153
0.00328864
0.00321857
0.00315046
0.00308905
0.00303487
0.00298547
0.00293681
0.00288465
0.00282539
0.00275648
0.0026765
0.00258492
0.00248173
0.00236734
0.0022423
0.00210739
0.00196273
0.00180627
0.00164033
0.00146553
0.00128216
0.00109104
0.000895664
0.000679148
0.000291163
0.00141275
0.00183923
0.00232083
0.00266213
0.00295008
0.00317079
0.00331449
0.00338292
0.00338771
0.0033463
0.00327817
0.00320085
0.0031269
0.00306279
0.00300908
0.00296186
0.00291494
0.00286198
0.00279779
0.00271906
0.00262422
0.00251321
0.00238717
0.00224738
0.00209619
0.00193494
0.00176839
0.00160145
0.00144203
0.00128615
0.00113356
0.000987062
0.000845575
0.000727881
0.00064646
0.000295453
0.00147182
0.00200477
0.00245256
0.00278243
0.00304934
0.003239
0.00334661
0.00337849
0.00335075
0.00328483
0.00320231
0.0031206
0.00304955
0.00299081
0.0029396
0.00288775
0.00282667
0.00274953
0.00265224
0.00253352
0.00239472
0.00223933
0.00207266
0.00190146
0.00173647
0.00159023
0.00145949
0.00134193
0.00123866
0.00115007
0.00107705
0.00102924
0.00100901
0.00100232
0.00101889
0.000298834
0.00152106
0.00215267
0.00255773
0.00287815
0.00312186
0.00328044
0.00335432
0.00335451
0.00330138
0.00321945
0.00313092
0.00305047
0.00298293
0.00292423
0.00286487
0.00279421
0.00270361
0.00258809
0.00244714
0.00228486
0.00210953
0.00193361
0.00177419
0.00165015
0.00155852
0.00149312
0.0014503
0.00142688
0.00142113
0.00143249
0.00145204
0.00148183
0.0015254
0.00159706
0.00154586
0.000301391
0.00156039
0.00223236
0.00264368
0.00295199
0.00317184
0.00330081
0.00334457
0.00331877
0.00324747
0.00315689
0.00306779
0.00299029
0.002923
0.00285658
0.00277887
0.00267938
0.00255219
0.00239766
0.00222357
0.00204491
0.00188357
0.00176869
0.00171413
0.00170317
0.00172326
0.00176424
0.00181874
0.00187434
0.00192964
0.00199507
0.0020734
0.002123
0.00211066
0.00206268
0.00187346
0.000303199
0.00159048
0.00229714
0.00271216
0.00300688
0.00320343
0.00330533
0.00332341
0.00327764
0.00319494
0.00310163
0.00301509
0.0029396
0.00286798
0.00278726
0.00268526
0.00255488
0.00239693
0.002223
0.00205513
0.00192544
0.00187182
0.00189705
0.00197172
0.00207267
0.00217765
0.00227655
0.0023761
0.00247714
0.00256475
0.00260553
0.0026285
0.00259722
0.00248797
0.00231132
0.00203748
0.000304328
0.00161213
0.00234836
0.00276515
0.00304582
0.00322051
0.00329866
0.00329594
0.00323622
0.00314819
0.00305666
0.00297416
0.00289882
0.00281889
0.00272048
0.00259455
0.00244119
0.00227435
0.00212226
0.00202542
0.00202597
0.00212402
0.00227218
0.00242874
0.00258613
0.00273037
0.00285809
0.00294973
0.00301871
0.00305177
0.00302327
0.00295726
0.00284653
0.00268053
0.00245136
0.00214065
0.000304847
0.00162618
0.00238743
0.00280469
0.00307165
0.00322663
0.00328478
0.00326633
0.0031984
0.00311035
0.00302399
0.00294611
0.00286923
0.00277901
0.00266354
0.00252053
0.00236283
0.00222222
0.00214511
0.00217701
0.00232689
0.00252854
0.00274374
0.00295018
0.0031127
0.00323944
0.00333036
0.00336375
0.00335655
0.00331427
0.00323613
0.00312685
0.00298214
0.00279285
0.00254596
0.00222242
0.000304821
0.0016335
0.00241579
0.00283279
0.003087
0.00322486
0.00326701
0.00323785
0.0031671
0.00308357
0.00300492
0.00293196
0.00285271
0.00275255
0.00262481
0.0024775
0.00234121
0.00226567
0.00230299
0.00246972
0.00271357
0.00298356
0.00322034
0.00341024
0.00352842
0.00359392
0.00361255
0.0035887
0.00353381
0.00345377
0.00335012
0.00322258
0.00306612
0.00287078
0.00262112
0.00229559
0.000304316
0.00163495
0.00243484
0.00285133
0.0030942
0.0032178
0.003248
0.00321298
0.00314426
0.00306911
0.00300018
0.00293252
0.00285111
0.00274354
0.00261124
0.0024762
0.00238727
0.00240311
0.00255639
0.00281528
0.00311809
0.00339964
0.00360198
0.00373028
0.00379239
0.00380271
0.00377331
0.0037141
0.00363299
0.00353414
0.00341854
0.00328436
0.00312582
0.0029321
0.0026861
0.00236358
0.000303391
0.00163137
0.00244589
0.00286201
0.00309528
0.0032076
0.00322982
0.00319341
0.00313104
0.00306744
0.00300979
0.00294792
0.00286556
0.0027548
0.00262728
0.00252068
0.0024967
0.00260612
0.00284419
0.0031612
0.00347415
0.00371322
0.0038645
0.0039411
0.00395792
0.00393053
0.00387208
0.00379176
0.00369549
0.00358636
0.00346491
0.00332889
0.00317214
0.00298323
0.00274372
0.00242678
0.000302105
0.00162354
0.00245018
0.00286637
0.00309193
0.00319596
0.00321394
0.00318021
0.00312783
0.00307819
0.00303268
0.00297672
0.0028953
0.00278704
0.00267366
0.0026072
0.00265238
0.00283765
0.00312777
0.00346351
0.00374709
0.00393985
0.00404725
0.00408496
0.00406985
0.00401785
0.00394077
0.0038465
0.00373999
0.00362396
0.00349894
0.00336273
0.00320913
0.00302625
0.00279456
0.00248465
0.000300512
0.00161219
0.00244883
0.00286571
0.00308555
0.00318417
0.00320135
0.00317382
0.00313428
0.00309991
0.00306575
0.00288256
0.00287036
0.00283761
0.00274679
0.00272607
0.0028328
0.00306843
0.00339011
0.00371377
0.00395654
0.00410948
0.00418258
0.00419169
0.00415436
0.00408518
0.00399451
0.00388937
0.0037744
0.00365243
0.00352434
0.00338828
0.00323815
0.00306164
0.00283926
0.00253965
0.000298661
0.00159797
0.00244281
0.00286113
0.00307724
0.00317316
0.00319264
0.00317419
0.00314931
0.00312953
0.00285553
0.00270711
0.00273445
0.00287524
0.00284041
0.00286572
0.00302084
0.00328872
0.00361982
0.00391765
0.00412458
0.00424466
0.00429062
0.00427856
0.00422473
0.00414208
0.00403993
0.0039249
0.00380174
0.00367375
0.00354238
0.00340627
0.00325951
0.00309104
0.00287918
0.00259062
0.000296596
0.00158146
0.002433
0.00285358
0.00306788
0.00316359
0.00318803
0.00318083
0.00317105
0.00299412
0.00268325
0.00258802
0.00263762
0.00279508
0.00294761
0.00301595
0.00320563
0.003494
0.00382084
0.00408969
0.00426527
0.00435841
0.00438312
0.00435454
0.0042872
0.00419265
0.00407961
0.00395467
0.00382295
0.00368843
0.00355328
0.00341706
0.00327485
0.00311421
0.00291313
0.00263659
0.000294359
0.00156318
0.00242013
0.00284381
0.0030581
0.00315587
0.00318747
0.00319288
0.00319733
0.00281336
0.00256545
0.00250892
0.00257521
0.00274074
0.00302199
0.00316975
0.00338336
0.00368611
0.00400083
0.00423952
0.00438794
0.00445904
0.0044665
0.004424
0.00434444
0.00423839
0.00411427
0.00397893
0.00383798
0.00369629
0.00355764
0.00342168
0.00328324
0.00313019
0.00294023
0.00267667
0.000291984
0.00154356
0.00240485
0.00283242
0.0030484
0.00315018
0.00319065
0.0032091
0.00311605
0.00268471
0.00248599
0.00245705
0.0025398
0.00271618
0.00301791
0.00332334
0.00355673
0.00386365
0.00416013
0.00437328
0.00449883
0.00455146
0.00454404
0.0044888
0.00439732
0.0042795
0.00414373
0.00399731
0.00384635
0.00369823
0.00355569
0.00341902
0.00328377
0.00313818
0.00295964
0.00271003
0.000289504
0.00152299
0.00238769
0.00281992
0.0030391
0.00314659
0.00319711
0.00322825
0.00296997
0.00259461
0.00243344
0.00242643
0.00252405
0.00271408
0.00303513
0.00347396
0.00372526
0.00403098
0.00430648
0.00449643
0.00460205
0.00463839
0.00461725
0.00454955
0.0044458
0.00431552
0.00416728
0.00400909
0.00384931
0.00369367
0.00354621
0.0034081
0.00327562
0.00313737
0.00297057
0.00273579
0.000286944
0.00150177
0.0023691
0.00280667
0.00303042
0.00314501
0.00320636
0.00324937
0.00286165
0.00253214
0.00240089
0.00241308
0.0025236
0.00272791
0.00307274
0.00359655
0.00389033
0.00419158
0.00444412
0.00461241
0.00469996
0.00472117
0.00468661
0.00460607
0.00448928
0.00434561
0.00418468
0.00401544
0.00384541
0.00368126
0.00352808
0.00338799
0.00325796
0.00312699
0.00297219
0.00275306
0.000284329
0.00148017
0.00234945
0.00279297
0.00302248
0.00314527
0.00321781
0.00327159
0.00278404
0.00249021
0.00238441
0.00241339
0.00253507
0.00275321
0.00312179
0.00367163
0.00405052
0.00434212
0.00457431
0.00472287
0.00479366
0.00480018
0.00475192
0.00465774
0.00452683
0.00436995
0.00419631
0.00401463
0.00383322
0.00365972
0.00350025
0.00335779
0.00323
0.00310627
0.00296368
0.00276087
0.000281679
0.00145842
0.00232906
0.00277906
0.00301533
0.00314714
0.00323073
0.00319511
0.002729
0.00246463
0.00238049
0.00242415
0.00255588
0.00278697
0.00317766
0.00375167
0.00420581
0.00448448
0.00469812
0.00482858
0.00488343
0.00487522
0.00481255
0.00470363
0.00455901
0.00438819
0.00420045
0.0040051
0.00381134
0.00362783
0.00346164
0.0033166
0.00319097
0.00307448
0.00294422
0.0027582
0.00027901
0.00143667
0.00230817
0.00276508
0.00300897
0.00315036
0.00324459
0.00312263
0.00269092
0.00245121
0.00238616
0.00244281
0.00258417
0.00282771
0.00323758
0.00383671
0.00435487
0.00461984
0.0048161
0.00492972
0.00496902
0.00494563
0.00486771
0.00474432
0.00458485
0.00439869
0.0041955
0.00398533
0.00377835
0.00358427
0.00341114
0.00326352
0.00314013
0.00303088
0.0029129
0.00274389
0.000276336
0.00141509
0.002287
0.00275117
0.00300337
0.00315468
0.00325904
0.00306949
0.00266587
0.00244751
0.0023994
0.00246763
0.00261847
0.00287391
0.00329944
0.00392228
0.00449572
0.0047483
0.00492844
0.00502607
0.00504982
0.00501077
0.00491757
0.00477862
0.00460289
0.00439988
0.00417986
0.00395373
0.00373276
0.00352773
0.00334763
0.00319765
0.00307672
0.0029747
0.00286869
0.00271086
0.00027367
0.00139378
0.00226571
0.00273741
0.00299846
0.0031599
0.00327382
0.00303149
0.00265098
0.00245192
0.00241879
0.00249733
0.00265759
0.00292436
0.00336318
0.0040063
0.00462968
0.00487021
0.00503511
0.00511714
0.00512502
0.00507033
0.0049611
0.00480526
0.00461165
0.00439018
0.00415186
0.00390866
0.00367301
0.00345683
0.00326999
0.00311809
0.00299996
0.00290494
0.0026838
0.0024516
0.000271021
0.00137283
0.00224445
0.00272387
0.00299418
0.00316579
0.00328875
0.00300502
0.00264423
0.00246293
0.00244303
0.00253092
0.00270029
0.00297769
0.003429
0.00408907
0.00475649
0.0049856
0.00513581
0.00520174
0.0051942
0.00512353
0.00499717
0.00482284
0.00460957
0.00436788
0.00410977
0.00384842
0.00359756
0.00337028
0.00317721
0.0030241
0.00290918
0.00270999
0.00243751
0.00223089
0.000268395
0.00135231
0.00222333
0.00271058
0.00299045
0.00317221
0.00330371
0.00298766
0.00264409
0.00247915
0.00247106
0.00256754
0.00274561
0.00303338
0.00349618
0.00416987
0.00487644
0.00509426
0.00522881
0.00527973
0.00525687
0.00516945
0.00502453
0.00482988
0.00459499
0.00433122
0.00405179
0.00377131
0.00350495
0.00326696
0.00306859
0.00291535
0.0028042
0.00247522
0.00222757
0.00205786
0.000265799
0.00133226
0.00220243
0.00269758
0.0029872
0.00317901
0.00331861
0.00297761
0.00264933
0.00249944
0.002502
0.00260651
0.00279297
0.00309077
0.00356404
0.00424792
0.00498905
0.00519431
0.00531457
0.00535098
0.00531241
0.00520706
0.00504185
0.00482481
0.00456614
0.00427834
0.00397611
0.00367571
0.00339391
0.0031461
0.00294392
0.00279223
0.00258967
0.00226597
0.00204648
0.00191456
0.000263239
0.00131269
0.00218182
0.00268488
0.00298438
0.00318609
0.00333338
0.00297345
0.00265889
0.0025228
0.00253507
0.00264719
0.00284185
0.00314924
0.00363163
0.00432273
0.00508769
0.00528654
0.00539333
0.00541522
0.00536003
0.00523522
0.00504768
0.00480597
0.00452123
0.0042074
0.00388098
0.0035602
0.00326355
0.00300754
0.00280374
0.00265587
0.00237583
0.00207707
0.00188854
0.00179549
0.000260721
0.00129362
0.00216155
0.0026725
0.00298193
0.00319338
0.00334805
0.00297401
0.00267184
0.00254827
0.00256944
0.00268897
0.00289182
0.00320857
0.00369961
0.00439416
0.00515191
0.00537164
0.00546519
0.005472
0.00539892
0.00525274
0.00504055
0.00477164
0.00445842
0.0041166
0.00376485
0.00342371
0.00311359
0.0028519
0.00264963
0.00250859
0.00218073
0.00190772
0.00175433
0.00169951
0.000258246
0.0012751
0.00214167
0.00266048
0.00297996
0.00320089
0.00336242
0.00297824
0.00268743
0.00257521
0.00260463
0.00273142
0.0029426
0.00326873
0.00376732
0.00446217
0.00520925
0.00545008
0.00553008
0.00552082
0.00542813
0.00525835
0.00501893
0.00472014
0.00437596
0.00400431
0.00362649
0.00326576
0.00294462
0.00268097
0.0024844
0.00235383
0.00199966
0.00175888
0.00164426
0.00162748
0.000255818
0.00125714
0.00212235
0.00264898
0.00297824
0.0032084
0.00337648
0.00298544
0.00270511
0.00260319
0.00264037
0.00277433
0.00299399
0.00332953
0.0038346
0.00452654
0.0052608
0.00552193
0.00558777
0.00556102
0.00544666
0.00525077
0.0049813
0.00464979
0.00427224
0.00386921
0.00346523
0.00308674
0.00275836
0.00249782
0.00231214
0.00216717
0.00183168
0.00163221
0.00155925
0.00158095
0.000253437
0.00123999
0.00210344
0.00263767
0.00297668
0.00321582
0.00337795
0.002995
0.00272446
0.00263185
0.0026764
0.00281752
0.00304583
0.0033907
0.00390113
0.00458697
0.00530548
0.0055873
0.0056379
0.00559187
0.00545348
0.00522867
0.00492615
0.00455908
0.00414589
0.00371046
0.00328117
0.00288816
0.002558
0.00230712
0.00213815
0.00197089
0.00167944
0.00153028
0.0015021
0.00156405
0.000251131
0.00122309
0.00208483
0.00262659
0.00297527
0.00322312
0.00337835
0.00300639
0.00274501
0.00266092
0.00271254
0.00286087
0.00309798
0.00345203
0.00396665
0.00464363
0.00534336
0.00564609
0.00567998
0.00561256
0.00544751
0.00519077
0.0048521
0.00444669
0.003996
0.00352792
0.00307549
0.00267299
0.00234838
0.00211537
0.00196864
0.00177652
0.00154799
0.0014567
0.0014776
0.00158708
0.000248896
0.00120649
0.00206657
0.00261577
0.002974
0.00323031
0.00338033
0.00301911
0.00276644
0.00269024
0.00274868
0.00290432
0.00315041
0.00351347
0.00403126
0.00469711
0.005375
0.00569801
0.00571342
0.00562224
0.00542765
0.00513584
0.00475792
0.00431167
0.00382225
0.00332241
0.00285077
0.00244587
0.00213615
0.00192769
0.00180906
0.00159931
0.00144235
0.00141417
0.00148778
0.00164646
0.000246726
0.00119026
0.0020487
0.00260523
0.00297286
0.0032374
0.00338349
0.00303278
0.00278853
0.00271969
0.00278478
0.00294788
0.00320315
0.00357512
0.00409534
0.00474838
0.0054012
0.00574258
0.0057375
0.00561998
0.00539283
0.00506275
0.00464268
0.00415357
0.00362515
0.00309604
0.00261124
0.00221305
0.00192713
0.00175176
0.00166499
0.00144567
0.00136779
0.00140621
0.00153204
0.0017322
0.000244618
0.00117447
0.00203128
0.00259499
0.00297185
0.00324441
0.00338748
0.0030471
0.0028111
0.0027492
0.00282085
0.00299161
0.0032563
0.00363716
0.00415935
0.00479844
0.0054227
0.00577921
0.00575144
0.00560484
0.00534205
0.00497059
0.00450578
0.00397264
0.00340634
0.0028525
0.00236305
0.00198295
0.00173124
0.00159398
0.0014645
0.00132725
0.001333
0.00143496
0.00160421
0.00180982
0.000242567
0.00115915
0.00201435
0.00258508
0.00297099
0.00325137
0.00339205
0.00306186
0.00283397
0.00277873
0.00285692
0.00303557
0.0033099
0.0036996
0.00422317
0.00484704
0.0054394
0.00580716
0.00575439
0.00557593
0.0052744
0.00485864
0.00434721
0.00377009
0.00316892
0.00259738
0.00211425
0.00176453
0.00155501
0.00145798
0.00130045
0.0012591
0.0013404
0.00149193
0.00167924
0.00177539
0.000240572
0.00114433
0.00199794
0.00257553
0.00297029
0.0032583
0.00339707
0.00307693
0.00285704
0.00280827
0.00289303
0.00307979
0.0033639
0.00376216
0.00428599
0.00489288
0.00544871
0.00578877
0.00574551
0.00553238
0.0051891
0.00472655
0.00416765
0.00354838
0.00291775
0.0023383
0.00187468
0.00156642
0.00140332
0.00133238
0.00120184
0.00124245
0.0013824
0.00155764
0.00171842
0.00174512
0.000238629
0.00113004
0.00198208
0.00256635
0.00296977
0.00326525
0.00340248
0.00309219
0.00288022
0.00283784
0.00292925
0.00312431
0.00341825
0.0038245
0.0043467
0.00493277
0.00544473
0.00572418
0.00572423
0.00547344
0.00508551
0.00457435
0.0039687
0.00331155
0.0026597
0.00208466
0.00165407
0.00139536
0.00127826
0.00119705
0.00115889
0.00126796
0.00144487
0.00161666
0.00170699
0.00171736
0.000236737
0.00111629
0.00196681
0.00255758
0.00296946
0.00327224
0.00340825
0.00310762
0.0029035
0.00286751
0.00296574
0.00316932
0.00347309
0.00388668
0.00440502
0.0049651
0.00542595
0.00563566
0.00557842
0.0053524
0.00496305
0.00440247
0.00375316
0.00306552
0.00240368
0.0018472
0.00146134
0.00125536
0.00117916
0.00113006
0.00116151
0.00132125
0.00151103
0.00163331
0.00169702
0.00168992
0.000234894
0.00110311
0.00195215
0.00254925
0.00296938
0.00327932
0.00341444
0.00312325
0.00292696
0.00289745
0.00300274
0.00321519
0.00352902
0.00394954
0.00446224
0.00499218
0.00539512
0.00553261
0.00539756
0.00510069
0.00467602
0.00419155
0.00352524
0.00281832
0.00216015
0.00163654
0.00130288
0.00114667
0.00110266
0.00111127
0.00119439
0.00137465
0.00152519
0.00163536
0.00168444
0.00166021
0.000233098
0.00109049
0.00193813
0.00254137
0.00296956
0.00328654
0.00342113
0.00313917
0.00295071
0.00292789
0.00304065
0.00326255
0.00358694
0.00401438
0.00452035
0.00501802
0.00536064
0.00542451
0.00521776
0.00485637
0.00437961
0.00386811
0.00329183
0.00258001
0.00194007
0.00146068
0.00118048
0.00106578
0.00104372
0.00109015
0.00120798
0.00137307
0.00152915
0.00163042
0.00166472
0.00162465
0.000231349
0.00107845
0.00192477
0.00253397
0.00297003
0.00329392
0.00342846
0.00315551
0.00297495
0.00295914
0.00307995
0.00331203
0.00364769
0.00408222
0.00458055
0.00504454
0.00532696
0.00531881
0.00504429
0.00462634
0.00411017
0.00358053
0.0030646
0.00236193
0.00175309
0.0013233
0.0010916
0.00100738
0.000997375
0.00105338
0.00118787
0.00136612
0.00152163
0.00161159
0.00163317
0.00158019
0.000229645
0.00106698
0.00191209
0.00252709
0.00297082
0.00330153
0.00343659
0.00317245
0.00299989
0.00299153
0.00312107
0.00336418
0.00371178
0.00415331
0.00464265
0.00507114
0.00529328
0.00521539
0.00487603
0.00440582
0.00386068
0.00332899
0.0028541
0.0021741
0.00160563
0.00122518
0.0010312
0.00096591
0.000959605
0.00101839
0.00116253
0.00134347
0.00149386
0.00157644
0.00158919
0.00152654
0.000227986
0.00105609
0.00190011
0.00252075
0.00297197
0.00330939
0.00344565
0.00319017
0.00302574
0.00302532
0.00316434
0.0034193
0.00377931
0.00422726
0.00470561
0.00509636
0.00525815
0.0051131
0.00471229
0.00419612
0.00363341
0.00310888
0.00266909
0.00202364
0.00149971
0.0011629
0.000993049
0.000936411
0.000927622
0.000981451
0.00112154
0.00130107
0.00144827
0.00152619
0.00153295
0.00146371
0.00022637
0.00104577
0.00188883
0.00251496
0.00297351
0.00331755
0.0034558
0.00320882
0.00305269
0.00306075
0.00321001
0.00347753
0.0038501
0.00430338
0.00476825
0.00511909
0.00522085
0.00501124
0.00455524
0.00400759
0.00343334
0.00292066
0.00251369
0.00190948
0.00143005
0.00112772
0.000971131
0.00091519
0.000898699
0.000938802
0.00106768
0.00124241
0.00138694
0.00146203
0.00146498
0.00139196
0.000224798
0.00103602
0.00187828
0.00250975
0.00297546
0.00332606
0.00346714
0.00322853
0.0030809
0.00309799
0.00325821
0.00353884
0.00392381
0.00438091
0.00482968
0.00513872
0.00518093
0.00491473
0.00441716
0.00384745
0.00320481
0.00272518
0.00239184
0.00183083
0.00138914
0.00110845
0.000956387
0.000897508
0.000871719
0.000892701
0.00100277
0.0011691
0.0013112
0.00138499
0.0013859
0.00131166
0.000223269
0.00102684
0.00186845
0.00250515
0.00297786
0.00333494
0.00347975
0.00324942
0.00311047
0.00313716
0.00330901
0.00360314
0.00400006
0.0044592
0.00488935
0.005155
0.00514211
0.00483004
0.0043016
0.00370178
0.0030195
0.00254621
0.00229352
0.0017846
0.00137284
0.00110108
0.000947074
0.000882588
0.000847548
0.000846265
0.000929251
0.00108245
0.00122194
0.00129594
0.0012964
0.00122324
0.000221781
0.00101822
0.00185935
0.00250115
0.00298072
0.00334425
0.0034937
0.00327157
0.00314151
0.00317834
0.00336241
0.00367026
0.00407842
0.00453772
0.00494702
0.00516895
0.00510917
0.00476137
0.0042125
0.0035621
0.00288079
0.00240913
0.00215477
0.00176716
0.00137854
0.00110522
0.000943369
0.00087031
0.000827114
0.000803536
0.000851608
0.000984219
0.00112004
0.00119567
0.00119716
0.00112717
0.000220336
0.00101014
0.00185098
0.00249779
0.00298409
0.00335401
0.00350901
0.00329503
0.00317408