/*--------------------------------*- C++ -*----------------------------------*\
| =========                 |                                                 |
| \\      /  F ield         | OpenFOAM: The Open Source CFD Toolbox           |
|  \\    /   O peration     | Version:  v2012                                 |
|   \\  /    A nd           | Website:  www.openfoam.com                      |
|    \\/     M anipulation  |                                                 |
\*---------------------------------------------------------------------------*/
FoamFile
{
    version     2.0;
    format      ascii;
    class       volScalarField;
    location    "621";
    object      omega;
}
// * * * * * * * * * * * * * * * * * * * * * * * * * * * * * * * * * * * * * //

dimensions      [0 0 -1 0 0 0 0];


internalField   nonuniform List<scalar> 
6108
(
96.8902
100.712
104.877
109.44
114.464
120.03
126.239
133.222
141.147
150.239
160.805
173.273
188.259
206.68
229.955
260.386
301.902
361.653
453.611
607.454
43.1419
44.9909
47.0206
49.2587
51.739
54.5034
57.6045
61.1086
65.1004
69.6897
75.0204
81.2833
88.7354
97.7262
108.734
122.408
139.599
161.282
187.994
217.338
33.6708
35.1957
36.8725
38.7245
40.7801
43.0743
45.6505
48.5629
51.8802
55.6902
60.1068
65.2793
71.4069
78.7594
87.7093
98.7825
112.744
130.758
154.732
188.25
30.5518
31.9769
33.545
35.2783
37.2037
39.3541
41.7708
44.5048
47.6215
51.2041
55.3618
60.239
66.031
73.0082
81.5552
92.2373
105.919
123.991
148.831
184.823
29.4565
30.8491
32.3819
34.0767
35.9602
38.0649
40.4315
43.111
46.168
49.6864
53.776
58.5839
64.3113
71.2404
79.7793
90.5374
104.461
123.079
148.958
186.528
29.4534
30.847
32.3804
34.0756
35.9594
38.0644
40.4311
43.1107
46.1678
49.6863
53.7759
58.5839
64.3112
71.2404
79.7793
90.5374
104.461
123.079
148.958
186.528
30.541
31.9694
33.5396
35.2745
37.201
39.3524
41.7696
44.5041
47.621
51.2038
55.3616
60.2388
66.0309
73.0081
81.5552
92.2373
105.919
123.991
148.831
184.823
33.6453
35.1787
36.8606
38.7164
40.7747
43.0707
45.6481
48.5613
51.8791
55.6895
60.1063
65.279
71.4067
78.7593
87.7092
98.7825
112.744
130.758
154.732
188.25
43.0911
44.9551
46.9969
49.2423
51.7278
54.4959
57.5995
61.1052
65.0982
69.6883
75.0194
81.2827
88.735
97.7259
108.733
122.407
139.599
161.282
187.994
217.338
96.9499
100.753
104.906
109.46
114.478
120.04
126.246
133.227
141.15
150.241
160.806
173.274
188.26
206.681
229.956
260.386
301.902
361.653
453.611
607.454
84.2645
87.0843
90.1102
93.3685
37.1513
38.4706
39.8992
41.451
28.7473
29.8293
31.0025
32.2784
25.9555
26.9653
28.0602
29.2514
24.9638
25.9514
27.0218
28.1858
24.9457
25.9394
27.0142
28.1811
25.8701
26.9095
28.0269
29.2327
28.385
29.5899
30.8644
32.2126
34.5924
36.8211
38.8984
40.9809
52.0546
59.6614
69.3047
81.6626
13.8298
13.0219
13.1791
15.0012
20.5571
24.8573
28.3313
31.2551
33.7258
35.9357
37.9671
39.867
41.6657
43.3848
45.0404
46.6454
48.2103
49.7444
51.2563
52.7539
54.245
55.7373
57.2386
58.7569
60.3001
61.8768
63.4957
65.1657
66.8964
68.6978
70.5802
72.5548
74.6334
76.8289
79.1553
81.628
14.7048
9.75577
12.3303
17.576
21.2953
23.2081
24.0964
24.5618
24.7946
24.895
24.9409
24.9602
24.9695
24.981
25.0043
25.0478
25.1189
25.2238
25.3677
25.5549
25.7887
26.0716
26.4051
26.7904
27.2287
27.7207
28.2674
28.8698
29.529
30.2464
31.0239
31.8642
32.7706
33.7469
34.798
35.9303
18.1833
11.669
14.8636
18.2021
20.0228
20.6942
20.7978
20.6602
20.3882
20.0678
19.7571
19.4779
19.2421
19.0561
18.9236
18.8465
18.8254
18.8601
18.9495
19.0919
19.2854
19.528
19.8177
20.1528
20.5321
20.9547
21.4201
21.9285
22.4804
23.0773
23.7207
24.4132
25.1577
25.9582
26.8193
27.7467
22.1927
13.6428
15.7513
17.5758
18.4257
18.6091
18.4625
18.1511
17.7639
17.3767
17.0296
16.7385
16.5103
16.3471
16.2485
16.2125
16.2363
16.3165
16.4495
16.6316
16.8594
17.1299
17.4404
17.7889
18.174
18.595
19.0516
19.5442
20.0738
20.6419
21.2507
21.9027
22.6014
23.3508
24.1556
25.0216
25.9022
14.8355
15.8723
16.7026
17.0361
17.0134
16.7872
16.4478
16.0717
15.7198
15.421
15.1863
15.0192
14.9192
14.8838
14.9095
14.9921
15.1273
15.3108
15.5384
15.8065
16.1119
16.4521
16.8252
17.2301
17.6662
18.1337
18.6333
19.1662
19.7341
20.3394
20.9849
21.6741
22.4112
23.2011
24.0496
28.5817
15.4903
15.6796
15.9304
15.9371
15.8129
15.5689
15.2549
14.9318
14.6453
14.4164
14.253
14.1565
14.1253
14.1562
14.2453
14.3882
14.5805
14.8177
15.0956
15.4103
15.7588
16.1386
16.5479
16.986
17.4525
17.948
18.4734
19.0302
19.6204
20.2462
20.9103
21.6159
22.3668
23.1678
24.0247
30.526
15.8029
15.3711
15.2788
15.1116
14.9079
14.6677
14.3976
14.1392
13.9247
13.7694
13.6788
13.6536
13.6922
13.7917
13.9487
14.1591
14.4184
14.722
15.0653
15.4441
15.8548
16.2946
16.7618
17.2556
17.7764
18.3251
18.9038
19.515
20.1614
20.8459
21.5708
22.3383
23.1495
24.0049
24.9042
32.1228
15.8898
15.0337
14.7367
14.4794
14.2303
13.9906
13.7668
13.5727
13.4282
13.3443
13.3251
13.3716
13.4835
13.6591
13.8963
14.1917
14.5409
14.9388
15.3796
15.8576
16.3675
16.905
17.4671
18.0524
18.6612
19.2957
19.9597
20.6592
21.4023
22.1978
23.0546
23.9798
24.978
26.0495
27.2064
33.4392
15.8577
14.708
14.2871
13.9828
13.7148
13.4789
13.2916
13.155
13.0741
13.056
13.1048
13.2231
13.4127
13.6746
14.0086
14.4127
14.8829
15.4138
15.9984
16.6298
17.3011
18.0066
18.7417
19.5035
20.2906
21.1036
21.9453
22.8217
23.7439
24.736
25.8359
27.0878
28.5554
30.3068
32.3517
34.5213
15.7792
14.4091
13.911
13.582
13.3103
13.0869
12.9247
12.8338
12.807
12.8465
12.9572
13.1442
13.4126
13.7667
14.2084
14.7375
15.3505
16.0421
16.8062
17.6375
18.5324
19.4904
20.5143
21.6103
22.7885
24.0623
25.449
26.9692
28.6473
30.5119
32.5951
34.9274
37.7697
41.4009
46.0676
45.565
45.3949
41.0264
32.5766
20.7245
17.2502
13.3899
13.2934
8.35913
6.43292
5.41443
11.4752
3.98522
3.75772
4.48259
11.0786
3.00306
3.26816
4.41234
11.0968
2.77963
3.20939
4.49033
11.301
2.73897
3.23526
4.61248
11.6337
2.75017
3.2756
4.71608
12.0063
2.77825
3.31743
4.80394
12.4089
2.81408
3.3609
4.88702
12.8408
2.85593
3.40887
4.97733
13.3082
2.90405
3.46427
5.07862
13.8153
2.95731
3.52169
5.17863
14.335
3.01408
3.58164
5.27874
14.8636
3.0747
3.64451
5.37929
15.3964
3.13929
3.71052
5.48041
15.9309
3.20783
3.77975
5.58209
16.4643
3.28022
3.85219
5.68414
16.9933
3.35626
3.92768
5.78618
17.513
3.43569
4.006
5.88768
18.0166
3.51824
4.08695
5.98815
18.4937
3.60364
4.17049
6.08747
18.9265
3.69158
4.25667
6.18563
19.2903
3.78194
4.34522
6.27897
19.5901
3.87462
4.43624
6.36707
19.8644
3.96504
4.52297
6.44954
20.1251
4.04563
4.59761
6.53057
20.3088
4.11385
4.65796
6.584
20.4398
4.1679
4.70025
6.6158
20.5033
4.2061
4.72395
6.62648
20.468
4.22264
4.72871
6.61774
20.3468
4.21531
4.71362
6.58938
20.1534
4.1821
4.67895
6.54495
19.8924
4.12393
4.62585
6.49092
19.5668
4.04853
4.56072
6.42915
19.1863
3.96343
4.49206
6.36344
18.7598
3.87637
4.42494
6.29723
18.2972
3.79397
4.36311
6.23328
17.8084
3.71991
4.30913
6.17331
17.302
3.65644
4.26435
6.11801
16.7844
3.60475
4.22926
6.06725
16.2611
3.56566
4.20429
6.02158
15.7359
3.54165
4.19371
5.99427
15.2231
3.53467
4.20315
5.99874
14.7435
3.54339
4.22995
6.02468
14.2852
3.5666
4.2715
6.06253
13.8397
3.60315
4.3256
6.10736
13.4004
3.65197
4.39037
6.15534
12.962
3.71209
4.46422
6.20386
12.5196
3.78264
4.54593
6.2512
12.0683
3.86294
4.6347
6.2963
11.6031
3.9526
4.73021
6.33843
11.1183
4.05175
4.83263
6.37664
10.6072
4.16122
4.94243
6.40878
10.0616
4.28209
5.05919
6.42939
9.47059
4.41319
5.17733
6.42409
8.81695
4.5492
5.27904
6.36116
8.07204
4.67537
5.34165
6.19194
7.1749
4.88475
5.3836
5.84161
6.0231
9.16707
8.76835
7.77301
4.56772
35.4726
15.6789
14.1241
13.5749
13.2332
12.9668
12.7603
12.6235
12.5626
12.5793
12.6677
12.8331
13.0835
13.4269
13.8693
14.4128
15.0547
15.7881
16.604
17.4934
18.4495
19.4693
20.5541
21.7095
22.9452
24.2736
25.7097
27.2702
28.9697
30.8168
32.8246
34.993
37.2987
39.6725
41.9615
44.0374
36.2734
15.5768
13.8659
13.2835
12.9367
12.6788
12.4882
12.3706
12.3314
12.3723
12.4942
12.6991
12.9962
13.3934
13.894
14.4936
15.1805
15.9383
16.7492
17.5977
18.4722
19.3657
20.2747
21.1973
22.1328
23.077
24.0182
24.9377
25.79
26.4917
27.0315
27.3436
27.3287
26.8869
25.901
23.7407
36.9511
15.4761
13.6275
13.023
12.6756
12.426
12.2472
12.1412
12.1131
12.1657
12.3023
12.5277
12.8476
13.2651
13.7739
14.3577
14.9921
15.6506
16.3093
16.9498
17.5588
18.1277
18.649
19.1089
19.4902
19.7584
19.8368
19.7382
19.4761
19.0812
18.4702
17.5889
16.3817
14.7523
12.8533
10.58
37.4956
15.3667
13.4013
12.7823
12.4361
12.1925
12.02
11.9171
11.8896
11.9421
12.0785
12.3037
12.6187
13.0155
13.4741
13.9642
14.4517
14.9057
15.3025
15.6258
15.8651
16.0071
16.0302
15.8957
15.5331
14.9807
14.3463
13.6121
12.7677
11.8337
10.7938
9.65154
8.45368
7.21474
6.07898
5.00618
37.9246
15.2526
13.1833
12.5538
12.2087
11.9675
11.795
11.6874
11.6516
11.6939
11.8179
12.0244
12.3057
12.6402
12.9927
13.3226
13.5923
13.7732
13.8477
13.8028
13.6212
13.2734
12.7104
11.8835
10.9996
10.1036
9.21769
8.35044
7.51286
6.7145
5.95458
5.26882
4.64269
4.0534
3.45791
3.1545
38.2492
15.1366
12.9711
12.332
11.9869
11.7441
11.5661
11.4477
11.3972
11.4221
11.5241
11.6962
11.9177
12.1524
12.3542
12.4779
12.4885
12.3655
12.0946
11.6566
11.0218
10.1615
9.08535
8.08038
7.16938
6.37402
5.68972
5.10099
4.6083
4.18257
3.78332
3.3985
3.08588
2.86699
2.68248
2.65604
38.4786
15.0192
12.7634
12.1138
11.7668
11.5192
11.3314
11.1983
11.13
11.1339
11.2068
11.3312
11.4716
11.5785
11.6004
11.4943
11.2333
10.8034
10.1858
9.36629
8.34894
7.19155
6.18686
5.37919
4.74427
4.25821
3.87932
3.55707
3.26927
3.02077
2.83588
2.66829
2.54598
2.48272
2.46557
2.53426
38.6219
14.9008
12.5594
11.898
11.547
11.2921
11.0923
10.9435
10.8572
10.8392
10.8787
10.945
10.9885
10.9509
10.7806
10.4421
9.92013
9.20146
8.28444
7.2034
6.05939
5.08987
4.37591
3.87297
3.49675
3.21073
2.983
2.81173
2.66738
2.55202
2.47875
2.42278
2.38769
2.38171
2.41494
2.51762
38.6877
14.7817
12.3589
11.6842
11.3277
11.0642
10.8522
10.6891
10.5873
10.5487
10.5523
10.5535
10.4908
10.3027
9.94282
9.38874
8.63489
7.68645
6.59476
5.48293
4.52554
3.85789
3.39581
3.06719
2.84764
2.68882
2.56974
2.49407
2.4409
2.40245
2.3774
2.36145
2.35746
2.37319
2.42296
2.53666
38.6844
14.6625
12.1623
11.4728
11.11
10.8381
10.6154
10.4416
10.3286
10.2719
10.2388
10.1711
9.99944
9.66406
9.12935
8.3911
7.45781
6.37934
5.27751
4.32116
3.63119
3.15769
2.85352
2.65432
2.53666
2.46299
2.41829
2.39416
2.38059
2.37264
2.36884
2.36914
2.37702
2.40044
2.45477
2.57057
38.6203
14.5439
11.97
11.2649
10.8956
10.6165
10.3865
10.2069
10.0877
10.0162
9.94682
9.80963
9.53166
9.05997
8.37558
7.49451
6.4529
5.35661
4.36866
3.61841
3.10499
2.77394
2.58311
2.47427
2.41706
2.3905
2.38179
2.38261
2.38723
2.3928
2.39862
2.40581
2.41818
2.44378
2.49828
2.61292
38.5029
14.4263
11.7827
11.0615
10.6863
10.4025
10.1694
9.9898
9.86979
9.78675
9.68233
9.47748
9.10007
8.50831
7.70505
6.7289
5.65274
4.6237
3.79289
3.19699
2.81351
2.59105
2.47097
2.41177
2.38948
2.38818
2.39729
2.41037
2.42367
2.43549
2.44576
2.45599
2.47004
2.49588
2.54923
2.66184
38.3397
14.3105
11.6012
10.8639
10.4839
10.1983
9.96704
9.79331
9.6775
9.586
9.44847
9.18014
8.71198
8.01817
7.12924
6.10595
5.05403
4.13119
3.4376
2.96022
2.67409
2.51778
2.44016
2.41008
2.40785
2.42006
2.43817
2.45721
2.47456
2.48927
2.50163
2.51334
2.52817
2.55388
2.60604
2.71691
38.1375
14.1967
11.4262
10.6731
10.2899
10.0059
9.78148
9.61909
9.51193
9.41481
9.24787
8.92106
8.36945
7.59256
6.65145
5.62079
4.62873
3.81656
3.22264
2.83724
2.6194
2.5048
2.45387
2.44158
2.45079
2.47014
2.49262
2.5143
2.53331
2.54919
2.56255
2.57516
2.59066
2.61652
2.66774
2.7761
37.9026
14.0855
11.258
10.4898
10.1052
9.82641
9.61366
9.46756
9.37285
9.27358
9.08168
8.69977
8.07261
7.23173
6.2652
5.25662
4.33861
3.61896
3.10509
2.78722
2.61391
2.52729
2.494
2.49258
2.50819
2.53107
2.55532
2.57773
2.597
2.61309
2.62689
2.64022
2.65657
2.68269
2.73313
2.83933
37.6406
13.977
11.0972
10.3147
9.9307
9.66044
9.46374
9.33808
9.25914
9.16116
8.94673
8.5139
7.82246
6.93281
5.95799
4.99125
4.14935
3.50145
3.05059
2.78245
2.64029
2.57289
2.55113
2.55624
2.57517
2.5994
2.62379
2.64572
2.66433
2.67999
2.69386
2.70781
2.72501
2.75182
2.80201
2.90648
37.3567
13.8712
10.9438
10.1482
9.76659
9.50806
9.33115
9.22918
9.16859
9.07504
8.83983
8.36109
7.61573
6.69003
5.71985
4.80203
4.03157
3.43856
3.0377
2.80821
2.68864
2.63454
2.62025
2.62906
2.64934
2.67346
2.69688
2.71743
2.73469
2.7494
2.76294
2.77735
2.79564
2.82359
2.87413
2.97743
37.0553
13.7683
10.7978
9.9903
9.61293
9.36892
9.21475
9.13886
9.09873
9.01186
8.75784
8.23845
7.44825
6.49861
5.53914
4.6693
3.95945
3.41712
3.05802
2.85625
2.75301
2.70814
2.69856
2.70918
2.72944
2.7524
2.77398
2.7924
2.8077
2.82084
2.83375
2.84858
2.86814
2.89766
2.94918
3.05194
36.7405
13.6681
10.6593
9.841
9.46951
9.24233
9.11303
9.06477
9.04711
8.96833
8.69754
8.14255
7.3156
6.35086
5.40624
4.58201
3.92087
3.42316
3.10042
2.92054
2.82958
2.79121
2.78446
2.79554
2.81475
2.83569
2.85467
2.87029
2.88286
2.89408
2.90612
2.92126
2.9422
2.97367
3.02679
3.12971
36.4156
13.5705
10.5278
9.70007
9.3359
9.12735
9.02429
9.00438
9.01098
8.94134
8.65575
8.06986
7.21365
6.24071
5.31439
4.53064
3.90697
3.44866
3.15888
2.99725
2.91589
2.88213
2.87687
2.88739
2.90471
2.92289
2.9385
2.95055
2.96001
2.96893
2.9798
2.99508
3.01744
3.0512
3.10657
3.21041
36.0838
13.4752
10.4032
9.56719
9.21152
9.02287
8.94671
8.95534
8.98757
8.92797
8.62932
8.01712
7.13877
6.16324
5.25725
4.50349
3.91441
3.49355
3.23082
3.08412
3.01033
2.9798
2.975
2.98414
2.99886
3.01339
3.02494
3.033
3.03889
3.04507
3.05442
3.06965
3.09346
3.12984
3.1881
3.29367
35.7474
13.3821
10.285
9.44193
9.0957
8.92769
8.87851
8.91588
8.97447
8.92545
8.61546
7.98153
7.0879
6.11433
5.22861
4.49654
3.93946
3.55371
3.31388
3.1795
3.11169
3.08333
3.07817
3.08522
3.09642
3.10671
3.1137
3.11726
3.11908
3.12207
3.12955
3.14453
3.1698
3.20911
3.27092
3.3791
35.4087
13.2908
10.1729
9.32384
8.98776
8.84065
8.81805
8.88432
8.96954
8.93144
8.61184
7.96075
7.05843
6.09043
5.22175
4.50844
3.9813
3.6264
3.40611
3.28213
3.21905
3.19195
3.1857
3.18981
3.19688
3.2024
3.20432
3.20282
3.20003
3.19936
3.20462
3.21915
3.24589
3.28846
3.35452
3.46625
35.0694
13.2011
10.0663
9.21244
8.88698
8.76068
8.76394
8.85899
8.97092
8.9439
8.61648
7.9528
7.04824
6.08865
5.2309
4.53775
4.03995
3.7103
3.50644
3.39108
3.33158
3.305
3.29683
3.29728
3.29967
3.29988
3.29618
3.28905
3.28108
3.27627
3.27893
3.29277
3.32095
3.36703
3.43809
3.55466
34.7311
13.1128
9.96491
9.10722
8.79265
8.68676
8.71495
8.83846
8.97698
8.96102
8.62773
7.95596
7.05533
6.10653
5.25603
4.58262
4.11233
3.80402
3.61391
3.50551
3.44884
3.42176
3.41076
3.40692
3.40409
3.39848
3.38858
3.37522
3.36148
3.35198
3.35161
3.36441
3.39375
3.44338
3.52063
3.64391
34.3948
13.0256
9.86825
9.00769
8.7041
8.61798
8.67008
8.82157
8.98634
8.98131
8.6442
7.96847
7.07563
6.13801
5.29885
4.64547
4.19721
3.90648
3.72764
3.62541
3.57001
3.54125
3.52666
3.51796
3.5094
3.49743
3.48075
3.46052
3.44036
3.42562
3.4217
3.43291
3.46288
3.51663
3.60147
3.73185
34.0617
12.9395
9.77591
8.91338
8.62071
8.55357
8.62847
8.8073
8.99783
9.00357
8.66474
7.98875
7.10568
6.18209
5.35815
4.72305
4.29285
4.01672
3.84821
3.74972
3.69401
3.66256
3.64368
3.6296
3.61483
3.59597
3.57189
3.5441
3.51687
3.49628
3.48824
3.49725
3.52738
3.58567
3.67773
3.81333
33.7322
12.854
9.68753
8.82382
8.54191
8.49286
8.58942
8.79484
9.01048
9.02688
8.68844
8.01554
7.14448
6.23733
5.43074
4.81252
4.39837
4.13557
3.97407
3.87716
3.81977
3.78474
3.76099
3.74106
3.71962
3.69333
3.66121
3.62516
3.59016
3.56314
3.55043
3.55665
3.58694
3.64924
3.74708
3.88575
33.4073
12.7693
9.60275
8.73862
8.46721
8.43528
8.55238
8.78351
9.02346
9.05043
8.71444
8.04776
7.19102
6.30214
5.51374
4.91368
4.51421
4.2611
4.10375
4.00652
3.94625
3.90689
3.87775
3.85157
3.82303
3.78878
3.74795
3.70292
3.65954
3.62557
3.60773
3.61074
3.64093
3.70612
3.80778
3.94686
33.0877
12.6853
9.5212
8.65742
8.39617
8.38041
8.51713
8.77293
9.03573
9.07259
8.74113
8.08411
7.24418
6.37581
5.60882
5.0263
4.63811
4.39162
4.2358
4.13658
4.07242
4.02811
3.99319
3.96043
3.92442
3.88167
3.83147
3.7768
3.72453
3.68328
3.66003
3.65944
3.6887
3.75512
3.85767
3.99386
32.7737
12.6018
9.44259
8.57988
8.32844
8.32816
8.48336
8.76252
9.04661
9.09318
8.76825
8.12364
7.30314
6.4578
5.71323
5.14716
4.76776
4.52573
4.36871
4.26607
4.19724
4.14754
4.10658
4.06702
4.0232
3.97146
3.91125
3.84643
3.78504
3.73645
3.70761
3.70295
3.72994
3.79483
3.89408
4.02311
32.4655
12.5186
9.36648
8.50569
8.26397
8.2782
8.45078
8.75192
9.05585
9.11219
8.7957
8.16598
7.36708
6.54645
5.82448
5.27345
4.90048
4.6599
4.50064
4.39372
4.31971
4.26439
4.21729
4.17082
4.11894
4.05774
3.98701
3.91178
3.84146
3.78574
3.75113
3.74147
3.76384
3.82294
3.91356
4.03037
32.1633
12.4347
9.29331
8.43505
8.20248
8.23023
8.41917
8.74095
9.06333
9.1297
8.82347
8.21077
7.43518
6.64014
5.94031
5.40276
5.03412
4.79288
4.63021
4.51839
4.43895
4.37798
4.3248
4.27143
4.2113
4.14027
4.05869
3.97326
3.89477
3.8325
3.79131
3.77444
3.7883
3.83579
3.91148
4.00918
31.8707
12.3543
9.22326
8.36764
8.14368
8.18401
8.38837
8.72943
9.06901
9.14584
8.85153
8.25765
7.50658
6.73734
6.05867
5.53292
5.16678
4.9232
4.75619
4.63908
4.55419
4.48774
4.42873
4.36859
4.30013
4.219
4.12657
4.03179
3.94664
3.87937
3.82844
3.80017
3.79936
3.82819
3.88309
3.9591
31.587
12.2769
9.15602
8.30317
8.08731
8.13937
8.35825
8.71729
9.07297
9.16075
8.87989
8.30626
7.58039
6.83653
6.17762
5.66194
5.29669
5.04946
4.87746
4.75494
4.6648
4.59325
4.5288
4.46218
4.38543
4.29413
4.19135
4.08891
3.99957
3.92281
3.85989
3.81412
3.79077
3.79396
3.82432
3.88311
31.3117
12.2019
9.09129
8.24139
8.03316
8.09614
8.32871
8.7045
9.07532
9.17459
8.90852
8.3562
7.6557
6.93624
6.29531
5.78794
5.42222
5.17035
4.99301
4.86519
4.77025
4.69419
4.62491
4.55223
4.46737
4.36614
4.25422
4.14641
4.05188
3.96621
3.88361
3.81021
3.75487
3.72754
3.73073
3.78632
31.0441
12.1286
9.02879
8.18206
7.98103
8.05422
8.29969
8.69106
9.07619
9.18752
8.93736
8.40704
7.73155
7.03502
6.41004
5.90927
5.54196
5.28474
5.10198
4.96925
4.87017
4.79041
4.71706
4.63894
4.54634
4.43596
4.31704
4.20793
4.11
4.00733
3.89321
3.77906
3.68407
3.62866
3.61914
3.68209
30.7838
12.0565
8.96828
8.12497
7.93075
8.01351
8.27113
8.67704
9.07578
9.1997
8.96636
8.45831
7.80701
7.13152
6.52032
6.02455
5.65481
5.39175
5.20369
5.06665
4.96429
4.88182
4.80541
4.72268
4.62301
4.50502
4.38275
4.27646
4.17196
4.04007
3.87847
3.71147
3.57634
3.50376
3.49848
3.57886
30.5306
11.9852
8.90951
8.06993
7.88218
7.97392
8.24304
8.66252
9.07427
9.21128
8.99541
8.50952
7.88115
7.22455
6.62494
6.13273
5.76015
5.49094
5.29763
5.15703
5.05244
4.96847
4.89022
4.80405
4.69842
4.57549
4.45573
4.35482
4.23529
4.05674
3.83032
3.60525
3.43925
3.36539
3.37869
3.48191
30.2841
11.9145
8.85228
8.01674
7.83518
7.9354
8.21539
8.64758
9.07187
9.22238
9.02438
8.56017
7.95307
7.31299
6.7228
6.23295
5.85736
5.58209
5.38351
5.24011
5.13448
5.05042
4.97189
4.88387
4.77406
4.65031
4.53941
4.4442
4.29572
4.05047
3.74653
3.46869
3.28764
3.22588
3.26662
3.3953
30.0439
11.844
8.79639
7.96526
7.78965
7.89788
8.18819
8.63235
9.06878
9.2331
9.05308
8.60967
8.02181
7.39565
6.81273
6.3241
5.9454
5.66476
5.46139
5.31564
5.21017
5.12771
5.05092
4.96327
4.85201
4.73354
4.63736
4.54454
4.34916
4.0186
3.63493
3.31791
3.13816
3.09723
3.16764
3.32162
29.81
11.7736
8.74166
7.91532
7.74548
7.86133
8.16145
8.61693
9.06517
9.24348
9.08126
8.65732
8.08624
7.47114
6.89325
6.40467
6.02269
5.73721
5.53026
5.38339
5.27945
5.20024
5.1277
5.04354
4.93471
4.83
4.75258
4.6551
4.39502
3.96772
3.51091
3.17034
3.00315
2.98928
3.08619
3.2628
29.5822
11.703
8.68792
7.86679
7.70257
7.82569
8.13518
8.60141
9.06119
9.25352
9.10852
8.70225
8.14504
7.53792
6.96269
6.47288
6.08719
5.79741
5.58786
5.44149
5.34142
5.26809
5.20265
5.12611
5.02479
4.94265
4.88602
4.7756
4.43877
3.91222
3.3915
3.03902
2.89129
2.90542
3.02548
3.22121
29.3602
11.6321
8.63504
7.81955
7.66083
7.79094
8.1094
8.58589
9.05693
9.2631
9.13436
8.74347
8.19685
7.59448
7.01963
6.52738
6.1377
5.84397
5.63268
5.48833
5.39454
5.33063
5.27637
5.21243
5.12454
5.07126
5.03747
4.90886
4.49177
3.86933
3.2924
2.93703
2.8126
2.85104
2.98656
3.19725
29.144
11.5608
8.58287
7.77346
7.6202
7.75703
8.08412
8.57044
9.05246
9.27206
9.15819
8.77991
8.24036
7.63962
7.06311
6.56741
6.17349
5.87619
5.66406
5.52339
5.4385
5.3877
5.34959
5.30381
5.23578
5.21817
5.20672
5.0609
4.56898
3.85808
3.23194
2.88071
2.77142
2.82184
2.96695
3.18976
28.9334
11.489
8.53131
7.72843
7.58058
7.72393
8.05933
8.55511
9.04777
9.28014
9.17933
8.81055
8.2745
7.67255
7.0927
6.59273
6.19428
5.89371
5.68175
5.54654
5.47345
5.43965
5.4227
5.40079
5.35917
5.38273
5.39251
5.23804
4.68681
3.90505
3.23934
2.87013
2.75945
2.81371
2.96466
3.19755
28.7283
11.4166
8.48026
7.68437
7.54192
7.6916
8.03505
8.53992
9.04282
9.28703
9.1971
8.83446
8.29847
7.69288
7.10838
6.60342
6.19994
5.89613
5.68589
5.55849
5.49945
5.48609
5.49501
5.50293
5.49526
5.56031
5.59243
5.44922
4.87797
4.0374
3.30635
2.89705
2.77176
2.82367
2.97792
3.2195
28.5288
11.3437
8.42964
7.64117
7.50416
7.66003
8.01126
8.52488
9.03753
9.29239
9.21082
8.85086
8.31176
7.70054
7.11032
6.59953
6.19002
5.88507
5.67776
5.55834
5.51522
5.52524
5.56417
5.60799
5.63981
5.74526
5.81182
5.70864
5.14982
4.25776
3.43798
2.96167
2.80665
2.84991
3.00537
3.25458
28.3347
11.2701
8.37939
7.59878
7.46723
7.62916
7.98796
8.50999
9.03179
9.29582
9.21986
8.85914
8.31413
7.69569
7.09882
6.58091
6.16662
5.86188
5.6568
5.54486
5.51758
5.55322
5.62578
5.71052
5.78858
5.93032
6.04725
6.01494
5.50923
4.58122
3.65005
3.07067
2.86515
2.89156
3.04595
3.30187
28.146
11.1961
8.32946
7.55711
7.43109
7.59899
7.96513
8.4952
9.02544
9.29695
9.22363
8.85885
8.30555
7.67865
7.07415
6.54829
6.13224
5.82662
5.6226
5.51668
5.50336
5.56483
5.67331
5.80172
5.9336
6.10937
6.28914
6.356
5.95686
5.02583
3.96731
3.23866
2.95119
2.94859
3.09886
3.36052
27.9625
11.1215
8.27981
7.51612
7.39568
7.56947
7.94276
8.48048
9.01831
9.29535
9.22164
8.84974
8.28619
7.64976
7.03592
6.50547
6.08723
5.77954
5.57492
5.47246
5.47005
5.55495
5.69864
5.87043
6.05632
6.27089
6.52302
6.70813
6.47717
5.60778
4.42622
3.49374
3.07335
3.02213
3.16347
3.42977
27.7844
11.0466
8.23042
7.47577
7.36098
7.54059
7.92081
8.46576
9.01018
9.29063
9.21349
8.83174
8.2564
7.60958
6.98615
6.45355
6.03239
5.72111
5.51427
5.41206
5.41586
5.51863
5.69348
5.90664
6.14173
6.40822
6.73495
7.03845
7.03336
6.3307
5.06834
3.8804
3.24946
3.11592
3.23946
3.50899
27.6115
10.9713
8.18129
7.43601
7.32695
7.51232
7.89927
8.45096
9.00083
9.28243
9.19889
8.80492
8.21655
7.5579
6.92826
6.3935
5.96881
5.65232
5.44191
5.33638
5.34027
5.45221
5.65022
5.90182
6.18559
6.50231
6.89812
7.3148
7.56504
7.15923
5.93881
4.476
3.51928
3.23897
3.32698
3.5978
27.4438
10.8958
8.13243
7.39681
7.29356
7.48463
7.8781
8.43599
8.99003
9.27041
9.17767
8.76953
8.16727
7.49635
6.86357
6.32652
5.89799
5.57596
5.35973
5.24686
5.24412
5.35481
5.5637
5.84414
6.17377
6.55026
6.99123
7.51151
7.99877
8.0023
7.0422
5.3746
3.96232
3.40301
3.42668
3.69628
27.2813
10.8203
8.08385
7.35815
7.26078
7.45751
7.85726
8.42074
8.97754
9.25427
9.14979
8.72591
8.10893
7.42759
6.79293
6.25369
5.82112
5.4931
5.26876
5.14484
5.12933
5.22834
5.43362
5.72712
6.09012
6.5158
7.01639
7.61723
8.27645
8.72213
8.28688
6.66537
4.7408
3.66599
3.54515
3.80543
27.1239
10.7447
8.03558
7.32003
7.22859
7.43094
7.8367
8.40509
8.96312
9.2338
9.1153
8.67451
8.04185
7.35392
6.71742
6.176
5.73907
5.40413
5.16887
5.03201
4.99887
5.0773
5.26457
5.55216
5.93057
6.39098
6.93915
7.59527
8.38043
9.18288
9.45274
8.3395
6.04155
4.15437
3.69867
3.92824
26.9716
10.6694
7.98766
7.28244
7.19699
7.40489
7.81638
8.38891
8.94654
9.20883
9.07439
8.6159
7.96796
7.2758
6.63787
6.09416
5.65263
5.3102
5.06237
4.91046
4.85612
4.90765
5.06542
5.32789
5.69568
6.169
6.75097
7.45886
8.31947
9.32336
10.2375
10.1508
8.06249
5.2247
3.94237
4.06466
26.8244
10.5945
7.94014
7.24538
7.16597
7.37934
7.79625
8.37208
8.9276
9.17928
9.02728
8.5502
7.88947
7.19408
6.555
6.00862
5.5628
5.21292
4.95192
4.78205
4.70417
4.72508
4.84604
5.06905
5.40167
5.85492
6.4378
7.16811
8.07277
9.18218
10.4599
11.4891
10.7378
7.33398
4.39983
4.2259
26.6821
10.5201
7.89305
7.20886
7.13552
7.35429
7.77626
8.35446
8.90613
9.14516
8.9744
8.47836
7.80774
7.10976
6.46958
5.92001
5.4709
5.11349
4.83818
4.64738
4.54572
4.53444
4.61503
4.79029
5.07033
5.47298
6.01996
6.73451
7.64586
8.79
10.215
11.8788
13.024
11.0735
6.00448
4.52762
26.545
10.4466
7.84665
7.1731
7.10584
7.32989
7.7565
8.33611
8.88226
9.10698
8.91687
8.40249
7.72416
7.02418
6.38265
5.83015
5.37795
5.01334
4.7236
4.51025
4.38375
4.34008
4.37953
4.504
4.72275
5.05429
5.52639
6.1755
7.04417
8.17192
9.61852
11.462
13.7526
15.157
10.8531
7.21303
26.4401
10.3891
7.81016
7.14495
7.08244
7.31057
7.74056
8.32052
8.86078
9.07229
8.86498
8.33599
7.65136
6.94931
6.30547
5.75119
5.29635
4.92505
4.62233
4.38891
4.2364
4.1612
4.16083
4.23557
4.39211
4.64559
5.02129
5.55813
6.30981
7.33725
8.70646
10.518
12.9329
16.2322
18.3761
9.54387
26.3383
10.3324
7.77425
7.11738
7.05962
7.29173
7.72479
8.30438
8.83776
9.03544
8.81122
8.26974
7.58025
6.87712
6.23193
5.6774
5.22098
4.84461
4.53156
4.28242
4.1093
4.01129
3.98186
4.02059
4.13153
4.32557
4.62285
5.0569
5.67873
6.5564
7.77248
9.42843
11.6689
14.714
18.8664
15.2136
26.2396
10.2767
7.73853
7.08996
7.03693
7.27294
7.70872
8.28717
8.81243
8.99523
8.75378
8.20082
7.50711
6.80331
6.15726
5.603
5.14524
4.76439
4.44204
4.17883
3.98775
3.871
3.81813
3.82819
3.90229
4.04675
4.2756
4.61371
5.09958
5.79285
6.77726
8.1732
10.1499
12.9451
16.9932
23.651
25.8993
22.8821
19.2369
11.5403
12.2102
13.0784
14.0684
13.7132
10.0267
11.6493
13.6656
15.5084
8.81324
10.595
13.1525
16.8001
7.91736
9.72846
12.6154
17.7819
7.25916
9.03367
12.1054
18.5993
6.7801
8.49808
11.6711
19.3075
6.42893
8.08868
11.3146
19.9317
6.16786
7.77491
11.0269
20.4888
5.97041
7.53242
10.7965
20.9913
5.81823
7.34288
10.6128
21.4486
5.69861
7.19283
10.4665
21.8688
5.60271
7.07246
10.3502
22.2583
5.52432
6.97463
10.2579
22.6228
5.45904
6.89412
10.185
22.9671
5.40372
6.82708
10.1276
23.2951
5.35605
6.77061
10.0829
23.6105
5.31431
6.72253
10.0486
23.9163
5.27721
6.68113
10.023
24.2154
5.24371
6.64511
10.0045
24.5103
5.21301
6.6134
9.99197
24.8032
5.18449
6.58521
9.98459
25.0964
5.15773
6.55998
9.98169
25.3918
5.13247
6.53733
9.98291
25.6916
5.10863
6.5171
9.98817
25.9976
5.08621
6.49928
9.9977
26.3122
5.0653
6.48395
10.012
26.6376
5.04604
6.47133
10.0318
26.9764
5.02858
6.46167
10.0583
27.3318
5.01308
6.4553
10.0934
27.7072
4.9998
6.45248
10.1385
28.1067
4.98746
6.45045
10.1847
28.5178
4.97597
6.44903
10.2316
28.9421
4.9655
6.44837
10.2793
29.3798
4.9563
6.44873
10.328
29.8325
4.94868
6.45044
10.378
30.3013
4.94302
6.4539
10.4296
30.7873
4.93982
6.45964
10.4833
31.2913
4.9397
6.46825
10.5395
31.8146
4.94347
6.48043
10.5988
32.3582
4.95219
6.4969
10.6618
32.9233
4.96577
6.5184
10.7291
33.5112
4.98459
6.54592
10.8016
34.1233
5.00912
6.58073
10.8803
34.7612
5.03951
6.62433
10.966
35.4272
5.0751
6.67877
11.0599
36.1248
5.11664
6.74012
11.1624
36.8594
5.16417
6.80405
11.276
37.6368
5.21633
6.86817
11.407
38.4645
5.27633
6.93536
11.5526
39.3587
5.35317
7.01536
11.6966
40.3392
5.45025
7.11086
11.8367
41.4132
5.56952
7.22447
11.9715
42.5731
5.71197
7.35767
12.0875
43.7623
5.87764
7.49733
12.0895
44.8043
6.07555
7.69421
12.1558
46.0042
6.33263
8.02894
12.487
48.288
6.54838
8.354
12.9842
50.582
6.72751
8.59563
13.5197
53.4171
6.84097
8.76862
16.011
56.3656
26.1193
10.2082
7.69419
7.05613
7.0091
7.24986
7.68857
8.26458
8.7785
8.94251
8.68105
8.11642
7.41929
6.7159
6.0701
5.51696
5.05829
4.67333
4.34196
4.0655
3.85926
3.72703
3.65726
3.6464
3.69255
3.79808
3.97185
4.2307
4.60025
5.12152
5.85435
6.89197
8.38132
10.55
13.7956
18.9393
26.0037
10.1414
7.65044
7.02265
6.98153
7.22682
7.66785
8.24014
8.74093
8.88476
8.60352
8.0279
7.32776
6.62488
5.97944
5.42707
4.96714
4.5781
4.23844
3.95
3.72989
3.58252
3.49954
3.47129
3.49333
3.56482
3.69012
3.87716
4.14199
4.50667
5.00029
5.65979
6.52745
7.64388
9.0398
10.7273
25.8927
10.0763
7.60764
6.9898
6.95448
7.20405
7.64671
8.214
8.70013
8.82328
8.52346
7.93834
7.23629
6.53466
5.89038
5.33917
4.87846
4.48622
4.14065
3.84409
3.61473
3.45722
3.36615
3.32661
3.3324
3.38066
3.47223
3.61132
3.80918
4.08038
4.44433
4.92651
5.55898
6.37914
7.41512
8.63534
25.7861
10.0131
7.5658
6.95759
6.92793
7.18147
7.62505
8.18605
8.65619
8.75845
8.44139
7.84827
7.14538
6.44577
5.80352
5.25386
4.79287
4.39835
4.0494
3.74873
3.51505
3.35328
3.25686
3.21068
3.20636
3.23944
3.30809
3.41614
3.5713
3.78414
4.06909
4.44576
4.94026
5.58683
6.42417
7.48012
25.6838
9.95167
7.5249
6.92604
6.90186
7.15903
7.60276
8.15621
8.60928
8.69067
8.35781
7.75816
7.05547
6.35869
5.71942
5.17171
4.71096
4.31516
3.96495
3.66415
3.43049
3.2682
3.16941
3.12008
3.1099
3.13279
3.18674
3.2747
3.40217
3.57706
3.8106
4.11849
4.52252
5.0529
5.75031
6.67028
25.5853
9.8921
7.48493
6.89515
6.87625
7.13669
7.57975
8.12443
8.55951
8.62036
8.27321
7.66848
6.96702
6.27389
5.63863
5.0933
4.63324
4.23677
3.88781
3.59081
3.3603
3.19997
3.10087
3.0508
3.03734
3.05381
3.09871
3.1739
3.28332
3.43311
3.63238
3.89421
4.2373
4.68889
5.28957
6.10453
25.4906
9.83438
7.44588
6.86493
6.85109
7.11438
7.55594
8.09063
8.50697
8.54791
8.18804
7.57967
6.88044
6.19182
5.56166
5.01915
4.56024
4.16368
3.81845
3.5283
3.30327
3.14671
3.04933
2.99913
2.98389
2.99691
3.03656
3.10378
3.2014
3.33437
3.51031
3.74053
4.04162
4.43859
4.97099
5.70673
25.3993
9.7785
7.40775
6.83539
6.82635
7.09203
7.53124
8.0548
8.45181
8.47372
8.10275
7.49211
6.79613
6.1129
5.48892
4.94972
4.49228
4.09662
3.75677
3.47542
3.25777
3.10599
3.01125
2.96172
2.94591
2.95749
2.99434
3.05668
3.14655
3.268
3.42762
3.63543
3.90653
4.2643
4.74699
5.42266
25.3113
9.72446
7.37054
6.80652
6.80199
7.06959
7.50557
8.01696
8.39423
8.39818
8.01773
7.40619
6.71445
6.03747
5.4206
4.88517
4.42911
4.03607
3.70344
3.43173
3.22226
3.07571
2.98402
2.93573
2.92032
2.93169
2.96727
3.02667
3.11135
3.22467
3.37245
3.56374
3.81256
4.14107
4.58632
5.21575
25.2263
9.67211
7.33438
6.77833
6.77797
7.04693
7.47888
7.97717
8.3345
8.3217
7.93338
7.32226
6.63572
5.96576
5.35647
4.82554
4.37114
3.98292
3.65871
3.39653
3.19536