/*--------------------------------*- C++ -*----------------------------------*\
| =========                 |                                                 |
| \\      /  F ield         | OpenFOAM: The Open Source CFD Toolbox           |
|  \\    /   O peration     | Version:  v2012                                 |
|   \\  /    A nd           | Website:  www.openfoam.com                      |
|    \\/     M anipulation  |                                                 |
\*---------------------------------------------------------------------------*/
FoamFile
{
    version     2.0;
    format      ascii;
    class       volScalarField;
    location    "621";
    object      p;
}
// * * * * * * * * * * * * * * * * * * * * * * * * * * * * * * * * * * * * * //

dimensions      [0 2 -2 0 0 0 0];


internalField   nonuniform List<scalar> 
6108
(
0.327497
0.32748
0.32754
0.327654
0.327806
0.327983
0.328179
0.328386
0.328602
0.328823
0.329046
0.329272
0.329499
0.329728
0.329962
0.330201
0.330451
0.330761
0.331274
0.332019
0.327486
0.327475
0.327539
0.327658
0.327814
0.327995
0.328194
0.328405
0.328624
0.328849
0.329079
0.329311
0.329545
0.329782
0.330023
0.330266
0.330509
0.330775
0.331084
0.331355
0.32737
0.327381
0.327465
0.327598
0.327765
0.327954
0.328158
0.328373
0.328595
0.328823
0.329054
0.329287
0.329523
0.329762
0.330004
0.330241
0.330472
0.330704
0.330902
0.330996
0.327171
0.32723
0.327352
0.327513
0.327699
0.327901
0.328115
0.328336
0.328561
0.328791
0.329023
0.329257
0.329492
0.32973
0.329967
0.330195
0.330415
0.330626
0.330789
0.330844
0.326908
0.32704
0.327219
0.327418
0.327629
0.327851
0.328077
0.328306
0.328538
0.328771
0.329005
0.329241
0.329477
0.329714
0.329948
0.330174
0.330389
0.330589
0.330736
0.33078
0.32659
0.326818
0.327074
0.327321
0.327565
0.327809
0.328049
0.328288
0.328525
0.328763
0.329
0.329237
0.329474
0.329712
0.329947
0.330173
0.330389
0.330588
0.330736
0.330779
0.326234
0.326592
0.326938
0.327238
0.327516
0.32778
0.328034
0.328282
0.328526
0.328767
0.329007
0.329246
0.329486
0.329726
0.329964
0.330193
0.330414
0.330625
0.330789
0.330844
0.325928
0.326414
0.326842
0.327185
0.327491
0.327771
0.328037
0.328292
0.328542
0.328787
0.32903
0.329272
0.329513
0.329756
0.33
0.330238
0.33047
0.330702
0.330901
0.330995
0.32581
0.326354
0.326814
0.327173
0.32749
0.327779
0.328051
0.32831
0.328561
0.328808
0.329051
0.329292
0.329533
0.329774
0.330018
0.330262
0.330507
0.330773
0.331082
0.331354
0.326101
0.326433
0.326806
0.32716
0.327475
0.327763
0.328033
0.32829
0.328539
0.328781
0.329019
0.329254
0.329487
0.329721
0.329957
0.330198
0.330449
0.33076
0.331272
0.332017
0.328907
0.328288
0.327868
0.327615
0.328917
0.328288
0.327859
0.327603
0.328727
0.328113
0.327697
0.327462
0.328347
0.327772
0.327392
0.327206
0.3278
0.327287
0.326957
0.326848
0.327131
0.326693
0.32639
0.326381
0.326366
0.325965
0.325601
0.325762
0.325173
0.324793
0.324473
0.325052
0.322991
0.323426
0.323869
0.323958
0.32402
0.325428
0.325515
0.318867
0.779769
0.778602
0.777925
0.777968
0.777814
0.776033
0.769142
0.754679
0.734379
0.71037
0.683903
0.65594
0.62725
0.598477
0.570166
0.542781
0.516706
0.492243
0.469617
0.448973
0.430388
0.413864
0.399344
0.386731
0.375897
0.36669
0.358945
0.352495
0.347168
0.342802
0.33926
0.336409
0.334124
0.332306
0.330871
0.329755
0.779236
0.77767
0.777476
0.778275
0.778503
0.775975
0.76731
0.752109
0.73233
0.708853
0.682834
0.655235
0.626834
0.598279
0.570124
0.542844
0.51683
0.492396
0.469776
0.449122
0.430515
0.413962
0.399414
0.386777
0.375923
0.366701
0.358948
0.352495
0.347168
0.342801
0.339262
0.336421
0.334143
0.332327
0.330893
0.329773
0.779554
0.777694
0.777651
0.77812
0.776857
0.771748
0.761166
0.745557
0.726023
0.703081
0.677675
0.650638
0.622714
0.594553
0.56672
0.539702
0.513912
0.489676
0.46724
0.446765
0.428336
0.411961
0.397594
0.385137
0.37446
0.36541
0.357821
0.351522
0.346342
0.342116
0.3387
0.33596
0.333768
0.332022
0.330639
0.329558
0.781567
0.779267
0.77833
0.776722
0.772644
0.764911
0.752933
0.736926
0.717358
0.694738
0.6698
0.643247
0.615766
0.587989
0.560488
0.533768
0.508258
0.484305
0.462164
0.442006
0.423913
0.407893
0.393892
0.381805
0.371495
0.362801
0.355551
0.349567
0.344679
0.340722
0.337549
0.335017
0.333001
0.331394
0.330119
0.329118
0.784622
0.781426
0.778451
0.774126
0.767208
0.757185
0.743779
0.727014
0.70711
0.684488
0.659722
0.633419
0.606208
0.578698
0.551464
0.525025
0.499827
0.476229
0.454498
0.434802
0.417219
0.401745
0.388311
0.376798
0.367055
0.358908
0.352176
0.346676
0.34223
0.338675
0.33586
0.333641
0.331885
0.330484
0.329365
0.328482
0.787065
0.782261
0.776929
0.769922
0.760453
0.748344
0.733412
0.715635
0.69514
0.672239
0.647388
0.621117
0.594005
0.566646
0.539615
0.513444
0.488596
0.465442
0.444248
0.425176
0.408289
0.393563
0.380906
0.370175
0.3612
0.353792
0.347758
0.342905
0.339049
0.336027
0.333687
0.331881
0.330467
0.329336
0.328417
0.327687
0.787188
0.7805
0.773078
0.763644
0.751944
0.737963
0.721545
0.702665
0.681408
0.658017
0.632866
0.606429
0.579252
0.551921
0.525021
0.499101
0.47464
0.452015
0.431489
0.413209
0.397209
0.383437
0.371766
0.362024
0.354013
0.347529
0.342365
0.338315
0.335185
0.332813
0.331057
0.329773
0.328796
0.328008
0.327341
0.32679
0.783934
0.775636
0.76654
0.75509
0.741526
0.725906
0.708092
0.688084
0.665954
0.641904
0.616264
0.589475
0.562072
0.534648
0.507809
0.482127
0.458099
0.436104
0.416394
0.399084
0.384172
0.37156
0.361081
0.352523
0.345657
0.340261
0.336115
0.332992
0.330703
0.329102
0.328048
0.327423
0.326969
0.326533
0.326066
0.325588
0.777594
0.767675
0.757225
0.744208
0.729131
0.712095
0.692993
0.671869
0.648797
0.623965
0.597682
0.570385
0.542621
0.515008
0.488191
0.462774
0.439267
0.418047
0.399336
0.383206
0.369598
0.358356
0.349259
0.342049
0.336463
0.332252
0.329189
0.327027
0.325521
0.324577
0.324175
0.324167
0.324123
0.32386
0.323515
0.323171
0.768035
0.756655
0.745187
0.730996
0.714715
0.696481
0.676219
0.654026
0.629987
0.604294
0.577262
0.549349
0.521141
0.493311
0.466552
0.441508
0.418699
0.398478
0.381018
0.366318
0.354242
0.344557
0.336981
0.331208
0.326944
0.323935
0.321961
0.320779
0.32011
0.319932
0.320197
0.320705
0.321322
0.322042
0.322873
0.323557
0.310192
0.310384
0.308055
0.29793
0.30805
0.307616
0.305875
0.302671
0.307101
0.306604
0.305556
0.304317
0.306565
0.30611
0.305514
0.304921
0.3061
0.305824
0.305467
0.30514
0.305773
0.305608
0.305375
0.305178
0.305493
0.305402
0.305254
0.305136
0.305232
0.305204
0.305123
0.30506
0.304989
0.305019
0.304996
0.304981
0.304769
0.304854
0.304885
0.304919
0.304577
0.304715
0.304802
0.304887
0.304414
0.304608
0.304753
0.304895
0.304283
0.304534
0.304744
0.304948
0.304183
0.304494
0.304775
0.305052
0.304113
0.304486
0.304845
0.305207
0.304068
0.304505
0.304951
0.305408
0.304041
0.304542
0.305083
0.305644
0.30402
0.304585
0.305229
0.305901
0.303992
0.304617
0.30537
0.306158
0.30394
0.304618
0.305481
0.30638
0.303842
0.304562
0.305533
0.306523
0.303683
0.30443
0.305504
0.306551
0.303436
0.3042
0.305391
0.306462
0.303041
0.303818
0.305142
0.30622
0.302487
0.303267
0.304683
0.305794
0.30179
0.30255
0.303973
0.305187
0.300892
0.301629
0.303022
0.304363
0.299735
0.300464
0.301827
0.303276
0.298313
0.299055
0.300399
0.301953
0.29664
0.29742
0.298767
0.300419
0.294742
0.29558
0.296929
0.298625
0.292674
0.293577
0.294906
0.296593
0.290515
0.291464
0.292744
0.294387
0.288338
0.289303
0.290518
0.292085
0.286209
0.287159
0.288306
0.289766
0.284195
0.285114
0.28618
0.287512
0.282357
0.283249
0.284212
0.285397
0.280763
0.28161
0.282456
0.283483
0.279447
0.280225
0.280948
0.281812
0.278403
0.279099
0.279704
0.280409
0.277616
0.278225
0.278719
0.279286
0.277068
0.277594
0.277984
0.27844
0.27674
0.27719
0.277492
0.277849
0.276614
0.276999
0.277228
0.277501
0.276673
0.277004
0.277181
0.277384
0.276901
0.27719
0.27733
0.277486
0.27728
0.27754
0.277662
0.277789
0.277796
0.278042
0.278163
0.278277
0.278434
0.278679
0.27882
0.278939
0.279178
0.279441
0.279622
0.279765
0.280017
0.280315
0.280562
0.280749
0.280938
0.281292
0.28163
0.281882
0.281929
0.282359
0.282819
0.28315
0.282976
0.283505
0.28411
0.284525
0.284065
0.284708
0.285465
0.285949
0.285172
0.285932
0.286815
0.287314
0.286255
0.287112
0.288042
0.288457
0.287227
0.288142
0.288975
0.289185
0.287964
0.288872
0.289453
0.289469
0.288262
0.289305
0.289628
0.289539
0.754432
0.74215
0.730034
0.715011
0.697784
0.678532
0.657231
0.634012
0.608991
0.582379
0.554527
0.525946
0.497292
0.469322
0.442798
0.418401
0.396645
0.37783
0.362035
0.349149
0.338922
0.331026
0.325099
0.320783
0.317753
0.315728
0.31447
0.313727
0.313284
0.313053
0.312935
0.312813
0.312701
0.312545
0.31215
0.311141
0.736866
0.724083
0.711706
0.696189
0.678272
0.658195
0.635992
0.611829
0.585859
0.558339
0.529684
0.500499
0.471557
0.443725
0.417848
0.394625
0.374521
0.357718
0.344147
0.333538
0.32551
0.319632
0.315483
0.312684
0.310904
0.309871
0.309356
0.309164
0.309168
0.309249
0.309337
0.309354
0.309337
0.309238
0.308957
0.308443
0.716367
0.703435
0.691025
0.675297
0.656937
0.636251
0.613327
0.588367
0.561575
0.53328
0.504
0.474478
0.445638
0.41847
0.393873
0.372503
0.35469
0.340428
0.329441
0.321291
0.315474
0.311496
0.308918
0.307376
0.306575
0.306282
0.30632
0.306556
0.306885
0.307218
0.307504
0.307685
0.307799
0.307823
0.307638
0.307338
0.693731
0.680824
0.6685
0.652716
0.634137
0.613047
0.589595
0.564027
0.536611
0.50778
0.478199
0.448785
0.420623
0.394795
0.372175
0.353279
0.338214
0.32673
0.318347
0.312488
0.308585
0.306139
0.304753
0.304121
0.304012
0.304255
0.304701
0.305241
0.305794
0.306301
0.30673
0.30701
0.307114
0.30713
0.307059
0.306857
0.669552
0.656804
0.644633
0.628894
0.610294
0.588992
0.565225
0.539282
0.511518
0.482501
0.453078
0.424348
0.397526
0.373703
0.353628
0.33758
0.325393
0.316585
0.31052
0.306554
0.304129
0.302806
0.302262
0.302254
0.302598
0.30315
0.303793
0.304439
0.305035
0.305541
0.305938
0.30623
0.306407
0.306455
0.3064
0.306278
0.644321
0.631871
0.619896
0.604318
0.58585
0.564534
0.540685
0.514643
0.486875
0.458112
0.429385
0.401955
0.377088
0.355782
0.33856
0.32542
0.315939
0.309457
0.305264
0.302729
0.301361
0.300801
0.300782
0.301112
0.30165
0.302286
0.302949
0.303587
0.30417
0.304674
0.305085
0.305404
0.30564
0.305789
0.305852
0.305846
0.618521
0.606482
0.594774
0.579474
0.561266
0.540133
0.516448
0.490617
0.463237
0.435204
0.40772
0.382139
0.359683
0.341163
0.326823
0.31639
0.309242
0.304626
0.301834
0.3003
0.299616
0.299486
0.299713
0.300161
0.300736
0.301374
0.302033
0.302676
0.303278
0.303822
0.304296
0.304694
0.305015
0.305258
0.305419
0.305497
0.592616
0.58108
0.569728
0.554799
0.536979
0.516223
0.492957
0.467662
0.441067
0.414226
0.38846
0.365135
0.345338
0.329627
0.317972
0.309879
0.304609
0.301389
0.299567
0.298663
0.298351
0.298419
0.298739
0.299225
0.299818
0.300474
0.301157
0.301838
0.302492
0.303099
0.303645
0.30412
0.304515
0.304825
0.305048
0.305182
0.567024
0.556061
0.545142
0.530674
0.513375
0.493187
0.47059
0.446145
0.420706
0.39545
0.371754
0.350916
0.333818
0.320746
0.311436
0.305249
0.3014
0.299155
0.297945
0.297396
0.297271
0.297438
0.297812
0.298335
0.298963
0.299658
0.300388
0.301122
0.301836
0.302504
0.303109
0.303639
0.304085
0.304441
0.304709
0.304889
0.542102
0.531764
0.521343
0.507424
0.490776
0.471338
0.44964
0.426324
0.40235
0.378967
0.357548
0.339258
0.324736
0.314013
0.306649
0.301935
0.299101
0.297489
0.296644
0.296295
0.296283
0.296521
0.296949
0.297521
0.298197
0.298943
0.299725
0.300511
0.301274
0.301989
0.302638
0.303208
0.303693
0.304088
0.304396
0.30462
0.518143
0.508469
0.4986
0.485317
0.469436
0.450905
0.430305
0.408344
0.386056
0.364716
0.345638
0.329821
0.317656
0.308939
0.303121
0.299493
0.297346
0.296133
0.295512
0.295293
0.295367
0.295672
0.296159
0.296785
0.297512
0.298305
0.299132
0.299959
0.300762
0.301515
0.302202
0.30281
0.303331
0.303764
0.304111
0.304379
0.495386
0.486402
0.477129
0.464552
0.449537
0.432043
0.412692
0.392246
0.37177
0.352521
0.33572
0.322217
0.312159
0.305107
0.300472
0.297612
0.295918
0.29496
0.29449
0.294369
0.294519
0.294891
0.295435
0.296111
0.296881
0.297714
0.298577
0.29944
0.300279
0.30107
0.301794
0.302439
0.302998
0.30347
0.303857
0.304168
0.474006
0.465724
0.457079
0.445267
0.431192
0.414829
0.396831
0.377986
0.359353
0.342125
0.327434
0.316092
0.307926
0.302216
0.298441
0.296102
0.294704
0.293917
0.293556
0.293516
0.293736
0.294167
0.29476
0.295477
0.296284
0.29715
0.298047
0.298945
0.299821
0.300649
0.301412
0.302097
0.302695
0.303206
0.303634
0.303988
0.454126
0.446546
0.438548
0.427539
0.414454
0.399281
0.382689
0.365466
0.348617
0.333246
0.320577
0.311245
0.304676
0.300035
0.296866
0.29486
0.293653
0.292985
0.292706
0.292733
0.293012
0.293491
0.294123
0.294874
0.295713
0.296611
0.29754
0.298474
0.299386
0.300254
0.301058
0.301783
0.302423
0.302974
0.303442
0.30384
0.435814
0.428924
0.42158
0.411395
0.399326
0.385367
0.370194
0.354562
0.339386
0.325833
0.315165
0.307451
0.302043
0.298301
0.295634
0.293831
0.292742
0.292154
0.291937
0.292018
0.292343
0.292859
0.293524
0.294304
0.295171
0.296098
0.297059
0.298028
0.298978
0.299885
0.300731
0.301498
0.302179
0.302771
0.303281
0.303721
0.419094
0.412873
0.406176
0.396822
0.385771
0.373025
0.359249
0.345156
0.331568
0.319881
0.310983
0.304403
0.299814
0.29679
0.294596
0.292973
0.291957
0.291421
0.291249
0.291371
0.29173
0.292275
0.292965
0.293769
0.294661
0.295615
0.296606
0.297608
0.298596
0.299543
0.300431
0.301241
0.301963
0.302596
0.303146
0.303628
0.403952
0.398372
0.392306
0.383773
0.373722
0.362163
0.349736
0.337089
0.325094
0.315152
0.3076
0.3019
0.297967
0.295435
0.29365
0.292242
0.291278
0.290779
0.29064
0.290792
0.291176
0.291741
0.292451
0.293274
0.294187
0.295166
0.296185
0.297218
0.298241
0.299227
0.300156
0.301008
0.301772
0.302444
0.303032
0.303554
0.390343
0.38537
0.37991
0.372173
0.363091
0.352675
0.341528
0.330204
0.319782
0.311348
0.304778
0.299838
0.296457
0.294266
0.292789
0.291589
0.290689
0.290221
0.290111
0.290285
0.290686
0.291265
0.291988
0.292826
0.293756
0.294754
0.295796
0.296858
0.297913
0.298936
0.299903
0.300795
0.301599
0.302309
0.302933
0.30349
0.378197
0.373794
0.368908
0.361936
0.353775
0.344441
0.334505
0.324417
0.315407
0.308202
0.302429
0.298144
0.295218
0.293294
0.292015
0.290988
0.290183
0.289749
0.289662
0.289853
0.290265
0.290851
0.291582
0.292428
0.293369
0.294382
0.295443
0.296527
0.297609
0.298664
0.299667
0.300596
0.301436
0.302181
0.302837
0.303426
0.367436
0.363557
0.359209
0.352959
0.345664
0.337338
0.328525
0.319617
0.311803
0.305563
0.300491
0.296757
0.294193
0.292484
0.291336
0.290461
0.289766
0.289364
0.289298
0.289501
0.289917
0.290506
0.291238
0.292087
0.293032
0.294051
0.295123
0.296223
0.297326
0.298407
0.29944
0.300401
0.301274
0.302051
0.302733
0.303345
0.357967
0.354564
0.350714
0.345139
0.338646
0.331238
0.323412
0.315632
0.308874
0.30338
0.29891
0.295629
0.293355
0.291819
0.290776
0.290026
0.289432
0.289067
0.289022
0.289233
0.28965
0.290235
0.290961
0.291805
0.292746
0.293763
0.294836
0.295943
0.297058
0.298157
0.299212
0.300199
0.3011
0.301902
0.302606
0.303233
0.349689
0.346716
0.343322
0.338369
0.332611
0.326039
0.319074
0.312325
0.306495
0.3016
0.29764
0.294729
0.292689
0.291296
0.290346
0.289692
0.28918
0.28886
0.288838
0.289054
0.289467
0.290042
0.290755
0.291585
0.292511
0.293515
0.294579
0.29568
0.296797
0.297902
0.29897
0.299975
0.300898
0.301723
0.302445
0.303076
0.342499
0.339912
0.336934
0.33255
0.327462
0.321657
0.315478
0.3096
0.304529
0.300159
0.29664
0.294034
0.292187
0.290909
0.290042
0.289465
0.289025
0.288754
0.288751
0.28897
0.289373
0.289932
0.290623
0.291428
0.292327
0.293305
0.294345
0.295428
0.29653
0.297629
0.298698
0.299711
0.300651
0.301504
0.302244
0.302861
0.336295
0.334053
0.331453
0.327587
0.323103
0.317994
0.312534
0.307377
0.30292
0.299019
0.295879
0.293529
0.29184
0.290658
0.28986
0.289352
0.28898
0.288754
0.288767
0.288985
0.289374
0.289908
0.290567
0.291334
0.292193
0.29313
0.294129
0.295174
0.296245
0.29732
0.298373
0.299382
0.30034
0.301226
0.301971
0.302537
0.330981
0.329045
0.326786
0.323388
0.319445
0.314954
0.31014
0.305593
0.301647
0.298157
0.295337
0.2932
0.291645
0.290544
0.289806
0.28936
0.289051
0.288867
0.288892
0.289104
0.289472
0.289972
0.290588
0.291304
0.292106
0.292984
0.293922
0.294909
0.295925
0.296952
0.297967
0.298955
0.299919
0.300797
0.301494
0.302026
0.326464
0.324798
0.322848
0.31987
0.316407
0.31246
0.308217
0.304196
0.300683
0.29755
0.295
0.293044
0.291602
0.29057
0.289884
0.289493
0.289244
0.289098
0.289131
0.289332
0.289671
0.290127
0.290687
0.291336
0.292063
0.292859
0.293714
0.294617
0.295552
0.296503
0.29745
0.298388
0.299317
0.30012
0.300751
0.301303
0.322658
0.321221
0.319564
0.316956
0.313918
0.310448
0.306707
0.303141
0.300001
0.297177
0.294856
0.293055
0.29171
0.290739
0.290097
0.289756
0.289564
0.289454
0.28949
0.289672
0.289973
0.290374
0.290862
0.291427
0.292059
0.29275
0.293495
0.294283
0.295105
0.295946
0.296792
0.29765
0.298475
0.29917
0.299778
0.300361
0.319491
0.318271
0.316872
0.314579
0.311915
0.308865
0.305565
0.302393
0.299575
0.297019
0.294898
0.293231
0.291971
0.291053
0.290451
0.290152
0.290016
0.289942
0.289972
0.290127
0.29038
0.290713
0.291115
0.291576
0.292089
0.292649
0.293253
0.293894
0.294566
0.295258
0.295961
0.296692
0.297377
0.297973
0.298572
0.299173
0.316905
0.315944
0.314706
0.312675
0.310343
0.30766
0.304748
0.301922
0.299384
0.297063
0.295117
0.29357
0.292385
0.291517
0.290948
0.290683
0.290606
0.290567
0.290581
0.290698
0.290892
0.291144
0.291443
0.291779
0.292148
0.292549
0.292978
0.293436
0.293917
0.294419
0.294933
0.295485
0.296023
0.296538
0.297116
0.297724
0.314825
0.314087
0.312966
0.311186
0.309149
0.30679
0.304222
0.301703
0.29941
0.297299
0.295509
0.294069
0.292955
0.292132
0.291595
0.29136
0.291333
0.291324
0.291316
0.291387
0.291511
0.291668
0.291845
0.292034
0.292233
0.292442
0.292662
0.292897
0.293147
0.293416
0.293703
0.294039
0.294415
0.294851
0.2954
0.296016
0.313166
0.312542
0.31158
0.310057
0.308286
0.306215
0.303955
0.301711
0.299637
0.297714
0.296068
0.294728
0.29368
0.292899
0.292394
0.292188
0.292199
0.292206
0.292175
0.292192
0.292236
0.292283
0.29232
0.29234
0.292341
0.292325
0.292299
0.292268
0.292245
0.292245
0.292274
0.292368
0.292566
0.292921
0.293441
0.29407
0.31188
0.311315
0.31053
0.309247
0.307714
0.305898
0.303919
0.30193
0.30005
0.2983
0.296787
0.295541
0.294556
0.293817
0.293341
0.293161
0.2932
0.293215
0.293155
0.293112
0.293066
0.292989
0.292868
0.292694
0.292468
0.292194
0.291883
0.291547
0.291209
0.290905
0.290643
0.29049
0.290513
0.290787
0.291285
0.291938
0.310926
0.310426
0.3098
0.308723
0.307402
0.305815
0.304093
0.302337
0.300634
0.299044
0.297657
0.296502
0.295579
0.294882
0.294434
0.294274
0.294332
0.29435
0.294257
0.294146
0.294
0.293787
0.293489
0.293098
0.292616
0.292049
0.291416
0.290733
0.290055
0.289401
0.288836
0.288455
0.288321
0.288521
0.289007
0.289698
0.310271
0.309852
0.309359
0.308455
0.307325
0.305947
0.304452
0.302906
0.301372
0.299935
0.298669
0.297603
0.296742
0.296087
0.295665
0.295521
0.29559
0.295605
0.295475
0.295292
0.295039
0.294676
0.294184
0.293554
0.292785
0.291893
0.290897
0.289826
0.288783
0.287771
0.286935
0.286344
0.286073
0.286218
0.286708
0.287444
0.309876
0.309545
0.309161
0.308408
0.307452
0.306268
0.304976
0.303621
0.30225
0.30096
0.299812
0.298835
0.298037
0.297424
0.297028
0.296893
0.296965
0.296972
0.296805
0.296548
0.296181
0.295659
0.294958
0.294064
0.292981
0.291728
0.290329
0.288839
0.287423
0.286092
0.284984
0.284216
0.283869
0.283992
0.284504
0.285288
0.309707
0.309456
0.309164
0.30855
0.307753
0.306749
0.305643
0.304464
0.303252
0.302106
0.301074
0.300186
0.299452
0.298883
0.29851
0.298378
0.298444
0.298442
0.29824
0.29791
0.297427
0.296739
0.295813
0.294635
0.29321
0.291562
0.289719
0.287832
0.285981
0.284348
0.283065
0.282183
0.281819
0.281952
0.28249
0.283303
0.30973
0.309542
0.309338
0.308851
0.308202
0.307365
0.306431
0.30542
0.304363
0.303356
0.30244
0.301643
0.300975
0.300449
0.300097
0.299961
0.300011
0.300002
0.299777
0.299376
0.298778
0.29792
0.296758
0.295274
0.29348
0.2914
0.289071
0.28674
0.284525
0.282681
0.281273
0.280358
0.28002
0.280184
0.280738
0.281524
0.309911
0.309778
0.309654
0.309285
0.308772
0.308091
0.307319
0.306469
0.305565
0.304695
0.303895
0.303189
0.302588
0.302106
0.301773
0.301627
0.301648
0.301642
0.301414
0.300945
0.300235
0.299206
0.297799
0.295991
0.293802
0.291251
0.288441
0.285661
0.283149
0.281145
0.279692
0.278828
0.278539
0.278729
0.27927
0.279988
0.310218
0.310137
0.310087
0.309826
0.309439
0.308905
0.308288
0.307593
0.306837
0.306104
0.30542
0.304808
0.304276
0.303837
0.303521
0.303361
0.303343
0.303343
0.30313
0.302616
0.301805
0.300607
0.298946
0.296795
0.294186
0.29114
0.287865
0.284639
0.281895
0.279814
0.278399
0.277625
0.277388
0.277586
0.278074
0.278719
0.310626
0.310594
0.310611
0.31045
0.310182
0.309786
0.309315
0.30877
0.308161
0.307563
0.306997
0.30648
0.306019
0.305625
0.305326
0.305151
0.305092
0.30507
0.304885
0.304382
0.303501
0.302145
0.300214
0.297697
0.294647
0.29107
0.287286
0.283698
0.280815
0.27875
0.277434
0.276746
0.276544
0.276722
0.277146
0.277731
0.311111
0.311123
0.311201
0.311133
0.310976
0.310711
0.31038
0.309979
0.309516
0.309052
0.308604
0.308184
0.307796
0.307448
0.307166
0.306981
0.306892
0.306829
0.30665
0.306186
0.305308
0.303838
0.301625
0.298709
0.295183
0.291001
0.286738
0.282895
0.279964
0.277983
0.276783
0.276158
0.275963
0.276101
0.276475
0.277008
0.31165
0.311701
0.311836
0.311853
0.311801
0.311659
0.311461
0.3112
0.310878
0.310548
0.310217
0.309894
0.30958
0.309279
0.309016
0.308827
0.308723
0.308642
0.308457
0.308009
0.307141
0.305615
0.303156
0.299823
0.295781
0.291011
0.286288
0.28227
0.27937
0.277501
0.276392
0.275801
0.275598
0.275706
0.276042
0.276526
0.312222
0.312308
0.312493
0.31259
0.312635
0.312609
0.312538
0.312411
0.312226
0.312025
0.311809
0.311581
0.311338
0.311082
0.310838
0.310651
0.310546
0.310472
0.310305
0.30987
0.308976
0.307381
0.304714
0.300997
0.296438
0.291196
0.285985
0.281839
0.279016
0.277255
0.276208
0.275638
0.275435
0.275525
0.275826
0.27626
0.312807
0.312923
0.313155
0.313324
0.31346
0.313542
0.313589
0.313589
0.313535
0.313457
0.313351
0.313213
0.313035
0.312817
0.312591
0.312412
0.312317
0.312265
0.31213
0.311721
0.31081
0.309116
0.30625
0.302193
0.297156
0.29149
0.285844
0.281606
0.278869
0.277202
0.276206
0.275658
0.27546
0.275533
0.275801
0.276189
0.313387
0.313528
0.313802
0.314036
0.314255
0.314437
0.314595
0.314713
0.314781
0.314819
0.314815
0.314757
0.314635
0.314449
0.314238
0.314072
0.313996
0.313976
0.313882
0.313507
0.312596
0.310811
0.307771
0.303408
0.297924
0.291865
0.285892
0.281579
0.278907
0.277317
0.276366
0.275842
0.275648
0.275707
0.275947
0.276296
0.313945
0.314108
0.314418
0.314711
0.315004
0.315277
0.315536
0.315762
0.315942
0.316086
0.316172
0.316184
0.316107
0.315946
0.31575
0.3156
0.315552
0.315573
0.315523
0.315179
0.314285
0.312454
0.309287
0.304669
0.298788
0.292363
0.286164
0.281757
0.279109
0.277571
0.276664
0.276165
0.275978
0.276028
0.276245
0.276561
0.314467
0.314646
0.314987
0.315331
0.315691
0.316046
0.316394
0.316718
0.316998
0.317235
0.317398
0.317468
0.317426
0.317284
0.317101
0.316973
0.31696
0.317024
0.317008
0.316681
0.315824
0.314012
0.310785
0.306004
0.299837
0.293052
0.286668
0.282113
0.279447
0.277943
0.277078
0.276608
0.276432
0.276478
0.276678
0.276969
0.314938
0.315129
0.315496
0.315884
0.316301
0.316727
0.317155
0.317563
0.317931
0.318246
0.318474
0.318588
0.318572
0.318442
0.318273
0.318171
0.318197
0.318298
0.318299
0.317998
0.31718
0.315399
0.312201
0.307386
0.301091
0.293978
0.287433
0.28265
0.27991
0.278419
0.277592
0.277154
0.276994
0.277041
0.27723
0.277504
0.315346
0.315545
0.315933
0.316356
0.316822
0.317309
0.317805
0.318284
0.318724
0.319105
0.319383
0.319529
0.319527
0.319406
0.319251
0.319177
0.31924
0.319365
0.319372
0.319116
0.318324
0.31654
0.31345
0.308733
0.302461
0.295158
0.288488
0.283391
0.2805
0.278989
0.278195
0.277791
0.277651
0.277702
0.277886
0.278149
0.315682
0.315884
0.316288
0.316739
0.317244
0.317781
0.318331
0.318868
0.319367
0.319798
0.320112
0.320277
0.320282
0.320165
0.320025
0.319978
0.320067
0.320205
0.320216
0.319989
0.319214
0.317442
0.314484
0.309953
0.303835
0.296567
0.2898
0.284353
0.281226
0.279652
0.278876
0.278508
0.27839
0.27845
0.278632
0.278891
0.315936
0.316138
0.316551
0.317023
0.317558
0.318134
0.318727
0.319308
0.319851
0.320317
0.320653
0.320825
0.320829
0.320712
0.320585
0.320559
0.320664
0.320805
0.320818
0.320595
0.319823
0.318097
0.315276
0.311026
0.305188
0.298078
0.291236
0.285581
0.282124
0.280414
0.27963
0.279295
0.279202
0.279273
0.279456
0.279717
0.316103
0.316298
0.316716
0.317202
0.317757
0.318361
0.318985
0.319597
0.320169
0.320655
0.321
0.321169
0.321163
0.321044
0.320927
0.320912
0.321021
0.321154
0.321161
0.320925
0.320146
0.31847
0.315784
0.311911
0.306561
0.299868
0.292888
0.287164
0.283255
0.281295
0.280457
0.280145
0.280082
0.280163
0.280347
0.280614
0.316179
0.316364
0.316778
0.317271
0.317839
0.318459
0.319101
0.319731
0.320318
0.320811
0.321151
0.321306
0.321286
0.321162
0.321048
0.321037
0.321138
0.321249
0.321243
0.320985
0.320189
0.318556
0.316001
0.312476
0.307714
0.301727
0.294821
0.28898
0.284661
0.282325
0.28136
0.28105
0.281023
0.281115
0.281298
0.28157
0.316159
0.316337
0.316738
0.317229
0.3178
0.318426
0.319075
0.319709
0.320298
0.320785
0.321109
0.321242
0.321203
0.32107
0.320954
0.320936
0.321018
0.321096
0.321073
0.320789
0.319965
0.318374
0.315954
0.312701
0.308479
0.303144
0.296753
0.29084
0.286383
0.283575
0.282365
0.282012
0.282022
0.282126
0.2823
0.282576
0.316036
0.31621
0.316592
0.317075
0.317639
0.318262
0.318906
0.319534
0.320112
0.32058
0.320878
0.320982
0.32092
0.320774
0.32065
0.320621
0.320676
0.320716
0.320661
0.320342
0.31949
0.317938
0.315645
0.312631
0.30891
0.304287
0.298746
0.292946
0.28836
0.285166
0.283563
0.283066
0.283087
0.283202
0.283351
0.283618
0.31581
0.315976
0.316338
0.316808
0.317358
0.317968
0.318598
0.319208
0.319764
0.320202
0.320466
0.320536
0.320448
0.320286
0.320149
0.320102
0.320126
0.320128
0.320026
0.319657
0.318779
0.317264
0.315092
0.31229
0.308926
0.304981
0.30035
0.295119
0.290432
0.287111
0.285071
0.284336
0.28427
0.284355
0.284451
0.28468
0.315481
0.315638
0.315979
0.31643
0.31696
0.317548
0.318154
0.318736
0.319259
0.31966
0.319882
0.319914
0.319797
0.319616
0.319462
0.319393
0.319381
0.319339
0.319182
0.318754
0.317851
0.316375
0.31432
0.31172
0.308639
0.305168
0.301251
0.296892
0.29239
0.289012
0.286784
0.28585
0.285704
0.285656
0.285591
0.285722
0.315053
0.315199
0.315516
0.315945
0.316447
0.317007
0.31758
0.318125
0.318607
0.318961
0.319137
0.319128
0.31898
0.318775
0.3186
0.318504
0.318452
0.318359
0.318143
0.317653
0.316725
0.315284
0.313343
0.310941
0.308136
0.305037
0.301763
0.298246
0.294467
0.290952
0.288469
0.287353
0.287461
0.287248
0.286735
0.28664
0.314531
0.314664
0.314956
0.315357
0.315827
0.31635
0.316884
0.317384
0.317817
0.318118
0.318241
0.318188
0.318007
0.317775
0.317575
0.317446
0.317348
0.317201
0.316921
0.31637
0.315415
0.314008
0.312172
0.309956
0.307412
0.304627
0.301794
0.29901
0.296164
0.293289
0.290527
0.288827
0.289138
0.289249
0.287979
0.287176
0.313918
0.314036
0.314303
0.314673
0.315105
0.315586
0.316073
0.316521
0.316898
0.31714
0.317208
0.317109
0.316891
0.316629
0.316398
0.316231
0.316083
0.315877
0.315532
0.314923
0.313942
0.312563
0.31082
0.308773
0.306478
0.304002
0.301502
0.299188
0.297097
0.295132
0.293165
0.291219
0.290771
0.291546
0.289501
0.286306
0.3133
0.313408
0.313644
0.313983
0.314377
0.314817
0.315257
0.315653
0.315972
0.316156
0.316171
0.316028
0.315777
0.315486
0.315226
0.315022
0.314826
0.314566
0.314163
0.313507
0.312504
0.311148
0.30948
0.307567
0.305474
0.303267
0.301083
0.299133
0.297515
0.296256
0.295115
0.293746
0.293163
0.293997
0.290821
0.283531
0.312706
0.312804
0.313008
0.31332
0.313679
0.31408
0.314476
0.314821
0.315085
0.315214
0.31518
0.314999
0.314719
0.314403
0.314115
0.313875
0.313636
0.313328
0.312876
0.312179
0.311159
0.309823
0.308216
0.306412
0.304478
0.302485
0.300583
0.298986
0.297774
0.296989
0.296472
0.295758
0.295648
0.297187
0.291786
0.282743
0.312063
0.312153
0.312333
0.312616
0.312938
0.313295
0.313644
0.313937
0.314143
0.314214
0.314131
0.31391
0.313598
0.313253
0.312934
0.312655
0.31237
0.312014
0.311514
0.310778
0.309745
0.308427
0.30688
0.305176
0.303388
0.301588
0.299953
0.298704
0.297902
0.297563
0.297601
0.297852
0.299026
0.301684
0.29611
0.281261
0.351096
0.36932
0.375341
0.375083
0.351083
0.365806
0.373433
0.374353
0.346934
0.359803
0.368588
0.371421
0.341708
0.352497
0.361009
0.365044
0.335949
0.344864
0.352363
0.356381
0.329976
0.337232
0.343452
0.346977
0.324063
0.329902
0.334862
0.337757
0.31841
0.323072
0.326932
0.329201
0.313135
0.316839
0.319798
0.321519
0.308299
0.311236
0.313483
0.314754
0.303925
0.306255
0.307951
0.308867
0.300012
0.301863
0.303139
0.303783
0.296543
0.298021
0.298979
0.299419
0.293497
0.294682
0.295401
0.295691
0.290844
0.291804
0.292343
0.292524
0.28856
0.289345
0.289749
0.289854
0.286617
0.287267
0.287572
0.287624
0.284991
0.285537
0.28577
0.285787
0.283659
0.284127
0.284307
0.284305
0.2826
0.28301
0.283153
0.283143
0.28179
0.282162
0.282283
0.282275
0.28121
0.281563
0.281676
0.281679
0.280847
0.281198
0.281316
0.28134
0.280689
0.281058
0.281193
0.281248
0.280733
0.281136
0.281302
0.281398
0.280981
0.281434
0.281643
0.281787
0.28144
0.281956
0.28222
0.282418
0.282116
0.282709
0.283038
0.2833
0.283022
0.283701
0.284102
0.284445
0.284166
0.284942
0.285429
0.285855
0.285555
0.286442
0.287026
0.287542
0.287198
0.288214
0.288908
0.289525
0.289109
0.29027
0.291084
0.291829
0.291306
0.292629
0.293581
0.294467
0.293804
0.29531
0.296418
0.297462
0.296622
0.298332
0.299618
0.300839
0.299779
0.301717
0.303203
0.304624
0.303299
0.305487
0.3072
0.308846
0.307209
0.309666
0.311632
0.313532
0.311538
0.314277
0.316523
0.318708
0.316284
0.319329
0.321892
0.324399
0.321446
0.324832
0.327754
0.330628
0.32706
0.330808
0.334127