/*--------------------------------*- C++ -*----------------------------------*\
| =========                 |                                                 |
| \\      /  F ield         | OpenFOAM: The Open Source CFD Toolbox           |
|  \\    /   O peration     | Version:  v2012                                 |
|   \\  /    A nd           | Website:  www.openfoam.com                      |
|    \\/     M anipulation  |                                                 |
\*---------------------------------------------------------------------------*/
FoamFile
{
    version     2.0;
    format      ascii;
    class       surfaceScalarField;
    location    "621";
    object      phi;
}
// * * * * * * * * * * * * * * * * * * * * * * * * * * * * * * * * * * * * * //

dimensions      [0 3 -1 0 0 0 0];
oriented        oriented;


internalField   nonuniform List<scalar> 
11989
(
-0.000198536
1.21335e-07
0.000198414
-0.000198638
1.02139e-07
-0.000198726
8.8174e-08
-0.000198804
7.84777e-08
-0.000198877
7.2039e-08
-0.000198945
6.80475e-08
-0.00019901
6.58584e-08
-0.000199075
6.50215e-08
-0.000199141
6.51185e-08
-0.000199207
6.61422e-08
-0.000199275
6.79671e-08
-0.000199345
7.05396e-08
-0.000199419
7.3854e-08
-0.000199497
7.78797e-08
-0.000199579
8.2458e-08
-0.000199667
8.71257e-08
-0.000199757
9.09412e-08
-0.000199851
9.3945e-08
-0.000199943
9.1336e-08
5.72468e-08
-0.000199849
1.81091e-07
0.00019979
-0.000199891
1.44102e-07
-0.000199921
1.17521e-07
-0.000199941
9.91091e-08
-0.000199956
8.67402e-08
-0.000199967
7.88221e-08
-0.000199975
7.40651e-08
-0.000199982
7.16835e-08
-0.000199987
7.07874e-08
-0.000199993
7.13105e-08
-0.000199998
7.30113e-08
-0.000200003
7.57167e-08
-0.000200008
7.93305e-08
-0.000200014
8.36952e-08
-0.00020002
8.83715e-08
-0.000200025
9.24584e-08
-0.000200029
9.50263e-08
-0.00020003
9.43028e-08
-0.000200019
8.03648e-08
3.84465e-08
-0.000200226
2.18574e-07
0.000200189
-0.000200247
1.64789e-07
-0.000200256
1.26686e-07
-0.000200257
1.00489e-07
-0.000200254
8.28582e-08
-0.000200246
7.14418e-08
-0.000200236
6.41366e-08
-0.000200225
5.99128e-08
-0.000200211
5.77577e-08
-0.000200197
5.72475e-08
-0.000200182
5.7983e-08
-0.000200166
5.97234e-08
-0.000200149
6.23074e-08
-0.000200131
6.55568e-08
-0.000200112
6.89687e-08
-0.000200091
7.11705e-08
-0.000200067
7.18295e-08
-0.000200041
6.84387e-08
-0.000200015
5.42706e-08
2.30516e-08
-0.000200405
2.39655e-07
0.000200384
-0.00020041
1.70637e-07
-0.000200407
1.22801e-07
-0.000200396
9.01874e-08
-0.000200382
6.85318e-08
-0.000200365
5.44675e-08
-0.000200346
4.50829e-08
-0.000200325
3.918e-08
-0.000200303
3.5671e-08
-0.00020028
3.3848e-08
-0.000200255
3.32255e-08
-0.000200229
3.34955e-08
-0.000200201
3.44486e-08
-0.000200171
3.58777e-08
-0.00020014
3.73683e-08
-0.000200107
3.82069e-08
-0.000200073
3.80389e-08
-0.00020004
3.52295e-08
-0.000200012
2.68763e-08
1.08424e-08
-0.000200502
2.43243e-07
0.000200499
-0.000200494
1.62254e-07
-0.000200479
1.07955e-07
-0.00020046
7.12889e-08
-0.000200439
4.71536e-08
-0.000200416
3.15754e-08
-0.000200392
2.09312e-08
-0.000200366
1.38698e-08
-0.00020034
9.19083e-09
-0.000200312
6.08896e-09
-0.000200283
4.02527e-09
-0.000200252
2.65204e-09
-0.000200219
1.74169e-09
-0.000200185
1.14202e-09
-0.000200148
7.50481e-10
-0.00020011
4.90115e-10
-0.000200073
3.10023e-10
-0.000200038
1.85016e-10
-0.000200011
9.66432e-11
3.20185e-11
-0.000200549
2.25448e-07
0.000200567
-0.000200525
1.38503e-07
-0.000200499
8.18274e-08
-0.000200473
4.54999e-08
-0.000200448
2.15678e-08
-0.000200422
5.59467e-09
-0.000200396
-5.22655e-09
-0.000200369
-1.27499e-08
-0.000200342
-1.81566e-08
-0.000200313
-2.22432e-08
-0.000200284
-2.55529e-08
-0.000200253
-2.84418e-08
-0.00020022
-3.11316e-08
-0.000200185
-3.37053e-08
-0.000200148
-3.59398e-08
-0.00020011
-3.72716e-08
-0.000200073
-3.74488e-08
-0.000200038
-3.48793e-08
-0.000200011
-2.66977e-08
-1.07837e-08
-0.00020054
1.7588e-07
0.000200589
-0.000200501
9.95998e-08
-0.000200465
4.6344e-08
-0.000200435
1.51171e-08
-0.000200408
-5.91306e-09
-0.000200382
-2.01601e-08
-0.000200357
-3.00448e-08
-0.000200333
-3.72279e-08
-0.000200308
-4.27468e-08
-0.000200283
-4.73093e-08
-0.000200257
-5.14133e-08
-0.00020023
-5.53977e-08
-0.000200202
-5.94713e-08
-0.000200172
-6.37061e-08
-0.00020014
-6.77507e-08
-0.000200107
-7.03663e-08
-0.000200073
-7.13238e-08
-0.00020004
-6.81409e-08
-0.000200012
-5.41354e-08
-2.30079e-08
-0.000200439
8.2744e-08
0.000200532
-0.000200388
4.85258e-08
-0.000200347
5.81069e-09
-0.000200317
-1.48654e-08
-0.000200293
-3.01916e-08
-0.000200272
-4.09679e-08
-0.000200254
-4.88072e-08
-0.000200236
-5.47804e-08
-0.000200219
-5.96593e-08
-0.000200202
-6.39918e-08
-0.000200186
-6.8184e-08
-0.000200168
-7.25364e-08
-0.000200151
-7.72442e-08
-0.000200132
-8.23313e-08
-0.000200112
-8.74708e-08
-0.000200091
-9.18688e-08
-0.000200068
-9.46564e-08
-0.000200042
-9.4067e-08
-0.000200015
-8.02959e-08
-3.84259e-08
-0.000200122
-7.81581e-08
0.000200282
-0.000200066
-7.1312e-09
-0.000200036
-2.44625e-08
-0.000200017
-3.30626e-08
-0.000200007
-4.10833e-08
-0.0002
-4.72061e-08
-0.000199997
-5.19125e-08
-0.000199996
-5.5707e-08
-0.000199997
-5.90043e-08
-0.000199999
-6.21243e-08
-0.000200002
-6.53193e-08
-0.000200005
-6.87958e-08
-0.00020001
-7.27115e-08
-0.000200015
-7.71328e-08
-0.000200021
-8.19673e-08
-0.000200026
-8.68072e-08
-0.00020003
-9.07377e-08
-0.00020003
-9.3808e-08
-0.000200019
-9.13219e-08
-5.72413e-08
-0.000198832
0.000198754
-0.00019884
-0.000198864
-0.000198897
-0.000198938
-0.000198985
-0.000199037
-0.000199093
-0.000199152
-0.000199214
-0.000199279
-0.000199348
-0.000199421
-0.000199498
-0.00019958
-0.000199667
-0.000199758
-0.000199851
-0.000199943
-0.00019787
2.62756e-07
0.000197607
-0.000198088
2.17857e-07
-0.000198267
1.7933e-07
1.4697e-07
-0.000199438
4.57178e-07
0.000199244
-0.00019959
3.69974e-07
-0.000199706
2.94602e-07
2.31051e-07
-0.000199903
6.27988e-07
0.000199732
-0.000200033
5.00113e-07
-0.000200127
3.88346e-07
2.92932e-07
-0.000200139
7.84224e-07
0.000199983
-0.000200256
6.1736e-07
-0.000200337
4.69116e-07
3.39531e-07
-0.000200284
9.3143e-07
0.000200137
-0.000200393
7.26512e-07
-0.000200466
5.41305e-07
3.72568e-07
-0.000200363
1.08098e-06
0.000200214
-0.000200472
8.35363e-07
-0.000200544
6.13426e-07
3.94908e-07
-0.000200341
1.26957e-06
0.000200153
-0.000200476
9.70507e-07
-0.000200577
7.13638e-07
4.07603e-07
-0.000200053
1.6291e-06
0.000199693
-0.000200307
1.22458e-06
-0.000200509
9.15738e-07
4.30823e-07
-0.000198706
2.61644e-06
0.000197719
-0.000199422
1.9401e-06
-0.000199872
1.36619e-06
8.41201e-07
-0.000188297
0.000184776
6.13755e-06
-0.000191535
5.1784e-06
-0.000193861
3.69174e-06
5.73466e-06
7.18181e-06
-7.18182e-06
8.91362e-06
-1.73182e-06
6.1842e-06
2.72942e-06
3.54549e-07
5.82964e-06
-9.54787e-06
9.90241e-06
-2.41589e-05
1.46111e-05
-4.10743e-05
1.69154e-05
-5.74897e-05
1.64154e-05
-7.24261e-05
1.49364e-05
-8.60576e-05
1.36315e-05
-9.85364e-05
1.24788e-05
-0.000109967
1.14307e-05
-0.000120429
1.04616e-05
-0.000129981
9.55262e-06
-0.000138673
8.69128e-06
-0.000146543
7.87038e-06
-0.00015363
7.08684e-06
-0.000159971
6.34068e-06
-0.000165605
5.634e-06
-0.000170575
4.97004e-06
-0.000174927
4.35266e-06
-0.000178713
3.78552e-06
-0.000181982
3.26893e-06
-0.000184784
2.8019e-06
-0.000187168
2.38438e-06
-0.000189183
2.01523e-06
-0.000190876
1.6924e-06
-0.000192289
1.41314e-06
-0.000193463
1.17468e-06
-0.000194438
9.74244e-07
-0.000195243
8.05098e-07
-0.000195907
6.64168e-07
-0.000196457
5.49656e-07
-0.000196913
4.55966e-07
-0.000197292
3.79154e-07
3.15706e-07
4.15754e-06
-1.13394e-05
2.17809e-06
2.47631e-07
-4.30213e-06
9.20963e-06
-1.57999e-05
1.73274e-05
-3.08792e-05
2.49817e-05
-4.62319e-05
2.99637e-05
-6.01768e-05
3.08603e-05
-7.31232e-05
2.93618e-05
-8.56111e-05
2.74243e-05
-9.7426e-05
2.54464e-05
-0.000108474
2.35269e-05
-0.000118749
2.17055e-05
-0.000128259
1.9972e-05
-0.000137018
1.83116e-05
-0.000145039
1.67122e-05
-0.000152337
1.51683e-05
-0.00015893
1.36801e-05
-0.000164842
1.22524e-05
-0.000170101
1.08927e-05
-0.000174741
9.60986e-06
-0.0001788
8.41201e-06
-0.00018232
7.3054e-06
-0.000185345
6.29442e-06
-0.000187925
5.38142e-06
-0.000190107
4.5663e-06
-0.000191938
3.84677e-06
-0.000193465
3.21871e-06
-0.000194728
2.6765e-06
-0.000195767
2.21329e-06
-0.000196614
1.82166e-06
-0.000197304
1.49546e-06
-0.000197867
1.22718e-06
-0.000198325
1.00769e-06
-0.000198698
8.2842e-07
-0.000199
6.81319e-07
5.59423e-07
-1.00974e-06
-1.03296e-05
-7.14052e-06
6.37842e-06
-1.73397e-05
1.94088e-05
-3.06897e-05
3.06775e-05
-4.46018e-05
3.88938e-05
-5.72569e-05
4.26188e-05
-6.89256e-05
4.2529e-05
-8.03408e-05
4.0777e-05
-9.15071e-05
3.85906e-05
-0.000102259
3.61983e-05
-0.000112503
3.37711e-05
-0.000122171
3.13738e-05
-0.000131221
2.90215e-05
-0.000139624
2.67149e-05
-0.000147365
2.44534e-05
-0.000154438
2.22408e-05
-0.000160844
2.00865e-05
-0.000166596
1.80042e-05
-0.000171714
1.60105e-05
-0.000176226
1.41221e-05
-0.000180168
1.23541e-05
-0.000183581
1.07185e-05
-0.00018651
9.22356e-06
-0.000189002
7.8736e-06
-0.000191105
6.66875e-06
-0.000192864
5.6057e-06
-0.000194324
4.67841e-06
-0.000195526
3.87858e-06
-0.000196509
3.19633e-06
-0.000197308
2.62134e-06
-0.000197956
2.14321e-06
-0.000198479
1.75007e-06
-0.000198901
1.42948e-06
-0.000199241
1.16854e-06
-0.000199514
9.54734e-07
7.77291e-07
-6.26732e-06
-4.06231e-06
-1.563e-05
1.5741e-05
-2.76073e-05
3.13861e-05
-4.05352e-05
4.36053e-05
-5.25728e-05
5.09315e-05
-6.34685e-05
5.35144e-05
-7.40048e-05
5.30653e-05
-8.45422e-05
5.13144e-05
-9.49372e-05
4.89856e-05
-0.000105066
4.63275e-05
-0.000114826
4.35308e-05
-0.000124127
4.06749e-05
-0.000132902
3.77964e-05
-0.000141101
3.49135e-05
-0.000148688
3.20406e-05
-0.000155642
2.91946e-05
-0.000161953
2.63977e-05
-0.000167625
2.3676e-05
-0.000172672
2.10576e-05
-0.000177119
1.85694e-05
-0.000181001
1.62353e-05
-0.000184356
1.40738e-05
-0.00018723
1.20976e-05
-0.00018967
1.03132e-05
-0.000191722
8.72101e-06
-0.000193433
7.31695e-06
-0.000194848
6.09306e-06
-0.000196008
5.03844e-06
-0.000196951
4.14005e-06
-0.000197714
3.38399e-06
-0.000198327
2.75604e-06
-0.000198818
2.24124e-06
-0.000199212
1.8234e-06
-0.000199528
1.48486e-06
-0.000199782
1.20819e-06
9.78315e-07
-1.01862e-05
6.1239e-06
-2.17987e-05
2.73535e-05
-3.43136e-05
4.3901e-05
-4.63181e-05
5.56099e-05
-5.71105e-05
6.17238e-05
-6.71895e-05
6.35934e-05
-7.71871e-05
6.30629e-05
-8.72114e-05
6.13387e-05
-9.71455e-05
5.89197e-05
-0.000106891
5.60734e-05
-0.000116344
5.29836e-05
-0.00012541
4.9741e-05
-0.000134011
4.63975e-05
-0.000142084
4.29863e-05
-0.00014958
3.95364e-05
-0.000156465
3.60798e-05
-0.000162721
3.26537e-05
-0.000168345
2.92993e-05
-0.000173346
2.60587e-05
-0.000177748
2.29715e-05
-0.000181584
2.00715e-05
-0.000184895
1.73848e-05
-0.000187726
1.49287e-05
-0.000190125
1.27118e-05
-0.000192138
1.07349e-05
-0.000193814
8.99255e-06
-0.000195196
7.47471e-06
-0.000196325
6.16776e-06
-0.00019724
5.05531e-06
-0.000197976
4.11978e-06
-0.000198564
3.34352e-06
-0.000199032
2.70921e-06
-0.000199405
2.19737e-06
-0.000199706
1.78493e-06
-0.000199946
1.44891e-06
1.16914e-06
-1.27809e-05
1.89048e-05
-2.57099e-05
4.02825e-05
-3.81688e-05
5.636e-05
-4.94217e-05
6.68628e-05
-5.9603e-05
7.19051e-05
-6.93712e-05
7.33617e-05
-7.91138e-05
7.28055e-05
-8.88518e-05
7.10768e-05
-9.85141e-05
6.85819e-05
-0.000108021
6.55808e-05
-0.000117279
6.22406e-05
-0.000126193
5.86558e-05
-0.000134682
5.48862e-05
-0.000142672
5.09761e-05
-0.000150104
4.69683e-05
-0.000156935
4.29109e-05
-0.00016314
3.88587e-05
-0.000168711
3.48709e-05
-0.000173659
3.10066e-05
-0.000178007
2.73198e-05
-0.000181792
2.38558e-05
-0.000185055
2.06485e-05
-0.000187846
1.77195e-05
-0.000190213
1.50789e-05
-0.000192205
1.27264e-05
-0.000193867
1.06542e-05
-0.000195241
8.84929e-06
-0.000196369
7.29523e-06
-0.000197286
5.97216e-06
-0.000198025
4.8588e-06
-0.000198615
3.93438e-06
-0.000199087
3.18045e-06
-0.000199465
2.57567e-06
-0.000199771
2.09054e-06
-0.000200017
1.69583e-06
1.36559e-06
-1.43112e-05
3.3216e-05
-2.78044e-05
5.37756e-05
-4.00124e-05
6.8568e-05
-5.08353e-05
7.76857e-05
-6.08014e-05
8.18713e-05
-7.04821e-05
8.30424e-05
-8.01068e-05
8.24302e-05
-8.96892e-05
8.06591e-05
-9.91904e-05
7.80832e-05
-0.000108546
7.49367e-05
-0.000117672
7.13664e-05
-0.000126478
6.74615e-05
-0.000134875
6.3283e-05
-0.000142781
5.88829e-05
-0.000150131
5.43174e-05
-0.000156872
4.96527e-05
-0.000162978
4.49646e-05
-0.000168442
4.03345e-05
-0.000173277
3.58419e-05
-0.000177515
3.1558e-05
-0.0001812
2.75405e-05
-0.000184382
2.38307e-05
-0.000187116
2.04529e-05
-0.000189453
1.74162e-05
-0.000191443
1.47166e-05
-0.00019313
1.23409e-05
-0.000194551
1.02706e-05
-0.000195742
8.48573e-06
-0.000196733
6.96356e-06
-0.000197552
5.67794e-06
-0.000198224
4.60573e-06
-0.000198771
3.72808e-06
-0.000199222
3.02675e-06
-0.000199596
2.46422e-06
-0.000199904
2.00373e-06
1.61432e-06
-1.51708e-05
4.83868e-05
-2.86305e-05
6.72353e-05
-4.05536e-05
8.0491e-05
-5.11772e-05
8.83094e-05
-6.11094e-05
9.18034e-05
-7.07813e-05
9.27142e-05
-8.03485e-05
9.19974e-05
-8.98388e-05
9.01494e-05
-9.92324e-05
8.74768e-05
-0.000108475
8.41793e-05
-0.000117488
8.0379e-05
-0.000126178
7.61516e-05
-0.000134449
7.1554e-05
-0.000142209
6.66434e-05
-0.000149382
6.14907e-05
-0.000155914
5.61841e-05
-0.000161776
5.08269e-05
-0.00016697
4.55288e-05
-0.000171524
4.03954e-05
-0.000175485
3.55191e-05
-0.000178916
3.09712e-05
-0.000181885
2.67999e-05
-0.000184461
2.30295e-05
-0.000186709
1.9664e-05
-0.000188684
1.66911e-05
-0.000190429
1.40865e-05
-0.000191978
1.18195e-05
-0.000193351
9.85829e-06
-0.000194564
8.17679e-06
-0.000195632
6.74563e-06
-0.000196566
5.54015e-06
-0.000197372
4.53422e-06
-0.000198079
3.73306e-06
-0.000198701
3.08681e-06
-0.00019924
2.54264e-06
2.06741e-06
-1.53631e-05
6.37499e-05
-2.85997e-05
8.04719e-05
-4.02775e-05
9.21688e-05
-5.08094e-05
9.88413e-05
-6.07538e-05
0.000101748
-7.04246e-05
0.000102385
-7.99466e-05
0.000101519
-8.93594e-05
9.95622e-05
-9.86518e-05
9.67692e-05
-0.000107771
9.32989e-05
-0.000116635
8.92429e-05
-0.00012514
8.46562e-05
-0.000133173
7.95869e-05
-0.000140626
7.40968e-05
-0.00014741
6.82746e-05
-0.000153465
6.22387e-05
-0.000158767
5.61297e-05
-0.000163335
5.00962e-05
-0.000167219
4.42792e-05
-0.000170497
3.87978e-05
-0.000173267
3.37404e-05
-0.000175628
2.91615e-05
-0.000177682
2.50837e-05
-0.000179521
2.15025e-05
-0.000181223
1.83929e-05
-0.000182852
1.57154e-05
-0.000184454
1.34223e-05
-0.00018606
1.14641e-05
-0.000187676
9.79297e-06
-0.000189279
8.34799e-06
-0.000190846
7.1079e-06
-0.000192356
6.0442e-06
-0.000193825
5.20171e-06
-0.000195248
4.50932e-06
-0.000196563
3.85795e-06
3.22322e-06
-1.50166e-05
7.87665e-05
-2.7995e-05
9.34504e-05
-3.94773e-05
0.000103651
-4.99407e-05
0.000109305
-5.98735e-05
0.000111681
-6.95128e-05
0.000112024
-7.89667e-05
0.000110973
-8.8277e-05
0.000108872
-9.74307e-05
0.000105923
-0.000106366
0.000102234
-0.000114982
9.78591e-05
-0.000123151
9.28246e-05
-0.000130729
8.71653e-05
-0.000137581
8.09489e-05
-0.000143597
7.42903e-05
-0.000148709
6.7351e-05
-0.000152904
6.03247e-05
-0.000156222
5.34138e-05
-0.000158747
4.68043e-05
-0.000160596
4.06472e-05
-0.000161903
3.50472e-05
-0.000162804
3.00621e-05
-0.000163428
2.5708e-05
-0.000163894
2.19688e-05
-0.000164308
1.88064e-05
-0.000164762
1.61694e-05
-0.000165341
1.4001e-05
-0.000166124
1.22472e-05
-0.000167214
1.08834e-05
-0.000168664
9.79729e-06
-0.00017049
8.93429e-06
-0.000172681
8.23556e-06
-0.000175233
7.75362e-06
-0.000178153
7.42912e-06
-0.000181367
7.07223e-06
6.63175e-06
-6.78118e-05
-6.86086e-06
8.08102e-05
-5.37015e-05
-8.93184e-06
-3.54166e-05
-1.45932e-05
-2.96819e-05
-9.83725e-06
-1.52326e-05
1.8209e-05
-2.00839e-06
-1.67607e-05
3.46245e-06
-2.0064e-05
-2.62195e-05
-5.76872e-07
-1.83375e-05
3.6817e-06
1.87692e-06
-1.92145e-05
2.71678e-06
-2.09039e-05
-2.35027e-05
-4.54229e-07
-1.97083e-05
1.82505e-06
6.4332e-07
-2.0312e-05
1.0015e-06
-2.12621e-05
-2.25012e-05
-8.88978e-07
-2.07173e-05
1.89798e-06
-6.29471e-08
-2.11381e-05
3.58285e-07
-2.16833e-05
-2.21429e-05
-1.14919e-06
-2.15941e-05
2.02599e-06
-4.30681e-07
-2.18566e-05
8.14883e-09
-2.21221e-05
-2.21348e-05
-1.21784e-06
-2.2382e-05
2.00572e-06
-5.78931e-07
-2.24955e-05
-1.45506e-07
-2.25556e-05
-2.22803e-05
-1.13676e-06
-2.30828e-05
1.83765e-06
-5.81649e-07
-2.30506e-05
-1.932e-07
-2.2944e-05
-2.24735e-05
-9.41383e-07
-2.36894e-05
1.54792e-06
-4.80735e-07
-2.35112e-05
-1.66259e-07
-2.32585e-05
-2.26397e-05
-6.56005e-07
-2.41922e-05
1.15882e-06
-3.02593e-07
-2.38647e-05
-8.60555e-08
-2.3475e-05
-2.27258e-05
-2.96522e-07
-2.45814e-05
6.8577e-07
-6.44983e-08
-2.40967e-05
2.95476e-08
-2.35691e-05
-2.26963e-05
1.27185e-07
-2.48472e-05
1.38573e-07
2.23731e-07
-2.41932e-05
1.75236e-07
-2.35206e-05
-2.2521e-05
6.08787e-07
-2.49794e-05
-4.76594e-07
5.55308e-07
-2.41398e-05
3.41536e-07
-2.33068e-05
-2.21795e-05
1.14433e-06
-2.49683e-05
-1.15543e-06
9.28512e-07
-2.39239e-05
5.36609e-07
-2.29149e-05
-2.16429e-05
1.73094e-06
-2.48044e-05
-1.89482e-06
1.34022e-06
-2.35332e-05
7.52943e-07
-2.23276e-05
-2.08899e-05
2.36657e-06
-2.44787e-05
-2.69232e-06
1.78889e-06
-2.29555e-05
9.90115e-07
-2.15288e-05
-1.98998e-05
3.0491e-06
-2.39825e-05
-3.54531e-06
2.27337e-06
-2.21798e-05
1.24867e-06
-2.05041e-05
-1.86511e-05
3.77536e-06
-2.33077e-05
-4.45007e-06
2.79164e-06
-2.11961e-05
1.52834e-06
-1.92408e-05
-1.71228e-05
4.54013e-06
-2.24469e-05
-5.40101e-06
3.33972e-06
-1.99957e-05
1.82795e-06
-1.77291e-05
-1.52948e-05
5.3346e-06
-2.13921e-05
-6.3894e-06
3.91007e-06
-1.85711e-05
2.14437e-06
-1.59634e-05
-1.31505e-05
6.1438e-06
-2.01341e-05
-7.40172e-06
4.48763e-06
-1.6915e-05
2.46891e-06
-1.39446e-05
-1.06816e-05
6.94358e-06
-1.86595e-05
-8.41822e-06
5.04191e-06
-1.50133e-05
2.77113e-06
-1.16739e-05
-7.91044e-06
7.70089e-06
-1.69485e-05
-9.4119e-06
5.52807e-06
-1.28405e-05
2.97663e-06
-9.12242e-06
-4.93381e-06
8.38152e-06
-1.49821e-05
-1.0348e-05
5.94021e-06
-1.03992e-05
3.10646e-06
-6.28868e-06
-1.82736e-06
8.99659e-06
-1.27241e-05
-1.12545e-05
6.31054e-06
-7.71314e-06
3.24295e-06
-3.22108e-06
1.41559e-06
9.60032e-06
-1.01681e-05
-1.21564e-05
6.67843e-06
-4.79125e-06
3.43548e-06
2.1876e-08
4.85106e-06
1.01773e-05
-7.35455e-06
-1.29908e-05
7.01756e-06
-1.6315e-06
3.60577e-06
3.43366e-06
8.45683e-06
1.06576e-05
-4.34018e-06
-1.36719e-05
7.31876e-06
1.70732e-06
3.79356e-06
6.95886e-06
1.22504e-05
1.09507e-05
-1.16966e-06
-1.41213e-05
7.51463e-06
5.14343e-06
3.93373e-06
1.05397e-05
1.61841e-05
1.10029e-05
2.1062e-06
-1.42787e-05
7.53132e-06
8.61496e-06
3.92773e-06
1.41433e-05
2.01118e-05
1.07993e-05
5.4086e-06
-1.41017e-05
7.3784e-06
1.20359e-05
3.83015e-06
1.76916e-05
2.3942e-05
1.03419e-05
8.63601e-06
-1.35693e-05
7.07669e-06
1.53011e-05
3.66981e-06
2.10985e-05
2.76118e-05
9.66376e-06
1.16742e-05
-1.27019e-05
6.63449e-06
1.83304e-05
3.44228e-06
2.42907e-05
3.10541e-05
8.82471e-06
1.44095e-05
-1.156e-05
6.07249e-06
2.10826e-05
3.14753e-06
2.72156e-05
3.42016e-05
7.84672e-06
1.67747e-05
-1.02119e-05
5.41598e-06
2.35133e-05
2.80429e-06
2.98273e-05
3.70059e-05
6.76004e-06
1.87782e-05
-8.76354e-06
4.67712e-06
2.55962e-05
2.42203e-06
3.20824e-05
3.94279e-05
5.6242e-06
2.0431e-05
-7.27698e-06
3.89785e-06
2.73226e-05
2.01908e-06
3.39612e-05
4.1447e-05
4.48344e-06
2.17475e-05
-5.79995e-06
3.11311e-06
2.86929e-05
1.61455e-06
3.54598e-05
4.30616e-05
3.38556e-06
2.27498e-05
-4.38784e-06
2.35341e-06
2.97251e-05
1.22243e-06
3.65907e-05
4.4284e-05
2.35521e-06
2.34604e-05
-3.06583e-06
1.63785e-06
3.04425e-05
8.48144e-07
3.73804e-05
4.51321e-05
1.40434e-06
2.39033e-05
-1.84728e-06
9.77738e-07
3.08691e-05
5.04681e-07
3.78535e-05
4.56368e-05
5.33665e-07
2.40998e-05
-7.30116e-07
3.74845e-07
3.10279e-05
1.93612e-07
3.80347e-05
4.58304e-05
-2.63992e-07
2.40694e-05
2.94388e-07
-1.79385e-07
3.09433e-05
-1.07451e-07
3.79628e-05
4.5723e-05
-9.98083e-07
2.38304e-05
1.2371e-06
-6.91945e-07
3.06371e-05
-3.9151e-07
3.76624e-05
4.53315e-05
-1.67868e-06
2.33997e-05
2.10931e-06
-1.17195e-06
3.01304e-05
-6.66508e-07
3.71569e-05
4.4665e-05
-2.31646e-06
2.27933e-05
2.92288e-06
-1.62545e-06
2.94394e-05
-9.2132e-07
3.64528e-05
4.37437e-05
-2.9237e-06
2.20263e-05
3.69073e-06
-2.06458e-06
2.85803e-05
-1.17497e-06
3.55632e-05
4.25687e-05
-3.51438e-06
2.11136e-05
4.42707e-06
-2.50146e-06
2.75674e-05
-1.43313e-06
3.44949e-05
4.11356e-05
-4.10464e-06
2.00705e-05
5.14771e-06
-2.95071e-06
2.64134e-05
-1.70563e-06
3.32498e-05
3.94299e-05
-4.71413e-06
1.89138e-05
5.87084e-06
-3.431e-06
2.51303e-05
-2.00513e-06
3.18239e-05
3.74248e-05
-5.36726e-06
1.7663e-05
6.61808e-06
-3.96585e-06
2.37289e-05
-2.34683e-06
3.02049e-05
3.5078e-05
-6.0941e-06
1.63417e-05
7.41538e-06
-4.5837e-06
2.22185e-05
-2.74774e-06
2.83689e-05
3.23302e-05
-6.92996e-06
1.49783e-05
8.29342e-06
-5.31565e-06
2.06042e-05
-3.22378e-06
2.62771e-05
2.91065e-05
-7.91112e-06
1.36031e-05
9.2863e-06
-6.18759e-06
1.88807e-05
-3.78281e-06
2.38723e-05
2.53236e-05
-9.06107e-06
1.22412e-05
1.04229e-05
-7.20105e-06
1.70207e-05
-4.40911e-06
2.10803e-05
2.09145e-05
-1.03573e-05
1.08947e-05
1.17039e-05
-8.29449e-06
1.49578e-05
-5.03284e-06
1.78187e-05
1.58817e-05
-1.16678e-05
9.50312e-06
1.30593e-05
-9.27355e-06
1.25636e-05
-5.44868e-06
1.39938e-05
1.0433e-05
-1.26359e-05
7.84198e-06
1.4297e-05
-9.67033e-06
9.59809e-06
-5.20307e-06
9.52656e-06
5.22993e-06
-1.25977e-05
5.46848e-06
1.49712e-05
-8.77067e-06
5.77101e-06
-3.93411e-06
4.69e-06
1.29582e-06
-1.17568e-05
1.72253e-05
-5.98582e-06
-1.29582e-06
-1.52389e-05
9.40054e-05
-2.86962e-05
0.000106908
-4.06786e-05
0.000115633
-5.16942e-05
0.00012032
-6.21693e-05
0.000122156
-7.23139e-05
0.000122169
-8.22275e-05
0.000120887
-9.19429e-05
0.000118588
-0.000101429
0.000115409
-0.000110594
0.000111399
-0.000119292
0.000106557
-0.000127338
0.00010087
-0.00013453
9.43576e-05
-0.000140683
8.71016e-05
-0.000145657
7.92641e-05
-0.000149384
7.10782e-05
-0.000151878
6.28187e-05
-0.000153226
5.47619e-05
-0.000153569
4.71475e-05
-0.000153076
4.01535e-05
-0.000151915
3.38869e-05
-0.000150242
2.83889e-05
-0.000148181
2.36475e-05
-0.000145825
1.96128e-05
-0.000143231
1.62123e-05
-0.000140423
1.33607e-05
-0.000137387
1.09652e-05
-0.000134072
8.93222e-06
-0.000130396
7.20726e-06
-0.000126249
5.65074e-06
-0.000121502
4.18727e-06
-0.000116004
2.73768e-06
-0.000109484
1.2337e-06
-0.00010164
-4.15036e-07
-9.21602e-05
-2.4077e-06
-4.7182e-06
-1.44478e-05
0.000108453
-2.74126e-05
0.000119872
-3.91134e-05
0.000127334
-4.99474e-05
0.000131154
-6.02542e-05
0.000132462
-7.02143e-05
0.000132129
-7.99057e-05
0.000130578
-8.93349e-05
0.000128017
-9.84358e-05
0.00012451
-0.000107068
0.000120032
-0.000115025
0.000114514
-0.000122054
0.0001079
-0.000127898
0.000100201
-0.000132339
9.15428e-05
-0.000135247
8.21726e-05
-0.000136605
7.24354e-05
-0.000136502
6.2716e-05
-0.000135114
5.3374e-05
-0.000132659
4.46926e-05
-0.00012936
3.68546e-05
-0.000125415
2.99421e-05
-0.00012098
2.39541e-05
-0.000116163
1.88302e-05
-0.000111025
1.44741e-05
-0.000105585
1.07725e-05
-9.98312e-05
7.60723e-06
-9.37241e-05
4.85802e-06
-8.72106e-05
2.41876e-06
-8.02058e-05
2.02496e-07
-7.26655e-05
-1.88961e-06
-6.45618e-05
-3.9164e-06
-5.59013e-05
-5.92285e-06
-4.66718e-05
-7.99584e-06
-3.70096e-05
-1.00772e-05
-2.73625e-05
-1.20548e-05
-1.38717e-05
-1.36531e-05
0.000122106
-2.60393e-05
0.000132259
-3.73683e-05
0.000138663
-4.79179e-05
0.000141704
-5.79637e-05
0.000142508
-6.76456e-05
0.000141811
-7.70083e-05
0.000139941
-8.60195e-05
0.000137028
-9.45615e-05
0.000133052
-0.000102428
0.000127898
-0.000109338
0.000121424
-0.000114976
0.000113537
-0.000119051
0.000104276
-0.000121366
9.38578e-05
-0.000121866
8.26719e-05
-0.000120645
7.12152e-05
-0.000117924
5.99941e-05
-0.000113985
4.94357e-05
-0.000109128
3.98349e-05
-0.000103616
3.13429e-05
-9.76605e-05
2.39866e-05
-9.14094e-05
1.7703e-05
-8.49549e-05
1.23757e-05
-7.83452e-05
7.86448e-06
-7.15995e-05
4.02675e-06
-6.47276e-05
7.35351e-07
-5.77496e-05
-2.12003e-06
-5.07001e-05
-4.63066e-06
-4.36258e-05
-6.87184e-06
-3.65992e-05
-8.91618e-06
-2.97025e-05
-1.08131e-05
-2.31353e-05
-1.24901e-05
-1.71779e-05
-1.39532e-05
-1.19229e-05
-1.53321e-05
-7.40327e-06
-1.65745e-05
-1.75933e-05
-1.28565e-05
0.000134963
-2.46344e-05
0.000144036
-3.54897e-05
0.000149519
-4.56594e-05
0.000151874
-5.53507e-05
0.0001522
-6.46531e-05
0.000151113
-7.35699e-05
0.000148858
-8.20186e-05
0.000145477
-8.98171e-05
0.000140851
-9.66859e-05
0.000134767
-0.000102278
0.000127016
-0.000106243
0.000117502
-0.000108314
0.000106348
-0.000108386
9.3929e-05
-0.00010654
8.08267e-05
-0.000103028
6.77029e-05
-9.81972e-05
5.51633e-05
-9.24215e-05
4.366e-05
-8.60407e-05
3.34541e-05
-7.93278e-05
2.463e-05
-7.24805e-05
1.71393e-05
-6.56306e-05
1.08531e-05
-5.88619e-05
5.60699e-06
-5.22342e-05
1.2368e-06
-4.58076e-05
-2.39991e-06
-3.96422e-05
-5.43005e-06
-3.3795e-05
-7.96721e-06
-2.83121e-05
-1.01136e-05
-2.32402e-05
-1.19437e-05
-1.86386e-05
-1.35177e-05
-1.45703e-05
-1.48815e-05
-1.10262e-05
-1.60341e-05
-7.98576e-06
-1.69937e-05
-5.46844e-06
-1.78494e-05
-3.44199e-06
-1.86009e-05
-1.92102e-05
-1.2061e-05
0.000147024
-2.32023e-05
0.000155178
-3.35054e-05
0.000159822
-4.32163e-05
0.000161584
-5.24642e-05
0.000161448
-6.12872e-05
0.000159936
-6.96424e-05
0.000157213
-7.73894e-05
0.000153224
-8.42786e-05
0.00014774
-8.99655e-05
0.000140454
-9.40657e-05
0.000131116
-9.6248e-05
0.000119685
-9.63363e-05
0.000106436
-9.43717e-05
9.19643e-05
-9.06043e-05
7.70594e-05
-8.54249e-05
6.25235e-05
-7.92736e-05
4.9012e-05
-7.25636e-05
3.695e-05
-6.56364e-05
2.65269e-05
-5.87483e-05
1.77419e-05
-5.20794e-05
1.04704e-05
-4.57543e-05
4.52802e-06
-3.98669e-05
-2.80402e-07
-3.44841e-05
-4.14599e-06
-2.96309e-05
-7.25317e-06
-2.52908e-05
-9.7701e-06
-2.14231e-05
-1.18349e-05
-1.7982e-05
-1.35547e-05
-1.49246e-05
-1.5001e-05
-1.22209e-05
-1.62215e-05
-9.85059e-06
-1.72518e-05
-7.7679e-06
-1.81168e-05
-5.93551e-06
-1.88261e-05
-4.36582e-06
-1.94191e-05
-3.04039e-06
-1.99264e-05
-2.03526e-05
-1.12614e-05
0.000158285
-2.17346e-05
0.000165651
-3.14504e-05
0.000169537
-4.06325e-05
0.000170767
-4.93546e-05
0.00017017
-5.7608e-05
0.00016819
-6.52995e-05
0.000164904
-7.223e-05
0.000160154
-7.80901e-05
0.0001536
-8.24948e-05
0.000144859
-8.50664e-05
0.000133688
-8.55502e-05
0.000120169
-8.39106e-05
0.000104796
-8.0357e-05
8.84107e-05
-7.52872e-05
7.19896e-05
-6.91871e-05
5.64234e-05
-6.2536e-05
4.23609e-05
-5.57466e-05
3.01606e-05
-4.91418e-05
1.99221e-05
-4.29568e-05
1.1557e-05
-3.73535e-05
4.86699e-06
-3.24295e-05
-3.96002e-07
-2.81996e-05
-4.51024e-06
-2.45932e-05
-7.75238e-06
-2.14902e-05
-1.03562e-05
-1.87666e-05
-1.24936e-05
-1.63237e-05
-1.42778e-05
-1.40973e-05
-1.57812e-05
-1.20477e-05
-1.70506e-05
-1.01574e-05
-1.81118e-05
-8.42516e-06
-1.8984e-05
-6.8504e-06
-1.96916e-05
-5.4222e-06
-2.02543e-05
-4.14261e-06
-2.06987e-05
-3.01734e-06
-2.10516e-05
-2.1344e-05
-1.04602e-05
0.000168746
-2.0242e-05
0.000175433
-2.93442e-05
0.00017864
-3.79429e-05
0.000179365
-4.60741e-05
0.000178301
-5.36858e-05
0.000175801
-6.06365e-05
0.000171855
-6.66749e-05
0.000166193
-7.14507e-05
0.000158376
-7.45723e-05
0.00014798
-7.57158e-05
0.000134831
-7.47462e-05
0.000119199
-7.17877e-05
0.000101838
-6.72004e-05
8.38234e-05
-6.14839e-05
6.6273e-05
-5.51666e-05
5.01061e-05
-4.87269e-05
3.59212e-05
-4.25551e-05
2.39888e-05
-3.69427e-05
1.43097e-05
-3.20792e-05
6.69344e-06
-2.80403e-05
8.28137e-07
-2.47651e-05
-3.67127e-06
-2.20857e-05
-7.18957e-06
-1.98135e-05
-1.00246e-05
-1.77943e-05
-1.23755e-05
-1.59251e-05
-1.43628e-05
-1.41489e-05
-1.6054e-05
-1.24433e-05
-1.74868e-05
-1.08059e-05
-1.8688e-05
-9.24196e-06
-1.96758e-05
-7.76096e-06
-2.0465e-05
-6.3791e-06
-2.10734e-05
-5.10607e-06
-2.15273e-05
-3.94922e-06
-2.18556e-05
-2.91522e-06
-2.20856e-05
-2.22535e-05
-9.66341e-06
0.000178409
-1.87427e-05
0.000184512
-2.7207e-05
0.000187104
-3.51842e-05
0.000187343
-4.26784e-05
0.000185795
-4.95997e-05
0.000182723
-5.57642e-05
0.00017802
-6.08824e-05
0.000171311
-6.45878e-05
0.000162081
-6.65189e-05
0.000149911
-6.64422e-05
0.000134755
-6.43624e-05
0.000117119
-6.05514e-05
9.8027e-05
-5.54797e-05
7.87517e-05
-4.96977e-05
6.0491e-05
-4.37337e-05
4.41422e-05
-3.80374e-05
3.02249e-05
-3.29533e-05
1.89047e-05
-2.86978e-05
1.00542e-05
-2.53283e-05
3.32391e-06
-2.27297e-05
-1.77043e-06
-2.06747e-05
-5.72634e-06
-1.89412e-05
-8.92303e-06
-1.73699e-05
-1.15959e-05
-1.58679e-05
-1.38774e-05
-1.43886e-05
-1.58422e-05
-1.2914e-05
-1.75287e-05
-1.14436e-05
-1.89571e-05
-9.99055e-06
-2.01411e-05
-8.57245e-06
-2.10939e-05
-7.20731e-06
-2.18301e-05
-5.91641e-06
-2.23643e-05
-4.72015e-06
-2.27236e-05
-3.635e-06
-2.29407e-05
-2.67142e-06
-2.30492e-05
-2.30872e-05
-8.87816e-06
0.000187287
-1.72519e-05
0.000192886
-2.50625e-05
0.000194915
-3.23956e-05
0.000194676
-3.92266e-05
0.000192626
-4.54337e-05
0.00018893
-5.08006e-05
0.000183387
-5.50174e-05
0.000175528
-5.77285e-05
0.000164792
-5.86323e-05
0.000150815
-5.76064e-05
0.000133729
-5.47901e-05
0.000114303
-5.0571e-05
9.38078e-05
-4.5483e-05
7.36638e-05
-4.0083e-05
5.5091e-05
-3.48659e-05
3.89251e-05
-3.02228e-05
2.55818e-05
-2.64056e-05
1.50874e-05
-2.34821e-05
7.13082e-06
-2.13238e-05
1.16553e-06
-1.96794e-05
-3.41476e-06
-1.83093e-05
-7.09645e-06
-1.70542e-05
-1.01781e-05
-1.58234e-05
-1.28268e-05
-1.45708e-05
-1.513e-05
-1.32807e-05
-1.71322e-05
-1.19541e-05
-1.88553e-05
-1.06005e-05
-2.03107e-05
-9.23836e-06
-2.15032e-05
-7.89189e-06
-2.24403e-05
-6.58808e-06
-2.3134e-05
-5.35327e-06
-2.35991e-05
-4.21326e-06
-2.38636e-05
-3.19005e-06
-2.39639e-05
-2.29842e-06
-2.39408e-05
-2.38378e-05
-8.11098e-06
0.000195398
-1.57842e-05
0.000200559
-2.29364e-05
0.000202067
-2.96175e-05
0.000201357
-3.57778e-05
0.000198786
-4.1271e-05
0.000194423
-4.58605e-05
0.000187976
-4.92352e-05
0.000178902
-5.10738e-05
0.000166631
-5.11551e-05
0.000150897
-4.947e-05
0.000132044
-4.62686e-05
0.000111101
-4.20118e-05
8.95511e-05
-3.72551e-05
6.89071e-05
-3.25269e-05
5.03628e-05
-2.82577e-05
3.46559e-05
-2.47413e-05
2.20654e-05
-2.20865e-05
1.24325e-05
-2.01911e-05
5.23547e-06
-1.88108e-05
-2.14815e-07
-1.76962e-05
-4.52938e-06
-1.66795e-05
-8.11313e-06
-1.56652e-05
-1.11924e-05
-1.46059e-05
-1.38861e-05
-1.34811e-05
-1.62548e-05
-1.22885e-05
-1.83249e-05