/*--------------------------------*- C++ -*----------------------------------*\
| =========                 |                                                 |
| \\      /  F ield         | OpenFOAM: The Open Source CFD Toolbox           |
|  \\    /   O peration     | Version:  v2012                                 |
|   \\  /    A nd           | Website:  www.openfoam.com                      |
|    \\/     M anipulation  |                                                 |
\*---------------------------------------------------------------------------*/
FoamFile
{
    version     2.0;
    format      ascii;
    class       volVectorField;
    location    "621";
    object      U;
}
// * * * * * * * * * * * * * * * * * * * * * * * * * * * * * * * * * * * * * //

dimensions      [0 1 -1 0 0 0 0];


internalField   nonuniform List<vector> 
6108
(
(0.000380739 -0.992397 0)
(0.000336662 -0.992949 0)
(0.000304618 -0.99342 0)
(0.000282712 -0.993833 0)
(0.000268695 -0.994207 0)
(0.000260836 -0.994555 0)
(0.000257741 -0.994888 0)
(0.000258449 -0.995214 0)
(0.000262277 -0.995539 0)
(0.000269043 -0.995866 0)
(0.000278555 -0.996201 0)
(0.000290775 -0.996546 0)
(0.000305689 -0.996906 0)
(0.00032304 -0.997285 0)
(0.000342011 -0.997685 0)
(0.000360557 -0.998111 0)
(0.000373693 -0.99857 0)
(0.000369239 -0.999048 0)
(0.000299582 -0.999472 0)
(7.47731e-05 -0.99976 0)
(0.000623328 -0.999119 0)
(0.000509143 -0.999367 0)
(0.000426546 -0.999541 0)
(0.000369194 -0.999662 0)
(0.000330945 -0.999748 0)
(0.000306925 -0.99981 0)
(0.00029317 -0.999857 0)
(0.000286862 -0.999893 0)
(0.000285617 -0.999923 0)
(0.000289378 -0.99995 0)
(0.000297461 -0.999975 0)
(0.000309435 -1 0)
(0.000325044 -1.00003 0)
(0.000343884 -1.00006 0)
(0.000365127 -1.00008 0)
(0.000386641 -1.00011 0)
(0.000401185 -1.00014 0)
(0.000407008 -1.00016 0)
(0.000359757 -1.00013 0)
(0.000193943 -1.00003 0)
(0.000811167 -1.00106 0)
(0.000628898 -1.0012 0)
(0.000498559 -1.00127 0)
(0.000408597 -1.00129 0)
(0.000348285 -1.00128 0)
(0.000309088 -1.00125 0)
(0.000284678 -1.00121 0)
(0.000271758 -1.00115 0)
(0.000265486 -1.00109 0)
(0.000265543 -1.00102 0)
(0.000270555 -1.00095 0)
(0.000279642 -1.00087 0)
(0.000292358 -1.00079 0)
(0.000308122 -1.0007 0)
(0.000324376 -1.00061 0)
(0.000334343 -1.00051 0)
(0.00033924 -1.0004 0)
(0.000329213 -1.00027 0)
(0.000273517 -1.00013 0)
(0.000132566 -1.00002 0)
(0.000929429 -1.00199 0)
(0.000682382 -1.00205 0)
(0.000508649 -1.00205 0)
(0.000390773 -1.00201 0)
(0.00031095 -1.00195 0)
(0.000258659 -1.00187 0)
(0.000224827 -1.00178 0)
(0.000204169 -1.00168 0)
(0.000193066 -1.00157 0)
(0.000188667 -1.00146 0)
(0.000189212 -1.00134 0)
(0.000193601 -1.00121 0)
(0.00020104 -1.00108 0)
(0.000210565 -1.00093 0)
(0.000220177 -1.00078 0)
(0.000226373 -1.00062 0)
(0.000226527 -1.00045 0)
(0.000210624 -1.00027 0)
(0.000162635 -1.00011 0)
(6.84693e-05 -1.00002 0)
(0.000985006 -1.00252 0)
(0.000680671 -1.0025 0)
(0.000471837 -1.00244 0)
(0.000328689 -1.00235 0)
(0.000234935 -1.00225 0)
(0.000175988 -1.00214 0)
(0.000135256 -1.00202 0)
(0.00010891 -1.0019 0)
(9.22836e-05 -1.00177 0)
(8.23269e-05 -1.00163 0)
(7.69546e-05 -1.00149 0)
(7.48366e-05 -1.00134 0)
(7.50584e-05 -1.00118 0)
(7.68313e-05 -1.00101 0)
(7.90749e-05 -1.00083 0)
(8.02403e-05 -1.00065 0)
(7.89464e-05 -1.00046 0)
(7.19034e-05 -1.00027 0)
(5.36752e-05 -1.0001 0)
(2.12267e-05 -1.00001 0)
(0.000956666 -1.00281 0)
(0.0006105 -1.00268 0)
(0.000386965 -1.00256 0)
(0.000237747 -1.00243 0)
(0.000139981 -1.0023 0)
(7.52349e-05 -1.00217 0)
(3.13885e-05 -1.00204 0)
(1.58971e-06 -1.00191 0)
(-1.90557e-05 -1.00178 0)
(-3.38119e-05 -1.00164 0)
(-4.48849e-05 -1.00149 0)
(-5.37079e-05 -1.00134 0)
(-6.11821e-05 -1.00118 0)
(-6.7734e-05 -1.00101 0)
(-7.30998e-05 -1.00083 0)
(-7.63377e-05 -1.00065 0)
(-7.64748e-05 -1.00046 0)
(-7.04274e-05 -1.00027 0)
(-5.29097e-05 -1.0001 0)
(-2.09762e-05 -1.00001 0)
(0.000824852 -1.00283 0)
(0.000484824 -1.00259 0)
(0.000259732 -1.00241 0)
(0.000122235 -1.00225 0)
(3.03846e-05 -1.0021 0)
(-3.21102e-05 -1.00197 0)
(-7.4423e-05 -1.00185 0)
(-0.000104537 -1.00172 0)
(-0.000126993 -1.0016 0)
(-0.000144854 -1.00148 0)
(-0.00016023 -1.00135 0)
(-0.000174512 -1.00122 0)
(-0.000188511 -1.00108 0)
(-0.000202355 -1.00094 0)
(-0.000214778 -1.00078 0)
(-0.000222846 -1.00062 0)
(-0.000224315 -1.00045 0)
(-0.000209319 -1.00028 0)
(-0.000161988 -1.00011 0)
(-6.82583e-05 -1.00002 0)
(0.000540322 -1.00242 0)
(0.000289746 -1.00204 0)
(0.000101454 -1.00183 0)
(-5.0383e-06 -1.00165 0)
(-7.84786e-05 -1.00152 0)
(-0.000128871 -1.00141 0)
(-0.000164773 -1.00131 0)
(-0.000191453 -1.00122 0)
(-0.000212561 -1.00114 0)
(-0.000230636 -1.00105 0)
(-0.000247503 -1.00097 0)
(-0.000264469 -1.00089 0)
(-0.00028243 -1.0008 0)
(-0.000301678 -1.00071 0)
(-0.000320101 -1.00061 0)
(-0.000331467 -1.00051 0)
(-0.00033745 -1.0004 0)
(-0.000328187 -1.00027 0)
(-0.000273058 -1.00013 0)
(-0.000132429 -1.00002 0)
(2.73152e-05 -1.00117 0)
(8.28904e-05 -1.0004 0)
(-4.23095e-05 -1.00025 0)
(-0.000102355 -1.00012 0)
(-0.000151449 -1.00005 0)
(-0.000186387 -1.00001 0)
(-0.000212478 -0.999991 0)
(-0.000232912 -0.999982 0)
(-0.000250181 -0.999981 0)
(-0.000266116 -0.999988 0)
(-0.000282133 -1 0)
(-0.00029932 -1.00002 0)
(-0.000318389 -1.00004 0)
(-0.000339523 -1.00006 0)
(-0.000362292 -1.00009 0)
(-0.000384828 -1.00012 0)
(-0.000399997 -1.00014 0)
(-0.000406114 -1.00016 0)
(-0.000359693 -1.00013 0)
(-0.000193912 -1.00003 0)
(-0.000359379 -0.996943 0)
(-5.14496e-05 -0.994132 0)
(-0.000150553 -0.99424 0)
(-0.000169078 -0.994394 0)
(-0.000189701 -0.994581 0)
(-0.000207025 -0.994804 0)
(-0.000221417 -0.995053 0)
(-0.000234079 -0.995322 0)
(-0.000246065 -0.995609 0)
(-0.000258258 -0.995912 0)
(-0.000271386 -0.99623 0)
(-0.000286036 -0.996565 0)
(-0.00030257 -0.996918 0)
(-0.000320948 -0.997292 0)
(-0.00034059 -0.997689 0)
(-0.000359636 -0.998114 0)
(-0.000373128 -0.998571 0)
(-0.000368961 -0.999048 0)
(-0.000299555 -0.999472 0)
(-7.47627e-05 -0.99976 0)
(0.000723686 -0.988748 0)
(0.000614055 -0.989941 0)
(0.000520132 -0.990926 0)
(0.00044174 -0.991734 0)
(0.0014603 -0.996757 0)
(0.00119517 -0.997617 0)
(0.000967245 -0.998278 0)
(0.000775461 -0.998768 0)
(0.00217949 -0.999139 0)
(0.0017488 -0.999886 0)
(0.00137542 -1.00044 0)
(0.00105931 -1.00082 0)
(0.00283112 -1.00035 0)
(0.0022407 -1.00103 0)
(0.00172313 -1.00153 0)
(0.00127716 -1.00183 0)
(0.00342913 -1.0011 0)
(0.00268743 -1.00174 0)
(0.00202828 -1.0022 0)
(0.00143927 -1.00245 0)
(0.00401512 -1.00149 0)
(0.00313049 -1.00215 0)
(0.00232521 -1.00261 0)
(0.00155215 -1.00282 0)
(0.00472528 -1.00129 0)
(0.00363872 -1.00212 0)
(0.00261638 -1.00274 0)
(0.00159289 -1.00298 0)
(0.00561715 -0.999473 0)
(0.00406383 -1.00106 0)
(0.00284505 -1.00221 0)
(0.00175763 -1.00273 0)
(0.00592363 -0.99135 0)
(0.00442859 -0.995531 0)
(0.00380972 -0.998579 0)
(0.00303843 -1.00076 0)
(0.0231431 -0.932979 0)
(0.020391 -0.949114 0)
(0.0170197 -0.964122 0)
(0.00959021 -0.982492 0)
(-0.0256803 0.0123388 0)
(-0.0207116 0.0439255 0)
(-0.00551546 0.0436835 0)
(0.00781609 0.0252198 0)
(0.0195516 -0.0130818 0)
(0.0324891 -0.0767726 0)
(0.0396808 -0.16603 0)
(0.0391146 -0.251249 0)
(0.0356468 -0.327701 0)
(0.0325208 -0.398402 0)
(0.0297841 -0.463274 0)
(0.0272802 -0.5228 0)
(0.0249682 -0.577364 0)
(0.0228036 -0.627279 0)
(0.0207568 -0.672795 0)
(0.0188091 -0.71412 0)
(0.0169512 -0.751441 0)
(0.0151815 -0.784939 0)
(0.0135035 -0.814807 0)
(0.011924 -0.841246 0)
(0.010453 -0.864475 0)
(0.00911007 -0.884749 0)
(0.00789366 -0.902317 0)
(0.00679096 -0.917428 0)
(0.00580261 -0.93033 0)
(0.00492648 -0.94127 0)
(0.00415845 -0.950483 0)
(0.00349284 -0.958195 0)
(0.00292276 -0.96462 0)
(0.00243907 -0.969953 0)
(0.00203056 -0.974366 0)
(0.00169374 -0.978009 0)
(0.00141817 -0.981019 0)
(0.00119214 -0.983513 0)
(0.00100643 -0.985585 0)
(0.00085258 -0.987311 0)
(-0.0447035 0.00143009 0)
(-0.010112 0.0217814 0)
(0.0198248 0.00491 0)
(0.043865 -0.0420671 0)
(0.0700536 -0.112837 0)
(0.0904187 -0.193214 0)
(0.0963837 -0.270144 0)
(0.0918086 -0.334135 0)
(0.0848759 -0.398174 0)
(0.0782563 -0.458975 0)
(0.0720369 -0.516017 0)
(0.066243 -0.569234 0)
(0.0608022 -0.618627 0)
(0.0556446 -0.664246 0)
(0.0507183 -0.706149 0)
(0.0459942 -0.744401 0)
(0.0414633 -0.779082 0)
(0.0371327 -0.810294 0)
(0.03302 -0.838165 0)
(0.0291479 -0.862852 0)
(0.0255376 -0.884538 0)
(0.0222039 -0.903426 0)
(0.0191564 -0.919724 0)
(0.0164017 -0.933672 0)
(0.0139399 -0.945514 0)
(0.0117644 -0.955489 0)
(0.00986343 -0.96383 0)
(0.00822104 -0.970753 0)
(0.00681872 -0.976467 0)
(0.00563527 -0.981153 0)
(0.00464028 -0.984942 0)
(0.00381606 -0.988056 0)
(0.0031449 -0.990584 0)
(0.00259572 -0.992643 0)
(0.00214509 -0.994315 0)
(0.00177226 -0.995669 0)
(-0.0508829 -0.0147704 0)
(0.0127168 -0.0120035 0)
(0.056003 -0.0534471 0)
(0.0952902 -0.116611 0)
(0.128102 -0.188775 0)
(0.145692 -0.256627 0)
(0.147129 -0.316835 0)
(0.140588 -0.373486 0)
(0.132278 -0.430449 0)
(0.123465 -0.485279 0)
(0.11472 -0.537815 0)
(0.106249 -0.587609 0)
(0.0980533 -0.634407 0)
(0.0901026 -0.678036 0)
(0.0823696 -0.718388 0)
(0.0748493 -0.755404 0)
(0.0675596 -0.789074 0)
(0.0605368 -0.819433 0)
(0.0538282 -0.846562 0)
(0.0474844 -0.870585 0)
(0.0415514 -0.891662 0)
(0.0360658 -0.909989 0)
(0.0310531 -0.925781 0)
(0.0265267 -0.939272 0)
(0.0224867 -0.950699 0)
(0.0189215 -0.960295 0)
(0.0158105 -0.968289 0)
(0.0131253 -0.974894 0)
(0.0108325 -0.980313 0)
(0.00889863 -0.984731 0)
(0.00729254 -0.988314 0)
(0.00597049 -0.991212 0)
(0.00488888 -0.993549 0)
(0.00400681 -0.995436 0)
(0.00328342 -0.996956 0)
(0.00268355 -0.998174 0)
(-0.0273456 -0.0288853 0)
(0.0442258 -0.0483715 0)
(0.101406 -0.104252 0)
(0.149437 -0.170386 0)
(0.180995 -0.234523 0)
(0.193321 -0.291207 0)
(0.191919 -0.343894 0)
(0.184816 -0.396611 0)
(0.175698 -0.449207 0)
(0.165478 -0.500598 0)
(0.154923 -0.550424 0)
(0.144327 -0.598142 0)
(0.133795 -0.643381 0)
(0.123363 -0.685846 0)
(0.113055 -0.725327 0)
(0.102911 -0.761681 0)
(0.0929917 -0.794831 0)
(0.0833743 -0.824762 0)
(0.0741454 -0.851521 0)
(0.0653911 -0.875209 0)
(0.0571875 -0.895974 0)
(0.0495948 -0.914005 0)
(0.0426545 -0.929516 0)
(0.0363874 -0.942738 0)
(0.0307948 -0.953908 0)
(0.0258619 -0.96326 0)
(0.0215606 -0.971021 0)
(0.0178526 -0.977409 0)
(0.0146917 -0.982624 0)
(0.0120293 -0.98685 0)
(0.00981615 -0.990253 0)
(0.00799911 -0.992983 0)
(0.00652026 -0.995171 0)
(0.00531893 -0.996928 0)
(0.00433583 -0.99834 0)
(0.00351952 -0.999466 0)
(0.00516672 -0.0405119 0)
(0.0855912 -0.0770127 0)
(0.150739 -0.139383 0)
(0.199484 -0.203139 0)
(0.226328 -0.260026 0)
(0.234838 -0.311154 0)
(0.232685 -0.360932 0)
(0.225683 -0.411179 0)
(0.216128 -0.461217 0)
(0.205048 -0.510534 0)
(0.193205 -0.558648 0)
(0.180947 -0.605037 0)
(0.168454 -0.649279 0)
(0.155832 -0.691019 0)
(0.143165 -0.729977 0)
(0.130549 -0.765946 0)
(0.1181 -0.798798 0)
(0.10595 -0.828477 0)
(0.094237 -0.855003 0)
(0.0830912 -0.878464 0)
(0.0726269 -0.899004 0)
(0.0629328 -0.91681 0)
(0.0540688 -0.932102 0)
(0.0460654 -0.945114 0)
(0.0389259 -0.956085 0)
(0.0326315 -0.965251 0)
(0.0271465 -0.972841 0)
(0.022422 -0.97907 0)
(0.0183999 -0.984139 0)
(0.0150169 -0.988227 0)
(0.0122089 -0.991499 0)
(0.00991016 -0.994105 0)
(0.00804865 -0.996185 0)
(0.00654359 -0.997853 0)
(0.00531515 -0.999193 0)
(0.00429362 -1.00026 0)
(0.0494084 -0.0467894 0)
(0.134493 -0.095759 0)
(0.200777 -0.160637 0)
(0.245525 -0.220831 0)
(0.267611 -0.273501 0)
(0.274063 -0.322595 0)
(0.271882 -0.371231 0)
(0.264993 -0.420055 0)
(0.25515 -0.468654 0)
(0.243429 -0.516697 0)
(0.230537 -0.563726 0)
(0.216851 -0.60926 0)
(0.2026 -0.652859 0)
(0.187943 -0.694128 0)
(0.173023 -0.732735 0)
(0.157997 -0.768421 0)
(0.143048 -0.801017 0)
(0.128371 -0.830442 0)
(0.114168 -0.856705 0)
(0.100622 -0.879895 0)
(0.087892 -0.900167 0)
(0.0760974 -0.917722 0)
(0.0653174 -0.932793 0)
(0.0555906 -0.945625 0)
(0.0469199 -0.956461 0)
(0.0392802 -0.965539 0)
(0.0326264 -0.973079 0)
(0.0268994 -0.979288 0)
(0.022027 -0.984358 0)
(0.0179299 -0.988461 0)
(0.0145304 -0.991749 0)
(0.011753 -0.994371 0)
(0.00951657 -0.99647 0)
(0.00771935 -0.998164 0)
(0.00625886 -0.999536 0)
(0.00504515 -1.00064 0)
(0.101368 -0.0504225 0)
(0.187702 -0.105946 0)
(0.250074 -0.171441 0)
(0.289314 -0.228794 0)
(0.30759 -0.279705 0)
(0.312806 -0.328353 0)
(0.310522 -0.376548 0)
(0.303554 -0.424622 0)
(0.293418 -0.472405 0)
(0.281115 -0.519656 0)
(0.26728 -0.565975 0)
(0.252289 -0.610918 0)
(0.236388 -0.654029 0)
(0.219772 -0.694877 0)
(0.202637 -0.733081 0)
(0.18521 -0.768345 0)
(0.167748 -0.800471 0)
(0.150525 -0.829374 0)
(0.133817 -0.855077 0)
(0.11787 -0.8777 0)
(0.102891 -0.897437 0)
(0.089031 -0.914531 0)
(0.0763839 -0.929248 0)
(0.064991 -0.941859 0)
(0.0548481 -0.95262 0)
(0.0459172 -0.961761 0)
(0.0381401 -0.969487 0)
(0.0314438 -0.975979 0)
(0.0257365 -0.9814 0)
(0.0209263 -0.985897 0)
(0.016927 -0.989591 0)
(0.0136638 -0.992606 0)
(0.0110639 -0.995079 0)
(0.00899847 -0.997129 0)
(0.00732928 -0.99883 0)
(0.00593661 -1.00021 0)
(0.161441 -0.0533289 0)
(0.241953 -0.110393 0)
(0.298269 -0.175164 0)
(0.332044 -0.230723 0)
(0.347308 -0.281194 0)
(0.35149 -0.329931 0)
(0.348882 -0.377951 0)
(0.341672 -0.425611 0)
(0.331188 -0.47288 0)
(0.318306 -0.519569 0)
(0.303571 -0.565325 0)
(0.287318 -0.609708 0)
(0.269789 -0.652231 0)
(0.251203 -0.692414 0)
(0.23181 -0.729823 0)
(0.211915 -0.764124 0)
(0.191867 -0.795108 0)
(0.172042 -0.822714 0)
(0.152803 -0.847018 0)
(0.134474 -0.86822 0)
(0.117312 -0.886605 0)
(0.101496 -0.90251 0)
(0.0871265 -0.916286 0)
(0.0742357 -0.928271 0)
(0.0627966 -0.938765 0)
(0.0527418 -0.948016 0)
(0.0439824 -0.956219 0)
(0.0364276 -0.963515 0)
(0.0300129 -0.969954 0)
(0.0246099 -0.97565 0)
(0.0200835 -0.980635 0)
(0.0163785 -0.98496 0)
(0.0134276 -0.988723 0)
(0.0110499 -0.99205 0)
(0.00904267 -0.994967 0)
(0.00727004 -0.997452 0)
(0.224595 -0.054457 0)
(0.295504 -0.110684 0)
(0.345419 -0.174331 0)
(0.374306 -0.228883 0)
(0.387054 -0.279351 0)
(0.390181 -0.328218 0)
(0.387058 -0.376099 0)
(0.379478 -0.423431 0)
(0.368571 -0.470247 0)
(0.355062 -0.516378 0)
(0.339384 -0.561467 0)
(0.321807 -0.605036 0)
(0.302543 -0.646526 0)
(0.281831 -0.685367 0)
(0.259985 -0.721048 0)
(0.237408 -0.753183 0)
(0.214576 -0.781561 0)
(0.191994 -0.806173 0)
(0.170148 -0.827199 0)
(0.149453 -0.844978 0)
(0.130228 -0.859961 0)
(0.112679 -0.872653 0)
(0.0969002 -0.883567 0)
(0.0828916 -0.893191 0)
(0.0705759 -0.901955 0)
(0.0598207 -0.910212 0)
(0.0504634 -0.918238 0)
(0.0423331 -0.926239 0)
(0.035258 -0.934337 0)
(0.0291382 -0.942422 0)
(0.0239993 -0.950324 0)
(0.0196822 -0.958016 0)
(0.0160978 -0.965495 0)
(0.0129537 -0.972796 0)
(0.0101956 -0.979706 0)
(0.00785589 -0.985971 0)
(0.285088 -0.0533427 0)
(0.347979 -0.108048 0)
(0.391739 -0.170656 0)
(0.416309 -0.224569 0)
(0.426852 -0.274978 0)
(0.428843 -0.323793 0)
(0.425046 -0.371412 0)
(0.416966 -0.418313 0)
(0.405521 -0.464533 0)
(0.391257 -0.509874 0)
(0.374472 -0.553915 0)
(0.355338 -0.596063 0)
(0.334023 -0.635617 0)
(0.310783 -0.671852 0)
(0.286015 -0.704127 0)
(0.260261 -0.731982 0)
(0.234174 -0.755211 0)
(0.20844 -0.773888 0)
(0.183708 -0.788344 0)
(0.160517 -0.799103 0)
(0.139261 -0.80681 0)
(0.120172 -0.812154 0)
(0.103339 -0.815808 0)
(0.0887285 -0.818397 0)
(0.076224 -0.820479 0)
(0.0656543 -0.82254 0)
(0.0568227 -0.825008 0)
(0.0495194 -0.828314 0)
(0.0435066 -0.83292 0)
(0.0384629 -0.83921 0)
(0.034156 -0.84736 0)
(0.0304545 -0.857494 0)
(0.0280476 -0.869319 0)
(0.0268428 -0.883018 0)
(0.025946 -0.898416 0)
(0.0248708 -0.915228 0)
(0.00594808 -0.351668 0)
(-0.00426608 -0.282717 0)
(-0.024231 -0.214229 0)
(-0.0401034 -0.153106 0)
(-0.0510083 -0.0641386 0)
(-0.0561754 -0.0248925 0)
(-0.0722678 0.0068497 0)
(-0.11765 0.0121771 0)
(-0.0689853 -0.00871394 0)
(-0.0735258 0.00397703 0)
(-0.0823142 0.0129086 0)
(-0.0985973 0.00835146 0)
(-0.076822 -0.00505315 0)
(-0.0792503 0.000769198 0)
(-0.0841169 0.00503395 0)
(-0.0917018 0.00239576 0)
(-0.080916 -0.00636915 0)
(-0.0829407 -0.0019963 0)
(-0.0858783 0.0012147 0)
(-0.0890955 0.00108118 0)
(-0.0846825 -0.00731075 0)
(-0.0860595 -0.00351346 0)
(-0.0876266 -0.000707862 0)
(-0.0884591 0.000162026 0)
(-0.0880319 -0.00742764 0)
(-0.0887871 -0.00404838 0)
(-0.0894029 -0.00154044 0)
(-0.088813 -0.000177334 0)
(-0.0910217 -0.0068358 0)
(-0.0911855 -0.00387343 0)
(-0.0910738 -0.00170652 0)
(-0.089554 -0.000290515 0)
(-0.0936456 -0.00568602 0)
(-0.0932287 -0.0031772 0)
(-0.0925042 -0.00142806 0)
(-0.0903172 -0.000173902 0)
(-0.0958733 -0.00408872 0)
(-0.0948694 -0.00208181 0)
(-0.0935873 -0.000835249 0)
(-0.0908519 0.000141557 0)
(-0.0976666 -0.00211707 0)
(-0.0960533 -0.000665718 0)
(-0.0942278 -2.18234e-06 0)
(-0.0909891 0.000563159 0)
(-0.0989859 0.00018291 0)
(-0.0967233 0.00102353 0)
(-0.094335 0.00103119 0)
(-0.0906036 0.00108273 0)
(-0.0997907 0.00278186 0)
(-0.096821 0.00295566 0)
(-0.0938251 0.00223669 0)
(-0.0895879 0.00163866 0)
(-0.100041 0.00565999 0)
(-0.0962933 0.00511442 0)
(-0.0926279 0.00359844 0)
(-0.0878446 0.00236568 0)
(-0.0996996 0.00880291 0)
(-0.0950907 0.00748574 0)
(-0.0906819 0.00510904 0)
(-0.0852796 0.00319618 0)
(-0.098728 0.0121997 0)
(-0.0931636 0.0100603 0)
(-0.0879212 0.00676843 0)
(-0.0818055 0.00412681 0)
(-0.0970911 0.0158387 0)
(-0.0904653 0.0128289 0)
(-0.084284 0.00857654 0)
(-0.0773363 0.00517216 0)
(-0.0947555 0.0197031 0)
(-0.0869533 0.0157776 0)
(-0.0797142 0.0105306 0)
(-0.0717816 0.00634356 0)
(-0.0916902 0.0237667 0)
(-0.0825903 0.0188826 0)
(-0.0741648 0.0126211 0)
(-0.0650501 0.00764855 0)
(-0.0878671 0.0279873 0)
(-0.0773477 0.0221027 0)
(-0.0676114 0.0148248 0)
(-0.0570821 0.00908042 0)
(-0.0832541 0.032297 0)
(-0.0711995 0.0253654 0)
(-0.0600582 0.0170858 0)
(-0.0479009 0.0105851 0)
(-0.0777963 0.0365902 0)
(-0.0640939 0.0285484 0)
(-0.0514864 0.0192702 0)
(-0.0374716 0.0119664 0)
(-0.0714243 0.0407134 0)
(-0.0559494 0.0314901 0)
(-0.0418012 0.0211602 0)
(-0.02546 0.0128088 0)
(-0.064153 0.0444655 0)
(-0.0467533 0.0340865 0)
(-0.0310195 0.0227929 0)
(-0.0135428 0.0134917 0)
(-0.0557078 0.0479416 0)
(-0.0364373 0.0363411 0)
(-0.0191833 0.0242564 0)
(-0.000905883 0.0144148 0)
(-0.0460144 0.0514457 0)
(-0.0252106 0.0384429 0)
(-0.00658219 0.0255186 0)
(0.0123144 0.0147664 0)
(-0.0352483 0.0547919 0)
(-0.0130496 0.0404423 0)
(0.00676435 0.0264557 0)
(0.0264195 0.0146802 0)
(-0.0235598 0.0575075 0)
(1.4792e-05 0.0422087 0)
(0.0206498 0.0272855 0)
(0.0407956 0.0150506 0)
(-0.011156 0.0591931 0)
(0.0136197 0.0433169 0)
(0.0349365 0.0277824 0)
(0.0569087 0.0154669 0)
(0.00177509 0.0596024 0)
(0.0274891 0.0434697 0)
(0.0493637 0.0275933 0)
(0.0726212 0.0152721 0)
(0.0149984 0.0586063 0)
(0.0413664 0.0426464 0)
(0.0637298 0.0268503 0)
(0.0880901 0.0146523 0)
(0.0281636 0.0561783 0)
(0.0548444 0.0408761 0)
(0.0777076 0.0256727 0)
(0.103164 0.0138138 0)
(0.0408256 0.0524995 0)
(0.067481 0.0382415 0)
(0.090951 0.0240434 0)
(0.117473 0.0128188 0)
(0.0524891 0.0478681 0)
(0.0790844 0.0349982 0)
(0.103245 0.0219332 0)
(0.130725 0.0116825 0)
(0.0627084 0.0423837 0)
(0.0894727 0.0312906 0)
(0.114365 0.0194652 0)
(0.142688 0.0104358 0)
(0.0714199 0.0364121 0)
(0.0985352 0.0270855 0)
(0.12414 0.0167292 0)
(0.153188 0.00910874 0)
(0.0787249 0.0303088 0)
(0.106173 0.0226066 0)
(0.132435 0.0138572 0)
(0.162106 0.00774514 0)
(0.0846772 0.0241908 0)
(0.112369 0.0180772 0)
(0.139198 0.0109807 0)
(0.169389 0.00639675 0)
(0.0893028 0.0182853 0)
(0.117161 0.0136886 0)
(0.144451 0.00821257 0)
(0.17506 0.00508341 0)
(0.0927068 0.0127362 0)
(0.12064 0.00955621 0)
(0.148275 0.00562034 0)
(0.17919 0.00379113 0)
(0.0949916 0.00761283 0)
(0.122906 0.00573891 0)
(0.150777 0.00322698 0)
(0.181881 0.0026606 0)
(0.0962503 0.00291849 0)
(0.124055 0.00224679 0)
(0.152055 0.00102797 0)
(0.183256 0.00171799 0)
(0.0965648 -0.00138325 0)
(0.124182 -0.000953599 0)
(0.152239 -0.000995532 0)
(0.18341 0.000717142 0)
(0.0960085 -0.00534012 0)
(0.12338 -0.00390556 0)
(0.151476 -0.00286518 0)
(0.182398 -0.000252106 0)
(0.0946521 -0.00900295 0)
(0.121735 -0.00665406 0)
(0.149851 -0.00461316 0)
(0.180271 -0.00124167 0)
(0.0925619 -0.0124252 0)
(0.119322 -0.00924186 0)
(0.147418 -0.00627902 0)
(0.177085 -0.00206863 0)
(0.0897996 -0.0156674 0)
(0.116207 -0.0117241 0)
(0.144221 -0.00790592 0)
(0.172887 -0.00289721 0)
(0.0864247 -0.0187968 0)
(0.112448 -0.0141641 0)
(0.140298 -0.00954364 0)
(0.167676 -0.00373047 0)
(0.082497 -0.0218897 0)
(0.108101 -0.0166373 0)
(0.135669 -0.0112543 0)
(0.161416 -0.00459086 0)
(0.0780794 -0.0250374 0)
(0.103215 -0.0192368 0)
(0.130333 -0.0131154 0)
(0.154025 -0.00551496 0)
(0.073243 -0.0283516 0)
(0.0978351 -0.02208 0)
(0.12426 -0.0152209 0)
(0.145373 -0.00654806 0)
(0.0680735 -0.0319695 0)
(0.0920047 -0.0253105 0)
(0.117385 -0.0176795 0)
(0.135263 -0.00774061 0)
(0.0626761 -0.0360548 0)
(0.085759 -0.0290908 0)
(0.109593 -0.0206002 0)
(0.123435 -0.00913962 0)
(0.0571751 -0.040785 0)
(0.0791114 -0.033571 0)
(0.100706 -0.0240556 0)
(0.109582 -0.0107679 0)
(0.0517015 -0.0462989 0)
(0.0720226 -0.038805 0)
(0.0904729 -0.0279961 0)
(0.0934083 -0.0125763 0)
(0.0463493 -0.0525605 0)
(0.064332 -0.0445688 0)
(0.0785624 -0.0320843 0)
(0.0747347 -0.0143605 0)
(0.0410945 -0.0590935 0)
(0.0556975 -0.0500378 0)
(0.0646965 -0.0353614 0)
(0.0538125 -0.0154218 0)
(0.0354089 -0.064496 0)
(0.0454469 -0.053172 0)
(0.0482423 -0.0356533 0)
(0.0311208 -0.0141564 0)
(0.0283187 -0.066313 0)
(0.0316016 -0.050526 0)
(0.0278095 -0.0302379 0)
(0.0101731 -0.00966063 0)
(0.0153104 -0.0726248 0)
(0.0167231 -0.0374592 0)
(0.0103537 -0.0187104 0)
(0.000501531 -0.00279552 0)
(0.345877 -0.0508736 0)
(0.400896 -0.103632 0)
(0.438687 -0.165016 0)
(0.459298 -0.21831 0)
(0.467736 -0.268376 0)
(0.468477 -0.316796 0)
(0.463849 -0.363889 0)
(0.455101 -0.410079 0)
(0.442917 -0.455344 0)
(0.427626 -0.499391 0)
(0.409341 -0.54164 0)
(0.388103 -0.581288 0)
(0.364016 -0.617387 0)
(0.337365 -0.648985 0)
(0.308678 -0.675278 0)
(0.278715 -0.69576 0)
(0.248388 -0.710305 0)
(0.218643 -0.719176 0)
(0.190334 -0.722942 0)
(0.164135 -0.722365 0)
(0.140491 -0.718268 0)
(0.119621 -0.711429 0)
(0.101558 -0.702515 0)
(0.0861891 -0.69204 0)
(0.0733094 -0.680352 0)
(0.0626572 -0.667633 0)
(0.0539382 -0.653907 0)
(0.0468923 -0.639067 0)
(0.0415852 -0.622753 0)
(0.0373368 -0.604461 0)
(0.0338642 -0.583713 0)
(0.0308629 -0.559844 0)
(0.0279922 -0.531931 0)
(0.024655 -0.498393 0)
(0.0198943 -0.45796 0)
(0.0131914 -0.409874 0)
(0.405133 -0.0478664 0)
(0.453849 -0.0983443 0)
(0.486093 -0.158102 0)
(0.503076 -0.210475 0)
(0.509368 -0.259783 0)
(0.508755 -0.307379 0)
(0.503137 -0.353547 0)
(0.493491 -0.398575 0)
(0.480233 -0.442309 0)
(0.463422 -0.484264 0)
(0.44293 -0.5236 0)
(0.418621 -0.559194 0)
(0.390539 -0.589786 0)
(0.359061 -0.614194 0)
(0.324963 -0.631557 0)
(0.289363 -0.641514 0)
(0.253559 -0.644262 0)
(0.218825 -0.640477 0)
(0.186227 -0.631139 0)
(0.156514 -0.61733 0)
(0.130088 -0.600068 0)
(0.10705 -0.580195 0)
(0.0872662 -0.558331 0)
(0.0704459 -0.534865 0)
(0.0562105 -0.509978 0)
(0.0441347 -0.483676 0)
(0.0337626 -0.455832 0)
(0.0246232 -0.426223 0)
(0.0162712 -0.394523 0)
(0.00826899 -0.360315 0)
(0.000336609 -0.323542 0)
(-0.00784765 -0.284121 0)
(-0.0165339 -0.241962 0)
(-0.025815 -0.197185 0)
(-0.0359019 -0.151039 0)
(-0.0450494 -0.106971 0)
(0.461552 -0.0448801 0)
(0.504658 -0.092942 0)
(0.532262 -0.15056 0)
(0.54595 -0.201542 0)
(0.550162 -0.249627 0)
(0.548133 -0.295989 0)
(0.541352 -0.340768 0)
(0.530504 -0.384093 0)
(0.515692 -0.425602 0)
(0.496649 -0.464531 0)
(0.472953 -0.499694 0)
(0.444291 -0.529619 0)
(0.410721 -0.552785 0)
(0.372868 -0.567964 0)
(0.331957 -0.574524 0)
(0.289644 -0.572585 0)
(0.247715 -0.562951 0)
(0.207771 -0.546886 0)
(0.171004 -0.525825 0)
(0.138116 -0.501132 0)
(0.109345 -0.473938 0)
(0.0845739 -0.445084 0)
(0.0634427 -0.415117 0)
(0.0454626 -0.38435 0)
(0.0300994 -0.352922 0)
(0.0168282 -0.320877 0)
(0.0051867 -0.288255 0)
(-0.00517513 -0.255205 0)
(-0.014559 -0.221907 0)
(-0.0232715 -0.188644 0)
(-0.0314998 -0.155755 0)
(-0.0392459 -0.123828 0)
(-0.04683 -0.0938735 0)
(-0.0537367 -0.0676087 0)
(-0.0592463 -0.0447229 0)
(-0.0643934 -0.0252702 0)
(0.514696 -0.0418956 0)
(0.553047 -0.0876224 0)
(0.576771 -0.142672 0)
(0.587472 -0.191713 0)
(0.589731 -0.238183 0)
(0.586202 -0.282853 0)
(0.578026 -0.325744 0)
(0.565566 -0.366768 0)
(0.54855 -0.405294 0)
(0.526331 -0.440221 0)
(0.49819 -0.470008 0)
(0.463709 -0.492905 0)
(0.423145 -0.507343 0)
(0.377625 -0.51237 0)
(0.329057 -0.507935 0)
(0.279761 -0.494899 0)
(0.231997 -0.474773 0)
(0.187571 -0.449349 0)
(0.147631 -0.420362 0)
(0.112674 -0.389273 0)
(0.0826616 -0.357184 0)
(0.0572003 -0.324846 0)
(0.0357158 -0.292736 0)
(0.0175929 -0.26116 0)
(0.00226859 -0.230369 0)
(-0.0107079 -0.200667 0)
(-0.0217713 -0.172353 0)
(-0.0313287 -0.145647 0)
(-0.0396714 -0.12076 0)
(-0.0470714 -0.0979307 0)
(-0.0537095 -0.0773991 0)
(-0.0591673 -0.0596836 0)
(-0.0634495 -0.0442021 0)
(-0.0676813 -0.0309536 0)
(-0.0717302 -0.0204456 0)
(-0.0747753 -0.0120072 0)
(0.564577 -0.0389507 0)
(0.598957 -0.0823377 0)
(0.619149 -0.134524 0)
(0.627313 -0.181172 0)
(0.627698 -0.225682 0)
(0.62255 -0.268208 0)
(0.612682 -0.308716 0)
(0.598088 -0.346849 0)
(0.578074 -0.381675 0)
(0.551596 -0.411758 0)
(0.517696 -0.435274 0)
(0.47604 -0.450397 0)
(0.427356 -0.45581 0)
(0.373546 -0.451164 0)
(0.317349 -0.43721 0)
(0.261734 -0.415581 0)
(0.209273 -0.388352 0)
(0.161764 -0.357611 0)
(0.120132 -0.325164 0)
(0.0845468 -0.292413 0)
(0.0546575 -0.260357 0)
(0.0298389 -0.229674 0)
(0.00939462 -0.200841 0)
(-0.0073354 -0.174265 0)
(-0.0209678 -0.150182 0)
(-0.0321191 -0.128595 0)
(-0.0413012 -0.109354 0)
(-0.048938 -0.0922192 0)
(-0.0553361 -0.0769798 0)
(-0.0607239 -0.0634636 0)
(-0.0652893 -0.0515597 0)
(-0.0692085 -0.0411388 0)
(-0.0724582 -0.0319555 0)
(-0.0750977 -0.0239382 0)
(-0.0773605 -0.0171899 0)
(-0.0792781 -0.0114364 0)
(0.611252 -0.036075 0)
(0.642228 -0.0769716 0)
(0.659215 -0.12617 0)
(0.665176 -0.170167 0)
(0.663719 -0.212327 0)
(0.656789 -0.252312 0)
(0.644871 -0.289993 0)
(0.627546 -0.324723 0)
(0.603672 -0.355282 0)
(0.571846 -0.379959 0)
(0.531029 -0.396813 0)
(0.481234 -0.404195 0)
(0.423954 -0.401332 0)
(0.362044 -0.388665 0)
(0.299077 -0.367749 0)
(0.238492 -0.340812 0)
(0.182942 -0.310232 0)
(0.134022 -0.278156 0)
(0.0923162 -0.246319 0)
(0.0576508 -0.216013 0)
(0.0294033 -0.188137 0)
(0.00676099 -0.163286 0)
(-0.0111618 -0.141797 0)
(-0.0253186 -0.123489 0)
(-0.0365989 -0.107878 0)
(-0.0457193 -0.0943162 0)
(-0.0532246 -0.0822639 0)
(-0.0594974 -0.0713425 0)
(-0.0647779 -0.0613172 0)
(-0.0692032 -0.0520619 0)
(-0.0728717 -0.0435394 0)
(-0.0759033 -0.0357637 0)
(-0.0783727 -0.0287081 0)
(-0.0803813 -0.022325 0)
(-0.0820283 -0.016676 0)
(-0.0834399 -0.0117198 0)
(0.654725 -0.0332838 0)
(0.68277 -0.0715472 0)
(0.696901 -0.117657 0)
(0.700799 -0.158832 0)
(0.697492 -0.198323 0)
(0.688589 -0.23545 0)
(0.674227 -0.269951 0)
(0.653547 -0.300907 0)
(0.624979 -0.326858 0)
(0.586872 -0.345944 0)
(0.538329 -0.356305 0)
(0.479996 -0.356713 0)
(0.41435 -0.34711 0)
(0.345243 -0.328738 0)
(0.27692 -0.303782 0)
(0.213051 -0.274799 0)
(0.156162 -0.244234 0)
(0.107526 -0.214153 0)
(0.0673604 -0.186155 0)
(0.0351467 -0.16136 0)
(0.00992922 -0.140396 0)
(-0.00951754 -0.123363 0)
(-0.0245867 -0.109597 0)
(-0.0365096 -0.0981803 0)
(-0.0462103 -0.088245 0)
(-0.054292 -0.0791928 0)
(-0.0611126 -0.0706628 0)
(-0.0668818 -0.062485 0)
(-0.0717455 -0.0546157 0)
(-0.0757829 -0.0470795 0)
(-0.0790492 -0.0398995 0)
(-0.0816273 -0.0331448 0)
(-0.0836256 -0.0268912 0)
(-0.0851577 -0.0211618 0)
(-0.0863218 -0.0160008 0)
(-0.0872536 -0.0114313 0)
(0.694994 -0.0305863 0)
(0.720518 -0.0661223 0)
(0.732073 -0.109069 0)
(0.733994 -0.14729 0)
(0.728791 -0.183886 0)
(0.717703 -0.217935 0)
(0.700498 -0.249024 0)
(0.675879 -0.276009 0)
(0.641913 -0.297279 0)
(0.59687 -0.310973 0)
(0.540247 -0.315504 0)
(0.473564 -0.310225 0)
(0.400382 -0.295825 0)
(0.325442 -0.274205 0)
(0.25343 -0.247934 0)
(0.188021 -0.219659 0)
(0.131474 -0.191729 0)
(0.0846852 -0.16603 0)
(0.0474466 -0.143902 0)
(0.0187387 -0.126009 0)
(-0.00301659 -0.11222 0)
(-0.0196748 -0.101585 0)
(-0.0328724 -0.09292 0)
(-0.043712 -0.085298 0)
(-0.05285 -0.0781486 0)
(-0.0606689 -0.0711701 0)
(-0.0673656 -0.0642319 0)
(-0.0730391 -0.0572956 0)
(-0.0777647 -0.0503965 0)
(-0.0816102 -0.0436234 0)
(-0.0846414 -0.0370517 0)
(-0.0869156 -0.0307751 0)
(-0.0885408 -0.0249031 0)
(-0.08964 -0.0195181 0)
(-0.090333 -0.0146865 0)
(-0.0907599 -0.0104526 0)
(0.732088 -0.0279901 0)
(0.75544 -0.0607541 0)
(0.764645 -0.100497 0)
(0.764641 -0.135676 0)
(0.757469 -0.169246 0)
(0.743983 -0.200094 0)
(0.723569 -0.227671 0)
(0.694525 -0.250676 0)
(0.654665 -0.267449 0)
(0.602375 -0.276274 0)
(0.537782 -0.275981 0)
(0.46343 -0.266557 0)
(0.383933 -0.249342 0)
(0.30473 -0.226685 0)
(0.230706 -0.201304 0)
(0.165363 -0.175749 0)
(0.110598 -0.152146 0)
(0.0668352 -0.132053 0)
(0.0332493 -0.116261 0)
(0.00804803 -0.104585 0)
(-0.0110424 -0.0959888 0)
(-0.0261084 -0.089149 0)
(-0.0385217 -0.0831218 0)
(-0.0490735 -0.0773534 0)
(-0.058181 -0.071546 0)
(-0.0660699 -0.0655696 0)
(-0.0728534 -0.0594078 0)
(-0.0785958 -0.0530862 0)
(-0.0833303 -0.0466698 0)
(-0.0870995 -0.0402681 0)
(-0.0899584 -0.0340012 0)
(-0.0919635 -0.0279966 0)
(-0.0932215 -0.0223815 0)
(-0.0938689 -0.0172698 0)
(-0.094055 -0.0127501 0)
(-0.0939394 -0.00887986 0)
(0.766066 -0.0255021 0)
(0.787539 -0.0554933 0)
(0.79458 -0.0920287 0)
(0.792681 -0.124136 0)
(0.783462 -0.154633 0)
(0.767385 -0.182256 0)
(0.743461 -0.206348 0)
(0.709648 -0.225531 0)
(0.663644 -0.238201 0)
(0.604151 -0.242904 0)
(0.532095 -0.238962 0)
(0.451087 -0.226947 0)
(0.36667 -0.208677 0)
(0.284762 -0.186727 0)
(0.210235 -0.163772 0)
(0.14627 -0.142129 0)
(0.0942888 -0.123558 0)
(0.0540668 -0.109064 0)
(0.0239385 -0.0986334 0)
(0.00134786 -0.0912794 0)
(-0.0162496 -0.0856759 0)
(-0.0306584 -0.0808212 0)
(-0.0429028 -0.076125 0)
(-0.053536 -0.0712852 0)
(-0.0628464 -0.0661601 0)
(-0.0709675 -0.0607021 0)
(-0.0779609 -0.0549365 0)
(-0.0838582 -0.0489245 0)
(-0.0886643 -0.0427604 0)
(-0.0923959 -0.0365697 0)
(-0.095092 -0.0304976 0)
(-0.0968158 -0.0246954 0)
(-0.0976806 -0.0193091 0)
(-0.0978401 -0.0144713 0)
(-0.0974725 -0.0102855 0)