/*--------------------------------*- C++ -*----------------------------------*\
| =========                 |                                                 |
| \\      /  F ield         | OpenFOAM: The Open Source CFD Toolbox           |
|  \\    /   O peration     | Version:  v2012                                 |
|   \\  /    A nd           | Website:  www.openfoam.com                      |
|    \\/     M anipulation  |                                                 |
\*---------------------------------------------------------------------------*/
FoamFile
{
    version     2.0;
    format      ascii;
    class       volScalarField;
    location    "662";
    object      age;
}
// * * * * * * * * * * * * * * * * * * * * * * * * * * * * * * * * * * * * * //

dimensions      [0 0 1 0 0 0 0];


internalField   nonuniform List<scalar> 
6084
(
0.490168
0.464913
0.439672
0.414444
0.389228
0.364024
0.338831
0.31365
0.28848
0.263322
0.238176
0.213043
0.187923
0.162817
0.137725
0.112648
0.0875872
0.0625426
0.0375147
0.0125027
0.487522
0.462507
0.437495
0.412487
0.38748
0.362475
0.337471
0.312468
0.287466
0.262465
0.237465
0.212465
0.187467
0.16247
0.137474
0.112478
0.0874838
0.0624897
0.0374954
0.0124994
0.486856
0.461908
0.436961
0.412013
0.387063
0.362112
0.337159
0.312203
0.287245
0.262285
0.237322
0.212355
0.187386
0.162414
0.137438
0.112459
0.0874756
0.0624881
0.037496
0.0124996
0.486599
0.461681
0.436761
0.411838
0.386912
0.361983
0.33705
0.312114
0.287173
0.262228
0.237279
0.212325
0.187366
0.162402
0.137432
0.112457
0.0874763
0.0624894
0.0374969
0.0124998
0.486495
0.461591
0.436683
0.411771
0.386856
0.361936
0.337011
0.312082
0.287148
0.262209
0.237265
0.212316
0.187361
0.1624
0.137432
0.112458
0.0874774
0.0624903
0.0374973
0.0124998
0.486484
0.461584
0.436678
0.411768
0.386854
0.361934
0.33701
0.312081
0.287148
0.262209
0.237265
0.212316
0.187361
0.1624
0.137432
0.112458
0.0874774
0.0624903
0.0374973
0.0124998
0.486567
0.461661
0.436748
0.411829
0.386907
0.361979
0.337048
0.312112
0.287172
0.262227
0.237278
0.212324
0.187366
0.162402
0.137432
0.112457
0.0874763
0.0624894
0.0374969
0.0124998
0.486807
0.461878
0.436941
0.412
0.387055
0.362107
0.337155
0.312201
0.287244
0.262284
0.237321
0.212355
0.187386
0.162414
0.137438
0.112459
0.0874756
0.0624881
0.037496
0.0124996
0.487458
0.46247
0.43747
0.41247
0.387469
0.362467
0.337466
0.312465
0.287464
0.262463
0.237464
0.212465
0.187467
0.16247
0.137473
0.112478
0.0874837
0.0624897
0.0374954
0.0124994
0.485869
0.465871
0.439407
0.41448
0.389202
0.364018
0.338824
0.313646
0.288477
0.26332
0.238175
0.213043
0.187923
0.162817
0.137725
0.112648
0.0875871
0.0625426
0.0375147
0.0125027
0.785984
0.761009
0.736149
0.711381
0.686688
0.662055
0.63747
0.612924
0.588411
0.563925
0.539462
0.515017
0.77975
0.75514
0.73063
0.706199
0.681831
0.65751
0.633227
0.608972
0.584739
0.560523
0.53632
0.512126
0.777846
0.753394
0.729027
0.704725
0.680474
0.656261
0.632078
0.607915
0.583769
0.559635
0.535509
0.511389
0.77702
0.752642
0.728342
0.704101
0.679906
0.655743
0.631606
0.607486
0.583379
0.559281
0.53519
0.511101
0.776554
0.752232
0.72798
0.703782
0.679623
0.655493
0.631384
0.60729
0.583205
0.559128
0.535054
0.510982
0.77636
0.75207
0.727846
0.703672
0.679533
0.65542
0.631325
0.607242
0.583167
0.559098
0.535031
0.510966
0.776578
0.752271
0.728029
0.703837
0.679682
0.655555
0.631447
0.607354
0.583271
0.559195
0.535123
0.511053
0.777839
0.753356
0.728953
0.704619
0.680341
0.656108
0.631915
0.607755
0.58362
0.559506
0.535405
0.511313
0.780021
0.755504
0.730984
0.706474
0.681992
0.657559
0.633182
0.608864
0.584598
0.560379
0.536191
0.512024
0.858791
0.832611
0.805119
0.776543
0.747147
0.717204
0.686889
0.656332
0.625623
0.594815
0.563804
0.532567
11.7854
12.218
12.6307
13.6547
7.50318
2.0911
1.78746
1.63067
1.52866
1.45163
1.3886
1.33449
1.28659
1.24321
1.20329
1.16605
1.13096
1.09759
1.06563
1.03483
1.00497
0.975904
0.947483
0.919597
0.892151
0.865066
0.838275
0.811724
10.9169
12.2819
13.4235
9.73844
3.46608
1.87955
1.70708
1.58248
1.49575
1.42584
1.36701
1.31562
1.26963
1.22769
1.18891
1.15262
1.11835
1.08572
1.05443
1.02425
0.994984
0.966468
0.938572
0.911185
0.884216
0.857587
0.831233
0.8051
10.5782
13.5297
10.426
4.89892
2.10558
1.7786
1.64575
1.54525
1.46906
1.40508
1.35009
1.30139
1.25743
1.21711
1.17967
1.14452
1.11122
1.07943
1.04887
1.01932
0.990605
0.962567
0.935086
0.90806
0.881406
0.85505
0.828936
0.803013
9.88794
10.4203
6.11406
2.60029
1.87135
1.71837
1.60685
1.52077
1.45113
1.39153
1.33948
1.29291
1.25056
1.21147
1.17498
1.14059
1.10788
1.07657
1.04639
1.01715
0.988689
0.960864
0.933564
0.906694
0.880175
0.853939
0.827931
0.802103
8.44773
7.13745
3.52015
2.02301
1.8013
1.68118
1.58237
1.50478
1.43954
1.38306
1.3331
1.28799
1.24665
1.2083
1.17233
1.13832
1.10592
1.07484
1.04485
1.01578
0.987465
0.959772
0.93259
0.905828
0.879406
0.853259
0.827331
0.801575
7.09962
4.77083
2.40594
1.90427
1.7663
1.65649
1.56655
1.49414
1.43201
1.37768
1.32909
1.28489
1.24415
1.20619
1.17052
1.13673
1.10451
1.0736
1.04378
1.01486
0.986672
0.959098
0.932021
0.905348
0.879004
0.852922
0.82705
0.801342
6.0812
3.44063
2.09531
1.86236
1.74429
1.63969
1.55622
1.4872
1.4273
1.37435
1.32652
1.28271
1.2422
1.20443
1.16898
1.13544
1.10349
1.07285
1.04328
1.01457
0.986567
0.959131
0.932153
0.905545
0.879237
0.853169
0.827295
0.801576
5.3307
2.75918
2.00809
1.8429
1.72838
1.62852
1.54949
1.48246
1.42361
1.37103
1.32345
1.28018
1.24054
1.2038
1.16927
1.13647
1.10509
1.07486
1.04556
1.017
0.989045
0.961576
0.934505
0.907759
0.881281
0.855024
0.82895
0.803029
4.76323
2.43884
1.97208
1.83142
1.71679
1.62132
1.54493
1.47911
1.42156
1.37096
1.32602
1.28505
1.24615
1.20824
1.17159
1.13736
1.10491
1.07398
1.04434
1.01574
0.987964
0.960884
0.934345
0.908193
0.882291
0.856527
0.830821
0.805126
4.34217
2.30503
1.95356
1.82345
1.70875
1.61688
1.54228
1.47809
1.42225
1.37168
1.3226
1.27257
1.22328
1.18105
1.15588
1.13133
1.10788
1.0856
1.06418
1.04319
1.02379
1.00562
0.987921
0.969929
0.951005
0.930653
0.908561
0.884593
69.056
74.7147
79.9484
84.8033
89.3573
93.6435
97.6886
101.44
105.231
109.148
112.416
112.462
130.458
131.554
132.027
132.045
131.773
131.501
131.301
131.225
131.232
131.367
131.67
131.956
145.446
142.844
139.963
137.088
134.547
132.598
131.372
130.829
130.659
130.657
131.039
131.694
166.991
160.19
153.178
146.415
140.408
135.649
132.488
130.972
130.531
130.444
130.871
131.524
190.062
179.448
168.623
158.087
148.446
140.398
134.614
131.454
130.445
130.191
130.587
131.325
215.01
200.868
186.415
172.173
158.786
147.081
138.041
132.517
130.512
130.012
130.334
131.156
241.984
224.236
206.092
188.108
170.94
155.447
142.785
134.283
130.721
129.897
130.099
130.991
270.83
249.24
227.205
205.349
184.359
165.084
148.709
136.849
131.118
129.801
129.868
130.845
301.299
275.583
249.405
223.49
198.59
175.554
155.525
140.197
131.788
129.716
129.649
130.706
333.092
302.971
272.399
242.23
213.306
186.504
162.912
144.183
132.806
129.643
129.443
130.579
365.894
331.098
295.91
261.311
228.251
197.663
170.59
148.583
134.189
129.612
129.246
130.459
399.381
359.655
319.655
280.487
243.203
208.811
178.335
153.177
135.862
129.621
129.06
130.347
433.222
388.318
343.341
299.506
257.949
219.756
185.966
157.831
137.725
129.664
128.889
130.241
467.064
416.751
366.661
318.106
272.278
230.32
193.315
162.407
139.698
129.731
128.736
130.14
500.519
444.597
389.298
336.014
285.972
240.336
200.233
166.756
141.693
129.813
128.595
130.043
533.155
471.47
410.916
352.949
298.804
249.635
206.588
170.75
143.618
129.899
128.466
129.95
564.484
496.95
431.163
368.621
310.544
258.044
212.255
174.28
145.38
129.979
128.348
129.859
593.964
520.583
449.669
382.733
320.956
265.387
217.113
177.25
146.888
130.042
128.241
129.771
621.004
541.885
466.049
394.982
329.808
271.489
221.042
179.573
148.056
130.077
128.148
129.684
644.968
560.351
479.908
405.067
336.869
276.178
223.922
181.174
148.811
130.075
128.061
129.599
665.205
575.472
490.854
412.691
341.917
279.29
225.641
181.982
149.092
130.028
127.975
129.515
681.062
586.749
498.512
417.572
344.745
280.674
226.095
181.935
148.862
129.922
127.886
129.436
691.926
593.72
502.538
419.459
345.168
280.198
225.194
180.986
148.138
129.696
127.793
129.367
697.257
595.986
502.637
418.136
343.036
277.758
222.867
179.095
146.895
129.363
127.71
129.307
696.628
593.24
498.591
413.445
338.23
273.274
219.068
176.245
145.139
128.942
127.631
129.255
689.765
585.28
490.253
405.286
330.689
266.713
213.789
172.445
142.898
128.47
127.56
129.212
676.541
572.041
477.589
393.642
320.412
258.092
207.066
167.742
140.235
127.994
127.475
129.181
657.044
553.603
460.674
378.583
307.471
247.492
198.985
162.224
137.267
127.575
127.386
129.166
631.546
530.2
439.702
360.277
292.016
235.057
189.694
156.041
134.227
127.289
127.302
129.173
600.509
502.213
414.993
338.999
274.302
221.035
179.43
149.427
131.473
127.159
127.221
129.216
564.559
470.164
386.986
315.131
254.678
205.767
168.526
142.727
129.185
126.991
127.15
129.311
524.455
434.697
356.247
289.188
233.627
189.723
157.439
136.432
127.573
126.795
127.134
129.47
481.063
396.561
323.441
261.797
211.778
173.524
146.784
131.3
126.774
126.696
127.211
129.704
435.331
356.608
289.349
233.716
189.914
157.98
137.411
127.986
126.569
126.644
127.43
130.035
388.28
315.801
254.933
205.956
169.097
144.174
130.512
126.498
126.434
126.746
127.944
130.465
340.993
275.22
221.346
179.797
150.695
133.514
126.975
126.317
126.443
127.277
128.812
130.989
294.628
236.11
190.017
156.852
136.433
127.722
126.234
126.353
127.115
128.715
130.221
131.582
250.46
199.963
162.734
139.126
128.403
126.161
126.27
127.288
129.544
131.67
132.391
132.324
209.956
168.627
141.712
129.008
126.096
126.194
127.926
131.803
135.636
137.058
135.667
133.233
174.928
144.452
129.607
126.036
126.135
129.076
135.602
142.613
146.209
144.957
139.951
134.386
147.719
130.324
125.982
126.099
130.61
140.727
152.381
160.272
161.155
155.108
145.048
135.745
131.349
125.932
126.145
132.189
146.37
163.861
178.27
184.249
179.735
166.935
150.659
137.114
125.885
126.103
133.227
151.185
175.144
198.082
212.532
213.6
201.05
179.786
156.47
138.395
125.881
133.298
154.111
184.244
216.644
242.468
253.742
246.715
223.851
192.931
162.172
139.544
132.401
154.439
189.441
230.613
268.75
293.96
298.879
281.268
246.689
205.606
167.462
140.531
151.948
189.744
237.537
286.46
326.335
347.433
343.419
314.226
267.887
217.009
172.065
141.333
185.289
236.454
292.748
344.853
382.678
397.22
383.266
342.814
285.833
226.419
175.757
141.937
227.769
287.153
347.058
398.669
432.155
438.961
415.261
364.92
299.292
233.292
178.379
142.338
271.507
333.883
393.935
442.864
471.023
469.606
437.011
379.039
307.457
237.29
179.87
142.539
309.143
371.003
429.223
473.816
496.587
487.893
447.594
384.279
309.81
238.211
180.087
142.63
336.077
395.492
449.803
488.324
506.787
488.153
444.888
380.161
306.292
236.011
178.874
142.719
350.551
405.081
452.716
484.585
492.479
472.932
429.263
366.898
297.013
230.644
176.202
142.808
351.099
398.081
436.438
460.045
463.13
443.116
401.945
345.283
282.319
222.116
172.129
142.899
337.175
375.112
404.569
420.873
420.263
401.217
365.137
316.7
262.811
210.566
166.841
142.993
310.632
338.939
359.799
370.15
367.565
351.116
321.842
283.006
239.385
196.437
160.735
143.093
274.72
293.956
307.424
313.312
310.127
297.287
275.38
246.366
213.394
180.759
154.506
143.203
234.022
245.418
253.022
255.867
253.006
244.047
229.213
209.577
187.222
165.479
149.105
143.331
194.288
199.473
202.728
203.68
201.698
196.464
188.047
177.004
164.641
153.179
145.6
143.492
162.646
163.867
164.571
164.659
163.738
161.676
158.485
154.387
149.993
146.263
144.296
143.866
147.047
146.931
146.813
146.695
146.544
146.305
145.978
145.589
145.228
145.018
145.385
145.968
4.04382
2.2384
1.94468
1.81771
1.70369
1.61479
1.54178
1.47865
1.42149
1.36616
1.31349
1.27376
1.26042
1.29012
1.41034
1.69242
2.25484
3.27919
5.04093
7.88248
12.1786
18.1496
25.3851
33.0566
40.8833
48.5725
55.9232
62.8135
3.83729
2.20159
1.94132
1.81405
1.70137
1.61494
1.54294
1.4787
1.41725
1.36001
1.32359
1.3292
1.47111
1.89543
2.85471
5.05722
9.90478
18.799
31.2043
46.2341
62.4541
78.1812
92.0316
103.558
112.963
120.154
125.288
128.531
3.69571
2.18101
1.94134
1.81259
1.70173
1.61711
1.54417
1.47473
1.40773
1.36314
1.37376
1.57845
2.20564
4.14888
9.89623
21.483
39.1749
60.7574
82.7096
103.067
119.845
132.36
140.848
146.02
148.627
149.35
148.802
147.404
3.59555
2.16988
1.94358
1.81335
1.70435
1.61985
1.5424
1.46624
1.40564
1.39185
1.51565
2.08792
5.22542
14.3219
31.9703
56.58
84.6798
111.688
134.514
152.228
165.023
173.883
179.662
182.85
183.651
182.131
178.535
173.284
3.52222
2.16482
1.94755
1.81619
1.70862
1.62233
1.53939
1.46185
1.41601
1.44152
1.65469
4.97592
15.7904
36.8585
66.8262
100.549
132.625
159.706
181.271
198.07
210.79
219.599
224.366
225.172
222.5
217.096
209.51
200.256
3.46728
2.16396
1.95303
1.82093
1.71373
1.62327
1.53465
1.46575
1.45045
1.57626
3.34362
13.5057
35.3659
68.4055
107.25
145.248
178.509
206.399
229.476
247.639
260.292
267.232
269.034
266.651
260.877
252.284
241.396
228.7
3.4258
2.16622
1.95992
1.82719
1.71915
1.62406
1.53421
1.47639
1.49343
1.67657
8.36336
28.3927
61.5792
104.033
148.184
188.774
224.478
255.322
280.357
298.308
309.104
313.779
313.467
308.931
300.715
289.344
275.337
259.228
3.39462
2.17094
1.96811
1.83468
1.72481
1.62516
1.53699
1.50263
1.58232
3.46575
17.9859
48.1516
91.1646
140.26
188.272
232.413
272.102
305.649
330.925
347.706
357.332
361.045
359.554
353.35
342.925
328.809
311.578
291.861
3.37161
2.17768
1.97749
1.84314
1.73042
1.62693
1.54928
1.53382
1.65596
7.50888
31.1345
70.7376
121.568
175.731
227.995
276.902
320.375
355.156
380.183
396.887
406.699
410.28
408.018
400.322
387.679
370.68
350.006
326.409
3.3552
2.1861
1.98794
1.85239
1.73654
1.63137
1.56248
1.5874
2.04865
14.0441
46.5659
94.3477
151.414
210.347
267.77
321.621
367.76
403.323
429.224
447.231
458.052
461.921
459.075
449.892
434.901
414.791
390.384
362.589
3.34423
2.19598
1.99936
1.86233
1.74347
1.6393
1.58643
1.63768
3.52813
22.8286
63.0725
117.767
180.21
244.292
307.387
365.568
413.765
450.976
479.162
499.372
511.69
516.109
512.757
502.003
484.451
460.929
432.44
400.097
3.33779
2.20712
2.01165
1.87299
1.75162
1.65028
1.61355
1.68229
6.09299
32.7488
79.7384
140.342
207.886
277.589
346.319
408.206
458.82
499.008
530.518
553.516
567.707
572.868
569.024
556.555
536.165
508.868
475.898
438.619
3.33518
2.21937
2.02473
1.88431
1.76079
1.66648
1.6426
1.72756
9.62562
43.1017
95.9598
161.795
234.469
310.066
384.111
449.555
503.551
547.883
583.426
609.698
626.09
632.146
627.782
613.4
589.842
558.354
520.463
477.835
3.33581
2.23258
2.03854
1.89632
1.77161
1.68503
1.66941
1.77185
13.9279
53.3919
111.369
182.014
259.936
341.466
420.533
489.891
548.361
597.706
637.849
667.847
686.743
693.818
688.865
672.324
645.214
609.077
565.794
517.388
3.33919
2.24667
2.05301
1.90917
1.78414
1.70233
1.70805
2.04306
18.8124
63.2752
125.762
200.945
284.183
371.538
455.526
529.462
593.368
648.385
693.651
727.808
749.492
757.679
752.023
733.022
701.928
660.647
611.483
556.873
3.34494
2.26151
2.06811
1.92286
1.7981
1.72206
1.74334
2.60574
23.8856
72.5423
139.051
218.575
307.104
400.105
489.112
568.374
638.485
699.724
750.616
789.35
814.086
823.445
816.918
795.092
759.522
712.569
657.034
595.82
3.35273
2.27704
2.08379
1.93736
1.81342
1.74452
1.77329
3.38387
28.8114
81.0841
151.221
234.927
328.652
427.117
521.346
606.603
683.506
751.458
808.459
852.17
880.201
890.748
883.117
858.023
817.419
764.232
701.849
633.676
3.3623
2.29318
2.10002
1.95263
1.82994
1.76782
1.80189
4.3038
33.4384
88.8551
162.294
250.031
348.811
452.579
552.255
644.024
728.164
803.269
866.83
915.892
947.425
959.118
950.064
921.169
874.906
814.9
745.221
669.809
3.37342
2.30987
2.11676
1.96864
1.84747
1.79137
1.83024
5.30098
37.6927
95.8519
172.311
263.919
367.579
476.517
581.825
680.456
772.156
854.788
925.305
980.047
1015.23
1027.94
1017.04
983.721
931.116
863.708
786.339
703.508
3.3859
2.32704
2.13397
1.98533
1.86584
1.81502
1.85839
6.32107
41.5386
102.093
181.321
276.63
384.979
498.968
610.029
715.702
815.154
905.594
983.382
1044.05
1082.93
1096.41
1083.13
1044.66
985.001
909.649
824.295
733.997
3.39956
2.34465
2.15162
2.00265
1.88489
1.8387
1.88633
7.32044
44.9627
107.608
189.375
288.199
401.031
519.953
636.802
749.545
856.806
955.211
1040.46
1107.15
1149.63
1163.49
1147.14
1102.73
1035.32
951.584
858.102
760.457
3.41426
2.36265
2.16967
2.02054
1.90452
1.86239
1.91406
8.26647
47.9691
112.433
196.521
298.661
415.754
539.468
662.057
781.767
896.75
1003.11
1095.81
1168.45
1214.21
1227.84
1207.61
1156.42
1080.64
988.264
886.724
782.056
3.42987
2.38101
2.18809
2.03895
1.92452
1.88607
1.94156
9.13557
50.5713
116.611
202.806
308.046
429.164
557.497
685.695
812.148
934.603
1048.7
1148.61
1226.82
1275.29
1287.87
1262.78
1203.99
1119.42
1018.38
909.123
797.994
3.44629
2.39969
2.20685
2.05779
1.9453
1.90973
1.96882
9.91162
52.7881
120.18
208.272
316.382
441.269
574.008
707.592
840.45
969.96
1091.33
1197.92
1281.03
1331.44
1341.98
1310.67
1243.58
1150.03
1040.66
924.328
807.548
3.46343
2.41865
2.22592
2.07704
1.96652
1.93337
1.99585
10.5845
54.6406
123.18
212.958
323.693
452.072
588.959
727.619
866.434
1002.41
1130.31
1242.66
1329.84
1381.64
1389.01
1349.26
1273.29
1170.97
1053.97
931.508
810.13
3.48121
2.43789
2.24528
2.09665
1.98802
1.95698
2.02263
11.1489
56.1505
125.645
216.898
329.998
461.572
602.3
745.644
889.849
1031.5
1164.89
1282.03
1372.76
1424.92
1426.63
1376.59
1291.44
1180.99
1057.41
930.062
805.339
3.49956
2.45736
2.2649
2.11659
2.00974
1.98055
2.04918
11.6028
57.3391
127.608
220.122
335.316
469.763
613.977
761.526
910.431
1056.8
1194.47
1314.84
1405.69
1451.34
1448.23
1390.73
1296.78
1179.24
1050.5
919.686
792.958
3.51842
2.47706
2.28476
2.13685
2.03164
2.00411
2.07549
11.9471
58.2266
129.097
222.657
339.657
476.636
623.935
775.133
927.933
1077.9
1218.33
1339.74
1427.66
1466.08
1455.39
1390.22
1288.73
1165.46
1033.04
900.322
773.046
3.53776
2.49697
2.30484
2.15738
2.05371
2.02763
2.10156
12.1845
58.8311
130.137
224.524
343.033
482.178
632.119
786.338
942.125
1094.41
1235.79
1355.69
1439.13
1476.22
1448.28
1375.11
1267.16
1139.71
1005.34
872.328
745.921
3.55754
2.51708
2.32514
2.17818
2.07592
2.05114
2.12742
12.3182
59.1707
130.751
225.745
345.452
486.377
638.475
795.021
952.785
1105.95
1246.26
1362.24
1439.07
1459.74
1427
1346.22
1232.69
1102.78
968.159
836.356
712.137
3.57772
2.53737
2.34564
2.19923
2.09826
2.07463
2.153
12.3578
59.2574
130.96
226.335
346.921
489.22
642.952
801.071
959.72
1112.21
1249.42
1359.07
1427.87
1436
1393.02
1303.91
1186.51
1055.93
922.579
793.312
672.449
3.59828
2.55782
2.36634
2.2205
2.12073
2.0981
2.17819
12.3262
59.0882
130.779
226.315
347.444
490.696
645.506
804.393
962.767
1113.06
1245.11
1345.77
1404.32
1402.73
1345.95
1249.86
1130.54
1000.73
869.889
744.291
627.768
3.61909
2.57853
2.3872
2.24197
2.14311
2.12156
2.203
12.2314
58.6742
130.224
225.704
347.033
490.783
646.098
804.924
961.864
1108.36
1233.23
1322.78
1365.57
1350.57
1286.05
1186.6
1066.79
938.798
811.505
690.504
579.114
3.63991
2.59973
2.40818
2.26363
2.16549
2.145
2.22746
12.0795
58.0291
129.309
224.518
345.705
489.476
644.689
802.61
956.919
1098.03
1213.91
1290.85
1317.74
1291.03
1219.33
1116.6
996.946
871.757
748.905
633.215
527.566
3.66076
2.62144
2.42927
2.28547
2.18796
2.16844
2.25158
11.8764
57.1676
128.049
222.774
343.47
486.77
641.254
797.41
947.892
1082.13
1187.41
1250.65
1262.99
1224.91
1146.33
1041.22
922.816
801.308
683.538
573.67
474.239
3.68163
2.64363
2.45047
2.30748
2.21054
2.19187
2.27539
11.628
56.1043
126.457
220.486
340.343
482.669
635.775
789.297
934.787
1060.77
1154.16
1203.05
1201.47
1152.95
1068.72
962.419
846.174
728.967
616.733
513.082
420.265
3.70253
2.66627
2.47179
2.32966
2.23326
2.2153
2.29891
11.3403
54.8541
124.545
217.672
336.34
477.178
628.245
778.271
917.66
1034.19
1114.74
1149.16
1134.45
1076.83
988.298
881.871
768.504
656.074
549.729
452.63
366.796
3.72347
2.68935
2.49322
2.35199
2.25611
2.23874
2.32217
11.0194
53.4326
122.326
214.351
331.484
470.317
618.674
764.357
896.622
1002.68
1069.85
1090.04
1063.41
998.182
906.627
800.991
691.097
583.823
483.677
393.465
315.014
3.74445
2.71284
2.51477
2.37449
2.27909
2.2622
2.34519
10.6715
51.8563
119.817
210.545
325.802
462.114
607.091
747.619
871.85
966.674
1020.3
1027
989.848
918.434
825.012
720.983
615.057
513.281
419.666
336.734
266.165
3.76548
2.73673
2.53644
2.39714
2.30222
2.28568
2.36801
10.3026
50.1424
117.033
206.277
319.332
452.618
593.555
728.162
843.591
926.672
966.938
961.236
914.993
838.758
744.572
642.869
541.344
445.437
358.758
283.617
221.639
3.78657
2.761
2.55823
2.41993
2.3255
2.3092
2.39065
9.91882
48.3097
113.993
201.577
312.119
441.892
578.154
706.141
812.155
883.255
910.678
893.809
839.929
760.223
666.287
567.509
470.815
381.245
302.025
235.393
183.105
3.80772
2.78563
2.58014
2.44287
2.34891
2.33275
2.41315
9.52592
46.3781
110.72
196.479
304.223
430.027
561.017
681.76
777.917
837.084
852.383
825.725
765.675
683.797
590.97
495.632
404.299
321.667
250.585
193.549
152.712
3.82892
2.8106
2.60217
2.46595
2.37248
2.35637
2.43555
9.12958
44.3692
107.239
191.025
295.714
417.136
542.313
655.289
741.323
788.854
793.112
757.99
693.19
610.314
519.269
427.92
342.662
267.682
205.689
159.934
133.365
3.8502
2.83589
2.62433
2.48916
2.39618
2.38005
2.45788
8.73513
42.3055
103.58
185.26
286.675
403.357
522.259
627.058
702.892
739.319
733.672
691.454
623.372
540.447
451.736
365.117
286.808
220.297
168.864
136.838
125.837
3.87155
2.86146
2.64661
2.51249
2.42003
2.40381
2.48019
8.34752
40.2105
99.7774
179.239
277.203
388.859
501.114
597.462
663.204
689.293
674.882
627.099
557.056
474.682
388.948
308.063
237.615
180.643
142.12
126.548
125.51
3.89297
2.88729
2.66901
2.53595
2.44402
2.42766
2.50251
7.97122
38.1086
95.8691
173.021
267.406
373.827
479.178
566.95
622.907
639.509
617.634
565.924
494.784
413.391
331.644
257.609
195.888
150.244
128.107
124.739
130.389
3.91447
2.91334
2.69153
2.55951
2.46814
2.45161
2.52488
7.61018
36.0238
91.8967
166.671
257.402
358.468
456.782
536.017
582.702
590.809
563.018
508.714
436.788
357.1
280.713
214.42
162.478
131.5
124.013
127.352
146.56
3.93604
2.93959
2.71416
2.58317
2.4924
2.47566
2.54735
7.26775
33.9799
87.9045
160.262
247.316
343.001
434.287
505.208
543.345
544.067
512.037
455.77
383.261
306.662
236.914
178.893
138.596
123.645
124.759
138.914
175.664
3.9577
2.96598
2.73691
2.60693
2.51677
2.49984
2.56996
6.94665
31.9992
83.9388
153.866
237.277
327.654
412.066
475.091
505.564
500.259
465.379
407.047
334.782
263.06
200.518
151.398
125.885
122.75
131.485
161.955
211.746
3.97943
2.99248
2.75975
2.63076
2.54126
2.52414
2.59274
6.64891
30.1021
80.0461
147.561
227.415
312.647
390.482
446.221
469.983
460.31
423.163
362.592
292.428
226.872
171.277
132.826
121.439
125.27
147.587
191.161
247.538
4.00124
3.01904
2.78269
2.65466
2.56584
2.54856
2.61574
6.37596
28.3065
76.2717
141.42
217.853
298.192
369.884
419.132
437.195
424.863
385.026
323.031
257.305
197.858
148.826
122.968
121.361
134.288
170.019
219.115
275.857
4.02313
3.04562
2.80571
2.67862
2.59052
2.57313
2.63897
6.12859
26.6271
72.658
135.516
208.71
284.487
350.593
394.291
407.86
394.039
350.653
289.625
229.788
175.118
133.041
119.264
123.938
149.607
191.038
239.334
293.55
4.0451
3.07216
2.82881
2.70263
2.61527
2.59782
2.66247
5.907
25.0751
69.2429
129.915
200.09
271.706
332.89
372.016
382.774
367.317
320.421
263.64
209.218
157.763
124.294
119.188
130.657
165.908
205.335
249.723
299.832
4.06714
3.09863
2.85196
2.72667
2.64009
2.62264
2.68627
5.71094
23.6584
66.0587
124.676
192.084
259.994
317.005
352.508
362.377
343.731
295.596
245.439
194.423
145.379
119.752
119.136
139.506
177.216
210.456
250.398
294.161
4.08925
3.12496
2.87517
2.75074
2.66495
2.6476
2.71037
5.53968
22.3809
63.1305
119.845
184.766
249.463
303.106
335.923
346.6
322.701
277.738
234.155
184.6
137.694
117.909
119.48
147.486
181.251
208.016
241.767
277.14
4.11142
3.15112
2.89841
2.77482
2.68985
2.67268
2.7348
5.39221
21.2434
60.4761
115.46
178.19
240.195
291.298
322.41
334.912
304.696
267.531
228.434
179.762
134.511
117.398
119.945
150.149
178.627
199.513
225.322
251.196
4.13366
3.17706
2.92167
2.7989
2.71477
2.69788
2.75956
5.26725
20.2438
58.1058
111.544
172.395
232.242
281.618
312.075
326.631
291.274
264.079
227.54
180.427
135.739
117.308
119.639
145.623
172.019
186.794
203.888
220.021
4.15595
3.20275
2.94494
2.82297
2.73967
2.72319
2.78464
5.16335
19.3776
56.0235
108.112
167.401
225.625
274.053
304.87
321.249
284.387
265.404
231.715
187.276
141.875
117.37
116.921
136.77
162.1
172.775
181.272
188.552
4.17827
3.22814
2.96821
2.84702
2.7647
2.74861
2.81006
5.07898
18.6377
54.2239
105.161
163.203
220.325
268.519
300.764
313.721
284.615
270.253
240.889
200.323
155.02
121.482
113.86
124.711
148.33
160.087
161.816
162.731
4.20093
3.2533
2.99147
2.87105
2.78966
2.77414
2.83587
5.0124
18.0198
52.708
102.699
159.816
216.354
265.016
299.246
306.258
289.136
278.409
254.118
218.835
175.824
134.742
113.205
113.336
129.729
148.002
148.401
147.826
4.21869
3.27507
3.0122
2.89247
2.8123
2.79699
2.85667
4.96845
17.5545
51.5596
100.859
157.387
213.772
263.281
299.519
302.49
295.279
287.876
268.46
238.748
200.336
158.653
123.764
108.865
112.655
129.4
148.189
147.318
4.23627
3.29427
3.03041
2.91127
2.8327
2.81717
2.87727
4.9379
17.2157
50.7209
99.5433
155.753
212.309
263.183
299.945
302.138
302.077
297.619
282.485
257.865
224.521
185.419
146.857
118.031
107.477
110.935
124.621
147.595
4.25367
3.31328
3.0486
2.93005
2.85262
2.83741
2.89803
4.91571
16.9352
50.0268
98.4856
154.548
211.525
264.273
300.439
304.157
309.818
308.386
297.372
277.7
249.903
215.447
177.641
142.304
116.764
107.016
106.771
112.694
98.9881
97.9527
97.2405
96.7755
96.4213
96.1672
96.0169
95.8884
95.7488
97.994
104.434
131.472
126.031
120.059
114.997
110.865
107.053
103.544
100.456
97.9261
96.0187
95.1846
95.2478
96.8928
174.168
162.503
152.147
142.607
133.384
124.344
115.575
107.479
100.762
96.2825
94.5747
94.2121
227.238
211.91
197.295
182.889
168.314
153.43
138.376
123.692
110.465
100.359
95.1874
93.9667
278.234
260.7
243.073
224.953
206.024
186.131
165.374
144.294
124.152
107.208
96.6741
93.8483
325.357
306.216
286.259
265.191
242.75
218.759
193.231
166.583
140.044
116.207
99.3053
93.7539
368.735
348.217
326.252
302.634
277.159
249.664
220.097
188.711
156.52
126.14
102.766
93.6753
408.737
386.927
363.136
337.204
308.978
278.325
245.184
209.7
172.638
136.388
106.682
93.607
445.836
422.68
397.126
369.036
338.266
304.698
268.283
229.129
187.815
146.416
110.814
93.5458
480.59
455.885
428.503
398.315
365.158
328.882
289.431
246.913
201.817
155.918
114.975
93.4898
513.572
487
457.596
425.267
389.81
351.005
308.738
263.109
214.591
164.746
119.043
93.4376
545.292
516.46
484.751
450.141
412.403
371.209
326.331
277.823
226.177
172.844
122.941
93.3885
576.145
544.629
510.279
473.187
433.121
389.637
342.339
291.175
236.657
180.217
126.626
93.3417
606.396
571.775
534.436
494.629
452.147
406.432
356.884
303.279
246.121
186.893
130.073
93.2969
636.192
598.065
557.403
514.649
469.645
421.731
370.08
314.241
254.66
192.918
133.275
93.2536
665.574
623.576
579.296
533.387
485.757
435.66
382.033
324.153
262.357
198.34
136.23
93.2115
694.491
648.308
600.167
550.936
500.597
448.329
392.839
333.101
269.286
203.207
138.943
93.1703
722.818
672.197
620.016
567.349
514.251
459.834
402.585
341.158
275.514
207.564
141.421
93.1301
750.358
695.125
638.799
582.649
526.783
470.254
411.347
348.389
281.097
211.455
143.674
93.0906
776.855
716.926
656.439
596.825
538.231
479.655
419.191
354.853
286.086
214.917
145.711
93.0517
801.995
737.396
672.828
609.847
548.619
488.086
426.178
360.603
290.526
217.986
147.542
93.0134
825.428
756.308
687.839
621.669
557.957
495.593
432.36
365.687
294.456
220.693
149.177
92.9756
846.798
773.446
701.365
632.259
566.265
502.223
437.792
370.154
297.915
223.066
150.628
92.9382
865.818
788.675
713.367
641.635
573.59
508.033
442.531
374.048
300.936
225.132
151.902
92.9013
882.291
801.907
723.822
649.815
579.974
513.077
446.625
377.409
303.545
226.91
153.007
92.8647
895.991
812.995
732.64
656.751
585.408
517.371
450.104
380.262
305.761
228.414
153.949
92.8285
906.598
821.721
739.683
662.366
589.853
520.906
452.975
382.618
307.593
229.654
154.729
92.7926
913.778
827.859
744.808
666.571
593.262
523.662
455.234
384.479
309.044
230.634
155.348
92.7571
917.244
831.206
747.879
669.286
595.59
525.617
456.872
385.842
310.112
231.355
155.806
92.7218
916.786
831.608
748.786
670.434
596.789
526.746
457.876
386.701
310.794
231.815
156.098
92.6858
912.28
828.968
747.448
669.951
596.812
527.017
458.226
387.041
311.077
232.009
156.221
92.6493
903.762
823.267
743.825
667.791
595.616
526.396
457.897
386.844
310.949
231.926
156.175
92.6127
891.382
814.558
737.916
663.923
593.16
524.844
456.863
386.092
310.394
231.553
155.974
92.554
875.41
802.961
729.759
658.34
589.412
522.322
455.086
384.757
309.389
230.876
155.617
92.4583
856.191
788.655
719.424
651.048
584.344
518.789
452.525
382.801
307.906
229.874
155.093
92.3219
834.117
771.856
707.011
642.07
577.936
514.203
449.134
380.182
305.911
228.526
154.392
92.1435
809.603
752.813
692.639
631.443
570.173
508.52
444.859
376.852
303.367
226.806
153.502
91.9198
783.068
731.789
676.444
619.213
561.045
501.696
439.64
372.754
300.231
224.69
152.41
91.6476
754.893
709.04
658.563
605.429
550.541
493.683
433.414
367.827
296.456
222.146
151.1
91.3234
725.418
684.804
639.132
590.141
538.649
484.427
426.107
362.001
291.987
219.14
149.557
90.9431
694.914
659.272
618.261
573.388
525.345
473.859
417.63
355.191
286.762
215.631
147.759
90.5019
663.584
632.591
596.038
555.19
510.587
461.892
407.879
347.307
280.714
211.578
145.685
89.9944
631.56
604.85
572.507
535.535
494.306
448.414
396.729
338.243
273.773
206.938
143.313
89.4141
598.891
576.072
547.655
514.364
476.394
433.286
384.036
327.883
265.863
201.671
140.624
88.7513
565.541
546.216
521.407
491.559
456.696
416.334
369.633
316.096
256.909
195.742
137.603
88.0001
531.376
515.145
493.597
466.917
434.988
397.346
353.347
302.757
246.843