/*--------------------------------*- C++ -*----------------------------------*\
| =========                 |                                                 |
| \\      /  F ield         | OpenFOAM: The Open Source CFD Toolbox           |
|  \\    /   O peration     | Version:  v2012                                 |
|   \\  /    A nd           | Website:  www.openfoam.com                      |
|    \\/     M anipulation  |                                                 |
\*---------------------------------------------------------------------------*/
FoamFile
{
    version     2.0;
    format      ascii;
    class       volScalarField;
    location    "662";
    object      k;
}
// * * * * * * * * * * * * * * * * * * * * * * * * * * * * * * * * * * * * * //

dimensions      [0 2 -2 0 0 0 0];


internalField   nonuniform List<scalar> 
6084
(
0.0395367
0.042483
0.0458158
0.0496103
0.0539631
0.0589987
0.0648803
0.0718255
0.0801306
0.0902084
0.102648
0.118319
0.138541
0.165413
0.20242
0.255691
0.336755
0.46915
0.705999
1.18307
0.0946469
0.101926
0.110119
0.119387
0.129939
0.142037
0.156017
0.172313
0.191499
0.214343
0.241891
0.275601
0.317549
0.370764
0.439787
0.531609
0.657293
0.834701
1.09268
1.4747
0.125757
0.135362
0.146148
0.158312
0.172108
0.187849
0.205934
0.226866
0.251298
0.28008
0.314343
0.355609
0.405963
0.468315
0.546791
0.647353
0.778753
0.954031
1.19287
1.52558
0.143906
0.154838
0.167094
0.180885
0.19648
0.214212
0.234495
0.257847
0.284926
0.316575
0.353891
0.398321
0.451801
0.516971
0.597494
0.698576
0.827809
0.996647
1.2232
1.53807
0.15249
0.164036
0.176969
0.191505
0.207917
0.226542
0.247795
0.272191
0.300377
0.333177
0.371645
0.41716
0.471548
0.537281
0.617786
0.717963
0.845085
1.01044
1.23249
1.54328
0.15251
0.164051
0.17698
0.191513
0.207923
0.226546
0.247798
0.272193
0.300379
0.333178
0.371646
0.417161
0.471548
0.537281
0.617786
0.717963
0.845085
1.01044
1.23249
1.54328
0.143961
0.154878
0.167122
0.180905
0.196494
0.214223
0.234503
0.257853
0.28493
0.316578
0.353893
0.398323
0.451803
0.516971
0.597494
0.698577
0.82781
0.996647
1.2232
1.53807
0.125826
0.135414
0.146185
0.15834
0.172128
0.187864
0.205945
0.226874
0.251304
0.280085
0.314346
0.355611
0.405965
0.468316
0.546792
0.647353
0.778753
0.954031
1.19287
1.52558
0.0946887
0.101975
0.110157
0.119417
0.129961
0.142053
0.156028
0.172322
0.191505
0.214347
0.241894
0.275603
0.31755
0.370766
0.439788
0.53161
0.657293
0.834701
1.09268
1.4747
0.0395543
0.0424989
0.0458281
0.0496197
0.0539701
0.0590039
0.0648841
0.0718283
0.0801327
0.0902099
0.10265
0.11832
0.138542
0.165414
0.20242
0.255691
0.336755
0.46915
0.705999
1.18307
0.0204292
0.0214127
0.0224622
0.0235876
0.0247996
0.0261103
0.0275334
0.0290848
0.0307828
0.0326489
0.0347085
0.036992
0.0465685
0.0490775
0.0517502
0.0546119
0.0576883
0.0610089
0.0646069
0.0685203
0.072793
0.077476
0.0826287
0.0883217
0.0620659
0.0653701
0.0688981
0.0726831
0.0767586
0.0811622
0.0859368
0.0911314
0.0968026
0.103016
0.109847
0.117386
0.0712498
0.074997
0.079007
0.0833174
0.0879652
0.0929922
0.0984461
0.104382
0.110862
0.117959
0.125759
0.134361
0.0757411
0.0796669
0.0838808
0.0884214
0.0933267
0.0986392
0.104407
0.110687
0.117543
0.125052
0.133303
0.142399
0.0760254
0.0798762
0.0840316
0.0885295
0.0934064
0.0987026
0.104464
0.110741
0.117594
0.125095
0.133338
0.142426
0.07219
0.075663
0.0794533
0.0835991
0.0881364
0.0931042
0.0985458
0.104504
0.110994
0.118078
0.125855
0.134435
0.0645577
0.0672014
0.0701637
0.0734905
0.0772232
0.081401
0.0860616
0.0912421
0.0969436
0.103169
0.109975
0.117484
0.0550553
0.0560451
0.0572473
0.058749
0.0606418
0.0629919
0.065825
0.0691671
0.0731042
0.0776335
0.0827251
0.0883991
0.0498104
0.0485888
0.0467695
0.0442769
0.0414156
0.0387845
0.0365966
0.0350235
0.0342167
0.0342836
0.0351817
0.0368818
0.000937784
0.000850677
0.000798847
0.000995587
0.00169506
0.00271804
0.00365741
0.00454604
0.00536645
0.0061336
0.00687225
0.0075913
0.00829664
0.00899233
0.00968157
0.0103671
0.0110517
0.011738
0.0124287
0.0131268
0.0138356
0.0145586
0.0153001
0.0160644
0.0168567
0.0176827
0.0185487
0.0194617
0.00162906
0.00199868
0.00290769
0.00477534
0.00627052
0.00744528
0.00862406
0.00995052
0.0114266
0.0129079
0.014369
0.0158251
0.0172872
0.0187625
0.0202568
0.0217757
0.0233246
0.0249087
0.0265336
0.0282048
0.0299279
0.0317089
0.0335549
0.0354741
0.0374762
0.0395726
0.0417765
0.0441034
0.00241227
0.00431982
0.00602495
0.00784481
0.00931994
0.0107594
0.0125192
0.0146041
0.0167703
0.0188627
0.020876
0.022828
0.0247383
0.0266261
0.0285099
0.0304069
0.0323325
0.0343009
0.036324
0.0384128
0.0405775
0.0428282
0.0451757
0.0476317
0.0502093
0.0529237
0.055792
0.0588342
0.00356479
0.00687895
0.00866921
0.0103454
0.0119447
0.0138755
0.0162848
0.0189414
0.0215482
0.0239968
0.0262915
0.028458
0.0305307
0.0325451
0.034535
0.0365302
0.0385564
0.0406353
0.0427845
0.0450192
0.0473527
0.0497976
0.0523664
0.0550725
0.0579309
0.0609582
0.0641736
0.0675991
0.00478877
0.00924073
0.0109606
0.0126146
0.0145077
0.0169621
0.0198652
0.0228617
0.0256897
0.0282806
0.0306471
0.0328274
0.0348709
0.0368283
0.0387459
0.0406643
0.042617
0.0446313
0.0467288
0.0489273
0.0512418
0.0536861
0.0562739
0.0590195
0.0619389
0.0650501
0.0683735
0.0719322
0.00608741
0.0113234
0.0130566
0.0148326
0.0170851
0.0199658
0.0231643
0.0263031
0.0291757
0.031739
0.0340166
0.0360598
0.0379315
0.039694
0.0414041
0.0431101
0.044851
0.0466574
0.0485529
0.0505559
0.0526818
0.0549445
0.0573584
0.0599389
0.0627035
0.065672
0.0688666
0.0723122
0.00698633
0.0131639
0.0150363
0.0170348
0.0196234
0.022789
0.0261058
0.02923
0.0320044
0.0344049
0.0364668
0.0382539
0.0398404
0.0412989
0.0426941
0.04408
0.0454984
0.04698
0.0485468
0.0502142
0.0519943
0.0538986
0.0559399
0.058134
0.0605002
0.0630616
0.0658449
0.0688799
0.00776666
0.014792
0.0169139
0.0191847
0.0220436
0.0253506
0.0286447
0.03163
0.0341909
0.03632
0.0380657
0.0395045
0.0407222
0.0418021
0.0428171
0.0438258
0.0448705
0.045978
0.0471622
0.0484279
0.0497754
0.051204
0.0527162
0.0543197
0.0560317
0.0578758
0.0598846
0.0620982
0.00845442
0.016221
0.0186795
0.0212287
0.0242761
0.027603
0.0307615
0.0335097
0.0357639
0.0375372
0.0388935
0.0399255
0.040736
0.0414238
0.0420746
0.0427544
0.0435056
0.0443473
0.0452783
0.046282
0.0473326
0.0484009
0.0494592
0.0504855
0.0514663
0.0523979
0.0532891
0.054162
0.0090377
0.0174977
0.0203215
0.0231155
0.0262753
0.0295203
0.0324565
0.0348872
0.036763
0.0381211
0.0390475
0.0396599
0.040087
0.040453
0.0408636
0.0413952
0.0420897
0.042954
0.043965
0.0450786
0.0462383
0.0473834
0.0484533
0.0493885
0.0501298
0.0506148
0.0507753
0.0505346
0.0526697
0.052326
0.0515503
0.0501824
0.0479919
0.044872
0.0405219
0.0345884
0.0263974
0.018248
0.0115658
0.00652258
0.0377517
0.0347366
0.0313376
0.0276239
0.0237401
0.0194026
0.0146291
0.0104517
0.00701998
0.00458354
0.00256185
0.00103802
0.0190243
0.0164341
0.0139554
0.0116601
0.00971881
0.00809315
0.00657797
0.00523705
0.00411461
0.00312204
0.00198628
0.000803774
0.010162
0.00907861
0.00818367
0.00738831
0.00668626
0.00602716
0.00535372
0.00464878
0.0038995
0.00305284
0.00201785
0.000846779
0.0077671
0.00740294
0.00706653
0.00671648
0.00634134
0.00591715
0.00541862
0.00482492
0.00410915
0.00323402
0.0021609
0.00093105
0.0073369
0.00719584
0.00702811
0.00681351
0.00653381
0.00617216
0.00571043
0.00512813
0.00439881
0.00348754
0.00235713
0.0010258
0.00740627
0.00734743
0.00724098
0.00707189
0.00682547
0.00648646
0.00603738
0.00545655
0.0047153
0.0037738
0.0025806
0.00112668
0.007613
0.00758917
0.00750967
0.00736172
0.00713194
0.00680568
0.00636533
0.00578771
0.00504043
0.00407496
0.00281957
0.00123176
0.00785948
0.00785321
0.00778787
0.007652
0.00743317
0.00711712
0.00668585
0.00611454
0.00536642
0.00438288
0.00306891
0.00134016
0.00811737
0.00812049
0.00806325
0.00793529
0.007725
0.00741844
0.00699722
0.00643476
0.0056899
0.00469365
0.00332608
0.00145146
0.00837824
0.0083861
0.00833346
0.00821097
0.00800783
0.00771047
0.00730006
0.00674836
0.00600994
0.00500567
0.00358991
0.00156558
0.00864042
0.00864995
0.00859943
0.00848061
0.00828357
0.00799511
0.00759604
0.0070565
0.006327
0.00531872
0.00385996
0.00168261
0.00890477
0.0089136
0.00886317
0.00874645
0.0085545
0.00827461
0.00788726
0.00736098
0.00664238
0.00563339
0.00413629
0.00180281
0.00917308
0.00917915
0.00912693
0.00901077
0.00882293
0.00855128
0.00817599
0.00766395
0.00695789
0.0059508
0.00441928
0.00192657
0.00944743
0.00944881
0.00939292
0.00927579
0.00909106
0.00882734
0.00846451
0.00796765
0.00727555
0.00627243
0.00470954
0.00205444
0.00972995
0.00972468
0.00966323
0.00954352
0.00936089
0.00910487
0.00875498
0.00827433
0.0075975
0.00659989
0.00500782
0.00218717
0.0100227
0.0100088
0.00993975
0.00981579
0.00963422
0.00938572
0.0090494
0.00858613
0.00792585
0.00693492
0.00531494
0.00232578
0.0103277
0.0103029
0.0102242
0.0100942
0.00991263
0.00967152
0.00934956
0.008905
0.00826261
0.00727923
0.0056318
0.00247171
0.0106467
0.0106088
0.010518
0.01038
0.0101974
0.00996364
0.00965694
0.0092326
0.00860956
0.00763444
0.00595938
0.00262697
0.0109816
0.0109279
0.0108224
0.0106745
0.0104896
0.0102632
0.00997274
0.00957029
0.00896819
0.0080019
0.00629844
0.00279452
0.0113337
0.0112612
0.0111384
0.0109783
0.0107899
0.0105708
0.0102978
0.00991898
0.00933956
0.00838258
0.00664962
0.00297882
0.0117043
0.0116097
0.0114664
0.0112919
0.0110988
0.0108871
0.0106323
0.010279
0.00972418
0.00877974
0.00701767
0.00317819
0.0120942
0.0119735
0.0118067
0.0116153
0.0114161
0.011212
0.010978
0.0106533
0.0101263
0.00919518
0.00740186
0.00338512
0.0125033
0.0123524
0.0121586
0.0119487
0.0117433
0.0115467
0.0113342
0.0110405
0.0105446
0.0096287
0.00780199
0.00359975
0.0129311
0.0127464
0.012523
0.012292
0.0120781
0.0118884
0.0116987
0.0114389
0.0109779
0.0100798
0.00821827
0.00382115
0.0133779
0.0131546
0.0128973
0.0126418
0.0124174
0.0122342
0.0120684
0.0118455
0.0114238
0.0105471
0.00864965
0.00404872
0.0138414
0.0135737
0.0132775
0.0129942
0.0127573
0.01258
0.0124382
0.0122561
0.011879
0.0110279
0.00909404
0.00428112
0.0143175
0.0139985
0.0136583
0.0133437
0.0130922
0.0129189
0.0128035
0.0126655
0.0123382
0.0115178
0.0095476
0.0045161
0.0147995
0.0144217
0.0140321
0.013683
0.0134158
0.0132457
0.0131572
0.0130663
0.0127942
0.0120099
0.0100041
0.00475008
0.0152779
0.0148335
0.014389
0.0140026
0.0137152
0.0135506
0.0134903
0.0134492
0.0132374
0.0124944
0.010454
0.00497789
0.0157398
0.0152209
0.0147164
0.0142925
0.0139836
0.0138236
0.0137919
0.0138025
0.0136547
0.0129571
0.0108833
0.00519245
0.0161688
0.0155678
0.0149984
0.014531
0.0142053
0.0140514
0.0140479
0.0141101
0.0140287
0.0133793
0.0112735
0.00538553
0.0165446
0.0158551
0.0152178
0.014703
0.0143658
0.0142181
0.0142399
0.0143509
0.0143353
0.0137386
0.011605
0.00554986
0.0168433
0.0160604
0.0153553
0.0148017
0.0144499
0.0143056
0.0143478
0.0144973
0.0145588
0.0140162
0.0118668
0.00568081
0.0170388
0.016161
0.0153887
0.0148049
0.0144398
0.0142981
0.0143515
0.014549
0.0146894
0.0142136
0.0120761
0.00577447
0.0171047
0.0161345
0.0153083
0.014695
0.0143224
0.0141842
0.014253
0.0145006
0.0147192
0.0143164
0.0122064
0.00582557
0.0170167
0.0159618
0.0150913
0.014461
0.0140903
0.0139562
0.0140507
0.0143501
0.0146425
0.0143142
0.012247
0.00586591
0.0167563
0.0156318
0.0147333
0.0141015
0.0137444
0.0136211
0.0137475
0.0140974
0.0144543
0.0141943
0.0121839
0.00587626
0.0163147
0.015146
0.014241
0.0136247
0.0132859
0.0131853
0.0133483
0.013745
0.0141508
0.0139332
0.0119977
0.00583302
0.0156964
0.0145163
0.0136317
0.0130473
0.0127325
0.0126612
0.0128611
0.0132968
0.0137288
0.0135395
0.0117064
0.00573809
0.0149223
0.0137711
0.012933
0.0123921
0.0121028
0.0120602
0.0122929
0.0127547
0.0131732
0.0130398
0.0113218
0.00558328
0.0140297
0.0129467
0.0121732
0.0116773
0.0114064
0.0113871
0.0116468
0.0121178
0.0125499
0.0124609
0.0108659
0.00538017
0.0130764
0.01208
0.0113686
0.0108948
0.0106345
0.0106364
0.0109229
0.0113922
0.0118599
0.0118237
0.0103606
0.00514586
0.0120832
0.0111759
0.0105043
0.0100235
0.00977068
0.00980441
0.0101289
0.010643
0.0111426
0.0111502
0.00981694
0.00488819
0.0110603
0.0102076
0.00952137
0.00903113
0.00881242
0.00891358
0.00929199
0.0098921
0.0104259
0.0104681
0.00925152
0.00461293
0.00996898
0.00909428
0.00838712
0.00793766
0.00781842
0.00803748
0.00851965
0.00917897
0.00973391
0.0098028
0.00868411
0.00432645
0.00871994
0.00781964
0.0071725
0.00685488
0.00687489
0.00721702
0.00781525
0.00852562
0.00909055
0.00917254
0.00812994
0.00403409
0.00731366
0.00651586
0.00604585
0.00590018
0.00607211
0.00652508
0.0072107
0.0079478
0.00850698
0.00858623
0.00759679
0.00373982
0.00594148
0.00538496
0.0051341
0.00516289
0.00546437
0.00600171
0.0067177
0.00744694
0.00798037
0.00804076
0.00708389
0.00344614
0.00483669
0.00454828
0.0045004
0.00466732
0.00504713
0.00561674
0.00631695
0.00700718
0.00749424
0.00751776
0.00657007
0.00316661
0.00409727
0.00403314
0.00412882
0.00437138
0.00477962
0.00533541
0.0059799
0.00659785
0.00701764
0.00699168
0.0060418
0.0029112
0.0036992
0.00377583
0.00394302
0.00420825
0.00459292
0.00509683
0.00566625
0.00619993
0.00654135
0.00645461
0.00549683
0.00266922
0.00353028
0.00366059
0.00383899
0.00409136
0.0044367
0.00487527
0.00536058
0.00580161
0.00605438
0.00589727
0.00493513
0.00243371
0.00344619
0.00358326
0.00375296
0.00398072
0.00428019
0.00464934
0.005046
0.00538765
0.00554289
0.00531088
0.00436084
0.00219974
0.00336222
0.00348937
0.00364414
0.00384426
0.00409588
0.00439432
0.00469958
0.00493723
0.00499121
0.00469106
0.00378415
0.00196323
0.00322809
0.00333729
0.00347448
0.00364586
0.00384928
0.00407726
0.00429139
0.00442703
0.00438876
0.00404522
0.00322185
0.00171973
0.00299751
0.00308233
0.00319848
0.00333974
0.00349781
0.00366062
0.00379344
0.00384479
0.00374405
0.0033994
0.00269463
0.00146335
0.00261992
0.00266772
0.00276136
0.00287804
0.00300577
0.00312317
0.00320486
0.00321565
0.00310854
0.00281692
0.00224364
0.00118075
0.00202072
0.00202584
0.00210629
0.00221492
0.00233339
0.00244252
0.00252675
0.00256359
0.00251534
0.00231184
0.00183054
0.000859009
0.000933318
0.000986246
0.00105163
0.00112675
0.00120689
0.00127856
0.00133571
0.00136633
0.00134955
0.00124926
0.00100626
0.000449956
0.00955785
0.0186975
0.0219025
0.0248987
0.0280872
0.0311579
0.0337876
0.0358235
0.0372522
0.0381433
0.0386178
0.0388295
0.0389445
0.039118
0.039473
0.0400841
0.0409719
0.0421075
0.0434267
0.0448478
0.0462883
0.0476762
0.0489557
0.0500871
0.0510429
0.0518032
0.0523499
0.0526584
0.00999858
0.0197464
0.0233072
0.0264453
0.02958
0.0324098
0.0346793
0.0362781
0.0372326
0.0376538
0.0377083
0.0375942
0.0375139
0.0376379
0.0380734
0.0388467
0.0399051
0.0411381
0.0424073
0.0435757
0.0445283
0.0451801
0.0454743
0.0453775
0.0448611
0.043895
0.0424411
0.0404279
0.0103794
0.0206433
0.0245192
0.0277354
0.0307432
0.0332831
0.0351558
0.0362962
0.0367765
0.0367567
0.0364528
0.0361045
0.0359277
0.0360654
0.0365517
0.0373079
0.0381701
0.0389365
0.0394147
0.0394561
0.0389703
0.03792
0.0363069
0.0341593
0.0315157
0.0284234
0.025067
0.0218429
0.0107106
0.0213877
0.0255328
0.0287652
0.0315866
0.0338028
0.0352582
0.0359381
0.0359669
0.035558
0.0349733
0.0344714
0.0342412
0.0343427
0.0346889
0.0350775
0.0352558
0.0349924
0.0341279
0.0326006
0.0304353
0.0277294
0.0246343
0.0213331
0.018048
0.015302
0.0132095
0.011519
0.0109792
0.0219639
0.0263467
0.0295331
0.0321305
0.0340026
0.0350366
0.0352738
0.0348952
0.0341667
0.0333805
0.0327789
0.0324741
0.0324036
0.0323526
0.032035
0.0311914
0.0296651
0.0274361
0.0246139
0.0214084
0.0181038
0.0150185
0.0124429
0.0107283
0.00957895
0.00878894
0.00821145
0.0111913
0.0223899
0.026951
0.0300453
0.0324034
0.0339234
0.0345489
0.0343805
0.0336572
0.0326887
0.0317711
0.0310899
0.0306434
0.0302395
0.0295772
0.0283706
0.0264583
0.0238556
0.0207475
0.0174438
0.014324
0.0117354
0.00988223
0.00880729
0.00821081
0.00786133
0.00763919
0.00747821
0.0113507
0.0226715
0.027344
0.0303307
0.032438
0.0336123
0.0338585
0.0333384
0.0323463
0.0312189
0.030224
0.0294548
0.0287824
0.0279146
0.026538
0.0244633
0.0217141
0.0185219
0.01527
0.0123851
0.0101892
0.00877562
0.00801577
0.00767325
0.00752415
0.00746464
0.00744589
0.00743388
0.0114616
0.0228229
0.0275537
0.030417
0.0322718
0.0331198
0.0330298
0.0322247
0.0310461
0.0298346
0.028798
0.0279153
0.0269423
0.0255428
0.023473
0.0207203
0.0175266
0.014316
0.0115513
0.00954065
0.0083168
0.00769633
0.00744835
0.00738797
0.0074144
0.00747488
0.0075413
0.00759316
0.0115279
0.0228593
0.027605
0.0303344
0.0319445
0.0324968
0.0321242
0.0311085
0.0298247
0.0285926
0.0275336
0.0265063
0.0251835
0.0232512
0.020608
0.0174548
0.0142269
0.0114313
0.00941106
0.00820036
0.00759937
0.00736491
0.00733587
0.00740236
0.00750894
0.00762586
0.00773382
0.00781655
0.0115543
0.0227964
0.0275225
0.0301135
0.0314952
0.0317908
0.0311963
0.0300461
0.0287326
0.0275298
0.0264549
0.0252546
0.023563
0.0211506
0.0181058
0.0148317
0.0118767
0.00967327
0.00832428
0.0076444
0.00737309
0.00732941
0.007406
0.0075358
0.0076849
0.0078328
0.00796316
0.00806231
0.0115453
0.0226493
0.0273296
0.0297837
0.0309601
0.0310436
0.0302907
0.0290797
0.0278021
0.0266652
0.0255726
0.0241784
0.0221242
0.0193169
0.0160485
0.0128731
0.0103396
0.00869666
0.00782714
0.00745602
0.00736503
0.00742307
0.0075571
0.00772388
0.00789926
0.00806566
0.00820893
0.00831701
0.0115054
0.0224327
0.0270481
0.0293721
0.0303711
0.0302901
0.0294416
0.0282372
0.0270496
0.0260027
0.0248852
0.0232837
0.020892
0.0177868
0.0144459
0.0115002
0.00940343
0.00819899
0.00763789
0.00744958
0.00746249
0.00757985
0.00775009
0.00794204
0.00813502
0.00831333
0.00846424
0.0085768
0.0114391
0.0221599
0.0266979
0.0289027
0.029755
0.0295572
0.0286722
0.0275332
0.0264776
0.0255332
0.0243776
0.0225615
0.0198698
0.0165604
0.0132562
0.0105912
0.008873
0.00798066
0.00761415
0.00753887
0.00761616
0.00777249
0.00796906
0.00817971
0.0083855
0.00857199
0.00872732
0.00884143
0.0113503
0.0218428
0.0262965
0.0283957
0.029133
0.0288645
0.0279965
0.0269716
0.0260769
0.0252336
0.0240064
0.0219674
0.0190345
0.0156123
0.0124137
0.0100258
0.00860599
0.00792572
0.00768588
0.0076836
0.00780418
0.00798944
0.00820694
0.00843253
0.00864848
0.00884094
0.0089986
0.00911216
0.0112428
0.0214921
0.0258586
0.0278678
0.0285214
0.0282247
0.0274201
0.0265476
0.0258288
0.0250581
0.0237191
0.0214615
0.0183597
0.0149061
0.0118491
0.00970649
0.00851011
0.00797231
0.00781701
0.0078645
0.00801703
0.00822563
0.00846069
0.0086992
0.00892383
0.00912092
0.00927948
0.00939081
0.0111203
0.0211169
0.0253969
0.0273321
0.0279317
0.0276451
0.0269428
0.0262495
0.0257066
0.0249571
0.0235022
0.0210475
0.0178117
0.014391
0.0114984
0.00956173
0.00852751
0.00808802
0.00798991
0.00807289
0.00825057
0.00847883
0.00872961
0.00897999
0.00921253
0.00941341
0.00957176
0.0096794
0.0109858
0.0207247
0.0249213
0.0267988
0.0273718
0.0271286
0.0265592
0.0260605
0.0256693
0.0249197
0.0233487
0.0207191
0.0173826
0.0140346
0.0113098
0.00954145
0.00862386
0.0082526
0.00819477
0.00830454
0.008503
0.00874878
0.00901435
0.00927614
0.0095162
0.00972031
0.0098775
0.00998004
0.0108421
0.0203219
0.0244398
0.0262753
0.0268462
0.0266747
0.0262606
0.0259608
0.0256844
0.0249343
0.0232521
0.0204698
0.0170622
0.0138066
0.0112414
0.00961088
0.00877768
0.00845492
0.00842664
0.00855773
0.00877434
0.00903647
0.00931646
0.00958953
0.00983692
0.0100438
0.0101989
0.0102948
0.0106914
0.0199136
0.0239587
0.0257665
0.0263571
0.0262801
0.0260366
0.0259323
0.0257448
0.0249932
0.0232071
0.0202935
0.0168434
0.013673
0.0112568
0.00974558
0.00897557
0.00868879
0.00868338
0.00883249
0.00906576
0.00934379
0.00963815
0.00992255
0.0101771
0.0103862
0.0105381
0.0106258
0.0105359
0.0195038
0.0234824
0.0252759
0.0259046
0.0259399
0.0258752
0.0259547
0.0258428
0.0250895
0.0232078
0.0201839
0.016712
0.0136207
0.0113381
0.00992989
0.00920994
0.0089511
0.00896457
0.0091299
0.00937931
0.00967349
0.00998223
0.010278
0.0105396
0.0107502
0.0108976
0.0109751
0.0103771
0.0190957
0.0230144
0.0248054
0.0254876
0.0256478
0.025763
0.026002
0.0259703
0.025217
0.023249
0.0201349
0.0166573
0.0136402
0.0114711
0.0101518
0.00947638
0.00924075
0.00927091
0.00945186
0.00971751
0.0100284
0.0103519
0.0106593
0.0109275
0.0111386
0.0112797
0.0113445
0.0102165
0.0186918
0.022557
0.0243559
0.025104
0.0253974
0.0256894
0.0260703
0.0261211
0.0253703
0.0233258
0.0201412
0.0166711
0.0137238
0.0116463
0.0104042
0.00977112
0.00955736
0.00960383
0.00980084
0.0100835
0.0104119
0.0107509
0.0110699
0.0113442
0.0115543
0.0116868
0.0117357
0.0100553
0.0182939
0.0221118
0.0239273
0.0247512
0.0251825
0.0256455
0.0261552
0.0262901
0.0255451
0.0234351
0.0201982
0.0167449
0.0138626
0.0118618
0.0106852
0.0100925
0.00990144
0.00996548
0.0101799
0.0104809
0.0108281
0.0111834
0.011514
0.0117932
0.0120001
0.0121209
0.0121502
0.00989431
0.0179034
0.0216796
0.0235193
0.0244263
0.0249973
0.0256241
0.0262529
0.0264726
0.0257372
0.0235741
0.0203014
0.0168723
0.0140508
0.0121163
0.0109932
0.0104404
0.0102746
0.0103587
0.0105929
0.0109142
0.0112819
0.0116542
0.011996
0.0122784
0.0124791
0.0125838
0.0125887
0.00973441
0.0175212
0.0212609
0.023131
0.0241263
0.0248364
0.0256193
0.0263599
0.0266649
0.0259433
0.0237401
0.020447
0.0170481
0.014284
0.0124085
0.0113297
0.0108166
0.0106795
0.010787
0.011044
0.0113882
0.0117784
0.0121684
0.0125205
0.0128032
0.0129934
0.0130767
0.0130511
0.00957614
0.0171479
0.0208558
0.0227612
0.0238482
0.0246951
0.0256261
0.0264732
0.0268637
0.0261608
0.0239309
0.0206316
0.0172684
0.0145593
0.0127374
0.0116974
0.0112235
0.0111196
0.0112548
0.0115384
0.0119086
0.0123236
0.0127315
0.0130919
0.0133709
0.0135446
0.0135993
0.0135372
0.00941994
0.016784
0.0204642
0.0224089
0.0235893
0.0245695
0.0256405
0.02659
0.027066
0.0263872
0.0241447
0.0208524
0.0175298
0.0148748
0.013103
0.0120993
0.0116641
0.011599
0.0117671
0.0120819
0.0124817
0.0129236
0.0133489
0.0137144
0.0139833
0.0141323
0.0141518
0.0140466
0.00926615
0.0164296
0.0200858
0.0220726
0.0233469
0.0244559
0.025659
0.0267079
0.0272695
0.026621
0.0243797
0.0211069
0.01783
0.0152292
0.0135059
0.0125398
0.0121445
0.0121233
0.0123299
0.0126811
0.0131147
0.0135851
0.0140256
0.0143883
0.0146394
0.0147568
0.0147331
0.0145764
0.00911502
0.0160848
0.0197201
0.0217513
0.0231189
0.0243513
0.0256776
0.026825
0.0274721
0.0268605
0.0246345
0.0213931
0.018167
0.0156216
0.0139455
0.0130224
0.0126709
0.012698
0.0129496
0.0133433
0.0138163
0.0143121
0.0147602
0.0151145
0.0153402
0.0154168
0.0153395
0.015121
0.00896664
0.0157496
0.0193668
0.0214436
0.022903
0.0242528
0.0256936
0.0269394
0.0276718
0.0271045
0.0249078
0.0217094
0.0185395
0.016052
0.0144237
0.0135482
0.0132474
0.0133284
0.0136333
0.0140763
0.014591
0.0151049
0.0155554
0.0158933
0.0160836
0.0161075
0.0159643
0.0156721
0.00882116
0.0154238
0.0190252
0.0211485
0.0226976
0.024159
0.025707
0.027049
0.0278659
0.0273516
0.0251989
0.0220552
0.0189471
0.0165214
0.0149431
0.0141216
0.0138796
0.0140217
0.0143874
0.0148792
0.0154333
0.0159647
0.0164109
0.0167218
0.0168635
0.0168203
0.0165965
0.0162174
0.00867874
0.0151072
0.0186949
0.0208656
0.0225024
0.0240692
0.0257164
0.0271514
0.0280501
0.0275959
0.0255081
0.0224332
0.0193919
0.0170319
0.0155073
0.0147484
0.0145752
0.0147862
0.0152149
0.0157571
0.0163482
0.0168916
0.0173233
0.0175933
0.01767
0.0175424
0.0172214
0.0167407
0.00854006
0.0148003
0.0183759
0.0205935
0.0223151
0.0239814
0.0257213
0.0272455
0.0282238
0.0278359
0.0258256
0.0228409
0.0198798
0.0175875
0.0161236
0.0154367
0.0153415
0.015626
0.016121
0.016715
0.0173377
0.0178827
0.0182853
0.0184964
0.0184881
0.0182559
0.0178192
0.0172214
0.00840639
0.0145024
0.018067
0.0203312
0.0221345
0.0238947
0.0257212
0.0273305
0.0283865
0.0280713
0.0261509
0.0232714
0.0204042
0.0181886
0.016802
0.0161957
0.0161828
0.0165454
0.0171097
0.0177587
0.0183999
0.0189311
0.0192852
0.0194149
0.019298
0.0189383
0.0183656
0.017635
0.00827723
0.014213
0.0177676
0.020078
0.0219598
0.0238082
0.025716
0.0274061
0.0285382
0.0283021
0.0264836
0.0237245
0.0209649
0.0188369
0.0175409
0.0170267
0.0171026
0.0175474
0.0181819
0.0188824
0.0195269
0.0200244
0.0203057
0.0203273
0.0200744
0.0195617
0.0188318
0.0179533
0.00815217
0.013932
0.0174774
0.0198331
0.02179
0.0237214
0.0257054
0.027472
0.0286789
0.0285282
0.0268233
0.0241989
0.0215615
0.019536
0.0183438
0.0179322
0.0181039
0.018634
0.0193356
0.0200726
0.0207057
0.0211454
0.0213247
0.0212066
0.0207871
0.0200943
0.0191861
0.0181465
0.00803084
0.0136592
0.0171959
0.019596
0.0216247
0.023634
0.0256894
0.0275282
0.0288089
0.0287497
0.0271693
0.0246913
0.0221927
0.0202894
0.0192141
0.0189149
0.0191891
0.0198066
0.0205709
0.0213246
0.0219215
0.0222723
0.0223147
0.0220212
0.0214014
0.0205006
0.0193948
0.0181848
0.00791293
0.0133941
0.016923
0.0193662
0.0214632
0.0235457
0.025668
0.027575
0.0289285
0.0289667
0.0275215
0.0252019
0.0228577
0.0210954
0.0201528
0.0199768
0.0203598
0.0210651
0.0218905
0.0226277
0.0231546
0.0233785
0.0232434
0.0227345
0.0218791
0.0207434
0.0194248
0.0180421
0.00779817
0.0131367
0.016658
0.0191432
0.0213052
0.0234565
0.0256414
0.0276126
0.0290385
0.0291797
0.0278798
0.0257309
0.0235573
0.0219547
0.0211609
0.0211195
0.0216155
0.0224022
0.0232656
0.0239601
0.024379
0.0244324
0.024074
0.0233064
0.0221799
0.0207861
0.0192469
0.0176991
0.00768631
0.0128865
0.0164009
0.0189266
0.0211505
0.0233664
0.0256097
0.0276417
0.0291397
0.0293893
0.0282443
0.0262789
0.0242922
0.022868
0.0222398
0.022344
0.022955
0.0238117
0.0246809
0.0252976
0.0255644
0.0253975
0.0247654
0.0236942
0.0222632
0.0205953
0.0188393
0.017148
0.00757716
0.0126433
0.0161511
0.0187162
0.0209989
0.0232754
0.0255735
0.0276632
0.0292331
0.0295962
0.0286156
0.0268465
0.0250635
0.0238367
0.0233906
0.0236504
0.024376
0.0252888
0.0261219
0.026616
0.0266787
0.0262341
0.0252734
0.0238533
0.0220905
0.0201448
0.0181929
0.016397
0.00747052
0.012407
0.0159086
0.0185116
0.0208502
0.0231838
0.0255331
0.0276778
0.02932
0.0298015
0.0289945
0.0274348
0.0258726
0.0248621
0.0246144
0.0250375
0.0258723
0.0268293
0.0275648
0.0278852
0.027684
0.0268987
0.0255509
0.0237398
0.0216289
0.0194204
0.0173155
0.0154732
0.00736626
0.0121774
0.015673
0.0183127
0.0207046
0.0230919
0.0254892
0.0276869
0.0294018
0.0300066
0.029382
0.0280449
0.026721
0.0259459
0.0259115
0.0265007
0.0274257
0.0283721
0.0289745
0.0290665
0.0285348
0.0273417
0.0255492
0.0233123
0.0208557
0.0184255
0.0162369
0.0144245
0.00726423
0.0119542
0.0154441
0.0181194
0.020562
0.023
0.0254425
0.0276916
0.0294802
0.030213
0.0297797
0.0286786
0.0276107
0.0270898
0.0272814
0.0280339
0.0290226
0.0299048
0.0303236
0.0301183
0.0291812
0.027508
0.0252164
0.0225364
0.0197647
0.0171859
0.0150087
0.0133102
0.00716433
0.0117373
0.0152219
0.0179315
0.0204226
0.0229086
0.0253938
0.0276933
0.029557
0.0304224
0.0301892
0.0293377
0.0285438
0.028295
0.0287217
0.0296276
0.0306472
0.0314038
0.0315735
0.0309927
0.029568
0.027339
0.0245032
0.0213899
0.0183732
0.0157531
0.0136969
0.0121628
0.00706647
0.0115265
0.0150061
0.017749
0.0202866
0.0228182
0.025344
0.0276935
0.0296341
0.030637
0.0306126
0.0300246
0.0295224
0.0295616
0.0302266
0.0312671
0.0322869
0.0328408
0.0326802
0.0316365
0.0296337
0.0267743
0.0233696
0.0198745
0.0167277
0.0142127
0.0123543
0.0109952
0.00697059
0.0113217
0.0147966
0.0175719
0.0201542
0.0227292
0.0252941
0.0276938
0.0297135
0.030859
0.0310523
0.0307417
0.0305485
0.0308881
0.0317847
0.0329221
0.0338654
0.0341635
0.0335914
0.0319888
0.0293105
0.0257552
0.0217947
0.0180256
0.0149176
0.0126316
0.0110081
0.00976849
0.00687663
0.0111229
0.0145934
0.0174003
0.0200256
0.0226423
0.025245
0.0276956
0.0297974
0.0310907
0.0315108
0.0314915
0.0316231
0.0322695
0.0333789
0.0345621
0.0353522
0.0353265
0.0342521
0.031983
0.0285266
0.0242353
0.0197916
0.015921
0.0130366
0.0110642
0.00962569
0.0083752
0.00678457
0.0109299
0.0143964
0.0172341
0.0199011
0.0225579
0.0251977
0.0277007
0.0298879
0.0313346
0.0319908
0.0322765
0.0327455
0.0336962
0.0349851
0.036152
0.0367135
0.0362801
0.0346025
0.0315431
0.0272108
0.0221989
0.0174252
0.0136884
0.0111859
0.00951165
0.0081036
0.00685489
0.00669438
0.0107427
0.0142056
0.0170734
0.0197809
0.0224767
0.0251533
0.0277104
0.0299869
0.0315932
0.032495
0.0330981
0.0339121
0.0351518
0.0365697
0.0376444
0.0378971
0.0369666
0.0345737
0.0305921
0.025317
0.0196877
0.0148282
0.0114691
0.00941707
0.0078779
0.00650001
0.00544723
0.00660607
0.0105612
0.014021
0.0169183
0.0196652
0.022399
0.0251128
0.0277262
0.0300965
0.0318689
0.0330256
0.0339566
0.0351152
0.036612
0.0380897
0.038987
0.0388475
0.0373234
0.0340927
0.0290714
0.0228578
0.0168352
0.0121868
0.00940069
0.00769716
0.00623466
0.00506756
0.00438874
0.00651966
0.0103853
0.0138426
0.0167689
0.0195542
0.0223255
0.0250769
0.0277496
0.0302185
0.0321638
0.0335845
0.03485
0.036341
0.0380438
0.0394974
0.0401334
0.0395046
0.0372841
0.0330932
0.0269666
0.0199324
0.0138717
0.00971595
0.00756246
0.00608174
0.00479817
0.00403137
0.00373926
0.00643516
0.0102152
0.0136703
0.0166252
0.0194482
0.0222565
0.0250467
0.0277816
0.0303545
0.0324799
0.0341724
0.0357727
0.0375679
0.0394035
0.0407322
0.0410003
0.0398006
0.0367831
0.0315321
0.0243479
0.0167571
0.0111305
0.00765897
0.00602835
0.00471331
0.00376001
0.00342678
0.00342999
0.00635262
0.0100506
0.0135043
0.0164873
0.0193473
0.0221925
0.0250229
0.0278234
0.030506
0.0328187
0.0347884
0.0367146
0.0387666
0.0406411
0.0417354
0.0415389
0.0396806
0.0357738
0.029425
0.0214168
0.0137845
0.00890109
0.00614419
0.00484594
0.00369675
0.00314193
0.00316156
0.00330912
0.00627208
0.00989173
0.0133445
0.0163552
0.0192515
0.0221336
0.0250062
0.0278759
0.0306742
0.0331808
0.0354295
0.0376609
0.0399016
0.0417044
0.0424528
0.0417046
0.0391027
0.0342419
0.0268683
0.0184779
0.0113908
0.00739485
0.00521183
0.0040378
0.00304515
0.00287214
0.00305197
0.00322904
0.00619359
0.00973844
0.013191
0.0162289
0.0191609
0.0220802
0.0249971
0.0279397
0.0308599
0.0335661
0.0360902
0.0385913
0.040933
0.0425453
0.0428418
0.0414608
0.0380427
0.0322169
0.0240469
0.0158948
0.00987216
0.00667999
0.00482598
0.00362824
0.00276338
0.00274832
0.00295679
0.0031163
0.0061172
0.00959078
0.0130437
0.0161084
0.0190756
0.0220325
0.0249961
0.0280156