/*--------------------------------*- C++ -*----------------------------------*\
| =========                 |                                                 |
| \\      /  F ield         | OpenFOAM: The Open Source CFD Toolbox           |
|  \\    /   O peration     | Version:  v2012                                 |
|   \\  /    A nd           | Website:  www.openfoam.com                      |
|    \\/     M anipulation  |                                                 |
\*---------------------------------------------------------------------------*/
FoamFile
{
    version     2.0;
    format      ascii;
    class       volScalarField;
    location    "662";
    object      nut;
}
// * * * * * * * * * * * * * * * * * * * * * * * * * * * * * * * * * * * * * //

dimensions      [0 2 -1 0 0 0 0];


internalField   nonuniform List<scalar> 
6084
(
0.000446524
0.000462863
0.000480676
0.000500185
0.000521667
0.000545464
0.000572006
0.000601844
0.000635688
0.000674478
0.000719483
0.000772451
0.000835861
0.000913334
0.00101035
0.00113554
0.00130317
0.00153816
0.00188689
0.00244258
0.00237678
0.00245889
0.00254673
0.00264099
0.00274255
0.00285249
0.00297209
0.00310299
0.0032472
0.00340735
0.0035869
0.00379047
0.00402446
0.00429794
0.00462426
0.00502378
0.00552926
0.00619689
0.00713262
0.00856789
0.00401177
0.00413835
0.00427295
0.00441633
0.00456952
0.00473374
0.00491046
0.00510142
0.00530877
0.00553518
0.00578398
0.00605943
0.00636694
0.00671342
0.00710763
0.00756034
0.00808391
0.00868984
0.00938104
0.0101298
0.00503267
0.00518309
0.00534233
0.00551101
0.00568998
0.0058802
0.00608275
0.00629884
0.00652981
0.00677714
0.00704248
0.00732761
0.00763438
0.00796457
0.00831957
0.00869983
0.00910378
0.00952617
0.00995606
0.0103761
0.00551725
0.00567769
0.00584712
0.006026
0.00621496
0.0064147
0.00662591
0.00684925
0.00708533
0.0073346
0.0075973
0.00787333
0.00816207
0.00846219
0.00877142
0.00908648
0.00940319
0.00971754
0.0100285
0.0103439
0.00551832
0.00567845
0.00584766
0.00602638
0.00621522
0.00641487
0.00662602
0.00684933
0.00708538
0.00733463
0.00759732
0.00787335
0.00816208
0.00846219
0.00877143
0.00908648
0.00940319
0.00971754
0.0100285
0.0103439
0.00503562
0.00518514
0.00534371
0.00551194
0.00569061
0.00588063
0.00608304
0.00629904
0.00652994
0.00677723
0.00704254
0.00732765
0.00763441
0.00796458
0.00831958
0.00869984
0.00910378
0.00952618
0.00995607
0.0103761
0.00401548
0.00414095
0.00427472
0.00441757
0.00457038
0.00473433
0.00491086
0.00510169
0.00530895
0.0055353
0.00578407
0.00605949
0.00636697
0.00671344
0.00710764
0.00756035
0.00808392
0.00868984
0.00938105
0.0101298
0.0023785
0.00246089
0.00254824
0.00264211
0.00274334
0.00285304
0.00297247
0.00310324
0.00324737
0.00340747
0.00358698
0.00379052
0.00402449
0.00429797
0.00462427
0.00502379
0.00552926
0.00619689
0.00713262
0.00856789
0.000446623
0.000462949
0.00048074
0.000500232
0.0005217
0.000545487
0.000572023
0.000601855
0.000635696
0.000674484
0.000719487
0.000772454
0.000835863
0.000913335
0.00101035
0.00113554
0.00130317
0.00153816
0.00188689
0.00244258
0.000320974
0.000328609
0.000336566
0.000344895
0.000353644
0.000362869
0.000372627
0.000382981
0.000394002
0.000405769
0.000418372
0.000431915
0.00166139
0.00171295
0.00176465
0.00181692
0.00187015
0.00192471
0.00198099
0.00203937
0.00210024
0.002164
0.00223103
0.00230176
0.00289358
0.00297342
0.00305382
0.00313545
0.00321885
0.00330453
0.00339302
0.00348482
0.00358044
0.00368038
0.00378515
0.0038953
0.00370057
0.00379346
0.00388781
0.0039843
0.00408344
0.00418575
0.0042917
0.00440179
0.00451651
0.00463639
0.00476192
0.00489366
0.00410561
0.00420062
0.00429826
0.00439913
0.00450363
0.00461213
0.00472499
0.00484256
0.00496524
0.00509347
0.00522778
0.00536867
0.0041422
0.00422862
0.00431926
0.0044146
0.00451494
0.00462051
0.00473144
0.00484778
0.0049695
0.00509662
0.00523
0.00537021
0.00383074
0.00389455
0.0039643
0.00404054
0.00412371
0.00421436
0.00431318
0.00442021
0.00453134
0.00464699
0.00476898
0.00489819
0.00323271
0.00325625
0.00328624
0.00332287
0.00336627
0.00341671
0.00347439
0.00353951
0.00361752
0.00370626
0.00380084
0.00390349
0.00247371
0.00242956
0.00239042
0.00235643
0.00232692
0.00229999
0.00227363
0.00224963
0.00223677
0.00224518
0.00227809
0.0023236
0.00181501
0.00167215
0.00151857
0.00135518
0.00119011
0.00103575
0.000897073
0.000777561
0.00067878
0.000600313
0.000537619
0.000485904
6.87694e-05
6.54977e-05
6.3471e-05
7.08571e-05
9.24564e-05
0.000117077
9.83435e-05
0.00012559
0.000164508
0.000175874
0.000186163
0.00019566
0.000204548
0.000212951
0.000220962
0.000228652
0.00023608
0.000243299
0.000250355
0.000257291
0.000264145
0.00027096
0.000277774
0.000284627
0.000291562
0.00029862
0.000305845
0.000313281
0.000114917
0.000211032
0.00027758
0.000297558
0.000305786
0.000316523
0.000361719
0.000408425
0.000464434
0.000523187
0.000582616
0.000642798
0.00070386
0.000765768
0.000828395
0.000891545
0.00095497
0.0010184
0.00108156
0.00114419
0.00120601
0.00126681
0.00132644
0.00138483
0.00144199
0.00149802
0.0015531
0.00160748
0.000139839
0.00041165
0.000444318
0.000445233
0.000472213
0.000522541
0.000602639
0.000707828
0.000825008
0.000945614
0.00106704
0.00118823
0.00130857
0.00142752
0.00154463
0.00165949
0.00177172
0.00188101
0.00198712
0.0020899
0.00218932
0.00228546
0.00237852
0.00246879
0.00255666
0.00264258
0.00272705
0.00281061
0.000169993
0.000539184
0.000578495
0.000601593
0.000652809
0.000746365
0.00088207
0.00104479
0.00121776
0.00139177
0.00156261
0.00172802
0.00188688
0.00203865
0.00218324
0.00232075
0.00245152
0.00257595
0.00269456
0.00280794
0.00291671
0.00302152
0.00312306
0.003222
0.00331902
0.00341478
0.00350993
0.00360511
0.000197027
0.00065144
0.000679881
0.000764133
0.000854512
0.000998264
0.00118542
0.00139482
0.00160904
0.00181813
0.00201658
0.00220172
0.0023728
0.00253019
0.0026749
0.00280831
0.00293192
0.00304725
0.00315573
0.00325871
0.00335742
0.00345296
0.00354634
0.00363845
0.0037301
0.00382204
0.00391494
0.00400941
0.000222142
0.000682474
0.000775225
0.000937839
0.00107558
0.00126657
0.00149432
0.00173534
0.00197249
0.00219545
0.00239854
0.00257975
0.00273952
0.00287974
0.00300299
0.00311205
0.00320968
0.00329837
0.00338034
0.00345749
0.00353146
0.00360365
0.00367526
0.00374733
0.00382077
0.00389637
0.00397481
0.00405671
0.000237979
0.000715795
0.000881914
0.00112109
0.00130476
0.00153684
0.00179211
0.00204864
0.00229024
0.00250705
0.00269446
0.00285198
0.00298182
0.00308758
0.00317341
0.00324339
0.00330127
0.00335025
0.00339302
0.0034318
0.00346842
0.00350444
0.00354114
0.00357969
0.00362107
0.00366618
0.00371578
0.00377053
0.000250918
0.000777468
0.0010002
0.00130848
0.00153203
0.00179493
0.00206592
0.00232287
0.00255249
0.00274651
0.00290224
0.00302132
0.00310798
0.00316761
0.00320581
0.00322772
0.00323778
0.00323959
0.00323598
0.00322912
0.00322071
0.00321212
0.00320448
0.00319883
0.00319616
0.00319739
0.0032034
0.00321498
0.000261792
0.000867243
0.0011259
0.00149375
0.00174913
0.00203113
0.00230645
0.00255169
0.00275611
0.00291501
0.00302831
0.00310019
0.00313716
0.00314655
0.0031354
0.00310986
0.00307479
0.00303371
0.00298892
0.00294176
0.00289287
0.00284255
0.00279091
0.00273812
0.00268447
0.00263045
0.00257672
0.00252413
0.000270672
0.000960166
0.00125113
0.00164517
0.00195044
0.00224027
0.00250843
0.00273294
0.00290291
0.00301899
0.00308465
0.00310716
0.00309575
0.00306002
0.00300864
0.00294857
0.00288461
0.00281943
0.00275385
0.00268744
0.00261893
0.00254677
0.0024693
0.00238496
0.00229229
0.00218999
0.00207688
0.001952
0.00177869
0.00166996
0.00155507
0.00143237
0.00129954
0.00115544
0.000996527
0.000817773
0.000517173
0.000300516
0.000196856
0.000116794
0.00152331
0.00138822
0.00124944
0.0011082
0.000967549
0.000819365
0.000660277
0.000516148
0.000392891
0.000301764
0.000213275
8.74246e-05
0.00114941
0.00104524
0.000947291
0.000856966
0.000782821
0.000725756
0.000673392
0.000618531
0.000560944
0.000491094
0.000302082
7.69304e-05
0.00111007
0.00109782
0.00109653
0.00109119
0.00108867
0.00107389
0.00103851
0.000945564
0.000774351
0.000559937
0.00030713
7.89616e-05
0.00150172
0.00155408
0.00159537
0.00162436
0.00157831
0.00147941
0.00133391
0.00113214
0.000878776
0.000599618
0.000317196
8.27976e-05
0.00205565
0.00208608
0.00207485
0.00202669
0.00190592
0.00173414
0.00151735
0.00125788
0.000963038
0.000647505
0.000336967
8.69085e-05
0.00248773
0.00246103
0.00238862
0.0022738
0.00211317
0.00190974
0.0016638
0.00137617
0.00105187
0.000704205
0.000362658
9.10817e-05
0.00275922
0.00269344
0.00259216
0.00245516
0.0022797
0.00206305
0.00180215
0.00149543
0.00114605
0.000767183
0.000392106
9.52347e-05
0.00294368
0.00286241
0.00275162
0.0026084
0.00242831
0.00220609
0.00193635
0.00161522
0.0012438
0.000834638
0.000424292
9.93365e-05
0.00308708
0.00300093
0.00288816
0.00274448
0.00256418
0.00234041
0.00206577
0.00173394
0.00134346
0.000905338
0.000458654
0.000103379
0.00320772
0.00312047
0.00300839
0.00286651
0.00268831
0.00246566
0.00218926
0.00185014
0.0014437
0.000978391
0.000494858
0.000107366
0.00331283
0.0032255
0.00311486
0.00297571
0.00280096
0.00258142
0.00230593
0.00196271
0.00154345
0.00105311
0.000532688
0.000111307
0.00340581
0.00331833
0.00320912
0.00307297
0.00290249
0.00268755
0.00241522
0.00207081
0.00164188
0.00112893
0.000571985
0.000115214
0.0034888
0.00340063
0.00329245
0.00315923
0.00299342
0.00278417
0.00251687
0.00217388
0.00173831
0.00120534
0.000612606
0.000119103
0.00356337
0.00347378
0.00336604
0.00323543
0.00307441
0.00287158
0.00261081
0.00227154
0.00183219
0.00128188
0.000654395
0.000122992
0.00363078
0.00353899
0.003431
0.00330251
0.00314617
0.00295021
0.00269714
0.00236355
0.00192303
0.00135804
0.000697141
0.000126903
0.00369204
0.00359728
0.0034883
0.00336136
0.00320943
0.00302054
0.00277604
0.00244978
0.00201044
0.00143331
0.000740541
0.000130863
0.00374792
0.00364945
0.00353877
0.00341277
0.00326486
0.00308307
0.00284773
0.00253014
0.00209402
0.00150708
0.000784153
0.000134906
0.00379895
0.00369613
0.00358309
0.0034574
0.00331306
0.00313825
0.00291244
0.00260457
0.00217339
0.00157868
0.000827386
0.000139078
0.00384544
0.00373774
0.00362175
0.00349579
0.00335454
0.00318649
0.00297038
0.00267298
0.00224817
0.00164733
0.000869286
0.000143445
0.00388752
0.0037745
0.00365508
0.00352834
0.0033897
0.00322813
0.00302166
0.00273524
0.00231789
0.00171209
0.000908514
0.0001481
0.0039251
0.00380647
0.00368325
0.00355532
0.00341881
0.00326343
0.00306636
0.00279109
0.002382
0.00177415
0.00094656
0.000152975
0.00395796
0.00383354
0.0037063
0.00357688
0.00344203
0.00329258
0.00310599
0.00284323
0.00244434
0.00183577
0.000985115
0.000157877
0.00398576
0.00385545
0.0037241
0.00359339
0.00346086
0.0033173
0.00314089
0.00289121
0.00250404
0.00189674
0.00102425
0.000162805
0.00400806
0.00387277
0.00373781
0.00360548
0.00347459
0.00333672
0.00317051
0.0029345
0.00256053
0.00195669
0.00106388
0.000167737
0.00402598
0.00388524
0.00374622
0.00361206
0.00348256
0.00335024
0.0031943
0.0029725
0.00261315
0.00201508
0.00110378
0.000172659
0.004038
0.00389161
0.0037484
0.00361231
0.00348409
0.00335726
0.00321155
0.0030045
0.00266112
0.00207122
0.00114366
0.000177546
0.00404304
0.00389087
0.00374341
0.00360539
0.00347846
0.00335697
0.00322157
0.00302965
0.00270345
0.00212419
0.00118302
0.000182353
0.00404003
0.00388194
0.00373022
0.00359037
0.00346487
0.00334866
0.00322353
0.00304693
0.00273895
0.00217278
0.00122118
0.000187017
0.0040278
0.00386361
0.00370768
0.00356618
0.00344206
0.00333134
0.00321642
0.00305519
0.00276616
0.00221545
0.00125713
0.00019145
0.00400499
0.00383453
0.00367446
0.00353176
0.00340922
0.00330406
0.00319917
0.00305306
0.00278329
0.00225018
0.00128943
0.000195532
0.00397002
0.00379313
0.00362904
0.0034853
0.00336503
0.00326565
0.00317044
0.00303883
0.00278806
0.00227441
0.0013162
0.000199134
0.00392108
0.0037377
0.00356991
0.00342539
0.00330832
0.00321488
0.00312861
0.00298888
0.00258116
0.00225277
0.00133516
0.000202149
0.00385615
0.00366642
0.00349555
0.00335146
0.00323803
0.00315043
0.00307178
0.00265467
0.00230896
0.0020648
0.00134515
0.00020452
0.0037731
0.00357749
0.00340436
0.00326218
0.00315316
0.00307137
0.00275353
0.00237593
0.00209979
0.0019138
0.0013508
0.0002062
0.00366991
0.00346944
0.00329588
0.00315675
0.00305334
0.00289917
0.00247025
0.00215143
0.00193418
0.00179769
0.00135162
0.00020711
0.00354489
0.00334118
0.00316916
0.00303511
0.00293895
0.00261343
0.00223243
0.0019706
0.00180659
0.00171169
0.00134694
0.000207826
0.00339708
0.00319262
0.00302484
0.00289844
0.00281138
0.00236857
0.00203621
0.00183035
0.00171603
0.00165501
0.00133556
0.000208009
0.00322664
0.0030251
0.002865
0.00274912
0.00256665
0.00215906
0.00188128
0.00172779
0.00165972
0.00162771
0.00131764
0.000207242
0.00303535
0.00284146
0.00269321
0.00259083
0.00233566
0.00198395
0.00176427
0.00166065
0.00163517
0.00162896
0.0012936
0.000205549
0.00282705
0.00264655
0.00251457
0.00242835
0.00213108
0.0018431
0.00168484
0.00162905
0.00164018
0.0016569
0.00126356
0.000202757
0.00260778
0.00244672
0.00233482
0.00226655
0.00194324
0.00173578
0.00164482
0.00163512
0.00168692
0.00171994
0.00122879
0.000199035
0.00238628
0.0022491
0.00215909
0.0019973
0.00177473
0.00166899
0.00164947
0.00168464
0.00178233
0.00182255
0.00119042
0.000194653
0.00216879
0.00205806
0.00196447
0.00174186
0.00165311
0.00165705
0.00170783
0.00179764
0.0019314
0.00183788
0.0011472
0.000189717
0.00196026
0.00185212
0.00162792
0.00156341
0.00161659
0.00172017
0.00182583
0.0019631
0.00203269
0.00177228
0.00109932
0.000184298
0.00173661
0.00148339
0.00142654
0.00151406
0.00167558
0.00183167
0.0019372
0.00200919
0.00197161
0.00170253
0.00104842
0.000178483
0.00136788
0.00129419
0.00138715
0.00157033
0.00166355
0.00178198
0.00189656
0.00196122
0.00190826
0.00162981
0.000995818
0.000172347
0.00117362
0.00127065
0.00140816
0.00149739
0.00162104
0.00175484
0.00186523
0.00191406
0.00184239
0.00155464
0.00094233
0.000165942
0.00112733
0.00125638
0.00134149
0.0014673
0.00161027
0.00174272
0.0018366
0.00186356
0.00177148
0.00147575
0.000887478
0.000159294
0.00111348
0.00120061
0.00132603
0.00147259
0.00161613
0.00173012
0.00179956
0.00180167
0.0016882
0.00138536
0.000822141
0.000152697
0.00106691
0.00119453
0.00133903
0.00148354
0.00161095
0.00169628
0.00173875
0.00171578
0.00158266
0.00127543
0.000744242
0.000146409
0.00106085
0.00120095
0.00134157
0.001466
0.00156498
0.00162733
0.00164749
0.00160276
0.00145354
0.00114799
0.000659144
0.000140192
0.00105486
0.00118116
0.00129988
0.0014026
0.00147813
0.00152147
0.00152275
0.00146025
0.00130064
0.00100605
0.000571155
0.000133865
0.00101372
0.0011209
0.0012179
0.00129851
0.00135295
0.00137877
0.00136381
0.00128837
0.00112642
0.000854585
0.000484101
0.000127268
0.000940134
0.0010249
0.00109882
0.00115722
0.00119201
0.00120167
0.00117365
0.00109163
0.000937585
0.000701035
0.000401685
0.000120231
0.000834742
0.000895379
0.000946242
0.000983602
0.00100118
0.00099749
0.000961404
0.000881094
0.000746211
0.000555165
0.000327488
0.000112528
0.000679453
0.000736007
0.000766641
0.000786703
0.000792244
0.000780655
0.000743911
0.000674822
0.000568714
0.000427555
0.000264707
0.000103802
0.000517207
0.000550283
0.000567563
0.000578546
0.000580804
0.000570098
0.000542218
0.000493377
0.000421531
0.000327769
0.000217173
7.64829e-05
0.000329484
0.000331058
0.000342829
0.000355021
0.000362604
0.000363738
0.000355974
0.000336613
0.000302947
0.000252292
0.000178771
7.95299e-05
7.28934e-05
7.49318e-05
7.73757e-05
8.00918e-05
8.2891e-05
8.53168e-05
8.72027e-05
8.81965e-05
8.76534e-05
7.60163e-05
7.56881e-05
5.38628e-05
0.000278352
0.00106263
0.00138047
0.00178997
0.00214054
0.00242785
0.00267828
0.00287198
0.0030016
0.00306973
0.00308585
0.0030612
0.00300839
0.00293952
0.00286462
0.00279057
0.00272085
0.00265597
0.00259443
0.00253377
0.00247144
0.00240532
0.00233397
0.00225659
0.00217292
0.00208306
0.00198729
0.00188585
0.000284698
0.00116926
0.00151063
0.00193117
0.00230568
0.00258193
0.00280718
0.00296478
0.00305141
0.0030739
0.00304586
0.00298381
0.00290369
0.00281913
0.00273954
0.00266921
0.00260782
0.00255199
0.00249706
0.00243857
0.00237317
0.00229884
0.00221475
0.00212089
0.0020178
0.00190615
0.00178662
0.00165901
0.000290069
0.00128411
0.00164463
0.00207437
0.00244455
0.00270338
0.00289866
0.00301801
0.00306263
0.00304445
0.00298156
0.00289442
0.00280121
0.00271457
0.00264017
0.00257699
0.00251947
0.00246031
0.0023928
0.00231221
0.00221619
0.00210458
0.00197899
0.00184172
0.00169651
0.00154773
0.00140138
0.00126597
0.000294661
0.00140247
0.00178669
0.00222579
0.00255801
0.00279518
0.00295817
0.00303968
0.00304588
0.00299384
0.0029062
0.00280559
0.00270957
0.00262682
0.0025568
0.0024924
0.00242381
0.00234204
0.00224116
0.00211906
0.00197738
0.00182143
0.00165936
0.00150186
0.00136248
0.00125657
0.001186
0.00113867
0.000298332
0.00145125
0.00194157
0.00236279
0.002648
0.00286107
0.0029915
0.00303757
0.00301059
0.00293256
0.00282949
0.00272425
0.00263058
0.0025508
0.00247777
0.0023998
0.00230573
0.00218842
0.00204648
0.00188488
0.00171479
0.00155274
0.00141968
0.00133911
0.00132047
0.0013427
0.00138987
0.00144775
0.000301199
0.00149129
0.00208162
0.00244524
0.00271709
0.00290508
0.00300432
0.00301875
0.0029648
0.00286866
0.00275809
0.00265362
0.00256302
0.0024814
0.00239649
0.0022952
0.00216903
0.00201716
0.00184848
0.00168141
0.00154218
0.00146118
0.00146318
0.00153969
0.0016498
0.00176423
0.00187703
0.00197497
0.000303338
0.0015225
0.00214591
0.00251103
0.00276798
0.00293127
0.00300189
0.00298939
0.00291499
0.00280809
0.0026961
0.00259493
0.00250525
0.00241603
0.00231259
0.00218455
0.00203075
0.0018631
0.00170673
0.00159704
0.00157074
0.0016466
0.00180214
0.00197291
0.00213881
0.00228563
0.00238865
0.00245576
0.000304815
0.00154554
0.00219713
0.00256201
0.00280351
0.00294349
0.00298889
0.00295465
0.00286629
0.00275502
0.00264586
0.00254848
0.0024565
0.00235492
0.00223047
0.0020798
0.00191527
0.00176666
0.00167669
0.00168739
0.00181334
0.00201841
0.00224574
0.00244916
0.00260367
0.00271531
0.00277245
0.00278659
0.000305697
0.00156118
0.00223665
0.00260011
0.00282642
0.00294523
0.00296933
0.00291872
0.00282253
0.00271224
0.00260864
0.00251429
0.0024169
0.00230043
0.00215705
0.00199554
0.00184667
0.00175836
0.00177949
0.00192814
0.00216616
0.00244081
0.00267241
0.0028447
0.00294894
0.00300523
0.00301946
0.00299762
0.000306046
0.00157023
0.00226587
0.00262724
0.0028393
0.00293958
0.00294655
0.0028849
0.00278646
0.00268144
0.00258495
0.00249235
0.00238725
0.0022559
0.00209986
0.00194485
0.00184066
0.00184445
0.0019865
0.00223668
0.00253912
0.0028158
0.00300454
0.00311999
0.00318039
0.00320135
0.00318991
0.00315107
0.000305927
0.00157352
0.00228612
0.00264521
0.00284443
0.00292912
0.00292322
0.00285561
0.00275987
0.00266345
0.00257478
0.00248258
0.00236856
0.00222465
0.00206529
0.00193552
0.00189892
0.00200442
0.00224277
0.00255642
0.00286645
0.00309826
0.0032385
0.0033141
0.00334618
0.00334657
0.00332197
0.00327547
0.000305398
0.00157182
0.00229867
0.00265568
0.0028438
0.00291598
0.00290135
0.00283249
0.00274367
0.00265831
0.00257757
0.00248455
0.0023615
0.00220885
0.00205685
0.00196812
0.00200953
0.00220457
0.00250669
0.00284188
0.00312166
0.00330775
0.00341168
0.0034619
0.00347623
0.00346491
0.00343307
0.00338241
0.000304516
0.00156589
0.00230468
0.00266011
0.00283908
0.00290183
0.00288241
0.00281649
0.00273804
0.00266524
0.00259175
0.00249685
0.00236588
0.0022094
0.00207461
0.00203653
0.00215323
0.00241448
0.00275318
0.00307924
0.00332089
0.00347078
0.00355017
0.00358364
0.00358669
0.00356786
0.00353098
0.00347705
0.000303332
0.00155641
0.00230524
0.00265979
0.00283163
0.00288795
0.00286734
0.00280796
0.00274234
0.00268218
0.00251488
0.00242379
0.00238009
0.0022257
0.00211563
0.00213082
0.00231103
0.00261838
0.00297185
0.00327413
0.00348225
0.00360627
0.00366859
0.00369057
0.00368568
0.00366098
0.00361956
0.00356219
0.000301893
0.00154403
0.00230129
0.00265579
0.00282254
0.00287525
0.00285665
0.00280666
0.00275507
0.00260948
0.00232999
0.00228906
0.00239813
0.0022555
0.00217514
0.00224067
0.0024693
0.00280973
0.00316302
0.00343841
0.00362014
0.00372528
0.00377518
0.00378869
0.00377738
0.00374727
0.00370106
0.00363964
0.000300243
0.00152931
0.00229365
0.00264901
0.00281264
0.00286432
0.00285047
0.00281189
0.002774
0.00241389
0.00220232
0.00219497
0.00231549
0.0022956
0.00224786
0.0023578
0.00262283
0.00298223
0.0033275
0.00358093
0.00374279
0.0038339
0.00387455
0.00388126
0.00386411
0.00382845
0.00377694
0.00371073
0.000298422
0.00151274
0.00228303
0.00264017
0.00280256
0.00285553
0.00284864
0.00282248
0.00269358
0.0022747
0.00211649
0.00213097
0.00225271
0.00234378
0.0023289
0.00247579
0.00276726
0.00313595
0.00347157
0.00370781
0.00385499
0.0039358
0.00396929
0.00397008
0.00394718
0.00390562
0.0038482
0.00377646
0.000296463
0.00149475
0.00227006
0.00262988
0.00279276
0.00284903
0.00285076
0.00283708
0.00253191
0.0021783
0.00205874
0.00208875
0.0022124
0.00239741
0.00241404
0.00259044
0.00290183
0.00327508
0.00360053
0.00382344
0.00395993
0.00403316
0.00406081
0.00405607
0.00402729
0.0039794
0.00391548
0.00383752
0.000294396
0.00147571
0.00225522
0.00261858
0.00278352
0.00284482
0.00285631
0.0028545
0.00241389
0.00211191
0.00202075
0.0020634
0.00218908
0.00237811
0.00250002
0.0026995
0.00302736
0.00340331
0.00371838
0.00393089
0.00405963
0.00412715
0.00414977
0.00413964
0.00410473
0.00405008
0.00397911
0.00389435
0.000292247
0.00145593
0.00223896
0.00260664
0.00277505
0.00284276
0.00286463
0.00284899
0.00233004
0.00206713
0.00199815
0.00205051
0.00217797
0.00236506
0.00258498
0.00280243
0.00314506
0.00352282
0.00382767
0.00403206
0.00415516
0.00421829
0.00423629
0.00422073
0.00417943
0.00411763
0.00403918
0.00394713
0.000290036
0.00143567
0.00222162
0.00259432
0.00276742
0.00284262
0.00287493
0.00274183
0.0022707
0.00203896
0.00198753
0.00204718
0.00217599
0.00236401
0.00264381
0.00290087
0.00325433
0.00363245
0.00392951
0.00412794
0.00424693
0.00430646
0.00432006
0.00429896
0.00425101
0.00418177
0.00409553
0.00399584
0.000287783
0.00141514
0.00220348
0.00258182
0.00276067
0.00284414
0.00288661
0.00266026
0.00222961
0.00202297
0.00198605
0.00205119
0.002181
0.00237098
0.00265757
0.00299576
0.00335557
0.00373276
0.00402469
0.00421892
0.00433486
0.0043912
0.00440047
0.0043737
0.0043189
0.00424201
0.00414779
0.00404025
0.000285503
0.00139451
0.00218479
0.0025693
0.00275476
0.00284705
0.00289923
0.00260123
0.00220243
0.00201672
0.00199183
0.0020609
0.00219107
0.00238305
0.00267456
0.00308677
0.00345079
0.00382607
0.00411411
0.0043052
0.00441859
0.00447184
0.00447667
0.00444407
0.00438229
0.00429768
0.00419545
0.00407999
0.000283209
0.00137393
0.00216574
0.00255685
0.00274965
0.0028511
0.00291246
0.00255927
0.00218611
0.00201852
0.00200345
0.00207522
0.00220535
0.00239909
0.0026956
0.00313703
0.00354221
0.00391418
0.00419853
0.00438676
0.00449763
0.00454753
0.00454768
0.00450908
0.0044403
0.004348
0.0042379
0.00411455
0.000280912
0.0013535
0.00214647
0.00254454
0.00274524
0.00285605
0.00292605
0.00253045
0.00217851
0.00202687
0.00201978
0.00209332
0.00222316
0.00241827
0.00271877
0.0031601
0.00363121
0.00399843
0.00427855
0.00446352
0.00457135
0.00461735
0.00461245
0.00456771
0.004492
0.00439213
0.00427445
0.0041433
0.000278618
0.00133331
0.00212711
0.0025324
0.00274147
0.00286169
0.00293982
0.00251215
0.00217809
0.00204045
0.00203986
0.00211453
0.00224393
0.00244007
0.00274337
0.00318345
0.0037184
0.00407974
0.00435456
0.00453527
0.00463915
0.0046804
0.00466999
0.00461896
0.00453653
0.00442917
0.00430441
0.00416719
0.000276337
0.00131342
0.00210775
0.00252047
0.00273822
0.00286783
0.00295359
0.00250244
0.00218365
0.00205824
0.00206301
0.00213836
0.00226724
0.00246426
0.00276954
0.0032073
0.00375643
0.00415887
0.00442676
0.00460177
0.00470043
0.00473592
0.0047195
0.004662
0.0045732
0.00446035
0.0043293
0.00418549
0.000274072
0.00129388
0.00208847
0.00250875
0.00273543
0.00287432
0.00296726
0.00249985
0.00219422
0.00207944
0.0020887
0.00216443
0.00229274
0.00249053
0.00279701
0.0032319
0.00377471
0.0042355
0.00449499
0.00466273
0.00475473
0.00478336
0.00476049
0.00469789
0.00460399
0.00448536
0.00434776
0.00419702
0.000271828
0.00127472
0.00206931
0.00249723
0.00273298
0.00288099
0.00296988
0.00250324
0.00220906
0.00210339
0.00211652
0.00219247
0.00232025
0.00251883
0.00282569
0.00325869
0.00379629
0.00430857
0.00455893
0.00471788
0.0048017
0.00482303
0.0047949
0.00472745
0.00462824
0.00450342
0.00435884
0.00420079
0.000269606
0.00125597
0.00205034
0.00248592
0.00273081
0.00288771
0.00296431
0.00251162
0.00222744
0.00212957
0.00214613
0.00222226
0.00234959
0.00254914
0.0028559
0.0032869
0.00382065
0.00437606
0.00461848
0.00476719
0.00484148
0.00485648
0.00482323
0.00475067
0.00464559
0.00451389
0.00436165
0.00419571
0.00026741
0.00123763
0.00203157
0.00247479
0.00272885
0.00289441
0.00296372
0.00252413
0.00224865
0.00215757
0.00217728
0.00225373
0.00238066
0.00258135
0.00288744
0.00331681
0.00384627
0.00439237
0.00467324
0.00481036
0.00487602
0.00488473
0.00484603
0.00476762
0.00465568
0.00451604
0.00435515
0.00418053
0.000265243
0.00121972
0.00201303
0.00246393
0.00272713
0.00290101
0.0029673
0.00253988
0.00227205
0.00218673
0.00220991
0.00228715
0.00241378
0.00261567
0.00292072
0.003349
0.0038747
0.00440986
0.00472212
0.00484862
0.00490624
0.00490853
0.00486359
0.0047781
0.00465784
0.00450881
0.004338
0.00415373
0.000263115
0.00120215
0.0019947
0.00245312
0.00272538
0.00290736
0.00297412
0.00255826
0.00229724
0.00221671
0.00224299
0.0023223
0.00244989
0.00265278
0.00295731
0.00338543
0.00390747
0.00443209
0.0047663
0.00488292
0.00493288
0.00492822
0.00487577
0.00478146
0.00465097
0.00449072
0.00430848
0.0041135
0.000261047
0.00118454
0.0019763
0.00244226
0.00272357
0.00291344
0.0029834
0.00257877
0.00232388
0.00224728
0.00227639
0.00235839
0.00248799
0.0026922
0.00299889
0.00342769
0.00394409
0.00445697
0.00480687
0.00491395
0.00495632
0.00494364
0.00488182
0.00477643
0.00463338
0.00445982
0.00426447
0.0040577
0.000259034
0.00116695
0.00195786
0.00243136
0.00272166
0.00291921
0.00299449
0.00260091
0.00235164
0.00227825
0.00230996
0.00239528
0.00252786
0.00273382
0.00304398
0.00347406
0.00398316
0.00448299
0.00484482
0.00494253
0.00497651
0.00495399
0.00488031
0.00476106
0.00460279
0.00441363
0.00420349
0.00398396
0.00025707
0.00114947
0.00193942
0.00242042
0.00271962
0.00292467
0.00300681
0.00262423
0.00238016
0.00230941
0.00234355
0.0024327
0.00256908
0.00277769
0.00309184
0.00352269
0.00402298
0.00450886
0.00488071
0.00496894
0.0049927
0.00495774
0.0048691
0.0047328
0.00455637
0.00434926
0.00412277
0.00388983
0.00025515
0.00113217
0.00192101
0.00240943
0.00271743
0.00292981
0.00301981
0.00264829
0.00240911
0.00234052
0.00237689
0.0024699
0.00261083
0.00282357
0.00314162
0.00357174
0.00406166
0.00453356
0.00491452
0.00499219
0.00500336
0.0049527
0.00484544
0.00468853
0.00449088
0.00426355
0.00401946
0.00377297
0.00025327
0.00111506
0.00190266
0.00239839
0.00271506
0.00293462
0.00303297
0.00267259
0.00243811
0.00237128
0.00240971
0.00250652
0.00265237
0.00287003
0.00319163
0.00361922
0.00409747
0.00455659
0.00494572
0.00501111
0.00500649
0.00493614
0.00480612
0.00462477
0.00440283
0.00415329
0.00389091
0.00363152
0.000251427
0.00109821
0.0018844
0.00238731
0.00271252
0.00293912
0.00304576
0.00269667
0.00246678
0.0024014
0.00244162
0.00254212
0.00269304
0.00291588
0.00324029
0.00366365
0.00412992
0.00457777
0.00496496
0.00502426
0.00499965
0.0049049
0.00474753
0.00453782
0.00428873
0.00401553
0.00373501
0.00346448
0.000249617
0.00108162
0.00186625
0.00237619
0.0027098
0.0029433
0.00305767
0.00272003
0.00249471
0.00243051
0.00247225
0.0025762
0.00273213
0.00295999
0.00328624
0.00370412
0.00415941
0.00459932
0.00498254
0.00502951
0.00497989
0.00485538
0.00466582
0.00442393
0.00414531
0.00384788
0.00355064
0.00327222
0.000247838
0.00106534
0.00184825
0.00236503
0.0027069
0.0029472
0.00306823
0.00274215
0.00252147
0.00245825
0.00250118
0.00260821
0.00276884
0.00300121
0.00332812
0.00373976
0.00418647
0.00462384
0.00500743
0.00502339
0.00494287
0.0047834
0.00455704
0.00427953
0.00396986
0.00364899
0.00333821
0.00305706
0.000246088
0.00104939
0.00183041
0.00235386
0.00270383
0.00295082
0.003077
0.00276257
0.00254664
0.00248422
0.00252795
0.00263757
0.00280236
0.00303837
0.00336466
0.00376981
0.00421182
0.00465318
0.00502715
0.00500264
0.00488506
0.00468482
0.00441716
0.00410151
0.00376061
0.00341906
0.00310025
0.00282369
0.000244365
0.00103379
0.00181278
0.0023427
0.00270062
0.00295419
0.00308361
0.00278082
0.00256979
0.00250805
0.00255217
0.0026638
0.002832
0.00307067
0.00339544
0.00379546
0.00423672
0.00468054
0.00498776
0.00496437
0.00480341
0.00455634
0.00424286
0.00388735
0.00351718
0.00316033
0.00284183
0.00257942
0.000242666
0.00101857
0.00179539
0.00233157
0.00269729
0.00295734
0.00308778
0.00279653
0.00259056
0.00252939
0.00257351
0.00268651
0.0028574
0.00309792
0.00342121
0.00381916
0.00426237
0.00470649
0.0049394
0.00490553
0.00469451
0.00439476
0.00403171
0.00363611
0.00324102
0.00287761
0.00257074
0.00233349
0.000240992
0.00100376
0.00177828
0.00232051
0.00269387
0.00296031
0.00308936
0.00280943
0.00260866
0.002548
0.00259176
0.00270557
0.00287852
0.00312062
0.00344391
0.00384476
0.00429233
0.00468499
0.00488106
0.00482268
0.00455447
0.00419648
0.00378165
0.00334858
0.00293647
0.00257849
0.0022969
0.00209332
0.00023934
0.000989377
0.00176149
0.00230955
0.0026904
0.00296313
0.00308832
0.00281936
0.00262393
0.00256378
0.00260689
0.00272105
0.00289561
0.00313958
0.0034654
0.00387289
0.00432933
0.00464711
0.00480283
0.00471191
0.00437899
0.00395785
0.00349136
0.00302751
0.00261084
0.00227459
0.00202947
0.00186433
0.000237711
0.000975454
0.00174508
0.00229875
0.00268693
0.00296585
0.00308482
0.00282635
0.00263637
0.00257678
0.00261908
0.00273329
0.00290933
0.00315597
0.00348738
0.00390204
0.00434786
0.00459432
0.00469174
0.00456878
0.00416341
0.00367572
0.00316135
0.00267856
0.00227544
0.00197687
0.00177581
0.00163122
0.000236104
0.000962016
0.00172909
0.00228816
0.0026835