/*--------------------------------*- C++ -*----------------------------------*\
| =========                 |                                                 |
| \\      /  F ield         | OpenFOAM: The Open Source CFD Toolbox           |
|  \\    /   O peration     | Version:  v2012                                 |
|   \\  /    A nd           | Website:  www.openfoam.com                      |
|    \\/     M anipulation  |                                                 |
\*---------------------------------------------------------------------------*/
FoamFile
{
    version     2.0;
    format      ascii;
    class       volScalarField;
    location    "662";
    object      omega;
}
// * * * * * * * * * * * * * * * * * * * * * * * * * * * * * * * * * * * * * //

dimensions      [0 0 -1 0 0 0 0];


internalField   nonuniform List<scalar> 
6084
(
88.5433
91.7832
95.3154
99.184
103.444
108.163
113.426
119.342
126.053
133.745
142.67
153.173
165.747
181.109
200.347
225.171
258.412
305.008
374.16
484.351
39.8214
41.4521
43.2393
45.2055
47.379
49.7942
52.4938
55.5313
58.9736
62.9059
67.4373
72.7089
78.9047
86.2656
95.1044
105.819
118.875
134.697
153.195
172.12
31.347
32.7091
34.2031
35.8471
37.6643
39.6831
41.9378
44.4712
47.3364
50.6001
54.3472
58.6868
63.7612
69.7581
76.9302
85.6248
96.3337
109.787
127.158
150.603
28.5945
29.8737
31.2773
32.8224
34.5309
36.4294
38.5508
40.9356
43.6346
46.7121
50.2509
54.3589
59.1798
64.9088
71.8179
80.2977
90.9303
104.622
122.859
148.232
27.6387
28.8913
30.266
31.7797
33.4543
35.3161
37.3979
39.7402
42.3943
45.4254
48.918
52.9839
57.7731
63.4919
70.4316
79.0144
89.8722
103.981
122.899
149.197
27.637
28.8901
30.2651
31.7791
33.4538
35.3158
37.3977
39.7401
42.3942
45.4253
48.918
52.9839
57.7731
63.4919
70.4316
79.0144
89.8722
103.981
122.899
149.197
28.5886
29.8697
31.2746
32.8206
34.5296
36.4286
38.5503
40.9353
43.6344
46.712
50.2508
54.3589
59.1798
64.9088
71.8178
80.2977
90.9303
104.622
122.859
148.232
31.3352
32.7012
34.1976
35.8432
37.6617
39.6812
41.9366
44.4704
47.3358
50.5997
54.3469
58.6867
63.761
69.758
76.9301
85.6248
96.3336
109.787
127.158
150.603
39.8103
41.4383
43.2287
45.1975
47.3732
49.7902
52.4911
55.5295
58.9724
62.9051
67.4367
72.7085
78.9045
86.2654
95.1043
105.819
118.875
134.697
153.195
172.12
88.563
91.8004
95.3282
99.1933
103.45
108.167
113.429
119.345
126.055
133.747
142.67
153.174
165.747
181.11
200.347
225.171
258.412
305.008
374.16
484.351
63.6474
65.1615
66.7393
68.3907
70.1258
71.955
73.89
75.9431
78.1285
80.4618
82.9609
85.6465
28.0299
28.6508
29.326
30.0573
30.8469
31.6977
32.6134
33.5987
34.6593
35.8023
37.0362
38.3714
21.4495
21.9848
22.5613
23.1811
23.8466
24.5609
25.3275
26.151
27.0365
27.9906
29.0205
30.1353
19.2537
19.7701
20.3217
20.9114
21.5419
22.2164
22.9387
23.7135
24.5458
25.442
26.4093
27.4562
18.4482
18.9655
19.5151
20.0998
20.7226
21.3869
22.0969
22.8571
23.6733
24.5515
25.4989
26.5241
18.3539
18.8894
19.4551
20.0538
20.6883
21.3618
22.0786
22.8436
23.6632
24.5448
25.4948
26.5215
18.8449
19.428
20.0422
20.6901
21.3731
22.0921
22.8476
23.6422
24.4947
25.4095
26.3904
27.4459
19.9702
20.6377
21.3508
22.1166
22.9403
23.8244
24.7703
25.7781
26.7984
27.8365
28.9345
30.097
22.2562
23.068
23.9487
24.9314
26.061
27.3879
28.9514
30.7459
32.6829
34.5779
36.3134
38.044
27.4436
29.0576
30.7985
32.6724
34.7999
37.4457
40.7955
45.0427
50.409
57.1096
65.4397
75.9035
13.6367
12.9879
12.586
14.0506
18.3336
23.2158
26.9304
30.0243
32.6212
34.8749
36.9152
38.7984
40.5608
42.2271
43.8156
45.3404
46.8135
48.245
49.6442
51.0194
52.3786
53.7299
55.081
56.4401
57.8152
59.2148
60.6474
62.122
14.176
9.47098
10.4751
16.0484
20.2518
22.7194
23.8418
24.3632
24.6032
24.6717
24.663
24.6191
24.5606
24.5016
24.4531
24.4247
24.4244
24.4587
24.5327
24.6505
24.8156
25.0305
25.2969
25.6162
25.9892
26.4165
26.8988
27.4365
17.2504
10.4939
13.56
17.4088
19.6543
20.5905
20.774
20.6323
20.3274
19.9475
19.5645
19.2117
18.9049
18.652
18.4574
18.323
18.2493
18.2354
18.2797
18.3802
18.5343
18.7395
18.9933
19.2935
19.6386
20.0273
20.4587
20.9329
20.9702
12.7581
14.9858
17.1967
18.2974
18.5907
18.4621
18.1294
17.6949
17.2419
16.8254
16.4685
16.1805
15.964
15.8183
15.7407
15.7276
15.7749
15.8781
16.0328
16.235
16.481
16.7677
17.0926
17.4542
17.8513
18.2834
18.7509
24.3051
14.1851
15.4318
16.5083
16.9778
16.9916
16.7579
16.3904
15.9659
15.5547
15.1975
14.9098
14.6961
14.5556
14.485
14.48
14.5355
14.6464
14.8076
15.0143
15.2623
15.5478
15.8682
16.2211
16.6051
17.0197
17.4647
17.9408
27.4032
15.0385
15.4287
15.8157
15.8845
15.7637
15.5016
15.1574
14.7913
14.4567
14.1822
13.9781
13.846
13.7839
13.7876
13.8526
13.9737
14.1456
14.3633
14.6222
14.9178
15.2469
15.6066
15.9951
16.4112
16.8547
17.3257
17.8253
29.3569
15.5029
15.2278
15.1949
15.0399
14.8285
14.5671
14.268
13.9743
13.7233
13.534
13.4131
13.3611
13.3758
13.4537
13.5907
13.7821
14.0229
14.3079
14.632
14.9908
15.3801
15.7971
16.24
16.7078
17.2009
17.7203
18.2679
30.953
15.7022
14.9485
14.6618
14.3885
14.1234
13.8654
13.6168
13.3951
13.2241
13.116
13.0752
13.1025
13.1967
13.3561
13.578
13.8584
14.1925
14.5743
14.9973
15.4548
15.9409
16.4508
16.9811
17.531
18.1009
18.6941
19.3153
32.2944
15.7238
14.6496
14.2117
13.879
13.59
13.3372
13.1324
12.9762
12.8772
12.8433
12.8784
12.985
13.1648
13.4192
13.748
14.1491
14.6182
15.1487
15.7328
16.3618
17.0273
17.7215
18.438
19.1718
19.9198
20.6809
21.4577
33.3898
15.6675
14.3619
13.8332
13.4715
13.1771
12.939
12.7655
12.6642
12.6271
12.6586
12.764
12.949
13.2198
13.582
14.0391
14.5911
15.235
15.9649
16.7738
17.6554
18.6053
19.6223
20.7083
21.8688
23.1119
24.4479
25.8886
29.6116
31.3336
33.1499
35.0346
36.93
38.8355
40.6631
42.2384
43.0923
41.6896
36.5751
29.7631
24.7827
25.0224
25.0814
24.9268
24.5363
23.6801
22.156
20.2494
17.8675
15.1891
12.0119
11.8733
16.5514
15.7227
14.7319
13.6063
12.4151
11.1513
9.76842
8.46692
7.33516
6.35732
6.57529
10.4481
9.15435
8.26971
7.46321
6.77087
6.14169
5.61246
5.15519
4.91641
5.03583
5.45211
6.57001
10.7239
5.17214
4.76356
4.42941
4.13484
4.01779
3.99965
4.06221
4.26177
4.676
5.39347
6.81252
11.2449
3.56913
3.44945
3.38729
3.3619
3.42816
3.5592
3.76343
4.0768
4.56764
5.38612
6.99512
11.8032
2.97712
2.98552
3.03144
3.11017
3.22996
3.39652
3.62867
3.96501
4.48277
5.35895
7.11579
12.37
2.75911
2.81765
2.89707
2.99847
3.12846
3.29884
3.53208
3.87025
4.39809
5.31159
7.19083
12.934
2.66995
2.74357
2.83029
2.9336
3.06105
3.22612
3.45281
3.78557
4.31453
5.25123
7.233
13.4911
2.62946
2.70599
2.79183
2.89137
3.01266
3.16971
3.38722
3.71106
4.23526
5.18441
7.25183
14.0401
2.61189
2.68745
2.77007
2.86445
2.97876
3.12714
3.33449
3.64748
4.16288
5.11623
7.25441
14.5816
2.60817
2.68174
2.76077
2.84995
2.9574
3.09717
3.29414
3.59529
4.09926
5.05049
7.24618
15.1168
2.61458
2.68617
2.76186
2.84625
2.9473
3.07887
3.26565
3.55464
4.04559
4.99003
7.23146
15.6474
2.62929
2.69925
2.77207
2.85221
2.94744
3.0714
3.24848
3.52547
4.00267
4.93702
7.21391
16.1756
2.65127
2.72004
2.79049
2.86694
2.95701
3.07404
3.2421
3.5076
3.97096
4.89315
7.19679
16.7038
2.67985
2.74787
2.81645
2.88978
2.97533
3.08618
3.24602
3.50081
3.95079
4.85985
7.18337
17.2349
2.71468
2.78232
2.84945
2.92018
3.00185
3.1073
3.25983
3.50486
3.94235
4.83841
7.1771
17.7727
2.75558
2.82315
2.88918
2.95777
3.03616
3.13698
3.28316
3.51957
3.94582
4.83004
7.18201
18.3217
2.80255
2.87025
2.93545
3.00227
3.07794
3.1749
3.31575
3.54477
3.96134
4.83595
7.20266
18.8884
2.85574
2.92366
2.98818
3.05352
3.12698
3.22083
3.3574
3.58038
3.98911
4.8575
7.24553
19.4815
2.91541
2.9835
3.04737
3.11145
3.18315
3.2746
3.40797
3.62637
4.02934
4.8961
7.31922
20.1136
2.98192
3.04999
3.11312
3.17604
3.24638
3.33609
3.46741
3.6828
4.08237
4.9487
7.41386
20.7758
3.05566
3.12336
3.18556
3.24734
3.31669
3.40525
3.53447
3.7469
4.14276
5.0089
7.5137
21.4415
3.137
3.20389
3.26484
3.3252
3.39318
3.48075
3.6086
3.81866
4.21105
5.07644
7.61727
22.1108
3.22626
3.2913
3.35037
3.40924
3.47612
3.56291
3.68984
3.89807
4.28734
5.15146
7.72482
22.7806
3.32289
3.3858
3.44275
3.49989
3.5656
3.65174
3.77811
3.98502
4.37166
5.23408
7.83636
23.4492
3.42779
3.48793
3.54219
3.5972
3.66157
3.74711
3.87295
4.07925
4.46391
5.32436
7.95171
24.1128
3.54127
3.59778
3.64863
3.70104
3.7638
3.84839
3.97429
4.18052
4.56387
5.42221
8.07052
24.7657
3.66321
3.71509
3.76174
3.81102
3.87196
3.95554
4.08161
4.28834
4.67122
5.52744
8.19218
25.3991
3.79311
3.83928
3.88087
3.92652
3.98458
4.06761
4.1942
4.40208
4.78549
5.63967
8.31583
26.0011
3.93006
3.96943
4.00505
4.04684
4.1017
4.18382
4.3111
4.52087
4.90597
5.75824
8.44036
26.5555
4.07273
4.10422
4.13288
4.16923
4.22145
4.30277
4.43091
4.64328
5.03171
5.88253
8.56516
27.0447
4.21939
4.24193
4.2628
4.29236
4.34233
4.42258
4.55151
4.76728
5.16173
6.01228
8.6918
27.4542
4.3679
4.38042
4.39282
4.41651
4.46257
4.54083
4.67085
4.8939
5.29569
6.14032
8.82195
27.7762
4.51586
4.51739
4.52028
4.53834
4.57948
4.65529
4.78949
5.02308
5.42968
6.26493
8.93998
28.0043
4.66079
4.65046
4.64468
4.65512
4.69073
4.76495
4.90528
5.14769
5.55624
6.37781
9.03093
28.1279
4.80034
4.7773
4.76193
4.76455
4.79434
4.86806
5.01357
5.26111
5.6669
6.47077
9.09248
28.2251
4.93257
4.89623
4.87077
4.86522
4.88884
4.96142
5.10883
5.35573
5.75196
6.53457
9.12265
28.25
5.05626
5.00677
4.97066
4.95602
4.97273
5.0413
5.18481
5.42348
5.80236
6.55821
9.10545
28.1459
5.17119
5.10874
5.06148
5.03598
5.04309
5.1024
5.23419
5.45597
5.80972
6.53322
9.04946
27.9159
5.27838
5.20341
5.14325
5.10308
5.09491
5.13699
5.24751
5.44352
5.76211
6.46452
8.96024
27.5368
5.37992
5.29144
5.21375
5.15201
5.11952
5.13323
5.21237
5.37423
5.66247
6.35806
8.84277
27.0312
5.47983
5.37106
5.26544
5.17051
5.09969
5.07215
5.11308
5.23474
5.513
6.22217
8.70331
26.4361
5.57141
5.43028
5.2803
5.1332
5.00639
4.92996
4.93513
5.03901
5.3282
6.06686
8.5573
25.7657
5.64228
5.44573
5.22553
5.00084
4.80829
4.69343
4.67635
4.80474
5.1291
5.90658
8.41567
25.0297
5.66257
5.37409
5.04991
4.73913
4.50341
4.38807
4.39793
4.5685
4.93704
5.75778
8.28307
24.2401
5.57852
5.15333
4.72327
4.36525
4.13265
4.05
4.12075
4.3471
4.76379
5.62799
8.16409
23.4067
5.31701
4.7668
4.29345
3.9403
3.7458
3.71833
3.86584
4.15232
4.61736
5.52295
8.06171
22.5369
4.87382
4.2861
3.82717
3.51862
3.39345
3.44388
3.65767
3.99609
4.50491
5.44858
7.98204
21.6339
4.34376
3.7883
3.39389
3.16946
3.12297
3.24644
3.51028
3.88927
4.43918
5.42657
7.99141
20.7379
3.84032
3.37634
3.08343
2.94659
2.96696
3.14536
3.43919
3.8454
4.43408
5.4818
8.11806
19.884
3.48701
3.14403
2.93911
2.87056
2.93482
3.13202
3.43933
3.86828
4.5003
5.62255
8.33935
19.0397
3.34669
3.09914
2.95333
2.91698
3.00157
3.20432
3.52033
3.97301
4.65491
5.8618
8.64062
18.1804
3.39955
3.19678
3.08151
3.0656
3.1636
3.37208
3.69992
4.18177
4.92081
6.21457
9.00812
17.2844
3.57632
3.4046
3.31642
3.32199
3.4361
3.65683
4.00423
4.52282
5.32347
6.69162
9.42069
16.3288
3.86717
3.72723
3.67188
3.70664
3.84474
4.08753
4.46367
5.02448
5.8814
7.28652
9.83807
15.2827
4.29526
4.18791
4.17207
4.24523
4.41507
4.68916
5.09933
5.69749
6.58337
7.95078
10.1797
14.0975
4.93051
4.8479
4.8653
4.97462
5.17518
5.4783
5.91066
6.51764
7.37441
8.59422
10.3311
12.6633
6.13298
6.11928
6.14386
6.23884
6.43508
6.71507
7.09811
7.61584
8.30289
9.16338
10.118
10.8011
12.8039
13.1619
13.5912
14.0683
14.5599
14.986
15.3173
15.4919
15.3965
14.8133
13.2948
8.35373
34.3372
15.572
14.0818
13.4963
13.1215
12.8335
12.6154
12.4735
12.4108
12.4256
12.5145
12.6844
12.9453
13.3076
13.7795
14.3641
15.0585
15.8539
16.7384
17.7
18.7293
19.8212
20.9753
22.1959
23.4905
24.8689
26.3423
27.9228
35.12
15.4652
13.8264
13.2072
12.8292
12.5526
12.3538
12.2363
12.2018
12.2495
12.3802
12.5994
12.9194
13.3509
13.8977
14.5536
15.3021
16.12
16.9829
17.8694
18.7632
19.6534
20.5324
21.3955
22.2327
23.0282
23.7549
24.3687
35.7826
15.3566
13.5909
12.952
12.5763
12.3117
12.1283
12.0265
12.0081
12.0733
12.2261
12.4738
12.8258
13.2859
13.8445
14.4773
15.15
15.8258
16.4722
17.0642
17.5844
18.0178
18.3462
18.5475
18.5767
18.3645
17.8874
17.254
36.3491
15.25
13.3694
12.7189
12.3481
12.0932
11.9189
11.823
11.8084
11.8771
12.034
12.2867
12.6371
13.0739
13.5673
14.0738
14.5456
14.941
15.2278
15.3844
15.3917
15.224
14.8456
14.2045
13.2465
12.1776
11.1378
10.1162
36.8019
15.1344
13.1556
12.4992
12.1339
11.8846
11.712
11.6125
11.5908
11.6508
11.7974
12.0322
12.3448
12.7033
13.0571
13.349
13.5277
13.5555
13.4065
13.0586
12.4846
11.6593
10.5788
9.29188
8.12458
7.1341
6.32355
5.67188
37.1556
15.0138
12.9471
12.2873
11.9258
11.6773
11.4997
11.389
11.3523
11.3951
11.5192
11.7161
11.956
12.1865
12.3419
12.3608
12.1982
11.8263
11.2241
10.3745
9.28818
8.03143
6.75394
5.72015
4.97686
4.45596
4.06983
3.7865
37.4195
14.891
12.7424
12.079
11.719
11.4668
11.2791
11.1522
11.0965
11.1175
11.2103
11.3509
11.4888
11.5539
11.4755
11.1984
10.6926
9.94145
8.94694
7.75506
6.48686
5.32954
4.44792
3.8893
3.51792
3.2659
3.11719
3.02711
37.6017
14.767
12.5408
11.8723
11.5112
11.2519
11.0509
10.9065
10.8315
10.8292
10.8842
10.9537
10.9678
10.8465
10.5238
9.9626
9.15099
8.10344
6.88933
5.65409
4.58646
3.81307
3.31666
3.01654
2.84767
2.75286
2.72008
2.72489
37.7104
14.6423
12.3421
11.6666
11.3021
11.0337
10.8187
10.6582
10.5667
10.5421
10.5548
10.5422
10.4198
10.1073
9.55377
8.74691
7.7041
6.50109
5.28864
4.25299
3.50823
3.0174
2.74504
2.60216
2.54632
2.53753
2.56133
2.60759
37.7535
14.5178
12.1465
11.462
11.0926
10.8147
10.5874
10.4149
10.3115
10.2668
10.2342
10.1328
9.87035
9.37568
8.62239
7.62618
6.4524
5.24454
4.19043
3.41774
2.9038
2.60295
2.46494
2.41533
2.41634
2.44672
2.49636
2.5586
37.7388
14.3941
11.9546
11.2595
10.8845
10.5983
10.3621
10.1834
10.0737
10.0115
9.93195
9.73922
9.34078
8.68311
7.77057
6.65096
5.44498
4.33875
3.48994
2.91659
2.56939
2.39588
2.33352
2.33061
2.36068
2.41013
2.4711
2.53919
37.6736
14.2718
11.7669
11.0601
10.6798
10.3876
10.1475
9.96904
9.85892
9.78167
9.65451
9.37141
8.84694
8.05252
7.02329
5.84326
4.67942
3.71908
3.047
2.62136
2.39055
2.29154
2.27163
2.29413
2.34018
2.39929
2.4655
2.53571
37.5647
14.1516
11.5842
10.8652
10.4805
10.1857
9.9473
9.7757
9.67027
9.58005
9.40585
9.03598
8.39847
7.49542
6.38972
5.20063
4.12078
3.30533
2.76559
2.44829
2.29341
2.2394
2.2447
2.28251
2.33795
2.40256
2.47164
2.54279
37.4187
14.0341
11.4072
10.6759
10.2884
9.99478
9.76389
9.60542
9.50903
9.40789
9.18873
8.73547
7.99737
7.01455
5.86761
4.70511
3.72387
3.02696
2.58623
2.34676
2.24113
2.21543
2.23708
2.28489
2.34651
2.41491
2.4861
2.55802
37.2412
13.9195
11.2366
10.4932
10.1049
9.81644
9.59868
9.45879
9.37502
9.26544
9.003
8.46831
7.64479
6.6088
5.4475
4.33195
3.44637
2.8374
2.47137
2.28725
2.21457
2.20806
2.24114
2.2961
2.36244
2.43402
2.50725
2.58015
37.0377
13.8081
11.0727
10.3179
9.93078
9.65155
9.45203
9.33519
9.26696
9.15116
8.84556
8.23581
7.34172
6.26897
5.11526
4.05537
3.25127
2.71207
2.40118
2.25441
2.20439
2.21154
2.25306
2.31368
2.38412
2.4588
2.53426
2.60849
36.813
13.7001
10.9159
10.1504
9.76669
9.50039
9.32345
9.23316
9.18267
9.06194
8.71387
8.03605
7.08327
5.98801
4.85627
3.8539
3.11639
2.63161
2.36053
2.23974
2.20571
2.22287
2.27102
2.33651
2.41089
2.4888
2.56679
2.64269
36.5714
13.5955
10.7662
9.99106
9.61279
9.36272
9.2118
9.15054
9.1197
8.99432
8.60526
7.86629
6.86536
5.75895
4.65667
3.71013
3.02488
2.58159
2.34039
2.23823
2.21578
2.24054
2.29424
2.36424
2.44256
2.52394
2.60476
2.68267
36.3164
13.4942
10.6236
9.83988
9.46895
9.23788
9.11548
9.08468
9.0751
8.94512
8.51705
7.72378
6.68579
5.57422
4.50267
3.61014
2.96481
2.55304
2.33526
2.24694
2.23315
2.26398
2.32258
2.39696
2.47937
2.56444
2.64836
2.72852
36.0512
13.3961
10.4881
9.69676
9.33482
9.12489
9.03264
9.03302
9.04578
8.91124
8.44647
7.60558
6.53956
5.42682
4.38615
3.54332
2.92838
2.54089
2.34204
2.26432
2.25726
2.29322
2.35636
2.43514
2.52179
2.61078
2.69798
2.78052
35.7785
13.3009
10.3593
9.56145
9.20987
9.02257
8.96128
8.99348
9.02892
8.88975
8.39055
7.50857
6.4228
5.31223
4.30024
3.49958
2.91193
2.54394
2.3593
2.28973
2.28812
2.32869
2.39624
2.4795
2.57057
2.66361
2.75416
2.83907
35.5006
13.2085
10.237
9.43358
9.09346
8.92972
8.89952
8.96396
9.02198
8.8781
8.3467
7.43032
6.33219
5.22677
4.23946
3.47298
2.91191
2.5604
2.38623
2.32307
2.32614
2.37107
2.44312
2.53102
2.62664
2.72377
2.81759
2.9047
35.2194
13.1185
10.1208
9.31277
8.98489
8.84511
8.84563
8.94236
9.02269
8.8741
8.3134
7.36918
6.26388
5.16585
4.20029
3.46163
2.92469
2.58789
2.42227
2.36457
2.372
2.4214
2.49814
2.59088
2.69111
2.79224
2.88905
2.978
34.9364
13.0308
10.0102
9.19854
8.88345
8.76758
8.7981
8.92685
9.02907
8.87583
8.28926
7.32325
6.21477
5.12599
4.18081
3.46359
2.94743
2.62497
2.46722
2.41474
2.42666
2.48088
2.56266
2.66041
2.76522
2.87007
2.96935
3.05956
34.6529
12.9451
9.90504
9.09044
8.7884
8.69605
8.75558
8.91583
9.03938
8.88168
8.27303
7.29071
6.18228
5.10445
4.17896
3.47745
2.97878
2.67093
2.52118
2.47429
2.49122
2.55091
2.63817
2.74108
2.85023
2.95833
3.05927
3.14993
34.3701
12.8612
9.80476
8.98799
8.69907
8.62956
8.71692
8.90795
9.05214
8.8904
8.26365
7.26995
6.16427
5.09897
4.19275
3.50235
3.01837
2.72556
2.5846
2.54415
2.56699
2.63302
2.72625
2.83438
2.94738
3.05805
3.1594
3.24853
34.0886
12.7788
9.70903
8.89074
8.61481
8.56726
8.68113
8.90202
9.06607
8.90099
8.26023
7.25957
6.15892
5.10766
4.22072
3.53826
3.06627
2.78898
2.65818
2.62549
2.65544
2.72885
2.82847
2.94175
3.05765
3.16842
3.26884
3.35603
33.8092
12.6979
9.61749
8.79826
8.53503
8.50842
8.64738
8.89702
9.08013
8.91268
8.26202
7.25841
6.16466
5.12885
4.26104
3.58551
3.12382
2.8623
2.74303
2.71967
2.75826
2.84008
2.94625
3.06272
3.17972
3.29001
3.38866
3.47302
33.5324
12.6183
9.5298
8.71015
8.45921
8.45239
8.61499
8.89213
9.09346
8.92487
8.26845
7.26551
6.18012
5.16085
4.3092
3.64483
3.19455
2.94715
2.84049
2.82824
2.87738
2.96745
3.07832
3.19717
3.31449
3.42337
3.51918
3.59957
33.2583
12.5398
9.44566
8.62603
8.38688
8.39864
8.58346
8.88667
9.10536
8.93714
8.27906
7.28018
6.20423
5.20266
4.36538
3.71423
3.27757
3.0444
2.9519
2.95274
3.01375
3.11026
3.22511
3.34548
3.46211
3.56843
3.66014
3.73527
32.9874
12.4623
9.36478
8.54557
8.31765
8.34678
8.55251
8.88001
9.11492
8.9491
8.29359
7.30211
6.23638
5.25391
4.42945
3.7928
3.37273
3.15507
3.07868
3.09315
3.16514
3.26828
3.38647
3.50737
3.62214
3.72457
3.81079
3.87926
32.72
12.3858
9.28694
8.4684
8.25133
8.29685
8.52191
8.87145
9.12081
8.95895
8.3119
7.33187
6.27722
5.31478
4.50139
3.88008
3.4799
3.28161
3.22205
3.24981
3.33213
3.44127
3.56183
3.68206
3.7936
3.89069
3.9699
4.03027
32.4575
12.3116
9.21238
8.39484
8.18787
8.24852
8.49134
8.86064
9.12287
8.96631
8.33029
7.36785
6.32889
5.38538
4.58187
3.97711
3.60317
3.42519
3.38228
3.42316
3.51472
3.62864
3.75024
3.86836
3.97511
4.06525
4.13585
4.18656
32.2025
12.243
9.14183
8.32476
8.12702
8.20153
8.46052
8.84734
9.12105
8.97121
8.34874
7.40787
6.38808
5.46075
4.67425
4.09191
3.7431
3.58571
3.55944
3.61394
3.71241
3.82938
3.9504
4.06474
4.165
4.24642
4.30664
4.34606
31.9542
12.1796
9.07501
8.2579
8.06851
8.15568
8.42928
8.8314
9.1154
8.97372
8.3673
7.45213
6.45507
5.54207
4.77658
4.22238
3.8994
3.76285
3.75285
3.8204
3.92381
4.04208
4.16074
4.26948
4.36136
4.43212
4.48005
4.5064
31.7119
12.1204
9.01166
8.19406
8.01215
8.11079
8.39746
8.81277
9.10603
8.97396
8.38599
7.50016
6.52889
5.63143
4.89068
4.36778
4.07167
3.95615
3.96164
4.03961
4.14719
4.26512
4.37959
4.48078
4.56221
4.62016
4.6537
4.66511
31.475
12.0646
8.95152
8.13303
7.95777
8.06674
8.36499
8.79148
9.09315
8.97209
8.4047
7.54903
6.60641
5.73158
5.01903
4.52809
4.25962
4.16526
4.18574
4.2716
4.38136
4.497
4.60529
4.69681
4.76553
4.80833
4.82522
4.81977
31.2431
12.012
8.89436
8.07463
7.90523
8.02343
8.33182
8.76763
9.07701
8.9683
8.42341
7.59898
6.68758
5.84108
5.16064
4.70304
4.46282
4.3897
4.42616
4.51552
4.62492
4.7362
4.83621
4.9158
4.96933
4.99445
4.99235
4.9682
31.0157
11.9619
8.83996
8.01871
7.85441
7.98081
8.29796
8.74139
9.05794
8.96285
8.44222
7.6503
6.77273
5.95943
5.31479
4.89215
4.68058
4.6278
4.67725
4.76888
4.87614
4.98122
5.07085
5.13604
5.17168
5.17644
5.1531
5.10873
30.7924
11.914
8.78811
7.96511
7.8052
7.93882
8.26345
8.71299
9.03631
8.95602
8.46131
7.70337
6.86225
6.0864
5.48097
5.09492
4.91216
4.87852
4.93753
5.02984
5.13353
5.2308
5.30784
5.35592
5.3707
5.35238
5.30591
5.24048
30.573
11.8679
8.73861
7.9137
7.75754
7.89746
8.22839
8.68271
9.01254
8.94819
8.48096
7.75859
6.95655
6.22198
5.65886
5.31083
5.1569
5.1418
5.20666
5.29842
5.39741
5.4844
5.54601
5.57382
5.56455
5.52064
5.44988
5.36364
30.3571
11.8231
8.69124
7.86435
7.71135
7.85673
8.19289
8.6509
8.9871
8.93976
8.50154
7.81646
7.05617
6.36634
5.84824
5.53921
5.41373
5.41845
5.48319
5.5741
5.66707
5.74167
5.78446
5.78805
5.75143
5.68004
5.5852
5.47978
30.1445
11.7794
8.64581
7.81693
7.66658
7.81665
8.1571
8.61792
8.96052
8.93122
8.5235
7.87754
7.16166
6.51976
6.04886
5.77896
5.67959
5.69779
5.76522
5.85504
5.94052
6.0008
6.02168
5.99697
5.92965
5.83024
5.71354
5.59214
29.935
11.7362
8.60209
7.77133
7.62319
7.77726
8.1212
8.58419
8.93334
8.9231
8.54734
7.94241
7.27361
6.68248
6.26033
6.02887
5.95311
5.98097
6.05226
6.13966
6.21604
6.25927
6.25452
6.19794
6.09829
5.97227
5.83826
5.70397
29.7285
11.6933
8.55988
7.72741
7.58113
7.73859
8.08538
8.55012
8.90612
8.91594
8.5736
8.0117
7.39257
6.85463
6.48191
6.28741
6.23329
6.26845
6.34243
6.42646
6.49208
6.51475
6.4795
6.38774
6.25693
6.10945
5.9632
5.81029
29.5248
11.6502
8.51894
7.68505
7.54035
7.70071
8.04984
8.51615
8.87945
8.91034
8.60287
8.086
7.51905
7.03612
6.71241
6.55247
6.52014
6.55892
6.63392
6.71414
6.76724
6.76485
6.69355
6.56464
6.40704
6.24847
6.08743
5.89769
29.3238
11.6066
8.47903
7.64412
7.50082
7.66365
8.01479
8.4827
8.85389
8.90688
8.63572
8.1659
7.65337
7.22642
6.94967
6.81967
6.80198
6.84708
6.92449
7.00161
7.04002
7.00685
6.89414
6.72958
6.55589
6.38971
6.19892
5.93243
29.1255
11.5621
8.43992
7.60448
7.46248
7.62748
7.98043
8.45018
8.82999
8.90611
8.67268
8.25185
7.79551
7.42421
7.1906
7.08524
7.07881
7.13072
7.21288
7.28812
7.30866
7.23774
7.08006
6.88729
6.70917
6.5266
6.2617
5.84869
28.9299
11.5162
8.40135
7.56598
7.42527
7.59222
7.94695
8.41897
8.80823
8.90853
8.71419
8.34403
7.94481
7.62702
7.4309
7.34426
7.34745
7.40707
7.49775
7.57336
7.57059
7.45485
7.25322
7.04812
6.86969
6.62801
6.19997
5.55781
28.7369
11.4686
8.36307
7.52847
7.38913
7.55792
7.91451
8.38937
8.78903
8.91454
8.76054
8.44232
8.0999
7.83132
7.66538
7.59141
7.60291
7.67278
7.77716
7.8562
7.82188
7.65693
7.4215
7.22072
7.01853
6.62079
5.91175
5.0655
28.5468
11.419
8.32484
7.4918
7.35398
7.52457
7.88324
8.36166
8.77271
8.92443
8.81179
8.54607
8.25838
8.03228
7.88846
7.82414
7.84117
7.92421
8.04843
8.1337
8.057
7.84792
7.59636
7.4068
7.09851
6.39093
5.39825
4.50197
28.3594
11.367
8.28642
7.4558
7.31972
7.49218
7.85324
8.33601
8.7595
8.93833
8.86771
8.65395
8.41658
8.22371
8.0929
8.03592
8.05619
8.15615
8.30722
8.40166
8.27014
8.03995
7.78937
7.58141
7.01547
5.91492
4.81094
4.01431
28.1751
11.3123
8.24758
7.42031
7.28627
7.46073
7.82456
8.31254
8.7495
8.95618
8.92767
8.76373
8.56949
8.39831
8.27045
8.21436
8.24008
8.3613
8.54655
8.65468
8.45753
8.26074
8.01968
7.70535
6.71861
5.33627
4.33309
3.73109
27.9938
11.2548
8.2081
7.38518
7.25351
7.43017
7.7972
8.29127
8.74266
8.97768
8.99057
8.87231
8.71121
8.54893
8.41493
8.35538
8.38666
8.5314
8.75779
8.89075
8.65158
8.52188
8.28713
7.75767
6.29581
4.86213
4.10294
3.69492
27.8158
11.1942
8.16782
7.35026
7.22134
7.40044
7.77116
8.27214
8.73885
9.00235
9.05483
8.97585
8.8356
8.66967
8.52278
8.45557
8.48998
8.65749
8.93167
9.10743
8.87011
8.82877
8.60501
7.79032
5.93201
4.6973
4.16846
3.83332
27.6412
11.1304
8.12657
7.31541
7.18965
7.37149
7.74635
8.25505
8.73779
9.02943
9.11839
9.06999
8.93694
8.75613
8.5914
8.51157
8.54423
8.73117
9.05915
9.29709
9.13517
9.19804
9.01647
7.96631
5.97415
4.87654
4.4004
4.09798
27.4702
11.0634
8.08426
7.28051
7.15834
7.34321
7.72269
8.2398
8.7391
9.05798
9.17876
9.1502
9.01055
8.80545
8.61805
8.52067
8.54549
8.74711
9.12846
9.43566
9.43968
9.59952
9.55188
8.66983
6.54022
5.29377
4.78732
4.50595
27.303
10.9932
8.04079
7.24547
7.12732
7.31555
7.70007
8.22617
8.74233
9.08677
9.23317
9.21236
9.05344
8.81705
8.60246
8.48122
8.49352
8.70202
9.10797
9.50603
9.70056
9.98359
10.2648
9.92355
7.76368
6.04604
5.40229
5.13012
27.1399
10.9197
7.99615
7.2102
7.0965
7.28843
7.67837
8.21392
8.74687
9.11441
9.27878
9.25327
9.06471
8.79251
8.54671
8.39459
8.38471
8.5682
8.96915
9.45816
9.86655
10.3048
11.0047
11.5405
10.1155
7.55591
6.47965
6.2572
26.9811
10.8431
7.95054
7.17487
7.06603
7.26196
7.6576
8.20282
8.7521
9.13927
9.31296
9.27124
9.04577
8.73525
8.45361
8.26423
8.21389
8.33818
8.68505
9.2121
9.79888
10.476
11.5131
12.9264
13.6402
11.6076
11.3529
11.49
26.8588
10.7807
7.91353
7.14649
7.04171
7.24099
7.64136
8.19448
8.75643
9.15665
9.33108
9.26749
9.00591
8.65965
8.3422
8.11297
8.00127
8.0314
8.26026
8.7228
9.37571
10.1981
11.3547
13.2023
15.8271
17.121
11.3264
10.2249
26.7395
10.7173
7.87606
7.11815
7.01766
7.22047
7.62568
8.18662
8.76041
9.17035
9.33929
9.24872
8.95072
8.56981
8.22283
7.95396
7.77827
7.72051
7.82672
8.16671
8.74868
9.56543
10.6788
12.3459
14.9992
18.7411
21.3327
10.4686
26.6228
10.6529
7.83779
7.08942
6.99345
7.19997
7.61015
8.17891
8.76371
9.17994
9.33717
9.21458
8.87837
8.46351
8.08715
7.77487
7.52933
7.38133
7.35891
7.54289
7.95867
8.61793
9.55827
10.8739
12.7627
15.4784
18.8151
18.7743
24.6449
23.5817
22.7574
22.197
21.7298
21.2777
20.7526
20.0372
18.9561
17.3807
14.7378
6.82891
8.57159
8.57052
8.66887
8.8315
9.05851
9.3532
9.72294
10.1674
10.6478
11.0495
11.1324
10.2679
6.53026
6.73148
6.97115
7.25808
7.60504
8.0281
8.55235
9.21088
10.0368
11.0395
12.154
12.608
5.61505
5.85024
6.11726
6.42675
6.79376
7.23957
7.79723
8.51675
9.46913
10.7561
12.466
14.2865
4.96975
5.20441
5.47033
5.77812
6.14241
6.5862
7.14664
7.88384
8.89648
10.3447
12.4633
15.5706
4.47669
4.69891
4.95436
5.25143
5.60405
6.03524
6.5833
7.31348
8.34145
9.87044
12.2963
16.6098
4.09701
4.30544
4.54718
4.82984
5.16673
5.58034
6.10889
6.81972
7.83701
9.40295
12.0545
17.4915
3.80801
4.00265
4.22993
4.49704
4.8167
5.21079
5.7171
6.40358
7.40051
8.97875
11.7985
18.2622
3.59028
3.77201
3.98527
4.23692
4.53924
4.91351
5.39698
6.05779
7.03009
8.60645
11.5526
18.948
3.42778
3.59785
3.79804
4.035
4.32061
4.67562
5.13678
5.77217
6.71852
8.28493
11.3268
19.5665
3.30759
3.46731
3.65561
3.87894
4.14887
4.48567
4.92561
5.53663
6.45723
8.00924
11.1241
20.1301
3.21947
3.3701
3.54772
3.75862
4.01405
4.33389
4.75401
5.34214
6.23805
7.77338
10.9442
20.6485
3.15539
3.29804
3.46616
3.66584
3.90802
4.21225
4.61404
5.18099
6.05369
7.57153
10.7858
21.1289
3.10903
3.24472
3.40446
3.59411
3.82429
4.11424
4.49923
5.04674
5.89801
7.39847
10.6469
21.5775
3.0755
3.20513
3.35753
3.53829
3.7577
4.03468
4.40436
4.93419
5.7659
7.24971
10.5256
21.9991
3.05102
3.17537
3.3214
3.49439
3.70421
3.96949
4.32528
4.83913
5.65317
7.12147
10.4198
22.398
3.03268
3.15244
3.29303
3.45931
3.66068
3.91548
4.25873
4.75822
5.55645
7.01061
10.3281
22.7778
3.01829
3.13406
3.27003
3.43063
3.6247
3.87017
4.20217
4.68882
5.47301
6.91452
10.2488
23.1418
3.00622
3.11848
3.25061
3.40652
3.59439
3.83166
4.15362
4.62884
5.40066
6.83105
10.1807
23.4928
2.99531
3.10442
3.23337
3.38558
3.56834
3.79853
4.11155
4.57663
5.33761
6.75837
10.1226
23.8334
2.98475
3.09093
3.21729
3.36677
3.54556
3.76971
4.0748
4.53084
5.28235
6.69496
10.0736
24.1661
2.97398
3.07734
3.20153
3.34925
3.52529
3.74432
4.04235
4.49034
5.2336
6.63949
10.0328
24.4932
2.96242
3.06299
3.18535
3.33161
3.50602
3.72143
4.01321
4.45404
5.19024
6.59079
9.9993
24.8169
2.94988
3.04731
3.16754
3.31242
3.48563
3.6991
3.98651
4.42099
5.1513
6.5479
9.97251
25.1394
2.93534
3.02931
3.14733
3.29116
3.46379
3.6765
3.96108
4.39049
5.11605
6.51011
9.95193
25.4628
2.91868
3.00905
3.12489
3.26801
3.4408
3.65364
3.93662
4.36228
5.0841
6.47696
9.93734
25.7893
2.9006
2.98725
3.10085
3.24346
3.41697
3.63072
3.91325
4.33636
5.05524
6.44823
9.92883
26.1213
2.88205
2.96481
3.07593
3.21798
3.39253
3.60778
3.89101
4.31285
5.02936
6.42381
9.92681
26.4611
2.86393
2.94254
3.05079
3.19199
3.36767
3.58494
3.86986
4.29156
5.00641
6.40374
9.93197
26.8116
2.84705
2.92119
3.02604
3.16596
3.34261
3.56236
3.84984
4.27233
4.98639
6.38814
9.94531
27.1758
2.83213
2.90169
3.00275
3.14039
3.31759
3.54012
3.83098
4.25519
4.9694
6.37729
9.96883
27.5574
2.81925
2.88407
2.98101
3.1161
3.29349
3.51883
3.81354
4.24023
4.95563
6.37153
10.0044
27.9607
2.80856
2.86853
2.96103
3.09307
3.27006
3.49801
3.79705
4.22697
4.94422
6.36883
10.0469
28.379
2.80028
2.85535
2.94317
3.07163
3.24752
3.47768
3.78129
4.21498
4.93455
6.3677
10.0907
28.8075
2.79469
2.84492
2.92791
3.0523
3.22632
3.45807
3.76624
4.20426
4.92675
6.36818
10.1359
29.2468
2.79213
2.83768
2.91575
3.03567
3.20703
3.43953
3.75199
4.1949
4.92116
6.37057
10.1825
29.6987
2.79304
2.83408
2.90724
3.02234
3.19025
3.42252
3.73863
4.18706
4.91826
6.37518
10.2311
30.1644
2.79779
2.83463
2.90293
3.01295
3.17667
3.40758
3.72628
4.18086
4.91859
6.3824
10.2817
30.6451
2.80684
2.83984
2.90337
3.00811
3.16696
3.39542
3.71589
4.1768
4.92175
6.39259
10.3348
31.1422
2.82063
2.8501
2.90918
3.00848
3.16186
3.38677
3.70806
4.17532
4.92813
6.40637
10.3909
31.657
2.83963
2.8659
2.92096
3.01468
3.16212
3.38245
3.7035
4.17696
4.93823
6.42455
10.4507
32.1908
2.86445
2.88775
2.93898
3.02733
3.16856
3.38342
3.70304
4.18224
4.95255
6.44811
10.515
32.7449
2.89563
2.91604
2.96369
3.04705
3.182
3.39074
3.70772
4.19168
4.97152
6.47824
10.5845
33.3206
2.93372
2.95127
2.99559
3.0744
3.2032
3.40557
3.71879
4.20573
4.99547
6.51637
10.6603
33.9201
2.97928
2.994
3.03511
3.1096
3.2328
3.42917
3.73778
4.22449
5.02412
6.56441
10.7431
34.5461
3.03278
3.04467
3.08255
3.15301
3.27151
3.4628
3.7667
4.25165
5.05915
6.61753
10.8333
35.2028
3.09456
3.10362
3.13821
3.20511
3.32008
3.50755
3.80704
4.28876
5.10042
6.67429
10.9329
35.8941
3.16469
3.17105
3.20242
3.26652
3.37931
3.56431
3.85994
4.3368
5.14744
6.73365
11.046
36.6251
3.24304
3.24704
3.27563
3.33806
3.44994
3.63367
3.92619
4.39712
5.20042
6.79454
11.176
37.4061
3.32952
3.33166
3.35841
3.42042
3.53243
3.71582
4.00622
4.47189
5.26823
6.8669
11.3052
38.2546
3.42412
3.42476
3.45101
3.51376
3.62673
3.81055
4.10001
4.56211
5.35368