/*--------------------------------*- C++ -*----------------------------------*\
| =========                 |                                                 |
| \\      /  F ield         | OpenFOAM: The Open Source CFD Toolbox           |
|  \\    /   O peration     | Version:  v2012                                 |
|   \\  /    A nd           | Website:  www.openfoam.com                      |
|    \\/     M anipulation  |                                                 |
\*---------------------------------------------------------------------------*/
FoamFile
{
    version     2.0;
    format      ascii;
    class       volScalarField;
    location    "662";
    object      p;
}
// * * * * * * * * * * * * * * * * * * * * * * * * * * * * * * * * * * * * * //

dimensions      [0 2 -2 0 0 0 0];


internalField   nonuniform List<scalar> 
6084
(
0.314347
0.314508
0.314716
0.314958
0.315222
0.315501
0.315792
0.316088
0.31639
0.316693
0.316998
0.317304
0.31761
0.31792
0.318236
0.318558
0.318891
0.319303
0.319993
0.321011
0.314343
0.31451
0.314724
0.31497
0.315239
0.315522
0.315817
0.316118
0.316424
0.316733
0.317045
0.317358
0.317674
0.317992
0.318316
0.318639
0.318961
0.319312
0.319733
0.320126
0.314248
0.314433
0.314662
0.314919
0.315195
0.315484
0.315782
0.316086
0.316394
0.316705
0.317018
0.317334
0.317651
0.317973
0.318294
0.318608
0.318914
0.319226
0.31951
0.319654
0.314106
0.314327
0.314581
0.314855
0.315144
0.315441
0.315744
0.316051
0.316361
0.316673
0.316987
0.317302
0.317619
0.317938
0.318251
0.318555
0.31885
0.319136
0.319368
0.319453
0.313936
0.314202
0.314491
0.314793
0.315098
0.315407
0.315717
0.316029
0.316342
0.316656
0.316971
0.317287
0.317604
0.317921
0.318232
0.318533
0.318822
0.319093
0.3193
0.319367
0.313736
0.314068
0.314406
0.314738
0.315063
0.315384
0.315702
0.316019
0.316335
0.316651
0.316968
0.317285
0.317603
0.31792
0.318231
0.318532
0.318822
0.319093
0.3193
0.319367
0.31354
0.313949
0.314342
0.314701
0.315043
0.315375
0.3157
0.316022
0.316341
0.31666
0.316978
0.317296
0.317615
0.317935
0.318249
0.318553
0.318849
0.319136
0.319368
0.319453
0.313386
0.313876
0.314314
0.314692
0.315046
0.315385
0.315716
0.316041
0.316364
0.316685
0.317005
0.317325
0.317645
0.317969
0.318292
0.318606
0.318913
0.319225
0.319509
0.319653
0.313401
0.313893
0.314333
0.314709
0.315063
0.315405
0.315738
0.316065
0.316389
0.31671
0.317029
0.317348
0.317667
0.317988
0.318313
0.318637
0.318959
0.319311
0.319732
0.320125
0.313775
0.313999
0.314337
0.314695
0.315043
0.315381
0.315711
0.316035
0.316354
0.316669
0.316982
0.317293
0.317603
0.317916
0.318233
0.318556
0.318889
0.319302
0.319992
0.32101
0.328334
0.324635
0.321739
0.319508
0.317818
0.316564
0.315657
0.315025
0.314609
0.314365
0.314258
0.314258
0.32816
0.324488
0.321615
0.319405
0.317736
0.316501
0.31561
0.314991
0.314583
0.314344
0.31424
0.314247
0.327174
0.323652
0.320917
0.318831
0.31727
0.316127
0.315311
0.314751
0.314389
0.31418
0.3141
0.314129
0.32536
0.322123
0.31965
0.317799
0.316441
0.315466
0.314788
0.314338
0.314059
0.313908
0.313871
0.313943
0.322767
0.319954
0.317869
0.31636
0.315296
0.314563
0.314078
0.31378
0.31362
0.313551
0.313571
0.313706
0.319456
0.317201
0.315613
0.314544
0.313858
0.31344
0.313205
0.313107
0.31311
0.313146
0.313211
0.313412
0.315432
0.313835
0.312852
0.312361
0.312187
0.312188
0.31228
0.312428
0.312616
0.312736
0.31275
0.313036
0.310813
0.310037
0.309863
0.310119
0.31053
0.310943
0.311312
0.311616
0.311877
0.312071
0.312086
0.312585
0.305297
0.305377
0.306016
0.306895
0.307706
0.308441
0.309113
0.309692
0.310234
0.31121
0.311917
0.311894
0.299695
0.300667
0.302097
0.303727
0.305556
0.307606
0.309559
0.311044
0.312097
0.313963
0.314406
0.308094
0.757731
0.75649
0.755719
0.755833
0.755863
0.75476
0.750046
0.738249
0.719463
0.696053
0.669713
0.641539
0.612399
0.583011
0.553986
0.525844
0.499026
0.473873
0.450629
0.429462
0.410457
0.393629
0.378935
0.366277
0.355517
0.346494
0.339054
0.333052
0.757096
0.75538
0.755142
0.756015
0.756541
0.755171
0.748931
0.735724
0.717002
0.694172
0.668338
0.640557
0.611716
0.582554
0.553695
0.525669
0.498921
0.473798
0.450559
0.429382
0.41036
0.393513
0.3788
0.366127
0.355358
0.346333
0.338889
0.332871
0.75708
0.755189
0.755166
0.755948
0.755521
0.751916
0.743253
0.729042
0.710366
0.687973
0.66271
0.63549
0.607141
0.578391
0.549874
0.522133
0.495628
0.470721
0.447686
0.426707
0.407882
0.391233
0.376718
0.36424
0.353666
0.344835
0.337582
0.331733
0.758745
0.756529
0.755915
0.755052
0.752123
0.745768
0.735165
0.720232
0.701402
0.679195
0.654335
0.627586
0.599691
0.571347
0.543187
0.515768
0.489567
0.464965
0.442248
0.421607
0.40314
0.386865
0.372735
0.360645
0.350456
0.342001
0.335113
0.329607
0.761789
0.758894
0.756551
0.753194
0.747413
0.738523
0.726148
0.710213
0.690884
0.668554
0.643802
0.617275
0.589645
0.561577
0.533697
0.506575
0.480703
0.456477
0.434191
0.414034
0.3961
0.380394
0.366851
0.355357
0.345757
0.337876
0.331535
0.326544
0.764693
0.760565
0.755966
0.749891
0.741372
0.730141
0.715976
0.698806
0.678711
0.655981
0.631068
0.604527
0.576972
0.549042
0.521363
0.494516
0.469005
0.445239
0.423511
0.404003
0.38679
0.371857
0.359116
0.34843
0.339626
0.332515
0.326907
0.322605
0.766097
0.760116
0.753324
0.74462
0.733603
0.720242
0.70435
0.685871
0.664848
0.641499
0.616194
0.58942
0.561753
0.533819
0.506251
0.479647
0.454527
0.431305
0.410268
0.391578
0.375284
0.361337
0.34961
0.339936
0.332121
0.325963
0.321264
0.317819
0.764287
0.756706
0.748103
0.73711
0.723938
0.708692
0.691181
0.671381
0.649319
0.625176
0.59927
0.572052
0.544084
0.515999
0.488452
0.462065
0.437377
0.4148
0.394603
0.376916
0.361744
0.34899
0.338469
0.329992
0.323354
0.318334
0.314732
0.312308
0.75918
0.750123
0.740061
0.727238
0.712288
0.695402
0.676397
0.655292
0.632121
0.607044
0.58036
0.552513
0.524079
0.495721
0.468138
0.441985
0.417815
0.396032
0.376869
0.360402
0.346573
0.335222
0.326123
0.319031
0.313704
0.309913
0.307428
0.305959
0.751245
0.740514
0.729221
0.71497
0.698587
0.680293
0.659941
0.637581
0.613265
0.587157
0.559561
0.530947
0.501936
0.473255
0.445661
0.419853
0.39639
0.375645
0.357788
0.34281
0.330566
0.320817
0.313278
0.307661
0.303693
0.301151
0.29982
0.299416
0.292643
0.29358
0.294759
0.29597
0.297268
0.298659
0.29954
0.299527
0.29983
0.301162
0.299445
0.289834
0.289131
0.29054
0.292136
0.293672
0.295052
0.296416
0.297468
0.297843
0.298155
0.298382
0.296991
0.293754
0.28716
0.288775
0.290533
0.292227
0.293588
0.294732
0.295769
0.2965
0.296893
0.29678
0.295805
0.294285
0.285973
0.287553
0.289166
0.29078
0.292211
0.293371
0.294259
0.29491
0.295309
0.295306
0.294733
0.293849
0.284502
0.286037
0.287568
0.289049
0.290427
0.291639
0.292632
0.293375
0.293833
0.293924
0.293591
0.293031
0.282903
0.284392
0.285908
0.287388
0.288778
0.290021
0.291061
0.291847
0.292334
0.292494
0.292331
0.291948
0.281351
0.282823
0.284329
0.285809
0.287198
0.288442
0.289488
0.290286
0.290797
0.291016
0.290967
0.290687
0.279848
0.281304
0.28279
0.284249
0.285622
0.286853
0.287895
0.288701
0.289236
0.289502
0.289526
0.289306
0.278358
0.279791
0.281251
0.282685
0.284038
0.285259
0.286298
0.287112
0.287669
0.287971
0.288038
0.287855
0.276863
0.278273
0.27971
0.281124
0.282462
0.283675
0.284714
0.285538
0.286114
0.286442
0.286535
0.286375
0.275368
0.276759
0.278179
0.279579
0.280909
0.282118
0.283162
0.283997
0.284592
0.284939
0.285049
0.284907
0.273883
0.275263
0.276673
0.278066
0.279392
0.280604
0.281656
0.282506
0.283119
0.283485
0.283608
0.283484
0.272422
0.273796
0.275203
0.276596
0.277927
0.279148
0.280214
0.281081
0.281716
0.282102
0.28224
0.282136
0.270997
0.272372
0.273783
0.275184
0.276526
0.277763
0.278849
0.27974
0.280401
0.280813
0.28097
0.280892
0.26962
0.271003
0.272425
0.273842
0.275204
0.276464
0.277576
0.278498
0.279192
0.279637
0.279819
0.279777
0.268304
0.269701
0.271143
0.272583
0.273972
0.275264
0.276411
0.277371
0.278106
0.278593
0.278811
0.278815
0.26706
0.268479
0.269947
0.271419
0.272845
0.274177
0.275368
0.276374
0.27716
0.277699
0.277964
0.278027
0.265899
0.267347
0.26885
0.270362
0.271834
0.273216
0.27446
0.275523
0.276369
0.276973
0.277297
0.277433
0.264832
0.266316
0.267862
0.269425
0.270952
0.272394
0.273701
0.274831
0.275748
0.27643
0.276825
0.277055
0.263869
0.265396
0.266995
0.268617
0.27021
0.271722
0.273104
0.274311
0.27531
0.276083
0.276568
0.276911
0.263018
0.264597
0.266256
0.267948
0.269618
0.271212
0.272678
0.273974
0.275065
0.275943
0.276544
0.277011
0.262287
0.263926
0.265655
0.267426
0.269183
0.27087
0.272432
0.273827
0.275022
0.276016
0.276746
0.277363
0.261683
0.263389
0.265197
0.267057
0.268912
0.270702
0.272372
0.273876
0.275188
0.276313
0.277184
0.277977
0.26121
0.26299
0.264885
0.266845
0.268808
0.270713
0.272502
0.274126
0.275564
0.276834
0.277872
0.278865
0.26087
0.262731
0.264722
0.26679
0.268871
0.270903
0.272826
0.274574
0.276144
0.27757
0.278795
0.280015
0.260663
0.262611
0.264705
0.266889
0.269098
0.271269
0.273322
0.275203
0.276915
0.278507
0.279944
0.28141
0.260588
0.262628
0.264829
0.267136
0.269487
0.271793
0.273976
0.276002
0.277863
0.279625
0.281292
0.283026
0.260638
0.262772
0.265083
0.26752
0.270015
0.272458
0.274786
0.276955
0.278957
0.280886
0.282798
0.284817
0.260805
0.263031
0.265452
0.268027
0.270651
0.273237
0.275713
0.278023
0.280159
0.282243
0.284407
0.286717
0.261074
0.263387
0.26591
0.268618
0.271374
0.2741
0.276721
0.27917
0.281429
0.283639
0.286044
0.288637
0.261428
0.263822
0.266449
0.269256
0.272138
0.275005
0.277772
0.280371
0.282726
0.284999
0.28761
0.29046
0.26184
0.264299
0.267021
0.269898
0.272884
0.275886
0.278819
0.281575
0.28395
0.286199
0.288963
0.29203
0.262276
0.264769
0.267532
0.270477
0.273552
0.276672
0.279755
0.282577
0.284916
0.287108
0.289956
0.293166
0.262698
0.265186
0.267928
0.270923
0.274046
0.277245
0.280355
0.283129
0.285506
0.287678
0.290567
0.293773
0.26306
0.26549
0.268198
0.271149
0.274253
0.277441
0.280461
0.283224
0.2857
0.2879
0.290849
0.293932
0.26331
0.265627
0.268244
0.27106
0.274067
0.27713
0.280048
0.282865
0.285411
0.287657
0.290672
0.293557
0.2634
0.265536
0.267951
0.270565
0.273385
0.276258
0.279101
0.281928
0.284495
0.286763
0.289751
0.292595
0.263271
0.265151
0.267281
0.269616
0.272139
0.274779
0.277547
0.280323
0.282862
0.285125
0.288013
0.291038
0.262875
0.264411
0.266167
0.268142
0.270313
0.272699
0.275334
0.27801
0.280488
0.282738
0.285528
0.288727
0.262167
0.263277
0.264589
0.26613
0.267927
0.270049
0.272487
0.275023
0.277429
0.279682
0.282395
0.285726
0.261097
0.261731
0.262579
0.263663
0.265061
0.266888
0.269095
0.271481
0.273831
0.276116
0.278803
0.282252
0.259677
0.259815
0.260216
0.260834
0.261825
0.263356
0.265337
0.267587
0.269904
0.272245
0.274893
0.278339
0.257994
0.257695
0.257596
0.257767
0.258419
0.259683
0.261469
0.263612
0.265911
0.268256
0.270781
0.274063
0.256188
0.255391
0.254843
0.254683
0.255111
0.256165
0.257788
0.259825
0.26207
0.264311
0.266643
0.269664
0.254251
0.253041
0.252203
0.251878
0.252157
0.253054
0.254518
0.256407
0.25849
0.260567
0.262693
0.265402
0.252349
0.25091
0.249957
0.249544
0.249705
0.250448
0.251722
0.25341
0.255289
0.257222
0.259134
0.2615
0.250756
0.249239
0.248218
0.247718
0.247762
0.248348
0.249427
0.250919
0.252642
0.25445
0.256133
0.258134
0.249616
0.248058
0.246982
0.246394
0.246317
0.246764
0.247705
0.24906
0.250657
0.252326
0.25378
0.255445
0.24895
0.24736
0.246222
0.245543
0.245374
0.245726
0.246572
0.247826
0.249322
0.250862
0.252112
0.253527
0.248732
0.247098
0.245884
0.24513
0.244896
0.245183
0.245972
0.24717
0.248607
0.250065
0.251178
0.252405
0.248884
0.247189
0.245905
0.245097
0.244821
0.245078
0.245856
0.247052
0.248495
0.249939
0.251011
0.252133
0.249316
0.247561
0.246224
0.245384
0.245101
0.245381
0.246206
0.247467
0.248985
0.250498
0.251648
0.252766
0.249966
0.248161
0.246799
0.245967
0.245723
0.24608
0.247011
0.248403
0.25007
0.251744
0.253108
0.254324
0.250804
0.248969
0.24761
0.246823
0.246665
0.247153
0.24825
0.249838
0.251727
0.253662
0.255374
0.25677
0.251803
0.249948
0.248621
0.247918
0.247893
0.248563
0.249884
0.251729
0.253908
0.2562
0.258366
0.259973
0.252894
0.251038
0.249774
0.249194
0.249347
0.25025
0.251848
0.254003
0.25653
0.259249
0.261893
0.263627
0.253996
0.252152
0.250983
0.250562
0.250937
0.252119
0.254037
0.25654
0.259451
0.262605
0.265575
0.267178
0.254951
0.253124
0.252109
0.251894
0.252527
0.254022
0.256285
0.259155
0.262469
0.265967
0.268829
0.269792
0.255104
0.253524
0.252797
0.252861
0.253802
0.255667
0.258343
0.261623
0.265262
0.268716
0.270758
0.27094
0.253802
0.253484
0.253298
0.253759
0.255067
0.257306
0.260387
0.263908
0.267433
0.270385
0.271456
0.271227
0.739394
0.727384
0.715205
0.699884
0.682346
0.662828
0.641247
0.61767
0.592177
0.564954
0.536342
0.506873
0.477258
0.448322
0.420905
0.395748
0.373397
0.354151
0.33807
0.325013
0.314708
0.306813
0.300972
0.296845
0.294133
0.292593
0.292001
0.292094
0.723244
0.710457
0.697873
0.681862
0.66345
0.642911
0.620243
0.595518
0.568861
0.540503
0.510861
0.480583
0.450521
0.421644
0.394887
0.371007
0.350477
0.333449
0.319793
0.30919
0.301219
0.295444
0.291457
0.288905
0.287497
0.286999
0.287212
0.287969
0.70362
0.690611
0.677945
0.66159
0.64259
0.62127
0.597698
0.571969
0.544264
0.51489
0.484394
0.453595
0.42354
0.395348
0.370013
0.348222
0.330259
0.316029
0.305162
0.297145
0.291443
0.287567
0.285118
0.283785
0.283339
0.283601
0.284426
0.285674
0.681525
0.668519
0.655897
0.639451
0.620098
0.598226
0.573942
0.547396
0.518838
0.488697
0.457701
0.426898
0.397535
0.370841
0.347756
0.328759
0.313837
0.302596
0.294437
0.288721
0.284877
0.282458
0.281142
0.280705
0.280957
0.281735
0.282907
0.284373
0.657673
0.644763
0.632263
0.615854
0.596368
0.574163
0.549386
0.522263
0.493141
0.462617
0.43165
0.401525
0.37365
0.349241
0.329043
0.313208
0.301383
0.292912
0.287054
0.283148
0.280683
0.279308
0.278774
0.278873
0.279447
0.280381
0.281583
0.282989
0.632539
0.619841
0.607536
0.591243
0.57183
0.549504
0.524485
0.497086
0.467781
0.437374
0.407072
0.378361
0.352698
0.331145
0.31413
0.301438
0.292418
0.286248
0.282161
0.27956
0.278029
0.277288
0.277129
0.277407
0.278037
0.278955
0.280111
0.281456
0.606591
0.594244
0.582177
0.566114
0.546942
0.524709
0.499726
0.472395
0.443351
0.413621
0.384633
0.357984
0.335048
0.31661
0.302729
0.292863
0.286158
0.281742
0.278902
0.277141
0.276135
0.275679
0.275643
0.275958
0.276584
0.27748
0.278607
0.279926
0.580313
0.568427
0.556673
0.540966
0.522167
0.500238
0.475577
0.448682
0.420363
0.391857
0.364747
0.340625
0.320659
0.305293
0.294241
0.28672
0.281786
0.2786
0.276554
0.275265
0.27451
0.274169
0.274179
0.27451
0.275134
0.276019
0.277133
0.278437
0.55416
0.542822
0.531471
0.516221
0.497923
0.476506
0.452449
0.426353
0.399195
0.372382
0.347562
0.326209
0.309201
0.296643
0.287976
0.282279
0.278608
0.276219
0.274637
0.273597
0.272965
0.272683
0.272722
0.273067
0.273694
0.274576
0.275679
0.276967
0.528522
0.517796
0.506927
0.492224
0.474558
0.453857
0.430669
0.4057
0.380072
0.355296
0.333
0.31445
0.3002
0.29006
0.283295
0.27894
0.276118
0.274221
0.272905
0.272001
0.27144
0.271199
0.271266
0.271626
0.272257
0.273134
0.274225
0.275495
0.503726
0.493655
0.483329
0.46926
0.452355
0.43255
0.410462
0.386891
0.36306
0.340524
0.32082
0.304956
0.293154
0.285001
0.279687
0.276274
0.274003
0.272406
0.271248
0.270429
0.26992
0.269718
0.26981
0.270183
0.270816
0.271686
0.272765
0.274018
0.480031
0.470646
0.460912
0.447554
0.431522
0.412765
0.391961
0.369981
0.348103
0.327862
0.310686
0.297311
0.28761
0.281027
0.276778
0.274008
0.272092
0.270684
0.269627
0.26887
0.268408
0.268243
0.268358
0.26874
0.269374
0.270239
0.271307
0.272547
0.45764
0.448957
0.439851
0.427268
0.412196
0.3946
0.375207
0.354931
0.335042
0.317014
0.302241
0.291175
0.283225
0.277818
0.274323
0.271984
0.270299
0.269016
0.268032
0.267329
0.266913
0.26678
0.266913
0.267305
0.26794
0.2688
0.269862
0.271094
0.436695
0.428721
0.420264
0.408502
0.394449
0.378089
0.360179
0.341638
0.323674
0.307745
0.295257
0.286244
0.279696
0.27515
0.27217
0.270117
0.268587
0.267392
0.266469
0.265817
0.265443
0.265337
0.265487
0.265886
0.266523
0.267382
0.268441
0.26967
0.417277
0.410012
0.402213
0.391299
0.3783
0.363213
0.346808
0.329978
0.313841
0.300005
0.289579
0.282113
0.276715
0.272866
0.270225
0.268363
0.266941
0.265814
0.264946
0.264343
0.264005
0.263923
0.264089
0.264496
0.265137
0.265997
0.267057
0.268289
0.399428
0.392857
0.385715
0.37566
0.363724
0.349915
0.334998
0.319804
0.305485
0.293685
0.28489
0.278508
0.274059
0.270808
0.268421
0.266697
0.265356
0.264288
0.263473
0.262914
0.262609
0.26255
0.262729
0.263145
0.263792
0.264657
0.265723
0.266961
0.383163
0.377251
0.370753
0.36155
0.350663
0.338112
0.324634
0.310969
0.298473
0.288472
0.280875
0.275363
0.271636
0.268865
0.266714
0.265106
0.263835
0.262822
0.262056
0.261539
0.261264
0.261225
0.261419
0.261846
0.2625
0.263374
0.264449
0.2657
0.368453
0.363159
0.357279
0.348906
0.339035
0.327696
0.315598
0.303381
0.292552
0.284017
0.277376
0.272605
0.269394
0.267023
0.265107
0.26359
0.262382
0.261422
0.260703
0.260225
0.259978
0.25996
0.260169
0.260607
0.261272
0.262157
0.263246
0.264516
0.355237
0.350518
0.345226
0.337648
0.328744
0.318546
0.307737
0.296916
0.287519
0.280124
0.274309
0.270161
0.267333
0.265287
0.263585
0.262151
0.261005
0.260096
0.259422
0.258981
0.258762
0.258764
0.258988
0.25944
0.260118
0.261018
0.262126
0.263419
0.343437
0.339248
0.334507
0.327679
0.319683
0.310538
0.300869
0.291385
0.28325
0.27673
0.27162
0.267986
0.265465
0.263648
0.262126
0.260793
0.259707
0.25885
0.258221
0.257814
0.257622
0.257645
0.257886
0.258353
0.259048
0.259966
0.261096
0.26242
0.332965
0.329261
0.325031
0.318901
0.311744
0.303569
0.294911
0.286634
0.279587
0.273774
0.269258
0.266041
0.26377
0.26211
0.260745
0.259525
0.258496
0.257691
0.257106
0.256734
0.256569
0.256613
0.256872
0.257356
0.258069
0.259009
0.260167
0.261526
0.323728
0.320463
0.316702
0.311215
0.304827
0.297546
0.289821
0.282553
0.276383
0.27119
0.267178
0.264298
0.262232
0.260694
0.259457
0.258347
0.257379
0.256627
0.256086
0.255748
0.255609
0.255675
0.255953
0.256457
0.257191
0.258156
0.259346
0.260745
0.315629
0.31276
0.309426
0.304525
0.298833
0.292361
0.285485
0.279053
0.273588
0.268939
0.265349
0.262743
0.260847
0.259414
0.258267
0.257259
0.256368
0.255666
0.255167
0.254862
0.254749
0.254838
0.255137
0.255662
0.256419
0.257413
0.258639
0.260084
0.308573
0.306059
0.303108
0.298737
0.293666
0.28791
0.28179
0.276065
0.271181
0.266995
0.263753
0.261371
0.259615
0.258269
0.257188
0.256274
0.255469
0.254814
0.254356
0.254084
0.253998
0.25411
0.254431
0.254978
0.255761
0.256786
0.258052
0.259548
0.302469
0.300271
0.29766
0.293764
0.289243
0.284113
0.278654
0.27353
0.269132
0.265335
0.262378
0.260177
0.258535
0.257263
0.256238
0.255403
0.254679
0.254078
0.253659
0.25342
0.253362
0.253497
0.25384
0.254411
0.25522
0.256279
0.257589
0.25914
0.297231
0.295312
0.293004
0.289528
0.285489
0.280902
0.276019
0.271406
0.267411
0.26394
0.261215
0.259161
0.257612
0.256402
0.255426
0.254648
0.254005
0.253469
0.253086
0.252878
0.252846
0.253005
0.253371
0.253965
0.254803
0.255896
0.257251
0.258861
0.29278
0.291107
0.289064
0.285958
0.28234
0.278223
0.273837
0.269659
0.265995
0.262795
0.260259
0.258325
0.25685
0.255691
0.254756
0.254022
0.253456
0.252991
0.252643
0.252463
0.252458
0.252639
0.253028
0.253645
0.25451
0.255638
0.257038
0.258709
0.289043
0.287588
0.285776
0.282995
0.279741
0.276022
0.27207
0.268264
0.264869
0.261891
0.259509
0.257671
0.256255
0.255136
0.254238
0.253542
0.25304
0.252641
0.252332
0.252182
0.252202
0.252406
0.252815
0.253453
0.254343
0.255504
0.25695
0.258682
0.285955
0.284693
0.283082
0.280583
0.277645
0.274263
0.270684
0.267199
0.264019
0.261223
0.258966
0.257202
0.255831
0.254744
0.253877
0.253216
0.252761
0.252423
0.252163
0.252042
0.252085
0.252307
0.252733
0.253389
0.254302
0.255494
0.256982
0.258772
0.283457
0.282371
0.280931
0.278679
0.276014
0.272921
0.269657
0.266437
0.263434
0.260788
0.25863
0.256925
0.255586
0.254522
0.253678
0.253046
0.252627
0.25235
0.252147
0.252049
0.252111
0.252348
0.252787
0.253456
0.254385
0.255602
0.257127
0.258971
0.281509
0.280558
0.279275
0.27724
0.274814
0.271974
0.268968
0.265961
0.263108
0.260585
0.258506
0.256844
0.255527
0.254477
0.253651
0.253042
0.252651
0.252433
0.252286
0.25221
0.252284
0.252531
0.252976
0.253651
0.254589
0.255823
0.257376
0.259264
0.280065
0.279241
0.278085
0.276235
0.274013
0.271393
0.2686
0.265766
0.263038
0.260616
0.258599
0.256967
0.255663
0.25462
0.253805
0.253215
0.25285
0.252678
0.252577
0.252525
0.252609
0.252858
0.253301
0.253973
0.25491
0.256147
0.257715
0.25963
0.279065
0.278364
0.277319
0.27563
0.273584
0.271155
0.268541
0.265849
0.263226
0.260884
0.258914
0.257304
0.256002
0.254959
0.254149
0.253571
0.253229
0.253094
0.253033
0.253003
0.253088
0.253332
0.253763
0.254418
0.255338
0.256563
0.258125
0.260046
0.278478
0.27787
0.276939
0.275397
0.273505
0.271242
0.26878
0.266206
0.263671
0.261393
0.259459
0.25786
0.256554
0.255504
0.254693
0.254119
0.253796
0.253692
0.253666
0.25365
0.253728
0.253954
0.254359
0.254982
0.255866
0.257055
0.258585
0.260481
0.278279
0.277774
0.276928
0.275515
0.273757
0.27164
0.269311
0.266837
0.264376
0.262149
0.260241
0.258647
0.257331
0.256268
0.255447
0.254875
0.254565
0.254487
0.254488
0.254476
0.254533
0.254727
0.255089
0.255657
0.25648
0.257604
0.259068
0.2609
0.278455
0.278026
0.277261
0.275964
0.274325
0.272338
0.270125
0.26774
0.265344
0.263159
0.26127
0.259675
0.258344
0.257263
0.256429
0.255853
0.255553
0.255496
0.255512
0.255491
0.255512
0.255655
0.255949
0.256436
0.257166
0.258188
0.259544
0.261264
0.278968
0.278605
0.277915
0.276726
0.275195
0.273326
0.27122
0.268917
0.26658
0.264431
0.262556
0.260957
0.259611
0.258508
0.257656
0.257075
0.256781
0.256734
0.256754
0.256707
0.256672
0.256737
0.256935
0.257307
0.257905
0.258781
0.259979
0.261529
0.279789
0.279491
0.278872
0.277782
0.276354
0.274595
0.27259
0.270367
0.268088
0.265975
0.264112
0.262509
0.261146
0.260022
0.259151
0.258564
0.25827
0.258222
0.25823
0.258138
0.258019
0.257977
0.258042
0.258258
0.258677
0.259355
0.260336
0.26165
0.280898
0.280664
0.280112
0.279117
0.277788
0.276136
0.274231
0.27209
0.269872
0.267798
0.265952
0.264346
0.26297
0.261826
0.260939
0.260344
0.260045
0.259983
0.259956
0.259793
0.259559
0.259372
0.259262
0.259272
0.259458
0.259877
0.260576
0.261581
0.282275
0.282102
0.281616
0.280714
0.279484
0.277939
0.276137
0.274086
0.271938
0.26991
0.268087
0.266486
0.265102
0.263943
0.263043
0.26244
0.26213
0.262035
0.261945
0.261678
0.261297
0.26092
0.260583
0.26033
0.260222
0.260315
0.26066
0.26128
0.283899
0.283785
0.283363
0.282557
0.281429
0.279994
0.278302
0.276353
0.274286
0.272317
0.270529
0.268944
0.267562
0.266397
0.26549
0.264878
0.264544
0.264392
0.264207
0.263809
0.263235
0.262615
0.261991
0.261411
0.260939
0.260634
0.260556
0.260715
0.285748
0.285691
0.285336
0.284627
0.283607
0.28229
0.280718
0.278885
0.276918
0.275025
0.273289
0.271735
0.270369
0.26921
0.268303
0.26768
0.267307
0.267065
0.266764
0.266205
0.26538
0.264451
0.263469
0.262488
0.261578
0.260803
0.260249
0.259867
0.2878
0.287799
0.287513
0.286906
0.286001
0.284811
0.283373
0.281675
0.279829
0.278034
0.276372
0.27487
0.273539
0.272401
0.271504
0.270868
0.270437
0.270076
0.269636
0.268865
0.267728
0.266414
0.264994
0.263532
0.262102
0.260788
0.25973
0.258682
0.290032
0.290085
0.289871
0.289373
0.288593
0.287541
0.286252
0.28471
0.283011
0.281341
0.279779
0.278354
0.27708
0.275984
0.275106
0.274452
0.273937
0.273443
0.272828
0.271779
0.270266
0.268486
0.26654
0.264513
0.262477
0.260574
0.258892
0.257309
0.292418
0.292525
0.292387
0.292003
0.291358
0.290458
0.289337
0.287975
0.28645
0.284935
0.283503
0.282185
0.280995
0.279961
0.279114
0.278435
0.27781
0.277161
0.276326
0.274945
0.272982
0.270642
0.268074
0.265389
0.262675
0.260244
0.257867
0.255812
0.294932
0.295091
0.295034
0.294771
0.294272
0.293539
0.292603
0.291447
0.290125
0.288798
0.28753
0.28635
0.285274
0.284324
0.283514
0.282799
0.282056
0.281225
0.280114
0.278356
0.275862
0.272855
0.269545
0.266064
0.262687
0.259678
0.256735
0.25427
0.297545
0.297757
0.297783
0.297648
0.297306
0.296753
0.296022
0.295095
0.294006
0.292901
0.291831
0.290825
0.289895
0.289053
0.288287
0.287518
0.286658
0.285623
0.284189
0.282001
0.278899
0.275098
0.270889
0.266479
0.262491
0.258799
0.255547
0.252839
0.300228
0.300492
0.300604
0.300602
0.300427
0.300069
0.29956
0.298884
0.298058
0.297206
0.29637
0.295572
0.294819
0.294108
0.293396
0.292569
0.291583
0.290316
0.288528
0.285881
0.282092
0.277328
0.272022
0.266787
0.262067
0.257865
0.254438
0.251704
0.302951
0.303264
0.303464
0.3036
0.303599
0.303447
0.303175
0.30277
0.302232
0.301663
0.301093
0.300536
0.299988
0.299425
0.298771
0.2979
0.296787
0.295274
0.293124
0.289998
0.285432
0.279479
0.272829
0.266776
0.261346
0.257004
0.253649
0.251029
0.30568
0.306041
0.30633
0.306605
0.306784
0.306847
0.306823
0.306704
0.306473
0.306212
0.305935
0.305644
0.305324
0.304918
0.304314
0.303428
0.302221
0.300487
0.297996
0.29434
0.288879
0.281491
0.273462
0.266293
0.260572
0.256423
0.25334
0.250816
0.308385
0.30879
0.309167
0.309581
0.309942
0.310224
0.310455
0.31063
0.310719
0.310782
0.310816
0.310811
0.310733
0.310491
0.30994
0.309065
0.30781
0.305918
0.30313
0.298854
0.292313
0.283154
0.273779
0.26551
0.25997
0.256328
0.253489
0.250991
0.311032
0.311477
0.31194
0.312489
0.313029
0.313531
0.314018
0.314487
0.314901
0.315294
0.315648
0.315937
0.316101
0.316023
0.315546
0.314706
0.313457
0.311509
0.308484
0.303476
0.295533
0.284361
0.273458
0.264714
0.259802
0.256718
0.253971
0.251466
0.313589
0.31407
0.314614
0.315292
0.316005
0.316721
0.317457
0.318213
0.318945
0.319664
0.320333
0.320909
0.321302
0.321372
0.320989
0.320235
0.319081
0.317193
0.314011
0.308232
0.298565
0.285552
0.272775
0.264118
0.260129
0.257397
0.25468
0.252166
0.316027
0.316538
0.317155
0.317954
0.318827
0.319747
0.320719
0.321746
0.322779
0.323806
0.324773
0.325611
0.326205
0.326399
0.326136
0.325539
0.324575
0.322865
0.319617
0.313149
0.301726
0.286825
0.272025
0.263864
0.260812
0.258249
0.255568
0.253046
0.318316
0.31885
0.319533
0.320439
0.321458
0.322565
0.323754
0.325026
0.326332
0.327638
0.328869
0.329934
0.330687
0.330978
0.330862
0.330488
0.329802
0.328388
0.325192
0.318165
0.305195
0.288047
0.271696
0.26419
0.261723
0.25927
0.256623
0.254082
0.32043
0.320982
0.321719
0.322717
0.323863
0.325135
0.326513
0.327998
0.329541
0.331086
0.332538
0.333779
0.334645
0.335013
0.33505
0.334938
0.334604
0.333591
0.330545
0.323055
0.308817
0.289619
0.272352
0.265046
0.262726
0.260463
0.25781
0.255207
0.322346
0.32291
0.32369
0.324761
0.326011
0.327421
0.328958
0.330616
0.332352
0.334086
0.335705
0.337065
0.337991
0.338419
0.338603
0.338765
0.338822
0.338235
0.335333
0.327581
0.312823
0.292237
0.274088
0.266188
0.263697
0.261743
0.259061
0.256335
0.324044
0.324616
0.325425
0.326549
0.327878
0.329397
0.331055
0.332844
0.334722
0.336592
0.338317
0.339731
0.340667
0.341132
0.341453
0.341883
0.342307
0.342038
0.339252
0.331607
0.317288
0.296113
0.277158
0.267687
0.264789
0.263168
0.260467
0.257392
0.325506
0.326089
0.326908
0.328065
0.329446
0.33104
0.332783
0.334656
0.336624
0.338571
0.340339
0.341746
0.342647
0.343128
0.343571
0.344235
0.344918
0.344789
0.342127
0.33503
0.321961
0.301908
0.282077
0.270199
0.266765
0.265356
0.262168
0.257617
0.326713
0.327331
0.32813
0.329298
0.330703
0.332341
0.334128
0.336039
0.338045
0.34001
0.341762
0.343107
0.343937
0.344417
0.344959
0.345779
0.346571
0.346437
0.343903
0.337597
0.326492
0.30961
0.289288
0.274875
0.269805
0.268592
0.263295
0.2541
0.327616
0.328195
0.328967
0.330138
0.33154
0.333189
0.334984
0.33689
0.338888
0.340823
0.342507
0.343753
0.344495
0.344962
0.345564
0.346451
0.347237
0.347023
0.344563
0.338903
0.329481
0.315775
0.297596
0.281647
0.271857
0.269427
0.262621
0.24946
0.328253
0.328719
0.32951
0.330675
0.332061
0.3337
0.335479
0.337358
0.339319
0.341192
0.342782
0.343915
0.344576
0.345034
0.345667
0.346562
0.347287
0.34696
0.34455
0.339384
0.331144
0.319642
0.304749
0.288911
0.277433
0.270973
0.261725
0.249278
0.328696
0.329093
0.329906
0.331048
0.332407
0.334018
0.335761
0.337589
0.339485
0.34127
0.342744
0.343754
0.344332
0.344767
0.345393
0.346245
0.346859
0.346395
0.344036
0.339324
0.332144
0.322516
0.31037
0.296425
0.286989
0.278832
0.264039
0.24811
0.307911
0.325586
0.338824
0.34969
0.359508
0.368544
0.376536
0.383157
0.388245
0.39061
0.390346
0.39003
0.314195
0.326129
0.337273
0.347126
0.356325
0.364934
0.372829
0.379778
0.385417
0.3889
0.389936
0.389889
0.317821
0.326988
0.336158
0.34494
0.353372
0.361385
0.368871
0.375675
0.381581
0.386244
0.388969
0.389321
0.319305
0.326649
0.334355
0.342134
0.349818
0.357249
0.364293
0.370798
0.376677
0.381946
0.385966
0.387266
0.319261
0.325305
0.331937
0.338861
0.345837
0.352684
0.359251
0.365396
0.371072
0.376395
0.380897
0.38289
0.318098
0.323244
0.329048
0.335232
0.341562
0.347847
0.353926
0.359657
0.364993
0.370057
0.374497
0.376656
0.316274
0.320724
0.325838
0.331376
0.337115
0.342865
0.348456
0.35374
0.358644
0.363249
0.367295
0.369352
0.313992
0.31789
0.322426
0.327395
0.332594
0.337835
0.342947
0.347772
0.352208
0.356274
0.359783
0.361599
0.311421
0.314866
0.31891
0.323375
0.32808
0.332843
0.337491
0.341862
0.345826
0.349352
0.352304
0.353827
0.308685
0.311751
0.315369
0.319388
0.323641
0.327958
0.332167
0.336101
0.339615
0.342641
0.345078
0.346311
0.30588
0.308621
0.311868
0.31549
0.319334
0.323239
0.327037
0.330563
0.333663
0.336247
0.338237
0.339208
0.303076
0.305536
0.308459
0.311727
0.315202
0.318732
0.322154
0.325306
0.328034
0.330236
0.331854
0.332601
0.300326
0.302543
0.305181
0.308136
0.311281
0.314472
0.317554
0.320371
0.322771
0.324651
0.325962
0.326526
0.29767
0.299675
0.302065
0.304745
0.307597
0.310486
0.313265
0.315784
0.3179
0.31951
0.320575
0.320992
0.295138
0.29696
0.299134
0.301573
0.304168
0.306792
0.309304
0.311563
0.313434
0.314821
0.315689
0.315993
0.292752
0.294416
0.296404
0.298636
0.301009
0.303401
0.305681
0.307715
0.30938
0.310583
0.311295
0.311513
0.290527