/*--------------------------------*- C++ -*----------------------------------*\
| =========                 |                                                 |
| \\      /  F ield         | OpenFOAM: The Open Source CFD Toolbox           |
|  \\    /   O peration     | Version:  v2012                                 |
|   \\  /    A nd           | Website:  www.openfoam.com                      |
|    \\/     M anipulation  |                                                 |
\*---------------------------------------------------------------------------*/
FoamFile
{
    version     2.0;
    format      ascii;
    class       surfaceScalarField;
    location    "662";
    object      phi;
}
// * * * * * * * * * * * * * * * * * * * * * * * * * * * * * * * * * * * * * //

dimensions      [0 3 -1 0 0 0 0];
oriented        oriented;


internalField   nonuniform List<scalar> 
11933
(
-0.000197986
1.19454e-07
0.000197866
-0.000198093
1.07673e-07
-0.000198193
9.95869e-08
-0.000198287
9.44939e-08
-0.000198379
9.16385e-08
-0.00019847
9.04632e-08
-0.00019856
9.04076e-08
-0.000198651
9.14192e-08
-0.000198745
9.32923e-08
-0.000198841
9.59261e-08
-0.00019894
9.93063e-08
-0.000199043
1.03456e-07
-0.000199152
1.08396e-07
-0.000199266
1.14092e-07
-0.000199386
1.2035e-07
-0.000199513
1.2661e-07
-0.000199644
1.31454e-07
-0.000199779
1.35137e-07
-0.000199913
1.33817e-07
8.67515e-08
-0.000199894
1.57904e-07
0.000199856
-0.000199921
1.3477e-07
-0.000199941
1.18953e-07
-0.000199955
1.08769e-07
-0.000199966
1.02577e-07
-0.000199975
9.93825e-08
-0.000199982
9.79797e-08
-0.000199989
9.82581e-08
-0.000199996
9.9841e-08
-0.000200002
1.02493e-07
-0.000200009
1.06118e-07
-0.000200016
1.10663e-07
-0.000200024
1.16048e-07
-0.000200032
1.22001e-07
-0.000200039
1.27887e-07
-0.000200046
1.33159e-07
-0.00020005
1.36055e-07
-0.000200049
1.33989e-07
-0.000200031
1.15757e-07
5.54804e-08
-0.000200424
1.6861e-07
0.000200414
-0.000200425
1.35045e-07
-0.000200418
1.12201e-07
-0.000200407
9.74693e-08
-0.000200392
8.80057e-08
-0.000200375
8.24974e-08
-0.000200357
7.95343e-08
-0.000200337
7.85552e-08
-0.000200316
7.90115e-08
-0.000200294
8.06062e-08
-0.000200271
8.315e-08
-0.000200247
8.65177e-08
-0.000200222
9.06229e-08
-0.000200195
9.51856e-08
-0.000200166
9.9068e-08
-0.000200134
1.01623e-07
-0.0002001
1.0193e-07
-0.000200063
9.62467e-08
-0.000200023
7.65607e-08
3.2055e-08
-0.000200658
1.61993e-07
0.000200665
-0.000200643
1.19243e-07
-0.000200621
9.08281e-08
-0.000200596
7.2712e-08
-0.000200569
6.06383e-08
-0.00020054
5.31053e-08
-0.000200509
4.85723e-08
-0.000200476
4.61031e-08
-0.000200442
4.50688e-08
-0.000200407
4.50888e-08
-0.00020037
4.5911e-08
-0.00020033
4.73665e-08
-0.000200289
4.93213e-08
-0.000200245
5.14919e-08
-0.0002002
5.32458e-08
-0.000200152
5.4157e-08
-0.000200104
5.34834e-08
-0.000200057
4.90724e-08
-0.000200017
3.73339e-08
1.47754e-08
-0.000200769
1.4121e-07
0.00020079
-0.000200741
9.1767e-08
-0.00020071
5.92662e-08
-0.000200677
3.95572e-08
-0.000200642
2.61308e-08
-0.000200606
1.73692e-08
-0.000200569
1.15809e-08
-0.000200531
7.73861e-09
-0.000200491
5.1719e-09
-0.000200449
3.45466e-09
-0.000200406
2.3038e-09
-0.00020036
1.53305e-09
-0.000200312
1.02043e-09
-0.000200261
6.82334e-10
-0.000200208
4.51642e-10
-0.000200154
2.86774e-10
-0.000200101
1.83182e-10
-0.000200052
1.15009e-10
-0.000200015
6.14463e-11
2.04884e-11
-0.000200797
1.02836e-07
0.000200836
-0.00020076
5.43848e-08
-0.000200722
2.13515e-08
-0.000200684
1.95034e-09
-0.000200647
-1.11394e-08
-0.00020061
-2.01095e-08
-0.000200572
-2.65418e-08
-0.000200532
-3.13676e-08
-0.000200492
-3.52155e-08
-0.00020045
-3.85049e-08
-0.000200406
-4.152e-08
-0.00020036
-4.44457e-08
-0.000200312
-4.73791e-08
-0.000200261
-5.01912e-08
-0.000200208
-5.238e-08
-0.000200154
-5.36139e-08
-0.000200101
-5.31387e-08
-0.000200052
-4.88531e-08
-0.000200015
-3.72193e-08
-1.47372e-08
-0.000200743
4.3824e-08
0.000200802
-0.000200697
8.43256e-09
-0.000200656
-2.00209e-08
-0.000200619
-3.5324e-08
-0.000200584
-4.63483e-08
-0.000200549
-5.44261e-08
-0.000200515
-6.07421e-08
-0.00020048
-6.59608e-08
-0.000200445
-7.05825e-08
-0.000200409
-7.49706e-08
-0.000200371
-7.93894e-08
-0.000200331
-8.40174e-08
-0.00020029
-8.89655e-08
-0.000200246
-9.40733e-08
-0.0002002
-9.8312e-08
-0.000200152
-1.01163e-07
-0.000200104
-1.01648e-07
-0.000200057
-9.60548e-08
-0.000200017
-7.64714e-08
-3.20252e-08
-0.000200554
-4.39385e-08
0.000200642
-0.000200508
-3.81448e-08
-0.00020047
-5.74762e-08
-0.00020044
-6.50712e-08
-0.000200414
-7.25272e-08
-0.00020039
-7.87298e-08
-0.000200367
-8.41267e-08
-0.000200343
-8.89896e-08
-0.00020032
-9.36378e-08
-0.000200297
-9.83467e-08
-0.000200273
-1.03349e-07
-0.000200248
-1.08819e-07
-0.000200222
-1.14819e-07
-0.000200195
-1.21174e-07
-0.000200166
-1.2734e-07
-0.000200135
-1.32826e-07
-0.0002001
-1.35845e-07
-0.000200063
-1.33833e-07
-0.000200023
-1.1571e-07
-5.54646e-08
-0.00020005
-1.75572e-07
0.000200182
-0.000200018
-7.02332e-08
-0.000200004
-7.16806e-08
-0.000199997
-7.21439e-08
-0.000199994
-7.55101e-08
-0.000199993
-7.92264e-08
-0.000199995
-8.28259e-08
-0.000199997
-8.63284e-08
-0.000200001
-8.98812e-08
-0.000200006
-9.36461e-08
-0.000200011
-9.77841e-08
-0.000200018
-1.02441e-07
-0.000200025
-1.07721e-07
-0.000200032
-1.13642e-07
-0.00020004
-1.20056e-07
-0.000200046
-1.26423e-07
-0.000200051
-1.31335e-07
-0.000200049
-1.3505e-07
-0.000200031
-1.33805e-07
-8.6746e-08
-0.000198124
0.000197948
-0.000198194
-0.000198265
-0.000198338
-0.000198413
-0.000198492
-0.000198575
-0.000198661
-0.000198751
-0.000198845
-0.000198943
-0.000199045
-0.000199153
-0.000199267
-0.000199387
-0.000199513
-0.000199644
-0.000199779
-0.000199913
-0.000193626
1.07326e-06
0.000192553
-0.0001945
8.73824e-07
-0.00019521
7.09273e-07
-0.000195784
5.74382e-07
-0.000196249
4.65245e-07
-0.000196627
3.78006e-07
-0.000196936
3.08963e-07
-0.000197191
2.54748e-07
-0.000197403
2.12365e-07
-0.000197582
1.79033e-07
-0.000197735
1.52526e-07
1.31476e-07
-0.000196759
1.97591e-06
0.000195856
-0.000197483
1.59754e-06
-0.000198057
1.28301e-06
-0.000198508
1.02538e-06
-0.00019886
8.1754e-07
-0.000199134
6.51938e-07
-0.000199346
5.21198e-07
-0.00019951
4.18613e-07
-0.000199636
3.38344e-07
-0.000199732
2.75019e-07
-0.000199803
2.24162e-07
1.8363e-07
-0.000197765
2.81372e-06
0.000196927
-0.000198427
2.26014e-06
-0.000198945
1.80029e-06
-0.000199344
1.42467e-06
-0.000199649
1.12276e-06
-0.000199881
8.83267e-07
-0.000200054
6.94961e-07
-0.000200183
5.47615e-07
-0.000200277
4.32565e-07
-0.000200344
3.41867e-07
-0.000200388
2.68303e-07
2.08733e-07
-0.000198362
3.59895e-06
0.000197576
-0.000198974
2.87243e-06
-0.000199444
2.27014e-06
-0.000199799
1.78019e-06
-0.000200065
1.38858e-06
-0.000200262
1.07989e-06
-0.000200405
8.38685e-07
-0.000200509
6.50801e-07
-0.000200581
5.04698e-07
-0.000200629
3.90079e-07
-0.000200656
2.95807e-07
2.1723e-07
-0.000198794
4.33617e-06
0.000198056
-0.000199359
3.43816e-06
-0.000199785
2.69558e-06
-0.000200099
2.09466e-06
-0.000200328
1.61779e-06
-0.000200493
1.24478e-06
-0.00020061
9.55683e-07
-0.000200691
7.31822e-07
-0.000200745
5.58335e-07
-0.000200779
4.23816e-07
-0.000200794
3.11503e-07
2.12433e-07
-0.000199023
5.04492e-06
0.000198314
-0.00019956
3.97545e-06
-0.000199958
3.09393e-06
-0.000200248
2.3843e-06
-0.000200455
1.82495e-06
-0.000200601
1.39077e-06
-0.000200702
1.05705e-06
-0.00020077
7.99875e-07
-0.000200812
5.9963e-07
-0.000200835
4.47363e-07
-0.000200849
3.24847e-07
1.99501e-07
-0.000198766
5.791e-06
0.000198019
-0.000199339
4.54857e-06
-0.000199767
3.52208e-06
-0.000200083
2.70012e-06
-0.000200315
2.0574e-06
-0.000200486
1.56137e-06
-0.00020061
1.18108e-06
-0.000200698
8.87878e-07
-0.000200753
6.5445e-07
-0.000200784
4.78794e-07
-0.000200816
3.56648e-07
1.86123e-07
-0.00019706
6.71434e-06
0.000196137
-0.000197835
5.32335e-06
-0.000198469
4.1559e-06
-0.000198978
3.20874e-06
-0.000199395
2.47504e-06
-0.000199745
1.91093e-06
-0.000200031
1.46729e-06
-0.000200259
1.11601e-06
-0.000200433
8.28479e-07
-0.000200543
5.88338e-07
-0.000200642
4.55796e-07
1.86263e-07
-0.000190878
8.03936e-06
0.000189553
-0.000192159
6.60451e-06
-0.000193376
5.37226e-06
-0.000194527
4.3598e-06
-0.000195635
3.58293e-06
-0.000196675
2.95147e-06
-0.000197612
2.40412e-06
-0.000198411
1.91507e-06
-0.000199095
1.51273e-06
-0.000199566
1.059e-06
-0.000199844
7.33737e-07
5.24314e-07
-0.000169922
0.000168935
9.02669e-06
-0.000171239
7.92167e-06
-0.000172902
7.03481e-06
-0.000174917
6.37516e-06
-0.000177279
5.94443e-06
-0.000179935
5.60776e-06
-0.000182835
5.30442e-06
-0.000185893
4.97243e-06
-0.000188985
4.60521e-06
-0.000191735
3.80845e-06
-0.000193641
2.64061e-06
4.8308e-06
7.47983e-06
-7.47984e-06
9.72028e-06
-2.24045e-06
7.46828e-06
2.25199e-06
2.54894e-06
4.91933e-06
-5.67886e-06
8.2278e-06
-1.87299e-05
1.30511e-05
-3.52698e-05
1.65398e-05
-5.23037e-05
1.70339e-05
-6.80665e-05
1.57627e-05
-8.23811e-05
1.43146e-05
-9.54333e-05
1.30523e-05
-0.000107373
1.19394e-05
-0.000118291
1.09186e-05
-0.000128254
9.96223e-06
-0.000137309
9.05584e-06
-0.000145501
8.19213e-06
-0.000152871
7.36957e-06
-0.000159461
6.58951e-06
-0.000165312
5.85117e-06
-0.000170467
5.15497e-06
-0.000174971
4.50452e-06
-0.000178874
3.90295e-06
-0.000182227
3.3525e-06
-0.000185081
2.85427e-06
-0.000187489
2.4084e-06
-0.000189504
2.01458e-06
-0.000191176
1.67227e-06
1.37696e-06
4.83877e-06
-1.23186e-05
3.84478e-06
-1.24647e-06
-1.39366e-06
7.49043e-06
-1.14353e-05
1.4961e-05
-2.59451e-05
2.27376e-05
-4.18705e-05
2.89765e-05
-5.6738e-05
3.14073e-05
-7.02574e-05
3.05533e-05
-8.31129e-05
2.86182e-05
-9.53828e-05
2.65846e-05
-0.00010692
2.45892e-05
-0.000117661
2.26801e-05
-0.000127599
2.08569e-05
-0.000136745
1.9108e-05
-0.000145111
1.74225e-05
-0.000152715
1.57954e-05
-0.000159572
1.42267e-05
-0.000165702
1.27201e-05
-0.000171134
1.12829e-05
-0.000175904
9.92494e-06
-0.000180055
8.65522e-06
-0.000183633
7.48105e-06
-0.000186688
6.40736e-06
-0.00018927
5.43657e-06
-0.00019143
4.56872e-06
-0.000193218
3.8019e-06
-0.000194678
3.13254e-06
2.55555e-06
2.17205e-07
-1.25358e-05
-4.7327e-06
3.70343e-06
-1.37782e-05
1.6536e-05
-2.67386e-05
2.79214e-05
-4.12344e-05
3.72334e-05
-5.48508e-05
4.25929e-05
-6.71175e-05
4.36741e-05
-7.88457e-05
4.22815e-05
-9.03511e-05
4.01236e-05
-0.000101481
3.77148e-05
-0.000112103
3.52106e-05
-0.00012213
3.27068e-05
-0.000131509
3.02367e-05
-0.00014021
2.78089e-05
-0.000148214
2.54261e-05
-0.000155512
2.30938e-05
-0.000162107
2.08218e-05
-0.000168011
1.86243e-05
-0.000173247
1.65189e-05
-0.000177846
1.45236e-05
-0.000181845
1.26543e-05
-0.000185288
1.09236e-05
-0.00018822
9.33996e-06
-0.000190691
7.90773e-06
-0.00019275
6.62741e-06
-0.000194445
5.49649e-06
-0.000195822
4.51006e-06
3.66022e-06
-4.924e-06
-7.61183e-06
-1.32107e-05
1.19901e-05
-2.4659e-05
2.79842e-05
-3.79542e-05
4.12166e-05
-5.08478e-05
5.0127e-05
-6.24361e-05
5.41812e-05
-7.32965e-05
5.45344e-05
-8.40603e-05
5.30453e-05
-9.47281e-05
5.07915e-05
-0.000105137
4.81237e-05
-0.000115172
4.52455e-05
-0.000124739
4.22737e-05
-0.000133764
3.92622e-05
-0.000142194
3.62381e-05
-0.000149988
3.32201e-05
-0.000157122
3.02278e-05
-0.000163585
2.7285e-05
-0.00016938
2.44193e-05
-0.000174522
2.16606e-05
-0.000179035
1.90374e-05
-0.000182956
1.65746e-05
-0.000186324
1.42916e-05
-0.000189185
1.22013e-05
-0.000191588
1.03105e-05
-0.000193581
8.62052e-06
-0.000195213
7.12821e-06
-0.00019653
5.82705e-06
4.70693e-06
-8.97022e-06
1.35839e-06
-1.99511e-05
2.29711e-05
-3.24878e-05
4.05209e-05
-4.51122e-05
5.3841e-05
-5.65987e-05
6.16135e-05
-6.70816e-05
6.46641e-05
-7.72714e-05
6.47242e-05
-8.74726e-05
6.32465e-05
-9.7605e-05
6.09239e-05
-0.000107554
5.80724e-05
-0.000117215
5.49073e-05
-0.000126493
5.15514e-05
-0.000135303
4.80716e-05
-0.000143574
4.45096e-05
-0.000151253
4.0899e-05
-0.0001583
3.72752e-05
-0.000164694
3.36786e-05
-0.000170428
3.01533e-05
-0.000175511
2.67442e-05
-0.000179967
2.34932e-05
-0.000183829
2.04361e-05
-0.000187137
1.76003e-05
-0.00018994
1.50038e-05
-0.000192285
1.26554e-05
-0.000194221
1.05571e-05
-0.000195798
8.7049e-06
-0.000197061
7.09052e-06
5.70184e-06
-1.19652e-05
1.33236e-05
-2.46387e-05
3.56446e-05
-3.74332e-05
5.33153e-05
-4.92779e-05
6.56857e-05
-5.99181e-05
7.22536e-05
-6.99133e-05
7.46593e-05
-7.97877e-05
7.45987e-05
-8.96625e-05
7.31212e-05
-9.94744e-05
7.07358e-05
-0.000109145
6.77428e-05
-0.000118582
6.43441e-05
-0.000127688
6.06582e-05
-0.000136374
5.67572e-05
-0.000144557
5.26924e-05
-0.00015217
4.85117e-05
-0.000159162
4.42675e-05
-0.000165503
4.00197e-05
-0.000171182
3.58321e-05
-0.000176206
3.17685e-05
-0.0001806
2.78868e-05
-0.000184398
2.42347e-05
-0.000187646
2.08483e-05
-0.000190393
1.77501e-05
-0.000192687
1.49503e-05
-0.000194581
1.24502e-05
-0.000196119
1.02438e-05
-0.000197349
8.32066e-06
6.66625e-06
-1.38388e-05
2.71623e-05
-2.74631e-05
4.9269e-05
-4.01314e-05
6.59836e-05
-5.14232e-05
7.69775e-05
-6.16767e-05
8.25071e-05
-7.15006e-05
8.44833e-05
-8.12316e-05
8.43297e-05
-9.09291e-05
8.28188e-05
-0.000100563
8.03695e-05
-0.000110075
7.72548e-05
-0.000119382
7.36509e-05
-0.000128387
6.96636e-05
-0.000136993
6.53629e-05
-0.000145107
6.08063e-05
-0.00015265
5.60552e-05
-0.000159564
5.11819e-05
-0.000165815
4.62699e-05
-0.000171391
4.14079e-05
-0.000176304
3.66821e-05
-0.000180586
3.21689e-05
-0.000184281
2.79291e-05
-0.000187439
2.40062e-05
-0.000190115
2.04266e-05
-0.000192365
1.71996e-05
-0.000194236
1.43219e-05
-0.000195776
1.1783e-05
-0.000197024
9.56896e-06
7.66189e-06
-1.50084e-05
4.21707e-05
-2.88591e-05
6.31196e-05
-4.1267e-05
7.83915e-05
-5.22437e-05
8.79542e-05
-6.23742e-05
9.26376e-05
-7.21621e-05
9.42712e-05
-8.18327e-05
9.40002e-05
-9.14399e-05
9.24259e-05
-0.000100976
8.99054e-05
-0.000110393
8.66721e-05
-0.000119611
8.28689e-05
-0.000128529
7.85815e-05
-0.000137038
7.38718e-05
-0.000145033
6.8801e-05
-0.000152423
6.3446e-05
-0.000159146
5.7904e-05
-0.000165165
5.22893e-05
-0.00017048
4.67227e-05
-0.000175117
4.13197e-05
-0.000179127
3.6179e-05
-0.000182574
3.13757e-05
-0.000185526
2.69582e-05
-0.000188049
2.29499e-05
-0.000190208
1.93589e-05
-0.000192059
1.61728e-05
-0.000193643
1.3367e-05
-0.000194993
1.09189e-05
8.80555e-06
-1.56332e-05
5.78039e-05
-2.92774e-05
7.67638e-05
-4.1384e-05
9.04982e-05
-5.21886e-05
9.87588e-05
-6.23e-05
0.000102749
-7.20916e-05
0.000104063
-8.17327e-05
0.000103641
-9.12853e-05
0.000101978
-0.000100751
9.93712e-05
-0.000110083
9.60037e-05
-0.000119192
9.19787e-05
-0.000127965
8.73544e-05
-0.000136272
8.21787e-05
-0.000143987
7.6516e-05
-0.000151004
7.04633e-05
-0.000157253
6.41521e-05
-0.000162703
5.77398e-05
-0.000167372
5.13921e-05
-0.000171317
4.5264e-05
-0.000174621
3.94836e-05
-0.000177389
3.4143e-05
-0.000179727
2.92962e-05
-0.00018174
2.49638e-05
-0.000183522
2.11403e-05
-0.000185146
1.7797e-05
-0.000186672
1.48931e-05
-0.000188136
1.23827e-05
1.02227e-05
-1.55525e-05
7.33563e-05
-2.89692e-05
9.01806e-05
-4.08277e-05
0.000102357
-5.1536e-05
0.000109467
-6.16357e-05
0.000112849
-7.14158e-05
0.000113843
-8.10189e-05
0.000113244
-9.05075e-05
0.000111467
-9.98799e-05
0.000108744
-0.000109076
0.000105199
-0.000117984
0.000100888
-0.000126459
9.5829e-05
-0.000134333
9.00525e-05
-0.000141444
8.36272e-05
-0.00014766
7.66795e-05
-0.000152901
6.93925e-05
-0.000157148
6.19867e-05
-0.000160446
5.46907e-05
-0.000162893
4.77111e-05
-0.00016462
4.12106e-05
-0.000165775
3.52973e-05
-0.000166505
3.00267e-05
-0.000166952
2.54106e-05
-0.000167241
2.14291e-05
-0.000167485
1.8041e-05
-0.000167786
1.51947e-05
-0.000168239
1.28352e-05
1.09187e-05
-0.000127515
4.59449e-06
0.000131947
-0.000122569
2.97529e-06
-0.000117017
1.48326e-06
-0.000110738
9.63942e-08
-0.000103534
-1.25965e-06
-9.51456e-05
-2.78101e-06
-8.53925e-05
-4.44868e-06
-7.42375e-05
-6.18256e-06
-6.19762e-05
-7.65608e-06
-4.90881e-05
-9.07967e-06
-3.23567e-05
-1.40907e-05
-2.75259e-05
-7.67169e-05
-2.48751e-06
8.37989e-05
-6.92496e-05
-4.49194e-06
-6.13839e-05
-6.38246e-06
-5.31942e-05
-8.09334e-06
-4.48321e-05
-9.62169e-06
-3.63782e-05
-1.12349e-05
-2.78447e-05
-1.29822e-05
-1.94559e-05
-1.45714e-05
-1.1381e-05
-1.57309e-05
-3.44644e-06
-1.70142e-05
2.60174e-06
-2.01389e-05
-2.49242e-05
-4.53632e-05
-8.33834e-06
5.12141e-05
-3.97357e-05
-1.01194e-05
-3.43518e-05
-1.17664e-05
-2.91517e-05
-1.32935e-05
-2.40596e-05
-1.47138e-05
-1.91538e-05
-1.61407e-05
-1.46066e-05
-1.75294e-05
-1.04247e-05
-1.87533e-05
-6.34923e-06
-1.98064e-05
-2.3036e-06
-2.10599e-05
5.41018e-07
-2.29835e-05
-2.43832e-05
-3.28331e-05
-1.17528e-05
3.62476e-05
-2.95381e-05
-1.34144e-05
-2.63129e-05
-1.49916e-05
-2.31062e-05
-1.65002e-05
-1.98888e-05
-1.79312e-05
-1.67141e-05
-1.93153e-05
-1.35958e-05
-2.06477e-05
-1.04503e-05
-2.18989e-05
-7.1786e-06
-2.30781e-05
-3.91166e-06
-2.43268e-05
-1.235e-06
-2.56602e-05
-2.56182e-05
-2.8947e-05
-1.39769e-05
3.11711e-05
-2.66384e-05
-1.5723e-05
-2.42375e-05
-1.73925e-05
-2.17332e-05
-1.90044e-05
-1.91079e-05
-2.05566e-05
-1.63766e-05
-2.20466e-05
-1.35578e-05
-2.34666e-05
-1.0645e-05
-2.48117e-05
-7.63475e-06
-2.60883e-05
-4.64295e-06
-2.73186e-05
-1.9922e-06
-2.83109e-05
-2.76104e-05
-2.72632e-05
-1.57647e-05
2.9051e-05
-2.53154e-05
-1.76708e-05
-2.3206e-05
-1.95019e-05
-2.09452e-05
-2.12651e-05
-1.8537e-05
-2.29648e-05
-1.59946e-05
-2.4589e-05
-1.3336e-05
-2.61251e-05
-1.05824e-05
-2.75653e-05
-7.76974e-06
-2.8901e-05
-4.9868e-06
-3.01015e-05
-2.37703e-06
-3.09207e-05
-2.99874e-05
-2.60082e-05
-1.73676e-05
2.76111e-05
-2.42223e-05
-1.94567e-05
-2.22578e-05
-2.14665e-05
-2.01274e-05
-2.33955e-05
-1.78495e-05
-2.52427e-05
-1.54434e-05
-2.69951e-05
-1.29301e-05
-2.86384e-05
-1.03364e-05
-3.0159e-05
-7.69997e-06
-3.15374e-05
-5.07851e-06
-3.2723e-05
-2.52483e-06
-3.34744e-05
-3.25122e-05
-2.48022e-05
-1.88707e-05
2.63052e-05
-2.31121e-05
-2.11468e-05
-2.12459e-05
-2.33327e-05
-1.92196e-05
-2.54218e-05
-1.70557e-05
-2.74067e-05
-1.47762e-05
-2.92745e-05
-1.24038e-05
-3.10108e-05
-9.96387e-06
-3.2599e-05
-7.48654e-06
-3.40148e-05
-5.00703e-06
-3.52025e-05
-2.53806e-06
-3.59434e-05
-3.50503e-05
-2.35704e-05
-2.03027e-05
2.50025e-05
-2.19561e-05
-2.27611e-05
-2.01745e-05
-2.51143e-05
-1.82446e-05
-2.73516e-05
-1.61892e-05
-2.94621e-05
-1.40314e-05
-3.14324e-05
-1.17936e-05
-3.32485e-05
-9.49861e-06
-3.48939e-05
-7.1695e-06
-3.63439e-05
-4.82733e-06
-3.75447e-05
-2.46868e-06
-3.8302e-05
-3.7519e-05
-2.23082e-05
-2.1674e-05
2.36795e-05
-2.0763e-05
-2.43063e-05
-1.9061e-05
-2.68163e-05
-1.72227e-05
-2.919e-05
-1.52711e-05
-3.14137e-05
-1.32295e-05
-3.34741e-05
-1.11201e-05
-3.5358e-05
-8.96339e-06
-3.70506e-05
-6.77749e-06
-3.85298e-05
-4.57517e-06
-3.9747e-05
-2.34768e-06
-4.05295e-05
-3.98666e-05
-2.10206e-05
-2.29891e-05
2.23356e-05
-1.95411e-05
-2.57858e-05
-1.79152e-05
-2.84421e-05
-1.61645e-05
-3.09407e-05
-1.43122e-05
-3.32659e-05
-1.23821e-05
-3.54042e-05
-1.03964e-05
-3.73437e-05
-8.37424e-06
-3.90727e-05
-6.33057e-06
-4.05735e-05
-4.27348e-06
-4.18041e-05
-2.19337e-06
-4.26096e-05
-4.206e-05
-1.97093e-05
-2.42509e-05
2.09711e-05
-1.82928e-05
-2.72023e-05
-1.67403e-05
-2.99946e-05
-1.50738e-05
-3.26072e-05
-1.33175e-05
-3.50222e-05
-1.14956e-05
-3.7226e-05
-9.63089e-06
-3.92085e-05
-7.74202e-06
-4.09616e-05
-5.84214e-06
-4.24733e-05
-3.93674e-06
-4.37095e-05
-2.01676e-06
-4.45296e-05
-4.40768e-05
-1.83728e-05
-2.54619e-05
1.95838e-05
-1.70169e-05
-2.85582e-05
-1.55353e-05
-3.14762e-05
-1.39507e-05
-3.41917e-05
-1.22881e-05
-3.66848e-05
-1.05728e-05
-3.89413e-05
-8.82823e-06
-4.09531e-05
-7.07333e-06
-4.27165e-05
-5.3205e-06
-4.42262e-05
-3.57366e-06
-4.54563e-05
-1.82432e-06
-4.62789e-05
-4.59011e-05
-1.70072e-05
-2.66249e-05
1.81701e-05
-1.57096e-05
-2.98557e-05
-1.4297e-05
-3.28888e-05
-1.27928e-05
-3.5696e-05
-1.12228e-05
-3.82548e-05
-9.61372e-06
-4.05504e-05
-7.99001e-06
-4.25768e-05
-6.37139e-06
-4.43351e-05
-4.77012e-06
-4.58274e-05
-3.18907e-06
-4.70374e-05
-1.61971e-06
-4.78483e-05
-4.75208e-05
-1.56071e-05
-2.77425e-05
1.67248e-05
-1.43657e-05
-3.10971e-05
-1.30205e-05
-3.4234e-05
-1.15957e-05
-3.71209e-05
-1.01182e-05
-3.97322e-05
-8.61617e-06
-4.20524e-05
-7.11545e-06
-4.40775e-05
-5.63675e-06
-4.58138e-05
-4.1926e-06
-4.72716e-05
-2.78506e-06
-4.84449e-05
-1.40466e-06
-4.92287e-05
-4.89255e-05
-1.41667e-05
-2.88181e-05
1.52423e-05
-1.2979e-05
-3.22848e-05
-1.16998e-05
-3.55132e-05
-1.03539e-05
-3.84668e-05
-8.96955e-06
-4.11165e-05
-7.57639e-06
-4.34456e-05
-6.20189e-06
-4.5452e-05
-4.86791e-06
-4.71478e-05
-3.58742e-06
-4.85521e-05
-2.36181e-06
-4.96705e-05
-1.17968e-06
-5.04108e-05
-5.01051e-05
-1.26794e-05
-2.98553e-05
1.37166e-05
-1.15429e-05
-3.34212e-05
-1.03281e-05
-3.6728e-05
-9.06096e-06
-3.9734e-05
-7.77097e-06
-4.24065e-05
-6.48932e-06
-4.47273e-05
-5.24518e-06
-4.66962e-05
-4.06173e-06
-4.83313e-05
-2.95246e-06
-4.96613e-05
-1.9182e-06
-5.07048e-05
-9.44553e-07
-5.13845e-05
-5.10497e-05
-1.11385e-05
-3.08584e-05
1.21416e-05
-1.00502e-05
-3.45095e-05
-8.89839e-06
-3.78798e-05
-7.70991e-06
-4.09225e-05
-6.5158e-06
-4.36006e-05
-5.34889e-06
-4.58942e-05
-4.24007e-06
-4.7805e-05
-3.21386e-06
-4.93575e-05
-2.28433e-06
-5.05909e-05
-1.45202e-06
-5.15371e-05
-7.00197e-07
-5.21363e-05
-5.17499e-05
-9.53724e-06
-3.18323e-05
1.05111e-05
-8.49364e-06
-3.55531e-05
-7.40294e-06
-3.89705e-05
-6.29316e-06
-4.20323e-05
-5.19677e-06
-4.4697e-05
-4.14832e-06
-4.69426e-05
-3.18047e-06
-4.87728e-05
-2.31908e-06
-5.02189e-05
-1.57874e-06
-5.13312e-05
-9.59304e-07
-5.21565e-05
-4.41809e-07
-5.26538e-05
-5.21917e-05
-7.86855e-06
-3.27825e-05
8.81874e-06
-6.86565e-06
-3.6556e-05
-5.83395e-06
-4.00022e-05
-4.80278e-06
-4.30634e-05
-3.80614e-06
-4.56937e-05
-2.88031e-06
-4.78684e-05
-2.05966e-06
-4.95935e-05
-1.37144e-06
-5.09071e-05
-8.30812e-07
-5.18718e-05
-4.3698e-07
-5.25504e-05
-1.68168e-07
-5.29226e-05
-5.23599e-05
-6.12519e-06
-3.37152e-05
7.05797e-06
-5.15849e-06
-3.75227e-05
-4.18335e-06
-4.09773e-05
-3.23062e-06
-4.40161e-05
-2.33593e-06
-4.65884e-05
-1.53724e-06
-4.86671e-05
-8.70567e-07
-5.02601e-05
-3.64399e-07
-5.14133e-05
-3.42971e-08
-5.22019e-05
1.20809e-07
-5.27055e-05
1.25096e-07
-5.29269e-05
-5.22348e-05
-4.2997e-06
-3.46375e-05
5.22194e-06
-3.3642e-06
-3.84582e-05
-2.44288e-06
-4.18987e-05
-1.56841e-06
-4.48906e-05
-7.78072e-07
-4.73787e-05
-1.11428e-07
-4.93338e-05
3.93828e-07
-5.07654e-05
7.08203e-07
-5.17276e-05
8.15866e-07
-5.23096e-05
7.17464e-07
-5.26071e-05
4.30663e-07
-5.26401e-05
-5.18041e-05
-2.38434e-06
-3.55566e-05
3.30345e-06
-1.47463e-06
-3.93679e-05
-6.04222e-07
-4.27691e-05
1.92154e-07
-4.5687e-05
8.75452e-07
-4.8062e-05
1.40456e-06
-4.98629e-05
1.74003e-06
-5.11009e-05
1.85161e-06
-5.18392e-05
1.72212e-06
-5.21801e-05
1.35183e-06
-5.22368e-05
7.56375e-07
-5.20446e-05
-5.10477e-05
-3.71103e-07
-3.64804e-05
1.29493e-06
5.18441e-07
-4.02575e-05
1.34088e-06
-4.35915e-05
2.059e-06
-4.64051e-05
2.63197e-06
-4.8635e-05
3.01743e-06
-5.02483e-05
3.17477e-06
-5.12582e-05
3.07253e-06
-5.1737e-05
2.693e-06
-5.18006e-05
2.03476e-06
-5.15785e-05
1.11934e-06
-5.11292e-05
-4.99284e-05
1.74806e-06
-3.7417e-05
-8.11454e-07
2.6231e-06
-4.11325e-05
3.40029e-06
-4.43687e-05
4.03978e-06
-4.70446e-05
4.4987e-06
-4.90939e-05
4.73314e-06
-5.04828e-05
4.70348e-06
-5.12285e-05
4.37552e-06
-5.1409e-05
3.73345e-06
-5.11585e-05
2.77127e-06
-5.06164e-05
1.50764e-06
-4.98656e-05
-4.84207e-05
3.98117e-06
-3.83744e-05
-3.02373e-06
4.8473e-06
-4.19987e-05
5.58171e-06
-4.51031e-05
6.14156e-06
-4.76045e-05
6.48165e-06
-4.9434e-05
6.5545e-06
-5.05556e-05
6.32333e-06
-5.09974e-05
5.76309e-06
-5.08488e-05
4.847e-06
-5.02424e-05
3.56289e-06
-4.93323e-05
1.92665e-06
-4.82293e-05
-4.64941e-05
6.33617e-06
-3.93607e-05
-5.34994e-06
7.19867e-06
-4.28612e-05
7.89218e-06
-4.57966e-05
8.36984e-06
-4.80821e-05
8.58131e-06
-4.96454e-05
8.48297e-06
-5.04573e-05
8.04625e-06
-5.05606e-05
7.243e-06
-5.00455e-05
6.03797e-06
-4.90374e-05
4.41283e-06
-4.77071e-05
2.37809e-06
-4.61946e-05
-4.4116e-05
8.82041e-06
-4.03832e-05
-7.79789e-06
9.68383e-06
-4.37246e-05
1.03376e-05
-4.64504e-05
1.07311e-05
-4.84756e-05
1.08082e-05
-4.97226e-05
1.05291e-05
-5.01782e-05
9.87515e-06
-4.99067e-05
8.81236e-06
-4.89827e-05
7.30514e-06
-4.75302e-05
5.32084e-06
-4.57228e-05
2.86254e-06
-4.37363e-05
-4.12534e-05
1.14399e-05
-4.14486e-05
-1.03745e-05
1.23076e-05
-4.45923e-05
1.29205e-05
-4.70633e-05
1.32199e-05
-4.8775e-05
1.31501e-05
-4.96528e-05
1.26842e-05
-4.97123e-05
1.17967e-05
-4.90191e-05
1.04637e-05
-4.76498e-05
8.64273e-06
-4.57091e-05
6.28154e-06
-4.33616e-05
3.37592e-06
-4.08307e-05
-3.78775e-05
1.41983e-05
-4.25619e-05
-1.30851e-05
1.5072e-05
-4.54659e-05
1.56437e-05
-4.7635e-05
1.5843e-05
-4.89743e-05
1.56115e-05
-4.94213e-05
1.49409e-05
-4.90417e-05
1.38039e-05
-4.78821e-05
1.21863e-05
-4.60322e-05
1.00382e-05
-4.35611e-05
7.28094e-06
-4.06043e-05
3.90826e-06
-3.7458e-05
-3.39693e-05
1.7096e-05
-4.37255e-05
-1.59323e-05
1.7972e-05
-4.6342e-05
1.84889e-05
-4.81519e-05
1.85797e-05
-4.9065e-05
1.81884e-05
-4.903e-05
1.72919e-05
-4.81452e-05
1.58848e-05
-4.6475e-05
1.39627e-05
-4.41102e-05
1.1465e-05
-4.10634e-05
8.28858e-06
-3.74279e-05
4.43813e-06
-3.36075e-05
-2.95311e-05
2.01314e-05
-4.49409e-05
-1.8916e-05
2.10072e-05
-4.72178e-05
2.1456e-05
-4.86007e-05
2.14177e-05
-4.90268e-05
2.08579e-05
-4.84702e-05
1.97237e-05
-4.70109e-05
1.80285e-05
-4.47798e-05
1.5771e-05
-4.18527e-05
1.28686e-05
-3.8161e-05
9.25095e-06
-3.38102e-05
4.93376e-06
-2.92904e-05
-2.45974e-05
2.32946e-05
-4.6206e-05
-2.20295e-05
2.41673e-05
-4.80905e-05
2.45548e-05
-4.89881e-05
2.43855e-05
-4.88575e-05
2.36188e-05
-4.77035e-05
2.22276e-05
-4.56197e-05
2.0235e-05
-4.27872e-05
1.7592e-05
-3.92097e-05
1.41997e-05
-3.47687e-05
1.01093e-05
-2.97197e-05
5.37248e-06
-2.45536e-05
-1.92249e-05
2.65619e-05
-4.75112e-05
-2.52568e-05
2.74173e-05
-4.89459e-05
2.77274e-05
-4.92982e-05
2.74178e-05
-4.85479e-05
2.64215e-05
-4.67073e-05
2.47711e-05
-4.39692e-05
2.24652e-05
-4.04814e-05
1.93787e-05
-3.61232e-05
1.54624e-05
-3.08524e-05
1.08612e-05
-2.51185e-05
5.74252e-06
-1.94349e-05
-1.34824e-05
2.98987e-05
-4.88378e-05
-2.85721e-05
3.0715e-05
-4.97623e-05
3.09185e-05
-4.95017e-05
3.04205e-05
-4.80498e-05
2.91906e-05
-4.54774e-05
2.72693e-05
-4.2048e-05
2.45864e-05
-3.77985e-05
2.10257e-05
-3.25625e-05
1.66104e-05
-2.6437e-05
1.15044e-05
-2.00125e-05
5.96721e-06
-1.38977e-05
-7.51516e-06
3.32548e-05
-5.01563e-05
-3.19363e-05
3.39907e-05
-5.04982e-05
3.40392e-05
-4.95501e-05
3.33092e-05
-4.73198e-05
3.18186e-05
-4.39869e-05
2.95795e-05
-3.98088e-05
2.64712e-05
-3.46902e-05
2.24407e-05
-2.8532e-05
1.75621e-05
-2.15584e-05
1.20108e-05
-1.44612e-05
6.03184e-06
-7.91878e-06
-1.48332e-06
3.65522e-05
-5.14166e-05
-3.52919e-05
3.71443e-05
-5.10903e-05
3.69715e-05
-4.93774e-05
3.59741e-05
-4.63224e-05
3.41788e-05
-4.21916e-05
3.15519e-05
-3.71819e-05
2.79998e-05
-3.11381e-05
2.35351e-05
-2.40673e-05
1.82702e-05
-1.62934e-05
1.24086e-05
-8.59963e-06
6.19002e-06
-1.70024e-06
4.7067e-06
3.9696e-05
-5.25508e-05
-3.85618e-05
4.00688e-05
-5.14631e-05
3.95928e-05
-4.89013e-05
3.82519e-05
-4.49816e-05
3.6088e-05
-4.00276e-05
3.30341e-05
-3.41281e-05
2.90506e-05
-2.71546e-05
2.42084e-05
-1.92251e-05
1.86631e-05
-1.07482e-05
1.26422e-05
-2.57871e-06
6.40347e-06
4.53847e-06
1.11102e-05
4.25496e-05
-5.34611e-05
-4.16394e-05
4.25957e-05
-5.15092e-05
4.17225e-05
-4.80281e-05
3.99603e-05
-4.32194e-05
3.73533e-05
-3.74205e-05
3.38524e-05
-3.06272e-05
2.94793e-05
-2.27814e-05
2.43507e-05
-1.40965e-05
1.86576e-05
-5.0551e-06
1.26376e-05
3.44126e-06
6.5002e-06
1.06759e-05
1.76104e-05
4.49324e-05
-5.40113e-05
-4.43821e-05
4.45129e-05
-5.10897e-05
4.31348e-05
-4.665e-05
4.08789e-05
-4.09635e-05
3.77874e-05
-3.4329e-05
3.38521e-05
-2.66919e-05
2.91586e-05
-1.8088e-05
2.38658e-05
-8.80369e-06
1.81786e-05
6.32139e-07
1.23365e-05
9.28331e-06
6.44159e-06
1.65708e-05
2.40519e-05
4.66169e-05
-5.40254e-05
-4.66029e-05
4.55813e-05
-5.00541e-05
4.35901e-05
-4.46588e-05
4.07799e-05
-3.81533e-05
3.71935e-05
-3.07426e-05
3.28806e-05
-2.2379e-05
2.79877e-05
-1.31951e-05
2.26931e-05
-3.50909e-06
1.71913e-05
6.13389e-06
1.16741e-05
1.48006e-05
6.10311e-06
2.21418e-05
3.01551e-05
4.73187e-05
-5.33141e-05
-4.803e-05
4.55591e-05
-4.82945e-05
4.28758e-05
-4.19754e-05
3.94751e-05
-3.47527e-05
3.54233e-05
-2.66907e-05
3.08496e-05
-1.78053e-05
2.59385e-05
-8.28392e-06
2.08479e-05
1.58148e-06
1.57382e-05
1.12436e-05
1.07104e-05
1.98283e-05
5.56721e-06
2.7285e-05
3.57223e-05
4.68801e-05
-5.17428e-05
-4.84514e-05
4.42404e-05
-4.56549e-05
4.08287e-05
-3.85637e-05
3.68423e-05
-3.07664e-05
3.24331e-05
-2.22815e-05
2.78055e-05
-1.31777e-05
2.31161e-05
-3.59454e-06
1.84589e-05
6.23873e-06
1.39434e-05
1.57591e-05
9.55058e-06
2.42212e-05
4.95518e-06
3.18804e-05
4.06775e-05
4.49893e-05
-4.90956e-05
-4.76365e-05
4.14371e-05
-4.21027e-05
3.73313e-05
-3.44579e-05
3.28945e-05
-2.63295e-05
2.83839e-05
-1.77709e-05
2.39925e-05
-8.78634e-06
1.9781e-05
6.16986e-07
1.57699e-05
1.02498e-05
1.19816e-05
1.95474e-05
8.25319e-06
2.79496e-05
4.2765e-06
3.58571e-05
4.49539e-05
4.14788e-05
-4.53254e-05
-4.5249e-05
3.70947e-05
-3.77186e-05
3.24607e-05
-2.98238e-05
2.79091e-05
-2.1778e-05
2.36834e-05
-1.35452e-05
1.98203e-05
-4.92324e-06
1.62653e-05
4.17205e-06
1.29924e-05
1.35226e-05
9.93124e-06
2.26086e-05
6.85121e-06
3.10296e-05
3.53799e-06
3.91703e-05
4.84919e-05
3.63426e-05
-4.05918e-05
-4.10762e-05
3.13927e-05
-3.27686e-05
2.66983e-05
-2.51294e-05
2.25376e-05
-1.76173e-05
1.89074e-05
-9.91499e-06
1.56981e-05
-1.71395e-06
1.28189e-05
7.05124e-06
1.02242e-05
1.61174e-05
7.81069e-06
2.50221e-05
5.37826e-06
3.3462e-05
2.76485e-06
4.17837e-05
5.12568e-05
2.9903e-05
-3.52433e-05
-3.52516e-05
2.50079e-05
-2.78736e-05
2.08777e-05
-2.09992e-05
1.74269e-05
-1.41665e-05
1.44348e-05
-6.92292e-06
1.17994e-05
9.21476e-07
9.50105e-06
9.34958e-06
7.50124e-06
1.81172e-05
5.68737e-06
2.68359e-05
3.89129e-06
3.52581e-05
1.97456e-06
4.37005e-05
5.32313e-05
2.30077e-05
-3.00699e-05
-2.81811e-05
1.88697e-05
-2.37355e-05
1.55489e-05
-1.76785e-05
1.27333e-05
-1.13508e-05
1.02768e-05
-4.46645e-06
8.14994e-06
3.04833e-06
6.35815e-06
1.11414e-05
4.87786e-06
1.95975e-05
3.61665e-06
2.80971e-05
2.42868e-06
3.64461e-05
1.18711e-06
4.4942e-05
5.44185e-05
1.66582e-05
-2.58382e-05
-2.08899e-05
1.34132e-05
-2.04905e-05
1.07252e-05