/*--------------------------------*- C++ -*----------------------------------*\
| =========                 |                                                 |
| \\      /  F ield         | OpenFOAM: The Open Source CFD Toolbox           |
|  \\    /   O peration     | Version:  v2012                                 |
|   \\  /    A nd           | Website:  www.openfoam.com                      |
|    \\/     M anipulation  |                                                 |
\*---------------------------------------------------------------------------*/
FoamFile
{
    version     2.0;
    format      ascii;
    class       volVectorField;
    location    "662";
    object      U;
}
// * * * * * * * * * * * * * * * * * * * * * * * * * * * * * * * * * * * * * //

dimensions      [0 1 -1 0 0 0 0];


internalField   nonuniform List<vector> 
6084
(
(0.000413024 -0.989641 0)
(0.000387151 -0.990207 0)
(0.000369945 -0.990721 0)
(0.000360108 -0.991204 0)
(0.000356033 -0.991668 0)
(0.000356517 -0.992122 0)
(0.000360606 -0.992573 0)
(0.000367949 -0.993026 0)
(0.000378189 -0.993487 0)
(0.000391215 -0.993959 0)
(0.000407093 -0.994447 0)
(0.000425917 -0.994953 0)
(0.000447621 -0.995482 0)
(0.000471809 -0.996037 0)
(0.000497504 -0.996622 0)
(0.000521753 -0.997243 0)
(0.000537096 -0.997909 0)
(0.000527253 -0.998598 0)
(0.00042967 -0.999207 0)
(0.000113684 -0.999622 0)
(0.000575417 -0.999387 0)
(0.00050446 -0.999547 0)
(0.000456014 -0.99966 0)
(0.00042526 -0.999742 0)
(0.000407278 -0.999804 0)
(0.000398522 -0.999853 0)
(0.00039589 -0.999893 0)
(0.000399019 -0.999929 0)
(0.000406747 -0.999962 0)
(0.000418409 -0.999994 0)
(0.000433833 -1.00003 0)
(0.000452931 -1.00006 0)
(0.00047557 -1.0001 0)
(0.000501712 -1.00014 0)
(0.000531011 -1.00018 0)
(0.000558866 -1.00022 0)
(0.000575766 -1.00025 0)
(0.000581613 -1.00026 0)
(0.000530283 -1.00021 0)
(0.000286769 -1.00005 0)
(0.000667688 -1.00211 0)
(0.000553647 -1.00213 0)
(0.000476109 -1.00211 0)
(0.000425548 -1.00206 0)
(0.000393863 -1.002 0)
(0.000376906 -1.00192 0)
(0.000367899 -1.00183 0)
(0.000366512 -1.00174 0)
(0.000370742 -1.00163 0)
(0.000379485 -1.00153 0)
(0.000392157 -1.00141 0)
(0.000408485 -1.0013 0)
(0.000428304 -1.00117 0)
(0.000449914 -1.00104 0)
(0.000467019 -1.0009 0)
(0.000479232 -1.00076 0)
(0.000485104 -1.00059 0)
(0.000466666 -1.00041 0)
(0.000388555 -1.0002 0)
(0.000188122 -1.00004 0)
(0.000674485 -1.00332 0)
(0.000522273 -1.00326 0)
(0.000417798 -1.00316 0)
(0.000349951 -1.00305 0)
(0.000306199 -1.00292 0)
(0.000279475 -1.00277 0)
(0.000264717 -1.00262 0)
(0.00025809 -1.00246 0)
(0.000257293 -1.0023 0)
(0.000260967 -1.00212 0)
(0.000268194 -1.00194 0)
(0.000278329 -1.00175 0)
(0.00029076 -1.00155 0)
(0.000304179 -1.00134 0)
(0.000315718 -1.00111 0)
(0.000322656 -1.00088 0)
(0.000319504 -1.00064 0)
(0.000293983 -1.00039 0)
(0.000226212 -1.00016 0)
(9.41213e-05 -1.00002 0)
(0.000621511 -1.0039 0)
(0.000429385 -1.00378 0)
(0.000304974 -1.00363 0)
(0.000229997 -1.00347 0)
(0.000177933 -1.0033 0)
(0.000144725 -1.00312 0)
(0.000123714 -1.00294 0)
(0.000110916 -1.00275 0)
(0.000103677 -1.00256 0)
(0.000100348 -1.00235 0)
(9.98386e-05 -1.00214 0)
(0.00010141 -1.00192 0)
(0.000104481 -1.00168 0)
(0.000108254 -1.00143 0)
(0.000111394 -1.00117 0)
(0.000112611 -1.00091 0)
(0.000109964 -1.00063 0)
(9.9189e-05 -1.00037 0)
(7.36912e-05 -1.00014 0)
(2.87282e-05 -1.00002 0)
(0.000498916 -1.00408 0)
(0.000298047 -1.00389 0)
(0.000165379 -1.0037 0)
(8.41509e-05 -1.00352 0)
(2.98055e-05 -1.00333 0)
(-6.48573e-06 -1.00314 0)
(-3.15061e-05 -1.00295 0)
(-4.92836e-05 -1.00276 0)
(-6.24818e-05 -1.00256 0)
(-7.28318e-05 -1.00236 0)
(-8.14897e-05 -1.00214 0)
(-8.91995e-05 -1.00192 0)
(-9.63541e-05 -1.00168 0)
(-0.000102821 -1.00143 0)
(-0.000107791 -1.00117 0)
(-0.000110318 -1.00091 0)
(-0.000108506 -1.00064 0)
(-9.82706e-05 -1.00037 0)
(-7.32042e-05 -1.00014 0)
(-2.85677e-05 -1.00002 0)
(0.000313779 -1.00386 0)
(0.000128913 -1.00359 0)
(9.13476e-07 -1.00338 0)
(-7.14216e-05 -1.00318 0)
(-0.000120731 -1.003 0)
(-0.000155649 -1.00283 0)
(-0.000181829 -1.00266 0)
(-0.000202551 -1.00249 0)
(-0.000220116 -1.00232 0)
(-0.000236105 -1.00214 0)
(-0.000251606 -1.00195 0)
(-0.000267293 -1.00176 0)
(-0.000283421 -1.00155 0)
(-0.000299274 -1.00134 0)
(-0.000312474 -1.00112 0)
(-0.000320638 -1.00088 0)
(-0.000318202 -1.00064 0)
(-0.000293155 -1.00039 0)
(-0.000225792 -1.00016 0)
(-9.3982e-05 -1.00002 0)
(-4.74681e-06 -1.00297 0)
(-7.72171e-05 -1.00264 0)
(-0.000165697 -1.00244 0)
(-0.000211806 -1.00227 0)
(-0.000249009 -1.00213 0)
(-0.000277947 -1.00201 0)
(-0.000301729 -1.00189 0)
(-0.000322246 -1.00178 0)
(-0.000341138 -1.00166 0)
(-0.000359695 -1.00154 0)
(-0.000378949 -1.00143 0)
(-0.000399715 -1.0013 0)
(-0.000422505 -1.00118 0)
(-0.00044596 -1.00105 0)
(-0.00046425 -1.00091 0)
(-0.000477636 -1.00076 0)
(-0.0004842 -1.00059 0)
(-0.000466003 -1.00041 0)
(-0.000388243 -1.0002 0)
(-0.000188026 -1.00004 0)
(-0.000430091 -1.00068 0)
(-0.00023351 -1.00012 0)
(-0.000273933 -1.00006 0)
(-0.000289804 -0.999996 0)
(-0.000312781 -0.999974 0)
(-0.000333299 -0.999966 0)
(-0.0003521 -0.999969 0)
(-0.000369712 -0.999979 0)
(-0.000387131 -0.999995 0)
(-0.000405312 -1.00002 0)
(-0.000425088 -1.00004 0)
(-0.000447084 -1.00007 0)
(-0.000471663 -1.00011 0)
(-0.000499142 -1.00014 0)
(-0.000529372 -1.00018 0)
(-0.000557769 -1.00022 0)
(-0.000575016 -1.00025 0)
(-0.000581014 -1.00026 0)
(-0.000530257 -1.00021 0)
(-0.000286741 -1.00005 0)
(-0.000649894 -0.992757 0)
(-0.000241354 -0.990761 0)
(-0.000303329 -0.991139 0)
(-0.000304923 -0.991504 0)
(-0.00031505 -0.991872 0)
(-0.000327732 -0.992259 0)
(-0.000340861 -0.992665 0)
(-0.000354509 -0.993087 0)
(-0.000369101 -0.993528 0)
(-0.000385082 -0.993986 0)
(-0.000402963 -0.994464 0)
(-0.000423139 -0.994964 0)
(-0.000445752 -0.995489 0)
(-0.000470559 -0.996041 0)
(-0.000496697 -0.996624 0)
(-0.000521251 -0.997244 0)
(-0.000536789 -0.99791 0)
(-0.000527112 -0.998598 0)
(-0.000429594 -0.999207 0)
(-0.000113671 -0.999622 0)
(0.00276207 -0.965709 0)
(0.0022704 -0.97051 0)
(0.00186616 -0.974432 0)
(0.00153433 -0.97761 0)
(0.00126597 -0.980184 0)
(0.00105147 -0.98227 0)
(0.000881705 -0.983971 0)
(0.000748311 -0.985366 0)
(0.000643806 -0.986524 0)
(0.000561676 -0.987494 0)
(0.000498071 -0.988316 0)
(0.00044927 -0.989024 0)
(0.00636468 -0.981761 0)
(0.00516606 -0.985784 0)
(0.00417128 -0.988996 0)
(0.00335494 -0.991528 0)
(0.0026947 -0.993511 0)
(0.00216725 -0.995057 0)
(0.00175001 -0.996256 0)
(0.00142231 -0.997184 0)
(0.00116583 -0.9979 0)
(0.000963696 -0.998448 0)
(0.000801969 -0.998862 0)
(0.000673557 -0.999166 0)
(0.00993963 -0.986947 0)
(0.00801118 -0.990658 0)
(0.00640806 -0.993575 0)
(0.00509653 -0.995836 0)
(0.00404005 -0.997573 0)
(0.00319975 -0.998894 0)
(0.00253751 -0.999891 0)
(0.00201849 -1.00064 0)
(0.00161255 -1.00119 0)
(0.00129233 -1.00158 0)
(0.00103428 -1.00186 0)
(0.000827091 -1.00202 0)
(0.0133033 -0.990062 0)
(0.010654 -0.993515 0)
(0.00845522 -0.996186 0)
(0.00666257 -0.998218 0)
(0.00522514 -0.999746 0)
(0.00408784 -1.00088 0)
(0.00319596 -1.00172 0)
(0.00249919 -1.00232 0)
(0.00195519 -1.00275 0)
(0.00152672 -1.00305 0)
(0.0011783 -1.00324 0)
(0.000893279 -1.00332 0)
(0.0164509 -0.992341 0)
(0.0130922 -0.995557 0)
(0.0103133 -0.997998 0)
(0.00805624 -0.999816 0)
(0.00625559 -1.00115 0)
(0.00483957 -1.00211 0)
(0.00373582 -1.0028 0)
(0.00287725 -1.00329 0)
(0.00221006 -1.00362 0)
(0.00169039 -1.00383 0)
(0.00126599 -1.00396 0)
(0.000905648 -1.00398 0)
(0.0194315 -0.993557 0)
(0.0153684 -0.996631 0)
(0.0120032 -0.998931 0)
(0.00927558 -1.00062 0)
(0.00711632 -1.00183 0)
(0.00543634 -1.0027 0)
(0.00414224 -1.0033 0)
(0.00314871 -1.00371 0)
(0.00238695 -1.00398 0)
(0.00180559 -1.00414 0)
(0.0013232 -1.00423 0)
(0.000858633 -1.00425 0)
(0.0222907 -0.992171 0)
(0.0174845 -0.995454 0)
(0.0135241 -0.997902 0)
(0.0103689 -0.999722 0)
(0.00791614 -1.00107 0)
(0.00603539 -1.00206 0)
(0.00460387 -1.00279 0)
(0.00350768 -1.00331 0)
(0.00264952 -1.00365 0)
(0.00196681 -1.00387 0)
(0.00139415 -1.00406 0)
(0.000791899 -1.00409 0)
(0.0257472 -0.983174 0)
(0.0203084 -0.987407 0)
(0.0158347 -0.990896 0)
(0.0122772 -0.993719 0)
(0.00949172 -0.996015 0)
(0.00729155 -0.997926 0)
(0.00555115 -0.999516 0)
(0.00415492 -1.0008 0)
(0.00298137 -1.00179 0)
(0.00198569 -1.00252 0)
(0.00134867 -1.00308 0)
(0.00080115 -1.00329 0)
(0.0295571 -0.951101 0)
(0.0234847 -0.95763 0)
(0.0183064 -0.963867 0)
(0.0139396 -0.969795 0)
(0.0103638 -0.97547 0)
(0.00749815 -0.980879 0)
(0.00520913 -0.985862 0)
(0.00349955 -0.990274 0)
(0.00227585 -0.993982 0)
(0.0014691 -0.996752 0)
(0.0015856 -0.998765 0)
(0.00182001 -1.00036 0)
(0.0374735 -0.846721 0)
(0.0320967 -0.852419 0)
(0.0275465 -0.859883 0)
(0.0241309 -0.869136 0)
(0.0222469 -0.880046 0)
(0.0212075 -0.892621 0)
(0.020473 -0.906584 0)
(0.01954 -0.921781 0)
(0.0181646 -0.93764 0)
(0.0159677 -0.951319 0)
(0.0137033 -0.963889 0)
(0.00802619 -0.979946 0)
(-0.0245967 0.0133464 0)
(-0.0195598 0.0459098 0)
(-0.00612986 0.0485343 0)
(0.0061808 0.0329705 0)
(0.0151291 0.000183602 0)
(0.0272514 -0.0512964 0)
(0.037608 -0.134078 0)
(0.039653 -0.223687 0)
(0.0369741 -0.304654 0)
(0.0335624 -0.378648 0)
(0.0305608 -0.446505 0)
(0.027955 -0.508674 0)
(0.0255618 -0.565628 0)
(0.0233209 -0.617696 0)
(0.0212008 -0.665141 0)
(0.0191846 -0.708176 0)
(0.0172685 -0.746989 0)
(0.0154639 -0.781812 0)
(0.0137636 -0.812842 0)
(0.0121573 -0.840285 0)
(0.0106538 -0.864361 0)
(0.00926023 -0.885306 0)
(0.0079822 -0.903372 0)
(0.00682305 -0.918817 0)
(0.00578409 -0.931908 0)
(0.00486459 -0.942908 0)
(0.00406018 -0.952061 0)
(0.00335917 -0.95958 0)
(-0.0466021 0.00377054 0)
(-0.0152153 0.0263295 0)
(0.0150761 0.0155644 0)
(0.03552 -0.022964 0)
(0.0602671 -0.0888273 0)
(0.0838517 -0.167863 0)
(0.0955821 -0.250152 0)
(0.0942668 -0.319591 0)
(0.0876151 -0.38462 0)
(0.0806914 -0.447579 0)
(0.0742274 -0.50709 0)
(0.0682237 -0.562711 0)
(0.0625869 -0.614331 0)
(0.0572405 -0.661981 0)
(0.0521326 -0.70571 0)
(0.0472362 -0.745586 0)
(0.0425437 -0.781687 0)
(0.0380555 -0.814113 0)
(0.0337827 -0.842957 0)
(0.0297479 -0.868396 0)
(0.025975 -0.89063 0)
(0.0224843 -0.909883 0)
(0.0192901 -0.926395 0)
(0.0163996 -0.94042 0)
(0.0138144 -0.952212 0)
(0.0115312 -0.962025 0)
(0.00954116 -0.970091 0)
(0.00781826 -0.976603 0)
(-0.0567098 -0.012214 0)
(0.00385987 -0.00311509 0)
(0.0456173 -0.0378534 0)
(0.0830389 -0.0962722 0)
(0.118146 -0.1695 0)
(0.141682 -0.241951 0)
(0.148444 -0.306833 0)
(0.143916 -0.365485 0)
(0.135816 -0.423682 0)
(0.127008 -0.480469 0)
(0.118092 -0.534916 0)
(0.109358 -0.586562 0)
(0.100869 -0.635083 0)
(0.0926172 -0.680281 0)
(0.0845824 -0.722031 0)
(0.0767637 -0.760266 0)
(0.06918 -0.79497 0)
(0.0618662 -0.826178 0)
(0.0548725 -0.853979 0)
(0.0482541 -0.878509 0)
(0.0420595 -0.899942 0)
(0.0363278 -0.918482 0)
(0.0310852 -0.934353 0)
(0.0263442 -0.947798 0)
(0.0221055 -0.95906 0)
(0.0183603 -0.968385 0)
(0.0150941 -0.976005 0)
(0.0122833 -0.982148 0)
(-0.0397202 -0.0248187 0)
(0.0307666 -0.0384016 0)
(0.0871197 -0.0895331 0)
(0.136826 -0.155354 0)
(0.173578 -0.223564 0)
(0.192054 -0.284779 0)
(0.194495 -0.339854 0)
(0.188637 -0.39358 0)
(0.179875 -0.44745 0)
(0.169763 -0.50028 0)
(0.15904 -0.551491 0)
(0.148144 -0.60057 0)
(0.137253 -0.647103 0)
(0.126439 -0.690774 0)
(0.115742 -0.73135 0)
(0.105209 -0.768672 0)
(0.0949033 -0.802652 0)
(0.0849063 -0.833269 0)
(0.0753084 -0.860571 0)
(0.0661993 -0.884659 0)
(0.0576575 -0.905687 0)
(0.0497448 -0.923845 0)
(0.0425028 -0.939354 0)
(0.0359528 -0.95245 0)
(0.0300981 -0.963378 0)
(0.0249274 -0.972381 0)
(0.0204174 -0.979693 0)
(0.0165332 -0.985541 0)
(-0.0113706 -0.037086 0)
(0.068312 -0.0685498 0)
(0.134972 -0.129055 0)
(0.18845 -0.195 0)
(0.221558 -0.256007 0)
(0.235167 -0.310018 0)
(0.235674 -0.360954 0)
(0.229735 -0.41199 0)
(0.220658 -0.46302 0)
(0.209698 -0.513344 0)
(0.197703 -0.562488 0)
(0.185154 -0.609935 0)
(0.172296 -0.655233 0)
(0.159268 -0.697997 0)
(0.146171 -0.737915 0)
(0.133112 -0.774752 0)
(0.120214 -0.808355 0)
(0.107616 -0.838655 0)
(0.0954601 -0.865664 0)
(0.0838842 -0.889464 0)
(0.0730057 -0.910199 0)
(0.0629158 -0.928062 0)
(0.053676 -0.943274 0)
(0.0453178 -0.956078 0)
(0.0378483 -0.966719 0)
(0.0312538 -0.975444 0)
(0.0255048 -0.982484 0)
(0.0205572 -0.98807 0)
(0.0287779 -0.0452518 0)
(0.114725 -0.0903588 0)
(0.185189 -0.155395 0)
(0.236397 -0.218588 0)
(0.264527 -0.274275 0)
(0.27499 -0.324961 0)
(0.274903 -0.374273 0)
(0.269088 -0.423743 0)
(0.259788 -0.473073 0)
(0.248226 -0.521891 0)
(0.235242 -0.569781 0)
(0.221319 -0.616254 0)
(0.206736 -0.660837 0)
(0.19168 -0.703091 0)
(0.176312 -0.742641 0)
(0.160801 -0.77919 0)
(0.145343 -0.812533 0)
(0.130145 -0.842568 0)
(0.115419 -0.86929 0)
(0.10136 -0.892784 0)
(0.0881305 -0.913203 0)
(0.0758574 -0.930753 0)
(0.0646226 -0.945671 0)
(0.0544657 -0.958208 0)
(0.0453927 -0.968616 0)
(0.037385 -0.977139 0)
(0.0304056 -0.984004 0)
(0.0244042 -0.989432 0)
(0.0786086 -0.0486318 0)
(0.16685 -0.103518 0)
(0.235459 -0.170589 0)
(0.281668 -0.230771 0)
(0.305326 -0.283615 0)
(0.313846 -0.333187 0)
(0.313443 -0.381893 0)
(0.307581 -0.430514 0)
(0.298046 -0.478911 0)
(0.285986 -0.526878 0)
(0.272157 -0.574048 0)
(0.257011 -0.619954 0)
(0.240831 -0.664102 0)
(0.223835 -0.706003 0)
(0.206237 -0.745223 0)
(0.18828 -0.781412 0)
(0.170239 -0.814336 0)
(0.152412 -0.843882 0)
(0.135089 -0.870061 0)
(0.118533 -0.892989 0)
(0.10296 -0.912858 0)
(0.0885295 -0.929914 0)
(0.0753381 -0.944427 0)
(0.0634201 -0.956674 0)
(0.0527778 -0.966918 0)
(0.0433829 -0.975393 0)
(0.0351906 -0.982309 0)
(0.0281431 -0.987864 0)
(0.132861 -0.0518174 0)
(0.221375 -0.110391 0)
(0.284877 -0.177596 0)
(0.325387 -0.235446 0)
(0.345371 -0.287167 0)
(0.352462 -0.336588 0)
(0.35166 -0.385097 0)
(0.345599 -0.433297 0)
(0.335804 -0.481202 0)
(0.323286 -0.528683 0)
(0.308681 -0.575399 0)
(0.292374 -0.620881 0)
(0.274631 -0.664588 0)
(0.255685 -0.705968 0)
(0.235806 -0.744522 0)
(0.215321 -0.779852 0)
(0.194612 -0.81171 0)
(0.174082 -0.840009 0)
(0.154123 -0.864822 0)
(0.135076 -0.886353 0)
(0.117207 -0.904896 0)
(0.100697 -0.920797 0)
(0.0856486 -0.934414 0)
(0.0721135 -0.946026 0)
(0.0600753 -0.956001 0)
(0.0494757 -0.96454 0)
(0.0402601 -0.97183 0)
(0.0323431 -0.978027 0)
(0.197283 -0.0544829 0)
(0.275877 -0.112958 0)
(0.333175 -0.179038 0)
(0.368222 -0.23534 0)
(0.385234 -0.286732 0)
(0.391055 -0.336272 0)
(0.389722 -0.384709 0)
(0.383361 -0.432673 0)
(0.373266 -0.48026 0)
(0.360271 -0.527357 0)
(0.344868 -0.573605 0)
(0.327347 -0.618481 0)
(0.307931 -0.661351 0)
(0.286866 -0.701554 0)
(0.264488 -0.738489 0)
(0.241237 -0.771701 0)
(0.217634 -0.800933 0)
(0.194231 -0.826164 0)
(0.171551 -0.847587 0)
(0.150034 -0.865573 0)
(0.13001 -0.880605 0)
(0.111681 -0.893226 0)
(0.0951374 -0.903979 0)
(0.0803814 -0.913363 0)
(0.0673186 -0.921795 0)
(0.0558117 -0.929604 0)
(0.0457126 -0.937035 0)
(0.0368973 -0.94426 0)
(0.258727 -0.0546636 0)
(0.329345 -0.111866 0)
(0.380415 -0.176722 0)
(0.410602 -0.232127 0)
(0.425109 -0.283413 0)
(0.429674 -0.332954 0)
(0.42769 -0.381269 0)
(0.420934 -0.428971 0)
(0.410457 -0.476176 0)
(0.39688 -0.522723 0)
(0.380522 -0.568168 0)
(0.361548 -0.611844 0)
(0.340114 -0.652937 0)
(0.31648 -0.69059 0)
(0.291072 -0.724035 0)
(0.264489 -0.75272 0)
(0.237455 -0.776395 0)
(0.210729 -0.79514 0)
(0.185017 -0.809334 0)
(0.160894 -0.819573 0)
(0.138763 -0.826576 0)
(0.118849 -0.831101 0)
(0.101229 -0.833876 0)
(0.0858601 -0.835571 0)
(0.0726188 -0.836776 0)
(0.0613363 -0.838012 0)
(0.051829 -0.839765 0)
(0.0439026 -0.842549 0)
(0.0346904 -0.611059 0)
(0.0301489 -0.589016 0)
(0.026365 -0.564471 0)
(0.0230994 -0.536898 0)
(0.0199463 -0.505354 0)
(0.0163083 -0.468701 0)
(0.0116798 -0.426474 0)
(0.00580869 -0.378121 0)
(0.000554135 -0.32135 0)
(-0.00703351 -0.257119 0)
(-0.0245093 -0.195976 0)
(-0.0385903 -0.145151 0)
(0.00414115 -0.37814 0)
(-0.00421782 -0.343854 0)
(-0.0121189 -0.307723 0)
(-0.0195952 -0.269918 0)
(-0.0269655 -0.230855 0)
(-0.0349323 -0.190747 0)
(-0.0423386 -0.151072 0)
(-0.0480887 -0.111819 0)
(-0.0524905 -0.0712238 0)
(-0.0571155 -0.0314788 0)
(-0.0731202 0.000538267 0)
(-0.113106 0.0078715 0)
(-0.0244031 -0.227032 0)
(-0.0325361 -0.199908 0)
(-0.0400689 -0.173858 0)
(-0.0465089 -0.149126 0)
(-0.0519259 -0.125356 0)
(-0.0578302 -0.101219 0)
(-0.0648501 -0.0787261 0)
(-0.0713715 -0.0586434 0)
(-0.0759758 -0.0390682 0)
(-0.0802234 -0.0197109 0)
(-0.0891397 -0.00242547 0)
(-0.101352 0.000899488 0)
(-0.0434286 -0.162276 0)
(-0.0502265 -0.146757 0)
(-0.056727 -0.131215 0)
(-0.0631479 -0.116231 0)
(-0.0691779 -0.101128 0)
(-0.0747165 -0.0860496 0)
(-0.0797171 -0.0712841 0)
(-0.0843993 -0.056631 0)
(-0.0888485 -0.0414391 0)
(-0.0939302 -0.0256741 0)
(-0.100524 -0.0114707 0)
(-0.102721 -0.00380521 0)
(-0.0540399 -0.141504 0)
(-0.0610138 -0.130882 0)
(-0.0675652 -0.119791 0)
(-0.0738401 -0.108278 0)
(-0.0798984 -0.0962067 0)
(-0.0857703 -0.0835733 0)
(-0.0913994 -0.0705092 0)
(-0.0967556 -0.0570201 0)
(-0.101913 -0.0429986 0)
(-0.107104 -0.0286436 0)
(-0.111729 -0.0152757 0)
(-0.109793 -0.00568854 0)
(-0.0618057 -0.132669 0)
(-0.0693063 -0.123888 0)
(-0.0765058 -0.114327 0)
(-0.0834367 -0.104039 0)
(-0.090145 -0.0930428 0)
(-0.0965937 -0.0813668 0)
(-0.102734 -0.0691033 0)
(-0.108533 -0.0563338 0)
(-0.113971 -0.043172 0)
(-0.118991 -0.0298674 0)
(-0.122627 -0.0171239 0)
(-0.119053 -0.00677446 0)
(-0.0686577 -0.126363 0)
(-0.0769069 -0.118387 0)
(-0.0848499 -0.109547 0)
(-0.0924945 -0.0998922 0)
(-0.0998478 -0.0894974 0)
(-0.106854 -0.0784483 0)
(-0.113458 -0.0668412 0)
(-0.119607 -0.0547867 0)
(-0.125231 -0.0424408 0)
(-0.130149 -0.0299858 0)
(-0.133342 -0.0177654 0)
(-0.129335 -0.00716128 0)
(-0.0750453 -0.120463 0)
(-0.084081 -0.112939 0)
(-0.0927735 -0.104552 0)
(-0.101104 -0.0953683 0)
(-0.10905 -0.0854818 0)
(-0.116556 -0.0749977 0)
(-0.123564 -0.0640202 0)
(-0.130009 -0.0526644 0)
(-0.135794 -0.0410721 0)
(-0.140694 -0.0293561 0)
(-0.14376 -0.0176704 0)
(-0.139893 -0.00717499 0)
(-0.0811137 -0.114498 0)
(-0.0909192 -0.107313 0)
(-0.100323 -0.0993004 0)
(-0.109288 -0.0905411 0)
(-0.117775 -0.0811357 0)
(-0.12573 -0.0711933 0)
(-0.133094 -0.0608206 0)
(-0.139795 -0.0501278 0)
(-0.145729 -0.0392351 0)
(-0.15067 -0.028209 0)
(-0.153768 -0.0171077 0)
(-0.150302 -0.00695473 0)
(-0.0869116 -0.108408 0)
(-0.0974541 -0.101526 0)
(-0.107528 -0.0938615 0)
(-0.11708 -0.0855042 0)
(-0.12606 -0.0765579 0)
(-0.134412 -0.0671333 0)
(-0.142081 -0.0573378 0)
(-0.148998 -0.047276 0)
(-0.155067 -0.0370502 0)
(-0.160076 -0.0267016 0)
(-0.163271 -0.0162423 0)
(-0.160297 -0.0065882 0)
(-0.0924669 -0.102206 0)
(-0.103709 -0.0956097 0)
(-0.114409 -0.0882783 0)
(-0.124501 -0.0803056 0)
(-0.133925 -0.0717987 0)
(-0.142625 -0.0628701 0)
(-0.150549 -0.0536289 0)
(-0.157641 -0.0441766 0)
(-0.163818 -0.0346036 0)
(-0.168893 -0.0249389 0)
(-0.172193 -0.0151763 0)
(-0.169711 -0.00612586 0)
(-0.0977955 -0.0958991 0)
(-0.109698 -0.0895761 0)
(-0.120982 -0.0825648 0)
(-0.131568 -0.0749623 0)
(-0.141388 -0.0668786 0)
(-0.150384 -0.0584299 0)
(-0.158513 -0.0497282 0)
(-0.165732 -0.0408748 0)
(-0.171979 -0.0319536 0)
(-0.177096 -0.0229891 0)
(-0.180477 -0.0139724 0)
(-0.178434 -0.00559732 0)
(-0.102909 -0.0894793 0)
(-0.115432 -0.083418 0)
(-0.127257 -0.0767157 0)
(-0.138292 -0.0694719 0)
(-0.148459 -0.0618004 0)
(-0.157701 -0.0538218 0)
(-0.16598 -0.0456529 0)
(-0.173272 -0.0373974 0)
(-0.179539 -0.0291364 0)
(-0.184658 -0.0208937 0)
(-0.188076 -0.0126684 0)
(-0.186391 -0.00501901 0)
(-0.107818 -0.0829279 0)
(-0.120919 -0.077117 0)
(-0.133243 -0.0707138 0)
(-0.144681 -0.0638203 0)
(-0.155147 -0.0565545 0)
(-0.16458 -0.0490424 0)
(-0.172951 -0.0414069 0)
(-0.180254 -0.0337559 0)
(-0.186483 -0.026171 0)
(-0.19155 -0.0186758 0)
(-0.194949 -0.0112855 0)
(-0.193524 -0.00439868 0)
(-0.112533 -0.0762206 0)
(-0.12617 -0.0706481 0)
(-0.138947 -0.0645348 0)
(-0.150741 -0.0579856 0)
(-0.161452 -0.0511228 0)
(-0.171018 -0.0440786 0)
(-0.179418 -0.0369831 0)
(-0.186667 -0.02995 0)
(-0.19279 -0.0230628 0)
(-0.19774 -0.0163444 0)
(-0.20106 -0.0098338 0)
(-0.19979 -0.00373826 0)
(-0.117067 -0.0693296 0)
(-0.131192 -0.0639823 0)
(-0.144375 -0.0581499 0)
(-0.156473 -0.0519404 0)
(-0.167374 -0.0454808 0)
(-0.17701 -0.0389102 0)
(-0.18537 -0.0323664 0)
(-0.192491 -0.02597 0)
(-0.198434 -0.0198076 0)
(-0.203197 -0.0138991 0)
(-0.206371 -0.00831569 0)
(-0.205145 -0.00303597 0)
(-0.121434 -0.0622256 0)
(-0.135998 -0.0570884 0)
(-0.149534 -0.0515273 0)
(-0.161879 -0.0456535 0)
(-0.172908 -0.0395994 0)
(-0.182547 -0.0335113 0)
(-0.190792 -0.027535 0)
(-0.197706 -0.0217987 0)
(-0.203386 -0.0163932 0)
(-0.207882 -0.0113319 0)
(-0.21084 -0.00672804 0)
(-0.209549 -0.00229076 0)
(-0.12565 -0.0548782 0)
(-0.140597 -0.0499338 0)
(-0.154428 -0.0446331 0)
(-0.16696 -0.0390911 0)
(-0.178049 -0.033446 0)
(-0.187616 -0.0278515 0)
(-0.195666 -0.0224621 0)
(-0.202285 -0.0174134 0)
(-0.207613 -0.0128013 0)
(-0.211754 -0.00862908 0)
(-0.214423 -0.00506375 0)
(-0.212964 -0.00151564 0)
(-0.129735 -0.0472565 0)
(-0.145004 -0.042485 0)
(-0.159065 -0.0374319 0)
(-0.171715 -0.0322173 0)
(-0.18279 -0.0269854 0)
(-0.192204 -0.0218977 0)
(-0.199968 -0.0171172 0)
(-0.206198 -0.0127873 0)
(-0.211077 -0.00900905 0)
(-0.214769 -0.00577318 0)
(-0.217068 -0.00331068 0)
(-0.215339 -0.000659712 0)
(-0.133709 -0.0393289 0)
(-0.149233 -0.0347073 0)
(-0.163454 -0.0298872 0)
(-0.176144 -0.0249946 0)
(-0.187122 -0.0201805 0)
(-0.196292 -0.0156141 0)
(-0.203675 -0.0114671 0)
(-0.209412 -0.00789044 0)
(-0.213738 -0.00499079 0)
(-0.216877 -0.00274738 0)
(-0.218706 -0.00144479 0)
(-0.216612 0.000254105 0)
(-0.137598 -0.0310629 0)
(-0.153303 -0.0265654 0)
(-0.167603 -0.0219615 0)
(-0.180248 -0.0173846 0)
(-0.191037 -0.012993 0)
(-0.199865 -0.00896386 0)
(-0.206758 -0.00547702 0)
(-0.211892 -0.00269084 0)
(-0.21555 -0.000717731 0)
(-0.218026 0.000471298 0)
(-0.219258 0.00059101 0)
(-0.216717 0.00118196 0)
(-0.141428 -0.0224246 0)
(-0.157233 -0.0180228 0)
(-0.171523 -0.0136164 0)
(-0.184027 -0.00934798 0)
(-0.194525 -0.00538406 0)
(-0.202901 -0.00190969 0)
(-0.20919 0.000887861 0)
(-0.213599 0.0028421 0)
(-0.216469 0.00383751 0)
(-0.218162 0.0039143 0)
(-0.218765 0.00275438 0)
(-0.215592 0.00215196 0)
(-0.145229 -0.0133787 0)
(-0.161044 -0.00904172 0)
(-0.175226 -0.0048128 0)
(-0.187483 -0.000845443 0)
(-0.197576 0.00268454 0)
(-0.20538 0.00558455 0)
(-0.210938 0.00766097 0)
(-0.214491 0.00873676 0)
(-0.216435 0.00869766 0)
(-0.217202 0.0075846 0)
(-0.216889 0.00502718 0)
(-0.213152 0.00326458 0)
(-0.149033 -0.00388838 0)
(-0.16476 0.000416131 0)
(-0.178725 0.00448825 0)
(-0.190615 0.00816139 0)
(-0.200177 0.0112488 0)
(-0.207278 0.0135525 0)
(-0.211965 0.0148749 0)
(-0.214519 0.0150228 0)
(-0.215393 0.0138934 0)
(-0.215091 0.0115218 0)
(-0.213807 0.00750058 0)
(-0.209293 0.00457296 0)
(-0.152873 0.00608404 0)
(-0.168404 0.0103889 0)
(-0.18203 0.0143245 0)
(-0.193424 0.0177089 0)
(-0.202316 0.0203433 0)
(-0.208567 0.0220283 0)
(-0.212226 0.0225547 0)
(-0.213636 0.0217209 0)
(-0.21329 0.0194487 0)
(-0.211753 0.0157484 0)
(-0.209315 0.0101949 0)
(-0.203886 0.00595692 0)
(-0.156783 0.0165759 0)
(-0.172 0.0209142 0)
(-0.185154 0.024733 0)
(-0.195906 0.0278317 0)
(-0.203975 0.0300018 0)
(-0.20921 0.0310425 0)
(-0.211724 0.0306761 0)
(-0.211809 0.0288409 0)
(-0.210078 0.0253797 0)
(-0.207121 0.0202789 0)
(-0.203335 0.0131137 0)
(-0.196798 0.00746514 0)
(-0.160795 0.0276255 0)
(-0.17557 0.0320293 0)
(-0.188106 0.035748 0)
(-0.198054 0.0385609 0)
(-0.20512 0.0402555 0)
(-0.209171 0.04055 0)
(-0.210321 0.0393077 0)
(-0.208997 0.0364311 0)
(-0.2057 0.0317077 0)
(-0.201116 0.0251292 0)
(-0.195758 0.0162702 0)
(-0.187906 0.00911755 0)
(-0.164943 0.0392689 0)
(-0.179135 0.0437674 0)
(-0.190891 0.0473981 0)
(-0.199859 0.0499277 0)
(-0.205721 0.0511226 0)
(-0.208391 0.0506345 0)
(-0.208089 0.0484856 0)
(-0.205148 0.0444663 0)
(-0.200099 0.0384274 0)
(-0.193662 0.030296 0)
(-0.186479 0.0196654 0)
(-0.177071 0.0109345 0)
(-0.169255 0.0515368 0)
(-0.182713 0.0561537 0)
(-0.193513 0.0597002 0)
(-0.201297 0.0619516 0)
(-0.205763 0.0625121 0)
(-0.206859 0.0612883 0)
(-0.204911 0.0581224 0)
(-0.200205 0.0529137 0)
(-0.193228 0.0455072 0)
(-0.184688 0.0357511 0)
(-0.175394 0.0232781 0)
(-0.164159 0.0129103 0)
(-0.173758 0.0644507 0)
(-0.186316 0.0692015 0)
(-0.19597 0.0726627 0)
(-0.202337 0.0746338 0)
(-0.205132 0.0745124 0)
(-0.20453 0.072456 0)
(-0.200743 0.0681997 0)
(-0.194123 0.0617337 0)
(-0.185029 0.0528891 0)
(-0.174108 0.0414252 0)
(-0.162401 0.0270467 0)
(-0.149051 0.0150237 0)
(-0.178465 0.0780183 0)
(-0.189936 0.0829041 0)
(-0.198226 0.0862668 0)
(-0.202945 0.0877925 0)
(-0.203839 0.0871168 0)
(-0.201296 0.0841083 0)
(-0.195496 0.0786745 0)
(-0.186803 0.0708734 0)
(-0.17541 0.0604606 0)
(-0.16183 0.0471623 0)
(-0.147428 0.0308395 0)
(-0.13168 0.0172322 0)
(-0.183385 0.0922342 0)
(-0.19356 0.0972528 0)
(-0.200223 0.100509 0)
(-0.203076 0.101449 0)
(-0.201895 0.100172 0)
(-0.197108 0.0961783 0)
(-0.189065 0.0895109 0)
(-0.178123 0.0802821 0)
(-0.164302 0.068023 0)
(-0.147809 0.0526596 0)
(-0.130521 0.0344502 0)
(-0.112166 0.0194993 0)
(-0.188521 0.10706 0)
(-0.197184 0.112202 0)
(-0.201963 0.115291 0)
(-0.202626 0.115835 0)
(-0.199187 0.113714 0)
(-0.191883 0.10862 0)
(-0.181398 0.100694 0)
(-0.16809 0.0898828 0)
(-0.151422 0.075519 0)
(-0.131953 0.0575571 0)
(-0.111839 0.0376722 0)
(-0.0909599 0.0218179 0)
(-0.193851 0.122407 0)
(-0.200778 0.127615 0)
(-0.20345 0.130429 0)
(-0.201668 0.130587 0)
(-0.195539 0.127486 0)
(-0.185567 0.121265 0)
(-0.172606 0.112004 0)
(-0.156381 0.0994891 0)
(-0.13628 0.0828063 0)
(-0.113973 0.062023 0)
(-0.0914055 0.0403951 0)
(-0.0681549 0.0240023 0)
(-0.19932 0.138132 0)
(-0.204265 0.143283 0)
(-0.204487 0.145811 0)
(-0.200057 0.145224 0)
(-0.190947 0.141116 0)
(-0.178238 0.133742 0)
(-0.16238 0.122966 0)
(-0.142548 0.108474 0)
(-0.118954 0.0894351 0)
(-0.0937654 0.066061 0)
(-0.0692207 0.0426883 0)
(-0.0426848 0.0254184 0)
(-0.204832 0.154023 0)
(-0.207532 0.158968 0)
(-0.205124 0.160985 0)
(-0.197548 0.159384 0)
(-0.185357 0.154176 0)
(-0.169704 0.145394 0)
(-0.150403 0.132986 0)
(-0.126815 0.116276 0)
(-0.0996734 0.0949842 0)
(-0.0716202 0.0693592 0)
(-0.0453078 0.04457 0)
(-0.0184896 0.0264808 0)
(-0.210226 0.169774 0)
(-0.21035 0.174257 0)
(-0.204924 0.175368 0)
(-0.194036 0.172592 0)
(-0.178629 0.166057 0)
(-0.1597 0.155669 0)
(-0.13661 0.141285 0)
(-0.109203 0.12242 0)
(-0.0786089 0.0991521 0)
(-0.0478901 0.0718244 0)
(-0.0199918 0.0459004 0)
(0.00651272 0.0274617 0)
(-0.215266 0.184975 0)
(-0.212435 0.188652 0)
(-0.20368 0.188481 0)
(-0.189278 0.184161 0)
(-0.170521 0.175886 0)
(-0.147994 0.163749 0)
(-0.121015 0.147229 0)
(-0.0898953 0.126378 0)
(-0.0561507 0.101534 0)
(-0.0231995 0.0731771 0)
(0.00584204 0.0462885 0)
(0.0324173 0.0269661 0)
(-0.219614 0.199064 0)
(-0.213443 0.201423 0)
(-0.201004 0.199474 0)
(-0.182969 0.193214 0)
(-0.160738 0.182865 0)
(-0.13444 0.168656 0)
(-0.103695 0.150079 0)
(-0.0691938 0.127567 0)
(-0.0327999 0.101675 0)
(0.00180122 0.0730812 0)
(0.0314831 0.0458935 0)
(0.0584936 0.0264037 0)
(-0.222794 0.211281 0)
(-0.212826 0.211626 0)
(-0.19648 0.207302 0)
(-0.174743 0.198652 0)
(-0.148978 0.186037 0)
(-0.119043 0.169584 0)
(-0.0848803 0.149157 0)
(-0.047537 0.12547 0)
(-0.00915601 0.0991931 0)
(0.0264441 0.0712253 0)
(0.0565095 0.0445742 0)
(0.0861178 0.0258852 0)
(-0.224197 0.220606 0)
(-0.21 0.218157 0)
(-0.189624 0.210827 0)
(-0.164308 0.199382 0)
(-0.135178 0.184336 0)
(-0.101937 0.165711 0)
(-0.0649443 0.143874 0)
(-0.0255032 0.119722 0)
(0.014136 0.0938936 0)
(0.0501039 0.0674202 0)
(0.080386 0.0419155 0)
(0.112633 0.0244766 0)
(-0.222949 0.22555 0)
(-0.204325 0.219822 0)
(-0.180012 0.208985 0)
(-0.15151 0.194453 0)
(-0.119372 0.176935 0)
(-0.083446 0.15647 0)
(-0.0444925 0.133983 0)
(-0.00383234 0.110318 0)
(0.0363048 0.0859418 0)
(0.0721517 0.0619069 0)
(0.102677 0.0382428 0)
(0.136618 0.0221841 0)
(-0.218341 0.225841 0)
(-0.195358 0.215461 0)
(-0.167438 0.200872 0)
(-0.136241 0.183246 0)
(-0.101724 0.163363 0)
(-0.0641789 0.141894 0)
(-0.0243815 0.119898 0)
(0.0166047 0.097852 0)
(0.0565056 0.0759948 0)
(0.0917663 0.0551154 0)
(0.12289 0.0340688 0)
(0.158431 0.0195623 0)
(-0.209867 0.219307 0)
(-0.182556 0.204137 0)
(-0.151876 0.185758 0)
(-0.118615 0.16542 0)
(-0.0829218 0.144086 0)
(-0.045154 0.123044 0)
(-0.00563941 0.102864 0)
(0.034841 0.0835327 0)
(0.0738171 0.0650955 0)
(0.108529 0.0475877 0)
(0.140673 0.0293973 0)
(0.177675 0.016857 0)
(-0.19654 0.205027 0)
(-0.166067 0.185304 0)
(-0.133531 0.163691 0)
(-0.09949 0.141699 0)
(-0.0643277 0.120911 0)
(-0.0276948 0.101991 0)
(0.0106786 0.0846744 0)
(0.0499513 0.0686636 0)
(0.0878467 0.0538009 0)
(0.122577 0.0396215 0)
(0.15582 0.0242556 0)
(0.193959 0.0141268 0)
(-0.178768 0.182675 0)
(-0.146312 0.159295 0)
(-0.113445 0.136073 0)
(-0.0808302 0.115136 0)
(-0.0478183 0.0969401 0)
(-0.0130812 0.0810269 0)
(0.0238318 0.0668539 0)
(0.0618816 0.0540334 0)
(0.099087 0.0423191 0)
(0.134034 0.0312575 0)
(0.168138 0.018839 0)
(0.207065 0.0114091 0)
(-0.157328 0.153087 0)
(-0.124973 0.128316 0)
(-0.0945788 0.106993 0)
(-0.0650094 0.0894558 0)
(-0.0342743 0.0745282 0)
(-0.00116314 0.0613516 0)
(0.0344312 0.0498303 0)
(0.0713615 0.0397966 0)
(0.107869 0.030939 0)
(0.142801 0.0227802 0)
(0.177534 0.0133696 0)
(0.216908 0.00864195 0)
(-0.134437 0.119172 0)
(-0.105763 0.0973315 0)
(-0.079232 0.0802326 0)
(-0.0522568 0.0660555 0)
(-0.0230858 0.0537387 0)
(0.00871538 0.0430145 0)
(0.0429071 0.0338384 0)
(0.0785582 0.0262012 0)
(0.114213 0.0198731 0)
(0.148954 0.0144357 0)
(0.184061 0.00797475 0)
(0.22348 0.00596365 0)
(-0.114461 0.0868286 0)
(-0.090675 0.0699154 0)
(-0.0670678 0.0562915 0)
(-0.0416958 0.0445644 0)
(-0.0138848 0.0343944 0)
(0.016558 0.0257307 0)
(0.049343 0.0186163 0)
(0.0836592 0.0131329 0)
(0.11832 0.00913011 0)
(0.152633 0.00627578 0)
(0.187781 0.00262523 0)
(0.226835 0.0036571 0)
(-0.0993403 0.0590889 0)
(-0.0788542 0.0457684 0)
(-0.0569589 0.0343394 0)
(-0.0329106 0.0244166 0)
(-0.00638709 0.0159669 0)
(0.0226868 0.00904575 0)
(0.0540088 0.00377243 0)
(0.0868768 0.000292234 0)
(0.120347 -0.00149742 0)
(0.153954 -0.00187389 0)
(0.188863 -0.00280155 0)