/*--------------------------------*- C++ -*----------------------------------*\
| =========                 |                                                 |
| \\      /  F ield         | OpenFOAM: The Open Source CFD Toolbox           |
|  \\    /   O peration     | Version:  v2012                                 |
|   \\  /    A nd           | Website:  www.openfoam.com                      |
|    \\/     M anipulation  |                                                 |
\*---------------------------------------------------------------------------*/
FoamFile
{
    version     2.0;
    format      ascii;
    class       volScalarField;
    location    "642";
    object      age;
}
// * * * * * * * * * * * * * * * * * * * * * * * * * * * * * * * * * * * * * //

dimensions      [0 0 1 0 0 0 0];


internalField   nonuniform List<scalar> 
6532
(
0.0125017
0.0124996
0.0124998
0.0124998
0.0124999
0.0124999
0.0124998
0.0124998
0.0124996
0.0125017
0.0375092
0.0374974
0.0374976
0.0374979
0.0374981
0.0374981
0.0374979
0.0374976
0.0374974
0.0375092
0.062527
0.0624943
0.0624926
0.062493
0.0624933
0.0624933
0.062493
0.0624926
0.0624943
0.062527
0.0875556
0.0874911
0.0874847
0.0874842
0.0874845
0.0874845
0.0874842
0.0874846
0.0874911
0.0875556
0.112595
0.112488
0.112474
0.112472
0.112471
0.112471
0.112472
0.112474
0.112488
0.112595
0.137645
0.137486
0.137461
0.137455
0.137454
0.137454
0.137455
0.137461
0.137486
0.137645
0.162704
0.162485
0.162445
0.162435
0.162432
0.162432
0.162435
0.162445
0.162485
0.162704
0.187773
0.187484
0.187428
0.187411
0.187406
0.187406
0.187411
0.187428
0.187484
0.187772
0.21285
0.212484
0.212408
0.212384
0.212376
0.212376
0.212384
0.212408
0.212483
0.21285
0.237936
0.237484
0.237387
0.237354
0.237343
0.237343
0.237354
0.237386
0.237483
0.237935
0.26303
0.262485
0.262363
0.262321
0.262306
0.262306
0.26232
0.262362
0.262484
0.263028
0.288131
0.287487
0.287338
0.287285
0.287266
0.287265
0.287284
0.287337
0.287485
0.288129
0.313241
0.312489
0.312312
0.312247
0.312222
0.312222
0.312245
0.312309
0.312486
0.313237
0.338358
0.337492
0.337283
0.337206
0.337176
0.337175
0.337203
0.33728
0.337487
0.338351
0.363482
0.362496
0.362254
0.362162
0.362127
0.362125
0.362158
0.362248
0.362488
0.363477
0.388615
0.387501
0.387223
0.387116
0.387075
0.387072
0.38711
0.387214
0.387489
0.388586
0.413755
0.412507
0.412192
0.412069
0.41202
0.412016
0.412059
0.412178
0.412489
0.413798
0.438905
0.437515
0.43716
0.437019
0.436962
0.436957
0.437004
0.437138
0.437487
0.438606
0.464064
0.462527
0.462129
0.461969
0.461902
0.461893
0.461945
0.462093
0.462486
0.465157
0.489235
0.487542
0.487099
0.486918
0.486839
0.486825
0.486878
0.48704
0.48747
0.484359
0.514701
0.512843
0.51235
0.512145
0.512052
0.51203
0.51208
0.51225
0.512722
0.535375
0.540465
0.538432
0.537886
0.537655
0.537545
0.537511
0.537557
0.537735
0.538259
0.570366
0.566251
0.564037
0.563433
0.563173
0.563044
0.562998
0.563038
0.563235
0.563806
0.604644
0.592068
0.589662
0.588997
0.588706
0.588556
0.588495
0.588534
0.588764
0.58938
0.638237
0.617922
0.615316
0.614585
0.614261
0.614088
0.614013
0.614055
0.614339
0.615009
0.671156
0.643821
0.641007
0.640204
0.639845
0.639648
0.639561
0.639612
0.639978
0.640706
0.703244
0.669778
0.666746
0.665866
0.665469
0.665247
0.665148
0.665218
0.665698
0.666492
0.734466
0.695803
0.692544
0.691581
0.691144
0.690895
0.690787
0.690885
0.691512
0.692381
0.764679
0.721914
0.718416
0.717362
0.716882
0.716606
0.716489
0.716627
0.717438
0.718372
0.793702
0.748126
0.744379
0.743226
0.742699
0.742394
0.742272
0.742461
0.743493
0.744475
0.821469
0.774463
0.770454
0.769191
0.768614
0.768278
0.768154
0.768405
0.769695
0.770706
0.847973
0.80095
0.796665
0.79528
0.794649
0.794281
0.794155
0.794478
0.79606
0.797077
0.873203
0.827617
0.823043
0.821521
0.820831
0.820427
0.820301
0.820701
0.822606
0.823605
0.897192
0.854502
0.849624
0.847947
0.847191
0.846747
0.846619
0.847099
0.849346
0.850304
0.920015
0.881649
0.876451
0.874597
0.873767
0.87328
0.873146
0.8737
0.876295
0.877193
0.941786
0.909113
0.903577
0.901521
0.900606
0.900069
0.899923
0.900537
0.903471
0.904297
0.962684
0.936958
0.931063
0.928776
0.927763
0.927168
0.927
0.927652
0.930893
0.93166
0.982999
0.965267
0.958992
0.956438
0.955309
0.954647
0.954444
0.9551
0.958595
0.959341
1.00314
0.993546
0.986878
0.984022
0.982761
0.982021
0.981768
0.982389
0.986059
0.986865
1.02287
1.02188
1.0148
1.0116
1.01019
1.00936
1.00904
1.00958
1.01333
1.01429
1.0433
1.05095
1.04343
1.03985
1.03824
1.03731
1.03691
1.03733
1.04103
1.04224
1.06488
1.08092
1.07292
1.06889
1.06706
1.066
1.0655
1.06575
1.06928
1.07087
1.08669
1.11197
1.10344
1.09889
1.09678
1.09559
1.09497
1.09501
1.09821
1.10036
1.10882
1.14433
1.13521
1.13005
1.12761
1.12623
1.12548
1.1253
1.12801
1.13094
1.13145
1.17829
1.16848
1.16263
1.15976
1.15816
1.15726
1.15685
1.1589
1.16291
1.15431
1.21423
1.2036
1.19692
1.19352
1.19164
1.19055
1.18993
1.19116
1.19662
1.17953
1.25262
1.24098
1.23332
1.22925
1.22699
1.22567
1.22487
1.22517
1.23143
1.21706
1.29414
1.28122
1.27233
1.2674
1.26462
1.26299
1.26202
1.26146
1.26717
1.2601
1.33973
1.32509
1.31462
1.30855
1.30506
1.30298
1.30181
1.30065
1.30462
1.30408
1.39079
1.37373
1.36114
1.35352
1.34901
1.34627
1.34476
1.34329
1.34513
1.34775
1.44952
1.42885
1.41319
1.40339
1.39741
1.39369
1.39158
1.38994
1.39005
1.39272
1.51991
1.49338
1.47294
1.45984
1.45165
1.44644
1.44333
1.44134
1.44041
1.44173
1.60948
1.57194
1.54338
1.5251
1.51351
1.50605
1.50138
1.49858
1.49699
1.49702
1.73989
1.67783
1.63234
1.60426
1.58685
1.57568
1.56846
1.56399
1.56141
1.56042
1.9575
1.82836
1.74773
1.701
1.67357
1.65674
1.6461
1.63945
1.63557
1.63371
2.9429
2.20012
1.94238
1.85014
1.79752
1.76611
1.7462
1.73339
1.72544
1.72105
13.2981
7.12752
3.37633
2.10798
1.93431
1.88829
1.86531
1.85111
1.84141
1.83497
12.0563
11.5983
7.95811
4.39905
2.70037
2.1496
2.02906
1.98996
1.97115
1.96237
11.4916
11.6947
11.072
8.15405
5.47197
3.76974
2.90163
2.47931
2.31774
2.24802
10.9507
10.0581
9.63239
8.71373
7.32058
6.18414
5.37782
4.75958
4.31076
3.99747
141.128
166.057
166.003
166.48
167.237
168.405
170.011
172.076
174.903
178.189
181.542
185.406
189.079
192.099
194.318
195.713
196.268
196.461
196.643
196.827
197.019
197.233
197.491
197.864
200.01
138.73
163.714
161.603
161.683
161.797
162.307
163.833
167.051
173.501
183.033
194.24
206.451
218.796
230.326
240.114
247.3
251.335
251.183
246.273
237.146
225.377
213.479
204.315
199.546
199.638
132.18
162.566
161.211
161.056
160.955
161.042
161.569
163.566
170.726
185.048
203.931
226.03
249.983
273.888
295.41
312.092
321.774
323.045
315.365
298.938
275.156
247.512
222.165
205.269
199.972
124.833
162.218
161.3
161.073
160.743
160.681
160.854
161.633
166.901
183.333
208.501
240.242
276.987
316.018
353.168
383.252
401.473
404.714
392.493
366.491
329.781
286.679
244.654
213.652
200.838
116.848
162.432
162.3
162.102
161.08
160.518
160.463
160.873
163.419
178.413
207.313
247.005
295.983
351.215
406.646
453.304
482.675
489.087
471.615
433.921
382.49
324.069
266.794
222.422
201.891
107.868
162.912
164.441
164.843
162.942
161.023
160.351
160.313
161.091
171.491
200.481
244.931
303.429
373.296
447.106
511.699
554.232
565.509
543.75
494.681
428.68
355.975
285.692
230.108
202.858
98.5765
162.349
167.369
169.395
166.923
163.075
160.639
160.14
160.336
165.216
189.381
234.238
297.684
377.78
466.793
548.288
604.963
623.39
599.877
542.246
464.484
380.289
300.051
236.078
203.64
89.1925
160.554
170.457
175.337
173.24
167.586
162.376
160.169
159.943
161.166
176.782
216.889
279.514
363.609
461.675
556.457
626.326
655.443
632.644
571.43
487.169
395.946
309.482
240.166
204.217
79.7581
157.43
172.995
181.62
181.273
174.652
166.653
161.252
159.823
159.822
166.613
196.442
252.176
332.751
432.936
535.309
615.076
650.254
640.109
580.253
495.545
402.652
314.026
242.392
204.596
70.386
152.805
174.785
187.525
190.283
184.052
174.003
164.887
160.229
159.565
160.852
177.382
220.934
290.867
384.897
488.256
575.647
623.553
620.583
569.037
490.365
400.91
314.027
242.899
204.817
61.2226
146.614
175.991
192.514
199.487
195.144
184.353
172.285
163.133
159.574
159.44
164.72
191.692
245.475
325.821
422.846
512.889
568.947
577.947
540.858
473.245
391.611
309.934
241.793
205.031
52.371
138.412
176.111
196.274
208.357
207.428
197.431
183.523
170.454
161.886
159.281
159.363
170.218
204.399
265.132
348.342
436.337
500.462
521.169
499.931
446.403
375.92
302.297
239.273
205.245
43.9137
128.661
174.724
198.751
216.43
220.393
212.989
198.924
182.924
169.209
161.181
159.159
160.433
174.604
212.511
274.918
352.891
422.922
457.338
450.699
412.775
355.423
291.87
235.679
205.462
35.9198
117.575
171.448
199.937
223.268
233.37
230.312
218.196
201.232
183.557
168.999
160.97
159.08
161.069
176.1
213.896
272.593
339.882
388.439
397.853
375.401
331.977
279.614
231.431
205.684
28.4644
105.356
165.954
199.629
228.361
245.46
248.415
240.339
224.836
205.561
186.115
170.14
161.274
159.007
160.741
174.306
208.237
260.307
314.47
343.72
336.499
307.309
266.493
226.976
205.915
21.569
91.8205
157.848
197.526
231.033
255.793
266.134
263.88
252.267
234.226
212.805
191.208
173.011
162.204
158.825
159.839
169.871
198
241.428
282.969
297.999
282.423
253.601
222.819
206.161
15.6394
76.9708
146.63
193.029
230.681
263.17
281.738
286.937
281.255
267.197
247.139
223.616
199.504
178.289
164.201
158.55
158.421
164.748
185.355
219.758
251.139
258.564
240.988
219.055
206.427
10.9736
61.3841
131.837
185.18
226.872
265.912
293.427
307.21
309.02
301.129
285.393
263.725
238.253
211.583
186.987
168.367
158.996
156.88
159.534
172.359
197.636
224.119
232.237
218.414
206.751
7.57335
46.2583
113.833
173.2
219.306
262.83
299.105
321.904
332.239
331.737
322.372
305.472
282.553
255.418
226.412
198.524
175.374
161.191
155.811
155.72
161.24
176.203
197.491
209.343
207.574
5.17498
32.5405
93.2319
156.247
207.263
253.73
296.668
328.819
347.885
355.663
353.675
343.436
325.929
302.41
274.369
243.968
213.753
186.878
167.06
156.5
153.209
153.157
158.465
166.49
169.64
3.53822
20.8353
71.1419
133.794
189.405
238.401
285.074
325.333
353.858
370.176
376.371
373.585
363.007
345.775
322.45
294.607
264.133
233.211
204.292
180.051
163.442
153.41
148.176
146.16
145.835
2.48889
11.8887
48.6886
106.311
164.592
216.368
264.621
309.518
346.558
372.435
387.066
391.732
388.504
378.804
362.757
340.667
314.388
285.608
256.499
228.908
204.918
186.308
173.404
165.856
163.159
1.85271
6.54696
29.119
76.1193
132.62
186.566
235.925
282.163
323.909
357.865
381.964
394.865
398.486
395.285
388.234
373.652
354.045
330.105
304.518
279.194
255.113
234.31
218.465
208.201
203.461
1.49834
3.74996
14.925
47.6012
96.0077
148.687
198.752
245.087
287.821
325.621
356.495
378.802
391.484
395.082
395.964
387.329
375.74
358.083
336.817
316.253
296.381
277.099
260.551
247.923
240.153
1.32567
2.36306
6.64752
24.4162
59.6445
105.267
153.228
198.984
241.213
279.432
312.778
340.061
360.777
374.071
380.105
380.46
375.05
363.705
347.48
330.743
316.019
300.897
287.223
275.362
265.633
1.25683
1.6836
3.24789
10.1242
30.2637
63.0177
103.201
145.263
185.683
222.858
256.045
284.619
308.155
326.156
338.056
343.986
344.513
340.287
332.46
322.358
311.048
299.095
287.857
278.24
270.787
1.24562
1.38966
1.98382
3.71639
11.5559
29.7635
57.1358
90.1457
124.999
158.903
190.215
218.034
241.863
261.38
276.254
286.332
291.83
293.31
291.426
286.87
280.433
272.93
265.104
257.566
250.815
1.26193
1.30706
1.47695
1.91739
3.53322
9.96705
23.7654
44.1074
68.7769
95.283
121.552
146.139
168.143
187.037
202.491
214.334
222.625
227.62
229.728
229.492
227.367
223.868
219.511
214.769
210.051
1.2994
1.30863
1.33682
1.44453
1.59046
2.33235
5.94796
14.0556
27.0562
43.3425
61.3072
79.5215
96.894
112.666
126.336
137.613
146.41
152.802
156.982
159.214
159.866
159.286
157.771
155.627
153.131
1.34582
1.34476
1.34556
1.36258
1.40899
1.51758
1.63619
2.41551
5.35716
10.9094
19.1144
29.1821
39.8964
50.4424
60.2315
68.8608
76.1026
81.8827
86.2335
89.2626
91.1278
92.0172
92.156
91.7251
90.8752
1.39427
1.39431
1.39004
1.38588
1.39295
1.42031
1.46245
1.54092
1.62444
1.69896
2.4098
4.22931
7.056
10.6635
14.7606
19.0402
23.2151
26.8884
29.9247
32.297
34.0336
35.2004
35.8802
36.1715
36.1762
1.44432
1.44691
1.44723
1.44426
1.44075
1.44134
1.45115
1.47322
1.50763
1.54421
1.6013
1.64959
1.69576
1.74223
1.78837
1.8839
2.18044
2.58849
3.03208
3.4548
3.81976
4.10865
4.31657
4.44847
4.51401
1.49884
1.50201
1.50557
1.50797
1.50848
1.50723
1.50725
1.50954
1.52152
1.53463
1.55569
1.58234
1.61092
1.64052
1.67002
1.70337
1.73945
1.77103
1.80068
1.8298
1.85857
1.88705
1.91526
1.94324
1.97105
1.56107
1.56336
1.56718
1.57196
1.57683
1.58088
1.58417
1.5871
1.58994
1.5959
1.60434
1.61554
1.63172
1.64943
1.66731
1.68782
1.71032
1.73405
1.7582
1.78255
1.80702
1.83157
1.85619
1.88085
1.90556
1.63353
1.63488
1.63781
1.64227
1.64807
1.65475
1.66183
1.66912
1.67607
1.68343
1.69148
1.70055
1.71066
1.72245
1.73597
1.7509
1.76709
1.78448
1.80294
1.8223
1.84241
1.86314
1.88436
1.90647
1.92901
1.71929
1.71954
1.72148
1.72501
1.73007
1.73657
1.74431
1.75311
1.76272
1.77295
1.78375
1.79516
1.80715
1.81984
1.83335
1.84773
1.86295
1.879
1.89582
1.91339
1.93163
1.95047
1.96986
1.9897
2.00995
1.83123
1.82976
1.83018
1.83231
1.83602
1.84122
1.84784
1.85577
1.86494
1.87522
1.88649
1.89864
1.91161
1.92532
1.93973
1.9548
1.97052
1.98684
2.00373
2.02116
2.03909
2.05747
2.07625
2.0954
2.11487
1.95909
1.95893
1.96077
1.96413
1.96879
1.97462
1.98157
1.9896
1.99867
2.00875
2.01979
2.03173
2.04453
2.05813
2.07246
2.08747
2.10311
2.11933
2.13607
2.15329
2.17095
2.18899
2.20739
2.22609
2.24507
2.21302
2.19373
2.18303
2.17789
2.17663
2.17823
2.18208
2.18777
2.19502
2.20364
2.21347
2.22438
2.2363
2.24911
2.26276
2.27716
2.29224
2.30796
2.32424
2.34102
2.35827
2.37592
2.39393
2.41224
2.4309
3.79076
3.65345
3.55693
3.48604
3.43257
3.3918
3.36079
3.3375
3.32049
3.30868
3.30123
3.29751
3.29699
3.29921
3.30381
3.31051
3.31906
3.32923
3.34083
3.35369
3.36764
3.38255
3.39829
3.41475
3.43192
207.905
208.222
138.459
161.743
151.068
139.285
145.77
145.666
154.478
165.082
172.133
185.941
203.937
209.4
218.613
237.516
238.935
243.271
258.899
255.394
255.127
265.764
262.787
261.17
245.455
241.53
238.728
205.913
202.496
199.617
150.681
148.439
146.345
89.8421
88.7548
87.6292
35.9819
35.6622
35.2574
4.54635
4.5645
4.57391
1.99548
2.01959
2.0435
1.92878
1.95052
1.97227
1.95029
1.9704
1.9903
2.02926
2.04754
2.06603
2.13338
2.15088
2.16853
2.26308
2.28008
2.29721
2.44815
2.46476
2.48148
3.44738
3.46308
3.47896
217.248
138.362
134.226
133.702
133.478
133.332
133.205
133.094
132.995
132.905
132.822
132.744
132.671
132.602
132.535
132.471
132.409
132.35
132.291
132.235
132.179
132.125
132.071
132.019
131.968
131.917
131.867
131.817
131.768
131.72
131.672
131.625
131.578
131.531
131.485
131.439
131.394
131.348
131.303
131.258
131.213
131.169
131.124
131.08
131.036
130.991
130.947
130.886
130.807
130.708
130.588
130.444
130.276
130.082
129.863
129.616
129.343
129.043
128.718
128.371
128.005
127.627
127.247
126.88
126.545
126.27
126.09
126.004
125.906
125.788
125.661
125.921
126.435
127.52
129.355
131.845
133.83
134.743
135.17
136.071
156.106
135.469
134.237
134.084
134.319
134.866
135.767
137.025
138.589
140.345
142.205
144.123
146.06
147.988
149.89
151.751
153.564
155.323
157.025
158.669
160.253
161.778
163.246
164.656
166.011
167.311
168.559
169.754
170.9
171.996
173.044
174.046
175
175.909
176.772
177.587
178.352
179.066
179.725
180.324
180.858
181.321
181.705
182.002
182.201
182.296
182.278
182.15
181.886
181.475
180.902
180.155
179.221
178.086
176.737
175.159
173.337
171.256
168.903
166.264
163.329
160.093
156.556
152.73
148.647
144.375
140.077
135.995
132.232
129.004
126.418
124.843
124.438
124.902
127.25
132.513
138.005
140.456
137.948
136.752
141.176
134.949
134.589
135.503
137.519
140.73
145.018
150.076
155.57
161.243
166.983
172.675
178.24
183.633
188.824
193.8
198.555
203.093
207.416
211.534
215.454
219.186
222.74
226.124
229.348
232.421
235.349
238.141
240.803
243.342
245.764
248.073
250.274
252.37
254.365
256.257
258.045
259.727
261.295
262.744
264.063
265.242
266.265
267.119
267.784
268.24
268.468
268.447
268.164
267.587
266.692
265.45
263.833
261.813
259.359
256.438
253.015
249.052
244.511
239.352
233.535
227.026
219.795
211.826
203.121
193.713
183.681
173.172
162.431
151.827
141.896
133.401
127.535
124.257
123.553
126.694
133.345
139.275
140.06
137.388
137.457
135.034
135.804
138.874
144.102
151.37
160.13
169.773
179.823
189.954
199.95
209.657
218.985
227.89
236.354
244.376
251.968
259.148
265.938
272.36
278.438
284.195
289.652
294.828
299.743
304.413
308.854
313.08
317.103
320.936
324.59
328.073
331.396
334.566
337.588
340.464
343.193
345.772
348.195
350.452
352.531
354.416
356.091
357.533
358.717
359.617
360.201
360.436
360.289
359.725
358.704
357.188
355.135
352.503
349.249
345.326
340.681
335.259
328.998
321.836
313.704
304.535
294.267
282.841
270.22
256.388
241.379
225.295
208.346
190.894
173.509
157.013
142.5
131.3
124.75
122.646
125.705
133.089
139.37
137.857
136.479
135.351
137.955
143.95
153.167
164.994
178.465
192.759
207.288
221.65
235.585
248.941
261.644
273.667
285.017
295.714
305.794
315.292
324.25
332.705
340.695
348.255
355.418
362.212
368.665
374.799
380.637
386.198
391.497
396.552
401.376
405.984
410.388
414.599
418.626
422.473
426.137
429.615
432.9
435.98
438.839
441.458
443.814
445.88
447.627
449.018
450.014
450.57
450.64
450.176
449.128
447.445
445.076
441.97
438.073
433.333
427.688
421.073
413.415
404.637
394.658
383.39
370.751
356.656
341.031
323.818
304.99
284.568
262.664
239.532
215.65
191.809
169.193
149.353
134.027
124.77
121.874
124.127
132.178
139.208
136.242
136.057
140.773
150.131
163.594
179.982
197.984
216.616
235.203
253.311
270.687
287.208
302.829
317.555
331.417
344.462
356.744
368.318
379.239
389.56
399.327
408.587
417.379
425.739
433.7
441.289
448.532
455.45
462.064
468.389
474.442
480.239
485.797
491.13
496.25
501.162
505.862
510.344
514.596
518.603
522.343
525.791
528.919
531.694
534.077
536.024
537.485
538.407
538.726
538.38
537.306
535.439
532.715
529.074
524.462
518.822
512.098
504.222
495.123
484.724
472.943
459.693
444.889
428.442
410.272
390.305
368.486
344.788
319.238
291.95
263.203
233.555
204.006
176.127
152.035
134.019
123.887
121.021
122.57
130.953
136.305
136.927
143.97
156.835
174.48
195.178
217.335
239.841
261.976
283.32
303.659
322.911
341.069
358.169
374.269
389.437
403.745
417.263
430.056
442.187
453.712
464.683
475.144
485.138
494.7
503.86
512.647
521.082
529.186
536.975
544.465
551.671
558.612
565.308
571.775
578.016
584.022
589.781
595.275
600.478
605.361
609.889
614.023
617.718
620.922
623.579
625.624
626.986
627.586
627.341
626.168
623.989
620.722
616.3
610.667
603.781
595.596
586.063
575.125
562.722
548.791
533.263
516.069
497.133
476.381
453.743
429.159
402.588
374.024
343.515
311.198
277.378
242.686
208.33
176.345
149.562
130.895
122.006
119.897
119.648
136.441
137.804
147.318
163.629
185.218
209.853
235.71
261.594
286.785
310.908
333.802
355.432
375.829
395.059
413.205
430.355
446.593
462.001
476.656
490.626
503.974
516.757
529.025
540.822
552.186
563.151
573.743
583.986
593.898
603.492
612.781
621.776
630.498
638.975
647.224
655.244
663.016
670.517
677.716
684.576
691.053
697.096
702.648
707.644
712.011
715.668
718.526
720.485
721.438
721.275
719.885
717.165
713.019
707.368
700.167
691.396
681.047
669.105
655.554
640.378
623.557
605.072
584.895
562.988
539.302
513.773
486.333
456.921
425.501
392.083
356.748
319.677
281.229
242.143
203.922
169.261
141.971
125.586
120.268
119.141
136.58
138.703
150.662
170.236
195.436
223.582
252.668
281.454
309.257
335.76
360.863
384.576
406.969
428.138
448.185
467.216
485.33
502.618
519.166
535.049
550.337
565.089
579.361
593.199
606.642
619.726
632.479
644.92
657.066
668.925
680.501
691.797
702.838
713.663
724.289
734.703
744.873
754.761
764.319
773.489
782.205
790.392
797.964
804.825
810.867
815.973
820.009
822.833
824.293
824.233
822.5
818.956
813.485
806.001
796.472
784.924
771.415
755.995
738.717
719.639
698.823
676.333
652.221
626.519
599.232
570.326
539.732
507.355
473.095
436.886
398.737
358.762
317.211
274.543
231.717
190.787
155.549
131.124
121.044
118.959
136.706
139.627
153.902
176.49
204.931
236.148
268.002
299.248
329.259
357.788
384.789
410.322
434.492
457.42
479.233
500.051
519.987
539.144
557.616
575.486
592.829
609.711
626.191
642.317
658.132
673.671
688.962
704.022
718.864
733.486
747.882
762.044
776.001
789.806
803.47
816.97
830.258
843.275
855.948
868.194
879.914
890.998
901.318
910.733
919.087
926.204
931.894
935.95
938.152
938.278
936.111
931.459
924.178
914.18
901.455
886.103
868.285
848.15
825.856
801.573
775.482
747.764
718.585
688.079
656.333
623.37
589.138
553.52
516.343
477.426
436.643
393.99
349.637
303.933
257.521
211.829
170.078
138.025
122.233
118.808
136.822
140.554
156.983
182.311
213.609
247.465
281.649
314.943
346.787
377.004
405.607
432.699
458.418
482.913
506.332
528.811
550.478
571.448
591.824
611.699
631.155
650.263
669.085
687.677
706.081
724.334
742.462
760.48
778.393
796.192
813.856
831.365
848.752
866.08
883.361
900.562
917.619
934.447
950.945
966.996
982.463
997.186
1010.99
1023.67
1035
1044.75
1052.63
1058.35
1061.59
1062.05
1059.41
1053.39
1043.83
1030.63
1013.85
993.692
970.447
944.411
915.886
885.193
852.663
818.625
783.38
747.182
710.215
672.567
634.224
595.056
554.832
513.256
470.036
424.985
378.125
329.729
280.313
230.888
183.992
145.323
123.677
118.679
136.93
141.473
159.892
187.684
221.464
257.542
293.638
328.583
361.895
393.467
423.367
451.737
478.75
504.579
529.392
553.345
576.577
599.218
621.381
643.168
664.668
685.959
707.111
728.18
749.213
770.246
791.306
812.403
833.536
854.687
875.823
896.913
917.988
939.117
960.322
981.568
1002.77
1023.83
1044.62
1064.98
1084.72
1103.65
1121.52
1138.06
1152.97
1165.9
1176.48
1184.31
1188.93
1189.89
1186.76
1179.16
1166.9
1149.92
1128.36
1102.6
1073.09
1040.31
1004.73
966.859
927.195
886.224
844.387
802.058
759.513
716.906
674.254
631.422
588.133
543.995
498.563
451.446
402.459
351.745
299.765
247.322
196.379
152.237
125.159
118.562
137.032
142.392
162.66
192.66
228.566
266.462
304.061
340.264
374.674
407.252
438.117
467.452
495.456
522.329
548.256
573.408
597.941
621.993
645.689
669.139
692.44
715.677
738.922
762.238
785.674
809.266
833.039
857.001
881.147
905.451
929.873
954.372
978.968
1003.74
1028.72
1053.88
1079.15
1104.38
1129.44
1154.15
1178.27
1201.56
1223.72
1244.38
1263.16
1279.61
1293.21
1303.42
1309.62
1311.2
1307.56
1298.14
1282.86
1261.87
1235.25
1203.64
1167.66
1128
1085.34
1040.36
993.712
946.031
897.877
849.718
801.906
754.647
707.977
661.758
615.672
569.254
521.937
473.157
422.507
369.942
315.862
260.991
206.876
158.306
126.506
118.451
137.13
143.336
165.368
197.365
235.063
274.378
313.062
350.115
385.229
418.435
449.898
479.837
508.478
536.038
562.72
588.706
614.162
639.237
664.063
688.755
713.418
738.139
762.996
788.051
813.357
838.949
864.852
891.071
917.596
944.399
971.435
998.656
1026.07
1053.74
1081.74
1110.05
1138.58
1167.21
1195.77
1224.06
1251.84
1278.82
1304.63
1328.85
1350.98
1370.43
1386.51
1398.48
1405.73
1407.73
1404
1393.94
1376.03
1351.79
1320.86
1284.14
1242.59
1197.09
1148.52
1097.69
1045.39
992.333
939.159
886.404
834.462
783.569
733.776
684.937
636.712
588.58
539.893
489.963
438.201
384.358
328.732
272.028
215.513
163.423
127.648
118.345
137.224
144.405
168.214
202.049
241.208
281.517
320.834
358.289
393.674
427.086
458.736
488.871
517.737
545.566
572.568
598.936
624.841
650.434
675.852
701.213
726.623
752.171
777.935
803.977
830.347
857.081
884.199
911.704
939.584
967.808
996.327
1025.09
1054.07
1083.35
1112.99
1142.98
1173.25
1203.66
1234.07
1264.25
1293.95
1322.87
1350.61
1376.65
1400.27
1420.23
1433.88
1441.53
1444.28
1444.14
1442.81
1440.4
1427.97
1402.69
1369.78
1330.27
1285.53
1236.72
1184.84
1130.78
1075.39
1019.43
963.559
908.349
854.21
801.391
749.951
699.745
650.426
601.452
552.135
501.718
449.496
395.049
338.543
280.67
222.516
167.748
128.653
118.24
137.314
145.679
171.484
207.082
247.355
288.175
327.605
364.948
400.11
433.256
464.632
494.508
523.142
550.77
577.609
603.849
629.661
655.195
680.585
705.947
731.383
756.979
782.807
808.928
835.388
862.216
889.428
917.025
944.988
973.285
1001.86
1030.66
1059.65
1088.87
1118.38
1148.17
1178.17
1208.25
1238.26
1267.99
1297.2
1325.56
1352.72
1378.22
1401.38
1421.76
1435.49
1440.52
1442.51
1443.72
1443.32
1438.66
1426.2
1402.81
1370.68
1331.73
1287.45
1239.05
1187.55
1133.87
1078.84
1023.21
967.66
912.74
858.868
806.293
755.084
705.108
656.033
607.333
558.325
508.239
456.326
402.055
345.461
287.192
228.212
171.608
129.719
118.139
137.46
147.777
175.841
213.014
253.914
294.644
333.574
370.217
404.601
436.955
467.557
496.685
524.596
551.527
577.688
603.263
628.415
653.286
678
702.668
727.381
752.219
777.247
802.516
828.066
853.918
880.083
906.554
933.31
960.314
987.509
1014.83
1042.25
1069.78
1097.44
1125.19
1152.99
1180.71
1208.2
1235.27
1261.69
1287.17
1311.39
1333.97
1354.48
1372.31
1387.74
1398.89
1405.34
1407.19
1403.51
1393.51
1376.69
1353.09
1323.18
1287.66
1247.33
1203.04
1155.63
1105.92
1054.69
1002.66
950.449
898.599
847.504
797.407
748.384
700.326
652.935
605.733
558.084
509.266
458.55
405.372
349.67
292.006
233.257
175.814
131.417
118.04
137.762
150.744
181.935
220.495
261.28
301.079
338.754
374.045
407.064
438.075
467.375
495.245
521.939
547.681
572.667
597.067
621.028
644.677
668.125
691.468
714.788
738.154
761.618
785.223
808.997
832.955
857.1
881.419
905.891
930.477
955.122
979.762
1004.36
1028.9
1053.38
1077.76
1101.98
1125.93
1149.47
1172.44
1194.63
1215.8
1235.7
1254.02
1270.44
1284.55
1296.13
1304.75
1309.83
1310.61
1306.59
1297.34
1282.68
1262.63
1237.43
1207.46
1173.23
1135.35
1094.45
1051.21
1006.27
960.267
913.74
867.158
820.871
775.102
729.924
685.252
640.835
596.265
550.998
504.404
455.847
404.822
351.253
295.648
238.938
182.606
135.749
117.951
139.853
158.662
192.233
230.638
269.806
307.458
342.931
376.142
407.235
436.435
463.998
490.189
515.258
539.416
562.839
585.674
608.047
630.064
651.82
673.395
694.857
716.262
737.652
759.058
780.5
801.983
823.505
845.054
866.607
888.129
909.57
930.87
951.983
972.886
993.557
1013.96
1034.03
1053.69
1072.8
1091.24
1108.85
1125.43
1140.79
1154.7
1166.92
1177.19
1185.26
1190.85
1193.65
1193.22
1189.15
1181.1
1168.89
1152.5
1132.03
1107.69
1079.8
1048.75
1015
979.028
941.333
902.384
862.61
822.376
781.96
741.538
701.169
660.78
620.171
579.015
536.878
493.269
447.693
399.784
349.592
297.737
245.533
194.219
146.965
119.459
149.765
175.713
208.54
244.039
279.561
313.645
345.881
376.229
404.791
431.718
457.182
481.385
504.538
526.831
548.415
569.415
589.93
610.048
629.843
649.379
668.709
687.877
706.915
725.847
744.682
763.421
782.058
800.581
818.972
837.201
855.225
872.995
890.468
907.611
924.401
940.802
956.767
972.224
987.086
1001.25
1014.58
1026.96
1038.24
1048.24
1056.82
1063.78
1068.96
1072.17
1073.21
1071.84
1067.77
1060.75
1050.63
1037.35
1020.95
1001.54
979.297
954.469
927.349
898.255
867.519
835.463
802.383
768.531
734.095
699.193
663.852
628.008
591.501
554.085
515.444
475.233
433.115
388.905
342.859
295.843
249.406
205.95
166.796
132.377
173.383
199.827
228.696
259.156
289.531
318.935
347.072
373.854
399.299
423.473
446.468
468.405
489.422
509.653
529.209
548.185
566.661
584.703
602.37
619.709
636.761
653.56
670.131
686.488
702.637
718.574
734.292
749.78
765.027
780.008
794.692
809.044
823.028
836.613
849.777
862.491
874.718
886.41
897.503
907.925
917.59
926.404
934.267
941.068
946.695
951.033
953.965
955.378
955.141
953.112
949.117
942.987
934.602
923.899
910.868
895.554
878.052
858.497
837.059
813.924
789.291
763.35
736.276
708.214
679.27
649.497
618.894
587.398
554.886
521.186
486.091
449.39
410.884
370.571
328.908
286.82
245.588
206.646
171.979
144.25
203.433
225.349
248.444
272.916
297.56
321.817
345.419
368.209
390.142
411.219
431.466
450.919
469.63
487.658
505.068
521.919
538.265
554.158
569.638
584.744
599.506
613.949
628.094
641.951
655.521
668.796
681.77
694.436
706.787
718.808
730.48
741.777
752.676
763.153
773.188
782.762
791.848
800.416
808.423
815.821
822.555
828.562
833.777
838.129
841.543
843.944
845.258
845.411
844.329
841.922
838.085
832.712
825.713
817.028
806.622
794.497
780.688
765.258
748.29
729.877
710.113
689.091
666.891
643.574
619.176
593.705
567.135
539.41
510.446
480.138
448.38
415.069
380.139
343.768
306.528
269.287
233.089
199.112
168.507
142.271
231.084
246.73
263.785
282.273
301.303
320.473
339.501
358.21
376.507
394.348
411.701
428.522
444.78
460.481
475.647
490.308
504.492
518.231
531.551
544.478
557.036
569.243
581.115
592.663
603.881
614.761
625.296
635.485
645.326
654.81
663.929
672.667
681.008
688.937
696.44
703.504
710.112
716.244
721.876
726.976
731.509
735.437
738.717
741.303
743.148
744.204
744.423
743.759
742.162
739.574
735.93
731.161
725.202
717.999
709.507
699.695
688.559
676.115
662.387
647.404
631.194
613.782
595.183
575.403
554.437
532.265
508.856
484.172
458.171
430.817
402.091
371.982
340.543
308.082
275.187
242.616
211.198
181.778
155.157
132.095
250.512
260.403
272.004
285.098
298.982
313.385
328.062
342.824
357.545
372.138
386.516
400.582
414.265
427.532
440.373
452.792
464.798
476.404
487.623
498.47
508.957
519.1
528.909
538.391
547.539
556.342
564.797
572.904
580.663
588.073
595.128
601.822
608.144
614.085
619.636
624.788
629.531
633.853
637.738
641.168
644.119
646.569
648.488
649.849
650.617
650.767
650.263
649.071
647.154
644.473
640.983
636.633
631.372
625.152
617.922
609.634
600.254
589.769
578.169
565.446
551.589
536.585
520.417
503.066
484.51
464.728
443.703
421.427
397.909
373.178
347.289
320.31
292.391
263.895
235.361
207.417
180.697
155.808
133.261
113.477
257.946
263.041
269.983
278.454
287.983
298.269
309.093
320.27
331.652
343.118
354.555
365.86
376.948
387.765
398.279
408.472
418.336
427.87
437.077
445.96
454.527
462.785
470.741
478.399
485.75
492.784
499.496
505.886
511.957
517.706
523.132
528.23
532.995
537.419
541.497
545.222
548.587
551.584
554.203
556.432
558.255
559.656
560.616
561.114
561.131
560.64
559.613
558.023
555.841
553.034