/*--------------------------------*- C++ -*----------------------------------*\
| =========                 |                                                 |
| \\      /  F ield         | OpenFOAM: The Open Source CFD Toolbox           |
|  \\    /   O peration     | Version:  v2012                                 |
|   \\  /    A nd           | Website:  www.openfoam.com                      |
|    \\/     M anipulation  |                                                 |
\*---------------------------------------------------------------------------*/
FoamFile
{
    version     2.0;
    format      ascii;
    class       volScalarField;
    location    "642";
    object      k;
}
// * * * * * * * * * * * * * * * * * * * * * * * * * * * * * * * * * * * * * //

dimensions      [0 2 -2 0 0 0 0];


internalField   nonuniform List<scalar> 
6532
(
1.9974
2.5239
2.62192
2.64798
2.66017
2.66017
2.64798
2.62192
2.5239
1.9974
1.10179
1.7737
1.96153
2.02264
2.04235
2.04235
2.02264
1.96153
1.7737
1.10179
0.695511
1.29979
1.51227
1.59368
1.62144
1.62144
1.59368
1.51227
1.29979
0.695511
0.482499
0.99119
1.19751
1.28657
1.31964
1.31964
1.28657
1.19751
0.99119
0.482499
0.357828
0.781782
0.970644
1.05947
1.0948
1.0948
1.05947
0.970645
0.781783
0.357829
0.278468
0.633891
0.802649
0.887071
0.922388
0.922389
0.887072
0.80265
0.633893
0.278468
0.224568
0.525663
0.675119
0.753279
0.78718
0.78718
0.75328
0.67512
0.525664
0.224569
0.186061
0.443991
0.576118
0.647458
0.679206
0.679207
0.64746
0.57612
0.443993
0.186062
0.157426
0.380724
0.497729
0.56237
0.591667
0.591668
0.562373
0.497732
0.380727
0.157427
0.135435
0.33061
0.43457
0.492959
0.519767
0.519769
0.492962
0.434574
0.330615
0.135436
0.118098
0.290153
0.382902
0.435611
0.460036
0.460038
0.435615
0.382907
0.290159
0.1181
0.104133
0.256955
0.340065
0.387694
0.40991
0.409912
0.3877
0.340073
0.256964
0.104136
0.0926783
0.22933
0.30413
0.347252
0.367459
0.367462
0.34726
0.304141
0.229342
0.0926823
0.0831398
0.206061
0.273671
0.31281
0.331211
0.331215
0.312821
0.273687
0.206077
0.0831453
0.0750933
0.186251
0.247616
0.283239
0.300026
0.300032
0.283254
0.247637
0.186274
0.0751007
0.0682292
0.169229
0.225143
0.257663
0.273013
0.273021
0.257684
0.225171
0.16926
0.0682392
0.0623169
0.154481
0.205616
0.235394
0.249465
0.249476
0.235423
0.205654
0.154521
0.06233
0.0571808
0.141608
0.188535
0.215883
0.228817
0.228832
0.215924
0.188587
0.141659
0.0571976
0.052685
0.130296
0.173501
0.198691
0.210613
0.210634
0.198748
0.173573
0.130357
0.0527057
0.0487224
0.120289
0.160186
0.183453
0.194471
0.1945
0.183531
0.160279
0.120326
0.0487456
0.045141
0.11123
0.148131
0.169657
0.179858
0.179899
0.169767
0.148272
0.111346
0.0454456
0.0419538
0.103143
0.137361
0.157325
0.166795
0.166851
0.15748
0.137572
0.103371
0.0436488
0.0391025
0.0958944
0.127708
0.146272
0.155089
0.155164
0.146481
0.128003
0.0963533
0.0430622
0.0365386
0.0893655
0.119016
0.136323
0.144556
0.144651
0.136583
0.119366
0.0902424
0.0437227
0.0342223
0.0834589
0.111156
0.127331
0.135039
0.13515
0.127619
0.111564
0.0850687
0.0456694
0.0321202
0.0780924
0.104021
0.119172
0.126408
0.126537
0.119486
0.10459
0.080816
0.0486767
0.0302042
0.0731965
0.0975179
0.111743
0.118555
0.118712
0.112151
0.0984218
0.0773479
0.0523926
0.0284507
0.0687121
0.0915692
0.104954
0.111387
0.111588
0.105531
0.0929907
0.0746212
0.056439
0.0268391
0.0645879
0.0861075
0.0987295
0.104827
0.105091
0.099551
0.0882212
0.0725191
0.0598924
0.025352
0.0607807
0.0810747
0.0930042
0.0988071
0.099154
0.0941466
0.0840385
0.0709046
0.0625176
0.0239742
0.0572518
0.0764204
0.0877211
0.0932674
0.093719
0.0892566
0.0803669
0.0696352
0.0644072
0.0226921
0.0539675
0.0721007
0.0828308
0.0881568
0.0887335
0.0848237
0.0771225
0.0685103
0.0656335
0.0214939
0.0508982
0.0680771
0.07829
0.0834297
0.0841502
0.080793
0.0742221
0.0674449
0.0662721
0.0203692
0.0480179
0.0643156
0.0740606
0.0790456
0.0799261
0.0771138
0.0715968
0.0663701
0.0663875
0.0193085
0.0453037
0.0607862
0.0701087
0.0749686
0.0760221
0.0737394
0.0691856
0.0652338
0.066033
0.0183035
0.0427354
0.0574624
0.0664046
0.0711667
0.0724034
0.070628
0.0669369
0.064001
0.0652566
0.0173464
0.0402954
0.0543211
0.0629225
0.067612
0.0690388
0.067743
0.0648096
0.0626544
0.0641075
0.0164308
0.0379706
0.0513448
0.0596427
0.0642832
0.0659048
0.0650567
0.0627767
0.0611969
0.0626453
0.0155827
0.0358227
0.0486085
0.0566439
0.0612564
0.0630685
0.0626226
0.060883
0.0596967
0.0609929
0.014762
0.0337572
0.0459951
0.0537998
0.0584042
0.0604082
0.0603347
0.0590552
0.0581382
0.0591859
0.0139642
0.0317629
0.0434859
0.0510877
0.0557016
0.0578992
0.0581725
0.0572896
0.0565555
0.0572997
0.0131853
0.0298324
0.0410686
0.0484926
0.0531323
0.0555254
0.056125
0.055592
0.0549904
0.0554181
0.0124216
0.0279591
0.0387311
0.0459988
0.0506789
0.0532697
0.0541809
0.0539684
0.0534826
0.0536207
0.0116699
0.0261366
0.0364606
0.0435889
0.0483216
0.0511126
0.0523257
0.05242
0.052062
0.051973
0.0109274
0.024359
0.0342433
0.0412431
0.0460366
0.0490292
0.0505387
0.0509385
0.0507412
0.0505154
0.0101913
0.0226205
0.032064
0.0389378
0.0437948
0.0469879
0.0487902
0.0495015
0.0495102
0.0492544
0.00945885
0.0209149
0.0299061
0.0366458
0.0415611
0.0449488
0.047039
0.0480701
0.0483328
0.0481577
0.00872722
0.0192364
0.027751
0.0343354
0.0392933
0.0428625
0.0452315
0.0465876
0.0471469
0.0471542
0.00799324
0.0175786
0.0255793
0.0319716
0.0369432
0.0406711
0.0433025
0.0449817
0.0458681
0.0461401
0.00725303
0.0159353
0.0233713
0.0295169
0.0344581
0.0383101
0.041178
0.043168
0.0443959
0.0449896
0.00650137
0.0142998
0.0211082
0.0269356
0.031786
0.0357139
0.0387808
0.0410573
0.0426235
0.0435685
0.00573047
0.0126621
0.0187785
0.0242023
0.0288852
0.032826
0.0360415
0.0385667
0.0404502
0.0417503
0.00492689
0.0109981
0.0163689
0.0213096
0.025741
0.0296182
0.0329172
0.0356379
0.0378
0.0394332
0.00405498
0.00943396
0.0139604
0.0183092
0.0223897
0.0261139
0.0294167
0.0322631
0.0346426
0.0365603
0.00312961
0.00810388
0.0118262
0.0154558
0.0190339
0.0224694
0.0256589
0.0285273
0.0310333
0.0331526
0.0021576
0.00686996
0.010101
0.013074
0.0160572
0.0190463
0.0219533
0.0246877
0.027177
0.0293715
0.00114239
0.00544636
0.00855859
0.0111954
0.0137247
0.0162569
0.0187744
0.021214
0.0235095
0.0256034
0.000882184
0.00366881
0.0068265
0.00948418
0.0118795
0.014146
0.0163226
0.0183989
0.0203529
0.0221562
0.000854567
0.00214471
0.00506669
0.00763739
0.0100491
0.0121641
0.0140615
0.0157471
0.0172538
0.0186024
0.000957676
0.00169318
0.00260929
0.00389335
0.00532478
0.00644515
0.00734346
0.00812544
0.00879418
0.00935733
0.00961132
0.00331677
0.00339659
0.00359847
0.00376575
0.00387584
0.00391934
0.00389681
0.00380909
0.0036714
0.00350019
0.00329583
0.00306163
0.00281055
0.00255127
0.0022883
0.00202321
0.00177771
0.00155658
0.00134938
0.00115039
0.000954955
0.000757509
0.000549023
0.000297001
0.0188073
0.00824007
0.00728545
0.00743368
0.00769211
0.00789157
0.00798362
0.00794853
0.00777625
0.00746264
0.00706299
0.00660783
0.00611996
0.00561919
0.00511957
0.00463039
0.00415479
0.00367488
0.00319176
0.00271202
0.00224638
0.00180936
0.00142304
0.00107929
0.000548199
0.0281243
0.0137018
0.0104029
0.00974752
0.00969099
0.00971454
0.00967655
0.00952975
0.00925702
0.00885015
0.00833846
0.00777077
0.00717462
0.00657194
0.00598061
0.00541377
0.00487688
0.00436132
0.00385489
0.00334797
0.00283343
0.00231568
0.00182004
0.00135921
0.000665839
0.038335
0.0208132
0.0141461
0.0121342
0.0114102
0.0110376
0.010724
0.010375
0.00995573
0.00945341
0.00886319
0.00822889
0.00757929
0.00693294
0.00630688
0.00571437
0.00516154
0.00464337
0.00414605
0.00365301
0.00314583
0.00261348
0.00206516
0.00151274
0.000721952
0.0483067
0.0299626
0.0192843
0.0150756
0.0133162
0.0123368
0.0116333
0.0110141
0.0104093
0.00978975
0.00914223
0.0084598
0.00777723
0.00710786
0.00646414
0.00585845
0.00529732
0.0047779
0.00428752
0.00380704
0.00331333
0.00278555
0.00221649
0.00160138
0.000741374
0.0556006
0.0392566
0.0255662
0.0187356
0.0156232
0.0138597
0.0126423
0.0116853
0.010855
0.0100924
0.00936698
0.00865866
0.0079529
0.0072627
0.00659918
0.00597447
0.00539626
0.00486511
0.00437074
0.00389257
0.00340548
0.00288331
0.00230693
0.00165153
0.000740522
0.0606708
0.0480682
0.0326314
0.0232561
0.0184681
0.015739
0.0139147
0.0125329
0.0114191
0.0104757
0.00964659
0.00889167
0.00817739
0.00747933
0.00678581
0.00612874
0.00551525
0.00495442
0.00444023
0.003951
0.00346023
0.00293851
0.00235796
0.00167644
0.000727994
0.0644301
0.0550929
0.0395845
0.0285856
0.0219598
0.0180546
0.0154983
0.0136388
0.0121792
0.011002
0.0100338
0.00920915
0.00846939
0.00776343
0.0070597
0.00636071
0.00568646
0.00507418
0.00452025
0.00400445
0.00349823
0.0029696
0.00238331
0.00168327
0.000707576
0.067228
0.0606865
0.0460592
0.0340869
0.0259273
0.020804
0.0174047
0.0149967
0.013163
0.0117082
0.0105573
0.00963362
0.00885166
0.00813067
0.0074077
0.00666405
0.00592944
0.0052454
0.00462863
0.00406786
0.00353154
0.00298747
0.00239173
0.00167648
0.000680888
0.0692467
0.0649523
0.0519636
0.0395374
0.0302171
0.0239467
0.0196679
0.0166293
0.0143715
0.0126124
0.0112386
0.01018
0.00933288
0.00858769
0.007846
0.00705666
0.00624131
0.00546257
0.00476251
0.00414231
0.00356888
0.00300231
0.00239301
0.00166333
0.000651074
0.0706068
0.0681017
0.0570902
0.0447287
0.0347061
0.0273729
0.0222297
0.0185473
0.0158217
0.0137277
0.0121043
0.0108694
0.00992221
0.00913923
0.00838673
0.00756282
0.0066566
0.00575195
0.00493493
0.00423239
0.00360698
0.00301016
0.00238346
0.00163973
0.000625802
0.0714175
0.0703396
0.0612864
0.0494283
0.0390655
0.0309076
0.0250019
0.0207163
0.0175325
0.0150928
0.0131805
0.0117346
0.0106463
0.00979817
0.00903599
0.00820297
0.00721771
0.00615804
0.00517628
0.00435129
0.00365135
0.0030126
0.00236275
0.00160374
0.000601353
0.0717354
0.0717735
0.06448
0.0535564
0.0430782
0.0344124
0.0278945
0.0230828
0.0194861
0.0167182
0.014531
0.0128265
0.0115498
0.0105856
0.00979143
0.00897721
0.00796271
0.00674385
0.00554222
0.00452317
0.00370983
0.00301179
0.00233138
0.00155606
0.000575751
0.0715745
0.0724702
0.0667419
0.0570174
0.0467088
0.0378737
0.0308383
0.0255871
0.0216429
0.0185915
0.0161539
0.0142092
0.0126987
0.0115498
0.0106578
0.00985083
0.00888659
0.00758261
0.00612562
0.00482783
0.00382454
0.0030257
0.00229556
0.00149952
0.000548261
0.0709423
0.0724857
0.0681535
0.0597238
0.0498341
0.0409876
0.0337103
0.0281582
0.023956
0.0206899
0.0180604
0.0159137
0.0141723
0.0127858
0.011692
0.0107956
0.00989829
0.00868368
0.00706909
0.00541712
0.0040831
0.00309625
0.0022744
0.0014432
0.00051953
0.0698533
0.0718649
0.0687617
0.061604
0.0525193
0.0438206
0.0365419
0.0307584
0.0263773
0.0229737
0.0202351
0.0179693
0.0160542
0.0144209
0.0130493
0.0119032
0.0109104
0.00983409
0.00834928
0.00645395
0.00461869
0.0033003
0.00231287
0.00141287
0.000492756
0.0683351
0.0706536
0.0686199
0.0627181
0.0546772
0.0463044
0.0391199
0.0333229
0.0288507
0.0253904
0.0226322
0.0203547
0.0183769
0.0165873
0.0149426
0.0134462
0.0121158
0.0109179
0.00960672
0.0078869
0.00580075
0.00380866
0.00249525
0.00146884
0.000477211
0.0664371
0.0689107
0.0677856
0.0631009
0.0561752
0.0485078
0.0415004
0.0358061
0.0313266
0.0278798
0.0251835
0.0230001
0.0210997
0.0193155
0.0175449
0.015755
0.0139898
0.0122985
0.0107415
0.00910615
0.00724102
0.00518014
0.00313882
0.00177965
0.000506409
0.0642933
0.0667728
0.0663691
0.062801
0.0569915
0.0502335
0.0436282
0.0380806
0.0337383
0.0303367
0.0277561
0.0257499
0.0240608
0.0224767
0.020832
0.0190169
0.0169878
0.0147783
0.0125321
0.0103387
0.00821592
0.00619494
0.00442216
0.00279575
0.000850543
0.0619424
0.0642946
0.0644426
0.0618806
0.0571832
0.0513819
0.0454799
0.0401701
0.0359416
0.0326923
0.0302193
0.0284073
0.0269905
0.0257348
0.0244354
0.0229188
0.0210496
0.0187451
0.0160061
0.0129846
0.00989032
0.00707834
0.00478573
0.00310049
0.00214975
0.0594743
0.0615719
0.0620907
0.0603973
0.0567677
0.0519598
0.0468246
0.042046
0.0380078
0.0348679
0.0325616
0.030909
0.0297568
0.0288701
0.0280366
0.0270631
0.0257671
0.0239728
0.0215323
0.0183845
0.0146337
0.0107377
0.00730083
0.00486417
0.00363418
0.0569987
0.0587306
0.0594304
0.0584305
0.0557689
0.0519516
0.0476465
0.0434601
0.0398018
0.0368711
0.0346744
0.0331858
0.0322189
0.0316357
0.0312352
0.0308396
0.0302815
0.0293788
0.0279259
0.0257103
0.0225876
0.0186637
0.0143769
0.0105778
0.00777977
0.0546294
0.0559137
0.0566089
0.0560964
0.0542518
0.0513579
0.0478973
0.0443689
0.0411627
0.0385141
0.0365173
0.0351643
0.0343376
0.0339266
0.0338154
0.0338451
0.0338828
0.0337894
0.0334121
0.032568
0.0310983
0.0288731
0.0259437
0.0224927
0.018789
0.0524709
0.0532694
0.0537989
0.0535536
0.0523288
0.0502333
0.047576
0.0447323
0.0420389
0.0397353
0.0379559
0.0367412
0.0360455
0.0357653
0.0357822
0.0360389
0.0364254
0.0368303
0.0371391
0.0372237
0.0369468
0.0361995
0.0348966
0.0329992
0.0305203
0.0506025
0.0509313
0.0511821
0.0509974
0.0501671
0.0486895
0.0467306
0.0445426
0.0423865
0.0404757
0.0389545
0.0378958
0.0372987
0.0371009
0.0372098
0.0375336
0.0380633
0.038722
0.0394107
0.040006
0.0403786
0.0404389
0.040101
0.0392951
0.0379807
0.0490618
0.048994
0.048921
0.0486367
0.0479807
0.0469056
0.0454804
0.0438531
0.0422018
0.0406936
0.039459
0.0385801
0.0380821
0.0379362
0.0380742
0.0384438
0.0390159
0.0397573
0.0405985
0.0414465
0.0422003
0.0427651
0.0430535
0.0429919
0.042531
0.0478335
0.0474907
0.0471241
0.0466553
0.045999
0.0451143
0.0440237
0.0428033
0.0415603
0.0404084
0.0394489
0.0387557
0.0383642
0.0382665
0.0384122
0.0387614
0.0393097
0.0400341
0.0408947
0.0418305
0.0427693
0.0436319
0.0443388
0.0448174
0.0450125
0.0468465
0.0463793
0.0458151
0.045164
0.0444134
0.0435569
0.0426103
0.0416151
0.0406334
0.0397355
0.0389888
0.038448
0.0381464
0.0380872
0.0382376
0.038544
0.0390134
0.0396395
0.0404093
0.0412964
0.042248
0.0432129
0.0441327
0.0449459
0.0455949
0.0459802
0.0455437
0.0449191
0.0441645
0.0433185
0.0424117
0.0414756
0.0405481
0.0396722
0.0388929
0.0382525
0.0377865
0.037519
0.0374565
0.0375821
0.0378388
0.0382184
0.0387205
0.0393387
0.0400641
0.0408872
0.0417784
0.0426925
0.0435927
0.044435
0.0450798
0.0448112
0.0442729
0.0435389
0.0426718
0.0417277
0.0407584
0.039811
0.0389282
0.0381475
0.0375002
0.0370106
0.0366944
0.0365583
0.0365957
0.036778
0.0370531
0.0374177
0.0378715
0.0384084
0.0390224
0.0397088
0.0404609
0.0412489
0.0420405
0.0439764
0.0439797
0.0436553
0.0430722
0.0422981
0.041399
0.0404373
0.0394698
0.0385455
0.0377046
0.0369786
0.0363899
0.0359523
0.0356721
0.0355486
0.0355713
0.0357144
0.0359436
0.0362299
0.0365763
0.0369816
0.0374408
0.0379501
0.038507
0.0391006
0.0425091
0.0428473
0.0428253
0.0425006
0.0419339
0.0411881
0.0403258
0.0394063
0.0384827
0.0376001
0.0367938
0.0360901
0.0355061
0.0350515
0.0347294
0.0345378
0.0344682
0.0345048
0.0346264
0.0348092
0.0350257
0.0352777
0.0355639
0.0358843
0.0362331
0.0405419
0.0412355
0.0415607
0.0415612
0.041286
0.0407883
0.0401236
0.0393472
0.038511
0.037661
0.0368356
0.0360652
0.0353718
0.0347701
0.0342686
0.0338705
0.0335753
0.0333782
0.0332707
0.0332404
0.0332716
0.0333538
0.0334745
0.0336107
0.0337626
0.0379827
0.039014
0.0396871
0.0400331
0.0400888
0.0398958
0.0394997
0.0389479
0.0382865
0.0375588
0.0368028
0.0360505
0.0353273
0.0346521
0.0340381
0.0334939
0.0330238
0.0326294
0.0323092
0.0320589
0.0318726
0.0317435
0.0316629
0.0316185
0.0316031
0.0348208
0.0361352
0.0371162
0.037783
0.0381612
0.0382818
0.0381802
0.0378946
0.0374641
0.0369263
0.0363162
0.0356645
0.0349973
0.0343357
0.033696
0.0330903
0.0325271
0.0320117
0.0315471
0.0311342
0.0307721
0.0304584
0.0301896
0.029961
0.0297684
0.0311771
0.0326793
0.0338857
0.0348044
0.0354508
0.0358457
0.0360152
0.035989
0.0357987
0.0354758
0.0350504
0.0345503
0.034
0.0334205
0.0328294
0.0322403
0.0316643
0.0311092
0.0305809
0.0300831
0.029618
0.0291864
0.0287883
0.0284226
0.0280892
0.0273847
0.0289244
0.0302168
0.0312593
0.0320593
0.0326306
0.032991
0.033162
0.0331678
0.033033
0.0327824
0.0324393
0.0320253
0.0315595
0.0310586
0.0305365
0.0300048
0.0294726
0.0289471
0.0284338
0.0279365
0.027458
0.027
0.0265636
0.0261509
0.0237174
0.0251019
0.0263025
0.0273121
0.0281169
0.0287194
0.0291373
0.0293881
0.02949
0.0294621
0.0293234
0.0290923
0.0287863
0.0284212
0.0280113
0.027569
0.0271048
0.0266275
0.0261444
0.0256611
0.0251823
0.0247114
0.0242509
0.023803
0.0233706
0.019747
0.0207514
0.0216088
0.022314
0.0228756
0.0232982
0.0235915
0.0237664
0.0238346
0.0238081
0.0236991
0.0235196
0.0232809
0.0229938
0.0226679
0.022312
0.0219338
0.0215398
0.0211357
0.020726
0.0203148
0.019905
0.0194994
0.0190999
0.0187094
0.00981889
0.0102251
0.0105777
0.0108704
0.0111081
0.0112942
0.0114316
0.0115235
0.0115732
0.0115844
0.0115608
0.0115061
0.0114241
0.0113184
0.0111926
0.01105
0.0108937
0.0107265
0.0105511
0.0103698
0.0101847
0.00999738
0.00980957
0.00962252
0.00943745
0.000728329
0.000661271
0.00173151
0.00225741
0.0023666
0.00247222
0.00338786
0.00348685
0.00384785
0.00638019
0.00604781
0.00613996
0.0152396
0.0131222
0.0119398
0.0275746
0.0246844
0.0222854
0.0362403
0.034244
0.0320652
0.0417058
0.0406187
0.0392642
0.0449017
0.0445451
0.0439471
0.0460073
0.0462249
0.0462499
0.0451244
0.0457009
0.0461614
0.042749
0.043419
0.0440495
0.0396563
0.0402132
0.0407747
0.036575
0.0369341
0.0373099
0.0339139
0.0340777
0.0342594
0.0316105
0.0316348
0.0316747
0.0296223
0.0294992
0.0293945
0.0278152
0.0275646
0.0273318
0.0258005
0.0254693
0.025152
0.0229976
0.0226387
0.0222894
0.0183705
0.0180407
0.0177176
0.00927691
0.00911948
0.00896511
0.000118492
0.000337313
0.000504391
0.000645753
0.000769304
0.000878632
0.000978424
0.00107069
0.00115679
0.00123761
0.00131379
0.00138582
0.00145408
0.00151892
0.00158063
0.00163948
0.00169569
0.0017495
0.0018011
0.00185069
0.00189846
0.00194457
0.00198921
0.00203253
0.0020747
0.00211589
0.00215626
0.00219596
0.00223517
0.00227405
0.00231277
0.0023515
0.00239042
0.00242971
0.00246956
0.00251017
0.00255175
0.00259453
0.00263876
0.0026847
0.00273268
0.00278305
0.00283622
0.00289267
0.00295297
0.00301785
0.00308817
0.00316118
0.00323671
0.00331462
0.00339481
0.00347727
0.00356197
0.00364889
0.00373792
0.00382889
0.00392154
0.00401552
0.00411029
0.00420517
0.0042992
0.00439115
0.00447938
0.00456179
0.0046356
0.00469722
0.00474196
0.00476364
0.00475393
0.00470079
0.00458766
0.00439443
0.00412584
0.00378029
0.00328091
0.00266913
0.0020232
0.00141868
0.00097903
0.000586571
0.000526676
0.000952696
0.00119283
0.00140124
0.00162221
0.00185463
0.00208966
0.00232508
0.00255796
0.00278561
0.00300593
0.00321751
0.00341964
0.00361205
0.00379483
0.0039683
0.00413285
0.00428894
0.00443707
0.0045777
0.00471132
0.00483837
0.00495932
0.00507459
0.00518459
0.00528975
0.00539044
0.00548707
0.00557999
0.0056696
0.00575624
0.0058403
0.00592215
0.00600217
0.00608075
0.00615829
0.00623518
0.00631182
0.00638861
0.00646597
0.00654431
0.00662407
0.0067057
0.00678966
0.00687627
0.00696606
0.00705961
0.00716102
0.0072675
0.00737834
0.00749352
0.00761317
0.00773739
0.00786624
0.00799971
0.00813768
0.00827985
0.0084257
0.00857436
0.00872457
0.00887448
0.00902157
0.0091624
0.00929242
0.0094056
0.00949411
0.00954775
0.00955323
0.00949366
0.00934906
0.00909632
0.00870455
0.00814717
0.00740232
0.00645403
0.00529562
0.00395911
0.00244743
0.00135162
0.000595476
0.000732015
0.00138383
0.00167946
0.00196931
0.00230526
0.00266772
0.00303954
0.00341019
0.00377155
0.00411843
0.00444805
0.00475948
0.00505292
0.00532922
0.00558951
0.00583494
0.0060666
0.00628547
0.00649244
0.00668828
0.00687366
0.00704922
0.00721554
0.00737314
0.00752254
0.00766422
0.00779865
0.00792625
0.00804746
0.00816265
0.00827221
0.0083765
0.00847587
0.0085707
0.0086614
0.00874838
0.00883206
0.00891285
0.00899116
0.0090674
0.00914198
0.00921537
0.00928804
0.00936054
0.0094334
0.00950718
0.00958249
0.00965993
0.00974334
0.0098307
0.00992171
0.0100165
0.0101152
0.0102181
0.010325
0.010436
0.0105508
0.0106689
0.010789
0.0109097
0.0110283
0.0111415
0.0112445
0.0113314
0.0113941
0.0114231
0.0114062
0.0113291
0.0111753
0.0109268
0.0105627
0.0100631
0.00941538
0.00860525
0.00762192
0.00643611
0.00504623
0.00346586
0.00177057
0.000547522
0.000867431
0.00169183
0.0020642
0.00244548
0.00288538
0.003355
0.00383091
0.00429708
0.00474403
0.00516724
0.00556549
0.00593956
0.00629117
0.0066223
0.00693488
0.00723054
0.00751067
0.00777635
0.00802848
0.00826777
0.00849482
0.00871013
0.00891419
0.00910744
0.00929029
0.00946318
0.00962653
0.00978075
0.00992626
0.0100634
0.0101926
0.0103141
0.0104282
0.0105353
0.0106358
0.0107302
0.010819
0.0109026
0.0109816
0.0110562
0.0111268
0.0111939
0.0112577
0.0113186
0.0113771
0.0114337
0.011489
0.0115438
0.0115997
0.0116587
0.0117198
0.0117833
0.0118494
0.0119185
0.0119907
0.0120662
0.012145
0.0122267
0.0123106
0.0123951
0.0124778
0.012555
0.012622
0.0126722
0.0126974
0.0126873
0.0126297
0.0125105
0.0123138
0.0120232
0.0116227
0.0110973
0.0104344
0.00962393
0.00865604
0.00751668
0.00616745
0.00452507
0.00248437
0.000612881
0.00095688
0.00190031
0.0023693
0.00284439
0.00337444
0.00392735
0.0044762
0.005005
0.00550596
0.00597696
0.00641909
0.00683489
0.00722729
0.00759899
0.00795225
0.00828883
0.00861
0.00891668
0.00920952
0.00948894
0.00975528
0.0100088
0.0102496
0.010478
0.0106942
0.0108985
0.0110911
0.0112724
0.0114426
0.0116023
0.0117515
0.0118908
0.0120201
0.0121398
0.0122504
0.0123524
0.0124465
0.0125335
0.0126141
0.0126887
0.0127576
0.0128212
0.0128797
0.0129335
0.0129827
0.0130277
0.0130688
0.0131067
0.0131418
0.0131771
0.013212
0.0132474
0.0132837
0.0133218
0.0133622
0.0134056
0.0134525
0.0135035
0.0135586
0.0136169
0.0136769
0.0137356
0.0137888
0.0138306
0.0138529
0.0138457
0.0137966
0.0136907
0.013511
0.0132387
0.0128549
0.0123413
0.0116825
0.0108673
0.00988942
0.00874148
0.00739112
0.0057316
0.00356167
0.000810183
0.00101141
0.00204627
0.00261523
0.0031769
0.00378039
0.00439324
0.00498962
0.00555635
0.00608918
0.00658897
0.00705901
0.0075033
0.00792557
0.00832891
0.00871561
0.00908729
0.00944495
0.00978916
0.0101202
0.0104381
0.0107428
0.0110342
0.0113121
0.0115764
0.0118271
0.0120642
0.0122876
0.0124976
0.0126943
0.0128781
0.013049
0.0132073
0.0133529
0.0134861
0.0136073
0.0137173
0.0138166
0.0139071
0.0139896
0.0140646
0.0141327
0.0141942
0.0142494
0.0142986
0.0143419
0.0143798
0.0144124
0.0144398
0.0144621
0.0144801
0.0144944
0.0145065
0.0145173
0.014528
0.01454
0.0145545
0.0145733
0.0145978
0.0146294
0.0146685
0.0147148
0.0147666
0.0148208
0.0148726
0.0149149
0.0149385
0.0149312
0.0148777
0.0147597
0.0145555
0.0142407
0.013789
0.0131738
0.0123707
0.0113616
0.0101361
0.0086746
0.00689748
0.00459066
0.0012035
0.00104493
0.00215294
0.00281377
0.00344923
0.00410815
0.0047603
0.005384
0.00597058
0.00651968
0.00703502
0.00752179
0.00798506
0.00842914
0.00885724
0.00927158
0.00967349
0.0100636
0.0104421
0.0108089
0.0111634
0.0115053
0.011834
0.012149
0.0124498
0.0127359
0.0130071
0.0132632
0.0135039
0.0137292
0.0139393
0.014134
0.0143132
0.0144764
0.0146237
0.014757
0.0148774
0.0149857
0.0150834
0.0151713
0.0152498
0.0153196
0.0153808
0.0154339
0.0154792
0.0155171
0.0155478
0.0155718
0.0155893
0.0156006
0.0156056
0.0156056
0.0156009
0.0155913
0.0155785
0.0155649
0.015553
0.0155457
0.0155458
0.0155561
0.0155786
0.0156141
0.0156627
0.0157225
0.0157903
0.0158603
0.0159245
0.0159717
0.015987
0.0159516
0.0158419
0.0156296
0.0152811
0.0147582
0.0140191
0.0130221
0.0117312
0.0101148
0.0081185
0.00557708
0.00173149
0.00106638
0.00223315
0.00297241
0.00366659
0.00436372
0.00503792
0.00567339
0.00626642
0.00682031
0.00734133
0.00783621
0.00831087
0.00876999
0.00921683
0.00965343
0.0100808
0.0104993
0.0109085
0.0113078
0.0116965
0.0120735
0.012438
0.012789
0.0131257
0.0134473
0.0137532
0.0140428
0.0143157
0.0145714
0.0148098
0.0150305
0.0152326
0.0154164
0.0155831
0.0157346
0.0158718
0.015996
0.0161076
0.016207
0.0162945
0.0163706
0.0164353
0.0164889
0.0165317
0.0165641
0.0165866
0.0165997
0.0166043
0.0166014
0.0165919
0.0165774
0.0165576
0.0165319
0.0165006
0.0164649
0.0164291
0.0163976
0.0163747
0.0163645
0.0163704
0.016395
0.0164395
0.0165038
0.016586
0.0166823
0.016786
0.0168874
0.0169728
0.017024
0.0170172
0.0169218
0.0167002
0.0163055
0.0156815
0.0147627
0.0134779
0.011754
0.00951258
0.00662503
0.00228086
0.00108057
0.00229455
0.00309725
0.00383492
0.00455493
0.00523728
0.00587251
0.00646171
0.00701153
0.00753038
0.00802627
0.00850583
0.00897397
0.00943394
0.00988758
0.0103356
0.0107778
0.0112136
0.0116417
0.012061
0.0124702
0.0128677
0.0132525
0.0136232
0.0139788
0.0143183
0.014641
0.014946
0.0152327
0.0155005
0.015749
0.0159776
0.0161885
0.0163827
0.0165594
0.0167194
0.0168637
0.0169931
0.0171078
0.0172081
0.0172942
0.0173661
0.0174241
0.0174682
0.0174988
0.0175164
0.0175218
0.017516
0.0175001
0.0174753
0.0174435
0.0174057
0.0173632
0.0173161
0.0172628
0.0172069
0.0171543
0.0171105
0.0170813
0.0170712
0.017084
0.0171224
0.0171879
0.0172803
0.0173973
0.0175344
0.0176836
0.017833
0.0179657
0.0180587
0.0180813
0.0179936
0.0177438
0.0172659
0.0164762
0.0152717
0.0135297
0.0111059
0.00782041
0.00287531
0.00109017
0.00234202
0.00319387
0.00396104
0.00469096
0.00537036
0.00599595
0.00657324
0.00711186
0.00762206
0.00811295
0.0085917
0.00906339
0.00953122
0.00999679
0.0104605
0.0109217
0.0113793
0.0118319
0.0122777
0.0127149
0.0131418
0.0135567
0.0139582
0.0143449
0.0147155
0.0150691
0.0154045
0.0157211
0.0160182
0.0162956
0.0165536
0.0167949
0.0170174
0.0172205
0.017405
0.0175717
0.0177214
0.0178544
0.0179709
0.0180709
0.0181544
0.0182214
0.018272
0.0183063
0.0183248
0.0183282
0.0183176
0.0182943
0.0182597
0.018216
0.0181649
0.0181076
0.0180453
0.0179778
0.0179067
0.0178377
0.0177774
0.0177321
0.0177077
0.017709
0.01774
0.0178037
0.0179016
0.0180333
0.0181963
0.0183848
0.0185892
0.0187945
0.0189793
0.019114
0.0191581
0.0190571
0.0187384
0.018105
0.0170288
0.0153424
0.0128273
0.00918936
0.00350907
0.00109699
0.00237934
0.00326795
0.00405257
0.00478184
0.00544947
0.00605797
0.00661689
0.00713849
0.00763465
0.0081154
0.00858831
0.0090586
0.00952933
0.0100019
0.0104762
0.0109515
0.0114261
0.0118982
0.0123656
0.0128263
0.013278
0.0137188
0.014147
0.0145608
0.0149588
0.0153398
0.0157028
0.0160468
0.0163714
0.0166764
0.0169632
0.0172329
0.017483
0.0177125
0.0179217
0.0181118
0.0182833
0.0184368
0.0185724
0.0186899
0.0187894
0.0188707
0.0189335
0.018978
0.0190043
0.0190131
0.0190052
0.0189821
0.0189454
0.0188975
0.0188403
0.0187754
0.0187041
0.0186264
0.0185458
0.0184668
0.0183958
0.0183395
0.0183042
0.0182958
0.0183195
0.0183795
0.0184791
0.0186201
0.0188019
0.0190214
0.0192714
0.0195396
0.019807
0.0200455
0.0202156
0.0202618
0.0201071
0.0196443
0.0187244
0.0171389
0.0145939
0.0106573
0.00418267
0.00110273
0.0024103
0.00332577
0.00411814
0.00483837
0.00548725
0.0060727
0.00660802
0.00710787
0.00758553
0.00805176
0.00851448
0.00897889
0.00944794
0.0099227
0.0104029
0.0108872
0.0113738
0.0118603
0.0123443
0.0128233
0.0132949
0.0137568
0.0142069
0.0146434
0.0150647
0.0154693
0.0158562
0.0162245
0.0165738
0.0169041
0.0172165
0.017512
0.0177881
0.018043
0.0182769
0.0184906
0.0186851
0.0188608
0.0190178
0.0191562
0.0192756
0.0193759
0.0194567
0.0195178
0.0195591
0.0195808
0.0195838
0.0195692
0.0195387
0.0194949
0.0194398
0.0193751
0.0193019
0.0192221
0.0191395
0.019058
0.0189833
0.018922
0.0188807
0.018866
0.0188839
0.01894
0.0190392
0.0191851
0.0193798
0.0196227
0.0199096
0.0202314
0.020572
0.0209062
0.0211961
0.0213867
0.0213985
0.0211168
0.0203743
0.018925
0.0163977
0.0121722
0.00492941
0.00110957
0.00243995
0.00337522
0.00416798
0.00487261
0.0054971
0.00605467
0.00656219
0.00703645
0.00749197
0.00794007
0.00838884
0.00884344
0.0093066
0.00977914
0.0102604
0.0107489
0.0112423
0.0117381
0.0122335
0.0127257
0.013212
0.01369
0.0141574
0.0146121
0.0150523
0.0154766
0.0158838
0.0162731
0.0166441
0.0169968
0.0173319
0.0176505
0.0179507
0.0182301
0.0184882
0.018726
0.0189442
0.0191435
0.0193241
0.0194859
0.0196287
0.0197522
0.0198559
0.0199393
0.0200021
0.020044
0.0200653
0.0200671
0.020051
0.0200194
0.0199743
0.0199174
0.0198505
0.0197778
0.0197015
0.0196253
0.0195544
0.019495
0.0194536
0.019437
0.0194521
0.0195054
0.0196034
0.0197516
0.0199544
0.0202142
0.0205301
0.0208967
0.0213016
0.0217234
0.0221273
0.02246
0.0226417
0.0225523
0.0220093
0.0207308
0.0182724
0.0138125
0.00581012
0.00112094
0.00247634
0.00342765
0.00421544
0.00489907
0.00549432
0.00601989
0.0064961
0.00694169
0.00737215
0.00779917
0.00823085
0.00867219
0.00912566
0.00959178
0.0100697
0.0105575
0.0110528
0.0115527
0.0120542
0.0125545
0.0130506
0.0135398
0.0140198
0.0144882
0.0149434
0.0153836
0.0158078
0.016215
0.0166048
0.0169771
0.0173323
0.0176716
0.0179943
0.0182971
0.0185793
0.0188413
0.019084
0.0193081
0.0195139
0.0197013
0.0198703
0.0200203
0.0201509
0.0202614
0.0203511
0.0204193
0.0204657
0.020491
0.0204965
0.0204843
0.0204564
0.0204151
0.0203641
0.0203065
0.0202445
0.0201813
0.0201216
0.0200709
0.0200355
0.0200224
0.0200386
0.0200917
0.0201891
0.0203381
0.0205455
0.0208166
0.0211542
0.0215569
0.0220173
0.0225185
0.0230303
0.0235033
0.0238598
0.0239775
0.0236617
0.0225963
0.0202612
0.015652
0.00692082
0.00114383
0.00253448
0.00350038
0.00427865
0.00493604
0.00549735
0.00598702
0.00642888
0.00684331
0.00724643
0.00765004
0.00806205
0.00848716
0.00892747
0.00938324
0.00985339
0.0103359
0.0108281
0.0113271
0.0118298
0.0123332
0.0128342
0.01333
0.0138181
0.0142963
0.0147625
0.0152152
0.0156532
0.0160754
0.0164813
0.0168708
0.0172439
0.0176021
0.0179455
0.0182708
0.0185766
0.0188631
0.019131
0.0193809
0.0196132
0.0198279
0.020025
0.0202041
0.0203646
0.0205057
0.0206266
0.0207259
0.020803
0.0208578
0.020891
0.0209046
0.0209006
0.0208832
0.0208559
0.0208209
0.0207804
0.0207372
0.0206954
0.0206601
0.020637
0.0206328
0.0206549
0.0207109
0.0208094
0.020959
0.0211684
0.0214459
0.0217982
0.0222284
0.0227342
0.023305
0.0239172
0.0245279
0.0250646
0.0254077
0.025356
0.0245595
0.0224156
0.017754
0.00842068
0.00118952
0.0026429
0.00361961
0.00438069
0.00500567
0.0055283
0.00597809
0.00638295
0.00676438
0.00713866
0.00751728
0.00790776
0.0083143
0.00873835
0.00918003
0.00963818
0.0101108
0.0105951
0.0110884
0.0115874
0.0120891
0.0125907
0.0130887
0.0135807