/*--------------------------------*- C++ -*----------------------------------*\
| =========                 |                                                 |
| \\      /  F ield         | OpenFOAM: The Open Source CFD Toolbox           |
|  \\    /   O peration     | Version:  v2012                                 |
|   \\  /    A nd           | Website:  www.openfoam.com                      |
|    \\/     M anipulation  |                                                 |
\*---------------------------------------------------------------------------*/
FoamFile
{
    version     2.0;
    format      ascii;
    class       volScalarField;
    location    "642";
    object      nut;
}
// * * * * * * * * * * * * * * * * * * * * * * * * * * * * * * * * * * * * * //

dimensions      [0 2 -1 0 0 0 0];


internalField   nonuniform List<scalar> 
6532
(
0.00317378
0.0111994
0.0134526
0.0138416
0.013758
0.013758
0.0138416
0.0134526
0.0111994
0.00317378
0.00235718
0.00914142
0.0122975
0.0131899
0.0132981
0.0132981
0.0131899
0.0122975
0.00914142
0.00235718
0.00187282
0.00783903
0.0112576
0.0125183
0.0128287
0.0128287
0.0125183
0.0112576
0.00783903
0.00187282
0.00155988
0.00692725
0.0103675
0.0118628
0.0123389
0.0123389
0.0118628
0.0103675
0.00692726
0.00155989
0.00134333
0.00624546
0.00961268
0.0112427
0.0118384
0.0118384
0.0112427
0.00961269
0.00624547
0.00134333
0.00118504
0.00571086
0.00896889
0.0106655
0.0113401
0.0113401
0.0106655
0.0089689
0.00571088
0.00118504
0.00106419
0.00527641
0.00841367
0.0101324
0.0108542
0.0108542
0.0101324
0.0084137
0.00527643
0.00106419
0.000968662
0.00491345
0.00792891
0.00964129
0.0103876
0.0103876
0.00964132
0.00792896
0.00491349
0.000968665
0.00089101
0.00460359
0.00750073
0.00918914
0.00994394
0.00994396
0.00918919
0.0075008
0.00460365
0.000891013
0.000826436
0.00433449
0.00711862
0.00877245
0.00952517
0.0095252
0.00877252
0.00711872
0.00433458
0.000826441
0.000771731
0.00409755
0.00677461
0.00838782
0.00913158
0.00913162
0.00838794
0.00677477
0.0040977
0.000771738
0.000724666
0.00388661
0.00646261
0.00803214
0.00876259
0.00876266
0.00803231
0.00646284
0.00388683
0.000724676
0.00068365
0.0036971
0.00617787
0.00770256
0.00841714
0.00841724
0.00770281
0.00617822
0.00369742
0.000683664
0.000647514
0.00352555
0.00591666
0.00739654
0.00809385
0.008094
0.00739692
0.00591717
0.00352602
0.000647535
0.000615382
0.00336927
0.00567594
0.00711182
0.00779124
0.00779147
0.00711238
0.0056767
0.00336994
0.000615413
0.000586583
0.00322611
0.00545324
0.00684638
0.00750782
0.00750815
0.00684721
0.00545434
0.00322707
0.000586626
0.000560593
0.00309433
0.00524649
0.00659842
0.00724211
0.00724259
0.00659967
0.00524807
0.00309566
0.000560652
0.000536994
0.00297249
0.00505392
0.00636631
0.00699272
0.00699341
0.00636815
0.00505614
0.00297417
0.000537073
0.000515452
0.00285935
0.00487398
0.00614856
0.00675828
0.00675926
0.00615122
0.00487717
0.00286135
0.000515553
0.000495688
0.00275378
0.00470517
0.00594365
0.00653737
0.00653881
0.00594753
0.0047096
0.00275459
0.000495807
0.000477123
0.00265318
0.00454379
0.00574742
0.00632576
0.00632798
0.00575396
0.00455567
0.00268489
0.000551229
0.000459971
0.00255858
0.00439139
0.00556178
0.00612555
0.00612906
0.00557305
0.00441661
0.00263069
0.000626029
0.000444065
0.00246937
0.00424732
0.00538617
0.00593634
0.00594175
0.0054045
0.00429143
0.0025953
0.000719826
0.00042926
0.0023849
0.00411067
0.00521963
0.00575717
0.00576503
0.00524683
0.00417672
0.00259315
0.000839813
0.000415431
0.0023046
0.00398063
0.00506126
0.00558711
0.00559766
0.00509727
0.00407815
0.00261874
0.000992508
0.00040247
0.00222798
0.00385646
0.00491026
0.00542537
0.00543918
0.00495595
0.00399743
0.00265853
0.00117719
0.000390282
0.00215454
0.00373749
0.00476589
0.00527132
0.00528963
0.00482806
0.00392697
0.00270154
0.00138826
0.000378783
0.00208383
0.00362304
0.00462745
0.00512439
0.00514876
0.00471216
0.00386803
0.00274719
0.00161661
0.000367899
0.00201538
0.00351249
0.00449427
0.00498403
0.00501615
0.00460709
0.00381957
0.00279911
0.00184327
0.000357562
0.0019488
0.00340519
0.00436571
0.00484968
0.00489132
0.00451191
0.00378103
0.00285854
0.00205959
0.000347709
0.00188369
0.00330053
0.00424111
0.00472078
0.00477374
0.00442581
0.00375188
0.00292488
0.00226309
0.000338284
0.00181961
0.00319788
0.00411983
0.00459673
0.00466279
0.00434801
0.00373131
0.00299509
0.0024517
0.000329232
0.00175615
0.00309661
0.00400118
0.00447688
0.00455785
0.00427772
0.00371824
0.00306756
0.00262429
0.000320503
0.00169294
0.00299609
0.00388447
0.00436057
0.0044582
0.00421408
0.00371158
0.00314046
0.00278022
0.000312046
0.00162961
0.00289565
0.00376894
0.00424702
0.00436306
0.00415615
0.00371007
0.00321195
0.00291921
0.000303816
0.00156584
0.00279465
0.00365382
0.00413543
0.00427155
0.0041029
0.00371234
0.00328037
0.00304125
0.000295767
0.00150137
0.00269247
0.00353828
0.0040249
0.00418271
0.00405318
0.00371695
0.00334436
0.00314666
0.000287855
0.00143612
0.00258866
0.00342166
0.00391464
0.00409559
0.00400584
0.00372248
0.0034029
0.00323621
0.000280327
0.00137213
0.0024862
0.00330691
0.00380705
0.00401159
0.00396079
0.00372717
0.00345359
0.0033088
0.000272846
0.00130707
0.00238135
0.00318972
0.00369789
0.00392703
0.00391541
0.0037301
0.00349828
0.00336936
0.000265371
0.00124099
0.00227358
0.00306901
0.00358569
0.00384024
0.00386802
0.00372989
0.0035369
0.00342003
0.000257863
0.00117406
0.00216272
0.00294404
0.00346927
0.00374972
0.00381696
0.00372514
0.00356935
0.00346295
0.000250284
0.0011065
0.00204873
0.00281414
0.00334737
0.00365379
0.00376039
0.00371426
0.00359532
0.00350006
0.000242593
0.00103858
0.00193165
0.00267868
0.00321864
0.00355053
0.00369612
0.00369528
0.00361392
0.00353259
0.000234749
0.000970574
0.00181165
0.0025371
0.00308165
0.00343781
0.00362161
0.00366573
0.00362341
0.00356051
0.000226704
0.000902759
0.00168898
0.00238892
0.00293494
0.00331325
0.00353387
0.00362241
0.00362094
0.00358203
0.000218405
0.00083537
0.00156395
0.00223378
0.00277705
0.0031743
0.00342948
0.00356141
0.00360236
0.00359326
0.000209789
0.000768598
0.00143691
0.00207147
0.00260663
0.00301833
0.00330471
0.00347813
0.00356233
0.0035882
0.000200773
0.000702578
0.00130823
0.00190197
0.00242263
0.00284291
0.00315577
0.00336756
0.00349456
0.00355912
0.000191251
0.000637391
0.00117835
0.0017256
0.00222449
0.00264619
0.00297932
0.00322483
0.00339246
0.00349731
0.00018107
0.000573088
0.00104788
0.00154321
0.00201261
0.00242745
0.00277316
0.00304601
0.00325005
0.00339424
0.000169996
0.000509636
0.000917859
0.00135668
0.00178898
0.00218804
0.00253735
0.00282937
0.00306333
0.00324299
0.000155211
0.000447036
0.000789965
0.00116959
0.00155828
0.00193265
0.00227562
0.00257689
0.00283173
0.00303874
0.000103389
0.000391083
0.000669778
0.000988661
0.00132876
0.00167027
0.00199654
0.00229539
0.00255797
0.00278069
0.000109931
0.000348987
0.000570764
0.000828778
0.00111547
0.00141584
0.00171406
0.00199535
0.00225173
0.00247852
0.000104311
0.000318618
0.000504082
0.000708619
0.000940547
0.00119166
0.0014472
0.00169754
0.00193455
0.00215223
7.59018e-05
0.000308571
0.000469345
0.000636034
0.000819842
0.00101753
0.00122452
0.00143393
0.00163866
0.00183253
6.66997e-05
0.00029301
0.00045588
0.000599327
0.000722752
0.000843965
0.000976736
0.00111879
0.00126298
0.00140474
6.56474e-05
0.000217709
0.000427727
0.000553836
0.000671264
0.000698432
0.000757447
0.000848581
0.000953358
0.0010609
6.9495e-05
0.000113406
0.000140782
0.000171968
0.000201111
0.00022126
0.000236176
0.000248433
0.000258454
0.000266601
0.00014257
0.000165256
0.000167233
0.000172131
0.000176086
0.000178642
0.000179641
0.000179124
0.000177097
0.000173866
0.000169764
0.000164734
0.000158773
0.000152123
0.000144937
0.000137264
0.000129068
0.000120984
0.00011321
0.000105406
9.73243e-05
8.8673e-05
7.89757e-05
6.72349e-05
4.21755e-05
0.000255128
0.0005173
0.000804412
0.000966199
0.00105374
0.00110744
0.00113851
0.00115096
0.00114678
0.00112652
0.00109314
0.0010499
0.000998936
0.000942107
0.000880689
0.000815115
0.000743307
0.000648796
0.000540998
0.000435229
0.000340893
0.00026272
0.000202739
0.000154834
4.99502e-05
0.000412343
0.000662435
0.00102856
0.00136645
0.00158148
0.00171463
0.00179519
0.00183667
0.00184611
0.00182804
0.00178638
0.0017276
0.00165672
0.00157663
0.00148841
0.00139125
0.00128092
0.00114363
0.000976181
0.000793474
0.000613861
0.000454679
0.000327018
0.000222323
5.50494e-05
0.000686146
0.000704136
0.00105291
0.00142354
0.00172523
0.00191773
0.00203564
0.00209942
0.00212066
0.00210749
0.00206743
0.0020088
0.00193974
0.00186445
0.00178323
0.00169285
0.00158638
0.00145078
0.00127621
0.0010692
0.000845685
0.000629001
0.000440281
0.000274009
5.73221e-05
0.00104759
0.000900457
0.00119355
0.00142482
0.00172443
0.00195848
0.00210092
0.00217704
0.00220202
0.00218715
0.00214347
0.0020824
0.00201513
0.00194825
0.00188204
0.00181102
0.00172514
0.00160981
0.00145141
0.00124948
0.00101412
0.000767166
0.000533509
0.00031154
5.80881e-05
0.00130191
0.00123775
0.00138994
0.00152728
0.00173259
0.00195052
0.00211109
0.00219547
0.00221988
0.00219807
0.002145
0.00207606
0.00200475
0.00194086
0.00188635
0.00183416
0.00177111
0.00167977
0.00154339
0.00135693
0.00112545
0.000866454
0.000603117
0.000336474
5.80547e-05
0.00152351
0.00162363
0.0016203
0.00167963
0.00182112
0.0019727
0.00211311
0.00220313
0.00222702
0.0021961
0.00212976
0.00204853
0.00196893
0.00190181
0.00185219
0.00181382
0.00177092
0.00170181
0.00158606
0.00141604
0.0011936
0.000931991
0.000650265
0.000351152
5.75615e-05
0.00173838
0.00186699
0.00186374
0.00188026
0.00195836
0.00206548
0.00215798
0.00222347
0.00224245
0.00220253
0.00212055
0.00202363
0.00193189
0.00185711
0.00180512
0.00177336
0.00174642
0.00169662
0.0015993
0.0014439
0.00123082
0.000970621
0.000678219
0.000357828
5.67485e-05
0.00194726
0.00209412
0.00210781
0.0021021
0.00213088
0.00219672
0.00225709
0.0022875
0.00228089
0.0022263
0.00212675
0.00201137
0.0019041
0.0018171
0.00175623
0.00172314
0.00170365
0.00166977
0.00159092
0.00144976
0.00124521
0.00098816
0.000690549
0.000358362
5.5668e-05
0.00214904
0.00230941
0.00234647
0.00233288
0.00232874
0.00235852
0.0023897
0.00239369
0.00235558
0.00227588
0.00215388
0.00201629
0.00188937
0.00178537
0.00170992
0.00166647
0.0016465
0.00162261
0.00155981
0.00143246
0.00123919
0.00098827
0.000690463
0.000354505
5.44356e-05
0.00234243
0.00251379
0.00257545
0.00256668
0.00254673
0.00254366
0.00254803
0.00252895
0.00246544
0.00235537
0.00220617
0.00204149
0.00188942
0.00176423
0.00166975
0.00160761
0.00157616
0.00155478
0.0015076
0.00139465
0.00121279
0.000969553
0.000675331
0.00034237
5.33687e-05
0.00252604
0.00270579
0.00279078
0.00279516
0.00277013
0.00274284
0.00272546
0.00268751
0.00260354
0.00246669
0.00228763
0.00209173
0.00190972
0.00175915
0.00164192
0.00155508
0.00149898
0.00146496
0.00142883
0.00133569
0.00116786
0.000934395
0.000647704
0.000324629
5.23158e-05
0.00269771
0.00288282
0.0029892
0.00301104
0.00298605
0.00294747
0.00291499
0.00286354
0.00276509
0.00260899
0.00240339
0.00217394
0.00195887
0.00177789
0.00163368
0.00151941
0.00139605
0.0013093
0.00127704
0.00121308
0.00108594
0.000885659
0.000611276
0.000304121
5.119e-05
0.00285488
0.00304305
0.00316854
0.0032089
0.00319222
0.00315611
0.00311071
0.00305125
0.00294571
0.00277854
0.00255329
0.00229604
0.00204717
0.00183113
0.00165411
0.00150978
0.00130701
0.00114738
0.00111596
0.00108892
0.000992026
0.000829663
0.000571087
0.000283135
4.9953e-05
0.00299521
0.00318404
0.0033254
0.00338409
0.00338019
0.00334925
0.00330385
0.00324421
0.00314019
0.00297282
0.00273893
0.00246289
0.00218515
0.00193294
0.00171662
0.00153572
0.00134534
0.00103933
0.000943613
0.000950241
0.000907156
0.000770234
0.000533317
0.000264374
4.86266e-05
0.00311691
0.00330348
0.00345667
0.00353418
0.00354685
0.00352633
0.00349276
0.00343661
0.00334233
0.00318731
0.00295896
0.00267785
0.00238202
0.00209825
0.00184067
0.00161415
0.00141811
0.00107481
0.00082492
0.000766516
0.000778659
0.00071137
0.00050509
0.000252289
4.7357e-05
0.003219
0.00339985
0.00356086
0.00365601
0.00368687
0.00367997
0.0036599
0.00362055
0.00354432
0.00341472
0.00320794
0.00293842
0.00264049
0.00233893
0.00204703
0.0017728
0.00152288
0.00130053
0.000874234
0.000648708
0.000590671
0.000594508
0.000491519
0.00025625
4.6604e-05
0.00330144
0.00347263
0.0036375
0.00374737
0.00379739
0.00380685
0.00380267
0.00378651
0.00373721
0.00364379
0.00347496
0.00323533
0.00295453
0.00265514
0.00234806
0.002039
0.00173573
0.00144778
0.00118647
0.000739241
0.000496772
0.000403451
0.000348494
0.000283324
4.80085e-05
0.00336324
0.00352081
0.0036848
0.00380497
0.00387361
0.00390198
0.00391345
0.00391994
0.00390737
0.00385693
0.0037396
0.00354767
0.00330407
0.00302956
0.0027338
0.00241913
0.0020872
0.00174406
0.00140558
0.00108879
0.000683067
0.000385104
0.000254893
0.000189327
6.02411e-05
0.00340969
0.00354942
0.00370747
0.00383435
0.00391758
0.00396459
0.00399146
0.00401618
0.00403581
0.00403582
0.00397693
0.00384574
0.00365555
0.00342449
0.00316255
0.00287127
0.00254856
0.00219347
0.00181026
0.00141479
0.00103208
0.000700522
0.000408504
0.00021913
0.000189316
0.0034438
0.00356164
0.00370828
0.00383695
0.00393052
0.00399313
0.0040371
0.00407522
0.00411827
0.00416073
0.00416663
0.00410679
0.00398574
0.00381587
0.00360742
0.00336329
0.00308106
0.00275621
0.00238525
0.00197002
0.00152396
0.00108642
0.000712385
0.000456293
0.000329951
0.00346918
0.00356178
0.00369136
0.003816
0.00391563
0.00398911
0.00404585
0.00409745
0.00415508
0.00422036
0.00427827
0.00429513
0.00425514
0.00416249
0.00402528
0.0038485
0.00363238
0.00337358
0.00306689
0.00270772
0.00222356
0.00185125
0.00139939
0.00100325
0.000685322
0.00348974
0.00355518
0.00366253
0.00377669
0.00387676
0.00395725
0.00402328
0.00408414
0.0041496
0.00422531
0.00430633
0.0043772
0.00441998
0.00441378
0.00435995
0.00426334
0.00412753
0.00395325
0.0036963
0.00324503
0.00277151
0.00232475
0.00194454
0.00159284
0.00123918
0.00350908
0.00354767
0.00362893
0.00372627
0.00382019
0.00390235
0.00397382
0.00404071
0.00411055
0.00418983
0.00427957
0.00437343
0.00446044
0.00452657
0.00455735
0.00454315
0.00448825
0.00432022
0.00408997
0.00383166
0.00354526
0.00322193
0.00289402
0.00259651
0.00234056
0.00352962
0.00354453
0.00359826
0.0036736
0.00375459
0.00383201
0.00390384
0.00397305
0.00404464
0.00412393
0.00421445
0.00431457
0.00441826
0.00451624
0.00459762
0.00449036
0.00436776
0.00425012
0.00414105
0.00403584
0.00391711
0.00377929
0.00362744
0.00347203
0.00332692
0.00355161
0.00354918
0.00357735
0.00362801
0.00369038
0.00375637
0.00382242
0.00388897
0.00395885
0.00403569
0.00412267
0.00422056
0.00432617
0.00443262
0.00440773
0.00425261
0.00411591
0.00401188
0.00393781
0.00388913
0.00385778
0.00383499
0.00381514
0.00379594
0.00377632
0.0035724
0.00356177
0.00357022
0.00359731
0.00363806
0.00368712
0.00374103
0.00379884
0.00386179
0.00393227
0.00401259
0.00410379
0.00420408
0.00430841
0.00424928
0.00404749
0.00388571
0.00376389
0.00367832
0.00362748
0.00360702
0.00361086
0.00363395
0.00367223
0.00372117
0.00358607
0.00357806
0.00357615
0.00358519
0.00360541
0.00363493
0.00367187
0.00371554
0.00376626
0.00382523
0.00389389
0.00397325
0.00406281
0.0041595
0.00418875
0.00394131
0.0037378
0.00358815
0.00347891
0.00340566
0.00336436
0.00335121
0.00336304
0.00339733
0.00345079
0.00358376
0.00358933
0.00358844
0.00358871
0.00359399
0.00360577
0.00362477
0.00365127
0.00368571
0.0037288
0.00378139
0.00384412
0.00391698
0.00399855
0.00408453
0.00391069
0.00368355
0.00351152
0.00338261
0.00328587
0.00321445
0.00317269
0.00315664
0.00316402
0.00319249
0.00355456
0.00358315
0.00359456
0.00359701
0.00359653
0.00359734
0.00360209
0.00361252
0.00362987
0.00365512
0.00368905
0.0037322
0.0037847
0.00384601
0.00391431
0.00398512
0.00377426
0.00355328
0.00338763
0.00326271
0.00316875
0.00310065
0.00305746
0.00303656
0.00303538
0.00348699
0.00354496
0.00357725
0.00359234
0.00359706
0.00359663
0.00359497
0.00359502
0.00359895
0.00360838
0.00362451
0.00364809
0.00367952
0.00371876
0.00376523
0.00381742
0.00387216
0.00380127
0.00357933
0.00340547
0.00327384
0.00317403
0.00309975
0.00304874
0.00301785
0.00337033
0.00345897
0.00351777
0.00355381
0.00357338
0.0035818
0.00358343
0.00358182
0.0035798
0.00357959
0.00358285
0.00359081
0.00360425
0.00362358
0.00364887
0.00367981
0.00371556
0.00375459
0.00379506
0.00376582
0.00358301
0.00343583
0.00332404
0.00324012
0.00317915
0.00319452
0.00331286
0.0034
0.00346142
0.00350235
0.00352755
0.0035412
0.00354694
0.0035478
0.00354632
0.00354451
0.00354398
0.00354589
0.00355109
0.0035601
0.00357318
0.00359035
0.00361136
0.00363569
0.00366246
0.00369053
0.0037194
0.00374012
0.003619
0.0035227
0.00295774
0.00310085
0.00321406
0.00330109
0.00336582
0.00341208
0.00344348
0.00346329
0.00347444
0.00347947
0.00348054
0.00347942
0.00347757
0.00347612
0.00347591
0.00347758
0.00348153
0.00348804
0.00349716
0.00350883
0.00352281
0.00353884
0.0035565
0.00357494
0.00359382
0.00266686
0.00282659
0.00295976
0.00306837
0.00315492
0.00322213
0.00327277
0.00330957
0.00333506
0.00335158
0.00336119
0.00336568
0.00336661
0.00336522
0.00336258
0.00335951
0.00335667
0.00335455
0.00335352
0.00335384
0.00335565
0.00335901
0.00336387
0.00337011
0.00337755
0.00233962
0.00250467
0.00264778
0.00276955
0.00287122
0.00295442
0.00302107
0.00307316
0.00311271
0.00314166
0.00316181
0.00317478
0.00318206
0.00318489
0.00318437
0.00318143
0.00317682
0.00317117
0.003165
0.00315872
0.00315263
0.003147
0.00314198
0.00313771
0.00313429
0.00200374
0.00215946
0.00229862
0.00242026
0.00252509
0.00261397
0.00268793
0.00274822
0.00279624
0.00283339
0.00286108
0.00288064
0.00289331
0.00290024
0.00290242
0.00290076
0.00289602
0.00288887
0.00287988
0.00286954
0.00285824
0.00284633
0.00283408
0.00282175
0.00280961
0.00154077
0.00168003
0.00182702
0.00198527
0.00211006
0.00218844
0.0022543
0.00230847
0.00235188
0.0023855
0.00241035
0.00242742
0.00243767
0.00244203
0.00244135
0.0024364
0.00242789
0.00241645
0.00240264
0.00238696
0.00236981
0.0023516
0.00233263
0.00231321
0.00229368
0.00116851
0.00128501
0.00138434
0.00143875
0.00148499
0.001523
0.00155321
0.00157615
0.00159239
0.00160255
0.00160726
0.00160714
0.00160282
0.0015949
0.00158392
0.00157041
0.00155485
0.00153765
0.00151921
0.00149986
0.0014799
0.00145958
0.00143913
0.00141873
0.00139861
0.000273097
0.000278689
0.000283453
0.000287348
0.000290473
0.000292896
0.000294672
0.000295854
0.000296492
0.000296635
0.000296333
0.000295631
0.000294575
0.00029321
0.000291576
0.000289712
0.000287655
0.00028544
0.000283097
0.000280654
0.000278137
0.000275568
0.000272967
0.000270352
0.00026774
6.99872e-05
7.05138e-05
3.76158e-05
0.000164867
0.000113814
0.000198429
0.000300321
0.000305574
0.000202974
0.000425727
0.000319716
0.000323877
0.000941594
0.000806044
0.00079969
0.00211282
0.00195185
0.0018833
0.00320551
0.00311525
0.00305094
0.0037567
0.00374446
0.00374255
0.00377114
0.00382076
0.00387616
0.00351289
0.00358007
0.00365491
0.00323371
0.0032858
0.00334836
0.00304762
0.00307339
0.00311078
0.00300153
0.00299995
0.00301006
0.00313658
0.00311017
0.00309508
0.00345291
0.00340336
0.00336735
0.00361104
0.00362845
0.00364632
0.003385
0.00339325
0.00340229
0.00313175
0.00312999
0.00312884
0.0027988
0.00278842
0.00277828
0.00227615
0.0022589
0.00224172
0.001381
0.00136382
0.00134697
0.000265453
0.000263191
0.000260954
2.69385e-05
5.27007e-05
6.1344e-05
6.28963e-05
7.94313e-05
8.50556e-05
8.97559e-05
9.38927e-05
9.75948e-05
0.000100947
0.000104007
0.00010682
0.000109419
0.000111832
0.000114081
0.000116186
0.000118161
0.000120021
0.000121778
0.000123443
0.000125026
0.000126535
0.000127979
0.000129365
0.000130701
0.000131992
0.000133245
0.000134466
0.000135661
0.000136836
0.000137996
0.000139146
0.000140293
0.000141441
0.000142597
0.000143764
0.00014495
0.00014616
0.000147401
0.000148678
0.000150001
0.000151377
0.000152816
0.000154329
0.00015593
0.000157633
0.000159459
0.000161333
0.000163249
0.000165202
0.000167189
0.000169207
0.000171255
0.000173332
0.000175434
0.000177556
0.000179692
0.000181832
0.000183965
0.000186076
0.000188145
0.000190146
0.000192047
0.000193806
0.000195367
0.000196662
0.000197596
0.000198047
0.000197845
0.000196736
0.000194355
0.000190217
0.000184313
0.000176426
0.00016436
0.000148247
0.000129068
0.000108079
8.97835e-05
5.99362e-05
4.99261e-05
0.000136865
0.000155714
0.000177399
0.000202136
0.000230763
0.000261704
0.000294091
0.000327146
0.000360224
0.00039282
0.000424573
0.000455249
0.000484709
0.000512891
0.000539779
0.000565388
0.000589756
0.000612932
0.000634972
0.000655937
0.000675889
0.000694892
0.000713009
0.000730303
0.000746836
0.00076267
0.000777864
0.00079248
0.000806576
0.000820212
0.000833449
0.000846347
0.000858964
0.000871356
0.000883575
0.000895661
0.000907645
0.000919546
0.000931369
0.000943103
0.000954718
0.00096616
0.00097736
0.000988123
0.000998299
0.00100774
0.00101842
0.00102956
0.00104096
0.00105256
0.00106429
0.00107613
0.001088
0.00109984
0.00111154
0.00112299
0.00113402
0.00114442
0.00115393
0.00116221
0.00116886
0.00117339
0.00117521
0.0011736
0.00116776
0.0011567
0.00113933
0.00111438
0.00108053
0.00103652
0.000944771
0.000855442
0.000803217
0.000744336
0.000641434
0.000522832
0.000355827
0.00018934
5.30868e-05
5.88594e-05
0.000189283
0.000239398
0.000282325
0.000336289
0.000399575
0.000469171
0.000542425
0.000617111
0.000691523
0.000764457
0.00083514
0.000903127
0.000968202
0.0010303
0.00108944
0.0011457
0.00119919
0.00125003
0.00129833
0.00134424
0.00138787
0.00142935
0.0014688
0.00150634
0.0015421
0.00157618
0.00160869
0.00163975
0.00166945
0.00169789
0.00172516
0.00175136
0.00177657
0.00180087
0.00182432
0.00184697
0.00186884
0.00188994
0.00191025
0.00192973
0.00194833
0.00196598
0.00198259
0.00199805
0.00201226
0.00202512
0.00203649
0.00204836
0.00205967
0.00207009
0.00207941
0.00208744
0.00209395
0.0020987
0.00210141
0.00210172
0.00209921
0.00209338
0.00208361
0.0020692
0.00204932
0.00202306
0.00198938
0.0019472
0.00189537
0.00183276
0.00175835
0.00167133
0.00157127
0.00143631
0.00127002
0.00112616
0.00100723
0.000908491
0.000765752
0.000617905
0.000462755
0.000261459
5.09045e-05
6.22383e-05
0.000241063
0.000318751
0.00039068
0.000479015
0.000580134
0.000690179
0.000804657
0.000920113
0.00103412
0.00114511
0.00125217
0.00135482
0.00145289
0.00154637
0.00163537
0.00172001
0.00180047
0.00187692
0.00194954
0.00201849
0.00208396
0.00214609
0.00220505
0.002261
0.00231409
0.00236445
0.00241225
0.0024576
0.00250066
0.00254153
0.00258035
0.00261721
0.00265224
0.00268551
0.00271713
0.00274715
0.00277561
0.00280251
0.00282781
0.00285143
0.00287329
0.00289325
0.00291118
0.00292692
0.00294029
0.00295113
0.00295924
0.00296499
0.00296927
0.00297123
0.0029705
0.0029668
0.00295985
0.00294935
0.00293493
0.0029162
0.00289265
0.00286367
0.00282854
0.0027864
0.00273626
0.00267702
0.00260747
0.00252637
0.00243248
0.00232467
0.00220206
0.00206424
0.00191144
0.00174486
0.00156666
0.00138025
0.00119038
0.00100221
0.000820359
0.000646404
0.000476005
0.000282232
5.38573e-05
6.72952e-05
0.000288516
0.000394212
0.000498474
0.00062183
0.000760404
0.000908144
0.0010597
0.00121103
0.0013594
0.00150319
0.00164152
0.001774
0.00190053
0.00202115
0.00213604
0.00224538
0.00234938
0.00244824
0.00254216
0.00263135
0.00271598
0.00279624
0.00287229
0.00294431
0.00301246
0.0030769
0.00313779
0.00319529
0.00324956
0.00330074
0.00334898
0.00339442
0.00343719
0.00347743
0.00351527
0.0035508
0.00358416
0.00361538
0.00364442
0.0036712
0.0036956
0.00371746
0.00373656
0.00375267
0.00376553
0.00377482
0.00378023
0.00378144
0.00377957
0.00377391
0.00376415
0.00375001
0.00373127
0.00370765
0.00367886
0.00364455
0.00360425
0.00355739
0.00350322
0.00344082
0.00336909
0.00328674
0.00319237
0.00308444
0.0029614
0.00282179
0.00266441
0.00248852
0.00229419
0.00208258
0.00185635
0.00161988
0.00137932
0.00114198
0.000914693
0.00070293
0.000505167
0.000304625
6.19225e-05
6.91862e-05
0.000322177
0.000464921
0.000602239
0.000759212
0.000931645
0.00111248
0.00129576
0.00147727
0.00165438
0.00182556
0.00199004
0.00214752
0.00229798
0.00244155
0.00257843
0.00270884
0.00283302
0.00295117
0.00306353
0.00317027
0.0032716
0.00336768
0.00345868
0.00354478
0.00362612
0.00370286
0.00377517
0.00384319
0.00390709
0.00396705
0.00402322
0.00407578
0.00412493
0.0041709
0.00421379
0.00425363
0.00429095
0.0043259
0.00435845
0.00438855
0.00441609
0.00444092
0.00446282
0.00448154
0.00449674
0.00450802
0.00451486
0.0045166
0.00451308
0.00450412
0.00448965
0.00446941
0.00444326
0.0044111
0.00437281
0.00432818
0.00427689
0.00421845
0.00415217
0.00407711
0.0039921
0.00389569
0.00378621
0.00366178
0.00352041
0.00336005
0.00317883
0.00297531
0.00274878
0.00249969
0.00223017
0.00194446
0.00164911
0.00135301
0.0010668
0.000800291
0.00055787
0.000331123
7.54713e-05
7.03234e-05
0.000350069
0.000529967
0.000699262
0.000886804
0.00108865
0.00129738
0.00150697
0.00171335
0.00191403
0.00210768
0.00229367
0.00247181
0.00264215
0.00280489
0.00296024
0.00310847
0.00324981
0.00338447
0.00351268
0.00363462
0.00375046
0.00386037
0.00396449
0.00406299
0.00415599
0.00424363
0.00432604
0.00440335
0.00447569
0.0045432
0.00460602
0.00466427
0.00471831
0.00476905
0.00481567
0.00481587
0.00481931
0.00482666
0.00483528
0.0048455
0.00485838
0.00487495
0.00489632
0.00492377
0.00495874
0.00500303
0.00505919
0.00512733
0.00517382
0.00516695
0.00515336
0.00513202
0.00510277
0.0050661
0.00502229
0.00497145
0.00491349
0.00484809
0.00477469
0.00469241
0.00460007
0.00449613
0.00437871
0.00424559
0.00409428
0.00392207
0.00372628
0.00350444
0.00325471
0.00297633
0.00267028
0.00233979
0.00199103
0.00163339
0.00127937
0.000943259
0.000637253
0.000363907
9.05249e-05
7.10414e-05
0.000373227
0.000588809
0.000787864
0.00100218
0.00122875
0.00146038
0.0016913
0.00191771
0.0021374
0.00234919
0.00255261
0.00274759
0.00293426
0.00311284
0.00328359
0.00344678
0.00360263
0.00375136
0.00389317
0.00402823
0.00415668
0.00427868
0.00439436
0.00450384
0.00460724
0.00470464
0.00479615
0.00488184
0.00496178
0.00503602
0.00510454
0.00514509
0.00511001
0.00509005
0.00508172
0.0050765
0.00507355
0.00507269
0.00507373
0.00507757
0.00508534
0.00509823
0.00511763
0.00514517
0.00518263
0.00523156
0.0052928
0.0053666
0.00545444
0.00556125
0.00568373
0.00573206
0.00570355
0.00566536
0.00561876
0.00556438
0.0055025
0.00543307
0.00535573
0.00526977
0.00517408
0.00506714
0.00494696
0.00481108
0.00465655
0.00448005
0.00427794
0.00404661
0.00378276
0.00348407
0.00314981
0.00278176
0.00238495
0.00196836
0.00154521
0.00113252
0.000749147
0.000410793
0.000103898
7.15124e-05
0.000392464
0.000641301
0.000867293
0.00110441
0.00135117
0.00160108
0.00184884
0.002091
0.00232561
0.00255173
0.00276902
0.00297751
0.00317738
0.00336892
0.00355239
0.00372804
0.00389611
0.00405678
0.00421022
0.00435658
0.00449599
0.00462858
0.00475444
0.0048737
0.00498642
0.00509269
0.00519257
0.0052861
0.0053733
0.00545413
0.00546639
0.005404
0.0053604
0.0053382
0.0053243
0.00531326
0.00530458
0.00529922
0.00529707
0.00529846
0.00530425
0.00531556
0.00533384
0.00536106
0.0053997
0.00545243
0.00552104
0.00560529
0.00570453
0.00582044
0.00595588
0.00611067
0.00623761
0.00619954
0.00615167
0.0060953
0.00603111
0.00595939
0.00588002
0.00579254
0.00569604
0.00558912
0.00546985
0.00533565
0.00518328
0.00500885
0.00480784
0.00457534
0.00430641
0.00399669
0.00364327
0.00324579
0.00280762
0.00233696
0.00184744
0.00135789
0.00089139
0.000473797
0.000112817
7.18294e-05
0.000408421
0.000687598
0.000937502
0.00119359
0.00145636
0.00172037
0.00198092
0.00223498
0.0024809
0.00271796
0.00294596
0.00316503
0.0033754
0.00357737
0.00377121
0.00395716
0.00413541
0.00430613
0.00446947
0.00462554
0.00477444
0.00491627
0.00505112
0.00517908
0.00530021
0.00541459
0.00552228
0.00562331
0.00571772
0.00580552
0.00574165
0.00567026
0.00562588
0.00560182
0.00558757
0.00557698
0.00556904
0.00556421
0.0055627
0.00556495
0.00557168
0.00558394
0.00560319
0.00563157
0.00567187
0.00572725
0.00580024
0.00589186
0.00600209
0.00613089
0.0062774
0.00644211
0.00661213
0.00666269
0.00661385
0.00655616
0.00649052
0.00641743
0.00633707
0.00624926
0.00615339
0.00604832
0.00593232
0.0058029
0.00565672
0.0054895
0.00529595
0.00506993
0.00480466
0.0044934
0.00413036
0.0037122
0.0032398
0.00272001
0.00216696
0.00160202
0.0010524
0.000550496
0.00012887
7.20539e-05
0.000421687
0.000728149
0.000999003
0.00127055
0.00154557
0.00181989
0.00208957
0.00235207
0.00260606
0.00285104
0.00308695
0.003314
0.00353246
0.00374263
0.00394477
0.00413907
0.00432571
0.00450481
0.00467648
0.0048408
0.00499784
0.00514768
0.00529039
0.00542604
0.00555469
0.00567642
0.0057913
0.00589938
0.00600074
0.00609395
0.00601965
0.00594565
0.00590077
0.00587971
0.00587073
0.00586606
0.00586357
0.00586347
0.00586629
0.00587253
0.00588289
0.00589832
0.00592026
0.00595096
0.00599364
0.00605224
0.00613028
0.00622963
0.00635023
0.0064909
0.00664924
0.00682314
0.00700213
0.00705268
0.00700255
0.00694372
0.00687699
0.00680299
0.00672214
0.00663455
0.00653996
0.00643761
0.00632613
0.00620331
0.00606596
0.00590968
0.00572868
0.00551574
0.00526231
0.00495895
0.00459641
0.00416731
0.00366868
0.0031049
0.0024903
0.00184997
0.00121751
0.000631886
0.000140697
7.22419e-05
0.000432941
0.000763772
0.00105284
0.00133673
0.00162062
0.00190185
0.00217735
0.00244515
0.00270427
0.00295443
0.00319573
0.00342843
0.00365281
0.00386917
0.00407771
0.00427861
0.00447198
0.0046579
0.00483643
0.00500761
0.00517149
0.00532813
0.00547756
0.00561986
0.00575508
0.0058833
0.00600459
0.00611903
0.00622672
0.00632775
0.0062812
0.00620763
0.00616508
0.00615131
0.00615181
0.00615693
0.00616357
0.00617172
0.006182
0.00619502
0.00621143
0.00623208
0.00625833
0.00629249
0.00633826
0.0064006
0.0064847
0.00659366
0.00672649
0.00687822
0.00704463
0.0072298
0.00741175
0.00736967
0.00731842
0.00725865
0.00719109
0.00711645
0.00703533
0.00694813
0.00685498
0.00675556
0.00664897
0.00653347
0.00640628
0.00626319
0.0060983
0.00590368
0.00566923
0.00538289
0.00503142
0.00460234
0.00408709
0.00348564
0.00281136
0.00209401
0.00137725
0.000709247
0.000152741
7.24659e-05