/*--------------------------------*- C++ -*----------------------------------*\
| =========                 |                                                 |
| \\      /  F ield         | OpenFOAM: The Open Source CFD Toolbox           |
|  \\    /   O peration     | Version:  v2012                                 |
|   \\  /    A nd           | Website:  www.openfoam.com                      |
|    \\/     M anipulation  |                                                 |
\*---------------------------------------------------------------------------*/
FoamFile
{
    version     2.0;
    format      ascii;
    class       volScalarField;
    location    "642";
    object      omega;
}
// * * * * * * * * * * * * * * * * * * * * * * * * * * * * * * * * * * * * * //

dimensions      [0 0 -1 0 0 0 0];


internalField   nonuniform List<scalar> 
6532
(
629.344
225.36
194.9
191.306
193.355
193.355
191.306
194.9
225.36
629.344
467.417
194.028
159.506
153.348
153.582
153.582
153.348
159.506
194.028
467.417
371.371
165.811
134.332
127.308
126.392
126.392
127.308
134.332
165.811
371.371
309.317
143.085
115.506
108.454
106.949
106.949
108.454
115.506
143.085
309.317
266.375
125.176
100.975
94.236
92.4782
92.4782
94.236
100.975
125.176
266.375
234.987
110.998
89.4926
83.1717
81.3384
81.3384
83.1717
89.4926
110.997
234.987
211.023
99.6251
80.2407
74.3438
72.5228
72.5228
74.3437
80.2406
99.625
211.023
192.081
90.3623
72.6604
67.1547
65.3866
65.3865
67.1547
72.6603
90.362
192.081
176.682
82.7015
66.3573
61.1995
59.5003
59.5002
61.1994
66.3571
82.7011
176.683
163.878
76.2743
61.0469
56.194
54.5678
54.5677
56.1939
61.0467
76.2737
163.879
153.03
70.8112
56.5201
51.9338
50.3786
50.3786
51.9336
56.5197
70.8103
153.032
143.697
66.1129
52.6203
48.2678
46.7795
46.7794
48.2675
52.6197
66.1115
143.699
135.564
62.0296
49.2289
45.0827
43.6561
43.6559
45.0822
49.2279
62.0276
135.567
128.399
58.4478
46.2544
42.2914
40.9213
40.9211
42.2907
46.2529
58.4448
128.403
122.027
55.2795
43.6255
39.8266
38.5082
38.5078
39.8255
43.6234
55.275
122.033
116.316
52.4562
41.286
37.635
36.3638
36.3633
37.6334
41.2829
52.4499
116.325
111.163
49.924
39.1911
35.6742
34.4464
34.4457
35.6719
39.1867
49.9155
111.174
106.483
47.6397
37.3047
33.9102
32.7222
32.7212
33.9069
37.2986
47.6297
106.499
102.211
45.5684
35.5974
32.3151
31.1637
31.1623
32.3104
35.5889
45.5578
102.231
98.2923
43.6816
34.0446
30.8654
29.7476
29.7455
30.8583
34.0324
43.6821
98.3158
94.6109
41.9233
32.6008
29.5187
28.4327
28.4291
29.5044
32.5467
41.4715
82.4442
91.2097
40.3127
31.2797
28.2868
27.2294
27.223
28.2575
31.1487
39.2944
69.7232
88.0557
38.8336
30.0678
27.1569
26.1254
26.1142
27.1035
29.8276
37.126
59.8231
85.12
37.4714
28.9529
26.1173
25.1088
25.091
26.0315
28.5788
34.8003
52.0625
82.3778
36.214
27.9243
25.1579
24.1697
24.1441
25.0367
27.3566
32.4846
46.0142
79.8076
35.0508
26.9731
24.27
23.2994
23.2641
24.1097
26.1643
30.3988
41.3498
77.3908
33.9732
26.0918
23.4464
22.4905
22.4424
23.2291
25.063
28.631
37.7397
75.1107
32.974
25.2741
22.6807
21.7367
21.6729
22.3954
24.0408
27.1628
34.9121
72.9524
32.0475
24.5147
21.9679
21.0327
20.9505
21.6082
23.0971
25.9079
32.4925
70.9026
31.1887
23.8091
21.3033
20.3739
20.2714
20.8662
22.2264
24.8045
30.3544
68.9489
30.3935
23.154
20.6835
19.7568
19.6322
20.1673
21.4204
23.8078
28.4599
67.0799
29.6588
22.5464
20.1054
19.1782
19.0301
19.5086
20.669
22.8742
26.7706
65.285
28.9828
21.9844
19.5667
18.6357
18.4627
18.8869
19.9616
21.9865
25.2534
63.554
28.3636
21.4665
19.0658
18.1274
17.9279
18.2991
19.2901
21.1339
23.8785
61.8771
27.8003
20.9922
18.6017
17.652
17.424
17.7423
18.6481
20.3097
22.6202
60.2452
27.2924
20.5615
18.174
17.209
16.9501
17.2142
18.0309
19.5103
21.4572
58.6489
26.8392
20.1751
17.7833
16.7984
16.5058
16.7135
17.4362
18.7343
20.3732
57.0801
26.4397
19.8345
17.4309
16.4212
16.0917
16.2405
16.8642
17.9838
19.3576
55.5874
26.1075
19.5513
17.1289
16.0903
15.7216
15.8107
16.3349
17.2854
18.4336
54.1039
25.8266
19.3147
16.8666
15.7939
15.3827
15.4095
15.8321
16.6191
17.5659
52.6216
25.5948
19.1266
16.6463
15.5344
15.077
15.0394
15.3596
15.9901
16.7541
51.1329
25.4097
18.9893
16.4715
15.3151
14.8079
14.7041
14.9235
15.4063
16.0031
49.63
25.2681
18.905
16.3456
15.1399
14.5793
14.4083
14.5301
14.8756
15.3199
48.105
25.1658
18.8754
16.2726
15.0131
14.3958
14.1569
14.1857
14.406
14.7125
46.5495
25.0975
18.9017
16.256
14.9389
14.2617
13.9548
13.8959
14.0037
14.1877
44.9542
25.057
18.9842
16.2993
14.9219
14.1818
13.8065
13.6654
13.6733
13.7504
43.3086
25.0367
19.1221
16.4053
14.9659
14.1602
13.7161
13.4975
13.417
13.4022
41.6
25.0279
19.313
16.5754
15.0743
14.2008
13.687
13.3944
13.2349
13.1414
39.8123
25.0202
19.5527
16.8097
15.2492
14.3061
13.7217
13.3574
13.1256
12.9639
37.9241
25.0009
19.8339
17.1054
15.4904
14.4775
13.8213
13.3862
13.0867
12.8641
35.9053
24.9523
20.1438
17.4543
15.7934
14.7125
13.9843
13.4791
13.1147
12.836
33.7094
24.8455
20.459
17.8394
16.1462
15.0025
14.2044
13.6309
13.2046
12.874
31.2566
24.6024
20.721
18.2197
16.5188
15.3252
14.4651
13.8298
13.3487
12.9768
28.3563
24.1227
20.8433
18.5192
16.85
15.6346
14.7338
14.0556
13.543
13.1479
24.9115
23.2212
20.72
18.6489
17.0637
15.87
14.9696
14.2969
13.782
13.376
20.6843
21.3246
20.0384
18.45
17.0722
15.983
15.1695
14.5432
14.0483
13.647
15.0509
17.6503
18.2352
17.6018
16.7406
15.9769
15.3321
14.7943
14.3468
13.9716
13.2262
12.5211
14.9743
15.8247
15.9307
15.7333
15.4243
15.0878
14.7632
14.4658
13.0175
9.85127
11.8456
13.79
14.9631
15.6016
15.9026
15.9817
15.9501
15.8754
13.7805
14.9302
18.5343
22.64
26.4768
29.1294
31.0932
32.7068
34.0261
35.0986
34.1658
20.0705
20.3105
20.9054
21.3858
21.6962
21.8176
21.7548
21.5085
21.1162
20.618
20.007
19.2831
18.4755
17.6027
16.6708
15.6755
14.6937
13.7495
12.8017
11.8201
10.7694
9.59167
8.16574
7.04203
43.9265
15.929
9.05686
7.69374
7.29982
7.12593
7.01237
6.90601
6.78091
6.62451
6.4612
6.29378
6.12648
5.96449
5.81314
5.68066
5.5896
5.66415
5.89977
6.23125
6.58971
6.88703
7.01906
6.97059
10.9749
47.3646
20.684
10.1141
7.13347
6.12781
5.66568
5.39027
5.18859
5.01435
4.84134
4.66779
4.49801
4.33062
4.16834
4.01811
3.89131
3.80733
3.81358
3.94895
4.21938
4.61575
5.09301
5.56554
6.11367
12.0953
47.1738
24.7406
13.4352
8.52396
6.61376
5.75553
5.26814
4.94186
4.69464
4.48563
4.28706
4.09641
3.90737
3.71849
3.53678
3.37559
3.25366
3.2006
3.24871
3.41658
3.71986
4.15498
4.69054
5.52075
12.5946
45.275
27.7261
16.1571
10.5807
7.72206
6.29915
5.53726
5.05924
4.72717
4.47603
4.26516
4.06252
3.85942
3.64833
3.43465
3.2349
3.07066
2.96799
2.95404
3.0469
3.2672
3.63096
4.15455
5.1402
12.7629
42.707
29.0643
18.3938
12.2672
9.01728
7.10564
5.98852
5.32244
4.88991
4.59149
4.3669
4.17072
3.96703
3.742
3.49839
3.25734
3.04683
2.89629
2.8319
2.86866
3.02589
3.32771
3.82501
4.90834
12.7556
39.8231
29.6053
20.1391
13.846
10.141
7.97843
6.58491
5.6887
5.12754
4.77015
4.52942
4.34051
4.15322
3.93274
3.66367
3.37891
3.11434
2.91127
2.79953
2.79017
2.899
3.15294
3.62615
4.77412
12.6472
37.0633
29.509
21.2393
15.203
11.2134
8.7411
7.18186
6.134
5.4312
4.99516
4.73167
4.55081
4.384
4.18039
3.91094
3.58681
3.25607
2.99076
2.82638
2.77336
2.8422
3.05948
3.51407
4.70412
12.4686
34.5244
28.9795
21.8517
16.2156
12.1675
9.47051
7.71113
6.55595
5.77096
5.25907
4.96406
4.78959
4.64873
4.47452
4.21795
3.86739
3.48044
3.1414
2.90941
2.80589
2.8361
3.02326
3.46351
4.67817
12.2312
32.2221
28.125
22.1455
16.9479
12.9758
10.1533
8.23027
6.94714
6.10107
5.54178
5.21784
5.0489
4.93969
4.81003
4.58853
4.23449
3.79064
3.36653
3.05327
2.89174
2.88001
3.03795
3.46581
4.69198
11.9604
30.1426
27.0913
22.167
17.4267
13.6277
10.7612
8.72427
7.33398
6.41741
5.82825
5.48656
5.32423
5.25147
5.18028
5.02273
4.7044
4.2233
3.69953
3.27336
3.03474
2.97411
3.10469
3.52932
4.78936
11.726
28.2725
25.996
21.9603
17.6835
14.1024
11.2685
9.17346
7.70836
6.73411
6.11864
5.76166
5.61002
5.57481
5.56985
5.50332
5.27496
4.81507
4.20354
3.6222
3.2577
3.12652
3.22412
3.64789
4.94023
11.4947
26.5912
24.897
21.571
17.7867
14.4265
11.6752
9.56935
8.06093
7.0472
6.40791
6.04606
5.90012
5.89613
5.95404
5.99349
5.90837
5.57158
4.94667
4.20926
3.61272
3.35759
3.40062
3.81396
5.1166
11.2473
25.0709
23.815
21.0639
17.7685
14.6321
12.0001
9.91359
8.38579
7.34727
6.69113
6.32671
6.1886
6.20306
6.30747
6.44322
6.52469
6.41439
5.92574
5.11314
4.21784
3.71805
3.64691
4.01964
5.29614
10.9755
23.6852
22.7653
20.4949
17.6484
14.743
12.2379
10.2033
8.67952
7.62885
6.95969
6.59398
6.46139
6.48571
6.61468
6.81106
7.02965
7.17244
7.04054
6.36372
5.32499
4.34737
4.00441
4.26463
5.45893
10.6841
22.411
21.7543
19.8924
17.4309
14.8073
12.4267
10.4622
8.95022
7.8919
7.20787
6.83856
6.71035
6.73974
6.87282
7.08945
7.37432
7.69365
7.93597
7.79253
6.89313
5.48822
4.58923
4.57912
5.6002
10.4051
21.2287
20.7814
19.2706
17.1548
14.8302
12.5828
10.6888
9.20382
8.13998
7.43559
7.05505
6.9271
6.95964
7.09185
7.29967
7.5847
7.9559
8.39498
8.78886
8.72296
7.63988
5.74444
5.07661
5.73204
10.2397
20.1237
19.844
18.6352
16.8387
14.7931
12.7422
10.9135
9.45622
8.38234
7.6513
7.24711
7.10905
7.14149
7.27477
7.47206
7.72683
8.05994
8.49475
9.05337
9.64791
9.89285
8.99589
6.65137
6.12553
10.5483
19.1165
18.9652
18.0116
16.505
14.7128
12.8739
11.1483
9.71459
8.63453
7.86549
7.42222
7.25827
7.28218
7.41912
7.62015
7.86106
8.13904
8.47348
8.91601
9.49552
10.2288
10.9427
11.0743
9.57786
10.9288
18.1666
18.1141
17.3818
16.1385
14.5966
12.9602
11.3943
10.0021
8.90566
8.10054
7.59866
7.38671
7.38341
7.51491
7.72647
7.98214
8.25941
8.54585
8.84193
9.17776
9.58288
10.1044
10.706
11.172
11.3554
17.27
17.2875
16.7438
15.741
14.4428
13.0123
11.5986
10.3175
9.22906
8.38025
7.81486
7.52632
7.46583
7.56578
7.77193
8.04662
8.36306
8.69773
9.02725
9.33211
9.60242
9.88353
10.2484
10.6602
11.0143
16.43
16.4891
16.0999
15.312
14.2426
13.0234
11.7766
10.6066
9.57907
8.73648
8.10476
7.72638
7.57176
7.6002
7.75975
8.01339
8.33654
8.7085
9.10561
9.49519
9.83398
10.0817
10.2737
10.5435
10.8393
15.6543
15.7274
15.4562
14.8533
13.9941
12.9782
11.905
10.8637
9.9197
9.11511
8.4799
8.03352
7.76873
7.68651
7.75592
7.93865
8.209
8.54725
8.93521
9.35312
9.77135
10.1506
10.4518
10.656
10.7306
14.9529
15.0153
14.825
14.3719
13.698
12.8726
11.9724
11.0704
10.2271
9.48375
8.86908
8.40101
8.08116
7.90118
7.85152
7.93257
8.11572
8.37549
8.68706
9.02041
9.34423
9.63114
9.84663
9.95064
9.90725
14.3365
14.369
14.2241
13.8821
13.3615
12.706
11.9704
11.2112
10.4797
9.81484
9.24308
8.78323
8.44192
8.21499
8.09326
8.07176
8.15532
8.32512
8.55851
8.82484
9.0822
9.3078
9.47607
9.56118
9.54019
13.814
13.8043
13.6752
13.4059
13.0016
12.487
11.8983
11.2763
10.6601
10.0834
9.57123
9.14099
8.80272
8.55841
8.40392
8.33508
8.34574
8.43706
8.59351
8.79161
9.00372
9.20415
9.36868
9.47557
9.50758
13.3897
13.3335
13.1992
12.9695
12.6438
12.2357
11.7678
11.2675
10.7619
10.2761
9.83127
9.44389
9.12548
8.88181
8.71385
8.61872
8.59336
8.63142
8.72846
8.87265
9.0448
9.22403
9.38929
9.52116
9.60414
13.0634
12.9621
12.8113
12.5974
12.3186
11.9829
11.6045
11.2003
10.7888
10.3878
10.0128
9.6767
9.38917
9.15668
8.98382
8.87177
8.81877
8.82146
8.87447
8.97068
9.10134
9.25278
9.40922
9.55436
9.67329
12.8302
12.6886
12.5177
12.3065
12.0531
11.7622
11.4423
11.1052
10.7638
10.4304
10.116
9.82969
9.57853
9.36754
9.20108
9.08217
9.0094
8.98048
8.99234
9.04132
9.12519
9.23628
9.36442
9.49809
9.62516
12.6823
12.5061
12.3166
12.1042
11.8647
11.5996
11.3152
11.0203
10.7244
10.4367
10.1653
9.91655
9.69546
9.50552
9.3492
9.22882
9.14512
9.09659
9.08094
9.09574
9.13834
9.20511
9.29158
9.39149
9.49727
12.6116
12.4063
12.2036
11.99
11.7591
11.5105
11.2483
10.979
10.7102
10.4492
10.2024
9.97505
9.77091
9.59246
9.44127
9.31815
9.22338
9.15626
9.11565
9.09965
9.10605
9.13251
9.17644
9.23504
9.30474
12.6127
12.3873
12.174
11.9592
11.7351
11.4993
11.2534
11.0017
10.75
10.504
10.2694
10.0507
9.8512
9.67318
9.51786
9.38576
9.27672
9.19001
9.12408
9.07721
9.0481
9.03512
9.03617
9.0494
9.07272
12.691
12.4471
12.2237
12.007
11.7881
11.5628
11.3305
11.0933
10.8549
10.6197
10.3923
10.1765
9.97543
9.79139
9.62573
9.47909
9.35152
9.24255
9.15116
9.07598
9.0154
8.96752
8.9306
8.90346
8.8848
12.8418
12.5817
12.348
12.1273
11.9105
11.6925
11.4709
11.2459
11.0195
10.7944
10.5739
10.3611
10.1586
9.9686
9.79257
9.63138
9.48543
9.35468
9.23868
9.13664
9.0475
8.97001
8.90281
8.84446
8.79374
13.0569
12.784
12.5403
12.3137
12.0958
11.8809
11.666
11.45
11.2334
11.0176
10.8046
10.5965
10.3954
10.2031
10.0209
9.84974
9.69029
9.54278
9.40717
9.28315
9.17023
9.06769
8.97466
8.89021
8.81361
13.3257
13.0474
12.7978
12.5668
12.347
12.1329
11.9213
11.7108
11.5008
11.292
11.0856
10.8827
10.6849
10.4935
10.3095
10.1339
9.96729
9.81001
9.66221
9.52384
9.39469
9.27438
9.16245
9.05839
8.9619
13.6639
13.3923
13.1456
12.9157
12.6963
12.4832
12.2738
12.0667
11.8616
11.6585
11.4581
11.2612
11.0687
10.8817
10.7009
10.5271
10.3607
10.2021
10.0515
9.90882
9.77401
9.6468
9.52687
9.41386
9.30765
14.2074
13.9695
13.7461
13.5322
13.3252
13.1232
12.9252
12.7305
12.5389
12.3505
12.1656
11.9849
11.8089
11.6384
11.4737
11.3155
11.1639
11.0193
10.8815
10.7506
10.6263
10.5083
10.3964
10.29
10.1891
15.7905
15.7015
15.6095
15.5093
15.4046
15.2976
15.1888
15.0787
14.9678
14.8564
14.7451
14.6344
14.5249
14.4171
14.3113
14.2078
14.1067
14.0082
13.9122
13.8186
13.7271
13.6375
13.5495
13.4627
13.3771
35.9539
36.6901
37.3173
37.83
38.2415
38.5605
38.7943
38.9499
39.0338
39.0527
39.0129
38.9205
38.7815
38.6018
38.3866
38.1413
37.8705
37.5789
37.2704
36.9488
36.6174
36.2792
35.9368
35.5925
35.2486
9.79221
9.33052
15.0982
12.1935
12.7011
12.459
11.2808
11.4108
11.272
11.0498
10.9624
10.241
10.577
10.1152
9.27209
9.69948
9.33998
8.77851
9.4023
9.169
8.82713
9.45662
9.33611
9.14147
9.62703
9.59903
9.51907
9.74945
9.78985
9.79344
9.7268
9.80827
9.86729
9.59306
9.68317
9.76495
9.37378
9.44527
9.51758
9.10137
9.13562
9.17412
8.87423
8.86863
8.86749
8.75386
8.71855
8.68675
8.75106
8.69349
8.63964
8.88168
8.80661
8.73543
9.21841
9.13394
9.0531
10.1037
10.022
9.94301
13.3023
13.228
13.1536
34.9475
34.6497
34.3552
4.39861
6.40054
7.8268
8.85592
9.66606
10.3301
10.9009
11.4034
11.853
12.2601
12.6318
12.9734
13.2891
13.5821
13.8553
14.1108
14.3507
14.5766
14.7901
14.9923
15.1845
15.3678
15.5432
15.7115
15.8737
16.0305
16.1827
16.331
16.4762
16.6188
16.7597
16.8995
17.0387
17.1782
17.3185
17.4603
17.6043
17.7513
17.9019
18.0571
18.2178
18.3849
18.5597
18.7435
18.9378
19.1448
19.3665
19.5941
19.8268
20.064
20.3053
20.5504
20.7992
21.0514
21.3067
21.5644
21.8238
22.0837
22.3428
22.5992
22.8505
23.0935
23.3244
23.5379
23.7276
23.8848
23.9983
24.0531
24.0285
23.8939
23.6046
23.1021
22.385
21.4271
19.9617
18.0047
15.6755
13.1263
10.9043
9.7866
10.5491
6.96085
7.57976
7.89884
8.02536
8.03697
7.9848
7.90602
7.81901
7.73299
7.65217
7.57823
7.51158
7.45198
7.39891
7.35171
7.30976
7.2724
7.23909
7.2093
7.18258
7.15854
7.13683
7.11715
7.09924
7.08288
7.06786
7.05401
7.04118
7.02922
7.01799
7.00739
6.99731
6.98768
6.97849
6.96974
6.96154
6.95406
6.94757
6.94243
6.93912
6.93825
6.94057
6.94694
6.95892
6.97792
7.00536
7.03152
7.05883
7.08799
7.11936
7.15325
7.19001
7.22998
7.27353
7.32106
7.37303
7.42994
7.49232
7.56076
7.63587
7.71824
7.80847
7.90704
8.01428
8.13022
8.25429
8.38497
8.51924
8.65232
8.77586
8.87025
8.91572
8.86986
8.67085
8.2559
7.57242
6.87817
7.13858
11.217
12.4367
7.0022
7.01535
6.97535
6.85499
6.67639
6.47853
6.28694
6.11163
5.95559
5.81858
5.69902
5.59491
5.50425
5.42514
5.3559
5.29508
5.24141
5.19383
5.15143
5.11342
5.07918
5.04814
5.01985
4.99391
4.96999
4.94782
4.92713
4.90774
4.88943
4.87207
4.85549
4.8396
4.8243
4.80957
4.79542
4.78193
4.76919
4.75738
4.7467
4.73743
4.72987
4.72438
4.72137
4.72129
4.72462
4.73182
4.74343
4.75666
4.77295
4.79289
4.81699
4.84577
4.8798
4.9197
4.9662
5.0201
5.08233
5.1539
5.23595
5.32975
5.43666
5.55818
5.69591
5.85156
6.02685
6.2235
6.44301
6.68649
6.95417
7.24443
7.55135
7.86151
8.14521
8.35298
8.40495
8.16668
7.48962
6.7719
10.7559
13.5382
6.83057
6.47591
6.25953
6.02356
5.78314
5.55061
5.34026
5.15592
4.99675
4.86022
4.74343
4.64355
4.55803
4.48461
4.42136
4.36664
4.31907
4.27748
4.24089
4.20849
4.17961
4.15369
4.13025
4.10892
4.08938
4.07135
4.05462
4.039
4.02431
4.01041
3.99717
3.98448
3.97225
3.96045
3.9491
3.93826
3.92801
3.91847
3.90981
3.90219
3.89584
3.891
3.88796
3.88705
3.88862
3.8931
3.90094
3.91224
3.92645
3.94444
3.96678
3.99401
4.02672
4.06554
4.11123
4.16466
4.22683
4.2989
4.38216
4.4781
4.58839
4.71494
4.85995
5.02592
5.21579
5.43292
5.68125
5.9653
6.29014
6.6611
7.0834
7.55981
8.08477
8.63695
9.16267
9.54116
9.50634
8.80255
11.3797
14.2191
6.58649
6.0102
5.70619
5.42663
5.16482
4.92895
4.72302
4.54653
4.39678
4.27031
4.16375
4.074
3.99836
3.93451
3.88046
3.83454
3.79534
3.7617
3.73263
3.70733
3.68513
3.6655
3.64796
3.63216
3.6178
3.60463
3.59245
3.58109
3.57042
3.56028
3.55056
3.54113
3.5319
3.52282
3.51392
3.50526
3.49692
3.48901
3.48167
3.47504
3.46931
3.46466
3.46133
3.45958
3.45972
3.46211
3.46717
3.47535
3.48639
3.50089
3.51935
3.54232
3.57032
3.60396
3.64395
3.69114
3.74656
3.81138
3.88697
3.97489
4.07696
4.19529
4.33239
4.49122
4.67539
4.8893
5.13836
5.42931
5.77056
6.17257
6.64813
7.21195
7.87874
8.65991
9.55673
10.5147
11.3459
11.692
13.0838
14.6187
6.35137
5.62512
5.27516
4.97936
4.71557
4.48512
4.2881
4.12191
3.98273
3.86676
3.77043
3.69057
3.62445
3.5697
3.52435
3.48671
3.45539
3.42921
3.40721
3.3886
3.37272
3.35902
3.34706
3.33649
3.32702
3.31841
3.31048
3.30308
3.29607
3.28934
3.28276
3.27616
3.26941
3.26245
3.25534
3.2482
3.24102
3.23391
3.22698
3.22036
3.2142
3.20866
3.20393
3.20023
3.19783
3.19705
3.19828
3.202
3.20848
3.21804
3.23109
3.24814
3.26968
3.29623
3.32842
3.36707
3.41319
3.46796
3.53274
3.60913
3.69896
3.80442
3.92809
4.07312
4.24339
4.44373
4.68024
4.96073
5.29528
5.69699
6.18294
6.77504
7.50146
8.3973
9.5014
10.8393
12.364
13.8639
15.9465
14.859
6.15003
5.30933
4.93267
4.63254
4.37265
4.14989
3.96197
3.80523
3.6755
3.56875
3.48135
3.41011
3.35228
3.30551
3.2678
3.23749
3.21316
3.19367
3.17804
3.16549
3.15535
3.14711
3.14031
3.13461
3.12973
3.12543
3.12154
3.11791
3.11444
3.11102
3.10749
3.10367
3.09935
3.09432
3.08867
3.08249
3.07588
3.06895
3.06182
3.0546
3.04741
3.04041
3.03375
3.02766
3.02239
3.01823
3.01555
3.01475
3.01627
3.02028
3.02732
3.03805
3.05295
3.07236
3.0968
3.12699
3.16391
3.20872
3.26274
3.32753
3.40488
3.4969
3.60614
3.73571
3.88946
4.07226
4.29034
4.55183
4.8674
5.2513
5.72267
6.30747
7.0411
7.97244
9.16947
10.7232
12.7398
15.3255
19.1273
15.0107
5.98335
5.04817
4.65383
4.35422
4.10006
3.88488
3.70509
3.55648
3.43471
3.33571
3.25583
3.19188
3.14111
3.10117
3.07006
3.04611
3.02792
3.01432
3.00436
2.99723
2.99229
2.989
2.98694
2.98574
2.98513
2.98488
2.98482
2.98482
2.98478
2.9846
2.98414
2.98306
2.98094
2.97761
2.97318
2.96779
2.96163
2.9548
2.94739
2.93952
2.93127
2.92281
2.91429
2.90594
2.89802
2.89085
2.88478
2.8802
2.8775
2.87689
2.87891
2.88411
2.89305
2.90624
2.92398
2.94689
2.97586
3.01201
3.05662
3.11115
3.17728
3.25702
3.35277
3.46747
3.6048
3.76946
3.96752
4.20699
4.4986
4.85692
5.30195
5.86156
6.57518
7.50004
8.72239
10.3786
12.6979
16.1274
21.9529
15.1102
5.84651
4.82963
4.42171
4.12432
3.87612
3.66784
3.495
3.35319
3.23802
3.14542
3.07178
3.01392
2.96909
2.93494
2.90947
2.89101
2.87814
2.8697
2.86471
2.86238
2.86205
2.86319
2.86536
2.86821
2.87146
2.8749
2.87834
2.88164
2.88473
2.88754
2.88995
2.89133
2.89116
2.88944
2.88634
2.88204
2.87666
2.87028
2.863
2.85488
2.84605
2.83663
2.8268
2.81676
2.80678
2.7972
2.78843
2.78091
2.77513
2.77139
2.77004
2.77144
2.77609
2.78452
2.79712
2.81434
2.83705
2.86628
2.90325
2.94931
3.00603
3.07525
3.15919
3.26059
3.38288
3.53047
3.70915
3.92663
4.19344
4.52406
4.93884
5.46673
6.14966
7.05025
8.26642
9.9638
12.459
16.5058
24.6482
15.1772
5.73434
4.64497
4.2251
3.93014
3.68752
3.48526
3.31828
3.18207
3.07229
2.98494
2.91643
2.86361
2.82373
2.79445
2.77377
2.75998
2.75168
2.74768
2.747
2.74884
2.75252
2.75752
2.76339
2.76978
2.77641
2.78304
2.78952
2.7957
2.8015
2.80691
2.81176
2.81538
2.81728
2.81741
2.81592
2.81299
2.80875
2.80328
2.79664
2.78893
2.78024
2.77068
2.76042
2.74966
2.73867
2.72779
2.71746
2.70817
2.70045
2.6947
2.69128
2.69053
2.69276
2.69827
2.70745
2.72076
2.73898
2.76312
2.7943
2.83377
2.88297
2.94358
3.01763
3.10763
3.21675
3.34909
3.51007
3.70705
3.95019
4.2538
4.63835
5.13363
5.78381
6.65623
7.8584
9.57693
12.1886
16.6929
27.2294
15.2246
5.64242
4.48802
4.05662
3.7636
3.52587
3.32875
3.16663
3.03499
2.92958
2.84647
2.78213
2.73343
2.69764
2.67241
2.65573
2.64588
2.64145
2.64122
2.64422
2.64962
2.65674
2.66505
2.67409
2.6835
2.69301
2.70238
2.71144
2.72008
2.72822
2.73587
2.74289
2.74872
2.75277
2.7549
2.75523
2.75396
2.75124
2.74715
2.74176
2.73516
2.72742
2.71865
2.709
2.69864
2.68782
2.67688
2.66624
2.65644
2.64806
2.64156
2.63732
2.63566
2.63684
2.64104
2.64843
2.6595
2.67498
2.6958
2.72297
2.75765
2.80116
2.85502
2.92108
3.00163
3.09957
3.21868
3.36401
3.54251
3.76393
4.0423
4.39814
4.86208
5.48073
6.32688
7.51892
9.2644
11.9867
16.8659
29.7283
15.2644
5.56727
4.3544
3.91145
3.61956
3.38589
3.19304
3.03489
2.90693
2.80502
2.72532
2.66433
2.61895
2.58648
2.56456
2.55116
2.54457
2.54334
2.54628
2.55236
2.56076
2.5708
2.58191
2.59366
2.60566
2.61763
2.62936
2.64068
2.65148
2.66172
2.67142
2.68047
2.68845
2.69471
2.69898
2.70137
2.70207
2.70124
2.69901
2.69544
2.69061
2.6846
2.6775
2.66942
2.66052
2.651
2.64116
2.63141
2.62228
2.61439
2.60831
2.6044
2.60296
2.60423
2.60828
2.61525
2.62555
2.63983
2.65891
2.68371
2.71526
2.75477
2.80362
2.86348
2.93644
3.02513
3.13302
3.26478
3.42691
3.62871
3.88382
4.21274
4.64691
5.23562
6.05822
7.24715
9.03765
11.9061
17.1621
32.2731
15.3117
5.50644
4.24121
3.78663
3.49494
3.2644
3.07499
2.92003
2.79501
2.69587
2.61884
2.56049
2.51774
2.48789
2.46859
2.45782
2.45385
2.45523
2.46075
2.46938
2.4803
2.49279
2.50631
2.52038
2.53465
2.54881
2.56265
2.57602
2.58883
2.60105
2.61271
2.62374
2.63387
2.64242
2.64903
2.65373
2.65671
2.65817
2.65822
2.65697
2.6545
2.65086
2.64616
2.64047
2.63392
2.62667
2.61894
2.61109
2.60365
2.59725
2.59255
2.58992
2.58966
2.59195
2.59686
2.60453
2.6153
2.62969
2.6484
2.67223
2.70213
2.73915
2.78456
2.83985
2.90691
2.98814
3.08668
3.20682
3.35459
3.53875
3.77244
4.07596
4.48138
5.04072
5.84077
7.03158
8.88692
11.9632
17.729
35.0377
15.3899
5.45904
4.14726
3.68101
3.3884
3.15996
2.97316
2.82068
2.69795
2.60096
2.52598
2.46963
2.42886
2.401
2.3837
2.37494
2.37301
2.37644
2.38402
2.39474
2.40775
2.42234
2.43795
2.4541
2.47042
2.48662
2.50246
2.51781
2.53259
2.54677
2.56041
2.57347
2.58576
2.59671
2.60584
2.61311
2.61869
2.62278
2.62551
2.627
2.62734
2.6266
2.62486
2.6222
2.61869
2.61446
2.60965
2.60455
2.59964
2.59557
2.59303
2.59244
2.59412
2.59826
2.60492
2.61424
2.62646
2.64201
2.66147
2.68554
2.71502
2.75086
2.79419
2.84634
2.909
2.98433
3.0752
3.1855
3.32072
3.48898
3.70278
3.98192
4.35873
4.88761
5.66308
6.85573
8.78929
12.1384
18.6379
38.2404
15.5463
5.42722
4.07351
3.59535
3.30038
3.07282
2.88772
2.73705
2.61601
2.52057
2.44707
2.39213
2.35275
2.32628
2.31039
2.30308
2.30265
2.30765
2.31687
2.32929
2.34407
2.36052
2.37803
2.39614
2.41445
2.43265
2.45051
2.46788
2.48468
2.50089
2.51656
2.53171
2.54623
2.55963
2.57143
2.5815
2.58996
2.59697
2.60269
2.60726
2.61076
2.61328
2.61491
2.6157
2.61574
2.61508
2.61382
2.61215
2.61048
2.60942
2.6097
2.6118
2.61612
2.62282
2.63196
2.64365
2.65809
2.6756
2.69667
2.72188
2.75194
2.78765
2.83001
2.8802
2.93972
3.0105
3.09512
3.19712
3.32136
3.47523
3.67033
3.92555
4.27291
4.76831
5.51338
6.70079
8.71384
12.3853
19.8526
42.181
15.8537
5.42476
4.02714
3.53373
3.23347
3.00493
2.8205
2.67089
2.55094
2.45651
2.38393
2.32984
2.2913
2.26571
2.25075
2.24444
2.24508
2.25127
2.26181
2.2757
2.29208
2.31027
2.32966
2.34974
2.3701
2.3904
2.41039
2.4299
2.44882
2.46714
2.48491
2.5022
2.51895
2.53483
2.54935
2.56234
2.57383
2.58397
2.59289
2.60074
2.60762
2.61363
2.61885
2.62337
2.62724
2.6305
2.63321
2.63548
2.63761
2.64017
2.64387
2.6493
2.65688
2.6667
2.67886
2.69343
2.71059
2.73059
2.75383
2.78081
2.81213
2.84848
2.89071
2.93983
2.99717
3.06442
3.14389
3.23893
3.35351
3.4942
3.67147
3.90276
4.21886
4.67562
5.37992
6.54655
8.62606
12.649
21.312
47.2859
16.5056
5.47643
4.01862
3.50162
3.19061
2.95898
2.77455
2.6253
2.50595
2.41206
2.34005
2.28646
2.24841
2.22353
2.2093
2.20376
2.20527
2.21246
2.22418
2.23945
2.25744
2.27742
2.29879
2.32101
2.34362
2.36621
2.38847
2.41021
2.43132
2.45176
2.4716
2.49096
2.50988
2.5281
2.54525
2.5611
2.57562
2.5889
2.60106
2.61223
2.62253
2.63207
2.64094
2.64923
2.65701
2.66431
2.67118
2.67767
2.68399
2.69066
2.69832
2.70761
2.71886
2.73221
2.74771
2.76545
2.78555
2.80824
2.83391
2.86298
2.89596
2.93342
2.97607
3.0248
3.08074
3.14536
3.22064
3.30927
3.41498
3.54339
3.70339
3.91019
4.19217
4.60228
5.24805
6.36304
8.47119
12.857
22.9453
54.1656
17.5895
5.77576
4.09603
3.5277
3.18993
2.94374
2.75373
2.60411
2.48527
2.39175
2.32112
2.26908
2.23223
2.20813
2.19458
2.18978
2.19218
2.20047
2.21352
2.23038
2.25024
2.27239
2.29618
2.32098
2.34619
2.37125
2.39579
2.41961
2.44263
2.46485
2.48642
2.50755
2.52832
2.54855
2.56794
2.58628
2.60348
2.61959
2.63471
2.64895
2.66243
2.67527
2.68756
2.69941
2.7109
2.7221
2.73303
2.74372
2.75435
2.76539
2.77737
2.79076
2.80589
2.82289
2.84181
2.86265
2.88549
2.91072
2.93872
2.96983
3.00444
3.04302
3.08617
3.13464
3.18939
3.2517
3.32326
3.40636
3.50423
3.62154
3.76558
3.94844
4.19213
4.54098
5.09716
6.09083
8.08099
12.6296
24.1148
63.5345
14.0029
6.06278
4.33794
3.65504
3.25883
2.98163
2.77452
2.61591
2.49529
2.40648
2.34021
2.29145
2.25698
2.23461
2.22253
2.21917
2.2231
2.23306
2.24795
2.26685
2.28897
2.31365
2.34023
2.36791
2.39581
2.42311
2.44918
2.47403
2.49779
2.52068
2.54302
2.56503
2.58677
2.60809
2.62878
2.64864
2.66758
2.68563
2.70286
2.71938
2.7353
2.75072
2.76577
2.78054
2.79514
2.80964
2.8241
2.83856
2.85317
2.86837
2.88449
2.90185
2.9207
2.94113
2.96316
2.98657
3.01182
3.03931
3.06932
3.1021
3.13797
3.17733
3.22066
3.2686
3.32198
3.38187
3.4497
3.52741
3.61763
3.72412
3.85248
4.0116
4.21701
4.49929
4.92673
5.67496
7.15079
10.4113
17.8216
31.965
11.3998
6.27554
4.67877
3.87546
3.41406
3.09332
2.86017
2.6855
2.56481
2.48139
2.4233
2.38188
2.35239
2.33368
2.3246
2.32391
2.33034
2.34263
2.35966
2.38049
2.40437
2.43082
2.45931
2.48851
2.51712
2.54381
2.56852
2.59175
2.61384
2.63524
2.65633
2.67737
2.69833
2.71904
2.73929
2.75893
2.77793
2.79631
2.81416
2.83155
2.84859
2.86538
2.88203
2.89864
2.9153
2.9321
2.94914
2.96649
2.98437
3.00278
3.02202
3.04256
3.06441
3.08757
3.11208
3.1381
3.16565
3.195
3.22639
3.26008
3.2964
3.33569
3.3784
3.42507
3.47638
3.53324
3.59684
3.66874
3.75104
3.84661
3.95949
4.09568
4.26488
4.48433
4.79478
5.27316
6.0562
7.33087
9.2548
11.605
9.8498
6.44185
4.989
4.16057
3.65998
3.30577
3.05117
2.88286
2.77457
2.70304
2.65577
2.62315
2.59953
2.58479
2.57825
2.57899
2.58591
2.59788
2.6139
2.63311
2.6548
2.67839
2.70301
2.72697
2.7491
2.76885
2.78712
2.80412
2.82014
2.83562
2.85163
2.86861
2.88584
2.90293
2.91968
2.93609
2.95233
2.96848
2.98457
3.00065
3.01682
3.03316
3.04974
3.06663
3.08391
3.10167
3.12002
3.13908
3.15907
3.17933
3.20019
3.22225
3.2457
3.27046
3.29648
3.32418
3.3534
3.38403
3.41596
3.44957
3.48522
3.5233
3.56423
3.60849
3.65668
3.70953
3.768
3.83332
3.90708
3.99135
4.08892
4.20367
4.3416
4.51592
4.75037
5.07052
5.50589
6.09379
6.86407
7.60468
8.7622
6.52956
5.30785
4.55262
4.06648
3.72156
3.48696
3.35554
3.26716
3.19975
3.14588
3.10231
3.06968
3.04605
3.03005
3.02057
3.01668
3.0176
3.02261
3.03099
3.04197
3.05451
3.06746
3.08019
3.09236
3.10426
3.11593
3.12726
3.13804
3.14827
3.1582
3.16781
3.1768
3.18515
3.19305
3.201
3.21007
3.22021
3.2311
3.24273
3.25523
3.26863
3.28289
3.29803
3.31406
3.33107
3.34921
3.36878
3.38877
3.40905
3.42973
3.4512
3.47395
3.49813
3.52363
3.55039
3.5789
3.6089
3.64025
3.67263
3.70636
3.74186
3.77961
3.82009
3.86382
3.91144
3.96368
4.02148
4.08599
4.15865
4.24132
4.33671
4.4494
4.59017
4.77087
4.99842
5.27958
5.61989
6.00815
6.3715
8.11655
6.72882
5.79942
5.18155
4.79395
4.52584
4.32705
4.17034
4.04209
3.93255
3.84022
3.76531
3.70621
3.65935
3.62231
3.59328
3.57088
3.55404
3.54186
3.53358
3.52841
3.52564
3.52462
3.52525
3.52726
3.53032
3.53459
3.5397
3.54521
3.55052
3.55457
3.55692
3.5582
3.55871
3.5587
3.55847
3.55857
3.55935
3.56113
3.56467
3.57058
3.57854
3.58829
3.59964
3.61253
3.62707
3.64355
3.66103
3.67891
3.69704
3.71547
3.73437
3.75405
3.77487
3.79713
3.82065
3.84537
3.87165
3.89959
3.92894
3.95964
3.99126
4.02447
4.05973
4.0976
4.13864
4.18345
4.23273
4.28727
4.34802
4.41621
4.49388
4.58532
4.69821
4.83721
5.0037
5.19816
5.41873
5.65367
5.87022
8.04616
7.19021
6.52347
6.05869
5.72806
5.47006
5.25972
5.08268
4.92845
4.79369
4.67733
4.57949
4.49671
4.4263
4.36611
4.3144
4.26976
4.23109
4.19745
4.16811
4.14236
4.11969
4.09969
4.08203
4.0666
4.05316
4.04136
4.03103
4.02195
4.01388
4.00654
3.99974
3.99342
3.98756
3.98203
3.97663
3.97073
3.96478
3.95962
3.95609
3.95507
3.95704
3.96147
3.96809
3.97684
3.98802
4.00052
4.0137
4.02731
4.04119
4.05527
4.06965
4.08447
4.09991
4.11632
4.1341
4.1529
4.17287
4.19419
4.21735
4.24211
4.26839
4.29619
4.32511
4.35594
4.38919
4.42544
4.46522
4.50909
4.55766
4.61173
4.67295
4.74538
4.8335
4.93878
5.06077
5.19814
5.34766
5.50093
5.64129
8.3651
7.79127
7.29438
6.90934
6.61147
6.36773
6.16136
5.98296
5.82545
5.68605
5.56198
5.45117
5.35207
5.26318
5.18319
5.11091
5.04525
4.98539
4.93056
4.88012
4.83356
4.79036
4.75012
4.71255
4.67769
4.64558
4.6157
4.5879
4.56206
4.53811
4.51597
4.49556
4.47686
4.45988
4.44461
4.43107
4.4193
4.40928
4.4011
4.39508
4.39109
4.38932
4.38967
4.39217
4.39713
4.4032
4.40996
4.41727
4.42495
4.43286
4.44091
4.44911
4.45753
4.46624
4.4754
4.48539
4.49638
4.50845
4.52163
4.53607
4.55195
4.56992
4.58957
4.61097
4.63415
4.65888
4.68574
4.71527
4.74791
4.78404
4.82427
4.87006
4.92478
4.99064
5.06791
5.15564
5.2521
5.35432
5.45664
5.54992
8.85466
8.49414
8.11967
7.77233
7.47832
7.23199
7.0255
6.84699
6.69035
6.54931
6.42011
6.30072
6.19026
6.08755
5.992
5.90311
5.8202
5.74273
5.67016
5.60192
5.53754
5.47659
5.41873
5.36369
5.31138
5.26221
5.21613
5.1729
5.13245