/*--------------------------------*- C++ -*----------------------------------*\
| =========                 |                                                 |
| \\      /  F ield         | OpenFOAM: The Open Source CFD Toolbox           |
|  \\    /   O peration     | Version:  v2012                                 |
|   \\  /    A nd           | Website:  www.openfoam.com                      |
|    \\/     M anipulation  |                                                 |
\*---------------------------------------------------------------------------*/
FoamFile
{
    version     2.0;
    format      ascii;
    class       volScalarField;
    location    "642";
    object      p;
}
// * * * * * * * * * * * * * * * * * * * * * * * * * * * * * * * * * * * * * //

dimensions      [0 2 -2 0 0 0 0];


internalField   nonuniform List<scalar> 
6532
(
0.403099
0.402461
0.402117
0.401971
0.401909
0.401909
0.401971
0.402116
0.402461
0.403098
0.402386
0.402205
0.402029
0.401919
0.401869
0.401868
0.401919
0.402028
0.402204
0.402386
0.401895
0.40191
0.40184
0.401764
0.401728
0.401728
0.401764
0.401839
0.401909
0.401895
0.401597
0.401655
0.401618
0.401563
0.401537
0.401537
0.401562
0.401617
0.401653
0.401596
0.401358
0.40142
0.401396
0.401351
0.40133
0.40133
0.40135
0.401394
0.401418
0.401356
0.401128
0.401187
0.401168
0.401132
0.401114
0.401113
0.40113
0.401165
0.401184
0.401126
0.400904
0.400955
0.400936
0.400904
0.400889
0.400888
0.400901
0.400932
0.40095
0.400899
0.400683
0.400727
0.400706
0.400676
0.400661
0.40066
0.400672
0.4007
0.40072
0.400676
0.400465
0.400501
0.400479
0.400449
0.400435
0.400432
0.400443
0.400469
0.40049
0.400454
0.400247
0.400277
0.400253
0.400224
0.400208
0.400205
0.400214
0.400239
0.40026
0.40023
0.40003
0.400055
0.400029
0.4
0.399983
0.399978
0.399986
0.400008
0.40003
0.400005
0.399815
0.399836
0.399808
0.399778
0.399759
0.399751
0.399756
0.399776
0.399797
0.399777
0.399603
0.39962
0.399591
0.399558
0.399535
0.399524
0.399525
0.399541
0.399562
0.399545
0.399396
0.39941
0.399378
0.399341
0.399313
0.399295
0.399291
0.399304
0.399323
0.399309
0.399198
0.399209
0.399172
0.399128
0.399091
0.399064
0.399052
0.399059
0.399078
0.399067
0.399013
0.39902
0.398977
0.398922
0.39887
0.398828
0.398804
0.398805
0.398825
0.398818
0.398848
0.398851
0.398798
0.398725
0.398649
0.398583
0.398539
0.398531
0.398558
0.398564
0.398714
0.398711
0.398642
0.398543
0.398433
0.398326
0.398246
0.398224
0.398272
0.398311
0.398627
0.398616
0.398525
0.398385
0.39822
0.398045
0.397893
0.397824
0.397912
0.398127
0.398609
0.398589
0.398469
0.398273
0.398025
0.397744
0.397464
0.397317
0.397493
0.398147
0.398689
0.398662
0.398507
0.398238
0.397873
0.397418
0.396862
0.396283
0.395587
0.391497
0.398913
0.398884
0.398693
0.398348
0.397866
0.39725
0.396424
0.395258
0.394664
0.396707
0.399331
0.399307
0.399086
0.398672
0.398085
0.397349
0.396425
0.394992
0.393184
0.39491
0.399993
0.399978
0.399731
0.399251
0.398558
0.397684
0.396632
0.395055
0.39228
0.392739
0.400943
0.400941
0.400668
0.400119
0.399316
0.398288
0.397067
0.395451
0.392436
0.392065
0.402234
0.402246
0.401943
0.401316
0.400395
0.399208
0.397797
0.39608
0.392912
0.391526
0.40392
0.403947
0.403605
0.402887
0.401823
0.40045
0.398801
0.396902
0.393673
0.391072
0.406066
0.406106
0.405716
0.404882
0.403641
0.402031
0.400075
0.397842
0.394467
0.390881
0.408747
0.408795
0.408349
0.407373
0.405914
0.404015
0.401685
0.398972
0.395247
0.391246
0.412062
0.412124
0.411598
0.410451
0.408736
0.406502
0.403766
0.400561
0.396425
0.392104
0.416113
0.416191
0.415562
0.414217
0.412209
0.409589
0.406399
0.402683
0.398197
0.393441
0.421006
0.421091
0.420351
0.418781
0.416431
0.413362
0.409633
0.405322
0.40041
0.395122
0.426874
0.426964
0.426097
0.424266
0.42152
0.417926
0.413559
0.408537
0.402985
0.397073
0.43387
0.433965
0.432951
0.43082
0.427618
0.42342
0.418311
0.412444
0.406056
0.399369
0.442159
0.442258
0.441077
0.438607
0.434891
0.430007
0.424054
0.417207
0.40979
0.40213
0.451909
0.452014
0.45065
0.447809
0.443526
0.437881
0.430979
0.423022
0.414389
0.405543
0.463293
0.463413
0.461855
0.458617
0.453726
0.447257
0.439323
0.43014
0.420134
0.409897
0.47647
0.476628
0.474867
0.471217
0.465693
0.458364
0.449343
0.438857
0.427363
0.415562
0.491396
0.491553
0.489566
0.485506
0.47936
0.47118
0.461078
0.449285
0.43627
0.422812
0.508012
0.508136
0.50593
0.501476
0.494736
0.485746
0.474614
0.461563
0.447066
0.431938
0.526511
0.526646
0.524245
0.519423
0.512128
0.502386
0.490296
0.476072
0.460171
0.443409
0.546969
0.547114
0.544524
0.539362
0.53157
0.521159
0.508221
0.492956
0.475795
0.457514
0.569368
0.569504
0.566719
0.561242
0.553015
0.542035
0.528387
0.512256
0.494034
0.474434
0.593571
0.593673
0.59068
0.584906
0.576307
0.564863
0.550661
0.533868
0.514832
0.494184
0.619349
0.619386
0.616163
0.6101
0.601181
0.589379
0.574781
0.557544
0.537967
0.516593
0.6464
0.64633
0.64284
0.636477
0.627279
0.615212
0.600368
0.582898
0.563057
0.541297
0.674343
0.674116
0.670305
0.663613
0.654156
0.6419
0.626943
0.60943
0.589582
0.567764
0.702717
0.702273
0.69807
0.691003
0.681294
0.668911
0.653953
0.636564
0.616928
0.595342
0.730978
0.730247
0.725572
0.718077
0.708122
0.695669
0.680813
0.663687
0.644448
0.623326
0.758486
0.757395
0.752169
0.74421
0.734034
0.721587
0.706938
0.690208
0.671517
0.651039
0.784479
0.782948
0.777127
0.768727
0.758414
0.746093
0.731788
0.715592
0.697585
0.677887
0.80801
0.805963
0.799632
0.790943
0.78067
0.768668
0.754897
0.7394
0.722214
0.703406
0.827869
0.825323
0.818777
0.810152
0.80025
0.788875
0.775898
0.761308
0.745091
0.727271
0.842017
0.840196
0.83407
0.825871
0.816755
0.806413
0.794559
0.781113
0.766027
0.749286
0.848794
0.848718
0.844478
0.837668
0.829983
0.821168
0.810798
0.798744
0.784941
0.769352
0.850565
0.851245
0.849562
0.845343
0.839921
0.833166
0.824639
0.814194
0.80178
0.787364
0.850733
0.851037
0.85087
0.849457
0.846836
0.842581
0.836228
0.827594
0.816639
0.803379
0.850704
0.850265
0.850459
0.851141
0.851211
0.84958
0.84558
0.838883
0.829434
0.817289
0.851357
0.850455
0.850524
0.85214
0.854251
0.854937
0.852954
0.847866
0.839721
0.828508
0.852475
0.851964
0.852344
0.854411
0.857446
0.85977
0.859624
0.85612
0.849622
0.839906
0.370616
0.373527
0.375335
0.377069
0.378574
0.379723
0.3805
0.38081
0.380674
0.380161
0.379259
0.378105
0.376851
0.375529
0.374259
0.373193
0.372442
0.372066
0.372117
0.372601
0.373431
0.374415
0.375273
0.375757
0.375926
0.378858
0.375215
0.374695
0.37556
0.376652
0.377634
0.378391
0.378794
0.378719
0.378177
0.377276
0.376176
0.375022
0.373889
0.37286
0.372025
0.371457
0.371222
0.37136
0.371877
0.372718
0.373761
0.374814
0.375578
0.375941
0.379352
0.375793
0.374633
0.374824
0.375469
0.376124
0.37662
0.376843
0.376721
0.376257
0.375511
0.37459
0.373612
0.372662
0.371821
0.371158
0.370731
0.370577
0.370715
0.371145
0.371836
0.372717
0.373681
0.374573
0.375219
0.378069
0.374879
0.373773
0.373879
0.374507
0.375131
0.375568
0.375728
0.375572
0.375111
0.374399
0.373523
0.372587
0.371684
0.370897
0.37029
0.369907
0.369772
0.369892
0.370259
0.37084
0.371569
0.372362
0.373155
0.373883
0.378638
0.37418
0.372539
0.372603
0.37338
0.374119
0.374647
0.374854
0.374721
0.374273
0.373569
0.372698
0.371764
0.370867
0.37009
0.369494
0.369115
0.368966
0.369048
0.369347
0.369832
0.370446
0.371112
0.37178
0.372485
0.380043
0.37438
0.371819
0.371681
0.372383
0.373175
0.373781
0.374061
0.373977
0.373559
0.37287
0.372004
0.371069
0.370169
0.369391
0.368794
0.368409
0.368243
0.368285
0.36852
0.368915
0.369423
0.369977
0.370514
0.371104
0.380836
0.375023
0.372007
0.371472
0.371856
0.372528
0.373111
0.373424
0.373379
0.37299
0.372317
0.371456
0.370517
0.369611
0.368828
0.368226
0.367833
0.367651
0.367658
0.367836
0.36815
0.368557
0.368999
0.369406
0.369863
0.38139
0.37607
0.373004
0.371945
0.37191
0.372333
0.372802
0.373063
0.373018
0.37264
0.371972
0.371105
0.370153
0.369232
0.368437
0.367826
0.367422
0.367221
0.367199
0.367328
0.367573
0.367891
0.368231
0.368528
0.368872
0.382598
0.377563
0.374464
0.373001
0.372604
0.372743
0.37301
0.37314
0.373013
0.372597
0.371908
0.371012
0.370027
0.369075
0.368252
0.367618
0.367195
0.366973
0.366923
0.367012
0.367199
0.367444
0.3677
0.367907
0.368154
0.384365
0.37948
0.376329
0.374592
0.373885
0.373729
0.373738
0.373674
0.373413
0.372909
0.372174
0.371235
0.370188
0.369176
0.368302
0.367628
0.367169
0.366914
0.366834
0.366888
0.367029
0.367216
0.367401
0.367536
0.367701
0.386391
0.381619
0.378451
0.376536
0.375568
0.375138
0.374912
0.374651
0.374235
0.373599
0.372761
0.371789
0.370669
0.369567
0.368614
0.367874
0.367354
0.367047
0.366929
0.366951
0.367058
0.367199
0.367327
0.367402
0.367499
0.388488
0.383807
0.380635
0.378614
0.377457
0.376813
0.376379
0.375944
0.3754
0.374663
0.373705
0.372612
0.371461
0.370272
0.369219
0.368391
0.367784
0.367386
0.367207
0.367194
0.367273
0.367381
0.367465
0.367494
0.367535
0.390578
0.385901
0.38269
0.380594
0.379311
0.378511
0.377918
0.377352
0.376713
0.37594
0.374957
0.373749
0.372506
0.371287
0.370144
0.369199
0.368472
0.367951
0.367681
0.367624
0.367675
0.367753
0.367796
0.367786
0.367786
0.392693
0.387834
0.384488
0.382292
0.380905
0.379996
0.379301
0.378659
0.377975
0.377196
0.376269
0.375134
0.373818
0.372537
0.371359
0.370286
0.369398
0.368749
0.368356
0.36822
0.368229
0.368276
0.368285
0.368241
0.368202
0.394936
0.389647
0.386001
0.383614
0.382096
0.381091
0.380331
0.379658
0.378984
0.378258
0.377432
0.376456
0.375281
0.373962
0.372741
0.371646
0.370593
0.369766
0.369235
0.368971
0.368888
0.368887
0.36887
0.368801
0.368721
0.397501
0.3915
0.387329
0.38459
0.382849
0.38171
0.380884
0.380199
0.379569
0.37894
0.378267
0.377498
0.376579
0.375464
0.374257
0.373166
0.372088
0.371038
0.370299
0.369895
0.369676
0.369564
0.369504
0.369414
0.36927
0.400692
0.393675
0.388697
0.385382
0.383261
0.381894
0.380954
0.380239
0.379647
0.379125
0.378633
0.378113
0.377504
0.376759
0.375838
0.374837
0.373837
0.372694
0.371626
0.37094
0.370621
0.370385
0.370184
0.370007
0.369742
0.404911
0.396564
0.390465
0.386295
0.383573
0.38182
0.380662
0.379855
0.379263
0.378826
0.378506
0.378251
0.377989
0.377658
0.377214
0.376701
0.375977
0.374953
0.373778
0.372497
0.371614
0.371281
0.37111
0.37071
0.369979
0.410513
0.400571
0.393045
0.387722
0.384137
0.381792
0.380264
0.379259
0.378598
0.378191
0.378003
0.377984
0.378067
0.378186
0.378291
0.378327
0.378227
0.377898
0.377062
0.375595
0.373609
0.371981
0.371212
0.370805
0.369366
0.417873
0.406134
0.396907
0.390129
0.385396
0.38221
0.380117
0.378765
0.37792
0.377461
0.377332
0.377493
0.377883
0.378441
0.379119
0.379862
0.380584
0.381127
0.381201
0.380835
0.379345
0.376561
0.373744
0.373223
0.375036
0.427519
0.413821
0.402636
0.394091
0.387887
0.383557
0.380632
0.378723
0.377539
0.376902
0.376733
0.376984
0.377606
0.378551
0.379785
0.38128
0.383001
0.384883
0.386777
0.38847
0.389813
0.390076
0.389995
0.390415
0.3922
0.439839
0.424119
0.410792
0.400199
0.392198
0.386395
0.382333
0.379596
0.377852
0.376872
0.376521
0.376729
0.377451
0.378655
0.380319
0.382428
0.384969
0.387949
0.391384
0.395204
0.39916
0.403039
0.407321
0.412115
0.416766
0.455124
0.43744
0.421896
0.409051
0.39896
0.391351
0.385817
0.38194
0.379358
0.377797
0.377073
0.377071
0.377729
0.379018
0.380941
0.383476
0.386554
0.390107
0.394098
0.398497
0.403213
0.408154
0.413556
0.419489
0.425496
0.473496
0.454039
0.436349
0.421171
0.408778
0.399067
0.391725
0.38637
0.382631
0.3802
0.378843
0.378405
0.378794
0.379984
0.382
0.384756
0.388097
0.391916
0.396124
0.400715
0.405691
0.410942
0.416349
0.421753
0.427062
0.494868
0.473956
0.454351
0.436924
0.422153
0.410131
0.400689
0.393522
0.388282
0.384647
0.38235
0.381188
0.381031
0.381845
0.383658
0.386351
0.389699
0.393565
0.397886
0.402578
0.407528
0.412622
0.417743
0.422723
0.427394
0.518929
0.496976
0.475835
0.456423
0.439375
0.424983
0.413249
0.403989
0.39692
0.391735
0.388151
0.385928
0.384884
0.384981
0.386238
0.388537
0.391641
0.395383
0.399643
0.404273
0.409114
0.414025
0.418866
0.423488
0.42775
0.545152
0.522617
0.500423
0.479453
0.460426
0.443793
0.429737
0.418222
0.409069
0.402027
0.396824
0.393202
0.390934
0.389923
0.390272
0.39192
0.394525
0.397847
0.401756
0.406098
0.410697
0.415375
0.419967
0.424319
0.428302
0.57285
0.550177
0.527446
0.505445
0.484898
0.466354
0.450144
0.436387
0.425035
0.415926
0.408841
0.403536
0.399768
0.397353
0.396402
0.396998
0.398794
0.40141
0.404684
0.408479
0.412612
0.416895
0.421151
0.425219
0.428961
0.601253
0.578821
0.556027
0.533535
0.512011
0.492033
0.474025
0.458236
0.444749
0.433517
0.424402
0.417212
0.411727
0.407723
0.405144
0.404226
0.404859
0.406521
0.408911
0.411885
0.415292
0.418951
0.422681
0.426323
0.429734
0.629604
0.607698
0.585216
0.562698
0.540722
0.519837
0.500503
0.483053
0.467678
0.454443
0.443307
0.434155
0.426824
0.421121
0.416855
0.414107
0.41303
0.413388
0.414711
0.41668
0.419146
0.421955
0.424946
0.427964
0.43087
0.657239
0.636044
0.614127
0.591921
0.569912
0.548593
0.528415
0.509746
0.492849
0.477879
0.464887
0.453843
0.444656
0.437194
0.431304
0.426845
0.423838
0.422316
0.422074
0.422831
0.42426
0.426093
0.428195
0.430432
0.432662
0.683639
0.663257
0.642041
0.620345
0.598577
0.577169
0.55654
0.537062
0.519034
0.502668
0.48809
0.475342
0.464405
0.45521
0.447656
0.441626
0.437005
0.433687
0.431608
0.430651
0.430582
0.431182
0.432289
0.433691
0.43517
0.708444
0.688914
0.668446
0.647337
0.62594
0.604638
0.583816
0.563835
0.545003
0.527566
0.511696
0.497495
0.484999
0.474195
0.465027
0.457416
0.451263
0.446455
0.442848
0.440265
0.438607
0.437776
0.437568
0.437796
0.438304
0.73143
0.712749
0.693008
0.672476
0.651469
0.630339
0.609448
0.589141
0.569729
0.551472
0.534571
0.519166
0.505336
0.493109
0.482469
0.473366
0.465724
0.459447
0.454415
0.450493
0.447552
0.445434
0.443932
0.442943
0.442416
0.752474
0.734601
0.715523
0.695494
0.674819
0.653834
0.632892
0.612332
0.592462
0.573549
0.555811
0.53941
0.524456
0.511007
0.499078
0.488646
0.479656
0.47203
0.465668
0.460454
0.456258
0.452946
0.450377
0.448435
0.447008
0.771424
0.754281
0.735764
0.71614
0.695707
0.674801
0.653777
0.632975
0.612703
0.593234
0.574794
0.557562
0.541665
0.527184
0.514157
0.502581
0.492422
0.483618
0.476086
0.469723
0.464417
0.460048
0.45649
0.453623
0.45133
0.788298
0.771758
0.753643
0.73424
0.713873
0.692909
0.671719
0.650645
0.62999
0.610023
0.590978
0.573041
0.556355
0.541013
0.527069
0.514537
0.503398
0.493606
0.48509
0.477761
0.471519
0.466253
0.461847
0.458188
0.455164
0.802946
0.786832
0.768938
0.749628
0.729256
0.70818
0.686788
0.665435
0.644426
0.624026
0.60447
0.58595
0.568614
0.552569
0.537877
0.524565
0.512625
0.502023
0.492701
0.48458
0.477568
0.471563
0.466458
0.462145
0.458518
0.814606
0.798681
0.780857
0.761517
0.741046
0.719831
0.698237
0.676607
0.655253
0.63445
0.614436
0.595411
0.577531
0.56091
0.545621
0.531698
0.519142
0.507927
0.498002
0.489296
0.481722
0.475183
0.469577
0.464797
0.460732
0.826879
0.81122
0.793488
0.774127
0.753509
0.732026
0.710068
0.687998
0.66614
0.644784
0.624178
0.604531
0.586007
0.56873
0.55278
0.538198
0.524998
0.513165
0.502654
0.493396
0.485309
0.478296
0.472259
0.467095
0.462702
0.366515
0.366573
0.366987
0.374632
0.373079
0.382545
0.395738
0.401776
0.41292
0.421364
0.42618
0.431344
0.430577
0.434546
0.437602
0.431698
0.435442
0.438314
0.431358
0.434619
0.437319
0.431308
0.434194
0.436609
0.431601
0.434255
0.436475
0.432068
0.43457
0.43667
0.43261
0.434953
0.436944
0.433379
0.435469
0.43728
0.434644
0.436342
0.43785
0.436533
0.437736
0.438834
0.43892
0.439547
0.440166
0.442222
0.442197
0.442245
0.446038
0.445351
0.444799
0.449621
0.448322
0.447228
0.45283
0.451008
0.449446
0.455672
0.45341
0.451452
0.457486
0.454904
0.452657
0.45914
0.456247
0.453783
0.462875
0.462826
0.462645
0.462034
0.460703
0.458713
0.456252
0.4535
0.450605
0.447677
0.444787
0.441982
0.43929
0.436725
0.434293
0.431995
0.42983
0.427793
0.425879
0.424083
0.4224
0.420824
0.41935
0.417972
0.416686
0.415487
0.414372
0.413337
0.412378
0.411492
0.410676
0.409928
0.409246
0.408629
0.408076
0.407587
0.407164
0.406809
0.406526
0.406319
0.406194
0.406156
0.406213
0.40638
0.406665
0.407074
0.407617
0.408303
0.409152
0.410179
0.411395
0.41281
0.414434
0.416279
0.418353
0.420669
0.423232
0.42605
0.429124
0.432454
0.436034
0.439847
0.44387
0.448062
0.452368
0.45671
0.460994
0.465084
0.468758
0.471741
0.473858
0.475186
0.475742
0.475365
0.474245
0.472782
0.471493
0.470879
0.470955
0.471321
0.463007
0.462839
0.462529
0.461616
0.460028
0.457925
0.455447
0.452745
0.449938
0.447113
0.444329
0.441624
0.439022
0.436535
0.43417
0.431928
0.42981
0.427811
0.425928
0.424158
0.422495
0.420935
0.419473
0.418105
0.416826
0.415632
0.41452
0.413486
0.412527
0.41164
0.410822
0.41007
0.409383
0.408758
0.408196
0.407695
0.407257
0.406883
0.406578
0.406345
0.40619
0.40612
0.406142
0.406259
0.406484
0.406829
0.407305
0.407927
0.408701
0.409637
0.41075
0.412051
0.413553
0.415263
0.417192
0.419345
0.42173
0.42435
0.427208
0.430302
0.433624
0.437161
0.440889
0.444775
0.448767
0.452802
0.456796
0.460641
0.464193
0.467282
0.469765
0.471586
0.472687
0.472965
0.47241
0.471303
0.470233
0.469716
0.469914
0.470569
0.463057
0.462404
0.461492
0.460098
0.458261
0.456095
0.453693
0.451149
0.448536
0.445912
0.44332
0.440787
0.438336
0.435979
0.433724
0.431575
0.429534
0.427601
0.425774
0.42405
0.422426
0.420898
0.419463
0.418118
0.416858
0.41568
0.414581
0.413557
0.412607
0.411727
0.410914
0.410166
0.40948
0.408853
0.408286
0.407777
0.407327
0.406937
0.406611
0.406352
0.406166
0.406059
0.406037
0.406108
0.406281
0.406566
0.406974
0.407518
0.408209
0.409059
0.410078
0.411279
0.41267
0.41426
0.416056
0.418066
0.420293
0.422742
0.425414
0.428308
0.431417
0.434729
0.438224
0.441873
0.445632
0.449447
0.453246
0.456943
0.460431
0.463592
0.466299
0.468445
0.469961
0.470812
0.470987
0.470602
0.469984
0.469525
0.46951
0.469901
0.461955
0.460929
0.459637
0.45801
0.456096
0.453968
0.451692
0.449323
0.446907
0.444481
0.442075
0.439713
0.437415
0.435192
0.433055
0.431008
0.429056
0.4272
0.425439
0.423772
0.422198
0.420713
0.419315
0.418001
0.416767
0.415612
0.414532
0.413525
0.412588
0.411718
0.410915
0.410173
0.40949
0.408864
0.408291
0.407772
0.407307
0.406896
0.406543
0.406251
0.406025
0.405871
0.405795
0.405805
0.40591
0.406119
0.406443
0.406896
0.407488
0.408231
0.409138
0.410219
0.411483
0.412936
0.414586
0.416436
0.418491
0.420754
0.423228
0.425912
0.428802
0.431889
0.435158
0.438583
0.442133
0.445761
0.449411
0.453013
0.456485
0.459738
0.46267
0.465183
0.467214
0.468717
0.469652
0.470054
0.470086
0.469931
0.469786
0.469806
0.459806
0.458614
0.457256
0.455631
0.453768
0.451738
0.449599
0.447389
0.445141
0.442885
0.440644
0.438438
0.436282
0.43419
0.432171
0.430231
0.428373
0.426601
0.424915
0.423313
0.421797
0.420362
0.419008
0.417732
0.416532
0.415405
0.414349
0.413363
0.412444
0.411591
0.410801
0.41007
0.409395
0.408771
0.408195
0.407667
0.407188
0.406756
0.406374
0.406047
0.405779
0.405576
0.405444
0.405389
0.405421
0.405549
0.405784
0.40614
0.40663
0.407268
0.408063
0.409025
0.410163
0.411482
0.412987
0.414679
0.416563
0.41864
0.420914
0.423385
0.426051
0.428906
0.431939
0.43513
0.438455
0.441879
0.445357
0.448835
0.452252
0.455539
0.458623
0.461442
0.463945
0.46608
0.467782
0.469024
0.469874
0.470305
0.470173
0.469862
0.457153
0.455879
0.454568
0.453027
0.451274
0.449377
0.447384
0.445329
0.44324
0.441142
0.439055
0.436996
0.43498
0.433017
0.431117
0.429285
0.427526
0.425843
0.424236
0.422707
0.421253
0.419875
0.41857
0.417338
0.416175
0.415081
0.414054
0.413092
0.412195
0.411361
0.410589
0.409875
0.409215
0.408599
0.408023
0.407491
0.406997
0.40654
0.406124
0.405757
0.405442
0.405184
0.40499
0.404865
0.404817
0.404857
0.404995
0.405248
0.405635
0.40617
0.406856
0.407702
0.40872
0.409912
0.411277
0.412816
0.414531
0.416424
0.4185
0.42076
0.423204
0.425829
0.428627
0.431587
0.43469
0.437909
0.441212
0.444559
0.447905
0.4512
0.454392
0.457435
0.46029
0.462912
0.465241
0.467229
0.46888
0.470002
0.470059
0.469577
0.454125
0.452906
0.451711
0.450288
0.448674
0.446926
0.445086
0.443186
0.441252
0.439307
0.437368
0.435452
0.433571
0.431735
0.429953
0.42823
0.426571
0.424978
0.423454
0.421999
0.420611
0.419292
0.41804
0.416853
0.41573
0.414671
0.413674
0.412739
0.411865
0.411054
0.410307
0.409624
0.408989
0.408379
0.407786
0.407222
0.406695
0.406205
0.405757
0.405352
0.404996
0.404693
0.404447
0.404265
0.404152
0.404118
0.404173
0.40433
0.404602
0.405006
0.405562
0.406296
0.407213
0.408299
0.409542
0.410939
0.412495
0.414215
0.416102
0.418162
0.420395
0.422803
0.425381
0.428122
0.431013
0.434036
0.437168
0.44038
0.443639
0.446909
0.45015
0.453328
0.45641
0.459362
0.462131
0.464661
0.46693
0.468721
0.469267
0.468755
0.450929
0.449843
0.448794
0.44751
0.446048
0.444454
0.442768
0.441022
0.43924
0.437443
0.435648
0.433869
0.432119
0.430406
0.428739
0.427124
0.425563
0.424061
0.422619
0.421237
0.419916
0.418656
0.417456
0.416315
0.415232
0.414207
0.41324
0.41233
0.411478
0.41069
0.409973
0.409311
0.40867
0.408036
0.407417
0.406821
0.406262
0.405747
0.405275
0.404845
0.404463
0.404131
0.403853
0.403634
0.403479
0.403395
0.403391
0.403474
0.403653
0.403942
0.40437
0.404963
0.405742
0.406718
0.407857
0.409129
0.410539
0.412097
0.413811
0.415687
0.417728
0.419937
0.422314
0.424854
0.427551
0.430392
0.433362
0.436439
0.4396
0.442815
0.446054
0.449287
0.452483
0.455611
0.458623
0.46146
0.464087
0.466362
0.467527
0.467169
0.447774
0.446827
0.445915
0.44477
0.44346
0.442021
0.440489
0.438895
0.437262
0.435609
0.433954
0.432309
0.430685
0.429091
0.427535
0.426023
0.424557
0.423142
0.421779
0.420469
0.419212
0.418009
0.416859
0.415762
0.414717
0.413723
0.412781
0.411891
0.411054
0.410278
0.409572
0.408903
0.408231
0.407572
0.406944
0.406347
0.405784
0.405259
0.404772
0.404327
0.403925
0.403571
0.403267
0.403017
0.402827
0.402702
0.402649
0.402678
0.4028
0.403028
0.403374
0.403847
0.404476
0.405304
0.406315
0.407461
0.408733
0.410142
0.411698
0.413408
0.415277
0.417309
0.419507
0.421869
0.424392
0.427069
0.429887
0.432832
0.435885
0.439022
0.442215
0.445436
0.448652
0.451827
0.454914
0.457845
0.460568
0.462994
0.464536
0.464499
0.444756
0.443935
0.44314
0.442129
0.440968
0.439682
0.438305
0.436862
0.435376
0.433865
0.432345
0.430828
0.429325
0.427845
0.426395
0.424979
0.423604
0.42227
0.420981
0.419738
0.418541
0.417391
0.416287
0.415229
0.414217
0.413251
0.41233
0.411454
0.410624
0.409844
0.409122
0.408436
0.407763
0.407113
0.406488
0.40589
0.405324
0.404792
0.404297
0.40384
0.403424
0.403053
0.402728
0.402455
0.402236
0.402076
0.401983
0.401965
0.402034
0.402204
0.402489
0.402896
0.403437
0.404133
0.404993
0.405997
0.40713
0.408399
0.409812
0.411375
0.413095
0.414975
0.417018
0.419227
0.421598
0.424129
0.42681
0.429631
0.432573
0.435615
0.438732
0.44189
0.445054
0.44818
0.451215
0.454085
0.456722
0.459043
0.460615
0.460747
0.441895
0.441188
0.440506
0.43963
0.438619
0.43749
0.436268
0.434978
0.433638
0.432266
0.430877
0.429482
0.428094
0.42672
0.425367
0.424041
0.422747
0.421488
0.420266
0.419083
0.41794
0.416836
0.415773
0.41475
0.413766
0.412823
0.411918
0.411053
0.410225
0.409436
0.408692
0.407998
0.407338
0.406696
0.406074
0.405476
0.404908
0.404372
0.40387
0.403405
0.402979
0.402594
0.402254
0.401961
0.40172
0.401533
0.401406
0.401349
0.401373
0.401494
0.401723
0.402072
0.402552
0.403163
0.403893
0.40475
0.40575
0.406893
0.408182
0.409621
0.411215
0.412968
0.414884
0.416965
0.419211
0.421619
0.424182
0.426891
0.429728
0.432673
0.435696
0.438762
0.441827
0.444839
0.447735
0.450438
0.452868
0.454942
0.456332
0.456431
0.439178
0.438585
0.438023
0.437296
0.436449
0.435487
0.434428
0.433294
0.4321
0.430864
0.4296
0.428321
0.427038
0.42576
0.424495
0.42325
0.422028
0.420834
0.41967
0.418538
0.41744
0.416376
0.415346
0.414351
0.413391
0.412465
0.411573
0.410715
0.40989
0.409095
0.408335
0.407634
0.406979
0.406342
0.405721
0.405123
0.404553
0.404014
0.403507
0.403036
0.402601
0.402206
0.401853
0.401546
0.401286
0.401078
0.400925
0.400836
0.400824
0.400903
0.40109
0.401395
0.401824
0.402344
0.402954
0.403698
0.404592
0.405634
0.406823
0.408163
0.409657
0.411311
0.413128
0.415111
0.417259
0.419572
0.422042
0.424659
0.427409
0.430265
0.433198
0.436165
0.439112
0.441978
0.444686
0.447151
0.449281
0.45098
0.452065
0.452008
0.436562
0.436096
0.435683
0.435138
0.434485
0.433712
0.432831
0.431858
0.430811
0.429707
0.428562
0.427388
0.4262
0.425007
0.423818
0.422639
0.421477
0.420336
0.41922
0.418129
0.417066
0.416033
0.415029
0.414056
0.413112
0.412199
0.411316
0.410463
0.409639
0.408842
0.408074
0.407363
0.406704
0.406067
0.405446
0.404847
0.404274
0.403731
0.403219
0.402741
0.402299
0.401895
0.401532
0.401213
0.400939
0.400714
0.40054
0.400426
0.400384
0.400432
0.400589
0.400862
0.401227
0.401649
0.402167
0.402837
0.403658
0.404625
0.40574
0.407008
0.408431
0.410016
0.411764
0.41368
0.415762
0.418011
0.420419
0.422976
0.425665
0.428461
0.431325
0.434211
0.437056
0.439783
0.442306
0.444528
0.446323
0.447603
0.448418
0.447994
0.433953
0.433655
0.433452
0.433157
0.432751
0.432203
0.43152
0.43072
0.42982
0.428842
0.427804
0.426724
0.425616
0.424492
0.423363
0.422237
0.421121
0.42002
0.418937
0.417875
0.416837
0.415825
0.414838
0.413878
0.412945
0.412039
0.41116
0.410309
0.409485
0.408687
0.407916
0.407193
0.406522
0.405879
0.405256
0.404654
0.404077
0.403529
0.403011
0.402527
0.402078
0.401666
0.401294
0.400965
0.400679
0.400441
0.400252
0.400118
0.400053
0.400079
0.400214
0.400444
0.400727
0.401077
0.401553
0.402178
0.40295
0.403868
0.404937
0.406159
0.40754
0.409085
0.410796
0.412677
0.414729
0.41695
0.419334
0.42187
0.42454
0.427314
0.430154
0.433004
0.435791
0.438428
0.440822
0.442859
0.44438
0.445395
0.446279
0.445298
0.431155
0.431113
0.43126
0.431342
0.431274
0.431007
0.43055
0.429929
0.429174
0.428311
0.427366
0.426361
0.425314
0.424241
0.423153
0.422062
0.420975
0.419897
0.418834
0.417788
0.416763
0.41576
0.41478
0.413825
0.412895
0.41199
0.411111
0.410259
0.409433
0.408633
0.40786
0.407124
0.406434
0.405781
0.405153
0.404547
0.403965
0.403411
0.402888
0.402397
0.40194
0.401521
0.40114
0.400802
0.400507
0.400258
0.400057
0.399908
0.399826
0.399836
0.399947
0.400117
0.400336
0.400659
0.40112
0.401723
0.40247
0.403364
0.404411
0.405615
0.406981
0.408515
0.410221
0.412102
0.41416
0.416393
0.418796
0.421358
0.424059
0.426869
0.429744
0.43262
0.435412
0.438015
0.440312
0.44214
0.44333
0.44427
0.445644
0.443589
0.427752
0.428247
0.42902
0.429713
0.430127
0.430202
0.429986
0.429545
0.428921
0.428153
0.427278
0.426324
0.425314
0.424268
0.4232
0.422123
0.421045
0.419974
0.418915
0.417871
0.416846
0.415842
0.414859
0.4139
0.412965
0.412055
0.411171
0.410313
0.409481
0.408677
0.4079
0.407149
0.406438
0.405771
0.405136
0.404525
0.403938
0.403377
0.402847
0.402349
0.401885
0.401458
0.40107
0.400724
0.400421
0.400164
0.399955
0.399795
0.399702
0.399696
0.399765
0.399885
0.400088
0.400414
0.400875
0.401474
0.402216
0.403109
0.404157
0.405366
0.406744
0.408296
0.410028
0.411943
0.414044
0.416331
0.4188
0.421441
0.424234
0.427151
0.430144
0.433139
0.436034
0.438684
0.440886
0.442316
0.44273
0.443036
0.443434
0.437142
0.422624
0.424523
0.426695
0.428339
0.429379
0.429882
0.429931
0.429638
0.429107
0.428398
0.427559
0.426624
0.425622
0.424574
0.423501
0.422415
0.421328
0.420245
0.419174
0.418118
0.41708
0.416063
0.415068
0.414097
0.413151
0.41223
0.411335
0.410467
0.409627
0.408815
0.408027
0.407258
0.406527
0.405846
0.405202
0.404584
0.40399
0.403424
0.402887
0.402383
0.401912
0.401479
0.401084
0.400731
0.400422
0.40016
0.399944
0.399779
0.399674
0.399644
0.39968
0.399788
0.400005
0.400346
0.400819
0.401429
0.402186
0.403096
0.404166
0.405404
0.406817
0.408412
0.410197
0.412176
0.414355
0.416736
0.419318
0.422093
0.425049
0.428161
0.431386
0.434657
0.437867
0.440845
0.443301
0.444724
0.444738
0.443744
0.438134
0.418768
0.414052
0.420364
0.424822
0.427608
0.429282
0.430171
0.430461
0.430285
0.429779
0.429063
0.428213
0.427258
0.426227
0.425148
0.424042
0.422925
0.421807
0.420696
0.419598
0.418516
0.417454
0.416415
0.415399
0.414409
0.413445
0.412509
0.411601
0.410721
0.40987
0.409043
0.40823
0.40744
0.406694
0.406
0.405346
0.404721
0.404122
0.40355
0.403008
0.402499
0.402023
0.401585
0.401186
0.400828
0.400516
0.40025
0.400033
0.399867
0.399752
0.399695
0.399718
0.399846
0.400089
0.400454
0.400951
0.401589
0.402375
0.403319
0.404429
0.405714
0.407183
0.408843
0.410705
0.412776
0.415063
0.417571
0.420305
0.423264
0.426443
0.429833
0.433412
0.437143
0.440968
0.444793
0.448429
0.451506
0.454039
0.455206
0.44278
0.406654
0.394142
0.415316
0.423541
0.427944
0.430225
0.431307
0.431646
0.431485
0.430952
0.43016
0.429221
0.428193
0.427092
0.425948
0.424784
0.423614
0.422448
0.421294
0.420156
0.419038
0.417943
0.416873
0.41583
0.414815
0.413831
0.412879
0.41196
0.411067
0.410192
0.409333
0.408494
0.407691
0.406936
0.406231
0.405566
0.404934
0.40433
0.403755
0.40321
0.402697
0.40222
0.401779
0.401379
0.401021
0.400708
0.400444
0.400231
0.40007
0.399955
0.399884
0.399899
0.400048
0.400327
0.400729
0.401263
0.40194
0.40277
0.403762
0.404925
0.406271
0.407809
0.409551
0.411505
0.413684
0.416096
0.418751
0.421657
0.424822
0.428252
0.431952
0.435927
0.440181
0.444732
0.44965
0.454974
0.46065
0.467181
0.474365
0.47622
0.478202
0.4042
0.41912
0.426165
0.43048
0.432566
0.433432
0.433563
0.433215
0.432537
0.431627
0.430561
0.429397
0.428172
0.426926
0.42568
0.424441
0.423216
0.422008
0.420823
0.419662
0.418528
0.417422
0.416347
0.415305
0.414301
0.413334
0.412397
0.411474
0.410564
0.409679
0.408828
0.408019
0.407255
0.406538
0.405863
0.405224
0.404616
0.404038
0.403492
0.40298
0.402503
0.402065
0.401668
0.401314
0.401008
0.400751
0.400548
0.4004
0.400301
0.400243
0.400252
0.400396
0.400705
0.401155
0.40174
0.402468
0.403351
0.4044
0.405627
0.407043
0.408661
0.410492
0.412549
0.414844
0.417389
0.420196
0.423278
0.426647
0.430318
0.434305
0.438628
0.443307
0.448415
0.454146
0.460564
0.467512
0.474937
0.482879
0.491446
0.504868
0.423936
0.429403
0.432886
0.435082
0.436025
0.436233
0.43594
0.435294
0.4344
0.433322
0.432113
0.4308
0.429426