/*--------------------------------*- C++ -*----------------------------------*\
| =========                 |                                                 |
| \\      /  F ield         | OpenFOAM: The Open Source CFD Toolbox           |
|  \\    /   O peration     | Version:  v2012                                 |
|   \\  /    A nd           | Website:  www.openfoam.com                      |
|    \\/     M anipulation  |                                                 |
\*---------------------------------------------------------------------------*/
FoamFile
{
    version     2.0;
    format      ascii;
    class       surfaceScalarField;
    location    "642";
    object      phi;
}
// * * * * * * * * * * * * * * * * * * * * * * * * * * * * * * * * * * * * * //

dimensions      [0 3 -1 0 0 0 0];
oriented        oriented;


internalField   nonuniform List<scalar> 
12792
(
5.37907e-08
0.000199946
3.63936e-08
0.000200017
2.19391e-08
0.000200014
1.03436e-08
0.000200012
1.89994e-11
0.00020001
-1.03088e-08
0.00020001
-2.19133e-08
0.000200012
-3.63817e-08
0.000200014
-5.37878e-08
0.000200017
0.000199946
8.63044e-08
0.00019986
7.61156e-08
0.000200028
5.15371e-08
0.000200039
2.55575e-08
0.000200038
5.74389e-11
0.000200036
-2.54514e-08
0.000200036
-5.14568e-08
0.000200038
-7.60745e-08
0.000200039
-8.62958e-08
0.000200028
0.00019986
8.89868e-08
0.000199771
8.9443e-08
0.000200027
6.49748e-08
0.000200064
3.34518e-08
0.000200069
1.10184e-10
0.000200069
-3.32433e-08
0.000200069
-6.47976e-08
0.000200069
-8.93029e-08
0.000200064
-8.89054e-08
0.000200027
0.000199771
8.60739e-08
0.000199685
9.00403e-08
0.000200023
6.8111e-08
0.000200085
3.60386e-08
0.000200101
1.85036e-10
0.000200105
-3.56864e-08
0.000200105
-6.78094e-08
0.000200101
-8.98198e-08
0.000200086
-8.59527e-08
0.000200023
0.000199685
8.23594e-08
0.000199602
8.74765e-08
0.000200018
6.73435e-08
0.000200106
3.60803e-08
0.000200132
2.93217e-10
0.000200141
-3.55208e-08
0.000200141
-6.68625e-08
0.000200133
-8.71237e-08
0.000200106
-8.21691e-08
0.000200018
0.000199603
7.78445e-08
0.000199525
8.34259e-08
0.000200012
6.50319e-08
0.000200124
3.51144e-08
0.000200162
4.50037e-10
0.000200175
-3.42579e-08
0.000200176
-6.43016e-08
0.000200163
-8.28863e-08
0.000200124
-7.75506e-08
0.000200013
0.000199525
7.34134e-08
0.000199451
7.88041e-08
0.000200007
6.15859e-08
0.000200141
3.35096e-08
0.00020019
6.86371e-10
0.000200208
-3.2204e-08
0.000200208
-6.04739e-08
0.000200191
-7.79848e-08
0.000200142
-7.29649e-08
0.000200008
0.000199452
6.95137e-08
0.000199382
7.45044e-08
0.000200002
5.83089e-08
0.000200157
3.19362e-08
0.000200217
1.04903e-09
0.000200239
-2.99386e-08
0.000200239
-5.66012e-08
0.000200218
-7.32468e-08
0.000200159
-6.88247e-08
0.000200004
0.000199384
6.62822e-08
0.000199315
7.08964e-08
0.000199997
5.55981e-08
0.000200173
3.07309e-08
0.000200242
1.60075e-09
0.000200268
-2.76813e-08
0.000200269
-5.29887e-08
0.000200243
-6.89728e-08
0.000200175
-6.5226e-08
0.0002
0.000199318
6.37249e-08
0.000199252
6.80878e-08
0.000199993
5.35898e-08
0.000200187
3.00422e-08
0.000200265
2.43632e-09
0.000200296
-2.54002e-08
0.000200297
-4.96171e-08
0.000200267
-6.51642e-08
0.00020019
-6.21198e-08
0.000199997
0.000199256
6.1813e-08
0.00019919
6.61138e-08
0.000199989
5.23871e-08
0.000200201
3.00087e-08
0.000200288
3.69845e-09
0.000200322
-2.29627e-08
0.000200323
-4.6361e-08
0.000200291
-6.16894e-08
0.000200205
-5.9387e-08
0.000199995
0.000199197
6.05546e-08
0.000199129
6.50514e-08
0.000199984
5.21217e-08
0.000200214
3.08147e-08
0.000200309
5.59975e-09
0.000200347
-2.01541e-08
0.000200349
-4.30169e-08
0.000200313
-5.83611e-08
0.000200221
-5.689e-08
0.000199993
0.00019914
6.0029e-08
0.000199069
6.50883e-08
0.000199979
5.30468e-08
0.000200226
3.27662e-08
0.000200329
8.47147e-09
0.000200372
-1.66551e-08
0.000200374
-3.93095e-08
0.000200336
-5.49648e-08
0.000200236
-5.44947e-08
0.000199993
0.000199085
6.03786e-08
0.000199009
6.64898e-08
0.000199973
5.55984e-08
0.000200237
3.63776e-08
0.000200348
1.28379e-08
0.000200395
-1.1999e-08
0.000200399
-3.48869e-08
0.000200359
-5.12844e-08
0.000200253
-5.2093e-08
0.000199993
0.000199033
6.17449e-08
0.000198947
6.95313e-08
0.000199965
6.03377e-08
0.000200246
4.24269e-08
0.000200366
1.95062e-08
0.000200418
-5.49885e-09
0.000200424
-2.92995e-08
0.000200383
-4.71446e-08
0.000200271
-4.96932e-08
0.000199996
0.000198984
6.46493e-08
0.000198883
7.52525e-08
0.000199955
6.85011e-08
0.000200253
5.22161e-08
0.000200383
2.97724e-08
0.000200441
3.91127e-09
0.00020045
-2.19462e-08
0.000200409
-4.25056e-08
0.000200291
-4.75439e-08
0.000200001
0.000198936
6.97521e-08
0.000198813
8.48125e-08
0.00019994
8.16525e-08
0.000200256
6.7575e-08
0.000200397
4.5489e-08
0.000200463
1.79401e-08
0.000200477
-1.19851e-08
0.000200439
-3.7952e-08
0.000200317
-4.71774e-08
0.00020001
0.000198889
7.80129e-08
0.000198735
1.00057e-07
0.000199918
1.02581e-07
0.000200253
9.21176e-08
0.000200407
7.07883e-08
0.000200484
3.97959e-08
0.000200508
1.57098e-09
0.000200477
-3.67169e-08
0.000200356
-5.42666e-08
0.000200028
0.000198835
9.07469e-08
0.000198644
1.23565e-07
0.000199885
1.35207e-07
0.000200242
1.31382e-07
0.000200411
1.12681e-07
0.000200503
7.79873e-08
0.000200543
2.79723e-08
0.000200527
-2.76832e-08
0.000200411
-6.50427e-08
0.000200065
0.00019877
1.0951e-07
0.000198535
1.58527e-07
0.000199836
1.84569e-07
0.000200216
1.92213e-07
0.000200403
1.79541e-07
0.000200515
1.41054e-07
0.000200582
6.35279e-08
0.000200604
-6.19976e-08
0.000200537
-2.40043e-07
0.000200243
0.00019853
1.3927e-07
0.000198395
2.1431e-07
0.000199761
2.64843e-07
0.000200165
2.95895e-07
0.000200372
3.06591e-07
0.000200505
2.95051e-07
0.000200593
2.61326e-07
0.000200638
2.10605e-07
0.000200587
4.92322e-07
0.000199961
0.000193775
5.2465e-06
1.76275e-07
0.000198219
2.86093e-07
0.000199651
3.71293e-07
0.00020008
4.38009e-07
0.000200306
4.87178e-07
0.000200456
5.23791e-07
0.000200556
5.73448e-07
0.000200588
7.03928e-07
0.000200457
1.06071e-06
0.000199605
0.000191462
3.37402e-06
2.23011e-07
0.000197996
3.7711e-07
0.000199497
5.06456e-07
0.000199951
6.18402e-07
0.000200194
7.15594e-07
0.000200358
8.04415e-07
0.000200468
9.08903e-07
0.000200484
1.13838e-06
0.000200227
1.86708e-06
0.000198876
0.000188082
5.24749e-06
2.7955e-07
0.000197716
4.87424e-07
0.000199289
6.70022e-07
0.000199768
8.35932e-07
0.000200028
9.90173e-07
0.000200204
1.14458e-06
0.000200313
1.33877e-06
0.00020029
1.71664e-06
0.00019985
2.7768e-06
0.000197816
0.000184364
6.49447e-06
3.46553e-07
0.00019737
6.18158e-07
0.000199017
8.63565e-07
0.000199523
1.09258e-06
0.000199799
1.31272e-06
0.000199984
1.54198e-06
0.000200084
1.83231e-06
0.000199999
2.34578e-06
0.000199336
3.62292e-06
0.000196539
0.000180671
7.31619e-06
4.25212e-07
0.000196945
7.7134e-07
0.000198671
1.0897e-06
0.000199204
1.39105e-06
0.000199497
1.68476e-06
0.00019969
1.99352e-06
0.000199775
2.37973e-06
0.000199613
3.02905e-06
0.000198687
4.54113e-06
0.000195027
0.00017715
8.06173e-06
5.17317e-07
0.000196427
9.50201e-07
0.000198238
1.35313e-06
0.000198801
1.73755e-06
0.000199113
2.11425e-06
0.000199314
2.50996e-06
0.00019938
2.99527e-06
0.000199128
3.76425e-06
0.000197918
5.40912e-06
0.000193382
0.000173945
8.61391e-06
6.25274e-07
0.000195802
1.15955e-06
0.000197704
1.66154e-06
0.000198299
2.14296e-06
0.000198631
2.61619e-06
0.00019884
3.11182e-06
0.000198884
3.70846e-06
0.000198531
4.60511e-06
0.000197021
6.34886e-06
0.000191638
0.000171032
9.26178e-06
7.54251e-07
0.000195048
1.40578e-06
0.000197053
2.02447e-06
0.000197681
2.62069e-06
0.000198035
3.20874e-06
0.000198252
3.82349e-06
0.000198269
4.55274e-06
0.000197802
5.60715e-06
0.000195967
7.47567e-06
0.000189769
0.000168426
1.00823e-05
9.048e-07
0.000194143
1.69687e-06
0.00019626
2.4521e-06
0.000196925
3.1836e-06
0.000197304
3.90687e-06
0.000197529
4.65994e-06
0.000197516
5.5352e-06
0.000196927
6.74238e-06
0.00019476
8.69987e-06
0.000187812
0.000166168
1.09576e-05
1.07924e-06
0.000193064
2.03975e-06
0.0001953
2.95531e-06
0.00019601
3.84472e-06
0.000196414
4.72449e-06
0.000196649
5.63407e-06
0.000196606
6.66555e-06
0.000195895
8.0164e-06
0.000193409
1.0016e-05
0.000185812
0.0001643
1.18838e-05
1.28551e-06
0.000191778
2.44079e-06
0.000194145
3.54506e-06
0.000194906
4.61904e-06
0.00019534
5.68013e-06
0.000195588
6.76779e-06
0.000195519
7.97059e-06
0.000194692
9.46916e-06
0.00019191
1.14663e-05
0.000183815
0.000162802
1.29642e-05
1.52732e-06
0.000190251
2.90942e-06
0.000192763
4.23458e-06
0.00019358
5.52459e-06
0.00019405
6.79679e-06
0.000194316
8.08883e-06
0.000194227
9.4818e-06
0.000193299
1.11239e-05
0.000190268
1.3074e-05
0.000181865
0.000161623
1.42536e-05
1.80904e-06
0.000188442
3.45588e-06
0.000191116
5.03892e-06
0.000191997
6.58152e-06
0.000192508
8.10012e-06
0.000192797
9.62828e-06
0.000192699
1.12339e-05
0.000191694
1.30172e-05
0.000188485
1.49102e-05
0.000179972
0.000160712
1.58207e-05
2.13556e-06
0.000186306
4.09024e-06
0.000189161
5.97337e-06
0.000190114
7.81058e-06
0.000190671
9.6168e-06
0.000190991
1.14194e-05
0.000190896
1.32676e-05
0.000189846
1.52074e-05
0.000186545
1.70625e-05
0.000178117
0.00016001
1.77647e-05
2.51113e-06
0.000183795
4.82163e-06
0.000186851
7.05223e-06
0.000187884
9.23153e-06
0.000188491
1.13727e-05
0.00018885
1.34954e-05
0.000188773
1.56267e-05
0.000187714
1.77573e-05
0.000184414
1.96205e-05
0.000176254
0.000159439
2.01917e-05
2.9387e-06
0.000180857
5.65798e-06
0.000184131
8.28775e-06
0.000185254
1.08612e-05
0.000185918
1.33903e-05
0.000186321
1.58858e-05
0.000186278
1.83514e-05
0.000185249
2.07251e-05
0.000182041
2.2667e-05
0.000174312
0.000158901
2.32051e-05
3.41392e-06
0.000177443
6.60303e-06
0.000180942
9.68811e-06
0.000182169
1.27114e-05
0.000182895
1.56849e-05
0.000183347
1.86114e-05
0.000183351
2.14716e-05
0.000182389
2.41562e-05
0.000179356
2.62706e-05
0.000172198
0.000158275
2.68959e-05
3.78989e-06
0.000173653
7.33785e-06
0.000177394
1.07793e-05
0.000178727
1.4158e-05
0.000179516
1.74858e-05
0.00018002
2.07585e-05
0.000180079
2.39382e-05
0.000179209
2.68832e-05
0.000176411
2.91798e-05
0.000169901
0.000157461
2.99943e-05
4.35395e-06
0.000169299
8.42083e-06
0.000173327
1.2376e-05
0.000174772
1.62667e-05
0.000175625
2.01061e-05
0.00017618
2.38847e-05
0.0001763
2.75493e-05
0.000175544
3.09315e-05
0.000173029
3.35999e-05
0.000167233
0.000156295
3.47662e-05
4.96558e-06
0.000164333
9.60094e-06
0.000168692
1.41136e-05
0.000170259
1.85593e-05
0.000171179
2.29542e-05
0.000171785
2.72866e-05
0.000171968
3.14927e-05
0.000171338
3.53884e-05
0.000169133
3.85408e-05
0.00016408
0.000154628
4.0208e-05
5.62251e-06
0.000158711
1.0868e-05
0.000163446
1.59769e-05
0.000165151
2.10141e-05
0.000166142
2.6001e-05
0.000166798
3.09263e-05
0.000167043
3.5722e-05
0.000166542
4.01996e-05
0.000164656
4.39408e-05
0.000160339
0.000152314
4.62541e-05
6.32248e-06
0.000152388
1.22136e-05
0.000157555
1.79492e-05
0.000159415
2.3605e-05
0.000160486
2.92092e-05
0.000161194
3.4754e-05
0.000161498
4.01737e-05
0.000161123
4.52863e-05
0.000159543
4.97028e-05
0.000155922
0.000149227
5.27899e-05
7.06244e-06
0.000145326
1.36288e-05
0.000150989
2.00124e-05
0.000153031
2.63025e-05
0.000154196
3.25354e-05
0.000154961
3.87107e-05
0.000155322
4.47702e-05
0.000155063
5.05485e-05
0.000153765
5.56981e-05
0.000150773
0.000145271
5.96538e-05
7.83988e-06
0.000137486
1.51046e-05
0.000143724
2.21482e-05
0.000145988
2.90756e-05
0.000147269
3.59338e-05
0.000148103
4.27322e-05
0.000148524
4.94255e-05
0.00014837
5.58726e-05
0.000147318
6.17761e-05
0.000144869
0.000140399
6.66487e-05
8.65402e-06
0.000128832
1.66349e-05
0.000135743
2.43403e-05
0.000138282
3.18951e-05
0.000139714
3.9359e-05
0.000140639
4.67545e-05
0.000141129
5.40527e-05
0.000141072
6.11419e-05
0.000140228
6.77797e-05
0.000138232
0.000134616
7.35623e-05
9.50696e-06
0.000119325
1.82176e-05
0.000127033
2.65768e-05
0.000129923
3.47356e-05
0.000131555
4.27701e-05
0.000132605
5.07183e-05
0.00013318
5.85708e-05
0.000133219
6.62473e-05
0.000132552
7.3561e-05
0.000130918
0.000127985
8.0192e-05
1.04048e-05
0.00010892
1.98566e-05
0.000117581
2.88514e-05
0.000120928
3.75769e-05
0.00012283
4.61315e-05
0.00012405
5.45717e-05
0.00012474
6.29095e-05
0.000124881
7.10957e-05
0.000124366
7.89956e-05
0.000123018
0.000120613
8.6368e-05
1.13584e-05
9.75616e-05
2.15612e-05
0.000107378
3.11617e-05
0.000111328
4.04015e-05
0.00011359
4.94108e-05
0.000115041
5.82686e-05
0.000115882
6.70091e-05
0.000116141
7.56126e-05
0.000115762
8.399e-05
0.00011464
0.000112634
9.19685e-05
1.23848e-05
8.51768e-05
2.33436e-05
9.64195e-05
3.35039e-05
0.000101168
4.31881e-05
0.000103906
5.25719e-05
0.000105657
6.17621e-05
0.000106692
7.08154e-05
0.000107088
7.97384e-05
0.000106839
8.84793e-05
0.0001059
0.000104193
9.69204e-05
1.35063e-05
7.16706e-05
2.521e-05
8.47158e-05
3.58598e-05
9.05178e-05
4.58977e-05
9.38678e-05
5.55615e-05
9.5993e-05
6.49913e-05
9.72624e-05
7.42667e-05
9.78121e-05
8.34157e-05
9.76903e-05
9.24147e-05
9.69005e-05
9.54215e-05
0.000101187
1.47661e-05
5.69045e-05
2.71177e-05
7.23641e-05
3.81624e-05
7.94731e-05
4.84501e-05
8.35801e-05
5.8289e-05
8.61542e-05
6.78632e-05
8.76882e-05
7.7276e-05
8.83994e-05
8.6571e-05
8.83952e-05
9.57429e-05
8.77286e-05
8.64234e-05
0.000104741
1.61776e-05
4.07269e-05
2.89644e-05
5.95773e-05
4.02431e-05
6.81945e-05
5.06596e-05
7.31636e-05
6.05771e-05
7.62367e-05
7.02172e-05
7.80481e-05
7.9703e-05
7.89135e-05
8.90888e-05
7.90094e-05
9.83787e-05
7.84387e-05
7.72655e-05
0.000107537
1.66408e-05
2.40861e-05
3.03683e-05
4.58498e-05
4.1877e-05
5.66858e-05
5.22833e-05
6.27573e-05
6.21674e-05
6.63526e-05
7.18052e-05
6.84103e-05
8.13261e-05
6.93926e-05
9.07818e-05
6.95537e-05
0.000100176
6.90449e-05
6.79656e-05
0.000109476
1.44141e-05
9.67203e-06
2.9479e-05
3.07848e-05
4.19066e-05
4.42581e-05
5.2636e-05
5.20279e-05
6.25858e-05
5.64029e-05
7.2241e-05
5.87551e-05
8.18106e-05
5.9823e-05
9.1363e-05
6.00013e-05
0.000100897
5.95109e-05
5.84884e-05
0.000110374
9.84724e-06
-1.75204e-07
2.46612e-05
1.59709e-05
3.82824e-05
3.0637e-05
5.00828e-05
4.02274e-05
6.06955e-05
4.57902e-05
7.07329e-05
4.87177e-05
8.05686e-05
4.99873e-05
9.03662e-05
5.02036e-05
0.000100159
4.9718e-05
4.87321e-05
0.000109916
5.82232e-06
-5.99752e-06
1.72049e-05
4.58827e-06
3.03156e-05
1.75263e-05
4.29787e-05
2.75643e-05
5.47467e-05
3.40222e-05
6.5799e-05
3.76654e-05
7.64447e-05
3.93416e-05
8.68972e-05
3.97511e-05
9.72516e-05
3.93636e-05
3.84629e-05
0.000107521
2.70708e-06
-8.7046e-06
9.20824e-06
-1.91288e-06
1.93277e-05
7.40686e-06
3.11316e-05
1.57605e-05
4.34253e-05
2.17285e-05
5.56527e-05
2.5438e-05
6.76291e-05
2.73652e-05
7.93188e-05
2.80614e-05
9.07625e-05
2.79198e-05
2.72232e-05
0.000102002
-1.68359e-06
-7.02101e-06
3.83288e-07
-3.97975e-06
6.57049e-06
1.21966e-06
1.59271e-05
6.40382e-06
2.74257e-05
1.02299e-05
4.01737e-05
1.269e-05
5.34165e-05
1.41224e-05
6.65865e-05
1.48914e-05
7.95426e-05
1.49637e-05
1.45066e-05
9.22592e-05
-7.02101e-06
-1.10008e-05
-9.7811e-06
-3.37728e-06
6.85264e-06
1.95427e-05
3.36651e-05
4.85564e-05
6.35202e-05
7.80267e-05
-2.89517e-05
3.41982e-05
-2.82801e-05
-6.71582e-07
-2.5062e-05
-3.21815e-06
-2.10709e-05
-3.99112e-06
-1.64828e-05
-4.58811e-06
-1.15185e-05
-4.96428e-06
-6.43369e-06
-5.08478e-06
-1.43245e-06
-5.00123e-06
3.43342e-06
-4.86587e-06
8.14527e-06
-4.71184e-06
1.26114e-05
-4.46611e-06
1.66696e-05
-4.05819e-06
2.01135e-05
-3.44397e-06
2.28501e-05
-2.73654e-06
2.48301e-05
-1.98002e-06
2.60159e-05
-1.18577e-06
2.63635e-05
-3.47628e-07
2.57697e-05
5.93782e-07
2.41548e-05
1.61495e-06
2.14556e-05
2.69912e-06
1.76507e-05
3.80491e-06
1.2838e-05
4.81271e-06
7.50085e-06
5.33716e-06
2.7077e-06
4.79315e-06
2.7077e-06
-1.41892e-05
5.17614e-05
-2.01351e-05
5.27431e-06
-2.01028e-05
-3.25044e-06
-1.81742e-05
-5.91973e-06
-1.52663e-05
-7.49596e-06
-1.1718e-05
-8.51261e-06
-7.73009e-06
-9.07267e-06
-3.46958e-06
-9.26174e-06
8.17977e-07
-9.15343e-06
4.88898e-06
-8.78285e-06
8.6007e-06
-8.17783e-06
1.18841e-05
-7.34155e-06
1.47203e-05
-6.28018e-06
1.70449e-05
-5.06114e-06
1.8803e-05
-3.73813e-06
1.99574e-05
-2.34015e-06
2.04851e-05
-8.75359e-07
2.04095e-05
6.69397e-07
1.97178e-05
2.30665e-06
1.83737e-05
4.04321e-06
1.63193e-05
5.85937e-06
1.34761e-05
7.65585e-06
9.71033e-06
9.10295e-06
5.08842e-06
9.41507e-06
7.79613e-06
-8.43006e-06
6.5439e-05
-1.56316e-05
1.24759e-05
-1.74121e-05
-1.47e-06
-1.67332e-05
-6.59861e-06
-1.47648e-05
-9.46435e-06
-1.19952e-05
-1.12822e-05
-8.71026e-06
-1.23576e-05
-5.13852e-06
-1.28335e-05
-1.48914e-06
-1.28028e-05
2.05757e-06
-1.23296e-05
5.35164e-06
-1.14719e-05
8.29079e-06
-1.02807e-05
1.08187e-05
-8.80806e-06
1.28813e-05
-7.12378e-06
1.44369e-05
-5.29367e-06
1.54624e-05
-3.36568e-06
1.59541e-05
-1.36709e-06
1.59286e-05
6.94947e-07
1.54071e-05
2.82814e-06
1.44071e-05
5.04319e-06
1.29303e-05
7.33617e-06
1.09386e-05
9.64758e-06
8.29576e-06
1.17457e-05
4.7453e-06
1.29655e-05
1.25414e-05
-5.81385e-06
7.77473e-05
-1.40618e-05
2.07238e-05
-1.68893e-05
1.35749e-06
-1.68982e-05
-6.5897e-06
-1.54245e-05
-1.09381e-05
-1.30958e-05
-1.36109e-05
-1.02379e-05
-1.52155e-05
-7.08189e-06
-1.59895e-05
-3.8146e-06
-1.60701e-05
-5.93697e-07
-1.55505e-05
2.44137e-06
-1.4507e-05
5.17595e-06
-1.30153e-05
7.52701e-06
-1.11591e-05
9.43479e-06
-9.03156e-06
1.08645e-05
-6.72338e-06
1.18069e-05
-4.30808e-06
1.22737e-05
-1.83386e-06
1.22911e-05
6.77573e-07
1.1892e-05
3.22722e-06
1.11074e-05
5.82775e-06
9.95917e-06
8.48441e-06
8.44463e-06
1.11621e-05
6.493e-06
1.36974e-05
3.85297e-06
1.56056e-05
1.63944e-05
-2.95963e-06
8.80231e-05
-1.25663e-05
3.03306e-05
-1.66987e-05
5.48987e-06
-1.75137e-05
-5.7747e-06
-1.65612e-05
-1.18906e-05
-1.46322e-05
-1.55399e-05
-1.21319e-05
-1.77159e-05
-9.30295e-06
-1.88184e-05
-6.31829e-06
-1.90548e-05
-3.32601e-06
-1.85427e-05
-4.61725e-07
-1.73713e-05
2.15184e-06
-1.56288e-05
4.41356e-06
-1.34208e-05
6.2526e-06
-1.08706e-05
7.63358e-06
-8.10436e-06
8.5558e-06
-5.23029e-06
9.04402e-06
-2.32208e-06
9.13664e-06
5.84951e-07
8.87552e-06
3.48834e-06
8.29886e-06
6.40441e-06
7.43518e-06
9.34808e-06
6.29351e-06
1.23038e-05
4.82961e-06
1.51613e-05
2.82511e-06
1.76101e-05
1.92195e-05
-6.49273e-08
9.61498e-05
-9.97033e-06
4.0236e-05
-1.55171e-05
1.10366e-05
-1.7489e-05
-3.80279e-06
-1.73595e-05
-1.20201e-05
-1.60296e-05
-1.68698e-05
-1.40107e-05
-1.97348e-05
-1.1579e-05
-2.125e-05
-8.90927e-06
-2.17245e-05
-6.14714e-06
-2.13049e-05
-3.43148e-06
-2.00869e-05
-8.96809e-07
-1.81635e-05
1.33612e-06
-1.56538e-05
3.17695e-06
-1.27114e-05
4.57947e-06
-9.50688e-06
5.54349e-06
-6.19432e-06
6.10239e-06
-2.88098e-06
6.30572e-06
3.81627e-07
6.2047e-06
3.58936e-06
5.84365e-06
6.76547e-06
5.25481e-06
9.93692e-06
4.45149e-06
1.31071e-05
3.4048e-06
1.6208e-05
1.96888e-06
1.9046e-05
2.11884e-05
2.36037e-06
0.000102403
-6.76461e-06
4.93609e-05
-1.32117e-05
1.74837e-05
-1.64279e-05
-5.86555e-07
-1.73906e-05
-1.10574e-05
-1.69426e-05
-1.73178e-05
-1.56208e-05
-2.10566e-05
-1.37311e-05
-2.31397e-05
-1.14767e-05
-2.39789e-05
-9.00858e-06
-2.3773e-05
-6.46837e-06
-2.26271e-05
-4.00475e-06
-2.06271e-05
-1.76306e-06
-1.78955e-05
1.37998e-07
-1.46125e-05
1.62829e-06
-1.09972e-05
2.69592e-06
-7.26195e-06
3.37585e-06
-3.56092e-06
3.72657e-06
3.09039e-08
3.80897e-06
3.50696e-06
3.6746e-06
6.89985e-06
3.36068e-06
1.02508e-05
2.88551e-06
1.35823e-05
2.2323e-06
1.68612e-05
1.30669e-06
1.99716e-05
2.24951e-05
4.40146e-06
0.000107264
-3.69683e-06
5.74592e-05
-1.04505e-05
2.42374e-05
-1.46989e-05
3.66181e-06
-1.67887e-05
-8.96752e-06
-1.73653e-05
-1.67413e-05
-1.68884e-05
-2.15334e-05
-1.56798e-05
-2.43484e-05
-1.39643e-05
-2.56944e-05
-1.1888e-05
-2.58493e-05
-9.58499e-06
-2.49301e-05
-7.21052e-06
-2.30016e-05
-4.93701e-06
-2.0169e-05
-2.92223e-06
-1.66272e-05
-1.27549e-06
-1.26439e-05
-3.75371e-08
-8.4999e-06
8.16797e-07
-4.41525e-06
1.35175e-06
-5.04047e-07
1.63955e-06
3.21915e-06
1.7414e-06
6.798e-06
1.701e-06
1.02912e-05
1.54194e-06
1.37414e-05
1.25624e-06
1.71469e-05
7.76898e-07
2.04509e-05
2.3272e-05
6.18458e-06
0.000111161
-9.91576e-07
6.46354e-05
-7.72189e-06
3.09677e-05
-1.26632e-05
8.60313e-06
-1.57411e-05
-5.88967e-06
-1.73148e-05
-1.51675e-05
-1.77713e-05
-2.1077e-05
-1.73932e-05
-2.47265e-05
-1.63548e-05
-2.67328e-05
-1.4792e-05
-2.74121e-05
-1.28179e-05
-2.69042e-05
-1.05788e-05
-2.52407e-05
-8.26614e-06
-2.24816e-05
-6.08448e-06
-1.88089e-05
-4.2027e-06
-1.45257e-05
-2.714e-06
-9.9886e-06
-1.62184e-06
-5.50741e-06
-8.62643e-07
-1.26324e-06
-3.48812e-07
2.70532e-06
-4.15174e-09
6.45334e-06
2.24386e-07
1.00627e-05
3.65699e-07
1.36e-05
4.17375e-07
1.70952e-05
3.28581e-07
2.05397e-05
2.36006e-05
7.78443e-06
0.000114334
1.4041e-06
7.10157e-05
-5.17275e-06
3.75446e-05
-1.05742e-05
1.40046e-05
-1.44716e-05
-1.99228e-06
-1.69923e-05
-1.26469e-05
-1.84073e-05
-1.9662e-05
-1.89222e-05
-2.42115e-05
-1.86619e-05
-2.6993e-05
-1.77346e-05
-2.83394e-05
-1.6213e-05
-2.84258e-05
-1.41929e-05
-2.72608e-05
-1.18644e-05
-2.48101e-05
-9.47308e-06
-2.12002e-05
-7.26437e-06
-1.67344e-05
-5.4185e-06
-1.18345e-05
-4.00224e-06
-6.92367e-06
-2.96608e-06
-2.29941e-06
-2.20096e-06
1.94021e-06
-1.60617e-06
5.85855e-06
-1.1134e-06
9.56993e-06
-6.86745e-07
1.31734e-05
-3.25816e-07
1.67343e-05
-7.59189e-08
2.02898e-05
2.35246e-05
9.23985e-06
0.000116978
3.53459e-06
7.6721e-05
-2.83339e-06
4.39125e-05
-8.53633e-06
1.97076e-05
-1.31045e-05
2.57589e-06
-1.64951e-05
-9.25622e-06
-1.88445e-05
-1.73126e-05
-2.02927e-05
-2.27634e-05
-2.09077e-05
-2.6378e-05
-2.07099e-05
-2.85372e-05
-1.9783e-05
-2.93528e-05
-1.81223e-05
-2.89215e-05
-1.58626e-05
-2.70698e-05
-1.32616e-05
-2.38012e-05
-1.06387e-05
-1.93573e-05
-8.29527e-06
-1.41779e-05
-6.42226e-06
-8.79669e-06
-5.02482e-06
-3.69684e-06
-3.96742e-06
8.82806e-07
-3.10741e-06
4.99854e-06
-2.34957e-06
8.81209e-06
-1.64612e-06
1.24699e-05
-9.95652e-07
1.60838e-05
-4.44795e-07
1.9739e-05
2.30798e-05
1.06668e-05
0.000119276
5.48436e-06
8.19034e-05
-6.77626e-07
5.00745e-05
-6.58388e-06
2.56138e-05
-1.16924e-05
7.68443e-06
-1.58451e-05
-5.10358e-06
-1.90714e-05
-1.40863e-05
-2.14461e-05
-2.03886e-05
-2.30029e-05
-2.48213e-05
-2.36917e-05
-2.78484e-05
-2.34718e-05
-2.95727e-05
-2.23616e-05
-3.00317e-05
-2.03529e-05
-2.90784e-05
-1.76448e-05
-2.65093e-05
-1.45824e-05
-2.24197e-05
-1.15905e-05
-1.71698e-05
-9.05401e-06
-1.13332e-05
-7.13817e-06
-5.61268e-06
-5.70489e-06
-5.50469e-07
-4.54236e-06
3.836e-06
-3.50922e-06
7.77896e-06
-2.533e-06
1.14937e-05
-1.61043e-06
1.51612e-05
-7.91524e-07
1.89201e-05
2.22883e-05
1.21596e-05
0.00012137
7.36256e-06
8.67005e-05
1.37795e-06
5.60591e-05
-4.67169e-06
3.16635e-05
-1.02124e-05
1.32252e-05
-1.5012e-05
-3.04068e-07
-1.90174e-05
-1.00809e-05
-2.22504e-05
-1.71556e-05
-2.47207e-05
-2.23509e-05
-2.63806e-05
-2.61885e-05
-2.70659e-05
-2.88874e-05
-2.67194e-05
-3.03782e-05
-2.52781e-05
-3.05197e-05
-2.27363e-05
-2.90511e-05
-1.9373e-05
-2.57831e-05
-1.56578e-05
-2.08849e-05
-1.21667e-05
-1.48244e-05
-9.40589e-06
-8.37349e-06
-7.4079e-06
-2.54846e-06
-5.8674e-06
2.29551e-06
-4.54697e-06
6.45853e-06
-3.31825e-06
1.0265e-05
-2.15188e-06
1.39949e-05
-1.08729e-06
1.78555e-05
2.1201e-05
1.38336e-05
0.000123357
9.31123e-06
9.12229e-05
3.46797e-06
6.19024e-05
-2.68744e-06
3.78189e-05
-8.57037e-06
1.91081e-05
-1.39009e-05
5.02642e-06
-1.85745e-05
-5.40732e-06
-2.25732e-05
-1.31568e-05
-2.58885e-05
-1.90357e-05
-2.84685e-05
-2.36086e-05
-3.01917e-05
-2.71641e-05
-3.08493e-05
-2.97206e-05
-3.03084e-05
-3.10606e-05
-2.84139e-05
-3.09456e-05
-2.51615e-05
-2.90356e-05
-2.09141e-05
-2.51323e-05
-1.62957e-05
-1.94428e-05
-1.21801e-05
-1.24891e-05
-9.19042e-06
-5.53814e-06
-7.0947e-06
1.99788e-07
-5.43781e-06
4.80164e-06
-3.97084e-06
8.79802e-06
-2.59879e-06
1.26228e-05
-1.32722e-06
1.65839e-05
1.98738e-05
1.58325e-05
0.000125289
1.15043e-05
9.55511e-05
5.77079e-06
6.76359e-05
-4.6243e-07
4.40521e-05
-6.61275e-06
2.52584e-05
-1.23686e-05
1.07822e-05
-1.75955e-05
-1.80425e-07
-2.22487e-05
-8.50359e-06
-2.63168e-05
-1.49676e-05
-2.97632e-05
-2.01622e-05
-3.24852e-05
-2.44421e-05
-3.42952e-05
-2.79106e-05
-3.49274e-05
-3.04285e-05
-3.41576e-05
-3.17153e-05
-3.17334e-05
-3.14598e-05
-2.76294e-05
-2.92362e-05
-2.22671e-05
-2.48052e-05
-1.64814e-05
-1.82747e-05
-1.16753e-05
-1.03443e-05
-8.4554e-06
-3.02012e-06
-6.26173e-06
2.60797e-06
-4.50882e-06
7.04511e-06
-2.93729e-06
1.10513e-05
-1.48003e-06
1.51267e-05
1.83938e-05
1.83053e-05
0.000127175
1.41271e-05
9.97293e-05
8.48524e-06
7.32778e-05
2.20191e-06
5.03354e-05
-4.14875e-06
3.16091e-05
-1.02341e-05
1.68676e-05
-1.58936e-05
5.47912e-06
-2.10724e-05
-3.32485e-06
-2.57618e-05
-1.02781e-05
-2.99504e-05
-1.59736e-05
-3.35773e-05
-2.08152e-05
-3.64979e-05
-2.499e-05
-3.8458e-05
-2.84684e-05
-3.91382e-05
-3.10351e-05
-3.82077e-05
-3.23903e-05
-3.53123e-05
-3.21315e-05
-3.03373e-05
-2.97802e-05
-2.36088e-05
-2.50032e-05
-1.64532e-05
-1.74999e-05
-1.0824e-05
-8.64936e-06
-7.29286e-06
-9.2314e-07
-4.98774e-06
4.73999e-06
-3.16073e-06
9.22429e-06
-1.48457e-06
1.34505e-05
1.69092e-05
2.13967e-05
0.000128984
1.73658e-05
0.00010376
1.18214e-05
7.88221e-05
5.52289e-06
5.6634e-05
-9.65903e-07
3.80979e-05
-7.29351e-06
2.31952e-05
-1.3276e-05
1.14616e-05
-1.88498e-05
2.24895e-06
-2.40108e-05
-5.11708e-06
-2.8772e-05
-1.12124e-05
-3.31199e-05
-1.64673e-05
-3.69763e-05
-2.11336e-05
-4.01685e-05
-2.52762e-05
-4.24062e-05
-2.87973e-05
-4.33236e-05
-3.14729e-05
-4.24673e-05
-3.29879e-05
-3.93809e-05
-3.28666e-05
-3.36844e-05
-3.06997e-05
-2.55002e-05
-2.5684e-05
-1.66891e-05
-1.74605e-05
-9.80645e-06
-7.80577e-06
-5.68035e-06
6.13887e-07
-3.15276e-06
6.69669e-06
-1.15073e-06
1.14485e-05
1.57585e-05
2.52385e-05
0.000130641
2.13946e-05
0.000107604
1.5982e-05
8.42347e-05
9.71345e-06
6.29025e-05
3.14842e-06
4.46629e-05
-3.34367e-06
2.96873e-05
-9.55635e-06
1.76743e-05
-1.54082e-05
8.1008e-06
-2.08992e-05
3.73957e-07
-2.60607e-05
-6.05103e-06
-3.09203e-05
-1.16077e-05
-3.54656e-05
-1.65883e-05
-3.9613e-05
-2.11289e-05
-4.31826e-05
-2.52277e-05
-4.58871e-05
-2.87684e-05
-4.73434e-05
-3.15315e-05
-4.70158e-05
-3.31942e-05
-4.42508e-05
-3.34648e-05
-3.82467e-05
-3.1688e-05
-2.89552e-05
-2.6752e-05
-1.81872e-05
-1.85737e-05
-9.09307e-06
-8.48028e-06
-3.18517e-06
7.888e-07
1.04037e-07
8.15925e-06
1.58625e-05
2.86499e-05
0.000131986
2.52139e-05
0.00011104
2.02063e-05
8.92424e-05
1.42766e-05
6.88323e-05
7.96492e-06
5.09746e-05
1.64391e-06
3.60083e-05
-4.4643e-06
2.37825e-05
-1.02605e-05
1.3897e-05
-1.57369e-05
5.85031e-06
-2.09346e-05
-8.53327e-07
-2.59066e-05
-6.6356e-06
-3.06889e-05
-1.1806e-05
-3.52734e-05
-1.65443e-05
-3.95907e-05
-2.09105e-05
-4.34919e-05
-2.48672e-05
-4.67225e-05
-2.83009e-05
-4.88928e-05
-3.10239e-05
-4.96254e-05
-3.27322e-05
-4.81395e-05
-3.3174e-05
-4.31048e-05
-3.17867e-05
-3.4376e-05
-2.73026e-05
-2.27452e-05
-2.01111e-05
-1.07564e-05
-1.12e-05
2.32253e-07
-2.82938e-06
3.74806e-06
1.23467e-05
3.37938e-05
0.000132958
3.07219e-05
0.000114112
2.59983e-05
9.39659e-05
2.02401e-05
7.45904e-05
1.39935e-05
5.72212e-05
7.65332e-06
4.23485e-05
1.46682e-06
2.9969e-05
-4.44138e-06
1.98052e-05
-1.00436e-05
1.14525e-05
-1.53775e-05
4.48053e-06
-2.05113e-05
-1.50174e-06
-2.55124e-05
-6.80496e-06
-3.04228e-05
-1.16339e-05
-3.52453e-05
-1.6088e-05
-3.99371e-05
-2.01754e-05
-4.44041e-05
-2.38339e-05
-4.8478e-05
-2.695e-05
-5.18454e-05
-2.93648e-05
-5.41658e-05
-3.08535e-05
-5.47735e-05
-3.11791e-05
-5.28297e-05
-2.92463e-05
-4.78434e-05
-2.50974e-05
-4.01589e-05
-1.88845e-05
-3.23051e-05
-1.06832e-05
-3.74839e-08
-2.85196e-05
3.976e-05
0.000133406
3.72007e-05
0.000116671
3.28966e-05
9.82701e-05
2.74257e-05
8.00613e-05
2.13386e-05
6.33083e-05
1.50565e-05
4.86305e-05
8.85644e-06
3.61691e-05
2.8914e-06
2.57703e-05
-2.78472e-06
1.71286e-05
-8.1907e-06
9.88651e-06
-1.3393e-05
3.70052e-06
-1.84736e-05
-1.72428e-06
-2.3503e-05
-6.60459e-06
-2.85242e-05
-1.10668e-05
-3.35542e-05
-1.51454e-05
-3.85951e-05
-1.8793e-05
-4.36405e-05
-2.19046e-05
-4.86561e-05
-2.43492e-05
-5.35406e-05
-2.59691e-05
-5.81858e-05
-2.65338e-05
-6.18511e-05
-2.5581e-05
-6.43053e-05
-2.26432e-05
-6.59574e-05
-1.72324e-05
-6.71997e-05
-9.44095e-06
8.23598e-08
-6.73195e-05
4.64942e-05
0.000133166
4.46251e-05
0.00011854
4.09154e-05
0.00010198
3.58881e-05
8.50886e-05
3.00899e-05
6.91065e-05
2.39676e-05
5.47528e-05
1.78335e-05
4.23033e-05
1.18736e-05
3.17302e-05
6.17209e-06
2.28301e-05
7.36231e-07
1.53224e-05
-4.48013e-06
8.91688e-06
-9.55316e-06
3.34875e-06
-1.45601e-05
-1.59761e-06
-1.95553e-05
-6.07163e-06
-2.45649e-05
-1.01358e-05
-2.96026e-05
-1.37552e-05
-3.46955e-05
-1.68117e-05
-3.98852e-05
-1.91594e-05
-4.52167e-05
-2.06376e-05
-5.06953e-05
-2.10552e-05
-5.60665e-05
-2.02097e-05
-6.07764e-05
-1.79333e-05
-6.41003e-05
-1.39085e-05
-6.53313e-05
-8.20991e-06
-1.24568e-06
-6.40033e-05
5.38773e-05
0.000132078
5.28911e-05
0.000119527
4.99847e-05
0.000104886
4.56013e-05
8.94721e-05
4.02658e-05
7.4442e-05
3.44439e-05
6.05746e-05
2.84846e-05
4.82627e-05
2.26132e-05
3.76016e-05
1.69487e-05
2.84946e-05
1.15276e-05
2.07435e-05
6.33014e-06
1.41144e-05
1.30188e-06
8.37701e-06
-3.62259e-06
3.32687e-06
-8.49285e-06
-1.20138e-06
-1.33188e-05
-5.30986e-06
-1.8084e-05
-8.99003e-06
-2.27833e-05
-1.21124e-05
-2.74145e-05
-1.45282e-05
-3.19809e-05
-1.60713e-05
-3.64455e-05
-1.65906e-05
-4.0642e-05
-1.60132e-05
-4.42493e-05
-1.4326e-05
-4.66579e-05
-1.15e-05
-4.71665e-05
-7.70125e-06
-3.17981e-06
-4.52324e-05
6.17228e-05
0.000130009
6.18052e-05
0.000119444
5.9929e-05
0.000106762
5.64291e-05
9.2972e-05
5.17802e-05
7.90909e-05
4.64499e-05
6.59049e-05
4.08186e-05
5.38939e-05
3.51544e-05
4.32658e-05
2.96178e-05
3.40312e-05
2.4281e-05
2.60802e-05
1.91522e-05
1.92432e-05
1.41983e-05
1.33309e-05
9.37006e-06
8.15514e-06
4.63033e-06
3.53835e-06
-1.11625e-08
-6.68367e-07
-4.5308e-06
-4.47039e-06
-8.92249e-06
-7.7207e-06
-1.31695e-05
-1.02813e-05
-1.72033e-05
-1.20374e-05
-2.08887e-05
-1.29052e-05
-2.40404e-05
-1.28615e-05
-2.64468e-05
-1.19197e-05
-2.78154e-05
-1.01314e-05
-2.78757e-05
-7.64101e-06
-4.66349e-06
-2.6392e-05
6.97866e-05
0.000126871
7.10873e-05
0.000118143
7.04574e-05
0.000107392
6.81005e-05
9.53289e-05
6.44061e-05
8.27853e-05
5.98147e-05
7.04963e-05
5.47227e-05
5.89859e-05
4.94364e-05
4.8552e-05
4.41622e-05
3.93054e-05
3.90162e-05
3.12263e-05
3.40427e-05
2.42167e-05
2.92349e-05
1.81386e-05
2.45584e-05
1.28317e-05
1.99914e-05
8.10533e-06