/*--------------------------------*- C++ -*----------------------------------*\
| =========                 |                                                 |
| \\      /  F ield         | OpenFOAM: The Open Source CFD Toolbox           |
|  \\    /   O peration     | Version:  v2012                                 |
|   \\  /    A nd           | Website:  www.openfoam.com                      |
|    \\/     M anipulation  |                                                 |
\*---------------------------------------------------------------------------*/
FoamFile
{
    version     2.0;
    format      ascii;
    class       volVectorField;
    location    "642";
    object      U;
}
// * * * * * * * * * * * * * * * * * * * * * * * * * * * * * * * * * * * * * //

dimensions      [0 1 -1 0 0 0 0];


internalField   nonuniform List<vector> 
6532
(
(7.02652e-05 -0.999776 0)
(0.000182924 -1.00003 0)
(0.000125793 -1.00002 0)
(6.52693e-05 -1.00001 0)
(2.02454e-05 -1.00001 0)
(-2.00967e-05 -1.00001 0)
(-6.51445e-05 -1.00001 0)
(-0.000125713 -1.00002 0)
(-0.000182907 -1.00003 0)
(-7.02598e-05 -0.999776 0)
(0.000283974 -0.999503 0)
(0.000339711 -1.00012 0)
(0.000259475 -1.00013 0)
(0.000154708 -1.00011 0)
(5.10477e-05 -1.0001 0)
(-5.05926e-05 -1.0001 0)
(-0.000154324 -1.00011 0)
(-0.000259203 -1.00013 0)
(-0.000339669 -1.00012 0)
(-0.000283959 -0.999503 0)
(0.000350311 -0.999101 0)
(0.000385764 -1.00014 0)
(0.000312284 -1.00026 0)
(0.000200095 -1.00026 0)
(6.82106e-05 -1.00025 0)
(-6.73316e-05 -1.00025 0)
(-0.000199318 -1.00026 0)
(-0.000311673 -1.00026 0)
(-0.000385234 -1.00014 0)
(-0.000350144 -0.999101 0)
(0.000354083 -0.998649 0)
(0.000379967 -1.00013 0)
(0.000321585 -1.00037 0)
(0.000214754 -1.00043 0)
(7.4615e-05 -1.00043 0)
(-7.31398e-05 -1.00043 0)
(-0.000213434 -1.00043 0)
(-0.000320516 -1.00037 0)
(-0.00037926 -1.00013 0)
(-0.000353744 -0.99865 0)
(0.000341202 -0.998215 0)
(0.000365612 -1.0001 0)
(0.000316454 -1.00048 0)
(0.000214057 -1.00059 0)
(7.54413e-05 -1.00062 0)
(-7.31064e-05 -1.00062 0)
(-0.000211948 -1.00059 0)
(-0.000314734 -1.00048 0)
(-0.000364526 -1.00011 0)
(-0.000340649 -0.998216 0)
(0.00032325 -0.997812 0)
(0.000344765 -1.00008 0)
(0.000305961 -1.00057 0)
(0.000207431 -1.00074 0)
(7.3799e-05 -1.00079 0)
(-7.02156e-05 -1.00079 0)
(-0.000204193 -1.00074 0)
(-0.0003034 -1.00058 0)
(-0.000343064 -1.00008 0)
(-0.000322397 -0.997815 0)
(0.000304927 -0.997435 0)
(0.000324108 -1.00005 0)
(0.000289619 -1.00066 0)
(0.000197488 -1.00088 0)
(7.10039e-05 -1.00096 0)
(-6.55361e-05 -1.00096 0)
(-0.000192554 -1.00089 0)
(-0.000285748 -1.00067 0)
(-0.000321483 -1.00005 0)
(-0.000303679 -0.997439 0)
(0.000288192 -0.997078 0)
(0.00030567 -1.00002 0)
(0.000274025 -1.00075 0)
(0.000187561 -1.00102 0)
(6.8448e-05 -1.00112 0)
(-6.00903e-05 -1.00112 0)
(-0.000180016 -1.00102 0)
(-0.000268046 -1.00075 0)
(-0.000301648 -1.00003 0)
(-0.000286324 -0.997085 0)
(0.000273793 -0.996739 0)
(0.000290267 -0.999998 0)
(0.000261115 -1.00083 0)
(0.00017934 -1.00115 0)
(6.6985e-05 -1.00127 0)
(-5.4233e-05 -1.00127 0)
(-0.000167825 -1.00115 0)
(-0.000251956 -1.00083 0)
(-0.000284134 -1.00001 0)
(-0.00027092 -0.996751 0)
(0.000261904 -0.996415 0)
(0.000278155 -0.999976 0)
(0.000251299 -1.0009 0)
(0.000173566 -1.00127 0)
(6.71595e-05 -1.00141 0)
(-4.77525e-05 -1.00141 0)
(-0.000156036 -1.00128 0)
(-0.000237353 -1.00091 0)
(-0.000268865 -0.999991 0)
(-0.000257531 -0.996433 0)
(0.000252457 -0.996102 0)
(0.000269344 -0.999955 0)
(0.000244811 -1.00097 0)
(0.00017078 -1.00138 0)
(6.95591e-05 -1.00155 0)
(-4.0101e-05 -1.00155 0)
(-0.000144179 -1.0014 0)
(-0.000223667 -1.00099 0)
(-0.000255321 -0.999978 0)
(-0.000245879 -0.996129 0)
(0.000245379 -0.995797 0)
(0.000263994 -0.999933 0)
(0.00024207 -1.00104 0)
(0.000171624 -1.00149 0)
(7.50055e-05 -1.00168 0)
(-3.04063e-05 -1.00168 0)
(-0.000131426 -1.00151 0)
(-0.000210108 -1.00107 0)
(-0.000242784 -0.999968 0)
(-0.00023555 -0.995839 0)
(0.000240752 -0.995496 0)
(0.000262608 -0.99991 0)
(0.000244029 -1.0011 0)
(0.000177208 -1.0016 0)
(8.47958e-05 -1.0018 0)
(-1.73389e-05 -1.00181 0)
(-0.000116575 -1.00162 0)
(-0.000195697 -1.00114 0)
(-0.000230487 -0.999963 0)
(-0.000226119 -0.995561 0)
(0.000238861 -0.995196 0)
(0.000265936 -0.999882 0)
(0.00025213 -1.00116 0)
(0.000189502 -1.0017 0)
(0.000101046 -1.00192 0)
(1.13077e-06 -1.00193 0)
(-9.79628e-05 -1.00174 0)
(-0.000179301 -1.00122 0)
(-0.000217753 -0.999964 0)
(-0.000217249 -0.995294 0)
(0.00024013 -0.994892 0)
(0.000274844 -0.999848 0)
(0.00026757 -1.00121 0)
(0.000211609 -1.00179 0)
(0.00012701 -1.00203 0)
(2.80775e-05 -1.00206 0)
(-7.32688e-05 -1.00185 0)
(-0.00015968 -1.00131 0)
(-0.000204255 -0.999971 0)
(-0.000208965 -0.99504 0)
(0.000245551 -0.994577 0)
(0.000292279 -0.999803 0)
(0.000295802 -1.00125 0)
(0.000248212 -1.00187 0)
(0.000168036 -1.00215 0)
(6.84124e-05 -1.00218 0)
(-3.90861e-05 -1.00198 0)
(-0.000135665 -1.0014 0)
(-0.000190198 -0.99999 0)
(-0.00020238 -0.994797 0)
(0.000256577 -0.994244 0)
(0.000322237 -0.999741 0)
(0.000342005 -1.00128 0)
(0.000306753 -1.00195 0)
(0.00023099 -1.00226 0)
(0.000129912 -1.00232 0)
(1.00017e-05 -1.00211 0)
(-0.000106667 -1.00151 0)
(-0.000180068 -1.00002 0)
(-0.000201995 -0.994561 0)
(0.000275296 -0.993878 0)
(0.000370489 -0.999651 0)
(0.000415218 -1.00128 0)
(0.000399655 -1.00201 0)
(0.000333839 -1.00237 0)
(0.000227013 -1.00246 0)
(8.34313e-05 -1.00228 0)
(-7.64488e-05 -1.00167 0)
(-0.000194318 -1.0001 0)
(-0.000223848 -0.994302 0)
(0.000304538 -0.993461 0)
(0.000444914 -0.999518 0)
(0.000528804 -1.00125 0)
(0.000545327 -1.00205 0)
(0.000501532 -1.00247 0)
(0.000392508 -1.00262 0)
(0.000215631 -1.00249 0)
(-1.55361e-05 -1.00189 0)
(-0.000206064 -1.00018 0)
(-0.000164046 -0.99399 0)
(0.00034765 -0.992968 0)
(0.000554938 -0.99932 0)
(0.00069895 -1.00116 0)
(0.000769012 -1.00205 0)
(0.000763361 -1.00255 0)
(0.000664884 -1.00281 0)
(0.000429187 -1.00279 0)
(2.03251e-05 -1.00232 0)
(-0.000596034 -1.00088 0)
(-0.000828009 -0.996398 0)
(0.000410821 -0.992353 0)
(0.000713069 -0.99902 0)
(0.000950464 -1.00098 0)
(0.00111362 -1.00197 0)
(0.00119909 -1.00258 0)
(0.00120328 -1.00297 0)
(0.00108648 -1.00318 0)
(0.000987479 -1.00293 0)
(0.00188587 -1.00083 0)
(0.00926195 -0.981536 0)
(0.00049863 -0.991578 0)
(0.000927139 -0.998571 0)
(0.00129793 -1.00066 0)
(0.00159763 -1.00174 0)
(0.00182764 -1.00245 0)
(0.00200443 -1.00294 0)
(0.00213245 -1.00314 0)
(0.00209093 -1.00277 0)
(0.00260545 -0.999235 0)
(0.0168025 -0.963556 0)
(0.000610073 -0.990592 0)
(0.00119732 -0.997924 0)
(0.00173913 -1.00013 0)
(0.00221202 -1.00131 0)
(0.00261866 -1.0021 0)
(0.00299192 -1.00263 0)
(0.0033938 -1.00279 0)
(0.00369497 -1.0019 0)
(0.00377463 -0.996481 0)
(0.0208798 -0.948481 0)
(0.000745245 -0.989348 0)
(0.00152439 -0.99703 0)
(0.00227391 -0.999363 0)
(0.00295585 -1.00062 0)
(0.00357482 -1.00148 0)
(0.0041731 -1.00203 0)
(0.00488337 -1.00204 0)
(0.00582024 -1.00037 0)
(0.00602901 -0.992136 0)
(0.02447 -0.931621 0)
(0.000905447 -0.987795 0)
(0.00191197 -0.995844 0)
(0.00290735 -0.998304 0)
(0.00383504 -0.999645 0)
(0.00470405 -1.00055 0)
(0.00556075 -1.00109 0)
(0.00656645 -1.00084 0)
(0.00810017 -0.998145 0)
(0.00882985 -0.986239 0)
(0.026932 -0.91254 0)
(0.00109322 -0.98588 0)
(0.00236654 -0.994312 0)
(0.00364883 -0.996907 0)
(0.00485994 -0.998331 0)
(0.00601375 -0.999279 0)
(0.00716048 -0.99975 0)
(0.00846661 -0.999155 0)
(0.0105286 -0.995225 0)
(0.0120541 -0.979159 0)
(0.0290372 -0.894187 0)
(0.00131268 -0.983539 0)
(0.00289798 -0.992379 0)
(0.00451415 -0.995118 0)
(0.00605248 -0.996629 0)
(0.00753105 -0.997614 0)
(0.0090051 -0.997997 0)
(0.0106349 -0.996977 0)
(0.0131571 -0.991661 0)
(0.0156453 -0.97118 0)
(0.030559 -0.877249 0)
(0.00156907 -0.980702 0)
(0.00352006 -0.98998 0)
(0.00552771 -0.992874 0)
(0.00744864 -0.994482 0)
(0.00930558 -0.995506 0)
(0.0111621 -0.995784 0)
(0.013175 -0.994285 0)
(0.0161326 -0.987498 0)
(0.0196196 -0.962651 0)
(0.0327572 -0.862104 0)
(0.00187185 -0.977276 0)
(0.00425939 -0.987023 0)
(0.00671782 -0.990092 0)
(0.00909262 -0.99181 0)
(0.0113976 -0.992875 0)
(0.0137106 -0.993031 0)
(0.0162032 -0.990995 0)
(0.0196399 -0.982646 0)
(0.0240175 -0.95361 0)
(0.0365245 -0.848246 0)
(0.00223066 -0.973157 0)
(0.00512769 -0.983468 0)
(0.00812027 -0.986685 0)
(0.0110306 -0.988516 0)
(0.0138621 -0.989623 0)
(0.0167067 -0.989637 0)
(0.0197587 -0.987004 0)
(0.0237209 -0.977002 0)
(0.0288123 -0.944029 0)
(0.0407563 -0.836022 0)
(0.00264669 -0.968227 0)
(0.00613825 -0.979104 0)
(0.00977641 -0.982537 0)
(0.0133091 -0.984493 0)
(0.0167538 -0.985643 0)
(0.020207 -0.985503 0)
(0.0238782 -0.98225 0)
(0.0283784 -0.970597 0)
(0.0342067 -0.934135 0)
(0.0451173 -0.825708 0)
(0.00313229 -0.962351 0)
(0.00732484 -0.973846 0)
(0.0117182 -0.977521 0)
(0.0159786 -0.979617 0)
(0.0201394 -0.980821 0)
(0.0242938 -0.980536 0)
(0.0286543 -0.97668 0)
(0.0337428 -0.963474 0)
(0.0403038 -0.924012 0)
(0.0499165 -0.817323 0)
(0.00369917 -0.955363 0)
(0.00871443 -0.967545 0)
(0.013987 -0.971488 0)
(0.0191006 -0.973747 0)
(0.0240989 -0.975025 0)
(0.0290681 -0.974619 0)
(0.0342059 -0.970211 0)
(0.0399724 -0.955598 0)
(0.0470402 -0.914104 0)
(0.0554479 -0.810679 0)
(0.00435799 -0.947072 0)
(0.010335 -0.96002 0)
(0.0166321 -0.964265 0)
(0.022744 -0.966711 0)
(0.0287214 -0.968092 0)
(0.0346404 -0.967608 0)
(0.0406716 -0.962743 0)
(0.0471818 -0.947041 0)
(0.0546288 -0.904503 0)
(0.062017 -0.805516 0)
(0.00511934 -0.937266 0)
(0.0122149 -0.951071 0)
(0.0197034 -0.955653 0)
(0.026979 -0.958315 0)
(0.0340991 -0.959833 0)
(0.0411266 -0.95933 0)
(0.0481941 -0.954147 0)
(0.0555488 -0.937758 0)
(0.0633649 -0.895164 0)
(0.0699763 -0.801555 0)
(0.00599204 -0.925712 0)
(0.0143797 -0.940468 0)
(0.0232469 -0.945429 0)
(0.0318719 -0.948335 0)
(0.0403209 -0.950025 0)
(0.0486411 -0.949575 0)
(0.0569188 -0.944251 0)
(0.0652681 -0.927629 0)
(0.0735575 -0.885932 0)
(0.0796972 -0.798467 0)
(0.00698483 -0.912157 0)
(0.0168503 -0.927966 0)
(0.0273013 -0.933347 0)
(0.037479 -0.936522 0)
(0.0474624 -0.938419 0)
(0.0572836 -0.9381 0)
(0.0669767 -0.932828 0)
(0.0765204 -0.916441 0)
(0.0854884 -0.876518 0)
(0.091535 -0.795822 0)
(0.00808005 -0.896277 0)
(0.0196228 -0.913264 0)
(0.0318916 -0.919128 0)
(0.0438397 -0.922598 0)
(0.055576 -0.924732 0)
(0.0671231 -0.924618 0)
(0.0784624 -0.919591 0)
(0.0894437 -0.903887 0)
(0.0993832 -0.866507 0)
(0.105795 -0.793077 0)
(0.00928444 -0.878476 0)
(0.0226697 -0.896468 0)
(0.0369296 -0.902854 0)
(0.0508153 -0.906636 0)
(0.0644806 -0.909023 0)
(0.0779415 -0.909168 0)
(0.0911308 -0.90455 0)
(0.103787 -0.889897 0)
(0.115025 -0.855612 0)
(0.122306 -0.78965 0)
(0.010636 -0.858081 0)
(0.0260077 -0.877471 0)
(0.0423906 -0.884409 0)
(0.0583617 -0.888511 0)
(0.0741121 -0.891157 0)
(0.089656 -0.891598 0)
(0.104886 -0.887509 0)
(0.119453 -0.874173 0)
(0.132335 -0.84334 0)
(0.141005 -0.784883 0)
(0.0121183 -0.834846 0)
(0.0296453 -0.855771 0)
(0.0483327 -0.863293 0)
(0.0665687 -0.867724 0)
(0.0845794 -0.870627 0)
(0.10239 -0.871382 0)
(0.119868 -0.867906 0)
(0.136603 -0.85608 0)
(0.151501 -0.828937 0)
(0.162109 -0.777998 0)
(0.0137097 -0.808464 0)
(0.0335496 -0.831139 0)
(0.0547078 -0.839299 0)
(0.0753644 -0.844072 0)
(0.0957807 -0.847226 0)
(0.116009 -0.848296 0)
(0.135904 -0.845471 0)
(0.155032 -0.835242 0)
(0.172286 -0.811844 0)
(0.185349 -0.768242 0)
(0.0154012 -0.778679 0)
(0.0376996 -0.80336 0)
(0.061466 -0.812239 0)
(0.0846631 -0.817382 0)
(0.107588 -0.820788 0)
(0.130335 -0.82216 0)
(0.152765 -0.819982 0)
(0.17445 -0.811339 0)
(0.194332 -0.791563 0)
(0.210287 -0.754908 0)
(0.0171867 -0.745287 0)
(0.0420738 -0.772267 0)
(0.0685528 -0.781978 0)
(0.0943692 -0.787544 0)
(0.119855 -0.791215 0)
(0.145161 -0.792878 0)
(0.170175 -0.791307 0)
(0.1945 -0.784152 0)
(0.217181 -0.767719 0)
(0.236332 -0.737417 0)
(0.0190622 -0.708102 0)
(0.0466525 -0.737735 0)
(0.0759136 -0.748436 0)
(0.104385 -0.754513 0)
(0.132428 -0.758489 0)
(0.160268 -0.760437 0)
(0.187831 -0.759418 0)
(0.214783 -0.753589 0)
(0.240302 -0.740107 0)
(0.262782 -0.715396 0)
(0.0210279 -0.666946 0)
(0.0514239 -0.699665 0)
(0.0835033 -0.711581 0)
(0.11462 -0.718304 0)
(0.145159 -0.722665 0)
(0.175436 -0.724922 0)
(0.205432 -0.724402 0)
(0.234892 -0.71971 0)
(0.263151 -0.708718 0)
(0.288896 -0.688731 0)
(0.0230911 -0.621635 0)
(0.0563919 -0.657982 0)
(0.0912949 -0.671427 0)
(0.125001 -0.679001 0)
(0.157915 -0.68388 0)
(0.190463 -0.686509 0)
(0.222696 -0.686459 0)
(0.254446 -0.68272 0)
(0.285215 -0.673752 0)
(0.313978 -0.657598 0)
(0.025268 -0.571972 0)
(0.06158 -0.612627 0)
(0.0992842 -0.628042 0)
(0.135476 -0.636756 0)
(0.170584 -0.64235 0)
(0.205174 -0.645463 0)
(0.239377 -0.645893 0)
(0.273121 -0.642958 0)
(0.306062 -0.635592 0)
(0.337447 -0.622433 0)
(0.0275852 -0.517725 0)
(0.0670331 -0.563556 0)
(0.107488 -0.581545 0)
(0.146006 -0.591791 0)
(0.183066 -0.598363 0)
(0.219407 -0.602125 0)
(0.255262 -0.60309 0)
(0.290645 -0.600861 0)
(0.325357 -0.594751 0)
(0.358874 -0.583869 0)
(0.0300831 -0.458604 0)
(0.0728121 -0.510736 0)
(0.115927 -0.532124 0)
(0.156543 -0.544411 0)
(0.195242 -0.552286 0)
(0.232993 -0.556898 0)
(0.270141 -0.55849 0)
(0.306786 -0.556917 0)
(0.342847 -0.551805 0)
(0.377985 -0.542631 0)
(0.0327946 -0.394263 0)
(0.0789761 -0.454186 0)
(0.124581 -0.480049 0)
(0.166969 -0.494999 0)
(0.20692 -0.504547 0)
(0.245692 -0.510229 0)
(0.283761 -0.512552 0)
(0.321297 -0.511618 0)
(0.358312 -0.507322 0)
(0.394603 -0.499433 0)
(0.0358767 -0.324259 0)
(0.0854847 -0.39399 0)
(0.133232 -0.425772 0)
(0.176978 -0.444101 0)
(0.217745 -0.455672 0)
(0.257123 -0.4626 0)
(0.295746 -0.465724 0)
(0.333845 -0.465409 0)
(0.371487 -0.461792 0)
(0.408558 -0.454884 0)
(0.0392642 -0.248738 0)
(0.092217 -0.330696 0)
(0.141294 -0.369472 0)
(0.185806 -0.392086 0)
(0.226966 -0.406143 0)
(0.266592 -0.414468 0)
(0.305479 -0.418403 0)
(0.343901 -0.418647 0)
(0.381956 -0.415581 0)
(0.419573 -0.40943 0)
(0.0397692 -0.164884 0)
(0.0965819 -0.267507 0)
(0.14752 -0.313497 0)
(0.192538 -0.339989 0)
(0.233563 -0.356456 0)
(0.273048 -0.366157 0)
(0.311987 -0.370833 0)
(0.350626 -0.371526 0)
(0.389033 -0.368873 0)
(0.42714 -0.363288 0)
(0.0326681 -0.0771842 0)
(0.0906641 -0.192036 0)
(0.145943 -0.254241 0)
(0.19363 -0.287988 0)
(0.235318 -0.307256 0)
(0.274792 -0.318057 0)
(0.313808 -0.323175 0)
(0.352747 -0.324083 0)
(0.391645 -0.321651 0)
(0.430399 -0.31645 0)
(0.019851 -0.0140947 0)
(0.0706038 -0.113164 0)
(0.128585 -0.187765 0)
(0.181337 -0.232299 0)
(0.226648 -0.256849 0)
(0.268057 -0.269561 0)
(0.308239 -0.275103 0)
(0.348166 -0.275965 0)
(0.38808 -0.273496 0)
(0.427929 -0.268478 0)
(0.00790606 0.024289 0)
(0.044544 -0.0434453 0)
(0.0961551 -0.117122 0)
(0.150192 -0.169556 0)
(0.200099 -0.201048 0)
(0.246107 -0.217735 0)
(0.289959 -0.224919 0)
(0.332788 -0.226218 0)
(0.375132 -0.223821 0)
(0.41714 -0.218974 0)
(-0.00563454 0.0426145 0)
(0.020262 0.00328073 0)
(0.0569772 -0.0548868 0)
(0.102652 -0.104693 0)
(0.152045 -0.138576 0)
(0.20207 -0.158698 0)
(0.251341 -0.1686 0)
(0.29949 -0.171621 0)
(0.346572 -0.170223 0)
(0.39274 -0.166089 0)
(-0.0209548 0.0429552 0)
(-0.00957268 0.0206783 0)
(0.0136683 -0.0134693 0)
(0.0458248 -0.0494173 0)
(0.0877103 -0.0772184 0)
(0.13693 -0.094992 0)
(0.190255 -0.104384 0)
(0.24441 -0.108209 0)
(0.297777 -0.107916 0)
(0.350041 -0.104743 0)
(-0.0258545 0.012074 0)
(-0.0443812 0.00104295 0)
(-0.0497924 -0.0151338 0)
(-0.025129 -0.0293059 0)
(0.00811503 -0.0407089 0)
(0.0530338 -0.0464786 0)
(0.105212 -0.0499846 0)
(0.166167 -0.0526941 0)
(0.228634 -0.053364 0)
(0.288655 -0.0518145 0)
(-0.0402302 -0.156141 0)
(-0.119471 0.0121118 0)
(-0.105157 0.0175693 0)
(-0.0904427 0.0193147 0)
(-0.0738812 0.0215089 0)
(-0.0548264 0.0229066 0)
(-0.0344319 0.0234075 0)
(-0.015271 0.0235966 0)
(0.00386382 0.0233985 0)
(0.0225602 0.0219245 0)
(0.0399856 0.0205314 0)
(0.0578243 0.0188539 0)
(0.0724661 0.0162808 0)
(0.0844779 0.0132735 0)
(0.0938164 0.0101099 0)
(0.100138 0.00702109 0)
(0.103254 0.00406523 0)
(0.10286 0.000472845 0)
(0.0987333 -0.00348449 0)
(0.0905273 -0.00759336 0)
(0.0780659 -0.011683 0)
(0.0614386 -0.0153704 0)
(0.041032 -0.0170893 0)
(0.0186191 -0.0144921 0)
(0.00404237 -0.00751688 0)
(-0.0235618 -0.230472 0)
(-0.0724852 -0.0113781 0)
(-0.0792794 0.0187116 0)
(-0.0755485 0.0275546 0)
(-0.0660705 0.0331646 0)
(-0.0532055 0.0369622 0)
(-0.0382482 0.039059 0)
(-0.0219753 0.0397905 0)
(-0.00513569 0.0392423 0)
(0.011315 0.0373787 0)
(0.0266037 0.0345524 0)
(0.0404138 0.0307956 0)
(0.0524483 0.0260251 0)
(0.0625856 0.0206598 0)
(0.0706252 0.0149436 0)
(0.0763612 0.00892902 0)
(0.079638 0.00257158 0)
(0.0805335 -0.0041475 0)
(0.0791124 -0.0112321 0)
(0.0752602 -0.0186994 0)
(0.0688146 -0.0263914 0)
(0.0594978 -0.0337046 0)
(0.0472239 -0.0387564 0)
(0.0297961 -0.0378783 0)
(0.0119926 -0.0277038 0)
(-0.00348171 -0.306197 0)
(-0.0527208 -0.0444408 0)
(-0.0665308 0.0134785 0)
(-0.0678559 0.0334735 0)
(-0.0624426 0.0449851 0)
(-0.0529018 0.0523586 0)
(-0.0408342 0.0566374 0)
(-0.0272407 0.0583771 0)
(-0.0129618 0.0579878 0)
(0.00124095 0.0557359 0)
(0.0147228 0.0518532 0)
(0.0270035 0.0465014 0)
(0.0377643 0.0398655 0)
(0.0467929 0.0322662 0)
(0.053907 0.0239918 0)
(0.0589759 0.0152345 0)
(0.0619425 0.00608837 0)
(0.0628411 -0.00347043 0)
(0.0617683 -0.0135212 0)
(0.0588121 -0.0240972 0)
(0.0540381 -0.0351073 0)
(0.0473879 -0.0460726 0)
(0.0387044 -0.0554184 0)
(0.0270413 -0.0591125 0)
(0.0139058 -0.0514365 0)
(0.00726529 -0.379408 0)
(-0.0449765 -0.0839647 0)
(-0.0632613 0.00259593 0)
(-0.067379 0.0358696 0)
(-0.0641312 0.054281 0)
(-0.0563856 0.0659107 0)
(-0.0460134 0.0728923 0)
(-0.0340702 0.0761302 0)
(-0.0213583 0.0762056 0)
(-0.00854174 0.0735424 0)
(0.00380444 0.068499 0)
(0.0151849 0.0614119 0)
(0.0252103 0.0526426 0)
(0.0335957 0.0426113 0)
(0.0401541 0.0317163 0)
(0.0448 0.0202671 0)
(0.047543 0.00845898 0)
(0.0484696 -0.00362809 0)
(0.0477047 -0.0160159 0)
(0.0453825 -0.0287743 0)
(0.0416254 -0.0419188 0)
(0.0364757 -0.0552122 0)
(0.0297739 -0.067605 0)
(0.0212861 -0.0759224 0)
(0.0129124 -0.0774107 0)
(0.0164943 -0.439905 0)
(-0.0363628 -0.133462 0)
(-0.0605225 -0.0157175 0)
(-0.0682508 0.0342013 0)
(-0.0677849 0.0611122 0)
(-0.061653 0.0774309 0)
(-0.0527618 0.0872101 0)
(-0.0421686 0.0920513 0)
(-0.0306563 0.0927939 0)
(-0.018841 0.0899854 0)
(-0.00727108 0.0840703 0)
(0.00355017 0.0754908 0)
(0.0131771 0.064751 0)
(0.0212623 0.0524162 0)
(0.0275903 0.0390452 0)
(0.0320924 0.0251023 0)
(0.0348259 0.0109002 0)
(0.0359309 -0.0034127 0)
(0.0355721 -0.0178311 0)
(0.0339136 -0.0324233 0)
(0.0311031 -0.0472411 0)
(0.0272203 -0.0621615 0)
(0.022146 -0.0764957 0)
(0.0155257 -0.0881812 0)
(0.0103017 -0.0948237 0)
(0.025014 -0.487558 0)
(-0.0250601 -0.186436 0)
(-0.0526811 -0.0417363 0)
(-0.0663627 0.0269343 0)
(-0.0694799 0.0643339 0)
(-0.0660894 0.0863166 0)
(-0.0592388 0.0993691 0)
(-0.0503805 0.106085 0)
(-0.0402632 0.107806 0)
(-0.0295133 0.105212 0)
(-0.0186754 0.0987906 0)
(-0.00828473 0.0890318 0)
(0.00115036 0.0765352 0)
(0.00919975 0.0620313 0)
(0.0155821 0.046292 0)
(0.0202059 0.0299897 0)
(0.0231507 0.0135877 0)
(0.0246005 -0.00269037 0)
(0.0247621 -0.0188283 0)
(0.0238279 -0.0349237 0)
(0.0219642 -0.0510823 0)
(0.0192716 -0.0672703 0)
(0.0157074 -0.0830283 0)
(0.01072 -0.0970813 0)
(0.00760834 -0.107066 0)
(0.0303878 -0.524316 0)
(-0.0118383 -0.237207 0)
(-0.0414126 -0.0746734 0)
(-0.0601005 0.0130476 0)
(-0.0675787 0.0622758 0)
(-0.0681174 0.0913689 0)
(-0.0643171 0.108476 0)
(-0.0578604 0.117676 0)
(-0.049612 0.12093 0)
(-0.0402526 0.119095 0)
(-0.0303269 0.11269 0)
(-0.0203991 0.102198 0)
(-0.0110605 0.0882756 0)
(-0.00284944 0.0718094 0)
(0.00384384 0.0538179 0)
(0.00885033 0.0352528 0)
(0.0122305 0.0167786 0)
(0.0141963 -0.0012856 0)
(0.0149959 -0.0189155 0)
(0.0148542 -0.0362523 0)
(0.0139606 -0.0534717 0)
(0.012437 -0.0706392 0)
(0.0103028 -0.0874912 0)
(0.00692347 -0.103246 0)
(0.0054739 -0.115643 0)
(0.0344638 -0.553187 0)
(0.000513589 -0.282397 0)
(-0.0296964 -0.10974 0)
(-0.0511684 -0.00700549 0)
(-0.0630973 0.0541493 0)
(-0.0678485 0.091022 0)
(-0.0678244 0.113269 0)
(-0.0642671 0.126 0)
(-0.0584198 0.13155 0)
(-0.0508973 0.131198 0)
(-0.0422102 0.125535 0)
(-0.0329047 0.114969 0)
(-0.0236441 0.100133 0)
(-0.0151077 0.0820389 0)
(-0.00785068 0.0619742 0)
(-0.00218288 0.0412203 0)
(0.00187485 0.0207343 0)
(0.00453427 0.00098905 0)
(0.00608545 -0.0179745 0)
(0.00679725 -0.0363555 0)
(0.00689034 -0.0544098 0)
(0.0065101 -0.072305 0)
(0.00571205 -0.089953 0)
(0.00386125 -0.106919 0)
(0.00383547 -0.121088 0)
(0.0382364 -0.575969 0)
(0.0106578 -0.322482 0)
(-0.0185145 -0.145476 0)
(-0.0415227 -0.0316335 0)
(-0.0569618 0.0401916 0)
(-0.0657918 0.0851688 0)
(-0.069479 0.113389 0)
(-0.0695026 0.1303 0)
(-0.066594 0.138941 0)
(-0.0614083 0.140924 0)
(-0.0544032 0.136914 0)
(-0.0460093 0.127184 0)
(-0.0369007 0.112201 0)
(-0.0279055 0.0930088 0)
(-0.0198003 0.0711406 0)
(-0.0131387 0.0482708 0)
(-0.00811307 0.0257565 0)
(-0.00456009 0.00432718 0)
(-0.00214327 -0.0159022 0)
(-0.000527269 -0.0351955 0)
(0.000557613 -0.0539136 0)
(0.00128315 -0.0723381 0)
(0.00172251 -0.0905412 0)
(0.00129333 -0.108365 0)
(0.0024521 -0.123925 0)
(0.0419767 -0.594286 0)
(0.0192012 -0.358017 0)
(-0.00822768 -0.180626 0)
(-0.0320684 -0.0591045 0)
(-0.0502264 0.021654 0)
(-0.0626219 0.0743744 0)
(-0.0701519 0.108417 0)
(-0.0738087 0.129961 0)
(-0.0742405 0.142455 0)
(-0.0718159 0.147628 0)
(-0.0669901 0.146271 0)
(-0.0599712 0.138509 0)
(-0.0512354 0.124463 0)
(-0.0417346 0.104996 0)
(-0.0324897 0.0817761 0)
(-0.0244069 0.0568858 0)
(-0.0180108 0.0322245 0)
(-0.0132913 0.00896838 0)
(-0.00986534 -0.01258 0)
(-0.00728997 -0.0327433 0)
(-0.00521182 -0.0520198 0)
(-0.0034177 -0.0708327 0)
(-0.00183164 -0.089425 0)
(-0.000940583 -0.10787 0)
(0.00113702 -0.124535 0)
(0.0457558 -0.609313 0)
(0.0266334 -0.389608 0)
(0.00107393 -0.214707 0)
(-0.0231337 -0.0884839 0)
(-0.043349 -0.00083758 0)
(-0.0588693 0.0586413 0)
(-0.0700166 0.0984506 0)
(-0.0773701 0.124813 0)
(-0.0813945 0.141627 0)
(-0.0822406 0.150669 0)
(-0.0798871 0.152961 0)
(-0.0749162 0.148395 0)
(-0.0670549 0.136677 0)
(-0.057226 0.118171 0)
(-0.0466509 0.0943933 0)
(-0.0366459 0.0677129 0)
(-0.0282919 0.0406853 0)
(-0.0219666 0.0152521 0)
(-0.017296 -0.00783817 0)
(-0.0136641 -0.028933 0)
(-0.0105708 -0.048732 0)
(-0.00772627 -0.067853 0)
(-0.00505373 -0.0867427 0)
(-0.00294069 -0.105726 0)
(-5.49022e-05 -0.123135 0)
(0.0500423 -0.622068 0)
(0.0334395 -0.418044 0)
(0.00955324 -0.247631 0)
(-0.0147552 -0.11911 0)
(-0.0365288 -0.0264468 0)
(-0.0547007 0.0386345 0)
(-0.0691267 0.0836544 0)
(-0.0800452 0.114684 0)
(-0.0877349 0.135922 0)
(-0.0922649 0.149624 0)
(-0.0932083 0.155976 0)
(-0.0905407 0.15606 0)
(-0.0844778 0.148218 0)
(-0.0749701 0.132349 0)
(-0.0632337 0.109376 0)
(-0.0509158 0.0815365 0)
(-0.0398109 0.0519211 0)
(-0.0310987 0.0236818 0)
(-0.0247113 -0.00143265 0)
(-0.0198124 -0.0236658 0)
(-0.0156276 -0.044019 0)
(-0.0117266 -0.0634175 0)
(-0.00801239 -0.0825863 0)
(-0.00476625 -0.102106 0)
(-0.00121346 -0.119867 0)
(0.0550292 -0.633455 0)
(0.0401177 -0.444121 0)
(0.0175841 -0.279524 0)
(-0.00668901 -0.150604 0)
(-0.0296679 -0.0545743 0)
(-0.0500359 0.0149408 0)
(-0.0672989 0.0644918 0)
(-0.0814592 0.0998157 0)
(-0.0926309 0.125245 0)
(-0.100781 0.143387 0)
(-0.10566 0.155172 0)
(-0.106297 0.160015 0)
(-0.10286 0.157869 0)
(-0.0950169 0.146631 0)
(-0.0830503 0.12658 0)
(-0.0686163 0.0991711 0)
(-0.0539471 0.0673463 0)
(-0.0413931 0.0354126 0)
(-0.0322084 0.00724883 0)
(-0.0255843 -0.0167247 0)
(-0.0201832 -0.0378998 0)
(-0.015271 -0.0576162 0)
(-0.0106275 -0.0770646 0)
(-0.00639534 -0.0971275 0)
(-0.00207937 -0.114888 0)
(0.0610038 -0.644087 0)
(0.0472331 -0.468497 0)
(0.0257312 -0.310574 0)
(0.00153838 -0.182729 0)
(-0.0223817 -0.0847059 0)
(-0.0445073 -0.011836 0)
(-0.0641508 0.0415151 0)
(-0.0811454 0.0806617 0)
(-0.0954798 0.109927 0)
(-0.10709 0.132194 0)
(-0.115661 0.148794 0)
(-0.120635 0.159579 0)
(-0.120954 0.163313 0)
(-0.116302 0.159121 0)
(-0.106077 0.144719 0)
(-0.0909386 0.120648 0)
(-0.0728422 0.0887158 0)
(-0.0547892 0.0527096 0)
(-0.0406117 0.0195873 0)
(-0.0311434 -0.00743045 0)
(-0.0241515 -0.0301451 0)
(-0.018234 -0.050536 0)
(-0.0127808 -0.070358 0)
(-0.00773038 -0.0909571 0)
(-0.00281916 -0.108471 0)
(0.0684317 -0.654345 0)
(0.0554316 -0.491685 0)
(0.034706 -0.340981 0)
(0.0106007 -0.215336 0)
(-0.0140334 -0.116434 0)
(-0.037544 -0.0411049 0)
(-0.0591378 0.0153382 0)
(-0.078502 0.0577578 0)
(-0.095583 0.0903657 0)
(-0.110344 0.116228 0)
(-0.12255 0.137057 0)
(-0.131645 0.153159 0)
(-0.136786 0.163463 0)
(-0.136742 0.166557 0)
(-0.130608 0.160888 0)
(-0.117672 0.143799 0)
(-0.098773 0.115943 0)
(-0.075663 0.0787715 0)
(-0.053387 0.0386781 0)
(-0.0379075 0.00537508 0)
(-0.0280454 -0.0203392 0)
(-0.0207279 -0.0421034 0)
(-0.0144353 -0.0626108 0)
(-0.0086745 -0.083747 0)
(-0.00335045 -0.100985 0)
(0.0778043 -0.664395 0)
(0.065385 -0.514022 0)
(0.0452805 -0.370886 0)
(0.0212817 -0.248289 0)
(-0.00386033 -0.149383 0)
(-0.0284368 -0.0723541 0)
(-0.0515418 -0.013432 0)
(-0.0727806 0.0317341 0)
(-0.0920964 0.067152 0)
(-0.10949 0.0959546 0)
(-0.12487 0.120166 0)
(-0.137873 0.140572 0)
(-0.147728 0.156736 0)
(-0.153316 0.167132 0)
(-0.15314 0.17022 0)
(-0.145797 0.163934 0)
(-0.130576 0.145098 0)
(-0.107197 0.113668 0)
(-0.077738 0.0702756 0)
(-0.0508845 0.0263211 0)
(-0.0337088 -0.00702301 0)
(-0.0232239 -0.0318756 0)
(-0.0155621 -0.0537137 0)
(-0.00904846 -0.0756944 0)
(-0.00357974 -0.0930482 0)
(0.0895945 -0.674179 0)
(0.077754 -0.535636 0)
(0.0582444 -0.400332 0)
(0.0344309 -0.281431 0)
(0.00898011 -0.183226 0)
(-0.0163638 -0.105102 0)
(-0.0405896 -0.0441684 0)
(-0.0632424 0.00330585 0)
(-0.0842407 0.0410619 0)
(-0.103643 0.072198 0)
(-0.121493 0.0989375 0)
(-0.137667 0.122466 0)
(-0.15168 0.142907 0)
(-0.162652 0.159465 0)
(-0.169285 0.170583 0)
(-0.169827 0.174306 0)
(-0.162405 0.168439 0)
(-0.145988 0.149619 0)
(-0.118044 0.114398 0)
(-0.0817027 0.0652205 0)
(-0.0484617 0.0165165 0)
(-0.0281781 -0.018142 0)
(-0.0162489 -0.0428317 0)
(-0.00794357 -0.0654594 0)
(-0.00300278 -0.0856607 0)
(0.104226 -0.683419 0)
(0.0931461 -0.556435 0)
(0.0743516 -0.429224 0)
(0.0508784 -0.314562 0)
(0.0253264 -0.217651 0)
(-0.000507591 -0.138915 0)
(-0.0255238 -0.0763531 0)
(-0.0491811 -0.0268736 0)
(-0.0713643 0.0128833 0)
(-0.0921689 0.0458944 0)
(-0.111749 0.074456 0)
(-0.130192 0.100032 0)
(-0.147326 0.123184 0)
(-0.162659 0.143694 0)
(-0.175317 0.160683 0)
(-0.183699 0.172719 0)
(-0.186738 0.177367 0)
(-0.181311 0.173554 0)
(-0.165021 0.156043 0)
(-0.134918 0.11942 0)
(-0.0922329 0.0670489 0)
(-0.0495647 0.0110685 0)
(-0.0200055 -0.0311835 0)
(-0.004239 -0.0578098 0)
(-0.00115411 -0.0830997 0)
(0.121614 -0.691468 0)
(0.111636 -0.575709 0)
(0.0938269 -0.456743 0)
(0.0709472 -0.346751 0)
(0.0455546 -0.251625 0)
(0.0195169 -0.172724 0)
(-0.0059783 -0.10887 0)
(-0.0302968 -0.0576286 0)
(-0.0532551 -0.0161087 0)
(-0.0749457 0.0184585 0)
(-0.0955999 0.0483461 0)
(-0.115449 0.0751603 0)
(-0.134571 0.0997602 0)
(-0.152812 0.122336 0)
(-0.169746 0.142534 0)
(-0.184589 0.159532 0)
(-0.196046 0.172146 0)
(-0.20213 0.178355 0)
(-0.202091 0.176821 0)
(-0.19017 0.161439 0)
(-0.16197 0.129362 0)
(-0.11925 0.0827331 0)
(-0.0656829 0.030569 0)
(-0.0147587 -0.0158121 0)
(0.0194419 -0.0532809 0)
(0.141759 -0.697753 0)
(0.133353 -0.593008 0)
(0.116935 -0.482502 0)
(0.0950012 -0.377634 0)
(0.0700779 -0.284775 0)
(0.0441117 -0.206131 0)
(0.0183967 -0.141295 0)
(-0.00632979 -0.0884893 0)
(-0.0297897 -0.0453223 0)
(-0.0520157 -0.00934313 0)
(-0.0732529 0.0216165 0)
(-0.0938362 0.04921 0)
(-0.114007 0.0744678 0)
(-0.133855 0.0978314 0)
(-0.153297 0.11926 0)
(-0.172066 0.138346 0)
(-0.189648 0.154372 0)
(-0.205165 0.166267 0)
(-0.217277 0.172581 0)
(-0.223523 0.172984 0)
(-0.222496 0.157708 0)
(-0.209072 0.130972 0)
(-0.184083 0.0965123 0)
(-0.144639 0.0584865 0)
(-0.107655 0.011362 0)
(0.164945 -0.701713 0)
(0.158729 -0.608053 0)
(0.144284 -0.506469 0)
(0.123814 -0.407363 0)
(0.0997888 -0.317374 0)
(0.0742407 -0.239456 0)
(0.0485911 -0.173979 0)
(0.0236962 -0.119799 0)
(-5.38448e-05 -0.0750516 0)
(-0.0225934 -0.0376556 0)
(-0.0441164 -0.00566202 0)
(-0.0649765 0.0225441 0)
(-0.0855171 0.0480899 0)
(-0.105967 0.0715774 0)
(-0.126436 0.0931277 0)
(-0.146949 0.112473 0)
(-0.167495 0.129085 0)
(-0.18801 0.142259 0)
(-0.208315 0.150961 0)
(-0.227835 0.153346 0)
(-0.245712 0.146291 0)
(-0.258765 0.125398 0)
(-0.265971 0.0878727 0)
(-0.272521 0.0344682 0)
(-0.276137 -0.0276774 0)
(0.190914 -0.702499 0)
(0.187591 -0.619975 0)
(0.175849 -0.52783 0)
(0.157529 -0.435236 0)
(0.134989 -0.348856 0)
(0.110329 -0.272258 0)
(0.0851093 -0.206557 0)
(0.0603287 -0.151273 0)
(0.0365136 -0.105059 0)
(0.0138332 -0.0662293 0)
(-0.00780231 -0.0331179 0)
(-0.0286748 -0.00423388 0)
(-0.0491384 0.0215715 0)
(-0.0694794 0.0450301 0)
(-0.089848 0.0663922 0)
(-0.110301 0.0854233 0)
(-0.13091 0.101525 0)
(-0.151807 0.11397 0)
(-0.173153 0.122021 0)
(-0.19514 0.124804 0)
(-0.217799 0.120928 0)
(-0.23938 0.108936 0)
(-0.255961 0.0857287 0)
(-0.265785 0.0503714 0)
(-0.266969 0.00492938 0)
(0.219172 -0.699231 0)
(0.219467 -0.627773 0)
(0.211264 -0.54556 0)
(0.195947 -0.460316 0)
(0.175666 -0.378433 0)
(0.152537 -0.303918 0)
(0.128251 -0.238558 0)
(0.103974 -0.182541 0)
(0.0803872 -0.13507 0)
(0.0577863 -0.0948769 0)
(0.0361861 -0.0605703 0)
(0.0154133 -0.0308451 0)
(-0.00479641 -0.00458746 0)
(-0.0247129 0.0190388 0)
(-0.0444638 0.0404509 0)
(-0.0640142 0.0595082 0)
(-0.0832972 0.0755865 0)
(-0.102326 0.0879548 0)
(-0.12104 0.0957628 0)
(-0.139505 0.0979535 0)
(-0.157416 0.0937134 0)
(-0.173922 0.0829357 0)
(-0.186721 0.0655712 0)
(-0.193103 0.0430665 0)
(-0.190511 0.0164588 0)
(0.248999 -0.691105 0)
(0.253562 -0.630414 0)
(0.249754 -0.558482 0)
(0.238419 -0.481431 0)
(0.221362 -0.405064 0)
(0.200619 -0.333577 0)
(0.17797 -0.269314 0)
(0.154746 -0.213096 0)
(0.131807 -0.164698 0)
(0.109609 -0.123304 0)
(0.0882957 -0.0878379 0)
(0.0677914 -0.0571837 0)
(0.0478986 -0.0302947 0)
(0.0284237 -0.00627086 0)
(0.00934665 0.01552 0)
(-0.00934477 0.0351646 0)
(-0.0275061 0.0519551 0)
(-0.0451462 0.0650516 0)
(-0.0621605 0.073591 0)
(-0.0780221 0.0770163 0)
(-0.0921277 0.0753276 0)