/*--------------------------------*- C++ -*----------------------------------*\
| =========                 |                                                 |
| \\      /  F ield         | OpenFOAM: The Open Source CFD Toolbox           |
|  \\    /   O peration     | Version:  v2012                                 |
|   \\  /    A nd           | Website:  www.openfoam.com                      |
|    \\/     M anipulation  |                                                 |
\*---------------------------------------------------------------------------*/
FoamFile
{
    version     2.0;
    format      ascii;
    class       volScalarField;
    location    "623";
    object      age;
}
// * * * * * * * * * * * * * * * * * * * * * * * * * * * * * * * * * * * * * //

dimensions      [0 0 1 0 0 0 0];


internalField   nonuniform List<scalar> 
6057
(
0.48925
0.464108
0.438965
0.413823
0.388684
0.36355
0.338421
0.313298
0.288182
0.263073
0.237972
0.21288
0.187796
0.162722
0.137657
0.112603
0.0875606
0.0625294
0.03751
0.0125018
0.487427
0.462447
0.437461
0.41247
0.387475
0.362478
0.337479
0.31248
0.28748
0.26248
0.23748
0.21248
0.187481
0.162482
0.137484
0.112487
0.0874899
0.0624936
0.0374971
0.0124996
0.486969
0.462033
0.437088
0.412137
0.38718
0.36222
0.337256
0.31229
0.28732
0.262349
0.237375
0.212399
0.187421
0.16244
0.137457
0.112472
0.0874832
0.0624918
0.0374973
0.0124997
0.4868
0.461879
0.43695
0.412013
0.387072
0.362126
0.337176
0.312222
0.287265
0.262305
0.237341
0.212374
0.187404
0.162429
0.137451
0.112469
0.0874829
0.0624924
0.0374978
0.0124998
0.486749
0.46183
0.436904
0.411972
0.387034
0.362093
0.337147
0.312198
0.287246
0.26229
0.23733
0.212366
0.187399
0.162427
0.13745
0.112469
0.0874834
0.0624928
0.037498
0.0124999
0.486772
0.461848
0.436916
0.41198
0.38704
0.362097
0.33715
0.3122
0.287247
0.26229
0.23733
0.212366
0.187399
0.162427
0.13745
0.112469
0.0874834
0.0624928
0.037498
0.0124999
0.486872
0.461931
0.436986
0.412038
0.387088
0.362137
0.337183
0.312227
0.287268
0.262307
0.237342
0.212375
0.187404
0.16243
0.137451
0.112469
0.087483
0.0624924
0.0374978
0.0124998
0.487092
0.462117
0.437147
0.412176
0.387207
0.362237
0.337268
0.312297
0.287325
0.262352
0.237377
0.2124
0.187422
0.162441
0.137457
0.112472
0.0874833
0.0624919
0.0374973
0.0124997
0.487596
0.462573
0.437541
0.412524
0.38751
0.362501
0.337494
0.312489
0.287486
0.262484
0.237482
0.212482
0.187482
0.162483
0.137484
0.112487
0.08749
0.0624936
0.0374971
0.0124996
0.485448
0.465225
0.438843
0.413943
0.388715
0.363581
0.338438
0.31331
0.288189
0.263078
0.237975
0.212881
0.187797
0.162722
0.137657
0.112603
0.0875606
0.0625294
0.03751
0.0125018
1.02348
0.995516
0.968219
0.941475
0.915184
0.889261
0.863632
0.838237
0.813021
0.787941
0.762959
0.738044
0.713171
0.688321
0.663479
0.638635
0.613784
0.588922
0.564047
0.539162
0.514269
1.0159
0.988376
0.961496
0.935145
0.909226
0.883655
0.858361
0.833283
0.808369
0.783576
0.758866
0.734209
0.709581
0.684964
0.660344
0.635712
0.611062
0.586392
0.561704
0.536998
0.512278
1.0125
0.985365
0.958821
0.932763
0.907097
0.881747
0.856646
0.831735
0.806968
0.782304
0.757707
0.73315
0.708611
0.684072
0.659522
0.634954
0.610362
0.585747
0.561109
0.536451
0.511776
1.01092
0.983955
0.957556
0.931623
0.906071
0.880822
0.855814
0.83099
0.806302
0.78171
0.75718
0.732684
0.708198
0.683706
0.659197
0.634662
0.610099
0.585507
0.560889
0.536249
0.511591
1.00987
0.983008
0.956705
0.930864
0.905397
0.88023
0.855299
0.830546
0.805925
0.781395
0.75692
0.732472
0.708028
0.68357
0.659088
0.634573
0.610024
0.585442
0.560829
0.536193
0.511537
1.00924
0.982475
0.956263
0.930501
0.905104
0.879998
0.855119
0.830412
0.805832
0.781337
0.756894
0.732475
0.708054
0.683614
0.659143
0.634634
0.610085
0.585498
0.560878
0.536232
0.511568
1.00941
0.982783
0.956666
0.930963
0.905594
0.880491
0.855599
0.830867
0.806255
0.781724
0.757246
0.732794
0.708345
0.683882
0.659392
0.634864
0.610294
0.585684
0.56104
0.53637
0.511685
1.01197
0.985275
0.959044
0.933197
0.907663
0.882381
0.857297
0.832365
0.80754
0.782794
0.758102
0.733448
0.70882
0.684227
0.659687
0.635144
0.610578
0.585974
0.561326
0.536639
0.511929
1.01064
0.984722
0.959589
0.935043
0.910895
0.887112
0.863431
0.839144
0.814386
0.789231
0.763874
0.738698
0.713457
0.688134
0.662801
0.637551
0.612383
0.587303
0.562303
0.537377
0.512522
1.04885
1.03433
1.02108
1.00808
0.9943
0.978779
0.96079
0.939921
0.91603
0.889235
0.859926
0.828598
0.795803
0.762124
0.728114
0.694233
0.660724
0.627726
0.59532
0.563403
0.53185
10.5658
11.0855
11.634
12.8589
2.73411
1.89988
1.69098
1.56589
1.47959
1.41156
1.35466
1.30509
1.26076
1.22033
1.18289
1.14781
1.11462
1.08297
1.05257
9.70328
11.2599
11.2187
6.89507
2.11217
1.7792
1.63148
1.52982
1.45379
1.39129
1.3378
1.29053
1.24785
1.20865
1.17219
1.13791
1.10541
1.07436
1.0445
9.30418
10.7522
7.76539
3.27862
1.88491
1.70124
1.58782
1.5022
1.43386
1.37595
1.32542
1.28023
1.2391
1.20113
1.16566
1.13222
1.10043
1.06999
1.04065
8.46158
8.00177
4.32283
2.05461
1.79896
1.65532
1.56084
1.48444
1.42114
1.36643
1.31804
1.27437
1.23436
1.19723
1.16241
1.12948
1.09808
1.06795
1.03886
7.12844
5.40098
2.6553
1.88334
1.74844
1.62831
1.54409
1.47319
1.41323
1.36067
1.31371
1.27102
1.23167
1.19501
1.16053
1.12784
1.09663
1.06665
1.0377
6.02251
3.71994
2.10016
1.83695
1.71777
1.61176
1.53327
1.46592
1.4082
1.35708
1.31104
1.26893
1.22997
1.19356
1.15926
1.12672
1.09564
1.06579
1.03695
5.23231
2.8534
1.97588
1.81349
1.69817
1.60129
1.52628
1.46144
1.40522
1.35496
1.30936
1.26746
1.22864
1.19239
1.1583
1.126
1.09518
1.06557
1.03695
4.62831
2.42753
1.93517
1.79902
1.68547
1.59471
1.52178
1.45833
1.40258
1.35249
1.3072
1.26599
1.22814
1.19287
1.15956
1.12783
1.09741
1.06803
1.03951
4.18837
2.25923
1.91512
1.78913
1.67745
1.59059
1.51879
1.45643
1.4021
1.35432
1.31161
1.27192
1.23356
1.1962
1.16088
1.1277
1.09625
1.06637
1.03781
3.8773
2.18571
1.90519
1.78237
1.67266
1.58829
1.51765
1.45692
1.40366
1.35408
1.30448
1.25413
1.20799
1.1759
1.1517
1.1282
1.10625
1.08562
1.06583
14.9419
23.0254
32.2252
42.0389
51.8848
61.2495
69.7189
77.0009
82.9302
87.4562
90.62
92.9274
94.437
95.2987
95.7492
96.0345
96.2128
96.3521
96.7308
96.9447
95.1416
62.7884
77.8396
90.5851
100.785
108.218
113.108
115.868
117.085
117.275
117.07
116.658
116.025
115.275
114.508
113.801
113.204
112.749
112.476
112.309
112.194
112.133
108.262
118.385
124.766
128.343
130.057
130.683
130.697
130.298
129.405
127.853
125.845
123.521
121.056
118.638
116.435
114.592
113.225
112.375
111.961
111.799
111.717
136.373
142.067
146.025
148.917
150.916
151.909
151.759
150.443
148.087
144.818
140.792
136.21
131.326
126.429
121.841
117.891
114.873
112.95
112.018
111.688
111.575
158.715
165.048
170.278
174.147
176.454
177.157
176.317
174.023
170.357
165.433
159.405
152.489
144.972
137.227
129.72
122.996
117.619
114.013
112.209
111.615
111.408
183.386
191.317
197.464
201.69
204.009
204.464
203.087
199.926
195.05
188.563
180.615
171.416
161.262
150.563
139.882
129.955
121.649
115.753
112.615
111.611
111.289
210.021
218.919
225.664
230.27
232.727
233.015
231.134
227.126
221.061
213.048
203.242
191.854
179.175
165.615
151.771
138.498
126.919
118.243
113.283
111.658
111.204
237.186
247.013
254.537
259.679
262.344
262.475
260.066
255.16
247.846
238.259
226.58
213.039
197.931
181.656
164.796
148.234
133.259
121.465
114.26
111.753
111.127
264.615
275.647
284.154
289.941
292.86
292.824
289.823
283.915
275.225
263.937
250.283
234.539
217.024
198.136
178.427
158.744
140.421
125.342
115.551
111.895
111.057
292.487
304.987
314.652
321.2
324.423
324.198
320.511
313.451
303.201
290.02
274.219
256.144
236.165
214.696
192.262
169.645
148.13
129.754
117.14
112.082
110.994
320.975
335.193
346.22
353.672
357.257
356.805
352.306
343.898
331.847
316.521
298.344
277.756
255.197
231.116
206.024
180.631
156.123
134.552
118.996
112.308
110.936
350.215
366.438
379.077
387.604
391.617
390.889
385.419
375.414
361.263
343.482
322.644
299.316
274.025
247.261
219.529
191.48
164.175
139.583
121.07
112.567
110.882
380.333
398.902
413.444
423.246
427.761
426.691
420.053
408.153
391.545
370.941
347.109
320.777
292.575
263.036
232.658
202.034
172.11
144.707
123.309
112.854
110.832
411.433
432.736
449.51
460.807
465.899
464.404
456.367
442.227
422.753
398.913
371.717
342.088
310.779
278.366
245.325
212.19
179.797
149.798
125.654
113.16
110.786
443.581
468.037
487.398
500.425
506.17
504.145
494.442
477.676
454.892
427.368
396.413
363.181
328.563
293.178
257.464
221.873
187.141
154.757
128.048
113.478
110.742
476.777
504.824
527.144
542.145
548.61
545.93
534.261
514.449
487.88
456.215
421.107
383.969
345.849
307.403
269.013
231.028
194.076
159.503
130.439
113.801
110.7
510.95
543.029
568.685
585.906
593.147
589.661
575.695
552.386
521.547
485.288
445.652
404.336
362.543
320.967
279.919
239.613
200.556
163.973
132.777
114.122
110.659
545.942
582.484
611.849
631.527
639.587
635.117
618.49
591.217
555.625
514.347
469.853
424.132
378.54
333.797
290.127
247.59
206.548
168.121
135.018
114.434
110.621
581.515
622.92
656.347
678.704
687.601
681.938
662.264
630.554
589.75
543.078
493.462
443.179
393.719
345.812
299.587
254.927
212.025
171.914
137.126
114.73
110.584
617.341
663.96
701.765
726.992
736.714
729.622
706.494
669.885
623.462
571.098
516.186
461.269
407.945
356.929
308.245
261.59
216.97
175.326
139.066
115.005
110.547
653.006
705.113
747.551
775.798
786.298
777.505
750.508
708.577
656.211
597.966
537.696
478.177
421.073
367.064
316.053
267.55
221.362
178.339
140.81
115.252
110.512
687.982
745.756
793.006
824.361
835.545
824.753
793.486
745.879
687.366
623.194
557.638
493.662
432.954
376.127
322.959
272.778
225.186
180.938
142.332
115.467
110.477
721.627
785.118
837.252
871.716
883.428
870.33
834.45
780.931
716.237
646.262
575.645
507.479
443.434
384.03
328.916
277.243
228.422
183.112
143.609
115.645
110.443
753.228
822.293
879.211
916.648
928.65
912.965
872.277
812.793
742.092
666.641
591.352
519.389
452.364
390.686
333.872
280.915
231.052
184.847
144.622
115.782
110.409
782.056
856.302
917.645
957.705
969.655
951.171
905.723
840.486
764.202
683.815
604.411
529.165
459.602
396.01
337.78
283.765
233.055
186.132
145.351
115.873
110.376
807.426
886.218
951.324
993.323
1004.72
983.369
933.512
863.052
781.88
697.31
614.505
536.6
465.017
399.921
340.59
285.76
234.405
186.95
145.779
115.914
110.342
828.683
911.015
978.79
1021.9
1031.82
1008.1
954.473
879.641
794.534
706.723
621.366
541.519
468.494
402.346
342.254
286.865
235.076
187.284
145.893
115.899
110.309
845.265
930.218
1000.37
1041.4
1048.31
1024.23
967.682
889.59
801.712
711.747
624.785
543.781
469.938
403.217
342.722
287.041
235.038
187.109
145.688
115.81
110.275
856.774
943.065
1013.1
1047.88
1053.39
1031.16
972.579
892.493
803.135
712.189
624.625
543.284
469.271
402.474
341.946
286.252
234.26
186.407
145.162
115.611
110.241
862.855
948.884
1017.66
1049.24
1052.08
1029.05
968.978
888.223
798.713
707.976
620.823
539.972
466.441
400.068
339.883
284.455
232.702
185.143
144.3
115.31
110.207
863.4
947.627
1014.03
1045.77
1047.47
1018.54
957.026
876.839
788.511
699.148
613.393
533.836
461.421
395.96
336.484
281.601
230.318
183.28
143.081
114.904
110.172
858.423
939.359
1001.95
1034.02
1033.58
998.887
937.165
858.81
772.826
685.89
602.436
524.918
454.211
390.121
331.705
277.637
227.059
180.777
141.475
114.39
110.137
848.116
924.435
981.893
1010.7
1006.4
970.577
910.352
834.8
752.108
668.497
588.132
513.308
444.839
382.537
325.503
272.506
222.869
177.599
139.467
113.775
110.1
832.833
903.461
954.848
978.795
971.6
935.663
877.623
805.59
726.935
647.364
570.73
499.144
433.359
373.206
317.838
266.152
217.693
173.706
137.046
113.072
110.062
813.056
877.223
922.04
940.774
931.05
895.5
840.125
772.093
697.984
622.965
550.535
482.601
419.852
362.139
308.675
258.515
211.478
169.066
134.204
112.3
110.02
789.357
846.601
884.704
898.415
886.455
851.537
799.037
735.243
665.968
595.818
527.897
463.89
404.423
349.362
297.983
249.541
204.174
163.658
130.951
111.49
109.976
762.354
812.488
844.008
853.024
839.118
804.991
755.438
695.949
631.614
566.464
503.186
443.241
387.193
334.908
285.736
239.184
195.753
157.485
127.324
110.68
109.927
732.685
775.753
801.01
805.752
790.174
756.933
710.298
655.057
595.62
535.435
476.776
420.896
368.295
318.818
271.917
227.416
186.215
150.589
123.402
109.885
109.885
700.974
737.209
756.645
757.543
740.556
708.262
664.469
613.335
558.625
503.225
449.023
397.096
347.863
301.135
256.521
214.243
175.612
143.074
119.33
109.214
109.925
667.81
697.577
711.696
709.191
691.046
659.745
618.682
571.444
521.182
470.263
420.251
372.065
326.02
281.902
239.574
199.736
164.082
135.135
115.383
108.789
110.044
633.721
657.474
666.805
661.33
642.269
611.999
573.534
529.915
483.731
436.901
390.736
346
302.87
261.171
221.162
184.074
151.899
127.115
112.141
108.708
110.27
599.169
617.414
622.471
614.446
594.71
565.505
529.468
489.129
446.584
403.408
360.706
319.051
278.487
239.028
201.491
167.616
139.537
119.567
109.706
108.622
110.64
564.538
577.801
579.105
568.929
548.733
520.59
486.756
449.302
409.941
369.98
330.32
291.305
252.942
215.67
180.976
150.98
127.746
113.286
108.37
108.796
111.248
530.134
538.938
536.981
525.018
504.537
477.398
445.491
410.522
373.914
336.74
299.656
262.792
226.372
191.524
160.366
135.132
117.615
109.425
108.22
109.648
112.075
496.172
501.017
496.249
482.817
462.16
435.903
405.636
372.794
338.554
303.722
268.696
233.563
199.143
167.424
140.862
121.456
110.71
107.957
109.278
111.429
112.993
462.767
464.118
456.936
442.272
421.471
395.955
367.094
336.088
303.835
270.853
237.39
203.878
172.12
144.772
124.145
111.759
107.848
109.278
111.98
113.812
113.953
429.931
428.197
418.915
403.18
382.247
357.389
329.772
300.317
269.623
238
205.865
174.536
146.892
125.607
112.321
107.805
109.408
113.206
116.455
116.966
115.013
397.581
393.097
381.962
365.305
344.31
320.086
293.542
265.286
235.709
205.189
174.835
147.281
125.878
112.364
107.644
109.575
114.85
120.66
123.101
120.96
116.149
365.596
358.64
345.897
328.516
307.555
283.897
258.15
230.718
202.057
173.057
146.104
124.917
111.892
107.372
109.766
116.707
125.705
131.825
131.609
125.508
117.457
333.885
324.744
310.676
292.749
271.814
248.524
223.265
196.567
169.31
143.461
122.922
110.958
107.129
110.004
118.515
130.631
141.392
145.631
141.03
130.114
118.642
302.486
291.457
276.262
257.793
236.745
213.62
188.862
163.605
139.438
119.985
109.598
106.795
110.146
120.037
134.646
149.75
159.791
160.208
150.188
134.248
119.538
271.504
258.716
242.374
223.263
202.07
179.263
155.929
134.125
116.267
107.765
106.369
110.22
121.178
137.265
155.279
170.642
177.858
173.245
157.764
137.406
120.1
240.775
226.138
208.648
189.054
168.161
146.71
127.312
112.302
105.552
105.755
110.452
122.035
138.328
157.046
175.533
189.098
192.358
182.548
162.626
139.254
120.314
209.81
193.555
175.323
155.993
136.725
119.413
108.07
103.637
104.95
111.178
123.032
138.009
155.095
173.396
190.648
201.335
201.486
186.659
163.878
139.267
120.395
178.832
161.902
143.625
126.397
111.754
103.868
102.243
104.721
112.497
124.131
136.632
149.911
165.575
182.242
196.812
205.076
198.649
183.698
161.071
137.248
120.472
149.767
132.83
116.077
105.108
100.452
101.266
105.787
114.984
125.816
134.427
142.922
154.039
167.728
180.881
190.391
193.437
187.924
174.114
154.133
133.457
120.551
124.513
108.208
99.1592
98.4003
101.6
109.137
118.924
127.439
131.788
135.042
141.985
150.703
160.026
168.589
174.343
175.29
170.265
159.203
143.92
128.733
120.636
103.065
94.3513
96.9525
105.67
115.7
124.556
127.378
127.501
129.002
131.828
135.628
140.431
145.543
150.022
152.764
152.713
149.187
142.173
132.981
124.483
120.736
87.2874
97.3768
111.037
124.412
126.155
125.519
125.288
125.3
125.579
126.274
127.445
129.001
130.715
132.218
133.067
132.855
131.304
128.45
124.889
121.902
120.86
82.2668
125.383
125.094
124.656
124.497
124.245
124.021
123.819
123.635
123.478
123.342
123.224
123.116
123.016
122.917
122.812
122.608
122.248
121.816
121.541
121.556
3.66245
2.14687
1.90102
1.77806
1.67037
1.58785
1.51839
1.45802
1.40211
1.34769
1.29946
1.27301
1.27841
1.36533
1.60193
2.1196
3.16257
5.17616
8.86689
3.51509
2.12521
1.9002
1.77599
1.6703
1.58934
1.52039
1.45784
1.39719
1.34394
1.32159
1.38265
1.66026
2.3614
4.1523
8.61765
17.4251
30.3006
46.1674
3.41336
2.11363
1.90164
1.77611
1.67238
1.59222
1.52102
1.45178
1.38716
1.35651
1.43035
1.77973
2.9861
7.15342
16.886
32.9924
53.4198
74.455
93.5067
3.34056
2.10822
1.90478
1.77826
1.67618
1.59515
1.51885
1.44472
1.39347
1.3944
1.55308
3.18754
9.35984
23.2778
44.6653
69.9056
94.1271
113.652
127.501
3.28684
2.10694
1.90936
1.78228
1.68108
1.59677
1.51346
1.43976
1.4164
1.52847
2.58495
9.34028
25.1293
49.8001
78.7785
105.734
126.636
141.102
151.11
3.24655
2.10865
1.91529
1.78787
1.68623
1.59685
1.50939
1.44897
1.45462
1.62635
6.76643
22.3191
48.174
80.068
110.425
134.077
150.8
163.296
173.949
3.21631
2.11268
1.92247
1.79466
1.69126
1.59614
1.50838
1.47067
1.55356
3.48476
15.8782
40.6743
74.1129
108.307
136.116
156.324
172.014
186.021
198.924
3.19389
2.11858
1.9308
1.80232
1.69579
1.59547
1.51596
1.4984
1.62288
7.97773
29.0346
61.707
99.0775
132.094
156.945
176.28
193.734
210.208
224.915
3.1777
2.12606
1.94017
1.8106
1.70017
1.59646
1.52777
1.56564
2.70015
15.6487
44.6656
82.8535
121.066
151.8
175.423
196.295
216.378
234.896
251.051
3.16662
2.13489
1.95044
1.81929
1.70483
1.60174
1.55275
1.61818
5.2667
25.6837
61.1577
102.456
139.786
168.905
193.334
216.815
239.262
259.504
277.283
3.15977
2.14489
1.96151
1.82847
1.71056
1.61023
1.5778
1.66629
9.38956
36.9671
77.2758
119.836
155.868
184.747
211.306
237.45
261.923
284.013
303.802
3.15647
2.15592
1.97328
1.83795
1.71652
1.62553
1.6205
2.04362
14.9847
48.6305
92.278
134.995
170.148
200.075
229.274
257.805
284.281
308.58
330.761
3.15618
2.16784
1.98567
1.84795
1.72468
1.64115
1.65912
3.06636
21.6332
60.0456
105.846
148.264
183.296
215.13
246.977
277.711
306.42
333.324
358.25
3.15844
2.18056
1.99862
1.85861
1.73502
1.66152
1.69061
4.67825
28.6505
70.8297
117.944
160.045
195.712
229.879
264.209
297.153
328.425
358.298
386.33
3.16288
2.19399
2.01211
1.87001
1.74731
1.68394
1.72113
6.78181
35.6554
80.7809
128.679
170.683
207.577
244.196
280.862
316.162
350.328
383.507
415.026
3.16922
2.20804
2.02609
1.88224
1.76122
1.70693
1.75178
9.26015
42.4089
89.8202
138.209
180.42
218.928
257.962
296.893
334.757
372.11
408.916
444.324
3.17723
2.22266
2.04056
1.89527
1.77651
1.73036
1.78249
11.9953
48.763
97.9498
146.695
189.41
229.742
271.088
312.288
352.922
393.714
434.456
474.15
3.18668
2.23779
2.05551
1.90916
1.79272
1.75293
1.81269
14.8672
54.6335
105.214
154.283
197.745
239.978
283.523
327.031
370.611
415.052
460.014
504.37
3.19742
2.25338
2.07091
1.92358
1.81009
1.77942
1.95597
17.8186
59.9823
111.679
161.089
205.476
249.599
295.238
341.1
387.755
436.009
485.437
534.784
3.20928
2.26939
2.08671
1.93846
1.82995
1.80932
2.19292
20.6551
64.8021
117.412
167.204
212.627
258.578
306.212
354.456
404.267
456.447
510.527
565.128
3.22214
2.28579
2.10291
1.95399
1.84905
1.83568
2.49188
23.2877
69.1018
122.477
172.692
219.207
266.892
316.428
367.056
420.044
476.2
535.043
595.073
3.2359
2.30254
2.11949
1.9702
1.86812
1.85999
2.8254
25.6799
72.9002
126.928
177.599
225.214
274.523
325.863
378.828
434.95
495.054
558.674
624.201
3.25046
2.31962
2.13645
1.98702
1.88739
1.88354
3.17041
27.8154
76.2205
130.812
181.959
230.647
281.451
334.483
389.693
448.834
512.768
581.06
652.012
3.26574
2.337
2.15375
2.00438
1.90689
1.90672
3.50807
29.688
79.0869
134.171
185.797
235.5
287.664
342.26
399.58
461.561
529.114
601.844
677.982
3.28168
2.35467
2.17139
2.02221
1.92658
1.92965
3.82335
31.2967
81.5227
137.037
189.131
239.771
293.154
349.172
408.425
473.006
543.876
620.684
701.6
3.29822
2.37261
2.18934
2.04047
1.94644
1.9524
4.10466
32.6444
83.5497
139.439
191.975
243.461
297.917
355.198
416.173
483.059
556.862
637.264
722.383
3.31532
2.39081
2.2076
2.05911
1.96645
1.97499
4.34346
33.7361
85.1875
141.401
194.343
246.573
301.951
360.323
422.779
491.626
567.903
651.306
739.903
3.33294
2.40925
2.22615
2.0781
1.98654
1.99745
4.53382
34.5781
86.4537
142.941
196.246
249.11
305.26
364.537
428.206
498.632
576.86
662.579
753.784
3.35107
2.42793
2.24497
2.0974
2.0071
2.0198
4.67211
35.1775
87.364
144.077
197.692
251.078
307.846
367.835
432.429
504.019
583.629
670.904
763.74
3.36969
2.44686
2.26407
2.11701
2.02788
2.04207
4.75678
35.5416
87.9312
144.823
198.692
252.483
309.715
370.214
435.433
507.75
588.138
676.158
769.57
3.38871
2.46601
2.28344
2.13692
2.04876
2.06425
4.78719
35.6789
88.1701
145.19
199.252
253.332
310.874
371.677
437.211
509.807
590.348
678.271
771.19
3.4082
2.48535
2.30306
2.15709
2.06975
2.08628
4.79362
35.5861
88.077
145.181
199.382
253.632
311.332
372.231
437.766
510.189
590.261
677.257
768.603
3.4277
2.50534
2.32285
2.17753
2.09087
2.10814
4.77964
35.271
87.6594
144.794
199.087
253.395
311.092
371.882
437.113
508.917
587.908
673.165
761.908
3.44723
2.52604
2.34281
2.19823
2.11214
2.12985
4.74691
34.7438
86.9245
144.033
198.369
252.63
310.162
370.642
435.274
506.027
583.348
666.105
751.301
3.46679
2.54743
2.36293
2.21918
2.13355
2.15144
4.6971
34.0167
85.8792
142.903
197.234
251.345
308.552
368.526
432.277
501.57
576.673
656.237
737.065
3.4864
2.5695
2.38322
2.24039
2.15511
2.17291
4.63204
33.1035
84.5295
141.406
195.683
249.547
306.273
365.55
428.156
495.61
568
643.764
719.55
3.50605
2.59222
2.40368
2.26185
2.17684
2.19429
4.55367
32.019
82.8816
139.543
193.717
247.241
303.338
361.734
422.951
488.227
557.467
628.927
699.15
3.52578
2.61562
2.42433
2.28356
2.19874
2.21557
4.46404
30.7797
80.9419
137.317
191.337
244.435
299.759
357.099
416.706
479.508
545.232
611.99
676.293
3.54557
2.63969
2.44518
2.30553
2.22082
2.23679
4.36524
29.4033
78.718
134.725
188.541
241.135
295.551
351.667
409.467
469.549
531.465
593.236
651.417
3.56545
2.66444
2.46624
2.32776
2.24311
2.25796
4.25939
27.9089
76.2189
131.77
185.327
237.345
290.729
345.464
401.284
458.449
516.344
572.954
624.953
3.58542
2.68989
2.48751
2.35024
2.26561
2.2791
4.14861
26.3169
73.4563
128.45
181.692
233.073
285.313
338.516
392.207
446.308
500.049
551.423
597.305
3.6055
2.71602
2.50902
2.37298
2.28834
2.30023
4.03497
24.6488
70.4446
124.767
177.635
228.322
279.318
330.852
382.286
433.224
482.748
528.908
568.841
3.62569
2.74286
2.53078
2.39597
2.31132
2.32137
3.92046
22.9272
67.2018
120.726
173.15
223.097
272.764
322.503
371.568
419.285
464.597
505.645
539.884
3.64601
2.77041
2.5528
2.41922
2.33456
2.34254
3.80696
21.1755
63.7504
116.332
168.237
217.401
265.67
313.5
360.102
404.569
445.726
481.836
510.699
3.66646
2.79865
2.5751
2.44273
2.35808
2.36377
3.69622
19.4175
60.1178
111.597
162.894
211.235
258.054
303.881
347.935
389.143
426.242
457.634
481.483
3.68706
2.82761
2.59768
2.46648
2.3819
2.38509
3.5898
17.677
56.3351
106.538
157.123
204.603
249.936
293.681
335.112
373.061
406.22
433.146
452.36
3.70781
2.85726
2.62056
2.49049
2.40602
2.40653
3.48907
15.9776
52.4449
101.179
150.931
197.507
241.333
282.939
321.683
356.375
385.715
408.428
423.377
3.72872
2.88759
2.64375
2.51475
2.43047
2.42811
3.39518
14.3401
48.468
95.5512
144.331
189.951
232.262
271.696
307.703
339.139
364.767
383.498
394.516
3.74981
2.91859
2.66726
2.53925
2.45524
2.44987
3.30905
12.8068
44.4333
89.6945
137.347
181.947
222.741
259.992
293.231
321.415
343.421
358.363
365.725
3.77108
2.95023
2.6911
2.56398
2.48035
2.47183
3.23133
11.4127
40.3996
83.6571
130.015
173.513
212.789
247.868
278.337
303.282
321.741
333.05
336.969
3.79254
2.98241
2.71525
2.58893
2.5058
2.49403
3.16247
10.1678
36.4348
77.501
122.386
164.681
202.432
235.369
263.094
284.835
299.82
307.628
308.272
3.81419
3.01538
2.73983
2.6141
2.53158
2.51649
3.1027
9.07159
32.6077
71.3023
114.527
155.504
191.709
222.543
247.577
266.174
277.77
282.188
279.744
3.83605
3.04889
2.76488
2.63948
2.55769
2.53924
3.05201
8.11872
28.9817
65.1493
106.527
146.053
180.677
209.447
231.862
247.395
255.695
256.832
251.463
3.85811
3.0827
2.79042
2.66506
2.5841
2.5623
3.01023
7.30061
25.6113
59.1388
98.4949
136.432
169.423
196.16
216.029
228.585
233.664
231.644
223.182
3.88038
3.11665
2.81644
2.69084
2.61081
2.58568
2.97699
6.60668
22.5389
53.3707
90.5575
126.774
158.074
182.795
200.182
209.814
211.79
206.392
194.395
3.90286
3.15065
2.8429
2.7168
2.63778
2.60938
2.95181
6.02507
19.7927
47.9405
82.8554
117.242
146.796
169.513
184.472
191.227
190.109
180.673
165.844
3.92554
3.18456
2.86975
2.74293
2.66498
2.63341
2.93409
5.54334
17.3853
42.9313
75.5321
108.02
135.8
156.543
169.103
173.195
168.382
155.647
140.373
3.94842
3.2183
2.89694
2.76922
2.69238
2.65776
2.92318
5.149
15.3151
38.4081
68.7248
99.307
125.334
144.179
154.51
155.729
147.726
134.884
119.801
3.97147
3.25173
2.92439
2.79564
2.71995
2.68242
2.91835
4.83011
13.5657
34.4074
62.5425
91.2843
115.655
132.733
141.354
139.179
132.166
120.193
102.35
3.9951
3.28475
2.95204
2.82218
2.74764
2.7074
2.91905
4.57518
12.1205
30.9619
57.0943
84.1443
107.049
122.651
129.795
126.48
124.637
108.667
87.7729
4.01373
3.31385
2.9768
2.84593
2.77243
2.72962
2.92299
4.39719
11.0401
28.2995
52.8169
78.5169
100.313
115.029
120.23
121.896
122.759
99.3209
81.3985
4.03217
3.33912
2.99862
2.86685
2.79427
2.75037
2.92945
4.26701
10.2534
26.3036
49.5723
74.2562
95.2877
109.748
112.798
125.022
122.224
93.8499
79.977
4.05042
3.3641
3.02045
2.88781
2.81612
2.77109
2.93821
4.16098
9.59552
24.5968
46.7801
70.6181
91.1013
105.572
108.854
132.215
122.241
94.9832
79.8174
79.7599
79.1967
78.8844
78.7391
78.6325
78.5391
78.4442
78.3414
78.2277
78.1031
77.9699
77.8327
77.6993
77.5806
77.4708
77.3421
77.2102
78.1242
81.1236
93.5946
144.94
97.5644
95.4082
93.9796
93.4932
93.1306
92.7994
92.3484
91.7173
90.8675
89.7833
88.4631
86.9195
85.1844
83.3335
81.4703
79.6874
78.065
76.8039
76.4056
76.5623
78.456
131.15
128.607
127.345
126.906
126.555
126.027
125.087
123.605
121.501
118.736
115.3
111.209
106.509
101.285
95.6817
89.95
84.4999
79.9215
76.8702
75.7361
75.5043
170.428
170.247
170.628
171.141
171.3
170.833
169.474
167.055
163.473
158.675
152.65
145.421
137.053
127.664
117.456
106.777
96.2246
86.7433
79.6154
76.0641
75.1877
211.84
215.647
218.836
221.176
222.4
222.315
220.683
217.337
212.176
205.157
196.289
185.627
173.274
159.392
144.236
128.214
112.022
96.8148
84.3767
76.9979
75.0516
254.093
262.736
269.521
274.348
277.137
277.761
276.016
271.761
264.918
255.481
243.503
229.103
212.463
193.831
173.542
152.074
130.172
109.09
90.9102
78.6984
74.9374
296.646
310.611
321.548
329.4
334.201
335.839
334.149
329.026
320.427
308.394
293.047
274.593
253.325
229.621
203.954
176.912
149.302
122.398
98.4302
81.07
74.8409
339.078
358.625
374.084
385.374
392.545
395.469
394.001
388.076
377.693
362.952
344.05
321.296
295.111
266.033
234.715
201.924
168.584
135.986
106.359
83.836
74.7563
381.024
406.254
426.46
441.498
451.322
455.758
454.666
448.004
435.826
418.301
395.722
368.51
337.22
302.557
265.372
226.656
187.531
149.374
114.358
86.8067
74.6799
422.168
453.109
478.225
497.258
509.984
516.14
515.552
508.194
494.182
473.78
447.404
415.613
379.109
338.753
295.588
250.84
205.886
162.275
122.156
89.8514
74.6096
462.256
498.927
529.126
552.398
568.282
576.367
576.402
568.354
552.413
528.979
498.639
462.13
420.325
374.238
325.078
274.285
223.508
174.549
129.604
92.8757
74.544
501.105
543.556
579.043
606.831
626.167
636.416
637.189
628.424
610.404
583.708
549.16
507.741
460.53
408.705
353.606
296.841
240.318
186.135
136.625
95.8178
74.482
538.591
586.902
627.916
660.547
683.676
696.356
697.99
688.461
668.16
637.904
598.834
552.25
499.496
441.924
380.983
318.391
256.262
197.01
143.183
98.6388
74.4229
574.617
628.891
675.699
713.536
740.839
756.251
758.884
748.529
725.711
691.548
647.587
595.539
537.071
473.737
407.071
338.844
271.308
207.174
149.27
101.315
74.366
609.097
669.443
722.315
765.742
797.628
816.096
819.881
808.637
783.042
744.596
695.352
637.517
573.151
504.033
431.773
358.134
285.434
216.637
154.893
103.833
74.3109
641.929
708.441
767.63
817.028
853.917
875.79
880.893
868.695
840.055
796.94
742.019
678.088
607.65
532.737
455.02
376.214
298.626
225.413
160.062
106.185
74.2574
672.985
745.722
811.445
867.167
909.476
935.112
941.715
928.503
896.547
848.387
787.425
717.128
640.483
559.788
476.77
393.057
310.878
233.516
164.795
108.368
74.2052
702.105
781.071
853.481
915.833
963.957
993.719
1002.02
987.736
952.202
898.646
831.333
754.47
671.55
585.131
496.99
408.644
322.189
240.964
169.11
110.382
74.1542
729.094
814.221
893.388
962.601
1016.89
1051.14
1061.34
1045.95
1006.59
947.333
873.438
789.907
700.73
608.707
515.655
422.967
332.562
247.773
173.025
112.229
74.1041
753.725
844.855
930.742
1006.94
1067.69
1106.77
1119.1
1102.56
1059.15
993.965
913.368
823.185
727.88
630.45
532.746
436.027
342.007
253.96
176.558
113.911
74.0548
775.745
872.61
965.051
1048.24
1115.65
1159.88
1174.58
1156.89
1109.23
1037.98
950.698
854.025
752.838
650.29
548.245
447.83
350.54
259.546
179.728
115.433
74.0063
794.895
897.099
995.771
1085.79
1159.93
1209.6
1226.93
1208.1
1156.06
1078.74
984.983
882.146
775.46
668.178
562.158
458.404
358.187
264.553
182.555
116.8
73.9583
810.919
917.923
1022.32
1118.8
1199.58
1254.88
1275.12
1255.23
1198.76
1115.6
1015.81
907.335
795.673
684.126
574.534
467.796
364.983
269.005
185.056
118.017
73.911
823.585
934.714
1044.14
1146.47
1233.53
1294.5
1317.87
1297.1
1236.45
1147.95
1042.83
929.436
813.438
698.16
585.424
476.058
370.963
272.924
187.248
119.088
73.8641
832.707
947.179
1060.77
1168.12
1260.9
1327.28
1353.5
1332.29
1268.33
1175.32
1065.77
948.294
828.679
710.261
594.845
483.217
376.15
276.325
189.143
120.018
73.8178
838.164
955.126
1071.91
1183.28
1280.79
1350.87
1377.34
1358.66
1293.69
1197.28
1084.35
963.726
841.29
720.377
602.789
489.286
380.559
279.221
190.751
120.809
73.7718
839.893
958.461
1077.38
1191.6
1292.58
1364.98
1391.65
1375.96
1311.76
1213.36
1098.24
975.52
851.136
728.436
609.222
494.256
384.191
281.615
192.075
121.46
73.7261
837.885
957.165
1077.12
1192.86
1295.93
1370.85
1403.29
1385.05
1321.89
1223.08
1107.14
983.458
858.072
734.346
614.093
498.1
387.036
283.501
193.117
121.972
73.6806