/*--------------------------------*- C++ -*----------------------------------*\
| =========                 |                                                 |
| \\      /  F ield         | OpenFOAM: The Open Source CFD Toolbox           |
|  \\    /   O peration     | Version:  v2012                                 |
|   \\  /    A nd           | Website:  www.openfoam.com                      |
|    \\/     M anipulation  |                                                 |
\*---------------------------------------------------------------------------*/
FoamFile
{
    version     2.0;
    format      ascii;
    class       volScalarField;
    location    "623";
    object      k;
}
// * * * * * * * * * * * * * * * * * * * * * * * * * * * * * * * * * * * * * //

dimensions      [0 2 -2 0 0 0 0];


internalField   nonuniform List<scalar> 
6057
(
0.0467807
0.0504953
0.0547175
0.0595437
0.065099
0.0715463
0.0791005
0.0880499
0.098789
0.111872
0.128096
0.148651
0.175375
0.211234
0.261279
0.334654
0.449224
0.643263
1.00867
1.79967
0.114985
0.124332
0.134908
0.146943
0.160728
0.176625
0.195105
0.216785
0.242484
0.273314
0.310811
0.357152
0.415495
0.490563
0.589635
0.724319
0.913781
1.19066
1.6113
2.26842
0.15299
0.165432
0.179487
0.195444
0.213665
0.234607
0.258851
0.28714
0.320447
0.360063
0.407724
0.465818
0.537685
0.628102
0.744053
0.895977
1.09983
1.38047
1.7774
2.35467
0.175117
0.189362
0.205434
0.223653
0.244415
0.268217
0.295681
0.3276
0.364989
0.409172
0.461895
0.525504
0.603199
0.699438
0.820566
0.975841
1.17918
1.45228
1.83071
2.3772
0.185541
0.200644
0.21767
0.236951
0.258899
0.284024
0.312963
0.346519
0.385712
0.431858
0.486674
0.552432
0.632195
0.73018
0.852335
1.00734
1.20837
1.47652
1.84761
2.38698
0.18547
0.200591
0.217631
0.236922
0.258877
0.284008
0.312951
0.34651
0.385705
0.431853
0.48667
0.552429
0.632194
0.730178
0.852334
1.00734
1.20837
1.47652
1.84761
2.38698
0.174907
0.18921
0.205322
0.22357
0.244355
0.268173
0.29565
0.327577
0.364973
0.40916
0.461887
0.525498
0.603194
0.699435
0.820564
0.97584
1.17918
1.45228
1.83071
2.3772
0.152643
0.165194
0.179316
0.195322
0.213578
0.234546
0.258807
0.287108
0.320424
0.360046
0.407712
0.465809
0.537678
0.628097
0.74405
0.895975
1.09982
1.38047
1.7774
2.35467
0.114509
0.124044
0.134711
0.146809
0.160634
0.176558
0.195057
0.21675
0.242459
0.273295
0.310798
0.357142
0.415488
0.490558
0.589631
0.724316
0.91378
1.19066
1.6113
2.26842
0.0466415
0.0504074
0.0546576
0.0595019
0.0650691
0.0715247
0.0790848
0.0880384
0.0987806
0.111865
0.128092
0.148648
0.175372
0.211232
0.261277
0.334653
0.449224
0.643263
1.00867
1.79967
0.0146417
0.015443
0.0162635
0.0171074
0.0179792
0.0188843
0.0198286
0.0208192
0.0218639
0.0229718
0.0241534
0.0254204
0.0267864
0.0282667
0.0298791
0.0316387
0.0335625
0.0356777
0.0380167
0.0406164
0.0435203
0.0329444
0.0349557
0.0370342
0.039189
0.0414292
0.0437652
0.0462095
0.0487765
0.0514837
0.054351
0.0574021
0.0606646
0.0641704
0.0679566
0.0720659
0.0765378
0.0814358
0.0868244
0.0927784
0.0993847
0.106745
0.0447308
0.0472401
0.0498501
0.0525744
0.0554263
0.0584205
0.0615741
0.0649066
0.0684407
0.0722029
0.0762238
0.0805391
0.0851901
0.0902245
0.0956919
0.101661
0.108204
0.115404
0.12336
0.132182
0.142004
0.052159
0.0548538
0.0576785
0.0606491
0.0637813
0.0670923
0.0706016
0.0743315
0.0783076
0.0825596
0.0871216
0.0920336
0.0973413
0.103098
0.109363
0.116213
0.123726
0.131996
0.141131
0.151257
0.162523
0.0563974
0.0590623
0.0618774
0.0648601
0.0680279
0.0714
0.0749976
0.0788452
0.0829705
0.087405
0.0921847
0.0973512
0.102952
0.109041
0.115689
0.122966
0.130955
0.139749
0.149458
0.160216
0.172178
0.057954
0.0603935
0.06299
0.065762
0.0687283
0.0719102
0.0753316
0.0790197
0.083005
0.0873214
0.0920063
0.097102
0.102655
0.108724
0.11538
0.122688
0.130721
0.139559
0.149307
0.160097
0.172085
0.0571649
0.0591965
0.0613716
0.063707
0.0662214
0.0689375
0.0718824
0.0750878
0.0785901
0.0824301
0.0866496
0.0912943
0.0964135
0.10207
0.10834
0.115283
0.122966
0.131401
0.140667
0.150899
0.162247
0.054527
0.0560365
0.0576505
0.0593759
0.0612233
0.0632094
0.0653582
0.067702
0.070286
0.0731633
0.0763926
0.0800391
0.0841643
0.0888277
0.0941193
0.100102
0.106837
0.114326
0.122556
0.13158
0.141546
0.0509968
0.0520665
0.0531918
0.0543556
0.0555427
0.0567424
0.0579505
0.0591712
0.06042
0.0617255
0.063133
0.0647987
0.0668305
0.0693254
0.0723702
0.0760659
0.0804673
0.0857126
0.0917859
0.0986201
0.106201
0.0476
0.0484887
0.0494084
0.0503206
0.051186
0.0519622
0.0526007
0.0530424
0.0532144
0.0530318
0.0524034
0.0512472
0.0494544
0.0469058
0.0443391
0.0421747
0.0406339
0.0398994
0.0401228
0.041285
0.0433674
0.00102689
0.000905431
0.000931322
0.00121081
0.00229468
0.00332673
0.00430764
0.00522664
0.00607265
0.00688245
0.00767096
0.0084463
0.00921388
0.00997765
0.0107408
0.0115061
0.0122762
0.0130536
0.0138411
0.0018167
0.00226211
0.00386086
0.00579361
0.0072824
0.00856677
0.00994389
0.0115624
0.0132788
0.0149662
0.0166508
0.0183431
0.0200501
0.0217786
0.0235348
0.0253251
0.0271552
0.0290313
0.0309593
0.00277332
0.00532454
0.00722251
0.0090628
0.0106555
0.0124264
0.014629
0.0171103
0.0195794
0.0219578
0.024263
0.0265093
0.0287174
0.0309085
0.033103
0.0353199
0.0375764
0.0398882
0.0422694
0.00412872
0.00803881
0.0100073
0.0117914
0.0137114
0.0161578
0.0190939
0.022164
0.0251017
0.0278615
0.0304577
0.0329209
0.0352912
0.0376083
0.0399093
0.0422266
0.0445883
0.0470184
0.0495371
0.0056226
0.0105678
0.0124736
0.0143751
0.0167553
0.0198095
0.0232421
0.0266398
0.0297965
0.0326857
0.0353311
0.0377824
0.0400974
0.0423324
0.0445378
0.046757
0.0490258
0.0513739
0.0538255
0.00683249
0.0127732
0.0147937
0.0169476
0.0197915
0.0232865
0.0269814
0.0304917
0.0336643
0.0364875
0.0390014
0.0412719
0.0433716
0.0453694
0.0473259
0.049292
0.0513088
0.053409
0.0556181
0.00778466
0.0147453
0.0170155
0.0195008
0.0227293
0.0264821
0.0302451
0.033695
0.03672
0.0393245
0.0415646
0.0435201
0.0452756
0.0469098
0.0484912
0.0500759
0.0517073
0.0534181
0.0552322
0.00861148
0.0164953
0.0191327
0.0219708
0.0254748
0.0293186
0.0329976
0.0362477
0.0389936
0.0412567
0.043108
0.0446403
0.0459495
0.0471244
0.0482409
0.0493594
0.0505237
0.0517633
0.0530953
0.00932331
0.0180559
0.0211252
0.0242905
0.0279556
0.0317558
0.0352281
0.0381669
0.0405269
0.0423504
0.0437239
0.0447554
0.0455559
0.0462282
0.0468592
0.0475158
0.0482427
0.0490635
0.0499844
0.00992849
0.0194603
0.0229725
0.0264066
0.0301288
0.0337753
0.0369454
0.0394813
0.0413712
0.0426817
0.0435193
0.0440137
0.0442981
0.0444961
0.0447105
0.045016
0.0454557
0.0460433
0.0467676
0.0441054
0.0447704
0.0453997
0.04596
0.0464303
0.0468016
0.0470654
0.0472111
0.047217
0.0470292
0.0465009
0.0457543
0.0447786
0.0434704
0.0416148
0.0387478
0.0340989
0.0267609
0.0190145
0.0130541
0.00784391
0.0389614
0.0385961
0.0379327
0.0369427
0.0356207
0.0339771
0.0320286
0.0297948
0.0273156
0.0249813
0.0229358
0.0209061
0.018715
0.0165608
0.0145695
0.0128027
0.0107855
0.00820139
0.00561016
0.00307541
0.00133426
0.031481
0.0295504
0.0272216
0.0245949
0.021815
0.0190469
0.0164724
0.0143391
0.0128777
0.011721
0.0108097
0.00996637
0.00914388
0.00835467
0.00757264
0.00675975
0.00586176
0.00483754
0.00371244
0.00241373
0.00103818
0.0230519
0.0201635
0.0172723
0.0146248
0.0124268
0.010797
0.00975028
0.00918178
0.00882413
0.00855928
0.00832737
0.00807837
0.00777899
0.00740282
0.00692231
0.00632202
0.00560361
0.00474736
0.00372228
0.00250711
0.0011715
0.0160047
0.0134149
0.0113369
0.00986192
0.00895227
0.00848541
0.00832375
0.00828901
0.00829579
0.00829977
0.00827189
0.00818538
0.00801313
0.00772585
0.00729551
0.00672582
0.00600604
0.00511513
0.00402503
0.00276064
0.00133323
0.0115888
0.00995839
0.00892883
0.00838162
0.00816877
0.00816333
0.00826344
0.00839094
0.00851068
0.00859958
0.00863682
0.00860025
0.00846538
0.00820508
0.0077927
0.00722401
0.00648529
0.00554889
0.00439797
0.003052
0.00149919
0.00940068
0.0085829
0.00819553
0.00809294
0.00815931
0.00831457
0.0085021
0.00868649
0.00884806
0.00896976
0.00903352
0.00901918
0.00890379
0.00866229
0.00826574
0.00770339
0.00695692
0.00599097
0.00478881
0.00335272
0.00166427
0.00847962
0.00814252
0.00807667
0.00817111
0.00835089
0.00856828
0.00879059
0.00899887
0.0091788
0.00931558
0.00939299
0.0093922
0.00929135
0.00906629
0.00868932
0.00814095
0.00739834
0.00641951
0.0051781
0.00365437
0.00182694
0.00815289
0.00807743
0.00817114
0.00835731
0.00858786
0.00883278
0.00907161
0.00929154
0.00948022
0.00962462
0.00970981
0.00971814
0.00962888
0.00941877
0.00906185
0.00853236
0.00780164
0.0068241
0.00555701
0.00395456
0.00198697
0.00809234
0.00816131
0.00833885
0.00857211
0.00882866
0.00908851
0.0093369
0.00956299
0.00975591
0.00990376
0.00999269
0.0100063
0.00992513
0.00972725
0.00938832
0.0088796
0.00816691
0.00720119
0.00592191
0.00425292
0.00214463
0.0081525
0.00830568
0.00853165
0.00879254
0.00906537
0.00933554
0.00959039
0.00982012
0.0100148
0.0101632
0.0102525
0.0102674
0.0101904
0.0100009
0.00967579
0.00918702
0.00849662
0.00755088
0.00627194
0.00454985
0.00230042
0.00826997
0.00847648
0.00873393
0.00901407
0.00929958
0.00957816
0.00983807
0.0100701
0.0102648
0.0104116
0.0104984
0.0105113
0.0104342
0.0102487
0.00993359
0.00946187
0.00879541
0.00787548
0.00660786
0.00484608
0.0024549
0.0084174
0.00866104
0.0089418
0.00923777
0.0095344
0.0098204
0.0100846
0.010318
0.0105115
0.0106549
0.0107369
0.0107446
0.0106637
0.0104779
0.0101684
0.00971088
0.00906822
0.00817818
0.00693126
0.00514248
0.0026087
0.00858325
0.00885526
0.00915545
0.00946554
0.00977217
0.0100648
0.0103325
0.0105663
0.0107574
0.010896
0.0109713
0.0109715
0.0108836
0.0106936
0.0103857
0.00993918
0.00931956
0.00846243
0.00724417
0.00544
0.00276245
0.00876292
0.00905852
0.00937582
0.00969847
0.010014
0.0103121
0.0105821
0.0108151
0.0110026
0.0111351
0.0112024
0.0111934
0.0110962
0.010899
0.0105893
0.0101509
0.00955337
0.0087316
0.00754883
0.00573967
0.00291681
0.0089549
0.00927088
0.00960319
0.00993676
0.0102596
0.0105617
0.0108322
0.0110629
0.0112453
0.0113706
0.0114289
0.0114096
0.0113017
0.0110952
0.0107814
0.010349
0.00977292
0.00898877
0.00784749
0.00604254
0.00307249
0.00915839
0.00949202
0.00983718
0.0101797
0.0105078
0.0108115
0.0110804
0.0113068
0.0114827
0.0115997
0.0116483
0.0116182
0.0114989
0.0112823
0.0109629
0.0105354
0.00998077
0.00923666
0.00814234
0.00634971
0.00323021
0.00937251
0.00972114
0.0100767
0.0104255
0.0107562
0.0110588
0.0113236
0.0115435
0.0117113
0.011819
0.0118575
0.0118164
0.011686
0.0114592
0.011134
0.0107111
0.0101788
0.00947762
0.00843547
0.00666231
0.00339078
0.00959582
0.00995666
0.0103198
0.010672
0.0110021
0.0113004
0.0115583
0.0117694
0.0119274
0.0120249
0.0120529
0.0120012
0.0118602
0.0116241
0.0112941
0.0108768
0.0103685
0.00971364
0.00872886
0.00698152
0.00355508
0.00982587
0.010196
0.0105637
0.010916
0.0112421
0.011533
0.011781
0.0119811
0.0121278
0.0122142
0.0122315
0.0121697
0.0120194
0.0117755
0.0114422
0.0110324
0.0105509
0.00994645
0.00902442
0.00730852
0.00372411
0.0100589
0.0104357
0.010805
0.0111543
0.0114731
0.0117533
0.0119888
0.0121758
0.0123097
0.0123841
0.0123907
0.0123195
0.0121613
0.0119117
0.0115775
0.0111781
0.0107268
0.0101776
0.00932396
0.00764456
0.003899
0.0102899
0.0106716
0.0110401
0.0113834
0.0116921
0.0119585
0.0121791
0.0123511
0.0124709
0.0125327
0.0125286
0.0124489
0.0122844
0.0120315
0.0116995
0.0113138
0.0108972
0.0104086
0.00962924
0.00799095
0.0040811
0.0105144
0.0108993
0.0112653
0.0116005
0.0118964
0.0121466
0.0123502
0.0125058
0.0126104
0.0126591
0.0126444
0.0125571
0.0123882
0.0121346
0.011808
0.01144
0.0110629
0.010641
0.009942
0.00834915
0.00427198
0.0107283
0.0111155
0.0114779
0.011803
0.012084
0.0123163
0.0125013
0.0126391
0.0127278
0.0127631
0.0127381
0.0126443
0.0124728
0.0122211
0.0119034
0.0115574
0.0112252
0.0108762
0.0102639
0.00872047
0.00447357
0.0109323
0.0113182
0.0116748
0.0119894
0.012254
0.012467
0.0126321
0.0127513
0.0128236
0.0128453
0.0128107
0.0127115
0.0125394
0.0122924
0.0119869
0.0116674
0.0113857
0.0111161
0.0105968
0.00910618
0.00468822
0.0111262
0.0115081
0.0118561
0.0121574
0.0124054
0.0125982
0.0127428
0.012843
0.0128987
0.0129075
0.0128642
0.0127611
0.0125903
0.0123505
0.0120607
0.0117718
0.0115463
0.0113625
0.010942
0.00950701
0.00491898
0.01131
0.0116851
0.0120217
0.0123073
0.0125362
0.0127093
0.0128336
0.0129151
0.0129552
0.0129521
0.0129016
0.0127965
0.012629
0.0123987
0.0121274
0.0118735
0.0117096
0.0116176
0.0113015
0.00992388
0.00516979
0.0114831
0.0118488
0.0121714
0.012439
0.0126474
0.0127997
0.0129052
0.0129695
0.0129957
0.0129829
0.0129274
0.0128223
0.0126599
0.0124408
0.0121908
0.0119759
0.0118787
0.0118839
0.0116785
0.0103639
0.00543715
0.0116452
0.0119987
0.0123052
0.0125531
0.01274
0.0128721
0.0129597
0.0130094
0.0130246
0.0130051
0.0129473
0.0128441
0.0126883
0.0124822
0.0122559
0.0120831
0.0120567
0.0121657
0.0120784
0.0108312
0.00571639
0.0117964
0.0121354
0.0124242
0.0126515
0.012817
0.0129299
0.0130016
0.0130401
0.0130484
0.0130261
0.0129692
0.0128701
0.0127218
0.0125288
0.0123264
0.0121976
0.0122462
0.0124659
0.0125057
0.0113255
0.00600904
0.0119385
0.0122605
0.0125293
0.0127356
0.0128818
0.0129787
0.0130384
0.0130701
0.0130759
0.0130547
0.0130015
0.0129078
0.012767
0.0125862
0.0124072
0.0123236
0.012451
0.0127871
0.012963
0.0118518
0.00631493
0.0120704
0.0123741
0.0126237
0.012811
0.0129411
0.0130255
0.0130786
0.0131086
0.0131166
0.0131003
0.013053
0.0129653
0.0128309
0.0126604
0.0125034
0.0124655
0.0126751
0.0131332
0.0134508
0.012412
0.00663405
0.0121955
0.0124806
0.0127125
0.0128843
0.0130025
0.0130793
0.0131317
0.0131654
0.0131803
0.0131721
0.0131323
0.0130501
0.0129201
0.0127573
0.0126203
0.0126284
0.0129225
0.0135073
0.0139735
0.0130077
0.00696653
0.0123177
0.0125851
0.0128018
0.0129619
0.0130729
0.0131491
0.0132071
0.0132502
0.0132765
0.0132793
0.0132476
0.0131695
0.0130408
0.0128821
0.0127629
0.0128169
0.0131972
0.013912
0.014532
0.0136396
0.00731151
0.0124419
0.012693
0.012898
0.0130515
0.013161
0.0132443
0.0133146
0.0133729
0.0134148
0.0134305
0.0134064
0.0133296
0.0131981
0.0130394
0.0129355
0.0130356
0.013503
0.0143489
0.0151257
0.0143061
0.00766682
0.0125737
0.0128109
0.0130084
0.0131615
0.0132768
0.0133748
0.0134643
0.0135433
0.013604
0.0136332
0.0136146
0.0135348
0.0133953
0.0132321
0.0131415
0.0132879
0.0138422
0.0148179
0.0157506
0.015002
0.00802857
0.0127192
0.0129456
0.013141
0.013301
0.0134301
0.0135509
0.0136662
0.0137705
0.0138519
0.0138933
0.0138761
0.0137874
0.0136335
0.0134612
0.0133825
0.0135761
0.014216
0.0153158
0.0163972
0.0157169
0.00839059
0.0128854
0.0131051
0.0133045
0.0134783
0.013632
0.0137834
0.0139303
0.0140628
0.0141643
0.014214
0.0141916
0.0140861
0.0139107
0.0137249
0.0136581
0.0139007
0.0146227
0.0158345
0.0170472
0.0164337
0.00874393
0.0130808
0.0132987
0.0135092
0.0137064
0.0138941
0.014083
0.0142656
0.0144265
0.0145443
0.014595
0.0145578
0.0144256
0.0142208
0.0140185
0.0139656
0.0142593
0.0150572
0.0163582
0.0176682
0.0171273
0.0090768
0.0133156
0.0135374
0.0137672
0.013998
0.0142281
0.0144598
0.014679
0.0148647
0.0149908
0.015031
0.0149662
0.0147955
0.0145539
0.014334
0.0142994
0.0146469
0.0155103
0.0168644
0.0182302
0.0177673
0.00937349
0.013601
0.0138343
0.0140941
0.0143675
0.0146461
0.0149223
0.0151747
0.0153762
0.0154971
0.0155108
0.0154021
0.0151801
0.0148952
0.0146602
0.0146515
0.0150561
0.0159697
0.017331
0.0187412
0.0183173
0.0096082
0.0139501
0.0142049
0.0145099
0.0148312
0.0151597
0.0154767
0.0157524
0.015954
0.0160499
0.0160159
0.0158445
0.0155586
0.0152275
0.0149854
0.0150135
0.0154771
0.0164226
0.0177772
0.0191901
0.0187682
0.00978034
0.0143777
0.0146647
0.0150245
0.0154017
0.0157786
0.0161253
0.0164059
0.0165836
0.016628
0.0165209
0.0162667
0.015907
0.0155335
0.0153001
0.0153789
0.0158996
0.0168417
0.0181884
0.0195652
0.0191095
0.00987037
0.0149011
0.0152346
0.0156587
0.016093
0.0165083
0.0168644
0.0171206
0.0172415
0.0172014
0.0169933
0.0166385
0.0162028
0.0158015
0.0156048
0.0157468
0.0163176
0.0172395
0.0185445
0.01984
0.0192846
0.00987819
0.0155408
0.0159435
0.0164331
0.0169146
0.0173463
0.0176795
0.0178717
0.0178934
0.0177318
0.0173964
0.0169316
0.0164321
0.0160379
0.0158925
0.0161171
0.0167119
0.0175952
0.0188141
0.0199765
0.0192563
0.0098022
0.016319
0.0168107
0.0173604
0.0178663
0.0182776
0.0185411
0.0186193
0.0184945
0.0181746
0.0176951
0.0171284
0.0166034
0.0162617
0.0162132
0.0165137
0.0170795
0.017876
0.0189512
0.0199264
0.0190042
0.00965298
0.0172632
0.0178477
0.0184419
0.018934
0.0192704
0.0194028
0.0193075
0.0189897
0.0184865
0.0178677
0.0172391
0.0167675
0.0165255
0.0165924
0.0169265
0.0173885
0.0180205
0.0188883
0.0196207
0.018405
0.00940193
0.0184229
0.0190783
0.01967
0.0200849
0.0202718
0.0201987
0.0198686
0.0193227
0.0186392
0.0179276
0.0173243
0.0169657
0.0168927
0.0170445
0.0172882
0.017542
0.0179212
0.0185296
0.0189653
0.0175715
0.0090566
0.0197925
0.0204902
0.0210075
0.0212561
0.0212015
0.0208439
0.0202301
0.0194543
0.0186455
0.0179487
0.0174972
0.017349
0.0174014
0.0174896
0.0174535
0.0173679
0.0174299
0.0177708
0.0179273
0.0165148
0.0085688
0.0213855
0.022047
0.0223809
0.0223479
0.0219496
0.0212409
0.0203352
0.0193942
0.0185926
0.0180772
0.0178981
0.0179181
0.0179106
0.0176558
0.0171582
0.0166461
0.0164161
0.0165457
0.0166616
0.0153252
0.007977
0.0231784
0.0236612
0.0236658
0.0232159
0.0223826
0.0213044
0.0201828
0.0192413
0.0186587
0.0184853
0.0185317
0.0184854
0.0180507
0.0171761
0.0161153
0.0152565
0.0148879
0.0149471
0.015185
0.0140497
0.00731814
0.0250652
0.0251721
0.0246687
0.0236729
0.0223709
0.0210141
0.0198832
0.0192051
0.0190679
0.019185
0.0191364
0.0184975
0.0172509
0.0156936
0.0142652
0.0132967
0.0129875
0.0132358
0.0136615
0.0127485
0.00661886
0.0268619
0.0263318
0.0251283
0.0235272
0.0218635
0.0204945
0.0196833
0.0195826
0.0198294
0.0197743
0.0189433
0.0172681
0.0151921
0.0133089
0.0119161
0.0111417
0.0110061
0.0115862
0.0121941
0.01146
0.00589085
0.028209
0.0267623
0.0247619
0.0226853
0.0210089
0.0200449
0.019976
0.0203435
0.0203276
0.0192979
0.0171364
0.0144917
0.0122091
0.0106047
0.00962489
0.00922513
0.0094018
0.0101598
0.0108052
0.0100947
0.00521322
0.0285849
0.0260455
0.0234218
0.0213192
0.0201746
0.0201777
0.0206079
0.0206481
0.0194274
0.0167067
0.0134618
0.0108214
0.00916336
0.00827878
0.00783069
0.00780139
0.00819668
0.00892053
0.00942405
0.00866827
0.00459572
0.0273834
0.0239491
0.0213273
0.0199228
0.0200184
0.02048
0.0204835
0.0190416
0.0157819
0.0119394
0.00906253
0.00745501
0.0068242
0.00667269
0.00664296
0.0067891
0.00722097
0.00778018
0.00805958
0.00725536
0.0040072
0.024246
0.0207661
0.0192115
0.0192211
0.0196174
0.0194585
0.0175637
0.0139615
0.009862
0.0068284
0.00564412
0.00537358
0.0054556
0.00561702
0.00576299
0.0059737
0.00631627
0.00666626
0.00672782
0.00593999
0.00342638
0.0194496
0.0174682
0.0172949
0.0174408
0.0167557
0.014501
0.0104298
0.00709546
0.00488433
0.0039488
0.00389978
0.0041259
0.00439771
0.00463817
0.00485448
0.00508134
0.00533857
0.00554155
0.00549818
0.00482285
0.00282717
0.0142138
0.013206
0.0131431
0.0116221
0.00901892
0.00657518
0.00433872
0.00284811
0.00230786
0.00233134
0.00256405
0.00285117
0.00314178
0.00341877
0.00368577
0.00395441
0.00422018
0.00442601
0.00443302
0.00390802
0.00216501
0.00824596
0.00262666
0.00245428
0.00227446
0.00187903
0.00141824
0.00102678
0.00090475
0.000961592
0.0010869
0.001233
0.00138513
0.00154045
0.00170145
0.00187542
0.00207585
0.00226997
0.00240689
0.00241485
0.00216665
0.00131965
0.0104749
0.0207819
0.0247323
0.0283635
0.0320502
0.0354396
0.0382127
0.0402562
0.0415928
0.0423205
0.0425769
0.0425211
0.0423166
0.0421099
0.0420143
0.0420982
0.0423823
0.0428461
0.043441
0.0109452
0.0219335
0.0262763
0.0300257
0.0335866
0.0366477
0.0389648
0.0404673
0.041216
0.041346
0.0410343
0.040476
0.0398606
0.0393421
0.0390132
0.0388932
0.0389327
0.0390346
0.0390812
0.0113548
0.0229115
0.0275897
0.0313799
0.0347375
0.0374197
0.0392425
0.0401805
0.0403379
0.0398932
0.0390641
0.0380787
0.0371335
0.0363529
0.0357611
0.0352823
0.0347703
0.0340546
0.0329869
0.0116952
0.0237005
0.0286726
0.0324289
0.0355242
0.0377948
0.0391041
0.0394773
0.039067
0.0380989
0.0368288
0.0354985
0.0342791
0.0332219
0.0322479
0.0311833
0.0298285
0.0280332
0.0257492
0.0119701
0.0243167
0.0295199
0.0331727
0.0359795
0.0378202
0.0386166
0.0384478
0.037519
0.0361027
0.0344807
0.0328806
0.0314094
0.0300188
0.0285358
0.0267513
0.0245271
0.0218672
0.0189343
0.0121843
0.0247664
0.0301207
0.0336409
0.0361405
0.0375497
0.0378531
0.0371868
0.0358108
0.034037
0.0321523
0.0303388
0.0286124
0.026832
0.0247913
0.0223553
0.0195608
0.0166246
0.0138685
0.012342
0.0250614
0.0304987
0.033865
0.0360496
0.0370412
0.036889
0.035788
0.0340509
0.0320153
0.0299466
0.0279537
0.0259589
0.0237722
0.0212461
0.0184153
0.0155176
0.0128929
0.0108183
0.0124474
0.0252175
0.0306826
0.0338789
0.0357522
0.0363537
0.0357974
0.0343377
0.0323322
0.0301245
0.0279321
0.0257755
0.0235063
0.0209558
0.0181196
0.015225
0.012624
0.0106009
0.00924622
0.0125052
0.0252513
0.0306997
0.0337176
0.0352936
0.0355435
0.0346451
0.0329092
0.0307259
0.0284224
0.0261457
0.0238297
0.0212992
0.01848
0.0155492
0.0128657
0.0107536
0.00933046
0.00851781
0.0125203
0.0251796
0.0305769
0.0334152
0.0347168
0.0346615
0.0334889
0.0315595
0.0292804
0.0269393
0.0245988
0.0221239
0.0193671
0.0164011
0.0135633
0.0112397
0.00962507
0.00867342
0.00821862
0.0124975
0.0250187
0.0303397
0.0330039
0.0340603
0.0337511
0.0323735
0.0303289
0.0280228
0.0256835
0.0232855
0.0206539
0.0177206
0.0147254
0.0121024
0.0101716
0.00897432
0.00835792
0.00813429
0.0124419
0.0247839
0.0300113
0.0325123
0.0333571
0.0328471
0.0313319
0.0292418
0.0269625
0.0246478
0.0221887
0.0194064
0.0163535
0.0134206
0.0110645
0.00949142
0.00861501
0.00823207
0.00816017
0.0123579
0.0244894
0.0296127
0.0319654
0.0326343
0.0319759
0.0303851
0.0283088
0.0260957
0.0238148
0.0212863
0.0183641
0.0152443
0.0124307
0.0103448
0.00907016
0.0084328
0.00821414
0.00824553
0.0122502
0.0241477
0.029162
0.0313839
0.0319129
0.0311557
0.0295448
0.02753
0.025409
0.0231606
0.0205526
0.0175047
0.0143612
0.0116949
0.00985628
0.00882015
0.00836134
0.00826107
0.00836614
0.0121226
0.0237699
0.0286748
0.0307847
0.0312087
0.030398
0.0288141
0.0268977
0.0248831
0.0226579
0.0199509
0.0167996
0.0136701
0.0111587
0.00953432
0.00868575
0.0083622
0.00835006
0.00851057
0.011979
0.0233656
0.0281637
0.0301807
0.0305323
0.0297085
0.0281907
0.026399
0.0244957
0.022254
0.0194337
0.01622
0.0131391
0.0107777
0.00933337
0.00863307
0.00841356
0.00846913
0.00867345
0.0118224
0.0229427
0.0276389
0.0295819
0.0298908
0.0290884
0.0276679
0.0260178
0.0242164
0.0219267
0.0189965
0.0157402
0.0127339
0.0105173
0.00922288
0.00864039
0.00850244
0.00861181
0.00885217
0.0116559
0.0225077
0.0271085
0.0289952
0.029288
0.0285363
0.0272363
0.0257367
0.0240014
0.0216591
0.0186321
0.0153486
0.0124321
0.0103516
0.00918172
0.00869373
0.00862104
0.00877434
0.00904505
0.0114819
0.0220659
0.0265788
0.0284255
0.0287253
0.0280482
0.026885
0.0255362
0.0238416
0.0214452
0.0183342
0.0150365
0.0122165
0.0102612
0.00919494
0.00878367
0.00876406
0.00895385
0.00925037
0.0113024
0.0216217
0.0260544
0.0278759
0.0282024
0.0276185
0.0266022
0.0253988
0.023729
0.0212799
0.0180969
0.014796
0.0120722
0.0102305
0.00925181
0.00890305
0.00892667
0.00914698
0.00946546
0.0111192
0.0211784
0.0255385
0.0273481
0.0277176
0.0272408
0.0263763
0.0253017
0.0236546
0.0211584
0.0179157
0.0146216
0.0119825
0.0102446
0.00934243
0.00904431
0.00910275
0.00934871
0.00968608
0.0109337
0.0207385
0.0250336
0.0268427
0.0272686
0.0269083
0.026196
0.0252335
0.0236123
0.021077
0.017786
0.0145054
0.0119401
0.0102939
0.00945705
0.00919858
0.00928459
0.0095525
0.00990651
0.0107472
0.020304
0.0245412
0.0263595
0.0268523
0.0266146
0.0260515
0.0251897
0.023598
0.0210318
0.0177043
0.0144422
0.0119412
0.0103687
0.00958412
0.00935757
0.00946629
0.00975245
0.0101213
0.0105607
0.0198763
0.0240622
0.0258981
0.0264657
0.0263536
0.0259349
0.0251662
0.0236084
0.0210203
0.0176673
0.014426
0.0119801
0.0104659
0.00972218
0.00952121
0.00964825
0.00994898
0.0103288
0.0103749
0.0194564
0.023597
0.0254572
0.0261054
0.0261195
0.0258398
0.0251594
0.0236405
0.0210404
0.0176719
0.0144524
0.0120523
0.0105831
0.00987023
0.00968888
0.00983007
0.0101419
0.0105294
0.0101905
0.0190451
0.0231458
0.0250358
0.0257683
0.0259075
0.0257608
0.0251662
0.0236919
0.0210902
0.0177152
0.0145173
0.0121541
0.0107182
0.0100275
0.00986014
0.0100114
0.0103308
0.010723
0.0100077
0.0186428
0.0227083
0.0246325
0.0254515
0.0257134
0.0256936
0.0251838
0.0237603
0.0211675
0.0177946
0.0146173
0.012283
0.0108701
0.0101936
0.0100347
0.0101919
0.0105156
0.0109092
0.00982716
0.0182497
0.0222843
0.0242458
0.0251523
0.0255333
0.0256347
0.0252099
0.0238435
0.0212707
0.0179078
0.01475
0.0124369
0.0110378
0.0103681
0.0102124
0.0103714
0.0106957
0.0110877
0.00964875
0.017866
0.0218732
0.0238744
0.0248681
0.0253642
0.025581
0.0252422
0.0239397
0.021398
0.0180527
0.014913
0.0126143
0.0112208
0.0105511
0.0103933
0.0105498
0.010871
0.0112581
0.00947268
0.017491
0.0214745
0.0235168
0.0245967
0.0252035
0.0255301
0.0252785
0.0240469
0.0215476
0.0182273
0.0151046
0.0128143
0.011419
0.0107427
0.0105776
0.0107273
0.0110417
0.0114206
0.0092996
0.017125
0.0210874
0.023172
0.0243362
0.0250488
0.0254798
0.0253167
0.0241627
0.0217181
0.0184306
0.015324
0.0130366
0.0116328
0.0109439
0.0107664
0.0109049
0.0112088
0.0115769
0.00912923
0.0167687
0.0207115
0.022839
0.0240849
0.0248979
0.0254264
0.0253512
0.0242818
0.0219089
0.0186665
0.0155726
0.0132824
0.0118639
0.0111565
0.0109624
0.011086
0.011375
0.0117263
0.00896533
0.0164207
0.0203455
0.0225158
0.0238409
0.0247489
0.0253689
0.0253805
0.0243996
0.0221104
0.0189264
0.015854
0.013558
0.0121186
0.0113874
0.01117
0.011272
0.0115402
0.011871
0.00880711
0.0160806
0.019989
0.0222015
0.0236027
0.0246006
0.0253061
0.0254035
0.0245147
0.0223198
0.0192082
0.0161654
0.0138636
0.0123993
0.0116383
0.0113909
0.0114647
0.011707
0.012014
0.00865391
0.0157486
0.0196414
0.0218952
0.0233694
0.0244516
0.0252373
0.0254193
0.0246259
0.0225352
0.0195098
0.0165052
0.0141986
0.0127067
0.0119107
0.0116271
0.0116669
0.0118788
0.0121595
0.00850517
0.0154245
0.0193023
0.0215961
0.0231398
0.0243013
0.0251621
0.0254273
0.0247317
0.0227548
0.0198289
0.0168717
0.0145629
0.0130417
0.0122064
0.0118814
0.0118821
0.0120597
0.0123122
0.00836042
0.0151082
0.0189711
0.0213035
0.0229132
0.0241489
0.0250801
0.0254267
0.0248313
0.0229767
0.0201631
0.0172631
0.014956
0.0134053
0.0125277
0.0121571
0.0121145
0.0122548
0.0124779
0.00821922
0.0147991
0.0186472
0.021017
0.022689
0.0239939
0.0249912
0.0254171
0.0249234
0.0231989
0.0205103
0.0176777
0.0153774
0.0137987
0.0128773
0.0124582
0.0123693
0.01247
0.0126628
0.00808121
0.0144968
0.0183303
0.0207359
0.0224666
0.023836
0.0248953
0.0253984
0.0250072
0.0234195
0.0208678
0.0181141
0.0158266
0.0142234
0.0132582
0.012789
0.0126519
0.0127117
0.0128742
0.00794603
0.0142009
0.0180201
0.0204599
0.0222456
0.0236752
0.0247927
0.0253704
0.0250821
0.0236364
0.0212312
0.0185704
0.0163046
0.014681
0.013674
0.0131546
0.0129686
0.0129867
0.0131209
0.00781339
0.0139113
0.0177161
0.0201884
0.0220258
0.0235114
0.0246837
0.0253332
0.0251472
0.0238479
0.0215979
0.0190437
0.0168109
0.0151729
0.014128
0.01356
0.0133253
0.0133033
0.0134131
0.00768301
0.0136276
0.0174181
0.0199212
0.021807
0.0233448
0.0245686
0.025287
0.0252024
0.0240521
0.0219652
0.0195296
0.0173444
0.0157012
0.0146235
0.0140101
0.0137287
0.0136712
0.0137619
0.00755465
0.0133497
0.0171256
0.019658
0.0215891
0.0231756
0.024448
0.0252323
0.0252475
0.0242476
0.0223305
0.0200257
0.0179027
0.016266
0.0151633
0.014509
0.0141868
0.0141005
0.0141799
0.00742811
0.0130773
0.0168386
0.0193986
0.0213723
0.0230043
0.0243227
0.0251697
0.0252826
0.0244334
0.0226914
0.0205291
0.0184835
0.0168673
0.0157492
0.0150611
0.0147076
0.0146021
0.014681
0.0073032
0.0128102
0.0165566
0.0191428
0.0211567
0.0228316
0.0241934
0.0251001
0.0253083
0.0246088
0.0230459
0.0210372
0.0190848
0.0175047
0.016381
0.0156721
0.0152996
0.0151881
0.0152813
0.00717977
0.0125483
0.0162795
0.0188907
0.0209426
0.0226579
0.0240613
0.0250244
0.0253255
0.0247737
0.0233927
0.0215476
0.0197043
0.0181761
0.0170616
0.0163474
0.0159724
0.0158725
0.0159994
0.00705769
0.0122914
0.0160073
0.0186421
0.0207304
0.0224843
0.0239275
0.0249441
0.0253354
0.0249286
0.0237307
0.0220586
0.0203408
0.0188779
0.0177927
0.0170937
0.0167371
0.0166717
0.0168578
0.00693684
0.0120394
0.0157397
0.0183973
0.0205205
0.0223116
0.0237933
0.0248606
0.0253396
0.0250747
0.0240603
0.0225691
0.0209914
0.0196127
0.0185787
0.0179191
0.0176077
0.0176067
0.0178858
0.00681714
0.0117922
0.0154767
0.0181563
0.0203135
0.0221409
0.0236602
0.0247757
0.0253404
0.0252141
0.0243826
0.0230799
0.0216528
0.0203814
0.0194254
0.018835
0.0186025
0.0187035
0.0191142
0.00669855
0.0115498
0.0152183
0.0179193
0.0201098
0.0219732
0.0235298
0.0246913
0.0253402
0.0253495
0.0246997
0.0235914
0.0223288
0.0211885
0.0203413
0.0198567
0.0197459
0.019998
0.0205992
0.00658104
0.0113121
0.0149646
0.0176864
0.0199102
0.0218095
0.0234035
0.0246095
0.0253415
0.025484
0.0250154
0.0241047
0.0230232
0.0220411
0.021339
0.0210056
0.0210704
0.021532
0.0223662
0.0064646
0.0110791
0.0147154
0.017458
0.019715
0.0216507
0.0232823
0.0245323
0.0253474
0.0256215
0.0253338
0.0246244
0.0237426
0.0229495
0.0224363
0.022311
0.0226195
0.0233652
0.0243628
0.00634927
0.0108509
0.0144711
0.0172342
0.0195246
0.0214963
0.0231635
0.0244618
0.0253604
0.0257658
0.0256594
0.0251583
0.0244963
0.0239282
0.0236578
0.0238121
0.0244466
0.0255585
0.026538
0.0062351
0.0106275
0.0142316
0.0170153
0.0193394
0.0213469
0.0230488
0.0243993
0.0253834
0.0259209
0.0259966
0.0257141
0.0252958
0.0249969
0.0250366
0.0255587
0.026603
0.0279464
0.0286375
0.00612219
0.0104091
0.0139971
0.0168014
0.0191594
0.0212029
0.0229397
0.0243463
0.0254185
0.0260903
0.0263508
0.0263001
0.0261553
0.0261799
0.0266144
0.0276097
0.0291913
0.0303962
0.0302526
0.00601064
0.0101958
0.0137678
0.0165927
0.0189849
0.0210646
0.0228371
0.0243037
0.0254677
0.026277
0.0267282
0.0269255
0.0270905
0.0275065
0.028435
0.0299756