/*--------------------------------*- C++ -*----------------------------------*\
| =========                 |                                                 |
| \\      /  F ield         | OpenFOAM: The Open Source CFD Toolbox           |
|  \\    /   O peration     | Version:  v2012                                 |
|   \\  /    A nd           | Website:  www.openfoam.com                      |
|    \\/     M anipulation  |                                                 |
\*---------------------------------------------------------------------------*/
FoamFile
{
    version     2.0;
    format      ascii;
    class       volScalarField;
    location    "623";
    object      nut;
}
// * * * * * * * * * * * * * * * * * * * * * * * * * * * * * * * * * * * * * //

dimensions      [0 2 -1 0 0 0 0];


internalField   nonuniform List<scalar> 
6057
(
0.000485711
0.000504626
0.0005253
0.000547977
0.00057297
0.000600673
0.000631588
0.00066636
0.000705828
0.000751112
0.000803734
0.000865822
0.000940433
0.00103211
0.00114788
0.0012991
0.00150514
0.0018011
0.00225537
0.0030126
0.00268443
0.00278289
0.00288884
0.00300339
0.0031277
0.00326296
0.00341073
0.00357298
0.00375221
0.00395168
0.00417568
0.00443003
0.00472283
0.0050657
0.00547591
0.00598028
0.00662268
0.00747989
0.00870014
0.0106177
0.00457092
0.00472824
0.00489659
0.00507707
0.00527097
0.00547998
0.00570598
0.00595116
0.0062183
0.00651087
0.00683328
0.0071912
0.00759201
0.00804544
0.0085642
0.00916475
0.00986721
0.0106928
0.0116531
0.012715
0.00576148
0.00595282
0.00615663
0.00637396
0.00660605
0.00685432
0.00712037
0.00740603
0.00771331
0.00804446
0.00840204
0.00878883
0.00920787
0.00966222
0.0101546
0.0106867
0.011257
0.0118587
0.0124744
0.0130723
0.00632834
0.00653547
0.00675538
0.00698907
0.00723769
0.00750245
0.00778463
0.00808552
0.00840639
0.00874836
0.00911232
0.00949862
0.00990686
0.0103353
0.0107806
0.0112366
0.0116948
0.0121447
0.0125792
0.0130088
0.00632462
0.00653288
0.00675357
0.00698781
0.00723681
0.00750184
0.0077842
0.00808523
0.00840619
0.00874823
0.00911223
0.00949857
0.00990683
0.0103353
0.0107806
0.0112366
0.0116948
0.0121447
0.0125792
0.0130088
0.00575033
0.00594521
0.00615138
0.00637034
0.00660357
0.00685264
0.00711926
0.00740529
0.00771282
0.00804414
0.00840182
0.00878869
0.00920778
0.00966217
0.0101546
0.0106866
0.011257
0.0118587
0.0124744
0.0130723
0.00455266
0.00471648
0.00488868
0.00507179
0.00526749
0.0054777
0.00570445
0.00595013
0.00621761
0.00651041
0.00683298
0.007191
0.00759188
0.00804535
0.00856415
0.00916472
0.00986719
0.0106928
0.0116531
0.012715
0.00266299
0.00277091
0.00288114
0.00299855
0.00312453
0.00326086
0.00340933
0.00357204
0.00375158
0.00395126
0.0041754
0.00442984
0.00472271
0.00506561
0.00547586
0.00598025
0.00662266
0.00747988
0.00870014
0.0106177
0.000484988
0.000504187
0.000525013
0.000547785
0.000572838
0.000600582
0.000631526
0.000666316
0.000705798
0.000751091
0.00080372
0.000865812
0.000940426
0.00103211
0.00114788
0.0012991
0.00150514
0.0018011
0.00225537
0.0030126
0.000271731
0.000279068
0.000286386
0.000293722
0.000301114
0.000308599
0.000316221
0.000324023
0.000332054
0.000340363
0.000349006
0.000358043
0.000367537
0.000377557
0.000388176
0.000399442
0.000411407
0.000424173
0.000437856
0.00045258
0.000468479
0.00128025
0.00134874
0.0014162
0.00148255
0.00154764
0.00161143
0.00167391
0.00173516
0.00179535
0.00185472
0.00191359
0.00197237
0.00203153
0.00209163
0.00215326
0.00221678
0.00228352
0.002354
0.00242878
0.0025084
0.00259341
0.00233609
0.00244581
0.00255232
0.00265584
0.00275656
0.00285478
0.00295088
0.00304529
0.0031385
0.00323109
0.00332368
0.00341696
0.00351169
0.00360868
0.0037084
0.0038124
0.00392156
0.00403662
0.00415831
0.0042874
0.00442463
0.00312411
0.00324403
0.00336016
0.00347321
0.00358382
0.00369263
0.00380028
0.00390741
0.00401467
0.00412273
0.00423226
0.00434396
0.0044586
0.00457695
0.00469979
0.00482838
0.00496343
0.00510564
0.00525575
0.00541453
0.00558277
0.00360554
0.00371406
0.00381967
0.00392344
0.00402631
0.00412913
0.00423268
0.00433769
0.00444485
0.0045548
0.00466816
0.00478555
0.0049076
0.0050349
0.00516859
0.00530933
0.00545747
0.00561341
0.00577771
0.00595108
0.00613427
0.00380069
0.0038813
0.00396041
0.00403936
0.00411927
0.00420115
0.00428588
0.0043743
0.00446714
0.00456505
0.00466865
0.00477846
0.00489502
0.00501908
0.00515198
0.0052938
0.00544425
0.00560275
0.00576922
0.00594446
0.00612921
0.00374374
0.00378264
0.00382119
0.00386084
0.00390282
0.00394826
0.00399819
0.00405353
0.00411515
0.00418379
0.00426011
0.00434471
0.00443816
0.00454181
0.00465762
0.00478625
0.00492817
0.00507711
0.00523247
0.00539583
0.00556795
0.00348992
0.00347932
0.003469
0.00346021
0.00345403
0.0034515
0.00345357
0.00346117
0.00347529
0.00349678
0.0035263
0.00356442
0.00361142
0.00366744
0.00373481
0.00381403
0.00390413
0.00401261
0.0041358
0.00426591
0.00440394
0.00313656
0.00308164
0.00302659
0.00297167
0.00291709
0.00286306
0.00280994
0.00275821
0.00270851
0.00266156
0.00261808
0.00258063
0.00254982
0.00252436
0.00250137
0.00248037
0.00246287
0.00245946
0.0024811
0.00253168
0.00259487
0.00278975
0.00270814
0.0026255
0.00254067
0.00245241
0.00235944
0.00226037
0.00215379
0.00203829
0.00191267
0.00177629
0.00162946
0.0014727
0.00130702
0.00114659
0.000998911
0.000868781
0.000758674
0.000669224
0.000595851
0.000533467
7.19628e-05
6.7573e-05
6.85322e-05
7.81416e-05
0.000107573
0.000110223
0.000105264
0.000158071
0.000174998
0.000186301
0.000196684
0.000206385
0.000215559
0.000224315
0.000232736
0.000240884
0.000248815
0.000256572
0.000264199
0.000120905
0.000225638
0.000300392
0.000316695
0.000321413
0.00035566
0.000400776
0.000458195
0.000522294
0.000587303
0.00065326
0.000720217
0.000788164
0.00085705
0.000926768
0.000997149
0.00106797
0.00113895
0.00120982
0.000149384
0.000440729
0.000466893
0.000476657
0.000514652
0.000582845
0.000684713
0.000808316
0.00093958
0.00107289
0.00120663
0.00133981
0.00147189
0.00160248
0.00173122
0.00185776
0.00198178
0.002103
0.00222119
0.000182268
0.000569141
0.000612183
0.000648071
0.000721336
0.000844477
0.00100886
0.00119453
0.00138591
0.00157617
0.00176177
0.00194095
0.00211296
0.00227757
0.00243487
0.0025851
0.00272865
0.00286599
0.00299767
0.000212702
0.000686935
0.000730146
0.000833367
0.000955185
0.00113439
0.00135293
0.00158714
0.00182126
0.00204692
0.00225955
0.0024574
0.00264035
0.00280917
0.00296513
0.00310974
0.00324458
0.00337122
0.00349113
0.000234473
0.000709966
0.000851158
0.00103198
0.00120803
0.00143681
0.00169575
0.00196091
0.0022167
0.00245405
0.0026686
0.00285951
0.00302799
0.00317638
0.00330753
0.00342436
0.00352969
0.00362607
0.00371579
0.000250278
0.000765005
0.00098268
0.0012398
0.00146526
0.00173519
0.00201952
0.00229742
0.00255422
0.00278151
0.00297621
0.00313909
0.00327316
0.00338252
0.00347156
0.0035445
0.00360516
0.00365683
0.00370228
0.000263234
0.000851639
0.00112254
0.0014497
0.00171578
0.00201448
0.00231134
0.00258537
0.00282532
0.00302471
0.00318254
0.0033017
0.00338724
0.00344501
0.00348087
0.0035001
0.00350727
0.00350609
0.00349954
0.000273897
0.000954826
0.00126386
0.00165447
0.00195113
0.00226538
0.00256232
0.00281961
0.0030287
0.00318716
0.00329669
0.00336273
0.00339258
0.00339399
0.00337429
0.00333977
0.00329551
0.00324529
0.00319174
0.000282647
0.00106058
0.00140212
0.00184282
0.00216581
0.00248351
0.00276816
0.00299924
0.00316793
0.00327735
0.00333291
0.00334305
0.00331766
0.00326665
0.00319884
0.00312136
0.00303934
0.00295593
0.00287262
0.00249824
0.00240883
0.00231921
0.00222871
0.0021371
0.00204453
0.00195127
0.00185758
0.00176347
0.00166828
0.00156964
0.00146934
0.00136646
0.00125833
0.00114082
0.00100653
0.000835676
0.000537532
0.000341252
0.000230099
0.000138402
0.00223621
0.00212786
0.00201497
0.00189769
0.00177701
0.00165417
0.00153121
0.0014101
0.00129274
0.001185
0.00108962
0.000996503
0.000899565
0.000804683
0.000715993
0.000635752
0.000549507
0.000428772
0.00032108
0.00022353
0.00010156
0.0019603
0.00181873
0.00167191
0.0015245
0.00138261
0.0012532
0.00114374
0.00106159
0.00100804
0.000965586
0.000930302
0.000893184
0.000850735
0.000802599
0.000745495
0.000677196
0.000597186
0.000481642
0.000368797
0.000246881
8.9585e-05
0.00169126
0.00153704
0.00139585
0.00127948
0.00119888
0.00116065
0.00116221
0.00117915
0.00119529
0.00120173
0.00119331
0.00116692
0.00111949
0.00104708
0.000950336
0.000798552
0.000659525
0.000528316
0.000406345
0.000248145
9.51636e-05
0.00150204
0.0013937
0.00133186
0.00132339
0.00136108
0.00142387
0.00147856
0.00151247
0.00152278
0.00151108
0.00147717
0.0014204
0.00134001
0.00122589
0.00104342
0.000891864
0.000751469
0.000613071
0.000439506
0.000263126
0.00010152
0.00145797
0.00144676
0.00149397
0.00157969
0.00167241
0.00174181
0.00177821
0.0017906
0.00177998
0.0017484
0.00169548
0.00162016
0.00152131
0.00138362
0.00119035
0.00102532
0.00086831
0.000691553
0.000483755
0.000284327
0.000107653
0.00156081
0.001642
0.00175526
0.00186378
0.00194562
0.001993
0.00201162
0.0020094
0.00198787
0.0019468
0.00188486
0.00180048
0.00169193
0.00155658
0.00134557
0.00116159
0.000987408
0.000771283
0.000535029
0.000308868
0.000113426
0.00175079
0.00188234
0.0020075
0.00210272
0.0021645
0.00219766
0.00220787
0.00219964
0.00217325
0.00212741
0.00206051
0.00197065
0.00185568
0.00171336
0.00150256
0.00129997
0.00110884
0.000856604
0.000591156
0.000335662
0.00011884
0.00196572
0.00210882
0.00222263
0.0023021
0.00235216
0.00237873
0.00238538
0.00237438
0.0023449
0.0022956
0.00222481
0.00213059
0.0020106
0.00186213
0.00166124
0.00144032
0.00122182
0.000944989
0.000650686
0.000364205
0.000123935
0.00217066
0.00230721
0.00240855
0.00247825
0.00252272
0.00254651
0.00255145
0.00253812
0.00250562
0.00245267
0.00237782
0.00227926
0.00215469
0.00200113
0.00181504
0.00158215
0.00133174
0.00103448
0.000712553
0.000394211
0.000128759
0.00235537
0.00248299
0.00257604
0.00264088
0.00268313
0.00270583
0.00270918
0.0026932
0.00265703
0.00259967
0.00251998
0.00241652
0.00228723
0.00212911
0.00193804
0.00170912
0.00143782
0.00112348
0.000775907
0.000425491
0.000133353
0.00252241
0.00264343
0.00273225
0.0027954
0.00283728
0.00285927
0.00286072
0.00284146
0.00280078
0.002738
0.00265243
0.00254315
0.00240855
0.00224587
0.00205075
0.00181723
0.00153857
0.00121068
0.000840038
0.000457908
0.000137758
0.00267643
0.00279398
0.00288158
0.00294514
0.00298746
0.0030087
0.00300784
0.00298462
0.00293851
0.00286922
0.0027766
0.00266037
0.00251953
0.00235182
0.00215299
0.00191634
0.00163301
0.00129505
0.000904345
0.000491352
0.000142008
0.00282147
0.00293825
0.00302694
0.00309215
0.00313516
0.00315552
0.00315193
0.00312406
0.00307162
0.00299475
0.00289389
0.00276944
0.00262123
0.00244771
0.00224507
0.00200624
0.0017205
0.00137581
0.000968314
0.00052573
0.000146132
0.0029605
0.00307883
0.00317014
0.00323754
0.00328137
0.00330067
0.0032939
0.00326074
0.00320113
0.00311564
0.00300534
0.00287143
0.00271463
0.00253435
0.00232751
0.00208705
0.00180071
0.00145239
0.0010315
0.000560957
0.00015016
0.00309582
0.00321729
0.00331199
0.00338188
0.00342655
0.00344456
0.00343417
0.00339509
0.00332751
0.00323246
0.00311163
0.00296707
0.00280052
0.0026125
0.00240092
0.00215907
0.00187358
0.00152439
0.00109354
0.000596952
0.000154115
0.00322859
0.00335422
0.00345275
0.00352526
0.00357066
0.00358707
0.00357261
0.00352703
0.00345078
0.0033453
0.00321299
0.00305674
0.00287942
0.00268277
0.00246589
0.00222273
0.00193918
0.00159159
0.0011541
0.000633633
0.000158021
0.0033593
0.00348966
0.00359221
0.00366727
0.00371318
0.00372764
0.00370866
0.00365603
0.00357047
0.00345387
0.00330926
0.0031405
0.00295159
0.0027456
0.00252292
0.00227846
0.00199774
0.00165386
0.00121291
0.000670908
0.000161901
0.00348785
0.00362318
0.00372969
0.00380711
0.00385321
0.0038653
0.00384134
0.0037812
0.00368581
0.0035575
0.00340001
0.00321814
0.00301707
0.00280124
0.00257245
0.0023267
0.00204953
0.00171121
0.00126975
0.000708669
0.000165777
0.0036136
0.0037539
0.00386417
0.0039436
0.00398951
0.0039988
0.00396943
0.00390135
0.00379571
0.0036553
0.00348455
0.00328922
0.00307571
0.00284982
0.00261478
0.00236787
0.00209489
0.00176369
0.00132443
0.000746791
0.000169672
0.00373535
0.00388052
0.00399426
0.00407533
0.00412065
0.00412667
0.00409148
0.00401511
0.00389894
0.00374619
0.00356203
0.00335318
0.00312725
0.00289136
0.00265018
0.00240233
0.00213414
0.00181143
0.00137677
0.000785116
0.00017361
0.00385137
0.00400137
0.0041183
0.00420067
0.00424508
0.00424729
0.00420593
0.00412102
0.00399416
0.00382903
0.00363153
0.00340938
0.00317133
0.00292581
0.00267886
0.00243046
0.00216764
0.0018546
0.00142665
0.000823458
0.000177618
0.00392067
0.0041144
0.00423441
0.00431776
0.00436086
0.00435897
0.0043112
0.0042176
0.00408001
0.00390263
0.0036921
0.00345713
0.0032076
0.00295311
0.00270098
0.00245257
0.00219575
0.00189336
0.00147393
0.000861601
0.000181725
0.00384375
0.00411035
0.00434051
0.00442467
0.00446614
0.00446004
0.00440572
0.00430338
0.00415516
0.00396582
0.0037428
0.00349579
0.0032357
0.00297319
0.00271672
0.002469
0.00221882
0.00192794
0.00151849
0.000899228
0.000185963
0.00376875
0.00402975
0.00428522
0.00451717
0.00455926
0.00454896
0.00448805
0.00437698
0.00421833
0.0040175
0.00378277
0.00352477
0.00325535
0.00298603
0.00272629
0.00248008
0.00223718
0.00195853
0.00156019
0.000935929
0.000190372
0.00370215
0.00395748
0.00420556
0.00444316
0.00463055
0.00462428
0.00455684
0.00443713
0.00426834
0.00405666
0.00381125
0.00354361
0.00326635
0.00299169
0.0027299
0.00248614
0.00225119
0.00198531
0.00159884
0.00097098
0.000195001
0.00364549
0.00389691
0.00414282
0.00437609
0.00457446
0.0046848
0.00461089
0.00448264
0.00430414
0.00408246
0.00382764
0.00355195
0.00326861
0.00299028
0.00272783
0.00248755
0.00226117
0.00200846
0.00163428
0.00100359
0.000199911
0.00360282
0.0038516
0.0040979
0.00433664
0.00453898
0.00466004
0.00464919
0.00451248
0.00432481
0.00409422
0.00383155
0.00354968
0.00326221
0.00298201
0.00272038
0.00248468
0.00226746
0.0020281
0.00166757
0.00103554
0.000205015
0.00357507
0.00382348
0.0040725
0.00432145
0.00453785
0.00466519
0.00467115
0.00452578
0.00432968
0.00409154
0.00382284
0.00353686
0.00324735
0.00296742
0.00270868
0.00247863
0.00227134
0.00204631
0.00170023
0.00106812
0.000210213
0.00356019
0.00380991
0.00406416
0.00432689
0.00456232
0.00470668
0.00467607
0.00452331
0.00432027
0.0040764
0.00380365
0.00351551
0.00322572
0.00294739
0.00269239
0.00246902
0.00227253
0.00206271
0.00173236
0.00110141
0.000215527
0.0035545
0.00380579
0.00406631
0.00434554
0.00460328
0.00476892
0.00466655
0.00450686
0.004298
0.00404983
0.00377463
0.00348593
0.00319731
0.00292184
0.00267169
0.00245597
0.00227111
0.00207722
0.00176386
0.0011356
0.000220945
0.00355337
0.00380599
0.00407464
0.00437558
0.00465958
0.00475412
0.00464338
0.00447752
0.00426388
0.00401272
0.0037365
0.00344865
0.00316254
0.0028911
0.00264683
0.00243968
0.00226719
0.00208985
0.00179439
0.0011705
0.000226459
0.00355417
0.00380775
0.00408682
0.00441315
0.00472944
0.00472503
0.00460753
0.00443621
0.00421879
0.00396588
0.00368997
0.00340427
0.00312182
0.00285547
0.00261805
0.00242033
0.00226083
0.00210047
0.00182381
0.00120596
0.000232064
0.00355527
0.00380948
0.00410249
0.00445533
0.00474999
0.00468355
0.00455979
0.00438373
0.00416355
0.00391006
0.00363569
0.00335328
0.00307552
0.0028152
0.00258553
0.00239806
0.00225205
0.00210887
0.0018517
0.0012418
0.00023774
0.00355645
0.00381221
0.00412286
0.00450139
0.00470366
0.00463029
0.00450085
0.00432086
0.00409889
0.00384594
0.00357419
0.00329605
0.00302387
0.00277042
0.00254938
0.00237293
0.00224077
0.00211472
0.00187746
0.00127759
0.000243448
0.00355749
0.00381653
0.0041467
0.00455358
0.00464602
0.00456604
0.00443147
0.00424831
0.00402551
0.00377407
0.00350584
0.00323277
0.00296689
0.0027211
0.00250958
0.00234492
0.00222684
0.00211749
0.00190017
0.0013127
0.000249126
0.00355614
0.00381986
0.00416849
0.00459737
0.00457791
0.00449166
0.00435246
0.00416683
0.003944
0.00369483
0.00343079
0.00316336
0.0029044
0.00266706
0.00246599
0.00231393
0.00220997
0.00211646
0.00191853
0.00134622
0.00025468
0.00354501
0.00381997
0.00418278
0.00453744
0.00450043
0.00440815
0.00426472
0.00407715
0.00385483
0.00360842
0.00334894
0.00308752
0.00283602
0.00260795
0.00241839
0.00227974
0.00218973
0.00211056
0.00193066
0.00137689
0.000259987
0.00352949
0.00381154
0.00418796
0.00445923
0.00441493
0.00431669
0.00416922
0.00397995
0.00375834
0.00351478
0.00325991
0.00300468
0.00276115
0.0025433
0.00236647
0.00224207
0.00216554
0.00209828
0.00185068
0.00140321
0.00026489
0.00351465
0.00380076
0.00417507
0.00437473
0.00432295
0.00421863
0.00406696
0.0038758
0.00365461
0.00341355
0.00316303
0.00291404
0.00267905
0.00247262
0.00230994
0.0022006
0.0021367
0.00202893
0.00164216
0.00142457
0.000269184
0.00350012
0.00378574
0.00414778
0.00428481
0.00422611
0.00411519
0.00395869
0.00376488
0.0035433
0.00330398
0.00305731
0.00281462
0.00258902
0.00239553
0.00224864
0.00215516
0.0021025
0.00177136
0.00148869
0.00136461
0.000272534
0.00348466
0.00376404
0.00410646
0.00419079
0.00412548
0.00400719
0.00384449
0.00364664
0.00342336
0.00318474
0.00294145
0.00270541
0.00249053
0.00231203
0.00218278
0.00210576
0.00201424
0.0015762
0.00137688
0.00128951
0.000274964
0.00346784
0.00373406
0.00404941
0.00409569
0.00402141
0.00389427
0.00372326
0.00351942
0.00329287
0.00305397
0.00281396
0.00258561
0.00238359
0.00222279
0.00211312
0.00205276
0.00176406
0.00142823
0.00129309
0.00122586
0.000276227
0.00344938
0.00369714
0.00398183
0.00399961
0.00391305
0.00377387
0.0035924
0.00338036
0.00314913
0.00290951
0.00267358
0.00245506
0.00226915
0.00212963
0.00204122
0.00199707
0.00158059
0.00132171
0.00123626
0.00119649
0.000276336
0.00342774
0.0036563
0.00391171
0.0039009
0.00379762
0.00364244
0.00344756
0.00322586
0.00298918
0.00274956
0.00251995
0.00231504
0.00215
0.00203436
0.00196917
0.00182683
0.00144827
0.00125569
0.00121025
0.00120465
0.000275271
0.00340011
0.00361085
0.00384509
0.0037962
0.00367067
0.00349528
0.00328436
0.00305195
0.00281089
0.00257367
0.00235465
0.0021692
0.00203032
0.00194245
0.0019006
0.00164627
0.00136232
0.00123029
0.00121839
0.00124029
0.000273168
0.00336677
0.00356225
0.00377317
0.00367939
0.00352592
0.00332705
0.00309894
0.00285651
0.00261361
0.00238398
0.00218243
0.00202469
0.00191649
0.00185828
0.00183746
0.00151617
0.0013208
0.00124692
0.00126457
0.00129273
0.000269592
0.0033319
0.00351899
0.0036712
0.00354157
0.00335606
0.00313257
0.00288863
0.0026397
0.00240065
0.00218666
0.00201213
0.00188801
0.00181543
0.00178534
0.00166923
0.00142664
0.00132517
0.00131154
0.00135337
0.00135311
0.000264595
0.00328634
0.00348411
0.00354464
0.00337324
0.00315427
0.00290826
0.00265316
0.002405
0.00217971
0.00199266
0.00185533
0.00177115
0.00173187
0.001722
0.00149549
0.00138916
0.00138442
0.00143526
0.00148747
0.00131017
0.000257371
0.00323408
0.00345726
0.00338035
0.0031652
0.00291578
0.00265351
0.0023962
0.00216057
0.00196296
0.00181582
0.00172294
0.00167605
0.00166035
0.00151074
0.00140295
0.00142609
0.00151404
0.00161538
0.00166252
0.00125892
0.000248324
0.00318226
0.00337912
0.00316636
0.00291131
0.00263974
0.00237243
0.00212694
0.00192023
0.001766
0.00166805
0.00161627
0.00159411
0.00148144
0.0013856
0.00141503
0.00154757
0.00165789
0.00170339
0.00163531
0.00119555
0.000237848
0.00312582
0.00315903
0.00289532
0.00261094
0.00233125
0.00207575
0.00186117
0.00170178
0.00160286
0.00154979
0.00145696
0.00130488
0.00128817
0.00137231
0.00149312
0.00153144
0.00159565
0.00164464
0.00156276
0.00112157
0.000226199
0.00304246
0.00287005
0.00256765
0.00227093
0.00200334
0.00178202
0.00161941
0.00152224
0.00147289
0.00124045
0.00113724
0.00114743
0.00123577
0.00136356
0.00139435
0.00145804
0.00153825
0.00157687
0.0014721
0.0010354
0.000213397
0.00284297
0.00251388
0.0021925
0.00190744
0.00167838
0.00151526
0.00142248
0.00126955
0.00104999
0.000994922
0.00102612
0.0010995
0.00119601
0.00124848
0.00131379
0.00140187
0.00147351
0.00148045
0.00133882
0.000901851
0.000200748
0.00246045
0.00210101
0.00178911
0.00154729
0.00138475
0.00130047
0.00102334
0.000890671
0.00088196
0.00092692
0.000970376
0.000990161
0.00102818
0.00114747
0.00124089
0.00132388
0.00134975
0.00131577
0.00114547
0.000741469
0.000188485
0.00201376
0.00165403
0.00139021
0.00122551
0.00107415
0.000818938
0.000766069
0.000801876
0.000851046
0.000840243
0.000784703
0.000752924
0.000804237
0.000967952
0.00110012
0.00114561
0.00114885
0.00108974
0.000915764
0.00058371
0.000176003
0.00152074
0.00121131
0.00104081
0.000766627
0.000651027
0.000675966
0.00075175
0.000794478
0.000717625
0.000581512
0.000539172
0.000571101
0.000660167
0.000808615
0.000891864
0.000912062
0.000899943
0.000834464
0.000687913
0.000447943
0.000162749
0.00101561
0.000828685
0.000533622
0.000525087
0.000614966
0.000721829
0.000710394
0.000599845
0.000457744
0.00039408
0.00041491
0.000473491
0.000558156
0.000619637
0.000654001
0.000663344
0.000648727
0.000598013
0.00049875
0.000344938
0.000140336
0.000568934
0.000329671
0.00039955
0.000528493
0.000625529
0.000604908
0.000456869
0.000308783
0.000243853
0.000240018
0.000262058
0.00029495
0.000332957
0.000371265
0.000403558
0.000421205
0.000422566
0.000404158
0.000357527
0.000271451
0.000116222
0.000158964
0.000122286
0.000118205
0.000113792
0.000103429
8.98563e-05
7.64562e-05
7.17692e-05
7.39894e-05
7.86628e-05
8.3783e-05
8.88014e-05
9.36479e-05
9.84202e-05
0.000103329
0.000108711
0.00011368
0.000117058
0.000108645
0.000110697
9.32929e-05
0.00029032
0.00117628
0.00154434
0.00199807
0.00236521
0.00267521
0.00293627
0.00313042
0.00325249
0.00330722
0.00330605
0.00326119
0.00318557
0.00309132
0.00298845
0.00288408
0.00278226
0.0026844
0.00259013
0.000296765
0.001298
0.00168723
0.00214884
0.00253549
0.00282901
0.00305878
0.00321051
0.00328299
0.00328501
0.00323158
0.00313991
0.00302588
0.00290296
0.00278066
0.00266391
0.00255351
0.0024475
0.0023427
0.000302269
0.00142764
0.00183367
0.00230224
0.00267607
0.00294672
0.00314044
0.00324753
0.00327122
0.00322499
0.00312786
0.00300051
0.00286103
0.0027222
0.00259046
0.00246624
0.00234585
0.00222405
0.0020963
0.000306765
0.00150105
0.00198944
0.00246549
0.0027886
0.00303227
0.00318777
0.0032507
0.00322906
0.00314108
0.00300992
0.00285833
0.00270424
0.00255736
0.00241912
0.00228501
0.00214839
0.00200399
0.00185039
0.000310349
0.00155198
0.00215779
0.00257259
0.00287582
0.00309019
0.00320746
0.00322881
0.00316716
0.00304528
0.00288961
0.00272356
0.00256221
0.00241037
0.00226439
0.00211716
0.00196332
0.00180324
0.00164469
0.000313114
0.00159315
0.0022554
0.00265475
0.00294075
0.0031252
0.00320595
0.00318978
0.00309451
0.00294696
0.00277551
0.00260211
0.00243734
0.00228061
0.00212544
0.00196655
0.00180568
0.00165437
0.00153153
0.000315134
0.001625
0.00232029
0.00271924
0.00298665
0.0031419
0.00318907
0.00314042
0.00301839
0.00285304
0.00267297
0.0024968
0.00232976
0.00216749
0.00200466
0.00184321
0.00169682
0.00158785
0.00153877
0.000316477
0.00164834
0.00237148
0.00276822
0.00301674
0.00314456
0.00316192
0.0030863
0.00294437
0.0027682
0.00258491
0.00240835
0.00223894
0.0020717
0.00190726
0.00175932
0.00165271
0.00161237
0.00164935
0.000317211
0.001664
0.0024105
0.00280387
0.00303406
0.00313696
0.00312877
0.00303186
0.00287646
0.00269535
0.00251245
0.00233634
0.0021644
0.00199507
0.00183923
0.00172286
0.00167491
0.00171039
0.0018184
0.000317402
0.00167289
0.00243884
0.0028283
0.00304138
0.00312234
0.00309307
0.00298042
0.00281736
0.00263591
0.00245553
0.00227982
0.00210591
0.00193961
0.00180422
0.00173354
0.00175076
0.001852
0.00200689
0.000317113
0.00167585
0.00245796
0.00284344
0.00304112
0.00310336
0.00305749
0.00293433
0.00276863
0.00259024
0.00241331
0.00223768
0.00206342
0.00190651
0.00180177
0.00178367
0.00186147
0.00201232
0.00219146
0.000316406
0.00167374
0.0024692
0.00285105
0.00303532
0.00308219
0.00302403
0.00289511
0.00273093
0.00255788
0.00238456
0.00220877
0.00203649
0.00189516
0.00182766
0.00186201
0.00199046
0.00217426
0.00236281
0.000315337
0.00166732
0.00247379
0.00285265
0.00302569
0.00306046
0.00299405
0.00286355
0.00270419
0.00253786
0.00236778
0.00219182
0.00202404
0.00190331
0.00187559
0.00195767
0.00212601
0.00232986
0.00252088
0.000313959
0.00165731
0.00247284
0.00284954
0.00301358
0.0030394
0.00296839
0.00283986
0.00268777
0.00252872
0.00236119
0.0021854
0.00202466
0.00192769
0.00193908
0.00206267
0.00226109
0.00247661
0.00266807
0.000312321
0.00164435
0.00246732
0.00284283
0.00300005
0.00301985
0.00294749
0.00282382
0.0026806
0.00252844
0.00230398
0.00218769
0.0020365
0.00196475
0.00201257
0.00217183
0.00239246
0.00261509
0.00280717
0.000310464
0.00162902
0.00245809
0.0028334
0.00298592
0.00300237
0.00293142
0.00281479
0.00268112
0.0023673
0.00217002
0.00219639
0.00205735
0.00201127
0.00209235
0.00228129
0.00251846
0.00274665
0.0029405
0.00030843
0.00161181
0.00244585
0.00282197
0.00297177
0.00298725
0.00292
0.00281189
0.00266571
0.00222437
0.00207442
0.00214012
0.00208495
0.0020644
0.00217538
0.00238893
0.00263926
0.00287269
0.00306969
0.00030625
0.00159315
0.00243121
0.00280912
0.00295801
0.0029746
0.00291286
0.002814
0.00250361
0.00212244
0.00200816
0.00208522
0.00211778
0.00212183
0.00225972
0.00249419
0.00275541
0.00299433
0.00319571
0.000303955
0.00157339
0.00241469
0.00279528
0.00294492
0.00296439
0.00290949
0.00281989
0.00238182
0.00204969
0.001961
0.00204555
0.00215456
0.00218172
0.00234431
0.002597
0.00286741
0.00311219
0.00331888
0.000301569
0.00155284
0.00239669
0.00278081
0.00293264
0.00295648
0.00290931
0.0028285
0.00229383
0.00199779
0.00192777
0.00201831
0.00219405
0.002243
0.00242792
0.00269643
0.0029752
0.00322622
0.0034389
0.000299115
0.00153175
0.00237757
0.00276596
0.00292126
0.00295063
0.0029117
0.00276296
0.00223028
0.00196165
0.00190566
0.00200065
0.00218157
0.0023046
0.00250899
0.00279112
0.00307791
0.00333557
0.00355474
0.00029661
0.00151032
0.0023576
0.0027509
0.00291077
0.00294659
0.00291603
0.00268147
0.00218473
0.0019371
0.00189168
0.00198976
0.00216699
0.00236499
0.00258581
0.00285129
0.0031232
0.00340608
0.00366466
0.00029407
0.00148873
0.002337
0.00273578
0.00290114
0.00294409
0.00292179
0.002621
0.00215292
0.00192132
0.00188375
0.00198368
0.00215728
0.00235451
0.00257028
0.00281388
0.00307472
0.00334709
0.00363159
0.000291507
0.0014671
0.00231596
0.00272067
0.0028923
0.00294285
0.00292858
0.00257766
0.00213178
0.00191273
0.00188047
0.00197994
0.00214884
0.00233808
0.00254154
0.00277148
0.00302169
0.00328518
0.00356122
0.000288931
0.00144553
0.00229462
0.00270564
0.00288415
0.00294263
0.00293612
0.00254764
0.00211915
0.00191004
0.00188088
0.00197778
0.00214059
0.0023214
0.00251366
0.00273102
0.00297038
0.00322576
0.00349489
0.000286351
0.00142412
0.00227309
0.00269071
0.0028766
0.00294321
0.00294417
0.00252832
0.00211353
0.00191219
0.0018843
0.00197725
0.00213312
0.00230561
0.0024879
0.00269411
0.00292362
0.00317138
0.00343416
0.000283772
0.0014029
0.00225146
0.0026759
0.00286955
0.00294439
0.00295255
0.0025179
0.00211391
0.00191841
0.00189032
0.00197841
0.00212707
0.00229154
0.00246492
0.00266171
0.00288331
0.00312508
0.00338266
0.000281201
0.00138194
0.00222978
0.00266119
0.00286289
0.00294601
0.00296112
0.002515
0.0021195
0.00192816
0.00189866
0.00198131
0.00212285
0.00227984
0.00244549
0.0026347
0.00285051
0.0030885
0.00334318
0.000278636
0.00136126
0.00220811
0.00264657
0.00285654
0.00294792
0.00296978
0.00251859
0.00212972
0.00194107
0.0019092
0.00198601
0.00212072
0.00227098
0.00243016
0.0026136
0.00282563
0.003062
0.00331613
0.000276082
0.00134085
0.00218648
0.00263202
0.0028504
0.00295
0.00297843
0.00252782
0.00214416
0.0019569
0.00192186
0.00199261
0.00212092
0.00226527
0.0024192
0.00259846
0.00280842
0.00304488
0.00330024
0.000273549
0.0013207
0.00216488
0.00261751
0.00284438
0.00295213
0.00298698
0.00254201
0.00216244
0.0019755
0.00193672
0.00200122
0.00212356
0.00226281
0.00241257
0.00258898
0.00279813
0.00303567
0.00329318
0.000271031
0.00130098
0.00214328
0.00260297
0.00283832
0.00295407
0.00299512
0.00256017
0.00218408
0.00199696
0.00195437
0.00201223
0.00212893
0.00226379
0.00241018
0.00258476
0.00279389
0.00303271
0.0032914
0.000268587
0.00128074
0.00212122
0.00258806
0.002832
0.00295569
0.0030028
0.00258179
0.00220855
0.00202053
0.0019741
0.00202626
0.002138
0.00226908
0.00241293
0.0025858
0.00279437
0.00303357
0.00329252
0.000266207
0.00126006
0.00209874
0.00257278
0.00282538
0.00295693
0.00300999
0.00260651
0.00223569
0.002046
0.00199588
0.00204307
0.00215065
0.0022788
0.00242045
0.00259135
0.00279856
0.00303702
0.00329504
0.000263881
0.00123911
0.00207586
0.00255709
0.00281838
0.0029577
0.00301669
0.00263396
0.00226539
0.00207342
0.00201965
0.0020625
0.00216659
0.00229251
0.00243221
0.00260075
0.00280571
0.00304225
0.00329818
0.000261604
0.00121802
0.00205258
0.00254098
0.00281095
0.00295798
0.00302287
0.00266375
0.00229751
0.00210277
0.00204541
0.0020844
0.00218551
0.00230978
0.00244773
0.00261348
0.0028152
0.00304858
0.00330114
0.000259368
0.00119687
0.00202889
0.00252441
0.00280304
0.00295771
0.00302853
0.00269546
0.00233188
0.00213402
0.00207312
0.00210862
0.00220716
0.00233023
0.0024666
0.00262911
0.00282647
0.00305506
0.0033027
0.000257168
0.00117569
0.0020048
0.00250735
0.00279461
0.00295685
0.00303366
0.00272859
0.00236825
0.0021671
0.00210274
0.00213502
0.00223125
0.00235353
0.0024885
0.00264738
0.00283916
0.00306128
0.00330221
0.000255
0.00115451
0.00198034
0.00248978
0.00278562
0.00295538
0.00303825
0.0027626
0.00240632
0.0022019
0.00213416
0.00216353
0.00225755
0.00237949
0.00251332
0.00266834
0.00285349
0.00306787
0.00329595
0.000252858
0.00113334
0.00195553
0.00247169
0.00277603
0.00295329
0.00304231
0.00279686
0.00244572
0.00223825
0.00216704
0.002194
0.0022861
0.002408
0.00254121
0.0026922
0.00287047
0.00307357
0.0032844
0.000250739
0.00111225
0.00193039
0.00245305
0.00276582
0.00295055
0.00304583
0.00283064
0.00248594
0.00227587
0.00220118
0.00222608
0.00231679
0.00243889
0.00257205
0.00271954
0.00289048
0.00307097
0.00327359
0.000248638
0.00109125
0.00190493
0.00243385
0.00275496
0.00294715
0.00304882
0.00286309