/*--------------------------------*- C++ -*----------------------------------*\
| =========                 |                                                 |
| \\      /  F ield         | OpenFOAM: The Open Source CFD Toolbox           |
|  \\    /   O peration     | Version:  v2012                                 |
|   \\  /    A nd           | Website:  www.openfoam.com                      |
|    \\/     M anipulation  |                                                 |
\*---------------------------------------------------------------------------*/
FoamFile
{
    version     2.0;
    format      ascii;
    class       volScalarField;
    location    "623";
    object      omega;
}
// * * * * * * * * * * * * * * * * * * * * * * * * * * * * * * * * * * * * * //

dimensions      [0 0 -1 0 0 0 0];


internalField   nonuniform List<scalar> 
6057
(
96.3139
100.065
104.164
108.661
113.617
119.11
125.241
132.136
139.962
148.941
159.376
171.688
186.483
204.662
227.618
257.605
298.461
357.149
447.228
597.382
42.8342
44.6775
46.6997
48.9258
51.3885
54.1302
57.2033
60.6735
64.6243
69.164
74.4337
80.6206
87.9759
96.8402
107.678
121.118
137.978
159.181
185.203
213.645
33.4703
34.9881
36.6555
38.4954
40.5361
42.8116
45.3648
48.2494
51.533
55.3018
59.6674
64.7761
70.8224
78.0693
86.8794
97.7633
111.463
129.103
152.526
185.188
30.3944
31.8105
33.368
35.0885
36.9986
39.131
41.5261
44.2342
47.3194
50.8638
54.9742
59.7922
65.5091
72.3889
80.8071
91.314
104.75
122.465
146.758
181.851
29.319
30.7007
32.2217
33.903
35.7709
37.8575
40.2027
42.8567
45.8832
49.3644
53.4084
58.1591
63.8139
70.6488
79.0621
89.6479
103.326
121.578
146.879
183.49
29.325
30.7049
32.2246
33.905
35.7723
37.8584
40.2033
42.8571
45.8835
49.3646
53.4085
58.1592
63.814
70.6488
79.0622
89.648
103.326
121.578
146.879
183.49
30.4168
31.8255
33.3782
35.0955
37.0034
39.1343
41.5282
44.2356
47.3203
50.8644
54.9746
59.7925
65.5092
72.389
80.8071
91.3141
104.75
122.465
146.758
181.851
33.5283
35.0248
36.6799
38.5115
40.5465
42.8184
45.3693
48.2524
51.5349
55.3031
59.6683
64.7767
70.8228
78.0696
86.8795
97.7634
111.463
129.103
152.526
185.188
43.0002
44.7665
46.756
48.9601
51.4105
54.1446
57.2127
60.6796
64.6284
69.1667
74.4355
80.6218
87.9767
96.8407
107.678
121.118
137.978
159.181
185.203
213.645
96.1705
99.9776
104.107
108.623
113.591
119.092
125.228
132.127
139.956
148.937
159.373
171.686
186.482
204.661
227.618
257.604
298.461
357.149
447.228
597.382
53.8828
55.3377
56.7888
58.2435
59.7092
61.1936
62.705
64.2521
65.8444
67.4921
69.2061
70.9981
72.8807
74.8675
76.9732
79.2073
81.5798
84.1113
86.8245
89.7441
92.897
25.7327
25.9173
26.1503
26.4336
26.7692
27.1593
27.6058
28.1107
28.6761
29.3041
29.997
30.7572
31.5872
32.4898
33.4683
34.5265
35.6625
36.8838
38.1996
39.6208
41.1603
19.1477
19.3147
19.5313
19.7958
20.1071
20.4641
20.8663
21.3138
21.8068
22.3463
22.9335
23.5704
24.259
25.0021
25.8041
26.6658
27.592
28.5894
29.6658
30.8303
32.0939
16.6957
16.9092
17.1654
17.462
17.797
18.1692
18.578
19.0232
19.5053
20.0255
20.5852
21.1865
21.8322
22.5254
23.2698
24.0687
24.9275
25.8529
26.8526
27.9353
29.1116
15.6419
15.9024
16.1997
16.5314
16.8958
17.2918
17.7187
18.1768
18.6667
19.1896
19.7476
20.3427
20.9781
21.6571
22.383
23.1605
23.9956
24.8955
25.8681
26.9221
28.0681
15.2483
15.5601
15.9049
16.2803
16.6846
17.1168
17.5767
18.0645
18.5812
19.1282
19.7073
20.3207
20.9714
21.6621
22.3952
23.1758
24.0108
24.909
25.88
26.9322
28.0762
15.2694
15.6495
16.0609
16.5008
16.9676
17.4602
17.9787
18.524
19.0978
19.7022
20.3397
21.0127
21.7237
22.4734
23.2607
24.0864
24.9517
25.8811
26.8836
27.9659
29.1394
15.6241
16.1056
16.6188
17.1596
17.7252
18.3136
18.9248
19.5604
20.2245
20.9231
21.6637
22.455
23.305
24.2206
25.2006
26.2458
27.3652
28.4918
29.6329
30.8445
32.1408
16.2589
16.8957
17.5748
18.2912
19.0405
19.8188
20.6234
21.4528
22.3075
23.1915
24.1143
25.1097
26.2099
27.4626
28.9322
30.6672
32.6722
34.8501
36.9941
38.9545
40.9274
17.0625
17.9048
18.8186
19.8061
20.8717
22.0232
23.2709
24.6275
26.1074
27.7266
29.5017
31.4504
33.5807
35.8876
38.6704
42.2207
46.7712
52.591
59.9542
69.2874
81.2935
14.2697
13.3993
13.5895
15.4951
21.3313
25.6841
29.2264
32.1934
34.7012
36.9425
39.0014
40.925
42.7441
44.4805
46.1502
47.7661
49.3386
50.8769
52.3891
15.0258
10.0254
12.8527
18.294
22.0853
23.9635
24.8116
25.2347
25.4241
25.4829
25.4889
25.4688
25.439
25.4111
25.3945
25.3975
25.4271
25.4895
25.5901
18.5651
12.0812
15.4693
18.8949
20.7043
21.3202
21.3651
21.1678
20.8385
20.4661
20.1082
19.7859
19.5105
19.2879
19.1212
19.0121
18.9609
18.9673
19.0301
22.6519
14.1245
16.3468
18.1946
19.0084
19.1336
18.9262
18.5545
18.1121
17.6767
17.2881
16.9613
16.7023
16.5125
16.3908
16.3346
16.3408
16.4056
16.5252
26.4342
15.346
16.4391
17.2495
17.5414
17.4626
17.179
16.7848
16.3604
15.9682
15.6363
15.3749
15.1864
15.0694
15.0205
15.0357
15.1101
15.239
15.4178
29.1398
16.0099
16.2135
16.4223
16.3833
16.2071
15.9112
15.5497
15.1867
14.8683
14.6149
14.4332
14.3236
14.2833
14.3085
14.3945
14.5364
14.7292
14.968
31.1041
16.3197
15.8734
15.729
15.5121
15.2618
14.9764
14.6665
14.3762
14.1378
13.9656
13.8639
13.8324
13.8683
13.9681
14.1278
14.3426
14.6078
14.9184
32.7142
16.3958
15.5086
15.1554
14.8474
14.5539
14.2764
14.0204
13.8015
13.6399
13.5452
13.5204
13.5655
13.679
13.8589
14.1023
14.4054
14.7638
15.1721
34.0395
16.3488
15.16
14.6818
14.3279
14.0179
13.7485
13.5362
13.381
13.2878
13.263
13.3092
13.4281
13.6206
13.8872
14.2273
14.6389
15.1184
15.6606
35.1269
16.2542
14.8423
14.2877
13.9111
13.5998
13.3466
13.1638
13.0594
13.0232
13.0575
13.1657
13.3522
13.6213
13.9771
14.4219
14.9558
15.5766
16.2805
17.6546
18.586
19.5755
20.6218
21.7258
22.8912
24.1204
25.4154
26.7751
28.1903
29.6252
31.1392
32.7697
34.546
36.4779
38.4963
40.387
41.5761
40.4791
37.5616
31.8543
17.4229
18.1385
18.8254
19.4672
20.0453
20.5403
20.9172
21.1296
21.1301
21.0812
21.0494
20.9795
20.8045
20.5805
20.3486
20.138
19.6275
18.4073
16.4479
13.7584
13.1377
16.0593
16.2478
16.2818
16.1331
15.7781
15.1987
14.4023
13.5073
12.775
12.1387
11.6195
11.1582
10.7482
10.4095
10.1579
9.98198
9.81564
9.62096
9.56924
9.77687
11.5887
13.6301
13.1183
12.374
11.4302
10.3653
9.30259
8.3894
7.7868
7.38243
7.12248
6.97839
6.92281
6.94871
7.06997
7.27496
7.56654
7.96393
8.48488
9.1604
10.1034
12.3104
10.6553
9.62538
8.51212
7.45201
6.57731
5.95941
5.62961
5.48043
5.44778
5.49262
5.59983
5.76272
5.97991
6.25889
6.60358
7.02823
7.56149
8.24687
9.15807
10.4917
13.1327
7.94862
6.88324
5.97657
5.30587
4.88443
4.6867
4.64705
4.68611
4.78133
4.91853
5.09402
5.30827
5.56452
5.86995
6.23742
6.6889
7.26224
8.02381
9.09131
10.7341
13.9261
6.02296
5.22709
4.66914
4.34221
4.19369
4.1719
4.22649
4.32292
4.45103
4.60744
4.79268
5.00933
5.2625
5.56138
5.92273
6.37391
6.96061
7.76754
8.95055
10.8549
14.6728
4.84331
4.32574
4.02324
3.88598
3.85811
3.89882
3.98148
4.09107
4.22354
4.37884
4.55858
4.76605
5.00698
5.29152
5.63804
6.07808
6.66391
7.49414
8.75929
10.887
15.3732
4.14754
3.83031
3.67634
3.63029
3.65105
3.71324
3.80301
3.91326
4.04291
4.19265
4.36433
4.56123
4.78906
5.05806
5.38714
5.81031
6.38528
7.22135
8.54024
10.8581
16.0323
3.72806
3.53731
3.46218
3.45895
3.49966
3.56901
3.65945
3.76774
3.89362
4.03795
4.20246
4.39014
4.60629
4.86087
5.17252
5.57578
6.1325
6.96114
8.31083
10.7884
16.6562
3.46124
3.34503
3.31193
3.3294
3.37865
3.45016
3.53996
3.64627
3.76915
3.90941
4.06847
4.24886
4.45534
4.69723
4.99256
5.37528
5.90936
6.72099
8.08337
10.6932
17.2506
3.27859
3.20662
3.19661
3.22461
3.27764
3.34986
3.43901
3.544
3.66499
3.80264
3.95804
4.13317
4.33213
4.56337
4.84388
5.20677
5.7166
6.50503
7.86614
10.5831
17.8204
3.14502
3.0999
3.10309
3.13661
3.19148
3.26401
3.35276
3.45707
3.57716
3.71353
3.86692
4.03878
4.23241
4.45522
4.72292
5.06741
5.55306
6.31496
7.66439
10.466
18.3702
3.04212
3.01378
3.02466
3.06115
3.11696
3.18958
3.27813
3.38224
3.50219
3.63836
3.79121
3.96164
4.15211
4.36882
4.62601
4.95413
5.41677
6.15086
7.48122
10.3475
18.9037
2.95994
2.94219
2.95755
2.99563
3.05177
3.12426
3.21262
3.31677
3.43709
3.57393
3.72749
3.89819
4.08755
4.3005
4.54962
4.86375
5.30532
6.01189
7.31828
10.2319
19.4247
2.89258
2.88158
2.89952
2.93823
2.99415
3.0662
3.15424
3.25849
3.3795
3.51763
3.67297
3.8454
4.03557
4.24698
4.49051
4.79324
5.21618
5.89663
7.17623
10.1223
19.9364
2.83665
2.82988
2.84909
2.88763
2.9428
3.01402
3.10149
3.20575
3.32758
3.46747
3.62539
3.80083
3.9935
4.20547
4.44584
4.73983
5.1469
5.80344
7.05514
10.0211
20.4417
2.79001
2.7857
2.80516
2.84286
2.89676
2.96671
3.05329
3.15738
3.28004
3.42197
3.58311
3.76257
3.9592
4.17364
4.41314
4.70104
5.09518
5.7306
6.9547
9.9303
20.9436
2.75121
2.74805
2.76693
2.80318
2.8553
2.92356
3.00891
3.11261
3.23605
3.38016
3.54495
3.72923
3.93105
4.14964
4.3904
4.67476
5.05897
5.67648
6.87445
9.85159
21.445
2.71914
2.71612
2.73376
2.76803
2.81792
2.88412
2.96793
3.07103
3.19514
3.3415
3.51021
3.69987
3.90784
4.13202
4.37596
4.65922
5.03651
5.63956
6.81382
9.78657
21.9489
2.69289
2.68926
2.70515
2.73702
2.78431
2.84813
2.93018
3.03249
3.15718
3.30577
3.47854
3.67398
3.88881
4.11975
4.36858
4.653
5.02631
5.61855
6.77232
9.73685
22.4583
2.67175
2.66699
2.68075
2.70991
2.75428
2.81557
2.89569
2.99711
3.12229
3.27308
3.44996
3.65138
3.87359
4.11221
4.36735
4.65501
5.0272
5.61235
6.74954
9.70414
22.9768
2.65528
2.64906
2.66043
2.68668
2.72798
2.78658
2.86468
2.96514
3.09078
3.24374
3.42473
3.63224
3.86214
4.10909
4.37174
4.66449
5.03832
5.62015
6.74521
9.69027
23.508
2.64339
2.63548
2.64436
2.66753
2.7057
2.76147
2.83751
2.93703
3.06314
3.21827
3.40337
3.61699
3.85473
4.11045
4.38152
4.681
5.0591
5.64138
6.75929
9.69773
24.0562
2.63609
2.62629
2.6327
2.65282
2.68771
2.74063
2.81461
2.91327
3.03996
3.19735
3.38659
3.60633
3.85193
4.11663
4.3968
4.70443
5.0893
5.67575
6.79197
9.72957
24.6266
2.63333
2.62146
2.62537
2.6426
2.67435
2.72436
2.79642
2.89443
3.02195
3.1818
3.37531
3.60117
3.85457
4.12828
4.41798
4.73498
5.12898
5.72328
6.84375
9.79115
25.2254
2.63496
2.62083
2.62214
2.63649
2.6654
2.71289
2.78332
2.88114
3.00994
3.17262
3.37065
3.60267
3.86373
4.14632
4.4458
4.77319
5.17855
5.78432
6.91528
9.88835
25.8605
2.64071
2.62412
2.62274
2.63422
2.66055
2.70619
2.77578
2.87415
3.00492
3.17103
3.37394
3.61223
3.88076
4.17196
4.48126
4.8199
5.23875
5.8596
7.00334
10.0082
26.5208
2.6503
2.63111
2.62704
2.63585
2.66007
2.70466
2.77441
2.87451
3.00821
3.17853
3.38683
3.63151
3.90727
4.2064
4.52468
4.87492
5.30817
5.94518
7.104
10.1404
27.1933
2.66367
2.6418
2.63524
2.64193
2.66496
2.70946
2.78046
2.88287
3.02027
3.19549
3.40966
3.66094
3.94385
4.25081
4.57825
4.94029
5.38881
6.04346
7.21885
10.2828
27.8807
2.68107
2.65666
2.64797
2.65308
2.67564
2.72079
2.79401
2.90005
3.04233
3.22353
3.44445
3.70285
3.99304
4.30763
4.64396
5.01781
5.48236
6.15586
7.34922
10.4367
28.5815
2.70347
2.67641
2.6658
2.6699
2.69284
2.73982
2.81662
2.92766
3.07622
3.26469
3.49338
3.75952
4.05715
4.37911
4.72393
5.1095
5.59067
6.28429
7.49603
10.604
29.2948
2.73141
2.70171
2.68956
2.69342
2.71781
2.76809
2.85005
2.96771
3.12418
3.32136
3.55892
3.83345
4.13865
4.46767
4.82051
5.21763
5.71582
6.43062
7.66171
10.7861
30.0199
2.76568
2.73351
2.72036
2.72497
2.7522
2.80751
2.89643
3.02258
3.18874
3.39619
3.64377
3.92735
4.2402
4.57593
4.93628
5.34471
5.86011
6.5969
7.84789
10.9838
30.7542
2.80732
2.77298
2.75959
2.76624
2.79804
2.86037
2.95825
3.09497
3.27278
3.49212
3.75089
4.0441
4.36465
4.70667
5.07399
5.49345
6.02603
6.78526
8.05645
11.1978
31.4926
2.85758
2.82154
2.80895
2.81936
2.85767
2.92919
3.03834
3.18792
3.37944
3.61233
3.8834
4.18677
4.51495
4.86279
5.23653
5.66665
6.21608
6.99785
8.28904
11.4283
32.227
2.91786
2.8808
2.87042
2.88677
2.93368
3.01691
3.13989
3.30479
3.51214
3.76019
4.04457
4.35847
4.6941
5.04719
5.4268
5.86713
6.43266
7.23653
8.54675
11.6749
32.9456
2.99033
2.95268
2.94607
2.97046
3.02904
3.1268
3.26642
3.44918
3.67444
3.93913
4.23763
4.56226
4.90499
5.26271
5.6476
6.09747
6.67785
7.50254
8.82969
11.9354
33.6321
3.07735
3.04013
3.03827
3.07372
3.14707
3.26245
3.42164
3.62479
3.86989
4.15247
4.4657
4.80103
5.15034
5.51194
5.90144
6.35988
6.9531
7.79597
9.13648
12.2058
34.2663
3.18094
3.14601
3.15091
3.19975
3.2913
3.4276
3.60932
3.83525
4.10188
4.40334
4.73159
5.07733
5.43246
5.79707
6.19036
6.65586
7.259
8.11807
9.46512
12.4721
34.8218
3.3032
3.27296
3.28824
3.35313
3.46562
3.62616
3.83325
4.0841
4.37363
4.69457
5.03778
5.39332
5.75323
6.11982
6.51571
6.98606
7.59558
8.47124
9.80876
12.7083
35.2551
3.44639
3.42403
3.45591
3.53899
3.67465
3.86224
4.09741
4.37498
4.68834
5.02896
5.38663
5.75091
6.11418
6.48148
6.87817
7.3499
7.96394
8.85061
10.155
12.9323
35.5695
3.61278
3.60181
3.65358
3.76048
3.92366
4.14078
4.40632
4.71203
5.04969
5.40964
5.7807
6.15214
6.51684
6.8833
7.27783
7.74547
8.36031
9.24269
10.49
13.1437
35.7328
3.80519
3.81082
3.88768
4.02364
4.21879
4.46874
4.76579
5.10048
5.46229
5.84059
6.22332
6.59974
6.96361
7.3275
7.71441
8.17079
8.77446
9.62396
10.7869
13.3051
35.747
4.02739
4.05961
4.16612
4.33607
4.56767
4.85376
5.18388
5.54687
5.93201
6.32699
6.71903
7.09798
7.45951
7.81204
8.18473
8.61987
9.18838
9.96377
11.0099
13.3869
35.6092
4.28391
4.35322
4.4962
4.70637
4.97936
5.30461
5.66907
6.05988
6.46578
6.87544
7.27427
7.65413
8.00941
8.34678
8.68872
9.07896
9.57189
10.2221
11.1205
13.3793
35.3372
4.58267
4.69752
4.88765
5.14597
5.46536
5.83184
6.23036
6.64787
7.07317
7.4949
7.89901
8.2815
8.62277
8.92892
9.21192
9.51693
9.87863
10.3509
11.0798
13.2372
34.8746
4.94491
5.11252
5.35792
5.67119
6.04038
6.44797
6.87823
7.32003
7.76423
8.1986
8.60993
8.98601
9.30507
9.54692
9.72282
9.87923
10.0428
10.2959
10.8421
12.986
34.2282
5.37632
5.61433
5.92655
6.30141
6.72151
7.16712
7.6249
8.08913
8.55412
9.00738
9.43077
9.79533
10.0478
10.1566
10.1475
10.0699
9.97939
10.0081
10.3912
12.6051
33.2936
5.90759
6.23181
6.62086
7.0605
7.52788
8.00485
8.48643
8.97641
9.47171
9.95538
10.3881
10.6907
10.7872
10.6589
10.3542
9.966
9.61932
9.4705
9.85442
12.1733
32.1233
6.57933
7.00218
7.47413
7.97436
8.47908
8.98002
9.48914
10.0203
10.5655
11.082
11.4657
11.596
11.3928
10.878
10.1814
9.49048
8.98003
8.77493
9.28572
11.7517
30.7681
7.43442
7.96831
8.5202
9.06682
9.59609
10.1236
10.6831
11.2853
11.8961
12.3791
12.5707
12.3278
11.6204
10.6033
9.55397
8.6825
8.13936
8.04783
8.74193
11.3666
29.2612
8.53505
9.17469
9.7865
10.3601
10.9135
11.5007
12.1546
12.8643
13.4629
13.7266
13.4291
12.5108
11.171
9.76041
8.54605
7.64155
7.155
7.34762
8.28349
11.0681
27.6051
9.92238
10.6458
11.2939
11.893
12.5174
13.2287
14.0431
14.7696
15.0981
14.6897
13.4706
11.7622
10.0048
8.49404
7.32603
6.58058
6.38054
6.86261
8.07073
11.1933
25.9689
11.6178
12.3967
13.0913
13.7784
14.5691
15.5157
16.3695
16.7139
16.0784
14.397
12.2396
10.209
8.50162
7.2148
6.31055
5.89284
6.07275
6.77968
8.22725
11.6907
24.3825
13.5982
14.4792
15.3411
16.2568
17.3993
18.3561
18.5502
17.4231
15.0705
12.3972
10.2273
8.55768
7.31918
6.52535
6.03842
5.9262
6.28538
7.13948
8.80093
12.4297
22.7678
15.9435
17.1435
18.4582
19.8538
20.7669
20.4331
18.2338
14.866
11.983
9.79318
8.65404
7.82735
7.17016
6.69698
6.46173
6.54967
7.01852
7.98867
9.78004
13.2606
21.0532
19.1507
21.0794
23.0236
23.3064
21.3932
17.4448
12.7757
10.4721
9.50145
8.97025
8.58528
8.16769
7.76762
7.48529
7.42274
7.66018
8.22931
9.26662
11.0239
13.9818
19.1239
24.9833
26.3481
25.9154
19.4543
13.6568
10.8697
9.49664
9.22365
9.46417
9.71319
9.78425
9.66662
9.43601
9.20843
9.13318
9.38832
9.98703
10.9512
12.3991
14.3968
16.7352
38.0581
21.4797
20.7629
19.9878
18.1674
15.7834
13.4297
12.6064
12.9964
13.8172
14.7166
15.5981
16.4494
17.2876
18.1499
19.0952
19.968
20.5614
20.5954
19.5083
14.1453
36.0805
16.137
14.5419
13.9379
13.5507
13.2474
13.014
12.8597
12.788
12.7964
12.8785
13.0385
13.2838
13.622
14.0589
14.5967
15.2331
15.9611
16.7717
36.8815
16.0189
14.272
13.6371
13.2466
12.9543
12.7387
12.6046
12.5544
12.5863
12.6979
12.8908
13.1732
13.5524
14.0302
14.6
15.2467
15.9488
16.6821
37.5654
15.9062
14.0253
13.3703
12.9808
12.6987
12.4958
12.3726
12.3312
12.37
12.4891
12.6907
12.9791
13.3542
13.8049
14.3061
14.8221
15.312
15.7358
38.1243
15.7893
13.7931
13.1255
12.7391
12.4642
12.2669
12.1442
12.0985
12.1292
12.2358
12.4193
12.6761
12.9907
13.3304
13.6469
13.8841
13.9887
13.9156
38.5697
15.6682
13.5706
12.8947
12.511
12.2388
12.0396
11.9077
11.8463
11.8553
11.9326
12.0727
12.2587
12.454
12.602
12.6355
12.4926
12.1266
11.5124
38.9133
15.5456
13.3549
12.672
12.2895
12.0152
11.8071
11.6581
11.5723
11.5498
11.5843
11.6593
11.7392
11.7653
11.6641
11.3678
10.8329
10.0489
9.05531
39.1643
15.4224
13.1444
12.4539
12.0702
11.7894
11.5673
11.396
11.2811
11.2215
11.2035
11.1958
11.1423
10.9676
10.5984
9.99092
9.14516
8.1197
7.03048
39.3312
15.2988
12.9382
12.2385
11.8513
11.5608
11.3214
11.1259
10.981
10.8824
10.8058
10.7025
10.4988
10.1153
9.50033
8.65391
7.63833
6.57474
5.60599
39.4224
15.175
12.7358
12.0254
11.6325
11.3305
11.0731
10.8545
10.6818
10.545
10.4064
10.1996
9.84071
9.26285
8.4542
7.46764
6.42039
5.45516
4.68423
39.4462
15.0516
12.5375
11.8146
11.4148
11.1011
10.8271
10.5889
10.3928
10.2201
10.0177
9.70427
9.19655
8.45586
7.51753
6.48368
5.49766
4.68326
4.0952
39.4103
14.9289
12.3434
11.607
11.1999
10.8757
10.5883
10.3359
10.1215
9.91549
9.64877
9.23003
8.58796
7.72375
6.71694
5.70262
4.82109
4.15337
3.71182
39.3225
14.8075
12.1543
11.4036
10.9896
10.6571
10.361
10.1004
9.87302
9.63601
9.30516
8.78605
8.03026
7.08152
6.05395
5.09741
4.32815
3.78615
3.45359
39.1896
14.6879
11.9706
11.2055
10.7857
10.4481
10.1485
9.88592
9.65013
9.38381
8.98998
8.37846
7.53158
6.5311
5.51552
4.63313
3.9665
3.52559
3.27089
39.0184
14.5704
11.793
11.0137
10.5897
10.2506
9.95311
9.69413
9.45355
9.159
8.70436
8.00985
7.09313
6.06682
5.08298
4.27608
3.69793
3.33564
3.13566
38.8147
14.4555
11.6218
10.8289
10.4027
10.0661
9.77581
9.52531
9.28264
8.96121
8.44808
7.67917
6.71255
5.67947
4.73739
3.99927
3.49524
3.19303
3.03172
38.584
14.3433
11.4576
10.6518
10.2254
9.895
9.61673
9.37867
9.13638
8.78962
8.21777
7.38484
6.38644
5.35868
4.46072
3.78429
3.34076
3.08344
2.94965
38.3311
14.2341
11.3003
10.4827
10.0582
9.73753
9.47528
9.25277
9.01261
8.6412
8.01295
7.12644
6.10753
5.0946
4.23967
3.61685
3.22152
2.99782
2.88373
38.0602
14.1278
11.1502
10.3218
9.90124
9.59333
9.35035
9.14597
8.90914
8.51273
7.8322
6.90093
5.87035
4.8786
4.06321
3.48559
3.12876
2.93032
2.83037
37.775
14.0245
11.0071
10.1691
9.75419
9.4617
9.24044
9.05573
8.82323
8.40216
7.67392
6.70546
5.67006
4.70326
3.92223
3.38224
3.05644
2.87703
2.78719
37.4785
13.924
10.871
10.0244
9.61671
9.34169
9.14381
8.9796
8.75227
8.30763
7.53646
6.53748
5.50226
4.56109
3.8106
3.3018
3.00036
2.8352
2.75247
37.1735
13.8263
10.7414
9.88739
9.48825
9.23219
9.05874
8.91552
8.69383
8.22744
7.41834
6.39557
5.36273
4.44527
3.72357
3.24039
2.95744
2.80273
2.72484
36.8622
13.7311
10.6183
9.75777
9.36816
9.13201
8.98345
8.86161
8.64593
8.16007
7.31806
6.27746
5.24821
4.3526
3.65728
3.19463
2.92523
2.77796
2.70326
36.5465
13.6384
10.5011
9.63511
9.25578
9.04002
8.91629
8.81603
8.60694
8.10379
7.23414
6.18176
5.15748
4.28109
3.60766
3.16114
2.90182
2.75976
2.68694
36.228
13.548
10.3897
9.51899
9.1504
8.95511
8.85579
8.77715
8.57547
8.05778
7.16596
6.10626
5.08802
4.22804
3.5723
3.1383
2.88636
2.74777
2.6758
35.9079
13.4597
10.2836
9.40894
9.05133
8.87624
8.80066
8.7436
8.55037
8.02129
7.11251
6.04907
5.03754
4.19126
3.54958
3.12509
2.87829
2.74173
2.66972
35.5873
13.3733
10.1825
9.30453
8.95791
8.80247
8.74978
8.71418
8.53062
7.99357
7.07276
6.00846
5.00409
4.16904
3.53826
3.12072
2.87717
2.74138
2.6686
35.2668
13.2888
10.086
9.20532
8.86953
8.73299
8.70219
8.68788
8.51532
7.9739
7.04567
5.98289
4.98598
4.16003
3.53739
3.12457
2.88258
2.74647
2.67225
34.9472
13.2059
9.99393
9.11091
8.78561
8.66708
8.65709
8.66379
8.50365
7.96161
7.03023
5.97099
4.98176
4.16311
3.54622
3.13611
2.89417
2.7567
2.68037
34.6285
13.1246
9.90582
9.02088
8.70566
8.60411
8.61377
8.64114
8.49485
7.956
7.02549
5.97149
4.99019
4.17739
3.56418
3.15495
2.91161
2.77179
2.69271
34.3111
13.0447
9.82153
8.93491
8.62922
8.54356
8.57166
8.61925
8.48823
7.95644
7.03059
5.98326
5.01021
4.20216
3.59082
3.18077
2.93471
2.79157
2.70911
33.9962
12.9666
9.7407
8.8527
8.5559
8.48498
8.53028
8.59745
8.48303
7.96225
7.04486
6.00536
5.04094
4.23684
3.6258
3.21341
2.96342
2.8161
2.72961
33.6833
12.8893
9.66347
8.77423
8.48564
8.42833
8.48931
8.57451
8.4773
7.97259
7.06894
6.03748
5.08181
4.28109
3.66869
3.2527
2.99807
2.84603
2.75545
33.3796
12.8213
9.59141
8.69988
8.41838
8.37331
8.44841
8.55003
8.46993
7.98444
7.0991
6.07888
5.13303
4.33534
3.72183
3.30157
3.04074
2.8827
2.78715
33.0837
12.7618
9.52427
8.62939
8.35383
8.31964
8.40734
8.52374
8.46057
7.99654
7.13395
6.1286
5.19363
4.39995
3.78534
3.35999
3.09172
2.92659
2.82539
32.7947
12.7096
9.46184
8.56252
8.29178
8.2671
8.36589
8.49541
8.44893
8.00841
7.17269
6.18565
5.26284
4.47429
3.85888
3.42803
3.15147
2.97843
2.87108
32.5117
12.6636
9.40395
8.49911
8.23203
8.21551
8.3239
8.4649
8.43476
8.01962
7.21458
6.24917
5.33988
4.55771
3.94216
3.50586
3.22057
3.03914
2.92537
32.2338
12.6231
9.35049
8.43902
8.17442
8.16473
8.28127
8.43213
8.41789
8.02971
7.25896
6.3184
5.42399
4.6496
4.03488
3.5937
3.29975
3.10982
2.9896
31.9605
12.5876
9.30128
8.38215
8.11883
8.11467
8.23796
8.39711
8.3982
8.0383
7.30524
6.3928
5.51446
4.74939
4.13678
3.69179
3.38978
3.19173
3.06542
31.691
12.5567
9.25614
8.3284
8.0652
8.06528
8.19397
8.35986
8.37563
8.04504
7.3528
6.47218
5.61066
4.85672
4.24777
3.80044
3.49152
3.28629
3.1547
31.4248
12.5301
9.21493
8.27768
8.01345
8.01654
8.14931
8.32051
8.35018
8.04954
7.39953
6.55533
5.71306
4.97127
4.36841
3.92009
3.60591
3.39479
3.25944
31.1614
12.5074
9.17748
8.22992
7.96356
7.96848
8.10408
8.27921
8.32193
8.05151
7.44471
6.64076
5.8214
5.09276
4.4984
4.05112
3.73388
3.51895
3.38113
30.9003
12.488
9.14367
8.18506
7.91553
7.92112
8.05837
8.23617
8.29103
8.05073
7.48782
6.72616
5.93436
5.222
4.63779
4.1943
3.87637
3.6597
3.52144
30.6411
12.4716
9.11333
8.14304
7.86935
7.87456
8.01235
8.19167
8.2577
8.04709
7.52839
6.81082
6.05045
5.35799
4.78665
4.34956
4.03398
3.81797
3.682
30.3834
12.4578
9.08631
8.10381
7.82507
7.82888
7.96618
8.14602
8.22227
8.04062
7.56611
6.8941
6.16864
5.49987
4.94483
4.51733
4.20669
3.99475
3.86459
30.1269
12.446
9.06243
8.06733
7.78273
7.78422
7.92012
8.0996
8.18514
8.0315
7.60081
6.9755
6.28808
5.64749
5.11202
4.69729
4.39521
4.19132
4.07137
29.8712
12.4359
9.04147
8.03353
7.74237
7.74074
7.8744
8.05284
8.14684
8.02008
7.63252
7.05474
6.40826
5.79998
5.28842
4.88968
4.60053
4.40948
4.30534
29.6162
12.4268
9.02319
8.00234
7.70406
7.69859
7.82934
8.00623
8.10798
8.0069
7.66155
7.13186
6.52991
5.9579
5.47357
5.09552
4.82445
4.6522
4.5713
29.3615
12.4182
9.00729
7.97367
7.66786
7.65797
7.78526
7.96031
8.0693
7.99272
7.6885
7.20734
6.65283
6.12216
5.66894
5.31691
5.07019
4.92445
4.87777
29.1071
12.4093
8.99342
7.94738
7.63379
7.61906
7.74252
7.91568
8.03162
7.97849
7.71436
7.28284
6.77935
6.29346
5.87693
5.55738
5.34298
5.2342
5.23682
28.8528
12.3994
8.98117
7.92331
7.60188
7.58203
7.70149
7.87296
7.99586
7.96539
7.74048
7.35966
6.91175
6.47472
6.10135
5.82248
5.65112
5.59503
5.67816
28.5986
12.3876
8.97005
7.90122
7.57208
7.54703
7.66249
7.8328
7.96301
7.95475
7.76889
7.44119
7.05281
6.67009
6.34789
6.12047
6.00737
6.0283
6.23708
28.3445
12.3732
8.95951
7.88086
7.54432
7.51414
7.62584
7.79583
7.93404
7.94805
7.80179
7.53175
7.20631
6.88511
6.62452
6.46365
6.43228
6.57618
6.94585
28.0905
12.3551
8.94894
7.86187
7.51845
7.48338
7.5919
7.76266
7.90991
7.94679
7.84125
7.63414
7.37733
7.1274
6.94239
6.87031
6.95929
7.31922
7.8878
27.8368
12.3325
8.93766
7.84386
7.49425
7.45471
7.5609
7.73379
7.89148
7.95257
7.89107
7.75154
7.57119
7.40529
7.31676
7.36764
7.64178
8.28823
9.11629
27.5836
12.3042
8.92494
7.82636
7.47144
7.42801
7.53293
7.70953
7.87944
7.96675
7.95522
7.88759
7.79363
7.72927
7.76792
7.99773
8.61812
9.60898
10.6887
27.3312
12.2696
8.91004
7.80882
7.44963
7.40307
7.50793
7.69001
7.87419
7.99015
8.03452
8.0453
8.05049
8.11184
8.3208
8.80367
9.86255
11.2904
12.5523
27.0798
12.2276
8.89221
7.79067
7.42839
7.37959
7.48567
7.6751
7.87575
8.02304
8.12897
8.22633
8.34682
8.56586
9.00617
9.89542
11.488
13.2685
14.5532
26.83
12.1775
8.87075
7.77133
7.40722
7.35716
7.46577
7.66434
7.88365
8.06495
8.23741
8.43028
8.68461
9.09742
9.83338
11.2304
13.4053
15.1745
16.523
26.5821
12.1186
8.84503
7.75023
7.38562
7.3353
7.44768
7.657
7.89691
8.1145
8.35701
8.6532
9.05778
9.6931
10.7645
12.6649
15.2505
16.5622
18.6706
26.337
12.0501
8.81465
7.72698
7.3632
7.31361
7.43078
7.65202
7.91379
8.16885
8.48203
8.88494
9.4458
10.308
11.7074
14.0055
16.5689
17.5821
21.394
26.1454
11.9903
8.78694
7.70652
7.34423
7.29584
7.41746
7.64899
7.92916
8.21531
8.58541
9.07553
9.7615
10.7974
12.4541
14.9177
17.4143
18.9144
23.9884
25.9562
11.9263
8.75616
7.68433
7.32436
7.27772
7.40418
7.64622
7.94481
8.26133
8.68458
9.25339
10.0391
11.1795
12.9276
15.2176
17.905
19.297
17.8053
25.7691
11.8578
8.72203
7.66
7.30305
7.25866
7.39029
7.643
7.95999
8.30611
8.77805
9.41279
10.2616
11.4147
13.0231
14.9654
17.7024
17.9226
17.5708
17.1771
16.0861
15.727
15.7095
15.8318
16.0156
16.2165
16.412
16.5896
16.7417
16.8629
16.948
16.9899
16.9774
16.8894
16.6848
16.2827
15.5428
14.3589
12.2983
5.44826
6.96285
6.22824
6.13736
6.1433
6.18659
6.2449
6.31545
6.39949
6.49912
6.61686
6.7558
6.92
7.11485
7.34732
7.6259
7.95894
8.34712
8.75771
9.09356
9.14681
8.36319
5.11708
4.78259
4.6992
4.69645
4.73968
4.80914
4.9004
5.0127
5.14684
5.3046
5.48882
5.70365
5.95514
6.25226
6.60841
7.04318
7.58231
8.25076
9.05313
9.92536
10.1783
4.41183
4.18094
4.10996
4.11153
4.15451
4.22199
4.31118
4.42214
4.55511
4.7115
4.89398
5.10681
5.35663
5.65368
6.01406
6.46295
7.03882
7.79645
8.81381
10.152
11.4839
3.96083
3.79064
3.72899
3.72689
3.76065
3.82131
3.90244
4.00514
4.12949
4.27671
4.44934
4.65169
4.89054
5.1767
5.52757
5.9715
6.55474
7.35402
8.49462
10.1443
12.4759
3.64381
3.49418
3.43409
3.42581
3.45106
3.50337
3.57675
3.67136
3.78716
3.92519
4.08786
4.27934
4.50635
4.77971
5.11709
5.54794
6.12286
6.93286
8.13221
10.0161
13.2801
3.39436
3.25587
3.19573
3.18101
3.1992
3.24453
3.31265
3.40105
3.51001
3.64042
3.79447
3.97612
4.19188
4.45235
4.77506
5.18968
5.74913
6.54956
7.77672
9.83403
13.9635
3.19394
3.06234
3.00157
2.98228
2.9955
3.03588
3.09997
3.18379
3.28744
3.41164
3.55836
3.73127
3.93662
4.18471
4.49275
4.89049
5.43116
6.2165
7.45474
9.64375
14.5639
3.03349
2.90611
2.8442
2.82222
2.83243
2.8697
2.93051
3.01089
3.11038
3.22945
3.36983
3.53495
3.73073
3.96711
4.26101
4.6419
5.16362
5.93142
7.17117
9.46223
15.101
2.90644
2.78042
2.71736
2.69425
2.70303
2.73843
2.79688
2.87466
2.97079
3.08552
3.22036
3.37848
3.56546
3.79089
4.07131
4.43599
4.9391
5.68861
6.92437
9.29587
15.5884
2.80627
2.67945
2.61598
2.59289
2.60134
2.63579
2.6926
2.76834
2.86168
2.97265
3.10259
3.25439
3.43332
3.64856
3.91628
4.26551
4.75071
5.48196
6.71043
9.1462
16.0355
2.72777
2.59919
2.53582
2.51349
2.5223
2.55637
2.61203
2.6861
2.77702
2.88468
3.01025
3.15637
3.32796
3.53379
3.78962
4.12427
4.59242
5.3059
6.5251
9.01276
16.4496
2.66696
2.53632
2.4733
2.45205
2.46155
2.49557
2.55035
2.62295
2.7117
2.8164
2.93807
3.0791
3.24406
3.44126
3.68606
4.00704
4.45912
5.15557
6.3644
8.89438
16.8364
2.6207
2.48801
2.42535
2.4052
2.41544
2.44948
2.50347
2.57467
2.66139
2.76341
2.8816
3.01815
3.17719
3.36658
3.6012
3.90946
4.3465
5.02687
6.22484
8.78968
17.2004
2.58671
2.45185
2.38938
2.37011
2.38091
2.41485
2.46799
2.53774
2.62251
2.72206
2.83719
2.96982
3.1237
3.30611
3.53144
3.82792
4.25102
4.91635
6.10344
8.69731
17.5454
2.56336
2.42606
2.36329
2.34444
2.35544
2.389
2.44111
2.5093
2.59212
2.68937
2.8018
2.93111
3.08059
3.25688
3.47382
3.75948
4.16972
4.82118
5.99768
8.61607
17.8745
2.54929
2.40917
2.34538
2.32631
2.337
2.36981
2.42061
2.48706
2.56786
2.66292
2.77297
2.89953
3.04539
3.21646
3.42594
3.70174
4.10023
4.73897
5.90545
8.54491
18.1905
2.54342
2.39994
2.33427
2.31421
2.324
2.35559
2.40475
2.46922
2.54789
2.6408
2.74875
2.87308
3.0161
3.1829
3.38587
3.65279
4.04059
4.6678
5.82495
8.48291
18.4958
2.54458
2.39726
2.32886
2.30699
2.31522
2.34509
2.39225
2.45448
2.53083
2.62157
2.7276
2.85017
2.99111
3.1546
3.35207
3.61109
3.98924
4.60602
5.75468
8.42926
18.7925
2.55173
2.40022
2.32827
2.30377
2.30978
2.33745
2.38221
2.44187
2.51569
2.60415
2.70834
2.82949
2.96911
3.13037
3.32336
3.57541
3.94486
4.55226
5.6933
8.38328
19.0827
2.56394
2.40801
2.33175
2.30392
2.3071
2.33205
2.37401
2.43078
2.50181
2.58779
2.69004
2.81004
2.94903
3.10916
3.29881
3.54473
3.90632
4.50531
5.63964
8.34429
19.3681
2.58015
2.4201
2.33892
2.30706
2.30677
2.32854
2.3673
2.42086
2.48874
2.5719
2.67198
2.79096
2.9299
3.08959
3.27708
3.51802
3.87252
4.46405
5.59265
8.31168
19.6506
2.59939
2.43615
2.34965
2.31287
2.30862
2.32679
2.36199
2.41194
2.47623
2.55608
2.65392
2.7719
2.91052
3.06997
3.25645
3.49389
3.84243
4.42747
5.55139
8.28489
19.9319
2.62186
2.45559
2.36355
2.32144
2.31275
2.3269
2.35809
2.4039
2.46409
2.54033
2.63536
2.75165
2.88984
3.0495
3.23581
3.47128
3.81534
4.39479
5.51513
8.26346
20.2138
2.64796
2.47819
2.38055
2.33281
2.31911
2.32868
2.35535
2.39649
2.452
2.5239
2.61543
2.7296
2.86734
3.02774
3.21466
3.44962
3.7908
4.36544
5.4833
8.2471
20.4979
2.67799
2.50429
2.40076
2.34687
2.3275
2.33173
2.35315
2.38897
2.43925
2.50634
2.59397
2.7057
2.84294
3.00459
3.1931
3.42867
3.76815
4.33905
5.45552
8.2357
20.7861
2.71253
2.53424
2.4243
2.36356
2.33763
2.33567
2.35109
2.38111
2.42587
2.48796
2.57143
2.68039
2.81695
2.98014
3.17114
3.40838
3.74724
4.31542
5.4316
8.22941
21.0803
2.75135
2.56871
2.45171
2.38316
2.34966
2.34065
2.34951
2.37344
2.41258
2.46954
2.54864
2.65443
2.7899
2.95463
3.14876
3.38872
3.72801
4.29452
5.41152
8.22867
21.3826
2.793
2.6062
2.48229
2.40557
2.3639
2.34728
2.34918
2.36684
2.40028
2.45206
2.52658
2.62872
2.76247
2.92842
3.12601
3.36961
3.7104
4.27635
5.39536
8.23417
21.6954
2.83705
2.64579
2.51524
2.43039
2.38034
2.35592
2.35081
2.36226
2.39015
2.43671
2.50624
2.60416
2.7354
2.90193
3.10298
3.35095
3.69436
4.26101
5.38331
8.2469
22.0213
2.8837
2.68773
2.55019
2.45734