/*--------------------------------*- C++ -*----------------------------------*\
| =========                 |                                                 |
| \\      /  F ield         | OpenFOAM: The Open Source CFD Toolbox           |
|  \\    /   O peration     | Version:  v2012                                 |
|   \\  /    A nd           | Website:  www.openfoam.com                      |
|    \\/     M anipulation  |                                                 |
\*---------------------------------------------------------------------------*/
FoamFile
{
    version     2.0;
    format      ascii;
    class       volScalarField;
    location    "623";
    object      p;
}
// * * * * * * * * * * * * * * * * * * * * * * * * * * * * * * * * * * * * * //

dimensions      [0 2 -2 0 0 0 0];


internalField   nonuniform List<scalar> 
6057
(
0.320477
0.321033
0.321508
0.32192
0.322282
0.322607
0.322904
0.323182
0.323447
0.323702
0.32395
0.324193
0.324433
0.324673
0.324916
0.325162
0.325418
0.325736
0.326259
0.327021
0.320479
0.321044
0.321524
0.321936
0.322298
0.322623
0.322922
0.323203
0.32347
0.323729
0.323983
0.324232
0.32448
0.324728
0.324978
0.325228
0.325478
0.325749
0.326065
0.326343
0.320524
0.321082
0.321552
0.321953
0.322305
0.322621
0.322913
0.323189
0.323453
0.32371
0.323963
0.324212
0.324461
0.32471
0.32496
0.325203
0.32544
0.325677
0.325881
0.325978
0.320668
0.321201
0.321643
0.322017
0.322346
0.322643
0.322922
0.323186
0.323443
0.323694
0.323943
0.324189
0.324435
0.32468
0.324924
0.325158
0.325383
0.325599
0.325767
0.325824
0.320921
0.321404
0.321798
0.322129
0.322423
0.322694
0.322953
0.323204
0.323451
0.323696
0.323939
0.324182
0.324425
0.324668
0.324908
0.325138
0.325359
0.325563
0.325714
0.325759
0.32129
0.321688
0.322012
0.322281
0.322529
0.322767
0.323002
0.323237
0.323473
0.32371
0.323949
0.324189
0.324429
0.324671
0.32491
0.32514
0.32536
0.325563
0.325714
0.325759
0.321796
0.32205
0.322275
0.322463
0.322654
0.322854
0.323064
0.323282
0.323507
0.323737
0.323971
0.324208
0.324447
0.324689
0.324929
0.325161
0.325386
0.325601
0.325768
0.325825
0.322495
0.322486
0.322573
0.322657
0.322785
0.322945
0.323131
0.323334
0.32355
0.323774
0.324006
0.324241
0.32448
0.324722
0.324968
0.325209
0.325443
0.32568
0.325883
0.32598
0.32338
0.32296
0.322843
0.322815
0.322885
0.323014
0.323182
0.323375
0.323584
0.323805
0.324033
0.324265
0.324502
0.324742
0.324987
0.325234
0.325482
0.325752
0.326067
0.326345
0.324251
0.323376
0.322965
0.322866
0.3229
0.323012
0.323171
0.323358
0.323562
0.323777
0.324
0.324226
0.324455
0.324687
0.324925
0.325168
0.325422
0.325739
0.326262
0.327023
0.412399
0.393336
0.376603
0.362168
0.349957
0.339855
0.331716
0.325369
0.320627
0.317289
0.315146
0.313987
0.313606
0.313812
0.314425
0.315287
0.316272
0.317272
0.318219
0.319076
0.319828
0.412393
0.393288
0.37649
0.361982
0.349698
0.339528
0.33133
0.324935
0.320159
0.316805
0.314665
0.313528
0.313187
0.313447
0.314127
0.315064
0.316113
0.317169
0.318157
0.319042
0.319814
0.40971
0.390748
0.374093
0.359725
0.347582
0.337557
0.329507
0.323265
0.318647
0.315459
0.313496
0.312543
0.312388
0.312825
0.313671
0.314756
0.315935
0.317093
0.318147
0.319066
0.319855
0.404409
0.385738
0.36939
0.355345
0.343536
0.333853
0.326152
0.320263
0.316004
0.313177
0.311578
0.310986
0.311177
0.311937
0.313076
0.314416
0.315804
0.317115
0.318258
0.319213
0.32001
0.396448
0.378236
0.362382
0.348857
0.337585
0.328453
0.321313
0.315989
0.312289
0.31001
0.308957
0.308905
0.309607
0.310833
0.312393
0.314094
0.315767
0.317285
0.318535
0.319507
0.320289
0.385848
0.368273
0.353104
0.340298
0.32977
0.321403
0.315041
0.310478
0.307501
0.305934
0.305626
0.306324
0.307723
0.309562
0.311663
0.313842
0.315881
0.31767
0.319044
0.319972
0.320694
0.372692
0.355928
0.341635
0.329746
0.320161
0.312754
0.30734
0.30365
0.301535
0.300947
0.301636
0.303294
0.305646
0.308298
0.311046
0.313782
0.316269
0.31839
0.319867
0.3206
0.321211
0.357169
0.341399
0.328167
0.317379
0.308909
0.302603
0.29826
0.295679
0.294733
0.295284
0.297049
0.299784
0.303268
0.307019
0.310577
0.31392
0.316895
0.31932
0.32088
0.321366
0.321839
0.339715
0.325139
0.313159
0.303642
0.296428
0.291341
0.288197
0.286831
0.287048
0.288583
0.291342
0.29522
0.299884
0.3047
0.309203
0.313331
0.316871
0.319698
0.322051
0.323179
0.322445
0.321147
0.307987
0.297441
0.289329
0.283461
0.279649
0.277739
0.277598
0.278986
0.281582
0.285451
0.290523
0.296402
0.302648
0.308904
0.314783
0.319888
0.323867
0.327426
0.327898
0.320168
0.770473
0.769213
0.768497
0.768547
0.768351
0.766277
0.758414
0.742295
0.719936
0.693635
0.664757
0.63434
0.603216
0.572079
0.541517
0.512026
0.484024
0.457881
0.433912
0.769908
0.768225
0.768034
0.768891
0.769075
0.766115
0.756339
0.739486
0.7177
0.691973
0.663575
0.633549
0.602733
0.571827
0.541427
0.512042
0.4841
0.457975
0.433958
0.770243
0.768245
0.768217
0.768697
0.767206
0.761416
0.749617
0.732374
0.710884
0.685756
0.65803
0.628613
0.598312
0.567826
0.537764
0.508652
0.480937
0.455002
0.431139
0.772386
0.769914
0.768898
0.767088
0.762518
0.753902
0.74064
0.723002
0.701515
0.676766
0.649565
0.620682
0.590862
0.560788
0.531074
0.502264
0.474827
0.449158
0.425561
0.775643
0.772195
0.768942
0.764147
0.756483
0.745412
0.730643
0.712223
0.690416
0.665702
0.638716
0.610124
0.580607
0.550822
0.521389
0.492863
0.465729
0.440396
0.417178
0.778242
0.773039
0.767198
0.759458
0.749019
0.735705
0.719319
0.699848
0.677447
0.652476
0.625434
0.596904
0.567512
0.537896
0.508676
0.48042
0.453628
0.428716
0.406001
0.778321
0.771069
0.762931
0.752524
0.739662
0.724335
0.70637
0.685748
0.662573
0.637118
0.609794
0.581118
0.55168
0.522107
0.493025
0.46502
0.438603
0.414197
0.392112
0.774723
0.765726
0.755743
0.743127
0.728239
0.711151
0.691705
0.669906
0.645835
0.619717
0.591911
0.562894
0.533241
0.503585
0.47457
0.446802
0.420805
0.397002
0.375688
0.767754
0.756998
0.745531
0.731204
0.714671
0.696066
0.675256
0.652292
0.627253
0.60034
0.571889
0.542366
0.512356
0.482519
0.453533
0.426031
0.400547
0.377494
0.357133
0.757271
0.74492
0.732345
0.716739
0.698899
0.679013
0.656984
0.632906
0.606871
0.579078
0.549866
0.519723
0.489272
0.459226
0.430314
0.4032
0.378421
0.356356
0.337211
0.3023
0.29092
0.282095
0.275588
0.271165
0.268618
0.267786
0.26853
0.270612
0.273764
0.277935
0.283077
0.288887
0.295005
0.300858
0.30588
0.310085
0.314129
0.31727
0.314728
0.302973
0.285247
0.276051
0.269234
0.264519
0.261675
0.260521
0.260934
0.262818
0.265981
0.270163
0.275166
0.281
0.287422
0.29392
0.299713
0.304366
0.308155
0.311582
0.313433
0.311478
0.306694
0.271757
0.264698
0.259716
0.256565
0.255062
0.255057
0.256406
0.258996
0.26266
0.267088
0.272173
0.277963
0.284241
0.290643
0.296635
0.301729
0.305797
0.308874
0.310208
0.308927
0.306401
0.261753
0.256505
0.252997
0.251009
0.250366
0.250921
0.252556
0.255232
0.258892
0.263375
0.268527
0.274237
0.280324
0.286474
0.292305
0.297488
0.301793
0.304982
0.306551
0.306144
0.304731
0.254394
0.250405
0.247763
0.246305
0.245932
0.24659
0.248249
0.250895
0.254466
0.25886
0.263961
0.269623
0.275639
0.2817
0.287479
0.292698
0.297109
0.300422
0.30236
0.302762
0.302058
0.248449
0.245115
0.242836
0.241553
0.241252
0.241929
0.243576
0.24618
0.24968
0.253985
0.258983
0.264532
0.270425
0.27637
0.282075
0.287299
0.291798
0.295284
0.2976
0.298635
0.298405
0.242987
0.239948
0.237817
0.236605
0.236331
0.237004
0.238616
0.241153
0.244559
0.24875
0.253619
0.259025
0.264772
0.27059
0.276217
0.281444
0.286019
0.289669
0.292285
0.293767
0.293845
0.2376
0.234706
0.232655
0.231484
0.23122
0.231871
0.23343
0.235882
0.239176
0.243237
0.247959
0.253207
0.258799
0.264492
0.27004
0.27525
0.279872
0.283643
0.28647
0.288235
0.288505
0.232176
0.229378
0.227388
0.226247
0.225983
0.226601
0.228097
0.230453
0.233624
0.237541
0.242105
0.247188
0.25262
0.258183
0.263645
0.268815
0.27345
0.277293
0.280244
0.282164
0.282545
0.226727
0.224013
0.22208
0.220965
0.220695
0.221274
0.222698
0.224951
0.227992
0.231757
0.236156
0.241067
0.246334
0.25176
0.257126
0.262234
0.266848
0.270713
0.273715
0.275698
0.276135
0.221303
0.218674
0.216798
0.215707
0.215429
0.215965
0.217312
0.219457
0.222362
0.22597
0.230197
0.234933
0.240032
0.245313
0.250571
0.255597
0.260159
0.264004
0.267001
0.268983
0.269438
0.215964
0.213422
0.211602
0.210537
0.210249
0.210739
0.212009
0.214043
0.216809
0.220255
0.224307
0.228863
0.233789
0.238918
0.244054
0.248982
0.253467
0.257263
0.260214
0.262156
0.262607
0.210763
0.20831
0.206548
0.205507
0.20521
0.205656
0.206847
0.20877
0.211395
0.214678
0.218552
0.222925
0.227674
0.232643
0.237643
0.24246
0.246854
0.250578
0.253462
0.25534
0.255775
0.205745
0.203382
0.20168
0.200666
0.200361
0.200764
0.201877
0.20369
0.206176
0.209296
0.212991
0.217179
0.221748
0.226551
0.231407
0.236101
0.240394
0.244036
0.24684
0.248644
0.24906
0.200947
0.198677
0.197036
0.19605
0.19574
0.196103
0.197141
0.198847
0.201197
0.204157
0.207676
0.211679
0.216066
0.2207
0.225406
0.229972
0.234159
0.237712
0.240435
0.242162
0.242561
0.196399
0.194222
0.192645
0.191691
0.191378
0.191703
0.192671
0.194275
0.196494
0.199299
0.202646
0.206469
0.210677
0.215141
0.219695
0.224132
0.228211
0.231676
0.234322
0.235976
0.236364
0.192124
0.190042
0.18853
0.187609
0.187297
0.187589
0.188493
0.19
0.192095
0.194754
0.197936
0.201586
0.205619
0.209917
0.214322
0.218631
0.222605
0.225987
0.228564
0.230155
0.230542
0.188137
0.186152
0.184707
0.183823
0.183515
0.183779
0.184624
0.186043
0.188024
0.190545
0.193573
0.197058
0.200925
0.205065
0.209327
0.213515
0.217391
0.220697
0.223218
0.224756
0.225156
0.184453
0.182565
0.181189
0.180343
0.180043
0.180285
0.181079
0.182418
0.184294
0.186689
0.189576
0.19291
0.196623
0.200616
0.204746
0.208822
0.21261
0.215852
0.218332
0.219831
0.220257
0.181079
0.179289
0.177983
0.177178
0.17689
0.177115
0.177864
0.179133
0.180917
0.1832
0.185959
0.189157
0.192732
0.196593
0.200604
0.204583
0.208298
0.211489
0.213945
0.215421
0.215892
0.178024
0.176332
0.175096
0.174334
0.17406
0.174273
0.174985
0.176194
0.177897
0.180082
0.182731
0.18581
0.189266
0.193014
0.196925
0.200824
0.204484
0.207642
0.210094
0.211565
0.212105
0.175299
0.173704
0.172536
0.171815
0.171558
0.171763
0.172444
0.173603
0.175237
0.17734
0.179896
0.182878
0.186235
0.189891
0.193725
0.197566
0.201193
0.204339
0.206809
0.2083
0.208926
0.172878
0.1714
0.17031
0.169628
0.169385
0.169584
0.170241
0.171358
0.172937
0.174974
0.177456
0.180361
0.183644
0.187233
0.191015
0.194825
0.198445
0.201605
0.204121
0.205651
0.206379
0.170739
0.169382
0.168397
0.167776
0.167546
0.167737
0.168372
0.169456
0.170992
0.172979
0.175408
0.17826
0.181494
0.185046
0.188806
0.192615
0.196258
0.19946
0.202049
0.203637
0.204493
0.16892
0.167646
0.166755
0.166224
0.166035
0.166221
0.166833
0.167891
0.169397
0.171351
0.173748
0.17657
0.179785
0.183329
0.187102
0.190945
0.194648
0.197927
0.200612
0.202273
0.203317
0.167446
0.166234
0.165397
0.164936
0.164815
0.165021
0.165616
0.166654
0.168142
0.170081
0.172467
0.175288
0.178513
0.182085
0.185906
0.189825
0.193628
0.19702
0.199845
0.20165
0.202893
0.166303
0.165149
0.164354
0.163926
0.163849
0.164099
0.164704
0.165731
0.167217
0.16916
0.171559
0.174405
0.177673
0.18131
0.185223
0.189261
0.193207
0.196753
0.199783
0.201836
0.203259
0.165474
0.16437
0.163615
0.163213
0.163153
0.16343
0.164063
0.165107
0.166609
0.168576
0.171013
0.173914
0.17726
0.181002
0.185052
0.189259
0.193398
0.197159
0.20045
0.202665
0.204377
0.164946
0.163882
0.163161
0.162783
0.162736
0.16302
0.16368
0.164767
0.166307
0.16832
0.170819
0.173805
0.177264
0.181155
0.185391
0.189822
0.194216
0.198279
0.201866
0.204215
0.20629
0.164712
0.163678
0.162982
0.162622
0.162585
0.162876
0.16357
0.164711
0.166305
0.168384
0.170969
0.174071
0.177681
0.181765
0.186241
0.190956
0.195671
0.200077
0.203923
0.206623
0.20909
0.164769
0.163755
0.163076
0.162728
0.162692
0.163005
0.163751
0.164942
0.166599
0.168761
0.171457
0.174704
0.178504
0.182829
0.187601
0.192665
0.19777
0.202554
0.206747
0.209853
0.212805
0.165119
0.164117
0.163447
0.163106
0.163069
0.163417
0.164218
0.165459
0.167188
0.169448
0.172275
0.175698
0.179727
0.184342
0.189471
0.194952
0.200515
0.205762
0.210457
0.213969
0.217442
0.165768
0.164768
0.1641
0.163755
0.163731
0.16412
0.164961
0.166258
0.168066
0.170438
0.173419
0.177047
0.181343
0.186299
0.191844
0.197814
0.203911
0.209703
0.214934
0.218935
0.223011
0.166721
0.165715
0.16504
0.164685
0.164682
0.165114
0.165984
0.167337
0.169232
0.171728
0.174881
0.178742
0.183344
0.188689
0.194712
0.201241
0.207948
0.214362
0.220187
0.224739
0.229495
0.167985
0.166964
0.166279
0.165912
0.165925
0.166387
0.167286
0.168695
0.170681
0.173312
0.176655
0.180774
0.185717
0.191499
0.19806
0.205216
0.212601
0.219706
0.226176
0.231332
0.236839
0.169569
0.168522
0.167818
0.167444
0.167466
0.167936
0.168864
0.17033
0.172411
0.175184
0.178731
0.18313
0.188447
0.194708
0.20186
0.209704
0.217826
0.225684
0.23284
0.238618
0.244921
0.171482
0.170398
0.169662
0.169287
0.169315
0.169773
0.170722
0.172242
0.174417
0.177337
0.181098
0.185795
0.191511
0.198287
0.206075
0.214653
0.223556
0.232231
0.240079
0.246436
0.253539
0.173739
0.17261
0.171834
0.171449
0.171466
0.171902
0.17286
0.174429
0.176695
0.179763
0.183743
0.188748
0.194879
0.202194
0.210645
0.219978
0.229692
0.239245
0.2477
0.254535
0.262384
0.176353
0.175168
0.17435
0.173932
0.17391
0.174318
0.17528
0.176888
0.179241
0.182452
0.18665
0.191964
0.198513
0.20637
0.215479
0.225547
0.236074
0.246474
0.255356
0.262593
0.271038
0.179333
0.178077
0.177207
0.176735
0.176653
0.177024
0.17798
0.179618
0.182048
0.185395
0.189799
0.19541
0.202361
0.210732
0.22045
0.231176
0.242446
0.253462
0.262624
0.270188
0.278941
0.182691
0.181348
0.18041
0.179861
0.179701
0.180023
0.180961
0.182618
0.185111
0.188578
0.19317
0.199052
0.20636
0.21518
0.225396
0.236645
0.248447
0.259748
0.269113
0.2768
0.285442
0.18644
0.184992
0.183965
0.183317
0.183061
0.18332
0.184225
0.185887
0.188427
0.19199
0.196738
0.202843
0.210444
0.219626
0.230132
0.2417
0.253687
0.265005
0.274413
0.282015
0.290137
0.190597
0.189022
0.187881
0.18711
0.186739
0.186917
0.187777
0.189427
0.191992
0.195623
0.200476
0.206728
0.21453
0.223941
0.234432
0.245976
0.257781
0.268917
0.278112
0.285625
0.293154
0.19518
0.193452
0.192165
0.191245
0.190739
0.190822
0.191621
0.193242
0.195809
0.19947
0.204365
0.210681
0.218513
0.227671
0.238006
0.249115
0.260339
0.27103
0.279797
0.287225
0.29406
0.20021
0.198296
0.196825
0.195726
0.195068
0.195041
0.195767
0.197342
0.199882
0.203521
0.208365
0.214689
0.22228
0.230808
0.240549
0.250781
0.261063
0.270933
0.27909
0.286314
0.292478
0.205713
0.203568
0.201871
0.200562
0.199732
0.199584
0.200228
0.201745
0.204224
0.207757
0.212423
0.21853
0.225377
0.233285
0.241842
0.250726
0.259747
0.268462
0.275844
0.282642
0.288861
0.211717
0.209287
0.207311
0.205757
0.204736
0.204462
0.205025
0.206473
0.208847
0.212207
0.216651
0.221974
0.228057
0.234803
0.241772
0.248948
0.25643
0.263818
0.2704
0.27674
0.283228
0.218249
0.215468
0.213147
0.211304
0.210082
0.209688
0.210177
0.211538
0.213773
0.217003
0.221105
0.225251
0.230243
0.235267
0.240326
0.245687
0.251527
0.257623
0.263505
0.269296
0.275737
0.225326
0.222098
0.219359
0.21718
0.215759
0.215265
0.21569
0.216967
0.219175
0.222196
0.225031
0.228171
0.231549
0.23468
0.237844
0.241511
0.245834
0.250783
0.256026
0.261211
0.267585
0.232949
0.229136
0.225893
0.223342
0.221735
0.221171
0.221571
0.222942
0.225139
0.226769
0.228665
0.230864
0.232313
0.233476
0.234943
0.237123
0.240188
0.244146
0.248686
0.253307
0.259576
0.24108
0.236519
0.232656
0.229708
0.22794
0.227378
0.227988
0.229535
0.230374
0.231451
0.232792
0.232993
0.232534
0.23203
0.232063
0.233004
0.235055
0.23817
0.242049
0.246114
0.251857
0.249599
0.244083
0.239465
0.236127
0.234272
0.233963
0.235002
0.235387
0.235858
0.236608
0.236054
0.234481
0.232478
0.230599
0.229489
0.229513
0.230798
0.233246
0.236653
0.240236
0.24531
0.258273
0.25152
0.246049
0.242414
0.240669
0.240792
0.24103
0.241168
0.24162
0.240758
0.238614
0.235631
0.232385
0.229531
0.227633
0.227001
0.22776
0.22984
0.232992
0.236185
0.24078
0.266715
0.258366
0.252064
0.248321
0.246626
0.246386
0.246495
0.246932
0.24618
0.243944
0.240511
0.23654
0.232602
0.229148
0.2267
0.225672
0.226172
0.22816
0.231258
0.234341
0.238701
0.274223
0.263767
0.256702
0.252673
0.251196
0.251087
0.251551
0.251137
0.249208
0.245969
0.241894
0.237491
0.233164
0.229353
0.226647
0.225506
0.226005
0.228169
0.231506
0.234977
0.239425
0.279593
0.266237
0.258445
0.254728
0.253938
0.254318
0.254311
0.253097
0.250684
0.24731
0.243141
0.238525
0.233945
0.229997
0.227338
0.226392
0.227231
0.229883
0.233842
0.23826
0.243002
0.28064
0.265091
0.257712
0.255006
0.254648
0.254733
0.254464
0.253484
0.251495
0.248347
0.244194
0.239516
0.234925
0.231135
0.228813
0.22831
0.229752
0.23318
0.238183
0.243899
0.248721
0.27533
0.259999
0.254766
0.253489
0.253321
0.253508
0.253801
0.253499
0.251902
0.248898
0.244867
0.240402
0.236122
0.232737
0.230914
0.231023
0.233265
0.23774
0.244146
0.250947
0.25485
0.259675
0.251599
0.251375
0.250943
0.251521
0.25264
0.253292
0.253025
0.251544
0.248833
0.24518
0.241083
0.237181
0.234226
0.232983
0.233914
0.237233
0.242936
0.250528
0.257048
0.258965
0.246088
0.247727
0.248478
0.249482
0.250773
0.251964
0.252495
0.252142
0.250805
0.248461
0.245261
0.241598
0.238121
0.235704
0.235187
0.237079
0.241342
0.247575
0.255007
0.259993
0.260443
0.742351
0.72901
0.715745
0.699232
0.680375
0.659405
0.63629
0.611147
0.584097
0.555362
0.525311
0.49449
0.463598
0.433434
0.404795
0.378377
0.354696
0.334066
0.31659
0.723054
0.709176
0.695652
0.678599
0.659015
0.637171
0.613119
0.586996
0.558964
0.52929
0.498415
0.466986
0.435829
0.405863
0.377966
0.35284
0.330932
0.312418
0.297238
0.700513
0.686484
0.672942
0.655679
0.63563
0.613146
0.588344
0.561392
0.532506
0.502028
0.470513
0.438765
0.40778
0.378608
0.352171
0.329104
0.30968
0.293847
0.281314
0.675595
0.661592
0.648152
0.63087
0.610584
0.587685
0.562327
0.534736
0.505197
0.474163
0.442357
0.410782
0.380619
0.353011
0.328825
0.308498
0.292023
0.279062
0.269115
0.648923
0.635068
0.621812
0.604603
0.584298
0.561189
0.535496
0.507508
0.4776
0.446381
0.414782
0.384026
0.355437
0.330147
0.308829
0.291602
0.278125
0.267816
0.260055
0.620995
0.607425
0.594393
0.577356
0.557219
0.534106
0.508323
0.480226
0.450311
0.419378
0.388582
0.359335
0.333009
0.310583
0.292409
0.278229
0.267414
0.25923
0.253043
0.592304
0.579142
0.566387
0.549653
0.529823
0.506908
0.481294
0.453411
0.423904
0.393774
0.364382
0.33725
0.313667
0.29433
0.279199
0.26768
0.258948
0.252247
0.247023
0.563339
0.550684
0.538293
0.521967
0.502566
0.480048
0.454866
0.427536
0.398862
0.370035
0.342563
0.317966
0.297328
0.280982
0.268515
0.259089
0.251824
0.246048
0.241355
0.534541
0.522471
0.510529
0.4947
0.475854
0.453927
0.429435
0.402988
0.375541
0.348437
0.323248
0.30138
0.283624
0.269939
0.259618
0.25171
0.245401
0.240171
0.235773
0.506293
0.494863
0.483437
0.468191
0.450027
0.428875
0.405311
0.38004
0.354146
0.329067
0.306348
0.287192
0.272061
0.260591
0.251892
0.245027
0.239323
0.234421
0.230206
0.478911
0.468163
0.457307
0.442725
0.425359
0.405142
0.38271
0.358851
0.334744
0.31186
0.291635
0.275014
0.262146
0.252427
0.244906
0.238744
0.233429
0.228744
0.224672
0.452655
0.442615
0.432373
0.418523
0.402051
0.382899
0.361757
0.339475
0.317286
0.29664
0.278812
0.264458
0.253459
0.24508
0.238398
0.232716
0.227669
0.223156
0.21922
0.427725
0.418406
0.408809
0.395745
0.380238
0.362244
0.342494
0.321878
0.301641
0.283177
0.267577
0.255188
0.245685
0.23831
0.232229
0.226889
0.222052
0.217699
0.213902
0.404266
0.395669
0.386733
0.37449
0.359993
0.343212
0.324904
0.305969
0.287621
0.271207
0.257667
0.246955
0.238607
0.231978
0.226337
0.221261
0.21661
0.212418
0.208765
0.382372
0.374486
0.366214
0.354809
0.341339
0.325788
0.308922
0.291615
0.275006
0.260518
0.248901
0.239566
0.232085
0.226009
0.220703
0.215849
0.211378
0.207351
0.203845
0.362092
0.354894
0.347279
0.33671
0.324263
0.309928
0.294464
0.278697
0.263713
0.251023
0.241024
0.232801
0.226025
0.220365
0.21533
0.210678
0.206388
0.202529
0.199174
0.343437
0.336899
0.32992
0.320172
0.308723
0.295567
0.281436
0.267084
0.253728
0.24265
0.233801
0.226492
0.220342
0.215021
0.210227
0.205771
0.201664
0.197978
0.194774
0.326389
0.320475
0.314106
0.305149
0.294657
0.282626
0.269757
0.256711
0.244894
0.235176
0.227169
0.220602
0.214981
0.209969
0.205405
0.201145
0.197226
0.193714
0.190663
0.310907
0.305578
0.299784
0.29158
0.281993
0.271018
0.259333
0.247535
0.237028
0.228375
0.22109
0.215127
0.209943
0.205222
0.200878
0.196815
0.193086
0.18975
0.186852
0.29693
0.292146
0.286888
0.279392
0.270647
0.260643
0.250017
0.23941
0.230027
0.222189
0.21553
0.21005
0.205247
0.200803
0.196659
0.192791
0.189254
0.186096
0.183352
0.284388
0.280109
0.275345
0.268504
0.260534
0.251413
0.241713
0.232198
0.223793
0.216593
0.210467
0.205372
0.200898
0.196713
0.192754
0.189079
0.185736
0.18276
0.180172
0.273207
0.269388
0.265077
0.258838
0.251574
0.243259
0.234393
0.225812
0.218213
0.211555
0.205888
0.201114
0.196891
0.192935
0.189176
0.185694
0.182538
0.179737
0.177314
0.263311
0.259909
0.256008
0.250318
0.243691
0.236106
0.228001
0.220189
0.213232
0.207051
0.201782
0.197284
0.193262
0.189507
0.185957
0.182665
0.179674
0.177026
0.174751
0.254624
0.251595
0.248063
0.242869
0.236811
0.229874
0.222449
0.215279
0.208842
0.203074
0.198144
0.193891
0.190059
0.186487
0.183126
0.180008
0.17717
0.174653
0.172494
0.247066
0.244372
0.24117
0.23642
0.230865
0.224496
0.217666
0.211038
0.205033
0.199619
0.194975
0.19094
0.187289
0.183887
0.180694
0.177732
0.175035
0.172642
0.170589
0.240565
0.238171
0.235263
0.230908
0.225793
0.219916
0.213605
0.207433
0.201787
0.196675
0.192273
0.188429
0.184943
0.181697
0.178655
0.175834
0.173267
0.170989
0.169035
0.235053
0.232925
0.230281
0.226273
0.221542
0.216091
0.210225
0.204438
0.199088
0.194231
0.190033
0.186354
0.183016
0.17991
0.177003
0.174309
0.171858
0.169683
0.167818
0.23047
0.22858
0.226173
0.222466
0.218066
0.21298
0.207495
0.202029
0.196923
0.192277
0.188249
0.184712
0.181504
0.178521
0.175733
0.17315
0.1708
0.168715
0.166926
0.226753
0.225053
0.222893
0.21944
0.215324
0.210549
0.205388
0.200189
0.195279
0.190805
0.186918
0.1835
0.180401
0.177526
0.174839
0.172351
0.170086
0.168076
0.166348
0.223882
0.222456
0.220414
0.217152
0.21328
0.208769
0.20388
0.198902
0.194147
0.18981
0.186033
0.182712
0.179705
0.176918
0.174316
0.171905
0.169709
0.167756
0.166077
0.221824
0.220649
0.21864
0.215566
0.211904
0.207613
0.202953
0.198156
0.193519
0.189286
0.185592
0.182346
0.179412
0.176695
0.174159
0.171808
0.169664
0.167754
0.166109
0.220451
0.219359
0.217494
0.214642
0.211164
0.20706
0.20259
0.19794
0.193389
0.189229
0.185593
0.182401
0.17952
0.176856
0.174369
0.17206
0.169951
0.168069
0.166444
0.21975
0.21868
0.217009
0.214361
0.211039
0.207093
0.202779
0.198242
0.193752
0.189639
0.186038
0.182877
0.180031
0.177401
0.174945
0.172662
0.170573
0.168705
0.167088
0.219738
0.218742
0.217219
0.214715
0.211516
0.207702
0.203513
0.19906
0.194606
0.190518
0.186928
0.183778
0.180946
0.178333
0.175891
0.173619
0.171535
0.169668
0.168047
0.220425
0.219513
0.218093
0.215687
0.212587
0.208878
0.204785
0.20039
0.19595
0.191864
0.188267
0.185107
0.182272
0.179658
0.177215
0.174938
0.172846
0.170965
0.169329
0.22176
0.22096
0.219594
0.217259
0.214239
0.210611
0.20659
0.202234
0.197789
0.193684
0.190058
0.186871
0.184014
0.181384
0.178925
0.176629
0.174514
0.172607
0.170942
0.223695
0.223038
0.221688
0.219412
0.216458
0.212894
0.208926
0.204591
0.200126
0.195984
0.192311
0.189078
0.186183
0.183522
0.181032
0.178703
0.17655
0.174603
0.172895
0.226195
0.225659
0.224337
0.222127
0.219232
0.215718
0.21179
0.207465
0.202969
0.198772
0.195036
0.19174
0.188792
0.186084
0.183549
0.181172
0.178969
0.176967
0.175203
0.229246
0.228791
0.227525
0.22539
0.222549
0.219081
0.215182
0.210858
0.206324
0.202061
0.198246
0.194873
0.191855
0.189086
0.186492
0.184054
0.181785
0.179714
0.177883
0.232845
0.232459
0.231254
0.229192
0.226403
0.222977
0.219103
0.214778
0.210202
0.205864
0.201959
0.198494
0.195391
0.192546
0.189878
0.187363
0.185013
0.182862
0.180948
0.236983
0.236667
0.235517
0.233523
0.230787
0.227404
0.223555
0.219229
0.214615
0.210196
0.206192
0.202624
0.199422
0.196484
0.193728
0.19112
0.188675
0.186428
0.184411
0.24164
0.241392
0.240298
0.238374
0.235695
0.232361
0.228539
0.224219
0.219574
0.215077
0.210967
0.207286
0.203972
0.200927
0.198064
0.195348
0.192795
0.190431
0.188284
0.246792
0.246612
0.245576
0.243729
0.241118
0.237842
0.234057
0.229754
0.225093
0.220525
0.21631
0.212507
0.20907
0.205903
0.202916
0.200081
0.197401
0.194888
0.192587
0.252416
0.252303
0.251333
0.249574
0.247044
0.243842
0.240108
0.235841
0.231185
0.226562
0.222247
0.218321
0.214752
0.211446
0.208324
0.205355
0.202516
0.199824
0.197342
0.258486
0.258443
0.257546
0.255888
0.253458
0.250352
0.246692
0.242485
0.237863
0.233209
0.228809
0.224764
0.221056
0.217601
0.214337
0.211207
0.208173
0.205272
0.202576
0.264974
0.265003
0.26419
0.26265
0.260343
0.25736
0.253802
0.249687
0.245138
0.240488
0.236028
0.231875
0.228027
0.224426
0.221008
0.217679
0.214417
0.211271
0.208322
0.271845
0.27195
0.271233
0.269831
0.267675
0.26485
0.26143
0.257448
0.25302
0.248421
0.243938
0.239703
0.235725
0.231985
0.228391
0.22483
0.221305
0.217871
0.21462
0.279059
0.279245
0.278638
0.277398
0.275425
0.272798
0.269561
0.265761
0.261512
0.257025
0.252571
0.248288
0.24422
0.240347
0.236549
0.232734
0.228909
0.22513
0.221512
0.286573
0.286843
0.286363
0.285311
0.283556
0.281173
0.278171
0.274613
0.270612
0.266311
0.261957
0.257684
0.253571
0.249578
0.245569
0.24148
0.237309
0.233116
0.229042
0.294335
0.294695
0.294359
0.29352
0.292022
0.289932
0.287226
0.283982
0.280309
0.276282
0.272115
0.26794
0.263839
0.259749
0.255545
0.251164
0.246591
0.241893
0.237247
0.302289
0.302745
0.302568
0.301971
0.300768
0.29902
0.296679
0.293834
0.290576
0.286925
0.28305
0.279081
0.275071
0.270936
0.266568
0.261882
0.256836
0.251513
0.246138
0.310375
0.310929
0.310928
0.310599
0.309729
0.308363
0.306469
0.304125
0.301366
0.298204
0.294749
0.291108
0.287294
0.283202
0.278719
0.273715
0.268112
0.262003
0.255688
0.318525
0.319181
0.319369
0.319332
0.318836
0.317895
0.316522
0.314771
0.312605
0.310051
0.30716
0.303989
0.300503
0.296576
0.292048
0.286721
0.280449
0.273349
0.265791
0.326669
0.327427
0.327815
0.328092
0.328007
0.327543
0.326742
0.325647
0.324179
0.322357
0.320181
0.317642
0.314649
0.311034
0.306558
0.300912
0.29383
0.285491
0.276219
0.334732
0.335591
0.336187
0.336789
0.337142
0.337199
0.337008
0.336623
0.33595
0.334976
0.333658
0.33192
0.329606
0.32648
0.32218
0.316223
0.308182
0.298363
0.286594
0.342638
0.343595
0.3444
0.345331
0.346132
0.346736
0.347184
0.347551
0.347742
0.347713
0.347375
0.346598
0.345159
0.342718
0.338753
0.332513
0.323425
0.311948
0.296336
0.350312
0.351361
0.352369
0.353622
0.354866
0.356024
0.357123
0.358257
0.359347
0.360321
0.361056
0.361373
0.360985
0.359432
0.355973
0.349566
0.339423
0.325656
0.303448
0.357679
0.358815
0.360014
0.361569
0.363234
0.364932
0.366668
0.368552
0.370532
0.372518
0.374363
0.375854
0.376647
0.376161
0.373409
0.367159
0.355867
0.337551
0.303424
0.364666
0.365894
0.367258
0.369085
0.371131
0.373332
0.375663
0.378242
0.381056
0.384001
0.386916
0.389572
0.391577
0.392261
0.390479
0.384973
0.372789
0.349098
0.299652
0.3712
0.37255
0.374035
0.376093
0.378465
0.381111
0.383964
0.387146
0.390686
0.39447
0.39833
0.402025
0.405126
0.406916
0.406363
0.402138
0.391175
0.367126
0.302602
0.376847
0.378103
0.37961
0.381832
0.384431
0.387404
0.390639
0.39425
0.398307
0.402684
0.407205
0.41162
0.415471
0.418059
0.418712
0.415872
0.408079
0.381869
0.315145
0.381554
0.382594
0.384129
0.386453
0.3892
0.392401
0.395901
0.399794
0.404186
0.408935
0.41386
0.418688
0.42294
0.426021
0.427666
0.427076
0.423057
0.387422
0.302802
0.385721
0.38669
0.388299
0.390691
0.393547
0.396916
0.400608
0.404692
0.409295
0.414265
0.419399
0.424393
0.428755
0.432048
0.434351
0.436678
0.43575
0.398132
0.296919
0.398094
0.406983
0.410823
0.412539
0.413677
0.414835
0.416314
0.418272
0.420783
0.423879
0.427561
0.431807
0.436577
0.441788
0.447221
0.452447
0.457044
0.46075
0.462589
0.462458
0.462241
0.412178
0.411952
0.412648
0.413112
0.413672
0.414491
0.41573
0.417481
0.419799
0.422705
0.426186
0.430207
0.434717
0.439634
0.44479
0.449911
0.45469
0.458745
0.461349
0.462169
0.462151
0.41923
0.415993
0.414407
0.413724
0.413642
0.414065
0.415034
0.41658
0.418722
0.421456
0.424756
0.428575
0.432844
0.437464
0.442291
0.447136
0.45179
0.455996
0.459409
0.461452
0.461751
0.422171
0.417981
0.415312
0.413827
0.413202
0.413243
0.413925
0.415241
0.417178
0.419714
0.422808
0.426405
0.430426
0.434767
0.439299
0.443872
0.448312
0.452478
0.456307
0.459285
0.460286
0.422666
0.418354
0.415298
0.413381
0.412371
0.412111
0.412543
0.41364
0.415371
0.417699
0.420576
0.423936
0.427697
0.431753
0.435988
0.440272
0.444463
0.448474
0.452337
0.455667
0.457178
0.421699
0.417591
0.41448
0.412374
0.411145
0.410671
0.4109
0.411801
0.413335
0.415459
0.418118
0.421243
0.424748
0.428529
0.432476
0.436467
0.44038
0.444148
0.447824
0.451115
0.452753
0.41986
0.416058
0.413048
0.410911
0.409583
0.408971
0.409046
0.40978
0.411134
0.413063
0.41551
0.418406
0.421663
0.425181
0.428849
0.432553
0.436173
0.439639
0.442984
0.445994
0.447563
0.417508
0.414023
0.411192
0.409121
0.407761
0.407069
0.407031
0.407626
0.408819
0.410567
0.412813
0.415488
0.418508
0.421772
0.425173
0.428595
0.431921
0.435064
0.438025
0.440645
0.44204
0.414858
0.411681
0.409066
0.407106
0.405757
0.405024
0.404906
0.405386
0.406438
0.408018
0.410076
0.412542
0.415336
0.418359
0.421504
0.424654
0.427691
0.430514
0.433092
0.435304
0.436485
0.412056
0.40917
0.406782
0.404942
0.403634
0.40289
0.402717
0.403104
0.404031
0.40546
0.407342
0.409612
0.412192
0.414986
0.417888
0.42078
0.423542
0.426063
0.428287
0.430123
0.431087
0.409215
0.406598
0.404424
0.402703
0.401453
0.400716
0.400505
0.400817
0.401635
0.402927
0.404647