/*--------------------------------*- C++ -*----------------------------------*\
| =========                 |                                                 |
| \\      /  F ield         | OpenFOAM: The Open Source CFD Toolbox           |
|  \\    /   O peration     | Version:  v2012                                 |
|   \\  /    A nd           | Website:  www.openfoam.com                      |
|    \\/     M anipulation  |                                                 |
\*---------------------------------------------------------------------------*/
FoamFile
{
    version     2.0;
    format      ascii;
    class       surfaceScalarField;
    location    "623";
    object      phi;
}
// * * * * * * * * * * * * * * * * * * * * * * * * * * * * * * * * * * * * * //

dimensions      [0 3 -1 0 0 0 0];
oriented        oriented;


internalField   nonuniform List<scalar> 
11870
(
-0.000198864
-2.45768e-08
0.000198888
-0.000198858
-5.37825e-09
-0.000198869
1.10049e-08
-0.000198893
2.40454e-08
-0.000198928
3.45932e-08
-0.000198971
4.27906e-08
-0.00019902
4.91816e-08
-0.000199074
5.42932e-08
-0.000199133
5.85889e-08
-0.000199195
6.24519e-08
-0.000199262
6.61973e-08
-0.000199332
7.00866e-08
-0.000199406
7.43189e-08
-0.000199485
7.89887e-08
-0.000199569
8.40177e-08
-0.000199658
8.9017e-08
-0.000199751
9.30525e-08
-0.000199847
9.61998e-08
-0.000199941
9.38177e-08
5.89603e-08
-0.000200161
-9.78492e-08
0.000200234
-0.000200107
-5.94855e-08
-0.000200068
-2.77787e-08
-0.000200042
-2.67256e-09
-0.000200024
1.66755e-08
-0.000200012
3.1308e-08
-0.000200005
4.2352e-08
-0.000200002
5.08019e-08
-0.000200001
5.75224e-08
-0.000200002
6.31952e-08
-0.000200004
6.83536e-08
-0.000200007
7.34062e-08
-0.000200011
7.86269e-08
-0.000200016
8.4089e-08
-0.000200022
8.94778e-08
-0.000200027
9.40455e-08
-0.000200031
9.69426e-08
-0.000200031
9.63558e-08
-0.00020002
8.23702e-08
3.94325e-08
-0.000200504
-1.8396e-07
0.00020059
-0.000200438
-1.25508e-07
-0.000200387
-7.85862e-08
-0.000200348
-4.2175e-08
-0.000200316
-1.4937e-08
-0.00020029
5.11727e-09
-0.000200267
1.9778e-08
-0.000200247
3.05331e-08
-0.000200228
3.86452e-08
-0.00020021
4.50515e-08
-0.000200192
5.04502e-08
-0.000200174
5.53441e-08
-0.000200155
6.00619e-08
-0.000200136
6.47587e-08
-0.000200116
6.90947e-08
-0.000200094
7.1858e-08
-0.00020007
7.29091e-08
-0.000200043
6.97042e-08
-0.000200016
5.54198e-08
2.35343e-08
-0.000200629
-2.7417e-07
0.000200719
-0.000200561
-1.93623e-07
-0.000200508
-1.31385e-07
-0.000200466
-8.4283e-08
-0.000200431
-5.01643e-08
-0.0002004
-2.57891e-08
-0.000200372
-8.54744e-09
-0.000200345
3.57501e-09
-0.000200318
1.22189e-08
-0.000200292
1.85452e-08
-0.000200265
2.33836e-08
-0.000200237
2.73171e-08
-0.000200207
3.07255e-08
-0.000200176
3.37907e-08
-0.000200144
3.6337e-08
-0.00020011
3.78509e-08
-0.000200075
3.81383e-08
-0.000200041
3.55798e-08
-0.000200013
2.72583e-08
1.09988e-08
-0.000200652
-3.63167e-07
0.000200741
-0.000200588
-2.57115e-07
-0.00020054
-1.79774e-07
-0.000200501
-1.2299e-07
-0.000200468
-8.33663e-08
-0.000200438
-5.60351e-08
-0.000200409
-3.74533e-08
-0.00020038
-2.49411e-08
-0.000200352
-1.65588e-08
-0.000200322
-1.09703e-08
-0.000200291
-7.26421e-09
-0.000200259
-4.80123e-09
-0.000200225
-3.16084e-09
-0.00020019
-2.0754e-09
-0.000200152
-1.36538e-09
-0.000200113
-8.92699e-10
-0.000200074
-5.65332e-10
-0.000200038
-3.37771e-10
-0.000200011
-1.76707e-10
-5.85459e-11
-0.0002006
-4.47251e-07
0.000200684
-0.000200548
-3.08947e-07
-0.00020051
-2.17704e-07
-0.00020048
-1.52947e-07
-0.000200453
-1.09982e-07
-0.000200428
-8.15642e-08
-0.000200402
-6.30674e-08
-0.000200376
-5.12113e-08
-0.000200349
-4.3824e-08
-0.00020032
-3.94672e-08
-0.00020029
-3.72318e-08
-0.000200258
-3.64691e-08
-0.000200225
-3.67475e-08
-0.000200189
-3.77394e-08
-0.000200152
-3.8936e-08
-0.000200113
-3.95544e-08
-0.000200074
-3.92145e-08
-0.000200038
-3.62191e-08
-0.000200011
-2.75847e-08
-1.11063e-08
-0.000200469
-5.26688e-07
0.000200548
-0.000200439
-3.38987e-07
-0.000200418
-2.38039e-07
-0.000200403
-1.68423e-07
-0.000200388
-1.25448e-07
-0.000200371
-9.84316e-08
-0.000200352
-8.17167e-08
-0.000200332
-7.15968e-08
-0.00020031
-6.58596e-08
-0.000200286
-6.30324e-08
-0.000200261
-6.23206e-08
-0.000200234
-6.31806e-08
-0.000200206
-6.5213e-08
-0.000200175
-6.81233e-08
-0.000200143
-7.13108e-08
-0.000200109
-7.33228e-08
-0.000200075
-7.38314e-08
-0.000200041
-7.0248e-08
-0.000200013
-5.56671e-08
-2.36145e-08
-0.00020022
-6.03985e-07
0.000200298
-0.000200232
-3.27872e-07
-0.000200239
-2.30477e-07
-0.000200246
-1.61876e-07
-0.000200247
-1.24175e-07
-0.000200244
-1.01834e-07
-0.000200236
-8.88071e-08
-0.000200227
-8.14694e-08
-0.000200215
-7.78441e-08
-0.000200201
-7.66007e-08
-0.000200186
-7.71332e-08
-0.00020017
-7.9163e-08
-0.000200153
-8.24058e-08
-0.000200135
-8.65655e-08
-0.000200115
-9.11163e-08
-0.000200093
-9.51193e-08
-0.000200069
-9.76173e-08
-0.000200043
-9.67867e-08
-0.000200016
-8.2496e-08
-3.94708e-08
-0.00019972
-6.33677e-07
0.00019975
-0.000199806
-2.42287e-07
-0.000199863
-1.72993e-07
-0.000199905
-1.20433e-07
-0.000199933
-9.63494e-08
-0.000199952
-8.26423e-08
-0.000199965
-7.51933e-08
-0.000199976
-7.13708e-08
-0.000199984
-6.98516e-08
-0.00019999
-6.98495e-08
-0.000199996
-7.10232e-08
-0.000200002
-7.32431e-08
-0.000200008
-7.63879e-08
-0.000200015
-8.03445e-08
-0.000200021
-8.49104e-08
-0.000200026
-8.95968e-08
-0.000200031
-9.34239e-08
-0.000200031
-9.64502e-08
-0.000200019
-9.38433e-08
-5.89707e-08
-0.000198181
0.000197547
-0.000198423
-0.000198596
-0.000198717
-0.000198813
-0.000198896
-0.000198971
-0.000199042
-0.000199112
-0.000199182
-0.000199253
-0.000199326
-0.000199402
-0.000199483
-0.000199568
-0.000199657
-0.000199751
-0.000199847
-0.000199941
-0.000177544
4.9433e-06
0.000172601
-0.000181837
4.2931e-06
-0.000185529
3.69185e-06
-0.000188664
3.13451e-06
-0.000191286
2.62181e-06
-0.00019344
2.15479e-06
-0.000195175
1.7341e-06
-0.000196534
1.35991e-06
-0.000197566
1.03196e-06
-0.000198316
7.49693e-07
-0.000198829
5.12439e-07
-0.000199148
3.19126e-07
-0.000199315
1.67668e-07
-0.00019937
5.45283e-08
-0.000199346
-2.39717e-08
-0.000199275
-7.08116e-08
-0.000199181
-9.37443e-08
-0.000199085
-9.59132e-08
-0.000199001
-8.47657e-08
-0.000198934
-6.65926e-08
-4.57042e-08
-0.00018188
9.53866e-06
0.000177285
-0.000185869
8.28145e-06
-0.000189281
7.10384e-06
-0.000192156
6.00982e-06
-0.000194538
5.00337e-06
-0.00019647
4.08702e-06
-0.000197998
3.26236e-06
-0.000199168
2.52987e-06
-0.000200025
1.88912e-06
-0.000200615
1.33914e-06
-0.000200981
8.78705e-07
-0.000201168
5.05857e-07
-0.000201217
2.16597e-07
-0.000201166
4.37965e-09
-0.000201052
-1.3876e-07
-0.000200901
-2.21569e-07
-0.000200739
-2.55582e-07
-0.000200583
-2.51874e-07
-0.000200445
-2.23382e-07
-0.000200328
-1.82934e-07
-1.39414e-07
-0.000183411
1.40095e-05
0.00017894
-0.000187285
1.21553e-05
-0.000190595
1.04138e-05
-0.000193379
8.7939e-06
-0.000195677
7.30209e-06
-0.000197533
5.94295e-06
-0.00019899
4.71942e-06
-0.000200093
3.63258e-06
-0.000200886
2.68197e-06
-0.000201413
1.8664e-06
-0.000201719
1.1845e-06
-0.000201847
6.34298e-07
-0.000201841
2.09874e-07
-0.000201738
-9.81855e-08
-0.000201575
-3.02319e-07
-0.00020138
-4.15842e-07
-0.000201181
-4.55182e-07
-0.000200994
-4.38442e-07
-0.000200832
-3.85314e-07
-0.000200698
-3.16874e-07
-2.47672e-07
-0.000184357
1.84297e-05
0.000179937
-0.000188185
1.59831e-05
-0.000191452
1.36812e-05
-0.000194195
1.15372e-05
-0.000196454
9.56063e-06
-0.000198269
7.75816e-06
-0.000199684
6.13442e-06
-0.000200743
4.69121e-06
-0.000201488
3.42776e-06
-0.000201965
2.34321e-06
-0.000202217
1.43617e-06
-0.000202289
7.06161e-07
-0.000202225
1.46117e-07
-0.000202067
-2.55787e-07
-0.000201852
-5.1756e-07
-0.000201612
-6.55977e-07
-0.000201374
-6.92891e-07
-0.000201159
-6.53984e-07
-0.000200978
-5.66033e-07
-0.000200834
-4.61113e-07
-3.62167e-07
-0.000185066
2.28238e-05
0.000180672
-0.000188869
1.97861e-05
-0.000192113
1.69245e-05
-0.000194832
1.42566e-05
-0.000197066
1.17947e-05
-0.000198855
9.54718e-06
-0.000200241
7.52046e-06
-0.000201267
5.71741e-06
-0.000201976
4.13665e-06
-0.000202412
2.77848e-06
-0.000202615
1.63967e-06
-0.000202631
7.22135e-07
-0.000202508
2.29287e-08
-0.000202292
-4.71961e-07
-0.00020202
-7.89243e-07
-0.000201728
-9.4761e-07
-0.000201448
-9.72764e-07
-0.000201202
-9.00565e-07
-0.000201004
-7.64093e-07
-0.000200855
-6.09841e-07
-4.76472e-07
-0.000185434
2.71862e-05
0.000181071
-0.000189208
2.35607e-05
-0.000192428
2.01445e-05
-0.000195131
1.69587e-05
-0.000197353
1.4017e-05
-0.000199134
1.13279e-05
-0.000200511
8.8981e-06
-0.000201528
6.73442e-06
-0.000202229
4.83763e-06
-0.000202653
3.20243e-06
-0.000202839
1.82563e-06
-0.000202824
7.07179e-07
-0.000202656
-1.45552e-07
-0.000202392
-7.3535e-07
-0.000202074
-1.10774e-06
-0.000201735
-1.28613e-06
-0.000201417
-1.29142e-06
-0.000201141
-1.17617e-06
-0.00020093
-9.75718e-07
-0.000200788
-7.51375e-07
-5.80757e-07
-0.000185065
3.14598e-05
0.000180791
-0.000188763
2.72585e-05
-0.000191925
2.33063e-05
-0.000194592
1.96261e-05
-0.000196806
1.62308e-05
-0.000198604
1.31261e-05
-0.000200019
1.03133e-05
-0.000201077
7.79289e-06
-0.000201821
5.58115e-06
-0.000202301
3.68258e-06
-0.000202548
2.07268e-06
-0.000202589
7.48236e-07
-0.000202461
-2.73889e-07
-0.000202202
-9.94338e-07
-0.000201881
-1.42883e-06
-0.000201543
-1.62389e-06
-0.000201218
-1.61647e-06
-0.000200935
-1.45901e-06
-0.000200727
-1.18391e-06
-0.000200624
-8.5416e-07
-6.56552e-07
-0.000183144
3.54685e-05
0.000179135
-0.000186599
3.07138e-05
-0.000189558
2.62648e-05
-0.000192076
2.21443e-05
-0.000194206
1.83606e-05
-0.000195991
1.49109e-05
-0.000197463
1.17857e-05
-0.000198657
8.98676e-06
-0.000199598
6.52258e-06
-0.000200295
4.37867e-06
-0.000200764
2.54267e-06
-0.000201033
1.01665e-06
-0.000201116
-1.91163e-07
-0.000201062
-1.04806e-06
-0.000200951
-1.53952e-06
-0.00020079
-1.78524e-06
-0.000200599
-1.80695e-06
-0.000200418
-1.64011e-06
-0.000200288
-1.31457e-06
-0.000200291
-8.50592e-07
-6.49991e-07
-0.00017818
3.878e-05
0.000174868
-0.000180951
3.34845e-05
-0.00018327
2.85837e-05
-0.000185225
2.40996e-05
-0.000186899
2.00346e-05
-0.000188365
1.63763e-05
-0.000189684
1.31053e-05
-0.000190903
1.02056e-05
-0.000192043
7.6629e-06
-0.000193117
5.45206e-06
-0.000194115
3.54129e-06
-0.000195024
1.92557e-06
-0.000195824
6.08477e-07
-0.000196546
-3.25862e-07
-0.000197225
-8.61001e-07
-0.000197814
-1.19633e-06
-0.000198293
-1.32719e-06
-0.000198702
-1.23161e-06
-0.000199006
-1.0107e-06
-0.000199235
-6.21468e-07
-1.34746e-07
-0.000168059
0.000166253
4.05855e-05
-0.000169266
3.46913e-05
-0.000169993
2.93105e-05
-0.000170354
2.44609e-05
-0.000170457
2.01377e-05
-0.000170404
1.63233e-05
-0.000170294
1.29951e-05
-0.000170223
1.01352e-05
-0.000170294
7.73365e-06
-0.000170651
5.80891e-06
-0.000171358
4.24848e-06
-0.000172462
3.02913e-06
-0.000174
2.14681e-06
-0.000175991
1.66555e-06
-0.000178413
1.56056e-06
-0.000181205
1.59544e-06
-0.000184232
1.70014e-06
-0.000187376
1.91216e-06
-0.000190332
1.94526e-06
-0.000192649
1.69537e-06
4.76374e-06
7.45282e-06
-7.45284e-06
9.17924e-06
-1.72643e-06
6.25379e-06
2.92543e-06
9.02131e-08
6.16356e-06
-1.04411e-05
1.05313e-05
-2.59075e-05
1.54664e-05
-4.36493e-05
1.77417e-05
-6.07697e-05
1.71204e-05
-7.63178e-05
1.55481e-05
-9.0486e-05
1.41682e-05
-0.000103437
1.29511e-05
-0.000115285
1.18476e-05
-0.000126114
1.08293e-05
-0.000135989
9.87518e-06
-0.00014496
8.9712e-06
-0.000153069
8.10881e-06
-0.000160353
7.28412e-06
-0.000166851
6.49728e-06
5.75049e-06
4.30961e-06
-1.17625e-05
2.18745e-06
3.95715e-07
-4.68402e-06
9.79689e-06
-1.68954e-05
1.8375e-05
-3.27981e-05
2.6434e-05
-4.88713e-05
3.15396e-05
-6.34407e-05
3.23111e-05
-7.69685e-05
3.06482e-05
-8.99854e-05
2.8565e-05
-0.000102274
2.64568e-05
-0.000113746
2.44235e-05
-0.0001244
2.25015e-05
-0.000134248
2.06772e-05
-0.000143305
1.89322e-05
-0.000151586
1.7252e-05
-0.000159106
1.56284e-05
-0.000165881
1.40599e-05
-0.000171934
1.25498e-05
1.11016e-05
-1.06013e-06
-1.07023e-05
-7.53012e-06
6.8657e-06
-1.83366e-05
2.06034e-05
-3.24468e-05
3.24851e-05
-4.70535e-05
4.10407e-05
-6.02883e-05
4.47744e-05
-7.24943e-05
4.45171e-05
-8.44231e-05
4.2577e-05
-9.60664e-05
4.02083e-05
-0.000107256
3.76461e-05
-0.000117898
3.50654e-05
-0.000127925
3.25289e-05
-0.000137296
3.00485e-05
-0.000145985
2.76213e-05
-0.000153977
2.52433e-05
-0.000161263
2.29148e-05
-0.000167845
2.06423e-05
-0.000173732
1.84365e-05
1.63093e-05
-6.56288e-06
-4.13946e-06
-1.64355e-05
1.67384e-05
-2.90912e-05
3.3259e-05
-4.27043e-05
4.60982e-05
-5.53174e-05
5.36538e-05
-6.67169e-05
5.61739e-05
-7.77415e-05
5.55417e-05
-8.8749e-05
5.35845e-05
-9.95865e-05
5.10458e-05
-0.000110127
4.81869e-05
-0.000120266
4.52039e-05
-0.000129912
4.21756e-05
-0.000139
3.91362e-05
-0.000147479
3.61004e-05
-0.000155315
3.30785e-05
-0.000162483
3.00836e-05
-0.000168975
2.71337e-05
-0.000174789
2.42506e-05
2.14572e-05
-1.06927e-05
6.55326e-06
-2.29286e-05
2.89742e-05
-3.61229e-05
4.64534e-05
-4.87293e-05
5.87046e-05
-6.00273e-05
6.49518e-05
-7.05728e-05
6.67195e-05
-8.10277e-05
6.59966e-05
-9.14928e-05
6.40497e-05
-0.000101845
6.13985e-05
-0.000111985
5.83262e-05
-0.000121804
5.50228e-05
-0.000131208
5.15797e-05
-0.000140119
4.80469e-05
-0.000148472
4.44542e-05
-0.00015622
4.08264e-05
-0.000163328
3.7191e-05
-0.000169774
3.35802e-05
-0.000175553
3.00298e-05
2.6576e-05
-1.34399e-05
1.99932e-05
-2.70595e-05
4.25938e-05
-4.017e-05
5.95639e-05
-5.19686e-05
7.05032e-05
-6.26234e-05
7.56065e-05
-7.2841e-05
7.69371e-05
-8.30217e-05
7.61772e-05
-9.31818e-05
7.42098e-05
-0.000103248
7.14643e-05
-0.000113137
6.82162e-05
-0.000122754
6.46395e-05
-0.000132005
6.08303e-05
-0.000140805
5.68466e-05
-0.00014908
5.27296e-05
-0.000156771
4.85178e-05
-0.000163835
4.42544e-05
-0.000170243
3.99887e-05
-0.000175987
3.57734e-05
3.16605e-05
-1.50676e-05
3.50608e-05
-2.92807e-05
5.68068e-05
-4.21121e-05
7.23953e-05
-5.34533e-05
8.18444e-05
-6.38834e-05
8.60366e-05
-7.40072e-05
8.7061e-05
-8.40603e-05
8.62303e-05
-9.4055e-05
8.42045e-05
-0.000103952
8.13616e-05
-0.000113687
7.79504e-05
-0.000123172
7.41245e-05
-0.000132316
6.99744e-05
-0.000141029
6.55596e-05
-0.000149228
6.09292e-05
-0.000156846
5.61352e-05
-0.00016383
5.12389e-05
-0.000170152
4.63104e-05
-0.000175802
4.14236e-05
3.66497e-05
-1.59895e-05
5.10503e-05
-3.01678e-05
7.09851e-05
-4.26948e-05
8.49223e-05
-5.38277e-05
9.29773e-05
-6.42265e-05
9.64353e-05
-7.43423e-05
9.71769e-05
-8.43357e-05
9.62237e-05
-9.42365e-05
9.41053e-05
-0.000104026
9.11511e-05
-0.000113649
8.75739e-05
-0.000123026
8.35012e-05
-0.000132062
7.90098e-05
-0.000140657
7.41547e-05
-0.000148718
6.89905e-05
-0.000156167
6.35844e-05
-0.000162949
5.80203e-05
-0.000169033
5.23953e-05
-0.000174421
4.68112e-05
4.13641e-05
-1.62105e-05
6.72608e-05
-3.01576e-05
8.49322e-05
-4.24285e-05
9.71933e-05
-5.34698e-05
0.000104019
-6.38901e-05
0.000106856
-7.40111e-05
0.000107298
-8.39636e-05
0.000106176
-9.37918e-05
0.000103934
-0.000103487
0.000100846
-0.000112996
9.70829e-05
-0.000122234
9.27393e-05
-0.000131094
8.78701e-05
-0.00013946
8.25208e-05
-0.000147221
7.67508e-05
-0.000154282
7.06461e-05
-0.000160584
6.43215e-05
-0.0001661
5.79117e-05
-0.000170846
5.15569e-05
4.53869e-05
-1.58629e-05
8.31237e-05
-2.95478e-05
9.86171e-05
-4.16205e-05
0.000109266
-5.26017e-05
0.000115
-6.30219e-05
0.000117276
-7.31214e-05
0.000117397
-8.30153e-05
0.00011607
-9.2752e-05
0.00011367
-0.000102321
0.000110415
-0.00011166
0.000106422
-0.000120664
0.000101744
-0.0001292
9.64056e-05
-0.000137117
9.04381e-05
-0.000144273
8.39066e-05
-0.000150551
7.69243e-05
-0.00015588
6.96506e-05
-0.000160242
6.22741e-05
-0.000163674
5.49884e-05
4.79664e-05
-0.000160381
3.9911e-05
0.000161056
-0.000158956
3.32659e-05
-0.000156907
2.72611e-05
-0.000154331
2.18856e-05
-0.000151297
1.7103e-05
-0.000147839
1.28655e-05
-0.000143965
9.12114e-06
-0.000139649
5.8191e-06
-0.000134839
2.92374e-06
-0.000129485
4.54944e-07
-0.000123536
-1.70017e-06
-0.000116927
-3.58017e-06
-0.00010963
-5.14996e-06
-0.000101587
-6.37794e-06
-9.26895e-05
-7.33655e-06
-8.27799e-05
-8.31411e-06
-7.17214e-05
-9.35836e-06
-5.99516e-05
-9.85762e-06
-4.77479e-05
-1.02585e-05
-3.16336e-05
-1.4419e-05
-2.68698e-05
-0.00013611
3.64803e-05
0.00013954
-0.000132035
2.91911e-05
-0.000127467
2.26935e-05
-0.000122514
1.69317e-05
-0.00011724
1.18297e-05
-0.000111684
7.30963e-06
-0.000105865
3.30187e-06
-9.97891e-05
-2.57032e-07
-9.3462e-05
-3.40332e-06
-8.68575e-05
-6.1496e-06
-7.99213e-05
-8.63639e-06
-7.2589e-05
-1.09124e-05
-6.48381e-05
-1.29009e-05
-5.65219e-05
-1.46942e-05
-4.7359e-05
-1.64995e-05
-3.73458e-05
-1.83273e-05
-2.68632e-05
-1.98409e-05
-1.61516e-05
-2.05693e-05
-5.27749e-06
-2.11326e-05
3.041e-06
-2.27375e-05
-2.38288e-05
-0.000110966
3.14225e-05
0.000116024
-0.000105737
2.39625e-05
-0.000100521
1.74776e-05
-9.54432e-05
1.18535e-05
-9.05778e-05
6.96432e-06
-8.59529e-05
2.68476e-06
-8.15438e-05
-1.10724e-06
-7.72571e-05
-4.5438e-06
-7.29316e-05
-7.72883e-06
-6.83415e-05
-1.07396e-05
-6.33778e-05
-1.36001e-05
-5.80139e-05
-1.62763e-05
-5.21473e-05
-1.87675e-05
-4.57081e-05
-2.11334e-05
-3.8782e-05
-2.34256e-05
-3.15285e-05
-2.55808e-05
-2.40164e-05
-2.7353e-05
-1.60434e-05
-2.85423e-05
-7.92237e-06
-2.92536e-05
-1.52699e-06
-2.91329e-05
-2.53558e-05
-8.99721e-05
2.66306e-05
9.4764e-05
-8.57205e-05
1.97108e-05
-8.21128e-05
1.38699e-05
-7.91232e-05
8.86393e-06
-7.66092e-05
4.45033e-06
-7.43449e-05
4.20448e-07
-7.20716e-05
-3.38056e-06
-6.95778e-05
-7.03761e-06
-6.67223e-05
-1.05843e-05
-6.34212e-05
-1.40407e-05
-5.96316e-05
-1.73898e-05
-5.52948e-05
-2.06131e-05
-5.03632e-05
-2.36991e-05
-4.48506e-05
-2.66459e-05
-3.88209e-05
-2.94553e-05
-3.23303e-05
-3.20714e-05
-2.54295e-05
-3.42538e-05
-1.81634e-05
-3.58084e-05
-1.08743e-05
-3.65427e-05
-4.44751e-06
-3.55596e-05
-2.98033e-05
-7.5917e-05
2.36956e-05
7.88521e-05
-7.38986e-05
1.76924e-05
-7.25747e-05
1.25461e-05
-7.16235e-05
7.91267e-06
-7.07267e-05
3.55353e-06
-6.96413e-05
-6.64926e-07
-6.82188e-05
-4.80304e-06
-6.63779e-05
-8.87856e-06
-6.40601e-05
-1.29021e-05
-6.12291e-05
-1.68718e-05
-5.78523e-05
-2.07666e-05
-5.3902e-05
-2.45634e-05
-4.93624e-05
-2.82387e-05
-4.42443e-05
-3.1764e-05
-3.86054e-05
-3.50943e-05
-3.25401e-05
-3.81367e-05
-2.61005e-05
-4.06933e-05
-1.93536e-05
-4.25553e-05
-1.24961e-05
-4.34002e-05
-5.92337e-06
-4.21323e-05
-3.57267e-05
-6.79011e-05
2.28484e-05
6.87484e-05
-6.76779e-05
1.74692e-05
-6.76788e-05
1.25469e-05
-6.75964e-05
7.83027e-06
-6.72436e-05
3.20074e-06
-6.65212e-05
-1.38735e-06
-6.53749e-05
-5.94941e-06
-6.37659e-05
-1.04875e-05
-6.16652e-05
-1.50028e-05
-5.90519e-05
-1.9485e-05
-5.59064e-05
-2.39122e-05
-5.22133e-05
-2.82564e-05
-4.79669e-05
-3.24851e-05
-4.31809e-05
-3.655e-05
-3.79052e-05
-4.037e-05
-3.22238e-05
-4.38181e-05
-2.61791e-05
-4.6738e-05
-1.98228e-05
-4.89116e-05
-1.32671e-05
-4.99559e-05
-6.64063e-06
-4.87588e-05
-4.23673e-05
-6.31571e-05
2.33081e-05
6.26973e-05
-6.37535e-05
1.80656e-05
-6.42044e-05
1.29979e-05
-6.43628e-05
7.98867e-06
-6.41591e-05
2.99701e-06
-6.35551e-05
-1.99135e-06
-6.25227e-05
-6.98186e-06
-6.10368e-05
-1.19733e-05
-5.9078e-05
-1.69615e-05
-5.66304e-05
-2.19327e-05
-5.368e-05
-2.68626e-05
-5.02178e-05
-3.17186e-05
-4.62443e-05
-3.64585e-05
-4.17728e-05
-4.10215e-05
-3.68346e-05
-4.53082e-05
-3.14912e-05
-4.91616e-05
-2.57875e-05
-5.24416e-05
-1.9756e-05
-5.49432e-05
-1.3461e-05
-5.62509e-05
-6.89892e-06
-5.53209e-05
-4.92663e-05
-5.96173e-05
2.42992e-05
5.86261e-05
-6.04492e-05
1.88976e-05
-6.09943e-05
1.3543e-05
-6.11989e-05
8.19321e-06
-6.10348e-05
2.83297e-06
-6.04812e-05
-2.54497e-06
-5.9519e-05
-7.94409e-06
-5.813e-05
-1.33624e-05
-5.6298e-05
-1.87935e-05
-5.40082e-05
-2.42225e-05
-5.12475e-05
-2.96233e-05
-4.80084e-05
-3.49578e-05
-4.42921e-05
-4.01749e-05
-4.01101e-05
-4.52034e-05
-3.54829e-05
-4.99355e-05
-3.0449e-05
-5.41955e-05
-2.50516e-05
-5.78391e-05
-1.93162e-05
-6.06785e-05
-1.32756e-05
-6.22916e-05
-6.87836e-06
-6.1718e-05
-5.61446e-05
-5.63882e-05
2.54146e-05
5.52727e-05
-5.72354e-05
1.97449e-05
-5.77673e-05
1.40749e-05
-5.79624e-05
8.38823e-06
-5.78054e-05
2.67603e-06
-5.72827e-05
-3.0677e-06
-5.63802e-05
-8.84655e-06
-5.50832e-05
-1.46593e-05
-5.33764e-05
-2.05003e-05
-5.12441e-05
-2.63548e-05
-4.8672e-05
-3.21954e-05
-4.56501e-05
-3.79796e-05
-4.21778e-05
-4.36472e-05
-3.82648e-05
-4.91164e-05
-3.39288e-05
-5.42715e-05
-2.91861e-05
-5.89382e-05
-2.40724e-05
-6.29528e-05
-1.86205e-05
-6.61304e-05
-1.28456e-05
-6.80665e-05
-6.68751e-06
-6.78761e-05
-6.28321e-05
-5.32001e-05
2.64995e-05
5.21152e-05
-5.39946e-05
2.05393e-05
-5.44809e-05
1.45612e-05
-5.46484e-05
8.55576e-06
-5.44882e-05
2.51586e-06
-5.39911e-05
-3.56484e-06
-5.31463e-05
-9.69138e-06
-5.19406e-05
-1.5865e-05
-5.03588e-05
-2.20821e-05
-4.8384e-05
-2.83296e-05
-4.59995e-05
-3.45799e-05
-4.31916e-05
-4.07875e-05
-3.99546e-05
-4.68842e-05
-3.6295e-05
-5.2776e-05
-3.22292e-05
-5.83373e-05
-2.77652e-05
-6.34021e-05
-2.29281e-05
-6.77899e-05
-1.77569e-05
-7.13016e-05
-1.22624e-05
-7.3561e-05
-6.39381e-06
-7.37447e-05
-6.92259e-05
-4.99994e-05
2.75037e-05
4.89952e-05
-5.07201e-05
2.126e-05
-5.11499e-05
1.4991e-05
-5.12839e-05
8.68971e-06
-5.11173e-05
2.34927e-06
-5.06441e-05
-4.03802e-06
-4.98557e-05
-1.04798e-05
-4.87401e-05
-1.69806e-05
-4.72819e-05
-2.35404e-05
-4.54629e-05
-3.01485e-05
-4.3264e-05
-3.67788e-05
-4.06678e-05
-4.33837e-05
-3.76628e-05
-4.98891e-05
-3.42483e-05
-5.61906e-05
-3.04353e-05
-6.21503e-05
-2.62373e-05
-6.76001e-05
-2.16754e-05
-7.23518e-05
-1.67873e-05
-7.61898e-05
-1.15871e-05
-7.87611e-05
-6.03978e-06
-7.92921e-05
-7.52657e-05
-4.67923e-05
2.8412e-05
4.58841e-05
-4.74325e-05
2.19002e-05
-4.78024e-05
1.53609e-05
-4.79011e-05
8.78838e-06
-4.7727e-05
2.17518e-06
-4.72765e-05
-4.48849e-06
-4.65427e-05
-1.12136e-05
-4.55144e-05
-1.80089e-05
-4.41764e-05
-2.48785e-05
-4.25094e-05
-3.18155e-05
-4.0492e-05
-3.87962e-05
-3.81032e-05
-4.57725e-05
-3.53261e-05
-5.26662e-05
-3.21531e-05
-5.93636e-05
-2.85885e-05
-6.57149e-05
-2.46483e-05
-7.15403e-05
-2.03585e-05
-7.66416e-05
-1.57557e-05
-8.07926e-05
-1.086e-05
-8.36568e-05
-5.65244e-06
-8.44996e-05
-8.09182e-05
-4.35992e-05
2.92204e-05
4.27907e-05
-4.41576e-05
2.24586e-05
-4.44674e-05
1.56708e-05
-4.45308e-05
8.85173e-06
-4.43486e-05
1.99302e-06
-4.39192e-05
-4.91789e-06
-4.32371e-05
-1.18957e-05
-4.22921e-05
-1.8954e-05
-4.10691e-05
-2.61015e-05
-3.95485e-05
-3.33361e-05
-3.77069e-05
-4.06378e-05
-3.55197e-05
-4.79597e-05
-3.29653e-05
-5.52206e-05
-3.00299e-05
-6.2299e-05
-2.67126e-05
-6.90321e-05
-2.30286e-05
-7.52243e-05
-1.90086e-05
-8.06615e-05
-1.46924e-05
-8.51089e-05
-1.01073e-05
-8.82418e-05
-5.24891e-06
-8.9358e-05
-8.61671e-05
-4.04422e-05
2.99296e-05
3.9733e-05
-4.09201e-05
2.29365e-05
-4.11711e-05
1.59218e-05
-4.11997e-05
8.88036e-06
-4.10089e-05
1.80218e-06
-4.05985e-05
-5.32829e-06
-3.99643e-05
-1.25298e-05
-3.90974e-05
-1.98209e-05
-3.79833e-05
-2.72156e-05
-3.6602e-05
-3.47174e-05
-3.4929e-05
-4.23108e-05
-3.29368e-05
-4.99518e-05
-3.05993e-05
-5.75581e-05
-2.78974e-05
-6.5001e-05
-2.48254e-05
-7.21041e-05
-2.1397e-05
-7.86527e-05
-1.7646e-05
-8.44126e-05
-1.3617e-05
-8.91378e-05
-9.34588e-06
-9.25129e-05
-4.83982e-06
-9.38641e-05
-9.10069e-05
-3.73415e-05
3.05419e-05
3.67292e-05
-3.77413e-05
2.33363e-05
-3.79354e-05
1.61158e-05
-3.79299e-05
8.87495e-06
-3.77296e-05
1.60187e-06
-3.73358e-05
-5.72214e-06
-3.67456e-05
-1.312e-05
-3.59511e-05
-2.06154e-05
-3.49386e-05
-2.8228e-05
-3.36886e-05
-3.59674e-05
-3.21758e-05
-4.38237e-05
-3.03706e-05
-5.1757e-05
-2.82435e-05
-5.96853e-05
-2.57703e-05
-6.74741e-05
-2.2941e-05
-7.49334e-05
-1.9767e-05
-8.18267e-05
-1.62839e-05
-8.78957e-05
-1.25422e-05
-9.28794e-05
-8.58593e-06
-9.64693e-05
-4.43167e-06
-9.80184e-05
-9.54385e-05
-3.43141e-05
3.10608e-05
3.37952e-05
-3.46387e-05
2.36609e-05
-3.47776e-05
1.62546e-05
-3.47387e-05
8.83604e-06
-3.45279e-05
1.39112e-06
-3.4148e-05
-6.10207e-06
-3.35973e-05
-1.36707e-05
-3.28691e-05
-2.13436e-05
-3.19508e-05
-2.91463e-05
-3.08234e-05
-3.70948e-05
-2.94615e-05
-4.51856e-05
-2.78344e-05
-5.3384e-05
-2.59098e-05
-6.16099e-05
-2.36596e-05
-6.97243e-05
-2.10693e-05
-7.75237e-05
-1.81475e-05
-8.47485e-05
-1.49309e-05
-9.11123e-05
-1.14758e-05
-9.63346e-05
-7.83349e-06
-0.000100112
-4.02811e-06
-0.000101824
-9.94666e-05
-3.1373e-05
3.14899e-05
3.09439e-05
-3.1625e-05
2.39129e-05
-3.17103e-05
1.63399e-05
-3.16381e-05
8.76388e-06
-3.14157e-05
1.16871e-06
-3.10469e-05
-6.47088e-06
-3.05313e-05
-1.41863e-05
-2.98633e-05
-2.20116e-05
-2.90315e-05
-2.99781e-05
-2.80177e-05
-3.81086e-05
-2.6797e-05
-4.64063e-05
-2.53383e-05
-5.48427e-05
-2.36074e-05
-6.33408e-05
-2.15731e-05
-7.17587e-05
-1.92167e-05
-7.988e-05
-1.65441e-05
-8.74211e-05
-1.35921e-05
-9.40643e-05
-1.04217e-05
-9.95049e-05
-7.09154e-06
-0.000103442
-3.63096e-06
-0.000105284
-0.000103098
-2.85271e-05
3.18322e-05
2.81848e-05
-2.87087e-05
2.40945e-05
-2.87414e-05
1.63726e-05
-2.86358e-05
8.65829e-06
-2.84003e-05
9.3318e-07
-2.80398e-05
-6.83137e-06
-2.7555e-05
-1.46711e-05
-2.69414e-05
-2.26252e-05
-2.61886e-05
-3.0731e-05
-2.52794e-05
-3.90177e-05
-2.41899e-05
-4.74958e-05
-2.28893e-05
-5.61434e-05
-2.13424e-05
-6.48877e-05
-1.95157e-05
-7.35853e-05
-1.73873e-05
-8.20084e-05
-1.49597e-05
-8.98487e-05
-1.22693e-05
-9.67547e-05
-9.38142e-06
-0.000102393
-6.36095e-06
-0.000106462
-3.24077e-06
-0.000108404
-0.000106338
-2.5781e-05
3.20901e-05
2.55231e-05
-2.58937e-05
2.42073e-05
-2.58744e-05
1.63532e-05
-2.57348e-05
8.51872e-06
-2.54845e-05
6.82948e-07
-2.51296e-05
-7.18627e-06
-2.46716e-05
-1.51291e-05
-2.41069e-05
-2.31899e-05
-2.34259e-05
-3.14119e-05
-2.26128e-05
-3.98308e-05
-2.16446e-05
-4.8464e-05
-2.04914e-05
-5.72966e-05
-1.91181e-05
-6.62609e-05
-1.749e-05
-7.52134e-05
-1.55824e-05
-8.39161e-05
-1.33948e-05
-9.20364e-05
-1.09626e-05
-9.91869e-05
-8.35434e-06
-0.000105001
-5.64104e-06
-0.000109175
-2.85729e-06
-0.000111188
-0.000109196
-2.31343e-05
3.22659e-05
2.29586e-05
-2.31794e-05
2.42523e-05
-2.31081e-05
1.6282e-05
-2.29339e-05
8.34451e-06
-2.26675e-05
4.16473e-07
-2.23157e-05
-7.53806e-06
-2.18808e-05
-1.5564e-05
-2.13599e-05
-2.37108e-05
-2.07442e-05
-3.20276e-05
-2.00188e-05
-4.05561e-05
-1.91622e-05
-4.93207e-05
-1.81458e-05
-5.83131e-05
-1.69354e-05
-6.74712e-05
-1.54961e-05
-7.66528e-05
-1.38012e-05
-8.5611e-05
-1.18477e-05
-9.39899e-05
-9.66971e-06
-0.000101365
-7.33823e-06
-0.000107333
-4.92987e-06
-0.000111584
-2.47982e-06
-0.000113638
-0.000111675
-2.058e-05
3.23629e-05
2.0483e-05
-2.05596e-05
2.42319e-05
-2.04375e-05
1.61599e-05
-2.02285e-05
8.1355e-06
-1.99447e-05
1.3266e-07
-1.9594e-05
-7.88876e-06
-1.91792e-05
-1.59788e-05
-1.86976e-05
-2.41924e-05
-1.81411e-05
-3.25842e-05
-1.74956e-05
-4.12016e-05
-1.6741e-05
-5.00752e-05
-1.58508e-05
-5.92033e-05
-1.47925e-05
-6.85296e-05
-1.35315e-05
-7.79137e-05
-1.20407e-05
-8.71018e-05
-1.03149e-05
-9.57157e-05
-8.3869e-06
-0.000103293
-6.32938e-06
-0.00010939
-4.2243e-06
-0.000113689
-2.10748e-06
-0.000115755
-0.000113783
-1.81016e-05
3.23916e-05
1.8073e-05
-1.80227e-05
2.4153e-05
-1.78531e-05
1.59902e-05
-1.76106e-05
7.89303e-06
-1.73093e-05
-1.68616e-07
-1.69585e-05
-8.23966e-06
-1.65612e-05
-1.6376e-05
-1.6115e-05
-2.46386e-05
-1.56118e-05
-3.30874e-05
-1.50385e-05
-4.17749e-05
-1.43768e-05
-5.07369e-05
-1.36023e-05
-5.99778e-05
-1.26849e-05
-6.9447e-05
-1.15917e-05
-7.90069e-05
-1.02958e-05
-8.83977e-05
-8.79088e-06
-9.72206e-05
-7.10865e-06
-0.000104975
-5.32274e-06
-0.000111176
-3.52027e-06
-0.000115491
-1.74018e-06
-0.000117535
-0.000115523
-1.56809e-05
3.23568e-05
1.57157e-05
-1.55525e-05
2.40245e-05
-1.53432e-05
1.5781e-05
-1.50709e-05
7.62072e-06
-1.47533e-05
-4.86186e-07
-1.44018e-05
-8.59123e-06
-1.40201e-05
-1.67576e-05
-1.36054e-05
-2.50533e-05
-1.31498e-05
-3.35431e-05
-1.26411e-05
-4.22836e-05
-1.20628e-05
-5.13151e-05
-1.13935e-05
-6.06472e-05
-1.06058e-05
-7.02346e-05
-9.66969e-06
-7.9943e-05
-8.55928e-06
-8.95082e-05
-7.26826e-06
-9.85116e-05
-5.82773e-06
-0.000106416
-4.31191e-06
-0.000112692
-2.81269e-06
-0.000116991
-1.37278e-06
-0.000118975
-0.000116896
-1.33224e-05
3.22526e-05
1.34266e-05
-1.31422e-05
2.38443e-05
-1.28977e-05
1.55365e-05
-1.26011e-05
7.32412e-06
-1.22693e-05
-8.1802e-07
-1.19168e-05
-8.94375e-06
-1.15486e-05
-1.71258e-05
-1.11613e-05
-2.54405e-05
-1.0747e-05
-3.39575e-05
-1.02946e-05
-4.27359e-05
-9.79021e-06
-5.18195e-05
-9.2152e-06
-6.12222e-05
-8.54613e-06
-7.09037e-05
-7.75611e-06
-8.0733e-05
-6.82175e-06
-9.04425e-05
-5.73772e-06
-9.95956e-05
-4.53533e-06
-0.000107618
-3.28896e-06
-0.000113938
-2.09494e-06
-0.000118185
-1.00275e-06
-0.000120067
-0.000117899
-1.10465e-05
3.20779e-05
1.12213e-05
-1.08072e-05
2.36051e-05
-1.05197e-05
1.52489e-05
-1.01974e-05
7.0018e-06
-9.85245e-06
-1.16293e-06
-9.49787e-06
-9.29833e-06
-9.13989e-06
-1.74838e-05
-8.77463e-06
-2.58058e-05
-8.39406e-06
-3.4338e-05
-7.98891e-06
-4.31411e-05
-7.54788e-06
-5.22606e-05
-7.05611e-06
-6.17139e-05
-6.49418e-06
-7.14656e-05
-5.83931e-06
-8.13879e-05
-5.07154e-06
-9.12103e-05
-4.18792e-06
-0.000100479
-3.22125e-06
-0.000108585
-2.24545e-06
-0.000114914
-1.35859e-06
-0.000119071
-6.14581e-07
-0.000120811
-0.000118513
-8.86112e-06
3.18371e-05
9.10185e-06
-8.56455e-06
2.33085e-05
-8.22783e-06
1.49122e-05
-7.86859e-06
6.64257e-06
-7.50333e-06
-1.52819e-06
-7.1421e-06
-9.65956e-06
-6.78815e-06
-1.78377e-05
-6.43684e-06
-2.61571e-05
-6.08038e-06
-3.46945e-05
-5.71166e-06
-4.35098e-05
-5.32265e-06
-5.26496e-05
-4.90241e-06
-6.21342e-05
-4.43594e-06
-7.19321e-05
-3.90513e-06
-8.19187e-05
-3.29453e-06
-9.18209e-05
-2.60505e-06
-0.000101169
-1.87245e-06
-0.000109317
-1.1709e-06
-0.000115616
-6.02048e-07
-0.00011964
-2.13715e-07
-0.0001212
-0.000118727
-6.76312e-06
3.15345e-05
7.06576e-06
-6.41302e-06
2.29584e-05
-6.02885e-06
1.4528e-05
-5.62675e-06
6.24048e-06
-5.22778e-06
-1.92716e-06
-4.84757e-06
-1.00398e-05
-4.48695e-06
-1.81984e-05
-4.13807e-06
-2.6506e-05
-3.79327e-06
-3.50393e-05
-3.44841e-06
-4.38547e-05
-3.09894e-06
-5.2999e-05
-2.7379e-06
-6.24952e-05
-2.35486e-06
-7.23151e-05
-1.93694e-06
-8.23366e-05
-1.47427e-06
-9.22835e-05
-9.7311e-07
-0.00010167
-4.72777e-07
-0.000109818
-4.8309e-08
-0.00011604
1.9092e-07
-0.00011988
2.22541e-07