/*--------------------------------*- C++ -*----------------------------------*\
| =========                 |                                                 |
| \\      /  F ield         | OpenFOAM: The Open Source CFD Toolbox           |
|  \\    /   O peration     | Version:  v2012                                 |
|   \\  /    A nd           | Website:  www.openfoam.com                      |
|    \\/     M anipulation  |                                                 |
\*---------------------------------------------------------------------------*/
FoamFile
{
    version     2.0;
    format      ascii;
    class       volVectorField;
    location    "623";
    object      U;
}
// * * * * * * * * * * * * * * * * * * * * * * * * * * * * * * * * * * * * * //

dimensions      [0 1 -1 0 0 0 0];


internalField   nonuniform List<vector> 
6057
(
(3.04932e-05 -0.994358 0)
(7.93591e-05 -0.994287 0)
(0.000120583 -0.994304 0)
(0.000149649 -0.994395 0)
(0.00017624 -0.994544 0)
(0.00019843 -0.99474 0)
(0.000216961 -0.994971 0)
(0.000232959 -0.995231 0)
(0.000247553 -0.995514 0)
(0.000261752 -0.995816 0)
(0.000276425 -0.996138 0)
(0.000292286 -0.996478 0)
(0.000309791 -0.996839 0)
(0.000328954 -0.997221 0)
(0.000349213 -0.997628 0)
(0.000368792 -0.998064 0)
(0.000382581 -0.998533 0)
(0.000378215 -0.999022 0)
(0.000307293 -0.999456 0)
(7.70077e-05 -0.999752 0)
(-0.000240909 -1.00097 0)
(-0.000126116 -1.00065 0)
(-2.89881e-05 -1.00042 0)
(4.97915e-05 -1.00026 0)
(0.000111125 -1.00016 0)
(0.000158042 -1.00008 0)
(0.000193981 -1.00004 0)
(0.00022212 -1.00002 0)
(0.000245183 -1 0)
(0.000265388 -1 0)
(0.000284528 -1.00001 0)
(0.000304013 -1.00003 0)
(0.000324787 -1.00005 0)
(0.000347202 -1.00007 0)
(0.000371 -1.0001 0)
(0.000394367 -1.00012 0)
(0.000409927 -1.00015 0)
(0.000416196 -1.00016 0)
(0.000369644 -1.00013 0)
(0.000199371 -1.00003 0)
(-0.000556156 -1.00271 0)
(-0.000363781 -1.00234 0)
(-0.000206973 -1.00205 0)
(-8.38087e-05 -1.00183 0)
(9.84907e-06 -1.00165 0)
(7.96303e-05 -1.00151 0)
(0.000131399 -1.00139 0)
(0.000170194 -1.00128 0)
(0.000200214 -1.00119 0)
(0.0002247 -1.00109 0)
(0.000246129 -1.00101 0)
(0.000266354 -1.00092 0)
(0.000286685 -1.00082 0)
(0.000307685 -1.00073 0)
(0.000327109 -1.00063 0)
(0.000338892 -1.00053 0)
(0.000345294 -1.00041 0)
(0.000336051 -1.00028 0)
(0.000279777 -1.00014 0)
(0.000135708 -1.00002 0)
(-0.000914333 -1.00334 0)
(-0.000638238 -1.00296 0)
(-0.000419861 -1.00266 0)
(-0.000252152 -1.00243 0)
(-0.000128664 -1.00224 0)
(-3.8877e-05 -1.00207 0)
(2.59714e-05 -1.00193 0)
(7.25304e-05 -1.00179 0)
(0.00010676 -1.00166 0)
(0.00013289 -1.00153 0)
(0.000153997 -1.00139 0)
(0.000172247 -1.00125 0)
(0.000189005 -1.00111 0)
(0.000204751 -1.00096 0)
(0.000218389 -1.0008 0)
(0.000227168 -1.00063 0)
(0.000229022 -1.00046 0)
(0.000213863 -1.00028 0)
(0.000165577 -1.00012 0)
(6.9727e-05 -1.00002 0)
(-0.0012792 -1.00345 0)
(-0.000908818 -1.00308 0)
(-0.000628798 -1.00281 0)
(-0.000419653 -1.0026 0)
(-0.000270493 -1.00242 0)
(-0.000165584 -1.00226 0)
(-9.28525e-05 -1.00212 0)
(-4.27088e-05 -1.00197 0)
(-7.98882e-06 -1.00183 0)
(1.63673e-05 -1.00169 0)
(3.38966e-05 -1.00154 0)
(4.70708e-05 -1.00138 0)
(5.74972e-05 -1.00121 0)
(6.60369e-05 -1.00104 0)
(7.26904e-05 -1.00086 0)
(7.67317e-05 -1.00066 0)
(7.73583e-05 -1.00047 0)
(7.15001e-05 -1.00027 0)
(5.38168e-05 -1.00011 0)
(2.13302e-05 -1.00001 0)
(-0.00163149 -1.00317 0)
(-0.00114759 -1.00285 0)
(-0.000807651 -1.00264 0)
(-0.000561988 -1.00247 0)
(-0.000394325 -1.00233 0)
(-0.000280998 -1.0022 0)
(-0.000205568 -1.00208 0)
(-0.000156002 -1.00195 0)
(-0.000123961 -1.00181 0)
(-0.000103802 -1.00167 0)
(-9.17886e-05 -1.00153 0)
(-8.53302e-05 -1.00137 0)
(-8.26832e-05 -1.00121 0)
(-8.25702e-05 -1.00104 0)
(-8.35609e-05 -1.00085 0)
(-8.38394e-05 -1.00066 0)
(-8.18653e-05 -1.00047 0)
(-7.41947e-05 -1.00027 0)
(-5.52164e-05 -1.00011 0)
(-2.17883e-05 -1.00001 0)
(-0.00196308 -1.0025 0)
(-0.00132375 -1.00225 0)
(-0.000930629 -1.00214 0)
(-0.000657551 -1.00205 0)
(-0.000482275 -1.00198 0)
(-0.000369298 -1.0019 0)
(-0.000297605 -1.00181 0)
(-0.000252936 -1.00171 0)
(-0.000226239 -1.0016 0)
(-0.000211873 -1.00149 0)
(-0.000206285 -1.00137 0)
(-0.000206819 -1.00124 0)
(-0.000211757 -1.0011 0)
(-0.000219675 -1.00095 0)
(-0.000228214 -1.0008 0)
(-0.000233591 -1.00063 0)
(-0.000233055 -1.00046 0)
(-0.000216246 -1.00028 0)
(-0.000166759 -1.00012 0)
(-7.01133e-05 -1.00002 0)
(-0.00225468 -1.00128 0)
(-0.00138051 -1.00111 0)
(-0.00095731 -1.00119 0)
(-0.000676737 -1.00122 0)
(-0.000511838 -1.00124 0)
(-0.000411289 -1.00123 0)
(-0.000350738 -1.0012 0)
(-0.000315241 -1.00116 0)
(-0.000296471 -1.0011 0)
(-0.000288249 -1.00104 0)
(-0.00028788 -1.00097 0)
(-0.000293829 -1.00089 0)
(-0.000304701 -1.00081 0)
(-0.000319395 -1.00072 0)
(-0.000334886 -1.00062 0)
(-0.000344129 -1.00052 0)
(-0.000348558 -1.00041 0)
(-0.000337925 -1.00028 0)
(-0.000280616 -1.00014 0)
(-0.000135959 -1.00002 0)
(-0.00251714 -0.998896 0)
(-0.00121045 -0.998793 0)
(-0.000841295 -0.999204 0)
(-0.000591088 -0.999433 0)
(-0.000460404 -0.999604 0)
(-0.000385282 -0.999717 0)
(-0.00034303 -0.999797 0)
(-0.000320379 -0.999855 0)
(-0.000310222 -0.999899 0)
(-0.000308256 -0.999935 0)
(-0.000312514 -0.999967 0)
(-0.000322321 -0.999997 0)
(-0.000336823 -1.00003 0)
(-0.000355116 -1.00006 0)
(-0.000376155 -1.00009 0)
(-0.000397665 -1.00012 0)
(-0.000412095 -1.00015 0)
(-0.000417832 -1.00016 0)
(-0.000369756 -1.00013 0)
(-0.000199429 -1.00003 0)
(-0.00212484 -0.992386 0)
(-0.000542755 -0.991586 0)
(-0.000535715 -0.992584 0)
(-0.000384623 -0.993307 0)
(-0.000332654 -0.993837 0)
(-0.000300663 -0.994279 0)
(-0.000284529 -0.99467 0)
(-0.000277738 -0.995034 0)
(-0.00027726 -0.995385 0)
(-0.000281407 -0.995733 0)
(-0.000289396 -0.996084 0)
(-0.000300846 -0.996444 0)
(-0.000315447 -0.996817 0)
(-0.000332741 -0.997208 0)
(-0.000351794 -0.99762 0)
(-0.000370467 -0.998059 0)
(-0.000383607 -0.998531 0)
(-0.000378719 -0.999021 0)
(-0.000307346 -0.999456 0)
(-7.70277e-05 -0.999752 0)
(0.011912 -0.876243 0)
(0.0103534 -0.899218 0)
(0.00892378 -0.919119 0)
(0.00759505 -0.936123 0)
(0.00636893 -0.950451 0)
(0.005249 -0.962331 0)
(0.00423765 -0.971992 0)
(0.00333614 -0.979667 0)
(0.00254455 -0.985589 0)
(0.00186223 -0.989985 0)
(0.001288 -0.993086 0)
(0.0008196 -0.995113 0)
(0.000452852 -0.996283 0)
(0.00018192 -0.996796 0)
(2.09866e-07 -0.996837 0)
(-9.53323e-05 -0.99657 0)
(-0.000152234 -0.996137 0)
(-0.000153436 -0.995649 0)
(-0.000125161 -0.995191 0)
(-8.17878e-05 -0.99481 0)
(-2.90421e-05 -0.99453 0)
(0.0292571 -0.898699 0)
(0.0254249 -0.920108 0)
(0.0218467 -0.938555 0)
(0.0185227 -0.954214 0)
(0.0154632 -0.967296 0)
(0.0126756 -0.978021 0)
(0.0101645 -0.986613 0)
(0.00793132 -0.9933 0)
(0.00597476 -0.99831 0)
(0.00429228 -1.00187 0)
(0.00288049 -1.0042 0)
(0.00173368 -1.00554 0)
(0.000839541 -1.00608 0)
(0.000175457 -1.00603 0)
(-0.000282263 -1.00558 0)
(-0.000556497 -1.00489 0)
(-0.000677896 -1.00409 0)
(-0.000682745 -1.00328 0)
(-0.000608935 -1.00254 0)
(-0.000494336 -1.0019 0)
(-0.000366856 -1.00138 0)
(0.047558 -0.906648 0)
(0.0412704 -0.927459 0)
(0.0353718 -0.945367 0)
(0.0298897 -0.960547 0)
(0.0248452 -0.973198 0)
(0.0202524 -0.983527 0)
(0.0161199 -0.991752 0)
(0.0124504 -0.998095 0)
(0.00924215 -1.00278 0)
(0.00649112 -1.00602 0)
(0.00419098 -1.00805 0)
(0.00233195 -1.00908 0)
(0.000893783 -1.00934 0)
(-0.000155009 -1.00902 0)
(-0.000855944 -1.00832 0)
(-0.00125519 -1.00739 0)
(-0.00140762 -1.00638 0)
(-0.00137205 -1.0054 0)
(-0.00121351 -1.00453 0)
(-0.000998084 -1.00379 0)
(-0.000772503 -1.00319 0)
(0.0654925 -0.911499 0)
(0.0568086 -0.93207 0)
(0.0486463 -0.949759 0)
(0.0410498 -0.964733 0)
(0.0340514 -0.977183 0)
(0.027673 -0.987311 0)
(0.0219287 -0.99533 0)
(0.0168253 -1.00146 0)
(0.0123628 -1.00591 0)
(0.00853631 -1.00892 0)
(0.00533711 -1.01068 0)
(0.00275704 -1.01143 0)
(0.000772369 -1.0114 0)
(-0.000661511 -1.0108 0)
(-0.0016045 -1.00983 0)
(-0.00211875 -1.00866 0)
(-0.00228077 -1.00744 0)
(-0.00217907 -1.00629 0)
(-0.00190618 -1.0053 0)
(-0.0015641 -1.00449 0)
(-0.00122734 -1.00385 0)
(0.0832903 -0.91511 0)
(0.0722196 -0.935555 0)
(0.0617961 -0.953123 0)
(0.0520822 -0.967978 0)
(0.0431218 -0.980309 0)
(0.0349459 -0.990311 0)
(0.0275787 -0.998194 0)
(0.0210341 -1.00417 0)
(0.015307 -1.00845 0)
(0.010383 -1.01126 0)
(0.00625428 -1.0128 0)
(0.0029332 -1.01329 0)
(0.000390393 -1.01297 0)
(-0.00142068 -1.01207 0)
(-0.00258857 -1.0108 0)
(-0.00319335 -1.00936 0)
(-0.00332927 -1.0079 0)
(-0.0031188 -1.00656 0)
(-0.00268027 -1.00545 0)
(-0.00216432 -1.0046 0)
(-0.0016964 -1.00396 0)
(0.101001 -0.917023 0)
(0.0875427 -0.937315 0)
(0.0748597 -0.954752 0)
(0.0630312 -0.969506 0)
(0.0521125 -0.981767 0)
(0.042144 -0.991722 0)
(0.0331583 -0.999563 0)
(0.0251658 -1.0055 0)
(0.0181331 -1.00974 0)
(0.0120585 -1.01251 0)
(0.0069746 -1.01396 0)
(0.00288487 -1.01436 0)
(-0.000238527 -1.01382 0)
(-0.00243934 -1.0127 0)
(-0.00382886 -1.01119 0)
(-0.00449289 -1.00951 0)
(-0.00456 -1.00782 0)
(-0.00418589 -1.00631 0)
(-0.00351234 -1.0051 0)
(-0.00275889 -1.00425 0)
(-0.00214836 -1.00365 0)
(0.118517 -0.915389 0)
(0.102697 -0.935259 0)
(0.0877925 -0.952351 0)
(0.0738963 -0.966868 0)
(0.0610657 -0.979018 0)
(0.0493325 -0.988991 0)
(0.0387071 -0.996979 0)
(0.0291879 -1.00317 0)
(0.0208503 -1.00759 0)
(0.0137478 -1.01056 0)
(0.00776073 -1.01238 0)
(0.00284185 -1.01304 0)
(-0.000903726 -1.01276 0)
(-0.00349346 -1.0118 0)
(-0.00513032 -1.01019 0)
(-0.00589935 -1.00856 0)
(-0.00586477 -1.00685 0)
(-0.00528497 -1.00527 0)
(-0.00433955 -1.00406 0)
(-0.00330591 -1.00335 0)
(-0.00254391 -1.00291 0)
(0.13546 -0.906429 0)
(0.117345 -0.925008 0)
(0.100329 -0.940965 0)
(0.0845062 -0.954584 0)
(0.0699227 -0.966139 0)
(0.0565874 -0.97587 0)
(0.0444929 -0.983986 0)
(0.033693 -0.990614 0)
(0.0242625 -0.99592 0)
(0.0161292 -0.999991 0)
(0.00916425 -1.00289 0)
(0.00339937 -1.0047 0)
(-0.0010731 -1.00551 0)
(-0.00421191 -1.00553 0)
(-0.00608254 -1.00508 0)
(-0.00693369 -1.00439 0)
(-0.00692329 -1.00346 0)
(-0.00627188 -1.00245 0)
(-0.00521934 -1.00168 0)
(-0.00386994 -1.00146 0)
(-0.00272331 -1.0015 0)
(0.150777 -0.883353 0)
(0.130479 -0.898437 0)
(0.111562 -0.911044 0)
(0.0941128 -0.921618 0)
(0.0781514 -0.930592 0)
(0.0636425 -0.938355 0)
(0.0505239 -0.94525 0)
(0.0387488 -0.951541 0)
(0.0282712 -0.957418 0)
(0.0190121 -0.962991 0)
(0.0110792 -0.968149 0)
(0.00452254 -0.972907 0)
(-0.000757564 -0.977147 0)
(-0.00468266 -0.980952 0)
(-0.00703715 -0.984491 0)
(-0.00847222 -0.987691 0)
(-0.00900429 -0.990406 0)
(-0.00855393 -0.992599 0)
(-0.00690822 -0.994195 0)
(-0.00375786 -0.995674 0)
(-0.00147781 -0.99772 0)
(0.161982 -0.836599 0)
(0.139465 -0.84397 0)
(0.118765 -0.848654 0)
(0.0999749 -0.851232 0)
(0.0830993 -0.852265 0)
(0.0680872 -0.852272 0)
(0.0548633 -0.851738 0)
(0.043362 -0.851134 0)
(0.0335111 -0.851002 0)
(0.025166 -0.851972 0)
(0.0180769 -0.854523 0)
(0.0121263 -0.858922 0)
(0.00740061 -0.865535 0)
(0.0046777 -0.874332 0)
(0.00406666 -0.885433 0)
(0.00443418 -0.898541 0)
(0.00550337 -0.913366 0)
(0.00668334 -0.929231 0)
(0.00778094 -0.943469 0)
(0.0084066 -0.957818 0)
(0.00631908 -0.976546 0)
(-0.02639 0.0127574 0)
(-0.0211941 0.045454 0)
(-0.00534219 0.0449296 0)
(0.00830875 0.0252505 0)
(0.0206329 -0.0151604 0)
(0.0340589 -0.0836009 0)
(0.0411408 -0.177284 0)
(0.0402991 -0.266062 0)
(0.0366735 -0.345762 0)
(0.0334133 -0.419303 0)
(0.0305556 -0.486679 0)
(0.0279498 -0.548416 0)
(0.0255477 -0.604933 0)
(0.023301 -0.656568 0)
(0.0211765 -0.703587 0)
(0.0191526 -0.746212 0)
(0.0172182 -0.784636 0)
(0.0153691 -0.819015 0)
(0.0135991 -0.849486 0)
(-0.0459343 0.00143474 0)
(-0.0100168 0.0225308 0)
(0.0209117 0.00465942 0)
(0.0460981 -0.0453996 0)
(0.0735054 -0.120256 0)
(0.0943198 -0.204954 0)
(0.0998901 -0.285013 0)
(0.094796 -0.351997 0)
(0.087459 -0.418826 0)
(0.0805002 -0.482108 0)
(0.0739935 -0.541385 0)
(0.0679524 -0.596603 0)
(0.0622926 -0.647783 0)
(0.0569344 -0.694987 0)
(0.0518178 -0.738283 0)
(0.046907 -0.777743 0)
(0.0421898 -0.813443 0)
(0.0376703 -0.845461 0)
(0.0333502 -0.873901 0)
(-0.0522958 -0.015304 0)
(0.013778 -0.0125788 0)
(0.0588666 -0.0564455 0)
(0.0999226 -0.123437 0)
(0.133927 -0.199463 0)
(0.151585 -0.270496 0)
(0.15242 -0.333367 0)
(0.145247 -0.39268 0)
(0.136371 -0.452122 0)
(0.127053 -0.50923 0)
(0.11787 -0.56385 0)
(0.109011 -0.615532 0)
(0.100467 -0.66403 0)
(0.0921918 -0.709175 0)
(0.0841462 -0.750866 0)
(0.0763137 -0.789046 0)
(0.0687032 -0.823697 0)
(0.0613417 -0.854833 0)
(0.054261 -0.882516 0)
(-0.0278833 -0.0300052 0)
(0.0466978 -0.0506992 0)
(0.106416 -0.109801 0)
(0.156459 -0.179634 0)
(0.188811 -0.246962 0)
(0.20088 -0.30624 0)
(0.198791 -0.36138 0)
(0.190977 -0.416519 0)
(0.181171 -0.471397 0)
(0.170317 -0.524923 0)
(0.159194 -0.576723 0)
(0.148088 -0.626251 0)
(0.13709 -0.673133 0)
(0.126221 -0.71708 0)
(0.115491 -0.757883 0)
(0.104925 -0.795398 0)
(0.0945686 -0.829541 0)
(0.0844834 -0.860279 0)
(0.0747375 -0.887639 0)
(0.00586728 -0.0421931 0)
(0.0898482 -0.0808553 0)
(0.157953 -0.146771 0)
(0.208537 -0.213854 0)
(0.235797 -0.273435 0)
(0.24387 -0.326921 0)
(0.240992 -0.379015 0)
(0.233211 -0.43152 0)
(0.222876 -0.483709 0)
(0.211061 -0.535058 0)
(0.198545 -0.585071 0)
(0.185672 -0.63322 0)
(0.172614 -0.67908 0)
(0.159457 -0.722295 0)
(0.146272 -0.762586 0)
(0.133137 -0.799745 0)
(0.120147 -0.833633 0)
(0.107413 -0.86418 0)
(0.0950516 -0.891386 0)
(0.0518525 -0.04882 0)
(0.14084 -0.100702 0)
(0.210118 -0.169172 0)
(0.256337 -0.232347 0)
(0.278557 -0.287466 0)
(0.284482 -0.338834 0)
(0.281541 -0.389698 0)
(0.27381 -0.440679 0)
(0.263111 -0.491343 0)
(0.250572 -0.541354 0)
(0.23692 -0.590239 0)
(0.222532 -0.637513 0)
(0.207629 -0.68273 0)
(0.192354 -0.72549 0)
(0.176831 -0.76546 0)
(0.161199 -0.802379 0)
(0.145614 -0.836069 0)
(0.13025 -0.866435 0)
(0.115278 -0.893466 0)
(0.105968 -0.0527068 0)
(0.196307 -0.111561 0)
(0.261409 -0.18059 0)
(0.301749 -0.240702 0)
(0.319957 -0.293985 0)
(0.32458 -0.34489 0)
(0.321486 -0.395267 0)
(0.313615 -0.445444 0)
(0.302557 -0.49525 0)
(0.289367 -0.544438 0)
(0.274699 -0.592604 0)
(0.258932 -0.639292 0)
(0.242304 -0.684042 0)
(0.224994 -0.726412 0)
(0.207182 -0.76602 0)
(0.18907 -0.802563 0)
(0.170889 -0.83584 0)
(0.152886 -0.865751 0)
(0.135301 -0.892302 0)
(0.168556 -0.0558275 0)
(0.252849 -0.116365 0)
(0.311516 -0.184579 0)
(0.346057 -0.242789 0)
(0.361095 -0.295641 0)
(0.364612 -0.346651 0)
(0.361132 -0.396843 0)
(0.352957 -0.446594 0)
(0.341495 -0.495879 0)
(0.327668 -0.544511 0)
(0.312039 -0.592133 0)
(0.294947 -0.638292 0)
(0.276623 -0.682493 0)
(0.257273 -0.724239 0)
(0.23713 -0.763092 0)
(0.216476 -0.79871 0)
(0.195632 -0.83088 0)
(0.17494 -0.859528 0)
(0.154725 -0.884714 0)
(0.234478 -0.057094 0)
(0.308674 -0.116793 0)
(0.360538 -0.18381 0)
(0.389892 -0.240979 0)
(0.402288 -0.293871 0)
(0.404665 -0.345054 0)
(0.400601 -0.395128 0)
(0.391999 -0.444572 0)
(0.380063 -0.493433 0)
(0.36556 -0.541545 0)
(0.348937 -0.588548 0)
(0.330461 -0.633947 0)
(0.310337 -0.677165 0)
(0.288789 -0.71761 0)
(0.266115 -0.754756 0)
(0.242698 -0.788205 0)
(0.218985 -0.817739 0)
(0.195444 -0.843334 0)
(0.172514 -0.86515 0)
(0.297694 -0.0560014 0)
(0.363408 -0.114134 0)
(0.408712 -0.180084 0)
(0.433474 -0.236641 0)
(0.443576 -0.289533 0)
(0.444722 -0.340714 0)
(0.439911 -0.390574 0)
(0.430757 -0.439637 0)
(0.418242 -0.48796 0)
(0.402943 -0.535352 0)
(0.385165 -0.581379 0)
(0.365074 -0.625425 0)
(0.342825 -0.666753 0)
(0.31866 -0.704603 0)
(0.292964 -0.738298 0)
(0.266261 -0.767356 0)
(0.239174 -0.791553 0)
(0.212348 -0.810939 0)
(0.186377 -0.825816 0)
(0.165183 -0.757275 0)
(0.139966 -0.75216 0)
(0.117103 -0.743849 0)
(0.0966351 -0.73287 0)
(0.0784962 -0.719615 0)
(0.062562 -0.704323 0)
(0.0486867 -0.687076 0)
(0.0367422 -0.667817 0)
(0.0266986 -0.646434 0)
(0.0189225 -0.62264 0)
(0.0126341 -0.596043 0)
(0.00769895 -0.566518 0)
(0.00404435 -0.533789 0)
(0.00144678 -0.497692 0)
(-0.000596558 -0.458031 0)
(-0.00308614 -0.414293 0)
(-0.00607713 -0.365271 0)
(-0.00705307 -0.308978 0)
(-0.00970388 -0.249047 0)
(-0.0232886 -0.192663 0)
(-0.0361505 -0.148915 0)
(0.156555 -0.649423 0)
(0.128198 -0.631555 0)
(0.102674 -0.611074 0)
(0.0798377 -0.588578 0)
(0.0594574 -0.564466 0)
(0.0412926 -0.538971 0)
(0.0251292 -0.512188 0)
(0.0107686 -0.484144 0)
(-0.00195132 -0.454935 0)
(-0.0132019 -0.42462 0)
(-0.0232935 -0.392904 0)
(-0.032336 -0.359151 0)
(-0.0399017 -0.323656 0)
(-0.0458953 -0.285889 0)
(-0.0509402 -0.245575 0)
(-0.0560781 -0.20031 0)
(-0.0609124 -0.151676 0)
(-0.0634462 -0.0989062 0)
(-0.0651749 -0.0467153 0)
(-0.0762698 -0.00359092 0)
(-0.104656 0.00886567 0)
(0.137871 -0.534384 0)
(0.107448 -0.509939 0)
(0.0805683 -0.485199 0)
(0.0569615 -0.460871 0)
(0.0363079 -0.437413 0)
(0.0182636 -0.415075 0)
(0.00244067 -0.393887 0)
(-0.0116051 -0.373508 0)
(-0.024182 -0.353401 0)
(-0.0354702 -0.332946 0)
(-0.0460263 -0.310325 0)
(-0.0559706 -0.286011 0)
(-0.0651711 -0.259698 0)
(-0.0740981 -0.230602 0)
(-0.083082 -0.199059 0)
(-0.0913395 -0.165714 0)
(-0.0975858 -0.130925 0)
(-0.100956 -0.0937654 0)
(-0.102867 -0.0550235 0)
(-0.1043 -0.0214007 0)
(-0.0970513 -0.00424609 0)
(0.116091 -0.434096 0)
(0.086434 -0.412637 0)
(0.0611757 -0.394105 0)
(0.0396498 -0.378687 0)
(0.0210636 -0.365965 0)
(0.00460916 -0.355028 0)
(-0.0104144 -0.344673 0)
(-0.0245384 -0.333596 0)
(-0.0380659 -0.321128 0)
(-0.0511537 -0.30673 0)
(-0.0636246 -0.290097 0)
(-0.0753696 -0.271009 0)
(-0.0864584 -0.249171 0)
(-0.0969844 -0.224514 0)
(-0.1071 -0.197295 0)
(-0.116744 -0.167793 0)
(-0.124896 -0.136129 0)
(-0.130654 -0.102392 0)
(-0.133409 -0.067641 0)
(-0.130309 -0.0357506 0)
(-0.109693 -0.0120592 0)
(0.0995924 -0.362943 0)
(0.0735212 -0.351481 0)
(0.0516618 -0.343981 0)
(0.0326392 -0.339044 0)
(0.0153064 -0.335044 0)
(-0.00110068 -0.330611 0)
(-0.0169909 -0.324803 0)
(-0.0325017 -0.317195 0)
(-0.0477119 -0.307458 0)
(-0.0626715 -0.295378 0)
(-0.0773166 -0.280797 0)
(-0.091532 -0.263554 0)
(-0.105229 -0.243544 0)
(-0.118334 -0.220794 0)
(-0.130777 -0.195379 0)
(-0.142296 -0.167705 0)
(-0.151928 -0.138196 0)
(-0.158809 -0.107016 0)
(-0.161814 -0.0746617 0)
(-0.156827 -0.0431439 0)
(-0.131607 -0.0160981 0)
(0.0923993 -0.320489 0)
(0.0698813 -0.318509 0)
(0.049984 -0.318438 0)
(0.0313879 -0.318538 0)
(0.0133807 -0.317668 0)
(-0.00434229 -0.315209 0)
(-0.0218879 -0.310842 0)
(-0.0392809 -0.304394 0)
(-0.0565345 -0.295689 0)
(-0.0736197 -0.284616 0)
(-0.0904552 -0.271077 0)
(-0.10694 -0.254971 0)
(-0.122956 -0.236258 0)
(-0.138345 -0.21499 0)
(-0.152829 -0.191224 0)
(-0.16593 -0.165303 0)
(-0.176984 -0.137674 0)
(-0.185099 -0.108454 0)
(-0.188843 -0.0777982 0)
(-0.183649 -0.0467376 0)
(-0.157542 -0.0180438 0)
(0.0924451 -0.295729 0)
(0.0713661 -0.298667 0)
(0.0513927 -0.301373 0)
(0.0318316 -0.302919 0)
(0.012424 -0.302861 0)
(-0.00691711 -0.300984 0)
(-0.0262209 -0.297153 0)
(-0.0454882 -0.291248 0)
(-0.0647086 -0.283158 0)
(-0.0838305 -0.272802 0)
(-0.102761 -0.260106 0)
(-0.121379 -0.245001 0)
(-0.139532 -0.22747 0)
(-0.156993 -0.2076 0)
(-0.173379 -0.185402 0)
(-0.188125 -0.161068 0)
(-0.20065 -0.135058 0)
(-0.210076 -0.107464 0)
(-0.214783 -0.0782242 0)
(-0.210416 -0.0478574 0)
(-0.185206 -0.0187305 0)
(0.0958943 -0.278301 0)
(0.0745548 -0.282813 0)
(0.0535579 -0.286141 0)
(0.0326445 -0.287945 0)
(0.0117282 -0.288059 0)
(-0.00922611 -0.28638 0)
(-0.030233 -0.282827 0)
(-0.0512849 -0.27731 0)
(-0.0723579 -0.269743 0)
(-0.0933923 -0.260056 0)
(-0.114286 -0.248177 0)
(-0.134896 -0.234048 0)
(-0.155032 -0.217653 0)
(-0.174427 -0.199065 0)
(-0.192664 -0.178309 0)
(-0.209048 -0.155459 0)
(-0.223025 -0.130891 0)
(-0.233812 -0.104738 0)
(-0.239701 -0.0768305 0)
(-0.236666 -0.0473996 0)
(-0.213196 -0.0186494 0)
(0.10036 -0.263019 0)
(0.0780429 -0.267717 0)
(0.0557804 -0.270993 0)
(0.0334793 -0.272723 0)
(0.0110976 -0.272821 0)
(-0.0113886 -0.271224 0)
(-0.0339915 -0.26788 0)
(-0.0567038 -0.262719 0)
(-0.0794994 -0.255664 0)
(-0.102317 -0.246643 0)
(-0.125047 -0.235581 0)
(-0.147527 -0.222414 0)
(-0.16953 -0.207112 0)
(-0.19075 -0.189721 0)
(-0.210739 -0.1703 0)
(-0.228771 -0.14886 0)
(-0.24423 -0.125626 0)
(-0.256391 -0.1008 0)
(-0.26357 -0.0742268 0)
(-0.262064 -0.0459477 0)
(-0.240675 -0.0181001 0)
(0.104876 -0.248144 0)
(0.0813914 -0.25259 0)
(0.0578555 -0.255618 0)
(0.0342238 -0.257167 0)
(0.0104655 -0.257186 0)
(-0.0134419 -0.255638 0)
(-0.0375147 -0.252488 0)
(-0.0617524 -0.247677 0)
(-0.0861348 -0.241132 0)
(-0.110604 -0.232779 0)
(-0.13505 -0.222533 0)
(-0.15929 -0.210319 0)
(-0.183066 -0.196084 0)
(-0.206022 -0.179838 0)
(-0.227671 -0.161646 0)
(-0.247339 -0.141532 0)
(-0.264315 -0.119597 0)
(-0.277837 -0.0960619 0)
(-0.286332 -0.0708424 0)
(-0.28637 -0.0438836 0)
(-0.267128 -0.0172685 0)
(0.109121 -0.233271 0)
(0.0844646 -0.237337 0)
(0.0597142 -0.240051 0)
(0.0348388 -0.241383 0)
(0.00981074 -0.241303 0)
(-0.0153962 -0.239794 0)
(-0.040807 -0.236832 0)
(-0.0664336 -0.232366 0)
(-0.0922668 -0.226325 0)
(-0.118258 -0.218632 0)
(-0.144297 -0.209194 0)
(-0.170195 -0.197921 0)
(-0.195661 -0.18474 0)
(-0.220295 -0.169624 0)
(-0.243564 -0.152596 0)
(-0.26481 -0.133709 0)
(-0.283284 -0.113053 0)
(-0.298145 -0.090814 0)
(-0.307929 -0.0669745 0)
(-0.309427 -0.0414562 0)
(-0.292247 -0.0162718 0)
(0.112993 -0.218389 0)
(0.0872186 -0.222033 0)
(0.0613335 -0.224412 0)
(0.0353123 -0.225516 0)
(0.00912702 -0.225332 0)
(-0.017256 -0.223857 0)
(-0.0438745 -0.221076 0)
(-0.0707553 -0.216943 0)
(-0.0979052 -0.211392 0)
(-0.125288 -0.204341 0)
(-0.152802 -0.195692 0)
(-0.180252 -0.185341 0)
(-0.207329 -0.173192 0)
(-0.233592 -0.159187 0)
(-0.258461 -0.143314 0)
(-0.281237 -0.125616 0)
(-0.301151 -0.106203 0)
(-0.317305 -0.0852655 0)
(-0.328314 -0.0628271 0)
(-0.331142 -0.0388276 0)
(-0.315854 -0.0151836 0)
(0.116463 -0.203577 0)
(0.0896412 -0.20679 0)
(0.0627083 -0.208832 0)
(0.0356423 -0.209707 0)
(0.00841165 -0.209419 0)
(-0.0190273 -0.207973 0)
(-0.0467267 -0.205363 0)
(-0.0747318 -0.201548 0)
(-0.103067 -0.196464 0)
(-0.131715 -0.19003 0)
(-0.160584 -0.182142 0)
(-0.189483 -0.172684 0)
(-0.218086 -0.161541 0)
(-0.245919 -0.148626 0)
(-0.272352 -0.133896 0)
(-0.296631 -0.117382 0)
(-0.317926 -0.0992015 0)
(-0.33531 -0.0795608 0)
(-0.347454 -0.0585366 0)
(-0.35146 -0.0361023 0)
(-0.337857 -0.0140503 0)
(0.119528 -0.188932 0)
(0.0917344 -0.19172 0)
(0.063842 -0.19343 0)
(0.0358303 -0.194083 0)
(0.0076623 -0.19369 0)
(-0.0207175 -0.192268 0)
(-0.0493774 -0.189815 0)
(-0.0783818 -0.186296 0)
(-0.107777 -0.181652 0)
(-0.137564 -0.175803 0)
(-0.16767 -0.168643 0)
(-0.197912 -0.160045 0)
(-0.227956 -0.149877 0)
(-0.257296 -0.138027 0)
(-0.285249 -0.124428 0)
(-0.310988 -0.109093 0)
(-0.333613 -0.0921406 0)
(-0.352157 -0.0737959 0)
(-0.365332 -0.054191 0)
(-0.37036 -0.0333464 0)
(-0.358215 -0.0128998 0)
(0.122195 -0.174547 0)
(0.0935063 -0.176921 0)
(0.0647412 -0.178311 0)
(0.0358791 -0.178747 0)
(0.00687616 -0.178251 0)
(-0.022336 -0.176844 0)
(-0.0518425 -0.174533 0)
(-0.0817279 -0.171286 0)
(-0.11206 -0.167052 0)
(-0.142866 -0.161752 0)
(-0.174092 -0.155279 0)
(-0.205568 -0.147501 0)
(-0.236961 -0.138274 0)
(-0.267738 -0.127463 0)
(-0.297159 -0.114977 0)
(-0.324315 -0.100812 0)
(-0.348216 -0.0850838 0)
(-0.367843 -0.0680337 0)
(-0.381939 -0.0498458 0)
(-0.387837 -0.0306004 0)
(-0.376922 -0.0117484 0)
(0.124478 -0.1605 0)
(0.0949682 -0.162474 0)
(0.0654136 -0.163555 0)
(0.0357915 -0.163781 0)
(0.00604963 -0.16318 0)
(-0.0238933 -0.161781 0)
(-0.0541394 -0.159595 0)
(-0.084794 -0.156596 0)
(-0.115949 -0.152739 0)
(-0.147655 -0.147949 0)
(-0.179885 -0.14212 0)
(-0.212487 -0.135119 0)
(-0.245132 -0.126792 0)
(-0.277267 -0.116986 0)
(-0.308096 -0.105592 0)
(-0.336619 -0.092584 0)
(-0.36174 -0.0780728 0)
(-0.38237 -0.0623132 0)
(-0.397276 -0.0455337 0)
(-0.403899 -0.0278877 0)
(-0.39399 -0.0106045 0)
(0.126391 -0.146851 0)
(0.0961317 -0.148441 0)
(0.0658665 -0.149223 0)
(0.0355689 -0.149243 0)
(0.00517824 -0.148536 0)
(-0.0254004 -0.147135 0)
(-0.0562862 -0.145056 0)
(-0.0876052 -0.142281 0)
(-0.119473 -0.138768 0)
(-0.151967 -0.134448 0)
(-0.185088 -0.129219 0)
(-0.218706 -0.122948 0)
(-0.252502 -0.115475 0)
(-0.285909 -0.106638 0)
(-0.318077 -0.0963064 0)
(-0.34791 -0.0844376 0)
(-0.374191 -0.0711322 0)
(-0.395744 -0.0566559 0)
(-0.411349 -0.0412714 0)
(-0.418561 -0.0252203 0)
(-0.409442 -0.00947119 0)
(0.127947 -0.133643 0)
(0.0970067 -0.134862 0)
(0.0661052 -0.135353 0)
(0.0352118 -0.13517 0)
(0.00425658 -0.134352 0)
(-0.0268687 -0.132939 0)
(-0.0583005 -0.130952 0)
(-0.0901856 -0.128376 0)
(-0.122664 -0.125175 0)
(-0.15584 -0.121287 0)
(-0.189741 -0.116612 0)
(-0.224265 -0.111022 0)
(-0.259109 -0.104356 0)
(-0.293695 -0.0964437 0)
(-0.327124 -0.0871413 0)
(-0.358202 -0.076388 0)
(-0.385579 -0.064273 0)
(-0.407972 -0.05107 0)
(-0.424167 -0.0370643 0)
(-0.431841 -0.0226018 0)
(-0.423307 -0.0083479 0)
(0.129157 -0.120901 0)
(0.0976007 -0.121757 0)
(0.0661327 -0.121962 0)
(0.0347184 -0.121575 0)
(0.00327841 -0.120642 0)
(-0.0283095 -0.119207 0)
(-0.0601992 -0.117296 0)
(-0.0925585 -0.114896 0)
(-0.125551 -0.111979 0)
(-0.159307 -0.108484 0)
(-0.193885 -0.104321 0)
(-0.229208 -0.099362 0)
(-0.264993 -0.0934521 0)
(-0.300659 -0.0864179 0)
(-0.335264 -0.0781058 0)
(-0.367514 -0.0684395 0)
(-0.395917 -0.0574955 0)
(-0.419065 -0.0455535 0)
(-0.43574 -0.0329091 0)
(-0.443757 -0.0200306 0)
(-0.435612 -0.00723179 0)
(0.13003 -0.108623 0)
(0.0979177 -0.109125 0)
(0.0659497 -0.109047 0)
(0.0340859 -0.108455 0)
(0.00223717 -0.107401 0)
(-0.0297334 -0.105935 0)
(-0.0619978 -0.104085 0)
(-0.094745 -0.101843 0)
(-0.128162 -0.0991812 0)
(-0.162405 -0.0960452 0)
(-0.197559 -0.0923489 0)
(-0.233577 -0.0879735 0)
(-0.270197 -0.0827684 0)
(-0.306842 -0.0765628 0)
(-0.342529 -0.0691981 0)
(-0.375868 -0.060586 0)
(-0.405221 -0.0507903 0)
(-0.429035 -0.040096 0)
(-0.446078 -0.0287958 0)
(-0.454322 -0.0174997 0)
(-0.446381 -0.00611929 0)
(0.130576 -0.0967727 0)
(0.097963 -0.096934 0)
(0.0655567 -0.0965805 0)
(0.0333116 -0.0957855 0)
(0.00112709 -0.094608 0)
(-0.0311497 -0.093103 0)
(-0.06371 -0.0913026 0)
(-0.0967644 -0.0892 0)
(-0.130522 -0.0867695 0)
(-0.165164 -0.0839592 0)
(-0.200802 -0.0806892 0)
(-0.237415 -0.0768491 0)
(-0.274766 -0.0722971 0)
(-0.312283 -0.0668689 0)
(-0.348952 -0.0604057 0)
(-0.38329 -0.0528119 0)
(-0.413506 -0.0441394 0)
(-0.437894 -0.0346798 0)
(-0.45519 -0.024708 0)
(-0.463543 -0.0149957 0)
(-0.455631 -0.00501237 0)
(0.130834 -0.0852612 0)
(0.0977601 -0.0851222 0)
(0.0649632 -0.0845156 0)
(0.0323967 -0.0835268 0)
(-5.50099e-05 -0.0822279 0)
(-0.0325652 -0.080681 0)
(-0.0653469 -0.0789215 0)
(-0.0986334 -0.0769435 0)
(-0.132656 -0.0747212 0)
(-0.167617 -0.0722049 0)
(-0.203651 -0.069321 0)
(-0.240765 -0.0659688 0)
(-0.278744 -0.0620181 0)
(-0.317024 -0.057315 0)
(-0.354569 -0.0517057 0)
(-0.389806 -0.0450919 0)
(-0.420791 -0.0375164 0)
(-0.445652 -0.0292798 0)
(-0.463079 -0.0206228 0)
(-0.471414 -0.0124997 0)
(-0.463398 -0.00393765 0)
(0.130801 -0.0739942 0)
(0.0973449 -0.0735958 0)
(0.0642023 -0.0727933 0)
(0.0313553 -0.0716324 0)
(-0.00130663 -0.0702207 0)
(-0.0339836 -0.0686328 0)
(-0.0669173 -0.0669085 0)
(-0.100367 -0.0650418 0)
(-0.134586 -0.0630052 0)
(-0.169793 -0.0607511 0)
(-0.206145 -0.0582128 0)
(-0.24367 -0.055301 0)
(-0.282175 -0.0518997 0)
(-0.32111 -0.0478689 0)
(-0.359417 -0.0430646 0)
(-0.395444 -0.0373915 0)
(-0.427093 -0.0308861 0)
(-0.452317 -0.0238627 0)
(-0.469744 -0.0165109 0)
(-0.477913 -0.00999395 0)
(-0.469691 -0.00286805 0)
(0.130518 -0.0630338 0)
(0.096699 -0.0623475 0)
(0.0632829 -0.0613403 0)
(0.0302165 -0.0600662 0)
(-0.00261565 -0.0585529 0)
(-0.0354045 -0.056925 0)
(-0.0684288 -0.0552298 0)
(-0.101982 -0.0534602 0)
(-0.136335 -0.0515849 0)
(-0.171725 -0.0495586 0)
(-0.20832 -0.0473234 0)
(-0.246171 -0.0448033 0)
(-0.285104 -0.0418988 0)
(-0.324584 -0.0384871 0)
(-0.363536 -0.0344383 0)
(-0.400232 -0.0296663 0)
(-0.432426 -0.024205 0)
(-0.457895 -0.0183875 0)
(-0.475187 -0.0123396 0)
(-0.483045 -0.00746101 0)
(-0.474505 -0.00177801 0)
(0.129966 -0.0524828 0)
(0.0958621 -0.0514857 0)
(0.0621939 -0.0502167 0)
(0.0289611 -0.0487836 0)
(-0.00396735 -0.0472102 0)
(-0.0368248 -0.0455374 0)
(-0.0698896 -0.043857 0)
(-0.103494 -0.0421637 0)
(-0.137932 -0.0404192 0)
(-0.173446 -0.0385809 0)
(-0.210218 -0.0366021 0)
(-0.248313 -0.0344225 0)
(-0.287578 -0.0319611 0)
(-0.327491 -0.0291147 0)
(-0.366964 -0.0257719 0)
(-0.404199 -0.0218612 0)
(-0.436803 -0.0174201 0)
(-0.462383 -0.0128083 0)
(-0.479399 -0.00807835 0)
(-0.486788 -0.00487266 0)
(-0.477788 -0.000503955 0)
(0.129127 -0.0423438 0)
(0.094788 -0.0410609 0)
(0.0609483 -0.0395454 0)
(0.0275797 -0.0378751 0)
(-0.00540589 -0.0361749 0)
(-0.0382549 -0.0344674 0)
(-0.0713155 -0.0327718 0)
(-0.10493 -0.031118 0)
(-0.139408 -0.0294623 0)
(-0.174997 -0.0277634 0)
(-0.211882 -0.0259886 0)
(-0.250143 -0.0240948 0)
(-0.289643 -0.0220209 0)
(-0.329874 -0.0196853 0)
(-0.369738 -0.0169986 0)
(-0.407369 -0.0139094 0)
(-0.440233 -0.0104686 0)
(-0.465775 -0.00707306 0)
(-0.48235 -0.00369191 0)
(-0.489041 -0.0021704 0)
(-0.479462 0.000750437 0)
(0.128025 -0.0326056 0)
(0.0934798 -0.0310532 0)
(0.0594983 -0.0293064 0)
(0.0260569 -0.0274282 0)
(-0.00694801 -0.025514 0)
(-0.0397512 -0.0236931 0)
(-0.072741 -0.0219577 0)
(-0.10633 -0.0202855 0)
(-0.14081 -0.0186599 0)
(-0.176424 -0.0170414 0)
(-0.21336 -0.0154116 0)
(-0.251708 -0.0137451 0)
(-0.291346 -0.0120009 0)
(-0.331778 -0.0101204 0)
(-0.371895 -0.00803976 0)
(-0.409767 -0.00573346 0)
(-0.442723 -0.00327925 0)
(-0.468061 -0.00110893 0)
(-0.483988 0.000908193 0)
(-0.489759 0.000757924 0)
(-0.479454 0.00201965 0)
(0.12668 -0.0232262 0)
(0.0919584 -0.021411 0)
(0.0578509 -0.0194294 0)
(0.0243513 -0.0173412 0)
(-0.00862533 -0.015232 0)
(-0.0413441 -0.0132167 0)
(-0.074239 -0.0113677 0)
(-0.107751 -0.00961249 0)
(-0.142195 -0.00794262 0)
(-0.177782 -0.006336 0)
(-0.214705 -0.00478683 0)
(-0.253058 -0.00328584 0)
(-0.292735 -0.00181138 0)
(-0.333247 -0.000329067 0)
(-0.373472 0.00119539 0)
(-0.411415 0.00275398 0)
(-0.444274 0.00422613 0)
(-0.469205 0.00517463 0)
(-0.484276 0.00581038 0)
(-0.489466 0.00385106 0)
(-0.477733 0.0032534 0)
(0.125095 -0.0141325 0)
(0.090223 -0.0120453 0)
(0.0560059 -0.00981032 0)
(0.0224575 -0.00748432 0)