/*--------------------------------*- C++ -*----------------------------------*\
| =========                 |                                                 |
| \\      /  F ield         | OpenFOAM: The Open Source CFD Toolbox           |
|  \\    /   O peration     | Version:  v2012                                 |
|   \\  /    A nd           | Website:  www.openfoam.com                      |
|    \\/     M anipulation  |                                                 |
\*---------------------------------------------------------------------------*/
FoamFile
{
    version     2.0;
    format      ascii;
    class       volScalarField;
    location    "626";
    object      age;
}
// * * * * * * * * * * * * * * * * * * * * * * * * * * * * * * * * * * * * * //

dimensions      [0 0 1 0 0 0 0];


internalField   nonuniform List<scalar> 
6108
(
0.489322
0.46414
0.438971
0.413813
0.388665
0.363526
0.338395
0.313273
0.288158
0.263052
0.237954
0.212865
0.187784
0.162713
0.137651
0.112599
0.087558
0.0625281
0.0375096
0.0125018
0.487556
0.462536
0.437521
0.412511
0.387503
0.362497
0.337492
0.312489
0.287486
0.262484
0.237483
0.212483
0.187483
0.162484
0.137485
0.112488
0.0874906
0.062494
0.0374973
0.0124996
0.487094
0.462121
0.437151
0.412183
0.387214
0.362245
0.337275
0.312304
0.287332
0.262358
0.237382
0.212404
0.187425
0.162443
0.137459
0.112473
0.087484
0.0624922
0.0374974
0.0124998
0.486905
0.461955
0.437005
0.412054
0.387103
0.36215
0.337194
0.312237
0.287277
0.262314
0.237348
0.21238
0.187408
0.162432
0.137453
0.112471
0.0874836
0.0624927
0.0374978
0.0124998
0.486822
0.461883
0.436944
0.412002
0.387059
0.362113
0.337164
0.312212
0.287257
0.262298
0.237337
0.212372
0.187402
0.162429
0.137452
0.11247
0.087484
0.0624931
0.037498
0.0124999
0.486804
0.461872
0.436936
0.411997
0.387056
0.36211
0.337162
0.312211
0.287256
0.262298
0.237337
0.212371
0.187402
0.162429
0.137452
0.11247
0.087484
0.0624931
0.037498
0.0124999
0.486854
0.461921
0.436983
0.41204
0.387093
0.362144
0.33719
0.312234
0.287275
0.262313
0.237348
0.212379
0.187407
0.162432
0.137453
0.11247
0.0874836
0.0624927
0.0374978
0.0124998
0.487014
0.46207
0.437117
0.41216
0.387199
0.362236
0.337269
0.3123
0.287329
0.262356
0.237381
0.212404
0.187424
0.162443
0.137459
0.112473
0.087484
0.0624922
0.0374974
0.0124998
0.487449
0.462469
0.437477
0.412482
0.387484
0.362484
0.337484
0.312483
0.287483
0.262482
0.237482
0.212482
0.187482
0.162483
0.137485
0.112488
0.0874905
0.062494
0.0374973
0.0124996
0.484742
0.465114
0.43867
0.413837
0.388628
0.363514
0.338385
0.313267
0.288154
0.26305
0.237953
0.212864
0.187784
0.162712
0.137651
0.112599
0.087558
0.0625281
0.0375096
0.0125018
0.590243
0.564976
0.539736
0.51452
0.587754
0.562679
0.537624
0.512585
0.587069
0.562055
0.537058
0.512072
0.586774
0.561789
0.536819
0.511859
0.586625
0.561658
0.536705
0.511761
0.58657
0.561613
0.53667
0.511735
0.586616
0.561656
0.536714
0.511782
0.58685
0.561855
0.536892
0.51195
0.587467
0.562413
0.537401
0.512417
0.630699
0.598662
0.566204
0.533293
10.9554
11.4932
12.0563
13.3054
2.93739
1.95139
1.73336
1.6027
1.51285
1.44215
1.38309
1.33171
1.2858
1.24396
1.20525
1.169
1.13473
1.10206
1.07071
1.04044
1.01107
0.982432
0.954414
0.926907
0.899824
0.873091
0.846647
0.820441
0.794431
0.768581
0.742862
0.717251
0.691728
0.666277
0.640886
0.615544
10.065
11.6796
11.632
7.17074
2.19666
1.82263
1.67146
1.56513
1.4862
1.42131
1.36585
1.31688
1.27269
1.23214
1.19444
1.15902
1.12546
1.0934
1.06259
1.03282
1.0039
0.975691
0.948073
0.920942
0.894213
0.867816
0.841691
0.815788
0.790065
0.764489
0.739032
0.713669
0.688384
0.663161
0.637987
0.612854
9.64919
11.1429
8.05796
3.40592
1.93835
1.742
1.62594
1.53647
1.46562
1.40551
1.35313
1.3063
1.2637
1.22439
1.1877
1.15312
1.12027
1.08882
1.05855
1.02923
1.00071
0.972847
0.945529
0.918659
0.892159
0.865961
0.84001
0.81426
0.788674
0.763219
0.737869
0.712605
0.687408
0.662266
0.637168
0.612105
8.76555
8.27524
4.47096
2.11295
1.84508
1.69515
1.59772
1.51808
1.45243
1.39564
1.34545
1.30018
1.25873
1.2203
1.18428
1.15024
1.1178
1.0867
1.0567
1.02761
0.999274
0.971569
0.944384
0.917629
0.891229
0.865119
0.839246
0.813566
0.788042
0.762644
0.737346
0.712129
0.686975
0.661871
0.636809
0.611779
7.38041
5.57584
2.73408
1.93199
1.79197
1.66753
1.58016
1.5064
1.44417
1.38961
1.3409
1.29665
1.25592
1.218
1.18236
1.14859
1.11637
1.08544
1.05558
1.02662
0.998389
0.970777
0.943676
0.916995
0.890661
0.86461
0.83879
0.813158
0.787676
0.762316
0.737052
0.711865
0.686739
0.66166
0.63662
0.611611
6.23319
3.8325
2.15582
1.8838
1.7603
1.65046
1.56882
1.49882
1.43887
1.38581
1.33808
1.29449
1.2542
1.21658
1.18116
1.14757
1.1155
1.0847
1.05496
1.02609
0.997956
0.970421
0.943381
0.91675
0.890453
0.86443
0.838632
0.813016
0.787548
0.762198
0.736944
0.711765
0.686647
0.661577
0.636546
0.611545
5.41388
2.93493
2.02753
1.85975
1.74016
1.63955
1.56145
1.49406
1.4357
1.38364
1.33646
1.29316
1.25303
1.21556
1.18032
1.14694
1.1151
1.08453
1.05499
1.0263
0.998296
0.970852
0.943863
0.917247
0.890938
0.864883
0.839038
0.813368
0.787843
0.76244
0.737136
0.711915
0.686762
0.661664
0.636612
0.611599
4.7869
2.4946
1.98593
1.845
1.72705
1.63263
1.55678
1.49099
1.43329
1.38142
1.3344
1.29153
1.25219
1.21568
1.18136
1.14872
1.11746
1.0873
1.05804
1.02948
1.0015
0.973983
0.946846
0.920026
0.893473
0.867151
0.841028
0.815082
0.789293
0.763643
0.738117
0.7127
0.68738
0.662144
0.636984
0.611889
4.3303
2.32184
1.96561
1.83493
1.71876
1.6284
1.55383
1.48901
1.43227
1.38214
1.33758
1.29703
1.25871
1.22146
1.18534
1.15125
1.11891
1.08797
1.05822
1.02942
1.00139
0.973984
0.947088
0.920579
0.894351
0.868314
0.842404
0.816582
0.790828
0.765137
0.739509
0.71395
0.688469
0.66308
0.637788
0.612588
4.00811
2.24664
1.95569
1.82806
1.71389
1.62609
1.5525
1.48911
1.43395
1.38419
1.3364
1.28798
1.23982
1.19727
1.169
1.14457
1.12074
1.09791
1.07588
1.05429
1.03359
1.01411
0.995245
0.976372
0.956912
0.936434
0.914642
0.891381
0.866622
0.840453
0.812993
0.784406
0.754859
0.724574
0.693733
0.662418
114.805
120.914
126.708
129.357
147.902
148.878
150.915
153.71
146.41
146.808
148.251
153.77
146.182
146.852
148.783
154.02
145.894
146.537
148.49
153.954
145.641
146.285
148.286
153.782
145.394
146.02
147.998
153.557
145.16
145.767
147.69
153.337
144.935
145.526
147.389
153.118
144.72
145.297
147.116
152.901
144.512
145.08
146.879
152.685
144.311
144.876
146.681
152.476
144.118
144.688
146.509
152.293
143.935
144.517
146.37
152.136
143.764
144.366
146.269
152.009
143.609
144.238
146.214
151.914
143.458
144.142
146.213
151.855
143.309
144.091
146.276
151.838
143.176
144.101
146.422
151.872
143.085
144.198
146.675
151.968
143.062
144.421
147.066
152.143
143.151
144.832
147.636
152.417
143.453
145.519
148.425
152.804
144.123
146.601
149.47
153.298
145.391
148.212
150.809
153.872
147.549
150.516
152.503
154.435
151.01
153.714
154.617
155.099
156.168
157.997
157.221
155.856
163.515
163.604
160.399
156.716
173.409
170.641
164.139
157.786
186.132
179.152
168.388
158.925
201.685
189.028
173.066
160.068
219.709
200
178.042
161.182
239.574
211.682
183.145
162.242
260.377
223.583
188.191
163.225
281.127
235.15
192.973
164.11
300.774
245.86
197.308
164.879
318.335
255.262
201.053
165.523
333.067
263.03
204.115
166.043
344.48
268.976
206.449
166.439
352.336
273.035
208.049
166.721
356.625
275.241
208.955
166.898
357.478
275.698
209.182
167.009
355.207
274.559
208.726
167.118
350.146
271.97
207.626
167.228
342.653
268.078
205.955
167.339
333.093
263.023
203.78
167.451
321.814
256.933
201.164
167.566
309.129
249.921
198.168
167.683
295.308
242.09
194.852
167.804
280.572
233.53
191.275
167.93
265.111
224.34
187.507
168.062
249.106
214.654
183.644
168.203
232.801
204.695
179.824
168.355
216.621
194.853
176.262
168.523
201.334
185.765
173.236
168.714
188.043
178.218
171.097
168.939
178.087
173.112
170.05
169.247
172.321
170.803
170.283
170.306
171.899
172.302
173.208
175.378
3.78594
2.20704
1.95169
1.82375
1.7116
1.62559
1.55319
1.4909
1.43486
1.38102
1.32924
1.28748
1.26971
1.28483
1.37269
1.58891
2.02694
2.81662
4.154
6.27887
9.45019
13.9063
19.7499
26.6996
33.9704
41.397
48.7948
56.0566
63.1318
70.0386
76.7836
83.395
89.9028
96.3818
102.804
108.976
3.63376
2.18511
1.95114
1.82179
1.71159
1.62709
1.5557
1.49279
1.43311
1.37688
1.3376
1.33373
1.43465
1.77335
2.54705
4.22978
7.85743
15.0234
25.9346
39.782
55.5334
71.8125
87.2565
100.836
112.188
121.716
129.287
134.795
138.974
142.012
144.242
145.793
146.765
147.215
147.276
147.472
3.52884
2.17355
1.95294
1.82208
1.71375
1.63042
1.55848
1.49123
1.42589
1.37796
1.37118
1.52441
2.05201
3.54929
7.86442
17.6058
33.6036
54.6145
77.2138
98.977
117.94
132.865
143.554
150.48
154.415
156.112
156.224
155.382
154.143
152.515
150.532
148.625
147.198
146.485
146.269
146.243
3.45393
2.16838
1.9565
1.82447
1.71789
1.63478
1.55983
1.48661
1.42134
1.39651
1.48068
1.92477
4.18605
11.5133
26.9998
50.6718
78.9029
107.398
132.124
151.417
165.112
174.122
179.655
182.654
183.658
182.83
180.303
176.243
171.01
165.027
158.838
153.161
148.89
146.715
146.077
145.997
3.39887
2.16752
1.96157
1.8288
1.72357
1.63924
1.55946
1.48249
1.42918
1.4411
1.62153
3.88086
12.6688
31.6819
60.546
94.8669
128.267
156.396
177.746
193.114
203.844
210.913
214.67
215.202
212.775
208.004
201.411
193.437
184.512
175.094
165.739
157.211
150.554
146.894
145.906
145.729
3.35788
2.16979
1.96805
1.83489
1.73037
1.64315
1.55763
1.48153
1.45562
1.55535
2.55101
10.5359
30.1887
61.8967
100.954
139.782
172.687
198.125
217.098
230.835
239.748
243.901
243.734
240.206
234.109
226.027
216.446
205.783
194.426
182.79
171.378
160.893
152.382
147.215
145.729
145.495
3.32744
2.1745
1.97585
1.84251
1.73773
1.64623
1.55668
1.4923
1.49553
1.66438
6.20099
23.5438
54.9369
96.9624
141.26
180.298
211.358
235.237
252.927
264.439
269.834
270.035
266.41
259.829
251.059
240.639
228.966
216.374
203.198
189.827
176.742
164.607
154.443
147.741
145.58
145.275
3.30523
2.18119
1.98491
1.85141
1.74545
1.64919
1.55851
1.51147
1.5746
2.53167
13.8066
41.7487
83.5385
132.159
178.001
215.974
246.014
269.069
284.909
293.361
295.435
292.65
286.183
277.085
266.113
253.764
240.356
226.145
211.41
196.516
181.941
168.329
156.649
148.456
145.453
145.068
3.28959
2.18957
1.99515
1.86136
1.75322
1.65224
1.56744
1.54468
1.6525
5.27117
25.3533
63.0996
112.806
164.802
210.574
247.961
277.907
300.311
314.408
320.595
320.17
314.609
305.366
293.698
280.467
266.183
251.101
235.376
219.199
202.89
186.923
171.947
158.888
149.287
145.34
144.872
3.27934
2.19939
2.00647
1.87215
1.76124
1.65751
1.5824
1.57831
1.72223
10.1819
39.4397
85.5469
140.621
194.022
239.635
277.491
308.275
330.906
344.463
349.234
346.395
337.786
325.317
310.587
294.693
278.215
261.345
244.098
226.527
208.865
191.573
175.316
161.015
150.148
145.234
144.683
3.27356
2.2105
2.01877
1.88367
1.76993
1.6652
1.59972
1.63464
2.34494
17.27
54.773
107.532
165.966
219.969
266.156
305.824
338.919
363.423
377.618
381.224
375.689
363.406
346.901
328.315
309.111
290.003
271.11
252.258
233.298
214.33
195.771
178.307
162.885
150.931
145.125
144.497
3.27155
2.22273
2.03197
1.89589
1.77954
1.67594
1.62482
1.68082
3.87778
25.8744
70.2908
128.104
188.593
243.206
291.139
334.346
371.774
399.854
415.4
417.819
409.068
392.231
370.647
347.205
323.881
301.588
280.36
259.774
239.408
219.169
199.402
180.807
164.379
151.525
145.001
144.31
3.27272
2.23597
2.04597
1.9088
1.79032
1.6893
1.65235
1.7236
6.24835
35.0782
85.2518
146.814
208.662
264.389
315.533
364.348
408.243
441.212
458.518
459.61
446.987
424.588
396.763
367.353
339.01
312.918
289.013
266.55
244.753
223.275
202.362
182.719
165.4
151.831
144.851
144.12
3.27658
2.25012
2.06071
1.9224
1.80215
1.70656
1.68062
1.76663
9.30184
44.3005
99.1832
163.507
226.457
284.091
340.105
396.69
448.885
487.644
506.972
506.491
489.296
460.316
425.078
388.584
354.33
323.846
296.942
272.475
249.23
226.549
204.554
183.954
165.869
151.779
144.665
143.925
3.28277
2.26507
2.07613
1.93666
1.81525
1.72637
1.70981
1.80981
12.8459
53.145
111.822
178.194
242.26
302.724
365.291
431.592
493.43
538.542
559.995
557.625
535.203
498.725
455.02
410.434
369.484
334.115
303.973
277.425
252.739
228.898
205.892
184.438
165.728
151.346
144.416
143.729
3.29098
2.28073
2.09216
1.95165
1.82989
1.74577
1.73668
1.8515
16.6716
61.362
123.073
191.007
256.355
320.561
391.174
468.66
540.93
592.627
616.112
611.5
583.315
538.62
485.618
432.158
383.941
343.376
309.89
281.265
255.18
230.239
206.3
184.108
164.947
150.513
144.104
143.53
3.30096
2.29705
2.10877
1.9674
1.84577
1.76474
1.77384
2.08723
20.6504
68.8123
132.948
202.127
268.996
337.76
417.558
507.076
589.987
648.113
673.299
666.084
631.774
578.4
515.578
452.781
397.029
351.213
314.456
283.858
256.461
230.493
205.715
182.919
163.49
149.306
143.768
143.333
3.31247
2.31395
2.12591
1.98386
1.86265
1.7865
1.80735
2.46342
24.4379
75.4401
141.516
211.741
280.382
354.361
444.074
545.838
639.002
702.93
729.197
719.023
678.464
616.231
543.408
471.19
408.008
357.19
317.439
285.08
256.499
229.6
204.085
180.826
161.363
147.828
143.464
143.138
3.32533
2.33136
2.14354
2.00099
1.88049
1.80968
1.83676
2.92448
27.8993
81.2428
148.877
220.026
290.658
370.317
470.274
583.933
686.378
754.939
781.338
767.883
721.249
650.248
567.575
486.263
416.16
360.911
318.641
284.828
255.231
227.51
201.363
177.82
158.609
146.291
143.227
142.947
3.33937
2.34924
2.16163
2.01873
1.89919
1.8334
1.86477
3.42458
30.9838
86.2524
155.141
227.133
299.916
385.503
495.632
620.349
730.597
802.13
827.423
810.449
758.198
678.737
586.668
496.99
420.878
362.069
317.923
283.037
252.634
224.181
197.527
173.92
155.335
144.831
142.955
142.769
3.35443
2.36753
2.18013
2.03704
1.91861
1.85728
1.8924
3.92739
33.6754
90.5174
160.418
233.193
308.206
399.743
519.619
654.208
770.42
842.866
865.731
845.088
787.779
700.29
599.533
502.598
421.752
360.484
315.24
279.733
248.679
219.582
192.578
169.194
151.737
143.621
142.666
142.642
3.37039
2.3862
2.19901
2.05587
1.93865
1.88124
1.91982
4.40543
35.9762
94.0922
164.81
238.312
315.548
412.847
541.732
684.612
804.577
876.295
895.48
871.029
808.974
713.893
605.385
502.642
418.602
356.168
310.697
274.941
243.353
213.702
186.555
163.785
148.155
142.82
142.441
142.557
3.38714
2.4052
2.21823
2.07518
1.9592
1.90524
1.94705
4.83963
37.9009
97.0341
168.409
242.577
321.945
424.616
561.493
711.22
834.29
901.821
915.61
888.29
821.281
718.978
603.884
497.049
411.516
349.353
304.445
268.716
236.653
206.557
179.56
157.95
145.251
142.504
142.272
142.499
3.40458
2.42451
2.23777
2.09491
1.98019
1.92926
1.97408
5.21777
39.4716
99.4008
171.296
246.06
327.388
434.864
578.557
733.588
856.884
914.086
923.377
897.258
824.614
715.484
595.154
485.965
400.932
340.422
296.694
261.114
228.587
198.209
171.787
152.138
143.204
142.181
142.184
142.62
3.42264
2.44408
2.2576
2.11503
2.00154
1.9533
2.00093
5.53301
40.7137
101.247
173.545
248.824
331.867
443.436
592.627
751.252
872.538
918.75
921.815
898.545
819.3
703.647
579.426
470.106
387.558
329.86
287.658
252.18
219.183
188.796
163.582
147.097
142.163
141.977
142.156
143.15
3.44123
2.46389
2.27768
2.13549
2.02321
1.97735
2.0276
5.78266
41.6538
102.623
175.219
250.918
335.375
450.212
603.468
763.957
881.899
920.213
920.677
893.101
805.45
683.794
557.62
450.504
372.261
318.164
277.498
241.939
208.524
178.586
155.512
143.648
141.918
141.91
142.426
144.471
3.4603
2.48393
2.298
2.15626
2.04516
2.00141
2.0541
5.96716
42.3186
103.576
176.374
252.391
337.913
455.11
610.925
771.59
885.867
921.063
918.871
880.743
783.327
656.913
530.988
428.428
355.953
305.745
266.299
230.42
196.788
168.036
148.465
141.859
141.726
141.962
143.653
147.199
3.47982
2.50416
2.31853
2.17731
2.06734
2.02548
2.08043
6.08937
42.7333
104.146
177.057
253.281
339.493
458.095
614.901
774.265
884.573
922.377
914.184
860.131
753.751
624.337
501.071
405.253
339.442
292.849
254.069
217.704
184.316
157.881
143.841
141.626
141.697
142.83
146.692
151.934
3.4997
2.52458
2.33926
2.1986
2.08974
2.04957
2.10662
6.15213
42.924
104.372
177.314
253.631
340.135
459.158
615.57
772.133
877.668
916.886
900.891
830.87
717.978
587.646
469.564
382.283
323.296
279.531
240.788
203.99
171.682
149.244
141.541
141.496
142.079
145.746
152.598
159.503
3.5199
2.54516
2.36017
2.22012
2.11232
2.07367
2.13261
6.17581
42.9078
104.285
177.167
253.463
339.904
458.468
613.029
765.262
864.977
901.954
873.508
794.521
677.753
548.542
438.19
360.574
307.75
265.69
226.492
189.671
159.77
143.756
141.284
141.663
144.432
152.329
162.549
170.65
3.54039
2.56589
2.38124
2.24185
2.13507
2.09778
2.15834
6.17538
42.6982
103.913
176.648
252.806
338.865
456.153
607.478
753.972
847.58
870.825
839.27
755.059
634.468
508.793
408.544
340.761
292.705
251.176
211.371
175.393
149.858
141.156
141.283
142.857
150.413
163.837
177.626
186.025
3.56115
2.58676
2.40248
2.26375
2.15797
2.1219
2.18385
6.15506
42.316
103.285
175.789
251.697
337.083
452.354
599.209
738.684
827.006
844.635
803.863
711.734
589.32
470.374
381.861
322.957
277.833
235.931
195.834
162.105
143.696
140.935
141.781
147.462
162.466
182.164
198.856
206.006
3.58216
2.60776
2.42382
2.28581
2.18099
2.14605
2.20915
6.11794
41.7831
102.429
174.623
250.175
334.627
447.239
588.583
719.96
801.908
814.273
762.936
665.92
544.537
435.042
358.758
306.814
262.768
220.107
180.537
151.101
140.763
140.984
144.085
157.727
181.846
208.014
226.376
230.352
3.60319
2.62907
2.44526
2.30801
2.20426
2.17023
2.23428
6.0669
41.1211
101.371
173.183
248.281
331.577
440.996
576.017
698.602
771.26
774.242
719.015
619.96
501.785
404.017
339.23
291.7
247.3
204.113
166.367
144.117
140.398
141.761
151.228
176.084
210.028
241.728
259.781
258.33
3.62423
2.65069
2.46677
2.33033
2.22765
2.19443
2.25926
6.00467
40.3512
100.135
171.498
246.057
328.013
433.83
561.958
675.429
738.363
734.189
676.45
574.954
462.479
378.048
322.71
276.956
231.513
188.575
154.416
140.373
140.293
144.861
165.363
202.884
246.554
282.194
297.651
288.635
3.64528
2.67259
2.48836
2.35277
2.25115
2.21866
2.28412
5.93379
39.4933
98.7454
169.6
243.545
324.019
425.951
546.859
651.23
704.86
695.517
635.108
531.6
428.085
357.2
308.247
262.161
215.805
174.228
146
139.297
141.197
153.474
188.048
238.367
290.271
327.482
338.071
319.782
3.66635
2.69474
2.51002
2.37531
2.27473
2.24294
2.30889
5.85657
38.5665
97.2264
167.521
240.787
319.68
417.565
531.159
626.732
671.83
659.245
595.142
491.13
399.659
340.776
294.863
247.292
200.77
161.793
140.888
139.196
144.101
168.438
218.053
280.435
338.387
374.673
378.353
349.94
3.68745
2.7171
2.53174
2.39795
2.29839
2.26725
2.33358
5.77515
37.5886
95.6011
165.289
237.827
315.078
408.867
515.259
602.572
640.149
625.791
556.461
454.918
377.537
327.588
281.909
232.701
187.021
151.824
138.386
139.651
151.062
190.767
254.658
326.409
387.484
420.555
416.126
377.47
3.70856
2.73963
2.55354
2.42067
2.32213
2.29161
2.35823
5.6914
36.5763
93.8923
162.936
234.707
310.295
400.039
499.517
579.273
610.662
595.011
519.226
424.356
361.212
316.372
269.231
218.935
175.044
144.979
137.79
141.233
163.15
218.588
294.272
372.261
433.886
462.192
449.335
401.048
3.7297
2.76232
2.57539
2.44347
2.34593
2.31602
2.38286
5.60703
35.5449
92.1226
160.492
231.47
305.405
391.246
484.249
557.247
584.207
566.235
484.11
400.439
349.469
306.216
257.126
206.53
165.131
140.717
137.701
144.432
180.005
249.233
333.233
414.436
474.483
497.251
476.35
419.688
3.75087
2.78512
2.5973
2.46634
2.3698
2.34048
2.4075
5.5235
34.5084
90.314
157.986
228.16
300.485
382.642
469.737
536.817
561.517
538.461
452.433
383.368
340.809
296.802
246.112
195.868
157.323
138.235
137.648
150.146
200.371
279.644
368.046
449.982
506.428
523.908
496.305
432.854
3.77206
2.80802
2.61926
2.48926
2.39373
2.36499
2.43215
5.44208
33.4797
88.4878
155.45
224.819
295.607
374.367
456.232
518.243
543.008
510.797
426.012
372.397
333.993
288.363
236.707
187.158
151.488
136.975
137.772
158.813
221.091
306.227
396.039
476.804
526.295
535.891
507.502
440.345
3.79328
2.831
2.64127
2.51224
2.41772
2.38955
2.45684
5.36385
32.4702
86.6649
152.911
221.492
290.843
366.549
443.935
501.753
528.568
483.024
406.541
366.018
328.457
281.439
229.303
180.492
147.417
136.495
138.18
168.397
238.756
326.71
415.624
493.451
536.384
542.865
511.374
442.17
3.81454
2.85402
2.66333
2.53527
2.44176
2.41417
2.4816
5.28972
31.4898
84.8649
150.401
218.22
286.258
359.291
432.99
487.533
517.564
456.028
394.615
362.489
324.32
276.567
224.169
175.909
144.91
136.42
138.694
177.275
252.087
339.888
425.967
499.493
538.486
541.163
507.964
438.803
3.83581
2.87707
2.68542
2.55833
2.46584
2.43885
2.50643
5.22038
30.5472
83.106
147.945
215.044
281.91
352.672
423.475
475.789
507.877
431.941
389.219
360.633
322.034
274.094
221.502
173.439
143.55
136.349
139.141
183.559
259.449
345.188
427.031
495.119
533.388
533.5
497.86
430.816
3.85712
2.90012
2.70756
2.58142
2.48996
2.46358
2.53134
5.1564
29.6492
81.4046
145.568
211.998
277.847
346.749
415.418
466.651
498.904
414.009
388.055
360.218
321.982
274.228
221.491
173.155
143.15
136.283
139.359
185.655
260.401
342.768
419.286
481.276
517.01
517.228
481.96
418.874
3.87845
2.92316
2.72972
2.60454
2.51412
2.48836
2.55636
5.09817
28.8015
79.7749
143.293
209.116
274.11
341.56
408.82
460.025
492.845
404.457
388.713
361.625
324.362
277.165
224.372
175.231
143.687
136.223
139.163
182.962
255.088
333.28
404.205
460.775
493.179
493.686
461.433
403.687
3.89981
2.94616
2.75192
2.62768
2.53831
2.51321
2.58149
5.04593
28.0082
78.2289
141.139
206.423
270.73
337.127
403.662
455.894
482.192
401.717
390.633
365.091
329.221
283.04
230.401
180.042
145.44
136.168
137.944
176.385
244.284
317.835
383.11
434.401
464.125
465.478
437.454
385.954
3.92119
2.96912
2.77413
2.65083
2.56255
2.5381
2.60674
4.99983
27.2721
76.7763
139.122
203.942
267.733
333.463
399.942
454.016
465.273
403.322
394.204
370.522
336.524
291.882
239.756
188.008
149.306
136.12
136.149
166.665
228.791
297.565
357.67
404.123
431.684
434.384
411.101
366.327
3.9426
2.99202
2.79637
2.67399
2.58669
2.56305
2.63212
4.9599
26.5947
75.4244
137.254
201.691
265.136
330.571
397.567
453.903
447.13
406.331
399.253
377.825
346.145
303.619
252.556
199.472
156.105
136.648
134.51
155.347
209.787
273.652
329.396
371.567
397.415
401.75
383.317
345.38
3.96402
3.01485
2.81862
2.69716
2.61073
2.58804
2.65762
4.92607
25.9766
74.1787
135.545
199.683
262.952
328.45
396.83
453.163
433.76
411.027
405.709
386.829
357.858
318.024
268.787
215.118
166.978
138.963
133.843
144.944
188.777
247.205
299.585
338.186
362.587
368.664
354.898
323.594
3.98547
3.03759
2.84088
2.72033
2.63473
2.61307
2.68326
4.8982
25.4173
73.0423
134.002
197.928
261.186
327.081
397.812
451.29
425.949
417.307
413.415
397.322
371.361
334.734
288.139
235.002
183.229
145.581
133.771
137.07
167.772
219.335
269.156
305.201
328.2
335.989
326.476
301.357
4.00693
3.06023
2.86316
2.7435
2.65872
2.63814
2.70904
4.8761
24.9158
72.0167
132.63
196.431
259.841
326.497
400.116
448.155
424.416
424.622
422.265
409.068
386.303
353.272
310.098
258.751
204.786
158.686
135.081
132.533
149.293
191.408
238.621
273.564
295.067
304.341
298.544
278.98
4.0284
3.08277
2.88543
2.76666
2.68269
2.66324
2.73495
4.85953
24.4702
71.1017
131.429
195.195
258.911
326.755
403.327
445.243
426.073
432.599
432.125
421.853
402.357
373.12
333.957
285.74
231.882
180.126
142.996
131.479
136.593
165.425
208.299
243.776
264.087
274.1
271.523
256.758
4.04989
3.10521
2.90771
2.78982
2.70666
2.68839
2.76099
4.84821
24.0783
70.2957
130.399
194.216
258.389
327.893
407.087
442.775
428.931
441.339
442.844
435.504
419.26
393.843
358.977
314.854
263.119
208.557
160.691
134.018
130.224
144.282
178.972
215.499
236.414
245.812
245.881
235.103
4.07139
3.12753
2.92999
2.81297
2.73061
2.71356
2.78715
4.84183
23.7374
69.5958
129.538
193.492
258.262
329.894
411.049
440.925
434.048
450.651
454.324
449.883
436.821
415.11
384.532
345.009
297.109
243.353
189.894
147.316
129.203
131.436
152.799
187.636
212.547
220.971
222.283
214.811
4.0929
3.14975
2.95227
2.83611
2.75455
2.73877
2.81345
4.84006
23.4445
68.9982
128.84
193.014
258.522
332.808
415.285
440.003
440.742
460.441
466.458
464.874
454.91
436.731
410.23
375.323
332.051
281.323
226.478
175.041
138.632
126.99
133.726
160.176
190.25
201.712
201.875
197.172
4.11442
3.17187
2.97454
2.85924
2.77848
2.76401
2.83986
4.84256
23.1966
68.4983
128.3
192.771
259.179
336.579
418.787
440.637
448.524
470.661
479.141
480.363
473.412
458.594
435.882
405.298
366.84
320.691
267.981
212.49
162.776
132.51
125.76
136.73
165.534
187.209
186.693
183.669
4.13592
3.19386
2.99682
2.88236
2.80259
2.78928
2.86637
4.84896
22.9899
68.0899
127.91
192.745
260.243
341.024
421.871
442.477
457.065
481.263
492.264
496.213
492.192
480.6
461.441
434.781
400.699
359.352
311.134
257.319
201.738
153.319
127.269
124.099
139.477
169.027
179.067
174.91
4.1577
3.2159
3.01908
2.90547
2.82672
2.81459
2.8931
4.85904
22.8223
67.7703
127.666
192.931
261.739
345.948
424.793
445.495
466.157
492.198
505.694
512.26
511.071
502.572
486.809
463.833
433.703
396.585
352.854
303.186
248.998
193.924
146.5
122.331
121.088
141.89
172.976
172.508
4.17475
3.23468
3.03894
2.92607
2.84835
2.83718
2.91454
4.86961
22.6993
67.5461
127.55
193.24
263.391
350.54
427.326
448.983
474.543
502.122
517.801
526.619
527.86
521.976
509.089
489.255
462.491
428.866
388.66
342.509
291.498
237.425
183.833
138.447
116.274
117.766
144.425
172.299
4.19161
3.25166
3.0564
2.94419
2.86795
2.85707
2.93549
4.88143
22.6127
67.3993
127.532
193.633
265.114
354.667
429.675
452.681
482.093
510.969
528.518
539.238
542.514
538.795
528.258
510.999
487.046
456.409
419.207
375.861
327.306
275.164
221.884
171.312
130.352
111.344
117.423
152.499
4.20827
3.26858
3.07385
2.96229
2.88718
2.87698
2.95648
4.89478
22.5435
67.2938
127.584
194.127
267.064
358.785
432.161
456.865
489.743
519.883
539.256
551.815
557.048
555.389
547.04
532.153
510.795
482.977
448.731
408.282
362.261
311.929
259.322
207.42
160.411
124.175
106.059
102.761
102.665
102.141
102.165
102.355
110.763
104.276
101.886
101.312
128.869
111.457
103.107
101.134
151.623
123.208
105.921
101.034
174.888
137.118
110.427
100.957
196.605
151.011
115.751
100.892
216.119
164.11
121.25
100.835
233.296
175.935
126.582
100.783
248.321
186.392
131.555
100.734
261.45
195.552
136.092
100.688
272.946
203.549
140.181
100.644
283.045
210.533
143.841
100.602
291.947
216.645
147.11
100.561
299.82
222.009
150.026
100.521
306.803
226.731
152.629
100.482
313.01
230.899
154.953
100.444
318.537
234.585
157.029
100.406
323.46
237.849
158.883
100.368
327.846
240.74
160.539
100.331
331.748
243.301
162.014
100.295
335.212
245.564
163.324
100.258
338.275
247.557
164.483
100.222
340.965
249.3
165.5
100.187
343.3
250.806
166.38
100.152
345.289
252.085
167.128
100.117
346.935
253.138
167.742
100.082
348.231
253.963
168.222
100.048
349.168
254.557
168.564
100.013
349.731
254.91
168.762
99.9776
349.9
255.011
168.809
99.9421
349.657
254.848
168.709
99.9053
348.978
254.4
168.478
99.8377
347.834
253.649
168.101
99.7381
346.19
252.574
167.567
99.6029
344.008
251.149
166.865
99.4302
341.241
249.347
165.983
99.2167
337.838
247.136
164.905
98.9589
333.741
244.482
163.615
98.6529
328.888
241.347
162.095
98.2944
323.211
237.69
160.325
97.8787
316.642
233.472
158.286
97.4008
309.114
228.655
155.957
96.8549
300.558
223.202
153.317
96.2334
290.903
217.074
150.345
95.5242
280.084
210.237
147.025
94.725
268.049
202.668
143.339
93.8286
254.766
194.354
139.273
92.8265
240.214
185.269
134.797
91.7063
224.367
175.369
129.874
90.4519
207.21
164.608
124.466
89.0426
188.776
152.947
118.52
87.4399
169.161
140.351
111.948
85.5604
148.51
126.801
104.651
83.2716
127.051
112.318
96.5434
80.4726
105.121
96.9816
87.5995
77.3485
83.1917
80.9056
77.8261
74.1403
61.8772
64.2086
67.0258
70.3427
42.5172
47.6882
55.0621
65.9169
26.2137
32.2055
41.548
59.1476
13.3962
18.4688
26.9488
53.1873
4.22949
3.28859
3.0937
2.98288
2.90797
2.89963
2.98285
4.91313
22.4856
67.2242
127.73
194.822
269.565
363.512
435.22
462.182
498.539
530.099
551.481
566.054
573.414
573.97
567.917
555.476
536.769
511.848
480.717
443.473
400.524
352.755
301.649
249.467
199.473
156
123.79
107.095
4.25097
3.31038
3.11595
3.00596
2.9319
2.92504
3.00993
4.93431
22.4407
67.1975
127.976
195.738
272.649
368.809
438.824
468.634
508.417
541.55
565.112
581.88
591.551
594.47
590.798
580.814
564.721
542.656
514.655
480.749
441.156
396.445
347.692
296.581
245.502
197.614
156.674
126.754
4.27238
3.33206
3.13819
3.02903
2.956
2.95047
3.03695
4.95687
22.4135
67.2173
128.296
196.785
275.981
374.054
442.608
475.477
518.248
552.945
578.622
597.541
609.469
614.653
613.192
605.353
591.436
571.702
546.309
515.326
478.832
437.097
390.845
341.399
290.647
240.917
195.022
156.581
4.29376
3.35372
3.16042
3.0521
2.98013
2.97591
3.06401
4.98051
22.4002
67.2755
128.676
197.948
279.51
379.201
446.566
482.591
527.973
564.227
591.976
613.049
627.254
634.69
635.334
629.397
617.26
599.324
575.939
547.31
513.474
474.456
430.594
382.798
332.607
281.985
233.179
188.852
4.31512
3.37536
3.18266
3.07518
3.00427
3.00137
3.09109
5.00484
22.3968
67.3622
129.103
199.211
283.177
384.213
450.681
489.861
537.534
575.342
605.148
628.425
644.976
654.701
657.41
653.214
642.533
625.905
603.906
576.947
545.14
508.397
466.709
420.505
370.875
319.483
268.308
219.431
4.33648
3.39701
3.20489
3.09825
3.02843
3.02683
3.11818
5.02941
22.3989
67.4671
129.559
200.551
286.922
389.061
454.92
497.179
546.875
586.243
618.119
643.686
662.694
674.805
679.616
677.09
667.633
651.906
630.708
604.696
574.172
539.07
499.151
454.38
405.303
353.185
299.805
247.031
4.35785
3.41866
3.22713
3.12134
3.05259
3.0523
3.14526
5.05384
22.4022
67.5797
130.031
201.943
290.682
393.721
459.24
504.446
555.945
596.884
630.866
658.838
680.455
695.104
702.124
701.279
692.905
677.759
656.837
631.078
601.06
566.863
528.157
484.533
435.971
383.209
327.754
271.464
4.37923
3.44031
3.24939
3.14444
3.07677
3.07778
3.17232
5.07769
22.4023
67.6888
130.501
203.358
294.396
398.168
463.589
511.573
564.696
607.224
643.37
673.884
698.294
715.683
725.077
725.988
718.628
703.816
682.72
656.586
626.325
592.267
554.128
511.25
463.094
409.795
352.465
292.954
4.40063
3.46199
3.27166
3.16756
3.10096
3.10326
3.19934
5.10051
22.3946
67.7832