/*--------------------------------*- C++ -*----------------------------------*\
| =========                 |                                                 |
| \\      /  F ield         | OpenFOAM: The Open Source CFD Toolbox           |
|  \\    /   O peration     | Version:  v2012                                 |
|   \\  /    A nd           | Website:  www.openfoam.com                      |
|    \\/     M anipulation  |                                                 |
\*---------------------------------------------------------------------------*/
FoamFile
{
    version     2.0;
    format      ascii;
    class       volScalarField;
    location    "626";
    object      k;
}
// * * * * * * * * * * * * * * * * * * * * * * * * * * * * * * * * * * * * * //

dimensions      [0 2 -2 0 0 0 0];


internalField   nonuniform List<scalar> 
6108
(
0.0477247
0.0515758
0.0559438
0.0609318
0.066671
0.0733313
0.0811356
0.0903831
0.101483
0.115011
0.131795
0.153072
0.180757
0.217947
0.269928
0.346308
0.465942
0.669476
1.05526
1.89819
0.117564
0.127269
0.13824
0.150716
0.164999
0.181473
0.20063
0.223115
0.249786
0.281809
0.320795
0.369031
0.429846
0.508224
0.611882
0.753173
0.952597
1.24529
1.69241
2.39566
0.156544
0.169448
0.184016
0.200556
0.219448
0.241172
0.266335
0.295722
0.330354
0.371592
0.421268
0.481905
0.557042
0.651758
0.773501
0.933452
1.14878
1.4464
1.86931
2.48775
0.179284
0.194044
0.210695
0.229576
0.251107
0.275811
0.304342
0.337535
0.376463
0.422525
0.477573
0.544094
0.625495
0.726531
0.853988
1.01781
1.23298
1.52299
1.92647
2.51198
0.190058
0.205688
0.223314
0.243289
0.266047
0.292127
0.3222
0.357113
0.397947
0.446095
0.503381
0.572222
0.655882
0.758866
0.887545
1.05123
1.26411
1.54896
1.94469
2.52265
0.190098
0.205718
0.223336
0.243305
0.26606
0.292136
0.322207
0.357118
0.39795
0.446098
0.503383
0.572223
0.655883
0.758867
0.887545
1.05123
1.26411
1.54896
1.94469
2.52265
0.179397
0.194128
0.210757
0.229622
0.251141
0.275835
0.304359
0.337547
0.376472
0.422532
0.477578
0.544098
0.625498
0.726532
0.85399
1.01781
1.23298
1.52299
1.92647
2.51198
0.15671
0.169572
0.184107
0.200621
0.219495
0.241206
0.26636
0.295739
0.330367
0.371601
0.421275
0.481909
0.557046
0.651761
0.773503
0.933453
1.14878
1.4464
1.86931
2.48775
0.11773
0.127404
0.138335
0.150785
0.16505
0.181509
0.200656
0.223134
0.2498
0.281819
0.320803
0.369037
0.42985
0.508227
0.611884
0.753174
0.952598
1.24529
1.69241
2.39566
0.0477826
0.0516171
0.0559737
0.0609538
0.0666872
0.0733431
0.0811443
0.0903895
0.101488
0.115014
0.131797
0.153074
0.180758
0.217948
0.269928
0.346308
0.465943
0.669476
1.05526
1.89819
0.0360652
0.0385276
0.0412606
0.0443083
0.0880098
0.0942708
0.101208
0.10893
0.117206
0.125541
0.134777
0.145055
0.134256
0.143797
0.15437
0.166136
0.142372
0.152474
0.163672
0.176133
0.142474
0.152559
0.16374
0.176185
0.134543
0.144042
0.154567
0.166287
0.117614
0.125913
0.135073
0.145279
0.0889296
0.0948479
0.101586
0.109193
0.0426626
0.042282
0.0429562
0.0446886
0.000963589
0.000854486
0.0008796
0.00114262
0.00216043
0.00313886
0.00407081
0.00494919
0.00575945
0.00653739
0.00729648
0.00804451
0.00878672
0.00952701
0.0102686
0.0110142
0.0117667
0.0125288
0.0133035
0.014094
0.014904
0.0157375
0.0165991
0.017494
0.0184279
0.0194073
0.0204394
0.0215324
0.0226953
0.0239382
0.0252727
0.0267115
0.0282693
0.0299628
0.0318112
0.0338366
0.00170462
0.00213753
0.00364187
0.0054533
0.00688286
0.00811763
0.00944751
0.0110151
0.0126829
0.014326
0.0159689
0.0176215
0.0192905
0.0209823
0.0227032
0.0244593
0.0262567
0.0281012
0.029999
0.0319566
0.0339808
0.0360799
0.038263
0.0405412
0.0429266
0.0454338
0.0480791
0.0508816
0.0538631
0.0570483
0.0604657
0.0641477
0.0681305
0.0724561
0.0771726
0.0823357
0.0026111
0.00503569
0.0068136
0.00856574
0.0101056
0.0118255
0.0139597
0.0163701
0.0187804
0.0211116
0.0233783
0.0255929
0.0277746
0.0299433
0.0321185
0.0343185
0.03656
0.0388581
0.0412268
0.0436789
0.0462273
0.0488848
0.0516651
0.0545833
0.0576562
0.0609031
0.0643456
0.0680089
0.0719211
0.0761147
0.0806263
0.0854978
0.0907772
0.0965194
0.102788
0.109655
0.00389131
0.00760401
0.00946799
0.0111868
0.0130572
0.0154334
0.0182852
0.0212822
0.0241685
0.0268957
0.0294737
0.0319295
0.0342997
0.0366219
0.038931
0.0412582
0.0436306
0.0460715
0.0486008
0.051236
0.0539933
0.0568883
0.0599371
0.0631569
0.0665671
0.0701893
0.0740481
0.0781716
0.0825916
0.0873442
0.0924704
0.0980174
0.104039
0.110596
0.117761
0.125616
0.00530809
0.0100142
0.0118483
0.0136908
0.0160121
0.0189825
0.0223314
0.0256702
0.0287977
0.031682
0.0343413
0.0368193
0.0391693
0.0414438
0.043691
0.0459522
0.0482625
0.0506504
0.0531399
0.055751
0.0585016
0.0614088
0.0644898
0.0677637
0.071251
0.0749755
0.0789635
0.0832451
0.087854
0.0928284
0.0982113
0.104051
0.110404
0.117333
0.124911
0.133224
0.00645287
0.0121294
0.014096
0.016194
0.0189704
0.0223819
0.0260096
0.0294886
0.0326659
0.0355232
0.0380926
0.0404331
0.0426114
0.044692
0.0467327
0.0487823
0.0508805
0.0530592
0.0553433
0.0577532
0.0603069
0.0630212
0.0659141
0.0690053
0.0723171
0.0758752
0.0797085
0.0838495
0.0883342
0.0932028
0.0984993
0.104273
0.110578
0.117475
0.125036
0.133338
0.00735943
0.0140268
0.0162546
0.0186841
0.0218444
0.0255283
0.0292545
0.0327122
0.035787
0.0384751
0.0408235
0.0429039
0.0447942
0.0465687
0.0482921
0.0500184
0.0517892
0.0536357
0.0555804
0.0576399
0.0598279
0.0621575
0.064644
0.0673059
0.0701663
0.0732531
0.0765993
0.0802425
0.0842248
0.0885925
0.0933949
0.0986845
0.104517
0.110953
0.11806
0.125915
0.00814921
0.0157151
0.0183158
0.0210988
0.0245441
0.0283467
0.0320306
0.0353388
0.0381909
0.0405995
0.0426258
0.044354
0.0458734
0.0472675
0.0486088
0.0499544
0.0513459
0.0528094
0.054359
0.0559998
0.0577321
0.059556
0.0614745
0.0634961
0.0656371
0.0679223
0.0703857
0.0730702
0.0760276
0.079323
0.0830266
0.0872095
0.0919393
0.0972841
0.10331
0.110082
0.00883012
0.0172249
0.0202596
0.0233742
0.0269994
0.0307972
0.0343267
0.0373847
0.0399197
0.041965
0.0435974
0.0449167
0.0460272
0.047027
0.0479994
0.0490076
0.0500923
0.0512721
0.0525458
0.0538975
0.0553024
0.0567321
0.0581598
0.0595636
0.0609293
0.0622525
0.0635399
0.0648114
0.0661018
0.0674642
0.0690021
0.0708661
0.0731771
0.0760653
0.0796117
0.0838535
0.0094105
0.0185868
0.0220669
0.0254615
0.0291684
0.0328611
0.0361505
0.0388779
0.0410248
0.0426488
0.0438484
0.0447457
0.0454687
0.0461375
0.0468525
0.0476861
0.0486777
0.049834
0.0511335
0.052534
0.0539811
0.0554156
0.0567784
0.0580126
0.0590629
0.0598728
0.0603815
0.0605196
0.0602069
0.0593529
0.0578669
0.0556528
0.0525966
0.0493487
0.0464203
0.0441086
0.0329869
0.0239569
0.0157059
0.00843256
0.0100944
0.00595001
0.00337253
0.00139811
0.00503939
0.00364386
0.00249577
0.00103945
0.00425483
0.00340572
0.0024337
0.000968375
0.00422268
0.00347349
0.00249659
0.000971273
0.00435781
0.00361192
0.00261344
0.00100709
0.00454839
0.00378829
0.0027527
0.00106701
0.00476855
0.00399028
0.00291442
0.00113635
0.0050085
0.00421122
0.00309429
0.00121377
0.0052634
0.0044472
0.0032887
0.00129966
0.00553048
0.00469588
0.00349531
0.00139593
0.00580793
0.00495586
0.00371505
0.00150427
0.00609652
0.00523006
0.00394805
0.00161953
0.00639607
0.00551566
0.00419161
0.00174113
0.00670375
0.00581087
0.00444451
0.00186818
0.00701717
0.00611409
0.00470567
0.00200012
0.00733366
0.00642336
0.00497371
0.00213633
0.00764997
0.00673609
0.00524671
0.00227583
0.00796202
0.00704877
0.00552189
0.00241721
0.00826486
0.00735687
0.00579538
0.00255831
0.00855259
0.0076548
0.00606219
0.00269569
0.00881839
0.00793615
0.00631651
0.0028235
0.00905402
0.00819353
0.00655197
0.00293334
0.00924998
0.0084175
0.00675813
0.00302545
0.00939208
0.00859606
0.00693003
0.00311072
0.00947739
0.00872911
0.00706913
0.00319305
0.00949817
0.00880595
0.00716361
0.0032519
0.00944625
0.00881408
0.00720028
0.00329413
0.00932102
0.00874658
0.00718537
0.00331479
0.00912369
0.00861072
0.00711563
0.00330365
0.00886731
0.00841504
0.00699657
0.00326483
0.0085655
0.00816848
0.00683353
0.00320317
0.00822606
0.0078806
0.00663049
0.00312085
0.00786787
0.00756239
0.00639248
0.00301959
0.00750497
0.00722865
0.00613203
0.00290334
0.00714298
0.00688997
0.00585857
0.00277572
0.00679675
0.00655856
0.00558137
0.00264052
0.0064753
0.00624274
0.00530801
0.00250129
0.00618261
0.00594733
0.00504374
0.00236104
0.00591831
0.00567364
0.00479131
0.00222182
0.0056791
0.00542041
0.00455143
0.00208538
0.0054596
0.00518427
0.00432325
0.0019528
0.00525202
0.0049593
0.00410287
0.00182748
0.00504833
0.00473905
0.00388595
0.00171406
0.00484481
0.00452073
0.00367096
0.00160909
0.00463779
0.00430146
0.00345712
0.00151023
0.00442359
0.00407817
0.00324292
0.00141584
0.00419855
0.00384778
0.0030269
0.00132468
0.003959
0.00360718
0.00280758
0.00123576
0.00370126
0.0033533
0.00258352
0.00114825
0.00342186
0.00308335
0.00235366
0.00106141
0.00311804
0.00279543
0.00211771
0.000974543
0.00278892
0.00248955
0.00187685
0.000886993
0.00243728
0.00216928
0.00163445
0.0007981
0.00207171
0.0018433
0.00139637
0.000707098
0.00170825
0.00152578
0.00117022
0.000612883
0.00136944
0.00123509
0.000964703
0.000513738
0.00107985
0.000991955
0.000790281
0.000405948
0.000842875
0.000791805
0.000630959
0.000286149
0.000478455
0.000437892
0.000344246
0.000139055
0.00993643
0.0198705
0.0237944
0.0274061
0.0311076
0.0346031
0.0375695
0.0398911
0.0415832
0.0427363
0.0434819
0.0439737
0.0443723
0.044825
0.0454478
0.0463125
0.0474421
0.0488137
0.0503704
0.0520355
0.0537272
0.0553693
0.0568973
0.0582597
0.0594167
0.0603357
0.0609878
0.061343
0.0613524
0.060921
0.059991
0.0584605
0.0561656
0.052873
0.0481576
0.0416867
0.0103906
0.0209889
0.025313
0.0290663
0.0326833
0.0359173
0.0385092
0.0403859
0.0416001
0.0422813
0.0426024
0.042757
0.0429371
0.0433051
0.0439683
0.0449636
0.0462584
0.0477653
0.0493658
0.0509345
0.052358
0.0535448
0.0544265
0.0549527
0.0550857
0.0547882
0.0540116
0.052707
0.05077
0.0479992
0.0444824
0.0402065
0.0351627
0.0294436
0.0232942
0.0162058
0.010782
0.0219309
0.0266062
0.0304264
0.0338909
0.0368176
0.039002
0.0404162
0.0411557
0.0413947
0.0413494
0.04125
0.0413033
0.0416541
0.042356
0.0433652
0.0445582
0.0457671
0.0468174
0.0475582
0.047877
0.0477032
0.0470006
0.0457477
0.043933
0.041547
0.03851
0.0350258
0.0313019
0.0276153
0.0238432
0.0200128
0.0162309
0.012522
0.00939029
0.00686326
0.0111017
0.0226857
0.0276663
0.031478
0.0347483
0.0373363
0.0390971
0.0400507
0.0403401
0.0401868
0.0398466
0.0395675
0.0395392
0.0398448
0.0404425
0.0411838
0.0418591
0.0422536
0.042191
0.0415574
0.0403079
0.0384452
0.0360085
0.0330553
0.0296403
0.0261098
0.0228985
0.0199405
0.017196
0.0147094
0.0124553
0.0104268
0.00872444
0.00729728
0.00610593
0.00511007
0.0113568
0.0232696
0.0284837
0.0322367
0.0352819
0.0375143
0.0388523
0.039366
0.0392489
0.0387681
0.0382057
0.0377993
0.037681
0.0378371
0.0381154
0.0382802
0.0380859
0.0373393
0.0359388
0.0338754
0.0312191
0.0280942
0.0246654
0.0211625
0.0182176
0.0158025
0.0138089
0.0121477
0.0107496
0.00956568
0.00854838
0.00766499
0.00689119
0.00619235
0.00553003
0.00488253
0.0115515
0.0236887
0.0290596
0.0327274
0.0355253
0.0373998
0.0383317
0.0384436
0.0379801
0.0372453
0.0365262
0.0360182
0.0357628
0.0356356
0.0353948
0.0347708
0.0335529
0.0316475
0.0290848
0.026002
0.022616
0.0192092
0.0161263
0.0138972
0.0122477
0.0110137
0.0100618
0.00929669
0.00865338
0.00808407
0.00755903
0.00705591
0.00655943
0.00605823
0.0055391
0.00498111
0.0116898
0.0239573
0.0294213
0.032978
0.0355182
0.0370457
0.037603
0.0373664
0.0366279
0.0357146
0.0348932
0.0342871
0.0338322
0.0333059
0.0324236
0.0309494
0.0287799
0.0259717
0.0227155
0.0193145
0.0161313
0.0135053
0.011771
0.0106332
0.00985497
0.0092907
0.0088465
0.00846483
0.00810974
0.00775744
0.00739768
0.00702135
0.00661939
0.00618307
0.00570414
0.00516818
0.0117763
0.024091
0.0295943
0.0330204
0.0353034
0.0365068
0.0367334
0.0362126
0.0352763
0.0342567
0.0333748
0.032662
0.0319511
0.0309566
0.0294081
0.0271673
0.0242877
0.0209931
0.0176402
0.0146386
0.012314
0.0108395
0.00996517
0.0094247
0.00905845
0.00877995
0.00853754
0.00830442
0.0080616
0.00779683
0.00750178
0.00717192
0.00680309
0.00639004
0.00592502
0.00539381
0.0118157
0.024106
0.0296046
0.0328884
0.0349244
0.0358364
0.0357857
0.0350516
0.0339952
0.032934
0.0320219
0.0311905
0.0301876
0.0287093
0.026555
0.0237319
0.0204649
0.017136
0.014192
0.0119717
0.010557
0.0097756
0.00933437
0.00906344
0.00887679
0.00872191
0.00856874
0.00839913
0.00820193
0.00797057
0.00770109
0.00739076
0.00703652
0.00663358
0.00617375
0.00564187
0.0118129
0.0240187
0.029478
0.0326151
0.0344226
0.0350833
0.0348145
0.0339403
0.0328371
0.0317894
0.0308692
0.0299107
0.0286042
0.0266719
0.0240286
0.0208498
0.0175147
0.014499
0.0121898
0.0106991
0.00987456
0.00943849
0.00920422
0.00906507
0.00896238
0.00886277
0.00874635
0.00860135
0.00842127
0.00820259
0.00794328
0.00764151
0.00729438
0.00689666
0.00643916
0.00590524
0.0117729
0.023845
0.0292393
0.032232
0.0338358
0.0342901
0.0338649
0.0329212
0.0318374
0.0308485
0.0299364
0.0288487
0.0272481
0.0249224
0.0219318
0.0186134
0.0154525
0.0129108
0.0111974
0.0102096
0.00970014
0.00944622
0.00931833
0.00924245
0.00917812
0.00910122
0.00899732
0.00885863
0.00868149
0.00846451
0.00820715
0.00790829
0.00756492
0.0071709
0.00671552
0.0061801
0.0117006
0.0236
0.0289115
0.0317675
0.0331966
0.0334916
0.0329705
0.0320229
0.0310155
0.0301207
0.0292288
0.0280144
0.0261443
0.0235009
0.0203008
0.0170124
0.0141556
0.0120833
0.0108136
0.0101271
0.00979199
0.00963642
0.00956287
0.00951769
0.00946912
0.00939774
0.00929272
0.00914905
0.00896545
0.00874268
0.00848179
0.00818247
0.00784143
0.0074513
0.00699928
0.00646396
0.0116007
0.0232978
0.0285153
0.0312466
0.032532
0.0327146
0.0321549
0.0312614
0.0303765
0.0296016
0.0287352
0.0273975
0.025288
0.0224066
0.0191158
0.0159669
0.013444
0.0117533
0.0107762
0.0102726
0.0100372
0.00993492
0.00988985
0.00985795
0.00981161
0.00973462
0.00961874
0.00946141
0.00926387
0.00902929
0.00876062
0.00845852
0.00811939
0.0077342
0.00728765
0.00675481
0.0114777
0.0229507
0.0280688
0.0306899
0.0318635
0.0319785
0.0314317
0.0306414
0.0299147
0.0292735
0.0284278
0.0269492
0.0246336
0.0216026
0.0183225
0.0153675
0.0131486
0.0117397
0.0109485
0.0105566
0.010381
0.010309
0.0102777
0.0102476
0.0101938
0.0101025
0.00996763
0.00978912
0.009571
0.00931922
0.00903904
0.00873234
0.00839515
0.00801642
0.00757934
0.0070546
0.0113358
0.0225697
0.0275873
0.0301143
0.0312071
0.0312959
0.0308073
0.0301598
0.0296149
0.0291058
0.0282349
0.026618
0.0241288
0.0210351
0.0178464
0.015107
0.0131412
0.01193
0.0112632
0.0109392
0.0107989
0.0107434
0.0107155
0.0106783
0.0106092
0.0104959
0.0103345
0.0101278
0.00988274
0.00960861
0.00931336
0.0090004
0.00866539
0.00829791
0.00787412
0.00735992
0.0111787
0.0221642
0.0270835
0.0295332
0.0305745
0.0306741
0.0302818
0.029807
0.0294539
0.0290439
0.0281351
0.0263956
0.0237758
0.0206568
0.0176111
0.0150952
0.0133354
0.0122621
0.0116793
0.0113997
0.0112796
0.0112302
0.0111971
0.0111454
0.0110536
0.0109109
0.0107158
0.0104738
0.0101956
0.00989404
0.00958018
0.00925997
0.00893038
0.00857539
0.00816764
0.00766756
0.0110097
0.021742
0.0265675
0.0289565
0.0299732
0.030116
0.0298508
0.0295683
0.0294042
0.0290566
0.0281162
0.0262744
0.0235625
0.0204536
0.0175646
0.0152621
0.0136742
0.0127031
0.0121772
0.0119263
0.0118162
0.0117645
0.0117191
0.0116457
0.0115238
0.0113442
0.011108
0.0108238
0.0105061
0.010172
0.00983788
0.00951055
0.00918522
0.00884412
0.00845568
0.00797402
0.0108318
0.0213097
0.0260476
0.0283917
0.0294078
0.0296212
0.0295063
0.0294251
0.0294273
0.0291337
0.0281694
0.0262468
0.0234758
0.020408
0.0176644
0.015558
0.0141167
0.0132311
0.0127462
0.0125127
0.0124046
0.0123436
0.0122787
0.0121763
0.0120167
0.0117926
0.0115075
0.011174
0.0108103
0.0104419
0.0100846
0.0097469
0.00942494
0.00909922
0.00873367
0.00827536
0.0106476
0.0208725
0.0255297
0.0278438
0.0288805
0.029187
0.0292382
0.0293581
0.0294966
0.0292643
0.0282862
0.0263037
0.0235025
0.0204964
0.0178917
0.0159577
0.0146404
0.0138277
0.0133769
0.0131541
0.0130418
0.012965
0.0128736
0.0127344
0.012529
0.0122519
0.0119098
0.0115198
0.0111084
0.0107
0.0103146
0.00996372
0.00964428
0.00933545
0.00899657
0.00856691
0.0104592
0.0204346
0.0250185
0.0273161
0.0283915
0.0288087
0.0290355
0.0293509
0.0296061
0.02944
0.0284588
0.0264366
0.0236306
0.0207009
0.0182296
0.0164422
0.0152336
0.0144847
0.014064
0.0138472
0.0137251
0.0136259
0.0135004
0.0133162
0.013056
0.012717
0.012311
0.011861
0.0113945
0.0109401
0.0105223
0.0101553
0.00983765
0.00954719
0.00923876
0.00884329
0.0102685
0.0199993
0.0245173
0.0268103
0.0279396
0.0284805
0.0288871
0.0293883
0.0297491
0.0296535
0.0286797
0.0266373
0.02385
0.0210077
0.0186643
0.0169975
0.0158897
0.0151991
0.0148047
0.0145891
0.0144516
0.0143231
0.0141553
0.0139169
0.0135921
0.0131844
0.0127087
0.0121904
0.0116614
0.0111554
0.010701
0.0103156
0.00999907
0.00972843
0.00945413
0.00909843
0.010077
0.019569
0.0240284
0.0263274
0.0275228
0.028196
0.0287804
0.0294474
0.0299188
0.0298981
0.0289422
0.0268989
0.0241516
0.0214056
0.0191836
0.0176218
0.0166032
0.0159666
0.0155955
0.0153762
0.0152174
0.0150521
0.014833
0.0145301
0.0141343
0.0136498
0.0130951
0.0124999
0.0119014
0.0113383
0.0108436
0.0104379
0.0101222
0.00987286
0.00963613
0.00932552
0.00988607
0.0191457
0.0235532
0.0258674
0.0271386
0.0279488
0.0287056
0.029522
0.0301092
0.030168
0.029241
0.0272156
0.0245278
0.021885
0.0197773
0.0183132
0.0173727
0.0167838
0.016431
0.0162042
0.0160177
0.0158071
0.015527
0.0151528
0.014676
0.0141045
0.013461
0.0127804
0.0121053
0.0114801
0.0109423
0.0105149
0.0102003
0.00997375
0.00977751
0.00951665
0.00969663
0.0187307
0.0230928
0.0254297
0.026784
0.0277332
0.028655
0.0296091
0.0303155
0.0304584
0.0295712
0.0275823
0.0249718
0.0224383
0.0204378
0.0190673
0.0181973
0.0176482
0.0173084
0.0170683
0.0168466
0.0165822
0.0162332
0.0157768
0.015208
0.0145386
0.0137962
0.0130214
0.0122631
0.0115714
0.0109882
0.0105388
0.0102259
0.0100231
0.00986929
0.0096625
0.00950954
0.0183252
0.0226474
0.0250135
0.0264561
0.0275438
0.0286227
0.0297058
0.0305335
0.0307648
0.0299288
0.0279943
0.025478
0.0230601
0.0211641
0.0198797
0.0190736
0.018557
0.0182237
0.017963
0.0176986
0.0173717
0.0169429
0.0163928
0.0157199
0.0149409
0.0140891
0.0132114
0.0123636
0.0116019
0.0109721
0.0105008
0.0101898
0.0100104
0.00989789
0.00974828
0.00932547
0.0179297
0.0222174
0.0246178
0.026152
0.0273759
0.0286039
0.0298094
0.0307596
0.0310836
0.0303102
0.0284473
0.0260391
0.023743
0.0219547
0.0207503
0.0199987
0.0195067
0.0191717
0.0188835
0.0185671
0.0181668
0.0176463
0.0169896
0.0162
0.0152992
0.0143271
0.013338
0.0123952
0.0115611
0.0108847
0.0103925
0.0100834
0.00992342
0.00985221
0.0097675
0.00914482
0.0175449
0.0218024
0.0242412
0.0258689
0.0272256
0.0285948
0.0299179
0.030991
0.0314117
0.0307126
0.0289375
0.0266494
0.0244826
0.022803
0.0216737
0.0209682
0.0204925
0.0201488
0.0198228
0.0194433
0.0189575
0.0183322
0.0175554
0.0166352
0.0155999
0.0144966
0.0133883
0.0123464
0.0114392
0.0107182
0.0102074
0.00990139
0.00975798
0.00973068
0.00971342
0.00896792
0.0171706
0.0214023
0.0238825
0.0256043
0.0270895
0.0285924
0.0300293
0.0312253
0.0317466
0.0311333
0.0294615
0.0273051
0.0252738
0.0237036
0.0226445
0.0219774
0.0215113
0.0211476
0.0207722
0.0203172
0.0197327
0.0189884
0.0180768
0.0170118
0.0158288
0.0145838
0.0133495
0.0122063
0.0112284
0.0104673
0.00994348
0.0096406
0.00951817
0.00953764
0.00958739
0.00879524
0.0168068
0.0210166
0.0235406
0.025356
0.0269649
0.0285946
0.0301422
0.0314605
0.0320862
0.0315698
0.0300162
0.028003
0.0261126
0.0246513
0.0236598
0.0230226
0.0225558
0.0221599
0.0217221
0.021178
0.0204803
0.0196017
0.0185399
0.017315
0.0159712
0.0145748
0.0132099
0.0119665
0.0109237
0.0101312
0.00960287
0.00930824
0.00921347
0.00928165
0.00939518
0.00862701
0.0164537
0.0206446
0.0232143
0.0251223
0.02685
0.0286008
0.0302558
0.031694
0.0324257
0.0320171
0.0305978
0.0287401
0.0269965
0.025646
0.0247156
0.0240966
0.0236188
0.0231764
0.0226619
0.0220138
0.0211872
0.0201584
0.01893
0.0175301
0.0160127
0.0144569
0.0129598
0.0116219
0.0105252
0.00971465
0.00919388
0.00891675
0.00885613
0.0089734
0.00914469
0.00846328
0.0161113
0.020286
0.0229029
0.0249029
0.0267446
0.0286085
0.030368
0.0319238
0.0327644
0.0324743
0.0312034
0.0295125
0.0279214
0.0266796
0.0258028
0.0251922
0.0246942
0.0241865
0.0235795
0.0228118
0.0218401
0.020644
0.0192325
0.0176424
0.0159399
0.0142193
0.0125931
0.0111724
0.0100392
0.00922872
0.00873046
0.00848138
0.00846036
0.00862518
0.0088458
0.00830411
0.0157796
0.019941
0.0226067
0.0246955
0.0266457
0.0286167
0.0304782
0.0321495
0.0331025
0.0329412
0.0318311
0.0303162
0.0288806
0.0277434
0.0269114
0.0262966
0.0257601
0.0251761
0.0244619
0.0235585
0.0224248
0.0210443
0.0194329
0.0176382
0.0157411
0.0138543
0.0121086
0.0106244
0.00947879
0.00869107
0.00822964
0.00801908
0.00804149
0.00824965
0.0085061
0.00814956
0.0154599
0.0196092
0.0223232
0.0244986
0.0265518
0.0286237
0.0305863
0.032371
0.0334402
0.0334173
0.032479
0.0311471
0.0298672
0.0288286
0.0280312
0.0273987
0.0268076
0.0261328
0.0252959
0.0242405
0.0229276
0.0213453
0.0195177
0.0175052
0.0154073
0.0133589
0.0115113
0.00999212
0.00886506
0.00812441
0.00771194
0.00754822
0.00761512
0.00785928
0.00812974
0.00800127
0.0151506
0.0192893
0.0220518
0.0243111
0.0264621
0.0286293
0.0306918
0.0325885
0.0337778
0.0339024
0.0331449
0.0320007
0.0308743
0.0299261
0.0291514
0.0284869
0.0278253
0.027044
0.0260686
0.0248445
0.0233352
0.0215338
0.0194746
0.0172339
0.0149336
0.0127359
0.0108145
0.00929797
0.00822893
0.00755488
0.00719953
0.00708629
0.00719559
0.00746852
0.0077526
0.00785881
0.0148514
0.0189811
0.0217918
0.0241321
0.0263758
0.0286337
0.0307949
0.0328025
0.034116
0.0343961
0.0338268
0.0328721
0.0318942
0.031026
0.0302609
0.029549
0.0288005
0.0278969
0.0267669
0.0253576
0.0236348
0.021598
0.0192938
0.016818
0.0143204
0.0119959
0.0100394
0.00857289
0.00758433
0.00700078
0.00670865
0.0066466
0.00679364
0.00708521
0.00737787
0.00772175
0.0145621
0.0186841
0.0215424
0.023961
0.0262927
0.0286373
0.0308956
0.0330135
0.0344551
0.0348979
0.0345222
0.0337564
0.0329192
0.0321183
0.0313476
0.0305722
0.0297203
0.0286788
0.0273784
0.0257677
0.0238152
0.021528
0.0189683
0.0162561
0.0135754
0.0111582
0.00921485
0.00783724
0.00696983
0.0064843
0.00625237
0.00623825
0.00641678
0.0067105
0.00701308
0.00758973
0.0142826
0.018398
0.0213033
0.0237971
0.0262125
0.0286405
0.0309943
0.0332221
0.0347959
0.0354075
0.0352284
0.0346481
0.0339409
0.0331921
0.0323995
0.0315437
0.0305715
0.029377
0.0278912
0.0260638
0.0238664
0.0213163
0.0184954
0.0155531
0.0127148
0.0102521
0.00838219
0.00714308
0.00640911
0.00601033
0.00583472
0.00586571
0.00607367
0.00637729
0.00667563
0.00746245
0.0140125
0.0181224
0.0210738
0.02364
0.0261353
0.0286437
0.0310914
0.0334291
0.0351388
0.0359241
0.0359428
0.0355416
0.034951
0.0342372
0.0334051
0.0324518
0.0313417
0.0299797
0.0282943
0.0262359
0.0237805
0.0209591
0.017878
0.014722
0.0117654
0.00931716
0.00758244
0.00651379
0.00591166
0.00558215
0.00545819
0.00553224
0.00576803
0.00608008
0.00636539
0.00733962
0.0137516
0.0178571
0.0208536
0.0234894
0.026061
0.0286472
0.0311874
0.0336355
0.0354845
0.036447
0.0366624
0.0364312
0.0359413
0.0352438
0.0343543
0.0332872
0.0320208
0.0304762
0.0285781
0.0262758
0.023552
0.0204566
0.017126
0.0137856
0.0107647
0.00840233
0.00685563
0.00596862
0.00547819
0.00520205
0.00512474
0.00524047
0.00550145
0.00581835
0.00608756
0.00722103
0.0134998
0.0176017
0.0206424
0.0233449
0.0259897
0.0286516
0.0312832
0.0338421
0.0358334
0.0369755
0.037384
0.037311
0.0369035
0.0362026
0.035238
0.0340421
0.0326026
0.0308587
0.0287342
0.0261762
0.0231778
0.0198147
0.0162587
0.0127782
0.0097607
0.00755552
0.00623296
0.00551543
0.00510195
0.00486831
0.00483483
0.00499022
0.00527087
0.00558805
0.00584175
0.00710647
0.0132567
0.017356
0.0204397
0.0232065
0.0259216
0.0286572
0.0313793
0.0340498
0.036186
0.0375085
0.0381041
0.0381747
0.0378291
0.0371039
0.0360465
0.0347074
0.0330829
0.0311207
0.028753
0.0259305
0.0226572
0.019046
0.0153058
0.0117458
0.00880901
0.00682028
0.00573418
0.0051525
0.00478301
0.00457982
0.00458666
0.00477739
0.00507117
0.00538681
0.00562358
0.00699576
0.0130223
0.0171196
0.0202452
0.0230739
0.0258568
0.0286646
0.0314765
0.0342595
0.0365426
0.0380446
0.0388187
0.0390149
0.0387079
0.0379359
0.0367673
0.0352703
0.0334485
0.0312572
0.0286326
0.0255308
0.0219898
0.0181705
0.0143092
0.0107436
0.00796711
0.00623156
0.00536507
0.0048709
0.00451516
0.0043316
0.00437373
0.00459334
0.00489997
0.00520902
0.00542671
0.00688875
0.0127962
0.0168923
0.0200589
0.022947
0.0257956
0.0286743
0.0315755
0.0344719
0.0369033
0.0385819
0.0395227
0.0398233
0.039529
0.0386858
0.0373861
0.0357155
0.0336838
0.0312527
0.0283656
0.0249911
0.0211988
0.0172255
0.0133232
0.00983122
0.00727974
0.00580348
0.005116
0.00465858
0.00428845
0.00411549
0.00418704
0.00443288
0.00474741
0.00504627
0.00524255
0.0067853
0.0125782
0.0166738
0.0198803
0.022826
0.025738
0.0286867
0.031677
0.0346879
0.0372677
0.039118
0.0402106
0.0405907
0.0402808
0.039341
0.0378903
0.0360307
0.033778
0.0311001
0.0279519
0.024324
0.0203256
0.0162734
0.0124102
0.00906323
0.00676891
0.00553106
0.00497099
0.00450685
0.00409942
0.00392825
0.00402487
0.00429002
0.00460404
0.00488647
0.00506088
0.00668529
0.0123682
0.016464
0.0197094
0.0227106
0.0256845
0.0287023
0.0317817
0.0349077
0.0376354
0.0396499
0.0408758
0.0413079
0.0409528
0.0398915
0.038271
0.0362085
0.0337268
0.0308006
0.0274024
0.0235563
0.0194194
0.0153739
0.0116287
0.00848044
0.00644707
0.00539794
0.00491408
0.00441224
0.00395221
0.00377296
0.00388114
0.00414903
0.00445675
0.00472316
0.00487729
0.00658861
0.0121659
0.0162626
0.0195459
0.0226009
0.0256351
0.0287214
0.03189
0.0351318
0.0380053
0.040174
0.0415117
0.0419659
0.0415361
0.0403305
0.0385236
0.0362467
0.0335302
0.0303597
0.0267309
0.0227194
0.0185286
0.0145791
0.0110242
0.00810657
0.00630908
0.00538118
0.00493058
0.00437609
0.00385524
0.00364763
0.00374387
0.00400408
0.00430148
0.00455197
0.00468766
0.00649516
0.0119713
0.0160695
0.0193898
0.0224968
0.0255901
0.0287446
0.0320026
0.0353602
0.0383761
0.0406865
0.0421116
0.0425571
0.0420247
0.0406544
0.0386474
0.0361459
0.0331895
0.0297917
0.025991
0.0218752
0.0177026
0.0139159
0.0105984
0.00792429
0.0063155
0.00545565
0.00501238
0.00441273
0.00381299
0.00354396
0.00360778
0.00385074
0.00413448
0.00436903
0.00448811
0.00640486
0.011784
0.0158844
0.0192407
0.0223984
0.0255496
0.0287722
0.0321196
0.0355929
0.0387462
0.0411829
0.0426689
0.0430748
0.0424144
0.0408627
0.0386443
0.0359096
0.0327348
0.0291549
0.0252308
0.0210658
0.0169754
0.0134076
0.0103532
0.00789853
0.00640883
0.00558197
0.00514799
0.00451828
0.00382419
0.00346113
0.0034701
0.00368547
0.00395228
0.00417073
0.00427487
0.00631762
0.0116039
0.0157072
0.0190987
0.0223057
0.025514
0.0288045
0.0322415
0.0358293
0.0391134
0.0416589
0.0431777
0.0435145
0.0427039
0.0409575
0.0385194
0.0355625
0.0322042
0.0284796
0.0244788
0.0203272
0.0163822
0.013059
0.0102718
0.00801237
0.00656927
0.00575017
0.00533155
0.00469817
0.00390134
0.00340591
0.00333093
0.0035055
0.00375151
0.00395348
0.00404422
0.00623337
0.0114309
0.0155376
0.0189636
0.0222187
0.0254832
0.0288417
0.0323684
0.036069
0.0394754
0.0421099
0.0436328
0.0438729
0.0428938
0.0409437
0.0382844
0.035138
0.031622
0.0277947
0.0237621
0.0196854
0.0159403
0.0128598
0.0103289
0.0082432
0.00679142
0.00595566
0.00555215
0.00495467
0.00406432
0.00339398
0.00319462
0.00330917
0.00352883
0.00371364
0.0037924
0.00615204
0.0112647
0.0153756
0.0188352
0.0221373
0.0254576
0.0288842
0.0325002
0.036311
0.0398295
0.0425314
0.0440299
0.0441487
0.0429871
0.0408265
0.0379685
0.0346557
0.031012
0.0271242
0.0231089
0.0191611
0.0156452
0.0128017
0.0105012
0.00855521
0.00707293
0.0061981
0.00579147
0.00527611
0.00433581
0.00345436
0.00307318
0.0030973
0.00328107
0.00344764
0.00351577
0.00607356
0.0111053
0.0152209
0.0187135
0.0220617
0.0254371
0.028932
0.0326368
0.0365543
0.0401728
0.0429193
0.0443659
0.0443425
0.0429892
0.040621
0.0375916
0.0341373
0.0303968
0.0264915
0.0225398
0.0187598
0.0154852
0.0128673
0.0107649
0.00893254
0.00743748
0.00649237
0.00603082
0.00562991
0.00472931
0.00363094
0.00299208
0.0028761
0.00300533
0.00315247
0.00321133
0.00599787
0.0109526
0.0150734
0.0185984
0.0219917
0.025422
0.0289852
0.0327779
0.0367974
0.0405024
0.0432698
0.0446389
0.0444564
0.0429054
0.0403492
0.0371712
0.0336043
0.0298001
0.0259167
0.022066
0.0184778
0.0154442
0.0130401
0.0110995
0.00938751
0.00787857
0.0068319
0.00626803
0.00596548
0.00522349
0.00397874
0.00300221
0.00266426
0.00270315
0.00282746
0.00287793
0.00592492
0.0108064
0.0149329
0.0184896
0.0219273
0.0254123
0.0290439
0.0329231
0.0370387
0.0408153
0.0435799
0.0448485
0.0444948
0.0427468
0.0400275
0.0367255
0.0330777
0.0292487
0.0254145
0.0216908
0.0183065
0.0155053
0.0132996
0.0115029
0.00991484
0.00843724
0.0072367
0.00652921
0.00623525
0.00573888
0.00452916
0.00318567
0.00250406
0.00239654
0.00247812
0.00251823
0.00585465
0.0106665
0.0147992
0.0183871
0.0218686
0.0254081
0.0291079
0.0330717
0.0372765
0.0411084
0.0438471
0.0449955
0.0444629
0.0425287
0.0396692
0.0362696
0.0325722
0.028753
0.0249889
0.0214106
0.0182362
0.0156547
0.0136322
0.0119714
0.0104854
0.00906404
0.00778184
0.00687973
0.00644246
0.00615639
0.00522154
0.00364257
0.00247849
0.00211043
0.00211598
0.00214112
0.005787
0.0105328
0.0146722
0.0182907
0.0218155
0.0254093
0.029177
0.0332229
0.0375088
0.0413791
0.0440697
0.0450817
0.0443662
0.0422657
0.039287
0.0358159
0.0320979
0.0283161
0.024643
0.0212256
0.0182583
0.0158807
0.0140265
0.0124968
0.0111077
0.00976322
0.00844488
0.00733595
0.00667548
0.00640652
0.00586047
0.00441238
0.0027269
0.00190314
0.00176321
0.00176345
0.00572192
0.0104051
0.0145515
0.0182004
0.021768
0.0254159
0.029251
0.033376
0.0377338
0.0416248
0.0442471
0.0451107
0.0442145
0.0419672
0.0388918
0.0353738
0.0316613
0.027942
0.0243812
0.0211315
0.0183634
0.0161729
0.0144716
0.013066
0.0117797
0.0105133
0.00923193
0.00800645
0.00707206
0.00657613
0.00627392
0.00530295
0.00341977
0.00190905