/*--------------------------------*- C++ -*----------------------------------*\
| =========                 |                                                 |
| \\      /  F ield         | OpenFOAM: The Open Source CFD Toolbox           |
|  \\    /   O peration     | Version:  v2012                                 |
|   \\  /    A nd           | Website:  www.openfoam.com                      |
|    \\/     M anipulation  |                                                 |
\*---------------------------------------------------------------------------*/
FoamFile
{
    version     2.0;
    format      ascii;
    class       volScalarField;
    location    "626";
    object      nut;
}
// * * * * * * * * * * * * * * * * * * * * * * * * * * * * * * * * * * * * * //

dimensions      [0 2 -1 0 0 0 0];


internalField   nonuniform List<scalar> 
6108
(
0.000490587
0.000509997
0.000531154
0.000554327
0.000579847
0.00060812
0.000639661
0.000675131
0.000715388
0.000761577
0.000815256
0.000878603
0.000954755
0.00104838
0.00116672
0.00132153
0.00153289
0.00183743
0.00230688
0.00309395
0.00271549
0.00281862
0.00292917
0.00304816
0.00317675
0.00331637
0.0034687
0.00363582
0.00382036
0.0040257
0.00425627
0.00451809
0.0048195
0.00517248
0.0055949
0.00611448
0.0067767
0.00766138
0.00892299
0.0109112
0.00463478
0.00479908
0.00497428
0.00516165
0.00536266
0.00557903
0.00581276
0.00606624
0.0063424
0.00664487
0.00697823
0.00734838
0.00776299
0.00823219
0.00876929
0.00939157
0.0101203
0.0109783
0.0119784
0.0130871
0.00585134
0.00605036
0.0062619
0.00648723
0.00672776
0.00698503
0.00726076
0.00755688
0.00787554
0.00821917
0.00859046
0.00899238
0.00942816
0.00990105
0.010414
0.0109688
0.0115641
0.0121928
0.0128364
0.0134608
0.00643435
0.00664863
0.00687609
0.0071179
0.0073753
0.00764961
0.00794222
0.00825451
0.00858788
0.00894356
0.00932255
0.00972531
0.0101515
0.0105993
0.0110652
0.0115427
0.0120224
0.0124928
0.0129454
0.013391
0.00643634
0.00665004
0.0068771
0.00711861
0.00737581
0.00764997
0.00794246
0.00825468
0.00858799
0.00894364
0.0093226
0.00972534
0.0101515
0.0105993
0.0110652
0.0115427
0.0120224
0.0124928
0.0129454
0.013391
0.00585706
0.00605438
0.00626475
0.00648923
0.00672913
0.00698594
0.00726137
0.00755728
0.00787581
0.00821935
0.00859057
0.00899246
0.00942821
0.00990108
0.010414
0.0109688
0.0115641
0.0121928
0.0128364
0.0134608
0.00464316
0.00480489
0.00497832
0.00516439
0.00536449
0.00558027
0.00581359
0.0060668
0.00634278
0.00664512
0.0069784
0.00734849
0.00776307
0.00823224
0.00876932
0.00939159
0.0101203
0.0109783
0.0119784
0.0130871
0.00272246
0.00282381
0.00293263
0.00305055
0.00317839
0.00331749
0.00346945
0.00363633
0.00382071
0.00402593
0.00425643
0.00451819
0.00481956
0.00517253
0.00559492
0.0061145
0.00677672
0.00766139
0.00892299
0.0109112
0.000490885
0.000510201
0.000531296
0.000554428
0.000579917
0.000608169
0.000639696
0.000675155
0.000715404
0.000761588
0.000815263
0.000878608
0.000954758
0.00104838
0.00116673
0.00132153
0.00153289
0.00183743
0.00230688
0.00309395
0.00042647
0.000440789
0.000456155
0.000472702
0.00236138
0.00244245
0.0025281
0.00261891
0.00406549
0.00419638
0.00433436
0.0044802
0.005159
0.00531838
0.00548633
0.00566368
0.00568883
0.00586027
0.0060411
0.00623217
0.00569704
0.00586628
0.00604531
0.00623505
0.00518716
0.00533854
0.00549984
0.00567241
0.00413204
0.00424308
0.0043634
0.00449628
0.00256334
0.00256807
0.00260319
0.00265546
0.000817775
0.000706896
0.000617983
0.000545354
6.97092e-05
6.56443e-05
6.6602e-05
7.59092e-05
0.000104379
0.00010931
0.000103496
0.000155606
0.000170426
0.000181571
0.000191823
0.000201416
0.000210503
0.000219191
0.000227562
0.000235679
0.000243597
0.000251362
0.000259017
0.000266601
0.000274155
0.000281716
0.000289326
0.000297022
0.000304847
0.000312843
0.000321055
0.000329527
0.000338308
0.000347448
0.000357001
0.000367023
0.000377574
0.000388719
0.000400529
0.000413084
0.000115896
0.000218934
0.000293036
0.000309067
0.000317859
0.000349447
0.000391781
0.000448147
0.000511155
0.000574999
0.000639697
0.000705279
0.000771707
0.000838911
0.000906767
0.000975097
0.00104367
0.00111222
0.00118048
0.00124817
0.00131508
0.00138103
0.00144597
0.00150989
0.00157287
0.00163505
0.00169666
0.00175796
0.0018193
0.00188104
0.00194362
0.00200745
0.00207297
0.00214065
0.00221097
0.00228438
0.000143439
0.000429817
0.000456644
0.000469748
0.000504286
0.000571229
0.000670983
0.000792076
0.000920757
0.00105143
0.00118244
0.00131281
0.00144196
0.00156949
0.00169506
0.00181833
0.00193903
0.00205689
0.00217177
0.00228357
0.00239236
0.00249827
0.00260159
0.00270265
0.0028019
0.00289984
0.00299702
0.00309405
0.00319153
0.00329011
0.00339041
0.00349311
0.00359885
0.0037083
0.00382212
0.00394096
0.000175107
0.000555977
0.000599893
0.000635889
0.000708315
0.000829108
0.000990126
0.00117215
0.00135998
0.00154692
0.00172945
0.00190582
0.00207527
0.00223756
0.00239276
0.00254112
0.00268302
0.00281893
0.00294941
0.00307506
0.00319656
0.00331459
0.00342987
0.00354314
0.00365515
0.00376662
0.00387831
0.00399092
0.00410516
0.00422172
0.00434127
0.0044645
0.00459206
0.00472462
0.00486284
0.0050074
0.000204514
0.000673955
0.000722816
0.000819176
0.000939521
0.00111536
0.00132982
0.00156011
0.00179094
0.00201411
0.00222511
0.00242217
0.00260507
0.00277446
0.00293151
0.0030776
0.00321423
0.00334285
0.00346489
0.00358167
0.00369444
0.00380433
0.00391242
0.00401969
0.00412707
0.00423542
0.00434553
0.00445816
0.004574
0.0046937
0.00481789
0.00494715
0.00508205
0.00522312
0.00537091
0.00552595
0.000225492
0.000701159
0.000843811
0.00101604
0.00118981
0.00141482
0.0016699
0.00193212
0.00218636
0.0024238
0.00264001
0.00283397
0.00300664
0.00316007
0.00329682
0.00341958
0.00353095
0.00363332
0.00372883
0.00381937
0.0039066
0.00399196
0.00407677
0.0041622
0.00424928
0.00433898
0.00443217
0.00452962
0.00463205
0.00474012
0.00485442
0.00497549
0.00510384
0.00523991
0.00538404
0.00553644
0.000240811
0.00075783
0.000975618
0.0012223
0.00144482
0.00171154
0.00199343
0.00227073
0.00252931
0.00276088
0.00296211
0.00313334
0.0032771
0.003397
0.003497
0.00358097
0.0036524
0.00371436
0.00376944
0.00381983
0.00386738
0.0039137
0.0039602
0.00400814
0.00405868
0.00411289
0.00417175
0.00423613
0.00430686
0.0043847
0.00447034
0.00456449
0.00466788
0.00478137
0.00490601
0.00504314
0.000253403
0.000846051
0.00111629
0.00143104
0.00169419
0.00199085
0.00228805
0.00256525
0.00281173
0.00302094
0.00319138
0.00332528
0.00342694
0.00350154
0.00355435
0.00359019
0.0036132
0.00362677
0.00363361
0.00363584
0.00363517
0.00363301
0.0036306
0.00362909
0.00362958
0.00363313
0.00364081
0.0036536
0.00367244
0.00369828
0.0037319
0.00377392
0.00382477
0.00388504
0.00395564
0.00403533
0.000263778
0.000950266
0.00125882
0.00163525
0.00192979
0.00224416
0.00254504
0.00281069
0.00303225
0.00320712
0.00333628
0.00342421
0.00347729
0.00350243
0.00350625
0.00349445
0.00347161
0.00344108
0.00340511
0.00336507
0.00332168
0.0032753
0.0032261
0.00317425
0.00312003
0.0030639
0.00300649
0.00294869
0.00289151
0.00283605
0.00278398
0.00273707
0.00269532
0.00265735
0.00262011
0.00258485
0.000272308
0.00105727
0.00139918
0.00182941
0.00214632
0.00246727
0.00276049
0.00300588
0.0031942
0.00332745
0.00341039
0.00345032
0.00345609
0.0034367
0.00340024
0.00335322
0.00330023
0.0032439
0.00318522
0.0031239
0.0030589
0.00298876
0.00291192
0.00282687
0.00273217
0.00262649
0.00250858
0.00237725
0.00223154
0.00207082
0.00189532
0.00170596
0.00150419
0.00130481
0.00111945
0.000955673
0.000632835
0.000373848
0.000236904
0.000140026
0.000485805
0.000343837
0.000250868
0.00010496
0.000601032
0.000564719
0.000460257
9.05015e-05
0.00106602
0.000905394
0.000542657
8.73527e-05
0.00140515
0.00106244
0.000565654
8.74834e-05
0.00156706
0.00112513
0.000581899
8.90817e-05
0.00165992
0.00117061
0.000596717
9.16937e-05
0.00173314
0.00121777
0.00061786
9.4626e-05
0.00180188
0.00126892
0.000643954
9.77964e-05
0.00186941
0.00132263
0.000672746
0.000101197
0.00193545
0.0013769
0.000702015
0.000104879
0.00199883
0.00142986
0.000731256
0.000108872
0.00206034
0.00148435
0.000762104
0.000112966
0.00212084
0.00153919
0.000793766
0.000117131
0.00217903
0.00159358
0.000825917
0.000121329
0.00223396
0.00164689
0.000858305
0.00012554
0.00228482
0.00169849
0.000890663
0.000129745
0.00233075
0.00174767
0.000922673
0.000133914
0.00237085
0.00179363
0.000953929
0.000138011
0.0024041
0.00183541
0.000983903
0.000141982
0.00242939
0.00187188
0.00101192
0.000145744
0.00244548
0.00190178
0.00103715
0.000149159
0.00245096
0.00192367
0.00105873
0.000152032
0.00244413
0.00193595
0.00107579
0.000154401
0.00227124
0.00193642
0.00108787
0.000156562
0.00208383
0.00192861
0.0010955
0.00015862
0.00194221
0.00183554
0.00109634
0.000160075
0.00183823
0.00175367
0.00109296
0.000161111
0.00176082
0.0017029
0.0010854
0.000161616
0.00170249
0.00167031
0.00107309
0.000161344
0.00166629
0.00165762
0.00105649
0.000160393
0.00165743
0.00167191
0.00103628
0.000158871
0.00167928
0.00168235
0.0010123
0.000156816
0.00173934
0.00163286
0.000984061
0.000154251
0.00182745
0.00158301
0.00095302
0.000151253
0.00179924
0.00153187
0.000919911
0.000147891
0.00175043
0.00148029
0.000885596
0.000144245
0.00170386
0.00142898
0.000850862
0.00014039
0.00165925
0.00137843
0.000816356
0.000136397
0.00161594
0.00132883
0.000782513
0.000132315
0.00157292
0.00128008
0.000749559
0.000128188
0.00152878
0.00123162
0.000717388
0.000124046
0.00148072
0.0011812
0.000683948
0.00012
0.00142619
0.00112625
0.000647327
0.000116217
0.00136541
0.00106761
0.000608899
0.000112602
0.00129864
0.00100599
0.000569865
0.000109088
0.00122618
0.000941888
0.000530651
0.000105624
0.00114833
0.000875616
0.00049146
0.000102167
0.00106536
0.000807335
0.000452303
9.86785e-05
0.000977518
0.000737075
0.000413075
9.51205e-05
0.000885031
0.000664811
0.000373645
9.14527e-05
0.000788246
0.000590613
0.000333971
8.76305e-05
0.000687873
0.000514888
0.00029423
8.36017e-05
0.0005854
0.000438724
0.000254956
7.93019e-05
0.000483605
0.000364225
0.000217131
7.4644e-05
0.000386954
0.000294625
0.000182119
6.94935e-05
0.000300952
0.000233905
0.000151619
6.36247e-05
0.000230913
0.000185657
0.000127594
5.04897e-05
0.000172515
0.000147034
0.000107968
4.74844e-05
5.21909e-05
4.57486e-05
4.42699e-05
3.04176e-05
0.000279814
0.00117497
0.0015452
0.00200459
0.00234934
0.0026669
0.00294228
0.00315787
0.00330769
0.00339483
0.0034299
0.00342397
0.00338893
0.00333605
0.0032747
0.00321145
0.00314984
0.00309071
0.00303291
0.0029742
0.00291204
0.00284408
0.00276848
0.00268402
0.00258997
0.00248611
0.00237256
0.00224975
0.00211796
0.00197685
0.00182739
0.0016702
0.0015052
0.00133193
0.00114674
0.000945646
0.000286138
0.00129979
0.0016937
0.00216603
0.00252496
0.00283113
0.00308168
0.00326252
0.00337129
0.00341515
0.00340755
0.0033648
0.0033019
0.00323167
0.00316327
0.00310143
0.00304673
0.00299675
0.00294749
0.00289473
0.00283488
0.00276541
0.00268488
0.00259276
0.00248904
0.00237412
0.00224853
0.00211306
0.00196786
0.00181086
0.00164437
0.00146906
0.0012852
0.00109363
0.000897892
0.000681142
0.000291477
0.00141655
0.0018486
0.00233256
0.00267228
0.00296123
0.00318264
0.00332683
0.00339561
0.00340062
0.00335928
0.00329107
0.00321351
0.00313915
0.00307448
0.00302011
0.00297218
0.00292457
0.00287095
0.00280617
0.00272689
0.00263156
0.00252008
0.0023936
0.00225337
0.00210173
0.00194
0.00177295
0.00160546
0.00144546
0.00128906
0.00113595
0.000988951
0.000847009
0.000728797
0.000646815
0.000295767
0.00147572
0.00201509
0.00246155
0.00279273
0.00306058
0.00325088
0.00335894
0.0033911
0.00336348
0.0032975
0.00321471
0.00313253
0.00306084
0.00300134
0.00294934
0.00289673
0.00283497
0.00275724
0.00265942
0.00254025
0.00240102
0.0022452
0.00207807
0.00190636
0.00174078
0.00159388
0.00146254
0.0013444
0.00124056
0.00115147
0.00107793
0.00102961
0.001009
0.00100202
0.00101836
0.000299146
0.00152498
0.00215992
0.00256684
0.00288854
0.00313314
0.00329231
0.00336658
0.00336698
0.00331386
0.00323171
0.00314272
0.00306159
0.00299325
0.00293368
0.00287352
0.00280213
0.00271091
0.00259486
0.00245345
0.00229071
0.00211489
0.00193839
0.00177825
0.00165341
0.00156105
0.00149499
0.00145157
0.00142764
0.00142141
0.00143243
0.00145191
0.00148135
0.0015248
0.00159691
0.00154604
0.000301698
0.00156431
0.00223966
0.00265286
0.00296242
0.00318312
0.00331264
0.00335673
0.00333106
0.00325965
0.00316869
0.00307895
0.00300061
0.00293241
0.00286512
0.00278662
0.00268647
0.00255873
0.00240368
0.00222906
0.00204977
0.00188764
0.0017718
0.00171635
0.00170462
0.00172408
0.00176456
0.00181875
0.00187432
0.00192922
0.00199448
0.00207222
0.00212274
0.00211072
0.00206314
0.00187416
0.0003035
0.00159438
0.00230445
0.00272138
0.00301733
0.00321469
0.0033171
0.00333546
0.00328973
0.00320678
0.00311293
0.0030256
0.00294918
0.00287661
0.00279504
0.00269232
0.00256133
0.00240281
0.00222828
0.00205966
0.00192901
0.00187424
0.00189852
0.00197248
0.002073
0.00217786
0.00227643
0.00237585
0.00247648
0.00256471
0.00260558
0.00262811
0.00259766
0.00248861
0.00231206
0.00203824
0.000304621
0.00161599
0.00235566
0.00277438
0.00305626
0.00323174
0.00331036
0.00330786
0.00324807
0.00315967
0.00306746
0.00298405
0.00290773
0.00282688
0.00272767
0.00260107
0.0024471
0.0022796
0.00212669
0.00202879
0.00202809
0.0021252
0.0022728
0.00242905
0.00258633
0.00273034
0.00285845
0.00295023
0.00301888
0.00305266
0.00302422
0.00295807
0.0028474
0.00268136
0.0024521
0.00214131
0.00030513
0.00162999
0.00239471
0.00281391
0.00308206
0.00323781
0.0032964
0.0032781
0.00321002
0.00312147
0.0030343
0.00295545
0.00287758
0.00278648
0.00267028
0.00252662
0.00236824
0.0022268
0.00214859
0.00217925
0.00232815
0.00252933
0.00274436
0.00295098
0.00311363
0.00324029
0.00333184
0.00336539
0.00335811
0.00331586
0.00323757
0.00312806
0.00298316
0.00279368
0.00254661
0.00222295
0.000305094
0.00163726
0.00242302
0.00284198
0.00309738
0.00323598
0.00327853
0.00324947
0.00317846
0.00309433
0.00301478
0.00294081
0.0028606
0.00275962
0.00263119
0.00248322
0.00234613
0.00226955
0.00230564
0.00247131
0.00271471
0.00298474
0.00322174
0.00341208
0.00353055
0.0035962
0.00361499
0.00359109
0.003536
0.00345573
0.00335178
0.00322393
0.00306717
0.00287155
0.00262168
0.00229599
0.000304576
0.00163865
0.002442
0.00286048
0.00310454
0.00322887
0.00325944
0.00322443
0.00315537
0.00307951
0.00300962
0.00294095
0.00285865
0.00275033
0.00261737
0.0024816
0.00239174
0.00240641
0.00255859
0.00281686
0.00311969
0.00340166
0.00360447
0.00373317
0.00379549
0.00380584
0.00377636
0.00371693
0.00363551
0.0035363
0.00342032
0.00328576
0.00312686
0.00293282
0.00268657
0.00236387
0.00030364
0.001635
0.00245299
0.00287111
0.00310557
0.00321861
0.00324116
0.00320471
0.0031419
0.0030775
0.00301886
0.00295602
0.00287282
0.00276138
0.00263322
0.00252582
0.00250079
0.00260908
0.00284635
0.00316316
0.00347649
0.00371613
0.00386789
0.00394479
0.00396168
0.00393418
0.00387551
0.00379486
0.00369821
0.00358866
0.00346678
0.00333032
0.00317317
0.00298391
0.00274413
0.00242699
0.000302341
0.00162711
0.0024572
0.00287541
0.00310217
0.0032069
0.00322518
0.00319134
0.00313843
0.00308794
0.00304144
0.00298457
0.0029024
0.0027935
0.00267947
0.00261213
0.00265623
0.00284052
0.00313007
0.00346598
0.00375017
0.00394352
0.00405134
0.00408923
0.00407408
0.00402187
0.00394448
0.00384982
0.00374288
0.00362637
0.00350087
0.00336419
0.00321016
0.0030269
0.00279492
0.00248478
0.000300734
0.00161569
0.00245576
0.00287468
0.00309573
0.00319504
0.00321249
0.00318478
0.00314465
0.00310939
0.00307428
0.00289357
0.00287866
0.00284401
0.00275252
0.00273087
0.00283656
0.00307139
0.00339279
0.00371687
0.00396027
0.00411377
0.0041872
0.00419639
0.00415894
0.00408949
0.00399846
0.00389288
0.00377743
0.00365494
0.00352634
0.00338978
0.00323917
0.00306227
0.00283956
0.00253972
0.000298869
0.0016014
0.00244965
0.00287004
0.00308736
0.00318397
0.00320368
0.003185
0.00315946
0.00313881
0.00286816
0.00271675
0.00274167
0.00288082
0.0028461
0.00287048
0.00302467
0.00329189
0.00362292
0.00392132
0.0041289
0.00424946
0.00429567
0.00428362
0.00422961
0.00414664
0.00404408
0.00392858
0.00380491
0.00367638
0.00354445
0.00340781
0.00326053
0.00309163
0.00287942
0.00259064
0.00029679
0.00158482
0.00243974
0.00286242
0.00307794
0.00317433
0.00319897
0.00319148
0.00318103
0.00300871
0.00269458
0.00259651
0.00264408
0.00280015
0.00295326
0.00302074
0.00320963
0.00349738
0.00382434
0.00409388
0.00427009
0.00436366
0.00438855
0.00435992
0.00429235
0.00419746
0.00408398
0.00395853
0.00382625
0.00369115
0.00355541
0.00341861
0.00327587
0.00311477
0.00291334
0.00263655
0.000294539
0.00156648
0.00242678
0.00285257
0.0030681
0.00316654
0.00319831
0.0032034
0.00320718
0.00282674
0.00257568
0.00251666
0.00258115
0.00274541
0.00302592
0.00317461
0.00338754
0.00368982
0.00400483
0.00424422
0.00439322
0.00446469
0.00447226
0.00442967
0.00434986
0.00424343
0.00411885
0.00398296
0.00384142
0.00369912
0.00355981
0.00342325
0.00328426
0.00313074
0.0029404
0.00267659
0.00029215
0.0015468
0.00241141
0.00284111
0.00305834
0.00316079
0.0032014
0.00321951
0.00313122
0.00269703
0.00249542
0.00246422
0.00254532
0.00272058
0.00302156
0.00332831
0.00356107
0.00386776
0.00416468
0.00437846
0.00450453
0.00455746
0.00455012
0.00449476
0.004403
0.00428478
0.00414851
0.0040015
0.00384993
0.00370112
0.00355792
0.00342062
0.00328479
0.00313871
0.00295979
0.00270991
0.000289655
0.00152616
0.00239415
0.00282853
0.00304898
0.00315713
0.00320778
0.00323857
0.00298439
0.00260617
0.00244231
0.00243316
0.00252924
0.00271826
0.00303865
0.00347906
0.0037298
0.00403545
0.00431149
0.00450205
0.00460813
0.00464473
0.00462364
0.00455578
0.00445174
0.00432104
0.00417228
0.00401344
0.00385299
0.00369665
0.00354849
0.00340972
0.00327664
0.00313788
0.00297069
0.00273565
0.000287081
0.00150488
0.00237547
0.00281521
0.00304024
0.00315549
0.00321695
0.00325962
0.00287532
0.00254312
0.0024093
0.00241946
0.00252856
0.00273195
0.00307611
0.00359949
0.0038951
0.00419641
0.00444956
0.00461844
0.00470641
0.00472783
0.00469329
0.00461258
0.00449547
0.00435137
0.00418985
0.00401995
0.00384921
0.00368433
0.00353042
0.00338963
0.00325898
0.00312749
0.00297228
0.00275289
0.000284451
0.00148324
0.00235573
0.00280144
0.00303224
0.00315569
0.00322834
0.00328178
0.00279713
0.00250072
0.00239243
0.00241949
0.00253986
0.00275711
0.00312505
0.0036745
0.00405557
0.00434743
0.00458017
0.00472928
0.00480045
0.00480717
0.0047589
0.00466453
0.00453329
0.0043759
0.00420167
0.0040193
0.00383715
0.00366288
0.00350264
0.00335946
0.00323102
0.00310675
0.00296375
0.00276068
0.000281787
0.00146143
0.00233525
0.00278744
0.00302503
0.0031575
0.0032412
0.00320952
0.00274165
0.00247474
0.00238821
0.00243004
0.00256055
0.0027908
0.00318085
0.00375461
0.00421115
0.0044902
0.0047044
0.00483536
0.00489055
0.00488251
0.00481983
0.00471069
0.0045657
0.00439436
0.00420601
0.00400995
0.00381541
0.00363108
0.00346408
0.00331828
0.00319199
0.00307494
0.00294426
0.00275799
0.000279104
0.00143964
0.00231427
0.00277339
0.00301862
0.00316066
0.00325502
0.0031368
0.00270322
0.00246103
0.00239366
0.00244857
0.00258877
0.0028315
0.00324074
0.00383969
0.00436056
0.00462594
0.00482274
0.00493684
0.00497646
0.00495323
0.00487527
0.00475164
0.00459178
0.00440509
0.00420126
0.00399035
0.00378256
0.00358762
0.00341363
0.00326522
0.00314113
0.00303133
0.00291293
0.00274368
0.000276417
0.00141801
0.00229302
0.00275941
0.00301295
0.00316494
0.00326943
0.00308335
0.0026779
0.00245709
0.00240673
0.00247328
0.00262303
0.00287769
0.0033026
0.00392533
0.00450172
0.00475474
0.00493543
0.00503352
0.00505757
0.00501866
0.0049254
0.00478622
0.00461009
0.00440654
0.00418584
0.00395894
0.0037371
0.00353116
0.00335017
0.00319935
0.00307772
0.00297512
0.00286871
0.00271309
0.000273738
0.00139666
0.00227165
0.00274558
0.00300799
0.00317011
0.00328418
0.00304511
0.00266281
0.0024613
0.00242597
0.00250291
0.00266213
0.00292816
0.00336635
0.00400942
0.00463595
0.00487695
0.00504242
0.0051249
0.00513308
0.0050785
0.00496921
0.00481313
0.00461913
0.00439711
0.00415809
0.00391407
0.0036775
0.00346036
0.00327257
0.00311981
0.00300094
0.00290536
0.00268655
0.00245357
0.000271075
0.00137567
0.00225032
0.00273196
0.00300365
0.00317596
0.00329909
0.00301846
0.00265588
0.00247214
0.00245011
0.00253646
0.00270483
0.00298152
0.00343222
0.00409231
0.00476299
0.0049926
0.00514343
0.00520981
0.00520256
0.005132
0.00500558
0.00483102
0.00461736
0.0043751
0.00411626
0.00385404
0.00360221
0.0033739
0.00317983
0.00302582
0.00291016
0.00271356
0.00243988
0.00223235
0.000268437
0.00135512
0.00222912
0.00271861
0.00299987
0.00318233
0.00331402
0.00300096
0.0026556
0.00248823
0.00247806
0.00257306
0.00275015
0.00303724
0.00349949
0.00417324
0.00488312
0.00510156
0.00523672
0.00528809
0.00526553
0.00517823
0.00503327
0.00483841
0.00460311
0.00433876
0.00405856
0.00377716
0.00350975
0.00327067
0.00307125
0.00291707
0.00280518
0.0024783
0.00222948
0.0020589
0.000265828
0.00133503
0.00220815
0.00270554
0.00299657
0.00318909
0.00332889
0.0029908
0.00266072
0.00250841
0.00250894
0.00261201
0.00279753
0.00309466
0.0035674
0.00425139
0.00499595
0.00520186
0.00532275
0.00535963
0.00532136
0.00521617
0.00505094
0.00483371
0.00457464
0.00428623
0.00398318
0.00368179
0.00339887
0.0031499
0.0029466
0.00279395
0.00259399
0.00226867
0.002048
0.00191525
0.000263256
0.00131543
0.00218747
0.00269277
0.00299368
0.00319612
0.00334364
0.00298655
0.00267018
0.0025317
0.00254198
0.00265269
0.00284643
0.00315316
0.00363504
0.00432623
0.00509219
0.00529434
0.00540177
0.00542415
0.00536931
0.0052447
0.00505718
0.00481528
0.00453014
0.00421567
0.00388838
0.00356652
0.00326866
0.0030114
0.00280643
0.00265756
0.00237966
0.00207941
0.00188969
0.00179585
0.000260726
0.00129634
0.00216713
0.00268033
0.00299119
0.00320336
0.00335829
0.00298702
0.00268305
0.0025571
0.00257632
0.00269448
0.00289642
0.00321251
0.00370307
0.00439773
0.00515651
0.00537967
0.00547388
0.00548124
0.00540855
0.00526261
0.00505049
0.00478142
0.00446779
0.0041253
0.0037726
0.00343028
0.00311885
0.00285581
0.00265231
0.00251025
0.00218407
0.00190968
0.00175511
0.00169955
0.00025824
0.00127778
0.0021472
0.00266825
0.00298917
0.00321084
0.00337264
0.00299118
0.00269856
0.002584
0.00261151
0.00273695
0.00294723
0.00327271
0.00377086
0.00446588
0.00521418
0.00545833
0.00553904
0.00553037
0.00543814
0.00526867
0.00502936
0.00473043
0.00438585
0.00401347
0.00363461
0.00327258
0.00294999
0.00268488
0.00248701
0.00235542
0.0020027
0.00176048
0.00164468
0.00162723
0.0002558
0.00125981
0.00212781
0.00265668
0.00298739
0.0032183
0.00338668
0.00299831
0.00271617
0.00261195
0.00264725
0.00277988
0.00299866
0.00333357
0.00383825
0.00453039
0.00526599
0.00553041
0.00559702
0.00557092
0.00545711
0.00526159
0.00499228
0.00466067
0.00428268
0.00387886
0.00347372
0.00309378
0.00276379
0.00250169
0.00231466
0.00217178
0.0018344
0.00163339
0.00155933
0.00158045
0.000253409
0.00124263
0.00210886
0.00264531
0.00298578
0.00322569
0.00339099
0.00300781
0.00273545
0.00264061
0.0026833
0.00282311
0.00305054
0.0033948
0.00390487
0.00459098
0.00531092
0.00559602
0.00564744
0.00560216
0.00546441
0.00524005
0.00493775
0.00457059
0.00415695
0.00372063
0.00329003
0.00289537
0.00256343
0.00231087
0.00214051
0.0019753
0.00168171
0.00153097
0.00150171
0.00156299
0.000251093
0.00122571
0.0020902
0.00263418
0.00298432
0.00323296
0.0033915
0.00301915
0.00275596
0.00266968
0.00271947
0.00286651
0.00310275
0.00345619
0.00397049
0.00464781
0.00534907
0.00565505
0.00568986
0.00562329
0.00545897
0.00520278
0.00486439
0.00445891
0.00400772
0.00353863
0.00308468
0.00268029
0.00235371
0.00211888
0.0019708
0.00178061
0.00154971
0.00145678
0.00147661
0.00158541
0.000248847
0.00120911
0.00207189
0.0026233
0.00298299
0.00324012
0.00339349
0.00303184
0.00277735
0.00269901
0.00275566
0.00291001
0.00315523
0.00351769
0.0040352
0.00470149
0.00538102
0.00570724
0.00572366
0.00563345
0.0054397
0.00514854
0.00477097
0.00432465
0.00383466
0.00333365
0.00286022
0.00245315
0.00214121
0.00193092
0.00181098
0.00160252
0.00144333
0.00141357
0.00148617
0.00164409
0.000246668
0.00119287
0.00205398
0.0026127
0.0029818
0.00324718
0.00339668
0.0030455
0.00279941
0.00272847
0.0027918
0.00295363
0.00320803
0.00357941
0.0040994
0.00475298
0.00540756
0.00575211
0.00574816
0.00563173
0.00540556
0.00507624
0.00465655
0.00416737
0.00363827
0.00310776
0.00262086
0.00222017
0.00193186
0.00175466
0.00166667
0.00144803
0.00136795
0.00140486
0.00152988
0.00172944
0.00024455
0.00117706
0.00203652
0.00260241
0.00298075
0.00325416
0.0034007
0.00305981
0.00282195
0.002758
0.00282792
0.00299742
0.00326123
0.00364151
0.00416352
0.00480328
0.00542948
0.00578906
0.00576255
0.0056172
0.00535553
0.00498492
0.00452055
0.0039873
0.00342017
0.00286463
0.0023727
0.00198976
0.00173552
0.0015965
0.00146917
0.00132866
0.00133217
0.00143277
0.00160143
0.00180929
0.000242491
0.00116173
0.00201955
0.00259245
0.00297984
0.00326109
0.00340531
0.00307458
0.00284481
0.00278755
0.00286403
0.00304143
0.00331488
0.00370401
0.00422746
0.00485214
0.00544666
0.00581739
0.00576602
0.00558897
0.00528871
0.00487389
0.00436292
0.00378561
0.00318342
0.00260979
0.00212375
0.00177084
0.00155876
0.00146012
0.00130353
0.00125924
0.0013386
0.00148925
0.00167639
0.00177492
0.000240487
0.00114691
0.00200311
0.00258285
0.00297909
0.00326799
0.00341037
0.00308964
0.00286786
0.0028171
0.00290019
0.0030857
0.00336893
0.00376662
0.00429039
0.00489828
0.00545654
0.00579945
0.00575774
0.00554619
0.00520433
0.00474279
0.00418429
0.00356474
0.00293282
0.0023508
0.00188373
0.00157206
0.0014065
0.00133844
0.00120336
0.00124116
0.00137975
0.00155485
0.0017178
0.00174473
0.000238536
0.00113261
0.00198722
0.00257363
0.00297853
0.0032749
0.00341582
0.00310492
0.00289104
0.00284669
0.00293646
0.00313027
0.00342331
0.003829
0.00435122
0.00493846
0.00545312
0.00573572
0.00573714
0.00548813
0.00510175
0.00459159
0.00398625
0.00332867
0.00267519
0.00209703
0.00166249
0.00140026
0.0012809
0.00120098
0.00115886
0.0012654
0.00144166
0.00161407
0.0017064
0.00171704
0.000236636
0.00111886
0.00197192
0.00256481
0.00297817
0.00328186
0.00342163
0.00312036
0.00291432
0.00287638
0.00297298
0.00317531
0.00347817
0.00389119
0.00440963
0.0049711
0.00543487
0.00564802
0.00559245
0.00536525
0.0049804
0.0044207
0.00377151
0.00308327
0.00241937
0.00185914
0.00146892
0.00125947
0.00118131
0.00113211
0.0011599
0.00131773
0.00150758
0.00163249
0.0016965
0.00168968
0.000234786
0.00110566
0.00195723
0.00255643
0.00297804
0.00328892
0.00342784
0.003136
0.00293777
0.00290633
0.00301
0.0032212
0.0035341
0.00395406
0.00446697
0.00499854
0.00540471
0.00554592
0.00541281
0.00511466
0.00468618
0.00419889
0.00354414
0.00283649
0.00217576
0.00164781
0.0013095
0.00115008
0.00110443
0.00111173
0.00119142
0.00137336
0.00152395
0.00163455
0.00168399
0.00166005
0.000232983
0.00109304
0.00194319
0.00254851
0.00297817
0.0032961
0.00343456
0.00315192
0.00296152
0.00293678
0.00304794
0.00326856
0.003592
0.00401891
0.00452525
0.00502491
0.00537128
0.00543921
0.0052345
0.00487175
0.00439074
0.00387615
0.00331133
0.0025984
0.00195528
0.00147121
0.00118618
0.00106865
0.00104523
0.00109036
0.0012069
0.00137138
0.00152778
0.00162964
0.00166435
0.00162458
0.000231227
0.00108099
0.0019298
0.00254107
0.0029786
0.00330345
0.00344191
0.00316828
0.00298576
0.00296804
0.00308724
0.00331804
0.00365273
0.00408677
0.00458567
0.00505206
0.00533874
0.00533506
0.00506275
0.00464316
0.00412239
0.0035893
0.00308455
0.00238022
0.00176755
0.00133311
0.00109648
0.00100984
0.000998695
0.00105323
0.00118633
0.0013641
0.00152024
0.00161086
0.00163285
0.00158017
0.000229517
0.00106951
0.0019171
0.00253415
0.00297935
0.00331102
0.00345005
0.00318523
0.0030107
0.00300043
0.00312835
0.00337016
0.00371677
0.00415787
0.00464802
0.00507934
0.0053062
0.00523313
0.00489606
0.00442386
0.00387354
0.00333783
0.00287419
0.00219194
0.00161898
0.00123406
0.00103535
0.000968072
0.000960799
0.00101792
0.00116067
0.00134137
0.00149241
0.0015757
0.00158889
0.00152656
0.000227851
0.00105861
0.00190509
0.00252776
0.00298045
0.00331885
0.00345912
0.00320295
0.00303655
0.00303421
0.0031716
0.00342524
0.00378424
0.00423183
0.00471126
0.00510528
0.00527221
0.00513225
0.00473375
0.00421529
0.00364691
0.00311777
0.00268895
0.00204074
0.00151207
0.0011709
0.000996653
0.000938381
0.000928756
0.000980923
0.00111953
0.00129887
0.00144676
0.0015254
0.00153265
0.00146375
0.00022623
0.00104829
0.0018938
0.00252194
0.00298195
0.00332698
0.00346928
0.0032216
0.00306349
0.00306962
0.00321723
0.00348339
0.00385494
0.00430797
0.00477421
0.00512874
0.00523602
0.00503171
0.0045779
0.00402767
0.00344734
0.00292969
0.00253299
0.00192562
0.00144153
0.00113494
0.000974439
0.000917089
0.000899895
0.000938368
0.00106565
0.00124014
0.00138537
0.0014612
0.00146466
0.00139201
0.000224652
0.00103854
0.00188322
0.00251669
0.00298385
0.00333545
0.00348062
0.00324131
0.00309167
0.00310682
0.00326538
0.00354461
0.00392856
0.00438552
0.00483596
0.00514911
0.00519715
0.00493619
0.00444067
0.00386803
0.00321954
0.00273458
0.00241034
0.00184601
0.00140006
0.00111502
0.00095956
0.00089937
0.000873025
0.000892514
0.00100086
0.00116681
0.00130956
0.00138412
0.00138556
0.0013117
0.000223116
0.00102935
0.00187337
0.00251205
0.0029862
0.0033443
0.00349323
0.0032622
0.00312122
0.00314595
0.0033161
0.00360879
0.00400469
0.00446384
0.00489598
0.00516616
0.00515918
0.00485227
0.00432567
0.00372276
0.00303502
0.00255592
0.00229864
0.00179884
0.00138366
0.00110749
0.000950252
0.000884423
0.000848968
0.000846446
0.000927625
0.0010802
0.00122026
0.00129504
0.00129604
0.00122327
0.000221624
0.00102072
0.00186425
0.00250802
0.00298903
0.00335357
0.00350717
0.00328433
0.00315223
0.00318707
0.00336941
0.00367578
0.00408294
0.00454241
0.00495403
0.00518081
0.00512698
0.0047842
0.004237
0.00358379
0.00289696
0.0024191
0.00216026
0.00178075
0.00138904
0.00111163
0.000946666
0.000872124
0.000828606
0.000804141
0.000850435
0.000982102
0.00111834
0.00119474
0.00119677
0.0011272
0.000220173
0.00101262
0.00185586
0.00250462
0.00299235
0.0033633
0.00352247
0.00330778