/*--------------------------------*- C++ -*----------------------------------*\
| =========                 |                                                 |
| \\      /  F ield         | OpenFOAM: The Open Source CFD Toolbox           |
|  \\    /   O peration     | Version:  v2012                                 |
|   \\  /    A nd           | Website:  www.openfoam.com                      |
|    \\/     M anipulation  |                                                 |
\*---------------------------------------------------------------------------*/
FoamFile
{
    version     2.0;
    format      ascii;
    class       volScalarField;
    location    "626";
    object      omega;
}
// * * * * * * * * * * * * * * * * * * * * * * * * * * * * * * * * * * * * * //

dimensions      [0 0 -1 0 0 0 0];


internalField   nonuniform List<scalar> 
6108
(
97.2808
101.13
105.325
109.92
114.98
120.587
126.841
133.875
141.858
151.017
161.661
174.222
189.323
207.889
231.355
262.051
303.964
364.354
457.442
613.515
43.2938
45.153
47.1942
49.445
51.9396
54.7203
57.84
61.3657
65.3829
70.0025
75.37
81.6787
89.1889
98.2554
109.364
123.179
140.569
162.541
189.669
219.56
33.776
35.3084
36.9935
38.855
40.9215
43.2283
45.8191
48.7487
52.0866
55.9216
60.3689
65.5797
71.7561
79.1719
88.2056
99.3925
113.512
131.751
156.056
190.092
30.6399
32.0716
33.6471
35.3889
37.3241
39.486
41.916
44.6659
47.8015
51.4073
55.5934
60.5061
66.3433
73.3791
82.0038
92.7914
106.621
124.909
150.079
186.614
29.5381
30.937
32.4769
34.1799
36.0728
38.1885
40.568
43.2628
46.3382
49.8789
53.9961
58.8384
64.6095
71.5957
80.2105
91.0731
105.146
123.988
150.222
188.384
29.5351
30.9348
32.4754
34.1788
36.072
38.1879
40.5676
43.2625
46.338
49.8788
53.996
58.8383
64.6095
71.5957
80.2105
91.0731
105.146
123.988
150.222
188.384
30.6291
32.0641
33.6418
35.3851
37.3215
39.4842
41.9148
44.6652
47.801
51.407
55.5932
60.506
66.3432
73.3791
82.0038
92.7914
106.621
124.909
150.079
186.614
33.7508
35.2915
36.9817
38.847
40.9162
43.2247
45.8167
48.7471
52.0856
55.9209
60.3684
65.5794
71.7559
79.1718
88.2055
99.3924
113.512
131.751
156.056
190.092
43.2441
45.1179
47.1709
49.4288
51.9286
54.7129
57.8351
61.3624
65.3807
70.0011
75.3691
81.678
89.1885
98.2551
109.364
123.178
140.569
162.541
189.669
219.56
97.3398
101.17
105.353
109.94
114.994
120.597
126.848
133.88
141.861
151.019
161.662
174.223
189.323
207.889
231.355
262.052
303.964
364.354
457.442
613.515
84.5667
87.4061
90.4531
93.7342
37.2705
38.5968
40.0333
41.5935
28.8294
29.9164
31.095
32.3769
26.0237
27.0377
28.1373
29.3336
25.0266
26.0182
27.093
28.2619
25.0084
26.0061
27.0854
28.2573
25.9376
26.9816
28.1039
29.315
28.4639
29.6749
30.956
32.311
34.6929
36.9335
39.0238
41.1202
52.1691
59.8136
69.5103
81.9443
13.823
13.0169
13.2068
15.0524
20.6978
24.9483
28.4116
31.3273
33.7945
36.0046
38.0375
39.9398
41.7416
43.4644
45.1243
46.734
48.304
49.8438
51.3616
52.8656
54.3634
55.8629
57.3717
58.8979
60.4496
62.0352
63.6634
65.3434
67.0846
68.8971
70.7915
72.7787
74.8709
77.0809
79.4228
81.9123
14.7082
9.76335
12.428
17.6444
21.343
23.23
24.1143
24.5793
24.8122
24.9148
24.9632
24.9851
24.9972
25.0114
25.0376
25.084
25.158
25.2658
25.4126
25.6027
25.8394
26.1253
26.4619
26.8504
27.2919
27.7873
28.3375
28.9435
29.6066
30.3281
31.1099
31.9548
32.8661
33.8477
34.9045
36.0428
18.2036
11.7159
14.921
18.2347
20.0395
20.7018
20.8048
20.6674
20.3967
20.079
19.7711
19.4948
19.2617
19.0784
18.9483
18.8736
18.8548
18.8916
18.9831
19.1274
19.3229
19.5674
19.8591
20.1962
20.5776
21.0022
21.4698
21.9805
22.535
23.1344
23.7807
24.4762
25.224
26.0279
26.8928
27.8243
22.2225
13.6768
15.7828
17.5923
18.4342
18.6144
18.4675
18.1566
17.7712
17.3866
17.0422
16.7536
16.5278
16.3669
16.2703
16.2362
16.2618
16.3436
16.4782
16.6618
16.8911
17.163
17.475
17.8251
18.2119
18.6345
19.0929
19.5874
20.119
20.6892
21.3003
21.9549
22.6562
23.4085
24.2165
25.086
25.9546
14.8589
15.8902
16.7129
17.0429
17.0191
16.7928
16.4541
16.0797
15.7301
15.4335
15.2009
15.0358
14.9376
14.9039
14.9312
15.0153
15.1519
15.3367
15.5656
15.8351
16.1418
16.4834
16.8579
17.2643
17.702
18.1712
18.6725
19.2073
19.7772
20.3847
21.0326
21.7243
22.4641
23.257
24.1088
28.6169
15.5056
15.6906
15.9384
15.944
15.8195
15.5756
15.2623
14.9408
14.656
14.4289
14.2673
14.1724
14.1427
14.1751
14.2656
14.4099
14.6035
14.842
15.1211
15.4372
15.787
16.1682
16.5791
17.0187
17.4869
17.9841
18.5114
19.0702
19.6625
20.2906
20.9573
21.6656
22.4194
23.2234
24.0837
30.561
15.8127
15.3785
15.286
15.1191
14.9154
14.6754
14.4061
14.1489
13.9358
13.7819
13.6927
13.6689
13.7087
13.8096
13.9678
14.1795
14.4401
14.745
15.0897
15.4699
15.882
16.3234
16.7923
17.2879
17.8106
18.3614
18.9424
19.556
20.2049
20.8921
21.62
22.3907
23.2053
24.0644
24.9676
32.159
15.896
15.0394
14.7437
14.4872
14.2385
13.9991
13.7759
13.5827
13.4394
13.3565
13.3384
13.3861
13.4991
13.6759
13.9141
14.2106
14.561
14.9601
15.4021
15.8815
16.393
16.9323
17.4964
18.0839
18.6952
19.3324
19.9995
20.7022
21.4486
22.2478
23.1085
24.0379
25.0407
26.1172
27.2796
33.4756
15.8627
14.7131
14.294
13.9908
13.7233
13.4877
13.3009
13.165
13.0849
13.0677
13.1174
13.2365
13.427
13.6897
14.0244
14.4291
14.9
15.4314
16.0168
16.6489
17.3212
18.0279
18.7646
19.5284
20.3181
21.1342
21.9797
22.8607
23.7881
24.7854
25.8912
27.1497
28.6245
30.3848
32.4404
34.5583
15.784
14.414
13.9179
13.59
13.3188
13.0957
12.934
12.8435
12.8172
12.8573
12.9685
13.1561
13.4249
13.7792
14.221
14.7498
15.3624
16.0534
16.8168
17.6472
18.5413
19.4986
20.5219
21.6176
22.7957
24.07
25.4578
26.98
28.6615
30.5314
32.6226
34.9667
37.8206
41.4672
46.1545
45.6251
45.4782
41.1551
32.7134
20.7787
17.3048
13.4435
13.3204
8.38456
6.45252
5.42257
11.4854
3.99134
3.76159
4.48479
11.0858
3.00514
3.26936
4.41363
11.1024
2.78088
3.21023
4.49123
11.3052
2.74012
3.23617
4.61308
11.6367
2.75139
3.2767
4.71695
12.0088
2.77959
3.31873
4.80513
12.4112
2.81554
3.36238
4.88846
12.8428
2.85747
3.41048
4.97897
13.31
2.90566
3.46597
5.08037
13.8168
2.95899
3.52347
5.18046
14.3364
3.01582
3.58349
5.28067
14.8649
3.07649
3.64642
5.3813
15.3976
3.14113
3.7125
5.48251
15.9321
3.20973
3.78181
5.58428
16.4656
3.28219
3.85432
5.68642
16.9948
3.3583
3.92989
5.78857
17.5147
3.43782
4.0083
5.8902
18.0186
3.52048
4.08936
5.99079
18.4961
3.60599
4.17301
6.09024
18.9295
3.69407
4.25931
6.18853
19.2942
3.78458
4.34799
6.28203
19.5947
3.87745
4.43916
6.37026
19.869
3.96812
4.52612
6.45288
20.1302
4.04904
4.60105
6.53414
20.3149
4.11761
4.66168
6.5879
20.4463
4.17206
4.70438
6.62
20.5103
4.21067
4.72841
6.63095
20.4758
4.22769
4.73349
6.62244
20.3552
4.22079
4.71868
6.59427
20.1621
4.18801
4.68427
6.54995
19.9013
4.13018
4.63138
6.49601
19.5758
4.055
4.56639
6.43431
19.1953
3.97
4.49774
6.36862
18.7686
3.8829
4.43058
6.30239
18.3058
3.80038
4.36866
6.23839
17.8167
3.72614
4.31456
6.17836
17.31
3.66246
4.26966
6.12299
16.7919
3.61054
4.23443
6.07214
16.2681
3.57121
4.20932
6.02638
15.7425
3.54694
4.19854
5.9988
15.229
3.53973
4.2078
6.00307
14.7489
3.54824
4.23445
6.02885
14.2901
3.57125
4.27584
6.06655
13.8442
3.6076
4.32979
6.11121
13.4045
3.65622
4.39437
6.159
12.9658
3.71611
4.46801
6.20729
12.5231
3.78639
4.54947
6.25437
12.0716
3.86637
4.63794
6.29918
11.6061
3.95567
4.73309
6.34099
11.121
4.05441
4.83512
6.37886
10.6097
4.16344
4.94452
6.41068
10.0641
4.28388
5.06089
6.43102
9.47294
4.4146
5.17872
6.42558
8.8193
4.55037
5.28029
6.36268
8.07451
4.67645
5.34295
6.19373
7.17761
4.8858
5.38517
5.84393
6.02616
9.1674
8.7702
7.77608
4.57152
35.5108
15.6841
14.1289
13.5816
13.241
12.975
12.7688
12.6323
12.5717
12.5886
12.6773
12.8429
13.0933
13.4366
13.8785
14.4211
15.0617
15.7937
16.6079
17.4956
18.45
19.4683
20.5518
21.7062
22.9411
24.2692
25.7054
27.2666
28.9677
30.8173
32.8288
35.0021
37.3144
39.6965
41.9951
44.0828
36.3133
15.5827
13.8706
13.2899
12.9441
12.6866
12.4962
12.3787
12.3395
12.3805
12.5023
12.7071
13.0037
13.4002
13.8996
14.4977
15.183
15.939
16.7484
17.5956
18.4692
19.3623
20.2715
21.1947
22.1313
23.0773
24.0209
24.9434
25.7996
26.5064
27.0513
27.3689
27.3597
26.9229
25.9432
23.7922
36.9909
15.4819
13.632
13.029
12.6824
12.4332
12.2546
12.1485
12.1203
12.1727
12.309
12.5339
12.853
13.2692
13.7766
14.3588
14.9917
15.6492
16.3073
16.9477
17.5574
18.1274
18.6504
19.1125
19.4965
19.768
19.8505
19.7557
19.4971
19.1049
18.4966
17.6176
16.4122
14.7838
12.8846
10.6109
37.5354
15.3727
13.4056
12.7879
12.4424
12.1991
12.0266
11.9236
11.8959
11.948
12.0839
12.3083
12.6221
13.0176
13.4748
13.9637
14.4505
14.9044
15.3019
15.6265
15.8677
16.012
16.038
15.9067
15.5481
14.9989
14.3665
13.6342
12.7908
11.857
10.8168
9.67305
8.47353
7.23221
6.09362
5.01795
37.9642
15.2589
13.1874
12.5589
12.2144
11.9734
11.8009
11.6932
11.657
11.6988
11.8221
12.0276
12.3076
12.6408
12.9923
13.3217
13.5918
13.7737
13.85
13.8073
13.6286
13.284
12.7247
11.9007
11.0182
10.123
9.23684
8.36871
7.52966
6.72972
5.96774
5.27924
4.65197
4.06109
3.46295
3.15809
38.2881
15.1432
12.975
12.3366
11.992
11.7494
11.5713
11.4527
11.4018
11.4262
11.5272
11.6982
11.9185
12.1523
12.3537
12.4777
12.4896
12.3684
12.1001
11.665
11.0334
10.1763
9.10162
8.09692
7.18498
6.38813
5.70218
5.11158
4.61682
4.19033
3.78998
3.405
3.09008
2.87022
2.68479
2.65778
38.5167
15.0261
12.7672
12.1181
11.7714
11.5239
11.3361
11.2028
11.134
11.1372
11.2091
11.3323
11.4717
11.5782
11.6004
11.4954
11.2363
10.8089
10.1942
9.37751
8.36245
7.20572
6.20011
5.39081
4.75396
4.26598
3.88613
3.56287
3.27471
3.02469
2.83917
2.67164
2.54821
2.48455
2.46712
2.53561
38.659
14.9079
12.5631
11.9019
11.5512
11.2963
11.0965
10.9475
10.8607
10.8419
10.8803
10.9455
10.9883
10.9508
10.7814
10.4447
9.92507
9.2091
8.29466
7.21545
6.07171
5.10047
4.38454
3.87999
3.50244
3.2157
2.98677
2.81484
2.67039
2.55411
2.48057
2.42453
2.38922
2.38314
2.41631
2.51893
38.7236
14.789
12.3625
11.6878
11.3315
11.0681
10.856
10.6927
10.5903
10.5508
10.5533
10.5536
10.4906
10.3031
9.94468
9.39274
8.6414
7.69537
6.60527
5.49349
4.53449
3.8649
3.40128
3.07134
2.85094
2.69171
2.57178
2.49574
2.44243
2.40377
2.37866
2.36273
2.35875
2.3745
2.4243
2.53801
38.719
14.6701
12.1658
11.4762
11.1135
10.8416
10.6189
10.4449
10.3311
10.2735
10.2393
10.1709
9.99936
9.66506
9.13222
8.39629
7.46533
6.3885
5.28693
4.32934
3.63743
3.16224
2.85691
2.65676
2.53852
2.46449
2.41947
2.39519
2.38158
2.37362
2.36986
2.37024
2.37821
2.40172
2.45612
2.57199
38.6534
14.5516
11.9735
11.268
10.8988
10.6199
10.3898
10.2099
10.0899
10.0173
9.9469
9.80928
9.53184
9.06162
8.37933
7.50054
6.46078
5.36517
4.37638
3.62446
3.10932
2.77695
2.58522
2.47576
2.41816
2.39138
2.38254
2.38332
2.38797
2.39361
2.39953
2.40684
2.41933
2.44505
2.49967
2.6144
38.5345
14.4343
11.7862
11.0645
10.6894
10.4056
10.1725
9.99248
9.87157
9.78738
9.68205
9.47707
9.10056
8.51058
7.70949
6.7354
5.66046
4.63125
3.79911
3.20156
2.81663
2.59314
2.47238
2.41272
2.39018
2.38874
2.39781
2.4109
2.42427
2.4362
2.44659
2.45696
2.47117
2.49716
2.55064
2.66337
38.3696
14.3185
11.6048
10.8668
10.4869
10.2013
9.96995
9.7957
9.67887
9.58619
9.44788
9.17971
8.71281
8.02098
7.13417
6.1126
5.06128
4.13771
3.44279
2.96385
2.67647
2.5193
2.44113
2.41071
2.4083
2.42042
2.43853
2.45762
2.47507
2.4899
2.50241
2.51428
2.52928
2.55516
2.60747
2.71848
38.1657
14.2049
11.4298
10.6759
10.2927
10.0088
9.78421
9.62119
9.5129
9.41457
9.24698
8.92062
8.37065
7.59584
6.65663
5.62733
4.63539
3.82229
3.227
2.84017
2.62128
2.50596
2.45456
2.442
2.45106
2.47036
2.49287
2.51462
2.53374
2.54976
2.56329
2.57608
2.59176
2.6178
2.6692
2.77771
37.929
14.0937
11.2617
10.4926
10.108
9.82921
9.61622
9.46934
9.37339
9.2729
9.0805
8.69942
8.07416
7.23533
6.27048
5.26289
4.34466
3.62406
3.10886
2.78968
2.61544
2.52818
2.49448
2.49283
2.50832
2.53118
2.55547
2.57797
2.59736
2.61361
2.62759
2.64111
2.65767
2.68399
2.73462
2.84097
37.6652
13.9853
11.101
10.3176
9.93342
9.66316
9.46611
9.33953
9.25924
9.16003
8.94533
8.51363
7.82429
6.93662
5.96326
4.99717
4.15482
3.50609
3.05395
2.78457
2.64155
2.57357
2.55144
2.55634
2.57518
2.5994
2.62385
2.64589
2.66464
2.68047
2.69453
2.7087
2.72611
2.75314
2.80353
2.90818
37.3795
13.8796
10.9476
10.151
9.76929
9.5107
9.33331
9.23029
9.16825
9.07348
8.83822
8.3609
7.61778
6.69402
5.72502
4.80755
4.03662
3.44274
3.04064
2.81002
2.68966
2.63502
2.62039
2.62902
2.64923
2.67336
2.69686
2.71753
2.73495
2.74985
2.76359
2.77822
2.79674
2.82493
2.87568
2.97917
37.0763
13.7767
10.8018
9.99317
9.61562
9.37147
9.21671
9.1396
9.09793
9.00989
8.75603
8.23833
7.45048
6.50268
5.54416
4.67444
3.96416
3.42087
3.06055
2.85778
2.7538
2.70844
2.69855
2.70901
2.72922
2.75221
2.77389
2.79245
2.80793
2.82127
2.8344
2.84946
2.86926
2.89903
2.95078
3.05374
36.7596
13.6765
10.6634
9.84391
9.47219
9.24478
9.11477
9.06515
9.04584
8.96594
8.69556
8.14249
7.31795
6.35496
5.41107
4.58679
3.92524
3.42655
3.10262
2.9218
2.83016
2.79133
2.78429
2.79522
2.8144
2.8354
2.85451
2.8703
2.88307
2.8945
2.90677
2.92215
2.94334
2.97508
3.02845
3.13158
36.433
13.5789
10.532
9.70303
9.33857
9.12971
9.0258
9.00439
9.00924
8.93855
8.65359
8.06984
7.21609
6.24479
5.31906
4.53508
3.91096
3.45169
3.16076
2.99825
2.91626
2.88207
2.87654
2.88694
2.90426
2.92252
2.93829
2.95054
2.96021
2.96936
2.98046
2.996
3.01863
3.05267
3.1083
3.21237
36.0993
13.4835
10.4075
9.5702
9.21418
9.02513
8.94798
8.955
8.98538
8.92479
8.62701
8.01713
7.14127
6.16726
5.26172
4.50773
3.91799
3.49612
3.23235
3.08484
3.01046
2.97953
2.9745
2.98356
2.9983
3.01296
3.02469
3.03297
3.03909
3.04552
3.05512
3.07062
3.09471
3.13138
3.18992
3.29572
35.7612
13.3903
10.2894
9.44501
9.09836
8.92984
8.87955
8.91516
8.97182
8.92191
8.613
7.98155
7.09041
6.11825
5.23286
4.50052
3.94267
3.55588
3.31509
3.17995
3.11159
3.08286
3.0775
3.0845
3.09576
3.10621
3.11343
3.11723
3.1193
3.12256
3.13031
3.14557
3.17114
3.21075
3.27285
3.38127
35.4207
13.2989
10.1774
9.32698
8.99041
8.84271
8.81886
8.88321
8.96644
8.92755
8.60924
7.96076
7.06091
6.09423
5.22586
4.51208
3.98406
3.62818
3.40698
3.28229
3.2187
3.19127
3.18486
3.18896
3.19614
3.20186
3.20403
3.20282
3.20031
3.19993
3.20547
3.22029
3.24734
3.29023
3.35659
3.46857
35.0797
13.2091
10.0709
9.21564
8.88962
8.76263
8.76452
8.8575
8.96737
8.93967
8.61374
7.95277
7.05065
6.0923
5.2348
4.54107
4.0423
3.7117
3.50697
3.39093
3.33097
3.3041
3.29582
3.29631
3.29885
3.29931
3.29591
3.2891
3.28145
3.27694
3.2799
3.29404
3.32255
3.36895
3.44032
3.55713
34.7396
13.1207
9.96959
9.11049
8.79529
8.68861
8.71532
8.83661
8.97299
8.95648
8.62486
7.95586
7.05766
6.11005
5.25966
4.58553
4.11428
3.80505
3.61408
3.50505
3.44794
3.42063
3.40958
3.40584
3.40322
3.3979
3.38835
3.37536
3.36196
3.3528
3.35274
3.36586
3.39553
3.44549
3.52304
3.64657
34.4018
13.0334
9.87301
9.01102
8.70673
8.61974
8.67023
8.81935
8.98193
8.97647
8.64118
7.96828
7.07782
6.14136
5.30221
4.64801
4.19877
3.90713
3.72742
3.6246
3.56884
3.53991
3.52532
3.51678
3.50849
3.49688
3.4806
3.46078
3.44101
3.42662
3.42304
3.43459
3.4649
3.51897
3.6041
3.73476
34.0669
12.9471
9.78075
8.91677
8.62334
8.55523
8.62842
8.80473
8.99302
8.99845
8.66157
7.98845
7.1077
6.18522
5.3612
4.72523
4.29402
4.01691
3.8476
3.74857
3.69256
3.661
3.6422
3.62834
3.61391
3.59548
3.57187
3.54454
3.51773
3.49752
3.48984
3.4992
3.52969
3.58829
3.68066
3.81656
33.7358
12.8615
9.69244
8.82728
8.54454
8.49442
8.58916
8.79193
9.00527
9.0215
8.68512
8.0151
7.14631
6.24021
5.43346
4.81434
4.39905
4.1353
3.97306
3.87568
3.81805
3.78299
3.75937
3.73974
3.71872
3.69293
3.66134
3.62581
3.59129
3.56467
3.55234
3.55894
3.58956
3.65219
3.75036
3.88934
33.4095
12.7767
9.60773
8.74213
8.46983
8.43675
8.55193
8.78027
9.01788
9.04479
8.71097
8.04717
7.19264
6.30479
5.51611
4.91505
4.51442
4.26037
4.10234
4.00471
3.94427
3.90495
3.87602
3.85022
3.82218
3.78852
3.7483
3.70385
3.66098
3.62744
3.61001
3.61341
3.64393
3.70945
3.81147
3.95087
33.0884
12.6925
9.52623
8.66099
8.39878
8.3818
8.51649
8.76938
9.02981
9.06673
8.73751
8.08334
7.24557
6.37812
5.61078
5.02721
4.63786
4.39039
4.234
4.13445
4.07019
4.02599
3.99137
3.95908
3.92366
3.88159
3.83208
3.77806
3.72633
3.68555
3.66272
3.66254
3.69215
3.75892
3.86184
3.99834
32.7729
12.6088
9.44768
8.58351
8.33105
8.32946
8.48254
8.75866
9.04037
9.0871
8.76447
8.12269
7.30426
6.45973
5.71475
5.14761
4.76707
4.52413
4.36655
4.26364
4.19478
4.14527
4.10469
4.0657
4.02258
3.97161
3.91219
3.84807
3.78726
3.73916
3.71077
3.70653
3.73389
3.79915
3.89879
4.0281
32.4633
12.5254
9.37161
8.50938
8.26658
8.27942
8.44978
8.74778
9.04932
9.10592
8.79176
8.16481
7.36789
6.54797
5.82553
5.27343
4.89934
4.65791
4.49813
4.39099
4.31703
4.26198
4.21537
4.16956
4.11848
4.05817
3.98831
3.91384
3.84414
3.78895
3.7548
3.7456
3.76838
3.82789
3.91888
4.03595
32.1597
12.4413
9.29848
8.43879
8.20509
8.23137
8.418
8.73653
9.05653
9.12324
8.81934
8.20935
7.43564
6.64122
5.94089
5.40226
5.03254
4.79049
4.62736
4.51539
4.43607
4.37546
4.32287
4.27028
4.21107
4.14103
4.06041
3.97578
3.89795
3.83625
3.79555
3.77921
3.79355
3.84148
3.91751
4.01539
31.8658
12.3606
9.22845
8.37143
8.14628
8.18508
8.38703
8.72476
9.06197
9.13919
8.84721
8.25596
7.50667
6.73796
6.05875
5.53195
5.16476
4.92043
4.75301
4.63582
4.55113
4.48514
4.42682
4.36757
4.30017
4.22016
4.12876
4.03481
3.95035
3.88362
3.83341
3.80573
3.80548
3.83475
3.88988
3.96587
31.5808
12.283
9.16123
8.307
8.08991
8.14036
8.35675
8.71237
9.0657
9.15391
8.87536
8.30428
7.58009
6.83668
6.1772
5.66049
5.29424
5.04631
4.87397
4.75143
4.66158
4.59059
4.52695
4.46134
4.38578
4.29572
4.19404
4.09244
4.00376
3.92784
3.86574
3.82069
3.79793
3.80148
3.83189
3.89034
31.3043
12.2077
9.0965
8.24526
8.03575
8.09706
8.32705
8.69935
9.06783
9.16756
8.90376
8.3539
7.65498
6.93591
6.2944
5.78603
5.41936
5.16685
4.98922
4.86146
4.76689
4.69151
4.62315
4.55162
4.46808
4.36822
4.25744
4.15051
4.05684
3.97218
3.89058
3.81799
3.76321
3.73603
3.73917
3.79388
31.0355
12.1341
9.03401
8.18597
7.98361
8.05507
8.29786
8.68569
9.0685
9.18031
8.93237
8.4044
7.7304
7.0342
6.40865
5.90692
5.53871
5.2809
5.09791
4.96532
4.8667
4.78772
4.71542
4.63858
4.54746
4.43856
4.32085
4.21265
4.1158
4.01448
3.90158
3.78831
3.69365
3.63796
3.62773
3.68964
30.7742
12.0617
8.97349
8.12891
7.93332
8.01428
8.26916
8.67146
9.06789
9.1923
8.96111
8.45532
7.80542
7.13024
6.51848
6.02179
5.6512
5.3876
5.19937
5.06253
4.96074
4.87916
4.80392
4.72261
4.62458
4.50817
4.38713
4.28184
4.17883
4.04875
3.88862
3.72235
3.58703
3.51354
3.50706
3.5863
30.5199
11.9902
8.91472
8.07389
7.88474
7.97462
8.24091
8.65673
9.06619
9.20368
8.9899
8.50618
7.87913
7.22281
6.62267
6.12959
5.75621
5.48651
5.29308
5.15274
5.04883
4.96586
4.88889
4.80429
4.70046
4.57918
4.46048
4.36091
4.24358
4.06738
3.84256
3.6177
3.45071
3.37535
3.3871
3.48912
30.2723
11.9192
8.85747
8.02073
7.83774
7.93602
8.21311
8.6416
9.06361
9.21458
9.01859
8.55646
7.95064
7.31082
6.72014
6.22946
5.85312
5.57741
5.37876
5.2357
5.13083
5.04788
4.97076
4.88443
4.77656
4.65454
4.54469
4.45128
4.3059
4.06354
3.76088
3.48231
3.29937
3.23587
3.27475
3.40223
30.0312
11.8485
8.80157
7.96926
7.79219
7.89843
8.18576
8.62618
9.06033
9.22509
9.04702
8.6056
8.01898
7.3931
6.80974
6.32032
5.94088
5.65985
5.45646
5.31112
5.20651
5.12526
5.04997
4.96415
4.85491
4.73821
4.64306
4.55284
4.3617
4.03437
3.65114
3.33213
3.14964
3.1064
3.17526
3.32819
29.7964
11.7778
8.74682
7.91934
7.748
7.8618
8.15888
8.61056
9.05653
9.23527
9.07491
8.65291
8.08304
7.46825
6.88997
6.40064
6.01791
5.73209
5.52516
5.37878
5.27582
5.19791
5.12691
5.04469
4.93788
4.83498
4.75871
4.66498
4.41032
3.98616
3.52846
3.18469
3.01411
2.99775
3.09325
3.269
29.5676
11.707
8.69306
7.87083
7.70507
7.82609
8.13247
8.59486
9.05236
9.24509
9.10189
8.69751
8.14152
7.53475
6.95919
6.46868
6.08233
5.79214
5.5826
5.43676
5.33777
5.26584
5.20198
5.12746
5.02803
4.94814
4.89259
4.78737
4.45699
3.93307
3.40996
3.05317
2.90153
2.91317
3.03197
3.22703
29.3447
11.6359
8.64016
7.82359
7.66332
7.79126
8.10655
8.57916
9.0479
9.25445
9.12746
8.73842
8.19304
7.59109
7.01596
6.52305
6.13273
5.83858
5.62729
5.48348
5.39083
5.32839
5.27577
5.21389
5.12756
5.07752
5.04438
4.92253
4.51274
3.89225
3.31126
2.95058
2.82194
2.85813
2.9926
3.20274
29.1277
11.5643
8.58798
7.77752
7.62266
7.75727
8.08113
8.56353
9.04323
9.26319
9.15103
8.7746
8.23634
7.63609
7.05934
6.56301
6.16843
5.87072
5.65859
5.51845
5.4347
5.38541
5.34895
5.30521
5.23813
5.22429
5.21366
5.07615
4.59226
3.88263
3.25067
2.89341
2.78008
2.82843
2.97262
3.19495
28.9163
11.4924
8.53641
7.7325
7.58302
7.7241
8.05621
8.54801
9.03834
9.27105
9.17193
8.80502
8.27033
7.66895
7.08892
6.58835
6.18923
5.88825
5.67625
5.54153
5.46954
5.43721
5.42187
5.40203
5.36125
5.38822
5.39926
5.25435
4.71178
3.93022
3.25817
2.8824
2.76762
2.81989
2.97
3.20249
28.7105
11.4198
8.48534
7.68844
7.54434
7.69169
8.03178
8.53263
9.03319
9.27773
9.1895
8.82877
8.29422
7.68928
7.10466
6.59914
6.19502
5.89079
5.68044
5.55344
5.4954
5.48339
5.49384
5.50386
5.49714
5.56463
5.59876
5.46553
4.9036
4.06343
3.32563
2.90919
2.77958
2.82951
2.98297
3.2242
28.5102
11.3467
8.43472
7.64525
7.50655
7.66004
8.00785
8.51741
9.0277
9.28288
9.20305
8.84508
8.30752
7.69703
7.10676
6.59546
6.18536
5.87989
5.67242
5.5533
5.51099
5.52219
5.56252
5.60844
5.64158
5.74771
5.81722
5.72399
5.17543
4.28474
3.45816
2.974
2.81428
2.85545
3.01013
3.25904
28.3154
11.2731
8.38446
7.60285
7.46959
7.62909
7.98441
8.50233
9.02176
9.28613
9.21195
8.85332
8.30996
7.69235
7.09549
6.57718
6.1622
5.85695
5.65166
5.53987
5.51314
5.54971
5.62355
5.71026
5.79072
5.93167
6.05121
6.02828
5.53398
4.60909
3.67164
3.08363
2.87275
2.89683
3.05043
3.30606
28.1259
11.1989
8.33452
7.56119
7.43342
7.59883
7.96144
8.48736
9.01521
9.28709
9.21564
8.85307
8.30154
7.67554
7.07114
6.54491
6.12815
5.82201
5.61773
5.51179
5.49873
5.56083
5.67034
5.80029
5.93444
6.1094
6.29119
6.36625
5.97952
5.05425
3.99087
3.25284
2.959
2.95365
3.10304
3.36443
27.9418
11.1243
8.28487
7.52021
7.39798
7.56923
7.93892
8.47245
9.00788
9.28536
9.21363
8.84407
8.28241
7.64697
7.03336
6.50239
6.08351
5.77531
5.5704
5.46775
5.46529
5.55046
5.69487
5.86777
6.05493
6.26955
6.52311
6.7144
6.49615
5.63578
4.45208
3.50995
3.08171
3.02706
3.16735
3.43335
27.763
11.0493
8.23548
7.47985
7.36325
7.54027
7.91683
8.45755
8.99957
9.28054
9.2055
8.82624
8.2529
7.60716
6.98399
6.45085
6.02908
5.7173
5.51018
5.40764
5.41109
5.51375
5.68898
5.90296
6.13921
6.40653
6.73378
7.04059
7.04705
6.35658
5.09625
3.89959
3.25897
3.121
3.24302
3.5122
27.5895
10.974
8.18636
7.44009
7.32918
7.51191
7.89515
8.44257
8.99005
9.27226
9.19098
8.79965
8.2134
7.55597
6.92642
6.3912
5.96598
5.64908
5.43835
5.33239
5.33568
5.44712
5.6451
5.89722
6.18176
6.49952
6.8948
7.31321
7.57224
7.18034
5.9675
4.49897
3.53083
3.24409
3.33019
3.6006
27.4212
10.8985
8.1375
7.40088
7.29574
7.48413
7.87383
8.42742
8.9791
9.2602
9.16989
8.76454
8.16452
7.49487
6.86211
6.32464
5.89566
5.57329
5.35673
5.24338
5.23988
5.34976
5.55823
5.83881
6.16882
6.54552
6.98607
7.50733
7.99944
8.0159
7.0687
5.40106
3.97733
3.40874
3.42957
3.69863
27.2581
10.8229
8.08894
7.36223
7.26292
7.45692
7.85285
8.412
8.96648
9.24406
9.14219
8.72127
8.10668
7.42645
6.79184
6.25225
5.81929
5.49099
5.26635
5.14194
5.12561
5.22361
5.4281
5.72133
6.08456
6.51039
7.01082
7.61168
8.27231
8.7269
8.30693
6.69343
4.7609
3.67343
3.54786
3.80736
27.1002
10.7474
8.0407
7.3241
7.23069
7.43025
7.83215
8.39619
8.95194
9.22363
9.10793
8.67024
8.04007
7.35314
6.71672
6.17499
5.73774
5.40256
5.16702
5.02974
4.99579
5.07315
5.25941
5.54633
5.92453
6.38494
6.93292
7.58846
8.374
9.18007
9.4625
8.36445
6.06625
4.16547
3.70153
3.92982
26.9474
10.6722
7.99281
7.28651
7.19905
7.40411
7.81169
8.37985
8.93528
9.19874
9.06729
8.61203
7.96663
7.27539
6.63756
6.09361
5.65181
5.30916
5.06117
4.90884
4.85374
4.90424
5.06092
5.32247
5.68965
6.16277
6.74454
7.45203
8.31207
9.31665
10.2369
10.1663
8.08902
5.24252
3.94649
4.06608
26.7996
10.5973
7.9453
7.24944
7.16798
7.37846
7.79142
8.36287
8.91627
9.1693
9.02049
8.54682
7.88847
7.19403
6.55507
6.00856
5.56238
5.2123
4.95126
4.78103
4.70246
4.72241
4.84233
5.06437
5.39615
5.84879
6.43132
7.1614
8.06572
9.17441
10.4534
11.4914
10.758
7.3572
4.4057
4.22747
26.6569
10.523
7.89825
7.21292
7.13748
7.35331
7.77128
8.34512
8.89476
9.13533
8.96794
8.47544
7.80708
7.11004
6.47005
5.92037
5.47085
5.1133
4.838
4.64687
4.54461
4.53245
4.61206
4.78638
5.06553
5.46739
6.01374
6.72767
7.63862
8.78243
10.2072
11.8726
13.0293
11.0962
6.01798
4.52968
26.5192
10.4496
7.85187
7.17715
7.10775
7.32882
7.75139
8.32665
8.87087
9.09733
8.91076
8.4
7.72383
7.0248
6.38357
5.8308
5.37817
5.01351
4.72382
4.51027
4.38317
4.33865
4.37719
4.50077
4.71868
5.04942
5.52079
6.16918
7.03725
8.16458
9.61076
11.4544
13.747
15.1643
10.8782
7.21634
26.414
10.3922
7.81541
7.14898
7.08431
7.30942
7.73534
8.31096
8.84941
9.06281
8.85922
8.33378
7.65131
6.95019
6.30668
5.75205
5.29681
4.92552
4.62288
4.3893
4.23621
4.16023
4.15901
4.23292
4.3887
4.64145
5.01646
5.55266
6.30386
7.3311
8.7001
10.5115
12.9266
16.2279
18.3852
9.55031
26.3118
10.3356
7.77951
7.1214
7.06145
7.2905
7.71946
8.29475
8.82641
9.02614
8.80578
8.2678
7.58043
6.87823
6.23337
5.67846
5.22167
4.84533
4.53238
4.28308
4.10939
4.01065
3.98043
4.01842
4.12869
4.32209
4.61874
5.05213
5.67339
6.55083
7.76702
9.42333
11.6644
14.7104
18.8651
15.236
26.2128
10.2799
7.74382
7.09398
7.03872
7.27163
7.7033
8.27747
8.80112
8.98613
8.74866
8.19915
7.50752
6.80463
6.15891
5.60426
5.14615
4.76534
4.44311
4.17974
3.98812
3.87064
3.81706
3.82648
3.9
4.04392
4.27225
4.60982
5.09513
5.78802
6.77236
8.16875
10.1466
12.9437
16.9958
23.6606
25.9042
22.8859
19.2393
11.5423
12.2072
13.0749
14.0661
13.7125
10.0222
11.6445
13.6612
15.506
8.80855
10.5898
13.1472
16.7964
7.91294
9.72334
12.6097
17.7772
7.25516
9.02892
12.0998
18.594
6.77655
8.49378
11.6658
19.3018
6.42581
8.08486
11.3096
19.9257
6.16512
7.77152
11.0223
20.4826
5.968
7.52943
10.7923
20.9849
5.8161
7.34023
10.6089
21.4421
5.69671
7.19048
10.4629
21.8622
5.60101
7.07037
10.347
22.2516
5.52278
6.97277
10.255
22.6161
5.45765
6.89246
10.1822
22.9602
5.40245
6.82558
10.1251
23.2882
5.35488
6.76926
10.0806
23.6036
5.31323
6.72131
10.0465
23.9095
5.2762
6.68004
10.021
24.2086
5.24277
6.64412
10.0027
24.5036
5.21213
6.61251
9.99038
24.7966
5.18367
6.58441
9.98315
25.0899
5.15695
6.55926
9.9804
25.3855
5.13174
6.5367
9.98177
25.6854
5.10794
6.51655
9.98719
25.9917
5.08556
6.49879
9.99688
26.3066
5.06468
6.48353
10.0113
26.6323
5.04545
6.47097
10.0313
26.9715
5.02801
6.46138
10.058
27.3273
5.01254
6.45508
10.0934
27.7033
4.99927
6.45228
10.1386
28.1033
4.98694
6.45028
10.1849
28.5149
4.97545
6.44888
10.2318
28.9397
4.96499
6.44825
10.2796
29.3779
4.9558
6.44863
10.3284
29.8313
4.94819
6.45035
10.3785
30.3007
4.94253
6.45384
10.4302
30.7873
4.93933
6.45959
10.484
31.2921
4.9392
6.46821
10.5403
31.8162
4.94295
6.4804
10.5997
32.3605
4.95164
6.49689
10.6628
32.9264
4.96525
6.51842
10.7302
33.5151
4.98413
6.54598
10.8029
34.128
5.00872
6.58081
10.8816
34.7668
5.03917
6.62443
10.9675
35.4337
5.07482
6.67887
11.0615
36.1322
5.11639
6.74032
11.1641
36.8677
5.16394
6.80435
11.2778
37.646
5.21611
6.86855
11.4089
38.4748
5.27601
6.93571
11.5547
39.3698
5.35273
7.01566
11.699
40.3514
5.44971
7.11111
11.8396
41.4265
5.56887
7.2247
11.9747
42.5877
5.71124
7.3579
12.0912
43.7785
5.87684
7.49753
12.0937
44.8224
6.07473
7.69421
12.1593
46.023
6.33156
8.02851
12.4902
48.3137
6.54715
8.35315
12.9862
50.6079
6.72627
8.5947
13.5214
53.4457
6.8399
8.76794
16.0104
56.3969
26.092
10.2114
7.6995
7.06013
7.01083
7.24845
7.68303
8.25481
8.76727
8.93367
8.6763
8.11506
7.41996
6.71745
6.07196
5.51844
5.05943
4.67453
4.34327
4.06664
3.85987
3.72695
3.65653
3.6451
3.69075
3.79581
3.96913
4.22758
4.59666
5.11757
5.85019
6.88792
8.3779
10.548
13.7956
18.9409
25.9759
10.1447
7.65573
7.02664
6.98321
7.22532
7.66219
8.23031
8.7298
8.87622
8.59911
8.02683
7.32867
6.62664
5.9815
5.42875
4.96849
4.57951
4.23995
3.95134
3.73073
3.58271
3.49915
3.47039
3.49199
3.56309
3.68801
3.87471
4.13919
4.50354
4.99692
5.6563
6.52401
7.64064
9.03669
10.7246
25.8645
10.0798
7.61293
6.99377
6.9561
7.20244
7.64095
8.20414
8.68914
8.81504
8.51937
7.93754
7.23741
6.53661
5.89261
5.34103
4.88
4.48779
4.14234
3.84564
3.61577
3.45766
3.36602
3.326
3.33139
3.37929
3.47056
3.60934
3.80687
4.07775
4.44141
4.92334
5.55559
6.3756
7.41138
8.63123
25.7575
10.0166
7.57108
6.96154
6.92949
7.17977
7.61918
8.17618
8.64534
8.75051
8.43759
7.84771
7.14668
6.44788
5.80589
5.25587
4.79457
4.40007
4.05125
3.75043
3.51624
3.3539
3.25693
3.21029
3.20559
3.23833
3.30671
3.41447
3.56933
3.78187
4.06654
4.44293
4.93715
5.58344
6.42046
7.47596
25.6548
9.95534
7.53017
6.92996
6.90336
7.15724
7.5968
8.14633
8.59859
8.68302
8.35429
7.75783
7.05694
6.36093
5.72192
5.17386
4.7128
4.317
3.96693
3.66594
3.43179
3.26895
3.16963
3.11985
3.1093
3.1319
3.18557
3.27325
3.40044
3.57507
3.80834
4.11597
4.51972
5.04982
5.7469
6.66644
25.556
9.89589
7.49019
6.89904
6.87769
7.1348
7.57371
8.11457
8.54899
8.61298
8.26995
7.66834
6.96863
6.27625
5.64123
5.09556
4.6352
4.23874
3.88985
3.59263
3.36167
3.20082
3.1012
3.05069
3.03687
3.05305
3.09769
3.17261
3.28177
3.43132
3.63035
3.89194
4.2348
4.68613
5.28652
6.10108
25.4609
9.8383
7.45114
6.86879
6.85246
7.1124
7.54983
8.08081
8.49663
8.5408
8.18502
7.57969
6.88217
6.19427
5.56435
5.02152
4.56228
4.16574
3.82052
3.53014
3.30468
3.14761
3.04975
2.99912
2.98354
2.99627
3.03565
3.10261
3.2
3.33274
3.50847
3.73849
4.03937
4.43613
4.96828
5.70368
25.3693
9.78255
7.41302
6.83921
6.82765
7.08996
7.52506
8.04504
8.44166
8.46686
8.09994
7.49228
6.79795
6.11543
5.49168
4.95216
4.49441
4.09875
3.75887
3.47727
3.25921
3.10695
3.01173
2.96179
2.94564
2.95692
2.99351
3.05561
3.14525
3.2665
3.42593
3.63356
3.90449
4.26208
4.74456
5.41997
25.281
9.72864
7.3758
6.81031
6.80322
7.06742
7.49935
8.00728
8.38429
8.39157
8.01511
7.40648
6.71634
6.04005
5.42339
4.88767
4.43133
4.03826
3.70556
3.43359
3.22373
3.07671
2.98456
2.93587
2.92011
2.93118
2.9665
3.02567
3.11013
3.22327
3.37087
3.56201
3.81069
4.13905
4.58415
5.21337
25.1956
9.67641
7.33968
6.78208
6.77913
7.04467
7.47263
7.96759
8.32476
8.3153
7.93092
7.32265
6.63766
5.96836
5.35923
4.8281
4.37349
3.98519
3.66085
3.39841
3.19684
3.05511
2.96613
2.91906