/*--------------------------------*- C++ -*----------------------------------*\
| =========                 |                                                 |
| \\      /  F ield         | OpenFOAM: The Open Source CFD Toolbox           |
|  \\    /   O peration     | Version:  v2012                                 |
|   \\  /    A nd           | Website:  www.openfoam.com                      |
|    \\/     M anipulation  |                                                 |
\*---------------------------------------------------------------------------*/
FoamFile
{
    version     2.0;
    format      ascii;
    class       volScalarField;
    location    "626";
    object      p;
}
// * * * * * * * * * * * * * * * * * * * * * * * * * * * * * * * * * * * * * //

dimensions      [0 2 -2 0 0 0 0];


internalField   nonuniform List<scalar> 
6108
(
0.327657
0.327641
0.327699
0.327812
0.327962
0.328138
0.328331
0.328536
0.328749
0.328967
0.329188
0.329411
0.329635
0.329862
0.330093
0.330329
0.330576
0.330883
0.331389
0.332125
0.327647
0.327635
0.327699
0.327816
0.32797
0.328149
0.328346
0.328554
0.328771
0.328994
0.32922
0.329449
0.329681
0.329915
0.330153
0.330393
0.330634
0.330897
0.331202
0.331468
0.327532
0.327542
0.327625
0.327757
0.327922
0.328109
0.32831
0.328522
0.328742
0.328967
0.329195
0.329426
0.329659
0.329896
0.330134
0.330369
0.330597
0.330826
0.331022
0.331114
0.327334
0.327392
0.327513
0.327672
0.327857
0.328056
0.328267
0.328485
0.328708
0.328935
0.329164
0.329396
0.329629
0.329863
0.330097
0.330323
0.330541
0.330749
0.33091
0.330964
0.327073
0.327203
0.327381
0.327578
0.327787
0.328007
0.32823
0.328456
0.328685
0.328915
0.329147
0.32938
0.329613
0.329847
0.330079
0.330302
0.330515
0.330712
0.330857
0.3309
0.326757
0.326983
0.327238
0.327482
0.327723
0.327965
0.328202
0.328438
0.328673
0.328907
0.329142
0.329376
0.329611
0.329846
0.330078
0.330301
0.330515
0.330712
0.330857
0.3309
0.326405
0.326761
0.327104
0.3274
0.327675
0.327937
0.328188
0.328432
0.328673
0.328912
0.329149
0.329385
0.329622
0.329859
0.330094
0.330321
0.330539
0.330748
0.330909
0.330963
0.326104
0.326585
0.327009
0.327349
0.327651
0.327928
0.328191
0.328443
0.328689
0.328932
0.329172
0.329411
0.329649
0.329889
0.33013
0.330366
0.330595
0.330825
0.331021
0.331113
0.325992
0.326529
0.326984
0.327338
0.327651
0.327937
0.328204
0.328461
0.328709
0.328953
0.329193
0.329431
0.329669
0.329907
0.330148
0.33039
0.330632
0.330895
0.3312
0.331467
0.326291
0.326612
0.326977
0.327325
0.327636
0.327921
0.328188
0.328441
0.328687
0.328926
0.329161
0.329394
0.329624
0.329855
0.330088
0.330326
0.330574
0.330881
0.331388
0.332124
0.329063
0.328446
0.328027
0.327776
0.329073
0.328446
0.328019
0.327763
0.328884
0.328272
0.327857
0.327623
0.328505
0.327933
0.327554
0.327369
0.327961
0.32745
0.327121
0.327013
0.327294
0.326858
0.326556
0.326548
0.326532
0.326132
0.32577
0.325932
0.325339
0.32496
0.324642
0.325226
0.323153
0.323591
0.324039
0.324137
0.324171
0.325593
0.325689
0.319035
0.78029
0.779131
0.778463
0.778502
0.778324
0.776463
0.769405
0.754805
0.73443
0.710371
0.683868
0.655883
0.627181
0.598404
0.570096
0.542719
0.516655
0.492206
0.469595
0.448968
0.430398
0.41389
0.399385
0.386786
0.375965
0.36677
0.359037
0.352596
0.347278
0.342921
0.339387
0.336543
0.334264
0.33245
0.33102
0.329908
0.779766
0.778212
0.778025
0.778817
0.77901
0.776375
0.767567
0.752268
0.732408
0.708872
0.682815
0.655193
0.626778
0.598218
0.570066
0.542792
0.516789
0.492369
0.469764
0.449125
0.430533
0.413995
0.399461
0.386838
0.375996
0.366785
0.359042
0.352598
0.347281
0.342922
0.33939
0.336556
0.334283
0.332473
0.331042
0.329926
0.7801
0.778247
0.778206
0.778653
0.777329
0.772115
0.761424
0.745733
0.726123
0.703125
0.677679
0.650616
0.622679
0.594511
0.566679
0.539668
0.513886
0.489663
0.46724
0.44678
0.428365
0.412004
0.39765
0.385205
0.37454
0.3655
0.357921
0.35163
0.346458
0.34224
0.338831
0.336097
0.333911
0.332169
0.330791
0.329712
0.782122
0.779823
0.77887
0.777221
0.773075
0.765256
0.753192
0.73711
0.717475
0.694803
0.669826
0.643248
0.615751
0.587966
0.560465
0.53375
0.508249
0.484306
0.462179
0.442033
0.423953
0.407946
0.393957
0.381882
0.371582
0.362897
0.355655
0.34968
0.344799
0.340849
0.337682
0.335157
0.333146
0.331544
0.330272
0.329274
0.785164
0.781956
0.778953
0.77458
0.767601
0.757509
0.744032
0.7272
0.707237
0.684568
0.659766
0.633438
0.606211
0.578693
0.551458
0.525023
0.499833
0.476246
0.454527
0.434843
0.417272
0.40181
0.388387
0.376884
0.367149
0.359011
0.352287
0.346793
0.342354
0.338805
0.335997
0.333784
0.332032
0.330636
0.32952
0.32864
0.787575
0.782739
0.777377
0.770327
0.760807
0.748641
0.733652
0.715818
0.695272
0.672329
0.647445
0.62115
0.594024
0.566657
0.539625
0.513459
0.488619
0.465474
0.444292
0.425232
0.408356
0.39364
0.380992
0.370271
0.361303
0.353902
0.347874
0.343027
0.339177
0.336161
0.333827
0.332027
0.330618
0.329491
0.328576
0.327848
0.787629
0.78091
0.773464
0.763996
0.752257
0.73823
0.721765
0.702839
0.681539
0.658112
0.632931
0.606473
0.579284
0.551948
0.525049
0.499134
0.474681
0.452066
0.431551
0.413281
0.397292
0.383528
0.371865
0.36213
0.354125
0.347646
0.342487
0.338441
0.335316
0.332951
0.331201
0.329922
0.328951
0.328167
0.327503
0.326953
0.784307
0.775977
0.766861
0.755388
0.741796
0.726141
0.708289
0.688244
0.666078
0.641999
0.616335
0.589529
0.562118
0.534691
0.507854
0.48218
0.458161
0.436176
0.416476
0.399175
0.384272
0.371667
0.361194
0.352641
0.345779
0.340386
0.336243
0.333123
0.330839
0.329242
0.328194
0.327572
0.327124
0.326694
0.32623
0.325752
0.777913
0.767953
0.757486
0.744453
0.729357
0.712296
0.693164
0.672011
0.648912
0.624057
0.597756
0.570449
0.54268
0.515069
0.488258
0.46285
0.439354
0.418144
0.399443
0.38332
0.369718
0.358481
0.349387
0.342181
0.336596
0.332387
0.329325
0.327166
0.325665
0.324722
0.324319
0.324315
0.324281
0.324026
0.32368
0.323331
0.768283
0.756871
0.745391
0.731192
0.714899
0.696647
0.676364
0.654149
0.630091
0.604382
0.577339
0.549423
0.521217
0.493393
0.466645
0.441612
0.418815
0.398605
0.381152
0.366458
0.354385
0.344702
0.337126
0.331353
0.327089
0.324078
0.322103
0.320921
0.320254
0.320074
0.320337
0.320847
0.321467
0.322188
0.323018
0.323702
0.310311
0.310498
0.30816
0.298005
0.308161
0.307722
0.305976
0.302762
0.30721
0.30671
0.305658
0.304416
0.306674
0.306215
0.305617
0.305024
0.306209
0.305931
0.305572
0.305245
0.305881
0.305715
0.305482
0.305284
0.305601
0.305509
0.30536
0.305243
0.30534
0.305311
0.30523
0.305167
0.305097
0.305126
0.305103
0.305088
0.304877
0.304961
0.304992
0.305025
0.304684
0.304822
0.304908
0.304993
0.304521
0.304714
0.304859
0.305
0.304389
0.30464
0.30485
0.305053
0.304289
0.304599
0.30488
0.305157
0.304218
0.30459
0.304949
0.305311
0.304173
0.304609
0.305054
0.305511
0.304145
0.304645
0.305186
0.305746
0.304124
0.304688
0.305331
0.306003
0.304095
0.30472
0.305472
0.306259
0.304042
0.30472
0.305583
0.306481
0.303945
0.304664
0.305634
0.306624
0.303785
0.304532
0.305606
0.306652
0.303539
0.304303
0.305493
0.306564
0.303144
0.30392
0.305244
0.306322
0.302591
0.30337
0.304786
0.305897
0.301894
0.302654
0.304077
0.30529
0.300996
0.301733
0.303126
0.304466
0.29984
0.300568
0.301932
0.30338
0.298418
0.29916
0.300504
0.302058
0.296745
0.297525
0.298871
0.300523
0.294846
0.295684
0.297033
0.298729
0.292778
0.29368
0.295008
0.296696
0.290617
0.291564
0.292845
0.29449
0.288438
0.289402
0.290617
0.292185
0.286306
0.287255
0.288403
0.289865
0.284289
0.285208
0.286274
0.287608
0.282449
0.28334
0.284303
0.28549
0.280851
0.281697
0.282545
0.283573
0.279532
0.280309
0.281034
0.281899
0.278486
0.279181
0.279787
0.280493
0.277696
0.278306
0.2788
0.279368
0.277146
0.277672
0.278063
0.278519
0.276816
0.277267
0.277569
0.277926
0.276689
0.277074
0.277303
0.277576
0.276747
0.277077
0.277254
0.277457
0.276973
0.277262
0.277402
0.277559
0.277352
0.277611
0.277733
0.27786
0.277867
0.278112
0.278233
0.278346
0.278503
0.278748
0.278889
0.279007
0.279247
0.279509
0.27969
0.279833
0.280086
0.280383
0.280628
0.280816
0.281006
0.281358
0.281696
0.281948
0.281996
0.282425
0.282884
0.283216
0.283043
0.283571
0.284175
0.284591
0.284131
0.284774
0.285531
0.286015
0.285239
0.285998
0.286881
0.287381
0.286322
0.287179
0.28811
0.288526
0.287295
0.28821
0.289045
0.289256
0.288034
0.288942
0.289524
0.28954
0.288331
0.289376
0.289699
0.28961
0.754605
0.742305
0.730183
0.71516
0.697928
0.678665
0.657349
0.634117
0.609084
0.582465
0.554611
0.526033
0.497389
0.46943
0.442921
0.418538
0.396793
0.377986
0.362196
0.349311
0.339084
0.331186
0.325256
0.320938
0.317904
0.315877
0.314617
0.313873
0.31343
0.313196
0.313076
0.312952
0.312836
0.312676
0.312277
0.311266
0.736977
0.724186
0.711806
0.696295
0.678378
0.658295
0.636086
0.611917
0.585944
0.558425
0.529777
0.500604
0.471678
0.443864
0.418003
0.394793
0.374696
0.357897
0.344324
0.333711
0.325677
0.319792
0.315637
0.312832
0.311048
0.31001
0.309492
0.309297
0.309299
0.309378
0.309464
0.309479
0.309459
0.309358
0.309075
0.308559
0.716436
0.703497
0.691085
0.675364
0.657008
0.636324
0.613399
0.588442
0.561655
0.53337
0.504106
0.474604
0.445786
0.418637
0.394054
0.372693
0.354882
0.340615
0.32962
0.321461
0.315634
0.311647
0.309062
0.307514
0.306709
0.306412
0.306446
0.306681
0.307008
0.307339
0.307624
0.307804
0.307917
0.307939
0.307753
0.30745
0.693769
0.680854
0.668529
0.652751
0.634181
0.613097
0.589651
0.564093
0.536691
0.507879
0.478322
0.448934
0.420795
0.394984
0.372373
0.353479
0.338407
0.326913
0.318517
0.312647
0.308732
0.306279
0.304886
0.30425
0.304137
0.304378
0.304822
0.305361
0.305913
0.306419
0.306848
0.307128
0.307231
0.307245
0.307173
0.306969
0.669564
0.656811
0.644637
0.628905
0.610317
0.589026
0.565271
0.539344
0.511602
0.482612
0.453217
0.424516
0.397716
0.373906
0.353832
0.337777
0.325578
0.316756
0.310677
0.3067
0.304265
0.302936
0.302387
0.302376
0.302718
0.303269
0.303911
0.304558
0.305153
0.305659
0.306055
0.306347
0.306523
0.306569
0.306513
0.306389
0.644315
0.631861
0.619884
0.604315
0.58586
0.564558
0.540726
0.514707
0.486967
0.458236
0.429541
0.402138
0.377288
0.355987
0.33876
0.325608
0.316111
0.309614
0.305409
0.302864
0.301488
0.300924
0.300903
0.301231
0.301768
0.302404
0.303067
0.303705
0.304287
0.304791
0.305201
0.30552
0.305754
0.305902
0.305964
0.305956
0.618503
0.606463
0.594754
0.579463
0.561269
0.540152
0.51649
0.490686
0.463338
0.43534
0.407888
0.38233
0.359886
0.341364
0.327014
0.316565
0.309401
0.304771
0.301968
0.300427
0.299738
0.299606
0.299831
0.300279
0.300853
0.301491
0.30215
0.302792
0.303395
0.303938
0.304411
0.304808
0.305128
0.30537
0.30553
0.305606
0.592593
0.581056
0.569705
0.554785
0.53698
0.516243
0.493003
0.467739
0.44118
0.414374
0.388637
0.36533
0.345538
0.329819
0.31815
0.310041
0.304756
0.301525
0.299694
0.298785
0.29847
0.298537
0.298856
0.299341
0.299933
0.300589
0.301272
0.301953
0.302606
0.303213
0.303758
0.304232
0.304627
0.304936
0.305158
0.305291
0.567001
0.556037
0.54512
0.530661
0.513378
0.493212
0.470643
0.446231
0.420829
0.395606
0.371935
0.35111
0.33401
0.320928
0.311602
0.3054
0.301538
0.299283
0.298068
0.297515
0.297389
0.297554
0.297927
0.29845
0.299077
0.299772
0.300502
0.301236
0.301949
0.302617
0.303221
0.303751
0.304196
0.304551
0.304818
0.304998
0.542081
0.531743
0.521324
0.507417
0.490785
0.47137
0.449701
0.42642
0.40248
0.379128
0.35773
0.339446
0.324919
0.314184
0.306805
0.302077
0.299232
0.297614
0.296765
0.296413
0.296399
0.296636
0.297063
0.297634
0.298311
0.299056
0.299837
0.300623
0.301385
0.302101
0.302749
0.303319
0.303803
0.304198
0.304505
0.304729
0.518128
0.508455
0.498589
0.485316
0.469453
0.450946
0.430375
0.408449
0.386194
0.364881
0.345818
0.330003
0.31783
0.3091
0.303268
0.299628
0.297474
0.296255
0.295631
0.295409
0.295482
0.295786
0.296272
0.296898
0.297625
0.298417
0.299243
0.300071
0.300873
0.301626
0.302312
0.30292
0.303441
0.303873
0.30422
0.304487
0.495379
0.486395
0.477126
0.464561
0.449563
0.432093
0.412772
0.392358
0.371913
0.352687
0.335897
0.322392
0.312324
0.30526
0.300613
0.297743
0.296043
0.29508
0.294607
0.294485
0.294633
0.295004
0.295547
0.296223
0.296993
0.297825
0.298687
0.299551
0.300389
0.301179
0.301903
0.302548
0.303107
0.303578
0.303965
0.304276
0.474008
0.465728
0.457087
0.445285
0.431228
0.414889
0.39692
0.378105
0.3595
0.342291
0.327608
0.316259
0.308081
0.30236
0.298576
0.29623
0.294827
0.294036
0.293673
0.293631
0.29385
0.29428
0.294872
0.295588
0.296394
0.29726
0.298157
0.299055
0.29993
0.300758
0.301521
0.302205
0.302804
0.303314
0.303741
0.304095
0.454138
0.446559
0.438566
0.427568
0.4145
0.39935
0.382785
0.36559
0.348767
0.333411
0.320744
0.311401
0.304823
0.300175
0.296998
0.294986
0.293774
0.293103
0.292822
0.292848
0.293125
0.293603
0.294235
0.294985
0.295823
0.296721
0.29765
0.298583
0.299495
0.300362
0.301166
0.301891
0.30253
0.303081
0.303549
0.303946
0.435836
0.428948
0.421608
0.411435
0.399382
0.385445
0.370296
0.354691
0.339537
0.325993
0.31532
0.307599
0.302186
0.298437
0.295765
0.293956
0.292863
0.292272
0.292053
0.292133
0.292456
0.292971
0.293635
0.294414
0.295281
0.296207
0.297168
0.298136
0.299085
0.299993
0.300838
0.301605
0.302286
0.302878
0.303387
0.303827
0.419126
0.412907
0.406215
0.396872
0.385836
0.37311
0.359357
0.345287
0.331718
0.320034
0.31113
0.304548
0.299953
0.296923
0.294725
0.293098
0.292078
0.291539
0.291365
0.291485
0.291843
0.292386
0.293075
0.293879
0.29477
0.295724
0.296714
0.297716
0.298702
0.29965
0.300537
0.301346
0.302069
0.302702
0.303251
0.303733
0.403994
0.398415
0.392354
0.383831
0.373795
0.362255
0.349848
0.337222
0.325239
0.315296
0.307745
0.302042
0.298104
0.295566
0.293778
0.292367
0.291399
0.290897
0.290756
0.290906
0.291289
0.291853
0.292561
0.293384
0.294296
0.295274
0.296292
0.297325
0.298347
0.299333
0.300261
0.301113
0.301877
0.302549
0.303137
0.303658
0.390394
0.385422
0.379967
0.37224
0.363171
0.352771
0.341642
0.330337
0.319922
0.311488
0.304921
0.299978
0.296591
0.294395
0.292916
0.291713
0.29081
0.29034
0.290227
0.290399
0.290799
0.291376
0.292098
0.292935
0.293864
0.294861
0.295903
0.296964
0.298018
0.29904
0.300007
0.300899
0.301703
0.302413
0.303037
0.303594
0.378257
0.373854
0.368973
0.362009
0.353861
0.344541
0.33462
0.324548
0.315545
0.308341
0.30257
0.298282
0.29535
0.293422
0.29214
0.291111
0.290304
0.289867
0.289778
0.289967
0.290377
0.290963
0.291691
0.292537
0.293477
0.294488
0.295548
0.296632
0.297714
0.298768
0.29977
0.300699
0.301539
0.302285
0.302941
0.303529
0.367502
0.363624
0.35928
0.353039
0.345755
0.337441
0.328642
0.319745
0.311938
0.305701
0.30063
0.296892
0.294324
0.292611
0.29146
0.290584
0.289888
0.289482
0.289414
0.289615
0.29003
0.290617
0.291347
0.292195
0.293139
0.294158
0.295228
0.296327
0.29743
0.29851
0.299543
0.300504
0.301377
0.302153
0.302836
0.303448
0.358039
0.354637
0.350791
0.345223
0.33874
0.331345
0.323532
0.315759
0.309005
0.303517
0.299047
0.295762
0.293485
0.291945
0.2909
0.290149
0.289553
0.289184
0.289137
0.289347
0.289762
0.290346
0.29107
0.291913
0.292852
0.293868
0.294941
0.296046
0.297161
0.298259
0.299314
0.300301
0.301202
0.302005
0.302709
0.303336
0.349766
0.346794
0.343404
0.338458
0.332709
0.326148
0.319195
0.312452
0.306624
0.301734
0.297775
0.29486
0.292818
0.291421
0.29047
0.289814
0.2893
0.288978
0.288953
0.289168
0.289578
0.290152
0.290864
0.291692
0.292617
0.29362
0.294683
0.295783
0.296899
0.298004
0.299072
0.300077
0.300999
0.301825
0.302546
0.303178
0.34258
0.339994
0.33702
0.332642
0.327562
0.321766
0.315597
0.309725
0.304657
0.300292
0.296772
0.294164
0.292314
0.291034
0.290164
0.289586
0.289144
0.288871
0.288865
0.289083
0.289485
0.290042
0.290732
0.291535
0.292433
0.29341
0.294449
0.29553
0.296632
0.297731
0.298799
0.299813
0.300753
0.301606
0.302345
0.302963
0.336379
0.334138
0.331541
0.327681
0.323204
0.318103
0.312652
0.307501
0.303048
0.29915
0.296009
0.293657
0.291966
0.290781
0.289982
0.289472
0.289098
0.28887
0.288881
0.289097
0.289485
0.290017
0.290676
0.291441
0.292299
0.293235
0.294233
0.295277
0.296347
0.297421
0.298474
0.299484
0.300441
0.301327
0.302073
0.30264
0.331066
0.329131
0.326877
0.323484
0.319547
0.315063
0.310257
0.305716
0.301773
0.298286
0.295465
0.293327
0.291769
0.290666
0.289926
0.289478
0.289168
0.288982
0.289005
0.289216
0.289582
0.290081
0.290696
0.291411
0.292212
0.293088
0.294026
0.295012
0.296028
0.297054
0.298069
0.299056
0.30002
0.300899
0.301598
0.30213
0.326551
0.324885
0.322941
0.319968
0.31651
0.312569
0.308332
0.304316
0.300808
0.297677
0.295126
0.293168
0.291724
0.290691
0.290002
0.289609
0.289359
0.289212
0.289244
0.289443
0.28978
0.290236
0.290794
0.291442
0.292169
0.292964
0.293818
0.29472
0.295655
0.296605
0.297553
0.298491
0.29942
0.300225
0.300856
0.301407
0.322746
0.321304
0.319659
0.317055
0.314021
0.310557
0.306821
0.303259
0.300123
0.297301
0.29498
0.293177
0.291831
0.290858
0.290214
0.28987
0.289678
0.289567
0.289601
0.289782
0.290081
0.290482
0.29097
0.291533
0.292165
0.292855
0.293599
0.294387
0.295209
0.29605
0.296896
0.297754
0.29858
0.299277
0.299884
0.300466
0.319582
0.318368
0.316973
0.314678
0.312018
0.308972
0.305677
0.302509
0.299694
0.29714
0.295019
0.293351
0.292089
0.29117
0.290565
0.290264
0.290128
0.290053
0.290082
0.290235
0.290487
0.29082
0.291222
0.291682
0.292195
0.292755
0.293358
0.294
0.294671
0.295364
0.296067
0.296799
0.297485
0.298081
0.298679
0.299279
0.317001
0.316054
0.314806
0.312774
0.310445
0.307766
0.304858
0.302036
0.2995
0.297182
0.295236
0.293687
0.292501
0.291631
0.29106
0.290793
0.290715
0.290676
0.290689
0.290805
0.290999
0.291251
0.291549
0.291886
0.292255
0.292656
0.293085
0.293543
0.294025
0.294527
0.295041
0.295595
0.296132
0.296646
0.297223
0.29783
0.314917
0.314183
0.313061
0.311283
0.30925
0.306894
0.304329
0.301813
0.299524
0.297414
0.295624
0.294184
0.293068
0.292243
0.291705
0.291467
0.29144
0.29143
0.291422
0.291492
0.291617
0.291774
0.291951
0.292142
0.292341
0.292551
0.292772
0.293007
0.293258
0.293527
0.293814
0.29415
0.294526
0.294961
0.295508
0.296122
0.313254
0.312629
0.311671
0.310152
0.308385
0.306317
0.304059
0.301818
0.299747
0.297826
0.296179
0.294839
0.29379
0.293008
0.292501
0.292292
0.292302
0.292309
0.292278
0.292295
0.29234
0.292388
0.292426
0.292448
0.29245
0.292436
0.292411
0.292382
0.292358
0.292359
0.292388
0.292481
0.292678
0.293031
0.293549
0.294176
0.311966
0.3114
0.310619
0.309339
0.30781
0.305999
0.304021
0.302032
0.300156
0.298407
0.296894
0.295649
0.294662
0.293922
0.293444
0.293262
0.293299
0.293315
0.293255
0.293213
0.293168
0.293094
0.292974
0.292804
0.29258
0.292308
0.291999
0.291664
0.291326
0.291022
0.290759
0.290605
0.290626
0.290897
0.291393
0.292043
0.311011
0.310512
0.309889
0.308814
0.307496
0.305913
0.304191
0.302434
0.300736
0.299147
0.29776
0.296605
0.295681
0.294982
0.294533
0.294371
0.294428
0.294445
0.294353
0.294244
0.294101
0.293891
0.293596
0.293209
0.29273
0.292167
0.291536
0.290854
0.290175
0.289523
0.288955
0.288571
0.288434
0.28863
0.289113
0.289801
0.310355
0.309936
0.309445
0.308543
0.307415
0.306041
0.304546
0.303001
0.301469
0.300034
0.298767
0.297701
0.296839
0.296183
0.295759
0.295613
0.295681
0.295696
0.295568
0.295388
0.295138
0.294779
0.294292
0.293666
0.292902
0.292014
0.291021
0.289953
0.288908
0.287897
0.287057
0.28646
0.286184
0.286325
0.286812
0.287545
0.309958
0.309627
0.309244
0.308493
0.307539
0.306358
0.305066
0.303711
0.302343
0.301054
0.299905
0.298928
0.298129
0.297515
0.297117
0.29698
0.297051
0.297059
0.296893
0.29664
0.296278
0.295762
0.295067
0.294179
0.293102
0.291854
0.290459
0.288969
0.287552
0.286219
0.285106
0.284332
0.283978
0.284096
0.284604
0.285386
0.309786
0.309535
0.309245
0.308632
0.307837
0.306834
0.305729
0.304551
0.30334
0.302194
0.301162
0.300273
0.299539
0.298967
0.298593
0.298459
0.298524
0.298523
0.298325
0.297998
0.297521
0.296841
0.295923
0.294753
0.293335
0.291694
0.289858
0.287966
0.286111
0.284475
0.283186
0.282297
0.281925
0.282053
0.282586
0.283398
0.309807
0.309619
0.309416
0.30893
0.308282
0.307446
0.306513
0.305502
0.304446
0.303439
0.302522
0.301724
0.301055
0.300527
0.300174
0.300037
0.300086
0.300078
0.299857
0.29946
0.29887
0.298021
0.29687
0.295396
0.293611
0.291539
0.28922
0.286883
0.28466
0.282808
0.281392
0.280468
0.280122
0.28028
0.280831
0.281615
0.309985
0.309852
0.309729
0.309361
0.308848
0.308168
0.307397
0.306546
0.305642
0.304772
0.303971
0.303264
0.302662
0.302178
0.301844
0.301696
0.301716
0.301712
0.301487
0.301025
0.300324
0.299307
0.297913
0.296117
0.293939
0.291399
0.28859
0.285809
0.283286
0.281271
0.279807
0.278933
0.278635
0.27882
0.279359
0.280076
0.31029
0.310209
0.310159
0.309899
0.309513
0.308978
0.308361
0.307665
0.306909
0.306175
0.30549
0.304876
0.304343
0.303903
0.303586
0.303424
0.303405
0.303407
0.303198
0.30269
0.301891
0.300708
0.299062
0.296926
0.294329
0.291294
0.288017
0.284789
0.282032
0.279937
0.278509
0.277724
0.27748
0.277673
0.27816
0.278805
0.310695
0.310663
0.310681
0.31052
0.310252
0.309855
0.309384
0.308837
0.308228
0.307629
0.307061
0.306542
0.306079
0.305684
0.305384
0.305207
0.305148
0.305127
0.304945
0.304449
0.303582
0.302246
0.300335
0.297833
0.294798
0.291235
0.287453
0.283852
0.280951
0.278867
0.277537
0.27684
0.276633
0.276807
0.27723
0.277814
0.311178
0.31119
0.311269
0.3112
0.311043
0.310777
0.310445
0.310042
0.309577
0.309112
0.308662
0.308239
0.30785
0.307501
0.307218
0.307032
0.306942
0.30688
0.306703
0.306245
0.305382
0.303941
0.301753
0.298852
0.295344
0.291184
0.286912
0.283049
0.280095
0.278095
0.276881
0.276248
0.276049
0.276185
0.276556
0.277089
0.311715
0.311766
0.311901
0.311918
0.311865
0.311721
0.311522
0.311259
0.310935
0.310602
0.310269
0.309944
0.309628
0.309326
0.309061
0.308872
0.308767
0.308687
0.308505
0.308063
0.307212
0.305717
0.303287
0.299973
0.295957
0.291202
0.286467
0.282424
0.279497
0.277607
0.276487
0.275889
0.275682
0.275788
0.276121
0.276604
0.312285
0.312371
0.312557
0.312653
0.312697
0.312669
0.312595
0.312466
0.312278
0.312074
0.311856
0.311626
0.31138
0.311123
0.310878
0.31069
0.310584
0.310511
0.310347
0.30992
0.309044
0.307479
0.304843
0.301151
0.296626
0.291382
0.286164
0.28199
0.279139
0.277358
0.2763
0.275724
0.275516
0.275604
0.275903
0.276336
0.312869
0.312985
0.313217
0.313385
0.313519
0.313599
0.313644
0.313641
0.313583
0.313502
0.313393
0.313252
0.313072
0.312853
0.312626
0.312446
0.312349
0.312297
0.312165
0.311766
0.310874
0.309211
0.306377
0.302349
0.297339
0.291683
0.286027
0.281755
0.278987
0.277302
0.276296
0.275742
0.27554
0.27561
0.275877
0.276264
0.313449
0.31359
0.313863
0.314097
0.314313
0.314493
0.314647
0.314762
0.314826
0.314861
0.314853
0.314792
0.314668
0.314481
0.314269
0.314101
0.314023
0.314003
0.313912
0.313548
0.312657
0.310903
0.307899
0.303568
0.298108
0.292069
0.28608
0.281726
0.279022
0.277415
0.276455
0.275925
0.275727
0.275783
0.276022
0.276369
0.314007
0.314169
0.314479
0.31477
0.315061
0.315332
0.315587
0.315809
0.315985
0.316125
0.316207
0.316216
0.316137
0.315975
0.315777
0.315625
0.315576
0.315595
0.315548
0.315215
0.314342
0.312542
0.309416
0.304838
0.298985
0.292573
0.286357
0.281903
0.279223
0.277667
0.276751
0.276247
0.276056
0.276103
0.276319
0.276634
0.314529
0.314708
0.315048
0.315391
0.315748
0.3161
0.316445
0.316764
0.317039
0.317272
0.317432
0.317498
0.317455
0.317311
0.317127
0.316996
0.31698
0.317043
0.317029
0.316713
0.315878
0.314095
0.310913
0.306181
0.300045
0.293268
0.286867
0.28226
0.27956
0.278038
0.277164
0.276688
0.27651
0.276553
0.276752
0.277042
0.315001
0.315191
0.315558
0.315944
0.316358
0.316781
0.317205
0.317609
0.317971
0.318283
0.318507
0.318619
0.3186
0.318469
0.318298
0.318193
0.318215
0.318315
0.318318
0.318029
0.317231
0.315476
0.312328
0.307567
0.301304
0.294199
0.287637
0.2828
0.280023
0.278513
0.277678
0.277234
0.277071
0.277115
0.277303
0.277575
0.315411
0.315609
0.315996
0.316417
0.31688
0.317364
0.317856
0.31833
0.318766
0.319142
0.319417
0.31956
0.319557
0.319434
0.319277
0.3192
0.319258
0.319382
0.319392
0.319147
0.318374
0.316618
0.313573
0.308906
0.302668
0.295383
0.288694
0.283544
0.280613
0.279083
0.27828
0.277871
0.277727
0.277776
0.277958
0.27822
0.31575
0.315949
0.316352
0.316802
0.317304
0.317838
0.318384
0.318916
0.31941
0.319837
0.320148
0.320311
0.320314
0.320196
0.320053
0.320002
0.320088
0.320224
0.320239
0.320023
0.319267
0.317524
0.314604
0.310117
0.304035
0.296797
0.290003
0.28451
0.281341
0.279746
0.278961
0.278587
0.278465
0.278523
0.278704
0.278961
0.316008
0.316204
0.316616
0.317088
0.31762
0.318193
0.318782
0.319359
0.319897
0.320359
0.320692
0.320863
0.320865
0.320747
0.320617
0.320587
0.320688
0.320828
0.320845
0.320632
0.319879
0.318181
0.315392
0.311184
0.305385
0.298311
0.291438
0.28575
0.282245
0.28051
0.279715
0.279374
0.279278
0.279346
0.279527
0.279786
0.316182
0.31637
0.316784
0.31727
0.317824
0.318424
0.319044
0.319651
0.320219
0.320702
0.321043
0.321211
0.321205
0.321085
0.320964
0.320946
0.321051
0.321182
0.321194
0.320969
0.320207
0.318556
0.315896
0.312061
0.306748
0.300089
0.293095
0.287345
0.283383
0.281393
0.280541
0.280223
0.280157
0.280235
0.280418
0.280683
0.316264
0.316447
0.316853
0.317345
0.31791
0.318527
0.319165
0.31979
0.320373
0.320863
0.321201
0.321355
0.321334
0.321209
0.321093
0.321077
0.321175
0.321285
0.321284
0.321037
0.320257
0.318646
0.316114
0.312621
0.307896
0.301929
0.29502
0.289156
0.284796
0.282427
0.281446
0.281129
0.281097
0.281187
0.281368
0.281639
0.316247
0.316427
0.316819
0.317309
0.317875
0.318499
0.319143
0.319774
0.320359
0.320843
0.321165
0.321298
0.321258
0.321124
0.321006
0.320985
0.321064
0.321142
0.321123
0.32085
0.320042
0.318471
0.316072
0.312843
0.308654
0.303342
0.29696
0.291013
0.286528
0.283683
0.282453
0.28209
0.282096
0.282198
0.28237
0.282644
0.316126
0.316303
0.316677
0.31716
0.317721
0.31834
0.318981
0.319604
0.320179
0.320645
0.320942
0.321046
0.320984
0.320837
0.320711
0.320678
0.32073
0.320772
0.320722
0.320413
0.319576
0.318042
0.315769
0.312774
0.309074
0.304476
0.298956
0.293122
0.288508
0.285281
0.283655
0.283146
0.283161
0.283273
0.283421
0.283686
0.315903
0.316072
0.316429
0.316898
0.317445
0.318052
0.318679
0.319285
0.319838
0.320275
0.320538
0.320609
0.320521
0.320358
0.320219
0.320169
0.320191
0.320194
0.320098
0.319739
0.318875
0.317378
0.315223
0.312438
0.309088
0.30516
0.300544
0.295307
0.290593
0.287241
0.285171
0.28442
0.284345
0.284426
0.28452
0.284747
0.315578
0.315738
0.316074
0.316526
0.317053
0.317639
0.318242
0.318821
0.319342
0.319741
0.319964
0.319996
0.31988
0.319698
0.319542
0.31947
0.319457
0.319417
0.319266
0.318847
0.317958
0.316497
0.314459
0.311873
0.308804
0.305342
0.301435
0.297082
0.292563
0.28916
0.286895
0.285938
0.285782
0.285728
0.285661
0.28579
0.315156
0.315305
0.315618
0.316047
0.316547
0.317105
0.317676
0.318218
0.318699
0.319052
0.319228
0.31922
0.319072
0.318867
0.318691
0.318592
0.318539
0.318449
0.318238
0.317758
0.316843
0.315417
0.31349
0.311101
0.308306
0.305211
0.30194
0.298423
0.294625
0.291084
0.288582
0.287446
0.287541
0.287322
0.286806
0.286709
0.314639
0.314775
0.315064
0.315466
0.315933
0.316455
0.316987
0.317486
0.317917
0.318218
0.318342
0.318291
0.31811
0.317878
0.317676
0.317545
0.317447
0.317303
0.317028
0.316487
0.315544
0.31415
0.312327
0.310122
0.307587
0.304808
0.301975
0.29919
0.296334
0.293426
0.290645
0.288927
0.289219
0.289326
0.288051
0.287246
0.314033
0.314153
0.314418
0.314789
0.315219
0.315699
0.316185
0.316632
0.317007
0.31725
0.317319
0.317221
0.317004
0.316742
0.31651
0.316341
0.316193
0.315991
0.315652
0.315052
0.314082
0.312715
0.310984
0.308947
0.30666
0.304188
0.301689
0.299373
0.29728
0.295292
0.293303
0.291333
0.290862
0.29163
0.289579
0.286376
0.313422
0.31353
0.313765
0.314105
0.314497
0.314937
0.315377
0.315771
0.31609
0.316275
0.316291
0.316149
0.315899
0.315609
0.315348
0.315142
0.314947
0.31469
0.314294
0.313646
0.312654
0.311309
0.309651
0.307747
0.305662
0.303459
0.301274
0.299319
0.297695
0.296421
0.295264
0.293873
0.293271
0.294091
0.290901
0.2836
0.312833
0.312932
0.313135
0.313448
0.313806
0.314206
0.314602
0.314946
0.315211
0.31534
0.315308
0.315128
0.314849
0.314533
0.314245
0.314004
0.313766
0.313462
0.313016
0.312327
0.311318
0.309992
0.308395
0.306598
0.30467
0.302681
0.300778
0.299176
0.297957
0.297162
0.296631
0.295898
0.295773
0.297293
0.291868
0.282808
0.312195
0.312286
0.312465
0.312749
0.313071
0.313428
0.313776
0.314069
0.314275
0.314348
0.314267
0.314048
0.313736
0.313391
0.313072
0.312793
0.312509
0.312157
0.311663
0.310935
0.309912
0.308604
0.307065
0.305369
0.303586
0.301789
0.300151
0.298898
0.298089
0.297741
0.297767
0.298004
0.299168
0.301808
0.296208
0.281321
0.351248
0.369487
0.375518
0.375261
0.351243
0.365972
0.373607
0.37453
0.347097
0.359967
0.368756
0.371593
0.341876
0.352662
0.361174
0.365211
0.336121
0.345031
0.352527
0.356546
0.330154
0.337404
0.343619
0.347144
0.324248
0.330081
0.335035
0.337929
0.318604
0.323258
0.327112
0.32938
0.313337
0.317034
0.319987
0.321706
0.308509
0.31144
0.313682
0.31495
0.304143
0.306467
0.308159
0.309073
0.300238
0.302085
0.303357
0.303999
0.296777
0.298251
0.299205
0.299643
0.293738
0.29492
0.295636
0.295924
0.291093
0.292049
0.292585
0.292765
0.288815
0.289597
0.289999
0.290102
0.286878
0.287525
0.287829
0.287879
0.285257
0.285802
0.286032
0.286049
0.283931
0.284397
0.284575
0.284573
0.282876
0.283285
0.283427
0.283416
0.282071
0.282441
0.282561
0.282553
0.281495
0.281847
0.281958
0.281962
0.281135
0.281486
0.281603
0.281627
0.280981
0.281349
0.281483
0.281538
0.281028
0.28143
0.281595
0.281691
0.28128
0.281731
0.281939
0.282083
0.281741
0.282256
0.282519
0.282718
0.282419
0.283012
0.28334
0.283602
0.283327
0.284005
0.284406
0.284749
0.284473
0.285248
0.285734
0.286161
0.285863
0.286749
0.287334
0.28785
0.287508
0.288523
0.289217
0.289833
0.28942
0.29058
0.291394
0.292139
0.291617
0.29294
0.293891
0.294778
0.294116
0.295621
0.296729
0.297773
0.296934
0.298643
0.299929
0.30115
0.300091
0.302027
0.303514
0.304935
0.303609
0.305796
0.307509
0.309157
0.307518
0.309974
0.31194
0.313841
0.311844
0.314584
0.31683
0.319016
0.316588
0.319634
0.322197
0.324705
0.321749
0.325135