/*--------------------------------*- C++ -*----------------------------------*\
| =========                 |                                                 |
| \\      /  F ield         | OpenFOAM: The Open Source CFD Toolbox           |
|  \\    /   O peration     | Version:  v2012                                 |
|   \\  /    A nd           | Website:  www.openfoam.com                      |
|    \\/     M anipulation  |                                                 |
\*---------------------------------------------------------------------------*/
FoamFile
{
    version     2.0;
    format      ascii;
    class       surfaceScalarField;
    location    "626";
    object      phi;
}
// * * * * * * * * * * * * * * * * * * * * * * * * * * * * * * * * * * * * * //

dimensions      [0 3 -1 0 0 0 0];
oriented        oriented;


internalField   nonuniform List<scalar> 
11989
(
-0.000198558
1.1994e-07
0.000198438
-0.000198659
1.00859e-07
-0.000198746
8.69862e-08
-0.000198823
7.7362e-08
-0.000198894
7.09732e-08
-0.000198961
6.7011e-08
-0.000199026
6.48336e-08
-0.00019909
6.39933e-08
-0.000199154
6.40762e-08
-0.000199219
6.50744e-08
-0.000199286
6.68646e-08
-0.000199356
6.93941e-08
-0.000199428
7.26585e-08
-0.000199505
7.66304e-08
-0.000199586
8.11547e-08
-0.000199672
8.57707e-08
-0.000199761
8.95521e-08
-0.000199854
9.2527e-08
-0.000199944
8.98898e-08
5.62523e-08
-0.000199851
1.79111e-07
0.000199792
-0.000199893
1.42359e-07
-0.000199922
1.15974e-07
-0.000199942
9.77169e-08
-0.000199957
8.54606e-08
-0.000199967
7.76165e-08
-0.000199975
7.29022e-08
-0.000199982
7.05366e-08
-0.000199987
6.96401e-08
-0.000199992
7.01451e-08
-0.000199997
7.18143e-08
-0.000200002
7.44768e-08
-0.000200008
7.80402e-08
-0.000200014
8.23534e-08
-0.000200019
8.6993e-08
-0.000200025
9.10552e-08
-0.000200029
9.36118e-08
-0.000200029
9.29187e-08
-0.000200018
7.91474e-08
3.78582e-08
-0.000200222
2.16266e-07
0.000200185
-0.000200243
1.62852e-07
-0.000200252
1.25052e-07
-0.000200253
9.90991e-08
-0.00020025
8.16479e-08
-0.000200242
7.03536e-08
-0.000200232
6.31291e-08
-0.000200221
5.89506e-08
-0.000200208
5.68161e-08
-0.000200194
5.6306e-08
-0.000200179
5.70267e-08
-0.000200164
5.8741e-08
-0.000200147
6.1292e-08
-0.000200129
6.45032e-08
-0.00020011
6.78955e-08
-0.000200089
7.01099e-08
-0.000200066
7.07863e-08
-0.000200041
6.74589e-08
-0.000200015
5.34927e-08
2.27351e-08
-0.000200398
2.37148e-07
0.000200377
-0.000200404
1.68652e-07
-0.0002004
1.21228e-07
-0.00020039
8.89536e-08
-0.000200376
6.75435e-08
-0.000200359
5.36466e-08
-0.000200341
4.43804e-08
-0.00020032
3.85531e-08
-0.000200298
3.50894e-08
-0.000200275
3.32897e-08
-0.000200251
3.26749e-08
-0.000200225
3.29417e-08
-0.000200198
3.38848e-08
-0.000200169
3.53009e-08
-0.000200138
3.6789e-08
-0.000200105
3.7641e-08
-0.000200072
3.74931e-08
-0.000200039
3.47362e-08
-0.000200012
2.65065e-08
1.07026e-08
-0.000200495
2.40625e-07
0.000200491
-0.000200486
1.60328e-07
-0.000200472
1.0653e-07
-0.000200453
7.03037e-08
-0.000200432
4.64854e-08
-0.000200409
3.11111e-08
-0.000200386
2.0615e-08
-0.000200361
1.36547e-08
-0.000200335
9.04457e-09
-0.000200307
5.98949e-09
-0.000200279
3.95758e-09
-0.000200248
2.60596e-09
-0.000200216
1.71046e-09
-0.000200182
1.1209e-09
-0.000200146
7.36143e-10
-0.000200109
4.80437e-10
-0.000200072
3.037e-10
-0.000200037
1.81134e-10
-0.000200011
9.45697e-11
3.13149e-11
-0.000200541
2.22725e-07
0.000200559
-0.000200517
1.36731e-07
-0.000200491
8.06491e-08
-0.000200466
4.48211e-08
-0.000200441
2.1269e-08
-0.000200415
5.52861e-09
-0.000200389
-5.12795e-09
-0.000200363
-1.25337e-08
-0.000200336
-1.7854e-08
-0.000200309
-2.18746e-08
-0.000200279
-2.51313e-08
-0.000200249
-2.79758e-08
-0.000200217
-3.06272e-08
-0.000200182
-3.31687e-08
-0.000200146
-3.53879e-08
-0.000200109
-3.67243e-08
-0.000200072
-3.6915e-08
-0.000200037
-3.43934e-08
-0.000200011
-2.63319e-08
-1.06452e-08
-0.000200532
1.73039e-07
0.000200582
-0.000200493
9.79724e-08
-0.000200458
4.54836e-08
-0.000200428
1.48153e-08
-0.000200401
-5.83054e-09
-0.000200376
-1.98402e-08
-0.000200351
-2.95589e-08
-0.000200327
-3.66203e-08
-0.000200303
-4.20452e-08
-0.000200278
-4.65305e-08
-0.000200253
-5.05674e-08
-0.000200227
-5.44906e-08
-0.000200199
-5.85068e-08
-0.000200169
-6.26869e-08
-0.000200138
-6.67008e-08
-0.000200105
-6.93216e-08
-0.000200072
-7.0291e-08
-0.000200039
-6.71674e-08
-0.000200012
-5.33604e-08
-2.26924e-08
-0.000200433
7.97933e-08
0.000200526
-0.000200382
4.71981e-08
-0.000200342
5.34124e-09
-0.000200312
-1.47953e-08
-0.000200288
-2.97809e-08
-0.000200268
-4.03438e-08
-0.000200249
-4.80362e-08
-0.000200232
-5.39002e-08
-0.000200215
-5.8691e-08
-0.000200199
-6.2947e-08
-0.000200183
-6.70682e-08
-0.000200166
-7.13515e-08
-0.000200148
-7.59912e-08
-0.00020013
-8.10151e-08
-0.00020011
-8.61098e-08
-0.000200089
-9.04772e-08
-0.000200066
-9.32496e-08
-0.000200041
-9.2688e-08
-0.000200015
-7.90799e-08
-3.78381e-08
-0.00020012
-8.1011e-08
0.000200281
-0.000200065
-7.84035e-09
-0.000200035
-2.45121e-08
-0.000200017
-3.27267e-08
-0.000200006
-4.05168e-08
-0.0002
-4.64982e-08
-0.000199997
-5.11072e-08
-0.000199996
-5.4827e-08
-0.000199997
-5.80611e-08
-0.000199999
-6.11232e-08
-0.000200001
-6.42616e-08
-0.000200005
-6.76804e-08
-0.000200009
-7.15365e-08
-0.000200015
-7.58976e-08
-0.00020002
-8.06736e-08
-0.000200025
-8.54586e-08
-0.000200029
-8.93529e-08
-0.000200029
-9.2393e-08
-0.000200018
-8.98759e-08
-5.62471e-08
-0.000198849
0.000198768
-0.000198857
-0.000198882
-0.000198914
-0.000198955
-0.000199002
-0.000199053
-0.000199107
-0.000199165
-0.000199227
-0.000199291
-0.000199359
-0.00019943
-0.000199506
-0.000199587
-0.000199672
-0.000199761
-0.000199854
-0.000199944
-0.000197899
2.60832e-07
0.000197638
-0.000198115
2.16074e-07
-0.000198293
1.77683e-07
1.45453e-07
-0.000199443
4.54126e-07
0.00019925
-0.000199594
3.67199e-07
-0.000199709
2.92097e-07
2.28812e-07
-0.000199901
6.24082e-07
0.000199731
-0.000200031
4.96606e-07
-0.000200124
3.85237e-07
2.90224e-07
-0.000200134
7.79637e-07
0.000199979
-0.000200251
6.13264e-07
-0.000200331
4.65528e-07
3.36474e-07
-0.000200278
9.26355e-07
0.000200131
-0.000200387
7.21957e-07
-0.000200458
5.37317e-07
3.69225e-07
-0.000200356
1.07574e-06
0.000200207
-0.000200465
8.30555e-07
-0.000200537
6.09134e-07
3.91289e-07
-0.000200334
1.26485e-06
0.000200145
-0.000200469
9.65865e-07
-0.000200569
7.09273e-07
4.0382e-07
-0.000200045
1.62644e-06
0.000199683
-0.0002003
1.22124e-06
-0.000200503
9.11972e-07
4.2699e-07
-0.000198695
2.61938e-06
0.000197702
-0.000199415
1.94132e-06
-0.000199869
1.36567e-06
8.38562e-07
-0.000188272
0.000184742
6.14906e-06
-0.000191521
5.19015e-06
-0.000193858
3.70251e-06
5.74918e-06
7.15108e-06
-7.15109e-06
8.84073e-06
-1.68965e-06
6.06784e-06
2.77288e-06
1.76884e-07
5.89095e-06
-9.82188e-06
9.99876e-06
-2.44935e-05
1.46716e-05
-4.13917e-05
1.68982e-05
-5.77646e-05
1.63729e-05
-7.2671e-05
1.49064e-05
-8.628e-05
1.3609e-05
-9.87399e-05
1.24599e-05
-0.000110154
1.14141e-05
-0.000120601
1.04467e-05
-0.00013014
9.53897e-06
-0.000138818
8.67875e-06
-0.000146677
7.85887e-06
-0.000153754
7.07628e-06
-0.000160085
6.33104e-06
-0.00016571
5.62522e-06
-0.000170672
4.96205e-06
-0.000175017
4.34529e-06
-0.000178796
3.77853e-06
-0.000182058
3.26248e-06
-0.000184854
2.79616e-06
-0.000187234
2.37921e-06
-0.000189244
2.01057e-06
-0.000190932
1.68818e-06
-0.000192342
1.40928e-06
-0.000193513
1.17112e-06
-0.000194484
9.70924e-07
-0.000195286
8.02031e-07
-0.000195947
6.6135e-07
-0.000196494
5.47039e-07
-0.000196948
4.53542e-07
-0.000197325
3.76912e-07
3.13631e-07
4.11061e-06
-1.12617e-05
2.07203e-06
3.48927e-07
-4.47722e-06
9.32213e-06
-1.60467e-05
1.74605e-05
-3.11335e-05
2.50855e-05
-4.64463e-05
2.99845e-05
-6.0368e-05
3.08198e-05
-7.33112e-05
2.93161e-05
-8.57884e-05
2.73836e-05
-9.75883e-05
2.54089e-05
-0.000108622
2.34932e-05
-0.000118882
2.16749e-05
-0.00012838
1.9944e-05
-0.000137127
1.82858e-05
-0.000145136
1.66885e-05
-0.000152424
1.51465e-05
-0.000159008
1.36601e-05
-0.000164911
1.22341e-05
-0.000170162
1.0876e-05
-0.000174794
9.59471e-06
-0.000178847
8.39829e-06
-0.000182362
7.29309e-06
-0.000185383
6.28343e-06
-0.000187958
5.37161e-06
-0.000190136
4.55751e-06
-0.000191965
3.83885e-06
-0.000193488
3.21153e-06
-0.000194749
2.66994e-06
-0.000195785
2.20727e-06
-0.00019663
1.81612e-06
-0.000197318
1.49034e-06
-0.00019788
1.22244e-06
-0.000198336
1.00332e-06
-0.000198707
8.24411e-07
-0.000199007
6.77656e-07
5.56079e-07
-1.07534e-06
-1.01864e-05
-7.26625e-06
6.53984e-06
-1.75184e-05
1.95743e-05
-3.0878e-05
3.082e-05
-4.47587e-05
3.89662e-05
-5.73873e-05
4.26131e-05
-6.90544e-05
4.24869e-05
-8.04694e-05
4.07311e-05
-9.16292e-05
3.85435e-05
-0.000102373
3.61525e-05
-0.000112608
3.3728e-05
-0.000122266
3.13336e-05
-0.000131306
2.89841e-05
-0.000139701
2.66802e-05
-0.000147434
2.44212e-05
-0.000154498
2.22111e-05
-0.000160897
2.00592e-05
-0.000166642
1.79793e-05
-0.000171754
1.59879e-05
-0.000176261
1.41017e-05
-0.000180199
1.23358e-05
-0.000183608
1.07022e-05
-0.000186534
9.20906e-06
-0.000189023
7.86069e-06
-0.000191122
6.6572e-06
-0.000192879
5.59532e-06
-0.000194336
4.66901e-06
-0.000195536
3.87e-06
-0.000196517
3.18843e-06
-0.000197315
2.61403e-06
-0.000197961
2.13644e-06
-0.000198483
1.74381e-06
-0.000198903
1.42371e-06
-0.000199242
1.16328e-06
-0.000199514
9.49958e-07
7.72969e-07
-6.32658e-06
-3.85979e-06
-1.57402e-05
1.59535e-05
-2.77382e-05
3.15723e-05
-4.06484e-05
4.37302e-05
-5.26598e-05
5.09776e-05
-6.35482e-05
5.35015e-05
-7.40896e-05
5.30283e-05
-8.46282e-05
5.12696e-05
-9.50211e-05
4.89364e-05
-0.000105147
4.62779e-05
-0.000114901
4.34826e-05
-0.000124196
4.06287e-05
-0.000132965
3.77526e-05
-0.000141157
3.48722e-05
-0.000148737
3.20019e-05
-0.000155685
2.91587e-05
-0.00016199
2.63646e-05
-0.000167657
2.36458e-05
-0.000172699
2.10302e-05
-0.000177142
1.85448e-05
-0.00018102
1.62134e-05
-0.000184372
1.40544e-05
-0.000187244
1.20804e-05
-0.000189681
1.0298e-05
-0.000191731
8.70749e-06
-0.000193441
7.30486e-06
-0.000194854
6.08214e-06
-0.000196012
5.02844e-06
-0.000196955
4.13082e-06
-0.000197716
3.37541e-06
-0.000198328
2.74805e-06
-0.000198818
2.23382e-06
-0.00019921
1.81655e-06
-0.000199526
1.4786e-06
-0.000199778
1.20255e-06
9.73223e-07
-1.02375e-05
6.37768e-06
-2.18752e-05
2.75912e-05
-3.43882e-05
4.40853e-05
-4.63735e-05
5.57155e-05
-5.71538e-05
6.17579e-05
-6.72357e-05
6.35834e-05
-7.72397e-05
6.30323e-05
-8.7267e-05
6.1297e-05
-9.7202e-05
5.88714e-05
-0.000106947
5.60228e-05
-0.000116397
5.29327e-05
-0.000125459
4.96909e-05
-0.000134056
4.63489e-05
-0.000142123
4.29397e-05
-0.000149613
3.94922e-05
-0.000156493
3.60384e-05
-0.000162744
3.26155e-05
-0.000168362
2.92644e-05
-0.000173359
2.60272e-05
-0.000177758
2.29434e-05
-0.000181591
2.00467e-05
-0.0001849
1.7363e-05
-0.000187729
1.49096e-05
-0.000190126
1.26952e-05
-0.000192139
1.07203e-05
-0.000193814
8.97968e-06
-0.000195195
7.46317e-06
-0.000196324
6.15722e-06
-0.000197239
5.04553e-06
-0.000197974
4.11061e-06
-0.000198561
3.33493e-06
-0.000199028
2.70116e-06
-0.000199401
2.18988e-06
-0.000199701
1.77806e-06
-0.000199941
1.44271e-06
1.16354e-06
-1.28124e-05
1.919e-05
-2.57508e-05
4.05297e-05
-3.81991e-05
5.65336e-05
-4.94395e-05
6.69559e-05
-5.9619e-05
7.19375e-05
-6.93937e-05
7.33581e-05
-7.91427e-05
7.27813e-05
-8.88849e-05
7.10392e-05
-9.85496e-05
6.85361e-05
-0.000108057
6.55305e-05
-0.000117313
6.2188e-05
-0.000126224
5.86025e-05
-0.000134708
5.48332e-05
-0.000142693
5.09244e-05
-0.00015012
4.69188e-05
-0.000156946
4.28642e-05
-0.000163146
3.88155e-05
-0.000168713
3.48316e-05
-0.000173657
3.09713e-05
-0.000178002
2.72887e-05
-0.000181784
2.38287e-05
-0.000185046
2.06252e-05
-0.000187836
1.76996e-05
-0.000190203
1.50619e-05
-0.000192195
1.27119e-05
-0.000193857
1.06417e-05
-0.000195232
8.83837e-06
-0.00019636
7.28536e-06
-0.000197278
5.96298e-06
-0.000198017
4.85008e-06
-0.000198608
3.92613e-06
-0.00019908
3.17263e-06
-0.000199458
2.56827e-06
-0.000199764
2.0837e-06
-0.000200011
1.68964e-06
1.35994e-06
-1.43291e-05
3.35191e-05
-2.78173e-05
5.40179e-05
-4.00134e-05
6.87297e-05
-5.08304e-05
7.77728e-05
-6.07997e-05
8.19068e-05
-7.04873e-05
8.30456e-05
-8.0118e-05
8.2412e-05
-8.97047e-05
8.06259e-05
-9.92084e-05
7.80398e-05
-0.000108564
7.48866e-05
-0.000117688
7.13121e-05
-0.000126491
6.74047e-05
-0.000134883
6.32253e-05
-0.000142784
5.88258e-05
-0.000150128
5.42622e-05
-0.000156864
4.96004e-05
-0.000162964
4.49162e-05
-0.000168424
4.02906e-05
-0.000173255
3.5803e-05
-0.000177491
3.15241e-05
-0.000181174
2.75116e-05
-0.000184355
2.38064e-05
-0.000187088
2.04328e-05
-0.000189426
1.73998e-05
-0.000191417
1.47034e-05
-0.000193106
1.23302e-05
-0.000194529
1.02619e-05
-0.000195722
8.47819e-06
-0.000196716
6.95653e-06
-0.000197537
5.6711e-06
-0.00019821
4.59923e-06
-0.000198759
3.72188e-06
-0.000199211
3.02074e-06
-0.000199586
2.45853e-06
-0.000199895
1.99858e-06
1.60956e-06
-1.51779e-05
4.86971e-05
-2.8625e-05
6.7465e-05
-4.05373e-05
8.06419e-05
-5.1159e-05
8.83946e-05
-6.10956e-05
9.18434e-05
-7.07734e-05
9.27234e-05
-8.03456e-05
9.19842e-05
-8.98395e-05
9.01197e-05
-9.92346e-05
8.74349e-05
-0.000108477
8.41286e-05
-0.000117486
8.03219e-05
-0.000126172
7.60903e-05
-0.000134437
7.14906e-05
-0.000142191
6.65799e-05
-0.000149358
6.14288e-05
-0.000155883
5.61256e-05
-0.00016174
5.07729e-05
-0.00016693
4.54802e-05
-0.000171479
4.03529e-05
-0.000175438
3.54826e-05
-0.000178867
3.09407e-05
-0.000181835
2.67748e-05
-0.000184412
2.30095e-05
-0.000186661
1.96485e-05
-0.000188637
1.66794e-05
-0.000190385
1.40781e-05
-0.000191937
1.18138e-05
-0.000193313
9.85475e-06
-0.000194531
8.174e-06
-0.000195602
6.74252e-06
-0.00019654
5.53725e-06
-0.00019735
4.53179e-06
-0.00019806
3.73057e-06
-0.000198685
3.08419e-06
-0.000199227
2.54046e-06
2.06551e-06
-1.53548e-05
6.40518e-05
-2.8581e-05
8.06912e-05
-4.02512e-05
9.23121e-05
-5.07833e-05
9.89266e-05
-6.07314e-05
0.000101792
-7.04066e-05
0.000102399
-7.99322e-05
0.00010151
-8.9347e-05
9.95345e-05
-9.86394e-05
9.67273e-05
-0.000107757
9.3246e-05
-0.000116616
8.91815e-05
-0.000125115
8.45891e-05
-0.000133141
7.95166e-05
-0.000140587
7.40259e-05
-0.000147364
6.82056e-05
-0.000153412
6.21738e-05
-0.00015871
5.60705e-05
-0.000163273
5.00438e-05
-0.000167154
4.4234e-05
-0.000170432
3.87598e-05
-0.0001732
3.37092e-05
-0.000175562
2.91365e-05
-0.000177616
2.50641e-05
-0.000179456
2.14876e-05
-0.000181158
1.83821e-05
-0.000182788
1.57082e-05
-0.000184393
1.34181e-05
-0.000186001
1.14627e-05
-0.00018762
9.79376e-06
-0.000189227
8.34946e-06
-0.0001908
7.10992e-06
-0.000192316
6.04735e-06
-0.00019379
5.20464e-06
-0.000195218
4.51227e-06
-0.000196539
3.86211e-06
3.22848e-06
-1.49999e-05
7.90518e-05
-2.79682e-05
9.36594e-05
-3.94454e-05
0.000103789
-4.99095e-05
0.000109391
-5.98446e-05
0.000111727
-6.94865e-05
0.000112041
-7.89421e-05
0.000110965
-8.82526e-05
0.000108845
-9.74044e-05
0.000105879
-0.000106336
0.000102177
-0.000114946
9.77918e-05
-0.000123107
9.27502e-05
-0.000130678
8.70873e-05
-0.000137523
8.08707e-05
-0.000143532
7.42153e-05
-0.00014864
6.72819e-05
-0.000152834
6.02635e-05
-0.000156151
5.33614e-05
-0.000158678
4.6761e-05
-0.000160531
4.06124e-05
-0.000161842
3.50201e-05
-0.000162747
3.00415e-05
-0.000163375
2.56928e-05
-0.000163846
2.19578e-05
-0.000164262
1.87987e-05
-0.000164718
1.61643e-05
-0.000165298
1.39979e-05
-0.000166081
1.22456e-05
-0.00016717
1.08825e-05
-0.000168618
9.79728e-06
-0.000170443
8.93556e-06
-0.000172635
8.23888e-06
-0.000175187
7.75724e-06
-0.000178109
7.43376e-06
-0.000181328
7.08069e-06
6.64338e-06
-6.79286e-05
-6.85807e-06
8.09357e-05
-5.37982e-05
-8.94017e-06
-3.5479e-05
-1.46168e-05
-2.97298e-05
-9.86301e-06
-1.52497e-05
1.82547e-05
-2.01642e-06
-1.67868e-05
3.466e-06
-2.00992e-05
-2.62638e-05
-5.66118e-07
-1.83622e-05
3.67857e-06
1.89018e-06
-1.92431e-05
2.72658e-06
-2.09356e-05
-2.35372e-05
-4.42499e-07
-1.97334e-05
1.81368e-06
6.53382e-07
-2.03389e-05
1.00769e-06
-2.12899e-05
-2.25295e-05
-8.79823e-07
-2.0742e-05
1.88844e-06
-5.54775e-08
-2.11633e-05
3.62812e-07
-2.17082e-05
-2.21667e-05
-1.14248e-06
-2.16185e-05
2.01895e-06
-4.25218e-07
-2.18805e-05
1.14302e-08
-2.21448e-05
-2.21553e-05
-1.2132e-06
-2.24062e-05
2.00097e-06
-5.75089e-07
-2.25187e-05
-1.43216e-07
-2.25767e-05
-2.22985e-05
-1.13386e-06
-2.31073e-05
1.8349e-06
-5.79105e-07
-2.30734e-05
-1.91522e-07
-2.29643e-05
-2.249e-05
-9.39958e-07
-2.37142e-05
1.54689e-06
-4.79305e-07
-2.35341e-05
-1.65278e-07
-2.32783e-05
-2.26553e-05
-6.55852e-07
-2.42177e-05
1.15932e-06
-3.02101e-07
-2.38878e-05
-8.55803e-08
-2.34948e-05
-2.27409e-05
-2.9749e-07
-2.46078e-05
6.8763e-07
-6.48194e-08
-2.41205e-05
2.95881e-08
-2.35892e-05
-2.27113e-05
1.25209e-07
-2.48747e-05
1.41683e-07
2.2269e-07
-2.4218e-05
1.74894e-07
-2.35414e-05
-2.25364e-05
6.05891e-07
-2.50083e-05
-4.72326e-07
5.53616e-07
-2.41657e-05
3.40859e-07
-2.33287e-05
-2.21955e-05
1.14058e-06
-2.49988e-05
-1.15008e-06
9.26221e-07
-2.39513e-05
5.35592e-07
-2.29381e-05
-2.16599e-05
1.72641e-06
-2.48367e-05
-1.88845e-06
1.33738e-06
-2.35623e-05
7.51647e-07
-2.23523e-05
-2.09083e-05
2.36133e-06
-2.4513e-05
-2.68502e-06
1.78556e-06
-2.29865e-05
9.88557e-07
-2.15553e-05
-1.99197e-05
3.0432e-06
-2.40191e-05
-3.53713e-06
2.2696e-06
-2.22129e-05
1.24687e-06
-2.05326e-05
-1.86729e-05
3.76891e-06
-2.33469e-05
-4.44114e-06
2.78749e-06
-2.12315e-05
1.52634e-06
-1.92714e-05
-1.71465e-05
4.53326e-06
-2.24887e-05
-5.39145e-06
3.33529e-06
-2.00335e-05
1.82578e-06
-1.77619e-05
-1.53207e-05
5.32747e-06
-2.14368e-05
-6.37938e-06
3.90549e-06
-1.86116e-05
2.14209e-06
-1.59985e-05
-1.31787e-05
6.13666e-06
-2.01819e-05
-7.3915e-06
4.48311e-06
-1.6958e-05
2.46662e-06
-1.3982e-05
-1.0712e-05
6.93681e-06
-1.87106e-05
-8.40817e-06
5.0378e-06
-1.5059e-05
2.76909e-06
-1.17133e-05
-7.94295e-06
7.69497e-06
-1.7003e-05
-9.40256e-06
5.52488e-06
-1.28889e-05
2.97555e-06
-9.164e-06
-4.9674e-06
8.37675e-06
-1.50401e-05
-1.03396e-05
5.93804e-06
-1.04502e-05
3.10656e-06
-6.33252e-06
-1.86084e-06
8.99275e-06
-1.2786e-05
-1.12469e-05
6.30895e-06
-7.7664e-06
3.2425e-06
-3.26607e-06
1.38166e-06
9.59726e-06
-1.02335e-05
-1.21497e-05
6.67722e-06
-4.84636e-06
3.4346e-06
-2.34464e-08
4.81625e-06
1.01754e-05
-7.423e-06
-1.29858e-05
7.01727e-06
-1.68828e-06
3.606e-06
3.38783e-06
8.42225e-06
1.06572e-05
-4.41095e-06
-1.36693e-05
7.31922e-06
1.64975e-06
3.7936e-06
6.91344e-06
1.22158e-05
1.09525e-05
-1.24206e-06
-1.41214e-05
7.5163e-06
5.08599e-06
3.93439e-06
1.04954e-05
1.61502e-05
1.1007e-05
2.03306e-06
-1.42821e-05
7.53468e-06
8.55826e-06
3.92986e-06
1.41002e-05
2.00801e-05
1.08056e-05
5.33581e-06
-1.41084e-05
7.38303e-06
1.19808e-05
3.83293e-06
1.76503e-05
2.3913e-05
1.03499e-05
8.56469e-06
-1.35788e-05
7.08226e-06
1.52485e-05
3.67293e-06
2.10596e-05
2.75859e-05
9.67246e-06
1.16055e-05
-1.27133e-05
6.6406e-06
1.82803e-05
3.44573e-06
2.42545e-05
3.10317e-05
8.83355e-06
1.43446e-05
-1.15727e-05
6.07857e-06
2.10353e-05
3.15095e-06
2.71821e-05
3.41826e-05
7.85574e-06
1.6714e-05
-1.02252e-05
5.422e-06
2.3469e-05
2.80759e-06
2.97965e-05
3.69902e-05
6.76923e-06
1.87214e-05
-8.77655e-06
4.68325e-06
2.5555e-05
2.42529e-06
3.20545e-05
3.94155e-05
5.63303e-06
2.03774e-05
-7.28911e-06
3.90378e-06
2.72843e-05
2.02221e-06
3.3936e-05
4.14377e-05
4.49143e-06
2.16969e-05
-5.8109e-06
3.11853e-06
2.86572e-05
1.61743e-06
3.54371e-05
4.30552e-05
3.39265e-06
2.2702e-05
-4.3977e-06
2.35821e-06
2.96916e-05
1.22499e-06
3.65704e-05
4.42801e-05
2.36139e-06
2.3415e-05
-3.07446e-06
1.64202e-06
3.0411e-05
8.50398e-07
3.7362e-05
4.51305e-05
1.40969e-06
2.38602e-05
-1.85488e-06
9.81315e-07
3.08393e-05
5.0658e-07
3.78367e-05
4.56371e-05
5.38312e-07
2.40587e-05
-7.36784e-07
3.77937e-07
3.09997e-05
1.95323e-07
3.80193e-05
4.58324e-05
-2.59951e-07
2.40301e-05
2.88579e-07
-1.76686e-07
3.09165e-05
-1.05935e-07
3.79486e-05
4.57265e-05
-9.94526e-07
2.37926e-05
1.23201e-06
-6.89545e-07
3.06115e-05
-3.90163e-07
3.76492e-05
4.53363e-05
-1.67544e-06
2.33633e-05
2.1047e-06
-1.16976e-06
3.01058e-05
-6.65351e-07
3.71448e-05
4.4671e-05
-2.31334e-06
2.27582e-05
2.91848e-06
-1.62333e-06
2.94158e-05
-9.20213e-07
3.64417e-05
4.37508e-05
-2.9205e-06
2.19924e-05
3.68626e-06
-2.06238e-06
2.85577e-05
-1.17383e-06
3.55531e-05
4.2577e-05
-3.5109e-06
2.10811e-05
4.42226e-06
-2.49908e-06
2.75458e-05
-1.43193e-06
3.4486e-05
4.1145e-05
-4.10072e-06
2.00395e-05
5.14233e-06
-2.94803e-06
2.63932e-05
-1.70431e-06
3.32423e-05
3.94407e-05
-4.70965e-06
1.88844e-05
5.86476e-06
-3.42796e-06
2.51115e-05
-2.00369e-06
3.1818e-05
3.7437e-05
-5.3622e-06
1.76353e-05
6.61123e-06
-3.96247e-06
2.37117e-05
-2.34531e-06
3.02008e-05
3.50917e-05
-6.08854e-06
1.6316e-05
7.40783e-06
-4.58008e-06
2.22033e-05
-2.74624e-06
2.8367e-05
3.23455e-05
-6.92415e-06
1.49548e-05
8.28541e-06
-5.31203e-06
2.05912e-05
-3.22248e-06
2.62775e-05
2.9123e-05
-7.90551e-06
1.3582e-05
9.27829e-06
-6.18441e-06
1.88701e-05
-3.78201e-06
2.38751e-05
2.5341e-05
-9.05636e-06
1.22228e-05
1.04155e-05
-7.19895e-06
1.70126e-05
-4.40918e-06
2.10853e-05
2.09318e-05
-1.03544e-05
1.08793e-05
1.16979e-05
-8.29423e-06
1.49525e-05
-5.03419e-06
1.78252e-05
1.58976e-05
-1.16676e-05
9.49102e-06
1.30558e-05
-9.2759e-06
1.25608e-05
-5.45168e-06
1.4001e-05
1.04459e-05
-1.26391e-05
7.8337e-06
1.42965e-05
-9.67562e-06
9.59727e-06
-5.20752e-06
9.53292e-06
5.23842e-06
-1.2604e-05
5.46515e-06
1.49726e-05
-8.77788e-06
5.77114e-06
-3.93865e-06
4.6937e-06
1.29977e-06
-1.17646e-05
1.72298e-05
-5.99347e-06
-1.29977e-06
-1.52192e-05
9.42709e-05
-2.86645e-05
0.000107105
-4.06423e-05
0.000115767
-5.16572e-05
0.000120406
-6.2133e-05
0.000122202
-7.22784e-05
0.000122186
-8.21917e-05
0.000120879
-9.19049e-05
0.000118558
-0.000101387
0.000115361
-0.000110546
0.000111336
-0.000119236
0.000106482
-0.000127274
0.000100788
-0.000134459
9.42723e-05
-0.000140606
8.70184e-05
-0.000145578
7.91873e-05
-0.000149307
7.1011e-05
-0.000151807
6.27631e-05
-0.000153164
5.47184e-05
-0.000153518
4.71155e-05
-0.000153038
4.01315e-05
-0.000151891
3.38733e-05
-0.000150231
2.8382e-05
-0.000148184
2.36457e-05
-0.000145841
1.96148e-05
-0.000143259
1.62171e-05
-0.000140463
1.33676e-05
-0.000137438
1.09737e-05
-0.000134135
8.94204e-06
-0.00013047
7.21774e-06
-0.000126335
5.6621e-06
-0.000121599
4.19936e-06
-0.00011611
2.75046e-06
-0.000109599
1.2464e-06
-0.000101763
-4.02862e-07
-9.22872e-05
-2.39493e-06
-4.70815e-06
-1.44302e-05
0.000108701
-2.73814e-05
0.000120056
-3.90766e-05
0.000127462
-4.99075e-05
0.000131237
-6.02132e-05
0.000132508
-7.01721e-05
0.000132145
-7.9861e-05
0.000130568
-8.92858e-05
0.000127983
-9.83805e-05
0.000124456
-0.000107005
0.000119961
-0.000114954
0.000114431
-0.000121977
0.00010781
-0.000127817
0.000100112
-0.000132259
9.14607e-05
-0.000135174
8.21021e-05
-0.000136543
7.23797e-05
-0.000136456
6.2676e-05
-0.000135086
5.33487e-05
-0.000132651
4.468e-05
-0.000129371
3.68521e-05
-0.000125445
2.9947e-05
-0.000121027
2.39641e-05
-0.000116225
1.88435e-05
-0.000111099
1.44893e-05
-0.000105671
1.07884e-05
-9.99265e-05
7.62331e-06
-9.38265e-05
4.87373e-06
-8.7318e-05
2.4336e-06
-8.03162e-05
2.15841e-07
-7.2776e-05
-1.87804e-06
-6.46695e-05
-3.90712e-06
-5.60031e-05
-5.91598e-06
-4.67653e-05
-7.99137e-06
-3.70918e-05
-1.00764e-05
-2.74279e-05
-1.20588e-05
-1.38814e-05
-1.3637e-05
0.000122338
-2.6011e-05
0.00013243
-3.73321e-05
0.000138783
-4.78762e-05
0.000141781
-5.79192e-05
0.000142551
-6.75979e-05
0.000141824
-7.6956e-05
0.000139926
-8.5961e-05
0.000136988
-9.44955e-05
0.00013299
-0.000102354
0.00012782
-0.000109258
0.000121335
-0.000114894
0.000113446
-0.000118972
0.000104191
-0.000121297
9.37852e-05
-0.000121812
8.2617e-05
-0.000120612
7.11797e-05
-0.000117912
5.99767e-05
-0.000113997
4.94334e-05
-0.000109161
3.9844e-05
-0.000103668
3.13595e-05
-9.77288e-05
2.40074e-05
-9.14902e-05
1.77256e-05
-8.50449e-05
1.23982e-05
-7.84413e-05
7.88567e-06
-7.16987e-05
4.04578e-06
-6.48269e-05
7.51568e-07
-5.78461e-05
-2.10706e-06
-5.07913e-05
-4.62128e-06
-4.37091e-05
-6.86628e-06
-3.66728e-05
-8.91439e-06
-2.97642e-05
-1.08157e-05
-2.31832e-05
-1.2497e-05
-1.72114e-05
-1.39631e-05
-1.1943e-05
-1.53449e-05
-7.41081e-06
-1.6591e-05
-1.76136e-05
-1.28419e-05
0.00013518
-2.46082e-05
0.000144196
-3.54537e-05
0.000149629
-4.56173e-05
0.000151944
-5.53039e-05
0.000152238
-6.46011e-05
0.000151121
-7.35116e-05
0.000148836
-8.19529e-05
0.000145429
-8.97438e-05
0.000140781
-9.66064e-05
0.000134682
-0.000102196
0.000126925
-0.000106164
0.000117414
-0.000108246
0.000106273
-0.000108335
9.38738e-05
-0.000106512
8.07943e-05
-0.000103025
6.76921e-05
-9.82185e-05
5.51703e-05
-9.24646e-05
4.36796e-05
-8.61016e-05
3.3481e-05
-7.9402e-05
2.46599e-05
-7.25637e-05
1.71691e-05
-6.57185e-05
1.08804e-05
-5.89509e-05
5.6305e-06
-5.23208e-05
1.2556e-06
-4.58887e-05
-2.38629e-06
-3.97155e-05
-5.4217e-06
-3.38586e-05
-7.96394e-06
-2.83648e-05
-1.0115e-05
-2.32816e-05
-1.19495e-05
-1.86687e-05
-1.35273e-05
-1.45899e-05
-1.48945e-05
-1.1037e-05
-1.60499e-05
-7.9885e-06
-1.70116e-05
-5.46452e-06
-1.78688e-05
-3.43334e-06
-1.86222e-05
-1.92333e-05
-1.20473e-05
0.000147227
-2.3177e-05
0.000155326
-3.34705e-05
0.000159922
-4.31746e-05
0.000161648
-5.24162e-05
0.000161479
-6.12324e-05
0.000159937
-6.958e-05
0.000157184
-7.73193e-05
0.000153169
-8.42017e-05
0.000147664
-8.98853e-05
0.000140366
-9.39879e-05
0.000131027
-9.618e-05
0.000119607
-9.62857e-05
0.000106378
-9.43441e-05
9.19322e-05
-9.06022e-05
7.70525e-05
-8.54475e-05
6.25375e-05
-7.93176e-05
4.90403e-05
-7.2624e-05
3.6986e-05
-6.57078e-05
2.65648e-05
-5.88255e-05
1.77776e-05
-5.21575e-05
1.05011e-05
-4.58295e-05
4.55233e-06
-3.99357e-05
-2.63236e-07
-3.45443e-05
-4.13589e-06
-2.96811e-05
-7.24948e-06
-2.53308e-05
-9.77191e-06
-2.14535e-05
-1.18413e-05
-1.80036e-05
-1.35649e-05
-1.49388e-05
-1.50143e-05
-1.22287e-05
-1.62374e-05
-9.85341e-06
-1.72698e-05
-7.76685e-06
-1.81365e-05
-5.93117e-06
-1.88473e-05
-4.35879e-06
-1.94412e-05
-3.03164e-06
-1.99493e-05
-2.03765e-05
-1.12484e-05
0.000158476
-2.171e-05
0.000165788
-3.14168e-05
0.000169629
-4.05914e-05
0.000170823
-4.9306e-05
0.000170194
-5.75516e-05
0.000168182
-6.52351e-05
0.000164867
-7.21583e-05
0.000160092
-7.80136e-05
0.000153519
-8.24186e-05
0.000144771
-8.49978e-05
0.000133606
-8.54969e-05
0.000120106
-8.38792e-05
0.000104761
-8.03506e-05
8.84036e-05
-7.53054e-05
7.20073e-05
-6.92262e-05
5.64583e-05
-6.25907e-05
4.24048e-05
-5.58108e-05
3.02061e-05
-4.92096e-05
1.99636e-05
-4.30231e-05
1.15912e-05
-3.74142e-05
4.89217e-06
-3.24818e-05
-3.8008e-07
-2.82424e-05
-4.50264e-06
-2.46267e-05
-7.75155e-06
-2.15155e-05
-1.03607e-05
-1.87852e-05
-1.25022e-05
-1.63369e-05
-1.42897e-05
-1.4106e-05
-1.57957e-05
-1.2053e-05
-1.70673e-05
-1.01597e-05
-1.81307e-05
-8.42495e-06
-1.90046e-05
-6.84803e-06
-1.97134e-05
-5.41811e-06
-2.02772e-05
-4.13707e-06
-2.07223e-05
-3.01075e-06
-2.10756e-05
-2.13683e-05
-1.0448e-05
0.000168924
-2.02186e-05
0.000175558
-2.9312e-05
0.000178722
-3.79026e-05
0.000179414
-4.60256e-05
0.000178317
-5.36291e-05
0.000175786
-6.05719e-05
0.00017181
-6.66042e-05
0.000166124
-7.13778e-05
0.000158293
-7.45036e-05
0.000147897
-7.56592e-05
0.000134762
-7.47088e-05
0.000119155
-7.17738e-05
0.000101826
-6.72105e-05
8.38403e-05
-6.15148e-05
6.63116e-05
-5.52129e-05
5.01565e-05
-4.87822e-05
3.59741e-05
-4.26131e-05
2.40369e-05
-3.69981e-05
1.43486e-05
-3.2128e-05
6.72102e-06
-2.80804e-05
8.446e-07
-2.47964e-05
-3.66414e-06
-2.21095e-05
-7.18947e-06
-1.98315e-05
-1.00296e-05
-1.78079e-05
-1.23843e-05
-1.59354e-05
-1.43747e-05
-1.41566e-05
-1.60685e-05
-1.24489e-05
-1.75035e-05
-1.08095e-05
-1.87067e-05
-9.24395e-06
-1.96963e-05
-7.76143e-06
-2.04871e-05
-6.37809e-06
-2.10968e-05
-5.10377e-06
-2.15515e-05
-3.9458e-06
-2.18802e-05
-2.91093e-06
-2.21105e-05
-2.22783e-05
-9.65198e-06
0.000178576
-1.87206e-05
0.000184627
-2.71761e-05
0.000187178
-3.51449e-05
0.000187382
-4.26308e-05
0.000185803
-4.95439e-05
0.000182699
-5.57012e-05
0.000177968
-6.0815e-05
0.000171238
-6.45211e-05
0.000161999
-6.646e-05
0.000149836
-6.63985e-05
0.0001347
-6.43395e-05
0.000117096
-6.05513e-05
9.80375e-05
-5.55004e-05
7.87894e-05
-4.97342e-05
6.05454e-05
-4.37798e-05
4.42021e-05
-3.80866e-05
3.02808e-05
-3.29999e-05
1.89503e-05
-2.8738e-05
1.00867e-05
-2.53604e-05
3.34341e-06
-2.27543e-05
-1.76153e-06
-2.06934e-05
-5.72508e-06
-1.89558e-05
-8.9271e-06
-1.73815e-05
-1.16039e-05
-1.58775e-05
-1.38883e-05
-1.43965e-05
-1.58556e-05
-1.29206e-05
-1.75444e-05
-1.14491e-05
-1.8975e-05
-9.99482e-06
-2.01609e-05
-8.57562e-06
-2.11155e-05
-7.20937e-06
-2.18533e-05
-5.91733e-06
-2.23888e-05
-4.71992e-06
-2.27489e-05
-3.63372e-06
-2.29664e-05
-2.66924e-06
-2.3075e-05
-2.31126e-05
-8.86759e-06
0.000187443
-1.72313e-05
0.000192991
-2.50331e-05
0.00019498
-3.23579e-05
0.000194707
-3.91805e-05
0.000192626
-4.53799e-05
0.000188898
-5.07407e-05
0.000183328
-5.49551e-05
0.000175452
-5.76695e-05
0.000164713
-5.85838e-05
0.00015075
-5.75748e-05
0.000133692
-5.47791e-05
0.000114301
-5.05804e-05
9.38387e-05
-4.5509e-05
7.3718e-05
-4.01197e-05
5.51561e-05
-3.4907e-05
3.89894e-05
-3.02625e-05
2.56364e-05
-2.64399e-05
1.51277e-05
-2.35094e-05
7.15623e-06
-2.13445e-05
1.17854e-06
-1.96954e-05
-3.41064e-06
-1.83221e-05
-7.09834e-06
-1.7065e-05
-1.01842e-05
-1.58329e-05
-1.2836e-05
-1.45794e-05
-1.51418e-05
-1.32885e-05
-1.71465e-05
-1.19612e-05
-1.88717e-05
-1.0607e-05
-2.03293e-05
-9.24409e-06
-2.15238e-05
-7.89675e-06
-2.24628e-05
-6.59199e-06
-2.31581e-05
-5.35615e-06
-2.36246e-05
-4.21503e-06
-2.389e-05
-3.19073e-06
-2.39907e-05
-2.29813e-06
-2.39676e-05
-2.38638e-05
-8.10127e-06
0.000195545
-1.57649e-05
0.000200654
-2.29087e-05
0.000202123
-2.95816e-05
0.00020138
-3.57339e-05
0.000198778
-4.12201e-05
0.000194385
-4.58049e-05
0.000187913
-4.9179e-05
0.000178826
-5.10231e-05
0.000166557
-5.11165e-05
0.000150843
-4.94487e-05
0.000132024
-4.62663e-05
0.000111118
-4.20266e-05
8.9599e-05
-3.72822e-05
6.89736e-05
-3.25602e-05
5.04341e-05
-2.82916e-05
3.47207e-05
-2.47714e-05
2.21162e-05
-2.21107e-05
1.24669e-05
-2.02096e-05
5.2552e-06
-1.88252e-05
-2.05945e-07
-1.7708e-05
-4.52781e-06
-1.66898e-05
-8.11648e-06
-1.56748e-05
-1.11993e-05
-1.4615e-05
-1.38958e-05
-1.34899e-05
-1.62669e-05
-1.2297e-05
-1.83394e-05
-1.10451e-05
-2.01236e-05