/*--------------------------------*- C++ -*----------------------------------*\
| =========                 |                                                 |
| \\      /  F ield         | OpenFOAM: The Open Source CFD Toolbox           |
|  \\    /   O peration     | Version:  v2012                                 |
|   \\  /    A nd           | Website:  www.openfoam.com                      |
|    \\/     M anipulation  |                                                 |
\*---------------------------------------------------------------------------*/
FoamFile
{
    version     2.0;
    format      ascii;
    class       volVectorField;
    location    "626";
    object      U;
}
// * * * * * * * * * * * * * * * * * * * * * * * * * * * * * * * * * * * * * //

dimensions      [0 1 -1 0 0 0 0];


internalField   nonuniform List<vector> 
6108
(
(0.000376154 -0.992512 0)
(0.000332308 -0.993058 0)
(0.000300442 -0.993523 0)
(0.000278664 -0.99393 0)
(0.000264721 -0.994298 0)
(0.000256882 -0.994641 0)
(0.00025376 -0.99497 0)
(0.000254399 -0.995291 0)
(0.000258122 -0.99561 0)
(0.000264748 -0.995932 0)
(0.000274089 -0.996261 0)
(0.00028611 -0.996601 0)
(0.000300806 -0.996955 0)
(0.000317932 -0.997328 0)
(0.000336685 -0.997721 0)
(0.000355039 -0.998141 0)
(0.000368086 -0.998593 0)
(0.000363816 -0.999063 0)
(0.000295098 -0.999481 0)
(7.34748e-05 -0.999765 0)
(0.000616392 -0.999129 0)
(0.000502898 -0.999375 0)
(0.000420873 -0.999546 0)
(0.000363971 -0.999666 0)
(0.000326041 -0.999751 0)
(0.00030222 -0.999812 0)
(0.000288564 -0.999858 0)
(0.000282275 -0.999894 0)
(0.000280993 -0.999923 0)
(0.000284656 -0.99995 0)
(0.000292592 -0.999974 0)
(0.000304382 -0.999999 0)
(0.000319781 -1.00003 0)
(0.000338404 -1.00005 0)
(0.000359409 -1.00008 0)
(0.000380684 -1.00011 0)
(0.000395145 -1.00014 0)
(0.000400949 -1.00015 0)
(0.000353994 -1.00013 0)
(0.000190777 -1.00003 0)
(0.000802447 -1.00104 0)
(0.000621389 -1.00118 0)
(0.000492049 -1.00125 0)
(0.000402881 -1.00127 0)
(0.000343148 -1.00126 0)
(0.000304346 -1.00123 0)
(0.000280181 -1.00119 0)
(0.000267375 -1.00113 0)
(0.000261145 -1.00107 0)
(0.000261166 -1.00101 0)
(0.000266081 -1.00094 0)
(0.000275021 -1.00086 0)
(0.000287553 -1.00078 0)
(0.000303107 -1.00069 0)
(0.000319287 -1.0006 0)
(0.000329342 -1.0005 0)
(0.000334257 -1.00039 0)
(0.000324403 -1.00027 0)
(0.000269509 -1.00013 0)
(0.00013063 -1.00002 0)
(0.000919733 -1.00196 0)
(0.000674441 -1.00202 0)
(0.000502129 -1.00202 0)
(0.000385389 -1.00198 0)
(0.000306428 -1.00192 0)
(0.000254733 -1.00184 0)
(0.000221301 -1.00175 0)
(0.000200889 -1.00165 0)
(0.000189912 -1.00155 0)
(0.000185553 -1.00144 0)
(0.000186079 -1.00132 0)
(0.000190405 -1.00119 0)
(0.00019776 -1.00106 0)
(0.000207197 -1.00092 0)
(0.000216773 -1.00077 0)
(0.000223005 -1.00061 0)
(0.000223253 -1.00044 0)
(0.000207666 -1.00027 0)
(0.000160392 -1.00011 0)
(6.75632e-05 -1.00002 0)
(0.000974616 -1.00248 0)
(0.000672683 -1.00246 0)
(0.000465759 -1.0024 0)
(0.000324211 -1.00232 0)
(0.000231586 -1.00221 0)
(0.00017336 -1.00211 0)
(0.000133168 -1.00199 0)
(0.00010718 -1.00187 0)
(9.07844e-05 -1.00174 0)
(8.09688e-05 -1.00161 0)
(7.56752e-05 -1.00147 0)
(7.35932e-05 -1.00132 0)
(7.38236e-05 -1.00116 0)
(7.55923e-05 -1.001 0)
(7.7845e-05 -1.00082 0)
(7.90487e-05 -1.00064 0)
(7.7821e-05 -1.00045 0)
(7.09138e-05 -1.00026 0)
(5.29577e-05 -1.0001 0)
(2.0958e-05 -1.00001 0)
(0.000946056 -1.00277 0)
(0.000603125 -1.00264 0)
(0.000381691 -1.00252 0)
(0.00023442 -1.00239 0)
(0.000138015 -1.00227 0)
(7.41668e-05 -1.00214 0)
(3.09581e-05 -1.00201 0)
(1.6056e-06 -1.00188 0)
(-1.87221e-05 -1.00175 0)
(-3.32466e-05 -1.00161 0)
(-4.41449e-05 -1.00147 0)
(-5.28315e-05 -1.00132 0)
(-6.01959e-05 -1.00117 0)
(-6.66632e-05 -1.001 0)
(-7.19839e-05 -1.00082 0)
(-7.52231e-05 -1.00064 0)
(-7.53998e-05 -1.00045 0)
(-6.94688e-05 -1.00026 0)
(-5.22085e-05 -1.0001 0)
(-2.07129e-05 -1.00001 0)
(0.000813526 -1.00279 0)
(0.000477973 -1.00255 0)
(0.000255562 -1.00237 0)
(0.00012016 -1.00221 0)
(2.99799e-05 -1.00207 0)
(-3.15475e-05 -1.00194 0)
(-7.31838e-05 -1.00182 0)
(-0.000102807 -1.0017 0)
(-0.000124891 -1.00158 0)
(-0.000142456 -1.00145 0)
(-0.000157584 -1.00133 0)
(-0.000171649 -1.0012 0)
(-0.000185456 -1.00106 0)
(-0.000199139 -1.00092 0)
(-0.000211476 -1.00077 0)
(-0.000219548 -1.00061 0)
(-0.000221087 -1.00044 0)
(-0.000206388 -1.00027 0)
(-0.00015976 -1.00011 0)
(-6.73571e-05 -1.00002 0)
(0.000528713 -1.00239 0)
(0.000283741 -1.00201 0)
(9.89022e-05 -1.0018 0)
(-5.36766e-06 -1.00163 0)
(-7.73819e-05 -1.0015 0)
(-0.000126859 -1.00139 0)
(-0.000162124 -1.00129 0)
(-0.000188333 -1.0012 0)
(-0.00020907 -1.00112 0)
(-0.000226832 -1.00104 0)
(-0.000243417 -1.00095 0)
(-0.000260113 -1.00087 0)
(-0.000277803 -1.00079 0)
(-0.000296783 -1.0007 0)
(-0.000315095 -1.0006 0)
(-0.000326524 -1.0005 0)
(-0.000332503 -1.00039 0)
(-0.000323398 -1.00027 0)
(-0.000269061 -1.00013 0)
(-0.000130497 -1.00002 0)
(1.61759e-05 -1.00116 0)
(7.84082e-05 -1.0004 0)
(-4.34381e-05 -1.00025 0)
(-0.000101445 -1.00012 0)
(-0.000149349 -1.00005 0)
(-0.000183544 -1.00001 0)
(-0.000209126 -0.99999 0)
(-0.000229174 -0.999981 0)
(-0.000246125 -0.99998 0)
(-0.000261776 -0.999987 0)
(-0.00027752 -0.999999 0)
(-0.000294438 -1.00001 0)
(-0.000313242 -1.00004 0)
(-0.000334122 -1.00006 0)
(-0.000356628 -1.00009 0)
(-0.000378907 -1.00011 0)
(-0.000393983 -1.00014 0)
(-0.000400075 -1.00015 0)
(-0.000353929 -1.00013 0)
(-0.000190748 -1.00003 0)
(-0.000367627 -0.997039 0)
(-5.10172e-05 -0.994219 0)
(-0.000149258 -0.994328 0)
(-0.000166962 -0.994482 0)
(-0.000186972 -0.994667 0)
(-0.000203896 -0.994886 0)
(-0.00021799 -0.995131 0)
(-0.000230403 -0.995397 0)
(-0.000242163 -0.995679 0)
(-0.000254135 -0.995977 0)
(-0.000267038 -0.99629 0)
(-0.000281453 -0.996619 0)
(-0.000297746 -0.996967 0)
(-0.000315884 -0.997335 0)
(-0.000335291 -0.997725 0)
(-0.000354135 -0.998143 0)
(-0.000367532 -0.998594 0)
(-0.000363543 -0.999063 0)
(-0.000295072 -0.999481 0)
(-7.3465e-05 -0.999765 0)
(0.000718053 -0.988896 0)
(0.00060871 -0.990081 0)
(0.000515064 -0.991057 0)
(0.000436937 -0.991857 0)
(0.00145019 -0.996784 0)
(0.00118589 -0.997639 0)
(0.000958763 -0.998295 0)
(0.000767764 -0.998781 0)
(0.00216541 -0.999132 0)
(0.00173608 -0.999876 0)
(0.00136404 -1.00043 0)
(0.00104927 -1.0008 0)
(0.00281399 -1.00033 0)
(0.00222539 -1.00101 0)
(0.00170965 -1.0015 0)
(0.00126557 -1.0018 0)
(0.00340961 -1.00107 0)
(0.00267002 -1.00171 0)
(0.00201309 -1.00216 0)
(0.00142644 -1.00241 0)
(0.00399416 -1.00146 0)
(0.00311154 -1.00211 0)
(0.0023085 -1.00257 0)
(0.0015381 -1.00278 0)
(0.00470473 -1.00125 0)
(0.00361963 -1.00209 0)
(0.00259908 -1.00271 0)
(0.00157786 -1.00294 0)
(0.00560006 -0.999429 0)
(0.00404579 -1.00103 0)
(0.00282734 -1.00218 0)
(0.00174226 -1.00271 0)
(0.00592343 -0.991283 0)
(0.00442111 -0.99549 0)
(0.00379805 -0.998557 0)
(0.00302709 -1.00075 0)
(0.0231652 -0.932829 0)
(0.0204236 -0.949011 0)
(0.0170537 -0.964077 0)
(0.00960886 -0.982517 0)
(-0.0256627 0.0122758 0)
(-0.0206803 0.0436886 0)
(-0.00536332 0.0432874 0)
(0.00799352 0.0245905 0)
(0.0198442 -0.0141569 0)
(0.032697 -0.0786365 0)
(0.0396722 -0.167761 0)
(0.0390372 -0.252645 0)
(0.035589 -0.32897 0)
(0.0324752 -0.39956 0)
(0.0297461 -0.464332 0)
(0.027247 -0.523772 0)
(0.0249384 -0.578258 0)
(0.0227765 -0.628102 0)
(0.0207321 -0.673553 0)
(0.0187866 -0.714819 0)
(0.0169308 -0.752084 0)
(0.0151631 -0.785532 0)
(0.013487 -0.815354 0)
(0.0119092 -0.841751 0)
(0.0104393 -0.864943 0)
(0.00909512 -0.88518 0)
(0.00787849 -0.902715 0)
(0.00677755 -0.917795 0)
(0.00579035 -0.93067 0)
(0.0049153 -0.941585 0)
(0.00414816 -0.950776 0)
(0.0034833 -0.958469 0)
(0.00291384 -0.964875 0)
(0.00243069 -0.970191 0)
(0.00202271 -0.974587 0)
(0.00168633 -0.978216 0)
(0.00141115 -0.981212 0)
(0.00118551 -0.983694 0)
(0.00100015 -0.985755 0)
(0.000846639 -0.987469 0)
(-0.0444677 0.00132081 0)
(-0.00972646 0.0214628 0)
(0.0201535 0.0042449 0)
(0.0443425 -0.0431891 0)
(0.070495 -0.114153 0)
(0.0905644 -0.194515 0)
(0.0962498 -0.271061 0)
(0.0916291 -0.335092 0)
(0.0847361 -0.399096 0)
(0.0781366 -0.45982 0)
(0.0719318 -0.516789 0)
(0.0661487 -0.569934 0)
(0.0607163 -0.619259 0)
(0.0555658 -0.664816 0)
(0.0506458 -0.70666 0)
(0.0459274 -0.744859 0)
(0.0414019 -0.779491 0)
(0.0370764 -0.810657 0)
(0.0329684 -0.838487 0)
(0.0291005 -0.863137 0)
(0.0254943 -0.884789 0)
(0.0221647 -0.903647 0)
(0.0191214 -0.919921 0)
(0.0163704 -0.933848 0)
(0.0139117 -0.945671 0)
(0.011739 -0.955629 0)
(0.00984037 -0.963954 0)
(0.00819994 -0.970864 0)
(0.00679924 -0.976564 0)
(0.00561719 -0.981239 0)
(0.00462365 -0.985017 0)
(0.00380078 -0.988121 0)
(0.00313075 -0.99064 0)
(0.00258269 -0.99269 0)
(0.00213311 -0.994355 0)
(0.00176126 -0.995702 0)
(-0.0504087 -0.0148681 0)
(0.0132435 -0.0124844 0)
(0.0565802 -0.0542551 0)
(0.0958676 -0.117606 0)
(0.128454 -0.189671 0)
(0.145713 -0.257338 0)
(0.146959 -0.317445 0)
(0.140401 -0.374148 0)
(0.132099 -0.431078 0)
(0.123296 -0.485869 0)
(0.114565 -0.538359 0)
(0.106105 -0.588106 0)
(0.0979206 -0.634857 0)
(0.0899798 -0.678441 0)
(0.082256 -0.718749 0)
(0.0747445 -0.755724 0)
(0.0674633 -0.789357 0)
(0.0604488 -0.819681 0)
(0.0537482 -0.846779 0)
(0.047412 -0.870773 0)
(0.0414863 -0.891827 0)
(0.0360076 -0.910132 0)
(0.0310012 -0.925906 0)
(0.0264804 -0.93938 0)
(0.0224452 -0.950792 0)
(0.0188842 -0.960376 0)
(0.0157767 -0.968358 0)
(0.0130945 -0.974952 0)
(0.0108042 -0.980362 0)
(0.0088726 -0.98477 0)
(0.00726842 -0.988345 0)
(0.00594815 -0.991235 0)
(0.00486832 -0.993565 0)
(0.00398801 -0.995445 0)
(0.00326632 -0.996959 0)
(0.00266802 -0.998172 0)
(-0.0266017 -0.0290323 0)
(0.0449704 -0.0488385 0)
(0.102127 -0.104918 0)
(0.149976 -0.171039 0)
(0.181221 -0.235012 0)
(0.193273 -0.291598 0)
(0.191759 -0.344304 0)
(0.184633 -0.397048 0)
(0.175502 -0.449632 0)
(0.165283 -0.501009 0)
(0.154737 -0.550812 0)
(0.144152 -0.598502 0)
(0.133631 -0.643709 0)
(0.123209 -0.686141 0)
(0.112912 -0.72559 0)
(0.102779 -0.761912 0)
(0.0928699 -0.795032 0)
(0.0832631 -0.824935 0)
(0.0740446 -0.851668 0)
(0.0653004 -0.875334 0)
(0.0571063 -0.896079 0)
(0.0495226 -0.914093 0)
(0.0425903 -0.92959 0)
(0.0363303 -0.9428 0)
(0.0307439 -0.953959 0)
(0.0258162 -0.963302 0)
(0.0215192 -0.971055 0)
(0.0178147 -0.977435 0)
(0.0146569 -0.982643 0)
(0.011997 -0.986863 0)
(0.00978619 -0.99026 0)
(0.00797136 -0.992984 0)
(0.00649471 -0.995166 0)
(0.00529563 -0.996919 0)
(0.00431475 -0.998325 0)
(0.0035005 -0.999447 0)
(0.00607646 -0.0406475 0)
(0.0864921 -0.0773682 0)
(0.151488 -0.139804 0)
(0.199939 -0.203472 0)
(0.226476 -0.260251 0)
(0.234785 -0.311366 0)
(0.232548 -0.361185 0)
(0.225508 -0.411453 0)
(0.21593 -0.461499 0)
(0.204845 -0.510816 0)
(0.193005 -0.558921 0)
(0.180753 -0.605292 0)
(0.168269 -0.649512 0)
(0.155655 -0.691225 0)
(0.142998 -0.730156 0)
(0.130394 -0.766098 0)
(0.117957 -0.798923 0)
(0.10582 -0.828577 0)
(0.0941187 -0.855081 0)
(0.0829852 -0.878523 0)
(0.0725327 -0.899047 0)
(0.0628495 -0.916841 0)
(0.0539954 -0.932122 0)
(0.0460007 -0.945126 0)
(0.0388688 -0.956091 0)
(0.0325806 -0.965253 0)
(0.0271006 -0.97284 0)
(0.0223801 -0.979066 0)
(0.0183611 -0.984132 0)
(0.0149807 -0.988217 0)
(0.012175 -0.991486 0)
(0.00987858 -0.994089 0)
(0.00801943 -0.996166 0)
(0.0065169 -0.99783 0)
(0.00529106 -0.999167 0)
(0.00427193 -1.00023 0)
(0.0504644 -0.0468413 0)
(0.135467 -0.0959623 0)
(0.201492 -0.160834 0)
(0.245913 -0.220941 0)
(0.267736 -0.27357 0)
(0.274034 -0.322688 0)
(0.271772 -0.371364 0)
(0.264833 -0.420213 0)
(0.254961 -0.468828 0)
(0.243226 -0.516878 0)
(0.230329 -0.563902 0)
(0.216644 -0.609424 0)
(0.202397 -0.653004 0)
(0.187747 -0.694249 0)
(0.172835 -0.732828 0)
(0.157821 -0.768488 0)
(0.142885 -0.801058 0)
(0.128223 -0.830459 0)
(0.114034 -0.856702 0)
(0.100503 -0.879875 0)
(0.0877875 -0.900134 0)
(0.0760064 -0.91768 0)
(0.0652385 -0.932744 0)
(0.0555224 -0.945573 0)
(0.0468607 -0.956409 0)
(0.0392283 -0.965488 0)
(0.0325802 -0.973031 0)
(0.0268572 -0.979243 0)
(0.0219876 -0.984317 0)
(0.0178928 -0.988422 0)
(0.0144954 -0.991713 0)
(0.0117202 -0.994336 0)
(0.0094859 -0.996435 0)
(0.00769117 -0.998129 0)
(0.00623343 -0.999502 0)
(0.00502217 -1.0006 0)
(0.102478 -0.0504831 0)
(0.188687 -0.106031 0)
(0.250742 -0.171478 0)
(0.289668 -0.228769 0)
(0.307723 -0.279681 0)
(0.312806 -0.328362 0)
(0.310437 -0.376591 0)
(0.303413 -0.424691 0)
(0.293239 -0.472492 0)
(0.280914 -0.519748 0)
(0.267067 -0.566064 0)
(0.252069 -0.610993 0)
(0.236167 -0.654083 0)
(0.219555 -0.694905 0)
(0.202428 -0.733081 0)
(0.185013 -0.768315 0)
(0.167565 -0.800414 0)
(0.150359 -0.829292 0)
(0.133668 -0.854975 0)
(0.11774 -0.877582 0)
(0.102779 -0.897308 0)
(0.0889354 -0.914394 0)
(0.0763032 -0.929109 0)
(0.0649235 -0.941721 0)
(0.0547916 -0.952486 0)
(0.0458696 -0.961635 0)
(0.0380988 -0.969371 0)
(0.0314067 -0.975874 0)
(0.0257026 -0.981307 0)
(0.0208944 -0.985814 0)
(0.0168969 -0.989517 0)
(0.0136352 -0.992541 0)
(0.0110365 -0.995021 0)
(0.00897256 -0.997078 0)
(0.00730568 -0.998784 0)
(0.00591495 -1.00017 0)
(0.162763 -0.0533858 0)
(0.242902 -0.110395 0)
(0.298892 -0.175098 0)
(0.332386 -0.230624 0)
(0.347459 -0.281111 0)
(0.351516 -0.329878 0)
(0.34882 -0.377926 0)
(0.341547 -0.425608 0)
(0.331018 -0.47289 0)
(0.318106 -0.519581 0)
(0.303349 -0.565328 0)
(0.287083 -0.609692 0)
(0.269548 -0.65219 0)
(0.250962 -0.692342 0)
(0.231577 -0.729718 0)
(0.211694 -0.763986 0)
(0.191663 -0.794941 0)
(0.171857 -0.82252 0)
(0.15264 -0.846804 0)
(0.134334 -0.86799 0)
(0.117193 -0.886364 0)
(0.101397 -0.902263 0)
(0.0870466 -0.916038 0)
(0.074172 -0.928025 0)
(0.0627469 -0.938525 0)
(0.0527036 -0.947786 0)
(0.0439531 -0.956002 0)
(0.0364044 -0.963315 0)
(0.0299894 -0.969778 0)
(0.024586 -0.975492 0)
(0.0200616 -0.980496 0)
(0.0163565 -0.98484 0)
(0.0134047 -0.98862 0)
(0.0110283 -0.991964 0)
(0.00902409 -0.994896 0)
(0.00725344 -0.997396 0)
(0.225822 -0.0544585 0)
(0.296402 -0.110613 0)
(0.346005 -0.174203 0)
(0.374645 -0.228743 0)
(0.387223 -0.279229 0)
(0.390228 -0.328118 0)
(0.387014 -0.376019 0)
(0.379365 -0.423367 0)
(0.368405 -0.470188 0)
(0.354856 -0.516313 0)
(0.339148 -0.561386 0)
(0.321551 -0.604929 0)
(0.302277 -0.646386 0)
(0.281563 -0.68519 0)
(0.259723 -0.720834 0)
(0.23716 -0.752935 0)
(0.214348 -0.781284 0)
(0.191791 -0.805873 0)
(0.16997 -0.826883 0)
(0.149303 -0.844652 0)
(0.130104 -0.85963 0)
(0.112578 -0.87232 0)
(0.0968208 -0.883235 0)
(0.0828314 -0.892862 0)
(0.0705326 -0.90163 0)
(0.0597924 -0.909893 0)
(0.0504485 -0.917925 0)
(0.0423299 -0.925935 0)
(0.0352631 -0.934044 0)
(0.0291409 -0.942155 0)
(0.0239988 -0.950079 0)
(0.0196865 -0.957797 0)
(0.0161076 -0.965303 0)
(0.012965 -0.972631 0)
(0.0102067 -0.979572 0)
(0.00786308 -0.985872 0)
(0.286259 -0.0532975 0)
(0.348833 -0.107932 0)
(0.3923 -0.170496 0)
(0.416652 -0.224405 0)
(0.427033 -0.274828 0)
(0.428904 -0.323655 0)
(0.425013 -0.371287 0)
(0.416857 -0.418194 0)
(0.405352 -0.464409 0)
(0.391039 -0.509735 0)
(0.374216 -0.55375 0)
(0.355056 -0.595865 0)
(0.333727 -0.63538 0)
(0.310484 -0.671576 0)
(0.285725 -0.703817 0)
(0.25999 -0.731645 0)
(0.233928 -0.754859 0)
(0.208225 -0.773531 0)
(0.183525 -0.787992 0)
(0.160366 -0.798765 0)
(0.139138 -0.806491 0)
(0.120075 -0.811857 0)
(0.103264 -0.815534 0)
(0.0886722 -0.818144 0)
(0.0761829 -0.820244 0)
(0.0656258 -0.822319 0)
(0.0568046 -0.824795 0)
(0.04951 -0.828102 0)
(0.043504 -0.832703 0)
(0.0384661 -0.838984 0)
(0.0341664 -0.847129 0)
(0.0304695 -0.857258 0)
(0.0280513 -0.869089 0)
(0.0268399 -0.88279 0)
(0.0259522 -0.898205 0)
(0.0248953 -0.915044 0)
(0.00601875 -0.352249 0)
(-0.00423928 -0.283241 0)
(-0.0242548 -0.21461 0)
(-0.0401642 -0.153328 0)
(-0.0510638 -0.0643076 0)
(-0.0562628 -0.0249742 0)
(-0.0723982 0.00686297 0)
(-0.117838 0.0121842 0)
(-0.0690702 -0.008678 0)
(-0.0736384 0.0040432 0)
(-0.0824504 0.0129656 0)
(-0.0987579 0.00838589 0)
(-0.0769253 -0.00499695 0)
(-0.0793625 0.000821935 0)
(-0.0842344 0.00507514 0)
(-0.0918256 0.00241382 0)
(-0.0810154 -0.00632392 0)
(-0.0830442 -0.00195616 0)
(-0.0859832 0.00124465 0)
(-0.089199 0.00109472 0)
(-0.0847803 -0.00727753 0)
(-0.0861573 -0.00348398 0)
(-0.087721 -0.000686173 0)
(-0.0885471 0.000171816 0)
(-0.0881289 -0.00740493 0)
(-0.0888809 -0.00402779 0)
(-0.0894899 -0.00152508 0)
(-0.0888896 -0.000170921 0)
(-0.0911188 -0.00682202 0)
(-0.0912771 -0.00386014 0)
(-0.0911561 -0.00169625 0)
(-0.0896228 -0.000284517 0)
(-0.0937438 -0.00567989 0)
(-0.0933196 -0.00317011 0)
(-0.0925839 -0.00142197 0)
(-0.0903809 -0.000170662 0)
(-0.0959737 -0.00408923 0)
(-0.094961 -0.00207999 0)
(-0.0936662 -0.00083264 0)
(-0.0909127 0.000143167 0)
(-0.09777 -0.00212349 0)
(-0.0961469 -0.000668515 0)
(-0.0943075 -2.60081e-06 0)
(-0.0910489 0.000563402 0)
(-0.0990934 0.000171144 0)
(-0.0968201 0.00101662 0)
(-0.0944167 0.00102808 0)
(-0.090664 0.00108176 0)
(-0.0999032 0.00276518 0)
(-0.0969221 0.00294504 0)
(-0.0939103 0.00223116 0)
(-0.0896505 0.00163661 0)
(-0.10016 0.00563876 0)
(-0.0963998 0.00510038 0)
(-0.0927177 0.0035907 0)
(-0.0879106 0.00236213 0)
(-0.099825 0.00877746 0)
(-0.0952035 0.00746857 0)
(-0.0907774 0.00509925 0)
(-0.0853503 0.00319159 0)
(-0.0988611 0.0121704 0)
(-0.0932835 0.0100403 0)
(-0.0880234 0.00675674 0)
(-0.081882 0.00412112 0)
(-0.0972329 0.0158058 0)
(-0.0905933 0.0128064 0)
(-0.0843937 0.0085631 0)
(-0.0774195 0.00516535 0)
(-0.0949068 0.0196672 0)
(-0.0870902 0.015753 0)
(-0.0798322 0.0105156 0)
(-0.0718726 0.0063356 0)
(-0.091852 0.0237284 0)
(-0.0827368 0.0188564 0)
(-0.0742917 0.0126049 0)
(-0.0651495 0.00763939 0)
(-0.0880399 0.0279474 0)
(-0.0775042 0.0220756 0)
(-0.0677475 0.0148078 0)
(-0.0571906 0.00907007 0)
(-0.0834388 0.0322567 0)
(-0.0713663 0.0253386 0)
(-0.0602032 0.0170687 0)
(-0.048018 0.0105738 0)
(-0.0779937 0.0365514 0)
(-0.0642713 0.0285235 0)
(-0.0516401 0.0192545 0)
(-0.0375971 0.0119554 0)
(-0.0716351 0.0406786 0)
(-0.0561376 0.0314691 0)
(-0.0419638 0.0211482 0)
(-0.0255966 0.0128022 0)
(-0.0643779 0.0444371 0)
(-0.0469521 0.0340704 0)
(-0.0311906 0.0227845 0)
(-0.0136744 0.0134889 0)
(-0.0559475 0.0479174 0)
(-0.0366466 0.0363299 0)
(-0.0193613 0.0242513 0)
(-0.00103957 0.0144147 0)
(-0.0462697 0.0514248 0)
(-0.0254276 0.0384352 0)
(-0.00676282 0.0255168 0)
(0.0121779 0.0147727 0)
(-0.0355164 0.0547774 0)
(-0.0132735 0.0404387 0)
(0.00658148 0.0264581 0)
(0.0262796 0.0146894 0)
(-0.0238389 0.0575027 0)
(-0.000214658 0.0422099 0)
(0.0204672 0.02729 0)
(0.0406613 0.0150545 0)
(-0.0114429 0.0592001 0)
(0.0133891 0.0433258 0)
(0.034756 0.0277908 0)
(0.0567643 0.0154704 0)
(0.00148331 0.0596221 0)
(0.0272601 0.0434876 0)
(0.049188 0.027608 0)
(0.0724908 0.0152824 0)
(0.0147056 0.0586386 0)
(0.0411417 0.0426721 0)
(0.0635603 0.0268687 0)
(0.0879691 0.0146664 0)
(0.0278738 0.0562207 0)
(0.0546286 0.0409083 0)
(0.0775471 0.0256932 0)
(0.103053 0.0138294 0)
(0.0405445 0.0525467 0)
(0.0672755 0.0382761 0)
(0.0908004 0.0240663 0)
(0.117376 0.0128349 0)
(0.0522206 0.0479179 0)
(0.078889 0.0350317 0)
(0.103106 0.0219562 0)
(0.130642 0.0116982 0)
(0.0624575 0.0424355 0)
(0.0892898 0.0313234 0)
(0.114236 0.0194876 0)
(0.142618 0.0104507 0)
(0.0711861 0.0364631 0)
(0.098364 0.0271199 0)
(0.124022 0.0167513 0)
(0.153132 0.00912283 0)
(0.0785038 0.0303568 0)
(0.106013 0.0226404 0)
(0.132328 0.0138784 0)
(0.162062 0.00775829 0)
(0.0844691 0.0242345 0)
(0.112221 0.0181085 0)
(0.139103 0.0110001 0)
(0.169358 0.00640876 0)
(0.0891064 0.0183244 0)
(0.117023 0.0137163 0)
(0.144365 0.00822958 0)
(0.17504 0.00509406 0)
(0.0925208 0.0127704 0)
(0.12051 0.0095803 0)
(0.148198 0.00563502 0)
(0.17918 0.00380066 0)
(0.094815 0.00764269 0)
(0.122784 0.00575965 0)
(0.150707 0.00323953 0)
(0.181879 0.00266823 0)
(0.0960821 0.00294451 0)
(0.12394 0.00226471 0)
(0.151991 0.00103873 0)
(0.183261 0.00172528 0)
(0.0964042 -0.00136062 0)
(0.124072 -0.000937969 0)
(0.15218 -0.000986263 0)
(0.183422 0.000723868 0)
(0.0958545 -0.00532023 0)
(0.123275 -0.0038917 0)
(0.151421 -0.0028571 0)
(0.182415 -0.000245966 0)
(0.0945039 -0.00898491 0)
(0.121634 -0.00664136 0)
(0.1498 -0.00460585 0)
(0.180293 -0.00123691 0)
(0.0924189 -0.0124079 0)
(0.119226 -0.00922956 0)
(0.147371 -0.006272 0)
(0.177111 -0.0020642 0)
(0.0896616 -0.0156497 0)
(0.116114 -0.0117114 0)
(0.144179 -0.00789874 0)
(0.172918 -0.00289279 0)
(0.0862919 -0.0187776 0)
(0.11236 -0.0141503 0)
(0.14026 -0.00953585 0)
(0.167712 -0.00372614 0)
(0.0823697 -0.0218681 0)
(0.108017 -0.0166217 0)
(0.135636 -0.0112456 0)
(0.161456 -0.00458648 0)
(0.0779581 -0.0250128 0)
(0.103136 -0.019219 0)
(0.130305 -0.0131055 0)
(0.154071 -0.00551047 0)
(0.0731285 -0.0283238 0)
(0.0977627 -0.0220601 0)
(0.124239 -0.0152101 0)
(0.145425 -0.00654351 0)
(0.0679665 -0.0319388 0)
(0.0919395 -0.0252889 0)
(0.117372 -0.0176682 0)
(0.135321 -0.00773624 0)
(0.0625774 -0.0360223 0)
(0.085702 -0.0290687 0)
(0.10959 -0.0205895 0)
(0.123499 -0.00913594 0)
(0.0570855 -0.040753 0)
(0.0790636 -0.0335505 0)
(0.100712 -0.0240472 0)
(0.10965 -0.0107657 0)
(0.051622 -0.0462706 0)
(0.071985 -0.0387893 0)
(0.0904885 -0.0279925 0)
(0.0934783 -0.0125768 0)
(0.0462811 -0.0525399 0)
(0.0643053 -0.044562 0)
(0.0785863 -0.0320881 0)
(0.0748026 -0.0143649 0)
(0.0410393 -0.0590859 0)
(0.0556816 -0.0500441 0)
(0.0647256 -0.0353753 0)
(0.0538732 -0.0154312 0)
(0.0353689 -0.064505 0)
(0.0454418 -0.0531933 0)
(0.0482736 -0.0356777 0)
(0.0311673 -0.0141704 0)
(0.0282962 -0.0663365 0)
(0.0316029 -0.0505582 0)
(0.0278321 -0.0302673 0)
(0.0101967 -0.00967413 0)
(0.0153023 -0.0726535 0)
(0.0167231 -0.0374964 0)
(0.01036 -0.0187358 0)
(0.000507052 -0.00280629 0)
(0.34697 -0.0508084 0)
(0.401711 -0.103503 0)
(0.439232 -0.164846 0)
(0.459643 -0.218133 0)
(0.467923 -0.268203 0)
(0.468545 -0.316628 0)
(0.463819 -0.363723 0)
(0.454989 -0.409908 0)
(0.442736 -0.455158 0)
(0.427387 -0.499179 0)
(0.409058 -0.541395 0)
(0.387789 -0.581004 0)
(0.363687 -0.617065 0)
(0.337038 -0.648633 0)
(0.308368 -0.674908 0)
(0.278435 -0.69539 0)
(0.248146 -0.709954 0)
(0.218442 -0.718859 0)
(0.190175 -0.722674 0)
(0.164013 -0.722155 0)
(0.140401 -0.71812 0)
(0.119559 -0.711347 0)
(0.101517 -0.702497 0)
(0.0861639 -0.692083 0)
(0.073296 -0.680455 0)
(0.0626525 -0.667793 0)
(0.0539402 -0.654123 0)
(0.0468992 -0.639337 0)
(0.0415927 -0.623077 0)
(0.0373487 -0.604839 0)
(0.0338819 -0.584143 0)
(0.0308905 -0.560323 0)
(0.0280307 -0.532451 0)
(0.0247078 -0.498957 0)
(0.0199688 -0.458553 0)
(0.0132732 -0.410474 0)
(0.406168 -0.047808 0)
(0.454612 -0.0982239 0)
(0.486617 -0.157933 0)
(0.503415 -0.210291 0)
(0.509555 -0.259592 0)
(0.508822 -0.307186 0)
(0.503102 -0.353345 0)
(0.493366 -0.398357 0)
(0.48003 -0.442066 0)
(0.463155 -0.483987 0)
(0.442614 -0.523285 0)
(0.418275 -0.558843 0)
(0.390186 -0.589409 0)
(0.358724 -0.613811 0)
(0.32466 -0.631191 0)
(0.289108 -0.64119 0)
(0.253359 -0.644004 0)
(0.21868 -0.640301 0)
(0.186133 -0.631054 0)
(0.156461 -0.617338 0)
(0.130069 -0.600165 0)
(0.107057 -0.580376 0)
(0.0872909 -0.558588 0)
(0.0704835 -0.535189 0)
(0.0562571 -0.510359 0)
(0.0441877 -0.484105 0)
(0.0338204 -0.4563 0)
(0.0246847 -0.426719 0)
(0.0163346 -0.395038 0)
(0.00833271 -0.360838 0)
(0.000398345 -0.324059 0)
(-0.00778972 -0.284617 0)
(-0.0164841 -0.242425 0)
(-0.0257791 -0.197602 0)
(-0.0358813 -0.151394 0)
(-0.0450627 -0.10723 0)
(0.462514 -0.0448247 0)
(0.505367 -0.0928368 0)
(0.532763 -0.150402 0)
(0.546269 -0.201354 0)
(0.550341 -0.249422 0)
(0.548191 -0.295774 0)
(0.541302 -0.340534 0)
(0.530358 -0.383834 0)
(0.515461 -0.42531 0)
(0.496349 -0.464201 0)
(0.472607 -0.49933 0)
(0.443926 -0.529232 0)
(0.410365 -0.552397 0)
(0.372551 -0.567605 0)
(0.331699 -0.574226 0)
(0.289455 -0.572374 0)
(0.247596 -0.562844 0)
(0.207714 -0.546888 0)
(0.170998 -0.525934 0)
(0.138147 -0.501337 0)
(0.109401 -0.474227 0)
(0.0846451 -0.445439 0)
(0.0635214 -0.415523 0)
(0.0455434 -0.384792 0)
(0.0301783 -0.353385 0)
(0.0169022 -0.321347 0)
(0.00525327 -0.28872 0)
(-0.0051187 -0.25565 0)
(-0.014515 -0.22232 0)
(-0.0232413 -0.189015 0)
(-0.0314853 -0.156076 0)
(-0.0392463 -0.124087 0)
(-0.0468426 -0.0940666 0)
(-0.0537669 -0.0677314 0)
(-0.059298 -0.0447857 0)
(-0.0644584 -0.0252793 0)
(0.515593 -0.0418438 0)
(0.553711 -0.0875301 0)
(0.577232 -0.142521 0)
(0.587766 -0.191523 0)
(0.589894 -0.237974 0)
(0.586243 -0.282623 0)
(0.577954 -0.325486 0)
(0.565391 -0.366477 0)
(0.548287 -0.404966 0)
(0.526003 -0.439858 0)
(0.497825 -0.469621 0)
(0.463344 -0.492518 0)
(0.422817 -0.506989 0)
(0.377363 -0.512083 0)
(0.328877 -0.507746 0)
(0.279666 -0.494825 0)
(0.231977 -0.474818 0)
(0.187608 -0.449505 0)
(0.147708 -0.420612 0)
(0.112773 -0.389597 0)
(0.0827697 -0.35756 0)
(0.0573076 -0.325254 0)
(0.0358155 -0.293157 0)
(0.0176803 -0.261576 0)
(0.00234031 -0.230767 0)
(-0.0106541 -0.201033 0)
(-0.021736 -0.172677 0)
(-0.0313118 -0.145921 0)
(-0.0396724 -0.120982 0)
(-0.0470885 -0.0980991 0)
(-0.0537449 -0.077513 0)
(-0.0592203 -0.059753 0)
(-0.0635114 -0.0442336 0)
(-0.0677492 -0.0309487 0)
(-0.0718088 -0.020413 0)
(-0.074867 -0.0119576 0)
(0.565418 -0.0389032 0)
(0.599573 -0.0822493 0)
(0.61957 -0.134379 0)
(0.627584 -0.180987 0)
(0.62784 -0.225471 0)
(0.622567 -0.267967 0)
(0.612581 -0.308441 0)
(0.597882 -0.346537 0)
(0.577782 -0.381327 0)
(0.551247 -0.411382 0)
(0.51733 -0.434893 0)
(0.475702 -0.450043 0)
(0.427085 -0.455523 0)
(0.373367 -0.450975 0)
(0.31727 -0.437139 0)
(0.261742 -0.415632 0)
(0.209348 -0.388514 0)
(0.161881 -0.357863 0)
(0.120268 -0.32548 0)
(0.084685 -0.292768 0)
(0.0547855 -0.260728 0)
(0.0299487 -0.230039 0)
(0.00948119 -0.201184 0)
(-0.00727455 -0.17457 0)
(-0.0209323 -0.150443 0)
(-0.0321071 -0.128807 0)
(-0.04131 -0.109518 0)
(-0.0489649 -0.0923402 0)
(-0.0553788 -0.0770628 0)
(-0.0607795 -0.0635141 0)
(-0.0653544 -0.0515833 0)
(-0.0692815 -0.041142 0)
(-0.0725392 -0.0319421 0)
(-0.0751839 -0.0239105 0)
(-0.0774507 -0.0171518 0)
(-0.0793727 -0.0113924 0)
(0.61204 -0.0360319 0)
(0.642797 -0.076886 0)
(0.6596 -0.126029 0)
(0.665418 -0.169988 0)
(0.663832 -0.212117 0)
(0.656777 -0.252065 0)
(0.644739 -0.289708 0)
(0.627309 -0.324401 0)
(0.603356 -0.354928 0)
(0.57149 -0.379591 0)
(0.530683 -0.396462 0)
(0.480948 -0.403899 0)
(0.423763 -0.401126 0)
(0.361965 -0.388574 0)
(0.299101 -0.36778 0)
(0.238594 -0.340954 0)
(0.183093 -0.31046 0)
(0.134191 -0.278443 0)
(0.0924815 -0.246636 0)
(0.0577965 -0.216334 0)
(0.0295199 -0.18844 0)
(0.00684409 -0.163554 0)
(-0.0111122 -0.142021 0)
(-0.0252986 -0.123667 0)
(-0.0366036 -0.108014 0)
(-0.0457438 -0.0944178 0)
(-0.0532646 -0.0823371 0)
(-0.0595498 -0.0713928 0)
(-0.0648406 -0.0613494 0)
(-0.0692753 -0.0520791 0)
(-0.0729507 -0.0435441 0)
(-0.0759876 -0.0357572 0)
(-0.0784615 -0.0286924 0)
(-0.0804732 -0.022302 0)
(-0.0821224 -0.0166469 0)
(-0.0835361 -0.0116871 0)
(0.655462 -0.0332449 0)
(0.683295 -0.0714655 0)
(0.69725 -0.117522 0)
(0.701009 -0.158661 0)
(0.697574 -0.198115 0)
(0.688544 -0.235202 0)
(0.674063 -0.269665 0)
(0.653283 -0.300585 0)
(0.624649 -0.326513 0)
(0.586525 -0.345601 0)
(0.538023 -0.356 0)
(0.479781 -0.356484 0)
(0.414253 -0.346986 0)
(0.345265 -0.328731 0)
(0.277036 -0.303885 0)
(0.213227 -0.274989 0)
(0.156361 -0.244482 0)
(0.107719 -0.214427 0)
(0.0675259 -0.186428 0)
(0.0352733 -0.161609 0)
(0.0100132 -0.140607 0)
(-0.00947321 -0.12353 0)
(-0.0245743 -0.109724 0)
(-0.0365213 -0.0982765 0)
(-0.0462399 -0.0883177 0)
(-0.0543353 -0.079248 0)
(-0.0611672 -0.0707045 0)
(-0.0669458 -0.0625158 0)
(-0.0718175 -0.0546368 0)
(-0.0758625 -0.0470923 0)
(-0.0791351 -0.0399055 0)
(-0.0817184 -0.0331433 0)
(-0.0837198 -0.0268831 0)
(-0.0852542 -0.0211482 0)
(-0.0864194 -0.0159823 0)
(-0.0873516 -0.0114095 0)
(0.695684 -0.0305514 0)
(0.720999 -0.0660455 0)
(0.732386 -0.108942 0)
(0.73417 -0.147125 0)
(0.728839 -0.183682 0)
(0.717624 -0.217691 0)
(0.700303 -0.248742 0)
(0.675594 -0.275697 0)
(0.64158 -0.296956 0)
(0.596548 -0.310667 0)
(0.539997 -0.315254 0)
(0.473431 -0.310063 0)
(0.40038 -0.295771 0)
(0.325555 -0.274258 0)
(0.253621 -0.248076 0)
(0.188247 -0.219862 0)
(0.131697 -0.191961 0)
(0.0848767 -0.166262 0)
(0.0475913 -0.144109 0)
(0.0188325 -0.126179 0)
(-0.0029682 -0.112352 0)
(-0.019661 -0.101684 0)
(-0.0328831 -0.0929964 0)
(-0.0437401 -0.0853584 0)
(-0.0528911 -0.0781978 0)
(-0.0607206 -0.0712107 0)
(-0.0674269 -0.0642659 0)
(-0.0731091 -0.0573241 0)
(-0.0778425 -0.0504193 0)
(-0.0816947 -0.0436408 0)
(-0.0847321 -0.0370641 0)
(-0.0870114 -0.0307821 0)
(-0.0886396 -0.0249046 0)
(-0.0897407 -0.0195144 0)
(-0.0904342 -0.014678 0)
(-0.09086 -0.0104406 0)
(0.732733 -0.0279589 0)
(0.755879 -0.0606826 0)
(0.764923 -0.100377 0)
(0.764784 -0.135518 0)
(0.757484 -0.169048 0)
(0.743873 -0.199858 0)
(0.723348 -0.227401 0)
(0.694225 -0.250382 0)
(0.65434 -0.267155 0)
(0.60209 -0.276011 0)
(0.537598 -0.275785 0)
(0.463381 -0.266454 0)
(0.384018 -0.249341 0)
(0.304917 -0.226776 0)
(0.23095 -0.201459 0)
(0.165616 -0.17594 0)
(0.110822 -0.152343 0)
(0.0670086 -0.132231 0)
(0.0333645 -0.116406 0)
(0.00811087 -0.104696 0)
(-0.0110189 -0.0960729 0)
(-0.0261118 -0.0892151 0)
(-0.0385435 -0.0831764 0)
(-0.049109 -0.0774007 0)
(-0.0582275 -0.0715883 0)
(-0.0661261 -0.0656079 0)
(-0.0729182 -0.0594428 0)
(-0.0786691 -0.0531184 0)
(-0.0834115 -0.0466986 0)
(-0.0871878 -0.0402931 0)
(-0.090053 -0.034022 0)
(-0.0920635 -0.0280127 0)
(-0.0933248 -0.0223925 0)
(-0.0939739 -0.0172755 0)
(-0.0941598 -0.0127508 0)
(-0.0940421 -0.00887645 0)
(0.766671 -0.0254741 0)
(0.787938 -0.0554271 0)
(0.794824 -0.0919162 0)
(0.792791 -0.123987 0)
(0.783444 -0.154444 0)
(0.767244 -0.182031 0)
(0.743218 -0.206094 0)
(0.709342 -0.225261 0)
(0.663337 -0.23794 0)
(0.603912 -0.242685 0)
(0.53198 -0.238816 0)
(0.451118 -0.226892 0)
(0.366831 -0.208712 0)
(0.285008 -0.186833 0)
(0.210512 -0.163922 0)
(0.146531 -0.142294 0)
(0.0945011 -0.123712 0)
(0.0542159 -0.109193 0)
(0.024027 -0.0987323 0)
(0.00138946 -0.0913546 0)
(-0.01624 -0.0857359 0)
(-0.0306701 -0.0808724 0)
(-0.0429297 -0.0761713 0)
(-0.0535746 -0.0713287 0)
(-0.0628949 -0.0662021 0)
(-0.0710253 -0.060743 0)
(-0.0780274 -0.0549762 0)
(-0.0839333 -0.0489629 0)
(-0.0887478 -0.0427967 0)
(-0.0924872 -0.0366031 0)
(-0.0951903 -0.0305273 0)
(-0.0969199 -0.0247205 0)
(-0.0977885 -0.0193291 0)
(-0.0979496 -0.0144857 0)