/*--------------------------------*- C++ -*----------------------------------*\
| =========                 |                                                 |
| \\      /  F ield         | OpenFOAM: The Open Source CFD Toolbox           |
|  \\    /   O peration     | Version:  v2012                                 |
|   \\  /    A nd           | Website:  www.openfoam.com                      |
|    \\/     M anipulation  |                                                 |
\*---------------------------------------------------------------------------*/
FoamFile
{
    version     2.0;
    format      ascii;
    class       surfaceScalarField;
    location    "984";
    object      phi;
}
// * * * * * * * * * * * * * * * * * * * * * * * * * * * * * * * * * * * * * //

dimensions      [0 3 -1 0 0 0 0];
oriented        oriented;


internalField   nonuniform List<scalar> 
11891
(
-6.94242e-05
8.31178e-06
6.11124e-05
-7.72457e-05
7.82156e-06
-8.46484e-05
7.40266e-06
-9.16608e-05
7.01239e-06
-9.83822e-05
6.72142e-06
-0.000104979
6.59709e-06
-0.000111596
6.61647e-06
-0.000118347
6.75148e-06
-0.000125258
6.91089e-06
-0.000132258
6.99992e-06
-0.000139263
7.00509e-06
-0.000146269
7.00567e-06
-0.00015329
7.02125e-06
-0.000160344
7.05434e-06
-0.000167426
7.08125e-06
-0.000174486
7.05996e-06
-0.000181435
6.9496e-06
-0.000188338
6.90316e-06
-0.000195226
6.88723e-06
4.77442e-06
-0.000181216
1.60941e-05
0.000173434
-0.0001876
1.42052e-05
-0.000192723
1.25256e-05
-0.000196791
1.10802e-05
-0.000199984
9.91484e-06
-0.000202448
9.06101e-06
-0.000204274
8.44254e-06
-0.000205515
7.99257e-06
-0.000206238
7.63356e-06
-0.000206596
7.35797e-06
-0.000206765
7.17472e-06
-0.00020681
7.05035e-06
-0.000206718
6.92901e-06
-0.000206479
6.81501e-06
-0.000206105
6.70816e-06
-0.000205605
6.55901e-06
-0.000204942
6.28692e-06
-0.000203928
5.88916e-06
-0.000202357
5.31652e-06
2.41729e-06
-0.00022129
1.82583e-05
0.000219126
-0.000222543
1.54579e-05
-0.000223124
1.31066e-05
-0.000223234
1.11904e-05
-0.000222977
9.65802e-06
-0.000222391
8.47429e-06
-0.000221521
7.57317e-06
-0.000220414
6.88565e-06
-0.00021913
6.34915e-06
-0.000217692
5.92007e-06
-0.000216082
5.56416e-06
-0.000214338
5.30725e-06
-0.000212569
5.16e-06
-0.000210785
5.03034e-06
-0.00020895
4.87389e-06
-0.000207063
4.67188e-06
-0.00020515
4.37324e-06
-0.000203241
3.98054e-06
-0.000201172
3.2478e-06
1.24497e-06
-0.000230862
1.84812e-05
0.000230639
-0.000230607
1.52034e-05
-0.000229975
1.24741e-05
-0.000229034
1.02498e-05
-0.000227847
8.47089e-06
-0.000226446
7.07382e-06
-0.000224861
5.98771e-06
-0.000223119
5.14379e-06
-0.000221252
4.48182e-06
-0.000219287
3.95491e-06
-0.000217259
3.53634e-06
-0.00021518
3.22853e-06
-0.000213033
3.01309e-06
-0.00021084
2.83689e-06
-0.000208638
2.67204e-06
-0.000206458
2.49211e-06
-0.000204359
2.27443e-06
-0.000202391
2.01213e-06
-0.000200681
1.53779e-06
5.64071e-07
-0.000234445
1.80808e-05
0.000234845
-0.000233623
1.4382e-05
-0.000232483
1.13335e-05
-0.000231096
8.86346e-06
-0.000229517
6.8919e-06
-0.000227778
5.33399e-06
-0.000225901
4.11087e-06
-0.000223908
3.15154e-06
-0.000221822
2.39551e-06
-0.000219664
1.79727e-06
-0.000217455
1.32697e-06
-0.000215197
9.70378e-07
-0.000212893
7.09151e-07
-0.000210569
5.13281e-07
-0.000208263
3.65185e-07
-0.000206025
2.54925e-07
-0.000203923
1.72441e-07
-0.000202021
1.10002e-07
-0.000200544
6.08726e-08
1.97438e-08
-0.000236526
1.73446e-05
0.000237262
-0.000235341
1.31973e-05
-0.000233864
9.8568e-06
-0.000232191
7.18989e-06
-0.000230375
5.07591e-06
-0.000228444
3.40328e-06
-0.000226417
2.08362e-06
-0.000224309
1.04366e-06
-0.000222134
2.20026e-07
-0.000219906
-4.30574e-07
-0.000217637
-9.41584e-07
-0.000215327
-1.33958e-06
-0.000212985
-1.63317e-06
-0.000210634
-1.83745e-06
-0.000208306
-1.96292e-06
-0.000206053
-1.99837e-06
-0.000203939
-1.94149e-06
-0.000202028
-1.80034e-06
-0.000200546
-1.42118e-06
-5.26636e-07
-0.000237691
1.62187e-05
0.000238817
-0.000236149
1.16548e-05
-0.000234377
8.08437e-06
-0.000232489
5.30264e-06
-0.000230534
3.12055e-06
-0.000228522
1.39138e-06
-0.000226457
1.85522e-08
-0.000224347
-1.0664e-06
-0.000222195
-1.93193e-06
-0.000220009
-2.61691e-06
-0.000217802
-3.1486e-06
-0.000215565
-3.57626e-06
-0.0002133
-3.89801e-06
-0.000211028
-4.10966e-06
-0.000208764
-4.2267e-06
-0.000206537
-4.22504e-06
-0.000204404
-4.07536e-06
-0.000202412
-3.79228e-06
-0.000200687
-3.14553e-06
-1.21386e-06
-0.000236012
1.48289e-05
0.000237402
-0.000234076
9.71803e-06
-0.000232045
6.0539e-06
-0.000230076
3.33395e-06
-0.000228196
1.24026e-06
-0.00022637
-4.35086e-07
-0.000224554
-1.79687e-06
-0.000222703
-2.91733e-06
-0.000220811
-3.82473e-06
-0.000218881
-4.54672e-06
-0.000216915
-5.11484e-06
-0.000214956
-5.53519e-06
-0.000213026
-5.82786e-06
-0.000211099
-6.0368e-06
-0.000209158
-6.16778e-06
-0.000207191
-6.1917e-06
-0.000205218
-6.04863e-06
-0.000203271
-5.73862e-06
-0.000201182
-5.23471e-06
-2.39598e-06
-0.000220354
1.17216e-05
0.000223461
-0.000217082
6.44635e-06
-0.000214642
3.61379e-06
-0.000212913
1.60552e-06
-0.000211726
5.32653e-08
-0.000210884
-1.27721e-06
-0.000210245
-2.436e-06
-0.000209697
-3.46562e-06
-0.000209204
-4.3174e-06
-0.000208764
-4.98638e-06
-0.000208353
-5.52637e-06
-0.000207938
-5.95002e-06
-0.000207489
-6.27735e-06
-0.000206991
-6.53476e-06
-0.000206432
-6.72603e-06
-0.000205799
-6.82486e-06
-0.000205042
-6.80542e-06
-0.000203963
-6.81763e-06
-0.000202362
-6.83613e-06
-4.75802e-06
-0.00013218
0.000143901
-0.000125733
-0.00012212
-0.000120514
-0.000120461
-0.000121738
-0.000124174
-0.00012764
-0.000131957
-0.000136943
-0.00014247
-0.00014842
-0.000154697
-0.000161232
-0.000167958
-0.000174783
-0.000181588
-0.000188406
-0.000195242
7.17909e-06
3.94918e-08
-7.21858e-06
7.30766e-06
-1.28574e-07
7.55566e-06
-2.48005e-07
7.79104e-06
-2.35373e-07
7.86123e-06
-7.01945e-08
7.81303e-06
4.81965e-08
7.53748e-06
2.75556e-07
6.79588e-06
7.41597e-07
5.50918e-06
1.2867e-06
3.73022e-06
1.77895e-06
1.5149e-06
2.21532e-06
-1.28195e-06
2.79686e-06
-4.70133e-06
3.41938e-06
-8.83115e-06
4.12982e-06
-1.37425e-05
4.91133e-06
-1.93583e-05
5.61583e-06
-2.55685e-05
6.21014e-06
-3.22539e-05
6.68545e-06
-3.92894e-05
7.03546e-06
-4.65334e-05
7.244e-06
-5.38531e-05
7.31969e-06
7.25932e-06
1.32047e-05
6.67978e-07
-1.38332e-05
1.23978e-05
6.78297e-07
1.11888e-05
9.61026e-07
9.30883e-06
1.64455e-06
6.73086e-06
2.50778e-06
3.33329e-06
3.44576e-06
-1.19592e-06
4.80476e-06
-7.34516e-06
6.89084e-06
-1.54905e-05
9.43208e-06
-2.57033e-05
1.19917e-05
-3.77476e-05
1.42596e-05
-5.11713e-05
1.62206e-05
-6.55175e-05
1.77655e-05
-8.02671e-05
1.88794e-05
-9.4931e-05
1.95752e-05
-0.000109157
1.98422e-05
-0.000122652
1.9705e-05
-0.000135189
1.92226e-05
-0.00014662
1.84664e-05
-0.000156834
1.74576e-05
-0.000165764
1.625e-05
1.4929e-05
9.71424e-06
3.22143e-06
-1.22677e-05
6.30608e-06
4.08646e-06
1.61674e-06
5.65036e-06
-4.85723e-06
8.11851e-06
-1.36104e-05
1.12609e-05
-2.5102e-05
1.49374e-05
-3.92775e-05
1.89803e-05
-5.54803e-05
2.30936e-05
-7.29432e-05
2.68951e-05
-9.09912e-05
3.00398e-05
-0.000109053
3.23213e-05
-0.00012652
3.36874e-05
-0.000142924
3.41699e-05
-0.000157914
3.3869e-05
-0.000171254
3.29154e-05
-0.000182854
3.1442e-05
-0.000192713
2.95646e-05
-0.000200885
2.73939e-05
-0.00020745
2.50318e-05
-0.00021255
2.25576e-05
-0.000216374
2.0074e-05
1.76811e-05
-5.16369e-06
9.78087e-06
-1.39575e-06
-1.41472e-05
1.307e-05
-2.60049e-05
1.75081e-05
-4.0714e-05
2.28276e-05
-5.79796e-05
2.85265e-05
-7.71345e-05
3.40924e-05
-9.72193e-05
3.9065e-05
-0.000117228
4.31025e-05
-0.000136309
4.59757e-05
-0.000153849
4.75798e-05
-0.000169469
4.7941e-05
-0.000182975
4.71938e-05
-0.000194347
4.55417e-05
-0.000203687
4.32091e-05
-0.000211174
4.04024e-05
-0.000217023
3.72909e-05
-0.000221472
3.40141e-05
-0.000224773
3.06946e-05
-0.000227166
2.74242e-05
-0.000228861
2.42531e-05
-0.000229992
2.12049e-05
1.83279e-05
-3.4085e-05
2.29086e-05
2.09572e-05
-5.03672e-05
2.93522e-05
-6.92636e-05
3.64045e-05
-8.98205e-05
4.33846e-05
-0.00011094
4.96463e-05
-0.000131536
5.4688e-05
-0.000150691
5.82199e-05
-0.000167753
6.01647e-05
-0.000182372
6.05945e-05
-0.000194476
5.96845e-05
-0.000204214
5.76785e-05
-0.000211871
5.48514e-05
-0.000217799
5.14691e-05
-0.000222348
4.77578e-05
-0.000225832
4.38865e-05
-0.000228514
3.9973e-05
-0.000230601
3.61017e-05
-0.00023223
3.23234e-05
-0.000233466
2.86602e-05
-0.000234322
2.51083e-05
-0.000234781
2.1664e-05
1.83923e-05
-7.36893e-05
4.20581e-05
5.45398e-05
-9.47087e-05
5.03716e-05
-0.00011629
5.7986e-05
-0.000137175
6.42691e-05
-0.000156335
6.88065e-05
-0.000173092
7.14446e-05
-0.000187132
7.22606e-05
-0.00019846
7.14925e-05
-0.00020732
6.9454e-05
-0.000214103
6.64679e-05
-0.000219256
6.28311e-05
-0.000223203
5.87981e-05
-0.000226299
5.45654e-05
-0.000228809
5.02681e-05
-0.00023091
4.59878e-05
-0.000232703
4.17658e-05
-0.000234227
3.76258e-05
-0.000235485
3.35808e-05
-0.000236465
2.96401e-05
-0.00023714
2.57834e-05
-0.000237426
2.19501e-05
1.82287e-05
-0.000115317
6.36503e-05
9.37249e-05
-0.000136426
7.14809e-05
-0.000155843
7.74023e-05
-0.000172753
8.11796e-05
-0.000186779
8.28328e-05
-0.000197942
8.2607e-05
-0.000206542
8.08611e-05
-0.000213037
7.79875e-05
-0.000217931
7.43481e-05
-0.00022169
7.02266e-05
-0.000224685
6.58261e-05
-0.000227185
6.12978e-05
-0.000229362
5.67428e-05
-0.000231312
5.22175e-05
-0.000233082
4.77578e-05
-0.000234681
4.33648e-05
-0.000236083
3.9028e-05
-0.000237252
3.47501e-05
-0.000238162
3.05499e-05
-0.000238809
2.64304e-05
-0.000239123
2.22637e-05
1.79235e-05
-0.000150718
8.35797e-05
0.000130789
-0.000168219
8.89817e-05
-0.000182788
9.19711e-05
-0.000194352
9.27436e-05
-0.000203194
9.16757e-05
-0.000209814
8.92271e-05
-0.000214768
8.58146e-05
-0.000218557
8.17766e-05
-0.000221586
7.73768e-05
-0.000224144
7.27846e-05
-0.000226397
6.80793e-05
-0.000228416
6.33171e-05
-0.000230235
5.85613e-05
-0.000231849
5.38311e-05
-0.00023322
4.91295e-05
-0.000234377
4.45217e-05
-0.000235388
4.00389e-05
-0.000236256
3.56178e-05
-0.000236926
3.12201e-05
-0.000237411
2.69153e-05
-0.000237712
2.25654e-05
1.76133e-05
-0.000175749
9.9248e-05
0.00016008
-0.000188243
0.000101476
-0.00019781
0.000101538
-0.000204922
9.98553e-05
-0.000210165
9.69193e-05
-0.000214112
9.31736e-05
-0.000217223
8.89262e-05
-0.00021978
8.43337e-05
-0.000221927
7.95229e-05
-0.000223721
7.45789e-05
-0.000225209
6.95671e-05
-0.000226444
6.45524e-05
-0.000227388
5.95057e-05
-0.000227992
5.44346e-05
-0.000228263
4.94007e-05
-0.000228215
4.44733e-05
-0.000227857
3.96812e-05
-0.000227231
3.49914e-05
-0.000226379
3.03688e-05
-0.000225349
2.58851e-05
-0.000224397
2.16137e-05
1.66768e-05
-0.00019051
0.000179679
0.000110079
-0.000198521
0.000109487
-0.000204352
0.000107369
-0.000208628
0.000104131
-0.000211832
0.000100124
-0.000214286
9.5628e-05
-0.000216178
9.0818e-05
-0.000217631
8.57865e-05
-0.000218614
8.0506e-05
-0.000218971
7.49361e-05
-0.000218548
6.91436e-05
-0.000217106
6.31103e-05
-0.000214427
5.68271e-05
-0.000210368
5.03757e-05
-0.000204886
4.39191e-05
-0.00019805
3.76374e-05
-0.000189992
3.16227e-05
-0.000180959
2.59581e-05
-0.000171296
2.07061e-05
-0.000161021
1.561e-05
-0.000150176
1.07689e-05
1.04021e-05
-7.1311e-07
7.1311e-07
-1.06211e-06
3.48998e-07
-3.15472e-07
-7.46638e-07
1.43482e-06
-1.75029e-06
3.47678e-06
-2.04196e-06
4.98646e-06
-1.50968e-06
5.5341e-06
-5.47642e-07
5.18044e-06
3.53665e-07
4.32562e-06
8.54822e-07
3.47026e-06
8.55355e-07
2.96677e-06
5.03499e-07
2.98554e-06
-1.8776e-08
3.57459e-06
-5.89056e-07
4.66445e-06
-1.08986e-06
5.79555e-06
-1.1311e-06
6.66973e-06
-8.74186e-07
7.16105e-06
-4.9132e-07
-5.75358e-08
-9.484e-07
1.66151e-06
-7.40857e-07
1.4145e-07
1.54727e-06
-3.03477e-06
5.32247e-06
-5.52549e-06
9.27253e-06
-5.99202e-06
1.2283e-05
-4.52011e-06
1.37415e-05
-2.00622e-06
1.35896e-05
5.05589e-07
1.22782e-05
2.1662e-06
1.05872e-05
2.54639e-06
9.28725e-06
1.80346e-06
8.8996e-06
3.68864e-07
9.58289e-06
-1.27234e-06
1.11579e-05
-2.66491e-06
1.28121e-05
-2.78526e-06
1.39767e-05
-2.03876e-06
1.43004e-05
-8.15062e-07
4.09703e-07
-5.32511e-07
2.19402e-06
1.00295e-06
-1.39401e-06
5.15379e-06
-7.18561e-06
1.0543e-05
-1.09147e-05
1.55447e-05
-1.09938e-05
1.90809e-05
-8.05626e-06
2.07074e-05
-3.63279e-06
2.0482e-05
7.31011e-07
1.89147e-05
3.73347e-06
1.67903e-05
4.67085e-06
1.49513e-05
3.64246e-06
1.40666e-05
1.25354e-06
1.43502e-05
-1.55592e-06
1.53864e-05
-3.70115e-06
1.61526e-05
-3.55145e-06
1.60747e-05
-1.96088e-06
1.48175e-05
4.4217e-07
2.95946e-06
2.81766e-07
1.91225e-06
3.73642e-06
-4.84867e-06
9.99788e-06
-1.34471e-05
1.68273e-05
-1.77441e-05
2.24017e-05
-1.65681e-05
2.58357e-05
-1.14903e-05
2.69565e-05
-4.75361e-06
2.60836e-05
1.6039e-06
2.39247e-05
5.89238e-06
2.12807e-05
7.3148e-06
1.89447e-05
5.97852e-06
1.75329e-05
2.66525e-06
1.70431e-05
-1.06605e-06
1.65748e-05
-3.23288e-06
1.52538e-05
-2.2305e-06
1.25033e-05
7.89675e-07
8.04615e-06
4.89931e-06
9.60986e-06
1.40126e-06
5.10989e-07
7.26074e-06
-1.07081e-05
1.55714e-05
-2.17578e-05
2.33008e-05
-2.54734e-05
2.87727e-05
-2.204e-05
3.14771e-05
-1.41947e-05
3.1549e-05
-4.82554e-06
2.97073e-05
3.44556e-06
2.67797e-05
8.82005e-06
2.34946e-05
1.05999e-05
2.0585e-05
8.88805e-06
1.84198e-05
4.83053e-06
1.64902e-05
8.63528e-07
1.36133e-05
-3.56058e-07
9.14572e-06
2.23711e-06
2.46347e-06
7.47192e-06
-7.11257e-06
1.44753e-05
2.34545e-05
2.89848e-06
-2.38749e-06
1.13481e-05
-1.91578e-05
2.1068e-05
-3.14776e-05
2.87094e-05
-3.31149e-05
3.30574e-05
-2.6388e-05
3.42177e-05
-1.5355e-05
3.30802e-05
-3.68795e-06
3.04337e-05
6.09198e-06
2.68247e-05
1.24291e-05
2.29619e-05
1.44627e-05
1.94203e-05
1.24297e-05
1.61316e-05
8.11923e-06
1.20916e-05
4.90346e-06
6.11288e-06
5.62269e-06
-2.53059e-06
1.08806e-05
-1.47764e-05
1.97177e-05
-3.1833e-05
3.1532e-05
4.61613e-05
4.78068e-06
-7.16817e-06
1.54677e-05
-2.98449e-05
2.53992e-05
-4.14091e-05
3.17715e-05
-3.94872e-05
3.43114e-05
-2.89278e-05
3.39631e-05
-1.50067e-05
3.17456e-05
-1.4705e-06
2.82191e-05
9.61851e-06
2.39913e-05
1.66569e-05
1.9603e-05
1.88511e-05
1.52958e-05
1.67369e-05
1.04335e-05
1.29815e-05
3.6483e-06
1.16886e-05
-6.33748e-06
1.56085e-05
-2.05015e-05
2.50446e-05
-3.97967e-05
3.90129e-05
-6.45695e-05
5.63047e-05
7.53168e-05
7.09593e-06
-1.42641e-05
1.88657e-05
-4.16146e-05
2.75594e-05
-5.01028e-05
3.16171e-05
-4.35449e-05
3.20275e-05
-2.93382e-05
3.02622e-05
-1.32414e-05
2.70954e-05
1.69636e-06
2.30528e-05
1.36611e-05
1.84592e-05
2.12504e-05
1.36097e-05
2.37006e-05
8.32023e-06
2.20264e-05
1.36471e-06
1.99371e-05
-9.00502e-06
2.20584e-05
-2.41118e-05
3.07152e-05
-4.46539e-05
4.55868e-05
-7.05265e-05
6.48855e-05
-0.000100204
8.59821e-05
0.000105901
9.55131e-06
-2.38154e-05
2.07828e-05
-5.28461e-05
2.70655e-05
-5.63855e-05
2.86418e-05
-4.51212e-05
2.71415e-05
-2.7838e-05
2.41129e-05
-1.02128e-05
2.02427e-05
5.56651e-06
1.57925e-05
1.81114e-05
1.08632e-05
2.61797e-05
5.48095e-06
2.90828e-05
-1.17216e-06
2.86795e-05
-1.10597e-05
2.98246e-05
-2.60042e-05
3.70029e-05
-4.67918e-05
5.15028e-05
-7.29831e-05
7.17781e-05
-0.000102712
9.46148e-05
-0.000132875
0.000116145
0.000133107
1.13211e-05
-3.51365e-05
2.08068e-05
-6.23317e-05
2.44646e-05
-6.00433e-05
2.36201e-05
-4.42767e-05
2.06561e-05
-2.48739e-05
1.67414e-05
-6.29806e-06
1.22931e-05
1.00147e-05
7.3801e-06
2.30244e-05
2.03066e-06
3.15291e-05
-4.19264e-06
3.53061e-05
-1.30802e-05
3.7567e-05
-2.69131e-05
4.36575e-05
-4.69166e-05
5.70064e-05
-7.26741e-05
7.72602e-05
-0.000102113
0.000101217
-0.000131915
0.000124417
-0.000158589
0.000142818
0.000154197
-0.00020975
0.000117232
0.000202597
-0.000214827
0.000114564
-0.000218403
0.000110945
-0.000220893
0.000106622
-0.000222617
0.000101847
-0.000223546
9.6557e-05
-0.000223392
9.06641e-05
-0.000221753
8.41476e-05
-0.000218184
7.69374e-05
-0.000212376
6.91282e-05
-0.000204085
6.08526e-05
-0.000193207
5.22324e-05
-0.000179892
4.35116e-05
-0.000164492
3.4976e-05
-0.000147433
2.68595e-05
-0.000129055
1.92597e-05
-0.000109664
1.22313e-05
-8.96359e-05
5.9304e-06
-6.9513e-05
5.83164e-07
-4.9714e-05
-4.189e-06
-2.83486e-05
-1.05964e-05
-1.79465e-05
-0.000211226
0.000121179
0.000207279
-0.000213726
0.000117064
-0.000215042
0.000112261
-0.000215042
0.000106621
-0.000213268
0.000100074
-0.00020927
9.25592e-05
-0.000202632
8.40255e-05
-0.000193034
7.45495e-05
-0.000180435
6.43387e-05
-0.00016501
5.37035e-05
-0.000147154
4.29965e-05
-0.000127559
3.26374e-05
-0.000107089
2.3041e-05
-8.66453e-05
1.45326e-05
-6.71045e-05
7.31879e-06
-4.92766e-05
1.43173e-06
-3.3828e-05
-3.21729e-06
-2.1113e-05
-6.78463e-06
-1.09022e-05
-9.62762e-06
-2.40724e-06
-1.26839e-05
3.04565e-06
-1.60493e-05
-1.49008e-05
-0.000207465
0.000122271
0.000206373
-0.000206806
0.000116405
-0.000203921
0.000109376
-0.000198385
0.000101085
-0.000189808
9.14967e-05
-0.000177949
8.07004e-05
-0.000162877
6.89533e-05
-0.000145007
5.6679e-05
-0.000125068
4.43998e-05
-0.000104022
3.26577e-05
-8.29932e-05
2.19677e-05
-6.31315e-05
1.27757e-05
-4.54602e-05
5.36961e-06
-3.07036e-05
-2.24027e-07
-1.90868e-05
-4.29796e-06
-1.03521e-05
-7.30305e-06
-4.07588e-06
-9.49348e-06
2.68473e-07
-1.1129e-05
3.20154e-06
-1.25607e-05
4.57018e-06
-1.40526e-05
3.61585e-06
-1.5095e-05
-1.1285e-05
-0.000196392
0.000119021
0.000199642
-0.000190231
0.000110243
-0.000180791
9.99363e-05
-0.000167904
8.81973e-05
-0.000151738
7.53308e-05
-0.000132847
6.18095e-05
-0.000112135
4.82412e-05
-9.07401e-05
3.52844e-05
-6.9885e-05
2.35447e-05
-5.07225e-05
1.34952e-05
-3.41844e-05
5.42963e-06
-2.07971e-05
-6.11498e-07
-1.05375e-05
-4.89007e-06
-2.92033e-06
-7.84118e-06
2.52991e-06
-9.7482e-06
6.07709e-06
-1.08502e-05
8.01205e-06
-1.14284e-05
8.60917e-06
-1.17261e-05
8.00891e-06
-1.19604e-05
6.24438e-06
-1.22881e-05
3.11571e-06
-1.19663e-05
-8.16928e-06
-0.000175371
0.000109728
0.000184664
-0.000162459
9.73307e-05
-0.000146154
8.36313e-05
-0.000127058
6.91013e-05
-0.000106137
5.44103e-05
-8.45996e-05
4.02718e-05
-6.37122e-05
2.73537e-05
-4.46066e-05
1.61789e-05
-2.81224e-05
7.06048e-06
-1.47087e-05
8.14576e-08
-4.3402e-06
-4.93885e-06
3.39139e-06
-8.34309e-06
8.93331e-06
-1.0432e-05
1.25884e-05
-1.14962e-05
1.46709e-05
-1.18308e-05
1.5405e-05
-1.15843e-05
1.49375e-05
-1.0961e-05
1.34175e-05
-1.02061e-05
1.09552e-05
-9.49812e-06
7.5188e-06
-8.85164e-06
3.35206e-06
-7.79959e-06
-4.81723e-06
-0.000145039
9.41407e-05
0.000160627
-0.000126379
7.8671e-05
-0.000105635
6.28866e-05
-8.40175e-05
4.74842e-05
-6.28185e-05
3.32113e-05
-4.31907e-05
2.0644e-05
-2.59878e-05
1.01509e-05
-1.16749e-05
1.86598e-06
-3.29592e-07
-4.2848e-06
8.30037e-06
-8.54851e-06
1.45715e-05
-1.121e-05
1.87883e-05
-1.25599e-05
2.13178e-05
-1.29615e-05
2.24207e-05
-1.25992e-05
2.22689e-05
-1.16789e-05
2.11001e-05
-1.04155e-05
1.90666e-05
-8.92748e-06
1.62478e-05
-7.38729e-06
1.26811e-05
-5.93146e-06
8.34236e-06
-4.51288e-06
3.51434e-06
-2.97158e-06
-1.30289e-06
-0.000109645
7.41169e-05
0.000129669
-8.82462e-05
5.72717e-05
-6.67754e-05
4.14158e-05
-4.64362e-05
2.71449e-05
-2.816e-05
1.49351e-05
-1.25066e-05
4.99062e-06
3.02805e-07
-2.65858e-06
1.03591e-05
-8.19029e-06
1.79141e-05
-1.18399e-05
2.32105e-05
-1.38449e-05
2.64961e-05
-1.44955e-05
2.81156e-05
-1.41795e-05
2.83899e-05
-1.32358e-05
2.76507e-05
-1.186e-05
2.60545e-05
-1.00827e-05
2.37123e-05
-8.07334e-06
2.07361e-05
-5.95129e-06
1.71987e-05
-3.84989e-06
1.30957e-05
-1.82848e-06
8.39519e-06
1.87672e-07
3.41798e-06
2.00562e-06
2.11509e-06
-7.51423e-05
5.27912e-05
9.64679e-05
-5.43649e-05
3.64944e-05
-3.5149e-05
2.21999e-05
-1.81899e-05
1.01859e-05
-3.8021e-06
5.47292e-07
7.92199e-06
-6.73347e-06
1.70365e-05
-1.1773e-05
2.37138e-05
-1.48676e-05
2.8112e-05
-1.62381e-05
3.05312e-05
-1.62641e-05
3.14701e-05
-1.54344e-05
3.13759e-05
-1.40853e-05
3.04146e-05
-1.22744e-05
2.86459e-05
-1.00913e-05
2.62451e-05
-7.68193e-06
2.33462e-05
-5.17449e-06
2.00325e-05
-2.63754e-06
1.63217e-05
-1.39162e-07
1.21862e-05
2.30711e-06
7.62165e-06
4.75218e-06
3.03472e-06
6.59255e-06
5.14981e-06
-4.65326e-05
3.31206e-05
6.62032e-05
-2.87094e-05
1.86711e-05
-1.31808e-05
6.67134e-06
-9.91688e-08
-2.89576e-06
1.05308e-05
-1.00827e-05
1.87527e-05
-1.49553e-05
2.46727e-05
-1.76931e-05
2.85718e-05
-1.87667e-05
3.08064e-05
-1.84727e-05
3.15856e-05
-1.70432e-05
3.11641e-05
-1.50129e-05
2.98588e-05
-1.27801e-05
2.79568e-05
-1.03725e-05
2.56561e-05
-7.79057e-06
2.3087e-05
-5.11284e-06
2.02745e-05
-2.36193e-06
1.71983e-05
4.38623e-07
1.3819e-05
3.24017e-06
1.00938e-05
6.03232e-06
6.06962e-06
8.77633e-06
2.23943e-06
1.04227e-05
7.38925e-06
-2.66292e-05
1.70041e-05
4.27458e-05
-1.28551e-05
4.89696e-06
-1.43218e-06
-4.75156e-06
7.72216e-06
-1.20501e-05
1.47217e-05
-1.70822e-05
1.97708e-05
-2.00044e-05
2.31417e-05
-2.1064e-05
2.5015e-05
-2.06401e-05
2.56221e-05
-1.90798e-05
2.53442e-05
-1.67653e-05
2.43986e-05
-1.40673e-05
2.29472e-05
-1.13286e-05
2.12165e-05
-8.64185e-06
1.93593e-05
-5.93332e-06
1.73849e-05
-3.13846e-06
1.52372e-05
-2.14194e-07
1.28514e-05
2.82436e-06
1.01685e-05
5.92311e-06
7.15887e-06
9.04193e-06
3.93248e-06
1.20027e-05
1.10462e-06
1.32506e-05
8.49387e-06
-1.64473e-05
5.35966e-06
2.80917e-05
-7.16497e-06
-4.3854e-06
-1.21793e-08
-1.19044e-05
5.3279e-06
-1.73902e-05
9.21678e-06
-2.09711e-05
1.19961e-05
-2.27837e-05
1.39105e-05
-2.29784e-05
1.50611e-05
-2.17906e-05
1.55096e-05
-1.95283e-05
1.53683e-05
-1.6624e-05
1.48024e-05
-1.35014e-05
1.39549e-05
-1.04812e-05
1.29594e-05
-7.64633e-06
1.18994e-05
-4.87326e-06
1.07514e-05
-1.99049e-06
9.4364e-06
1.1008e-06
7.87092e-06
4.38985e-06
5.99697e-06
7.79706e-06
3.84665e-06
1.11923e-05
1.67555e-06
1.41738e-05
1.3751e-07
1.47886e-05
8.63138e-06
-1.59403e-05
-1.45117e-06
2.27512e-05
-1.11618e-05
-9.16389e-06
-7.82349e-06
-1.52427e-05
-5.3183e-06
-1.98954e-05
-3.17153e-06
-2.31179e-05
-1.15369e-06
-2.48016e-05
7.49484e-07
-2.48816e-05
2.41679e-06
-2.34579e-05
3.71934e-06
-2.08309e-05
4.57269e-06
-1.74774e-05
4.99433e-06
-1.3923e-05
5.07815e-06
-1.0565e-05
4.95089e-06
-7.51908e-06
4.70232e-06
-4.62468e-06
4.32965e-06
-1.61783e-06
3.76605e-06
1.6644e-06
2.94327e-06
5.21262e-06
1.83825e-06
8.90209e-06
5.43786e-07
1.24867e-05
-4.29681e-07
1.51473e-05
-6.23729e-07
1.49827e-05
8.00765e-06
-2.36182e-05
-3.8159e-06
2.5983e-05
-2.23585e-05
-1.04236e-05
-2.13832e-05
-1.6218e-05
-2.01379e-05
-2.11406e-05
-1.83757e-05
-2.48801e-05
-1.60877e-05
-2.70896e-05
-1.34148e-05
-2.75545e-05
-1.05939e-05
-2.62788e-05
-7.90268e-06
-2.35221e-05
-5.60077e-06
-1.97793e-05
-3.85095e-06
-1.56728e-05
-2.66808e-06
-1.17479e-05
-1.93619e-06
-8.25097e-06
-1.50068e-06
-5.06019e-06
-1.27392e-06
-1.84459e-06
-1.26006e-06
1.65055e-06
-1.48468e-06
5.43725e-06
-1.91175e-06
9.32916e-06
-2.31937e-06
1.28943e-05
-2.16545e-06
1.49934e-05
-1.20192e-06
1.40192e-05
6.80573e-06
-3.58145e-05
-3.21097e-06
3.52095e-05
-3.63757e-05
-9.86239e-06
-3.63496e-05
-1.62441e-05
-3.54995e-05
-2.19907e-05
-3.37477e-05
-2.66319e-05
-3.11046e-05
-2.97327e-05
-2.76739e-05
-3.09852e-05
-2.36746e-05
-3.02781e-05
-1.94434e-05
-2.77533e-05
-1.54031e-05
-2.38196e-05
-1.19616e-05
-1.91143e-05
-9.3682e-06
-1.43413e-05
-7.62347e-06
-9.99569e-06
-6.51947e-06
-6.1642e-06
-5.80644e-06
-2.55762e-06
-5.33911e-06
1.18321e-06
-5.05374e-06
5.15188e-06
-4.82637e-06
9.10179e-06
-4.36005e-06
1.2428e-05
-3.3146e-06
1.39479e-05
-1.49893e-06
1.22035e-05
5.3068e-06
-4.82008e-05
-1.33592e-06
4.63257e-05
-4.94626e-05
-8.6006e-06
-4.9948e-05
-1.57587e-05
-4.95363e-05
-2.24025e-05
-4.80975e-05
-2.80707e-05
-4.55252e-05
-3.2305e-05
-4.17934e-05
-3.47169e-05
-3.70145e-05
-3.5057e-05
-3.14781e-05
-3.32897e-05
-2.56725e-05
-2.96252e-05
-2.02254e-05
-2.45614e-05
-1.57169e-05
-1.88499e-05
-1.24597e-05
-1.32529e-05
-1.03724e-05
-8.25147e-06
-9.07485e-06
-3.85515e-06
-8.16948e-06
2.77842e-07
-7.40956e-06
4.39196e-06
-6.5817e-06
8.27393e-06
-5.40304e-06
1.12494e-05
-3.66389e-06
1.22088e-05
-1.42039e-06
9.95998e-06
3.88641e-06
-5.80614e-05
8.87623e-07
5.58379e-05
-5.97048e-05
-6.95717e-06
-6.07265e-05
-1.4737e-05
-6.09898e-05
-2.21393e-05
-6.02739e-05
-2.87866e-05
-5.83387e-05
-3.42402e-05
-5.49981e-05
-3.80575e-05
-5.01968e-05
-3.98583e-05
-4.40614e-05
-3.94251e-05
-3.69664e-05
-3.67202e-05
-2.95838e-05
-3.1944e-05
-2.27595e-05
-2.56741e-05
-1.72459e-05
-1.87666e-05
-1.34039e-05
-1.20935e-05
-1.10229e-05
-6.23612e-06
-9.50357e-06
-1.24147e-06
-8.27437e-06
3.16276e-06
-6.96947e-06
6.96903e-06
-5.32267e-06
9.60256e-06
-3.2532e-06
1.01393e-05
-1.08252e-06
7.7893e-06
2.80389e-06
-6.43868e-05
3.12309e-06
6.21514e-05
-6.62666e-05
-5.07742e-06
-6.77629e-05
-1.32407e-05
-6.87652e-05
-2.1137e-05
-6.90229e-05
-2.85289e-05
-6.81895e-05
-3.50736e-05
-6.59281e-05
-4.03189e-05
-6.19884e-05
-4.37981e-05
-5.62791e-05
-4.51344e-05
-4.89165e-05
-4.40828e-05
-4.03632e-05
-4.04973e-05
-3.14717e-05
-3.45657e-05
-2.32923e-05
-2.69459e-05
-1.67637e-05
-1.86222e-05
-1.22987e-05
-1.07011e-05
-9.55347e-06
-3.98672e-06
-7.70778e-06
1.31707e-06
-6.06757e-06
5.32883e-06
-4.28982e-06
7.82481e-06
-2.36387e-06
8.21335e-06
-6.80496e-07
6.10593e-06
2.1234e-06
-6.71932e-05
5.22082e-06
6.50955e-05
-6.91388e-05
-3.13185e-06
-7.09001e-05
-1.14794e-05
-7.2381e-05
-1.96561e-05
-7.34645e-05
-2.74454e-05
-7.39032e-05
-3.46348e-05
-7.32065e-05
-4.10156e-05
-7.08292e-05
-4.61754e-05
-6.65024e-05
-4.94612e-05
-6.01069e-05
-5.04784e-05
-5.17053e-05
-4.88988e-05
-4.18525e-05
-4.44185e-05
-3.15556e-05
-3.72428e-05
-2.20789e-05
-2.80989e-05
-1.4566e-05
-1.82139e-05
-9.49474e-06
-9.058e-06
-6.41341e-06
-1.76426e-06
-4.36699e-06
3.2824e-06
-2.6963e-06
6.15412e-06
-1.25467e-06
6.77172e-06
-2.61473e-07
5.11273e-06
1.86192e-06
-6.70934e-05
7.11722e-06
6.5197e-05
-6.89958e-05
-1.22949e-06
-7.09036e-05
-9.57158e-06
-7.27575e-05
-1.78022e-05
-7.43904e-05
-2.58125e-05
-7.55621e-05
-3.34631e-05
-7.60595e-05
-4.05182e-05
-7.54842e-05
-4.67507e-05
-7.3206e-05
-5.17394e-05
-6.87448e-05
-5.49396e-05
-6.18341e-05
-5.58095e-05
-5.25593e-05
-5.36933e-05
-4.15682e-05
-4.82339e-05
-3.00292e-05
-3.96378e-05
-1.94641e-05
-2.87791e-05
-1.12303e-05
-1.72918e-05
-5.86781e-06
-7.12676e-06
-2.82559e-06
2.40176e-07
-1.10977e-06
4.4383e-06
-1.72033e-07
5.83399e-06
1.4047e-07
4.80023e-06
2.00239e-06
-6.48318e-05
8.78287e-06
6.31662e-05
-6.66028e-05
5.41442e-07
-6.84945e-05
-7.67989e-06
-7.04795e-05
-1.58171e-05
-7.24804e-05
-2.38116e-05
-7.43503e-05
-3.15932e-05
-7.58067e-05
-3.90617e-05
-7.65083e-05
-4.60491e-05
-7.59316e-05
-5.23161e-05
-7.36136e-05
-5.72576e-05
-6.9012e-05
-6.04111e-05
-6.16344e-05
-6.10709e-05
-5.15944e-05
-5.82739e-05
-3.96137e-05
-5.16186e-05
-2.71059e-05
-4.12869e-05
-1.5903e-05
-2.84946e-05
-7.56795e-06
-1.54618e-05
-2.60041e-06
-4.72737e-06
-2.46256e-07
2.08415e-06
5.66348e-07
5.02138e-06
4.42513e-07
4.92407e-06
2.44491e-06
-6.12559e-05
1.02459e-05
5.97928e-05
-6.28625e-05
2.14805e-06
-6.46239e-05
-5.91841e-06
-6.65259e-05
-1.39152e-05
-6.85311e-05
-2.18064e-05
-7.05681e-05
-2.95562e-05
-7.25121e-05
-3.71177e-05
-7.41384e-05
-4.44229e-05
-7.51003e-05
-5.13542e-05
-7.47035e-05
-5.76544e-05
-7.23451e-05
-6.27695e-05
-6.75194e-05
-6.58966e-05
-5.96986e-05
-6.60947e-05
-4.89332e-05
-6.23839e-05
-3.61209e-05
-5.40993e-05
-2.30353e-05
-4.15801e-05
-1.18859e-05
-2.66112e-05
-4.3486e-06
-1.22647e-05
-5.8178e-07
-1.68268e-06
6.47696e-07
3.79191e-06
4.81782e-07
5.08998e-06
2.92669e-06
-5.70698e-05
1.1586e-05
5.57297e-05
-5.85568e-05
3.63505e-06
-6.01902e-05
-4.28504e-06
-6.19585e-05
-1.21469e-05
-6.38403e-05
-1.99245e-05
-6.58004e-05
-2.75961e-05
-6.7775e-05
-3.51431e-05
-6.96473e-05
-4.25505e-05
-7.12177e-05
-4.97838e-05
-7.21657e-05
-5.67064e-05
-7.19232e-05
-6.3012e-05
-6.96522e-05
-6.81675e-05
-6.46044e-05
-7.11425e-05
-5.62461e-05
-7.07423e-05
-4.47253e-05
-6.562e-05
-3.12511e-05
-5.50543e-05
-1.80944e-05
-3.9768e-05
-7.84097e-06
-2.25181e-05
-1.96098e-06
-7.56266e-06
2.26398e-07
1.60453e-06
4.07809e-07
4.90857e-06
3.3345e-06
-5.26017e-05
1.28617e-05
5.1326e-05
-5.40114e-05
5.0448e-06
-5.55473e-05
-2.74913e-06
-5.71966e-05
-1.04976e-05
-5.89425e-05
-1.81787e-05
-6.07637e-05
-2.57749e-05
-6.26309e-05
-3.32759e-05
-6.44995e-05
-4.0682e-05
-6.62895e-05
-4.79937e-05
-6.78195e-05
-5.51764e-05
-6.87246e-05
-6.21069e-05
-6.84228e-05
-6.84693e-05
-6.59905e-05
-7.35748e-05
-6.0504e-05
-7.62288e-05
-5.14325e-05
-7.46916e-05
-3.90891e-05
-6.73977e-05
-2.51885e-05
-5.36686e-05
-1.26339e-05
-3.50727e-05
-4.21827e-06
-1.59783e-05
-5.69454e-07
-2.04428e-06
2.78113e-07
4.06101e-06
3.61261e-06
-4.79798e-05
1.41064e-05
4.67351e-05
-4.93412e-05
6.40619e-06
-5.08078e-05
-1.2825e-06
-5.23651e-05
-8.94025e-06
-5.39963e-05
-1.65476e-05
-5.56833e-05
-2.40879e-05
-5.74079e-05
-3.15513e-05
-5.91518e-05
-3.8938e-05
-6.08892e-05
-4.62564e-05
-6.25514e-05
-5.35142e-05
-6.39646e-05
-6.06938e-05
-6.47574e-05
-6.76764e-05
-6.42594e-05
-7.40728e-05
-6.14901e-05
-7.89981e-05
-5.53477e-05
-8.08339e-05
-4.53145e-05
-7.74309e-05
-3.21122e-05
-6.68708e-05
-1.82225e-05
-4.89624e-05
-7.24423e-06
-2.69565e-05
-1.61126e-06
-7.67725e-06
6.02881e-08
2.38946e-06
3.6729e-06
-4.32447e-05
1.53385e-05
4.20126e-05
-4.4578e-05
7.73948e-06
-4.59998e-05
1.3931e-07
-4.74949e-05
-7.44516e-06
-4.90455e-05
-1.4997e-05
-5.06332e-05
-2.25001e-05
-5.22415e-05
-2.99431e-05
-5.38572e-05
-3.73222e-05
-5.54706e-05
-4.4643e-05
-5.70633e-05
-5.19215e-05
-5.85785e-05
-5.91786e-05
-5.98498e-05
-6.64052e-05
-6.04693e-05
-7.34533e-05
-5.9665e-05
-7.98024e-05
-5.62738e-05
-8.42251e-05
-4.91226e-05
-8.45821e-05
-3.78594e-05
-7.81341e-05
-2.3936e-05
-6.28859e-05
-1.09095e-05
-3.9983e-05
-2.78569e-06
-1.5801e-05
-1.32894e-07
-2.63338e-07
3.54001e-06
-3.84044e-05
1.65681e-05
3.71748e-05
-3.97229e-05
9.05798e-06
-4.11182e-05
1.53464e-06
-4.25753e-05
-5.98814e-06
-4.40758e-05
-1.34964e-05
-4.56011e-05
-2.09748e-05
-4.71334e-05
-2.84108e-05
-4.86585e-05
-3.57971e-05
-5.01669e-05
-4.31346e-05
-5.16531e-05
-5.04353e-05
-5.31071e-05
-5.77247e-05
-5.44791e-05
-6.50331e-05
-5.55887e-05
-7.23437e-05
-5.59576e-05
-7.94335e-05
-5.46384e-05
-8.55444e-05
-5.02797e-05
-8.89408e-05
-4.16957e-05
-8.67181e-05
-2.90438e-05
-7.55378e-05
-1.50232e-05
-5.40036e-05
-4.46009e-06
-2.63641e-05
-4.12387e-07
-4.31104e-06
3.12762e-06
-3.34603e-05
1.78013e-05
3.22271e-05
-3.47738e-05
1.03715e-05
-3.61568e-05
2.91758e-06
-3.75944e-05
-4.55054e-06
-3.90689e-05
-1.2022e-05
-4.05611e-05
-1.94826e-05
-4.20529e-05
-2.6919e-05
-4.35282e-05
-3.43218e-05
-4.49745e-05