/*--------------------------------*- C++ -*----------------------------------*\
| =========                 |                                                 |
| \\      /  F ield         | OpenFOAM: The Open Source CFD Toolbox           |
|  \\    /   O peration     | Version:  v2012                                 |
|   \\  /    A nd           | Website:  www.openfoam.com                      |
|    \\/     M anipulation  |                                                 |
\*---------------------------------------------------------------------------*/
FoamFile
{
    version     2.0;
    format      ascii;
    class       volScalarField;
    location    "984";
    object      nut;
}
// * * * * * * * * * * * * * * * * * * * * * * * * * * * * * * * * * * * * * //

dimensions      [0 2 -1 0 0 0 0];


internalField   nonuniform List<scalar> 
6066
(
1.35358e-05
1.66331e-05
1.98792e-05
2.33001e-05
2.69376e-05
3.08712e-05
3.52011e-05
4.00383e-05
4.54964e-05
5.16719e-05
5.87338e-05
6.69761e-05
7.68468e-05
8.90101e-05
0.000104467
0.000124748
0.000152209
0.000190541
0.000245782
0.000328466
8.94312e-05
0.000102831
0.000117247
0.000133483
0.00015174
0.000172351
0.000195992
0.000223566
0.000256281
0.000295508
0.000342667
0.000399452
0.000468447
0.00055335
0.000659567
0.000795202
0.000973002
0.0012151
0.00157135
0.00217457
0.000448989
0.000513775
0.000581611
0.000651524
0.000723466
0.000798092
0.000876817
0.000961218
0.00105292
0.00115332
0.00126399
0.00138706
0.00152494
0.00168024
0.00185611
0.00205569
0.00228101
0.00253078
0.00279733
0.00305743
0.00111457
0.00122662
0.00133462
0.0014385
0.00153931
0.0016385
0.00173764
0.00183804
0.00194073
0.00204642
0.0021556
0.00226845
0.00238505
0.0025052
0.00262781
0.00275079
0.00287095
0.00298392
0.00308483
0.0031691
0.00169937
0.00180431
0.00190208
0.00199407
0.00208191
0.00216706
0.00225059
0.00233319
0.00241525
0.00249684
0.00257782
0.00265781
0.00273627
0.0028125
0.00288561
0.00295468
0.00301893
0.00307796
0.00313205
0.00318229
0.00189811
0.00196855
0.00203634
0.00210284
0.00216923
0.00223635
0.0023047
0.00237458
0.00244612
0.00251887
0.00259296
0.00266792
0.0027428
0.00281652
0.00288793
0.00295591
0.00301951
0.00307819
0.00313212
0.0031823
0.00162267
0.00165451
0.00169053
0.00173126
0.00177707
0.00182838
0.0018855
0.00194844
0.00202168
0.00210498
0.00219718
0.00229731
0.00240463
0.00251799
0.0026357
0.00275532
0.00287328
0.00298494
0.00308515
0.00316915
0.000925426
0.000924185
0.000930895
0.000944653
0.000964843
0.000991206
0.00102684
0.00107825
0.00114321
0.00122207
0.00131567
0.00142535
0.00155271
0.00169986
0.0018695
0.00206437
0.00228621
0.00253355
0.00279846
0.00305764
0.000219082
0.000211578
0.000209101
0.000210569
0.000215362
0.000223086
0.000237637
0.000257898
0.000284554
0.000318528
0.000361039
0.000413945
0.000479778
0.000562095
0.000666174
0.000800042
0.000976388
0.00121738
0.00157278
0.00217514
3.96518e-05
3.77658e-05
3.66333e-05
3.65566e-05
3.73676e-05
3.90552e-05
4.15711e-05
4.49264e-05
4.91602e-05
5.43526e-05
6.06581e-05
6.83347e-05
7.77859e-05
8.96402e-05
0.000104873
0.000124994
0.000152346
0.000190607
0.000245804
0.000328468
1.53437e-07
1.61535e-07
1.76639e-07
1.9589e-07
2.12568e-07
2.25142e-07
2.33513e-07
2.33059e-07
2.22476e-07
2.01519e-07
1.81989e-07
1.7141e-07
2.75251e-07
4.80918e-07
8.27012e-07
1.37479e-06
2.1817e-06
3.29196e-06
4.72886e-06
6.4925e-06
8.56666e-06
1.09218e-05
3.42944e-06
4.01748e-06
4.7487e-06
5.6687e-06
6.78895e-06
8.00604e-06
9.06596e-06
9.94181e-06
1.10566e-05
1.27204e-05
1.49462e-05
1.76031e-05
2.07681e-05
2.44156e-05
2.86132e-05
3.34837e-05
3.90648e-05
4.53859e-05
5.24839e-05
6.04026e-05
6.91814e-05
7.8846e-05
5.9055e-05
6.54589e-05
7.10152e-05
7.48287e-05
7.82219e-05
8.14714e-05
8.38357e-05
8.62752e-05
9.02539e-05
9.62378e-05
0.000104196
0.000114107
0.000126312
0.000141142
0.000159013
0.000180359
0.00020553
0.000234822
0.000268469
0.000306624
0.000349717
0.000397358
0.000230051
0.000222305
0.000213091
0.000205249
0.000201012
0.000199792
0.000201371
0.00020679
0.000217165
0.000233183
0.000255355
0.000284318
0.000320882
0.000365829
0.000419821
0.000483234
0.00055598
0.000637562
0.000726663
0.000821225
0.00091874
0.00101699
0.000382805
0.000362833
0.000345527
0.000332431
0.00032573
0.000326508
0.000335679
0.000354344
0.000383572
0.000424296
0.000477301
0.00054316
0.000622002
0.00071326
0.000815524
0.0009265
0.00104314
0.00116197
0.00127966
0.00139351
0.00150161
0.00160346
0.000501887
0.00047328
0.000452529
0.000442179
0.000444057
0.000459283
0.000488721
0.000533103
0.000592828
0.000667697
0.000756655
0.000857631
0.000967537
0.00108255
0.00119853
0.00131163
0.00141879
0.00151811
0.00160889
0.00169136
0.00176607
0.00183438
0.000581862
0.000554372
0.000541618
0.000545106
0.000565732
0.000603623
0.000658199
0.00072803
0.000810621
0.000902349
0.000998671
0.00109466
0.0011857
0.00126822
0.00133999
0.00140034
0.00144992
0.00149029
0.00152339
0.00155077
0.00157468
0.00159801
0.000636909
0.000620444
0.000623535
0.00064546
0.000684781
0.000738734
0.000803285
0.000873292
0.000942949
0.00100648
0.00105895
0.00109703
0.00111926
0.00112596
0.00111886
0.00110048
0.00107364
0.00104133
0.001007
0.000975973
0.00095235
0.000935049
0.000678047
0.0006761
0.000693088
0.000724695
0.000765677
0.000809563
0.000849382
0.000878583
0.000892046
0.000886794
0.000862323
0.000820328
0.000764144
0.000698031
0.000626395
0.000553334
0.000482298
0.000416024
0.000356689
0.000306372
0.000267268
0.000238112
0.000704827
0.000710703
0.000727657
0.00074802
0.00076423
0.000769438
0.000758652
0.000729617
0.000683022
0.000622123
0.000551733
0.000477094
0.000402842
0.000332412
0.000267943
0.000210626
0.000161658
0.000121356
8.969e-05
6.63051e-05
5.05348e-05
4.19994e-05
5.96201e-10
3.14259e-09
4.49774e-09
6.83702e-09
2.51054e-08
5.25119e-08
7.25624e-08
7.27382e-08
5.67754e-08
3.72692e-08
2.44468e-08
2.05733e-08
2.64652e-08
4.70508e-08
8.03009e-08
1.14153e-07
1.39124e-07
1.49698e-07
6.89354e-09
4.29367e-08
2.69e-07
6.65929e-07
9.29e-07
9.12382e-07
7.01686e-07
4.5911e-07
3.07157e-07
2.08556e-07
1.52522e-07
1.51661e-07
3.09771e-07
8.66143e-07
1.69542e-06
2.37485e-06
2.71747e-06
3.01202e-06
1.61693e-08
4.05633e-07
3.3415e-06
7.76053e-06
1.07961e-05
1.12011e-05
9.39156e-06
6.6104e-06
4.32857e-06
2.90118e-06
2.18036e-06
2.32971e-06
4.93926e-06
1.38812e-05
2.73543e-05
3.90736e-05
4.6961e-05
5.38764e-05
2.42566e-08
1.15206e-06
8.88395e-06
2.01699e-05
2.92526e-05
3.33986e-05
3.22293e-05
2.70395e-05
1.98983e-05
1.41631e-05
1.11671e-05
1.32209e-05
3.0459e-05
8.11616e-05
0.000150423
0.000206087
0.000241387
0.000241186
3.06686e-08
2.12049e-06
1.3545e-05
2.98567e-05
4.40371e-05
5.22544e-05
5.38589e-05
5.05041e-05
4.27097e-05
3.41182e-05
3.03789e-05
4.56147e-05
0.000117912
0.000259291
0.000395126
0.000462935
0.000457934
0.000420849
5.86481e-08
3.6466e-06
1.91575e-05
4.12362e-05
6.09355e-05
7.24909e-05
7.52011e-05
7.27525e-05
6.5802e-05
5.80688e-05
6.3627e-05
0.000131398
0.000317046
0.00051911
0.000632725
0.000645492
0.000601894
0.000549001
2.47602e-07
6.09221e-06
2.74531e-05
5.83299e-05
8.67042e-05
0.000103111
0.000105321
0.000101136
9.28466e-05
9.03229e-05
0.00013436
0.000312651
0.000576648
0.000764224
0.000810163
0.00077126
0.000704736
0.000636802
8.49011e-07
9.8117e-06
4.02566e-05
8.55432e-05
0.000127569
0.000150199
0.000152111
0.000142368
0.000131587
0.000151983
0.000291662
0.000576266
0.000846005
0.000947628
0.000926352
0.00085095
0.000763785
0.000687654
2.24594e-06
1.53734e-05
6.06e-05
0.000129866
0.000192787
0.00022264
0.000222569
0.000202554
0.000199032
0.000290936
0.00055007
0.000869958
0.00104349
0.00106156
0.00098901
0.000885485
0.000787218
0.000714597
4.61921e-06
2.37034e-05
9.37095e-05
0.000201734
0.000294445
0.00032903
0.000319967
0.000293415
0.000333741
0.000541978
0.00085113
0.00108761
0.0011657
0.00111579
0.00100428
0.000884255
0.00078665
0.000726025
0.000708174
0.000708097
0.00070798
0.000700852
0.000682174
0.000650234
0.000606186
0.000553235
0.000495388
0.000435987
0.000377931
0.000322841
0.000271474
0.000224125
0.000180914
0.000141967
0.000107393
7.71193e-05
5.11257e-05
2.95926e-05
1.32641e-05
4.96384e-06
0.000684718
0.00067195
0.000654263
0.000629173
0.000596922
0.000559481
0.0005194
0.000478872
0.000439145
0.00040066
0.000363398
0.000327016
0.000291371
0.000256624
0.000223229
0.000191875
0.000163642
0.000133732
9.4917e-05
4.49848e-05
7.94042e-06
1.00766e-06
0.000655217
0.000638657
0.000620405
0.000600876
0.000581275
0.000562589
0.000545038
0.000528129
0.000510948
0.000492738
0.000473147
0.000452694
0.000433129
0.000417648
0.000411232
0.000404677
0.000370368
0.000318584
0.000227729
9.38773e-05
1.11836e-05
5.89829e-07
0.000656047
0.000653221
0.000654005
0.000658112
0.000664652
0.00067203
0.000678208
0.000681296
0.000680085
0.000674581
0.000666503
0.000659487
0.000659446
0.000657639
0.000627347
0.000596881
0.000564709
0.000502634
0.000364082
0.000141822
1.51296e-05
4.2664e-07
0.000720491
0.000745628
0.000775748
0.000808006
0.00083879
0.000864568
0.000882404
0.000890601
0.000889259
0.000880103
0.000871431
0.000854675
0.000819501
0.000786093
0.000749865
0.000717464
0.000681765
0.000612498
0.000447286
0.000173908
1.82667e-05
3.33721e-07
0.000863414
0.000919417
0.000974967
0.00102483
0.00106364
0.00108735
0.00109353
0.00108145
0.00105726
0.00101863
0.000967366
0.000917301
0.000868338
0.000823862
0.000787173
0.000757139
0.000722717
0.00065529
0.000483098
0.000189252
1.99354e-05
2.50662e-07
0.00107267
0.00114763
0.00120993
0.00125317
0.00127169
0.00126189
0.00122503
0.00116016
0.00108651
0.0010135
0.000943768
0.000882056
0.000830224
0.000788095
0.000758348
0.000735516
0.000709466
0.00064938
0.000479806
0.000186755
1.94456e-05
1.91781e-07
0.00130685
0.00137495
0.00141321
0.00141495
0.00137484
0.00129184
0.00118908
0.00108803
0.000992135
0.000907243
0.000836115
0.000779357
0.000736064
0.000705261
0.000686353
0.000674649
0.000659505
0.000607107
0.000440876
0.00016419
1.65091e-05
2.2001e-07
0.0015021
0.00152815
0.0015046
0.00142339
0.00128315
0.00115043
0.00102633
0.000915619
0.000821668
0.000745305
0.00068618
0.00064188
0.000612337
0.00059544
0.000589209
0.000589822
0.000583984
0.000533552
0.000374138
0.000131745
1.26308e-05
2.44921e-07
0.00158903
0.00153643
0.00141584
0.00123145
0.00106515
0.000920344
0.000797145
0.000695148
0.000616969
0.00055847
0.000517199
0.000490602
0.000476604
0.000473599
0.000480248
0.000492318
0.000492099
0.000445809
0.000297235
9.74848e-05
8.74337e-06
2.45918e-07
0.00151885
0.00136492
0.00116783
0.000963343
0.000799452
0.000667444
0.00056415
0.000485984
0.000429165
0.000389368
0.000363298
0.000349141
0.000346158
0.000354283
0.000372018
0.00039211
0.000398482
0.000352367
0.000219267
6.63426e-05
5.49487e-06
2.31684e-07
0.00129571
0.00107693
0.000874368
0.000698309
0.000563445
0.000465156
0.000393844
0.000342264
0.000305056
0.000277259
0.000257022
0.000244497
0.000241781
0.000252576
0.000275531
0.000299907
0.000304257
0.00025605
0.000145856
3.95327e-05
3.01829e-06
1.99727e-07
0.000991161
0.000780139
0.00061371
0.000493059
0.000410433
0.000353115
0.000311212
0.000278624
0.000251557
0.000227579
0.000205867
0.000187491
0.000175933
0.000177332
0.000192948
0.000211274
0.000206467
0.0001593
8.14753e-05
2.11421e-05
1.6793e-06
1.52209e-07
0.000711514
0.000551351
0.000449162
0.000383632
0.00033884
0.000305463
0.000278615
0.000255468
0.000233946
0.000212358
0.000189729
0.000166545
0.000145337
0.000131086
0.000128655
0.000131998
0.000121598
8.8017e-05
4.30799e-05
1.11631e-05
9.34054e-07
1.01107e-07
0.000518238
0.0004259
0.000373065
0.000337479
0.00030995
0.000286859
0.000266599
0.000248057
0.00022999
0.000210942
0.000189483
0.000164927
0.000137964
0.000111664
9.11793e-05
7.97921e-05
6.80944e-05
4.75194e-05
2.30175e-05
6.02366e-06
5.18909e-07
5.78845e-08
0.000421472
0.000374175
0.000345217
0.000322058
0.000301196
0.00028182
0.000263758
0.000246807
0.000230361
0.000213352
0.000194283
0.000171672
0.000144716
0.000113851
8.21948e-05
5.64021e-05
4.10053e-05
2.69911e-05
1.29188e-05
3.38253e-06
2.88569e-07
3.00208e-08
0.000389209
0.000363548
0.000345073
0.00032687
0.000307834
0.000288485
0.00026939
0.000251058
0.0002336
0.000216555
0.000198877
0.000178973
0.000155328
0.000126962
9.37669e-05
5.91664e-05
3.28256e-05
1.80593e-05
8.04129e-06
2.02954e-06
1.64275e-07
1.56481e-08
0.000396195
0.000381544
0.000368546
0.00035229
0.000332467
0.000310541
0.000287584
0.000264758
0.000243099
0.000222695
0.000203335
0.000183854
0.000162672
0.00013831
0.000109756
7.63103e-05
4.12637e-05
1.79242e-05
6.52291e-06
1.45401e-06
1.0678e-07
9.86337e-09
0.000431977
0.000425069
0.00041597
0.000400732
0.00037943
0.000353252
0.000323952
0.00029368
0.000264631
0.000237245
0.00021217
0.000189143
0.000166855
0.000143833
0.000118633
9.06788e-05
5.89979e-05
2.66369e-05
8.36109e-06
1.53436e-06
9.76418e-08
9.21821e-09
0.000492715
0.000492928
0.000486856
0.000472301
0.000449025
0.000418384
0.000382462
0.000343659
0.000304147
0.000266438
0.000231677
0.000200808
0.000173101
0.000147304
0.000121816
9.53819e-05
6.83209e-05
3.93525e-05
1.34808e-05
2.19936e-06
1.34798e-07
1.257e-08
0.000575843
0.000583939
0.000580584
0.000567116
0.00054232
0.000507414
0.000464501
0.000416221
0.00036547
0.000315285
0.000267582
0.000224835
0.000187462
0.000154775
0.000125287
9.7296e-05
6.9859e-05
4.41776e-05
1.86494e-05
3.28227e-06
1.98318e-07
1.85015e-08
0.000676238
0.000692725
0.000694064
0.000682745
0.000657583
0.00061963
0.00057082
0.00051369
0.000451251
0.000386871
0.000324099
0.00026604
0.000214839
0.000171052
0.000133787
0.000101303
7.18327e-05
4.51201e-05
2.15586e-05
4.56877e-06
2.68608e-07
2.54534e-08
0.000788608
0.000814363
0.000821841
0.000814023
0.00079016
0.0007511
0.000698434
0.000634328
0.000561539
0.000483509
0.000404315
0.000328276
0.00025926
0.000199884
0.000150508
0.000109972
7.60804e-05
4.72165e-05
2.33519e-05
5.80082e-06
3.59516e-07
3.20859e-08
0.000906649
0.000942182
0.000956938
0.000953909
0.000933173
0.000895424
0.000841808
0.000773868
0.000693676
0.00060413
0.000509281
0.000414203
0.00032442
0.000244837
0.00017844
0.000125414
8.38028e-05
5.09483e-05
2.54091e-05
7.07312e-06
4.93262e-07
3.62624e-08
0.00102403
0.00106939
0.00109213
0.00109453
0.00107839
0.00104423
0.000992806
0.000924967
0.000841791
0.000744977
0.000637622
0.000524698
0.000412877
0.000309536
0.000220904
0.000150094
9.64506e-05
5.68489e-05
2.81501e-05
8.5098e-06
6.63726e-07
3.75778e-08
0.00113497
0.00118983
0.00122111
0.00122838
0.00121757
0.00118862
0.00114201
0.00107812
0.000996995
0.000898781
0.000784621
0.000658083
0.000525741
0.000396871
0.000281462
0.000186995
0.00011592
6.57615e-05
3.18206e-05
1.00738e-05
8.80744e-07
3.65406e-08
0.0012342
0.00129702
0.00133533
0.00134899
0.00134385
0.00132075
0.00128049
0.00122339
0.00114884
0.00105549
0.000941964
0.00080904
0.000661327
0.000508332
0.000363368
0.000239529
0.00014467
7.89902e-05
3.69515e-05
1.18857e-05
1.12608e-06
3.10031e-08
0.0013187
0.00138825
0.0014328
0.00145254
0.0014526
0.00143501
0.00140132
0.00135228
0.00128729
0.00120405
0.00109881
0.000968654
0.000814263
0.000642726
0.000468714
0.000311135
0.000185672
9.82483e-05
4.42438e-05
1.42264e-05
1.47454e-06
2.25431e-08
0.00138677
0.00146199
0.00151202
0.00153712
0.00154149
0.00152838
0.00150032
0.00145903
0.00140459
0.00133458
0.00124376
0.00112559
0.000975541
0.000795327
0.000597369
0.000404583
0.000242216
0.000125662
5.45023e-05
1.72673e-05
1.98782e-06
2.05449e-08
0.00143757
0.00151758
0.00157249
0.00160234
0.00161009
0.00160013
0.00157609
0.00154099
0.00149618
0.00144006
0.00136699
0.00126801
0.00113342
0.00095751
0.000745962
0.000521156
0.000317392
0.000163751
6.88192e-05
2.11972e-05
2.70725e-06
5.75779e-08
0.00147063
0.00155468
0.00161413
0.00164872
0.00165902
0.0016511
0.00162941
0.00159836
0.00156099
0.00151722
0.00146216
0.00138599
0.00127536
0.00111712
0.000906693
0.000659214
0.000413433
0.000215145
8.8676e-05
2.62933e-05
3.6529e-06
1.53895e-07
0.00148535
0.00157269
0.00163625
0.00167511
0.00168882
0.00168264
0.00166214
0.00163323
0.00160078
0.00156657
0.00152738
0.00147397
0.00139144
0.00126111
0.00106758
0.000812596
0.000530528
0.000282359
0.00011562
3.29939e-05
4.86999e-06
3.54853e-07
0.00148029
0.0015704
0.00163796
0.00168149
0.00169974
0.00169577
0.0016762
0.00164835
0.00161886
0.00159133
0.00156478
0.00153162
0.00147716
0.00137993
0.00121597
0.000971259
0.000665692
0.000366916
0.000151333
4.19681e-05
6.41387e-06
7.13891e-07
0.00145173
0.0015448
0.00161681
0.00166634
0.00169087
0.0016708
0.00162642
0.00161642
0.00161869
0.00159575
0.00157876
0.00156238
0.00153329
0.00146956
0.00134235
0.00112385
0.000812696
0.000468953
0.00019739
5.38865e-05
8.29779e-06
1.28123e-06
0.00140614
0.00150007
0.00157492
0.00162876
0.00165996
0.00158225
0.0015235
0.00149862
0.00150551
0.00154749
0.00157427
0.00157129
0.00156371
0.00153068
0.00144186
0.00126038
0.000962761
0.000586868
0.000255465
6.93739e-05
1.05384e-05
2.10296e-06
0.00134865
0.00144071
0.0015166
0.00157351
0.00158276
0.00149528
0.00143242
0.00139798
0.00139083
0.0014166
0.00147803
0.00156359
0.0015735
0.00156685
0.00151411
0.00137426
0.00110635
0.000716821
0.000326659
8.93815e-05
1.32052e-05
3.20329e-06
0.00128536
0.00137242
0.00144723
0.00150595
0.00149764
0.00141101
0.00134864
0.00131098
0.00129731
0.00130964
0.00135253
0.00143472
0.00155227
0.0015828
0.00156168
0.00146295
0.00123502
0.000852087
0.000410863
0.000114747
1.64355e-05
4.53578e-06
0.0012231
0.00130186
0.00137303
0.00143189
0.00141983
0.00133152
0.00126867
0.00122961
0.0012134
0.00122148
0.00125586
0.0013192
0.00141778
0.0015546
0.00158865
0.00152729
0.00134328
0.000984683
0.000506717
0.000146082
2.0275e-05
6.00332e-06
0.00116898
0.00123626
0.00130093
0.00135776
0.00135554
0.00126207
0.00119646
0.0011561
0.00113827
0.00114386
0.00117471
0.00123154
0.00131414
0.00142969
0.0015794
0.00157014
0.00142907
0.00110753
0.000611591
0.000184052
2.47718e-05
7.52232e-06
0.00112947
0.0011827
0.00123805
0.00129041
0.00131174
0.00120897
0.00113649
0.00109336
0.00107404
0.00107788
0.00110586
0.00115871
0.00123487
0.0013334
0.00146465
0.00159509
0.00149283
0.0012148
0.000721152
0.000228956
2.9992e-05
9.01308e-06
0.00110938
0.00114709
0.00119088
0.00123629
0.00127867
0.00117604
0.00109377
0.00104523
0.00102317
0.00102494
0.00105017
0.00109911
0.00117034
0.00126028
0.00137317
0.0015193
0.00153668
0.00130294
0.000829825
0.000281015
3.60926e-05
1.04136e-05
0.0011111
0.00113326
0.00116426
0.00120065
0.00123845
0.00116701
0.00107425
0.00101622
0.000988715
0.000986657
0.0010082
0.0010527
0.00111883
0.00120253
0.00130197
0.00143086
0.00156228
0.00136979
0.000931176
0.000339954
4.32906e-05
1.16694e-05
0.0011344
0.00114248
0.00116075
0.00118706
0.00121846
0.00118634
0.00107907
0.00100861
0.000972633
0.000964263
0.000980332
0.00101918
0.00107929
0.00115693
0.00124712
0.0013593
0.00149877
0.00141429
0.00101773
0.000404567
5.18544e-05
1.27171e-05
0.00117668
0.00117342
0.0011804
0.00119674
0.00122072
0.00123144
0.00110745
0.00102475
0.000975952
0.00095804
0.000966328
0.000997976
0.00105086
0.00112167
0.00120469
0.00130246
0.00142813
0.00144831
0.00107927
0.000471251
6.20022e-05
1.35182e-05
0.00123334
0.00122248
0.0012208
0.00122847
0.00124489
0.00126792
0.00115044
0.00105517
0.000994443
0.000965601
0.000964603
0.000987822
0.00103254
0.00109571
0.00117188
0.0012577
0.00136959
0.00147568
0.00113017
0.00052943
7.38351e-05
1.4075e-05
0.00129797
0.00128392
0.0012771
0.00127838
0.00128794
0.00130328
0.00119402
0.00109022
0.001023
0.000983323
0.000972565
0.000986813
0.00102287
0.00107768
0.00114628
0.00122278
0.00131981
0.00142961
0.00117407
0.000575569
8.71955e-05
1.44037e-05
0.00136198
0.00134919
0.00134094
0.00133854
0.0013104
0.00125661
0.00121906
0.00111805
0.00104823
0.00100583
0.000986702
0.000992427
0.00101985
0.00106591
0.00112619
0.00119435
0.00127746
0.00137686
0.00121397
0.000619109
0.000100557
1.45161e-05
0.00133815
0.00129262
0.00125944
0.00123119
0.00120475
0.00118027
0.00116551
0.00112907
0.0010643
0.00102317
0.00100182
0.0010008
0.0010205
0.00105814
0.00111004
0.00117048
0.0012411
0.00132986
0.00125036
0.000660572
0.000112792
1.44293e-05
0.00118244
0.00113717
0.00111112
0.00109571
0.00108805
0.00108797
0.00109064
0.00110398
0.0010633
0.00102682
0.00100949
0.00100627
0.00102032
0.00105088
0.00109521
0.00114873
0.00120877
0.00128701
0.00128318
0.00070097
0.000124401
1.41609e-05
0.00107945
0.00102411
0.000994074
0.000979732
0.000978076
0.000987365
0.00100294
0.00102889
0.00104291
0.00101305
0.000999683
0.00100206
0.00101387
0.00103983
0.00107817
0.00112579
0.00117771
0.00124587
0.00129062
0.000740796
0.000136734
1.37275e-05
0.00102531
0.000951757
0.000910294
0.000889243
0.000886118
0.000894572
0.0009149
0.000947022
0.000992703
0.000983895
0.000973531
0.000978761
0.00099689
0.00102094
0.00105535
0.00109831
0.00114502
0.00120417
0.00124697
0.000779979
0.000149835
1.31549e-05
0.00101701
0.000917292
0.000859044
0.000826481
0.000814455
0.000818147
0.000836707
0.000869119
0.000916574
0.000947571
0.00093702
0.000942067
0.00096144
0.000990746
0.00102379
0.00106407
0.00110783
0.00116074
0.00120303
0.00081879
0.000163802
1.24664e-05
0.0010571
0.000920959
0.000840194
0.000792677
0.000767735
0.000762394
0.000774337
0.000802248
0.000846848
0.00090984
0.000898008
0.000899103
0.000916239
0.000946054
0.000983114
0.00102265
0.00106554
0.00111469
0.00115782
0.000856813
0.00017864
1.16904e-05
0.00114502
0.000965089
0.00085558
0.000787899
0.000747748
0.000729787
0.000731399
0.000751301
0.000789665
0.000848126
0.000862793
0.000856789
0.000868384
0.000895111
0.00093273
0.000975384
0.00101888
0.00106612
0.00111041
0.00089337
0.000194238
1.08448e-05
0.00124092
0.00104692
0.000907943
0.000817217
0.000757879
0.000723557
0.000711383
0.000720016
0.000749145
0.000799883
0.000837919
0.000821289
0.000824072
0.000844639
0.000879204
0.000922933
0.000969621
0.00101624
0.00106205
0.000927621
0.000210345
9.93769e-06
0.00120072
0.00115582
0.00100636
0.000889981
0.000804007
0.000747323
0.000716936
0.000710715
0.000727766
0.000768788
0.000827385
0.000797002
0.000788106
0.000799723
0.000828467
0.000869792
0.000918839
0.000967016
0.00101481
0.000958559
0.000226569
9.02255e-06
0.00113775
0.0011542
0.00115331
0.00102762
0.000907163
0.000817113
0.000760006
0.000732108
0.000731732
0.000759114
0.000814905
0.000785524
0.000762845
0.000763518
0.000784321
0.000820933
0.000868676
0.000919784
0.00096983
0.000948474
0.000242072
8.10607e-06
0.000925647
0.000948558
0.0009782
0.00101428
0.00102502
0.000918033
0.000840949
0.000794177
0.000776462
0.000787759
0.000828741
0.000794298
0.000750359
0.000736717
0.000747818
0.000778311
0.000822815
0.000873643
0.000927696
0.000914638
0.000256452
7.11248e-06
0.00036264
0.000409858
0.00046988
0.000541901
0.000624919
0.00071641
0.000813173
0.000911828
0.000920107
0.000905499
0.000921532
0.000854575
0.000763971
0.000723394
0.000719363
0.000741678
0.000782002
0.000831473
0.000886335
0.0008849
0.000270168
6.21232e-06
6.00829e-05
7.56723e-05
0.000102947
0.000144091
0.000202253
0.000280105
0.000378999
0.000498267
0.000633627
0.000778423
0.000925537
0.0010372
0.000836557
0.000736843
0.000703666
0.000712565
0.000747227
0.000795054
0.000850134
0.000855144
0.000283991
5.54808e-06
7.70603e-06
3.61719e-05
0.000148219
0.000316932
0.000445761
0.000479221
0.000456939
0.000448642
0.000580631
0.000839546
0.00109559
0.00123237
0.00122366
0.00111849
0.000981387
0.000857907
0.000770265
0.000723061
1.09963e-05
5.57994e-05
0.000238799
0.000496233
0.000657716
0.000685947
0.000641308
0.00068099
0.000856412
0.0010885
0.00126003
0.00130149
0.00122192
0.00107962
0.000933296
0.000817609
0.000743243
0.00070416
1.39838e-05
8.49733e-05
0.000375414
0.000733605
0.000898745
0.000892915
0.000852831
0.000924947
0.00109433
0.00126571
0.00134772
0.00130752
0.00117684
0.00101624
0.000874472
0.000773265
0.000712145
0.00067805
1.65509e-05
0.000126641
0.000561583
0.000996968
0.00112056
0.0010789
0.00105812
0.00113953
0.00127409
0.00137217
0.00137099
0.00126704
0.00110588
0.000944017
0.000817504
0.000735514
0.000689683
0.000666955
1.87213e-05
0.000183437
0.000786491
0.00123154
0.00129448
0.00124428
0.00123925
0.00130928
0.00139292
0.00141641
0.00134495
0.00119776
0.00102609
0.000877423
0.000774505
0.00071715
0.000696
0.000699552
2.05257e-05
0.000257929
0.00101183
0.00139383
0.00143295
0.00138792
0.00138741
0.0014302
0.00145555
0.00141065
0.00128645
0.00111721
0.000952633
0.000828816
0.000757949
0.000736149
0.00075256
0.000798002
2.21006e-05
0.000347476
0.00115891
0.00151363
0.00154283
0.00150603
0.00149869
0.00150414
0.00147083
0.00136962
0.0012123
0.00104049
0.000897912
0.000810333
0.000782884
0.000807181
0.000872527
0.000966603
2.36964e-05
0.000418464
0.00127301
0.00160853
0.00163037
0.00153712
0.00153439
0.00153604
0.00144982
0.00130782
0.00113684
0.000980229
0.000874025
0.000834065
0.000858817
0.000936764
0.00105225
0.00118484
2.51008e-05
0.000476853
0.00136625
0.00168175
0.00158127
0.0014602
0.00147087
0.00153298
0.00140447
0.00123929
0.00107365
0.000948377
0.000890243
0.000905966
0.000987342
0.00111565
0.00126594
0.0014071
2.62629e-05
0.000531904
0.00144122
0.00164405
0.00148903
0.00137963
0.00141571
0.00150432
0.00134704
0.00117633
0.00103273
0.000951405
0.000949923
0.00102418
0.00115573
0.00131571
0.00146753
0.00157131
2.71717e-05
0.000584044
0.00150056
0.00155275
0.00139587
0.00130888
0.00137508
0.00145999
0.00128842
0.00112861
0.00102129
0.000993614
0.00105033
0.00117508
0.00133677
0.00149432
0.00160158
0.00161736
2.78362e-05
0.000632365
0.00152992
0.00146077
0.00131116
0.00125194
0.00135222
0.00140943
0.00123796
0.00110373
0.00104329
0.00107141
0.0011793
0.00133482
0.00149394
0.00160527
0.00162167
0.00151409
2.81752e-05
0.000674005
0.00146575
0.00137439
0.00124011
0.00121057
0.00135079
0.00136048
0.00120218
0.0011045
0.00109524
0.00117523
0.0013169
0.00147361
0.00159048
0.00161423
0.00151194
0.00128356
2.80311e-05
0.000709851
0.00139419
0.0012977
0.00118404
0.00118611
0.00137621
0.00131932
0.00118516
0.00113124
0.0011712
0.0012895
0.00143959
0.0015631
0.00160148
0.00151474
0.00129904
0.000995726
2.75919e-05
0.000742306
0.0013281
0.00123404
0.00114334
0.00117987
0.00143526
0.00128986
0.00118729
0.00117778
0.00126017
0.00139644
0.00152611
0.00158522
0.00152495
0.00133367
0.00104521
0.000733528
2.69983e-05
0.000766489
0.00127341
0.00118519
0.00111846
0.00119253
0.00141309
0.00127355
0.00120739
0.00123891
0.00134932
0.00148013
0.00156283
0.00153871
0.00138475
0.00112336
0.000815279
0.00055693
2.64612e-05
0.000783715
0.00123222
0.00115156
0.00110941
0.0012235
0.00138783
0.00126978
0.00124032
0.00130611
0.00142668
0.00152973
0.00154727
0.00143984
0.00121658
0.000927955
0.000649444
0.000466481
2.75495e-05
0.000795622
0.00120405
0.0011323
0.00111511
0.00127817
0.00136922
0.00127692
0.00128119
0.001371
0.00148365
0.00154181
0.00148901
0.0013154
0.00105555
0.000774888
0.000552224
0.000436645
3.01946e-05
0.000802425
0.00118688
0.00112621
0.00113729
0.00137136
0.00135863
0.00129431
0.00132608
0.00142666
0.00151588
0.0015199
0.00140387
0.00118686
0.000919726
0.000671879
0.000511265
0.000447836
3.29788e-05
0.000804091
0.00117994
0.00113339
0.00117732
0.00147016
0.0013548
0.00131542
0.00137002
0.0014688
0.00152363
0.00147299
0.00130886
0.00107114
0.000817275
0.000615427
0.000512675
0.000489303
3.57344e-05
0.00080076
0.00118399
0.00115412
0.00123112
0.00145916
0.00135579
0.00133891
0.00140952
0.00149592
0.00151086
0.00141203
0.00121681
0.000976213
0.000748919
0.00059762
0.000545463
0.000554728
3.82269e-05
0.000792811
0.00119748
0.00118476
0.00130524
0.00144783
0.00136181
0.00136377
0.00144238
0.00150887
0.00148354
0.0013468
0.00113551
0.000904151
0.000711235
0.000609635
0.000600902
0.000638208
4.03689e-05
0.000780599
0.00121924
0.0012288
0.00141155
0.00144177
0.00137128
0.00138802
0.00146792
0.00151018
0.00144802
0.0012844
0.00106833
0.000854027
0.000698786
0.000643208
0.000671721
0.000734012
4.21538e-05
0.000764434
0.00124885
0.00128448
0.00152556
0.00143883
0.00137984
0.0014106
0.00148667
0.00150323
0.00140983
0.00122907
0.00101583
0.000823037
0.000705498
0.000690983
0.000751432
0.000836159
4.3551e-05
0.000744531
0.00128558
0.00134909
0.00155251
0.00143705
0.00138799
0.00143101
0.00149985
0.00149149
0.00137308
0.00118269
0.000976993
0.000807507
0.000725444
0.000746548
0.000834183
0.000938817
4.44744e-05
0.000721073
0.00132557
0.00141949
0.00154865
0.00143635
0.0013968
0.00144903
0.00150893
0.00147796
0.00134042
0.0011457
0.000949979
0.000803534
0.000753255
0.000804441
0.000914851
0.00103671
4.4819e-05
0.000694232
0.00136563
0.00149567
0.00154513
0.00143764
0.00140568
0.00146475
0.0015155
0.00146508
0.00131337
0.00111767
0.000932647
0.000807406
0.000784326
0.000860161
0.000989164
0.00112533
4.45276e-05
0.000664083
0.00140209
0.00156978
0.00154253
0.00144049
0.00141401
0.00147848
0.00152105
0.00145468
0.00129269
0.00109778
0.000922894
0.000815871
0.000814914
0.00091019
0.00105388
0.00120155
4.35304e-05
0.000629956
0.00143125
0.00162251
0.00154142
0.00144422
0.00142142
0.00149056
0.00152681
0.00144806
0.00127867
0.00108519
0.00091889
0.000826301
0.000842159
0.000951948
0.00110676
0.00126342
4.2092e-05
0.000578669
0.00142969
0.00162312
0.00154192
0.00144827
0.00142758
0.0015011
0.00153357
0.00144618
0.00127147
0.00107922
0.000919272
0.000836792
0.000864061
0.000983695
0.00114635
0.0013098
4.0457e-05
0.000508601
0.00138049
0.00161931
0.00154387
0.00145297
0.00143314
0.0015094
0.0015408
0.00144995
0.00127155
0.00107985
0.000923509
0.000846372
0.000879516
0.00100443
0.00117178
0.00134007
3.82412e-05
0.00043363
0.00129807
0.00160304
0.00154627
0.00145938
0.00143899
0.00151473
0.0015467
0.00145798
0.00128157
0.00109004
0.000933714
0.000855993
0.000888679
0.00101377
0.00118227
0.00135347
3.52449e-05
0.000363793
0.00118653
0.00156904
0.00154675
0.00146695
0.00144492
0.00151722
0.00155127
0.00146944
0.00129933
0.00110975
0.000952579
0.00087062
0.000894955
0.00101166
0.0011756
0.00134751
3.14348e-05
0.000301824
0.00105492
0.00151202
0.00154145
0.00147457
0.00145078
0.00151719
0.00155432
0.00148335
0.00132371
0.00113843
0.000980194
0.000891142
0.000901575
0.00100308
0.00115628
0.00132266
2.69066e-05
0.000248595
0.000915154