/*--------------------------------*- C++ -*----------------------------------*\
| =========                 |                                                 |
| \\      /  F ield         | OpenFOAM: The Open Source CFD Toolbox           |
|  \\    /   O peration     | Version:  v2012                                 |
|   \\  /    A nd           | Website:  www.openfoam.com                      |
|    \\/     M anipulation  |                                                 |
\*---------------------------------------------------------------------------*/
FoamFile
{
    version     2.0;
    format      ascii;
    class       volScalarField;
    location    "984";
    object      omega;
}
// * * * * * * * * * * * * * * * * * * * * * * * * * * * * * * * * * * * * * //

dimensions      [0 0 -1 0 0 0 0];


internalField   nonuniform List<scalar> 
6066
(
360.411
360.719
361.043
361.384
361.747
362.14
362.573
363.058
363.606
364.226
364.937
365.768
366.766
368
369.573
371.648
374.475
378.455
384.261
393.107
102.251
99.7877
97.3417
95.5764
94.4777
93.9386
93.8029
93.9109
94.1006
94.2753
94.4326
94.608
94.7599
94.7826
94.4915
93.621
91.7812
88.3603
82.0803
70.731
47.8183
46.3703
45.3134
44.6376
44.2866
44.1945
44.2915
44.5248
44.8576
45.2742
45.7638
46.309
46.885
47.4778
48.0767
48.668
49.259
49.9049
50.7394
52.1048
30.0843
29.6635
29.4903
29.5249
29.7296
30.0736
30.5337
31.0961
31.7548
32.5104
33.3686
34.3397
35.4377
36.6829
38.1088
39.7645
41.7203
44.0757
46.9659
50.574
23.9441
24.0807
24.3547
24.7447
25.2352
25.8159
26.4825
27.2357
28.0809
29.0275
30.089
31.2836
32.6345
34.1716
35.9344
37.9731
40.3513
43.1492
46.4684
50.4362
22.4895
22.9274
23.4413
24.0217
24.664
25.3674
26.1343
26.9701
27.8827
28.8857
29.9912
31.2177
32.5914
34.1446
35.9185
37.9645
40.3472
43.1475
46.4679
50.4361
24.2988
25.0173
25.7707
26.5563
27.3753
28.2291
29.1202
30.0564
31.0039
31.9754
32.9937
34.0819
35.2636
36.5695
38.0386
39.7238
41.6989
44.066
46.9626
50.5735
32.3495
33.6386
34.9313
36.2484
37.6091
39.0264
40.4233
41.643
42.7457
43.7517
44.6808
45.5456
46.3566
47.125
47.8493
48.5286
49.1798
49.8648
50.7235
52.1017
67.9528
70.6085
73.0827
75.6305
78.5006
81.9655
84.772
87.1033
88.9948
90.5209
91.7641
92.753
93.4902
93.9251
93.9272
93.2637
91.5685
88.2411
82.0211
70.7148
363.019
362.83
362.717
362.709
362.79
362.96
363.212
363.548
363.974
364.496
365.131
365.906
366.862
368.064
369.615
371.673
374.489
378.462
384.263
393.107
359.082
359.082
359.084
359.086
359.088
359.089
359.09
359.09
359.088
359.086
359.084
359.083
359.094
359.114
359.148
359.203
359.283
359.393
359.536
359.711
359.917
360.151
62.2812
62.3284
62.5418
62.9389
63.4909
64.4401
66.84
71.5368
77.0962
82.3124
87.2976
92.3271
96.9378
100.994
104.257
106.532
107.878
108.402
108.206
107.386
106.057
104.314
24.2983
25.8875
28.2739
32.2447
37.1918
42.5972
48.1898
53.4415
57.7805
60.9438
63.0178
64.1445
64.4193
63.9782
62.9422
61.4303
59.5772
57.5098
55.3347
53.1377
51.1268
49.3482
21.8716
26.4868
31.4359
36.3312
40.5872
43.9091
46.2806
47.745
48.3504
48.1906
47.406
46.1428
44.5355
42.7117
40.7832
38.8469
36.9861
35.283
33.7817
32.5027
31.4628
30.6616
27.8474
31.8002
35.0396
37.4671
38.9903
39.6534
39.5925
38.9588
37.8906
36.5163
34.9543
33.3087
31.6676
30.1033
28.6712
27.4108
26.3474
25.4921
24.841
24.3802
24.0924
23.9528
30.9632
33.0139
34.1647
34.5286
34.2417
33.4685
32.3665
31.066
29.6704
28.2627
26.9112
25.67
24.5792
23.6638
22.9351
22.3925
22.026
21.8188
21.7503
21.7995
21.951
22.1849
30.7479
31.1046
30.8104
30.0666
29.0407
27.8688
26.6533
25.4699
24.3746
23.41
22.6066
21.983
21.5457
21.2901
21.2038
21.2691
21.4649
21.7701
22.1653
22.6369
23.1602
23.715
28.4678
27.8594
26.9596
25.9283
24.8792
23.8903
23.0163
22.2969
21.7609
21.4274
21.3063
21.3997
21.7028
22.2068
22.9008
23.7746
24.8181
26.017
27.3409
28.6887
29.9566
31.184
25.5979
24.7093
23.8043
22.975
22.2862
21.7839
21.5044
21.4782
21.7321
22.2898
23.1756
24.4151
26.038
28.0816
30.591
33.6194
37.2323
41.4945
46.4441
51.9849
57.6283
63.1391
23.1109
22.3898
21.8247
21.4689
21.3702
21.5726
22.1208
23.064
24.4577
26.3677
28.8753
32.0839
36.1272
41.1724
47.4321
55.2108
65.1171
78.1373
96.0469
122.201
163.422
232.632
359.066
359.067
359.067
359.067
359.069
359.072
359.074
359.074
359.072
359.07
359.069
359.068
359.069
359.071
359.074
359.078
359.08
359.081
159.585
68.0485
60.7729
59.0752
58.738
59.4148
60.7609
63.2356
65.448
65.8621
64.6404
62.5288
61.4611
60.5561
60.3427
60.6825
61.3261
61.8961
159.586
34.7925
23.4168
21.3302
20.5822
20.4762
20.94
22.2291
24.1845
25.2285
24.7957
23.123
21.6547
20.5939
20.2719
20.6408
21.4741
22.7474
159.586
31.8141
19.7404
16.8379
15.2038
14.0148
13.2233
13.0041
13.6089
14.1967
14.0686
13.0676
11.952
11.3318
11.4649
12.3519
14.2212
17.3962
159.586
36.0386
22.8383
18.5189
15.8253
13.7999
12.2577
11.1789
10.7212
10.5863
10.3045
9.65782
9.1408
9.47247
10.8586
13.3703
17.2301
22.3257
159.588
41.5923
26.5904
20.5351
16.8117
14.1898
12.319
10.9125
9.96468
9.39703
8.98113
8.71743
9.32565
11.2311
14.0019
17.8688
22.4505
27.1507
159.596
46.9624
29.5014
21.7354
17.0683
14.1522
12.1598
10.6857
9.63598
8.97074
8.68965
9.26134
11.3229
14.4312
18.0954
22.1321
26.0314
29.0606
159.622
51.4004
31.0816
21.8444
16.6017
13.4516
11.47
10.1332
9.24953
8.79831
9.11926
11.0385
14.3173
17.8795
21.5227
24.8437
27.2728
28.4577
159.684
54.1766
31.1186
20.8894
15.4328
12.3325
10.4641
9.38886
8.83752
8.96763
10.5495
13.7086
17.2381
20.7064
23.6847
25.7449
26.6357
26.4651
159.789
54.7307
29.6237
19.0655
13.808
11.006
9.428
8.73759
8.77464
10.0709
12.7977
16.2479
19.666
22.5284
24.4284
25.1974
24.9786
24.1502
21.381
21.0844
21.0529
21.3242
21.939
22.9354
24.3504
26.2172
28.5623
31.3831
34.6737
38.3998
42.5054
46.9234
51.6032
56.5686
62.0163
68.5247
77.6042
93.6119
137.047
328.973
20.5832
20.7877
21.3109
22.175
23.3976
24.9847
26.9203
29.1564
31.6015
34.1175
36.5267
38.6111
40.1378
40.8776
40.6211
39.1895
36.2604
32.3068
28.0406
31.4284
61.4527
328.613
20.5364
21.2118
22.2062
23.5115
25.0937
26.8814
28.7546
30.544
32.0384
33.0074
33.2199
32.4802
30.6605
27.7258
23.6795
19.4909
16.4213
14.094
13.4042
19.0364
53.2082
328.576
21.031
22.087
23.3913
24.869
26.3952
27.7986
28.8727
29.4028
29.198
28.1253
26.1346
23.2967
19.788
16.4213
13.9396
11.8826
10.2102
9.20619
9.73198
16.0304
51.3267
328.561
21.8672
23.1235
24.4388
25.6565
26.5821
27.0209
26.8099
25.852
24.1355
21.7421
18.7579
15.7917
13.5651
11.7908
10.3639
9.14409
8.16797
7.70427
8.58212
14.956
50.3418
328.552
22.7418
23.8762
24.7825
25.287
25.2345
24.5362
23.1813
21.2254
18.7262
15.8834
13.8659
12.1552
10.7487
9.59061
8.63398
7.82446
7.237
7.05192
8.08834
14.4539
49.7754
328.545
23.2006
23.8332
23.9922
23.5902
22.599
21.0475
18.9892
16.3776
14.3477
12.597
11.174
9.99393
9.01943
8.20676
7.52896
6.98553
6.62375
6.61686
7.78786
14.2528
49.7009
328.539
22.8136
22.7087
22.0607
20.8954
19.2529
16.9526
14.8164
13.0274
11.5465
10.311
9.29724
8.4647
7.77543
7.19872
6.70963
6.33241
6.11264
6.23778
7.56259
14.3261
50.2046
328.542
21.4181
20.5915
19.3064
17.5642
15.2353
13.4025
11.8763
10.6134
9.57815
8.72022
8.00459
7.39152
6.87367
6.43051
6.0506
5.76534
5.62974
5.85979
7.42695
14.7069
51.2467
328.544
19.175
17.8012
16.0269
13.9322
12.2281
10.9208
9.88907
9.03565
8.33445
7.71949
7.16731
6.6662
6.21219
5.8077
5.46473
5.22327
5.15287
5.55757
7.46828
15.4493
52.7723
328.544
16.4193
14.6755
12.927
11.3745
10.2972
9.51496
8.88972
8.3316
7.79467
7.25781
6.71888
6.19108
5.69782
5.2635
4.9183
4.71247
4.7815
5.42995
7.80625
16.6527
54.6776
328.543
13.5947
12.0117
10.8493
10.0272
9.4862
9.07838
8.69579
8.27948
7.80424
7.25167
6.63571
6.00043
5.39894
4.87712
4.51304
4.39792
4.66713
5.65828
8.68575
18.9189
58.7852
328.54
11.3545
10.4199
9.87478
9.55222
9.33365
9.14094
8.92494
8.64274
8.25124
7.71596
7.03566
6.26461
5.50476
4.86659
4.48594
4.49542
5.05273
6.59273
10.6506
22.2074
62.2876
328.536
10.0908
9.67269
9.4874
9.4066
9.37363
9.35553
9.31846
9.21619
8.98874
8.57342
7.93258
7.09656
6.20026
5.44916
5.03836
5.16097
6.01878
8.08385
12.872
24.9895
64.4436
328.531
9.35381
9.20612
9.1921
9.25425
9.36969
9.51999
9.67783
9.7987
9.81584
9.64442
9.20165
8.45516
7.49757
6.57663
6.04398
6.16598
7.19864
9.55083
14.5811
26.494
64.7439
328.527
8.74536
8.7368
8.82276
8.98502
9.21515
9.50482
9.83646
10.1769
10.4681
10.6233
10.5302
10.0837
9.25837
8.21527
7.36179
7.23978
8.14924
10.4636
15.292
26.5004
63.433
328.525
8.15152
8.22303
8.36908
8.59304
8.89438
9.27564
9.72907
10.2372
10.7629
11.2388
11.5589
11.5786
11.1609
10.2636
9.12065
8.34258
8.70721
10.6225
14.94
25.2869
61.3291
328.523
7.58466
7.69222
7.86818
8.12099
8.45326
8.8787
9.39499
9.99734
10.6766
11.3897
12.0671
12.5783
12.7423
12.3715
11.3698
10.054
9.33931
10.2961
13.8192
23.2991
58.91
328.523
7.04465
7.16513
7.35111
7.61336
7.95779
8.39007
8.91716
9.5495
10.3025
11.1485
12.058
12.9537
13.6777
14.0047
13.6686
12.4783
10.8696
10.2683
12.5903
21.2309
57.1429
328.523
6.51673
6.62943
6.80986
7.06238
7.39773
7.82484
8.35359
8.99487
9.75454
10.6515
11.6748
12.8038
13.9407
14.9019
15.3957
15.0596
13.5541
11.7255
12.2525
20.3226
56.446
328.523
6.00333
6.0933
6.25659
6.48459
6.79397
7.19617
7.70346
8.3295
9.08883
9.99951
11.0639
12.3063
13.6918
15.1126
16.3414
16.9994
16.5995
14.6736
13.5664
20.319
56.3116
328.524
5.52246
5.58634
5.7193
5.9139
6.18613
6.54906
7.0174
7.60802
8.33972
9.2334
10.3129
11.6009
13.1136
14.8194
16.5913
18.1335
18.9367
18.2917
16.7003
21.1168
56.6299
328.524
5.08149
5.11843
5.21926
5.37815
5.60865
5.92409
6.34066
6.87824
7.56059
8.41485
9.4714
10.7642
12.3282
14.1916
16.3185
18.5473
20.4685
21.3356
20.5448
23.3446
57.0139
328.525
4.68699
4.69961
4.77073
4.89595
5.08543
5.35146
5.71005
6.18206
6.79431
7.58026
8.57949
9.83749
11.4053
13.3371
15.6738
18.3793
21.2227
23.5888
24.4506
26.9199
57.4518
328.525
4.34172
4.33398
4.37963
4.47648
4.62948
4.8497
5.15175
5.55538
6.08746
6.78446
7.69335
8.87207
10.3895
12.3246
14.762
17.7665
21.2908
24.9642
27.8092
31.0561
58.6933
328.525
4.04481
4.02034
4.04392
4.11994
4.24276
4.4238
4.67587
5.01629
5.46953
6.07071
6.86948
7.93198
9.34413
11.2117
13.6586
16.821
20.8036
25.5167
30.3245
35.5149
61.3231
328.525
3.79446
3.75814
3.76629
3.82216
3.9203
4.06949
4.28025
4.56696
4.95034
5.46121
6.14669
7.07424
8.33934
10.0715
12.4354
15.6307
19.8814
25.3517
31.8728
39.6614
65.3659
328.525
3.58537
3.54001
3.53591
3.57533
3.65395
3.77814
3.95627
4.19997
4.52593
4.95936
5.54116
6.33404
7.43323
8.98064
11.1755
14.2806
18.6269
24.5895
32.4622
42.8907
69.6817
328.524
3.41227
3.35962
3.34552
3.37172
3.43509
3.54001
3.69315
3.90382
4.18512
4.5567
5.05158
5.72361
6.65965
8.00038
9.96347
12.8655
17.1409
23.357
32.2141
45.0426
73.9222
328.524
3.27065
3.21182
3.18917
3.20439
3.25591
3.34608
3.48037
3.66645
3.91455
4.23949
4.66668
5.23918
6.03017
7.16744
8.8678
11.4806
15.5325
21.7817
31.2831
46.1575
77.9331
328.527
3.15713
3.09279
3.06229
3.06703
3.1101
3.1889
3.30893
3.47694
3.70117
3.99276
4.37074
4.86769
5.54087
6.49749
7.93605
10.2107
13.9155
19.9909
29.8819
46.3528
81.6509
328.536
3.06983
3.00057
2.96326
2.95955
2.99373
3.06294
3.17185
3.32642
3.53357
3.80223
4.14656
4.5904
5.17567
5.98634
7.19118
9.1225
12.3993
18.1053
28.0652
45.6773
84.6166
328.554
3.00896
2.93465
2.89084
2.87911
2.9041
2.96467
3.06446
3.20853
3.40287
3.65581
3.978
4.38658
4.91078
5.61258
6.62671
8.24473
11.0672
16.261
25.9915
44.3791
86.482
328.587
2.97906
2.89776
2.84641
2.82571
2.8406
2.89246
2.9839
3.11934
3.30336
3.54476
3.85204
4.23784
4.72183
5.34772
6.21709
7.57165
9.95813
14.5604
23.8152
42.7133
87.4208
328.638
2.9769
2.88839
2.8303
2.80195
2.80588
2.84709
2.92918
3.05615
3.23094
3.46385
3.76001
4.13057
4.58879
5.1649
5.93098
7.07799
9.07795
13.0632
21.624
40.5853
87.459
328.713
3.00282
2.90634
2.8414
2.80645
2.80242
2.83412
2.90568
3.02032
3.18378
3.40925
3.6962
4.05624
4.49729
5.04251
5.73907
6.73163
8.40906
11.8007
19.522
38.047
86.3173
328.813
3.05857
2.95266
2.87994
2.8383
2.82748
2.85026
2.9131
3.01875
3.17265
3.38301
3.65693
4.00875
4.43812
4.96475
5.61694
6.50101
7.92485
10.7834
17.6112
35.2906
84.335
328.934
3.14692
3.02954
2.94741
2.89799
2.8801
2.89423
2.94854
3.0458
3.19136
3.39214
3.65518
3.98926
4.40396
4.92085
5.54591
6.35781
7.59208
10.0005
15.9425
32.51
81.9218
329.067
3.27118
3.13998
3.04635
2.98746
2.96167
2.96834
3.01224
3.10019
3.23706
3.4288
3.68196
4.00468
4.40753
4.90404
5.51235
6.27962
7.37864
9.42178
14.5353
29.812
79.217
329.205
3.43463
3.2873
3.17989
3.10941
3.07401
3.0722
3.10486
3.1825
3.30961
3.49147
3.73435
4.04625
4.43793
4.92332
5.51784
6.24949
7.258
9.01735
13.3913
27.2902
76.3015
329.341
3.6399
3.47456
3.35117
3.26686
3.21966
3.20774
3.22908
3.29499
3.41053
3.58085
3.81225
4.11268
4.49285
4.96738
5.55362
6.27334
7.2088
8.75843
12.4997
24.9956
73.163
329.468
3.88866
3.70426
3.56311
3.46292
3.40185
3.37863
3.39188
3.44154
3.54221
3.69859
3.91676
4.20458
4.57247
5.03512
5.61183
6.32522
7.23363
8.62534
11.8444
22.9665
69.7777
329.582
4.18161
3.97828
3.81842
3.70066
3.62377
3.58672
3.58701
3.62147
3.70629
3.84689
4.0499
4.32354
4.67807
5.12769
5.6927
6.39804
7.29388
8.6136
11.4185
21.2349
66.1679
329.678
4.51866
4.29794
4.11963
3.98344
3.88886
3.83549
3.82121
3.8462
3.90949
4.03024
4.21505
4.47226
4.81182
5.24704
5.79825
6.49306
7.37927
8.65578
11.2509
19.8388
62.511
329.751
4.89857
4.66381
4.4689
4.31468
4.20143
4.12929
4.09775
4.10691
4.15265
4.25205
4.41643
4.65462
4.9769
5.39582
5.93113
6.61252
7.4876
8.73196
11.188
18.969
59.072
329.801
5.31728
5.07412
4.86642
4.69611
4.56421
4.47179
4.42149
4.41324
4.44839
4.5222
4.66158
4.87644
5.1778
5.57772
6.09478
6.75944
7.61986
8.83731
11.1935
18.5534
56.0227
329.831
5.76543
5.52141
5.30664
5.12411
4.97647
4.86598
4.79643
4.76968
4.7872
4.84815
4.95779
5.14438
5.42019
5.79758
6.29353
6.93811
7.78062
8.97167
11.2409
18.2687
53.7345
329.841
6.23054
5.99634
5.7841
5.59739
5.44029
5.31672
5.22976
5.18397
5.18188
5.22664
5.31452
5.46713
5.71178
6.062
6.53303
7.15359
7.9741
9.13638
11.3244
18.0831
52.4258
329.834
6.70158
6.49
6.29343
6.1148
5.95801
5.82754
5.72773
5.66356
5.64109
5.66466
5.73895
5.85801
6.06369
6.38002
6.82092
7.41247
8.20559
9.33448
11.4414
17.9632
51.64
329.809
7.16395
6.98544
6.81781
6.6613
6.51805
6.39175
6.28754
6.21076
6.16932
6.17047
6.22161
6.32966
6.48818
6.76243
7.16661
7.72296
8.48192
9.57058
11.5934
17.8865
50.9021
329.77
7.60625
7.4622
7.33136
7.20933
7.0942
6.9872
6.89198
6.81382
6.76009
6.74232
6.76942
6.85253
7.00315
7.22269
7.58059
8.09391
8.81085
9.85125
11.7853
17.8547
50.2017
329.718
8.04217
7.92043
7.82051
7.73499
7.65646
7.58148
7.50989
7.44497
7.39259
7.36452
7.37299
7.43123
7.55521
7.76372
8.06803
8.53193
9.19967
10.185
12.0248
17.8634
49.5316
329.655
8.51322
8.39296
8.30692
8.24225
8.19226
8.14999
8.10959
8.06998
8.03366
8.00794
8.00913
8.0507
8.15062
8.3327
8.63023
9.04095
9.6535
10.5771
12.3165
17.9153
48.89
329.584
9.07343
8.92322
8.82472
8.76098
8.72007
8.69311
8.67646
8.66336
8.6513
8.64204
8.64901
8.68625
8.7719
8.93199
9.21422
9.62148
10.1748
11.0311
12.6648
18.0145
48.2874
329.507
9.8082
9.5867
9.43294
9.33524
9.27632
9.24043
9.22305
9.2218
9.22926
9.24148
9.26395
9.30964
9.39435
9.54343
9.80637
10.2209
10.7607
11.5473
13.071
18.1635
47.7419
329.425
10.8559
10.5178
10.2536
10.0616
9.93456
9.85106
9.798
9.77697
9.78223
9.80497
9.84149
9.90173
9.99644
10.1469
10.3986
10.8122
11.3721
12.1229
13.5339
18.3633
47.2711
329.342
12.5253
12.0089
11.5548
11.1786
10.8898
10.6777
10.5228
10.4231
10.3791
10.3784
10.4096
10.4745
10.578
10.7349
10.9828
11.3983
11.9651
12.7397
14.0494
18.6087
46.918
329.258
16.4518
15.5063
14.5636
13.7096
12.9812
12.3861
11.91
11.5511
11.3071
11.1644
11.105
11.1173
11.1939
11.338
11.5742
11.9861
12.5611
13.3316
14.6327
18.9228
46.7052
329.168
37.3641
32.5463
27.9737
24.0018
20.7311
18.1361
16.1396
14.6536
13.5843
12.8509
12.3832
12.1243
12.0264
12.0652
12.2371
12.6107
13.1793
13.9354
15.1856
19.3226
46.6021
329.086
211.243
142.418
98.9364
70.6949
51.7297
38.7886
29.9289
23.8642
19.7466
16.9923
15.1916
14.0662
13.4176
13.111
13.0738
13.3219
13.8381
14.5553
15.7386
19.6927
46.5359
329.026
159.925
53.0284
26.8986
16.7188
12.0698
9.7416
8.64383
8.57407
9.6529
11.9424
15.1245
18.4975
21.361
23.2385
23.9796
23.7704
23.0095
22.1139
160.07
49.4033
23.4602
14.3148
10.5474
8.83646
8.51738
9.31959
11.1887
13.9739
17.1807
20.0908
22.0892
22.9438
22.8276
22.1551
21.3653
20.7802
160.202
44.8156
20.0905
12.4033
9.60544
8.72179
9.18227
10.618
12.943
15.8475
18.7298
20.9048
21.9823
22.0392
21.4784
20.766
20.2544
20.1432
160.316
40.0907
17.2918
11.2015
9.35934
9.32106
10.2925
12.1303
14.6345
17.3574
19.6561
21.0069
21.3143
20.9057
20.265
19.7828
19.6804
20.0837
160.412
35.6795
15.2482
10.7473
9.81856
10.2697
11.5876
13.6362
16.0802
18.3821
19.9748
20.5842
20.3848
19.8283
19.35
19.217
19.5813
20.4752
160.492
31.7441
14.0709
10.9983
10.6461
11.3708
12.9064
14.9841
17.1604
18.8989
19.8052
19.8681
19.4347
18.9573
18.7732
19.0664
19.8739
21.1581
160.562
28.7324
14.0175
11.5652
11.5745
12.5003
14.1264
16.0676
17.8309
18.9727
19.3161
19.0561
18.6072
18.3614
18.559
19.2577
20.4168
21.8533
160.633
27.7699
14.3296
12.2877
12.5287
13.5771
15.1651
16.8323
18.1108
18.7102
18.6606
18.2876
17.9968
18.0745
18.6461
19.6695
20.9587
22.1606
160.695
27.6123
14.8088
13.146
13.4671
14.5473
15.9735
17.2687
18.0635
18.2379
17.9829
17.6717
17.6371
18.053
18.9306
20.0779
21.1499
21.7098
160.747
27.5948
15.3493
13.9679
14.3537
15.3604
16.5221
17.4069
17.7802
17.6727
17.3716
17.2318
17.4989
18.2085
19.2163
20.1808
20.6731
20.3504
160.787
27.6546
15.9256
14.7606
15.1369
15.9751
16.8124
17.3047
17.3526
17.1034
16.8834
16.9867
17.5237
18.3805
19.2535
19.7125
19.3987
18.2137
160.816
27.7818
16.5541
15.4937
15.7771
16.3778
16.8746
17.0314
16.8656
16.601
16.5477
16.8871
17.5918
18.3728
18.8265
18.5634
17.442
15.6405
160.831
27.9662
17.1303
16.1316
16.2529
16.5779
16.7537
16.6524
16.3789
16.1887
16.3282
16.8539
17.5498
18.0101
17.8382
16.8273
15.1192
13.1135
160.825
28.193
17.6575
16.6549
16.5618
16.6009
16.5001
16.2254
15.9357
15.8792
16.1883
16.7746
17.2561
17.2034
16.3539
14.7753
12.8619
11.1585
160.806
28.4732
18.1284
17.0532
16.7143
16.4807
16.1615
15.7914
15.548
15.6297
16.055
16.5395
16.6309
15.9873
14.5815
12.7571
11.0624
9.89009
160.779
28.7259
18.5215
17.3239
16.7294
16.254
15.7772
15.3764
15.2223
15.4197
15.85
16.0774
15.681
14.5053
12.7981
11.0649
9.74851
8.99708
160.755
28.9537
18.8251
17.4727
16.6312
15.9554
15.3768
14.9885
14.9317
15.201
15.5116
15.3731
14.4913
12.9542
11.2041
9.73087
8.74302
8.25255
160.804
29.1747
19.0382
17.5122
16.4444
15.6095
14.9716
14.6292
14.6552
14.9291
15.0137
14.4701
13.1988
11.5141
9.89468
8.67742
7.92491
7.60122
160.921
29.3887
19.1678
17.4588
16.1905
15.2366
14.5838
14.3112
14.3806
14.5742
14.3668
13.4475
11.9305
10.2575
8.83184
7.8228
7.24045
7.02081
161.045
29.5933
19.2235
17.329
15.8905
14.8566
14.2141
13.9937
14.0855
14.1292
13.6114
12.3961
10.7762
9.20681
7.96304
7.11591
6.65315
6.48736
161.168
29.7808
19.2145
17.1397
15.5644
14.4783
13.8591
13.6808
13.7587
13.6073
12.8028
11.3916
9.77386
8.33885
7.245
6.52298
6.1377
5.99079
161.278
29.9622
19.1545
16.9087
15.2203
14.089
13.5319
13.3772
13.398
13.035
11.9952
10.4816
8.926
7.61943
6.64701
6.01936
5.68046
5.53398
161.374
30.1489
19.0569
16.6486
14.873
13.7396
13.2289
13.0771
13.0109
12.4444
11.2308
9.68593
8.21651
7.02102
6.1459
5.58697
5.27367
5.11886
161.453
30.3518
18.9357
16.3746
14.5383
13.415
12.9224
12.7808
12.6112
11.8653
10.5365
9.00595
7.625
6.52174
5.72365
5.21345
4.91342
4.74776
161.516
30.5825
18.8047
16.1018
14.2216
13.1038
12.6231
12.4908
12.2141
11.3212
9.92523
8.43326
7.13279
6.10467
5.36666
4.89063
4.59736
4.42161
161.557
30.8567
18.6787
15.839
13.9096
12.8092
12.3441
12.2102
11.8333
10.8278
9.40001
7.95602
6.72455
5.75678
5.06488
4.61283
4.32323
4.13942
161.572
31.1921
18.5713
15.5946
13.6181
12.5418
12.0843
11.9425
11.48
10.3939
8.95797
7.5625
6.38815
5.46803
4.81086
4.37573
4.08849
3.89907
161.559
31.6055
18.4954
15.3775
13.3499
12.2998
11.8418
11.6919
11.1627
10.0234
8.59361
7.24252
6.11423
5.23076
4.599
4.17563
3.89005
3.69681
161.515
32.1392
18.4651
15.196
13.1098
12.0794
11.6157
11.4617
10.8864
9.71683
8.30084
6.98784
5.89567
5.0392
4.42496
4.00927
3.72462
3.52853
161.451
33.3863
18.5123
15.0578
12.8999
11.8768
11.4044
11.2527
10.6533
9.47307
8.07422
6.79224
5.72728
4.88922
4.2855
3.87384
3.58916
3.3905
161.378
35.7297
18.797
14.9826
12.7286
11.694
11.2092
11.0602
10.4619
9.29572
7.91097
6.6525
5.60642
4.77874
4.17858
3.76734
3.48132
3.2798
161.279
38.8696
19.4241
15.006
12.6187
11.5419
11.0339
10.8775
10.2974
9.17034
7.82059
6.57788
5.53951
4.7124
4.10497
3.68983
3.40048
3.19499
161.146
42.3826
20.4396
15.1655
12.5804
11.4246
10.8787
10.7049
10.1568
9.08751
7.78321
6.55756
5.52332
4.6933
4.07678
3.64993
3.35181
3.1384
160.976
46.0484
21.8646
15.5061
12.631
11.3502
10.7464
10.5436
10.036
9.0398
7.79206
6.58768
5.55604
4.71999
4.0895
3.64538
3.33408
3.11199
160.775
49.6299
23.6778
16.0731
12.7958
11.332
10.6428
10.3957
9.93079
9.01923
7.83978
6.66373
5.63569
4.79177
4.14368
3.67757
3.34841
3.11466
160.55
52.893
25.8061
16.9006
13.1059
11.3909
10.5785
10.2663
9.83795
9.01773
7.91836
6.78034
5.75964
4.90777
4.24013
3.74846
3.39691
3.14759
160.316
55.5745
28.1209
17.9982
13.5912
11.5508
10.5686
10.1638
9.75667
9.02799
8.01913
6.93094
5.92419
5.06652
4.37935
3.86011
3.48226
3.2131
160.093
57.414
30.4465
19.3377
14.2676
11.8352
10.6327
10.101
9.69001
9.04467
8.13335
7.10779
6.12439
5.26547
4.56098
4.01413
3.60728
3.31421
159.908
58.2751
32.5945
20.8517
15.1324
12.264
10.7934
10.0944
9.64562
9.06574
8.25316
7.30239
6.35397
5.50095
4.7834
4.21103
3.77428
3.45414
159.772
58.1097
34.3929
22.4444
16.1708
12.8499
11.0692
10.1636
9.63584
9.09359
8.37276
7.50589
6.60547
5.76791
5.04364
4.44995
3.98449
3.63559
159.685
56.8931
35.6996
24.004
17.3447
13.5942
11.4776
10.3299
9.67846
9.13623
8.4901
7.7102
6.87036
6.05993
5.33745
4.72847
4.23766
3.86021
159.637
54.6782
36.4087
25.414
18.5944
14.4814
12.0285
10.6129
9.79531
9.20834
8.6086
7.90964
7.13967
6.36931
5.65921
5.04288
4.53211
4.12845
159.614
51.5048
36.4337
26.5595
19.8432
15.4795
12.7181
11.0254
10.0077
9.32974
8.73842
8.10331
7.40544
6.68713
6.00194
5.38824
4.86485
4.43951
159.612
47.3724
35.6956
27.332
21.0034
16.54
13.5299
11.5714
10.3334
9.52281
8.8963
8.29675
7.66328
7.00417
6.35695
5.75826
5.23187
4.79162
159.61
42.4853
34.1429
27.6362
21.9835
17.6007
14.432
12.243
10.7827
9.809
9.10406
8.50314
7.91476
7.31347
6.714
6.1439
5.62707
5.18149
159.608
37.2582
31.7674
27.3988
22.6963
18.5913
15.3799
13.0187
11.3543
10.2038
9.38482
8.74225
8.16927
7.61334
7.06419
6.53398
6.0407
5.60253
159.606
32.1277
28.6146
26.5736
23.0641
19.439
16.3196
13.8655
12.0358
10.7134
9.75842
9.03761
8.44434
7.91015
7.40332
6.91784
6.46042
6.0436
159.603
29.5165
24.9979
25.1632
23.0206
20.0717
17.191
14.7405
12.8023
11.3322
10.2369
9.41203
8.76351
8.2197
7.73568
7.2894
6.87389
6.49035
159.601
28.881
21.2322
23.1884
22.5028
20.4137
17.9289
15.5931
13.6194
12.0434
10.8216
9.88259
9.15205
8.56591
8.0763
7.65173
7.27408
6.93193
159.598
28.7943
17.7323
20.6887
21.446
20.3779
18.4569
16.3643
14.4441
12.8196
11.5027
10.4571
9.63179
8.97687
8.45054
8.0204
7.66316
7.35951
159.596
29.4543
15.4431
17.766
19.8012
19.8636
18.6805
16.9815
15.2234
13.6249
12.2606
11.1333
10.2171
9.47955
8.8903
8.42358
8.05822
7.77367
159.595
30.4825
14.4963
14.8352
17.625
18.7938
18.4947
17.3534
15.8895
14.4119
13.0657
11.8988
10.9132
10.0954
9.42902
8.89954
8.49447
8.19928
159.596
30.4294
13.848
12.4294
15.1603
17.207
17.8338
17.3924
16.3702
15.1307
13.8866
12.7387
11.7229
10.8454
10.1039
9.4968
9.02444
8.68406
159.597
29.0987
13.5675
11.3524
13.0171
15.3947
16.7873
17.1017
16.6482
15.7749
14.7354
13.6785
12.6793
11.7707
10.9675
10.278
9.71514
9.29078
159.597
28.0104
14.5128
12.2499
11.8491
13.7712
15.6036
16.6103
16.7986
16.4068
15.6815
14.7985
13.8662
12.9503
12.0929
11.3199
10.6507
10.1079
159.595
28.3625
17.174
15.4705
12.9352
12.923
14.5231
15.9518
16.7616
16.9403
16.6472
16.0528
15.2876
14.4414
13.574
12.7337
11.9541
11.271
159.592
30.5082
22.4356
21.7009
18.3706
14.3057
14.55
15.7986
16.8843
17.5217
17.6963
17.496
17.025
16.3745
15.6104
14.7801
13.9223
13.0902
159.588
37.4397
33.8386
35.0931
31.9719
24.4873
19.5004
19.41
20.0213
20.555
20.8749
20.9407
20.7649
20.393
19.8595
19.1746
18.327
17.3328
159.586
66.4883
69.0193
74.284
74.3075
66.4967
51.686
48.4281
46.7763
45.9863
45.6094
45.3938
45.1984
44.9943
44.7055
44.1782
43.1318
41.4022
238.825
318.066
318.07
318.085
318.125
318.179
318.225
318.28
318.312
318.364
318.57
318.852
319.225
319.682
320.236
320.918
321.745
322.847
330.429
188.878
131.225
96.8774
73.1047
55.7612
42.9262
33.4891
26.6727
21.8585
18.5545
16.3708
15.0116
14.2399
13.9077
13.9761
14.406
15.0716
16.194
20.0057
46.5258
329.04
328.901
113.384
103.822
91.0885
76.9969
63.4515
51.5058
41.5079
33.461
27.2235
22.5791
19.2734
17.0499
15.67
14.9249
14.7276
15.0164
15.6021
16.6503
20.3268
46.5971
329.143
328.791
47.2583
51.1473
67.372
68.3489
62.6605
54.503
46.0751
38.3971
31.8468
26.5231
22.405
19.3958
17.3601
16.1292
15.5892
15.6775
16.1531
17.113
20.6578
46.7096
329.273
68.313
17.861
16.7732
31.9109
48.6802
53.8393
52.203
47.2687
41.2834
35.4433
30.2418
25.8442
22.3052
19.6323
17.8117
16.7978
16.5651
16.8585
17.6845
21.0703
46.903
329.451
14.8927
7.8638
8.2917
12.7286
23.1241
38.1752
44.7478
44.9237
41.6039
37.0009
32.3596
28.1812
24.5962
21.661
19.4418
18.0161
17.4466
17.5349
18.2177
21.4649
47.1529
329.67
5.98871
5.07397
5.68171
7.56769
11.5517
20.014
32.7083
39.1396
39.796
37.1374
33.3004
29.4802
26.0998
23.1789
20.8047
19.1111
18.2586
18.1476
18.6887
21.8275
47.4902
329.909
4.12492
4.21981
4.75426
5.79912
7.73376
11.5659
19.5496
30.1771
35.6391
35.9656
33.4386
30.0743
26.9245
24.1535
21.8036
19.9943
18.9471
18.6683
19.0808
22.1453
47.9068
330.168
3.63494
3.93246
4.40719
5.13039
6.29492
8.34401
12.3443
20.6957
29.3507
33.3168
32.8456
30.2278
27.259
24.6462
22.4163
20.6198
19.475
19.0768
19.3839
22.4113
48.392
330.444
3.47104
3.82933
4.28452
4.88761
5.7347
7.04452
9.36421
13.7687
22.2572
29.2358
31.4379
30.0482
27.3734
24.8315
22.7047
20.9837
19.8246
19.3616
19.5946
22.6254
48.942
330.733
3.39536
3.78869
4.25149
4.81911
5.53761
6.52485
8.10709
10.9111
16.7295
24.4637
29.2162
29.525
27.3749
24.8247
22.7535
21.1184
19.9991
19.5205
19.7148
22.7929
49.5574
331.03
3.34589
3.76993
4.25144
4.8148
5.48904
6.34276
7.57047
9.54184
13.3568
20.0794
26.4116
28.627
27.3011
24.803
22.6749
21.0853
20.02
19.5608
19.7509
22.9215
50.239
331.327
3.30002
3.74969
4.25124
4.82899
5.50561
6.31792
7.38094
8.91605
11.636
16.8604
23.4917
27.3908
27.1415
24.8016
22.5077
20.9236
19.9194
19.4997
19.7116
23.0101
51.0026
331.618
3.24297
3.71851
4.24476
4.84811
5.55085
6.36952
7.37106
8.68686
10.84
14.8529
20.9308
25.9443
26.8845
24.8472
22.3597
20.6946
19.7278
19.3553
19.6098
23.0724
51.8475
331.897
3.17655
3.67749
4.2309
4.86491
5.60602
6.45794
7.45605
8.66855
10.4958
13.7134
18.9759
24.4616
26.527
24.9313
22.2804
20.4397
19.4744
19.1452
19.4588
23.1226
52.7718
332.156
3.10614
3.62843
4.20858
4.87526
5.6604
6.56243
7.59023
8.7708
10.4122
13.1247
17.6344
23.103
26.0846
25.0319
22.2571
20.1775
19.1798
18.888
19.2731
23.1719
53.7716
332.389
3.03938
3.57427
4.17663
4.87411
5.70625
6.66782
7.74848
8.94408
10.4883
12.8793
16.7924
21.9724
25.5928
25.1328
22.2865
19.9118
18.8618
18.6004
19.0652
23.2284
54.8077
332.588
2.98771
3.52152
4.13628
4.85927
5.73808
6.76832
7.91554
9.15732
10.6632
12.8507
16.3166
21.106
25.0923
25.2196
22.3618
19.6712
18.5349
18.2955
18.8451
23.2994
55.8584
332.747
2.97664
3.48255
4.09274
4.83025
5.75076
6.85412
8.07893
9.38784
10.8965
12.9594
16.0958
20.489
24.6169
25.2798
22.4692
19.4731
18.2101
17.9715
18.6212
23.3962
57.1396
332.863
3.0296
3.49409
4.05945
4.78968
5.73898
6.91543
8.22796
9.61684
11.1599
13.1526
16.0478
20.0819
24.1909
25.3072
22.5949
19.3321
17.8934
17.6454
18.3996
23.5436
59.4246
332.924
3.15517
3.56963
4.0784
4.75733
5.70519
6.94368
8.35076
9.83065
11.4321
13.3944
16.1147
19.8397
23.8271
25.3018
22.7284
19.211
17.5838
17.3255
18.1866
23.7594
62.4196
332.93
3.36719
3.72402
4.16331
4.77028
5.67199
6.93105
8.43126
10.0192
11.6951
13.6599
16.2594
19.7234
23.5168
25.2647
22.8634
19.1086
17.2804
17.0149
17.9926
24.2427
65.611
332.882
3.6809
3.97254
4.33122
4.84483
5.6636
6.89734
8.4514
10.1619
11.9341
13.9243
16.4364
19.6924
23.2708
25.1799
22.9969
19.0244
16.9812
16.7157
17.841
24.9493
68.8325
332.783
4.10799
4.32613
4.59645
5.00144
5.70288
6.8639
8.43798
10.2405
12.1157
14.1515
16.6038
19.7023
23.0943
25.0533
23.1164
18.9692
16.6905
16.4337
17.7527
25.8086
71.882
332.638
4.64797
4.78424
4.96196
5.25252
5.81313
6.85426
8.40774
10.2573
12.2187
14.3211
16.7433
19.7276
22.9634
24.9133
23.1944
18.9356
16.4243
16.1759
17.7215
26.7673
74.5951
332.455
5.27683
5.32652
5.4122
5.59229
6.00413
6.88283
8.34745
10.214
12.2442
14.4132
16.8395
19.7469
22.8559
24.7718
23.2356
18.9214
16.1838
15.9423
17.7414
27.7684
76.8944
332.247
5.93769
5.90578
5.90855
5.99232
6.26716
6.96371
8.28515
10.1204
12.1973
14.4112
16.8804
19.7464
22.7562
24.6429
23.2509
18.9211
15.9691
15.7324
17.803
28.7692
78.7914
332.024
6.54164
6.44757
6.38894
6.40167
6.56886
7.09319
8.23574
9.98892
12.0811
14.3315
16.8473
19.7072
22.6471
24.4997
23.2483
18.9331
15.7804
15.5443
17.8932
29.7104
80.2443
331.797
6.98599
6.86272
6.77612
6.75309
6.85387
7.24283
8.20124
9.831
11.9032
14.1929
16.7243
19.6119
22.5151
24.3533
23.2264
18.9558
15.617
15.3755
17.9982
30.5595
81.3034
331.575
7.19026
7.07426
6.99674
6.97681
7.05695
7.36312
8.16353
9.64962
11.6763
13.9924
16.5325
19.4503
22.3483
24.1955
23.1951
18.988
15.4779
15.2229
18.1043
31.2914
82.014
331.365
7.13399
7.04584
6.99813
7.00699
7.10297
7.37919
8.07161
9.43504
11.4136
13.7413
16.2943
19.2077
22.1371
24.0182
23.1521
19.0288
15.3617
15.083
18.1976
31.8814
82.4292
331.173
6.85751
6.79942
6.78946
6.83875
6.97018
7.25728
7.90612
9.18809
11.1164
13.4465
16.0076
18.8988
21.8761
23.8138
23.0957
19.0771
15.2663
14.9518
18.2679
32.3265
82.5965
331.001
6.46888
6.44511
6.47296
6.56204
6.73147
7.04205
7.67557
8.90461
10.7901
13.1156