/*--------------------------------*- C++ -*----------------------------------*\
| =========                 |                                                 |
| \\      /  F ield         | OpenFOAM: The Open Source CFD Toolbox           |
|  \\    /   O peration     | Version:  v2012                                 |
|   \\  /    A nd           | Website:  www.openfoam.com                      |
|    \\/     M anipulation  |                                                 |
\*---------------------------------------------------------------------------*/
FoamFile
{
    version     2.0;
    format      ascii;
    class       volScalarField;
    location    "621";
    object      age;
}
// * * * * * * * * * * * * * * * * * * * * * * * * * * * * * * * * * * * * * //

dimensions      [0 0 1 0 0 0 0];


internalField   nonuniform List<scalar> 
6108
(
0.489368
0.464181
0.439008
0.413846
0.388694
0.363551
0.338417
0.313292
0.288175
0.263066
0.237966
0.212874
0.187791
0.162718
0.137655
0.112602
0.0875595
0.0625289
0.0375098
0.0125018
0.487557
0.462536
0.437521
0.41251
0.387502
0.362496
0.337491
0.312488
0.287485
0.262483
0.237482
0.212482
0.187482
0.162483
0.137485
0.112487
0.0874902
0.0624938
0.0374972
0.0124996
0.487084
0.462112
0.437143
0.412175
0.387207
0.362239
0.33727
0.312299
0.287328
0.262354
0.237379
0.212402
0.187423
0.162442
0.137458
0.112472
0.0874836
0.062492
0.0374974
0.0124997
0.486891
0.461941
0.436993
0.412044
0.387093
0.362141
0.337187
0.312231
0.287272
0.26231
0.237345
0.212377
0.187406
0.162431
0.137452
0.11247
0.0874833
0.0624925
0.0374978
0.0124998
0.486806
0.461869
0.436931
0.411991
0.387048
0.362104
0.337156
0.312205
0.287251
0.262294
0.237333
0.212369
0.1874
0.162428
0.137451
0.11247
0.0874836
0.0624929
0.037498
0.0124999
0.486788
0.461857
0.436923
0.411986
0.387045
0.362101
0.337154
0.312204
0.287251
0.262293
0.237333
0.212368
0.1874
0.162428
0.137451
0.11247
0.0874836
0.0624929
0.037498
0.0124999
0.486839
0.461907
0.43697
0.412029
0.387084
0.362135
0.337183
0.312228
0.28727
0.262308
0.237344
0.212376
0.187405
0.162431
0.137452
0.11247
0.0874832
0.0624925
0.0374978
0.0124998
0.487002
0.462059
0.437108
0.412152
0.387192
0.362229
0.337263
0.312295
0.287325
0.262352
0.237378
0.212401
0.187422
0.162441
0.137458
0.112472
0.0874835
0.062492
0.0374974
0.0124997
0.487448
0.462468
0.437476
0.412481
0.387483
0.362483
0.337483
0.312483
0.287482
0.262481
0.237481
0.212481
0.187482
0.162483
0.137485
0.112487
0.0874902
0.0624938
0.0374972
0.0124996
0.484786
0.465153
0.438705
0.413868
0.388656
0.363539
0.338407
0.313286
0.288171
0.263063
0.237964
0.212873
0.187791
0.162718
0.137654
0.112601
0.0875595
0.0625289
0.0375098
0.0125018
0.590309
0.565036
0.539791
0.51457
0.587758
0.562682
0.537626
0.512586
0.587057
0.562043
0.537046
0.512061
0.586755
0.561771
0.536802
0.511843
0.586604
0.561638
0.536687
0.511744
0.586548
0.561592
0.536651
0.511718
0.586595
0.561637
0.536696
0.511766
0.586833
0.561839
0.536877
0.511937
0.587461
0.562408
0.537398
0.512415
0.630687
0.598669
0.566228
0.533331
10.9876
11.5116
12.0573
13.2712
3.33208
1.95975
1.73757
1.60507
1.51449
1.44339
1.38408
1.33253
1.28649
1.24455
1.20576
1.16945
1.13513
1.10242
1.07103
1.04073
1.01133
0.98267
0.954631
0.927106
0.900006
0.873258
0.8468
0.820582
0.794561
0.7687
0.742972
0.717352
0.691821
0.666363
0.640965
0.615616
10.1003
11.6238
11.7035
7.32378
2.28476
1.8215
1.67521
1.56676
1.4875
1.42227
1.3666
1.31747
1.27317
1.23253
1.19476
1.15929
1.12568
1.09358
1.06275
1.03295
1.00401
0.975782
0.948149
0.921006
0.894267
0.867861
0.841728
0.815819
0.790091
0.764511
0.739049
0.713683
0.688395
0.663169
0.637994
0.61286
9.6887
11.2131
8.24027
3.51511
1.9548
1.74154
1.6287
1.53756
1.46658
1.40618
1.35364
1.30669
1.264
1.22462
1.18788
1.15326
1.12037
1.08891
1.05861
1.02928
1.00074
0.972873
0.945547
0.918671
0.892166
0.865963
0.840009
0.814256
0.788667
0.76321
0.737859
0.712594
0.687397
0.662254
0.637156
0.612092
8.83588
8.4014
4.5843
2.13487
1.84821
1.69599
1.5995
1.51884
1.45311
1.3961
1.3458
1.30043
1.25892
1.22043
1.18438
1.15031
1.11786
1.08674
1.05672
1.02762
0.99928
0.971568
0.944379
0.91762
0.891216
0.865104
0.839229
0.813548
0.788023
0.762624
0.737326
0.712108
0.686954
0.661851
0.636789
0.611759
7.45798
5.68558
2.78478
1.93594
1.79236
1.66889
1.58123
1.50697
1.44464
1.38992
1.34113
1.29681
1.25603
1.21808
1.18241
1.14862
1.11639
1.08545
1.05558
1.0266
0.998373
0.970758
0.943653
0.916971
0.890635
0.864584
0.838763
0.813131
0.78765
0.76229
0.737026
0.71184
0.686714
0.661636
0.636597
0.611588
6.29752
3.89514
2.16588
1.88466
1.76075
1.65171
1.56946
1.49925
1.43919
1.38602
1.33824
1.29459
1.25426
1.21661
1.18117
1.14756
1.11548
1.08467
1.05492
1.02605
0.997916
0.97038
0.943341
0.91671
0.890414
0.864393
0.838596
0.812982
0.787515
0.762167
0.736914
0.711737
0.68662
0.661551
0.636521
0.611522
5.46344
2.96635
2.02957
1.85992
1.74091
1.64046
1.56186
1.49438
1.43592
1.38378
1.33655
1.2932
1.25304
1.21555
1.18029
1.14689
1.11504
1.08446
1.05492
1.02623
0.998227
0.970785
0.943799
0.917187
0.890882
0.864831
0.83899
0.813324
0.787803
0.762403
0.737103
0.711884
0.686733
0.661638
0.636588
0.611576
4.82531
2.5091
1.98658
1.84523
1.72786
1.63322
1.55706
1.49121
1.43342
1.38149
1.33443
1.29152
1.25214
1.21561
1.18126
1.14861
1.11735
1.08719
1.05792
1.02937
1.00139
0.973878
0.946748
0.919936
0.893391
0.867077
0.840963
0.815025
0.789242
0.763599
0.738079
0.712667
0.687351
0.662119
0.636962
0.61187
4.36039
2.3283
1.96573
1.83532
1.71945
1.62876
1.55401
1.48915
1.43233
1.38213
1.33753
1.29694
1.2586
1.22134
1.18519
1.15109
1.11874
1.0878
1.05805
1.02926
1.00124
0.973842
0.946956
0.92046
0.894243
0.868218
0.84232
0.81651
0.790767
0.765086
0.739467
0.713917
0.688444
0.663061
0.637774
0.612578
4.03129
2.24996
1.95557
1.82853
1.7144
1.62629
1.55262
1.48916
1.43393
1.38413
1.33631
1.28786
1.23969
1.19709
1.16872
1.14431
1.12048
1.09766
1.07565
1.05407
1.03338
1.0139
0.995044
0.97618
0.956729
0.93626
0.914477
0.891226
0.866477
0.840319
0.812874
0.784302
0.754771
0.724505
0.693684
0.662388
114.53
120.642
126.452
129.132
147.383
148.414
150.53
153.404
145.839
146.26
147.794
153.466
145.61
146.33
148.366
153.721
145.32
146.006
148.067
153.657
145.065
145.752
147.862
153.486
144.816
145.483
147.57
153.26
144.58
145.226
147.258
153.039
144.354
144.982
146.951
152.82
144.138
144.751
146.675
152.603
143.929
144.534
146.437
152.388
143.728
144.329
146.24
152.179
143.535
144.142
146.071
151.996
143.354
143.974
145.936
151.84
143.189
143.827
145.843
151.714
143.033
143.705
145.797
151.621
142.882
143.618
145.806
151.566
142.732
143.581
145.883
151.554
142.606
143.609
146.046
151.594
142.527
143.731
146.32
151.697
142.524
143.986
146.735
151.88
142.649
144.438
147.332
152.163
143.002
145.175
148.15
152.559
143.744
146.309
149.22
153.06
145.086
147.969
150.581
153.64
147.327
150.316
152.293
154.205
150.848
153.54
154.415
154.871
156.047
157.831
157.018
155.627
163.397
163.426
160.186
156.488
173.317
170.464
163.914
157.553
186.039
178.962
168.151
158.687
201.587
188.817
172.812
159.823
219.614
199.765
177.768
160.93
239.485
211.423
182.85
161.983
260.289
223.302
187.874
162.96
281.031
234.845
192.635
163.838
300.656
245.531
196.95
164.601
318.186
254.907
200.677
165.241
332.882
262.65
203.725
165.757
344.257
268.572
206.045
166.15
352.076
272.611
207.635
166.429
356.33
274.799
208.533
166.605
357.153
275.241
208.754
166.715
354.856
274.091
208.294
166.825
349.772
271.494
207.193
166.935
342.26
267.596
205.524
167.045
332.683
262.538
203.351
167.157
321.388
256.445
200.74
167.271
308.689
249.434
197.751
167.388
294.854
241.604
194.442
167.509
280.108
233.049
190.875
167.635
264.64
223.868
187.118
167.767
248.634
214.195
183.267
167.908
232.338
204.256
179.463
168.059
216.177
194.44
175.917
168.227
200.922
185.384
172.908
168.418
187.669
177.868
170.784
168.644
177.749
172.791
169.749
168.953
172.009
170.5
169.986
170.015
171.603
172.013
172.925
175.11
3.80401
2.20892
1.95152
1.82423
1.71193
1.62569
1.55322
1.49087
1.43477
1.38088
1.32905
1.28724
1.26932
1.28413
1.37145
1.58667
2.023
2.81002
4.14351
6.26311
9.42788
13.8763
19.7103
26.645
33.9
41.3103
48.6917
55.937
62.996
69.8872
76.6168
83.2123
89.7033
96.1658
102.569
108.722
3.64829
2.18624
1.951
1.8222
1.71177
1.6271
1.55566
1.49267
1.43294
1.3767
1.3374
1.33314
1.4332
1.77006
2.54024
4.21569
7.82912
14.9704
25.849
39.6572
55.3643
71.5955
86.99
100.521
111.831
121.319
128.853
134.326
138.48
141.498
143.711
145.247
146.208
146.65
146.718
146.927
3.54101
2.17426
1.95283
1.8224
1.71381
1.63036
1.55836
1.49107
1.42571
1.37758
1.3705
1.52251
2.04743
3.53685
7.83097
17.5351
33.4798
54.4268
76.9583
98.6497
117.541
132.399
143.027
149.903
153.799
155.47
155.57
154.73
153.503
151.889
149.92
148.025
146.604
145.893
145.68
145.657
3.46447
2.16884
1.95642
1.82469
1.71784
1.63465
1.55966
1.4864
1.42105
1.39595
1.47929
1.92093
4.16843
11.4625
26.8908
50.4859
78.6234
107.013
131.623
150.791
164.362
173.257
178.693
181.622
182.587
181.756
179.26
175.26
170.108
164.217
158.12
152.518
148.29
146.123
145.486
145.408
3.40824
2.16781
1.9615
1.82893
1.72345
1.63904
1.55922
1.48221
1.42886
1.44027
1.61964
3.86477
12.6132
31.5571
60.3205
94.5127
127.751
155.687
176.818
191.964
202.495
209.41
213.07
213.565
211.157
206.451
199.959
192.117
183.346
174.094
164.902
156.51
149.939
146.302
145.316
145.14
3.36636
2.16998
1.96797
1.83494
1.73018
1.6429
1.55732
1.48114
1.45501
1.55425
2.54233
10.4914
30.0724
61.6661
100.561
139.17
171.795
196.914
215.576
229.057
237.795
241.858
241.67
238.17
232.142
224.167
214.729
204.239
193.079
181.652
170.445
160.138
151.749
146.625
145.14
144.905
3.33523
2.17461
1.97575
1.84248
1.73748
1.6459
1.55628
1.49186
1.49478
1.66325
6.17775
23.4573
54.7373
96.5843
140.621
179.311
209.968
233.465
250.866
262.207
267.523
267.701
264.089
257.556
248.87
238.572
227.057
214.656
201.699
188.564
175.716
163.794
153.787
147.152
144.991
144.684
3.31246
2.18124
1.98479
1.85131
1.74514
1.6488
1.55805
1.51089
1.57376
2.52692
13.76
41.6067
83.227
131.577
177.032
214.538
244.133
266.872
282.551
290.94
292.988
290.194
283.736
274.676
263.778
251.543
238.293
224.278
209.774
195.135
180.824
167.455
155.962
147.864
144.865
144.477
3.29638
2.18957
1.995
1.86119
1.75285
1.65179
1.56689
1.54404
1.65162
5.26012
25.2769
62.886
112.347
163.958
209.226
246.105
275.688
297.937
312.004
318.183
317.737
312.15
302.889
291.227
278.04
263.849
248.911
233.38
217.44
201.398
185.715
171.01
158.17
148.69
144.753
144.28
3.28576
2.19936
2.0063
1.87192
1.76081
1.65699
1.58183
1.5776
1.72126
10.1621
39.3265
85.242
139.977
192.879
237.927
275.342
305.943
328.587
342.191
346.964
344.09
335.422
322.89
308.117
292.222
275.801
259.052
241.989
224.655
207.27
190.278
174.316
160.263
149.542
144.649
144.091
3.27968
2.21044
2.01858
1.8834
1.76945
1.66463
1.59909
1.63396
2.34658
17.2393
54.6143
107.115
165.11
218.529
264.171
303.562
336.684
361.322
375.593
379.197
373.601
361.215
344.591
325.901
306.639
287.54
268.737
250.052
231.325
212.641
194.395
177.248
162.099
150.315
144.54
143.905
3.27742
2.22265
2.03175
1.89556
1.77901
1.67533
1.62416
1.68012
3.88186
25.828
70.0774
127.559
187.515
241.507
288.999
332.149
369.789
398.069
413.698
416.103
407.259
390.272
368.51
344.895
321.445
299.104
277.926
257.486
237.346
217.395
197.955
179.694
163.562
150.899
144.416
143.718
3.27838
2.23587
2.04573
1.90844
1.78975
1.68864
1.65167
1.72291
6.25474
35.0126
84.975
146.128
207.37
262.495
313.369
362.359
406.598
439.792
457.175
458.233
445.488
422.896
394.833
365.181
336.64
310.438
286.536
264.192
242.614
221.427
200.852
181.56
164.557
151.196
144.267
143.527
3.28207
2.24999
2.06045
1.92199
1.80153
1.70588
1.67992
1.76596
9.31036
44.2125
98.8361
162.677
224.975
282.08
338.034
395.002
447.617
486.595
505.979
505.442
488.1
458.895
423.371
386.568
352.043
321.383
294.434
270.059
247.024
224.637
202.992
182.76
165.007
151.137
144.079
143.332
3.28812
2.26493
2.07584
1.93621
1.81459
1.72567
1.70911
1.80917
12.8562
53.0318
111.4
177.224
240.621
300.672
363.402
430.25
492.533
537.831
559.305
556.854
534.27
497.548
453.522
408.574
367.286
331.677
301.441
274.96
250.475
226.934
204.289
183.218
164.854
150.701
143.828
143.135
3.29622
2.28058
2.09186
1.95117
1.8292
1.74504
1.73594
1.85086
16.683
61.2215
122.576
189.907
254.597
318.535
389.522
467.668
540.364
592.189
615.646
610.928
582.575
537.633
484.294
430.432
381.82
340.958
307.336
278.755
252.867
228.233
204.669
182.874
164.071
149.868
143.513
142.937
3.30609
2.29689
2.10845
1.96689
1.84504
1.764
1.77323
2.09214
20.6642
68.6437
132.377
200.911
267.157
335.81
416.17
506.41
589.689
647.861
672.959
665.613
631.138
577.529
514.372
451.151
394.961
348.802
311.876
281.307
254.107
228.456
204.068
181.684
162.621
148.664
143.174
142.739
3.31753
2.31377
2.12557
1.98332
1.8619
1.78575
1.80667
2.47354
24.4484
75.2433
140.876
210.427
278.496
352.522
442.951
545.452
638.896
702.772
728.885
718.556
677.841
615.396
542.253
469.607
405.958
354.766
314.824
282.488
254.112
227.545
202.436
179.605
160.511
147.19
142.866
142.545
3.33032
2.33118
2.14319
2.00042
1.87972
1.80892
1.83602
2.93938
27.9049
81.0189
148.173
218.628
288.751
368.61
469.401
583.772
686.387
754.789
780.968
767.335
720.552
649.366
566.4
484.667
414.086
358.447
315.98
282.196
252.82
225.45
199.728
176.626
157.785
145.659
142.63
142.355
3.3443
2.34905
2.16126
2.01814
1.8984
1.83262
1.864
3.44381
30.9843
86.0032
154.38
225.668
298.008
383.936
494.984
620.356
730.649
801.919
826.938
809.763
757.356
677.735
585.403
495.323
418.736
359.538
315.204
280.368
250.209
222.13
195.923
172.77
154.548
144.207
142.357
142.181
3.35932
2.36735
2.17975
2.03643
1.91781
1.8565
1.89162
3.95047
33.671
90.2451
159.607
231.673
306.311
398.312
519.161
654.324
770.454
842.553
865.111
844.235
786.737
699.108
598.117
500.803
419.499
357.858
312.456
277.032
246.252
217.558
191.023
168.103
150.992
143.003
142.066
142.064
3.37525
2.38601
2.19862
2.05525
1.93783
1.88045
1.91902
4.43183
35.9671
93.7991
163.956
236.749
313.676
411.543
541.425
684.78
804.544
875.861
894.691
870
807.696
712.481
603.766
500.67
416.199
353.429
307.843
272.215
240.941
211.724
185.07
162.767
147.454
142.205
141.846
141.98
3.39197
2.40501
2.21783
2.07454
1.95837
1.90443
1.94623
4.86889
37.8876
96.723
167.518
240.981
320.098
423.421
561.298
711.403
834.193
901.15
914.481
887.071
819.74
717.299
602.025
494.859
408.933
346.487
301.525
265.979
234.274
204.646
178.166
157.019
144.585
141.888
141.682
141.942
3.4094
2.42431
2.23737
2.09426
1.97934
1.92844
1.97325
5.2494
39.4546
99.0743
170.376
244.439
325.566
433.759
578.436
733.749
856.634
913.022
921.952
895.815
822.786
713.519
593.014
483.528
398.153
337.428
293.721
258.385
226.261
196.389
170.506
151.3
142.563
141.575
141.606
142.112
3.42744
2.44388
2.25718
2.11436
2.00069
1.95247
2.00008
5.56655
40.6936
100.908
172.601
247.182
330.067
442.398
592.544
751.348
872.093
917.485
920.354
896.853
817.172
701.362
576.987
467.407
384.578
326.749
284.649
249.48
216.936
187.095
162.433
146.348
141.538
141.388
141.601
142.729
3.44603
2.4637
2.27726
2.13481
2.02235
1.97651
2.02674
5.81768
41.6311
102.274
174.256
249.262
333.59
449.217
603.388
763.972
881.269
918.925
919.248
891.106
802.976
681.181
554.873
447.54
369.091
314.958
274.481
239.294
206.382
177.032
154.511
142.967
141.307
141.332
141.956
144.166
3.46509
2.48373
2.29757
2.15557
2.04428
2.00056
2.05322
6.00324
42.2939
103.219
175.397
250.722
336.136
454.135
610.816
771.483
885.044
919.771
917.427
878.378
780.517
653.97
527.936
425.213
352.618
302.475
263.303
227.857
194.783
166.658
147.613
141.226
141.154
141.424
143.316
146.998
3.4846
2.50397
2.3181
2.17661
2.06645
2.02462
2.07955
6.12612
42.7073
103.784
176.07
251.603
337.717
457.115
614.734
774.025
883.549
921.109
912.439
857.297
750.579
621.068
497.728
401.813
335.978
289.553
251.124
215.252
182.482
156.704
143.112
141.021
141.144
142.477
146.552
151.838
3.50449
2.52438
2.33882
2.19789
2.08884
2.04869
2.10572
6.18918
42.897
104.007
176.322
251.947
338.35
458.152
615.319
771.726
876.42
915.271
898.358
827.595
714.483
584.067
465.959
378.659
319.746
276.247
237.922
201.682
170.059
148.28
140.905
140.923
141.668
145.581
152.535
159.439
3.5247
2.54497
2.35973
2.21941
2.11141
2.07278
2.1317
6.21284
42.8803
103.919
176.173
251.774
338.105
457.416
612.663
764.661
863.496
899.465
870.348
791.002
673.941
544.672
434.365
356.813
304.159
262.455
223.734
187.546
158.397
142.981
140.699
141.162
144.239
152.337
162.605
170.651
3.54521
2.5657
2.3808
2.24113
2.13415
2.09688
2.15742
6.21213
42.6706
103.547
175.654
251.113
337.045
455.035
606.97
753.154
845.933
867.743
835.954
751.2
630.316
504.679
404.553
336.912
289.116
248.02
208.747
173.499
148.761
140.528
140.761
142.612
150.502
164.035
177.786
186.065
3.56598
2.58657
2.40203
2.26302
2.15705
2.121
2.18292
6.1913
42.2885
102.921
174.797
250.003
335.237
451.153
598.533
737.617
825.316
842.403
800.407
707.476
584.886
466.078
377.757
319.068
274.284
232.88
193.376
160.495
142.853
140.394
141.39
147.488
162.751
182.515
199.116
206.087
3.587
2.60758
2.42337
2.28508
2.18007
2.14513
2.20821
6.15346
41.7559
102.067
173.636
248.481
332.753
445.939
587.72
718.63
799.787
811.056
758.795
661.313
539.903
430.62
354.589
302.921
259.286
217.186
178.286
149.825
140.135
140.556
144.033
158.11
182.42
208.585
226.775
230.495
3.60804
2.62889
2.4448
2.30727
2.20333
2.1693
2.23333
6.10155
41.0944
101.012
172.202
246.59
329.671
439.588
574.952
697.006
768.73
770.621
714.6
615.125
496.998
399.52
335.041
287.833
243.91
201.348
164.376
143.187
139.931
141.509
151.476
176.747
210.898
242.54
260.33
258.536
3.62909
2.65053
2.46632
2.32959
2.22672
2.19349
2.2583
6.03832
40.3251
99.7797
170.525
244.369
326.073
432.305
560.682
673.572
735.471
730.257
671.764
569.906
457.596
373.529
318.531
273.131
228.238
185.995
152.76
139.777
139.956
144.91
166.047
204.014
247.82
283.274
298.341
288.894
3.65016
2.67244
2.4879
2.35202
2.2502
2.21771
2.28315
5.96635
39.4681
98.3948
168.638
241.863
322.047
424.306
545.371
649.122
701.663
691.349
630.189
526.396
423.172
352.699
304.091
258.388
212.669
171.874
144.817
138.955
140.972
153.901
189.221
239.973
291.894
328.773
338.853
320.062
3.67124
2.69461
2.50956
2.37456
2.27377
2.24198
2.3079
5.88798
38.5422
96.881
166.569
239.112
317.676
415.801
529.464
624.389
668.381
654.891
590.006
485.832
394.776
336.311
290.733
243.583
197.804
159.713
140.048
138.853
144.131
169.477
219.832
282.505
340.312
376.123
379.181
350.213
3.69235
2.71698
2.53129
2.39719
2.29743
2.26628
2.33259
5.80536
37.5655
95.2615
164.349
236.162
313.045
406.988
513.366
600.012
636.503
621.275
551.13
449.604
372.725
323.158
277.799
229.07
184.26
150.067
137.862
139.453
151.649
192.445
256.945
328.842
389.64
422.119
416.978
377.72
3.71347
2.73953
2.55308
2.41991
2.32116
2.29063
2.35723
5.72042
36.5544
93.559
162.009
233.053
308.236
398.052
497.441
576.518
606.882
590.334
513.739
419.108
356.485
311.963
265.141
215.403
172.521
143.662
137.518
141.208
164.239
220.745
296.973
374.983
436.218
463.841
450.195
401.263
3.73463
2.76222
2.57493
2.4427
2.34496
2.31503
2.38185
5.63486
35.5244
91.796
159.579
229.829
303.324
389.16
482.008
554.318
580.369
561.374
478.541
395.32
344.812
301.809
253.058
203.115
162.873
139.734
137.429
144.712
181.766
251.935
336.264
417.347
476.939
498.967
477.209
419.863
3.75581
2.78505
2.59683
2.46556
2.36882
2.33947
2.40647
5.55017
34.4895
89.9945
157.088
226.534
298.388
380.469
467.355
533.735
557.692
533.381
446.885
378.409
336.191
292.387
242.074
192.585
155.334
137.456
137.376
150.984
202.705
282.671
371.251
452.998
508.982
525.688
497.134
432.981
3.77701
2.80796
2.61879
2.48849
2.39274
2.36397
2.43112
5.46765
33.4626
88.1759
154.567
223.21
293.499
372.121
453.732
515.029
539.241
505.474
420.6
367.581
329.381
283.937
232.705
184.009
149.754
136.339
137.622
160.201
223.739
309.43
399.321
479.853
528.909
538.015
508.361
440.419
3.79825
2.83095
2.6408
2.51146
2.41672
2.38853
2.4558
5.38838
32.4551
86.361
152.045
219.902
288.729
364.243
441.344
498.433
524.848
477.482
401.352
361.289
323.83
277.004
225.333
177.465
145.938
135.95
138.238
170.202
241.685
329.98
418.881
496.444
538.905
544.923
512.17
442.19
3.81951
2.85399
2.66286
2.53448
2.44075
2.41314
2.48055
5.31327
31.4768
84.5693
149.551
216.65
284.143
356.939
430.332
484.144
513.764
450.379
389.673
357.791
319.676
272.124
220.221
172.975
143.594
135.876
138.962
179.409
255.115
343.099
429.11
502.335
540.99
542.968
508.653
438.77
3.8408
2.87705
2.68495
2.55754
2.46482
2.4378
2.50537
5.24305
30.5366
82.8192
147.113
213.496
279.799
350.289
420.775
472.386
503.745
426.407
384.471
355.935
317.38
269.641
217.561
170.556
142.33
135.803
139.592
185.85
262.446
348.257
429.978
497.713
535.495
535.023
498.416
430.731
3.86212
2.90011
2.70708
2.58063
2.48893
2.46252
2.53028
5.17827
29.6412
81.1269
144.754
210.474
275.746
344.347
412.697
463.278
494.563
408.854
383.392
355.524
317.328
269.764
217.535
170.266
141.947
135.737
139.898
187.944
263.276
345.624
421.965
483.683
518.926
518.469
482.379
418.74
3.88347
2.92316
2.72925
2.60374
2.51308
2.4873
2.5553
5.11932
28.7963
79.5068
142.498
207.616
272.024
339.153
406.099
456.702
488.461
399.55
384.048
356.951
319.716
272.693
220.378
172.266
142.411
135.677
139.639
185.126
257.777
335.882
406.565
462.817
494.743
494.643
461.723
403.507
3.90484
2.94618
2.75144
2.62687
2.53727
2.51213
2.58042
5.06647
28.0061
77.9707
140.363
204.948
268.663
334.727
400.961
452.674
476.979
397.089
386
360.442
324.593
278.565
226.356
176.935
143.973
135.623
138.23
178.329
246.737
320.158
385.138
436.113
465.378
466.193
437.627
385.731
3.92623
2.96914
2.77365
2.65002
2.56149
2.53702
2.60567
5.01985
27.2732
76.5284
138.364
202.494
265.689
331.08
397.282
450.8
458.794
398.737
389.594
365.903
331.922
287.415
235.658
184.733
147.517
135.573
136.199
168.297
230.971
299.61
359.367
405.516
432.663
434.898
411.169
366.063
3.94765
2.99204
2.79588
2.67317
2.58564
2.56195
2.63104
4.97948
26.5992
75.1872
136.516
200.27
263.118
328.216
394.96
450.608
440.314
401.839
394.676
373.237
341.574
299.167
248.412
196.033
153.949
135.963
134.299
156.561
211.656
275.436
330.789
372.663
398.154
402.094
383.291
345.076
3.96909
3.01487
2.81813
2.69633
2.60967
2.58693
2.65655
4.9453
25.9847
73.9524
134.827
198.29
260.964
326.132
394.317
449.588
427.395
406.716
401.137
382.271
353.319
313.596
264.61
211.479
164.416
138.001
133.377
145.551
190.287
248.745
300.718
339.009
363.116
368.857
354.787
323.253
3.99055
3.03761
2.84039
2.71949
2.63367
2.61195
2.68218
4.91717
25.4293
72.8272
133.305
196.563
259.23
324.807
395.376
447.294
420.084
413.247
408.86
392.785
366.849
330.332
283.959
231.237
180.221
144.016
133.303
137.22
168.855
220.634
270.091
305.783
328.545
336.052
326.291
300.983
4.01202
3.06025
2.86266
2.74265
2.65764
2.63701
2.70796
4.8949
24.9318
71.813
131.952
195.095
257.919
324.283
397.715
443.981
419.633
420.418
417.743
404.54
381.808
348.889
305.922
254.935
201.595
156.524
134.327
132.293
149.901
192.438
239.422
273.953
295.249
304.295
298.295
278.58
4.03351
3.0828
2.88493
2.76581
2.68161
2.66211
2.73387
4.87823
24.4903
70.9095
130.772
193.887
257.025
324.615
400.914
440.941
421.405
428.359
427.607
417.321
397.862
368.746
329.78
281.864
228.473
177.467
141.6
130.981
136.685
166.12
208.998
244.048
264.126
273.976
271.225
256.345
4.05501
3.10523
2.9072
2.78895
2.70556
2.68724
2.75991
4.86687
24.1027
70.1152
129.762
192.937
256.541
325.844
404.615
438.373
424.46
437.073
438.316
430.948
414.741
389.451
354.789
310.952
259.62
205.659
158.665
133.117
129.913
144.566
179.534
215.748
236.339
245.628
245.555
234.691
4.07652
3.12755
2.92948
2.81209
2.7295
2.71241
2.78607
4.86052
23.7661
69.4271
128.921
192.241
256.453
327.929
408.471
436.467
429.744
446.347
449.773
445.285
432.254
410.671
380.304
341.063
293.514
240.225
187.464
145.879
128.663
131.283
153.117
187.908
212.435
220.727
221.956
214.414
4.09805
3.14976
2.95175
2.83522
2.75343
2.73761
2.81237
4.85885
23.4777
68.8412
128.243
191.791
256.756
330.975
412.6
435.559
436.559
456.091
461.871
460.217
450.269
432.21
405.922
371.309
328.391
278.065
223.691
172.899
137.527
126.583
133.66
160.403
190.203
201.428
201.558
196.801
4.11957
3.17187
2.97401
2.85834
2.77732
2.76283
2.83878
4.86149
23.2342
68.353
127.723
191.575
257.462
334.874
415.911
436.214
444.416
466.258
474.505
475.63
468.678
453.964
431.453
401.159
363.068
317.343
265.101
210.121
161.02
131.641
125.448
136.753
165.546
186.976
186.367
183.331
4.14109
3.19385
2.99628
2.88145
2.80141
2.7881
2.8653
4.86808
23.032
67.9563
127.352
191.574
258.583
339.423
418.803
438.108
452.992
476.802
487.565
491.39
487.347
475.838
456.863
430.479
396.754
355.83
308.084
254.774
199.714
151.844
126.469
123.747
139.38
168.917
178.72
174.6
4.16288
3.21588
3.01853
2.90454
2.82551
2.81339
2.89203
4.8784
22.869
67.6483
127.127
191.783
260.143
344.414
421.561
441.196
462.088
487.673
500.918
507.332
506.096
497.656
482.054
459.337
429.551
392.849
349.587
300.425
246.77
192.248
145.367
121.688
120.694
141.751
172.728
172.194
4.17994
3.23464
3.03839
2.92514
2.84716
2.83598
2.91347
4.88919
22.7501
67.4343
127.027
192.113
261.857
349.037
423.971
444.751
470.458
497.535
512.946
521.586
522.756
516.907
504.157
484.56
458.124
424.905
385.165
339.517
289.029
235.493
182.447
137.569
115.702
117.422
144.281
171.995
4.19681
3.25161
3.05584
2.94324
2.86675
2.85586
2.93442
4.90124
22.6671
67.2964
127.024
192.525
263.637
353.165
426.237
448.505
477.98
506.322
523.586
534.105
537.288
533.581
523.159
506.115
482.47
452.225
415.483
372.646
324.621
273.007
220.243
170.162
129.634
110.859
117.13
152.373
4.21347
3.26853
3.07328
2.96134
2.88596
2.87575
2.95542
4.91484
22.6015
67.1997
127.089
193.037
265.644
357.266
428.659
452.74
485.591
515.174
534.242
546.577
551.696
550.024
541.766
527.071
505.999
478.554
444.757
404.814
359.333
309.544
257.459
206.038
159.452
123.548
105.616
102.367
102.271
101.751
101.779
101.971
110.309
103.865
101.495
100.926
128.299
110.997
102.705
100.747
150.918
122.674
105.497
100.647
174.054
136.506
109.975
100.57
195.653
150.325
115.268
100.505
215.063
163.359
120.737
100.448
232.148
175.128
126.044
100.395
247.089
185.538
130.995
100.347
260.145
194.658
135.512
100.301
271.575
202.621
139.584
100.258
281.613
209.575
143.231
100.216
290.461
215.662
146.488
100.175
298.285
221.005
149.395
100.135
305.224
225.708
151.989
100.096
311.392
229.858
154.306
100.057
316.882
233.529
156.376
100.019
321.773
236.779
158.225
99.9822
326.129
239.659
159.876
99.9453
330.005
242.21
161.347
99.9088
333.446
244.464
162.654
99.8727
336.489
246.449
163.811
99.8369
339.161
248.186
164.825
99.8014
341.481
249.687
165.704
99.7662
343.458
250.962
166.451
99.7313
345.094
252.012
167.065
99.6968
346.384
252.836
167.545
99.6625
347.317
253.429
167.888
99.6282
347.88
253.784
168.087
99.5929
348.053
253.888
168.137
99.5575
347.817
253.729
168.039
99.5213
347.15
253.288
167.811
99.4544
346.022
252.547
167.438
99.3559
344.4
251.482
166.909
99.2217
342.244
250.071
166.213
99.0501
339.51
248.285
165.337
98.838
336.145
246.092
164.266
98.5818
332.093
243.46
162.984
98.2776
327.29
240.349
161.473
97.9211
321.671
236.719
159.714
97.5077
315.166
232.532
157.687
97.0323
307.71
227.75
155.371
96.4893
299.232
222.333
152.745
95.8712
289.66
216.245
149.79
95.1656
278.929
209.451
146.487
94.3705
266.986
201.927
142.82
93.4786
253.798
193.66
138.774
92.4815
239.342
184.625
134.32
91.367
223.591
174.775
129.42
90.1187
206.529
164.066
124.038
88.7166
188.189
152.459
118.12
87.1219
168.664
139.919
111.577
85.2519
148.102
126.426
104.312
82.9748
126.727
112.002
96.2388
80.1888
104.877
96.7242
87.3315
77.0756
83.0246
80.7084
77.5973
73.8825
61.782
64.0737
66.8419
70.1027
42.4802
47.6107
54.9264
65.6975
26.2239
32.1808
41.4654
58.957
13.4379
18.4902
26.9287
53.0263
4.2347
3.28853
3.09312
2.98191
2.90676
2.8984
2.98179
4.9335
22.5476
67.14
127.25
193.754
268.211
361.96
431.662
458.105
494.333
525.313
546.367
560.691
567.911
568.429
562.439
550.161
531.712
507.141
476.44
439.693
397.287
350.075
299.511
247.829
198.278
155.17
123.224
106.665
4.25618
3.31032
3.11536
3.00497
2.93064
2.92379
3.00887
4.95502
22.5072
67.1245
127.511
194.694
271.365
367.207
435.218
464.597
504.141
536.674
559.881
576.372
585.876
588.727
585.088
575.236
559.369
537.623
510.026
476.601
437.546
393.403
345.214
294.629
244.017
196.522
155.894
126.188
4.27759
3.33199
3.13758
3.02803
2.95471
2.94921
3.0359
4.97794
22.4845
67.1555
127.846
195.767
274.763
372.393
438.965
471.466
513.895
547.974
573.271
591.887
603.62
608.709
607.252
599.514
585.792
566.345
541.326
510.8
474.831
433.665
387.996
339.109
288.86
239.558
194.011
155.833
4.29897
3.35364
3.15981
3.05109
2.97883
2.97464
3.06296
5.00194
22.4757
67.2247
128.24
196.959
278.353
377.475
442.897
478.591
523.538
559.159
586.502
607.249
621.234
628.549
629.17
623.307
611.336
593.656
570.615
542.415
509.08
470.623
427.352
380.144
330.499
280.352
231.937
187.916
4.32033
3.37527
3.18203
3.07415
3.00296
3.00008
3.09005
5.02661
22.4765
67.3221
128.679
198.25
282.074
382.42
446.992
485.86
533.013
570.177
599.553
622.482
638.792
648.372
651.034
646.884
636.343
619.944
598.26
571.699
540.369
504.169
463.072
417.477
368.432
317.568
266.837
218.316
4.3417
3.39691
3.20425
3.09721
3.02709
3.02553
3.11714
5.05153
22.4828
67.4375
129.149
199.62
285.867
387.2
451.216
493.165
542.269
580.981
612.405
637.605
656.353
668.298
673.04
670.539
661.198
645.674
624.765
599.122
569.047
534.468
495.132
450.982
402.526
350.987
298.111
245.75
4.36307
3.41855
3.22648
3.12028
3.05124
3.05099
3.14422
5.07629
22.4903
67.5602
129.633
201.042
289.668
391.792
455.524
500.41
551.253
591.528
625.039
652.629
673.967
688.432
695.363
694.523
686.244
671.279
650.622
625.207
595.612
561.915
523.78
480.781
432.867
380.733
325.843
270.027
4.38445
3.4402
3.24872
3.14336
3.0754
3.07645
3.17128
5.10044
22.4945
67.6794
130.116
202.49
293.418
396.174
459.864
507.508
559.92
601.776
637.436
667.554
691.671
708.86
718.148
719.046
711.763
697.113
676.261
650.448
620.586
587.006
549.423
507.169
459.681
407.053
350.347
291.373
4.40585
3.46186
3.27097
3.16646