/*--------------------------------*- C++ -*----------------------------------*\
| =========                 |                                                 |
| \\      /  F ield         | OpenFOAM: The Open Source CFD Toolbox           |
|  \\    /   O peration     | Version:  v2012                                 |
|   \\  /    A nd           | Website:  www.openfoam.com                      |
|    \\/     M anipulation  |                                                 |
\*---------------------------------------------------------------------------*/
FoamFile
{
    version     2.0;
    format      ascii;
    class       volScalarField;
    location    "621";
    object      k;
}
// * * * * * * * * * * * * * * * * * * * * * * * * * * * * * * * * * * * * * //

dimensions      [0 2 -2 0 0 0 0];


internalField   nonuniform List<scalar> 
6108
(
0.0471387
0.0509243
0.0552169
0.0601177
0.0657554
0.0722962
0.0799589
0.0890365
0.0999301
0.113202
0.129665
0.150527
0.177658
0.214082
0.264947
0.339596
0.456311
0.654365
1.02837
1.84122
0.115956
0.125487
0.136256
0.148498
0.162508
0.17866
0.197435
0.219462
0.245577
0.276916
0.315046
0.362191
0.421582
0.498052
0.599065
0.736543
0.930215
1.21376
1.64556
2.32208
0.15439
0.167056
0.181351
0.197572
0.216091
0.237375
0.262016
0.290776
0.324649
0.364955
0.413472
0.472644
0.545897
0.638133
0.756533
0.911848
1.12054
1.40834
1.81621
2.41078
0.176813
0.191298
0.207631
0.226142
0.247239
0.27143
0.299353
0.331816
0.369861
0.414842
0.468552
0.533395
0.612659
0.710927
0.83473
0.993612
1.20194
1.48217
1.87114
2.43402
0.187437
0.202774
0.22006
0.239639
0.261934
0.287467
0.316889
0.351022
0.390912
0.437908
0.49377
0.560834
0.642247
0.742345
0.867256
1.02592
1.23195
1.50713
1.88858
2.44414
0.187477
0.202804
0.220083
0.239656
0.261947
0.287476
0.316896
0.351027
0.390915
0.43791
0.493772
0.560835
0.642248
0.742346
0.867257
1.02592
1.23195
1.50713
1.88858
2.44414
0.176926
0.191383
0.207694
0.226188
0.247273
0.271455
0.29937
0.331829
0.36987
0.414849
0.468556
0.533398
0.612661
0.710929
0.834731
0.993613
1.20194
1.48217
1.87114
2.43402
0.154558
0.167182
0.181442
0.197637
0.216138
0.237409
0.262041
0.290794
0.324662
0.364964
0.413479
0.472649
0.5459
0.638136
0.756535
0.91185
1.12054
1.40834
1.81621
2.41078
0.116127
0.125624
0.136352
0.148568
0.162559
0.178697
0.197462
0.219481
0.245592
0.276926
0.315054
0.362197
0.421586
0.498055
0.599067
0.736545
0.930216
1.21376
1.64556
2.32208
0.0471973
0.050966
0.0552472
0.0601399
0.0657717
0.0723082
0.0799677
0.0890429
0.0999348
0.113206
0.129667
0.150529
0.177659
0.214083
0.264948
0.339596
0.456311
0.654365
1.02837
1.84122
0.0356707
0.0380937
0.0407822
0.0437796
0.0869104
0.0930672
0.0998869
0.107474
0.115738
0.123932
0.13301
0.143108
0.132578
0.141957
0.152347
0.163904
0.140595
0.150525
0.161528
0.173767
0.140697
0.150611
0.161596
0.173819
0.132865
0.142203
0.152545
0.164056
0.116147
0.124307
0.133308
0.143333
0.0878202
0.0936408
0.100265
0.107741
0.0421122
0.0417427
0.0424179
0.0441378
0.000965134
0.000855571
0.000873945
0.00113066
0.00211503
0.00310343
0.00403537
0.00491413
0.0057235
0.00649901
0.00725506
0.00799955
0.00873773
0.00947351
0.0102101
0.0109502
0.0116967
0.0124523
0.0132199
0.0140028
0.0148045
0.0156291
0.0164811
0.0173657
0.0182884
0.0192556
0.0202745
0.0213531
0.0225003
0.0237261
0.0250417
0.0264599
0.0279948
0.029663
0.0314832
0.0334773
0.00170354
0.00211703
0.00358683
0.0054081
0.00683744
0.00806522
0.0093738
0.0109249
0.0125815
0.0142116
0.0158403
0.0174778
0.019131
0.0208063
0.0225098
0.0242478
0.026026
0.0278505
0.0297273
0.0316625
0.0336633
0.0357373
0.037894
0.0401439
0.0424991
0.0449737
0.0475839
0.0503484
0.0532885
0.0564286
0.0597965
0.0634241
0.0673469
0.071606
0.0762485
0.0813289
0.00260224
0.00500263
0.00676286
0.00851533
0.0100403
0.0117321
0.0138369
0.0162285
0.0186228
0.0209362
0.0231843
0.0253796
0.0275412
0.029689
0.0318423
0.0340194
0.0362369
0.0385097
0.0408517
0.0432757
0.0457941
0.0484198
0.0511661
0.0540479
0.0570816
0.0602861
0.0636828
0.0672961
0.0711539
0.0752878
0.0797339
0.0845331
0.0897325
0.0953858
0.101555
0.108311
0.00387536
0.00756114
0.00941301
0.0111191
0.0129601
0.0153
0.0181224
0.0210992
0.0239666
0.0266742
0.0292323
0.0316674
0.0340161
0.0363157
0.0386011
0.0409034
0.0432496
0.0456629
0.048163
0.0507672
0.0534915
0.0563513
0.0593624
0.0625417
0.065908
0.0694827
0.07329
0.0773571
0.0817154
0.0864002
0.0914518
0.0969163
0.102846
0.109302
0.116353
0.12408
0.00527517
0.00996464
0.0117811
0.0135999
0.0158833
0.0188161
0.0221369
0.0254546
0.0285622
0.0314268
0.034066
0.0365233
0.0388515
0.0411032
0.0433263
0.0455622
0.0478457
0.0502055
0.0526651
0.0552445
0.0579613
0.0608323
0.0638746
0.0671066
0.0705487
0.074224
0.0781584
0.0823813
0.0869258
0.0918292
0.0971335
0.102886
0.109143
0.115964
0.123421
0.131599
0.00642876
0.0120734
0.0140135
0.0160792
0.0188139
0.0221891
0.0257903
0.029248
0.0324057
0.0352439
0.0377941
0.0401146
0.0422718
0.0443303
0.0463475
0.0483723
0.0504445
0.0525956
0.0548505
0.0572297
0.0597505
0.0624299
0.0652853
0.068336
0.0716041
0.0751146
0.0788959
0.0829798
0.0874016
0.0922006
0.0974198
0.103107
0.109316
0.116106
0.123546
0.131713
0.00733373
0.0139633
0.0161563
0.0185476
0.0216655
0.0253154
0.0290163
0.0324535
0.0355097
0.03818
0.0405104
0.0425721
0.0444426
0.0461961
0.0478975
0.0496004
0.0513467
0.0531674
0.055085
0.057116
0.0592737
0.0615712
0.0640235
0.0666487
0.0694695
0.0725135
0.075813
0.0794051
0.0833309
0.0876359
0.0923683
0.0975792
0.103323
0.109659
0.116653
0.124381
0.00812118
0.0156441
0.0182027
0.020944
0.0243479
0.0281187
0.0317789
0.0350678
0.0379029
0.0402953
0.0423053
0.0440165
0.0455178
0.046893
0.0482142
0.0495388
0.0509083
0.0523489
0.0538746
0.0554903
0.0571964
0.0589927
0.0608819
0.0628725
0.0649803
0.06723
0.0696551
0.0722981
0.0752103
0.0784565
0.0821053
0.0862258
0.0908841
0.0961465
0.102077
0.10874
0.00880076
0.0171457
0.0201333
0.0232047
0.0267903
0.0305587
0.0340662
0.0371067
0.0396266
0.0416576
0.0432757
0.04458
0.045675
0.0466584
0.0476138
0.0486045
0.0496716
0.0508332
0.0520884
0.0534209
0.0548058
0.0562144
0.0576196
0.0589992
0.0603391
0.0616345
0.0628924
0.0641323
0.0653894
0.0667164
0.0682217
0.0700502
0.0723213
0.0751632
0.0786532
0.082827
0.00937974
0.0184998
0.0219292
0.0252805
0.0289505
0.032616
0.0358854
0.0385973
0.0407311
0.0423431
0.0435308
0.0444159
0.0451264
0.0457827
0.0464855
0.0473074
0.0482881
0.0494341
0.0507239
0.0521149
0.0535523
0.0549765
0.0563281
0.0575496
0.0585855
0.0593794
0.0598701
0.0599884
0.0596545
0.0587788
0.0572722
0.0550397
0.0519698
0.0487356
0.045828
0.0435385
0.0327362
0.0237252
0.0155114
0.00832477
0.0100109
0.00590335
0.00334886
0.00138946
0.00501736
0.00363202
0.00248838
0.00103665
0.00424463
0.00339887
0.00242891
0.000966482
0.00421523
0.00346773
0.00249276
0.000969811
0.00435134
0.00360676
0.00260992
0.00100595
0.00454243
0.0037835
0.0027493
0.00106619
0.00476288
0.00398575
0.00291123
0.00113563
0.005003
0.00420686
0.00309129
0.00121313
0.00525799
0.00444295
0.00328584
0.00129908
0.00552511
0.0046917
0.00349256
0.0013954
0.00580257
0.00495172
0.00371237
0.0015038
0.00609119
0.00522594
0.0039454
0.0016191
0.00639072
0.00551152
0.00418896
0.00174072
0.00669835
0.00580668
0.00444183
0.00186776
0.00701169
0.00610983
0.00470293
0.00199967
0.00732808
0.006419
0.00497088
0.00213582
0.00764424
0.00673157
0.00524374
0.00227524
0.00795609
0.00704404
0.00551871
0.00241651
0.00825865
0.00735185
0.00579193
0.00255745
0.00854603
0.0076494
0.00605837
0.00269463
0.00881138
0.00793027
0.00631224
0.00282216
0.00904646
0.00818708
0.00654717
0.00293159
0.00924174
0.00841037
0.00675268
0.00302326
0.00938309
0.00858814
0.00692394
0.00310854
0.00946765
0.00872044
0.00706249
0.0031906
0.00948761
0.0087964
0.00715605
0.00324897
0.0094348
0.00880351
0.00719189
0.00329094
0.00930862
0.00873505
0.00717626
0.00331131
0.00911008
0.00859829
0.00710583
0.0032998
0.00885314
0.00840198
0.00698626
0.00326075
0.00855057
0.0081549
0.00682283
0.00319896
0.00821077
0.00786666
0.00661943
0.00311657
0.0078522
0.00754826
0.00638129
0.00301535
0.00748906
0.00721447
0.00612084
0.00289921
0.0071269
0.00687582
0.00584745
0.00277174
0.00678075
0.00654458
0.00557042
0.00263673
0.0064596
0.00622907
0.00529731
0.00249774
0.00616731
0.00593402
0.00503334
0.00235773
0.00590348
0.00566075
0.00478124
0.00221879
0.00566481
0.00540794
0.0045417
0.00208262
0.00544589
0.00517224
0.00431387
0.00195031
0.0052389
0.00494771
0.0040938
0.00182531
0.00503586
0.00472794
0.00387723
0.00171216
0.00483303
0.00451013
0.00366263
0.0016074
0.00462675
0.0042914
0.0034492
0.00150873
0.00441333
0.0040687
0.00323544
0.0014145
0.00418913
0.00383892
0.00301989
0.00132349
0.00395046
0.00359898
0.00280107
0.0012347
0.00369365
0.00334582
0.00257756
0.0011473
0.00341521
0.00307664
0.00234828
0.00106056
0.00311239
0.00278953
0.00211297
0.000973788
0.00278428
0.00248453
0.0018728
0.000886319
0.00243363
0.00216518
0.00163111
0.000797496
0.00206901
0.00184013
0.00139375
0.00070655
0.0017064
0.00152347
0.00116826
0.000612372
0.00136829
0.00123352
0.000963283
0.000513247
0.0010792
0.00099093
0.000789237
0.000405469
0.000842577
0.000791117
0.000630133
0.000285697
0.00047839
0.000437596
0.000343819
0.000138698
0.00990376
0.0197761
0.0236467
0.0272156
0.0308841
0.0343547
0.0373034
0.0396118
0.0412931
0.0424367
0.0431732
0.0436563
0.0440468
0.0444925
0.0451098
0.0459712
0.0470993
0.0484712
0.0500294
0.0516966
0.0533907
0.0550349
0.0565647
0.0579287
0.0590872
0.0600081
0.060663
0.0610223
0.0610373
0.060613
0.0596922
0.0581723
0.0558883
0.0526059
0.047898
0.0414314
0.0103557
0.0208888
0.0251581
0.02887
0.0324573
0.0356688
0.0382453
0.040111
0.041317
0.0419914
0.0423067
0.0424568
0.0426341
0.0430019
0.0436677
0.0446684
0.0459706
0.0474861
0.0490952
0.0506718
0.0521019
0.0532939
0.0541794
0.0547083
0.0548434
0.0545477
0.0537732
0.0524717
0.0505386
0.0477726
0.0442652
0.040002
0.0349748
0.0292772
0.0231479
0.0160798
0.0107465
0.021828
0.0264462
0.0302276
0.0336649
0.0365715
0.0387427
0.0401482
0.0408819
0.041117
0.0410695
0.0409704
0.041027
0.0413845
0.0420961
0.043117
0.0443223
0.0455425
0.0466021
0.0473494
0.0476723
0.0475006
0.0467988
0.0455463
0.0437324
0.0413486
0.0383155
0.0348408
0.0311307
0.0274627
0.023709
0.0198986
0.0161375
0.012449
0.00933749
0.00682711
0.0110657
0.0225801
0.0275045
0.0312801
0.0345242
0.0370945
0.0388443
0.0397913
0.0400772
0.039923
0.0395845
0.0393107
0.0392915
0.0396095
0.0402217
0.0409774
0.0416654
0.0420694
0.0420129
0.0413826
0.0401345
0.0382727
0.0358377
0.0328885
0.0294802
0.0259627
0.0227691
0.0198277
0.0171004
0.0146308
0.0123918
0.0103785
0.00868851
0.00727057
0.00608634
0.0050959
0.0113206
0.0231629
0.0283231
0.0320405
0.0350614
0.0372783
0.0386071
0.0391161
0.0389978
0.0385191
0.0379625
0.0375661
0.0374618
0.0376341
0.0379286
0.0381073
0.0379232
0.0371831
0.0357862
0.0337252
0.0310715
0.0279511
0.0245302
0.0210421
0.0181158
0.0157172
0.0137391
0.0120912
0.0107045
0.0095299
0.00852023
0.007643
0.0068737
0.00617826
0.00551857
0.00487324
0.0115155
0.0235816
0.0289005
0.032534
0.0353095
0.0371702
0.0380946
0.0382036
0.0377411
0.0370114
0.0363021
0.0358082
0.0355702
0.0354607
0.0352355
0.0346231
0.0334129
0.0315121
0.0289533
0.0258754
0.0224976
0.0191033
0.0160392
0.0138265
0.0121913
0.0109686
0.0100256
0.00926733
0.00862931
0.00806399
0.00754226
0.00704154
0.00654711
0.00604767
0.00553001
0.00497336
0.0116543
0.0238505
0.0292643
0.0327882
0.0353077
0.036823
0.0373741
0.0371362
0.0364009
0.0354958
0.0346877
0.034099
0.0336629
0.0331541
0.0322854
0.0308205
0.0286571
0.0258542
0.0226048
0.0192143
0.0160459
0.0134381
0.0117189
0.0105922
0.00982201
0.00926362
0.00882365
0.0084453
0.00809259
0.00774241
0.00738447
0.00700963
0.00660893
0.00617377
0.00569596
0.0051611
0.0117417
0.0239848
0.0294399
0.0328347
0.0350984
0.0362909
0.0365126
0.035992
0.0350612
0.0340527
0.0331869
0.0324934
0.0318016
0.0308231
0.0292859
0.0270528
0.0241795
0.0208925
0.0175509
0.0145643
0.0122563
0.0107961
0.0099312
0.00939695
0.00903503
0.00875952
0.00851957
0.0082884
0.00804715
0.00778373
0.00748989
0.00716114
0.00679334
0.00638129
0.00591727
0.00538709
0.0117821
0.0240009
0.0294531
0.032707
0.034725
0.0356271
0.0355725
0.0348403
0.0337915
0.0327439
0.0318501
0.0310389
0.0300543
0.0285897
0.0264449
0.023629
0.0203698
0.0170519
0.0141225
0.0119179
0.0105165
0.00974399
0.00930831
0.00904114
0.00885715
0.00870424
0.00855269
0.00838445
0.00818844
0.00795818
0.00768973
0.0073804
0.00702711
0.00662511
0.00616623
0.00563533
0.0117806
0.0239149
0.0293296
0.0324382
0.0342288
0.0348803
0.0346087
0.0337377
0.0326443
0.0316124
0.0307119
0.0297735
0.0284835
0.0265629
0.0239278
0.0207566
0.0174315
0.0144294
0.0121353
0.0106578
0.00984248
0.00941217
0.00918159
0.009045
0.0089442
0.00884609
0.00873095
0.00858711
0.0084081
0.00819044
0.00793212
0.00763131
0.00728512
0.00688832
0.00643175
0.00589881
0.011742
0.0237428
0.0290941
0.0320596
0.0336472
0.0340931
0.0336659
0.0327269
0.0316548
0.0306835
0.0297919
0.0287233
0.0271373
0.0248213
0.0218383
0.0185285
0.0153796
0.0128524
0.0111526
0.0101749
0.00967197
0.00942219
0.00929704
0.00922314
0.00916037
0.00908476
0.00898202
0.00884442
0.00866832
0.00845237
0.00819601
0.00789813
0.0075557
0.00716262
0.00670816
0.00617371
0.0116712
0.0234997
0.0287696
0.0315995
0.033013
0.0333001
0.032778
0.0318365
0.0308424
0.0299666
0.0290953
0.0278986
0.0260408
0.0234056
0.0202129
0.0169344
0.0140908
0.0120324
0.0107741
0.0100955
0.00976548
0.00961317
0.00954191
0.00949845
0.00945129
0.00938113
0.00927724
0.00913464
0.00895211
0.0087304
0.00847056
0.00817226
0.00783221
0.00744301
0.00699192
0.00645758
0.011573
0.0231993
0.0283767
0.0310827
0.0323531
0.0325283
0.0319683
0.0310822
0.0302123
0.0294572
0.0286109
0.027289
0.0251897
0.0223153
0.0190323
0.0158943
0.0133848
0.0117069
0.0107394
0.0102424
0.0100111
0.0099117
0.0098687
0.00983841
0.00979341
0.00971762
0.00960287
0.00944665
0.00925023
0.00901677
0.00874922
0.0084482
0.00811012
0.00772588
0.00728026
0.00674843
0.0114517
0.0228542
0.0279333
0.0305299
0.031689
0.031797
0.0312508
0.0304691
0.0297586
0.0291377
0.028311
0.0268451
0.024538
0.0215139
0.0182423
0.0152989
0.0130931
0.0116957
0.0109129
0.0105266
0.0103547
0.0102854
0.0102561
0.0102275
0.0101751
0.010085
0.00995124
0.00977388
0.00955695
0.00930637
0.0090274
0.00872187
0.0083858
0.00800804
0.00757196
0.0070482
0.0113116
0.0224752
0.0274549
0.0299582
0.0310367
0.031119
0.0306316
0.029994
0.0294662
0.0289771
0.0281224
0.0265169
0.0240352
0.0209486
0.0177689
0.0150413
0.0130879
0.0118869
0.0112277
0.0109089
0.0107721
0.0107192
0.0106932
0.0106576
0.0105898
0.0104777
0.0103175
0.0101119
0.00986819
0.00959537
0.00930143
0.00898973
0.00865595
0.00828952
0.00786671
0.00735348
0.0111563
0.0220718
0.0269541
0.0293806
0.0304079
0.0305014
0.0301111
0.0296471
0.0293116
0.0289195
0.028026
0.0262966
0.0236836
0.020572
0.0175357
0.0150313
0.0132833
0.0122193
0.0116435
0.0113687
0.0112521
0.0112051
0.011174
0.0111239
0.0110334
0.0108919
0.010698
0.0104573
0.0101805
0.00988033
0.00956791
0.00924915
0.00892083
0.00856694
0.00816016
0.00766104
0.0109891
0.0216517
0.0264411
0.0288073
0.0298102
0.0299472
0.0296847
0.0294138
0.0292673
0.0289362
0.0280099
0.0261771
0.0234714
0.02037
0.0174911
0.0151996
0.0136224
0.0126601
0.0121408
0.0118946
0.0117878
0.0117386
0.0116951
0.0116233
0.0115027
0.0113244
0.0110894
0.0108066
0.0104903
0.0101578
0.00982532
0.00949951
0.00917552
0.00883555
0.0084481
0.0079674
0.010813
0.0212214
0.0259239
0.0282457
0.0292483
0.0294561
0.0293445
0.0292753
0.0292939
0.0290165
0.0280653
0.0261506
0.0233854
0.0203253
0.0175921
0.0154963
0.0140648
0.0131876
0.012709
0.01248
0.0123752
0.0123168
0.0122538
0.012153
0.0119947
0.0117718
0.0114879
0.0111559
0.0107938
0.0104271
0.0100716
0.00973559
0.00941504
0.0090905
0.00872596
0.0082686
0.0106306
0.0207862
0.0254087
0.0277008
0.0287241
0.0290253
0.0290803
0.0292125
0.0293664
0.0291499
0.028184
0.0262084
0.0234125
0.0204143
0.0178201
0.0158966
0.0145883
0.0137834
0.0133388
0.0131204
0.0130115
0.0129372
0.0128477
0.0127101
0.0125059
0.01223
0.0118892
0.0115008
0.0110912
0.0106846
0.0103012
0.00995206
0.00963414
0.00932655
0.00898869
0.00855996
0.010444
0.0203503
0.0249
0.0271759
0.028238
0.0286502
0.0288812
0.0292091
0.0294789
0.0293282
0.0283581
0.0263417
0.0235409
0.0206192
0.0181584
0.0163814
0.0151814
0.0144398
0.014025
0.0138127
0.0136938
0.0135972
0.0134735
0.0132908
0.0130317
0.0126938
0.0122892
0.0118409
0.0113763
0.010924
0.0105083
0.0101433
0.00982723
0.00953807
0.00923066
0.00883611
0.010255
0.0199169
0.0244012
0.0266728
0.027789
0.0283251
0.0287362
0.0292499
0.0296247
0.0295441
0.0285802
0.0265428
0.0237603
0.0209263
0.0185934
0.0169367
0.0158373
0.0151537
0.0147651
0.0145537
0.0144194
0.0142934
0.0141273
0.0138902
0.0135665
0.01316
0.0126857
0.0121691
0.0116422
0.0111384
0.0106863
0.0103031
0.00998831
0.00971903
0.00944576
0.00909093
0.0100652
0.0194885
0.0239146
0.0261924
0.0273748
0.0280433
0.0286324
0.0293111
0.0297969
0.0297907
0.0288438
0.0268047
0.024062
0.0213242
0.0191127
0.0175609
0.0165504
0.0159207
0.0155551
0.01534
0.0151844
0.0150213
0.0148038
0.0145021
0.0141073
0.013624
0.0130706
0.0124772
0.0118809
0.0113202
0.0108282
0.0104248
0.0101111
0.00986314
0.00962744
0.00931763
0.00987584
0.019067
0.0234417
0.0257348
0.026993
0.0277988
0.0285602
0.0293878
0.0299898
0.0300625
0.0291434
0.0271215
0.0244381
0.0218036
0.0197063
0.0182522
0.0173197
0.0167374
0.01639
0.0161673
0.0159839
0.0157753
0.0154966
0.0151234
0.0146474
0.0140769
0.0134347
0.012756
0.0120833
0.0114609
0.0109259
0.0105012
0.0101887
0.00996364
0.00976842
0.00950827
0.00968797
0.0186538
0.0229834
0.0252994
0.0266408
0.0275856
0.0285121
0.0294771
0.0301983
0.0303545
0.0294744
0.0274884
0.0248822
0.022357
0.0203667
0.0190062
0.0181442
0.0176015
0.017267
0.0170309
0.0168119
0.0165493
0.0162015
0.0157458
0.0151775
0.0145089
0.0137679
0.012995
0.0122394
0.0115508
0.0109708
0.0105243
0.0102136
0.0100124
0.00985969
0.00965351
0.00950239
0.01825
0.0225401
0.0248854
0.0263151
0.0273985
0.0284821
0.0295757
0.0304183
0.0306625
0.0298327
0.0279006
0.0253885
0.0229788
0.0210932
0.0198187
0.0190204
0.0185103
0.0181821
0.0179251
0.0176632
0.0173377
0.0169097
0.0163598
0.0156872
0.0149089
0.0140584
0.0131828
0.012338
0.0115797
0.0109535
0.0104854
0.0101768
0.00999911
0.00988753
0.00973863
0.00931976
0.0178562
0.0221119
0.0244917
0.026013
0.0272327
0.0284654
0.0296814
0.0306464
0.0309828
0.0302149
0.0283539
0.0259498
0.0236619
0.021884
0.0206895
0.0199457
0.01946
0.0191301
0.0188453
0.0185309
0.0181316
0.0176112
0.0169544
0.0161647
0.0152644
0.0142936
0.0133069
0.0123674
0.0115372
0.0108648
0.010376
0.0100696
0.00991118
0.00984106
0.0097571
0.00914055
0.0174729
0.0216988
0.024117
0.0257319
0.0270844
0.0284584
0.0297917
0.0308798
0.0313123
0.030618
0.0288444
0.0265604
0.0244018
0.0227327
0.0216134
0.0209157
0.0204463
0.0201073
0.0197842
0.0194062
0.0189208
0.018295
0.0175175
0.0165969
0.0155619
0.01446
0.0133543
0.0123161
0.0114135
0.0106968
0.0101898
0.0098866
0.00974484
0.00971875
0.00970224
0.00896502
0.0171003
0.0213004
0.0237602
0.0254692
0.0269503
0.028458
0.029905
0.0311159
0.0316486
0.0310395
0.0293689
0.0272166
0.0251935
0.0236339
0.0225849
0.0219259
0.0214657
0.0211062
0.0207332
0.020279
0.0196941
0.0189486
0.0180358
0.0169699
0.015787
0.0145435
0.0133123
0.0121735
0.0112006
0.0104445
0.00992477
0.00962464
0.00950415
0.00952495
0.00957543
0.00879356
0.0167381
0.0209164
0.02342
0.0252228
0.0268276
0.0284621
0.0300197
0.0313529
0.0319894
0.0314767
0.0299242
0.0279151
0.0260329
0.0245824
0.0236011
0.0229721
0.022511
0.0221187
0.0216825
0.0211384
0.0204394
0.0195589
0.0184951
0.0172689
0.0159251
0.0145305
0.0131692
0.011931
0.0108939
0.010107
0.00958306
0.0092913
0.00919867
0.00926824
0.00938244
0.00862654
0.0163865
0.0205461
0.0230954
0.0249908
0.0267145
0.0284702
0.030135
0.031588
0.0323302
0.0319248
0.0305065
0.0286529
0.0269179
0.0255782
0.0246579
0.024047
0.0235751
0.0231352
0.0226214
0.0219724
0.0211436
0.0201118
0.0188808
0.0174792
0.0159618
0.0144082
0.0129155
0.0115836
0.0104937
0.00968917
0.00917312
0.008899
0.00884062
0.00895928
0.00913113
0.00846397
0.0160456
0.020189
0.0227856
0.024773
0.0266108
0.0284797
0.0302489
0.0318195
0.0326701
0.032383
0.031113
0.0294264
0.027844
0.026613
0.0257463
0.0251434
0.0246505
0.024145
0.0235378
0.022768
0.021793
0.0205931
0.0191782
0.017586
0.0158836
0.0141658
0.0125451
0.0111316
0.0100061
0.0092023
0.00870897
0.00846292
0.00844415
0.00861034
0.00883138
0.00830591
0.0157153
0.0198455
0.0224909
0.0245673
0.0265137
0.0284895
0.0303608
0.0320467
0.0330094
0.0328508
0.0317418
0.0302315
0.0288047
0.0276782
0.0268561
0.0262487
0.0257166
0.025134
0.0244186
0.0235119
0.0223737
0.0209882
0.0193727
0.0175755
0.0156789
0.0137959
0.012057
0.0105816
0.00944453
0.00866409
0.00820733
0.00799989
0.00802455
0.00823399
0.00849031
0.00815241
0.0153969
0.019515
0.0222089
0.0243719
0.0264213
0.0284977
0.0304706
0.0322697
0.0333483
0.0333281
0.032391
0.031064
0.0297931
0.0287651
0.0279772
0.0273516
0.0267642
0.0260898
0.0252505
0.0241905
0.0228717
0.0212832
0.0194507
0.0174357
0.0153388
0.0132955
0.0114568
0.00994779
0.00883028
0.0080973
0.00768914
0.0075284
0.00759742
0.00784286
0.00811381
0.00800513
0.0150889
0.0191965
0.0219389
0.0241859
0.026333
0.0285045
0.0305778
0.0324887
0.0336871
0.0338144
0.0330584
0.0319193
0.0308021
0.0298644
0.0290989
0.0284406
0.0277818
0.0269998
0.0260206
0.0247903
0.0232735
0.0214648
0.0194
0.0171568
0.0148585
0.012668
0.0107575
0.00925297
0.00819482
0.00752775
0.00717633
0.0070658
0.00717704
0.00745118
0.00773607
0.00786362
0.0147909
0.0188896
0.0216802
0.0240084
0.0262481
0.0285102
0.0306824
0.0327041
0.0340265
0.0343094
0.033742
0.0327929
0.0318242
0.0309662
0.0302098
0.0295034
0.0287567
0.0278511
0.0267157
0.0252984
0.0235666
0.0215212
0.0192108
0.0167329
0.0142389
0.011924
0.0099811
0.00852877
0.00755063
0.00697369
0.00668493
0.0066253
0.00677413
0.0070667
0.00736067
0.00772745
0.0145028
0.0185938
0.0214321
0.0238386
0.0261664
0.0285151
0.0307846
0.0329164
0.034367
0.0348128
0.0344393
0.0336794
0.0328514
0.0320604
0.0312978
0.0305271
0.0296758
0.0286308
0.0273232
0.0257026
0.0237393
0.0214425
0.0188763
0.0161628
0.0134876
0.0110831
0.00915631
0.00779379
0.00693668
0.00645698
0.0062279
0.00621606
0.00639639
0.00669111
0.00699552
0.00759626
0.0142243
0.0183089
0.0211943
0.0236761
0.0260876
0.0285196
0.0308848
0.0331264
0.0347091
0.035324
0.0351478
0.0345736
0.0338755
0.0331362
0.0323509
0.0314988
0.0305258
0.0293261
0.0278311
0.0259918
0.0237819
0.0212213
0.0183938
0.0154514
0.0126216
0.0101751
0.00832449
0.00710122
0.00637659
0.00598212
0.00580925
0.00584268
0.00605277
0.00635812
0.00665795
0.00746976
0.0139553
0.0180345
0.020966
0.0235203
0.0260117
0.0285241
0.0309833
0.0333349
0.0350535
0.0358424
0.0358645
0.0354697
0.0348881
0.0341831
0.0333574
0.0324067
0.0312943
0.0299252
0.0282284
0.026156
0.0236865
0.0208538
0.0177666
0.0146123
0.0116678
0.00923988
0.0075272
0.00647394
0.00587937
0.00555302
0.0054319
0.00550876
0.005747
0.00606114
0.00634793
0.00734766
0.0136954
0.0177703
0.0207471
0.023371
0.0259387
0.028529
0.0310808
0.0335426
0.0354007
0.0363674
0.0365866
0.036362
0.0358808
0.0351914
0.0343072
0.0332413
0.0319709
0.0304171
0.0285054
0.0261868
0.0234477
0.0203407
0.0170049
0.0136687
0.0106646
0.00832766
0.00680395
0.00593049
0.00544506
0.005172
0.00509809
0.0052171
0.00548058
0.00579961
0.00607053
0.00722976
0.0134446
0.0175159
0.0205369
0.0232277
0.0258688
0.0285347
0.031178
0.0337506
0.0357512
0.036898
0.0373108
0.0372446
0.0368453
0.0361516
0.0351911
0.0339949
0.0325495
0.030794
0.0286534
0.0260771
0.0230625
0.0196884
0.0161284
0.0126555
0.00965985
0.00748425
0.00618494
0.00547837
0.00506806
0.00483785
0.00480855
0.00496755
0.00525037
0.00556984
0.00582528
0.00711584
0.0132025
0.0172712
0.0203353
0.0230905
0.025802
0.0285417
0.0312756
0.0339598
0.0361055
0.0374332
0.0380337
0.0381109
0.0377729
0.0370537
0.0359992
0.0346584
0.0330256
0.0310491
0.0286628
0.0258201
0.0225309
0.0189101
0.0151675
0.0116194
0.00870999
0.00675433
0.00568994
0.00511566
0.00474832
0.00454949
0.00456142
0.00475603
0.00505216
0.00536959
0.00560781
0.00700574
0.0129689
0.0170358
0.020142
0.0229591
0.0257385
0.0285505
0.0313742
0.034171
0.036464
0.0379717
0.038751
0.0389537
0.0386534
0.0378861
0.0367189
0.0352185
0.0333861
0.0311778
0.0285314
0.0254081
0.0218541
0.018027
0.0141647
0.010616
0.00787211
0.00617168
0.0053236
0.00483311
0.00447964
0.00430197
0.00434979
0.0045735
0.00488247
0.00519294
0.00541175
0.0068993
0.0127437
0.0168094
0.0199567
0.0228335
0.0256785
0.0285615
0.0314748
0.0343851
0.0368266
0.0385115
0.0394579
0.0397645
0.0394758
0.0386358
0.0373357
0.0356594
0.0336153
0.0311647
0.0282532
0.0248564
0.0210533
0.0170742
0.0131744
0.00970545
0.00718856
0.00574947
0.00507585
0.00461906
0.00425231
0.00408694
0.00416519
0.00441499
0.00473151
0.00503142
0.00522843
0.00679639
0.0125265
0.0165918
0.0197792
0.0227136
0.0256223
0.0285753
0.0315778
0.0346027
0.0371931
0.0390502
0.0401484
0.040534
0.0402283
0.0392901
0.0378372
0.0359699
0.0337026
0.0310026
0.0278278
0.0241773
0.0201707
0.0161159
0.0122599
0.00894256
0.00668073
0.00548227
0.00493121
0.00446552
0.00406328
0.0039017
0.00400563
0.00427425
0.00458971
0.00487278
0.00504764
0.00669688
0.0123173
0.0163829
0.0196093
0.0225994
0.02557
0.0285922
0.031684
0.0348243
0.0375629
0.0395847
0.0408163
0.0412529
0.0409003
0.0398388
0.0382143
0.0361423
0.0336434
0.0306926
0.0272662
0.0233982
0.0192569
0.0152131
0.0114802
0.00836853
0.00636537
0.00535417
0.00487447
0.00436942
0.00391661
0.00374882
0.00386428
0.0041353
0.00444402
0.00471068
0.00486498
0.00660068
0.0121158
0.0161823
0.0194468
0.0224908
0.0255219
0.0286128
0.031794
0.0350503
0.0379351
0.0401115
0.0414545
0.041912
0.0414829
0.0402751
0.0384623
0.0361736
0.0334375
0.0302402
0.026583
0.0225517
0.0183615
0.0144186
0.0108801
0.00800147
0.00623401
0.00534133
0.004891
0.00433225
0.00382054
0.0036253
0.00372911
0.00399229
0.00429034
0.00454074
0.00467632
0.00650768
0.0119219
0.01599
0.0192915
0.0223879
0.0254782
0.0286374
0.0319082
0.0352807
0.0383083
0.0406265
0.0420564
0.0425036
0.0419698
0.0405953
0.03858
0.0360644
0.033086
0.0296607
0.0258324
0.0217003
0.0175335
0.0137589
0.0104609
0.00782468
0.00624717
0.005418
0.00497325
0.00436829
0.00377823
0.00352277
0.00359478
0.00384076
0.00412491
0.00435909
0.00447779
0.00641781
0.0117353
0.0158057
0.0191435
0.0222907
0.025439
0.0286665
0.032027
0.0355153
0.0386808
0.0411254
0.0426153
0.0430211
0.0423571
0.0407986
0.0385696
0.0358182
0.0326208
0.029013
0.0250633
0.0208862
0.0168065
0.0132569
0.0102229
0.00780162
0.00634739
0.0055459
0.00511021
0.00447357
0.00378852
0.00344025
0.00345842
0.00367713
0.00394425
0.0041621
0.00426563
0.00633097
0.0115559
0.0156292
0.0190024
0.0221991
0.0254046
0.0287002
0.0321507
0.0357539
0.0390504
0.0416036
0.0431252
0.0434597
0.042643
0.0408875
0.0384361
0.0354614
0.0320796
0.028328
0.0243047
0.0201455
0.0162152
0.0129179
0.0101493
0.00791324
0.00650945
0.00571508
0.00529627
0.00465384
0.00386392
0.00338433
0.00332003
0.00349859
0.00374497
0.00394618
0.00403609
0.00624711
0.0113835
0.0154603
0.0188681
0.0221131
0.0253752
0.028739
0.0322793
0.0359958
0.0394148
0.0420566
0.0435807
0.0438162
0.0428286
0.040867
0.0381922
0.0350272
0.0314877
0.0276352
0.0235837
0.0195045
0.0157781
0.0127259
0.0102132
0.00814736
0.00673211
0.00592105
0.00552058
0.00491212
0.00402463
0.00337042
0.00318377
0.00330344
0.00352373
0.00370768
0.00378541
0.00616615
0.0112179
0.015299
0.0187406
0.0220329
0.0253508
0.028783
0.032413
0.0362401
0.0397713
0.0424798
0.0439777
0.0440894
0.0429167
0.040742
0.037868
0.0345357
0.0308692
0.0269586
0.0229286
0.0189829
0.0154887
0.012674
0.010392
0.00846624
0.00701317
0.00616242
0.00576428
0.0052376
0.00429423
0.00342737
0.00306134
0.00309237
0.00327738
0.00344301
0.00350994
0.00608802
0.011059
0.0151449
0.0186198
0.0219583
0.0253317
0.0288323
0.0325516
0.0364856
0.0401169
0.042869
0.0443129
0.0442799
0.042913
0.0405288
0.0374827
0.0340087
0.0302469
0.0263216
0.0223594
0.018586
0.0153348
0.0127451
0.0106615
0.00884542
0.00737225
0.00645125
0.0060067
0.00559771
0.00468765
0.0035992
0.00297776
0.00287136
0.00300325
0.00314915
0.00320667
0.00601267
0.0109066
0.014998
0.0185054
0.0218894
0.0253179
0.0288872
0.0326947
0.036731
0.0404486
0.0432204
0.0445845
0.0443898
0.0428226
0.04025
0.0370545
0.033468
0.0296435
0.025744
0.0218872
0.0183092
0.0153
0.0129225
0.0110024
0.00930323
0.00781113
0.00678882
0.00624451
0.00594075
0.00518543
0.00394211
0.0029833
0.00265827
0.00270121
0.00282515
0.00287436
0.00594003
0.0107607
0.014858
0.0183975
0.0218261
0.0253095
0.0289474
0.0328419
0.0369746
0.0407633
0.0435308
0.0447921
0.0444236
0.0426577
0.0399212
0.0366015
0.0329347
0.0290875
0.0252407
0.0215149
0.0181438
0.0153671
0.0131864
0.0114088
0.00983273
0.00836909
0.00719027
0.00650216
0.00621659
0.00570887
0.00449045
0.00316034
0.00249534
0.00239443
0.00247662
0.00251566
0.00587005
0.010621
0.0147249
0.0182958
0.0217685
0.0253066
0.0290131
0.0329926
0.0372147
0.0410582
0.0437979
0.0449364
0.0443866
0.0424336
0.0395563
0.0361392
0.032424
0.0285888
0.0248154
0.0212386
0.0180796
0.0155223
0.0135232
0.0118797
0.0104062
0.00899426
0.00772775
0.00684547
0.00642465
0.00613605
0.00518696
0.00361082
0.0024649
0.00210733
0.00211499
0.00213941
0.00580268
0.0104875
0.0145984
0.0182003
0.0217165
0.0253091
0.0290839
0.033146
0.0374492
0.0413302
0.04402
0.0450197
0.0442848
0.0421647
0.0391682
0.0356801
0.0319456
0.0281504
0.0244711
0.0210581
0.0181077
0.0157538
0.0139215
0.0124078
0.0110298
0.00969348
0.00838646
0.00729569
0.00665207
0.0063918
0.00583593
0.0043788
0.00270642
0.0018976
0.0017623
0.00176241
0.00573786
0.0103599
0.0144783
0.0181107
0.02167
0.0253171
0.0291597
0.0333011
0.0376763
0.0415771
0.0441964
0.0450453
0.044128
0.0418607
0.0387676
0.0352333
0.0315062
0.027776
0.0242116
0.0209689
0.0182187
0.0160513
0.0143706
0.0129799
0.0117038
0.0104454
0.00917102
0.00795816
0.00704082
0.00655882
0.00625768
0.00527646
0.00339299
0.0018987
0.00146404
0.00141011