/*--------------------------------*- C++ -*----------------------------------*\
| =========                 |                                                 |
| \\      /  F ield         | OpenFOAM: The Open Source CFD Toolbox           |
|  \\    /   O peration     | Version:  v2012                                 |
|   \\  /    A nd           | Website:  www.openfoam.com                      |
|    \\/     M anipulation  |                                                 |
\*---------------------------------------------------------------------------*/
FoamFile
{
    version     2.0;
    format      ascii;
    class       volScalarField;
    location    "621";
    object      nut;
}
// * * * * * * * * * * * * * * * * * * * * * * * * * * * * * * * * * * * * * //

dimensions      [0 2 -1 0 0 0 0];


internalField   nonuniform List<scalar> 
6108
(
0.000487566
0.000506765
0.000527692
0.000550612
0.000575851
0.000603813
0.000635006
0.000670083
0.000709893
0.000755565
0.000808641
0.000871267
0.000946535
0.00103904
0.00115591
0.00130866
0.00151696
0.00181658
0.0022773
0.00304718
0.00269285
0.00279454
0.00290351
0.00302075
0.00314743
0.00328493
0.0034349
0.00359941
0.00378103
0.00398308
0.00420993
0.00446749
0.00476397
0.00511115
0.00552655
0.00603738
0.0066882
0.00755708
0.00879489
0.0107424
0.00459292
0.0047546
0.00492693
0.00511116
0.00530875
0.00552135
0.00575093
0.00599985
0.00627096
0.00656783
0.00689496
0.00725811
0.00766481
0.00812495
0.0086515
0.00926127
0.00997488
0.0108142
0.0117914
0.0128731
0.00579623
0.00599184
0.00619966
0.00642094
0.00665703
0.00690944
0.00717985
0.00747011
0.00778234
0.00811886
0.00848231
0.00887556
0.00930173
0.00976396
0.0102651
0.0108068
0.0113877
0.0120009
0.0126283
0.0132374
0.0063726
0.00658308
0.00680641
0.0070437
0.00729617
0.00756508
0.00785176
0.00815755
0.00848377
0.00883161
0.00920197
0.00959529
0.0100111
0.0104479
0.0109019
0.011367
0.0118344
0.012293
0.0127353
0.0131718
0.00637462
0.00658451
0.00680743
0.00704443
0.00729668
0.00756544
0.00785201
0.00815772
0.00848388
0.00883168
0.00920202
0.00959532
0.0100112
0.0104479
0.0109019
0.011367
0.0118344
0.012293
0.0127353
0.0131718
0.00580201
0.00599591
0.00620255
0.00642297
0.00665842
0.00691037
0.00718046
0.00747053
0.00778261
0.00811905
0.00848243
0.00887564
0.00930178
0.009764
0.0102651
0.0108068
0.0113878
0.0120009
0.0126283
0.0132374
0.00460142
0.00476049
0.00493104
0.00511394
0.0053106
0.0055226
0.00575178
0.00600042
0.00627134
0.00656809
0.00689513
0.00725822
0.00766489
0.00812499
0.00865153
0.00926129
0.00997489
0.0108142
0.0117914
0.0128731
0.00270002
0.00279984
0.00290704
0.00302319
0.0031491
0.00328606
0.00343567
0.00359993
0.00378138
0.00398331
0.00421008
0.00446759
0.00476404
0.00511119
0.00552658
0.0060374
0.00668821
0.00755709
0.00879489
0.0107424
0.000487869
0.000506973
0.000527837
0.000550714
0.000575922
0.000603863
0.000635041
0.000670107
0.000709909
0.000755577
0.000808649
0.000871272
0.000946539
0.00103905
0.00115591
0.00130866
0.00151696
0.00181658
0.0022773
0.00304718
0.000424131
0.0004383
0.000453503
0.000469873
0.00234337
0.00242343
0.00250798
0.00259758
0.00403219
0.0041612
0.00429714
0.00444076
0.00511506
0.00527197
0.00543725
0.00561171
0.00563952
0.00580821
0.00598608
0.00617392
0.0056477
0.00581422
0.00599029
0.00617683
0.00514303
0.00529206
0.00545076
0.00562049
0.00409793
0.00420744
0.00432601
0.00445686
0.00254266
0.00254729
0.00258207
0.00263383
0.000809953
0.000700616
0.000613022
0.000541488
6.97652e-05
6.5686e-05
6.63875e-05
7.5511e-05
0.000103277
0.00010954
0.000101361
0.000153325
0.000169893
0.000181037
0.000191278
0.000200853
0.000209915
0.000218575
0.000226913
0.000234994
0.000242872
0.000250594
0.000258202
0.000265737
0.000273238
0.000280745
0.000288296
0.000295931
0.000303691
0.000311618
0.000319757
0.000328152
0.000336852
0.000345906
0.000355367
0.00036529
0.000375736
0.000386769
0.000398459
0.000410884
0.000115859
0.000217086
0.00029217
0.000308357
0.000316162
0.00034759
0.000389163
0.000444959
0.00050762
0.000571103
0.000635412
0.000700597
0.000766624
0.000833425
0.000900878
0.000968804
0.00103697
0.00110512
0.00117296
0.00124024
0.00130672
0.00137225
0.00143675
0.00150024
0.00156276
0.00162447
0.00168558
0.00174637
0.00180716
0.00186832
0.0019303
0.00199348
0.00205831
0.00212525
0.00219476
0.00226731
0.000143195
0.000429658
0.000455958
0.000468274
0.000501666
0.000567029
0.000665415
0.00078563
0.000913606
0.00104357
0.00117391
0.00130359
0.00143208
0.00155895
0.00168385
0.00180647
0.00192649
0.00204368
0.00215786
0.00226896
0.00237702
0.00248219
0.00258473
0.00268499
0.0027834
0.00288047
0.00297673
0.00307279
0.00316925
0.00326675
0.00336591
0.00346738
0.00357182
0.00367987
0.00379219
0.00390941
0.000174747
0.000554974
0.000598249
0.000632954
0.000703539
0.000822297
0.000981712
0.0011626
0.00134946
0.00153551
0.00171722
0.00189279
0.00206146
0.00222296
0.00237736
0.00252491
0.00266598
0.00280105
0.00293066
0.00305542
0.00317599
0.00329306
0.00340736
0.0035196
0.00363053
0.00374088
0.00385138
0.00396274
0.00407565
0.0041908
0.00430886
0.00443048
0.00455633
0.00468706
0.00482331
0.00496575
0.000203879
0.000672244
0.000718679
0.0008145
0.000932515
0.00110614
0.0013189
0.00154789
0.00177763
0.00199986
0.00221001
0.00240624
0.00258831
0.00275687
0.00291307
0.00305829
0.00319403
0.00332174
0.00344285
0.00355868
0.00367047
0.00377935
0.0038864
0.0039926
0.00409885
0.00420601
0.00431486
0.00442616
0.00454058
0.00465876
0.00478132
0.00490883
0.00504185
0.00518089
0.0053265
0.00547918
0.00022507
0.000698809
0.000837775
0.00100961
0.00118077
0.00140353
0.0016569
0.00191778
0.00217093
0.00240744
0.00262282
0.00281597
0.00298783
0.00314044
0.00327635
0.00339826
0.00350877
0.00361028
0.00370492
0.00379458
0.00388091
0.00396538
0.00404927
0.00413373
0.00421982
0.00430847
0.00440054
0.0044968
0.00459795
0.00470463
0.00481742
0.00493685
0.0050634
0.00519751
0.00533951
0.0054896
0.00024039
0.00075383
0.000967905
0.00121425
0.00143407
0.00169856
0.00197879
0.00225479
0.00251234
0.00274304
0.00294348
0.00311395
0.00325696
0.0033761
0.00347533
0.00355853
0.00362921
0.00369044
0.0037448
0.00379449
0.00384136
0.003887
0.00393282
0.00398009
0.00402993
0.00408342
0.0041415
0.00420505
0.00427488
0.00435172
0.00443627
0.00452918
0.00463118
0.00474311
0.00486599
0.00500115
0.000252967
0.000840253
0.00110717
0.00142157
0.00168204
0.00197657
0.00227217
0.00254816
0.00279369
0.00300211
0.00317184
0.00330505
0.00340603
0.00347996
0.00353212
0.00356733
0.00358974
0.00360277
0.00360911
0.00361089
0.00360981
0.00360728
0.00360453
0.00360271
0.00360291
0.00360618
0.00361357
0.00362606
0.00364458
0.00367006
0.00370325
0.00374474
0.00379495
0.00385442
0.00392405
0.00400261
0.000263339
0.000943604
0.00124874
0.00162459
0.00191653
0.00222889
0.00252826
0.0027928
0.00301352
0.00318769
0.00331621
0.00340355
0.00345605
0.00348064
0.00348395
0.00347171
0.00344848
0.00341764
0.00338142
0.00334119
0.00329767
0.00325119
0.00320194
0.00315007
0.00309587
0.00303978
0.00298248
0.00292482
0.00286784
0.00281263
0.00276095
0.00271446
0.00267315
0.0026356
0.00259881
0.00256396
0.000271863
0.00104979
0.0013883
0.00181778
0.0021322
0.00245127
0.00274309
0.00298745
0.00317502
0.00330767
0.00339007
0.00342951
0.00343484
0.00341507
0.00337831
0.0033311
0.00327802
0.0032217
0.00316312
0.00310196
0.00303717
0.00296726
0.00289068
0.0028059
0.00271148
0.00260611
0.00248854
0.00235763
0.00221242
0.00205235
0.00187768
0.00168935
0.00148883
0.00129127
0.00110788
0.000946054
0.000628876
0.000370581
0.000234637
0.000138577
0.000483721
0.000342797
0.000250638
0.000104635
0.000601196
0.000565516
0.000459949
9.03798e-05
0.00106595
0.000904995
0.000541994
8.72673e-05
0.00140415
0.00106127
0.000565039
8.74175e-05
0.00156582
0.00112397
0.000581292
8.90316e-05
0.00165882
0.00116964
0.000596096
9.16587e-05
0.00173227
0.00121702
0.00061736
9.45961e-05
0.00180124
0.00126838
0.000643574
9.77706e-05
0.00186897
0.00132226
0.000672465
0.000101175
0.00193517
0.00137666
0.000701813
0.000104859
0.00199868
0.00142974
0.000731112
0.000108856
0.00206033
0.00148433
0.000762003
0.000112951
0.00212094
0.00153925
0.000793704
0.000117117
0.00217921
0.00159371
0.000825889
0.000121315
0.00223423
0.00164709
0.000858305
0.000125526
0.00228516
0.00169875
0.000890688
0.000129729
0.00233115
0.00174798
0.000922716
0.000133896
0.0023713
0.00179397
0.000953983
0.000137991
0.00240458
0.00183577
0.000983958
0.000141958
0.0024299
0.00187225
0.00101196
0.000145715
0.002446
0.00190213
0.00103717
0.000149123
0.00245146
0.00192399
0.00105871
0.000151987
0.00244457
0.00193621
0.00107572
0.000154345
0.00226924
0.00193659
0.00108775
0.000156507
0.00208238
0.00192876
0.00109533
0.000158559
0.00194141
0.00183497
0.0010961
0.000160003
0.00183796
0.00175353
0.00109268
0.000161033
0.001761
0.00170318
0.00108509
0.000161531
0.001703
0.00167085
0.00107273
0.00016125
0.00166726
0.00165855
0.00105609
0.000160293
0.00165884
0.00167321
0.00103584
0.000158767
0.00168134
0.00168233
0.00101179
0.000156709
0.00174231
0.00163282
0.000983524
0.000154143
0.00183125
0.00158294
0.000952455
0.000151145
0.00179978
0.00153171
0.000919315
0.000147785
0.00175085
0.00148004
0.000884972
0.000144141
0.00170415
0.00142865
0.000850218
0.000140291
0.00165942
0.00137802
0.000815697
0.000136302
0.00161599
0.00132835
0.000781845
0.000132225
0.00157286
0.00127955
0.000748886
0.000128103
0.00152861
0.00123103
0.000716709
0.000123967
0.00148043
0.00118053
0.000683231
0.000119929
0.00142582
0.00112554
0.000646594
0.000116152
0.00136498
0.00106686
0.000608167
0.000112543
0.00129817
0.00100522
0.000569143
0.000109034
0.00122569
0.000941109
0.000529944
0.000105574
0.00114782
0.000874838
0.000490774
0.000102121
0.00106485
0.000806565
0.000451643
9.86359e-05
0.000977014
0.000736323
0.000412447
9.50811e-05
0.000884539
0.000664087
0.000373058
9.14162e-05
0.000787776
0.000589932
0.000333435
8.75966e-05
0.000687438
0.000514269
0.000293757
8.357e-05
0.000585018
0.000438188
0.000254557
7.92719e-05
0.000483297
0.000363793
0.000216812
7.46151e-05
0.000386735
0.000294307
0.000181882
6.94645e-05
0.000300825
0.000233697
0.000151454
6.35943e-05
0.000230861
0.000185538
0.000127484
5.05027e-05
0.000172515
0.000146975
0.000107894
4.7447e-05
5.21874e-05
4.57503e-05
4.42425e-05
3.03786e-05
0.000279354
0.00116655
0.00153335
0.0019895
0.00233455
0.00265034
0.00292445
0.00313911
0.00328825
0.00337487
0.00340952
0.00340325
0.00336795
0.00331496
0.00325364
0.00319059
0.00312934
0.00307069
0.00301347
0.0029554
0.00289392
0.00282668
0.00275183
0.00266813
0.0025749
0.00247191
0.00235932
0.00223753
0.00210685
0.0019669
0.00181864
0.00166263
0.00149874
0.00132643
0.00114197
0.000941342
0.000285657
0.00129024
0.0016807
0.00214953
0.00250968
0.0028142
0.00306358
0.00324359
0.00335175
0.00339518
0.0033873
0.00334441
0.00328154
0.00321155
0.0031436
0.00308242
0.00302853
0.00297944
0.00293111
0.00287927
0.00282032
0.00275172
0.00267204
0.00258074
0.00247784
0.00236374
0.00223898
0.00210437
0.00196001
0.00180384
0.00163818
0.00146366
0.00128056
0.00108968
0.000894485
0.000678093
0.000290996
0.00141071
0.00183418
0.00231451
0.00265666
0.00294407
0.00316441
0.00330785
0.0033761
0.00338079
0.00333934
0.00327125
0.00319407
0.00312034
0.00305654
0.00300319
0.00295634
0.0029098
0.00285719
0.00279333
0.00271488
0.00262031
0.00250955
0.00238376
0.0022442
0.00209326
0.00193225
0.00176598
0.00159933
0.00144021
0.00128461
0.0011323
0.000986068
0.000844824
0.000727405
0.000646281
0.000295286
0.00146972
0.00199921
0.0024477
0.00277688
0.00304328
0.0032326
0.00333999
0.00337172
0.00334392
0.00327804
0.00319567
0.00311422
0.00304352
0.00298518
0.0029344
0.00288295
0.00282225
0.00274543
0.00264841
0.00252995
0.00239137
0.00223621
0.00206979
0.00189887
0.0017342
0.0015883
0.00145788
0.00134064
0.00123766
0.00114935
0.0010766
0.00102906
0.00100903
0.00100249
0.00101919
0.000298668
0.00151894
0.00214875
0.00255281
0.00287255
0.00311578
0.00327405
0.00334773
0.00334781
0.00329469
0.00321288
0.0031246
0.00304452
0.00297742
0.00291917
0.00286026
0.00278999
0.00269972
0.00258449
0.00244379
0.00228176
0.0021067
0.00193108
0.00177205
0.00164843
0.00155719
0.00149216
0.00144965
0.00142651
0.001421
0.00143254
0.00145212
0.0014821
0.00152575
0.00159714
0.00154578
0.000301228
0.00155827
0.00222842
0.00263872
0.00294636
0.00316577
0.00329444
0.00333803
0.00331217
0.00324094
0.00315057
0.00306182
0.00298477
0.00291797
0.00285203
0.00277473
0.0026756
0.00254872
0.00239446
0.00222066
0.00204234
0.00188142
0.00176707
0.00171298
0.00170242
0.00172284
0.0017641
0.00181876
0.00187438
0.00192988
0.0019954
0.00207405
0.00212316
0.00211067
0.00206246
0.00187312
0.000303039
0.00158837
0.00229319
0.00270718
0.00300126
0.00319736
0.003299
0.00331694
0.00327116
0.00318859
0.00309558
0.00300947
0.00293448
0.00286337
0.00278311
0.0026815
0.00255145
0.00239381
0.0022202
0.00205273
0.00192356
0.00187055
0.0018963
0.00197135
0.00207252
0.00217756
0.00227664
0.00237626
0.00247753
0.00256481
0.00260554
0.00262875
0.00259703
0.00248767
0.00231097
0.00203711
0.000304172
0.00161004
0.00234441
0.00276017
0.0030402
0.00321447
0.00329237
0.00328955
0.00322986
0.00314203
0.00305088
0.00296887
0.00289406
0.00281463
0.00271665
0.00259108
0.00243806
0.00227157
0.00211993
0.00202366
0.00202487
0.00212343
0.00227187
0.00242861
0.00258605
0.00273042
0.00285794
0.00294951
0.00301866
0.00305134
0.00302281
0.00295689
0.00284612
0.00268015
0.00245101
0.00214035
0.000304696
0.00162412
0.00238351
0.00279972
0.00306604
0.00322062
0.00327853
0.00326001
0.00319218
0.0031044
0.00301847
0.00294111
0.00286477
0.00277502
0.00265996
0.0025173
0.00235996
0.0022198
0.00214328
0.00217585
0.00232625
0.00252815
0.00274345
0.00294978
0.00311224
0.00323903
0.00332962
0.00336293
0.00335578
0.00331349
0.00323542
0.00312626
0.00298166
0.00279247
0.00254566
0.00222219
0.000304676
0.00163147
0.00241189
0.00282784
0.00308141
0.00321887
0.00326081
0.00323162
0.003161
0.00307781
0.00299964
0.00292723
0.00284849
0.00274878
0.00262141
0.00247446
0.0023386
0.00226362
0.00230161
0.0024689
0.00271299
0.00298297
0.00321963
0.00340929
0.00352733
0.00359275
0.0036113
0.00358749
0.00353271
0.00345279
0.00334929
0.00322193
0.00306563
0.00287042
0.00262088
0.00229542
0.000304176
0.00163296
0.00243097
0.0028464
0.00308864
0.00321185
0.00324186
0.00320683
0.00313831
0.00306354
0.00299512
0.00292801
0.00284709
0.00273993
0.00260799
0.00247334
0.00238492
0.00240138
0.00255525
0.00281447
0.00311727
0.0033986
0.0036007
0.00372879
0.00379079
0.00380109
0.00377175
0.00371266
0.00363171
0.00353305
0.00341765
0.00328368
0.00312533
0.00293177
0.0026859
0.00236347
0.000303258
0.00162941
0.00244207
0.00285711
0.00308975
0.00320169
0.00322373
0.00318735
0.00312523
0.00306205
0.00300493
0.0029436
0.00286168
0.00275129
0.00262413
0.00251796
0.00249455
0.00260458
0.00284307
0.00316019
0.00347294
0.00371171
0.00386273
0.00393919
0.00395597
0.00392863
0.00387031
0.00379016
0.0036941
0.0035852
0.00346399
0.00332819
0.00317166
0.00298293
0.00274357
0.00242672
0.000301979
0.00162162
0.0024464
0.0028615
0.00308643
0.00319008
0.0032079
0.00317424
0.00312214
0.00307297
0.003028
0.00297253
0.00289153
0.00278361
0.00267059
0.00260459
0.00265036
0.00283614
0.00312658
0.00346223
0.00374549
0.00393793
0.00404512
0.00408274
0.00406766
0.00401576
0.00393885
0.00384479
0.00373852
0.00362274
0.00349798
0.00336202
0.00320866
0.00302597
0.00279443
0.00248463
0.000300393
0.00161031
0.00244509
0.00286087
0.00308008
0.00317832
0.00319537
0.00316794
0.00312872
0.00309484
0.00306119
0.0028767
0.00286596
0.0028342
0.00274375
0.00272353
0.00283082
0.00306689
0.00338872
0.00371215
0.00395458
0.00410723
0.00418016
0.00418923
0.00415198
0.00408293
0.00399247
0.00388756
0.00377285
0.00365115
0.00352334
0.00338755
0.00323768
0.00306138
0.00283917
0.00253967
0.00029855
0.00159612
0.00243912
0.00285634
0.0030718
0.00316735
0.00318672
0.0031684
0.00314387
0.00312456
0.00284881
0.00270198
0.00273062
0.00287229
0.0028374
0.00286321
0.00301884
0.00328708
0.00361819
0.00391572
0.00412232
0.00424214
0.00428797
0.00427591
0.00422218
0.00413969
0.00403776
0.00392299
0.00380012
0.00367242
0.00354135
0.00340553
0.00325904
0.0030908
0.00287911
0.00259067
0.000296493
0.00157965
0.00242936
0.00284882
0.00306246
0.00315782
0.00318216
0.00317512
0.00316571
0.00298634
0.00267722
0.00258351
0.00263419
0.0027924
0.00294461
0.00301343
0.00320353
0.00349223
0.003819
0.00408748
0.00426273
0.00435565
0.00438027
0.00435173
0.0042845
0.00419014
0.00407733
0.00395266
0.00382125
0.00368704
0.00355221
0.00341631
0.00327439
0.00311398
0.00291309
0.00263666
0.000294263
0.00156141
0.00241654
0.00283909
0.00305272
0.00315013
0.00318165
0.00318724
0.00319206
0.00280623
0.00256
0.00250481
0.00257206
0.00273826
0.00301992
0.00316719
0.0033812
0.00368414
0.00399868
0.00423704
0.00438516
0.00445608
0.00446347
0.00442102
0.0043416
0.00423575
0.00411189
0.00397683
0.00383621
0.00369485
0.00355655
0.00342092
0.00328277
0.00312998
0.0029402
0.00267677
0.000291896
0.00154182
0.00240131
0.00282774
0.00304305
0.00314448
0.00318487
0.00320352
0.00310794
0.00267813
0.00248097
0.00245323
0.00253687
0.00271386
0.003016
0.00332072
0.00355446
0.00386148
0.00415772
0.00437055
0.00449583
0.0045483
0.00454084
0.00448567
0.00439434
0.00427673
0.00414122
0.00399511
0.00384451
0.00369675
0.00355457
0.00341825
0.00328331
0.00313797
0.00295963
0.00271015
0.000289423
0.00152128
0.0023842
0.00281528
0.00303378
0.00314093
0.00319139
0.00322271
0.00296226
0.00258844
0.00242872
0.00242285
0.00252129
0.00271187
0.00303328
0.00347128
0.00372288
0.00402863
0.00430383
0.00449347
0.00459884
0.00463505
0.00461389
0.00454627
0.00444268
0.00431263
0.00416466
0.00400682
0.00384741
0.00369215
0.00354506
0.00340731
0.00327515
0.00313717
0.00297058
0.00273594
0.000286871
0.00150009
0.00236566
0.00280207
0.00302514
0.00313938
0.00320067
0.00324388
0.00285434
0.00252628
0.00239642
0.00240969
0.00252097
0.00272578
0.00307096
0.00359502
0.00388784
0.00418904
0.00444126
0.00460923
0.00469656
0.00471766
0.00468309
0.00460264
0.00448602
0.00434258
0.00418197
0.00401309
0.00384344
0.00367969
0.00352691
0.00338719
0.00325749
0.0031268
0.00297222
0.00275322
0.000284264
0.00147852
0.00234606
0.00278842
0.00301723
0.00313967
0.00321217
0.00326612
0.00277705
0.0024846
0.00238014
0.00241015
0.00253254
0.00275115
0.00312008
0.00367015
0.00404787
0.00433933
0.00457123
0.00471949
0.00479008
0.00479651
0.00474825
0.00465417
0.00452343
0.00436682
0.00419351
0.00401219
0.00383118
0.0036581
0.00349905
0.00335698
0.00322954
0.0031061
0.00296373
0.00276105
0.000281621
0.00145679
0.00232572
0.00277454
0.00301011
0.00314157
0.00322511
0.0031874
0.00272224
0.00245923
0.00237638
0.00242101
0.00255341
0.00278495
0.003176
0.00375014
0.00420301
0.00448147
0.00469482
0.00482501
0.00487967
0.00487138
0.00480871
0.00469992
0.0045555
0.00438494
0.00419754
0.00400258
0.00380923
0.00362616
0.0034604
0.00331578
0.00319052
0.00307432
0.00294428
0.00275839
0.00027896
0.00143507
0.00230488
0.0027606
0.00300379
0.00314482
0.00323899
0.00311504
0.00268434
0.00244597
0.00238216
0.00243976
0.00258174
0.00282571
0.00323592
0.00383516
0.00435187
0.00461663
0.0048126
0.00492597
0.0049651
0.00494163
0.00486373
0.00474047
0.0045812
0.00439532
0.00419248
0.00398271
0.00377617
0.00358256
0.00340988
0.0032627
0.00313969
0.00303074
0.00291298
0.00274408
0.000276294
0.00141351
0.00228375
0.00274673
0.00299821
0.00314917
0.00325346
0.00306207
0.00265943
0.00244239
0.0023955
0.00246462
0.00261606
0.00287192
0.00329779
0.0039207
0.00449257
0.00474491
0.00492476
0.00502215
0.00504573
0.00500661
0.00491344
0.00477462
0.0045991
0.00439638
0.00417671
0.00395101
0.0037305
0.00352596
0.00334635
0.00319682
0.00307629
0.00297456
0.00286877
0.00270983
0.000273635
0.00139222
0.00226251
0.00273301
0.00299333
0.00315441
0.00326826
0.00302419
0.00264466
0.00244692
0.00241496
0.00249436
0.00265518
0.00292236
0.00336152
0.00400468
0.00462639
0.00486666
0.00503126
0.00511305
0.00512077
0.00506601
0.00495681
0.0048011
0.00460771
0.00438654
0.00414859
0.00390583
0.00367068
0.00345502
0.00326869
0.00311727
0.00299953
0.00290482
0.00268249
0.0024507
0.000270992
0.00137129
0.00224129
0.00271951
0.00298908
0.00316033
0.00328321
0.00299781
0.00263801
0.00245802
0.00243926
0.00252797
0.00269789
0.00297567
0.00342731
0.00408739
0.00475307
0.00498191
0.00513179
0.00519748
0.00518979
0.00511905
0.00499272
0.00481851
0.00460547
0.00436409
0.00410636
0.00384549
0.00359515
0.00336842
0.0031759
0.00302328
0.00290876
0.00270823
0.0024364
0.00223026
0.000268374
0.00135079
0.00222021
0.00270626
0.00298538
0.00316678
0.00329818
0.00298053
0.00263794
0.00247431
0.00246734
0.00256461
0.0027432
0.00303134
0.00349445
0.00416812
0.00487292
0.00509041
0.00522464
0.00527531
0.0052523
0.00516481
0.00501991
0.00482538
0.0045907
0.00432725
0.00404824
0.00376826
0.00350246
0.00326506
0.00306726
0.00291453
0.00280378
0.00247374
0.00222671
0.00205744
0.000265785
0.00133076
0.00219935
0.0026933
0.00298217
0.0031736
0.00331309
0.00297055
0.00264324
0.00249465
0.0024983
0.00260358
0.00279055
0.00308872
0.00356228
0.00424611
0.00498542
0.00519032
0.00531025
0.00534642
0.00530767
0.00520224
0.00503704
0.00482011
0.00456166
0.00427419
0.0039724
0.00367254
0.00339134
0.00314417
0.00294258
0.00279142
0.00258751
0.00226469
0.00204582
0.00191433
0.000263231
0.00131121
0.00217878
0.00268064
0.00297937
0.0031807
0.00332788
0.00296644
0.00265285
0.00251806
0.0025314
0.00264427
0.00283943
0.00314717
0.00362984
0.00432091
0.00508534
0.00528242
0.00538887
0.00541049
0.00535513
0.00523021
0.00504266
0.00480105
0.00451653
0.00420305
0.0038771
0.0035569
0.0032609
0.00300557
0.00280241
0.00265507
0.00237393
0.00207598
0.00188807
0.00179543
0.000260719
0.00129216
0.00215854
0.00266829
0.00297695
0.00318801
0.00334256
0.00296704
0.00266584
0.00254355
0.00256577
0.00268604
0.00288939
0.00320649
0.0036978
0.00439229
0.00514951
0.0053674
0.00546059
0.00546712
0.00539382
0.00524752
0.0050353
0.00476648
0.00445348
0.00411202
0.00376078
0.00342028
0.00311088
0.00284991
0.00264832
0.00250782
0.00217909
0.00190683
0.00175406
0.00169962
0.000258251
0.00127365
0.0021387
0.00265631
0.00297501
0.00319555
0.00335694
0.00297131
0.00268148
0.00257052
0.00260097
0.00272849
0.00294015
0.00326663
0.00376546
0.00446023
0.00520666
0.00544571
0.00552534
0.00551576
0.00542283
0.00525289
0.00501342
0.0047147
0.00437075
0.00399949
0.00362224
0.00326221
0.00294185
0.00267898
0.00248311
0.0023531
0.00199819
0.00175817
0.00164417
0.00162774
0.000255828
0.00125571
0.0021194
0.00264483
0.00297332
0.00320308
0.00337101
0.00297855
0.00269919
0.00259851
0.0026367
0.00277138
0.00299152
0.0033274
0.00383269
0.00452452
0.00525807
0.00551744
0.00558288
0.00555577
0.00544114
0.00524504
0.00497549
0.00464404
0.00426673
0.00386413
0.00346078
0.00308308
0.00275557
0.00249587
0.00231092
0.00216486
0.00183037
0.00163172
0.00155935
0.00158135
0.000253453
0.00123857
0.00210053
0.00263356
0.00297179
0.00321052
0.00337095
0.00298814
0.00271858
0.00262718
0.00267272
0.00281454
0.00304333
0.00338854
0.00389916
0.00458487
0.00530262
0.00558268
0.00563284
0.00558641
0.0054477
0.00522265
0.00492001
0.00455299
0.00414006
0.00370511
0.00327653
0.00288441
0.00255522
0.00230523
0.00213701
0.00196867
0.00167837
0.00153004
0.00150244
0.00156475
0.000251153
0.00122167
0.00208194
0.00262251
0.00297041
0.00321784
0.0033713
0.00299956
0.00273915
0.00265625
0.00270885
0.00285787
0.00309545
0.00344984
0.00396463
0.00464144
0.00534036
0.00564134
0.00567474
0.00560688
0.00544144
0.00518441
0.0048456
0.00444023
0.00398983
0.00352229
0.00307069
0.00266921
0.00234567
0.00211363
0.00196762
0.00177448
0.00154719
0.00145677
0.00147823
0.0015881
0.000248923
0.00120509
0.00206371
0.00261172
0.00296916
0.00322504
0.00337327
0.0030123
0.0027606
0.00268556
0.00274497
0.00290129
0.00314785
0.00351124
0.00402918
0.00469481
0.00537183
0.00569311
0.00570799
0.0056163
0.00542126
0.00512911
0.00475102
0.00430481
0.00381571
0.00331651
0.00284584
0.00244211
0.00213359
0.0019261
0.00180816
0.00159774
0.00144196
0.00141461
0.0014887
0.00164785
0.000246759
0.00118886
0.00204586
0.0026012
0.00296804
0.00323215
0.00337642
0.00302597
0.00278271
0.002715
0.00278104
0.00294483
0.00320056
0.00357286
0.00409321
0.00474596
0.00539784
0.00573753
0.00573185
0.00561375
0.00538609
0.00505562
0.00463534
0.00414628
0.00361823
0.00308989
0.00260623
0.00220938
0.00192474
0.00175034
0.00166422
0.00144454
0.00136782
0.00140707
0.00153341
0.00173384
0.000244655
0.00117307
0.00202846
0.002591
0.00296706
0.00323918
0.00338038
0.00304029
0.00280529
0.00274451
0.00281709
0.00298853
0.00325368
0.00363486
0.00415715
0.00479589
0.00541912
0.00577398
0.00574554
0.00559829
0.00533491
0.004963
0.00449798
0.0039649
0.00339906
0.00284615
0.00235803
0.00197945
0.00172908
0.00159275
0.00146213
0.00132661
0.00133354
0.00143625
0.00160587
0.0018102
0.000242609
0.00115776
0.00201155
0.00258111
0.00296623
0.00324615
0.00338493
0.00305506
0.00282818
0.00277403
0.00285313
0.00303245
0.00330725
0.00369727
0.00422091
0.00484434
0.00543555
0.00580173
0.00574821
0.00556901
0.00526681
0.00485057
0.00433892
0.0037619
0.0031613
0.00259089
0.00210932
0.00176131
0.00155313
0.00145694
0.00129891
0.00125913
0.00134146
0.00149348
0.00168091
0.00177572
0.000240619
0.00114294
0.00199515
0.00257159
0.00296556
0.0032531
0.00338993
0.00307012
0.00285125
0.00280356
0.00288921
0.00307664
0.00336124
0.00375981
0.00428366
0.00489003
0.00544457
0.00578312
0.00573902
0.00552504
0.00518103
0.00471797
0.00415886
0.00353976
0.00290983
0.00233177
0.00187001
0.00156355
0.00140173
0.00132926
0.00120113
0.00124322
0.0013839
0.00155923
0.00171883
0.0017454
0.00023868
0.00112866
0.00197931
0.00256244
0.00296506
0.00326006
0.00339532
0.00308538
0.00287443
0.00283311
0.00292542
0.00312115
0.00341556
0.00382213
0.00434432
0.00492977
0.00544031
0.00571809
0.00571737
0.00546564
0.0050769
0.00456523
0.00395943
0.00330253
0.00265157
0.00207821
0.00164972
0.00139287
0.00127694
0.00119505
0.00115899
0.0012694
0.00144666
0.00161814
0.00170737
0.00171759
0.000236792
0.00111492
0.00196406
0.00255369
0.00296477
0.00326707
0.00340108
0.00310081
0.00289772
0.00286278
0.00296188
0.00316613
0.0034704
0.00388429
0.00440258
0.00496194
0.00542126
0.00562913
0.00557104
0.00534569
0.00495386
0.00439283
0.00374349
0.00305619
0.00239546
0.00184098
0.00145744
0.00125327
0.00117808
0.00112905
0.00116245
0.00132319
0.00151294
0.00163379
0.00169735
0.00169009
0.000234953
0.00110173
0.00194942
0.00254538
0.00296472
0.00327417
0.00340725
0.00311643
0.00292117
0.0028927
0.00299887
0.003212
0.00352633
0.00394715
0.00445973
0.00498879
0.00538999
0.00552555
0.00538953
0.0050934
0.00467077
0.00418778
0.00351528
0.00280876
0.00215197
0.00163069
0.00129948
0.00114492
0.00110176
0.00111111
0.00119604
0.00137536
0.00152588
0.00163582
0.00168472
0.00166033
0.000233162
0.00108912
0.00193541
0.00253753
0.00296492
0.0032814
0.00341393
0.00313234
0.00294493
0.00292314
0.00303677
0.00325935
0.00358425
0.00401198
0.00451775
0.00501435
0.00535496
0.00541672
0.00520894
0.00484833
0.00437385
0.00386396
0.00328157
0.00257035
0.00193211
0.00145522
0.00117756
0.0010643
0.00104294
0.00109005
0.00120857
0.00137399
0.0015299
0.00163086
0.00166495
0.00162473
0.000231416
0.00107708
0.00192207
0.00253016
0.00296542
0.00328881
0.00342125
0.00314868
0.00296916
0.00295439
0.00307607
0.00330884
0.00364502
0.0040798
0.00457783
0.00504052
0.00532066
0.00531018
0.00503456
0.00461756
0.00410385
0.00357597
0.00305412
0.00235233
0.00174553
0.00131821
0.0010891
0.00100609
0.000996677
0.00105348
0.0011887
0.00136721
0.00152239
0.001612
0.00163336
0.00158023
0.000229716
0.00106561
0.0019094
0.0025233
0.00296624
0.00329643
0.00342937
0.00316562
0.00299411
0.00298678
0.00311718
0.003361
0.00370913
0.00415088
0.00463978
0.00506675
0.00528638
0.00520596
0.00486547
0.00439641
0.00385404
0.00332442
0.00284354
0.00216475
0.00159865
0.00122058
0.00102906
0.000964761
0.000958969
0.00101865
0.00116353
0.0013446
0.00149464
0.00157686
0.00158937
0.00152655
0.00022806
0.00105472
0.00189742
0.00251697
0.00296741
0.00330431
0.00343843
0.00318333
0.00301996
0.00302058
0.00316047
0.00341614
0.00377669
0.00422482
0.00470259
0.00509158
0.00525064
0.00510292
0.00470097
0.00418613
0.00362646
0.0031043
0.00265866
0.0020147
0.00149328
0.00115876
0.000991186
0.000935352
0.000927016
0.000981746
0.00112263
0.00130226
0.00144908
0.00152662
0.00153314
0.00146371
0.000226448
0.00104441
0.00188616
0.00251121
0.00296897
0.00331249
0.00344857
0.00320197
0.00304692
0.00305602
0.00320616
0.00347441
0.00384752
0.00430093
0.00476506
0.00511392
0.00521273
0.00500035
0.00454327
0.00399713
0.00342615
0.00291602
0.00250355
0.00190104
0.00142408
0.00112398
0.000969415
0.000914163
0.000898061
0.000939048
0.00106878
0.00124363
0.00138779
0.00146248
0.00146517
0.00139195
0.000224878
0.00103467
0.00187562
0.00250602
0.00297095
0.00332101
0.00345991
0.00322169
0.00307513
0.00309327
0.00325439
0.00353577
0.00392128
0.00437845
0.00482631
0.00513314
0.00517224
0.00490329
0.00440472
0.00383671
0.00319725
0.0027204
0.00238212
0.0018229
0.00138346
0.00110503
0.000954735
0.000896501
0.000871022
0.000892817
0.0010038
0.00117034
0.00131208
0.00138546
0.0013861
0.00131164
0.000223352
0.00102549
0.0018658
0.00250143
0.00297337
0.00332992
0.00347253
0.00324258
0.00310472
0.00313247
0.00330523
0.00360013
0.00399759
0.00445672
0.00488579
0.005149
0.00513296
0.00481816
0.00428883
0.00369079
0.00301154
0.00254133
0.00229084
0.00177716
0.00136723
0.00109776
0.000945416
0.000881599
0.00084679
0.000846182
0.000930136
0.00108366
0.00122284
0.00129644
0.00129661
0.00122323
0.000221868
0.00101687
0.00185671
0.00249746
0.00297626
0.00333925
0.00348648
0.00326473
0.00313578
0.00317368
0.00335869
0.00366732
0.004076
0.0045352
0.00494324
0.00516256
0.00509959
0.00474913
0.00419946
0.00355069
0.00287246
0.00240418
0.00215205
0.00176005
0.00137309
0.00110189
0.000941644
0.000869337
0.000826316
0.000803224
0.00085225
0.00098536
0.00112096
0.00119618
0.00119737
0.00112717
0.000220425
0.0010088
0.00184835
0.00249412