/*--------------------------------*- C++ -*----------------------------------*\
| =========                 |                                                 |
| \\      /  F ield         | OpenFOAM: The Open Source CFD Toolbox           |
|  \\    /   O peration     | Version:  v2012                                 |
|   \\  /    A nd           | Website:  www.openfoam.com                      |
|    \\/     M anipulation  |                                                 |
\*---------------------------------------------------------------------------*/
FoamFile
{
    version     2.0;
    format      ascii;
    class       volScalarField;
    location    "621";
    object      omega;
}
// * * * * * * * * * * * * * * * * * * * * * * * * * * * * * * * * * * * * * //

dimensions      [0 0 -1 0 0 0 0];


internalField   nonuniform List<scalar> 
6108
(
96.6817
100.489
104.639
109.183
114.188
119.733
125.918
132.874
140.768
149.825
160.349
172.768
187.693
206.037
229.211
259.5
300.806
360.218
451.576
604.239
43.0608
44.9044
46.928
49.1593
51.632
54.3878
57.479
60.9716
64.9499
69.5231
74.8341
81.0727
88.4939
97.4444
108.398
121.997
139.083
160.613
187.104
216.16
33.6147
35.1357
36.808
38.655
40.7048
42.9923
45.5607
48.4639
51.7702
55.567
59.9673
65.1195
71.2211
78.54
87.4453
98.4582
112.336
130.231
154.029
187.273
30.5049
31.9265
33.4907
35.2194
37.1395
39.284
41.6935
44.4192
47.5257
51.0961
55.2387
60.097
65.8651
72.8113
81.3173
91.9435
105.547
123.505
148.17
183.875
29.413
30.8023
32.3313
34.0218
35.9003
37.9992
40.359
43.0303
46.0776
49.5841
53.6592
58.4489
64.1532
71.0523
79.5512
90.2544
104.1
122.601
148.295
185.559
29.4099
30.8002
32.3298
34.0207
35.8995
37.9986
40.3586
43.03
46.0774
49.584
53.6591
58.4488
64.1531
71.0523
79.5512
90.2544
104.1
122.601
148.295
185.559
30.494
31.9189
33.4852
35.2156
37.1369
39.2822
41.6923
44.4184
47.5252
51.0958
55.2385
60.0969
65.865
72.8112
81.3172
91.9435
105.547
123.505
148.17
183.875
33.5891
35.1186
36.796
38.6468
40.6993
42.9887
45.5582
48.4623
51.7692
55.5663
59.9668
65.1191
71.2209
78.5399
87.4452
98.4582
112.336
130.231
154.029
187.273
43.0095
44.8682
46.9041
49.1428
51.6207
54.3802
57.4739
60.9682
64.9476
69.5216
74.8332
81.0721
88.4935
97.4441
108.398
121.997
139.083
160.613
187.104
216.16
96.7418
100.53
104.667
109.204
114.202
119.743
125.925
132.879
140.771
149.827
160.351
172.769
187.694
206.037
229.211
259.5
300.806
360.218
451.576
604.239
84.103
86.9125
89.9272
93.1733
37.0877
38.4031
39.8277
41.3749
28.7034
29.7828
30.9531
32.2259
25.9191
26.9267
28.0191
29.2075
24.9303
25.9158
26.9839
28.1453
24.9123
25.9038
26.9763
28.1406
25.8341
26.8711
27.9859
29.1888
28.3429
29.5445
30.8156
32.1601
34.5388
36.761
38.8314
40.9065
51.9934
59.58
69.1948
81.512
13.834
13.0252
13.1643
14.9734
20.4792
24.8071
28.2877
31.2161
33.6889
35.8987
37.9294
39.828
41.6251
43.3422
44.9956
46.598
48.1602
49.6914
51.2001
52.6942
54.1817
55.6702
57.1675
58.6815
60.2203
61.7922
63.4061
65.0708
66.7959
68.5912
70.4673
72.4351
74.5065
76.6943
79.0123
81.4762
14.7035
9.75202
12.2765
17.5385
21.2694
23.1966
24.0871
24.5527
24.7853
24.8846
24.9292
24.947
24.9549
24.9648
24.9866
25.0286
25.0981
25.2014
25.3437
25.5293
25.7616
26.0428
26.3747
26.7583
27.1949
27.6851
28.23
28.8304
29.4875
30.2028
30.9779
31.8158
32.7196
33.693
34.7412
35.8702
18.1727
11.6433
14.8322
18.1845
20.0139
20.6904
20.7944
20.6567
20.3838
20.062
19.7497
19.469
19.2317
19.0442
18.9104
18.832
18.8098
18.8433
18.9316
19.0729
19.2653
19.5069
19.7955
20.1296
20.5079
20.9293
21.3935
21.9006
22.4513
23.0467
23.6887
24.3795
25.1224
25.921
26.78
27.7052
22.1769
13.6243
15.7343
17.567
18.4214
18.6065
18.46
18.1483
17.7601
17.3715
17.023
16.7305
16.501
16.3366
16.2369
16.1999
16.2228
16.3021
16.4342
16.6155
16.8425
17.1121
17.4218
17.7695
18.1538
18.5739
19.0295
19.5211
20.0497
20.6166
21.2242
21.8749
22.5722
23.32
24.1231
24.9873
25.874
14.8229
15.8627
16.6973
17.0327
17.0106
16.7844
16.4446
16.0675
15.7145
15.4144
15.1785
15.0104
14.9094
14.8731
14.8979
14.9797
15.1142
15.297
15.5239
15.7913
16.0959
16.4354
16.8078
17.2118
17.6471
18.1138
18.6124
19.1442
19.7111
20.3152
20.9595
21.6473
22.3829
23.1712
24.018
28.5633
15.4822
15.6739
15.9262
15.9336
15.8095
15.5654
15.251
14.9271
14.6396
14.4097
14.2454
14.148
14.1159
14.1461
14.2344
14.3767
14.5683
14.8048
15.082
15.396
15.7437
16.1227
16.5313
16.9685
17.4342
17.9287
18.4531
19.0088
19.5978
20.2224
20.8852
21.5894
22.3388
23.1381
23.9932
30.5076
15.7979
15.3672
15.275
15.1077
14.904
14.6636
14.3931
14.1341
13.9189
13.7628
13.6714
13.6454
13.6833
13.7821
13.9385
14.1482
14.4068
14.7097
15.0523
15.4304
15.8403
16.2793
16.7455
17.2384
17.758
18.3057
18.8832
19.4932
20.1382
20.8212
21.5445
22.3103
23.1197
23.9731
24.8704
32.1037
15.8867
15.0308
14.733
14.4752
14.226
13.9861
13.762
13.5673
13.4223
13.3378
13.318
13.3639
13.4751
13.6502
13.8868
14.1816
14.5302
14.9274
15.3675
15.8447
16.3538
16.8904
17.4514
18.0355
18.643
19.276
19.9385
20.6362
21.3775
22.1711
23.0258
23.9487
24.9445
26.0133
27.1673
33.4199
15.8553
14.7054
14.2834
13.9785
13.7103
13.4742
13.2866
13.1496
13.0683
13.0497
13.0981
13.216
13.4051
13.6666
14.0002
14.4039
14.8738
15.4043
15.9886
16.6196
17.2904
17.9952
18.7295
19.4902
20.276
21.0873
21.9269
22.8009
23.7203
24.7095
25.8063
27.0548
28.5184
30.2651
32.3043
34.5017
15.7768
14.4066
13.9073
13.5778
13.3058
13.0821
12.9198
12.8286
12.8015
12.8407
12.9511
13.1378
13.4061
13.76
14.2017
14.7309
15.3441
16.0361
16.8006
17.6323
18.5277
19.4861
20.5102
21.6065
22.7847
24.0583
25.4443
26.9635
28.6397
30.5016
32.5805
34.9064
37.7424
41.3654
46.0212
45.533
45.3505
40.9576
32.5036
20.6956
17.2211
13.3613
13.2791
8.34563
6.42249
5.41012
11.47
3.98202
3.75568
4.48144
11.075
3.00197
3.26752
4.41167
11.094
2.77896
3.20894
4.48985
11.2988
2.73835
3.23477
4.61217
11.6322
2.74951
3.27501
4.71562
12.005
2.77752
3.31673
4.80332
12.4079
2.81331
3.36012
4.88627
12.8399
2.8551
3.40802
4.97648
13.3074
2.9032
3.46337
5.07771
13.8147
2.95642
3.52074
5.17767
14.3345
3.01316
3.58066
5.27774
14.8631
3.07375
3.64349
5.37824
15.3959
3.13831
3.70946
5.47932
15.9303
3.20682
3.77866
5.58095
16.4637
3.27917
3.85106
5.68294
16.9925
3.35516
3.92651
5.78492
17.5121
3.43454
4.00477
5.88636
18.0156
3.51704
4.08566
5.98676
18.4924
3.60237
4.16914
6.08601
18.925
3.69024
4.25525
6.1841
19.2884
3.78052
4.34372
6.27735
19.5876
3.87309
4.43466
6.36538
19.862
3.96337
4.52128
6.44779
20.1224
4.04378
4.59575
6.52864
20.3057
4.11181
4.65593
6.58189
20.4364
4.16564
4.69801
6.61354
20.4996
4.20362
4.72153
6.62409
20.4639
4.2199
4.72612
6.61522
20.3424
4.21233
4.71088
6.58675
20.1488
4.17888
4.67606
6.54227
19.8876
4.12053
4.62285
6.48819
19.562
4.04501
4.55765
6.42638
19.1816
3.95987
4.48898
6.36067
18.7552
3.87284
4.42189
6.29446
18.2927
3.79051
4.36011
6.23053
17.804
3.71653
4.30619
6.1706
17.2979
3.65317
4.26147
6.11534
16.7804
3.6016
4.22645
6.06461
16.2574
3.56264
4.20156
6.01899
15.7325
3.53876
4.19108
5.99182
15.22
3.53191
4.20061
5.99639
14.7407
3.54074
4.22749
6.02241
14.2826
3.56405
4.26911
6.06034
13.8373
3.6007
4.3233
6.10524
13.3982
3.64962
4.38815
6.15332
12.96
3.70986
4.46211
6.20195
12.5177
3.78055
4.54396
6.24942
12.0666
3.86101
4.63288
6.29468
11.6015
3.95086
4.72857
6.33698
11.1167
4.05023
4.83119
6.37535
10.6057
4.15993
4.94121
6.40767
10.0603
4.28103
5.05817
6.42841
9.46926
4.41232
5.17648
6.42319
8.81562
4.54847
5.27827
6.36023
8.07064
4.67469
5.34084
6.19087
7.17338
4.88409
5.38265
5.84027
6.0214
9.16678
8.76723
7.77125
4.56565
35.4524
15.6763
14.1216
13.5713
13.2291
12.9624
12.7557
12.6188
12.5578
12.5743
12.6626
12.8278
13.0782
13.4217
13.8644
14.4084
15.0509
15.7851
16.6019
17.4922
18.4492
19.4698
20.5553
21.7114
22.9474
24.276
25.7121
27.2721
28.9709
30.8165
32.8225
34.9881
37.2903
39.6597
41.9435
44.0131
36.2523
15.5739
13.8634
13.2801
12.9328
12.6746
12.4838
12.3662
12.327
12.368
12.4898
12.6949
12.9921
13.3898
13.891
14.4913
15.1792
15.9379
16.7497
17.5988
18.4738
19.3675
20.2765
21.1987
22.1336
23.0769
24.0168
24.9347
25.7849
26.4839
27.0209
27.33
27.3122
26.8678
25.8785
23.7133
36.9299
15.4731
13.6252
13.0198
12.6719
12.4221
12.2433
12.1373
12.1092
12.162
12.2987
12.5244
12.8448
13.2628
13.7725
14.3571
14.9923
15.6514
16.3105
16.9509
17.5596
18.1278
18.6483
19.1069
19.4868
19.7532
19.8295
19.7288
19.4648
19.0685
18.4561
17.5736
16.3655
14.7356
12.8367
10.5637
37.4744
15.3635
13.399
12.7793
12.4327
12.189
12.0164
11.9136
11.8863
11.939
12.0757
12.3012
12.6168
13.0144
13.4738
13.9645
14.4523
14.9063
15.3028
15.6255
15.8638
16.0045
16.0261
15.8898
15.5251
14.971
14.3355
13.6003
12.7554
11.8213
10.7816
9.64015
8.44317
7.2055
6.07124
4.99995
37.9036
15.2493
13.1812
12.5511
12.2057
11.9643
11.7918
11.6844
11.6487
11.6913
11.8157
12.0227
12.3047
12.6398
12.9929
13.323
13.5926
13.773
13.8466
13.8003
13.6173
13.2677
12.7028
11.8744
10.9897
10.0933
9.20754
8.34076
7.50397
6.70646
5.94763
5.26333
4.6378
4.04934
3.45528
3.15261
38.2284
15.1332
12.969
12.3295
11.9841
11.7413
11.5633
11.4449
11.3947
11.42
11.5224
11.6951
11.9172
12.1525
12.3545
12.478
12.488
12.3639
12.0918
11.6521
11.0156
10.1536
9.07671
8.07161
7.16112
6.36657
5.68315
5.09542
4.60383
4.17849
3.77982
3.39507
3.08366
2.86529
2.68127
2.65512
38.4582
15.0156
12.7614
12.1116
11.7643
11.5167
11.3289
11.1959
11.1278
11.1321
11.2056
11.3305
11.4715
11.5787
11.6005
11.4938
11.2317
10.8004
10.1814
9.36033
8.34178
7.18404
6.17985
5.37306
4.73917
4.25413
3.87573
3.55403
3.2664
3.01871
2.83414
2.66652
2.54481
2.48175
2.46474
2.53353
38.6021
14.897
12.5575
11.8959
11.5448
11.2898
11.0901
10.9413
10.8554
10.8378
10.8778
10.9447
10.9886
10.951
10.7802
10.4407
9.91751
9.19741
8.27901
7.19701
6.05287
5.08428
4.37137
3.86928
3.49376
3.20812
2.98102
2.81009
2.6658
2.55092
2.47779
2.42185
2.38688
2.38095
2.41422
2.51692
38.6685
14.7778
12.357
11.6822
11.3257
11.0622
10.8501
10.6872
10.5857
10.5476
10.5518
10.5535
10.491
10.3025
9.94185
9.38662
8.63143
7.68172
6.58919
5.47735
4.52081
3.8542
3.39293
3.06502
2.8459
2.6873
2.56867
2.4932
2.4401
2.40175
2.37673
2.36077
2.35678
2.37249
2.42225
2.53594
38.666
14.6585
12.1604
11.471
11.1081
10.8362
10.6135
10.4399
10.3272
10.2711
10.2385
10.1712
9.99951
9.66355
9.12784
8.38835
7.45381
6.37447
5.27253
4.31684
3.62791
3.15531
2.85175
2.65304
2.53569
2.4622
2.41768
2.39362
2.38007
2.37212
2.3683
2.36855
2.37639
2.39976
2.45404
2.56981
38.6026
14.5398
11.9681
11.2632
10.8939
10.6148
10.3847
10.2054
10.0866
10.0157
9.9468
9.80984
9.53159
9.0591
8.3736
7.49131
6.44871
5.35208
4.36457
3.61522
3.10271
2.77237
2.58201
2.4735
2.41648
2.39004
2.38139
2.38223
2.38684
2.39237
2.39814
2.40527
2.41757
2.4431
2.49754
2.61213
38.4861
14.4222
11.7808
11.0599
10.6847
10.4008
10.1677
9.98837
9.86885
9.78643
9.6825
9.47772
9.09983
8.50712
7.70269
6.72544
5.64864
4.61971
3.78961
3.1946
2.81188
2.58996
2.47025
2.41127
2.38912
2.38789
2.39703
2.41009
2.42335
2.43512
2.44532
2.45547
2.46943
2.4952
2.54848
2.66103
38.3238
14.3062
11.5993
10.8624
10.4824
10.1967
9.96549
9.79203
9.67677
9.58592
9.4488
9.18039
8.71155
8.01667
7.12662
6.10242
5.05019
4.12775
3.43487
2.95832
2.67285
2.51698
2.43966
2.40976
2.40763
2.41987
2.43799
2.457
2.4743
2.48894
2.50122
2.51284
2.52757
2.55319
2.60528
2.71607
38.1225
14.1924
11.4243
10.6716
10.2884
10.0043
9.78001
9.61798
9.51143
9.41495
9.24836
8.9213
8.36881
7.59081
6.64868
5.61732
4.6252
3.81354
3.22035
2.8357
2.61842
2.5042
2.45351
2.44138
2.45066
2.47003
2.4925
2.51414
2.53309
2.54889
2.56217
2.57468
2.59007
2.61583
2.66696
2.77525
37.8885
14.0811
11.2561
10.4883
10.1038
9.82491
9.61229
9.46661
9.37257
9.27395
9.08232
8.69997
8.07179
7.22982
6.26239
5.25328
4.33541
3.61627
3.10312
2.78593
2.61311
2.52684
2.49376
2.49247
2.50813
2.53103
2.55525
2.57761
2.59681
2.61282
2.62652
2.63975
2.65598
2.682
2.73234
2.83844
37.6275
13.9725
11.0952
10.3132
9.92924
9.65898
9.46247
9.33731
9.2591
9.16177
8.94749
8.51405
7.82149
6.93077
5.95518
4.9881
4.14644
3.499
3.04883
2.78136
2.63965
2.57255
2.55099
2.5562
2.57518
2.59941
2.62377
2.64564
2.66418
2.67975
2.69351
2.70735
2.72443
2.75112
2.8012
2.90558
37.3445
13.8668
10.9417
10.1467
9.76514
9.50665
9.32998
9.22859
9.16879
9.07588
8.8407
8.36119
7.61464
6.6879
5.71708
4.79908
4.02886
3.43638
3.0362
2.80728
2.68812
2.6343
2.62018
2.62909
2.64941
2.67353
2.69691
2.71738
2.73456
2.74917
2.7626
2.77689
2.79505
2.82288
2.8733
2.9765
37.0441
13.7639
10.7957
9.98878
9.6115
9.36756
9.2137
9.13846
9.09917
9.01293
8.75881
8.23852
7.44706
6.49643
5.53646
4.66656
3.95694
3.41516
3.05672
2.85547
2.75261
2.708
2.69858
2.70929
2.72958
2.75251
2.77404
2.79238
2.80759
2.82062
2.83342
2.84812
2.86755
2.89694
2.94833
3.05097
36.7303
13.6637
10.6571
9.83945
9.46808
9.24102
9.11211
9.06457
9.04779
8.96961
8.69861
8.14259
7.31434
6.34867
5.40365
4.57946
3.91855
3.42137
3.09928
2.91989
2.82929
2.79116
2.78456
2.79571
2.81494
2.83585
2.85477
2.8703
2.88276
2.89387
2.90579
2.9208
2.94159
2.97292
3.02591
3.12871
36.4064
13.5661
10.5256
9.69849
9.33447
9.12609
9.02349
9.00437
9.01191
8.94284
8.65691
8.06987
7.21233
6.23852
5.31189
4.52827
3.90485
3.44705
3.1579
2.99674
2.91572
2.88218
2.87706
2.88764
2.90497
2.9231
2.93862
2.95058
2.95992
2.96872
2.97945
2.9946
3.01681
3.05042
3.10565
3.20937
36.0755
13.4708
10.4009
9.56557
9.21009
9.02166
8.94604
8.95553
8.98875
8.92967
8.63056
8.01711
7.13743
6.16109
5.25486
4.50123
3.9125
3.49219
3.23002
3.08374
3.01027
2.97995
2.97528
2.98447
2.99916
3.01364
3.02508
3.03303
3.0388
3.04485
3.05406
3.06915
3.0928
3.12901
3.18712
3.29256
35.7402
13.3777
10.2827
9.44028
9.09428
8.92653
8.87795
8.91628
8.9759
8.92735
8.61677
7.98151
7.08655
6.11223
5.22633
4.49441
3.93775
3.55256
3.31325
3.17927
3.11176
3.08359
3.07854
3.08561
3.09677
3.10698
3.11387
3.11729
3.11897
3.12182
3.12916
3.14399
3.16909
3.20823
3.26989
3.37793
35.4024
13.2864
10.1705
9.32216
8.98634
8.83955
8.81762
8.88492
8.97122
8.93353
8.61323
7.96074
7.0571
6.08839
5.21955
4.50649
3.97984
3.62545
3.40565
3.28206
3.21924
3.19232
3.18616
3.19027
3.19729
3.2027
3.20449
3.20284
3.19989
3.19908
3.20419
3.21856
3.24513
3.28753
3.35342
3.46501
35.064
13.1968
10.0639
9.21072
8.88556
8.75963
8.76363
8.85979
8.97283
8.94617
8.61795
7.95281
7.04693
6.0867
5.22881
4.53598
4.0387
3.70956
3.50616
3.39116
3.33192
3.3055
3.29738
3.29781
3.30011
3.3002
3.29634
3.28904
3.2809
3.27593
3.27843
3.2921
3.32011
3.36601
3.4369
3.55333
34.7266
13.1085
9.96241
9.10547
8.79123
8.68576
8.71476
8.83946
8.97912
8.96346
8.62927
7.956
7.05408
6.10464
5.25408
4.58106
4.11129
3.80348
3.61382
3.50576
3.44932
3.42237
3.4114
3.40751
3.40456
3.3988
3.38872
3.37516
3.36123
3.35157
3.35103
3.36365
3.39281
3.44225
3.51934
3.64248
34.3912
13.0215
9.8657
9.00591
8.70268
8.61704
8.67001
8.82276
8.98871
8.9839
8.64581
7.96856
7.07446
6.13622
5.29705
4.64411
4.19638
3.90614
3.72776
3.62585
3.57065
3.54198
3.52738
3.5186
3.5099
3.49774
3.48085
3.46039
3.44003
3.4251
3.42101
3.43203
3.46181
3.51539
3.60005
3.73028
34.059
12.9354
9.77332
8.91156
8.6193
8.55268
8.62851
8.80869
9.00042
9.00632
8.66643
7.9889
7.10459
6.18041
5.35651
4.72189
4.29223
4.01662
3.84855
3.75034
3.69479
3.6634
3.64448
3.63028
3.61533
3.59625
3.57192
3.54389
3.51643
3.49564
3.48741
3.49623
3.52617
3.58428
3.67616
3.81159
33.7304
12.85
9.6849
8.82197
8.5405
8.49202
8.58957
8.79641
9.01328
9.02977
8.69021
8.01576
7.14349
6.23578
5.42928
4.81155
4.398
4.13571
3.97462
3.87796
3.82069
3.78569
3.76186
3.74177
3.72011
3.69356
3.66115
3.62483
3.58959
3.56234
3.54943
3.55545
3.58555
3.64768
3.74532
3.8838
33.4063
12.7654
9.60008
8.73674
8.4658
8.43448
8.55263
8.78526
9.02646
9.05345
8.7163
8.04807
7.19014
6.30071
5.51247
4.91295
4.5141
4.2615
4.10451
4.00749
3.94732
3.90794
3.87868
3.8523
3.8235
3.78894
3.74778
3.70245
3.65879
3.62459
3.60654
3.60934
3.63933
3.70434
3.8058
3.94468
33.0875
12.6815
9.5185
8.6555
8.39476
8.37966
8.51748
8.77485
9.03892
9.07573
8.74307
8.0845
7.24343
6.37457
5.60776
5.02581
4.63824
4.39228
4.23676
4.13772
4.07362
4.02925
3.99417
3.96117
3.92484
3.88174
3.83116
3.77616
3.72359
3.6821
3.65862
3.65781
3.68687
3.7531
3.85543
3.99143
32.7742
12.5981
9.43986
8.57793
8.32704
8.32746
8.48381
8.7646
9.04997
9.09643
8.77026
8.12414
7.30253
6.45676
5.71241
5.14691
4.76813
4.52659
4.36987
4.26738
4.19856
4.14876
4.10759
4.06774
4.02355
3.9714
3.91078
3.84559
3.78389
3.73503
3.70595
3.70106
3.72784
3.79252
3.89155
4.0204
32.4668
12.515
9.36373
8.50371
8.26257
8.27755
8.45132
8.75416
9.05937
9.11555
8.79781
8.1666
7.36664
6.54563
5.82391
5.27346
4.90109
4.66097
4.50198
4.39518
4.32114
4.26568
4.21833
4.17151
4.1192
4.05753
3.98635
3.91072
3.84007
3.78406
3.7492
3.73929
3.76142
3.82029
3.91069
4.02735
32.1654
12.4312
9.29055
8.43304
8.20108
8.22962
8.4198
8.74333
9.06698
9.13317
8.82567
8.21152
7.43492
6.63955
5.94
5.40303
5.03497
4.79415
4.63173
4.51999
4.44049
4.37932
4.32585
4.27206
4.21145
4.13989
4.0578
3.97195
3.89312
3.83054
3.78907
3.77191
3.7855
3.83274
3.90823
4.00582
31.8735
12.351
9.22049
8.36561
8.14228
8.18344
8.3891
8.73195
9.0728
9.14941
8.85384
8.25855
7.50651
6.73699
6.05862
5.53344
5.16786
4.92469
4.75789
4.64083
4.55583
4.48913
4.42976
4.36915
4.30014
4.21842
4.12545
4.03022
3.9447
3.87714
3.82582
3.79721
3.7961
3.82467
3.87941
3.95542
31.5905
12.2737
9.15323
8.30112
8.08592
8.13884
8.35907
8.71995
9.07689
9.16442
8.88231
8.30731
7.58054
6.83645
6.17783
5.66271
5.298
5.05115
4.87933
4.75681
4.66652
4.59467
4.52981
4.46264
4.38528
4.29333
4.18997
4.08708
3.99738
3.92017
3.85679
3.81062
3.78694
3.78991
3.82015
3.87916
31.3158
12.1989
9.0885
8.23932
8.03177
8.09565
8.32961
8.70727
9.07935
9.17836
8.91106
8.35742
7.65607
6.93641
6.29579
5.78896
5.42374
5.17223
4.99503
4.86719
4.77204
4.69563
4.62587
4.55258
4.46703
4.36509
4.25256
4.14428
4.04928
3.96304
3.87989
3.80604
3.7504
3.72298
3.72627
3.78226
31.0488
12.1257
9.026
8.17997
7.97964
8.05377
8.30067
8.69396
9.08033
9.19139
8.94003
8.40844
7.73216
7.03545
6.41077
5.91052
5.54369
5.28679
5.10415
4.97135
4.87202
4.79185
4.71796
4.63916
4.54579
4.43464
4.31507
4.20546
4.10694
4.00352
3.88874
3.7741
3.67893
3.62368
3.61453
3.67802
30.7892
12.0537
8.96549
8.12286
7.92937
8.01309
8.2722
8.68005
9.08002
9.20367
8.96917
8.45989
7.80784
7.13221
6.5213
6.02602
5.65674
5.39396
5.206
5.06884
4.96618
4.88325
4.80622
4.72276
4.62223
4.50342
4.38049
4.27364
4.16831
4.03542
3.87302
3.70563
3.5706
3.4985
3.49386
3.57485
30.5366
11.9826
8.90672
8.0678
7.8808
7.97355
8.24419
8.66563
9.07861
9.21536
8.99836
8.5113
7.88221
7.22548
6.62614
6.13441
5.76226
5.49331
5.30005
5.1593
5.05437
4.96987
4.89095
4.80397
4.69741
4.5736
4.45327
4.3516
4.23084
4.05102
3.82374
3.59857
3.43311
3.36003
3.37417
3.47801
30.2906
11.912
8.8495
8.0146
7.83381
7.93506
8.21661
8.65081
9.07632
9.22656
9.02747
8.56214
7.95436
7.31414
6.72422
6.23481
5.85964
5.5846
5.38604
5.24246
5.13642
5.05178
4.97254
4.88364
4.77282
4.64815
4.53667
4.44043
4.29023
4.04343
3.73882
3.46139
3.28135
3.22052
3.26223
3.39155
30.051
11.8417
8.79362
7.96311
7.78829
7.89759
8.18949
8.63568
9.07333
9.23739
9.05633
8.61184
8.02332
7.397
6.81433
6.32612
5.94784
5.66739
5.46401
5.31803
5.21211
5.12902
5.05147
4.96289
4.85059
4.73117
4.63438
4.54008
4.34238
4.0101
3.62623
3.31029
3.13201
3.0923
3.16352
3.31805
29.8176
11.7714
8.73889
7.91316
7.74412
7.86107
8.16283
8.62035
9.06982
9.24789
9.08465
8.65967
8.08794
7.47268
6.895
6.40681
6.0252
5.73992
5.53296
5.38582
5.28137
5.20149
5.12818
5.04304
4.93316
4.82747
4.74934
4.64974
4.38673
3.95778
3.50149
3.16266
2.99728
2.98472
3.08237
3.25943
29.5902
11.7009
8.68517
7.86463
7.70122
7.82548
8.13664
8.60494
9.06594
9.25804
9.11206
8.70478
8.14692
7.5396
6.96456
6.47512
6.08978
5.80021
5.59064
5.44398
5.34334
5.26929
5.20307
5.12553
5.02323
4.93984
4.88252
4.76918
4.42889
3.90101
3.38162
3.03145
2.8858
2.90124
3.02197
3.21804
29.3687
11.6301
8.63229
7.81737
7.6595
7.79076
8.11094
8.58952
9.06179
9.26775
9.13805
8.74616
8.19888
7.59628
7.02159
6.52969
6.14034
5.84684
5.63553
5.49087
5.39649
5.33182
5.27677
5.21183
5.12312
5.06804
5.03376
4.90136
4.4804
3.85702
3.28232
2.92979
2.80758
2.84721
2.98327
3.19425
29.1529
11.5589
8.58013
7.77128
7.61887
7.7569
8.08573
8.57417
9.05742
9.27682
9.16202
8.78274
8.24251
7.64151
7.06512
6.56976
6.17619
5.87909
5.66696
5.52598
5.44048
5.38892
5.35003
5.30327
5.23473
5.21503
5.20296
5.05251
4.55637
3.84492
3.22194
2.87392
2.76676
2.81827
2.96386
3.18691
28.9427
11.4872
8.52858
7.72625
7.57927
7.72384
8.06102
8.55893
9.05283
9.28501
9.18328
8.8135
8.27673
7.67448
7.09473
6.59509
6.19697
5.89661
5.68465
5.54917
5.47548
5.44095
5.42326
5.40037
5.35833
5.37991
5.38882
5.22905
4.67332
3.89158
3.22929
2.86357
2.75505
2.81035
2.96173
3.19484
28.7381
11.4149
8.47754
7.68218
7.54063
7.69156
8.03681
8.54384
9.04799
9.29202
9.20117
8.8375
8.30074
7.69481
7.11037
6.60572
6.20257
5.89897
5.68878
5.56113
5.50156
5.48752
5.49576
5.50271
5.49455
5.55811
5.58894
5.44023
4.86414
4.02347
3.29607
2.89055
2.76753
2.82049
2.97515
3.21692
28.539
11.342
8.42693
7.63899
7.50288
7.66002
8.0131
8.52891
9.04282
9.29748
9.21498
8.85396
8.31403
7.70242
7.11224
6.60172
6.19254
5.88784
5.68059
5.56099
5.51742
5.52685
5.56516
5.60804
5.63919
5.74407
5.80883
5.70017
5.136
4.24333
3.42722
2.95507
2.80252
2.84688
3.00274
3.25212
28.3453
11.2686
8.37668
7.59659
7.46596
7.62921
7.98987
8.51411
9.03719
9.30102
9.22409
8.86225
8.31635
7.69749
7.10061
6.58293
6.16901
5.86453
5.65954
5.54749
5.51988
5.55505
5.62707
5.71096
5.78781
5.92976
6.04505
6.00757
5.49587
4.5663
3.63853
3.06373
2.86103
2.88867
3.04347
3.29954
28.1569
11.1946
8.32674
7.55492
7.42984
7.59907
7.96712
8.49943
9.03094
9.30223
9.22791
8.86194
8.3077
7.68032
7.07578
6.55013
6.13446
5.82911
5.62521
5.51927
5.50578
5.56692
5.67497
5.80276
5.9336
6.10958
6.28799
6.35033
5.9446
5.0106
3.95473
3.23107
2.94697
2.94581
3.09653
3.35834
27.9739
11.1201
8.27709
7.51393
7.39445
7.5696
7.94482
8.48481
9.02391
9.30071
9.22594
8.85278
8.28823
7.65127
7.03733
6.50715
6.08926
5.78184
5.57736
5.47498
5.47257
5.5573
5.70067
5.87208
6.05752
6.27197
6.52296
6.70468
6.46688
5.59275
4.41241
3.48507
3.06884
3.01941
3.16131
3.42777
27.7961
11.0451
8.22771
7.47358
7.35977
7.54077
7.92296
8.47019
9.01588
9.29605
9.21778
8.83468
8.25828
7.6109
6.98733
6.45504
6.0342
5.72319
5.5165
5.41444
5.4184
5.52121
5.69588
5.90875
6.14352
6.40959
6.73529
7.03732
7.02593
6.31679
5.05342
3.87015
3.24434
3.11313
3.23747
3.50718
27.6235
10.9699
8.17858
7.43382
7.32576
7.51254
7.90149
8.45548
9.00662
9.28789
9.20313
8.80774
8.21825
7.55895
6.92928
6.39477
5.97037
5.6541
5.44386
5.33855
5.34275
5.45494
5.65295
5.90433
6.18793
6.50464
6.89992
7.31572
7.56111
7.14786
5.92345
4.46373
3.51307
3.23616
3.32518
3.59621
27.4562
10.8945
8.12971
7.39462
7.29239
7.48491
7.8804
8.44061
8.9959
9.27589
9.18184
8.7722
8.16876
7.49716
6.86439
6.32757
5.89928
5.57744
5.36137
5.24876
5.24642
5.35753
5.56664
5.84701
6.17647
6.55293
6.99409
7.51382
7.99838
7.99495
7.02799
5.36047
3.95429
3.39988
3.42504
3.69492
27.294
10.8189
8.08112
7.35597
7.25963
7.45784
7.85963
8.42545
8.98348
9.25975
9.15386
8.7284
8.11015
7.42823
6.79354
6.25451
5.82214
5.49427
5.27009
5.14642
5.13135
5.23089
5.43658
5.73025
6.09315
6.51878
7.01944
7.62024
8.27871
8.71954
8.2761
6.65036
4.73005
3.66196
3.54361
3.8043
27.1369
10.7434
8.03284
7.31785
7.22747
7.43131
7.83916
8.40989
8.96913
9.23926
9.11925
8.6768
8.04281
7.35436
6.71783
6.17658
5.73982
5.405
5.16989
5.03325
5.00055
5.07954
5.26734
5.55529
5.93382
6.39424
6.94256
7.59904
8.38394
9.18439
9.44747
8.32614
6.02835
4.1484
3.69705
3.92729
26.9849
10.6681
7.98492
7.28026
7.19589
7.40531
7.81892
8.3938
8.9526
9.21425
9.0782
8.61798
7.96869
7.27604
6.63808
6.0945
5.65311
5.31078
5.06304
4.91135
4.85741
4.9095
5.06784
5.3308
5.69892
6.17235
6.75443
7.46257
8.32348
9.32699
10.2377
10.1425
8.0483
5.21515
3.94007
4.06379
26.8379
10.5931
7.93737
7.2432
7.16489
7.37982
7.79886
8.37704
8.9337
9.18463
9.03092
8.55201
7.89002
7.19414
6.55499
6.00868
5.56304
5.21328
4.9523
4.78262
4.7051
4.72652
4.84804
5.07158
5.40465
5.85823
6.4413
7.17175
8.07661
9.1864
10.4633
11.4878
10.7269
7.32157
4.39661
4.22495
26.696
10.5187
7.89027
7.20669
7.13447
7.35482
7.77894
8.3595
8.91225
9.15043
8.97787
8.47992
7.8081
7.10963
6.46936
5.91985
5.47094
5.11361
4.83831
4.64766
4.54632
4.53552
4.61663
4.79241
5.07292
5.47599
6.02332
6.73821
7.64979
8.79413
10.2192
11.8822
13.0212
11.0613
5.99722
4.52643
26.559
10.4451
7.84386
7.17093
7.10481
7.33047
7.75926
8.34121
8.88838
9.11216
8.92014
8.40383
7.72434
7.02386
6.38217
5.82982
5.37786
5.01326
4.72349
4.51024
4.38407
4.34085
4.3808
4.50575
4.72495
5.05692
5.52941
6.1789
7.0479
8.17588
9.62271
11.4661
13.7556
15.1532
10.8396
7.21116
26.4543
10.3876
7.80736
7.14278
7.08143
7.31119
7.74338
8.32567
8.8669
9.07738
8.86807
8.33717
7.6514
6.94885
6.30483
5.75074
5.29612
4.92482
4.62204
4.3887
4.23651
4.16173
4.16182
4.237
4.39396
4.64783
5.0239
5.56108
6.31302
7.34057
8.70988
10.5215
12.9362
16.2346
18.3712
9.54039
26.3527
10.3308
7.77143
7.11521
7.05864
7.2924
7.72766
8.30957
8.84387
9.04043
8.81413
8.27077
7.58015
6.87653
6.23117
5.67684
5.22063
4.84424
4.53112
4.28206
4.10926
4.01164
3.98264
4.02177
4.13308
4.32746
4.62508
5.05947
5.68161
6.55941
7.77543
9.43118
11.6713
14.716
18.8671
15.2015
26.2543
10.2751
7.7357
7.0878
7.03598
7.27365
7.71165
8.29241
8.81851
9.00011
8.75652
8.20171
7.50689
6.8026
6.15639
5.60233
5.14477
4.76389
4.44148
4.17835
3.98756
3.87119
3.81872
3.82913
3.90354
4.04829
4.27742
4.61582
5.10199
5.79545
6.77991
8.1756
10.1517
12.9459
16.9918
23.646
25.8967
22.8801
19.2356
11.5393
12.2118
13.0803
14.0696
13.7135
10.0292
11.652
13.668
15.5098
8.81579
10.5979
13.1554
16.8022
7.91977
9.73125
12.6184
17.7845
7.26133
9.03626
12.1085
18.6022
6.78202
8.50042
11.674
19.3107
6.43062
8.09076
11.3174
19.935
6.16934
7.77675
11.0294
20.4923
5.97172
7.53405
10.7988
20.9948
5.81939
7.34432
10.6149
21.4522
5.69964
7.1941
10.4685
21.8724
5.60363
7.07359
10.352
22.262
5.52515
6.97564
10.2596
22.6266
5.4598
6.89502
10.1864
22.9708
5.40441
6.82789
10.1289
23.2988
5.35668
6.77134
10.0841
23.6142
5.31489
6.72318
10.0498
23.9201
5.27775
6.68172
10.024
24.2192
5.24421
6.64564
10.0054
24.514
5.21348
6.61388
9.99284
24.8069
5.18493
6.58564
9.98538
25.1
5.15814
6.56036
9.98239
25.3953
5.13286
6.53767
9.98353
25.695
5.109
6.5174
9.9887
26.0009
5.08656
6.49953
9.99814
26.3153
5.06564
6.48417
10.0123
26.6405
5.04636
6.47151
10.0321
26.9792
5.02888
6.46182
10.0584
27.3342
5.01337
6.45542
10.0935
27.7094
5.00009
6.45258
10.1385
28.1086
4.98774
6.45054
10.1847
28.5195
4.97624
6.4491
10.2315
28.9435
4.96577
6.44843
10.2791
29.3809
4.95657
6.44878
10.3278
29.8333
4.94894
6.45048
10.3777
30.3017
4.94328
6.45394
10.4293
30.7873
4.94008
6.45967
10.4829
31.291
4.93997
6.46827
10.5391
31.8139
4.94375
6.48044
10.5983
32.357
4.95248
6.4969
10.6612
32.9216
4.96605
6.51838
10.7285
33.5091
4.98484
6.54589
10.8009
34.1208
5.00934
6.58068
10.8795
34.7582
5.0397
6.62427
10.9652
35.4237
5.07525
6.67872
11.059
36.1208
5.11677
6.74001
11.1615
36.8549
5.16429
6.80389
11.275
37.6318
5.21645
6.86796
11.406
38.459
5.27649
6.93517
11.5514
39.3527
5.3534
7.0152
11.6952
40.3327
5.45054
7.11072
11.8352
41.406
5.56986
7.22435
11.9697
42.5651
5.71236
7.35756
12.0855
43.7536
5.87807
7.49724
12.0873
44.7944
6.076
7.69428
12.1539
45.994
6.3332
8.02911
12.4852
48.2741
6.54904
8.35443
12.9831
50.568
6.72816
8.59612
13.5188
53.4016
6.84154
8.76898
16.0112
56.3487
26.1342
10.2066
7.69135
7.05398
7.00817
7.25062
7.69156
8.26985
8.78454
8.94725
8.68359
8.11714
7.41893
6.71507
6.06911
5.51618
5.05769
4.67269
4.34126
4.06489
3.85894
3.72708
3.65766
3.64711
3.69353
3.7993
3.97332
4.23239
4.60219
5.12366
5.8566
6.89416
8.38316
10.5511
13.7956
18.9385
26.0189
10.1397
7.64761
7.02051
6.98063
7.22764
7.67091
8.24544
8.74691
8.88934
8.60588
8.02846
7.32727
6.62394
5.97835
5.42618
4.96642
4.57734
4.23763
3.94928
3.72945
3.58243
3.49977
3.47179
3.49407
3.56577
3.69127
3.87849
4.14351
4.50836
5.00211
5.66168
6.52931
7.64564
9.04149
10.7288
25.9081
10.0746
7.60482
6.98767
6.95361
7.20491
7.64983
8.21932
8.70604
8.8277
8.52565
7.93876
7.23569
6.53362
5.8892
5.33818
4.87764
4.48538
4.13974
3.84326
3.61419
3.45699
3.36623
3.32695
3.33296
3.38141
3.47314
3.6124
3.81043
4.0818
4.44591
4.92823
5.56081
6.38106
7.41715
8.63758
25.8018
10.0113
7.56299
6.95548
6.92709
7.18239
7.62822
8.19138
8.66202
8.7627
8.44341
7.84855
7.14467
6.44464
5.80225
5.25278
4.79196
4.39743
4.0484
3.74782
3.51442
3.35296
3.25683
3.2109
3.20679
3.24004
3.30884
3.41705
3.57236
3.78537
4.07048
4.4473
4.94195
5.58866
6.42619
7.48238
25.6996
9.94984
7.52209
6.92394
6.90106
7.16001
7.60598
8.16154
8.61503
8.69477
8.35968
7.75833
7.05468
6.35749
5.71808
5.17056
4.70998
4.31415
3.9639
3.66321
3.42981
3.26781
3.1693
3.12022
3.11023
3.13329
3.18738
3.27549
3.40311
3.57814
3.81182
4.11986
4.52403
5.05456
5.75216
6.67237
25.6014
9.89021
7.48213
6.89306
6.87549
7.13771
7.58302
8.12975
8.56516
8.6243
8.27493
7.66854
6.96615
6.27262
5.63723
5.09209
4.6322
4.2357
3.88673
3.58985
3.35958
3.19953
3.1007
3.05086
3.03759
3.05422
3.09928
3.1746
3.28416
3.43408
3.63348
3.89543
4.23866
4.69038
5.29123
6.1064
25.5068
9.83243
7.44308
6.86286
6.85036
7.11545
7.55925
8.09592
8.51252
8.5517
8.18964
7.57963
6.87951
6.1905
5.56021
5.01789
4.55914
4.16257
3.81734
3.52733
3.30253
3.14623
3.04912
2.99915
2.98409
2.99727
3.03707
3.10442
3.20217
3.33525
3.51131
3.74164
4.04284
4.43993
4.97247
5.70839
25.4158
9.77648
7.40495
6.83334
6.82565
7.09315
7.53458
8.06007
8.45725
8.47738
8.10424
7.492
6.79515
6.11154
5.48744
4.94841
4.49114
4.09548
3.75564
3.47443
3.257
3.10549
3.011
2.9617
2.94607
2.9578
2.9948
3.05727
3.14726
3.26882
3.42854
3.63645
3.90764
4.2655
4.7483
5.42412
25.3279
9.72237
7.36774
6.80449
6.80133
7.07075
7.50893
8.02219
8.39957
8.40172
8.01912
7.40602
6.71342
6.03608
5.4191
4.88383
4.42792
4.0349
3.7023
3.43073
3.22149
3.07519
2.98374
2.93567
2.92044
2.93197
2.96769
3.02722
3.11201
3.22544
3.3733
3.56468
3.81358
4.14216
4.5875
5.21705
25.243
9.66997
7.33156
6.77632
6.77735
7.04815
7.48226
7.98234
8.33972
8.32511
7.93467
7.32203
6.63466
5.96437
5.35499
4.82416
4.36989
3.9817
3.65756
3.39553
3.19457