/*--------------------------------*- C++ -*----------------------------------*\
| =========                 |                                                 |
| \\      /  F ield         | OpenFOAM: The Open Source CFD Toolbox           |
|  \\    /   O peration     | Version:  v2012                                 |
|   \\  /    A nd           | Website:  www.openfoam.com                      |
|    \\/     M anipulation  |                                                 |
\*---------------------------------------------------------------------------*/
FoamFile
{
    version     2.0;
    format      ascii;
    class       volScalarField;
    location    "621";
    object      p;
}
// * * * * * * * * * * * * * * * * * * * * * * * * * * * * * * * * * * * * * //

dimensions      [0 2 -2 0 0 0 0];


internalField   nonuniform List<scalar> 
6108
(
0.327411
0.327395
0.327456
0.32757
0.327723
0.327902
0.328098
0.328307
0.328524
0.328746
0.328971
0.329198
0.329427
0.329658
0.329893
0.330133
0.330385
0.330697
0.331213
0.331963
0.327401
0.32739
0.327455
0.327574
0.327731
0.327913
0.328114
0.328326
0.328547
0.328773
0.329004
0.329237
0.329473
0.329712
0.329954
0.330199
0.330444
0.330711
0.331022
0.331295
0.327284
0.327296
0.32738
0.327514
0.327682
0.327873
0.328078
0.328294
0.328517
0.328746
0.328979
0.329214
0.329451
0.329692
0.329935
0.330174
0.330406
0.330639
0.330839
0.330934
0.327084
0.327144
0.327266
0.327429
0.327616
0.327819
0.328034
0.328256
0.328483
0.328714
0.328948
0.329183
0.329421
0.32966
0.329898
0.330127
0.330349
0.330561
0.330726
0.330782
0.326821
0.326953
0.327133
0.327333
0.327546
0.327769
0.327996
0.328227
0.32846
0.328694
0.32893
0.329167
0.329405
0.329643
0.329879
0.330106
0.330323
0.330524
0.330673
0.330716
0.326501
0.32673
0.326988
0.327235
0.32748
0.327726
0.327968
0.328208
0.328447
0.328686
0.328925
0.329164
0.329403
0.329642
0.329878
0.330105
0.330323
0.330524
0.330672
0.330716
0.326144
0.326503
0.32685
0.327152
0.327431
0.327697
0.327953
0.328202
0.328448
0.328691
0.328932
0.329173
0.329414
0.329655
0.329895
0.330125
0.330347
0.33056
0.330725
0.330781
0.325835
0.326323
0.326753
0.327098
0.327406
0.327688
0.327955
0.328213
0.328463
0.32871
0.328955
0.329198
0.329441
0.329685
0.329931
0.330171
0.330404
0.330638
0.330838
0.330933
0.325712
0.326261
0.326724
0.327086
0.327405
0.327696
0.327969
0.32823
0.328483
0.328731
0.328976
0.329219
0.329461
0.329704
0.329949
0.330195
0.330441
0.330709
0.33102
0.331294
0.326
0.326338
0.326716
0.327072
0.327389
0.32768
0.327952
0.32821
0.32846
0.328704
0.328944
0.32918
0.329415
0.32965
0.329888
0.33013
0.330382
0.330696
0.331212
0.331962
0.328824
0.328204
0.327783
0.32753
0.328835
0.328204
0.327774
0.327518
0.328644
0.328028
0.327612
0.327376
0.328262
0.327687
0.327306
0.32712
0.327715
0.327201
0.32687
0.326761
0.327045
0.326605
0.326302
0.326293
0.326278
0.325877
0.325512
0.325672
0.325085
0.324705
0.324383
0.324959
0.322906
0.323339
0.323778
0.323863
0.32394
0.325341
0.325422
0.318778
0.779486
0.778315
0.777633
0.777677
0.777536
0.7758
0.769
0.754613
0.734354
0.710372
0.683924
0.655973
0.62729
0.598518
0.570206
0.542817
0.516736
0.492265
0.469631
0.448978
0.430384
0.413852
0.399324
0.386704
0.375862
0.366648
0.358898
0.352442
0.34711
0.342739
0.339193
0.336339
0.334051
0.332229
0.330792
0.329674
0.778948
0.777375
0.777177
0.77798
0.778226
0.775757
0.767172
0.752025
0.732291
0.708845
0.682846
0.655261
0.626866
0.598313
0.570158
0.542873
0.516854
0.492413
0.469785
0.449123
0.430507
0.413946
0.39939
0.386746
0.375886
0.366657
0.358899
0.35244
0.347109
0.342737
0.339194
0.33635
0.334068
0.33225
0.330813
0.329692
0.779256
0.777393
0.777349
0.77783
0.7766
0.771549
0.761027
0.745463
0.72597
0.70306
0.677675
0.650651
0.622736
0.594578
0.566744
0.539724
0.513928
0.489685
0.467241
0.446759
0.428322
0.41194
0.397565
0.385102
0.374419
0.365363
0.357769
0.351465
0.346281
0.342051
0.338631
0.335887
0.333693
0.331944
0.330559
0.329476
0.781265
0.778964
0.778036
0.776451
0.77241
0.764723
0.752792
0.736827
0.717296
0.694704
0.669787
0.643249
0.615776
0.588003
0.560502
0.53378
0.508266
0.484306
0.462159
0.441993
0.423893
0.407866
0.393858
0.381765
0.37145
0.362751
0.355496
0.349508
0.344615
0.340655
0.337478
0.334944
0.332924
0.331315
0.330038
0.329035
0.784327
0.781137
0.778178
0.773878
0.766994
0.75701
0.743642
0.726914
0.707041
0.684445
0.659699
0.633411
0.606208
0.578703
0.551469
0.525028
0.499825
0.476222
0.454485
0.434782
0.417192
0.401712
0.388272
0.376754
0.367005
0.358854
0.352118
0.346614
0.342164
0.338606
0.335788
0.333566
0.331807
0.330404
0.329282
0.328397
0.786789
0.782001
0.776686
0.769702
0.760261
0.748182
0.733283
0.715537
0.695069
0.672192
0.647358
0.6211
0.593997
0.566641
0.539611
0.513438
0.488586
0.465426
0.444226
0.425148
0.408255
0.393523
0.380861
0.370126
0.361146
0.353734
0.347697
0.34284
0.338982
0.335956
0.333613
0.331804
0.330387
0.329253
0.328333
0.327602
0.78695
0.780277
0.77287
0.763453
0.751775
0.737818
0.721426
0.702572
0.681338
0.657967
0.632832
0.606406
0.579236
0.551908
0.525008
0.499086
0.47462
0.451989
0.431458
0.413172
0.397167
0.38339
0.371714
0.361968
0.353954
0.347467
0.342301
0.338248
0.335115
0.33274
0.330981
0.329694
0.328714
0.327924
0.327255
0.326703
0.783733
0.775452
0.766367
0.754929
0.74138
0.725779
0.707985
0.687998
0.665887
0.641854
0.616227
0.589447
0.562049
0.534626
0.507786
0.482101
0.458067
0.436067
0.416351
0.399036
0.38412
0.371504
0.361022
0.352461
0.345593
0.340195
0.336047
0.332922
0.330631
0.329027
0.327971
0.327343
0.326887
0.326447
0.325979
0.325501
0.777422
0.767525
0.757085
0.744075
0.729008
0.711987
0.6929
0.671793
0.648736
0.623917
0.597643
0.570352
0.54259
0.514977
0.488157
0.462734
0.439222
0.417996
0.39928
0.383146
0.369534
0.35829
0.349191
0.34198
0.336393
0.332181
0.329117
0.326953
0.325445
0.324501
0.324098
0.324088
0.324039
0.323772
0.323427
0.323086
0.767902
0.75654
0.745078
0.730891
0.714615
0.696391
0.676141
0.65396
0.629932
0.604247
0.577221
0.54931
0.521102
0.493268
0.466504
0.441453
0.418638
0.398412
0.380948
0.366245
0.354166
0.344481
0.336904
0.331131
0.326868
0.323859
0.321886
0.320703
0.320034
0.319857
0.320123
0.32063
0.321244
0.321964
0.322796
0.32348
0.310128
0.310324
0.307999
0.29789
0.30799
0.307559
0.305822
0.302623
0.307043
0.306548
0.305502
0.304264
0.306507
0.306053
0.305458
0.304867
0.306043
0.305768
0.305411
0.305085
0.305716
0.305551
0.305319
0.305122
0.305435
0.305345
0.305197
0.30508
0.305174
0.305147
0.305066
0.305004
0.304932
0.304962
0.304939
0.304924
0.304712
0.304797
0.304829
0.304862
0.30452
0.304659
0.304745
0.304831
0.304357
0.304551
0.304697
0.304839
0.304226
0.304478
0.304688
0.304892
0.304127
0.304438
0.304719
0.304997
0.304057
0.30443
0.30479
0.305152
0.304013
0.304449
0.304896
0.305353
0.303985
0.304487
0.305028
0.30559
0.303965
0.30453
0.305175
0.305848
0.303938
0.304563
0.305316
0.306104
0.303885
0.304564
0.305428
0.306327
0.303788
0.304508
0.305479
0.306469
0.303629
0.304376
0.305451
0.306497
0.303382
0.304146
0.305337
0.306408
0.302986
0.303763
0.305088
0.306166
0.302433
0.303212
0.304629
0.30574
0.301735
0.302495
0.303918
0.305133
0.300837
0.301574
0.302967
0.304308
0.299679
0.300409
0.301772
0.303221
0.298258
0.299
0.300344
0.301898
0.296584
0.297365
0.298712
0.300364
0.294686
0.295526
0.296875
0.29857
0.29262
0.293523
0.294852
0.296538
0.290462
0.291411
0.292691
0.294334
0.288287
0.289252
0.290467
0.292032
0.286159
0.287109
0.288256
0.289715
0.284146
0.285066
0.286131
0.287462
0.28231
0.283202
0.284165
0.285349
0.280718
0.281564
0.282411
0.283436
0.279404
0.280181
0.280904
0.281767
0.278361
0.279056
0.279661
0.280365
0.277576
0.278184
0.278678
0.279245
0.277028
0.277554
0.277944
0.278399
0.276701
0.277151
0.277453
0.277809
0.276576
0.276961
0.27719
0.277462
0.276636
0.276967
0.277144
0.277346
0.276864
0.277153
0.277293
0.27745
0.277244
0.277504
0.277626
0.277753
0.27776
0.278006
0.278128
0.278241
0.278398
0.278644
0.278785
0.278904
0.279143
0.279406
0.279588
0.279731
0.279982
0.280281
0.280527
0.280715
0.280903
0.281257
0.281596
0.281848
0.281894
0.282325
0.282785
0.283116
0.282942
0.283471
0.284076
0.284491
0.284031
0.284674
0.285431
0.285914
0.285138
0.285898
0.28678
0.287279
0.28622
0.287077
0.288006
0.288421
0.287191
0.288106
0.288939
0.289148
0.287928
0.288836
0.289416
0.289432
0.288226
0.289268
0.289591
0.289501
0.754341
0.742068
0.729955
0.714932
0.697707
0.678461
0.657167
0.633956
0.608941
0.582334
0.554484
0.5259
0.497242
0.469265
0.442733
0.418329
0.396567
0.377748
0.36195
0.349063
0.338836
0.330941
0.325015
0.320702
0.317673
0.315649
0.314392
0.313649
0.313207
0.312976
0.31286
0.312739
0.312629
0.312475
0.312083
0.311075
0.736808
0.72403
0.711654
0.696134
0.678216
0.658141
0.635942
0.611782
0.585814
0.558294
0.529635
0.500443
0.471493
0.443652
0.417766
0.394537
0.374428
0.357624
0.344053
0.333447
0.325421
0.319547
0.315402
0.312605
0.310828
0.309797
0.309284
0.309093
0.309099
0.309181
0.30927
0.309288
0.309272
0.309174
0.308894
0.308382
0.716332
0.703404
0.690994
0.675262
0.656899
0.636213
0.613288
0.588328
0.561533
0.533232
0.503944
0.474411
0.44556
0.418382
0.393776
0.372403
0.354589
0.340329
0.329347
0.321202
0.315389
0.311416
0.308842
0.307303
0.306505
0.306213
0.306252
0.30649
0.30682
0.307153
0.30744
0.307622
0.307737
0.307761
0.307577
0.307279
0.693713
0.68081
0.668486
0.652699
0.634115
0.613021
0.589566
0.563992
0.536569
0.507728
0.478135
0.448707
0.420533
0.394694
0.372069
0.353174
0.338112
0.326634
0.318257
0.312405
0.308506
0.306065
0.304683
0.304053
0.303946
0.30419
0.304637
0.305178
0.305731
0.306238
0.306668
0.306948
0.307052
0.307069
0.306999
0.306798
0.669548
0.656802
0.644632
0.62889
0.610283
0.588976
0.565202
0.539249
0.511474
0.482443
0.453004
0.424259
0.397425
0.373596
0.35352
0.337475
0.325295
0.316495
0.310437
0.306477
0.304056
0.302737
0.302196
0.30219
0.302535
0.303087
0.30373
0.304377
0.304973
0.305479
0.305876
0.306168
0.306346
0.306394
0.306341
0.30622
0.644327
0.631879
0.619905
0.604322
0.585847
0.564523
0.540665
0.51461
0.486828
0.458047
0.429303
0.401858
0.376982
0.355673
0.338454
0.325321
0.315848
0.309374
0.305188
0.302658
0.301293
0.300736
0.300719
0.30105
0.301588
0.302224
0.302886
0.303525
0.304108
0.304612
0.305023
0.305343
0.30558
0.305729
0.305793
0.305788
0.618533
0.606495
0.594787
0.579482
0.561267
0.540124
0.516428
0.490582
0.463184
0.435132
0.407631
0.382037
0.359576
0.341056
0.326722
0.316298
0.309158
0.30455
0.301763
0.300233
0.299552
0.299423
0.29965
0.300099
0.300674
0.301313
0.301971
0.302614
0.303217
0.303761
0.304235
0.304633
0.304955
0.305198
0.305361
0.305439
0.592631
0.581096
0.569743
0.554808
0.536981
0.516214
0.492934
0.467622
0.441009
0.414149
0.388367
0.365032
0.345233
0.329525
0.317878
0.309794
0.304532
0.301318
0.2995
0.298599
0.298288
0.298357
0.298677
0.299164
0.299756
0.300412
0.301096
0.301777
0.302431
0.303038
0.303585
0.30406
0.304456
0.304766
0.304989
0.305124
0.56704
0.556077
0.545157
0.530682
0.513375
0.493176
0.470564
0.4461
0.420642
0.395368
0.371659
0.350814
0.333716
0.32065
0.311349
0.30517
0.301328
0.299087
0.29788
0.297333
0.297209
0.297376
0.297751
0.298274
0.298902
0.299598
0.300328
0.301063
0.301776
0.302445
0.30305
0.30358
0.304026
0.304382
0.30465
0.304831
0.542115
0.531777
0.521355
0.507431
0.490773
0.471322
0.449609
0.426275
0.402281
0.378882
0.357452
0.339158
0.324639
0.313923
0.306567
0.30186
0.299031
0.297423
0.296581
0.296233
0.296222
0.29646
0.296889
0.297461
0.298138
0.298884
0.299666
0.300451
0.301214
0.30193
0.302579
0.30315
0.303635
0.30403
0.304338
0.304563
0.518154
0.50848
0.498609
0.485319
0.469429
0.450885
0.430268
0.40829
0.385983
0.364629
0.345542
0.329724
0.317564
0.308854
0.303044
0.299421
0.297279
0.296069
0.295449
0.295231
0.295306
0.295612
0.296099
0.296726
0.297453
0.298246
0.299073
0.2999
0.300703
0.301457
0.302144
0.302751
0.303273
0.303706
0.304054
0.304322
0.495392
0.486407
0.477132
0.464549
0.449525
0.432018
0.412651
0.392187
0.371694
0.352433
0.335627
0.322125
0.312072
0.305027
0.300398
0.297543
0.295853
0.294896
0.294427
0.294308
0.294459
0.294831
0.295375
0.296052
0.296822
0.297655
0.298518
0.299382
0.300221
0.301012
0.301736
0.302381
0.302941
0.303412
0.3038
0.304111
0.474008
0.465725
0.457078
0.445258
0.431174
0.414799
0.396785
0.377923
0.359276
0.342037
0.327342
0.316003
0.307844
0.302139
0.298369
0.296034
0.294639
0.293854
0.293495
0.293456
0.293676
0.294107
0.294701
0.295418
0.296225
0.297092
0.297989
0.298888
0.299763
0.300591
0.301355
0.30204
0.302638
0.303149
0.303577
0.303932
0.454122
0.446541
0.438541
0.427525
0.414431
0.399245
0.382639
0.365401
0.348539
0.333158
0.320489
0.311162
0.304599
0.299962
0.296796
0.294793
0.293588
0.292922
0.292645
0.292673
0.292953
0.293432
0.294065
0.294816
0.295655
0.296553
0.297483
0.298417
0.299329
0.300197
0.301001
0.301727
0.302366
0.302917
0.303386
0.303783
0.435804
0.428914
0.421566
0.411376
0.399298
0.385327
0.37014
0.354495
0.339306
0.325748
0.315083
0.307373
0.301968
0.298229
0.295565
0.293765
0.292678
0.292092
0.291876
0.291958
0.292284
0.2928
0.293465
0.294246
0.295113
0.296041
0.297002
0.297971
0.298921
0.299829
0.300674
0.301442
0.302123
0.302715
0.303225
0.303665
0.419079
0.412857
0.406158
0.396798
0.385738
0.372981
0.359193
0.345087
0.331489
0.319801
0.310905
0.304326
0.29974
0.296719
0.294528
0.292907
0.291893
0.291359
0.291188
0.291311
0.291671
0.292216
0.292906
0.293711
0.294603
0.295558
0.29655
0.297552
0.298539
0.299487
0.300375
0.301185
0.301908
0.302541
0.30309
0.303572
0.403932
0.398351
0.392282
0.383743
0.373685
0.362116
0.349677
0.337019
0.325018
0.315075
0.307523
0.301824
0.297895
0.295366
0.293583
0.292177
0.291214
0.290717
0.290579
0.290732
0.291117
0.291683
0.292392
0.293217
0.29413
0.295109
0.296128
0.297162
0.298185
0.299172
0.3001
0.300952
0.301716
0.302389
0.302977
0.303498
0.390317
0.385345
0.379881
0.37214
0.36305
0.352625
0.341468
0.330133
0.319708
0.311274
0.304703
0.299764
0.296386
0.294198
0.292722
0.291524
0.290625
0.290159
0.29005
0.290225
0.290627
0.291206
0.291929
0.292768
0.293699
0.294697
0.29574
0.296802
0.297857
0.29888
0.299848
0.30074
0.301544
0.302254
0.302878
0.303435
0.378166
0.373764
0.368875
0.361898
0.353731
0.344389
0.334444
0.324348
0.315335
0.308128
0.302355
0.298072
0.295148
0.293226
0.291949
0.290923
0.290119
0.289686
0.289601
0.289793
0.290205
0.290793
0.291524
0.292371
0.293313
0.294326
0.295387
0.296472
0.297554
0.298609
0.299612
0.300541
0.301381
0.302127
0.302783
0.303371
0.367402
0.363523
0.359172
0.352918
0.345617
0.337283
0.328463
0.319549
0.311732
0.30549
0.300418
0.296686
0.294124
0.292417
0.29127
0.290396
0.289702
0.289301
0.289237
0.289441
0.289858
0.290448
0.29118
0.29203
0.292976
0.293996
0.295068
0.296168
0.297272
0.298353
0.299386
0.300347
0.30122
0.301996
0.302679
0.303291
0.35793
0.354527
0.350674
0.345095
0.338596
0.331182
0.323349
0.315565
0.308805
0.303308
0.298838
0.295558
0.293287
0.291752
0.29071
0.289962
0.289368
0.289004
0.288961
0.289173
0.289591
0.290177
0.290903
0.291748
0.292689
0.293707
0.294781
0.295888
0.297004
0.298103
0.299158
0.300145
0.301046
0.301848
0.302552
0.303179
0.34965
0.346676
0.34328
0.338323
0.33256
0.325983
0.31901
0.312259
0.306428
0.301529
0.297569
0.294659
0.292621
0.29123
0.290281
0.289628
0.289116
0.288799
0.288777
0.288994
0.289408
0.289984
0.290698
0.291528
0.292455
0.29346
0.294524
0.295626
0.296743
0.297848
0.298917
0.299922
0.300844
0.301669
0.302391
0.303022
0.342457
0.33987
0.33689
0.332502
0.32741
0.3216
0.315415
0.309534
0.304461
0.300089
0.29657
0.293966
0.29212
0.290843
0.289977
0.289401
0.288962
0.288692
0.28869
0.28891
0.289314
0.289874
0.290566
0.291371
0.292271
0.29325
0.294291
0.295373
0.296477
0.297575
0.298644
0.299658
0.300598
0.301451
0.30219
0.302807
0.336252
0.334009
0.331407
0.327538
0.32305
0.317937
0.312472
0.307312
0.302852
0.29895
0.29581
0.293461
0.291773
0.290593
0.289796
0.289289
0.288918
0.288693
0.288707
0.288926
0.289315
0.28985
0.29051
0.291278
0.292138
0.293075
0.294075
0.295121
0.296192
0.297266
0.298319
0.299329
0.300286
0.301172
0.301917
0.302483
0.330936
0.329
0.326738
0.323338
0.319391
0.314897
0.310079
0.305529
0.30158
0.298089
0.295269
0.293134
0.29158
0.29048
0.289743
0.289297
0.28899
0.288806
0.288833
0.289045
0.289414
0.289915
0.290532
0.291248
0.292051
0.292929
0.293868
0.294855
0.295872
0.296898
0.297913
0.298901
0.299865
0.300743
0.301439
0.301971
0.326418
0.324752
0.322799
0.319819
0.316353
0.312403
0.308156
0.304132
0.300618
0.297484
0.294933
0.292978
0.291537
0.290507
0.289821
0.289431
0.289183
0.289038
0.289072
0.289273
0.289613
0.29007
0.29063
0.29128
0.292008
0.292804
0.29366
0.294562
0.295498
0.296449
0.297396
0.298334
0.299262
0.300065
0.300696
0.301247
0.322612
0.321178
0.319514
0.316905
0.313864
0.310391
0.306648
0.303078
0.299937
0.297111
0.294791
0.29299
0.291646
0.290677
0.290036
0.289695
0.289505
0.289395
0.289432
0.289614
0.289915
0.290317
0.290806
0.291371
0.292003
0.292695
0.29344
0.294228
0.29505
0.295892
0.296737
0.297595
0.29842
0.299114
0.299722
0.300306
0.319442
0.318219
0.31682
0.314527
0.311861
0.308808
0.305506
0.302332
0.299512
0.296955
0.294834
0.293167
0.291908
0.290992
0.29039
0.290092
0.289958
0.289884
0.289915
0.29007
0.290323
0.290656
0.291059
0.29152
0.292033
0.292594
0.293197
0.293838
0.29451
0.295203
0.295905
0.296636
0.297321
0.297916
0.298516
0.299117
0.316855
0.315886
0.314652
0.312623
0.310289
0.307605
0.30469
0.301862
0.299322
0.297001
0.295055
0.293508
0.292324
0.291456
0.290889
0.290625
0.290548
0.290509
0.290525
0.290642
0.290836
0.291088
0.291386
0.291723
0.292092
0.292492
0.292922
0.293379
0.293861
0.294362
0.294875
0.295428
0.295965
0.296481
0.297059
0.297668
0.314777
0.314037
0.312916
0.311135
0.309096
0.306736
0.304165
0.301644
0.299351
0.297238
0.295448
0.294009
0.292896
0.292073
0.291537
0.291303
0.291277
0.291268
0.291261
0.291331
0.291456
0.291612
0.291789
0.291978
0.292177
0.292385
0.292605
0.292839
0.293089
0.293358
0.293645
0.29398
0.294356
0.294794
0.295343
0.29596
0.31312
0.312497
0.311533
0.310007
0.308234
0.306161
0.3039
0.301655
0.29958
0.297655
0.296009
0.29467
0.293622
0.292842
0.292338
0.292133
0.292145
0.292152
0.292121
0.292137
0.292181
0.292228
0.292264
0.292283
0.292283
0.292267
0.29224
0.292209
0.292185
0.292185
0.292215
0.292308
0.292507
0.292863
0.293385
0.294014
0.311835
0.31127
0.310483
0.309198
0.307663
0.305846
0.303866
0.301876
0.299995
0.298243
0.29673
0.295485
0.2945
0.293762
0.293287
0.293108
0.293147
0.293163
0.293103
0.293059
0.293012
0.292934
0.292812
0.292637
0.292409
0.292135
0.291823
0.291485
0.291148
0.290843
0.290582
0.29043
0.290453
0.29073
0.291229
0.291883
0.310881
0.310381
0.309754
0.308675
0.307353
0.305764
0.304041
0.302286
0.300581
0.29899
0.297602
0.296448
0.295526
0.294829
0.294382
0.294223
0.294282
0.2943
0.294206
0.294094
0.293947
0.293732
0.293432
0.29304
0.292556
0.291988
0.291353
0.290669
0.289992
0.289338
0.288773
0.288395
0.288262
0.288464
0.288952
0.289644
0.310227
0.309808
0.309314
0.308408
0.307277
0.305898
0.304403
0.302857
0.301321
0.299883
0.298617
0.297552
0.296691
0.296036
0.295616
0.295473
0.295543
0.295557
0.295426
0.295242
0.294987
0.294622
0.294128
0.293494
0.292724
0.291829
0.290832
0.28976
0.288718
0.287705
0.286871
0.286283
0.286015
0.286163
0.286654
0.287391
0.309833
0.309503
0.309117
0.308363
0.307406
0.306221
0.304929
0.303573
0.302201
0.300911
0.299763
0.298786
0.297989
0.297377
0.296981
0.296847
0.29692
0.296927
0.296758
0.296499
0.29613
0.295605
0.2949
0.294003
0.292917
0.291662
0.29026
0.28877
0.287355
0.286025
0.28492
0.284156
0.283812
0.283939
0.284452
0.285237
0.309665
0.309414
0.309122
0.308507
0.30771
0.306705
0.305597
0.304419
0.303206
0.302059
0.301027
0.30014
0.299407
0.298838
0.298466
0.298335
0.298402
0.298399
0.298196
0.297863
0.297377
0.296685
0.295755
0.294573
0.293144
0.291493
0.289645
0.287762
0.285912
0.284281
0.283002
0.282124
0.281764
0.281901
0.28244
0.283255
0.30969
0.309502
0.309297
0.30881
0.30816
0.307322
0.306388
0.305377
0.30432
0.303313
0.302397
0.3016
0.300933
0.300407
0.300056
0.299922
0.299972
0.299963
0.299736
0.299331
0.298729
0.297866
0.296699
0.29521
0.293411
0.291326
0.288992
0.286665
0.284454
0.282614
0.281211
0.280302
0.279968
0.280135
0.280691
0.281477
0.309872
0.309739
0.309615
0.309245
0.308732
0.30805
0.307279
0.306429
0.305524
0.304654
0.303855
0.30315
0.30255
0.302068
0.301736
0.301591
0.301612
0.301606
0.301375
0.300903
0.300188
0.299153
0.297739
0.295925
0.29373
0.291172
0.288363
0.285583
0.283077
0.28108
0.279632
0.278774
0.278489
0.278682
0.279224
0.279942
0.31018
0.3101
0.310049
0.309788
0.309401
0.308867
0.30825
0.307555
0.3068
0.306067
0.305384
0.304772
0.304241
0.303803
0.303488
0.303328
0.30331
0.30331
0.303095
0.302577
0.30176
0.300554
0.298884
0.296726
0.29411
0.291058
0.287784
0.28456
0.281823
0.27975
0.278343
0.277574
0.27734
0.277541
0.27803
0.278676
0.31059
0.310558
0.310574
0.310413
0.310145
0.309749
0.309279
0.308734
0.308126
0.307529
0.306964
0.306447
0.305987
0.305594
0.305296
0.305121
0.305063
0.305041
0.304854
0.304346
0.303458
0.302092
0.30015
0.297624
0.294567
0.290983
0.287199
0.283618
0.280745
0.278689
0.277381
0.276698
0.276499
0.276678
0.277104
0.277689
0.311076
0.311089
0.311166
0.311097
0.310941
0.310676
0.310346
0.309946
0.309484
0.309021
0.308574
0.308154
0.307767
0.307421
0.30714
0.306955
0.306866
0.306803
0.306622
0.306155
0.305268
0.303783
0.301558
0.298633
0.295097
0.290904
0.286646
0.282814
0.279895
0.277925
0.276733
0.276112
0.275919
0.276059
0.276433
0.276967
0.311616
0.311668
0.311802
0.311819
0.311767
0.311626
0.311429
0.31117
0.310849
0.31052
0.31019
0.309868
0.309555
0.309255
0.308992
0.308804
0.3087
0.308619
0.308433
0.307981
0.307104
0.30556
0.303086
0.299744
0.295687
0.290911
0.286193
0.28219
0.279304
0.277446
0.276343
0.275756
0.275555
0.275665
0.276002
0.276486
0.312189
0.312275
0.31246
0.312557
0.312603
0.312578
0.312508
0.312383
0.312199
0.311999
0.311785
0.311558
0.311316
0.311061
0.310817
0.310631
0.310526
0.310452
0.310284
0.309844
0.308939
0.307329
0.304646
0.300915
0.296338
0.291097
0.285889
0.28176
0.278953
0.277202
0.27616
0.275593
0.275393
0.275485
0.275787
0.276221
0.312775
0.31289
0.313123
0.313292
0.313429
0.313512
0.313561
0.313563
0.31351
0.313434
0.31333
0.313193
0.313015
0.312799
0.312573
0.312395
0.3123
0.312248
0.312111
0.311697
0.310776
0.309066
0.306182
0.302111
0.297058
0.291388
0.285747
0.281529
0.278807
0.277151
0.276159
0.275615
0.275419
0.275493
0.275762
0.276151
0.313355
0.313496
0.31377
0.314005
0.314225
0.314408
0.314568
0.314688
0.314758
0.314798
0.314795
0.314739
0.314618
0.314433
0.314223
0.314057
0.313982
0.313963
0.313867
0.313487
0.312564
0.310763
0.307704
0.303324
0.297826
0.291756
0.285792
0.281503
0.278847
0.277267
0.276321
0.2758
0.275608
0.275668
0.275909
0.276258
0.313914
0.314076
0.314386
0.31468
0.314974
0.315249
0.315509
0.315738
0.315921
0.316066
0.316154
0.316167
0.316092
0.315932
0.315736
0.315587
0.315541
0.315562
0.315511
0.31516
0.314255
0.312407
0.309219
0.30458
0.298684
0.292251
0.286061
0.281681
0.27905
0.277521
0.276619
0.276123
0.275938
0.275989
0.276207
0.276524
0.314435
0.314614
0.314955
0.3153
0.315661
0.316018
0.316369
0.316695
0.316977
0.317216
0.317382
0.317452
0.317412
0.31727
0.317088
0.316961
0.316951
0.317016
0.316998
0.316664
0.315795
0.313968
0.310717
0.30591
0.299726
0.292936
0.286562
0.282036
0.279388
0.277894
0.277033
0.276566
0.276393
0.276439
0.276641
0.276932
0.314905
0.315096
0.315464
0.315853
0.316271
0.316699
0.31713
0.31754
0.31791
0.318228
0.318458
0.318573
0.318557
0.318429
0.318261
0.31816
0.318189
0.318291
0.31829
0.317982
0.317153
0.315358
0.312135
0.307291
0.300977
0.293859
0.287323
0.282572
0.279851
0.27837
0.277548
0.277113
0.276955
0.277002
0.277193
0.277467
0.315312
0.315512
0.315901
0.316325
0.316792
0.317281
0.317778
0.31826
0.318703
0.319086
0.319366
0.319514
0.319513
0.319392
0.319239
0.319167
0.319231
0.319358
0.319362
0.3191
0.318298
0.3165
0.313386
0.308642
0.302352
0.295038
0.288376
0.283311
0.28044
0.27894
0.278151
0.27775
0.277611
0.277664
0.277849
0.278113
0.315646
0.31585
0.316254
0.316706
0.317213
0.317752
0.318304
0.318844
0.319346
0.319779
0.320095
0.320261
0.320266
0.320149
0.320011
0.319966
0.320058
0.320197
0.320205
0.319972
0.319187
0.317399
0.314422
0.309867
0.30373
0.296446
0.28969
0.284271
0.281165
0.279603
0.278833
0.278467
0.27835
0.278412
0.278595
0.278855
0.315899
0.316103
0.316517
0.316989
0.317525
0.318103
0.318698
0.319282
0.319828
0.320296
0.320633
0.320807
0.32081
0.320694
0.320569
0.320545
0.320652
0.320794
0.320805
0.320576
0.319794
0.318054
0.315215
0.310943
0.305085
0.297958
0.291132
0.285493
0.282061
0.280364
0.279587
0.279254
0.279163
0.279235
0.279419
0.279681
0.316063
0.316262
0.31668
0.317166
0.317723
0.318329
0.318954
0.319569
0.320144
0.320632
0.320978
0.321147
0.321142
0.321024
0.320908
0.320896
0.321007
0.32114
0.321145
0.320903
0.320114
0.318425
0.315725
0.311831
0.306458
0.299747
0.292782
0.287069
0.283188
0.281244
0.280413
0.280104
0.280043
0.280125
0.280311
0.280578
0.316135
0.316323
0.31674
0.317233
0.317802
0.318425
0.319068
0.319701
0.32029
0.320785
0.321126
0.321282
0.321262
0.321138
0.321026
0.321017
0.32112
0.321231
0.321223
0.320959
0.320153
0.318509
0.315941
0.312399
0.307616
0.30161
0.294715
0.288886
0.28459
0.282271
0.281315
0.28101
0.280984
0.281077
0.281261
0.281535
0.316112
0.31629
0.316696
0.317188
0.31776
0.318389
0.319039
0.319676
0.320267
0.320755
0.32108
0.321214
0.321174
0.321042
0.320927
0.320912
0.320996
0.321074
0.321047
0.320758
0.319926
0.318323
0.315891
0.312627
0.308389
0.303037
0.296644
0.290749
0.286307
0.283519
0.282319
0.281971
0.281984
0.282089
0.282264
0.282541
0.315988
0.31616
0.316547
0.317031
0.317597
0.318221
0.318868
0.319497
0.320077
0.320547
0.320845
0.32095
0.320887
0.320742
0.320619
0.320592
0.320648
0.320688
0.32063
0.320306
0.319445
0.317883
0.31558
0.312556
0.308824
0.304186
0.298635
0.292852
0.288282
0.285106
0.283515
0.283024
0.283049
0.283165
0.283315
0.283583
0.315761
0.315926
0.316291
0.316761
0.317313
0.317924
0.318556
0.319167
0.319725
0.320165
0.320429
0.320499
0.32041
0.320249
0.320113
0.320068
0.320093
0.320094
0.319989
0.319614
0.318728
0.317205
0.315022
0.312212
0.308841
0.304885
0.300245
0.295018
0.290348
0.287042
0.285018
0.284292
0.284231
0.284318
0.284415
0.284644
0.31543
0.315586
0.315928
0.31638
0.316911
0.317501
0.318108
0.318692
0.319216
0.319618
0.31984
0.319871
0.319754
0.319573
0.319421
0.319353
0.319342
0.319298
0.319139
0.318705
0.317795
0.31631
0.314247
0.311639
0.308552
0.305076
0.301155
0.296792
0.292299
0.288935
0.286726
0.285803
0.285664
0.285618
0.285555
0.285686
0.314999
0.315144
0.315463
0.315892
0.316395
0.316955
0.31753
0.318077
0.31856
0.318914
0.319089
0.31908
0.318931
0.318727
0.318553
0.318458
0.318406
0.318313
0.318093
0.317598
0.316663
0.315215
0.313266
0.310857
0.308046
0.304944
0.301669
0.298152
0.294385
0.290883
0.288409
0.287304
0.287418
0.287209
0.286699
0.286603
0.314473
0.314605
0.314899
0.3153
0.31577
0.316295
0.31683
0.317331
0.317764
0.318066
0.318189
0.318135
0.317953
0.317722
0.317523
0.317394
0.317296
0.317148
0.316864
0.316308
0.315347
0.313933
0.31209
0.309868
0.307319
0.304532
0.301698
0.298915
0.296074
0.293217
0.290465
0.288774
0.289095
0.289209
0.28794
0.287139
0.313857
0.313975
0.314242
0.314612
0.315045
0.315527
0.316015
0.316464
0.31684
0.317083
0.31715
0.31705
0.316831
0.316569
0.31634
0.316173
0.316025
0.315818
0.315469
0.314856
0.313868
0.312482
0.310734
0.308681
0.306381
0.303903
0.301403
0.29909
0.297001
0.295047
0.293093
0.291159
0.290723
0.291502
0.28946
0.286269
0.313236
0.313343
0.31358
0.313919
0.314313
0.314754
0.315195
0.315591
0.31591
0.316094
0.316108
0.315964
0.315712
0.315422
0.315163
0.314958
0.314762
0.314501
0.314095
0.313433
0.312425
0.311063
0.309389
0.307471
0.305375
0.303165
0.300982
0.299034
0.29742
0.296168
0.295036
0.293679
0.293105
0.293947
0.29078
0.283495
0.312639
0.312737
0.312942
0.313253
0.313612
0.314013
0.31441
0.314756
0.31502
0.315148
0.315113
0.314931
0.31465
0.314334
0.314047
0.313807
0.313567
0.313258
0.312802
0.3121
0.311076
0.309733
0.308122
0.306313
0.304376
0.30238
0.300479
0.298885
0.297676
0.296898
0.296388
0.295683
0.295582
0.297131
0.291743
0.282709
0.311993
0.312083
0.312263
0.312545
0.312867
0.313225
0.313574
0.313867
0.314073
0.314144
0.314059
0.313837
0.313524
0.313179
0.312861
0.312582
0.312297
0.311939
0.311435
0.310695
0.309657
0.308334
0.306781
0.305074
0.303283
0.301481
0.299847
0.298602
0.297802
0.297468
0.297512
0.297771
0.298951
0.301618
0.296058
0.281229
0.351016
0.369232
0.375247
0.374988
0.350999
0.365718
0.373341
0.374259
0.346847
0.359715
0.368499
0.37133
0.341619
0.352409
0.360922
0.364955
0.335857
0.344775
0.352276
0.356293
0.329881
0.33714
0.343363
0.346889
0.323964
0.329806
0.33477
0.337666
0.318307
0.322972
0.326836
0.329106
0.313028
0.316735
0.319697
0.321419
0.308188
0.311127
0.313377
0.314649
0.303809
0.306141
0.30784
0.308757
0.299891
0.301745
0.303023
0.303668
0.296418
0.297898
0.298858
0.299299
0.293367
0.294555
0.295275
0.295566
0.290712
0.291673
0.292213
0.292395
0.288423
0.28921
0.289616
0.289721
0.286477
0.287128
0.287435
0.287487
0.284848
0.285396
0.285629
0.285647
0.283514
0.283983
0.284163
0.284162
0.282452
0.282863
0.283007
0.282997
0.281639
0.282012
0.282134
0.282126
0.281058
0.281411
0.281525
0.281528
0.280692
0.281044
0.281162
0.281187
0.280532
0.280902
0.281037
0.281093
0.280575
0.280978
0.281144
0.28124
0.280821
0.281275
0.281484
0.281628
0.281278
0.281796
0.282059
0.282258
0.281954
0.282548
0.282876
0.283139
0.282859
0.283538
0.283939
0.284283
0.284002
0.284778
0.285265
0.285691
0.28539
0.286277
0.286862
0.287378
0.287032
0.288048
0.288743
0.289359
0.288943
0.290104
0.290918
0.291663
0.291139
0.292463
0.293415
0.294301
0.293637
0.295143
0.296252
0.297295
0.296455
0.298166
0.299452
0.300672
0.299613
0.301551
0.303037
0.304458
0.303133
0.305321
0.307034
0.30868
0.307044
0.309501
0.311467
0.313367
0.311375
0.314113
0.316359
0.318544
0.316121
0.319166
0.321728
0.324235
0.321284
0.32467
0.327592
0.330466
0.3269
0.330648