/*--------------------------------*- C++ -*----------------------------------*\
| =========                 |                                                 |
| \\      /  F ield         | OpenFOAM: The Open Source CFD Toolbox           |
|  \\    /   O peration     | Version:  v2012                                 |
|   \\  /    A nd           | Website:  www.openfoam.com                      |
|    \\/     M anipulation  |                                                 |
\*---------------------------------------------------------------------------*/
FoamFile
{
    version     2.0;
    format      ascii;
    class       surfaceScalarField;
    location    "621";
    object      phi;
}
// * * * * * * * * * * * * * * * * * * * * * * * * * * * * * * * * * * * * * //

dimensions      [0 3 -1 0 0 0 0];
oriented        oriented;


internalField   nonuniform List<scalar> 
11989
(
-0.000198524
1.22091e-07
0.000198401
-0.000198626
1.02834e-07
-0.000198715
8.88183e-08
-0.000198794
7.90832e-08
-0.000198867
7.26176e-08
-0.000198935
6.86104e-08
-0.000199002
6.64152e-08
-0.000199067
6.55802e-08
-0.000199133
6.56849e-08
-0.0001992
6.67223e-08
-0.000199268
6.8566e-08
-0.00019934
7.11618e-08
-0.000199414
7.45032e-08
-0.000199493
7.8558e-08
-0.000199576
8.31653e-08
-0.000199664
8.7861e-08
-0.000199755
9.16948e-08
-0.00019985
9.47141e-08
-0.000199942
9.21208e-08
5.77867e-08
-0.000199848
1.82163e-07
0.000199788
-0.000199891
1.45046e-07
-0.00019992
1.1836e-07
-0.000199941
9.98641e-08
-0.000199956
8.74344e-08
-0.000199967
7.94766e-08
-0.000199975
7.46967e-08
-0.000199982
7.23064e-08
-0.000199987
7.14108e-08
-0.000199993
7.19435e-08
-0.000199998
7.36616e-08
-0.000200003
7.63901e-08
-0.000200009
8.0031e-08
-0.000200014
8.44235e-08
-0.00020002
8.91194e-08
-0.000200026
9.32196e-08
-0.00020003
9.57934e-08
-0.00020003
9.50532e-08
-0.000200019
8.10251e-08
3.87655e-08
-0.000200228
2.19821e-07
0.000200191
-0.000200249
1.65837e-07
-0.000200258
1.2757e-07
-0.00020026
1.01242e-07
-0.000200256
8.35142e-08
-0.000200248
7.2032e-08
-0.000200238
6.46833e-08
-0.000200226
6.04352e-08
-0.000200213
5.8269e-08
-0.000200199
5.77588e-08
-0.000200184
5.85024e-08
-0.000200168
6.02568e-08
-0.000200151
6.28587e-08
-0.000200132
6.61286e-08
-0.000200113
6.95509e-08
-0.000200091
7.17457e-08
-0.000200068
7.23951e-08
-0.000200042
6.89698e-08
-0.000200016
5.46923e-08
2.3223e-08
-0.000200408
2.41007e-07
0.000200387
-0.000200414
1.71708e-07
-0.00020041
1.23651e-07
-0.0002004
9.08545e-08
-0.000200385
6.90667e-08
-0.000200368
5.4912e-08
-0.000200349
4.54637e-08
-0.000200328
3.952e-08
-0.000200306
3.59866e-08
-0.000200282
3.41511e-08
-0.000200257
3.35244e-08
-0.000200231
3.37961e-08
-0.000200202
3.47547e-08
-0.000200173
3.61907e-08
-0.000200141
3.76825e-08
-0.000200107
3.85137e-08
-0.000200073
3.83348e-08
-0.00020004
3.54968e-08
-0.000200012
2.70766e-08
1.0918e-08
-0.000200506
2.44655e-07
0.000200503
-0.000200498
1.63292e-07
-0.000200483
1.08723e-07
-0.000200464
7.18203e-08
-0.000200442
4.75141e-08
-0.000200419
3.18259e-08
-0.000200395
2.11018e-08
-0.000200369
1.3986e-08
-0.000200343
9.26983e-09
-0.000200315
6.1427e-09
-0.000200285
4.06185e-09
-0.000200254
2.67696e-09
-0.000200221
1.75858e-09
-0.000200186
1.15346e-09
-0.000200149
7.58246e-10
-0.000200111
4.95361e-10
-0.000200073
3.13453e-10
-0.000200038
1.87126e-10
-0.000200011
9.77762e-11
3.24007e-11
-0.000200553
2.26913e-07
0.000200571
-0.000200529
1.39456e-07
-0.000200503
8.24607e-08
-0.000200477
4.58642e-08
-0.000200451
2.17273e-08
-0.000200425
5.62867e-09
-0.000200399
-5.28139e-09
-0.000200372
-1.28682e-08
-0.000200344
-1.83215e-08
-0.000200316
-2.24438e-08
-0.000200286
-2.57821e-08
-0.000200255
-2.86949e-08
-0.000200221
-3.14054e-08
-0.000200186
-3.39966e-08
-0.000200149
-3.62392e-08
-0.000200111
-3.75684e-08
-0.000200073
-3.77381e-08
-0.000200038
-3.51427e-08
-0.000200011
-2.68959e-08
-1.08586e-08
-0.000200544
1.77407e-07
0.000200593
-0.000200505
1.00473e-07
-0.000200469
4.68043e-08
-0.000200439
1.52765e-08
-0.000200411
-5.96072e-09
-0.000200385
-2.03357e-08
-0.00020036
-3.03101e-08
-0.000200335
-3.75589e-08
-0.000200311
-4.31286e-08
-0.000200285
-4.77327e-08
-0.000200259
-5.1873e-08
-0.000200232
-5.58904e-08
-0.000200203
-5.9995e-08
-0.000200173
-6.42593e-08
-0.000200141
-6.83203e-08
-0.000200108
-7.09328e-08
-0.000200074
-7.18838e-08
-0.00020004
-6.86686e-08
-0.000200012
-5.45555e-08
-2.31787e-08
-0.000200442
8.43287e-08
0.000200535
-0.000200391
4.92364e-08
-0.00020035
6.05925e-09
-0.00020032
-1.49075e-08
-0.000200296
-3.04171e-08
-0.000200275
-4.13086e-08
-0.000200256
-4.92271e-08
-0.000200238
-5.52595e-08
-0.000200221
-6.01859e-08
-0.000200204
-6.45597e-08
-0.000200187
-6.87903e-08
-0.00020017
-7.31801e-08
-0.000200152
-7.79245e-08
-0.000200133
-8.30458e-08
-0.000200113
-8.82093e-08
-0.000200092
-9.26236e-08
-0.000200068
-9.54194e-08
-0.000200042
-9.48146e-08
-0.000200016
-8.09555e-08
-3.87445e-08
-0.000200122
-7.66248e-08
0.000200283
-0.000200066
-6.75302e-09
-0.000200036
-2.44399e-08
-0.000200018
-3.32477e-08
-0.000200007
-4.13926e-08
-0.0002
-4.75916e-08
-0.000199997
-5.23508e-08
-0.000199996
-5.61857e-08
-0.000199997
-5.95172e-08
-0.000199999
-6.26685e-08
-0.000200002
-6.58941e-08
-0.000200006
-6.94018e-08
-0.00020001
-7.33496e-08
-0.000200015
-7.78033e-08
-0.000200021
-8.26695e-08
-0.000200026
-8.75391e-08
-0.00020003
-9.1489e-08
-0.00020003
-9.45756e-08
-0.000200019
-9.21066e-08
-5.77811e-08
-0.000198823
0.000198747
-0.00019883
-0.000198854
-0.000198888
-0.000198929
-0.000198977
-0.000199029
-0.000199085
-0.000199145
-0.000199207
-0.000199273
-0.000199343
-0.000199416
-0.000199494
-0.000199577
-0.000199664
-0.000199756
-0.00019985
-0.000199942
-0.000197855
2.63798e-07
0.000197591
-0.000198073
2.18822e-07
-0.000198254
1.80223e-07
1.47792e-07
-0.000199436
4.58828e-07
0.000199241
-0.000199588
3.71475e-07
-0.000199704
2.95957e-07
2.32262e-07
-0.000199904
6.301e-07
0.000199733
-0.000200034
5.02009e-07
-0.000200129
3.90027e-07
2.94395e-07
-0.000200141
7.86703e-07
0.000199985
-0.000200259
6.19572e-07
-0.00020034
4.71054e-07
3.41181e-07
-0.000200288
9.34173e-07
0.00020014
-0.000200397
7.28973e-07
-0.00020047
5.43457e-07
3.74371e-07
-0.000200367
1.08381e-06
0.000200218
-0.000200476
8.37961e-07
-0.000200549
6.15741e-07
3.96858e-07
-0.000200345
1.27214e-06
0.000200157
-0.00020048
9.7302e-07
-0.000200581
7.15996e-07
4.09641e-07
-0.000200057
1.63057e-06
0.000199698
-0.00020031
1.22639e-06
-0.000200512
9.1778e-07
4.32887e-07
-0.000198712
2.61492e-06
0.000197728
-0.000199425
1.93948e-06
-0.000199874
1.36651e-06
8.42631e-07
-0.00018831
0.000184794
6.13144e-06
-0.000191543
5.17216e-06
-0.000193862
3.68601e-06
5.72691e-06
7.19916e-06
-7.19916e-06
8.95439e-06
-1.75524e-06
6.24874e-06
2.70565e-06
4.52818e-07
5.79591e-06
-9.39641e-06
9.84923e-06
-2.39739e-05
1.45775e-05
-4.08995e-05
1.69255e-05
-5.7339e-05
1.64395e-05
-7.22922e-05
1.49532e-05
-8.59363e-05
1.36441e-05
-9.84255e-05
1.24892e-05
-0.000109865
1.14398e-05
-0.000120335
1.04698e-05
-0.000129895
9.5601e-06
-0.000138593
8.69813e-06
-0.00014647
7.87665e-06
-0.000153563
7.09258e-06
-0.000159909
6.34593e-06
-0.000165547
5.63877e-06
-0.000170522
4.97439e-06
-0.000174878
4.35667e-06
-0.000178668
3.78932e-06
-0.00018194
3.27244e-06
-0.000184745
2.80502e-06
-0.000187132
2.38719e-06
-0.00018915
2.01777e-06
-0.000190845
1.6947e-06
-0.00019226
1.41524e-06
-0.000193437
1.17661e-06
-0.000194413
9.76046e-07
-0.00019522
8.06761e-07
-0.000195885
6.65695e-07
-0.000196436
5.51074e-07
-0.000196894
4.57278e-07
-0.000197274
3.80368e-07
3.1683e-07
4.18364e-06
-1.13828e-05
2.23681e-06
1.91588e-07
-4.20537e-06
9.14783e-06
-1.56637e-05
1.72543e-05
-3.07392e-05
2.49247e-05
-4.61145e-05
2.99528e-05
-6.00723e-05
3.08834e-05
-7.30205e-05
2.93876e-05
-8.55143e-05
2.74471e-05
-9.73375e-05
2.54673e-05
-0.000108394
2.35456e-05
-0.000118676
2.17223e-05
-0.000128194
1.99874e-05
-0.000136959
1.83256e-05
-0.000144986
1.67251e-05
-0.00015229
1.51802e-05
-0.000158888
1.3691e-05
-0.000164805
1.22624e-05
-0.000170068
1.09018e-05
-0.000174712
9.6181e-06
-0.000178774
8.41946e-06
-0.000182297
7.31209e-06
-0.000185325
6.30039e-06
-0.000187907
5.38675e-06
-0.000190091
4.57108e-06
-0.000191924
3.85107e-06
-0.000193452
3.22261e-06
-0.000194717
2.68006e-06
-0.000195757
2.21656e-06
-0.000196605
1.82467e-06
-0.000197297
1.49823e-06
-0.000197861
1.22974e-06
-0.00019832
1.01006e-06
-0.000198693
8.3059e-07
-0.000198996
6.83301e-07
5.61232e-07
-9.73507e-07
-1.04093e-05
-7.07123e-06
6.28931e-06
-1.72412e-05
1.93178e-05
-3.05862e-05
3.05993e-05
-4.4516e-05
3.88545e-05
-5.7186e-05
4.26227e-05
-6.88556e-05
4.2553e-05
-8.02708e-05
4.08028e-05
-9.14405e-05
3.86168e-05
-0.000102197
3.62237e-05
-0.000112446
3.37948e-05
-0.00012212
3.13958e-05
-0.000131174
2.90419e-05
-0.000139582
2.67338e-05
-0.000147328
2.44709e-05
-0.000154405
2.2257e-05
-0.000160815
2.01013e-05
-0.000166571
1.80178e-05
-0.000171692
1.60228e-05
-0.000176207
1.41332e-05
-0.000180151
1.2364e-05
-0.000183567
1.07273e-05
-0.000186498
9.23145e-06
-0.000188992
7.88063e-06
-0.000191095
6.67503e-06
-0.000192856
5.61135e-06
-0.000194317
4.68353e-06
-0.00019552
3.88326e-06
-0.000196504
3.20063e-06
-0.000197305
2.62531e-06
-0.000197953
2.14689e-06
-0.000198477
1.75347e-06
-0.000198899
1.4326e-06
-0.00019924
1.17139e-06
-0.000199514
9.57318e-07
7.79629e-07
-6.23475e-06
-4.17455e-06
-1.55694e-05
1.56239e-05
-2.75356e-05
3.1284e-05
-4.04734e-05
4.35372e-05
-5.25258e-05
5.09068e-05
-6.34254e-05
5.35224e-05
-7.39587e-05
5.30863e-05
-8.44954e-05
5.13395e-05
-9.48915e-05
4.9013e-05
-0.000105023
4.63549e-05
-0.000114785
4.35574e-05
-0.00012409
4.07002e-05
-0.000132868
3.78204e-05
-0.00014107
3.49361e-05
-0.000148661
3.20616e-05
-0.000155618
2.92142e-05
-0.000161933
2.64158e-05
-0.000167607
2.36925e-05
-0.000172657
2.10725e-05
-0.000177107
1.85828e-05
-0.00018099
1.62472e-05
-0.000184347
1.40844e-05
-0.000187223
1.2107e-05
-0.000189663
1.03215e-05
-0.000191717
8.72838e-06
-0.000193429
7.32354e-06
-0.000194844
6.09901e-06
-0.000196005
5.04388e-06
-0.00019695
4.14507e-06
-0.000197713
3.38866e-06
-0.000198326
2.76038e-06
-0.000198818
2.24527e-06
-0.000199213
1.82712e-06
-0.00019953
1.48824e-06
-0.000199783
1.21125e-06
9.81068e-07
-1.01582e-05
5.9836e-06
-2.17569e-05
2.72227e-05
-3.4273e-05
4.38001e-05
-4.62883e-05
5.55525e-05
-5.70874e-05
6.17059e-05
-6.71647e-05
6.35997e-05
-7.71587e-05
6.30803e-05
-8.71813e-05
6.13621e-05
-9.71147e-05
5.89464e-05
-0.000106861
5.61013e-05
-0.000116315
5.30116e-05
-0.000125384
4.97685e-05
-0.000133987
4.64241e-05
-0.000142063
4.30118e-05
-0.000149562
3.95605e-05
-0.00015645
3.61023e-05
-0.000162709
3.26745e-05
-0.000168335
2.93183e-05
-0.000173338
2.60759e-05
-0.000177742
2.29868e-05
-0.00018158
2.0085e-05
-0.000184892
1.73967e-05
-0.000187724
1.4939e-05
-0.000190124
1.27208e-05
-0.000192138
1.07428e-05
-0.000193814
8.99957e-06
-0.000195196
7.48101e-06
-0.000196326
6.17351e-06
-0.000197241
5.06064e-06
-0.000197977
4.12477e-06
-0.000198565
3.3482e-06
-0.000199033
2.71359e-06
-0.000199408
2.20144e-06
-0.000199708
1.78865e-06
-0.000199949
1.45227e-06
1.17217e-06
-1.27638e-05
1.87474e-05
-2.56878e-05
4.01467e-05
-3.81527e-05
5.6265e-05
-4.94126e-05
6.68124e-05
-5.95948e-05
7.18881e-05
-6.93594e-05
7.33643e-05
-7.90983e-05
7.28192e-05
-8.8834e-05
7.10977e-05
-9.84949e-05
6.86073e-05
-0.000108002
6.56085e-05
-0.00011726
6.22695e-05
-0.000126176
5.8685e-05
-0.000134667
5.49151e-05
-0.00014266
5.10042e-05
-0.000150095
4.69952e-05
-0.000156929
4.29363e-05
-0.000163136
3.88822e-05
-0.00016871
3.48923e-05
-0.00017366
3.10257e-05
-0.00017801
2.73367e-05
-0.000181796
2.38706e-05
-0.00018506
2.06612e-05
-0.000187852
1.77304e-05
-0.000190219
1.50882e-05
-0.00019221
1.27343e-05
-0.000193872
1.0661e-05
-0.000195246
8.85528e-06
-0.000196373
7.30063e-06
-0.00019729
5.97719e-06
-0.000198029
4.86356e-06
-0.000198619
3.93888e-06
-0.00019909
3.18472e-06
-0.000199469
2.57969e-06
-0.000199774
2.09426e-06
-0.000200021
1.69919e-06
1.36865e-06
-1.43017e-05
3.30491e-05
-2.77977e-05
5.36427e-05
-4.00124e-05
6.84797e-05
-5.08386e-05
7.76386e-05
-6.08029e-05
8.18524e-05
-7.04797e-05
8.30411e-05
-8.0101e-05
8.24406e-05
-8.96809e-05
8.06776e-05
-9.91807e-05
7.81071e-05
-0.000108536
7.49642e-05
-0.000117663
7.13962e-05
-0.000126471
6.74925e-05
-0.00013487
6.33144e-05
-0.00014278
5.8914e-05
-0.000150132
5.43475e-05
-0.000156877
4.96811e-05
-0.000162985
4.4991e-05
-0.000168451
4.03583e-05
-0.000173289
3.5863e-05
-0.000177529
3.15764e-05
-0.000181214
2.75563e-05
-0.000184397
2.3844e-05
-0.00018713
2.04639e-05
-0.000189467
1.74252e-05
-0.000191457
1.47239e-05
-0.000193143
1.23468e-05
-0.000194563
1.02755e-05
-0.000195752
8.48991e-06
-0.000196743
6.96746e-06
-0.000197561
5.68171e-06
-0.000198231
4.60931e-06
-0.000198778
3.73149e-06
-0.000199228
3.03005e-06
-0.000199601
2.46733e-06
-0.000199909
2.00653e-06
1.61691e-06
-1.51672e-05
4.82162e-05
-2.8634e-05
6.71096e-05
-4.05631e-05
8.04087e-05
-5.11878e-05
8.82632e-05
-6.11174e-05
9.1782e-05
-7.07859e-05
9.27096e-05
-8.03503e-05
9.20049e-05
-8.98385e-05
9.01659e-05
-9.92312e-05
8.74998e-05
-0.000108474
8.42071e-05
-0.000117488
8.04101e-05
-0.00012618
7.61849e-05
-0.000134454
7.15884e-05
-0.000142218
6.66779e-05
-0.000149395
6.15243e-05
-0.00015593
5.62159e-05
-0.000161795
5.08562e-05
-0.000166992
4.55551e-05
-0.000171548
4.04186e-05
-0.00017551
3.55389e-05
-0.000178942
3.09879e-05
-0.000181911
2.68135e-05
-0.000184488
2.30404e-05
-0.000186735
1.96726e-05
-0.000188709
1.66976e-05
-0.000190453
1.40912e-05
-0.000192
1.18227e-05
-0.000193371
9.86033e-06
-0.000194582
8.17841e-06
-0.000195648
6.74742e-06
-0.00019658
5.54181e-06
-0.000197384
4.53562e-06
-0.000198089
3.73448e-06
-0.00019871
3.08828e-06
-0.000199247
2.54386e-06
2.06847e-06
-1.53679e-05
6.35841e-05
-2.86104e-05
8.03521e-05
-4.02924e-05
9.20907e-05
-5.08242e-05
9.87951e-05
-6.07665e-05
0.000101724
-7.04348e-05
0.000102378
-7.99547e-05
0.000101525
-8.93662e-05
9.95774e-05
-9.86585e-05
9.6792e-05
-0.000107779
9.33278e-05
-0.000116645
8.92762e-05
-0.000125153
8.46927e-05
-0.00013319
7.96251e-05
-0.000140647
7.41352e-05
-0.000147435
6.8312e-05
-0.000153493
6.22739e-05
-0.000158798
5.61618e-05
-0.000163368
5.01247e-05
-0.000167253
4.43038e-05
-0.000170533
3.88185e-05
-0.000173302
3.37575e-05
-0.000175664
2.91752e-05
-0.000177718
2.50944e-05
-0.000179556
2.15107e-05
-0.000181257
1.83989e-05
-0.000182886
1.57195e-05
-0.000184487
1.34247e-05
-0.000186092
1.1465e-05
-0.000187706
9.79266e-06
-0.000189306
8.34731e-06
-0.000190871
7.10693e-06
-0.000192378
6.0426e-06
-0.000193844
5.20022e-06
-0.000195264
4.50781e-06
-0.000196576
3.85579e-06
3.22043e-06
-1.5026e-05
7.86102e-05
-2.80101e-05
9.33362e-05
-3.94951e-05
0.000103576
-4.99581e-05
0.000109258
-5.98895e-05
0.000111656
-6.95274e-05
0.000112016
-7.89802e-05
0.000110978
-8.82902e-05
0.000108888
-9.74449e-05
0.000105947
-0.000106382
0.000102265
-0.000115002
9.78956e-05
-0.000123174
9.28649e-05
-0.000130757
8.72076e-05
-0.000137613
8.09913e-05
-0.000143632
7.4331e-05
-0.000148746
6.73885e-05
-0.000152942
6.0358e-05
-0.00015626
5.34422e-05
-0.000158784
4.68279e-05
-0.000160632
4.06662e-05
-0.000161936
3.50621e-05
-0.000162834
3.00734e-05
-0.000163456
2.57164e-05
-0.000163921
2.19749e-05
-0.000164332
1.88107e-05
-0.000164785
1.61723e-05
-0.000165363
1.40028e-05
-0.000166147
1.22482e-05
-0.000167238
1.0884e-05
-0.000168688
9.79739e-06
-0.000170515
8.93368e-06
-0.000172706
8.23385e-06
-0.000175258
7.75173e-06
-0.000178177
7.42668e-06
-0.000181389
7.06775e-06
6.62555e-06
-6.77494e-05
-6.8623e-06
8.07431e-05
-5.36498e-05
-8.92736e-06
-3.53833e-05
-1.45806e-05
-2.96563e-05
-9.82357e-06
-1.52234e-05
1.81847e-05
-2.00416e-06
-1.67468e-05
3.46051e-06
-2.00453e-05
-2.61958e-05
-5.82569e-07
-1.83242e-05
3.68334e-06
1.86987e-06
-1.91992e-05
2.71156e-06
-2.08869e-05
-2.34843e-05
-4.60384e-07
-1.96948e-05
1.83099e-06
6.38022e-07
-2.02976e-05
9.98233e-07
-2.12472e-05
-2.2486e-05
-8.93747e-07
-2.0704e-05
1.90291e-06
-6.68572e-08
-2.11245e-05
3.55904e-07
-2.16699e-05
-2.21301e-05
-1.15266e-06
-2.15809e-05
2.02959e-06
-4.33522e-07
-2.18436e-05
6.43311e-09
-2.21099e-05
-2.21237e-05
-1.2202e-06
-2.23688e-05
2.0081e-06
-5.80911e-07
-2.24829e-05
-1.46697e-07
-2.25441e-05
-2.22704e-05
-1.13821e-06
-2.30696e-05
1.83899e-06
-5.82941e-07
-2.30382e-05
-1.94062e-07
-2.2933e-05
-2.24645e-05
-9.4205e-07
-2.36759e-05
1.54834e-06
-4.81438e-07
-2.34988e-05
-1.66753e-07
-2.32477e-05
-2.26312e-05
-6.56003e-07
-2.41783e-05
1.15844e-06
-3.02801e-07
-2.3852e-05
-8.62826e-08
-2.34642e-05
-2.27175e-05
-2.95931e-07
-2.45671e-05
6.84675e-07
-6.42792e-08
-2.40837e-05
2.9549e-08
-2.3558e-05
-2.26879e-05
1.28303e-07
-2.48322e-05
1.36825e-07
2.24327e-07
-2.41797e-05
1.75438e-07
-2.35091e-05
-2.25125e-05
6.10383e-07
-2.49636e-05
-4.78946e-07
5.56241e-07
-2.41255e-05
3.41911e-07
-2.32948e-05
-2.21706e-05
1.14637e-06
-2.49517e-05
-1.15834e-06
9.29756e-07
-2.39089e-05
5.37161e-07
-2.29022e-05
-2.16334e-05
1.73338e-06
-2.47868e-05
-1.89825e-06
1.34174e-06
-2.35173e-05
7.53636e-07
-2.23141e-05
-2.08798e-05
2.36938e-06
-2.44599e-05
-2.69624e-06
1.79067e-06
-2.29386e-05
9.90942e-07
-2.15143e-05
-1.98888e-05
3.05222e-06
-2.39625e-05
-3.54966e-06
2.27537e-06
-2.21617e-05
1.24962e-06
-2.04886e-05
-1.86392e-05
3.77875e-06
-2.32864e-05
-4.45481e-06
2.79381e-06
-2.11768e-05
1.52939e-06
-1.92242e-05
-1.71098e-05
4.54373e-06
-2.24241e-05
-5.40605e-06
3.34203e-06
-1.99751e-05
1.82908e-06
-1.77112e-05
-1.52808e-05
5.33831e-06
-2.13678e-05
-6.39464e-06
3.91244e-06
-1.85492e-05
2.14555e-06
-1.59443e-05
-1.31352e-05
6.14749e-06
-2.01082e-05
-7.40703e-06
4.48995e-06
-1.68917e-05
2.47008e-06
-1.39245e-05
-1.06651e-05
6.94704e-06
-1.86319e-05
-8.42341e-06
5.04399e-06
-1.49886e-05
2.77215e-06
-1.16526e-05
-7.89297e-06
7.70386e-06
-1.6919e-05
-9.41667e-06
5.52964e-06
-1.28144e-05
2.97713e-06
-9.10012e-06
-4.91584e-06
8.38385e-06
-1.49507e-05
-1.03522e-05
5.94121e-06
-1.03718e-05
3.10632e-06
-6.26523e-06
-1.80952e-06
8.99837e-06
-1.26908e-05
-1.12583e-05
6.3112e-06
-7.6846e-06
3.24308e-06
-3.19711e-06
1.43356e-06
9.60162e-06
-1.01329e-05
-1.21595e-05
6.67884e-06
-4.76183e-06
3.43583e-06
4.59046e-08
4.86938e-06
1.01779e-05
-7.31792e-06
-1.2993e-05
7.01744e-06
-1.60133e-06
3.60553e-06
3.45781e-06
8.47491e-06
1.06573e-05
-4.30242e-06
-1.36728e-05
7.3182e-06
1.73776e-06
3.79339e-06
6.98262e-06
1.22683e-05
1.09493e-05
-1.13116e-06
-1.41205e-05
7.51339e-06
5.17364e-06
3.93321e-06
1.05628e-05
1.62015e-05
1.10002e-05
2.14496e-06
-1.42763e-05
7.52919e-06
8.6446e-06
3.92642e-06
1.41656e-05
2.01279e-05
1.07955e-05
5.44702e-06
-1.40976e-05
7.3756e-06
1.20645e-05
3.82851e-06
1.77127e-05
2.39564e-05
1.03372e-05
8.67351e-06
-1.35636e-05
7.07341e-06
1.53282e-05
3.66799e-06
2.11181e-05
2.76244e-05
9.65871e-06
1.17101e-05
-1.26953e-05
6.63095e-06
1.8356e-05
3.4403e-06
2.43087e-05
3.10647e-05
8.81965e-06
1.44433e-05
-1.15528e-05
6.06901e-06
2.11066e-05
3.14558e-06
2.72322e-05
3.42103e-05
7.84166e-06
1.68061e-05
-1.02046e-05
5.4126e-06
2.35357e-05
2.80243e-06
2.98423e-05
3.70127e-05
6.75499e-06
1.88076e-05
-8.75641e-06
4.67373e-06
2.5617e-05
2.42022e-06
3.20959e-05
3.9433e-05
5.6194e-06
2.04585e-05
-7.27038e-06
3.89462e-06
2.73417e-05
2.01736e-06
3.39731e-05
4.14503e-05
4.47914e-06
2.17735e-05
-5.79404e-06
3.11017e-06
2.87107e-05
1.61299e-06
3.54703e-05
4.30633e-05
3.38177e-06
2.27743e-05
-4.38256e-06
2.35083e-06
2.97416e-05
1.22106e-06
3.66001e-05
4.42844e-05
2.35194e-06
2.34836e-05
-3.06125e-06
1.63563e-06
3.0458e-05
8.46943e-07
3.73888e-05
4.51313e-05
1.40152e-06
2.39253e-05
-1.84328e-06
9.75855e-07
3.08836e-05
5.03677e-07
3.78609e-05
4.5635e-05
5.31254e-07
2.41207e-05
-7.26651e-07
3.73237e-07
3.10416e-05
1.92718e-07
3.80415e-05
4.58277e-05
-2.66058e-07
2.40894e-05
2.97363e-07
-1.80769e-07
3.09564e-05
-1.08233e-07
3.79689e-05
4.57195e-05
-9.99868e-07
2.38496e-05
1.23966e-06
-6.93155e-07
3.06496e-05
-3.92193e-07
3.7668e-05
4.53273e-05
-1.68027e-06
2.34183e-05
2.11158e-06
-1.17304e-06
3.01424e-05
-6.67082e-07
3.7162e-05
4.46602e-05
-2.31796e-06
2.28113e-05
2.92502e-06
-1.62649e-06
2.94509e-05
-9.21861e-07
3.64574e-05
4.37383e-05
-2.92523e-06
2.20436e-05
3.69289e-06
-2.06564e-06
2.85913e-05
-1.17551e-06
3.55673e-05
4.25628e-05
-3.51605e-06
2.11303e-05
4.42939e-06
-2.50261e-06
2.75779e-05
-1.43371e-06
3.44984e-05
4.11291e-05
-4.10653e-06
2.00865e-05
5.15031e-06
-2.952e-06
2.64234e-05
-1.70625e-06
3.32526e-05
3.94229e-05
-4.71629e-06
1.8929e-05
5.8738e-06
-3.43246e-06
2.51395e-05
-2.00581e-06
3.1826e-05
3.74171e-05
-5.36971e-06
1.76773e-05
6.62144e-06
-3.96748e-06
2.37373e-05
-2.34755e-06
3.0206e-05
3.50695e-05
-6.0968e-06
1.6355e-05
7.41909e-06
-4.58544e-06
2.2226e-05
-2.74843e-06
2.8369e-05
3.23211e-05
-6.93277e-06
1.49904e-05
8.29735e-06
-5.31736e-06
2.06105e-05
-3.22434e-06
2.6276e-05
2.90968e-05
-7.91378e-06
1.3614e-05
9.2902e-06
-6.18903e-06
1.88858e-05
-3.78309e-06
2.387e-05
2.53137e-05
-9.06323e-06
1.22508e-05
1.04264e-05
-7.20189e-06
1.70244e-05
-4.40891e-06
2.10771e-05
2.09048e-05
-1.03585e-05
1.09027e-05
1.17066e-05
-8.29431e-06
1.49603e-05
-5.03193e-06
1.78147e-05
1.58728e-05
-1.16674e-05
9.50941e-06
1.30607e-05
-9.27197e-06
1.25648e-05
-5.44691e-06
1.39896e-05
1.04259e-05
-1.26337e-05
7.8463e-06
1.42968e-05
-9.66722e-06
9.59832e-06
-5.20056e-06
9.52296e-06
5.22536e-06
-1.25941e-05
5.47021e-06
1.49702e-05
-8.76664e-06
5.77084e-06
-3.93162e-06
4.68795e-06
1.29373e-06
-1.17525e-05
1.72227e-05
-5.98168e-06
-1.29373e-06
-1.525e-05
9.38601e-05
-2.87139e-05
0.0001068
-4.06988e-05
0.000115561
-5.17148e-05
0.000120274
-6.21894e-05
0.00012213
-7.23335e-05
0.00012216
-8.22471e-05
0.000120891
-9.19635e-05
0.000118604
-0.000101452
0.000115435
-0.000110621
0.000111434
-0.000119323
0.000106598
-0.000127372
0.000100915
-0.000134569
9.44038e-05
-0.000140724
8.71467e-05
-0.000145699
7.93058e-05
-0.000149425
7.11147e-05
-0.000151916
6.2849e-05
-0.000153259
5.47857e-05
-0.000153597
4.71651e-05
-0.000153096
4.01656e-05
-0.000151928
3.38944e-05
-0.000150248
2.83929e-05
-0.00014818
2.36486e-05
-0.000145817
1.96119e-05
-0.000143216
1.62099e-05
-0.000140401
1.33572e-05
-0.000137359
1.09608e-05
-0.000134038
8.92707e-06
-0.000130356
7.20177e-06
-0.000126203
5.64475e-06
-0.00012145
4.18089e-06
-0.000115947
2.73093e-06
-0.000109423
1.22699e-06
-0.000101574
-4.21472e-07
-9.20922e-05
-2.41446e-06
-4.72352e-06
-1.44576e-05
0.000108318
-2.74299e-05
0.000119772
-3.91338e-05
0.000127265
-4.99694e-05
0.00013111
-6.02767e-05
0.000132438
-7.02374e-05
0.000132121
-7.99301e-05
0.000130584
-8.93615e-05
0.000128035
-9.84657e-05
0.000124539
-0.000107102
0.00012007
-0.000115063
0.000114559
-0.000122096
0.000107948
-0.000127941
0.000100249
-0.000132382
9.15873e-05
-0.000135287
8.22108e-05
-0.000136638
7.24657e-05
-0.000136527
6.27379e-05
-0.000135129
5.33879e-05
-0.000132664
4.46996e-05
-0.000129354
3.68562e-05
-0.000125399
2.99397e-05
-0.000120956
2.39489e-05
-0.00011613
1.88233e-05
-0.000110984
1.44662e-05
-0.000105539
1.07641e-05
-9.97803e-05
7.59878e-06
-9.36693e-05
4.84975e-06
-8.71532e-05
2.41096e-06
-8.01469e-05
1.95492e-07
-7.26065e-05
-1.89567e-06
-6.45044e-05
-3.92124e-06
-5.5847e-05
-5.92642e-06
-4.66219e-05
-7.99814e-06
-3.69659e-05
-1.00775e-05
-2.73277e-05
-1.20527e-05
-1.38665e-05
-1.36621e-05
0.00012198
-2.60549e-05
0.000132165
-3.73883e-05
0.000138598
-4.79408e-05
0.000141662
-5.79881e-05
0.000142485
-6.76717e-05
0.000141804
-7.70368e-05
0.000139949
-8.60512e-05
0.00013705
-9.45972e-05
0.000133085
-0.000102468
0.000127941
-0.000109381
0.000121472
-0.000115021
0.000113587
-0.000119094
0.000104323
-0.000121404
9.38972e-05
-0.000121895
8.27018e-05
-0.000120664
7.12347e-05
-0.00011793
6.00038e-05
-0.000113979
4.94372e-05
-0.00010911
3.98304e-05
-0.000103588
3.13343e-05
-9.7624e-05
2.39757e-05
-9.13662e-05
1.76912e-05
-8.49068e-05
1.23638e-05
-7.82939e-05
7.85332e-06
-7.15465e-05
4.01675e-06
-6.46746e-05
7.26837e-07
-5.7698e-05
-2.12682e-06
-5.06515e-05
-4.63553e-06
-4.35814e-05
-6.87467e-06
-3.656e-05
-8.91702e-06
-2.96696e-05
-1.08117e-05
-2.31097e-05
-1.24863e-05
-1.716e-05
-1.39479e-05
-1.19122e-05
-1.53252e-05
-7.39921e-06
-1.65656e-05
-1.75824e-05
-1.28646e-05
0.000134844
-2.46488e-05
0.000143949
-3.55095e-05
0.000149459
-4.56825e-05
0.000151835
-5.53762e-05
0.000152179
-6.46813e-05
0.000151109
-7.36015e-05
0.000148869
-8.20541e-05
0.000145502
-8.98568e-05
0.000140888
-9.67289e-05
0.000134813
-0.000102322
0.000127065
-0.000106285
0.00011755
-0.000108351
0.000106388
-0.000108413
9.39589e-05
-0.000106556
8.08445e-05
-0.00010303
6.7709e-05
-9.81859e-05
5.51599e-05
-9.23986e-05
4.36499e-05
-8.60082e-05
3.344e-05
-7.92881e-05
2.46142e-05
-7.24361e-05
1.71237e-05
-6.55836e-05
1.08387e-05
-5.88144e-05
5.59461e-06
-5.2188e-05
1.22692e-06
-4.57642e-05
-2.40703e-06
-3.9603e-05
-5.43437e-06
-3.3761e-05
-7.96883e-06
-2.82839e-05
-1.01127e-05
-2.3218e-05
-1.19405e-05
-1.86225e-05
-1.35125e-05
-1.45597e-05
-1.48745e-05
-1.10204e-05
-1.60256e-05
-7.98414e-06
-1.69841e-05
-5.47037e-06
-1.7839e-05
-3.44646e-06
-1.85895e-05
-1.91978e-05
-1.20685e-05
0.000146913
-2.32162e-05
0.000155097
-3.35245e-05
0.000159767
-4.32391e-05
0.00016155
-5.24904e-05
0.00016143
-6.1317e-05
0.000159936
-6.96762e-05
0.000157228
-7.74274e-05
0.000153254
-8.43202e-05
0.000147781
-9.00089e-05
0.000140502
-9.41078e-05
0.000131164
-9.62848e-05
0.000119727
-9.63638e-05
0.000106467
-9.43868e-05
9.19819e-05
-9.06057e-05
7.70634e-05
-8.5413e-05
6.25163e-05
-7.92503e-05
4.89971e-05
-7.25315e-05
3.69311e-05
-6.55984e-05
2.65069e-05
-5.87072e-05
1.77231e-05
-5.20377e-05
1.04541e-05
-4.57142e-05
4.51521e-06
-3.98302e-05
-2.89411e-07
-3.4452e-05
-4.15125e-06
-2.96041e-05
-7.25502e-06
-2.52694e-05
-9.76903e-06
-2.14068e-05
-1.18314e-05
-1.79702e-05
-1.35493e-05
-1.49168e-05
-1.49939e-05
-1.22164e-05
-1.62129e-05
-9.84883e-06
-1.72421e-05
-7.76821e-06
-1.81062e-05
-5.93759e-06
-1.88148e-05
-4.36935e-06
-1.94072e-05
-3.04488e-06
-1.9914e-05
-2.03398e-05
-1.12686e-05
0.000158182
-2.17481e-05
0.000165577
-3.14687e-05
0.000169487
-4.0655e-05
0.000170736
-4.93811e-05
0.000170156
-5.76386e-05
0.000168193
-6.53345e-05
0.000164924
-7.22689e-05
0.000160188
-7.81315e-05
0.000153643
-8.2536e-05
0.000144906
-8.51036e-05
0.000133732
-8.55791e-05
0.000120202
-8.39278e-05
0.000104816
-8.03607e-05
8.84149e-05
-7.52777e-05
7.19805e-05
-6.91664e-05
5.6405e-05
-6.25069e-05
4.23377e-05
-5.57125e-05
3.01366e-05
-4.91057e-05
1.99001e-05
-4.29215e-05
1.15389e-05
-3.73211e-05
4.85373e-06
-3.24016e-05
-4.04362e-07
-2.81768e-05
-4.51419e-06
-2.45753e-05
-7.75275e-06
-2.14765e-05
-1.03538e-05
-1.87565e-05
-1.2489e-05
-1.63165e-05
-1.42715e-05
-1.40923e-05
-1.57734e-05
-1.20446e-05
-1.70416e-05
-1.01559e-05
-1.81017e-05
-8.42497e-06
-1.8973e-05
-6.85138e-06
-1.96798e-05
-5.42413e-06
-2.0242e-05
-4.14534e-06
-2.0686e-05
-3.02067e-06
-2.10387e-05
-2.13309e-05
-1.04669e-05
0.000168648
-2.02548e-05
0.000175364
-2.93619e-05
0.000178595
-3.79649e-05
0.000179339
-4.61005e-05
0.000178292
-5.37166e-05
0.000175809
-6.06715e-05
0.000171879
-6.67133e-05
0.00016623
-7.14901e-05
0.00015842
-7.46095e-05
0.000148025
-7.57465e-05
0.000134869
-7.47666e-05
0.000119223
-7.17955e-05
0.000101845
-6.71953e-05
8.38146e-05
-6.14675e-05
6.62527e-05
-5.5142e-05
5.00795e-05
-4.86975e-05
3.58932e-05
-4.25242e-05
2.39633e-05
-3.69132e-05
1.42892e-05
-3.20532e-05
6.67888e-06
-2.80189e-05
8.1947e-07
-2.47483e-05
-3.675e-06
-2.20729e-05
-7.18959e-06
-1.98037e-05
-1.00219e-05
-1.77868e-05
-1.23708e-05
-1.59193e-05
-1.43565e-05
-1.41445e-05
-1.60463e-05
-1.24401e-05
-1.74778e-05
-1.08037e-05
-1.8678e-05
-9.24058e-06
-1.96648e-05
-7.76041e-06
-2.04532e-05
-6.37936e-06
-2.10609e-05
-5.10704e-06
-2.15143e-05
-3.95082e-06
-2.18423e-05
-2.91732e-06
-2.20722e-05
-2.22401e-05
-9.66966e-06
0.000178318
-1.87547e-05
0.00018445
-2.72238e-05
0.000187064
-3.52055e-05
0.000187321
-4.27043e-05
0.000185791
-4.963e-05
0.000182735
-5.57983e-05
0.000178047
-6.09189e-05
0.00017135
-6.4624e-05
0.000162125
-6.65509e-05
0.000149952
-6.6466e-05
0.000134784
-6.43749e-05
0.000117132
-6.05517e-05
9.80216e-05
-5.54689e-05
7.87318e-05
-4.96783e-05
6.04622e-05
-4.37093e-05
4.41104e-05
-3.80113e-05
3.01952e-05
-3.29285e-05
1.88805e-05
-2.86764e-05
1.00371e-05
-2.53111e-05
3.31361e-06
-2.27165e-05
-1.77512e-06
-2.06645e-05
-5.727e-06
-1.89332e-05
-8.92088e-06
-1.73634e-05
-1.15917e-05
-1.58626e-05
-1.38716e-05
-1.43841e-05
-1.5835e-05
-1.29101e-05
-1.75203e-05
-1.14404e-05
-1.89476e-05
-9.98795e-06
-2.01304e-05
-8.57045e-06
-2.10823e-05
-7.20592e-06
-2.18177e-05
-5.91565e-06
-2.23511e-05
-4.72002e-06
-2.271e-05
-3.63548e-06
-2.29268e-05
-2.67241e-06
-2.30353e-05
-2.30735e-05
-8.88393e-06
0.000187202
-1.72632e-05
0.000192829
-2.50785e-05
0.000194879
-3.24162e-05
0.000194658
-3.92516e-05
0.000192626
-4.54629e-05
0.000188946
-5.0833e-05
0.000183418
-5.50512e-05
0.000175568
-5.77605e-05
0.000164835
-5.86587e-05
0.000150851
-5.76237e-05
0.000133749
-5.47963e-05
0.000114304
-5.05662e-05
9.37915e-05
-4.54694e-05
7.3635e-05
-4.00636e-05
5.50564e-05
-3.48442e-05
3.8891e-05
-3.02017e-05
2.55528e-05
-2.63873e-05
1.5066e-05
-2.34676e-05
7.11737e-06
-2.13126e-05
1.15864e-06
-1.96708e-05
-3.41696e-06
-1.83023e-05
-7.09549e-06
-1.70482e-05
-1.01749e-05
-1.5818e-05
-1.28219e-05
-1.45659e-05
-1.51237e-05
-1.32763e-05
-1.71247e-05
-1.195e-05
-1.88465e-05
-1.05968e-05
-2.03008e-05
-9.235e-06
-2.14922e-05
-7.889e-06
-2.24283e-05
-6.58572e-06
-2.3121e-05
-5.35148e-06
-2.35854e-05
-4.21209e-06
-2.38494e-05
-3.1895e-06
-2.39494e-05
-2.29842e-06
-2.39263e-05
-2.38236e-05
-8.11628e-06
0.000195318
-1.57947e-05
0.000200507
-2.29515e-05
0.000202036
-2.9637e-05
0.000201344
-3.58016e-05
0.000198791
-4.12986e-05
0.000194443
-4.58906e-05
0.00018801
-4.92656e-05
0.000178943
-5.11013e-05
0.00016667
-5.11761e-05
0.000150925
-4.94817e-05
0.000132055
-4.627e-05
0.000111092
-4.20041e-05
8.95256e-05
-3.72408e-05
6.88717e-05
-3.25093e-05
5.03248e-05
-2.82398e-05
3.46215e-05
-2.47253e-05
2.20384e-05
-2.20736e-05
1.24143e-05
-2.01812e-05
5.22498e-06
-1.8803e-05
-2.19559e-07
-1.76897e-05
-4.53027e-06
-1.66738e-05
-8.11142e-06
-1.56599e-05
-1.11888e-05
-1.46008e-05
-1.3881e-05
-1.34761e-05
-1.62484e-05
-1.22836e-05
-1.83172e-05
-1.10321e-05