/*--------------------------------*- C++ -*----------------------------------*\
| =========                 |                                                 |
| \\      /  F ield         | OpenFOAM: The Open Source CFD Toolbox           |
|  \\    /   O peration     | Version:  v2012                                 |
|   \\  /    A nd           | Website:  www.openfoam.com                      |
|    \\/     M anipulation  |                                                 |
\*---------------------------------------------------------------------------*/
FoamFile
{
    version     2.0;
    format      ascii;
    class       volVectorField;
    location    "621";
    object      U;
}
// * * * * * * * * * * * * * * * * * * * * * * * * * * * * * * * * * * * * * //

dimensions      [0 1 -1 0 0 0 0];


internalField   nonuniform List<vector> 
6108
(
(0.000383226 -0.992334 0)
(0.000339024 -0.99289 0)
(0.000306884 -0.993365 0)
(0.00028491 -0.993781 0)
(0.000270854 -0.994157 0)
(0.000262983 -0.994508 0)
(0.000259903 -0.994844 0)
(0.000260649 -0.995173 0)
(0.000264534 -0.9955 0)
(0.000271376 -0.99583 0)
(0.000280981 -0.996168 0)
(0.000293308 -0.996516 0)
(0.00030834 -0.99688 0)
(0.000325813 -0.997262 0)
(0.000344901 -0.997665 0)
(0.000363551 -0.998095 0)
(0.000376734 -0.998558 0)
(0.00037218 -0.999039 0)
(0.000302015 -0.999467 0)
(7.54785e-05 -0.999758 0)
(0.000627084 -0.999113 0)
(0.000512526 -0.999363 0)
(0.000429621 -0.999538 0)
(0.000372027 -0.99966 0)
(0.000333607 -0.999747 0)
(0.00030948 -0.999809 0)
(0.000295671 -0.999856 0)
(0.000289353 -0.999893 0)
(0.000288129 -0.999923 0)
(0.000291943 -0.99995 0)
(0.000300105 -0.999976 0)
(0.000312179 -1 0)
(0.0003279 -1.00003 0)
(0.000346858 -1.00006 0)
(0.00036823 -1.00009 0)
(0.000389873 -1.00012 0)
(0.00040446 -1.00014 0)
(0.000410294 -1.00016 0)
(0.000362886 -1.00013 0)
(0.00019566 -1.00003 0)
(0.000815884 -1.00107 0)
(0.000632962 -1.00121 0)
(0.000502085 -1.00128 0)
(0.000411696 -1.0013 0)
(0.000351071 -1.00129 0)
(0.000311662 -1.00126 0)
(0.000287119 -1.00122 0)
(0.000274138 -1.00116 0)
(0.000267843 -1.0011 0)
(0.000267921 -1.00103 0)
(0.000272985 -1.00096 0)
(0.000282151 -1.00088 0)
(0.000294967 -1.0008 0)
(0.000310845 -1.00071 0)
(0.000327137 -1.00061 0)
(0.000337055 -1.00051 0)
(0.000341942 -1.0004 0)
(0.00033182 -1.00027 0)
(0.000275689 -1.00013 0)
(0.000133614 -1.00002 0)
(0.000934667 -1.00201 0)
(0.000686673 -1.00207 0)
(0.000512175 -1.00207 0)
(0.000393686 -1.00203 0)
(0.0003134 -1.00197 0)
(0.000260787 -1.00189 0)
(0.00022674 -1.00179 0)
(0.000205949 -1.00169 0)
(0.000194779 -1.00159 0)
(0.000190357 -1.00147 0)
(0.000190914 -1.00135 0)
(0.000195335 -1.00122 0)
(0.000202821 -1.00108 0)
(0.000212392 -1.00094 0)
(0.000222024 -1.00078 0)
(0.0002282 -1.00062 0)
(0.000228302 -1.00045 0)
(0.000212228 -1.00028 0)
(0.00016385 -1.00011 0)
(6.89595e-05 -1.00002 0)
(0.000990611 -1.00254 0)
(0.000684981 -1.00252 0)
(0.000475117 -1.00246 0)
(0.000331108 -1.00237 0)
(0.000236747 -1.00227 0)
(0.000177409 -1.00216 0)
(0.000136386 -1.00204 0)
(0.000109847 -1.00191 0)
(9.30964e-05 -1.00178 0)
(8.30636e-05 -1.00165 0)
(7.76489e-05 -1.0015 0)
(7.55115e-05 -1.00135 0)
(7.57286e-05 -1.00119 0)
(7.75037e-05 -1.00102 0)
(7.97422e-05 -1.00084 0)
(8.08866e-05 -1.00065 0)
(7.95567e-05 -1.00046 0)
(7.244e-05 -1.00027 0)
(5.40642e-05 -1.0001 0)
(2.1372e-05 -1.00001 0)
(0.00096238 -1.00283 0)
(0.00061447 -1.0027 0)
(0.000389804 -1.00258 0)
(0.000239538 -1.00245 0)
(0.000141039 -1.00232 0)
(7.58078e-05 -1.00219 0)
(3.16175e-05 -1.00206 0)
(1.57788e-06 -1.00193 0)
(-1.9239e-05 -1.00179 0)
(-3.41203e-05 -1.00165 0)
(-4.52876e-05 -1.00151 0)
(-5.41842e-05 -1.00135 0)
(-6.17177e-05 -1.00119 0)
(-6.83154e-05 -1.00102 0)
(-7.37053e-05 -1.00084 0)
(-7.69423e-05 -1.00065 0)
(-7.70577e-05 -1.00046 0)
(-7.09472e-05 -1.00027 0)
(-5.32897e-05 -1.0001 0)
(-2.11185e-05 -1.00001 0)
(0.000830944 -1.00285 0)
(0.000488505 -1.00261 0)
(0.000261968 -1.00243 0)
(0.000123344 -1.00227 0)
(3.05928e-05 -1.00212 0)
(-3.24236e-05 -1.00199 0)
(-7.51014e-05 -1.00186 0)
(-0.000105481 -1.00174 0)
(-0.000128137 -1.00162 0)
(-0.000146158 -1.00149 0)
(-0.000161669 -1.00136 0)
(-0.000176068 -1.00123 0)
(-0.00019017 -1.00109 0)
(-0.0002041 -1.00094 0)
(-0.000216569 -1.00079 0)
(-0.000224635 -1.00062 0)
(-0.000226066 -1.00045 0)
(-0.000210908 -1.00028 0)
(-0.000163195 -1.00012 0)
(-6.87459e-05 -1.00002 0)
(0.000546559 -1.00244 0)
(0.000292965 -1.00206 0)
(0.000102813 -1.00184 0)
(-4.87667e-06 -1.00167 0)
(-7.90853e-05 -1.00154 0)
(-0.000129971 -1.00142 0)
(-0.000166217 -1.00132 0)
(-0.000193151 -1.00123 0)
(-0.00021446 -1.00115 0)
(-0.000232705 -1.00106 0)
(-0.000249724 -1.00098 0)
(-0.000266836 -1.00089 0)
(-0.000284942 -1.00081 0)
(-0.000304336 -1.00071 0)
(-0.000322818 -1.00062 0)
(-0.000334148 -1.00052 0)
(-0.000340132 -1.0004 0)
(-0.000330783 -1.00027 0)
(-0.000275225 -1.00014 0)
(-0.000133476 -1.00002 0)
(3.32993e-05 -1.00117 0)
(8.52863e-05 -1.00041 0)
(-4.17197e-05 -1.00025 0)
(-0.000102863 -1.00012 0)
(-0.000152598 -1.00006 0)
(-0.000187936 -1.00001 0)
(-0.000214304 -0.999992 0)
(-0.000234945 -0.999982 0)
(-0.000252386 -0.999982 0)
(-0.000268475 -0.999989 0)
(-0.000284639 -1 0)
(-0.000301971 -1.00002 0)
(-0.000321183 -1.00004 0)
(-0.000342454 -1.00006 0)
(-0.000365365 -1.00009 0)
(-0.000388041 -1.00012 0)
(-0.000403259 -1.00015 0)
(-0.000409389 -1.00016 0)
(-0.000362822 -1.00013 0)
(-0.000195629 -1.00003 0)
(-0.000354958 -0.996891 0)
(-5.16977e-05 -0.994085 0)
(-0.000151269 -0.994191 0)
(-0.000170235 -0.994346 0)
(-0.000191188 -0.994535 0)
(-0.000208728 -0.994759 0)
(-0.000223281 -0.99501 0)
(-0.000236077 -0.995282 0)
(-0.000248186 -0.995571 0)
(-0.000260498 -0.995877 0)
(-0.000273748 -0.996198 0)
(-0.000288525 -0.996536 0)
(-0.00030519 -0.996892 0)
(-0.000323697 -0.997269 0)
(-0.000343466 -0.997669 0)
(-0.00036262 -0.998098 0)
(-0.000376164 -0.998559 0)
(-0.0003719 -0.99904 0)
(-0.000301987 -0.999467 0)
(-7.54678e-05 -0.999758 0)
(0.000726739 -0.988667 0)
(0.000616951 -0.989866 0)
(0.000522879 -0.990855 0)
(0.000444344 -0.991667 0)
(0.00146578 -0.996742 0)
(0.0012002 -0.997605 0)
(0.000971837 -0.998269 0)
(0.000779628 -0.99876 0)
(0.00218711 -0.999142 0)
(0.00175568 -0.999892 0)
(0.00138157 -1.00045 0)
(0.00106473 -1.00083 0)
(0.00284038 -1.00037 0)
(0.00224898 -1.00105 0)
(0.00173041 -1.00154 0)
(0.00128343 -1.00185 0)
(0.00343969 -1.00112 0)
(0.00269684 -1.00176 0)
(0.00203648 -1.00222 0)
(0.00144619 -1.00247 0)
(0.00402645 -1.00151 0)
(0.00314072 -1.00217 0)
(0.00233422 -1.00263 0)
(0.00155973 -1.00284 0)
(0.00473641 -1.00131 0)
(0.00364904 -1.00214 0)
(0.00262572 -1.00276 0)
(0.00160099 -1.003 0)
(0.00562645 -0.999496 0)
(0.00407362 -1.00108 0)
(0.00285462 -1.00223 0)
(0.00176591 -1.00275 0)
(0.00592393 -0.991386 0)
(0.00443277 -0.995553 0)
(0.00381611 -0.998591 0)
(0.00304456 -1.00077 0)
(0.0231315 -0.933058 0)
(0.0203738 -0.949168 0)
(0.0170016 -0.964145 0)
(0.00958031 -0.982477 0)
(-0.0256911 0.0123741 0)
(-0.02073 0.0440587 0)
(-0.00559919 0.0439055 0)
(0.00771862 0.0255688 0)
(0.0193892 -0.0124917 0)
(0.0323721 -0.0757386 0)
(0.0396871 -0.165074 0)
(0.0391588 -0.250483 0)
(0.0356795 -0.327007 0)
(0.0325463 -0.39777 0)
(0.0298052 -0.462697 0)
(0.0272986 -0.52227 0)
(0.0249846 -0.576877 0)
(0.0228185 -0.626831 0)
(0.0207703 -0.672383 0)
(0.0188213 -0.713741 0)
(0.0169623 -0.751091 0)
(0.0151915 -0.784617 0)
(0.0135124 -0.81451 0)
(0.011932 -0.840972 0)
(0.0104605 -0.864221 0)
(0.00911822 -0.884515 0)
(0.00790192 -0.902101 0)
(0.00679826 -0.917228 0)
(0.00580928 -0.930146 0)
(0.00493257 -0.941098 0)
(0.00416405 -0.950323 0)
(0.00349803 -0.958047 0)
(0.00292761 -0.964482 0)
(0.00244363 -0.969825 0)
(0.00203482 -0.974245 0)
(0.00169777 -0.977896 0)
(0.00142198 -0.980914 0)
(0.00119574 -0.983415 0)
(0.00100983 -0.985493 0)
(0.000855799 -0.987225 0)
(-0.0448359 0.00148999 0)
(-0.0103261 0.0219583 0)
(0.0196444 0.0052782 0)
(0.0436024 -0.0414475 0)
(0.0698103 -0.112112 0)
(0.0903393 -0.192498 0)
(0.0964606 -0.269644 0)
(0.0919102 -0.333612 0)
(0.0849543 -0.39767 0)
(0.0783229 -0.458514 0)
(0.072095 -0.515597 0)
(0.066295 -0.568853 0)
(0.0608493 -0.618283 0)
(0.0556877 -0.663936 0)
(0.0507579 -0.705871 0)
(0.0460306 -0.744152 0)
(0.0414968 -0.77886 0)
(0.0371634 -0.810096 0)
(0.0330481 -0.83799 0)
(0.0291736 -0.862697 0)
(0.0255612 -0.884401 0)
(0.0222251 -0.903306 0)
(0.0191754 -0.919616 0)
(0.0164188 -0.933576 0)
(0.0139552 -0.945429 0)
(0.0117782 -0.955414 0)
(0.00987596 -0.963762 0)
(0.00823251 -0.970694 0)
(0.00682929 -0.976414 0)
(0.00564508 -0.981107 0)
(0.00464931 -0.984901 0)
(0.00382434 -0.988021 0)
(0.00315256 -0.990554 0)
(0.00260277 -0.992617 0)
(0.00215157 -0.994293 0)
(0.00177822 -0.995651 0)
(-0.051147 -0.0147176 0)
(0.0124261 -0.0117382 0)
(0.0556857 -0.0530016 0)
(0.094973 -0.116063 0)
(0.12791 -0.188283 0)
(0.145684 -0.25624 0)
(0.147225 -0.316504 0)
(0.140693 -0.373125 0)
(0.132378 -0.430106 0)
(0.123559 -0.484957 0)
(0.114807 -0.537518 0)
(0.106328 -0.587338 0)
(0.098126 -0.634162 0)
(0.0901697 -0.677816 0)
(0.0824316 -0.718191 0)
(0.0749064 -0.75523 0)
(0.067612 -0.788921 0)
(0.0605847 -0.819298 0)
(0.0538717 -0.846444 0)
(0.0475237 -0.870482 0)
(0.0415869 -0.891573 0)
(0.0360975 -0.909911 0)
(0.0310813 -0.925713 0)
(0.026552 -0.939213 0)
(0.0225092 -0.950648 0)
(0.0189418 -0.960251 0)
(0.0158289 -0.968251 0)
(0.0131421 -0.974862 0)
(0.0108478 -0.980287 0)
(0.00891277 -0.98471 0)
(0.00730562 -0.988297 0)
(0.00598259 -0.991199 0)
(0.00490002 -0.993541 0)
(0.00401699 -0.995431 0)
(0.00329267 -0.996954 0)
(0.00269195 -0.998175 0)
(-0.0277585 -0.0288056 0)
(0.0438152 -0.048115 0)
(0.101011 -0.103886 0)
(0.149142 -0.170029 0)
(0.180873 -0.234257 0)
(0.19335 -0.290995 0)
(0.19201 -0.343672 0)
(0.184919 -0.396374 0)
(0.175808 -0.448975 0)
(0.165586 -0.500374 0)
(0.155025 -0.550212 0)
(0.144424 -0.597946 0)
(0.133885 -0.643202 0)
(0.123447 -0.685685 0)
(0.113133 -0.725184 0)
(0.102983 -0.761555 0)
(0.093058 -0.794722 0)
(0.0834348 -0.824668 0)
(0.0742002 -0.851441 0)
(0.0654404 -0.875141 0)
(0.0572316 -0.895917 0)
(0.0496342 -0.913957 0)
(0.0426895 -0.929476 0)
(0.0364184 -0.942705 0)
(0.0308225 -0.95388 0)
(0.0258868 -0.963237 0)
(0.0215832 -0.971003 0)
(0.0178731 -0.977394 0)
(0.0147107 -0.982613 0)
(0.0120468 -0.986843 0)
(0.00983241 -0.990249 0)
(0.00801416 -0.992982 0)
(0.0065341 -0.995173 0)
(0.00533154 -0.996934 0)
(0.00434723 -0.998348 0)
(0.0035298 -0.999476 0)
(0.00466302 -0.0404389 0)
(0.0850952 -0.0768183 0)
(0.150329 -0.139153 0)
(0.199237 -0.202959 0)
(0.22625 -0.259905 0)
(0.23487 -0.311041 0)
(0.232762 -0.360796 0)
(0.225781 -0.41103 0)
(0.216237 -0.461064 0)
(0.20516 -0.51038 0)
(0.193315 -0.5585 0)
(0.181053 -0.604898 0)
(0.168556 -0.649152 0)
(0.155928 -0.690905 0)
(0.143255 -0.729878 0)
(0.130633 -0.765863 0)
(0.118178 -0.798729 0)
(0.106022 -0.828421 0)
(0.0943013 -0.85496 0)
(0.0831489 -0.878431 0)
(0.0726782 -0.898979 0)
(0.0629781 -0.916793 0)
(0.0541088 -0.932091 0)
(0.0461006 -0.945107 0)
(0.0389571 -0.956081 0)
(0.0326593 -0.96525 0)
(0.0271715 -0.972842 0)
(0.0224449 -0.979073 0)
(0.0184211 -0.984142 0)
(0.0150367 -0.988232 0)
(0.0122273 -0.991506 0)
(0.0099273 -0.994114 0)
(0.00806449 -0.996195 0)
(0.00655805 -0.997865 0)
(0.00532819 -0.999206 0)
(0.00430534 -1.00028 0)
(0.0488253 -0.0467629 0)
(0.133958 -0.0956491 0)
(0.200386 -0.160531 0)
(0.245314 -0.220774 0)
(0.267545 -0.273466 0)
(0.274081 -0.322546 0)
(0.271944 -0.37116 0)
(0.265082 -0.419971 0)
(0.255255 -0.468559 0)
(0.243541 -0.516599 0)
(0.230651 -0.56363 0)
(0.216964 -0.609171 0)
(0.202711 -0.65278 0)
(0.18805 -0.694062 0)
(0.173125 -0.732682 0)
(0.158093 -0.768384 0)
(0.143137 -0.800993 0)
(0.128452 -0.830431 0)
(0.11424 -0.856705 0)
(0.100687 -0.879905 0)
(0.0879489 -0.900184 0)
(0.076147 -0.917744 0)
(0.0653604 -0.932818 0)
(0.0556278 -0.945652 0)
(0.0469523 -0.956489 0)
(0.0393085 -0.965566 0)
(0.0326517 -0.973104 0)
(0.0269225 -0.979312 0)
(0.0220486 -0.98438 0)
(0.0179502 -0.988481 0)
(0.0145495 -0.991769 0)
(0.0117709 -0.99439 0)
(0.00953323 -0.996488 0)
(0.00773463 -0.998182 0)
(0.00627264 -0.999554 0)
(0.00505758 -1.00065 0)
(0.100757 -0.0503906 0)
(0.187162 -0.105902 0)
(0.24971 -0.171424 0)
(0.289122 -0.228811 0)
(0.30752 -0.279721 0)
(0.312808 -0.328351 0)
(0.31057 -0.376526 0)
(0.303633 -0.424585 0)
(0.293516 -0.472359 0)
(0.281225 -0.519605 0)
(0.267397 -0.565927 0)
(0.252409 -0.610877 0)
(0.236508 -0.653999 0)
(0.21989 -0.69486 0)
(0.202751 -0.73308 0)
(0.185318 -0.768359 0)
(0.167847 -0.8005 0)
(0.150616 -0.829416 0)
(0.133897 -0.855131 0)
(0.117941 -0.877763 0)
(0.102953 -0.897506 0)
(0.0890832 -0.914603 0)
(0.0764279 -0.929322 0)
(0.0650279 -0.941932 0)
(0.054879 -0.952691 0)
(0.0459434 -0.961828 0)
(0.0381628 -0.969549 0)
(0.0314641 -0.976034 0)
(0.0257552 -0.98145 0)
(0.0209438 -0.985942 0)
(0.0169435 -0.989631 0)
(0.0136794 -0.992642 0)
(0.0110789 -0.99511 0)
(0.00901256 -0.997157 0)
(0.0073421 -0.998855 0)
(0.00594835 -1.00023 0)
(0.160713 -0.0532989 0)
(0.241433 -0.110393 0)
(0.29793 -0.175203 0)
(0.331859 -0.230781 0)
(0.347228 -0.281242 0)
(0.351478 -0.329962 0)
(0.348917 -0.377966 0)
(0.341741 -0.425613 0)
(0.331281 -0.472874 0)
(0.318416 -0.519562 0)
(0.303692 -0.565322 0)
(0.287446 -0.609715 0)
(0.26992 -0.652253 0)
(0.251333 -0.692451 0)
(0.231937 -0.729879 0)
(0.212035 -0.764197 0)
(0.191978 -0.795197 0)
(0.172142 -0.822817 0)
(0.152892 -0.847132 0)
(0.134551 -0.868343 0)
(0.117377 -0.886734 0)
(0.101549 -0.902641 0)
(0.0871703 -0.916418 0)
(0.0742706 -0.928402 0)
(0.062824 -0.938893 0)
(0.0527629 -0.948139 0)
(0.0439987 -0.956335 0)
(0.0364407 -0.963622 0)
(0.030026 -0.970048 0)
(0.0246232 -0.975735 0)
(0.0200956 -0.98071 0)
(0.0163906 -0.985025 0)
(0.0134402 -0.988778 0)
(0.0110617 -0.992097 0)
(0.00905281 -0.995005 0)
(0.00727908 -0.997482 0)
(0.223921 -0.0544576 0)
(0.295013 -0.110725 0)
(0.345099 -0.174403 0)
(0.374122 -0.228963 0)
(0.386964 -0.27942 0)
(0.390157 -0.328275 0)
(0.387083 -0.376143 0)
(0.379541 -0.423467 0)
(0.368662 -0.47028 0)
(0.355174 -0.516412 0)
(0.339512 -0.56151 0)
(0.321945 -0.605093 0)
(0.302688 -0.646601 0)
(0.281977 -0.685462 0)
(0.260127 -0.721162 0)
(0.237542 -0.753315 0)
(0.214699 -0.78171 0)
(0.192104 -0.806333 0)
(0.170244 -0.827368 0)
(0.149535 -0.845153 0)
(0.130296 -0.860139 0)
(0.112734 -0.872831 0)
(0.0969437 -0.883745 0)
(0.0829247 -0.893367 0)
(0.0705998 -0.902129 0)
(0.0598365 -0.910384 0)
(0.050472 -0.918405 0)
(0.0423353 -0.926403 0)
(0.0352557 -0.934494 0)
(0.0291372 -0.942565 0)
(0.0239999 -0.950456 0)
(0.0196802 -0.958133 0)
(0.0160928 -0.965598 0)
(0.0129479 -0.972884 0)
(0.0101898 -0.979777 0)
(0.00785225 -0.986024 0)
(0.284446 -0.053369 0)
(0.347512 -0.108113 0)
(0.391433 -0.170746 0)
(0.416123 -0.22466 0)
(0.426754 -0.275061 0)
(0.428811 -0.323869 0)
(0.425064 -0.371481 0)
(0.417025 -0.418379 0)
(0.405614 -0.4646 0)
(0.391376 -0.509949 0)
(0.374611 -0.554003 0)
(0.355491 -0.59617 0)
(0.334184 -0.635744 0)
(0.310945 -0.672 0)
(0.286172 -0.704293 0)
(0.260408 -0.732162 0)
(0.234307 -0.7554 0)
(0.208557 -0.77408 0)
(0.183807 -0.788532 0)
(0.160599 -0.799284 0)
(0.139327 -0.806982 0)
(0.120225 -0.812313 0)
(0.10338 -0.815955 0)
(0.0887594 -0.818533 0)
(0.0762467 -0.820605 0)
(0.0656703 -0.822659 0)
(0.0568329 -0.825122 0)
(0.0495249 -0.828427 0)
(0.0435085 -0.833037 0)
(0.0384615 -0.839331 0)
(0.0341509 -0.847484 0)
(0.030447 -0.85762 0)
(0.028046 -0.869441 0)
(0.0268447 -0.883139 0)
(0.025943 -0.898529 0)
(0.0248577 -0.915326 0)
(0.00591051 -0.351358 0)
(-0.00428026 -0.282437 0)
(-0.0242182 -0.214026 0)
(-0.0400709 -0.152987 0)
(-0.0509786 -0.0640488 0)
(-0.0561287 -0.0248492 0)
(-0.072198 0.00684238 0)
(-0.117549 0.0121732 0)
(-0.0689398 -0.00873294 0)
(-0.0734655 0.00394194 0)
(-0.0822413 0.0128783 0)
(-0.0985114 0.00833327 0)
(-0.0767666 -0.00508258 0)
(-0.0791902 0.000741478 0)
(-0.0840539 0.00501222 0)
(-0.0916355 0.00238622 0)
(-0.0808627 -0.00639264 0)
(-0.0828851 -0.00201726 0)
(-0.085822 0.00119898 0)
(-0.0890399 0.00107406 0)
(-0.0846298 -0.00732785 0)
(-0.0860068 -0.00352875 0)
(-0.0875756 -0.000719176 0)
(-0.0884117 0.000156901 0)
(-0.0879795 -0.00743916 0)
(-0.0887364 -0.00405896 0)
(-0.0893557 -0.00154839 0)
(-0.0887714 -0.0001807 0)
(-0.0909691 -0.0068426 0)
(-0.0911358 -0.00388012 0)
(-0.091029 -0.00171177 0)
(-0.0895165 -0.00029361 0)
(-0.0935922 -0.00568878 0)
(-0.0931792 -0.00318063 0)
(-0.0924606 -0.0014311 0)
(-0.0902822 -0.000175538 0)
(-0.0958187 -0.00408798 0)
(-0.0948194 -0.00208245 0)
(-0.0935441 -0.000836448 0)
(-0.0908183 0.000140772 0)
(-0.0976102 -0.00211324 0)
(-0.0960021 -0.000663943 0)
(-0.0941842 -1.78984e-06 0)
(-0.090956 0.000563093 0)
(-0.0989273 0.000189544 0)
(-0.0966703 0.00102745 0)
(-0.09429 0.00103299 0)
(-0.09057 0.0010833 0)
(-0.0997293 0.00279105 0)
(-0.0967656 0.00296152 0)
(-0.0937782 0.00223974 0)
(-0.0895532 0.00163978 0)
(-0.0999767 0.00567154 0)
(-0.0962351 0.00512205 0)
(-0.0925785 0.00360264 0)
(-0.087808 0.00236759 0)
(-0.0996312 0.00881663 0)
(-0.095029 0.00749496 0)
(-0.0906295 0.0051143 0)
(-0.0852405 0.00319862 0)
(-0.0986553 0.0122154 0)
(-0.093098 0.010071 0)
(-0.0878652 0.00677466 0)
(-0.0817634 0.00412981 0)
(-0.0970137 0.0158561 0)
(-0.0903953 0.0128408 0)
(-0.084224 0.00858363 0)
(-0.0772905 0.00517574 0)
(-0.0946729 0.0197221 0)
(-0.0868786 0.0157906 0)
(-0.0796498 0.0105384 0)
(-0.0717319 0.00634772 0)
(-0.0916022 0.0237868 0)
(-0.0825106 0.0188963 0)
(-0.0740957 0.0126295 0)
(-0.0649958 0.00765331 0)
(-0.0877731 0.0280081 0)
(-0.0772627 0.0221167 0)
(-0.0675376 0.0148336 0)
(-0.0570232 0.00908578 0)
(-0.0831537 0.0323178 0)
(-0.0711091 0.0253792 0)
(-0.0599797 0.0170945 0)
(-0.0478376 0.0105909 0)
(-0.0776892 0.0366102 0)
(-0.063998 0.028561 0)
(-0.0514035 0.0192781 0)
(-0.0374039 0.0119721 0)
(-0.0713102 0.0407311 0)
(-0.0558479 0.0315005 0)
(-0.0417138 0.0211661 0)
(-0.0253867 0.0128121 0)
(-0.0640314 0.0444795 0)
(-0.0466463 0.0340941 0)
(-0.0309278 0.0227967 0)
(-0.0134726 0.0134929 0)
(-0.0555786 0.0479532 0)
(-0.036325 0.0363461 0)
(-0.0190883 0.0242584 0)
(-0.000834869 0.0144145 0)
(-0.0458773 0.051455 0)
(-0.0250945 0.0384458 0)
(-0.00648616 0.0255186 0)
(0.0123865 0.0147627 0)
(-0.0351046 0.0547973 0)
(-0.0129303 0.0404428 0)
(0.00686101 0.0264535 0)
(0.026493 0.0146749 0)
(-0.0234108 0.0575076 0)
(0.000136406 0.0422063 0)
(0.0207458 0.0272821 0)
(0.0408656 0.015048 0)
(-0.0110031 0.0591867 0)
(0.0137413 0.0433101 0)
(0.0350305 0.0277768 0)
(0.0569833 0.0154643 0)
(0.00193 0.059589 0)
(0.0276092 0.0434582 0)
(0.0494545 0.0275844 0)
(0.0726876 0.0152659 0)
(0.0151534 0.0585863 0)
(0.0414835 0.0426308 0)
(0.0638168 0.0268395 0)
(0.0881509 0.0146441 0)
(0.0283162 0.0561531 0)
(0.054956 0.0408571 0)
(0.0777891 0.0256608 0)
(0.103218 0.0138049 0)
(0.040973 0.0524721 0)
(0.0675866 0.0382215 0)
(0.0910265 0.0240303 0)
(0.11752 0.0128097 0)
(0.0526293 0.0478397 0)
(0.079184 0.034979 0)
(0.103315 0.0219201 0)
(0.130764 0.0116736 0)
(0.0628387 0.0423546 0)
(0.0895654 0.0312721 0)
(0.114428 0.0194526 0)
(0.142719 0.0104274 0)
(0.0715407 0.036384 0)
(0.0986215 0.0270666 0)
(0.124197 0.016717 0)
(0.153212 0.00910094 0)
(0.078839 0.0302827 0)
(0.106252 0.0225881 0)
(0.132485 0.0138457 0)
(0.162122 0.00773792 0)
(0.0847842 0.0241673 0)
(0.112443 0.0180604 0)
(0.139243 0.0109703 0)
(0.169399 0.0063902 0)
(0.0894036 0.0182644 0)
(0.11723 0.0136737 0)
(0.144491 0.00820346 0)
(0.175064 0.00507765 0)
(0.092802 0.012718 0)
(0.120704 0.00954341 0)
(0.14831 0.00561256 0)
(0.179189 0.00378602 0)
(0.0950819 0.00759714 0)
(0.122966 0.00572799 0)
(0.150809 0.00322039 0)
(0.181875 0.0026565 0)
(0.0963361 0.00290499 0)
(0.124112 0.00223747 0)
(0.152083 0.00102238 0)
(0.183247 0.0017141 0)
(0.0966466 -0.00139482 0)
(0.124236 -0.000961602 0)
(0.152265 -0.00100027 0)
(0.183398 0.000713591 0)
(0.096087 -0.00535009 0)
(0.123431 -0.00391253 0)
(0.151499 -0.00286924 0)
(0.182382 -0.000255319 0)
(0.0947277 -0.00901182 0)
(0.121784 -0.00666032 0)
(0.149872 -0.00461676 0)
(0.180253 -0.00124412 0)
(0.092635 -0.0124336 0)
(0.119369 -0.00924783 0)
(0.147437 -0.0062824 0)
(0.177065 -0.00207088 0)
(0.0898702 -0.0156759 0)
(0.116252 -0.0117302 0)
(0.144238 -0.00790934 0)
(0.172865 -0.00289943 0)
(0.0864928 -0.018806 0)
(0.112491 -0.0141708 0)
(0.140313 -0.00954734 0)
(0.167652 -0.00373263 0)
(0.0825624 -0.0219001 0)
(0.108142 -0.0166448 0)
(0.135682 -0.0112585 0)
(0.161389 -0.004593 0)
(0.0781418 -0.0250493 0)
(0.103253 -0.0192453 0)
(0.130343 -0.0131201 0)
(0.153996 -0.00551713 0)
(0.073302 -0.0283651 0)
(0.0978705 -0.0220896 0)
(0.124266 -0.0152261 0)
(0.145341 -0.00655023 0)
(0.0681288 -0.0319845 0)
(0.0920365 -0.0253209 0)
(0.117387 -0.0176847 0)
(0.135228 -0.00774264 0)
(0.0627271 -0.0360706 0)
(0.0857868 -0.0291014 0)
(0.109591 -0.0206051 0)
(0.123397 -0.00914123 0)
(0.0572214 -0.0408004 0)
(0.0791345 -0.0335806 0)
(0.100699 -0.024059 0)
(0.109542 -0.0107686 0)
(0.0517427 -0.0463122 0)
(0.0720406 -0.0388118 0)
(0.0904618 -0.0279969 0)
(0.0933683 -0.0125756 0)
(0.0463846 -0.0525695 0)
(0.0643445 -0.0445707 0)
(0.0785474 -0.032081 0)
(0.0746966 -0.0143577 0)
(0.0411231 -0.0590955 0)
(0.0557045 -0.0500327 0)
(0.0646793 -0.0353527 0)
(0.053779 -0.0154163 0)
(0.0354298 -0.0644892 0)
(0.0454486 -0.053159 0)
(0.0482246 -0.0356392 0)
(0.0310955 -0.0141487 0)
(0.0283305 -0.0662989 0)
(0.0316003 -0.0505077 0)
(0.0277969 -0.0302216 0)
(0.0101606 -0.00965331 0)
(0.0153145 -0.0726087 0)
(0.0167228 -0.0374389 0)
(0.0103502 -0.0186968 0)
(0.000498703 -0.00278987 0)
(0.345278 -0.0509107 0)
(0.400451 -0.103705 0)
(0.438391 -0.16511 0)
(0.459111 -0.218408 0)
(0.467634 -0.268472 0)
(0.46844 -0.316888 0)
(0.463865 -0.36398 0)
(0.455162 -0.410173 0)
(0.443016 -0.455445 0)
(0.427755 -0.499505 0)
(0.409495 -0.541772 0)
(0.388273 -0.58144 0)
(0.364194 -0.61756 0)
(0.337542 -0.649174 0)
(0.308846 -0.675476 0)
(0.278866 -0.695958 0)
(0.248519 -0.710494 0)
(0.218752 -0.719346 0)
(0.190421 -0.723086 0)
(0.164202 -0.722478 0)
(0.140539 -0.718347 0)
(0.119656 -0.711474 0)
(0.101581 -0.702525 0)
(0.0862034 -0.692016 0)
(0.0733172 -0.680296 0)
(0.0626603 -0.667546 0)
(0.0539376 -0.653791 0)
(0.046889 -0.638922 0)
(0.0415816 -0.622579 0)
(0.0373308 -0.604258 0)
(0.033855 -0.583482 0)
(0.0308484 -0.559587 0)
(0.0279717 -0.531652 0)
(0.0246269 -0.498091 0)
(0.0198545 -0.457643 0)
(0.0131479 -0.409553 0)
(0.404567 -0.0478995 0)
(0.453433 -0.0984113 0)
(0.485807 -0.158196 0)
(0.502892 -0.210576 0)
(0.509266 -0.259888 0)
(0.508719 -0.307486 0)
(0.503156 -0.353658 0)
(0.493559 -0.398694 0)
(0.480343 -0.442441 0)
(0.463567 -0.484414 0)
(0.443101 -0.52377 0)
(0.418808 -0.559383 0)
(0.39073 -0.589989 0)
(0.359244 -0.614401 0)
(0.325128 -0.631754 0)
(0.289501 -0.641688 0)
(0.253667 -0.644401 0)
(0.218904 -0.640572 0)
(0.186279 -0.631186 0)
(0.156543 -0.617326 0)
(0.130099 -0.600015 0)
(0.107048 -0.580098 0)
(0.0872538 -0.558193 0)
(0.0704265 -0.534692 0)
(0.0561862 -0.509774 0)
(0.0441069 -0.483447 0)
(0.0337322 -0.455582 0)
(0.0245908 -0.425957 0)
(0.0162377 -0.394248 0)
(0.00823538 -0.360036 0)
(0.000304059 -0.323266 0)
(-0.00787816 -0.283856 0)
(-0.0165602 -0.241715 0)
(-0.0258338 -0.196962 0)
(-0.0359125 -0.150849 0)
(-0.0450421 -0.106833 0)
(0.461027 -0.0449112 0)
(0.504272 -0.0930004 0)
(0.531989 -0.150647 0)
(0.545776 -0.201646 0)
(0.550064 -0.24974 0)
(0.548101 -0.296106 0)
(0.541378 -0.340895 0)
(0.530583 -0.384233 0)
(0.515817 -0.42576 0)
(0.49681 -0.464708 0)
(0.47314 -0.499891 0)
(0.444489 -0.529828 0)
(0.410913 -0.552994 0)
(0.37304 -0.568157 0)
(0.332098 -0.574685 0)
(0.289747 -0.5727 0)
(0.247781 -0.56301 0)
(0.207803 -0.546885 0)
(0.171009 -0.525767 0)
(0.1381 -0.501022 0)
(0.109316 -0.473785 0)
(0.0845366 -0.444894 0)
(0.0634013 -0.4149 0)
(0.0454201 -0.384115 0)
(0.0300579 -0.352674 0)
(0.0167892 -0.320626 0)
(0.00515171 -0.288008 0)
(-0.00520471 -0.254968 0)
(-0.0145819 -0.221687 0)
(-0.0232871 -0.188446 0)
(-0.0315071 -0.155584 0)
(-0.0392453 -0.123689 0)
(-0.0468229 -0.0937703 0)
(-0.0537203 -0.067543 0)
(-0.0592185 -0.0446891 0)
(-0.0643586 -0.0252651 0)
(0.514206 -0.0419246 0)
(0.552686 -0.0876735 0)
(0.576519 -0.142755 0)
(0.587312 -0.191817 0)
(0.589641 -0.238297 0)
(0.586178 -0.282979 0)
(0.578065 -0.325884 0)
(0.565659 -0.366925 0)
(0.548691 -0.405471 0)
(0.526508 -0.440417 0)
(0.498386 -0.470217 0)
(0.463906 -0.493114 0)
(0.423323 -0.507535 0)
(0.377768 -0.512525 0)
(0.329154 -0.508038 0)
(0.279813 -0.494939 0)
(0.23201 -0.474749 0)
(0.187552 -0.449266 0)
(0.147592 -0.420228 0)
(0.112622 -0.389101 0)
(0.0826047 -0.356984 0)
(0.0571438 -0.324629 0)
(0.0356633 -0.292512 0)
(0.0175469 -0.260937 0)
(0.00223093 -0.230156 0)
(-0.010736 -0.200472 0)
(-0.0217895 -0.17218 0)
(-0.0313372 -0.1455 0)
(-0.0396704 -0.120641 0)
(-0.0470619 -0.0978404 0)
(-0.0536903 -0.0773377 0)
(-0.0591388 -0.0596458 0)
(-0.0634162 -0.0441847 0)
(-0.0676448 -0.0309554 0)
(-0.071688 -0.0204623 0)
(-0.0747262 -0.012033 0)
(0.564119 -0.0389771 0)
(0.598621 -0.0823864 0)
(0.61892 -0.134604 0)
(0.627165 -0.181273 0)
(0.627621 -0.225796 0)
(0.622539 -0.268339 0)
(0.612735 -0.308865 0)
(0.598198 -0.347018 0)
(0.578231 -0.381864 0)
(0.551784 -0.411961 0)
(0.517893 -0.43548 0)
(0.476222 -0.450588 0)
(0.427503 -0.455966 0)
(0.373643 -0.451267 0)
(0.317394 -0.437249 0)
(0.261731 -0.415554 0)
(0.209235 -0.388266 0)
(0.161703 -0.357476 0)
(0.12006 -0.324995 0)
(0.0844738 -0.292223 0)
(0.05459 -0.260159 0)
(0.0297811 -0.229479 0)
(0.00934909 -0.200659 0)
(-0.00736728 -0.174102 0)
(-0.0209862 -0.150043 0)
(-0.0321251 -0.128482 0)
(-0.0412961 -0.109265 0)
(-0.0489232 -0.0921539 0)
(-0.055313 -0.0769347 0)
(-0.0606939 -0.0634356 0)
(-0.0652543 -0.051546 0)
(-0.0691693 -0.0411359 0)
(-0.0724147 -0.0319615 0)
(-0.0750515 -0.0239519 0)
(-0.0773121 -0.0172093 0)
(-0.0792273 -0.0114591 0)
(0.610823 -0.0360989 0)
(0.641918 -0.0770187 0)
(0.659005 -0.126247 0)
(0.665045 -0.170264 0)
(0.663656 -0.212442 0)
(0.656795 -0.252446 0)
(0.644941 -0.290147 0)
(0.627673 -0.324898 0)
(0.603842 -0.355473 0)
(0.572037 -0.380158 0)
(0.531216 -0.397003 0)
(0.481389 -0.404356 0)
(0.424057 -0.401444 0)
(0.362088 -0.388715 0)
(0.299066 -0.367734 0)
(0.238438 -0.340738 0)
(0.182863 -0.31011 0)
(0.133933 -0.278003 0)
(0.0922289 -0.24615 0)
(0.0575739 -0.215842 0)
(0.0293418 -0.187976 0)
(0.00671729 -0.163143 0)
(-0.0111877 -0.141677 0)
(-0.0253288 -0.123393 0)
(-0.036596 -0.107804 0)
(-0.0457059 -0.0942611 0)
(-0.053203 -0.0822238 0)
(-0.0594692 -0.0713144 0)
(-0.0647442 -0.0612987 0)
(-0.0691646 -0.0520513 0)
(-0.0728293 -0.0435354 0)
(-0.0758581 -0.0357658 0)
(-0.078325 -0.0287152 0)
(-0.0803319 -0.0223361 0)
(-0.0819776 -0.0166906 0)
(-0.083388 -0.0117365 0)
(0.654323 -0.0333052 0)
(0.682485 -0.0715919 0)
(0.69671 -0.11773 0)
(0.700685 -0.158926 0)
(0.697446 -0.198436 0)
(0.688612 -0.235584 0)
(0.674314 -0.270107 0)
(0.653689 -0.301081 0)
(0.625157 -0.327044 0)
(0.587059 -0.346129 0)
(0.538494 -0.356471 0)
(0.480113 -0.356838 0)
(0.414403 -0.347178 0)
(0.345233 -0.328743 0)
(0.276859 -0.303728 0)
(0.212958 -0.274699 0)
(0.156057 -0.244103 0)
(0.107424 -0.214007 0)
(0.0672729 -0.18601 0)
(0.0350799 -0.161228 0)
(0.00988502 -0.140284 0)
(-0.00954077 -0.123274 0)
(-0.024593 -0.109528 0)
(-0.0365032 -0.0981282 0)
(-0.0461945 -0.0882052 0)
(-0.0542689 -0.0791621 0)
(-0.0610833 -0.0706392 0)
(-0.0668476 -0.0624671 0)
(-0.071707 -0.0546029 0)
(-0.0757402 -0.0470712 0)
(-0.079003 -0.0398949 0)
(-0.0815783 -0.0331441 0)
(-0.0835748 -0.0268943 0)
(-0.0851058 -0.0211679 0)
(-0.0862691 -0.0160097 0)
(-0.0872007 -0.0114421 0)
(0.694619 -0.0306056 0)
(0.720257 -0.0661643 0)
(0.731902 -0.109139 0)
(0.733897 -0.14738 0)
(0.728763 -0.183997 0)
(0.717744 -0.218067 0)
(0.700602 -0.249176 0)
(0.676033 -0.276178 0)
(0.642093 -0.297455 0)
(0.597043 -0.311139 0)
(0.540382 -0.315641 0)
(0.473637 -0.310314 0)
(0.400384 -0.295855 0)
(0.325383 -0.274177 0)
(0.253329 -0.247858 0)
(0.187902 -0.219552 0)
(0.131357 -0.191606 0)
(0.0845839 -0.165907 0)
(0.0473701 -0.143791 0)
(0.0186892 -0.125918 0)
(-0.00304207 -0.11215 0)
(-0.0196821 -0.101531 0)
(-0.0328667 -0.0928784 0)
(-0.043697 -0.0852648 0)
(-0.0528282 -0.0781211 0)
(-0.0606414 -0.071147 0)
(-0.0673328 -0.0642123 0)
(-0.0730018 -0.0572789 0)
(-0.0777231 -0.0503828 0)
(-0.0815648 -0.0436127 0)
(-0.0845927 -0.0370436 0)
(-0.086864 -0.0307701 0)
(-0.0884874 -0.024901 0)
(-0.0895856 -0.019519 0)
(-0.0902783 -0.01469 0)
(-0.0907057 -0.0104583 0)
(0.731736 -0.0280073 0)
(0.755201 -0.0607932 0)
(0.764493 -0.100562 0)
(0.764562 -0.135762 0)
(0.75746 -0.169353 0)
(0.744042 -0.200223 0)
(0.723687 -0.227818 0)
(0.694686 -0.250835 0)
(0.654839 -0.267609 0)
(0.602528 -0.276417 0)
(0.537882 -0.276088 0)
(0.463457 -0.266613 0)
(0.383888 -0.249343 0)
(0.30463 -0.226638 0)
(0.230577 -0.201221 0)
(0.165229 -0.175648 0)
(0.110479 -0.152042 0)
(0.0667433 -0.131958 0)
(0.0331883 -0.116183 0)
(0.0080148 -0.104525 0)
(-0.0110549 -0.0959434 0)
(-0.0261067 -0.089113 0)
(-0.0385102 -0.0830917 0)
(-0.0490548 -0.0773271 0)
(-0.0581564 -0.0715222 0)
(-0.0660401 -0.0655478 0)
(-0.0728189 -0.0593877 0)
(-0.0785567 -0.0530676 0)
(-0.0832867 -0.0466529 0)
(-0.0870522 -0.0402533 0)
(-0.0899074 -0.0339888 0)
(-0.0919096 -0.0279868 0)
(-0.0931657 -0.0223745 0)
(-0.0938121 -0.0172658 0)
(-0.0939981 -0.0127489 0)
(-0.0938836 -0.00888101 0)
(0.765737 -0.0255175 0)
(0.787321 -0.0555293 0)
(0.794447 -0.09209 0)
(0.792621 -0.124218 0)
(0.78347 -0.154735 0)
(0.767459 -0.182378 0)
(0.743591 -0.206486 0)
(0.709812 -0.225677 0)
(0.663809 -0.238342 0)
(0.604279 -0.243023 0)
(0.532157 -0.239042 0)
(0.45107 -0.226978 0)
(0.366585 -0.20866 0)
(0.284632 -0.186671 0)
(0.210088 -0.163692 0)
(0.146131 -0.142041 0)
(0.0941762 -0.123475 0)
(0.0539878 -0.108996 0)
(0.0238916 -0.0985805 0)
(0.00132572 -0.091239 0)
(-0.0162549 -0.0856432 0)
(-0.0306524 -0.080793 0)
(-0.0428888 -0.0760993 0)
(-0.0535158 -0.0712608 0)
(-0.0628207 -0.0661365 0)
(-0.0709368 -0.060679 0)
(-0.0779255 -0.0549139 0)
(-0.0838181 -0.0489027 0)
(-0.0886195 -0.0427396 0)
(-0.0923469 -0.0365505 0)
(-0.095039 -0.0304805 0)
(-0.0967597 -0.0246809 0)
(-0.0976223 -0.0192974 0)
(-0.0977808 -0.0144626 0)
(-0.0974134 -0.0102799 0)
(-0.0967077 -0.00681404 0)