/*--------------------------------*- C++ -*----------------------------------*\
| =========                 |                                                 |
| \\      /  F ield         | OpenFOAM: The Open Source CFD Toolbox           |
|  \\    /   O peration     | Version:  v2012                                 |
|   \\  /    A nd           | Website:  www.openfoam.com                      |
|    \\/     M anipulation  |                                                 |
\*---------------------------------------------------------------------------*/
FoamFile
{
    version     2.0;
    format      ascii;
    class       volScalarField;
    location    "684";
    object      age;
}
// * * * * * * * * * * * * * * * * * * * * * * * * * * * * * * * * * * * * * //

dimensions      [0 0 1 0 0 0 0];


internalField   nonuniform List<scalar> 
6018
(
0.668956
0.614799
0.565955
0.521106
0.479331
0.439969
0.402532
0.366664
0.332128
0.298758
0.266435
0.235072
0.204605
0.174981
0.146157
0.118093
0.0907475
0.0640796
0.0380469
0.0126017
0.518527
0.484249
0.452771
0.422549
0.393074
0.36567
0.338815
0.312573
0.286729
0.261194
0.235891
0.210765
0.185777
0.160901
0.136111
0.111382
0.0866894
0.0620029
0.03728
0.0124673
0.466187
0.441965
0.418153
0.394566
0.371185
0.347951
0.324669
0.301345
0.277946
0.254457
0.230867
0.207166
0.183341
0.159381
0.135282
0.111036
0.0866379
0.0620802
0.0373615
0.0124875
0.459343
0.437137
0.414796
0.392321
0.369704
0.346943
0.324044
0.301007
0.27783
0.254509
0.231039
0.207415
0.183634
0.15969
0.135577
0.111291
0.0868315
0.0622017
0.0374136
0.012494
0.459295
0.43707
0.41473
0.392272
0.369687
0.346972
0.32412
0.301127
0.277985
0.254689
0.231235
0.207617
0.18383
0.15987
0.135731
0.111411
0.0869143
0.0622482
0.0374303
0.0124954
0.458677
0.436521
0.414273
0.391905
0.369402
0.346755
0.323958
0.301007
0.277898
0.254627
0.231192
0.207588
0.183811
0.159858
0.135723
0.111407
0.0869124
0.0622474
0.0374301
0.0124954
0.458033
0.43602
0.413872
0.391567
0.369097
0.346464
0.323669
0.300717
0.277612
0.254349
0.230925
0.207337
0.183582
0.159657
0.135557
0.11128
0.086826
0.0621995
0.0374129
0.0124939
0.458516
0.43668
0.414562
0.392181
0.369572
0.346771
0.323829
0.300755
0.277537
0.254181
0.230685
0.207046
0.183262
0.159331
0.135252
0.11102
0.0866299
0.0620771
0.0373606
0.0124874
0.478821
0.456395
0.432738
0.408375
0.383773
0.359671
0.33499
0.31016
0.285223
0.260264
0.235321
0.21042
0.185575
0.160787
0.136051
0.111352
0.0866767
0.0619988
0.0372793
0.0124673
0.593761
0.566483
0.533963
0.500299
0.465722
0.43115
0.396868
0.36306
0.329859
0.297347
0.26557
0.234554
0.204303
0.174813
0.146069
0.11805
0.0907291
0.064073
0.0380452
0.0126014
43.5277
43.1095
43.4543
43.9667
44.6889
45.7872
47.4171
49.4126
52.844
53.0355
51.9911
50.8958
50.142
49.9586
50.2835
50.7705
51.2814
51.8328
52.2579
52.7894
53.1239
53.8461
54.6722
55.662
56.5818
17.1692
2.01103
1.72512
1.3505
1.15097
1.00231
0.891589
0.803499
0.730803
39.4224
39.6073
39.8399
40.2519
40.8639
41.6921
42.742
43.9703
44.9485
45.1391
44.6972
44.3296
44.2095
44.314
44.5597
44.9673
45.4614
45.8842
46.2874
48.3516
51.886
45.7445
28.066
15.7098
7.74519
2.2566
1.06466
1.04639
0.878157
0.790731
0.71376
0.652918
0.601366
0.557159
40.0421
41.129
41.4961
41.3879
41.2472
41.3047
41.4014
41.7418
42.1479
42.4661
42.7016
42.9186
43.2304
43.5604
43.877
44.1764
45.1541
46.0457
43.7725
35.0249
22.5136
10.8382
3.77588
1.29975
0.989932
0.860726
0.765455
0.718823
0.659281
0.618783
0.581376
0.547798
0.518179
0.491438
46.5979
49.7411
50.9195
49.9255
47.5026
44.9531
43.2152
42.4464
42.4107
42.6466
43.0795
43.6354
44.2722
44.6684
45.247
44.776
42.0847
33.414
20.6271
9.29566
3.22531
1.00502
0.9074
0.803675
0.7462
0.701556
0.662243
0.63026
0.601119
0.574837
0.549847
0.526265
0.503827
0.48157
59.3531
64.4078
65.8773
63.9856
59.6416
54.3276
49.5829
46.3569
44.8141
44.4813
44.8265
45.253
46.3652
45.7009
42.8165
34.7677
22.6789
10.7198
3.71316
1.00995
0.922804
0.80967
0.766535
0.723216
0.691337
0.662359
0.636435
0.613512
0.591582
0.56955
0.54773
0.525836
0.503779
0.481536
77.0308
83.5287
84.7388
81.1805
74.3561
66.1645
58.4919
52.7156
49.2975
47.7093
46.9185
46.7122
44.7892
38.1814
27.0463
14.6403
5.65668
1.59041
0.949155
0.846648
0.800989
0.758485
0.729337
0.703589
0.680048
0.657535
0.635887
0.614296
0.592414
0.570247
0.547981
0.525623
0.503257
0.480907
97.4002
104.528
104.703
98.7729
88.8624
77.4899
66.8818
58.6178
52.8837
49.6895
48.0571
42.539
32.8918
20.5095
9.4834
3.0729
1.02807
0.933489
0.835616
0.802687
0.771781
0.748137
0.72509
0.703505
0.681663
0.659734
0.637456
0.61484
0.592125
0.56946
0.546919
0.524527
0.502268
0.480087
117.51
124.231
122.528
113.664
100.331
85.6801
72.2436
61.359
54.0717
48.7525
40.4314
28.4158
16.0618
6.33311
1.88601
0.983669
0.890369
0.846288
0.814979
0.794662
0.771343
0.750805
0.728698
0.706448
0.683436
0.660107
0.636631
0.613306
0.590309
0.56771
0.545518
0.523633
0.501911
0.480217
134.674
139.929
135.496
123.282
106.479
88.6909
72.7386
60.3367
50.605
39.2237
25.495
12.9075
4.51968
1.26314
0.988808
0.892271
0.862078
0.840201
0.822434
0.800932
0.777289
0.753073
0.728115
0.703222
0.678672
0.654943
0.63227
0.610907
0.591062
0.573235
0.556082
0.538263
0.519697
0.500046
146.949
150.193
142.389
126.092
105.977
85.8746
68.5461
54.0146
39.451
24.0664
11.1084
3.53879
1.08718
0.985743
0.906732
0.882863
0.862758
0.839047
0.81247
0.783278
0.758131
0.740718
0.722557
0.70528
0.689158
0.674129
0.661612
0.652788
0.64729
0.644125
0.641969
0.639453
0.634267
0.623348
64.5944
57.2465
54.8186
51.7986
47.7913
44.9746
64.0991
58.6994
57.3677
48.708
42.3455
39.7981
65.5193
63.81
52.3742
42.3286
38.4806
38.8889
67.2825
59.2908
43.3241
37.8913
39.2276
42.5242
70.2377
45.9267
37.3505
38.9396
44.3994
51.9553
45.5081
36.5511
37.4105
43.7028
54.5876
66.5637
34.467
35.2775
40.5111
52.7732
68.6894
84.5578
34.024
36.2611
46.2818
63.9794
84.4811
103.373
33.8491
38.2335
53.6869
76.2386
100.105
120.599
33.7261
41.2798
61.7452
87.7631
113.529
134.186
153.274
152.509
141.287
121.274
98.8257
77.4705
58.4399
40.5462
23.5588
10.1552
3.03689
1.05536
0.974063
0.925034
0.902152
0.884396
0.861111
0.841594
0.829585
0.827839
0.858077
0.943862
1.1327
1.50454
2.2003
3.49011
5.85481
10.0927
16.8593
25.3717
35.7471
47.6984
59.7531
68.4195
154.742
148.295
132.378
109.705
85.9184
63.3264
42.4018
23.7684
9.78259
2.75437
1.05484
0.982109
0.947424
0.923695
0.909499
0.893737
0.883984
0.896407
0.959951
1.13766
1.51904
2.28471
3.90282
7.33981
13.7712
23.1116
35.2988
49.2778
62.7327
72.3759
81.1143
87.2271
93.0455
102.075
147.278
137.004
117.453
93.1263
68.3796
45.0802
24.868
10.0706
2.74066
1.05796
0.997902
0.971893
0.950995
0.935352
0.926719
0.933183
0.99083
1.17025
1.57976
2.4954
4.70971
9.78651
18.3434
30.6133
45.2736
59.5564
71.1935
78.0455
81.3089
81.4293
81.5767
82.4471
88.1057
102.544
134.558
120.449
98.2877
72.9565
48.1924
26.6141
10.8672
2.95509
1.09235
1.01526
0.996813
0.97878
0.962566
0.958085
0.984537
1.10317
1.41629
2.1827
4.28238
9.33316
18.3431
31.4775
46.7591
62.1238
73.6511
79.3785
81.3631
81.1306
80.9259
80.9489
81.2757
84.0629
92.3084
104.906
117.762
100.301
76.5006
51.3644
28.847
12.1272
3.38679
1.17007
1.03997
1.02138
1.0052
0.988068
0.985522
1.03295
1.20787
1.66171
3.05926
7.00176
14.8042
27.0411
42.4177
58.7826
72.2795
79.4028
81.8498
81.1779
80.6564
80.543
80.6343
81.0123
82.6894
87.5404
95.9577
107.078
98.0989
78.1933
54.2178
31.4167
13.8403
4.04724
1.28309
1.07306
1.04645
1.03121
1.01325
1.01166
1.06984
1.26929
1.90695
4.25686
9.86945
19.9129
33.8841
50.4119
66.181
77.326
81.6432
81.7152
80.9363
80.4304
80.2952
80.4564
80.9173
82.9542
87.421
94.1231
101.887
109.754
77.0643
56.1921
34.1403
16.0204
4.97882
1.43924
1.11572
1.07239
1.05633
1.03779
1.03403
1.09288
1.30431
2.20645
5.39788
12.4167
23.7007
38.7628
55.3738
70.2989
79.5862
82.6425
81.7275
80.616
80.0494
80.017
80.2928
81.653
85.4017
91.5612
98.6788
105.181
109.68
112.715
56.497
36.5605
18.4154
6.228
1.65485
1.17045
1.1009
1.0804
1.06307
1.05793
1.10708
1.29756
2.46205
6.26903
14.1901
26.2899
41.7349
58.1652
72.1128
79.9571
81.7272
80.8361
79.9946
79.6222
79.8435
80.9936
84.7096
91.6545
100.981
110.18
117.063
120.28
118.926
115.864
38.1016
20.8378
7.8454
2.09865
1.23705
1.1347
1.1069
1.09142
1.08231
1.10388
1.20072
2.57363
6.77883
15.1629
27.7723
43.4224
59.6544
72.8905
79.5059
80.476
79.8585
79.3542
79.2794
80.0943
83.4221
90.6532
102.215
116.158
129.498
138.917
142.177
138.674
128.853
118.775
23.0441
9.87218
2.86925
1.34874
1.17722
1.1352
1.11891
1.10568
1.10995
1.17203
2.45995
6.92831
15.4403
28.3607
44.3314
60.6835
73.6357
79.3975
79.8502
79.3032
78.8322
79.0692
80.8287
86.5876
98.0047
114.895
135.339
155.637
170.923
177.088
172.58
158.468
138.162
121.584
12.2839
4.04345
1.54109
1.23491
1.16768
1.14537
1.12896
1.12273
1.17298
2.20376
6.50841
15.1583
28.2234
44.7186
61.6271
74.718
80.0386
80.0206
79.0748
78.4501
78.5624
80.387
87.5494
102.339
124.626
152.405
181.349
205.841
219.837
219.22
203.075
175.883
145.057
123.296
5.6747
1.85413
1.31948
1.20745
1.17321
1.15315
1.14052
1.18025
1.86302
5.66965
14.2226
27.4782
44.5628
62.3877
76.0109
81.3994
80.7716
79.58
78.3942
78.1398
78.6771
84.1433
98.6667
122.973
155.692
191.946
225.205
250.274
261.495
252.702
225.243
186.812
148.13
123.815
2.60688
1.43642
1.25905
1.20371
1.17842
1.16257
1.19175
1.49069
4.5707
12.6697
25.9631
43.6013
62.4343
76.9824
83.0889
82.7942
81.8478
79.8812
78.2626
78.019
78.8436
87.1291
105.501
135.47
174.102
213.701
247.235
272.061
283.465
269.144
233.76
188.67
146.943
124.167
1.6747
1.33384
1.24172
1.20884
1.1868
1.18562
1.25628
3.35452
10.5968
23.5601
41.5634
61.4921
77.582
85.2778
86.4353
86.0285
84.3239
81.6828
79.1331
77.8807
78.4038
84.6268
101.511
130.89
169.954
210.224
244.026
268.975
279.231
264.05
227.364
182.207
142.964
124.529
1.45394
1.29499
1.24054
1.21294
1.2016
1.26289
2.24356
8.05015
20.2791
38.2249
59.1855
77.3243
87.5057
90.8496
92.0634
91.8267
89.6606
86.2034
82.2529
79.0745
77.783
79.8843
90.0977
112.988
148.078
187.859
221.941
245.252
254.795
242.444
210.252
170.603
138.001
124.95
1.37513
1.28196
1.24313
1.22187
1.24641
1.45869
5.31384
16.1773
33.5366
55.1789
75.6356
89.0734
95.3975
99.0879
101.46
101.518
99.2899
95.0067
89.3921
83.644
79.3926
77.7095
80.5064
92.4709
118.336
154.494
189.521
212.542
221.327
213.78
188.954
157.855
133.542
125.487
1.3418
1.28067
1.25049
1.24624
1.32439
3.02185
11.5391
27.5895
49.2873
71.895
89.0768
99.048
105.766
111.488
115.098
115.962
113.889
108.994
101.9
93.6515
85.7216
79.9685
77.6482
80.1169
92.1854
118.923
153.229
180.217
190.097
186.136
169.041
146.802
130.579
126.2
1.33035
1.28353
1.26279
1.29874
1.62628
6.79388
20.7306
41.5539
65.6489
86.6274
100.776
110.824
120.088
127.935
133.092
134.988
133.277
128.079
119.898
109.618
98.5021
88.185
80.6405
77.5632
79.2822
90.7873
117.198
148.268
165.706
164.255
153.996
139.158
129.436
127.436
1.32891
1.29221
1.29116
1.37643
3.24884
13.4068
32.3532
56.7287
80.9805
99.6458
113.315
125.927
138.033
148.017
154.851
157.843
156.687
151.484
142.635
130.884
117.299
103.277
90.5562
81.1728
77.3218
78.381
89.4317
115.427
143.147
151.203
144.464
135.171
129.879
129.852
1.3331
1.30546
1.32503
1.46731
6.73373
22.3029
45.5326
71.7897
94.9014
112.587
128.261
144.145
158.902
170.987
179.419
183.523
183.055
178.083
168.94
156.244
140.881
124.039
107.234
92.2958
81.3536
76.8421
77.6431
89.0318
115.557
140.837
139.998
134.057
130.565
132.698
1.34189
1.32826
1.38706
2.54316
12.518
32.8281
59.2587
85.9539
108.082
126.825
145.731
164.736
181.934
195.98
205.901
211.122
211.422
206.837
197.658
184.405
167.834
148.945
129.018
109.674
92.888
80.9166
76.1746
77.3932
90.3926
118.735
139.042
134.412
131.568
134.608
1.35361
1.35528
1.44343
4.86669
19.9261
44.2693
72.7245
99.1912
121.488
142.818
165.148
186.951
206.396
222.236
233.573
239.911
241.017
236.914
227.871
214.349
197.002
176.658
154.38
131.55
109.96
91.8394
79.6744
75.5613
77.9358
95.4048
126.798
136.173
133.112
135.952
1.36928
1.39187
1.59541
8.5834
28.4138
55.9681
85.5214
111.929
135.732
160.328
185.825
210.146
231.653
249.169
261.902
269.372
271.31
267.71
258.826
245.12
227.222
205.874
181.946
156.539
131.132
107.721
88.8946
77.7317
74.842
80.3651
106.255
135.366
134.176
137.028
1.39107
1.43622
2.41068
13.7041
37.4601
67.4368
97.6047
124.626
150.909
178.838
207.167
233.796
257.254
276.466
290.701
299.415
302.254
299.153
290.366
276.39
257.9
235.653
210.448
183.182
155.009
127.552
103.082
84.556
75.5373
74.361
86.8046
121.732
136.017
138.375
1.41497
1.4755
3.92694
19.5921
46.6396
78.3962
109.124
137.538
166.778
197.82
228.707
257.526
282.956
304.023
319.964
330.09
333.924
331.327
322.55
308.149
288.894
265.634
239.196
210.385
180.099
149.59
120.764
96.3326
79.6552
73.9661
76.1062
100.875
139.034
139.619
1.44043
1.51534
6.11833
25.8589
55.6375
88.7393
120.256
150.68
182.97
216.836
250.102
281.097
308.647
331.818
349.713
361.454
366.404
364.331
355.475
340.465
320.2
295.68
267.852
237.541
205.503
172.643
140.397
111.088
88.027
75.3304
72.7846
83.5186
129.028
141.082
1.46453
1.55357
8.89701
32.2172
64.2455
98.4611
131.102
163.904
199.115
235.55
271.109
304.365
334.261
359.822
379.946
393.529
399.743
398.23
389.211
373.404
351.867
325.788
296.289
264.308
230.589
195.821
160.997
127.925
99.5922
79.8835
72.6812
73.6801
101.667
143.299
1.49841
1.79712
12.1827
38.4461
72.3416
107.594
141.673
176.987
214.901
253.713
291.552
327.213
359.711
387.953
410.594
426.271
433.918
433.014
423.75
406.949
383.87
355.93
324.457
290.548
255.02
218.483
181.595
145.59
112.94
87.5335
73.8522
71.0832
84.876
144.966
1.52851
2.27028
15.669
44.3895
79.863
116.163
151.902
189.698
230.076
271.134
311.285
349.513
384.858
416.062
441.517
459.564
468.839
468.608
459.01
441.002
416.093
385.984
352.248
316.152
278.62
240.274
201.599
163.356
127.336
97.0825
77.2896
70.9659
73.875
121.726
1.5556
2.92401
19.1266
49.9448
86.7816
124.174
161.685
201.826
244.447
287.656
330.159
371.1
409.5
443.924
472.494
493.207
504.328
504.844
494.818
475.37
448.324
415.734
379.459
340.953
301.239
260.977
220.585
180.522
141.933
107.654
82.5605
71.4744
69.4925
70.4885
1.58196
3.70284
22.4292
55.0463
93.0863
131.608
170.903
213.199
257.86
303.136
348.013
391.76
433.368
471.231
503.2
526.879
540.076
541.42
530.866
509.73
480.235
444.862
405.799
364.701
322.682
280.424
238.317
196.655
156.124
118.732
88.9133
72.876
69.3784
69.2456
1.60787
4.55191
25.4975
59.656
98.7729
138.432
179.442
223.677
270.186
317.434
364.658
411.233
456.122
497.579
533.183
560.1
575.598
577.849
566.656
543.584
511.348
472.931
430.886
387.077
342.693
298.421
254.615
211.467
169.371
129.707
96.1335
75.0517
69.3561
68.8014
1.63334
5.42061
28.2797
63.7549
103.84
144.606
187.204
233.149
281.314
330.408
379.887
429.219
477.359
522.456
561.837
592.201
610.192
613.411
601.458
576.212
540.999
499.364
454.241
407.693
360.969
314.737
269.306
224.78
181.358
139.987
103.555
78.0317
69.5034
68.5879
1.65838
6.26448
30.7427
67.3357
108.285
150.091
194.109
241.527
291.145
341.913
393.475
445.385
496.613
545.247
588.395
622.296
642.899
647.109
634.26
606.644
568.325
523.446
475.295
426.106
377.172
329.118
282.199
236.449
191.904
149.222
110.596
81.4462
69.7556
68.4397
1.68294
7.04662
32.8674
70.3988
112.109
154.854
200.095
248.743
299.591
351.808
405.194
459.383
513.378
565.247
611.939
649.275
672.487
677.654
663.752
633.662
592.286
544.34
493.404
441.834
390.942
341.3
293.1
246.32
200.863
157.18
117.041
85.0183
70.1
68.3207
1.70703
7.73808
34.6453
72.9501
115.311
158.868
205.118
254.745
306.572
359.958
414.823
470.865
527.131
581.702
631.434
671.829
697.453
703.458
688.334
655.855
611.735
561.158
507.901
454.385
401.921
351.024
301.821
254.252
208.116
163.684
122.518
88.4667
70.5087
68.2215
1.73062
8.31806
36.0764
75
117.896
162.115
209.146
259.494
312.023
366.244
422.16
479.512
537.381
593.867
645.787
688.48
716.021
722.282
706.187
671.734
625.526
573.045
518.16
463.305
409.778
358.05
308.189
260.119
213.564
168.643
126.811
91.4887
70.9383
68.1349
1.75373
8.77413
37.168
76.5631
119.872
164.587
212.164
262.963
315.893
370.569
427.042
485.06
543.712
601.106
654.098
698.061
725.096
730.29
715.487
679.962
632.686
579.295
523.669
468.224
414.245
362.178
312.061
263.811
217.119
171.988
129.793
93.818
71.3355
68.0563
1.7764
9.10146
37.9341
77.6579
121.25
166.285
214.164
265.138
318.146
372.863
429.346
487.317
545.838
602.996
655.641
699.227
725.033
730.332
715.017
679.671
632.601
579.465
524.101
468.899
415.138
363.268
313.329
265.245
218.702
173.652
131.399
95.2571
71.6417
67.9826
1.79865
9.30296
38.3928
78.3062
122.047
167.218
215.153
266.02
318.768
373.089
429.011
486.196
543.642
599.382
650.243
691.836
716.822
721.668
704.926
670.745
625.157
573.451
519.36
465.243
412.382
361.251
311.929
264.369
218.264
173.571
131.592
95.6872
71.7985
67.9111
1.82054
9.38251
38.5702
78.5358
122.288
167.405
215.147
265.616
317.757
371.242
426.033
481.706
537.173
590.404
638.232
676.481
699.222
702.606
686.321
653.987
610.82
561.535
509.613
457.347
406.018
356.137
307.852
261.163
215.785
171.717
130.342
95.0543
71.7407
67.8391
1.84192
9.37319
38.4811
78.3689
121.99
166.871
214.172
263.945
315.135
367.352
420.465
473.957
526.645
576.466
620.344
654.414
674.034
676.045
660.537
630.582
590.493
544.329
495.258
445.462
396.195
348.009
301.136
255.636
211.254
168.083
127.648
93.448
71.3336
67.7646
1.86285
9.29469
38.1535
77.8357
121.183
165.648
212.259
261.04
310.94
361.481
412.419
463.146
512.408
558.163
597.548
627.133
643.381
644.062
629.467
602.061
565.312
522.64
476.857
429.967
383.156
337.014
291.867
247.827
204.677
162.661
123.513
90.8933
70.6318
67.6863
1.8835
9.16387
37.6229
76.9703
119.897
163.766
209.444
256.941
305.228
353.717
402.05
449.538
494.899
536.193
570.864
596.03
609.069
608.533
594.809
569.851
536.423
497.356
455.066
411.321
367.211
323.359
280.175
237.805
196.082
155.473
117.982
87.4698
69.7177
67.5996
1.904
8.99793
36.9287
75.8101
118.168
161.26
205.766
251.698
298.062
344.168
389.543
433.442
474.608
511.275
541.264
562.273
572.418
570.803
557.859
535.153
504.88
469.342
430.552
390.014
348.708
307.287
266.226
225.666
185.517
146.572
111.147
83.3222
68.7104
67.4992
1.92457
8.81455
36.1138
74.3952
116.031
158.166
201.27
245.364
289.516
332.953
375.098
415.179
452.022
484.092
509.607
526.814
534.403
531.853
519.612
498.942
471.583
439.372
403.934
366.516
328.001
289.071
250.211
211.53
173.076
136.067
103.178
78.7104
67.7446
67.3961
1.94541
8.63163
35.2236
72.7668
113.519
154.511
195.994
237.991
279.663
320.19
358.913
395.063
427.6
455.246
476.609
490.408
495.774
492.436
480.832
461.984
437.254
408.078
375.735
341.253
305.443
268.995
232.336
195.541
158.908
124.169
94.3937
74.0894
67.061
67.3609
1.96678
8.46718
34.3048
70.9675
110.661
150.319
189.965
229.623
268.57
305.985
341.168
373.382
401.742
425.239
442.832
453.632
457.086
453.1
442.078
424.835
402.421
375.933
346.37
314.599
281.372
247.34
212.805
177.871
143.256
111.254
85.3363
70.3129
66.8714
67.4105
1.98912
8.34
33.4064
69.0422
107.49
145.61
183.209
220.3
256.297
290.435
322.019
350.371
374.771
394.455
408.689
416.885
418.721
414.208
403.703
387.841
367.415
343.256
316.163
286.889
256.113
224.377
191.828
158.764
126.521
97.9423
76.8846
67.6897
66.7377
67.5984
2.01273
8.27123
32.5799
67.0371
104.033
140.397
175.739
210.055
242.902
273.628
301.598
326.216
346.916
363.152
374.431
380.391
380.866
375.919
365.853
351.15
332.405
310.263
285.389
258.439
229.965
200.342
169.639
138.63
109.355
85.1864
70.4104
66.5686
67.0638
68.0656
2.0377
8.28803
31.8791
64.9968
100.308
134.677
167.55
198.902
228.432
255.643
280.008
301.041
318.316
331.459
340.159
344.208
343.534
338.223
328.516
314.784
297.485
277.145
254.324
229.537
203.165
175.441
146.587
118.135
92.8044
74.3973
66.6102
66.4453
68.2011
68.6922
2.06461
8.42334
31.3661
62.9607
96.3189
128.423
158.609
186.828
212.915
236.544
257.339
274.938
289.044
299.415
305.861
308.274
306.629
301.015
291.628
278.761
262.787
244.135
223.23
200.404
175.885
149.926
123.309
98.3704
78.4219
67.4081
65.5971
69.0835
71.4773
69.7381
2.09442
8.75564
31.0731
60.9578
92.0517
121.583
148.848
173.788
196.352
216.386
233.674
247.994
259.166
267.041
271.512
272.523
270.077
264.255
255.222
243.217
228.533
211.477
192.291
171.164
148.321
124.337
100.96
81.0602
68.2641
64.7983
68.4215
74.1276
74.8782
70.631
2.1287
9.378
31.0566
59.0008
87.464
114.069
138.162
159.694
178.71
195.201
209.101
220.326
228.797
234.44
237.198
237.041
233.985
228.1
219.514
208.402
194.946
179.294
161.557
141.978
120.991
99.9241
81.4755
68.5438
64.2764
67.2606
74.0682
78.8002
76.4322
71.1197
2.25316
10.4306
31.3841
57.0768
82.476
105.756
126.406
144.418
159.91
172.981
183.689
192.071
198.125
201.829
203.153
202.083
198.629
192.829
184.751
174.473
162.045
147.554
131.173
113.468
95.2443
79.0455
67.6607
63.5296
66.0929
72.7686
79.2731
80.4237
75.8923
71.4222
2.60706
12.0936
32.1363
55.1356
76.9624
96.4836
113.408
127.796
139.823
149.667
157.475
163.352
167.34
169.444
169.641
167.911
164.231
158.583
150.94
141.311
129.734
116.534
102.056
87.4132
73.948
65.4143
62.5762
65.1173
71.8927
78.2382
81.0099
78.4793
74.6486
71.7263
3.46536
14.6469
33.3941
53.0516
70.7234
86.0473
98.9901
109.689
118.369
125.252
130.512
134.263
136.56
137.404
136.758
134.559
130.725
125.177
117.891
108.97
98.7376
87.9439
76.8493
67.437
62.148
61.5029
64.7545
72.0234
77.6702
78.7818
77.657
76.2455
73.7209
72.092
5.6741
18.6583
35.2482
50.6123
63.5436
74.3495
83.1954
90.2673
95.8
100.011
103.052
105.02
105.968
105.82
104.503
101.933
98.0281
92.8069
86.5256
79.4868
72.3808
65.7966
60.779
59.2314
60.5175
66.7289
74.345
78.3142
77.2052
76.4243
75.7483
74.7358
73.487
72.9718
10.1134
24.8103
37.7924
47.4833
55.2243
61.4397
66.2565
69.8924
72.5616
74.4365
75.6479
76.1862
76.0052
75.123
73.5296
71.2342
68.3622
65.1644
61.9339
59.0133
56.8646
55.3777
57.3833
62.8226
71.3863
82.5984
79.3652
77.9616
77.1885
76.4128
75.7381
75.1676
74.797
75.5562
29.3492
34.8568
40.9598
44.1536
46.5738
48.774
50.3822
51.4047
52.028
52.3859
52.5352
52.5901
52.6436
52.6975
52.7526
52.81
52.872
52.9422
53.0273
53.1405
53.3082
53.7542
76.0106
88.6545
87.3158
85.8023
85.1408
84.2876
83.5914
82.0449
81.2562
81.0836
82.6574
86.0941
33.6299
44.8779
69.2299
97.3572
123.717
143.228
33.5435
48.4283
75.3316
104.128
129.733
147.017
33.4638
51.2581
79.1415
107.266
130.8
145.702
33.3872
53.0625
80.6233
106.916
126.83
136.759
33.3112
53.707
79.8412
103.264
119.347
124.555
33.2333
53.2048
76.9931
96.8027
108.37
108.903
33.0849
51.6713
72.4631
88.0579
94.8888
91.0261
32.6952
49.3858
66.6021
77.6719
79.8478
72.3038
32.0651
46.4457
59.7914
66.3876
64.4186
54.1764
31.2035
43.0071
52.3711
54.7801
49.4951
37.8153
30.096
39.1893
44.7122
43.5165
35.9434
24.2762
28.7799
35.1283
37.1562
33.1955
24.529
14.1611
27.4418
31.0078
30.0456
24.204
15.5672
7.38262
26.1451
27.0172
23.6786
16.9058
9.28612
3.69894
24.8119
23.2831
18.2072
11.3096
5.21472
2.08337
23.4838
19.8797
13.7315
7.37558
3.03622
1.62645
22.1847
16.8466
10.1939
4.73399
2.04134
1.48755
20.8559
14.2423
7.55968
3.18949
1.7105
1.42628
19.6102
12.0392
5.60134
2.35336
1.58184
1.39728
18.4893
10.2235
4.25462
1.9834
1.51761
1.38641
17.5047
8.72804
3.36356
1.808
1.48334
1.38497
16.6533
7.5146
2.81639
1.71206
1.46662
1.38936
15.9264
6.56129
2.49436
1.65545
1.46059
1.39707
15.313
5.82544
2.29557
1.62182
1.46127
1.40804
14.7965
5.25918
2.16611
1.60288
1.46664
1.4214
14.3519
4.82216
2.07901
1.59376
1.47549
1.43709
13.9753
4.49721
2.01963
1.59152
1.48699
1.45418
13.663
4.25621
1.97949
1.59417
1.50038
1.47284
13.4097
4.07692
1.95319
1.60043
1.51555
1.49326
13.2098
3.94376
1.93714
1.6095
1.53219
1.51414
13.0572
3.84588
1.92892
1.62077
1.54893
1.53512
12.9467
3.77575
1.92681
1.63373
1.56563
1.55611
12.8731
3.7278
1.92956
1.64798
1.58247
1.57705
12.8324
3.69799
1.93617
1.66323
1.59981
1.59791
12.821
3.6833
1.94593
1.67933
1.61787
1.61865
12.8351
3.6805
1.95829
1.69614
1.63626
1.63927
12.8645
3.6924
1.97284
1.71354
1.65487
1.65974
12.8941
3.72717
1.98928
1.73144
1.67363
1.6801
12.9238
3.78395
2.0074
1.74976
1.69251
1.70027
12.9539
3.85914
2.02649
1.76842
1.71151
1.7206
12.9843
3.9489
2.04618
1.78736
1.73059
1.74092
13.015
4.04894
2.06637
1.80644
1.74974
1.76113
13.0461
4.15442
2.0869
1.8256
1.76893
1.78121
13.0776
4.25993
2.10754
1.84482
1.78816
1.80118
13.1095
4.35927
2.12804
1.86402
1.80741
1.82111
13.1416
4.4451
2.1481
1.88317
1.82669
1.84107
13.174
4.5101
2.16751
1.90216
1.84598
1.86116
13.2065
4.54287
2.18542
1.92079
1.86525
1.88146
13.2083
4.54999
2.20089
1.93889
1.8845
1.90205
13.1646
4.5325
2.21326
1.9563
1.90373
1.92299
13.0673
4.48719
2.22191
1.97288
1.92298
1.94441
12.9085
4.41059
2.22639
1.98852
1.94222
1.96588
12.6831
4.30123
2.22643
2.00314
1.96148
1.9881
12.3908
4.16049
2.22202
2.01677
1.98078
2.01093
12.0351
3.9923
2.21365
2.02953
2.00033
2.03848
11.6234
3.80435
2.20234
2.04157
2.02015
2.0722
11.171
3.6075
2.18945
2.05374
2.04193
2.11469
10.7005
3.41379
2.17707
2.06418
2.06156
2.15897
10.2385
3.23627
2.16775
2.07558
2.10538
2.68759
9.81403
3.08211
2.15922
2.10077
3.37548
12.7496
9.50121
2.97491
2.1605
2.14713
5.8368
16.2587
9.2478
2.89933
2.16808
2.45089
7.88822
16.2803
9.04573
2.84373
2.17334
2.85256
9.2014
15.7581
112.848
112.602
113.83
115.661
118.522
122.127
125.916
129.845
132.696
134.062
134.362
134.599
134.839
135.101
135.414
135.829
136.428
137.542
144.24
397.828
404.588
397.842
394.558
393.034
391.339
389.655
388.593
386.794
387.543
395.664
413.64
451.343
523.42
635.037
107.899
99.5863
103.122
108.181
116.965
128.792
142.179
155.322
166.307
173.924
177.501
176.452
171.631
164.353
156.11
148.653
143.518
140.729
141.125
196.067
307.573
372.922
337.724
333.595
329.779
326.531
323.408
320.326
317.855
316.734
318.704
330.16
363.701
424.18
103.207
89.2569
93.7803
102.74
117.779
139.718
166.274
194.055
219.209
238.64
250.508
253.561
247.832
234.599
216.131
195.007
174.818
158.38
147.677
144.317
183.854
283.005
333.828
330.005
325.804
323.516
320.318
316.104
311.072
306.063
302.988
301.996
310.43
332.64
97.555
79.106
86.3647
98.9431
119.985
152.66
194.382
239.755
282.395
316.925
339.898
349.62
345.778
329.552
303.264
270.086
234.292
200.771
173.031
154.038
146.772
187.894
280.08
332.587
340.723
346.519
346.476
341.587
331.573
317.941
304.225
296.336
295.516
306.14
91.7236
71.1648
79.7122
95.7429
122.79
166.941
225.607
290.71
352.704
403.8
439.117
456.447
455.575
437.836
405.713
362.579
312.901
262.522
217.057
181.075
156.463
151.837
201.053
293.057
351.501
371.76
383.251
381.774
368.527
345.373
318.517
296.93
288.975
292.576
86.3984
68.8247
74.2442
92.6482
125.631
181.801
258.653
344.46
426.113
493.705
541.293
566.274
568.539
549.836
513.077
461.934
400.88
335.888
273.613
220.689
180.064
156.916
162.201
224.299
320.02
384.251
415.309
425.934
413.859
382.374
341.324
304.535
286.727
284.149
82.1888
68.4063
70.7346
89.5015
128.074
196.316
291.608
397.515
497.414
580.085
638.956
671.135
676.352
656.799
616.103
558.539
488.721
412.325
335.938
267.694
212.409
173.027
159.611
181.217
263.052
361.671
429.94
462.336
458.911
423.556
369.738
316.651
285.659
278.559
79.0522
68.002
68.7015
86.3773
129.84
209.493
322.107
445.717
560.81
656.004
724.402
763.031
770.884
750.504
706.394
643.796
567.725
483.447
396.971
316.595
248.906
196.615
166.093
164.993
208.823
308.9
409.866
473.847
488.818
460.592
399.043
331.42
287.096
274.788
76.8726
67.8253
67.6983
83.443
130.774
220.355
347.662
484.939
610.848
714.917
790.048
832.989
842.924
822.574
776.213
710.209
630.45
541.96
449.902
361.752
285.19
223.39
179.585
165.183
178.882
248.081
355.256
449.556
489.48
481.783
422.597
345.689
289.815
272.077
75.456
67.6642
67.4641
80.973
130.796
228.007
365.984
511.71
643.129
751.263
828.818
868.358
873.294
858.603
815.788
750.476
670.655
582.027
489.144
398.269
317.171
249.612
197.606
169.861
169.802
201.583
287.294
388.655
459.628
487.971
432.066
355.527
292.575
269.524
74.6022
67.5467
67.2547
78.9991
129.837
231.665
375.206
523.541
654.68
761.131
835.747
873.019
879.554
863.302
822.074
759.779
683.797
599.411
510.525
422.235
341.534
272.409
216.65
179.205
169.977
178.266
226.132
310.269
391.066
433.531
417.237
355.564
293.405
267.017
74.0027
67.5064
67.0709
77.3791
127.765
230.613
373.955
518.982
644.054
743.023
810.622
846.164
852.051
832.948
793.486
736.622
668.126
592.127
511.85
431.185
355.95
289.734
234.37
191.699
172.642
172.572
188.652
240.25
309.125
362.282
373.796
339.716
290.23
264.222
73.3325
67.5975
66.9035
75.9807
124.323
224.077
361.355
497.587
611.291
698.263
755.685
784.065
786.769
767.965
732.021
682.909
624.734
560.512
492.769
424.384
359.303
300.318
249.26
206.767
179.855
172.846
174.799
194.215
238.421
287.826
316.824
311.039
281.035
260.565
72.475
67.824
66.7447
74.6785
119.292
211.489
337.03
459.543
557.705
629.035
673.663
693.387
691.965
673.804
642.961
603.102
557.159
507.286
455.199
402.609
351.506
303.601
260.403
222.165
192.179
176.744
173.406
176.01
193.212
227.135
260.541
274.736
265.982
255.909
71.3177
68.4808
66.5846
73.3204
112.413
192.749
300.968
405.43
485.521
539.323
569.639
579.926
574.494
557.489
532.624
502.896
470.414
436.51
401.938
367.156
332.613
298.913
266.751
236.222
208.565
187.813
176.863
173.772
175.918
189.679
215.826
238.971
247.315
249.749
69.842
69.4326
66.4015
71.7914
103.699
168.57
254.345
336.568
397.318
434.02
450.868
452.551
443.679
428.256
409.521
389.787
370.457
352.126
334.757
317.917
301.025
283.557
265.073
245.106
224.373
204.231
188.074
177.94
174.486
176.054
188.127
210.061
228.683
242.614
68.0968
69.7582
66.1826
70.1077
93.7102
140.98
200.691
256.36
295.901
316.179
320.502
314.393
302.334
287.893
273.756
261.68
252.617
246.891
244.52
244.97
246.953
248.853
248.862
245.944
234.091
219.52
203.372
188.857
178.709
175.207
177.387
190.771
212.562
235.275
66.2574
69.9085
66.0514
68.394
83.3704
113.15
147.251
174.568
189.818
192.93
187.095
175.924
162.998
151.041
141.737
135.997
134.219
136.479
142.645
152.541
166.124
182.856
200.732
216.526
225.615
225.882
216.262
201.944
187.949
178.368
175.862
181.214
200.611
228.622
64.247
69.8672
65.8598
66.78
73.88
88.5712
103.694
112.469
113.266
108.388
100.566
92.5835
86.2226