/*--------------------------------*- C++ -*----------------------------------*\
| =========                 |                                                 |
| \\      /  F ield         | OpenFOAM: The Open Source CFD Toolbox           |
|  \\    /   O peration     | Version:  v2012                                 |
|   \\  /    A nd           | Website:  www.openfoam.com                      |
|    \\/     M anipulation  |                                                 |
\*---------------------------------------------------------------------------*/
FoamFile
{
    version     2.0;
    format      ascii;
    class       volScalarField;
    location    "684";
    object      k;
}
// * * * * * * * * * * * * * * * * * * * * * * * * * * * * * * * * * * * * * //

dimensions      [0 2 -2 0 0 0 0];


internalField   nonuniform List<scalar> 
6018
(
0.0109147
0.0127359
0.0145187
0.0162713
0.0180054
0.0197618
0.0215977
0.0235786
0.0257785
0.0282877
0.0312208
0.0347293
0.0390195
0.0443818
0.0512383
0.0602186
0.0722872
0.0889733
0.112833
0.148452
0.0160296
0.0178041
0.0197677
0.0219399
0.0243442
0.0270144
0.0300114
0.033414
0.0373158
0.0418295
0.0470925
0.0532737
0.060583
0.0692825
0.0796877
0.0921791
0.107196
0.125197
0.146573
0.171296
0.0297433
0.0325601
0.0355016
0.0386013
0.0418986
0.0454446
0.0492996
0.0535321
0.0582186
0.0634459
0.0693127
0.0759343
0.0834424
0.0919803
0.101722
0.112859
0.125599
0.140154
0.156743
0.175617
0.0403178
0.0432806
0.046348
0.0495612
0.0529632
0.0566001
0.0605214
0.0647803
0.0694353
0.0745514
0.0802023
0.0864718
0.0934567
0.101272
0.110058
0.11998
0.131246
0.144127
0.158992
0.176368
0.046001
0.0487996
0.0517258
0.0548177
0.058112
0.061646
0.0654588
0.0695933
0.074097
0.0790238
0.084437
0.0904105
0.0970342
0.10442
0.112708
0.12208
0.132773
0.145106
0.159509
0.176572
0.0473659
0.049904
0.0526123
0.0555242
0.0586706
0.0620833
0.0657969
0.0698504
0.0742886
0.0791609
0.0845323
0.0904751
0.0970767
0.104447
0.112724
0.122089
0.132778
0.145108
0.159509
0.176572
0.0444394
0.0466206
0.0490298
0.0516943
0.0546413
0.0579005
0.0615063
0.0655002
0.0699558
0.0749261
0.0804678
0.0866556
0.0935806
0.101354
0.110108
0.120009
0.131262
0.144134
0.158994
0.176368
0.0363203
0.0379217
0.0398121
0.0420152
0.0445523
0.0474503
0.0507897
0.0546478
0.0590481
0.0640585
0.0697606
0.0762562
0.0836656
0.0921294
0.101818
0.112919
0.125632
0.14017
0.156748
0.175617
0.0219209
0.022567
0.0235457
0.0248671
0.0265641
0.0287152
0.0313334
0.034438
0.0381039
0.0424306
0.0475469
0.0536143
0.0608354
0.0694651
0.0798144
0.0922622
0.107245
0.125222
0.146584
0.171298
0.0196187
0.0193734
0.019448
0.0198868
0.0206385
0.0216735
0.0229787
0.0245712
0.026489
0.0287943
0.0315804
0.034982
0.0391941
0.0444994
0.0513144
0.0602648
0.0723126
0.0889854
0.112837
0.148453
9.38931e-05
0.000116987
0.000117845
9.63624e-05
6.20065e-05
3.19801e-05
1.43719e-05
6.8322e-06
5.07393e-06
8.96847e-06
2.58369e-05
5.73658e-05
9.22175e-05
0.000116426
0.000122732
0.000121595
0.000119202
0.000122563
0.000135206
0.000146398
0.000152086
0.000158396
0.000168075
0.000169289
0.000165203
0.000188641
0.000373704
0.000733508
0.00137578
0.00236843
0.00372013
0.00536349
0.00717368
0.0090449
0.000416992
0.000356969
0.000253469
0.000175299
0.000116666
7.48975e-05
4.74379e-05
3.14953e-05
2.66546e-05
5.22347e-05
0.000169507
0.000360749
0.000531973
0.000602462
0.000594938
0.000616594
0.00067778
0.000799619
0.000969365
0.00113796
0.00128234
0.00157562
0.00210738
0.00275623
0.0035234
0.00441274
0.00541897
0.0065193
0.00770272
0.00896769
0.0102972
0.011668
0.0130467
0.0144336
0.00110074
0.00104232
0.000892888
0.000700757
0.000512931
0.000358363
0.000246042
0.000174635
0.000150976
0.000252299
0.00071659
0.00144582
0.00215291
0.0026593
0.00312214
0.00354243
0.00406329
0.00483784
0.00590116
0.00684628
0.00766756
0.00838778
0.0090926
0.00983999
0.0107034
0.0117108
0.0128869
0.0142463
0.0158065
0.0175728
0.0195954
0.0218936
0.0243826
0.0270077
0.00166632
0.00160061
0.00142965
0.0012179
0.000976991
0.000745229
0.000554076
0.000426637
0.000423912
0.000794547
0.00203061
0.00374636
0.00539939
0.00710921
0.00848023
0.00988708
0.0113654
0.0126971
0.0135484
0.0138775
0.0139561
0.0140897
0.0144627
0.0151529
0.0161877
0.0175679
0.0192838
0.0213097
0.0236262
0.0261765
0.0288729
0.0316673
0.0345139
0.0373946
0.00229222
0.00218664
0.00196836
0.00170161
0.00141252
0.00113027
0.000893457
0.00077945
0.00109163
0.00255342
0.00522873
0.00839701
0.0113465
0.0137783
0.015702
0.017341
0.018404
0.0186179
0.0181368
0.0175195
0.0171618
0.0172735
0.0179154
0.0190663
0.020667
0.0226407
0.0249024
0.0273665
0.0299543
0.0325999
0.0352605
0.0379202
0.0405811
0.0432642
0.00313686
0.00293641
0.00261699
0.00224395
0.00186859
0.00153248
0.00131145
0.00151151
0.0030942
0.00679201
0.0114086
0.0156667
0.0186104
0.0206577
0.021988
0.0224336
0.0219313
0.0207328
0.0195677
0.0188833
0.018858
0.0194948
0.0207078
0.0223739
0.0243624
0.0265531
0.0288479
0.0311756
0.0334928
0.0357825
0.0380495
0.0403123
0.0425976
0.0449374
0.00422903
0.00387696
0.00339352
0.0028554
0.00236548
0.00202197
0.0020989
0.00351682
0.00754226
0.0135265
0.0191517
0.0227832
0.0248242
0.0256128
0.0252832
0.0239778
0.0222141
0.0206513
0.0197325
0.0195928
0.0201696
0.0213132
0.0228515
0.0246244
0.0265024
0.0283925
0.0302396
0.0320215
0.0337418
0.0354224
0.0370964
0.0387989
0.0405592
0.0424223
0.00550179
0.00490944
0.00419933
0.00348505
0.00295277
0.00289903
0.00412034
0.00794027
0.0147585
0.0213351
0.0259828
0.0282057
0.028481
0.0273607
0.0252826
0.0230124
0.021131
0.0200005
0.0197028
0.0201199
0.0210527
0.0222962
0.0236756
0.0250609
0.0263676
0.0275524
0.0286072
0.0295463
0.0304012
0.0312133
0.032027
0.0328924
0.0338628
0.0349791
0.00682278
0.00595603
0.00501859
0.00423809
0.00399649
0.00506165
0.00866245
0.0149052
0.0222561
0.0279434
0.0307084
0.0307638
0.0289245
0.0262156
0.0234542
0.0212512
0.019885
0.0193672
0.0195335
0.0201496
0.0209886
0.0218666
0.0226517
0.0232631
0.0236601
0.0238349
0.0237979
0.0235786
0.0232161
0.0227588
0.0222756
0.0218521
0.0215828
0.0215772
0.00812335
0.00703445
0.00602753
0.0055702
0.00642903
0.00939231
0.0149306
0.0220472
0.0285141
0.0321366
0.0323829
0.0302088
0.0269668
0.0237507
0.0211982
0.0195566
0.0187744
0.0186448
0.018911
0.0193343
0.0197287
0.0199669
0.0199766
0.0197296
0.019234
0.0185242
0.0176544
0.0166748
0.0156368
0.014592
0.0136031
0.0129257
0.0130101
0.0146603
5.72894e-07
3.18222e-06
7.6732e-06
1.34355e-05
2.80577e-05
5.95919e-05
2.74163e-06
1.0143e-05
5.8162e-05
0.000186355
0.000321038
0.000405472
6.35912e-06
3.4745e-05
0.000229817
0.000546085
0.000839491
0.00103154
9.23626e-06
8.62845e-05
0.000440606
0.000913015
0.00131627
0.00157176
1.14287e-05
0.000179475
0.000731131
0.00137514
0.00189351
0.0022036
2.05991e-05
0.000352146
0.00116041
0.00203106
0.002704
0.00307474
9.32738e-05
0.000641004
0.00178999
0.00297356
0.0038353
0.00424492
0.000312367
0.00108122
0.00269706
0.00429019
0.00533957
0.00571149
0.000752297
0.00171187
0.00397031
0.00602876
0.00716622
0.00734386
0.00136051
0.00256707
0.00567755
0.00813425
0.00916812
0.00900602
0.00947503
0.0083302
0.00770716
0.0082534
0.0106448
0.0152786
0.0217015
0.0281758
0.0324532
0.0332579
0.031107
0.0275273
0.0239042
0.0210182
0.0191036
0.0180686
0.0176736
0.0176533
0.0177803
0.0178927
0.0178994
0.0177724
0.017527
0.0171882
0.0167085
0.0160732
0.0152185
0.0140743
0.0125942
0.010776
0.0086916
0.00650402
0.00443906
0.00324638
0.0111031
0.0103115
0.010489
0.012237
0.015945
0.0213896
0.0273758
0.0319101
0.0333678
0.0316401
0.0280344
0.0241326
0.0209291
0.0187434
0.0174838
0.0169037
0.0167469
0.0168144
0.0169878
0.0172232
0.0175225
0.0178912
0.0182918
0.0186101
0.01867
0.018286
0.0172821
0.0155858
0.0132545
0.0103993
0.00701501
0.00382305
0.00156056
0.000598987
0.0133403
0.0130862
0.0141693
0.0169502
0.0213534
0.0265542
0.0309633
0.0329151
0.0318001
0.0284711
0.0244761
0.0210171
0.0185787
0.0171356
0.0164603
0.016318
0.0165441
0.0170582
0.0178447
0.0188975
0.0201588
0.0214672
0.0225446
0.0230413
0.0226452
0.0211663
0.0186515
0.0153796
0.011857
0.00865675
0.00597996
0.00376631
0.00175617
0.000417109
0.0160368
0.0164628
0.01834
0.0217069
0.0259972
0.029985
0.0321681
0.0316494
0.0287941
0.0249109
0.0213022
0.0186505
0.0170582
0.0163551
0.0163343
0.0168602
0.0178767
0.019361
0.0212528
0.0233717
0.0253759
0.0267899
0.0271255
0.0260547
0.023552
0.0199351
0.0158884
0.0123357
0.00942727
0.00735727
0.0056772
0.00411451
0.00209826
0.000370894
0.0191058
0.0201334
0.0224999
0.0258483
0.0292332
0.0313857
0.0313169
0.0289967
0.0253899
0.0217582
0.0189504
0.0172353
0.0165369
0.0166921
0.0175843
0.01916
0.0213624
0.0240334
0.0268327
0.0292236
0.0305813
0.0303903
0.0284553
0.0250017
0.0205861
0.016238
0.0127702
0.0102364
0.00829972
0.00682517
0.00561714
0.00436427
0.00234657
0.000344659
0.0222875
0.023703
0.0261331
0.0288571
0.0307759
0.030959
0.029122
0.0258806
0.0223424
0.0194447
0.0176288
0.0169389
0.0172724
0.0185342
0.0206543
0.0235192
0.0268504
0.0301377
0.0326843
0.0337881
0.0329938
0.0302685
0.0259956
0.0208727
0.0165154
0.0132123
0.0106843
0.00878637
0.00739172
0.0063414
0.00547066
0.0044326
0.00246022
0.000304892
0.025244
0.026732
0.0287804
0.0304636
0.0307236
0.0292509
0.0263796
0.0230118
0.0200875
0.0181865
0.0174886
0.0179677
0.0195516
0.0221479
0.0255701
0.0294197
0.033031
0.03559
0.036375
0.0350087
0.0315556
0.0264704
0.0208522
0.0165576
0.0131926
0.0106495
0.00877614
0.00741049
0.00643013
0.00572092
0.00512357
0.00427885
0.00241386
0.000261997
0.027738
0.0289726
0.0302563
0.0306844
0.029469
0.0269149
0.0237397
0.0208352
0.0188627
0.0181184
0.0186806
0.0205
0.0234621
0.0273039
0.0315113
0.0352978
0.0377697
0.038216
0.0363245
0.0321811
0.0260078
0.0204349
0.0159913
0.0126033
0.0100665
0.00821974
0.00692404
0.00600712
0.00537524
0.00494974
0.00457725
0.00389216
0.00216463
0.000255028
0.0296008
0.0302876
0.0306002
0.0298194
0.0275366
0.0245397
0.0216614
0.019611
0.0187839
0.0193331
0.0212726
0.0244564
0.0285551
0.0329499
0.0367617
0.0390542
0.0391392
0.0367563
0.0319676
0.0247885
0.0190838
0.0146717
0.0113696
0.00894797
0.00725351
0.00605702
0.0052231
0.00465283
0.00429114
0.00408043
0.00385916
0.0033125
0.0018135
0.000249062
0.0307387
0.0306977
0.0300288
0.0282696
0.0254492
0.0225768
0.0204068
0.019428
0.0198806
0.0218
0.0250458
0.0292295
0.033646
0.0373428
0.0393647
0.0390597
0.0362253
0.0309081
0.0230844
0.0171071
0.0126919
0.00958025
0.00739235
0.00589474
0.00489078
0.00419596
0.00371493
0.0034006
0.00323969
0.003177
0.00309237
0.00270272
0.00143176
0.00023222
0.0311737
0.0303658
0.0288667
0.0264707
0.0235995
0.0212573
0.0200444
0.0202953
0.0220638
0.0252084
0.0293153
0.0336159
0.0370936
0.0387813
0.0380685
0.0348357
0.0292507
0.0214654
0.0149412
0.0105619
0.00754548
0.00566893
0.00441248
0.00358252
0.00303583
0.00266694
0.00242746
0.00230588
0.00230014
0.00236052
0.00241272
0.00213578
0.0010617
0.000200095
0.0310186
0.0295207
0.0274293
0.0247508
0.0222161
0.0206899
0.0206031
0.0220833
0.0249896
0.0288802
0.0329648
0.0361791
0.0375275
0.036431
0.0328527
0.0271622
0.0197557
0.0132516
0.00863365
0.00586938
0.00417507
0.00313182
0.00246657
0.00202889
0.00173566
0.00154638
0.00145285
0.0014623
0.00156811
0.00174247
0.00186451
0.00163577
0.000719448
0.000167128
0.0304303
0.0283949
0.0259822
0.0233516
0.0214445
0.0209036
0.0219273
0.0244669
0.0280438
0.0318521
0.0348134
0.035893
0.0345057
0.0306747
0.0249019
0.0179005
0.0117668
0.00738752
0.00469438
0.003234
0.00242405
0.00192633
0.00156619
0.00129075
0.00107145
0.00092037
0.000862248
0.000919229
0.001077
0.00130098
0.00142052
0.00116474
0.000444604
0.000135718
0.0295648
0.0271653
0.0246363
0.0223667
0.0212558
0.0217192
0.0237431
0.0269232
0.0304383
0.0331972
0.0341334
0.0326191
0.028698
0.0229878
0.016464
0.010403
0.0063248
0.00396982
0.00278689
0.00219619
0.00184931
0.00159532
0.00136346
0.0011247
0.000886314
0.000692141
0.000595025
0.000628004
0.000775755
0.000957971
0.00101338
0.000764238
0.000264417
9.66981e-05
0.0285606
0.0259741
0.0235318
0.0218378
0.0216001
0.0229559
0.0256352
0.0288396
0.0314716
0.0324128
0.0309665
0.0271358
0.0215734
0.0153074
0.00954213
0.00554589
0.00345831
0.00252697
0.00209989
0.00186407
0.00170267
0.00156273
0.00140468
0.00119886
0.000945054
0.000691985
0.000517441
0.000474749
0.000553522
0.000664534
0.000669652
0.000469356
0.000151555
5.86382e-05
0.0275256
0.0249152
0.0227242
0.0216933
0.0222638
0.0243116
0.0271509
0.0297029
0.0307975
0.0296184
0.0260755
0.0207952
0.0148133
0.00925132
0.00516515
0.00311688
0.00232019
0.00199203
0.00182096
0.00171526
0.00164299
0.00158011
0.00149528
0.00135106
0.00112267
0.000832388
0.000562853
0.000404938
0.000382782
0.000431805
0.000415846
0.00027541
8.34588e-05
3.00672e-05
0.0265229
0.0239821
0.0221926
0.0218548
0.0230946
0.0254626
0.0279193
0.0292633
0.0285329
0.0254641
0.020596
0.0149406
0.0095718
0.00541752
0.00304882
0.00216157
0.00187148
0.00173446
0.00165239
0.00160322
0.00157805
0.00156588
0.00154515
0.00148037
0.00132872
0.0010685
0.000740524
0.00045272
0.000299474
0.000275304
0.000249
0.000157131
4.41546e-05
1.32536e-05
0.0255883
0.0231937
0.0218905
0.0221728
0.0238775
0.0261462
0.0277519
0.027596
0.0251709
0.0208298
0.0155172
0.0103314
0.00608303
0.00337052
0.00215779
0.00178033
0.00166151
0.00159375
0.00154776
0.00152068
0.00151145
0.00151843
0.00153209
0.00152951
0.00147047
0.00130737
0.00101852
0.000655757
0.000348923
0.000203305
0.000152765
8.9539e-05
2.29136e-05
5.4454e-06
0.0247443
0.0225706
0.021787
0.0225573
0.0244305
0.0262153
0.0266776
0.0250446
0.0213761
0.0165031
0.0114325
0.00707974
0.00400511
0.00238829
0.00180035
0.00163676
0.00158369
0.00154863
0.00151646
0.00149209
0.0014769
0.00147613
0.0014893
0.0015074
0.00150677
0.00144368
0.00126716
0.000952924
0.000560687
0.000242142
0.000117666
5.61899e-05
1.27049e-05
2.62562e-06
0.0239446
0.0220752
0.0217496
0.0228897
0.0246351
0.0256521
0.0248884
0.022041
0.0176831
0.0128176
0.00837509
0.00494807
0.00286546
0.00195579
0.00168376
0.00162163
0.00160516
0.00159135
0.00156858
0.00153752
0.00150324
0.00148
0.00146918
0.00147064
0.0014775
0.00146313
0.00138205
0.00118106
0.000839811
0.000436879
0.000152264
5.01681e-05
9.50666e-06
2.2324e-06
0.0232192
0.0217023
0.0217731
0.0230869
0.0244527
0.024553
0.022672
0.0190046
0.0144407
0.00994558
0.00620534
0.00363022
0.00228481
0.00179795
0.0016896
0.00168438
0.00169337
0.00169479
0.00167863
0.0016463
0.00160264
0.0015545
0.0015073
0.00147334
0.0014532
0.00143545
0.00139076
0.00127022
0.00102281
0.000647526
0.000257217
6.72468e-05
1.21269e-05
3.44352e-06
0.0225664
0.0213953
0.0218059
0.0231057
0.0239139
0.0230811
0.020312
0.0162122
0.0117684
0.0077749
0.00472595
0.00285803
0.00202164
0.00178366
0.00176745
0.00179934
0.00182739
0.00184025
0.00182993
0.00179754
0.00174641
0.00168173
0.00161099
0.00153992
0.00148023
0.00143091
0.00137771
0.00128582
0.00110287
0.00079012
0.000396224
0.000101272
1.76254e-05
5.5483e-06
0.0219901
0.0211588
0.0218171
0.0229406
0.0230946
0.0214128
0.0180243
0.0137936
0.00964284
0.00617823
0.00375282
0.00243387
0.0019373
0.00184895
0.00188952
0.00194734
0.00198949
0.00201065
0.00200616
0.00197709
0.00192526
0.00185317
0.00176511
0.00166819
0.00157128
0.0014818
0.00139762
0.0012993
0.00114433
0.000881178
0.000504761
0.000152076
2.30452e-05
8.17161e-06
0.0214942
0.0209862
0.0217889
0.0226122
0.0220889
0.0197006
0.0159404
0.0117762
0.00798695
0.00502993
0.00313509
0.00222534
0.0019532
0.00195727
0.00203403
0.00210915
0.00216106
0.00218714
0.00218818
0.00216481
0.00211777
0.00204731
0.00195439
0.00184246
0.00171857
0.00159211
0.00146955
0.00134514
0.00119085
0.000956882
0.00060691
0.000221025
3.18385e-05
1.0565e-05
0.0210801
0.0208667
0.0217151
0.0221568
0.0209881
0.0180548
0.0141177
0.0101298
0.00671625
0.00422089
0.00275942
0.00214771
0.00202361
0.00208545
0.00218449
0.00226978
0.00232752
0.00235555
0.00236135
0.00234494
0.00230638
0.00224416
0.00215624
0.00204203
0.00190464
0.00175184
0.00159369
0.00143481
0.00126234
0.00103702
0.000709349
0.000303992
4.44904e-05
1.19448e-05
0.0207357
0.0207862
0.0215999
0.0216171
0.0198686
0.0165422
0.0125641
0.00880394
0.00575284
0.00366228
0.00254512
0.00214761
0.00212091
0.00221813
0.00232905
0.00241805
0.00247708
0.00250686
0.00251633
0.00250699
0.00247885
0.00242927
0.00235376
0.00224792
0.00211026
0.00194471
0.00176072
0.00156842
0.00136741
0.00113264
0.000814038
0.000397499
6.54988e-05
1.26517e-05
0.0204728
0.0207404
0.0214529
0.0210336
0.0187862
0.0151951
0.0112624
0.00774594
0.00503043
0.00328512
0.00243648
0.00219159
0.00222839
0.00234598
0.00246125
0.00254927
0.00260652
0.00263616
0.00264786
0.0026449
0.00262768
0.00259303
0.00253471
0.00244509
0.00231816
0.00215309
0.00195626
0.00173889
0.00150821
0.00125263
0.000929742
0.000502223
9.99733e-05
1.2527e-05
0.0202786
0.0207212
0.0212782
0.0204392
0.017778
0.0140218
0.0101835
0.00690816
0.00449463
0.00303767
0.00239577
0.00225875
0.0023361
0.00246372
0.00257785
0.00266135
0.00271421
0.00274171
0.00275404
0.00275625
0.00274943
0.0027304
0.00269179
0.00262344
0.00251525
0.00236147
0.00216439
0.00193397
0.00168036
0.00140099
0.00106413
0.000623072
0.000155299
1.11946e-05
0.0201467
0.0207198
0.0210748
0.0198573
0.0168646
0.0130163
0.00929683
0.00624971
0.00410202
0.00288201
0.00239774
0.00233621
0.00243834
0.00256883
0.0026779
0.00275419
0.00280056
0.00282408
0.00283543
0.00284131
0.00284376
0.00283997
0.00282195
0.00277757
0.00269326
0.00255849
0.00237115
0.00213929
0.00187407
0.00157603
0.00122066
0.000763279
0.000235985
1.05505e-05
0.0200641
0.0207315
0.0208596
0.0193063
0.0160556
0.0121659
0.00857415
0.00573659
0.00381862
0.00279084
0.00242566
0.00241623
0.00253224
0.00266065
0.00276196
0.00282917
0.0028674
0.00288532
0.00289411
0.00290203
0.00291229
0.00292276
0.0029252
0.00290594
0.00284835
0.00273749
0.00256661
0.00234184
0.00207666
0.00177119
0.00139942
0.000924531
0.000345445
3.03915e-05
0.0200186
0.0207351
0.0206449
0.018797
0.0153517
0.0114553
0.00799058
0.005341
0.00361836
0.0027447
0.00246862
0.00249435
0.00261673
0.00273977
0.00283163
0.00288858
0.00291749
0.00292842
0.00293315
0.00294141
0.00295783
0.00298124
0.00300347
0.00300956
0.00298005
0.00289581
0.00274537
0.0025326
0.00227464
0.00197609
0.00160018
0.00110692
0.000484695
9.11398e-05
0.0200032
0.0207337
0.0204399
0.0183378
0.01475
0.0108699
0.00752503
0.00504059
0.00348146
0.00272991
0.00251966
0.00256827
0.00269184
0.00280749
0.00288904
0.00293515
0.00295401
0.00295684
0.00295616
0.00296308
0.00298389
0.00301872
0.00305977
0.00309093
0.00309004
0.0030338
0.00290582
0.00270699
0.00245882
0.00217726
0.00181938
0.00130928
0.000653966
0.000226749
0.0200108
0.0207309
0.0202517
0.017934
0.0142454
0.0103957
0.00715996
0.00481764
0.00339317
0.00273696
0.00257443
0.00263697
0.00275828
0.00286547
0.00293651
0.00297175
0.00298028
0.00297423
0.00296697
0.002971
0.00299445
0.00303909
0.00309775
0.00315338
0.00318108
0.00315343
0.00304885
0.00286415
0.00262449
0.00236311
0.00203976
0.00152779
0.000850403
0.000465345
0.0200343
0.0207303
0.0200858
0.0175888
0.0138319
0.0100202
0.006881
0.00465833
0.00334259
0.00275939
0.00263035
0.00270023
0.00281701
0.00291537
0.00297625
0.00300104
0.00299939
0.00298407
0.00296937
0.00296922
0.00299375
0.00304663
0.00312157
0.00320075
0.0032566
0.00325751
0.00317654
0.00300549
0.00277125
0.00252565
0.00224882
0.0017613
0.00106545
0.000805559
0.0200684
0.0207347
0.0199464
0.0173028
0.0135031
0.00973266
0.00667664
0.00455211
0.0033219
0.00279287
0.00268601
0.00275828
0.00286907
0.0029587
0.00301011
0.00302526
0.00301397
0.00298943
0.00296687
0.0029617
0.00298616
0.00304596
0.00313585
0.00323734
0.00332034
0.00334916
0.00329152
0.00313356
0.00290173
0.00266485
0.00243813
0.00200348
0.00128705
0.00120192
0.0201097
0.0207466
0.0198365
0.0170756
0.013253
0.00952438
0.00653792
0.00449118
0.00332563
0.00283465
0.00274074
0.00281153
0.00291538
0.00299665
0.00303949
0.00304601
0.00302596
0.00299272
0.00296244
0.00295209
0.00297603
0.00304194
0.00314559
0.00326791
0.00337642
0.0034316
0.00339625
0.00325075
0.00301908
0.00278401
0.00260211
0.0022405
0.0015033
0.00159095
0.0201491
0.0207677
0.0197578
0.0169059
0.0130763
0.00938841
0.00645815
0.00447004
0.00335026
0.00288323
0.00279441
0.00286051
0.00295669
0.00303001
0.00306516
0.00306411
0.0030364
0.00299549
0.00295839
0.00294368
0.00296762
0.00303956
0.00315612
0.0032976
0.00342931
0.00350826
0.003493
0.00335875
0.0031261
0.00288719
0.00274079
0.00246208
0.00170787
0.00192393
0.0201856
0.020799
0.0197115
0.0167917
0.0129682
0.00931936
0.0064326
0.00448524
0.00339384
0.00293811
0.00284738
0.00290585
0.00299356
0.00305905
0.00308714
0.00307942
0.00304531
0.00299838
0.00295647
0.00293946
0.0029651
0.00304392
0.00317296
0.0033318
0.0034837
0.0035827
0.00358396
0.00345878
0.00322471
0.00297938
0.00285719
0.00266237
0.00189968
0.00216905
0.0202202
0.020841
0.0196979
0.016731
0.0129248
0.00931323
0.00645834
0.00453515
0.00345586
0.00299999
0.00290088
0.00294859
0.00302657
0.00308359
0.00310455
0.00309079
0.00305182
0.00300155
0.00295829
0.00294252
0.0029728
0.00306021
0.00320171
0.00337592
0.0035443
0.00365844
0.00367121
0.00355165
0.003316
0.00306499
0.00295506
0.00283798
0.00207976
0.00230718
0.0202533
0.0208941
0.0197168
0.016721
0.0129424
0.00936669
0.00653367
0.00462009
0.00353644
0.00307303
0.00295963
0.00299163
0.00305589
0.00310227
0.00311641
0.00309778
0.00305603
0.00300537
0.00296445
0.00295404
0.002993
0.00309221
0.00324764
0.00343616
0.00361708
0.00373991
0.00375663
0.00363792
0.0034005
0.00314738
0.00304401
0.00298768
0.00224929
0.00233422
0.0202856
0.0209577
0.0197661
0.0167573
0.0130137
0.00947237
0.00665511
0.00474496
0.0036535
0.00316827
0.00302879
0.0030375
0.00308348
0.00311777
0.00312467
0.00310201
0.00305916
0.0030106
0.0029755
0.0029747
0.00302691
0.00314203
0.003314
0.0035171
0.00370806
0.0038344
0.00384782
0.00372137
0.00347718
0.00322463
0.00313181
0.00311597
0.00240863
0.00226659
0.0203175
0.0210248
0.0198335
0.0168295
0.0131382
0.00964002
0.0068391
0.00492398
0.00381096
0.00329005
0.00311312
0.00309068
0.00311357
0.00313402
0.00313247
0.00310617
0.00306367
0.00301979
0.00299434
0.00300804
0.0030788
0.00321449
0.00340584
0.00362353
0.00382132
0.00394502
0.00394699
0.0038044
0.00354778
0.00329566
0.00321719
0.00323957
0.00254216
0.0021308
0.0203501
0.0210964
0.0199194
0.0169374
0.0133129
0.00986745
0.00708581
0.00515995
0.00401389
0.00344491
0.00321966
0.00315758
0.00315285
0.00315647
0.00314475
0.00311479
0.00307397
0.0030378
0.00302648
0.00306031
0.00315548
0.00331645
0.0035294
0.00376051
0.00396028
0.00407339
0.00405417
0.00388624
0.0036117
0.00336022
0.00329903
0.00335603
0.00266066
0.00194745
0.0203867
0.0211757
0.0200245
0.0170823
0.0135295
0.0101497
0.00739575
0.00545689
0.00426921
0.0036417
0.00335785
0.00324745
0.00321014
0.00319252
0.00316897
0.00313512
0.00309739
0.00307258
0.00308073
0.00314096
0.00326651
0.00345675
0.00369195
0.00393307
0.00412743
0.00421952
0.00416749
0.00396439
0.00366719
0.00341779
0.0033753
0.00344818
0.00275983
0.00173186
0.0204314
0.0212663
0.0201503
0.0172635
0.0137852
0.0104848
0.00777002
0.0058199
0.00458535
0.00389103
0.00353879
0.00337304
0.00329753
0.00325411
0.00321649
0.00317837
0.00314533
0.00313638
0.00317016
0.00326333
0.00342441
0.00364606
0.00390131
0.00414555
0.00432352
0.00438102
0.00428259
0.00403432
0.00371118
0.00346551
0.00344321
0.0035163
0.0028331
0.00149641
0.02049
0.021373
0.0202984
0.0174795
0.0140807
0.0108724
0.00820946
0.00625377
0.00497042
0.00420305
0.00377558
0.00354956
0.00343068
0.00335736
0.00330341
0.0032608
0.00323458
0.00324699
0.00331298
0.00344497
0.00364462
0.00389616
0.00416474
0.00440036
0.00454636
0.00455209
0.00439193
0.0040892
0.00373968
0.00350267
0.00349884
0.00354996
0.00287001
0.00125555
0.0205697
0.0215017
0.0204718
0.0177298
0.0144188
0.011309
0.00871018
0.00675945
0.00542771
0.00458601
0.00408413
0.00379564
0.00362922
0.00352331
0.00345154
0.00340492
0.00338893
0.00342893
0.00353302
0.00370725
0.00394423
0.00421847
0.00448716
0.00469606
0.00478899
0.00472209
0.00448406
0.00412002
0.0037479
0.00352618
0.00353453
0.00355348
0.00285981
0.0010205
0.0206794
0.0216602
0.0206746
0.0180156
0.0148055
0.0117881
0.00925806
0.00732287
0.00595716
0.00505347
0.00448298
0.0041334
0.00391847
0.00377888
0.00368907
0.00364031
0.00364216
0.00371379
0.00385863
0.00407334
0.00433943
0.00462105
0.00486826
0.00502457
0.00503747
0.00487418
0.00454331
0.00411609
0.00373181
0.00353244
0.00353959
0.00351751
0.00278826
0.000795582
0.0208251
0.0218581
0.0209132
0.0183411
0.0152365
0.0123143
0.00985842
0.00795407
0.00657277
0.00562232
0.00499336
0.00458848
0.00432767
0.00415609
0.00405013
0.00400232
0.00402823
0.00413477
0.00431839
0.00456399
0.00484096
0.00510401
0.00529821
0.00536778
0.0052683
0.00498427
0.00455036
0.00406726
0.00368311
0.00351706
0.00350944
0.00343111
0.00264085
0.000593069
0.021018
0.0221057
0.0211965
0.0187084
0.01571
0.0128945
0.0105259
0.00866877
0.00729086
0.00631186
0.00563919
0.00518985
0.00488995
0.00469157
0.00457396
0.0045314
0.00458513
0.00472532
0.0049368
0.00519149
0.00544777
0.00565344
0.00575208
0.00569314
0.00544635
0.00502139
0.00448514
0.00396704
0.00360725
0.00347861
0.00343706
0.00327845
0.0024096
0.000420442
0.021279
0.0224141
0.0215356
0.0191196
0.0162365
0.0135425
0.0112766
0.00948488
0.0081315
0.00714534
0.00644825
0.00597046
0.00564276
0.00542643
0.00530398
0.00527148
0.00535208
0.00551271
0.00572517
0.00594993
0.00613775
0.00623344
0.00618375
0.00594982
0.00552439
0.00495139
0.00433304
0.00381474
0.00350431
0.0034031
0.00329891
0.00303363
0.00208742
0.000359694
0.0216312
0.0228031
0.0219418
0.0195918
0.0168342
0.0142785
0.0121334
0.0104278
0.00912247
0.0081537
0.00745551
0.00696946
0.00662887
0.00640505
0.00628369
0.00626512
0.00635462
0.00650059
0.00666472
0.00680059
0.00685579
0.00677667
0.00651976
0.00606755
0.00544767
0.00474544
0.00409262
0.00361731
0.00336809
0.00326348
0.00305661
0.00265995
0.00164752
0.00032523
0.0221068
0.0232935
0.0224524
0.0201519
0.0175315
0.0151336
0.0131309
0.0115353
0.0103041
0.00937968
0.00870565
0.00823098
0.00789016
0.00766307
0.00753798
0.00752644
0.00757343
0.00764084
0.00768445
0.00765504
0.00750057
0.00717533
0.00665663
0.00596276
0.00516795
0.00439453
0.00377452
0.00337652
0.0031747
0.00300891
0.00265531
0.00210896
0.00107766
0.00027801
0.0227541
0.0239332
0.023112
0.0208425
0.0183744
0.0161576
0.0143217
0.0128615
0.0117305
0.0108755
0.0102455
0.00978727
0.00944166
0.00919409
0.00903305
0.00895852
0.00889491
0.00880385
0.00864153
0.00835996
0.00791338
0.00727751
0.00646998
0.00556113
0.00466803
0.00391605
0.00338529
0.00307159
0.00286471
0.00256581
0.00203931
0.00140693
0.000573344
0.00021872
0.0236556
0.0247992
0.0239957
0.0217363
0.0194402
0.0174284
0.0157813
0.014476
0.0134612
0.0126824
0.0120868
0.0116091
0.0112159
0.0108953
0.0106388
0.0104009
0.0101254
0.0097745
0.00930571
0.00867768
0.00786843
0.00690164
0.00585448
0.00484075
0.00397805
0.00333781
0.00291867
0.00264166
0.00235084
0.0018835
0.00124436
0.000570005
0.000261425
0.00016062
0.0249432
0.0260204
0.0252358
0.0229587
0.020851
0.0190528
0.0175918
0.0164238
0.0154887
0.0147255
0.0140776
0.0134927
0.0129675
0.0124873
0.0120274
0.0115124
0.0109122
0.0101891
0.00931217
0.00827352
0.00711298
0.00591788
0.00480191
0.00386472
0.00315549
0.00266095
0.00231373
0.00200163
0.00158835
0.0010393
0.000473754
0.000221805
0.000116326
9.57176e-05
0.0269345
0.0278552
0.0270675
0.0246862
0.022707
0.0210277
0.0196339
0.0184611
0.0174462
0.0165358
0.0156839
0.0148918
0.0141438
0.0134036
0.012596
0.0116854
0.0106473
0.00947222
0.00818179
0.00684058
0.00554218
0.0043909
0.0034539
0.00274291
0.00222675
0.00184361
0.00151114
0.00114559
0.000714984
0.000321569
0.000140632
8.79865e-05
4.85594e-05
4.14342e-05
0.029974
0.0304972
0.0295241
0.0266021
0.0244189
0.022535
0.0209144
0.0194576
0.0181184
0.0168889
0.0157486
0.0146706
0.0136162
0.0124578
0.0112105
0.00988206
0.00848999
0.0070764
0.00571719
0.00448853
0.00345311
0.00263934
0.0020273
0.00156134
0.00120016
0.000896948
0.000612676
0.000331531
0.000167483
7.75879e-05
4.34276e-05
3.18942e-05
1.73769e-05
1.23364e-05
0.0355214
0.0324261
0.0300798
0.0254375
0.0221678
0.0195967
0.0175073
0.0157315
0.0141673
0.0127665
0.0114915
0.0102621
0.00902653
0.00785875
0.00675149
0.00569944
0.00470276
0.00376558
0.00290545
0.00217324
0.0015778
0.00109564
0.000724113
0.000453267
0.000264873
0.000144619
8.56604e-05
4.63991e-05
2.40904e-05
1.28919e-05
9.59795e-06
7.90984e-06
4.2693e-06
2.38266e-06
0.0267537
0.0175205
0.0113005
0.00809295
0.00757605
0.00757981
0.00755067
0.00758614
0.00765782
0.00771069
0.00771269
0.00764324
0.00746442
0.00713397
0.00661426
0.00586514
0.00485878
0.00363738
0.0023503
0.0012209
0.000478024
0.000135632
3.25623e-05
3.47929e-05
3.41948e-05
2.88713e-05
2.33916e-05
1.73686e-05
1.42145e-05
1.3391e-05
1.14331e-05
6.64088e-06
1.97579e-06
2.40706e-07
0.00199424
0.00367033
0.00775977
0.0104473
0.0112016
0.0106556
0.00257772
0.00508849
0.0102211
0.0129037
0.0132664
0.0123835
0.00306234
0.0067402
0.0127792
0.0152671
0.0152804
0.0142688
0.00345389
0.00855807
0.0152894
0.0175015
0.0173589
0.0164984
0.00377829
0.0104678
0.0176197
0.0196587
0.0196291
0.0191534
0.00408046
0.012361
0.0197332
0.0218686
0.0220618
0.0219742
0.00438463
0.0140945
0.0217973
0.0241271
0.0245619
0.0246967
0.00462915
0.0157441
0.0238289
0.0263571
0.0270011
0.0271451
0.00481516
0.017357
0.0257884
0.0284269
0.0290663
0.0291874
0.00495962
0.0189256
0.0276584
0.0303549
0.0307804
0.0307108
0.00506429
0.0204369
0.0293738
0.0318951
0.0320713
0.0316677
0.00509639
0.0218683
0.0309992
0.0331065
0.0329262
0.0320831
0.00501476
0.0230893
0.0322317
0.033977
0.0333652
0.032036
0.00494775
0.0242992
0.0331897
0.0345239
0.0334415
0.0316315
0.00490254
0.0252091
0.033873
0.0347792
0.0332255
0.0309794
0.00528946
0.0259796
0.0343175
0.0347887
0.0327909
0.0301781
0.005987
0.026599
0.0345562
0.0346013
0.0322045
0.029303
0.00672989
0.0270421
0.034616
0.0342621
0.0315211
0.0284073
0.00749093
0.0273122
0.0345207
0.0338093
0.0307816
0.0275254
0.00826682
0.0274105
0.0342944
0.0332729
0.0300131
0.0266724
0.00901328
0.0273677
0.0339616