/*--------------------------------*- C++ -*----------------------------------*\
| =========                 |                                                 |
| \\      /  F ield         | OpenFOAM: The Open Source CFD Toolbox           |
|  \\    /   O peration     | Version:  v2012                                 |
|   \\  /    A nd           | Website:  www.openfoam.com                      |
|    \\/     M anipulation  |                                                 |
\*---------------------------------------------------------------------------*/
FoamFile
{
    version     2.0;
    format      ascii;
    class       volScalarField;
    location    "684";
    object      nut;
}
// * * * * * * * * * * * * * * * * * * * * * * * * * * * * * * * * * * * * * //

dimensions      [0 2 -1 0 0 0 0];


internalField   nonuniform List<scalar> 
6018
(
4.44361e-05
5.16959e-05
5.87615e-05
6.56681e-05
7.24641e-05
7.93095e-05
8.64245e-05
9.40559e-05
0.000102476
0.000112011
0.000123066
0.000136162
0.000151991
0.000171501
0.000196016
0.000227427
0.000268463
0.000323141
0.000397578
0.000501556
0.000209777
0.000240617
0.000274303
0.000311002
0.000350761
0.000393356
0.000438953
0.000488463
0.00054301
0.000603966
0.000673013
0.000752292
0.000844586
0.000953516
0.00108405
0.00124347
0.00144291
0.00170063
0.00205429
0.00259081
0.000785133
0.000883479
0.000980595
0.00107598
0.00116956
0.00126197
0.00135449
0.00144877
0.00154653
0.00164949
0.00175938
0.001878
0.00200733
0.00214917
0.00230509
0.00247624
0.00266267
0.00286187
0.00306669
0.00326095
0.00154592
0.00166411
0.00177308
0.00187436
0.00196974
0.00206109
0.0021501
0.00223824
0.00232669
0.00241632
0.00250773
0.00260122
0.00269676
0.00279407
0.00289242
0.00299044
0.00308616
0.00317715
0.00326088
0.00333538
0.00206536
0.00215815
0.00224274
0.00232141
0.00239595
0.00246773
0.00253773
0.00260661
0.00267476
0.00274236
0.0028094
0.0028757
0.00294096
0.00300481
0.00306687
0.00312674
0.00318417
0.00323917
0.00329214
0.00334396
0.00220563
0.00226761
0.00232731
0.00238618
0.00244512
0.00250465
0.00256509
0.00262652
0.00268895
0.00275201
0.00281577
0.00287978
0.0029435
0.00300634
0.00306773
0.00312718
0.00318437
0.00323925
0.00329216
0.00334396
0.00194912
0.00198442
0.00202416
0.00206869
0.00211809
0.00217238
0.00223154
0.00229554
0.00236649
0.00244379
0.00252639
0.00261363
0.00270483
0.00279918
0.0028955
0.00299216
0.00308703
0.00317752
0.003261
0.0033354
0.00128336
0.00129284
0.00131113
0.00133742
0.001371
0.0014116
0.00146303
0.00152769
0.00160339
0.00169007
0.0017881
0.00189823
0.00202141
0.00215872
0.00231133
0.00248012
0.00266489
0.00286297
0.00306712
0.00326103
0.000420552
0.000417025
0.00042017
0.000428472
0.000440892
0.000461538
0.000490822
0.000527715
0.000572524
0.000626024
0.000689446
0.000764535
0.00085365
0.000960135
0.0010888
0.0012468
0.00144509
0.00170195
0.00205503
0.00259108
7.8753e-05
7.77991e-05
7.80891e-05
7.97951e-05
8.27122e-05
8.67172e-05
9.17496e-05
9.78623e-05
0.000105184
0.000113928
0.000124414
0.0001371
0.000152632
0.000171926
0.000196286
0.000227587
0.000268548
0.00032318
0.00039759
0.000501557
3.89242e-07
4.84959e-07
4.88516e-07
3.99477e-07
2.57067e-07
1.3259e-07
5.95881e-08
2.83277e-08
2.10376e-08
3.7185e-08
1.07121e-07
2.3783e-07
3.82297e-07
4.82636e-07
5.08769e-07
5.04059e-07
4.94143e-07
5.08073e-07
5.60467e-07
6.06852e-07
6.30423e-07
6.56571e-07
6.9668e-07
7.01713e-07
6.84779e-07
7.819e-07
1.54848e-06
3.03751e-06
5.69099e-06
9.7807e-06
1.53277e-05
2.20378e-05
2.93867e-05
3.69373e-05
1.0916e-05
9.0232e-06
5.91153e-06
3.65301e-06
2.27104e-06
1.44073e-06
9.43843e-07
6.69446e-07
6.15877e-07
1.26429e-06
4.2734e-06
9.24332e-06
1.35832e-05
1.50865e-05
1.44864e-05
1.44206e-05
1.55982e-05
1.85647e-05
2.22973e-05
2.5659e-05
2.72592e-05
2.93534e-05
3.39649e-05
3.93528e-05
4.5457e-05
5.28567e-05
6.18317e-05
7.23304e-05
8.45501e-05
9.89103e-05
0.000115666
0.000135052
0.000157094
0.00018174
6.57932e-05
6.38653e-05
5.4043e-05
3.74311e-05
2.38918e-05
1.53656e-05
1.04648e-05
7.94659e-06
7.87172e-06
1.507e-05
4.75808e-05
0.000100502
0.000148584
0.00017566
0.000192506
0.000189995
0.000188696
0.000192915
0.00018921
0.000180835
0.000172743
0.000167954
0.000168612
0.000174824
0.000186743
0.000204893
0.000230051
0.000263125
0.00030544
0.000358464
0.000423754
0.000501715
0.000590358
0.000686247
0.000112854
0.000119029
0.000114353
9.7313e-05
7.30302e-05
5.14906e-05
3.69269e-05
2.94448e-05
3.25915e-05
6.93541e-05
0.000190337
0.000346304
0.00046495
0.00053679
0.000532446
0.000478305
0.000434429
0.00040365
0.000374534
0.000348785
0.000331281
0.000326016
0.000334719
0.000357961
0.000396385
0.000451115
0.000523403
0.000614125
0.000723479
0.000849618
0.000988047
0.00113295
0.00127772
0.00141654
0.000158303
0.000169807
0.000168335
0.000154928
0.000129944
0.000100875
7.75384e-05
6.85848e-05
0.000101989
0.000247296
0.000470424
0.000656688
0.000755492
0.000760184
0.000709322
0.00062983
0.000584198
0.00055363
0.000511444
0.000485316
0.000479706
0.000496852
0.000537805
0.000603119
0.000692834
0.000805929
0.000939564
0.00108915
0.00124821
0.00140937
0.00156558
0.00171128
0.00184316
0.00196077
0.000229322
0.000244803
0.000241479
0.000222527
0.000191761
0.000156543
0.000131125
0.000149208
0.000297277
0.000575255
0.00081905
0.000947752
0.000946568
0.000848478
0.000775036
0.000731482
0.00070604
0.000652451
0.000620797
0.000617366
0.000644431
0.000702225
0.000789485
0.000903224
0.00103834
0.00118767
0.00134286
0.00149557
0.00163883
0.00176806
0.00188143
0.00197955
0.00206431
0.00213861
0.00034248
0.000360839
0.000348827
0.000311905
0.000265118
0.000224378
0.000223484
0.00034491
0.000630151
0.00093388
0.00110152
0.00106719
0.000989973
0.000926376
0.000887713
0.000835172
0.000771908
0.000735164
0.000732211
0.000764949
0.000831484
0.000927132
0.00104471
0.00117498
0.00130775
0.00143352
0.0015451
0.00163861
0.00171354
0.00177209
0.00181779
0.00185474
0.00188673
0.001917
0.000508182
0.000520373
0.000485877
0.000419409
0.000355298
0.000332859
0.000421815
0.000675096
0.00101212
0.00120842
0.00120335
0.00114345
0.00108923
0.00104361
0.000946754
0.000871389
0.000827163
0.000819926
0.000850151
0.000913
0.000999704
0.00109896
0.00119851
0.00128715
0.00135658
0.00140255
0.00142489
0.0014265
0.00141196
0.00138633
0.00135503
0.00132406
0.00129983
0.00128561
0.00072023
0.000712328
0.000638549
0.000542363
0.000486519
0.000541041
0.000756825
0.00105396
0.00130329
0.00136886
0.00131755
0.0012671
0.00116066
0.00104556
0.000954129
0.000897634
0.000879763
0.000898228
0.000944853
0.00100705
0.00107033
0.00112101
0.00114867
0.00114777
0.00111785
0.0010625
0.000987734
0.000900575
0.000807735
0.000715206
0.000628241
0.000550822
0.000486894
0.000444581
0.000952658
0.000906355
0.000792722
0.00069497
0.000705691
0.000854357
0.00110233
0.00134645
0.00148985
0.00149728
0.00140486
0.00126996
0.00113471
0.00102437
0.000950554
0.000916048
0.000915596
0.000937866
0.000967611
0.000988946
0.000988884
0.000959888
0.000900888
0.000816542
0.000715322
0.000606976
0.000500343
0.000401815
0.000315271
0.00024228
0.000182838
0.000137283
0.000105259
8.57066e-05
2.37536e-09
1.31942e-08
3.18146e-08
5.57056e-08
1.16328e-07
2.47058e-07
1.54723e-08
1.85784e-07
1.391e-06
4.77201e-06
8.46855e-06
1.07688e-05
3.58872e-08
9.90676e-07
1.08653e-05
2.82382e-05
4.57167e-05
5.89924e-05
5.21238e-08
2.407e-06
1.85823e-05
4.43495e-05
7.17459e-05
9.5569e-05
6.4496e-08
4.16619e-06
2.51472e-05
5.87517e-05
9.68945e-05
0.000131775
1.16246e-07
6.92132e-06
3.48218e-05
8.10985e-05
0.000136982
0.000189701
5.26278e-07
1.12025e-05
5.03551e-05
0.000118562
0.000203509
0.000284092
1.76157e-06
1.76834e-05
7.58549e-05
0.000181731
0.00031372
0.000432577
4.2382e-06
2.76231e-05
0.000118671
0.000286667
0.000485087
0.000642734
7.65393e-06
4.30677e-05
0.000190883
0.000452727
0.00072571
0.000901569
0.00117348
0.00107471
0.000952522
0.00091043
0.00099313
0.00117637
0.0013888
0.00154214
0.00158081
0.00150737
0.0013684
0.00121623
0.00108538
0.000991839
0.000937713
0.000915863
0.000913001
0.000913457
0.000903177
0.000873189
0.000821338
0.000751591
0.000671429
0.000588492
0.00050738
0.000431495
0.000361643
0.000297508
0.000238458
0.000183901
0.000133637
8.83204e-05
4.87324e-05
2.13414e-05
0.00135348
0.00122692
0.001141
0.00115682
0.00127246
0.00143703
0.00157831
0.00163456
0.0015848
0.00145442
0.00129273
0.00114307
0.00102864
0.000954374
0.000913065
0.00089145
0.000875171
0.000853034
0.000819713
0.000775838
0.000725758
0.000674462
0.000625205
0.000578675
0.000533867
0.000489399
0.000443801
0.000396779
0.000349239
0.000303102
0.000244772
0.00016368
5.01595e-05
3.96592e-06
0.0014955
0.00138334
0.00134097
0.00138978
0.00149986
0.00161363
0.00167244
0.00164183
0.00152697
0.00136525
0.00120194
0.0010683
0.000975201
0.000918199
0.000885402
0.000864216
0.000845653
0.000826019
0.000806032
0.00078804
0.000773469
0.000761545
0.00074957
0.000734157
0.000712896
0.00068508
0.000653388
0.000626458
0.000600851
0.00054154
0.00046642
0.00031392
7.26852e-05
2.76306e-06
0.00162153
0.0015409
0.00152944
0.00158257
0.00165913
0.00170713
0.00168668
0.00158786
0.0014334
0.00126367
0.00111485
0.00100538
0.000936077
0.000897917
0.000879939
0.000874257
0.000877265
0.000888078
0.000906065
0.00092878
0.00095163
0.000968769
0.000974808
0.000966566
0.000944769
0.000915771
0.00088522
0.000834724
0.000781715
0.000735156
0.000660214
0.000436631
9.31794e-05
2.45723e-06
0.00174155
0.00168699
0.00168703
0.00172157
0.00174852
0.00172834
0.00164159
0.0014976
0.00132803
0.00116938
0.00104666
0.000967558
0.000927372
0.000917054
0.000928944
0.000958366
0.00100202
0.00105564
0.00111274
0.00116488
0.00120326
0.00122073
0.00121369
0.00118387
0.001143
0.00108545
0.00101941
0.000959074
0.000909662
0.000863586
0.000772297
0.000506811
0.000107731
2.28358e-06
0.00184785
0.00180769
0.0018023
0.00180362
0.00177489
0.00169386
0.0015598
0.00139455
0.00123122
0.00109864
0.00101152
0.000970575
0.000969295
0.00100012
0.00105654
0.00113229
0.00121914
0.00130642
0.00138194
0.00143408
0.00145405
0.00143781
0.00138799
0.00131649
0.00122597
0.00114244
0.00106637
0.00100205
0.000953987
0.000907871
0.000814308
0.0005372
0.000115029
2.02032e-06
0.00183465
0.00174849
0.00174848
0.00183175
0.00175067
0.00162327
0.00146351
0.00129913
0.00115979
0.00106581
0.00102389
0.00103086
0.00107942
0.00116111
0.00126624
0.00138265
0.0014954
0.00158861
0.00164774
0.00166177
0.00162489
0.0015423
0.00142378
0.00130886
0.0011997
0.00110415
0.00102671
0.000968246
0.000927581
0.000890066
0.000805871
0.000533557
0.00011379
1.73629e-06
0.00172806
0.00164665
0.00166507
0.00180179
0.00169171
0.00153627
0.00137224
0.00122833
0.00112821
0.0010838
0.00109646
0.00115957
0.00126284
0.00139312
0.00153419
0.00166717
0.00177249
0.00183257
0.00183329
0.00176489
0.00162992
0.00147453
0.00132664
0.00119373
0.00108002
0.000988971
0.00092303
0.000878507
0.000852265
0.000829964
0.000759282
0.000497699
0.000101818
1.69014e-06
0.00161455
0.00155161
0.00159953
0.0017659
0.00161506
0.00145115
0.00130304
0.00119647
0.00114764
0.00116176
0.00123457
0.00135405
0.00150384
0.00166369
0.00181092
0.00192263
0.00197827
0.00196034
0.00185324
0.0016513
0.00145636
0.00127814
0.00112428
0.000996791
0.000899587
0.000828345
0.000780848
0.000754836
0.000746383
0.000740988
0.000680895
0.000433106
8.4137e-05
1.65062e-06
0.00151026
0.00147512
0.00156045
0.00169965
0.00153741
0.00138423
0.00126924
0.00121259
0.00122372
0.00130005
0.0014292
0.00159193
0.00176407
0.00191919
0.00203137
0.00207763
0.00203826
0.00189239
0.00162204
0.00137829
0.00116602
0.00099297
0.000856785
0.000756294
0.000687632
0.000643128
0.000618565
0.000612481
0.000623415
0.000633377
0.000583271
0.000356541
6.46038e-05
1.53907e-06
0.00142347
0.00142132
0.00155002
0.00162999
0.00147271
0.00134667
0.00127793
0.00128056
0.00135375
0.00148539
0.00165415
0.00183238
0.00198962
0.00209693
0.00212944
0.002067
0.00188979
0.00157759
0.00126466
0.00101515
0.000815894
0.000675879
0.000576963
0.000512232
0.000474072
0.000455364
0.000452958
0.00046722
0.000497806
0.00052191
0.000480849
0.000276638
4.57374e-05
1.32628e-06
0.00135735
0.00139236
0.00157758
0.00156834
0.00143091
0.00134572
0.00133284
0.00139566
0.00152264
0.00169081
0.00186969
0.00202503
0.00212426
0.00214056
0.00205405
0.00185074
0.00151873
0.00116246
0.000857517
0.000643031
0.000497076
0.000403385
0.000345387
0.000311804
0.000295674
0.00029365
0.000306418
0.000337305
0.000384392
0.000418646
0.000375919
0.000196468
2.7993e-05
1.10786e-06
0.00131423
0.00139331
0.00165634
0.00152403
0.00141941
0.00138448
0.00142812
0.00154325
0.00170498
0.00188032
0.00203178
0.00212298
0.0021244
0.00201614
0.00178834
0.00144111
0.00106779
0.00074469
0.000512983
0.000375135
0.000296717
0.000250336
0.000220217
0.000200783
0.000188816
0.000186006
0.000197948
0.000232758
0.000284262
0.000314545
0.000261754
0.000113421
1.46768e-05
8.99727e-07
0.00129537
0.00142583
0.00162154
0.00150149
0.00143867
0.00145622
0.00155115
0.00170084
0.0018698
0.00201737
0.00210357
0.00209562
0.00197277
0.00172893
0.00137838
0.000976247
0.000649348
0.000433317
0.000316452
0.000256709
0.000222405
0.000199173
0.000180437
0.000163065
0.000146401
0.000133794
0.000133158
0.000154108
0.000190315
0.000200297
0.000148171
5.88342e-05
7.81629e-06
6.41118e-07
0.00130358
0.00150313
0.00159264
0.00150308
0.00148677
0.00155221
0.00168328
0.0018431
0.00198809
0.00207434
0.00206542
0.00193843
0.00168786
0.00133059
0.000922447
0.000583798
0.000383981
0.000288427
0.000242593
0.000216235
0.000198027
0.0001835
0.000169762
0.000154335
0.000135817
0.000115873
0.00010103
0.000100573
0.000112658
0.000111419
7.77562e-05
3.05344e-05
4.24622e-06
3.88817e-07
0.00134293
0.00163863
0.00157994
0.00152618
0.00155426
0.00165829
0.0018048
0.00194786
0.00203982
0.00203966
0.00192142
0.00167878
0.00132881
0.000922552
0.000563114
0.000359189
0.000274572
0.000237085
0.000215055
0.000199174
0.000186719
0.000176209
0.000165904
0.000153551
0.000136854
0.000114921
9.05151e-05
7.1512e-05
6.44038e-05
6.01402e-05
4.13793e-05
1.64848e-05
2.33357e-06
1.99385e-07
0.00141466
0.0016666
0.00158261
0.00156693
0.00163324
0.00175959
0.00189903
0.00200057
0.00201815
0.00192093
0.00170023
0.00137194
0.000980829
0.00061261
0.000370021
0.000271211
0.000236879
0.00021767
0.000202836
0.000190333
0.000179755
0.000170743
0.000162366
0.000152939
0.000140095
0.000121449
9.59826e-05
6.68367e-05
4.4282e-05
3.46677e-05
2.32971e-05
9.36955e-06
1.28489e-06
8.78924e-08
0.00153286
0.00165656
0.00159842
0.00161815
0.00171324
0.00184373
0.00195523
0.00199668
0.00193043
0.00174245
0.00144465
0.00107772
0.000707877
0.000428984
0.000289866
0.000243709
0.000226725
0.000213659
0.000200996
0.000188791
0.000177502
0.000167556
0.000158832
0.000150462
0.000140709
0.000127157
0.000107222
7.92079e-05
4.67186e-05
2.51241e-05
1.46837e-05
5.70783e-06
7.16282e-07
3.61125e-08
0.00171883
0.00165522
0.00162538
0.00167478
0.00178528
0.00190259
0.00196986
0.00194181
0.00179567
0.00153808
0.00119851
0.000835297
0.000526037
0.000339207
0.00026614
0.000244451
0.000234226
0.000223775
0.000211073
0.000197149
0.000182985
0.000169775
0.000158105
0.000147927
0.000138389
0.000127733
0.000113606
9.32253e-05
6.40709e-05
3.01e-05
1.24532e-05
4.07037e-06
4.35304e-07
1.74126e-08
0.00173062
0.00166077
0.00165726
0.00173062
0.00184293
0.00193267
0.00194555
0.00184788
0.00163566
0.00133268
0.000985297
0.000656866
0.00042118
0.000307122
0.000272597
0.000264013
0.000258002
0.000249097
0.000235628
0.00021858
0.000199641
0.000181155
0.000164165
0.000149318
0.00013664
0.000125102
0.000112973
9.7956e-05
7.74418e-05
4.88253e-05
1.77875e-05
4.27196e-06
3.52869e-07
1.48048e-08
0.00172497
0.00167251
0.00169293
0.00178107
0.00188296
0.00193485
0.00189008
0.00173086
0.00147144
0.00114883
0.000815557
0.000538545
0.000372406
0.000310195
0.000299236
0.000299695
0.000297344
0.000289544
0.000274757
0.000254315
0.000230333
0.000205117
0.000180579
0.000158665
0.00014
0.000124216
0.000110108
9.57954e-05
7.89999e-05
5.76132e-05
2.86727e-05
6.28897e-06
4.65465e-07
2.28367e-08
0.00172218
0.00168774
0.00172941
0.00182329
0.00190495
0.00191327
0.00181353
0.00160536
0.00131741
0.000993521
0.000690077
0.000469982
0.000362527
0.000336851
0.000342543
0.000350994
0.000352493
0.00034576
0.000329518
0.000305275
0.000275403
0.000242645
0.000209767
0.000178898
0.000151934
0.000129279
0.000110285
9.33899e-05
7.64369e-05
5.71511e-05
3.48519e-05
9.40539e-06
6.81608e-07
3.67949e-08
0.00172224
0.00170618
0.00176474
0.00185614
0.00191057
0.0018738
0.00172584
0.00148234
0.00118109
0.00086915
0.000604759
0.00044001
0.000379833
0.00038121
0.00040067
0.000417087
0.000422857
0.000417337
0.00039985
0.000371984
0.000336215
0.000295502
0.000253026
0.000211892
0.000174635
0.000142781
0.000116485
9.46423e-05
7.51996e-05
5.57328e-05
3.44991e-05
1.2335e-05
8.78701e-07
5.41917e-08
0.00172521
0.00172723
0.00179762
0.0018797
0.00190273
0.00182268
0.00163519
0.00136869
0.00106545
0.000774703
0.000553461
0.000438979
0.000416607
0.000439471
0.000471442
0.000496028
0.00050663
0.000502267
0.000484011
0.000453123
0.000412003
0.000363625
0.000311382
0.000258905
0.000209661
0.00016635
0.000130303
0.000101186
7.72197e-05
5.58214e-05
3.45754e-05
1.38961e-05
1.19439e-06
7.00637e-08
0.00173107
0.00175012
0.00182737
0.00189493
0.00188485
0.00176555
0.00154748
0.00126788
0.000970916
0.000707341
0.000529687
0.0004592
0.000467403
0.000508301
0.000551926
0.000584669
0.000600557
0.000597246
0.000578862
0.000545929
0.000500609
0.000445639
0.000384287
0.000320379
0.000258098
0.000201389
0.000153078
0.000114104
8.33542e-05
5.82498e-05
3.58867e-05
1.53784e-05
1.62816e-06
7.92135e-08
0.00173929
0.00177403
0.00185389
0.00190332
0.00186033
0.00170699
0.00146639
0.0011812
0.000896433
0.000663364
0.000527384
0.000494624
0.000527894
0.000584207
0.000638258
0.000678277
0.000698842
0.000697906
0.000680061
0.00064616
0.000598158
0.000538389
0.000469645
0.000395457
0.000320247
0.000248984
0.000186174
0.000134583
9.43942e-05
6.34122e-05
3.83006e-05
1.69516e-05
2.18127e-06
8.3901e-08
0.0017503
0.00179862
0.00187735
0.0019065
0.00183221
0.00165022
0.00139384
0.00110863
0.000840147
0.000638823
0.00054125
0.000540466
0.00059448
0.000663961
0.000727069
0.000773416
0.000798216
0.000799808
0.000782873
0.000748865
0.000699643
0.000637125
0.000563432
0.000481351
0.000394857
0.000309316
0.000230698
0.000163974
0.000111426
7.20015e-05
4.22448e-05
1.89275e-05
2.9178e-06
8.30746e-08
0.00176356
0.00182335
0.00187342
0.00190601
0.00180293
0.00159739
0.00133062
0.00104946
0.000799819
0.000629897
0.000566799
0.000592898
0.000664117
0.000744692
0.000815395
0.000866973
0.000895291
0.000899136
0.000883141
0.000849479
0.000800071
0.00073655
0.000660389
0.000573428
0.00047863
0.000380876
0.000286815
0.000203432
0.000135745
8.4951e-05
4.82846e-05
2.1679e-05
3.99021e-06
7.42384e-08
0.00177873
0.00184762
0.00180703
0.00190306
0.00177434
0.00154985
0.00127682
0.00100258
0.000773082
0.000633091
0.000600312
0.00064884
0.000734262
0.000823998
0.000900846
0.000956534
0.000987562
0.000993174
0.000977883
0.000944613
0.000895506
0.00083209
0.000755356
0.000666264
0.000566591
0.000460054
0.00035293
0.000253235
0.000168578
0.000103403
5.70545e-05
2.54684e-05
5.44375e-06
6.99673e-08
0.00179519
0.00187105
0.0017562
0.00189875
0.0017478
0.00150831
0.00123212
0.000966711
0.000757614
0.000645324
0.000638745
0.000705828
0.000802859
0.000899997
0.000981669
0.00104046
0.00107345
0.00108028
0.00106531
0.0010322
0.00098345
0.00092064
0.000844448
0.000755127
0.000653415
0.000541736
0.000425332
0.000311938
0.000210523
0.000128617
6.93919e-05
3.0606e-05
7.35382e-06
2.01535e-07
0.00181222
0.00179288
0.00171751
0.0018818
0.00172418
0.00147305
0.00119598
0.000940503
0.000751246
0.000663957
0.000679651
0.000761917
0.000868304
0.000971296
0.00105667
0.00111774
0.00115208
0.00115961
0.00114452
0.00111119
0.00106261
0.00100053
0.000925424
0.000836916
0.000734911
0.000620787
0.000498877
0.000376011
0.000260622
0.0001616
8.64713e-05
3.74907e-05
9.77382e-06
6.04275e-07
0.00182948
0.00172666
0.00168784
0.0018597
0.00170406
0.0014441
0.00116776
0.00092264
0.000752033
0.000686782
0.000721091
0.000815598
0.000929382
0.0010369
0.00112503
0.00118775
0.00122293
0.0012307
0.00121503
0.00118106
0.00113237
0.00107104
0.000997322
0.000910192
0.000808743
0.000693534
0.000568529
0.000440287
0.000315855
0.00020239
0.000109649
4.67222e-05
1.28153e-05
1.50284e-06
0.0018467
0.00168048
0.00166492
0.0018398
0.00168774
0.0014213
0.00114679
0.000911897
0.000758284
0.000711998
0.000761549
0.000865713
0.000985183
0.00109607
0.00118621
0.00125003
0.00128565
0.00129324
0.00127655
0.00124149
0.00119241
0.00113183
0.00105983
0.000974553
0.000874139
0.000758312
0.000630968
0.000499596
0.000371178
0.000249202
0.00013983
5.9166e-05
1.66228e-05
3.08219e-06
0.0018636
0.00164775
0.00164687
0.00182219
0.00167543
0.00140444
0.00113242
0.00090718
0.000768576
0.000738168
0.000799852
0.000911382
0.00103502
0.00114828
0.00123974
0.0013042
0.0013399
0.00134692
0.00132875
0.00129214
0.00124242
0.00118269
0.00111281
0.00102998
0.000931104
0.000814916
0.000685091
0.000550746
0.000421117
0.000297549
0.000176982
7.60139e-05
2.13237e-05
5.33065e-06
0.00188005
0.00162362
0.00163235
0.00180614
0.00166722
0.00139326
0.00112406
0.000907554
0.000781748
0.00076417
0.000835118
0.000951942
0.00107837
0.00119307
0.00128519
0.00134982
0.00138523
0.00139131
0.00137122
0.00133268
0.00128215
0.00122343
0.00115617
0.00107645
0.000979749
0.000863629
0.00073118
0.000593012
0.000462151
0.000341656
0.000219067
9.84923e-05
2.70887e-05
7.94495e-06
0.00189591
0.0016055
0.00162029
0.00179066
0.00166315
0.00138752
0.0011212
0.000912258
0.000796894
0.000789161
0.000866698
0.000986899
0.00111481
0.00123003
0.00132214
0.00138641
0.00142108
0.00142581
0.00140344
0.00136276
0.00131146
0.00125407
0.00118995
0.00111395
0.00102002
0.000904542
0.00076976
0.00062713
0.000493541
0.000376974
0.000261496
0.000127257
3.4104e-05
1.05055e-05
0.00186871
0.0015917
0.00160995
0.00177489
0.00166319
0.00138701
0.00112344
0.000920716
0.000813354
0.000812554
0.000894148
0.0010159
0.00114402
0.00125879
0.00135009
0.00141332
0.00144669
0.00144962
0.00142474
0.00138204
0.0013304
0.00127488
0.00121444
0.00114262
0.0010518
0.000937421
0.000800926
0.000653986
0.000516463
0.000401915
0.000298385
0.00016165
4.26641e-05
1.26928e-05
0.00183665
0.00158095
0.00160035
0.00175831
0.00166731
0.00139155
0.0011305
0.000932546
0.000830714
0.000834009
0.000917226
0.00103874
0.00116577
0.00127897
0.00136844
0.0014297
0.00146092
0.00146153
0.00143431
0.00139035
0.00133935
0.00128655
0.00123029
0.00116281
0.00107506
0.000961877
0.000824284
0.00067389
0.000532426
0.000417723
0.000325333
0.000198583
5.32142e-05
1.43005e-05
0.00181032
0.00157225
0.00159093
0.00174079
0.00167543
0.00140103
0.00114223
0.00094758
0.000848847
0.000853556
0.000936032
0.00105543
0.00118002
0.0012902
0.00137628
0.00143407
0.00146196
0.00145978
0.0014313
0.00138783
0.00133914
0.00129016
0.00123847
0.00117513
0.00108994
0.00097755
0.000839206
0.000686575
0.000542332
0.000426668
0.000341489
0.000232281
6.60823e-05
1.52055e-05
0.00178851
0.00156471
0.00158145
0.00172227
0.00168747
0.00141532
0.00115861
0.000965989
0.000868255
0.000872574
0.000951893
0.00106643
0.00118539
0.00127545
0.00137162
0.00142506
0.00144938
0.00144501
0.00141698
0.00137603
0.00133146
0.00128748
0.0012406
0.00118073
0.00109685
0.000983882
0.000844564
0.000691537
0.000546433
0.000430546
0.000349157
0.000256506
8.08439e-05
1.53826e-05
0.00176922
0.00155736
0.00157158
0.00170253
0.00170305
0.00143412
0.00117986
0.000989349
0.000891895
0.00089244
0.000964836
0.00107127
0.00117151
0.00125489
0.00135579
0.00140445
0.00142549
0.00142001
0.00139388
0.00135724
0.00131857
0.00128092
0.00123937
0.00118258
0.00109902
0.000984315
0.000842938
0.000688936
0.000544129
0.0004296
0.000351027
0.000267502
9.44925e-05
1.49396e-05
0.00174995
0.00154884
0.00156027
0.00168058
0.00172221
0.00145858
0.00120797
0.0010193
0.000920219
0.000913946
0.00097603
0.00107137
0.00114549
0.00124236
0.00133064
0.00137435
0.00139259
0.00138704
0.00136433
0.0013337
0.00130258
0.00127236
0.00123629
0.00118174
0.00109706
0.000979143
0.00083475
0.000679788
0.000536302
0.000424582
0.000349798
0.000273808
0.00010256
1.40498e-05
0.00172848
0.00153816
0.00154724
0.00165692
0.00174465
0.00148847
0.00124285
0.00105602
0.000953858
0.000938313
0.00098721
0.00106131
0.0011272
0.00123668
0.00129867
0.00133735
0.00135334
0.00134881
0.00133095
0.00130806
0.00128595
0.00126381
0.00123267
0.00117875
0.00109089
0.000967958
0.000819597
0.000663892
0.000522938
0.000415569
0.000345666
0.000277164
0.000109476
1.28472e-05
0.00170306
0.00152446
0.00153239
0.00163208
0.00172789
0.00152314
0.00128436
0.00109979
0.000993656
0.000967115
0.00100061
0.0010427
0.00111619
0.00121006
0.00126307
0.00129669
0.00131101
0.0013087
0.00129721
0.00128366
0.00127159
0.00125736
0.00122959
0.0011737
0.0010799
0.000949934
0.000796856
0.000640955
0.000504035
0.000402693
0.000338666
0.00027708
0.000115111
1.14316e-05
0.00167224
0.00150693
0.0015153
0.00160635
0.00169238
0.0015622
0.00133234
0.00115088
0.00104055
0.00100206
0.00100596
0.00103257
0.00111327
0.00118355
0.00122787
0.00125651
0.0012698
0.00127106
0.0012675
0.00126452
0.00126273
0.001255
0.00122761
0.00116595
0.00106282
0.000923818
0.00076574
0.000610746
0.000479716
0.000386087
0.000328879
0.000271982
0.000119107
9.88372e-06
0.00163462
0.00148486
0.0014955
0.00157986
0.00165749
0.00160528
0.00138649
0.00120943
0.00109519
0.00102949
0.000998381
0.00103177
0.00111886
0.00116264
0.00119806
0.00122199
0.001235
0.00124129
0.001247
0.00125506
0.00126237
0.00125799
0.00122623
0.00115381
0.00103756
0.000887957
0.000725431
0.000573231
0.000450338
0.000366184
0.000316432
0.000241268
0.00012106
8.29827e-06
0.0015888
0.00145765
0.00147243
0.00155195
0.00162378
0.00162948
0.00144567
0.00127469
0.00111734
0.00102423
0.00100258
0.00104258
0.00112137
0.00115259
0.00117942
0.00119921
0.00121292
0.00122566
0.00124129
0.00125938
0.00127253
0.00126607
0.00122328
0.00113413
0.00100121
0.000840472
0.000675331
0.000528753
0.000416559
0.000343512
0.000301399
0.000216213
0.000120667
6.74905e-06
0.00153388
0.00142453
0.00144522
0.00152205
0.00159174
0.00156268
0.00142075
0.00125238
0.00111398
0.00103609
0.00102274
0.0010682
0.00113904
0.00115885
0.0011781
0.00119483
0.00121057
0.00123061
0.00125536
0.00128019
0.00129305
0.00127627
0.00121414
0.00110211
0.0009502
0.000779683
0.000615432
0.000478203
0.000379444
0.000318759
0.000271271
0.000196701
0.000117482
5.26477e-06
0.00146898
0.00138507
0.00141316
0.00148973
0.00153966
0.00149296
0.00137973
0.00124358
0.00113104
0.00106821
0.00106254
0.00111337
0.00117599
0.00118647
0.00119988
0.00121509
0.00123462
0.00126132
0.00129192
0.00131695
0.00131994
0.00128188
0.00119118
0.00105157
0.000880986
0.000704815
0.000546762
0.000423249
0.000340071
0.000292757
0.000237798
0.000182427
0.000111064
3.9268e-06
0.00139422
0.00133823
0.00137588
0.00144677
0.0014757
0.00144604
0.00136059
0.00125544
0.00116821
0.00112165
0.00112565
0.00118358
0.00123537
0.00123939
0.00124925
0.00126454
0.00128834
0.001319
0.00134886
0.00136359
0.00134353
0.0012715
0.00114427
0.000975963
0.000791395
0.000616891
0.000471741
0.000366314
0.000300437
0.000266513
0.000213398
0.000173138
0.000101096
2.78511e-06
0.00131057
0.00128344
0.00133154
0.00138686
0.00142579
0.00141561
0.00135795
0.00128345
0.00122274
0.00119564
0.00121342
0.00128233
0.00131884
0.00131962
0.00132824
0.00134454
0.00137051
0.00139861
0.00141655
0.00140608
0.0013471
0.00122942
0.00106258
0.000870872
0.000682241
0.000519437
0.000394262
0.000310183
0.000262212
0.000240499
0.000195911
0.000168322
8.72844e-05
2.3831e-06
0.00121895
0.00122021
0.00126901
0.00133296
0.00138343
0.00139399
0.0013653
0.00132222
0.0012901
0.00128611
0.00132242
0.00140726
0.00142571
0.0014259
0.00143438
0.00145063
0.00147177
0.00148517
0.00147468
0.00142046
0.00130721
0.00113852
0.000938473
0.000736918
0.000558791
0.000418455
0.000319118
0.000257619
0.000226513
0.000214721
0.000182596
0.000166968
6.84095e-05
2.15497e-06
0.00112036
0.00114295
0.00120641
0.00127881
0.00134211
0.00137535
0.00137715
0.00136652
0.00136476
0.00138655
0.0014442
0.00154871
0.00155074
0.00155061
0.00155674
0.00156686
0.00156932
0.00154969
0.00148981
0.00137342
0.00119847
0.000987213
0.000772923
0.000582433
0.000430858
0.000321578
0.000250521
0.000210467
0.000193513
0.000188272
0.000170341
0.00014481
4.32421e-05
1.84233e-06
0.0010154
0.00105986
0.00113898
0.00121992
0.00129827
0.00135652
0.0013902
0.00141264
0.00144148
0.00148875
0.00156756
0.0016875
0.00167918
0.00167436
0.00167022
0.00165812
0.00162211
0.00154616
0.00141589
0.00122886
0.00100442
0.000778493
0.000580355
0.000423854
0.00031081
0.000235805
0.00019101
0.000168905
0.000161897
0.000159052
0.000143123
9.91507e-05
1.91983e-05
1.44966e-06
0.000904066
0.000969887
0.00106469
0.00115533
0.00125197
0.00133755
0.00140315
0.00145611
0.00151114
0.00158395
0.00169455
0.00179473
0.00177727
0.00175692
0.0017263
0.00166758
0.00156647
0.00141192
0.00120554
0.000968931
0.000737505
0.000540739
0.000389193
0.000281009
0.000209125
0.000165017
0.000141115
0.000131296
0.000129
0.000124021
9.62803e-05
3.51094e-05
7.16395e-06
1.06474e-06
0.000794996
0.000878506
0.000986444
0.00108822
0.00120457
0.0013152
0.00140709
0.00148845
0.00157706
0.00168935
0.00183541
0.00181639
0.00177446
0.00172097
0.00163496
0.00150254
0.00131898
0.00109392
0.000854201
0.000633219
0.000453984
0.00032134
0.000229031
0.000168243
0.000130532
0.000109009
9.84728e-05
9.47138e-05
9.19557e-05
8.0041e-05
3.8251e-05
1.16484e-05
2.90595e-06
6.34619e-07
0.000665637
0.000782045
0.000903172
0.00101454
0.00115434
0.00129768
0.0014254
0.00154191
0.00166476
0.00175659
0.0016932
0.00162292
0.00154247
0.00143314
0.00127235
0.00107147
0.000850678
0.000638553
0.000458846
0.000321509
0.000224156
0.000158512
0.000115758
8.90173e-05
7.31874e-05
6.45302e-05
5.99962e-05
5.69437e-05
4.9761e-05
2.79282e-05
1.0543e-05
4.3654e-06
1.21494e-06
2.74754e-07
0.000576791
0.000706352
0.000831479
0.000955043
0.00110813
0.00126495
0.00139834
0.00141457
0.00132345
0.0012334
0.00114359
0.00104964
0.000942585