/*--------------------------------*- C++ -*----------------------------------*\
| =========                 |                                                 |
| \\      /  F ield         | OpenFOAM: The Open Source CFD Toolbox           |
|  \\    /   O peration     | Version:  v2012                                 |
|   \\  /    A nd           | Website:  www.openfoam.com                      |
|    \\/     M anipulation  |                                                 |
\*---------------------------------------------------------------------------*/
FoamFile
{
    version     2.0;
    format      ascii;
    class       volScalarField;
    location    "684";
    object      omega;
}
// * * * * * * * * * * * * * * * * * * * * * * * * * * * * * * * * * * * * * //

dimensions      [0 0 -1 0 0 0 0];


internalField   nonuniform List<scalar> 
6018
(
245.628
246.362
247.078
247.78
248.473
249.173
249.903
250.687
251.556
252.543
253.692
255.059
256.722
258.784
261.398
264.782
269.263
275.339
283.801
295.983
76.4124
73.9932
72.0652
70.5461
69.4041
68.6766
68.3703
68.4064
68.7203
69.258
69.9726
70.8152
71.731
72.6601
73.5095
74.1304
74.2916
73.618
71.3498
66.1166
37.8832
36.8544
36.2042
35.8753
35.8242
36.0108
36.3973
36.9501
37.6447
38.4638
39.3962
40.4337
41.5688
42.798
44.1291
45.577
47.1704
48.9731
51.1114
53.8545
26.0802
26.0082
26.1398
26.4417
26.8884
27.4613
28.1482
28.9425
29.843
30.8533
31.982
33.2427
34.6552
36.2454
38.0503
40.121
42.5273
45.3636
48.7572
52.8779
22.2726
22.6118
23.0636
23.6139
24.2542
24.9808
25.7943
26.6988
27.7023
28.816
30.0551
31.4394
32.9941
34.7508
36.7501
39.0438
41.698
44.7972
48.4514
52.8032
21.475
22.0073
22.6065
23.2691
23.995
24.7872
25.6509
26.5942
27.6274
28.7647
30.021
31.4173
32.9801
34.7422
36.7451
39.0412
41.6967
44.7967
48.4513
52.8032
22.7997
23.4933
24.2223
24.9889
25.7974
26.653
27.5623
28.5336
29.561
30.6598
31.8509
33.1553
34.5976
36.2083
38.0274
40.1079
42.5204
45.3605
48.7562
52.8777
28.3009
29.3321
30.3648
31.4152
32.4962
33.6146
34.7153
35.7714
36.827
37.9029
39.0138
40.1722
41.3897
42.6778
44.0518
45.5294
47.1434
48.9596
51.106
53.8534
52.1241
54.1143
56.0386
58.0368
60.2507
62.2164
63.8387
65.2587
66.5542
67.778
68.964
70.1266
71.2651
72.3493
73.305
73.9994
74.2135
73.5759
71.3293
66.1105
249.116
249.019
249.048
249.223
249.522
249.933
250.45
251.08
251.836
252.742
253.832
255.158
256.789
258.829
261.427
264.8
269.273
275.343
283.802
295.983
241.22
241.23
241.23
241.221
241.207
241.195
241.188
241.185
241.184
241.185
241.192
241.205
241.22
241.23
241.232
241.232
241.231
241.232
241.237
241.242
241.244
241.247
241.251
241.251
241.25
241.259
241.335
241.483
241.747
242.153
242.706
243.377
244.113
244.872
38.2003
39.5612
42.8771
47.9877
51.3711
51.9857
50.2604
47.0468
43.279
41.3156
39.6656
39.0281
39.1641
39.9339
41.0688
42.7579
43.4525
43.072
43.4745
44.3495
47.0422
53.6776
62.0458
70.0391
77.5107
83.485
87.6407
90.1323
91.1025
90.6648
89.0255
86.3963
83.0503
79.419
16.7302
16.3205
16.5218
18.7212
21.4689
23.3225
23.5113
21.9761
19.1795
16.7418
15.0605
14.386
14.4896
15.1389
16.2184
18.6448
21.5335
25.0776
31.1885
37.8593
44.3871
49.9408
53.9263
56.2852
57.3165
57.1554
56.0173
54.1429
51.75
49.0224
46.2424
43.6375
41.3015
39.3557
14.7653
13.4472
12.5021
12.5152
13.3779
14.4731
15.0046
14.4894
13.0068
11.4564
10.6685
10.8181
11.6129
13.2439
15.9269
20.6711
26.1617
31.4558
36.174
39.7883
42.1277
43.2179
43.2086
42.3311
40.8383
38.9433
36.8431
34.6993
32.6564
30.8097
29.2222
27.9511
27.0121
26.3986
14.48
12.8772
11.6931
10.9832
10.8702
11.2046
11.5228
11.3648
10.7034
10.3254
11.1149
12.7869
15.0187
18.1249
21.9925
26.4996
30.578
33.6287
35.4619
36.0993
35.7757
34.766
33.312
31.6128
29.8297
28.0927
26.5043
25.1264
23.9978
23.1308
22.5223
22.159
22.0171
22.065
13.6788
11.995
10.8373
10.084
9.74435
9.78954
10.0015
10.1302
10.4085
11.8069
13.9291
16.5303
19.4718
22.8759
26.3137
29.205
31.0625
31.7768
31.5204
30.587
29.263
27.7614
26.2295
24.7712
23.463
22.3573
21.4824
20.8452
20.437
20.2383
20.2237
20.3644
20.6353
21.0124
12.3482
10.7443
9.72838
9.15472
8.92239
9.01143
9.39173
10.1963
11.969
14.4842
17.3152
20.2024
23.1056
25.7238
27.6806
28.71
28.7782
28.0907
26.9492
25.6132
24.2573
22.9883
21.8736
20.9574
20.2656
19.8061
19.5713
19.5419
19.6912
19.989
20.4075
20.9188
21.4971
22.1295
10.8264
9.43445
8.64278
8.30943
8.31066
8.70948
9.76813
11.7617
14.5818
17.4347
20.3
22.8705
24.9027
26.2173
26.7045
26.4088
25.5463
24.393
23.1756
22.0372
21.0589
20.2884
19.7542
19.4701
19.4368
19.6445
20.0767
20.7125
21.5311
22.515
23.6356
24.8421
26.0516
27.2081
9.47306
8.36136
7.85936
7.81412
8.21444
9.35539
11.4458
14.1422
17.0769
19.8888
22.2927
23.9981
24.9207
25.0732
24.5818
23.6747
22.6027
21.5616
20.6736
20.0085
19.6094
19.5061
19.72
20.268
21.1657
22.4328
24.0934
26.1818
28.7422
31.8213
35.4572
39.6718
44.3276
48.5338
8.52704
7.76124
7.60359
8.01501
9.11026
10.9934
13.5446
16.3744
19.139
21.4633
23.0506
23.7872
23.7655
23.1858
22.3009
21.3489
20.5051
19.88
19.544
19.5504
19.9505
20.8012
22.1743
24.1624
26.8886
30.5189
35.2847
41.4986
49.598
60.2278
74.3996
94.1534
123.601
171.052
241.182
241.183
241.185
241.187
241.193
241.206
177.196
54.5958
41.8131
39.0516
37.9095
37.6524
177.197
35.072
21.1514
19.3385
18.3629
17.486
177.199
35.8473
23.711
20.5868
18.3463
16.4463
177.199
43.079
29.074
23.4059
19.542
16.7225
177.203
50.8785
33.3243
25.0444
19.7399
16.2084
177.233
57.2197
35.5473
25.0803
18.8458
14.9421
177.323
61.1436
35.5556
23.6073
17.0202
13.2034
177.504
61.9724
33.4565
21.0305
14.7731
11.426
177.753
59.6055
29.7436
17.9672
12.6333
9.98928
8.07429
7.7511
8.09132
9.06538
10.7184
12.9879
15.6261
18.2705
20.5295
22.0635
22.7323
22.6333
22.0238
21.1912
20.3726
19.7285
19.3577
19.3258
19.6864
20.4912
21.793
23.6463
26.104
29.2072
32.9309
37.2501
42.0815
47.3073
52.8152
58.5969
65.0386
73.6412
91.0905
152.116
8.20337
8.40439
9.19282
10.5782
12.5308
14.8846
17.345
19.5222
21.0549
21.7545
21.6862
21.1121
20.3463
19.6395
19.1485
18.962
19.1356
19.7113
20.7241
22.1995
24.1437
26.5266
29.2572
32.1598
34.9713
37.3642
38.941
39.2808
37.9524
34.3097
28.6594
23.3568
31.112
151.034
8.92027
9.45982
10.5664
12.1963
14.2369
16.4562
18.5139
20.0478
20.8257
20.8541
20.3639
19.6734
19.0511
18.6622
18.5908
18.8819
19.5637
20.6511
22.139
23.9804
26.0628
28.189
30.0767
31.3847
31.7651
30.8961
28.5458
24.5501
19.7336
15.9854
12.821
11.9977
24.1614
150.959
9.88992
10.6838
11.9913
13.7162
15.6692
17.5646
19.0719
19.9321
20.0879
19.7131
19.1076
18.5507
18.2231
18.2145
18.563
19.2852
20.3778
21.801
23.4562
25.1639
26.6657
27.6535
27.8265
26.9559
24.9289
21.7687
17.9485
14.7782
12.0597
10.0078
8.59903
9.42331
22.5185
150.94
10.9706
11.9346
13.337
15.0144
16.7189
18.1594
19.0772
19.3621
19.1185
18.6066
18.1057
17.8132
17.832
18.2019
18.9294
19.9923
21.3193
22.7667
24.114
25.0873
25.4154
24.8951
23.4453
21.1186
18.0105
14.9597
12.5271
10.6732
9.12395
7.9033
7.27329
8.61123
21.7818
150.929
12.0613
13.1123
14.4998
15.9995
17.3396
18.2772
18.6703
18.5584
18.1465
17.6989
17.428
17.4524
17.8195
18.5321
19.5489
20.7714
22.024
23.069
23.651
23.5608
22.6909
21.0518
18.729
15.8548
13.4713
11.5649
10.0193
8.76843
7.74824
6.98492
6.71817
8.25129
21.3878
150.913
13.102
14.1579
15.4206
16.6308
17.5497
18.0197
18.0249
17.7132
17.32
17.0635
17.0805
17.4299
18.1131
19.0748
20.1937
21.2778
22.0885
22.4033
22.0757
21.0672
19.4201
17.1629
14.6457
12.6504
10.9966
9.64495
8.5478
7.65352
6.93214
6.42753
6.3578
8.01948
21.2132
150.895
14.0548
15.0226
16.0573
16.9116
17.4197
17.5196
17.3
16.9622
16.7191
16.7175
17.0371
17.6789
18.5788
19.5991
20.5393
21.1723
21.3088
20.8538
19.8138
18.2341
15.9565
13.8586
12.054
10.5579
9.32066
8.31141
7.50143
6.83787
6.307
5.9638
6.02839
7.82031
21.2598
150.892
14.8648
15.6555
16.3948
16.8862
17.0499
16.9105
16.6237
16.3907
16.3674
16.6412
17.2308
18.0616
18.9881
19.8053
20.3
20.3129
19.7846
18.75
17.2496
15.0115
13.1038
11.4789
10.1128
8.97678
8.06316
7.3122
6.68902
6.16402
5.74925
5.50674
5.66778
7.64825
21.5541
150.89
15.4854
16.0348
16.4582
16.6326
16.5533
16.31
16.078
16.0218
16.246
16.7685
17.5244
18.3611
19.0729
19.4575
19.3784
18.8001
17.7727
16.3328
14.2317
12.4118
10.8848
9.64808
8.62801
7.79424
7.1125
6.5243
6.00572
5.55216
5.19668
5.01597
5.30177
7.58037
22.1622
150.883
15.8949
16.1736
16.3056
16.2398
16.0245
15.785
15.685
15.8488
16.2982
16.971
17.7223
18.3455
18.6436
18.4943
17.8772
16.8533
15.4783
13.6064
11.8144
10.4043
9.24812
8.3875
7.64776
6.99394
6.40373
5.85672
5.35913
4.93532
4.62055
4.52285
5.01763
7.72047
23.2129
150.87
16.0967
16.1095
16.0025
15.7815
15.5258
15.3746
15.4581
15.8228
16.412
17.0806
17.6312
17.866
17.6662
17.0193
15.9941
14.6764
13.0081
11.3996
10.0682
9.12768
8.39925
7.76384
7.14148
6.50695
5.87019
5.26605
4.7414
4.33524
4.07947
4.16216
4.95986
8.32592
25.701
150.856
16.113
15.8915
15.6145
15.3223
15.108
15.0985
15.3539
15.8541
16.4482
16.9397
17.1345
16.9069
16.2426
15.2146
13.9246
12.4213
11.0198
9.92026
9.15113
8.6209
8.16959
7.69498
7.11201
6.42859
5.67458
4.94806
4.35594
3.94928
3.78878
4.13607
5.42695
10.2692
30.2929
150.843
15.978
15.5717
15.1932
14.8964
14.7746
14.9148
15.3068
15.8294
16.2789
16.4557
16.2264
15.5653
14.5471
13.296
11.9444
10.6561
9.74022
9.16149
8.80668
8.55519
8.31508
8.00975
7.55642
6.89728
6.05403
5.1732
4.46858
4.07508
4.07617
4.78274
6.83927
12.9897
33.829
150.827
15.7285
15.1931
14.7754
14.5287
14.5282
14.7892
15.2293
15.6473
15.8301
15.6256
14.9928
13.9989
12.7815
11.5042
10.3444
9.49967
9.00646
8.76124
8.65602
8.62058
8.59818
8.51627
8.2744
7.7679
6.95826
5.97191
5.12167
4.72043
4.91328
5.96431
8.6122
15.3714
35.6917
150.812
15.4003
14.7911
14.383
14.2141
14.3244
14.6606
15.0437
15.249
15.0982
14.5212
13.5709
12.3871
11.1478
10.028
9.17249
8.67754
8.45019
8.40217
8.4674
8.61184
8.79923
8.96724
9.01294
8.79874
8.20338
7.24314
6.21834
5.66252
5.94346
7.17998
10.0496
16.7069
35.7645
150.8
15.0266
14.3899
14.0228
13.9475
14.1404
14.4707
14.7019
14.6275
14.1382
13.2561
12.1137
10.8901
9.75889
8.84335
8.23958
7.97005
7.90054
7.96828
8.1464
8.42324
8.77889
9.171
9.51644
9.67949
9.4844
8.79794
7.71519
6.77351
6.7629
7.94121
10.688
16.7704
34.3645
150.793
14.6298
14.0012
13.6951
13.7026
13.937
14.1812
14.1936
13.821
13.039
11.9543
10.7411
9.58633
8.59334
7.857
7.44412
7.30514
7.32829
7.45929
7.70047
8.05483
8.51514
9.06222
9.646
10.1654
10.4504
10.2815
9.49917
8.27893
7.4686
8.09203
10.4037
15.687
31.9896
150.79
14.2283
13.636
13.4042
13.4688
13.6845
13.7787
13.5429
12.8976
11.9043
10.7297
9.53889
8.47572
7.61374
7.04081
6.76469
6.69568
6.76137
6.92046
7.18455
7.56833
8.07114
8.69465
9.41967
10.1902
10.8879
11.3023
11.154
10.2217
8.75104
8.04457
9.44871
13.8046
29.1861
150.789
13.8359
13.2922
13.1238
13.2263
13.3674
13.2729
12.7924
11.9277
10.811
9.6179
8.50007
7.53285
6.8034
6.3681
6.17672
6.14225
6.22152
6.38847
6.65703
7.03411
7.52971
8.16979
8.94944
9.84903
10.8132
11.6955
12.2335
12.0571
10.8444
8.94779
8.56016
11.7436
26.941
150.788
13.4606
12.9758
12.8612
12.9624
12.9863
12.6899
11.9953
10.9799
9.81402
8.65713
7.60872
6.74079
6.13526
5.79619
5.64638
5.6203
5.69498
5.85332
6.10951
6.47345
6.95794
7.57861
8.34704
9.28583
10.38
11.5561
12.6308
13.2597
12.9469
11.2392
8.97079
10.6928
26.0533
150.789
13.1034
12.677
12.6088
12.6725
12.5535
12.0637
11.2002
10.0988
8.93299
7.82561
6.84844
6.08114
5.57652
5.29512
5.15979
5.12643
5.18417
5.32234
5.55337
5.88825
6.3413
6.93083
7.67988
8.60781
9.74256
11.0684
12.4922
13.7683
14.4285
13.8251
11.3688
10.7674
25.8585
150.79
12.7683
12.4013
12.3628
12.3593
12.0878
11.4275
10.4437
9.3053
8.16435
7.10835
6.20549
5.53141
5.10039
4.85021
4.71591
4.66891
4.70489
4.8178
5.01729
5.31497
5.72627
6.27128
6.976
7.87284
8.99748
10.3781
11.9983
13.7285
15.2172
15.8108
14.6311
12.3287
26.2265
150.791
12.4588
12.1502
12.121
12.0297
11.6091
10.8086
9.74834
8.60403
7.49633
6.49272
5.66452
5.06934
4.68836
4.45371
4.31448
4.25207
4.26557
4.35453
4.52092
4.77752
5.14019
5.6303
6.27651
7.11636
8.19692
9.57083
11.278
13.2938
15.4215
17.1419
17.5532
15.9056
26.6567
150.792
12.1775
11.923
11.8832
11.6927
11.1352
10.2262
9.12297
7.98957
6.91743
5.96727
5.20954
4.67706
4.32947
4.1028
3.95795
3.88217
3.8756
3.94402
4.07929
4.29531
4.60714
5.03583
5.61101
6.37381
7.37954
8.69876
10.4109
12.5746
15.1442
17.8031
19.7663
19.7674
27.3256
150.792
11.9219
11.7169
11.6512
11.3576
10.6801
9.6909
8.56806
7.45339
6.41748
5.52077
4.82594
4.34191
4.01768
3.79683
3.64907
3.56499
3.54455
3.59197
3.70015
3.87983
4.14414
4.51211
5.01178
5.68436
6.58949
7.8106
9.45739
11.6539
14.4862
17.8616
21.2539
23.4491
30.0278
150.793
11.6967
11.5313
11.4272
11.0326
10.2533
9.20795
8.08011
6.98695
5.98756
5.14246
4.50158
4.055
3.74847
3.53332
3.38516
3.29612
3.26544
3.29599
3.38223
3.53188
3.75574
4.06989
4.49869
5.07964
5.8709
6.96082
8.47973
10.6047
13.5355
17.3973
22.0085
26.534
34.2633
150.793
11.4987
11.3644
11.2137
10.7236
9.86061
8.77795
7.65316
6.58259
5.61956
4.82248
4.22684
3.80967
3.51759
3.30838
3.16148
3.0697
3.03166
3.04928
3.11847
3.24464
3.43648
3.70701
4.07607
4.575
5.25511
6.20009
7.5463
9.50671
12.3788
16.4918
22.0388
28.7409
38.9201
150.792
11.3265
11.2144
11.0129
10.4344
9.50475
8.39842
7.28124
6.23362
5.30606
4.55229
3.99415
3.60059
3.3208
3.11752
2.97265
2.87934
2.83583
2.84349
2.89956
3.0079
3.17559
3.41306
3.73591
4.16888
4.75345
5.56129
6.71846
8.44785
11.1169
15.2416
21.3947
29.9697
43.3497
150.792
11.1766
11.0801
10.8259
10.1679
9.18618
8.06588
6.95887
5.93413
5.04033
4.32471
3.79754
3.42325
3.15403
2.95629
2.81353
2.71914
2.67119
2.67089
2.71668
2.81148
2.9613
3.17471
3.46404
3.84828
4.35918
5.05318
6.03438
7.50739
9.86429
13.771
20.1668
30.2075
46.9748
150.8
11.0465
10.961
10.6537
9.92556
8.90376
7.77658
6.6812
5.67888
4.81647
4.13385
3.63219
3.27379
3.01361
2.82074
2.67978
2.58429
2.53237
2.52535
2.56279
2.64708
2.78356
2.97965
3.24551
3.59601
4.05499
4.66474
5.5031
6.73545
8.72775
12.2283
18.5054
29.5251
49.5912
150.825
10.9338
10.8557
10.4968
9.70775
8.65578
7.5271
6.44398
5.46323
4.6294
3.97493
3.49423
3.14894
2.89638
2.7076
2.56796
2.47119
2.41553
2.40257
2.43299
2.50883
2.63508
2.81849
3.06799
3.39591
3.82079
4.3744
5.11113
6.14825
7.78463
10.7577
16.5927
28.0226
51.0301
150.881
10.836
10.7624
10.3555
9.51409
8.44049
7.31425
6.24346
5.2831
4.4748
3.84406
3.38051
3.04601
2.79976
2.6143
2.47554
2.37735
2.31811
2.29982
2.3242
2.3931
2.51126
2.6851
2.92289
3.23572
3.6391
4.15849
4.83201
5.73294
7.07068
9.48268
14.5874
25.822
51.1587
150.979
10.7503
10.6802
10.2298
9.34404
8.25572
7.13468
6.07635
5.13496
4.34907
3.73816
3.28855
2.96279
2.72169
2.5389
2.40071
2.30107
2.23852
2.21547
2.23471
2.29791
2.40961
2.57602
2.80514
3.10758
3.49757
3.99736
4.63667
5.45712
6.58072
8.48817
12.7065
23.1707
49.9655
151.118
10.6744
10.6081
10.1195
9.19675
8.09916
6.98554
5.93975
5.0158
4.24932
3.65477
3.21633
2.89753
2.66056
2.47992
2.34215
2.24123
2.17579
2.14864
2.16367
2.22236
2.32902
2.48968
2.71228
3.00742
3.38897
3.87801
4.50165
5.28414
6.27874
7.79981
11.1296
20.3415
47.5124
151.281
10.6069
10.5455
10.0244
9.07121
7.96864
6.86431
5.83119
4.92315
4.17324
3.59198
3.16228
2.84885
2.61513
2.43625
2.29892
2.19705
2.12933
2.09896
2.11084
2.16627
2.26925
2.42566
2.64347
2.93361
3.31015
3.79375
4.41208
5.18352
6.11719
7.38515
9.95088
17.6061
44.0798
151.44
10.5467
10.4918
9.9441
8.96638
7.86218
6.7688
5.74855
4.85496
4.11906
3.54836
3.12522
2.81574
2.58446
2.40708
2.27033
2.16802
2.09886
2.06639
2.07644
2.12995
2.23062
2.38419
2.59882
2.88601
3.26043
3.74246
4.3612
5.13581
6.0529
7.18357
9.18543
15.2309
40.0305
151.576
10.493
10.4466
9.87827
8.88122
7.77796
6.69709
5.69004
4.80967
4.08545
3.52287
3.10434
2.79747
2.56789
2.39181
2.25596
2.15389
2.08451
2.05153
2.06125
2.11419
2.21383
2.36595
2.57903
2.8653
3.24046
3.7247
4.34797
5.13257
6.05663
7.13244
8.78233
13.4068
35.6988
151.677
10.4449
10.4094
9.82647
8.81468
7.71434
6.64744
5.65414
4.78603
4.07125
3.51469
3.09913
2.79374
2.56486
2.39
2.25576
2.15526
2.08748
2.05616
2.06685
2.12023
2.21994
2.37196
2.58522
2.87282
3.25181
3.74245
4.37462
5.173
6.11433
7.18354
8.65344
12.2178
31.4723
151.733
10.4018
10.3798
9.78817
8.76574
7.66971
6.61806
5.63924
4.78276
4.07304
3.5218
3.10921
2.80528
2.57796
2.4046
2.27206
2.17379
2.1085
2.07982
2.0921
2.14679
2.24792
2.40176
2.6178
2.9102
3.2977
3.80117
4.44801
5.26063
6.22308
7.31022
8.71815
11.6476
27.8226
151.744
10.3633
10.3573
9.76262
8.73299
7.64139
6.60501
5.64058
4.79604
4.09633
3.55012
3.13917
2.83542
2.60832
2.43572
2.30468
2.20871
2.14604
2.12013
2.13469
2.19172
2.2956
2.45295
2.67395
2.97408
3.37396
3.8955
4.56477
5.40163
6.39036
7.50613
8.92185
11.6484
25.4901
151.716
10.3288
10.3393
9.74622
8.71408
7.6287
6.60916
5.66165
4.83076
4.14136
3.59983
3.18957
2.8848
2.65663
2.48403
2.3541
2.2601
2.19998
2.17714
2.19473
2.25541
2.36362
2.52639
2.75489
3.06626
3.48324
4.02906
4.72835
5.59645
6.61526
7.76214
9.19728
11.8315
24.7871
151.661
10.2988
10.3262
9.73894
8.70874
7.63069
6.62927
5.70128
4.88622
4.20805
3.67139
3.26137
2.95446
2.72423
2.55085
2.42151
2.32908
2.2714
2.25222
2.27393
2.33958
2.45382
2.62417
2.86322
3.19024
3.63031
4.20823
4.94653
5.85372
6.90656
8.08582
9.54397
12.1084
24.3036
151.586
10.2741
10.319
9.74088
8.71715
7.64689
6.66365
5.75833
4.96177
4.29647
3.76553
3.35579
3.04616
2.81324
2.63832
2.50895
2.41779
2.36259
2.34782
2.37489
2.44687
2.56884
2.74921
3.00259
3.351
3.82204
4.44191
5.22991
6.18512
7.27566
8.48732
9.96646
12.4447
23.9754
151.498
10.2561
10.3192
9.75242
8.7392
7.67721
6.71155
5.83185
5.0569
4.40666
3.88301
3.47415
3.162
2.92628
2.74945
2.61957
2.52951
2.47702
2.46754
2.50111
2.58068
2.71192
2.90523
3.17798
3.5555
4.06799
4.7423
5.59275
6.60556
7.7362
8.976
10.4695
12.8502
23.7861
151.401
10.247
10.3287
9.77433
8.77463
7.72187
6.77292
5.92105
5.17086
4.5384
4.02436
3.61793
3.30425
3.06623
2.88769
2.7573
2.66844
2.61909
2.61581
2.65675
2.74487
2.88713
3.09712
3.39639
3.81376
4.38177
5.12647
6.05423
7.1336
8.30416
9.56533
11.0572
13.3159
23.7073
151.303
10.2496
10.3502
9.80792
8.82354
7.78196
6.84881
6.02502
5.30282
4.6914
4.18954
3.78839
3.47554
3.23642
3.05687
2.92647
2.83929
2.79402
2.79761
2.84624
2.9437
3.09951
3.33195
3.66813
4.14068
4.78319
5.61838
6.6398
7.79196
8.99728
10.2651
11.7271
13.8207
23.7
151.206
10.2681
10.3874
9.85537
8.88667
7.86018
6.94338
6.14503
5.45186
4.86442
4.3789
3.98707
3.67821
3.44016
3.26089
3.13138
3.04671
3.00863
3.01786
3.07373
3.18183
3.35595
3.62074
4.00964
4.55905
5.30148
6.2515
7.38231
8.6074
9.83496
11.0818
12.4683
14.3282
23.7335
151.114
10.3074
10.4453
9.92004
8.96685
7.9588
7.06002
6.28516
5.6207
5.05967
4.59432
4.2157
3.91434
3.68002
3.50289
3.37544
3.29383
3.26272
3.27812
3.34261
3.46558
3.66756
3.98167
4.44786
5.10455
5.98001
7.07173
8.32237
9.60961
10.8304
12.0136
13.255
14.7858
23.7778
151.031
10.3749
10.5305
10.0073
9.06967
8.0816
7.20133
6.4506
5.81487
5.28133
4.83867
4.47656
4.1861
3.95829
3.78538
3.66135
3.58344
3.55894
3.58249
3.65998
3.80721
4.0548
4.44628
5.02685
5.83336
6.88195
8.13984
9.50764
10.8296
12.0067
13.0523
14.033
15.1209
23.8348
150.96
10.4823
10.6526
10.1269
9.20689
8.23584
7.3749
6.64888
6.04175
5.53611
5.11749
4.77412
4.49726
4.2786
4.11212
3.99324
3.92067
3.90517
3.94156
4.04162
4.23158
4.55627
5.07024
5.81955
6.83202
8.09741
9.53223
10.9903
12.2983
13.3644
14.1501
14.7039
15.241
23.9152
150.935
10.6465
10.828
10.3074
9.39289
8.43523
7.59366
6.8926
6.3136
5.83551
5.44124
5.11783
4.85656
4.64951
4.49193
4.38076
4.31889
4.31766
4.377
4.51943
4.7876
5.24461
5.95216
6.94719
8.23368
9.74903
11.3404
12.8248
14.0413
14.8693
15.1987
15.1096
15.0544
24.0832
150.921
10.8954
11.1012
10.5811
9.65081
8.70024
7.87682
7.20029
6.64863
6.19734
5.82742
5.525
5.28106
5.08799
4.94197
4.84214
4.80351
4.82594
4.93056
5.158
5.5737
6.25845
7.26827
8.61229
10.2377
11.9946
13.6655
15.0667
16.043
16.4056
15.9817
15.0271
14.5637
24.9216
150.902
11.2941
11.5245
10.9875
10.0114
9.05908
8.25133
7.59827
7.07325
6.64871
6.30419
6.02487
5.79986
5.62279
5.49112
5.40829
5.40281
5.48353
5.69402
6.10327
6.80304
7.87852
9.3482
11.1483
13.1204
15.0189
16.6071
17.7231
18.1853
17.6946
16.1319
14.2486
14.1898
29.8643
150.877
11.9387
12.17
11.5857
10.5225
9.5586
8.76356
8.13371
7.63684
7.24213
6.92649
6.67305
6.46843
6.31073
6.20135
6.1628
6.23714
6.46383
6.92285
7.71911
8.95594
10.669
12.7634
15.0426
17.2263
19.0223
20.2272
20.6829
20.12
18.2235
15.187
12.9243
16.2351
36.4917
150.854
12.9823
13.1659
12.4935
11.2871
10.3022
9.52005
8.91949
8.4592
8.10285
7.8237
7.60117
7.4283
7.30787
7.25595
7.35642
7.66197
8.27325
9.31428
10.9016
13.0658
15.6679
18.4163
20.9662
22.971
24.174
24.4104
23.4962
21.1335
17.273
12.9846
12.3854
19.0417
40.0303
150.827
14.8892
14.8447
14.016
12.5969
11.5877
10.8329
10.2933
9.90628
9.6215
9.41361
9.26289
9.17594
9.16962
9.35267
9.89981
10.9059
12.5163
14.8339
17.8312
21.2764
24.7246
27.7006
29.8373
30.8132
30.4254
28.5697
25.1872
20.1179
14.3684
11.5141
13.3389
20.1554
39.9686
150.805
18.5777
18.0766
17.1877
15.6745
14.7813
14.209
13.9023
13.7551
13.6903
13.693
13.7713
13.9769
14.4456
15.7295
17.7771
20.6885
24.493
28.9756
33.6703
37.9323
41.1275
42.8946
43.0235
41.072
36.9947
31.0878
24.3078
17.7765
15.2489
14.7998
16.352
21.417
38.5147
150.793
36.4601
31.0809
31.5421
31.552
31.4773
31.6235
32.02
32.5912
33.2705
34.0032
34.8172
36.7968
40.3504
44.6988
49.9021
55.8998
62.0427
67.4916
71.6187
74.0229
74.0176
71.0881
65.3145
56.7917
47.2338
39.7331
38.0116
37.3399
37.0952
37.0044
36.7779
38.0277
48.0014
150.789
224.371
220.727
218.238
216.943
216.734
216.736
216.724
216.738
216.767
216.789
216.789
216.761
216.689
216.555
216.344
216.04
215.63
215.132
214.606
214.143
213.838
213.698
213.655
213.656
213.656
213.654
213.652
213.649
213.648
213.648
213.647
213.645
213.643
182.215
178.013
54.9431
25.4496
15.1808
11.0074
9.07736
178.251
48.8771
21.3259
13.0573
10.0429
8.73773
178.449
42.8761
18.2012
11.8675
9.74562
8.97085
178.609
37.6087
16.2001
11.4458
10.0247
9.61916
178.741
33.6281
15.3254
11.6526
10.6169
10.5179
178.864
31.4112
15.332
12.1264
11.3632
11.4909
178.988
31.1382
15.6215
12.7342
12.194
12.4548
179.088
31.0197
16.0176
13.4231
13.1035
13.4007
179.163
30.9977
16.4789
14.141
13.9603
14.2779
179.222
31.0397
16.9987
14.9312
14.7683
15.036
179.265
31.1366
17.5255
15.6468
15.4841
15.6378
179.278
31.3043
18.0941
16.2971
16.0785
16.0633
179.244
31.5301
18.5931
16.8566
16.5294
16.3102
179.217
31.821
19.0419
17.3096
16.8294
16.3912
179.199
32.0455
19.4144
17.6438
16.9821
16.3279
179.356
32.2769
19.7066
17.8557
16.9996
16.1468
179.639
32.5033
19.9173
17.9499
16.8998
15.876
179.94
32.7112
20.0465
17.9364
16.7028
15.5408
180.248
32.8929
20.096
17.828
16.4286
15.163
180.561
33.0423
20.073
17.6396
16.0964
14.7643
180.862
33.18
19.9895
17.3869
15.7242
14.3598
181.152
33.3155
19.8569
17.0858
15.3305
13.963
181.431
33.4508
19.6855
16.751
14.9319
13.5819
181.7
33.5878
19.4862
16.3961
14.538
13.2198
181.96
33.7299
19.2692
16.0352
14.157
12.8804
182.21
33.8796
19.0444
15.6801
13.7961
12.5648
182.448
34.045
18.8195
15.3369
13.457
12.2754
182.675
34.2365
18.5999
15.0077
13.1394
12.013
182.887
34.4544
18.3917
14.6955
12.8445
11.7746
183.083
34.6986
18.199
14.4026
12.5714
11.5588
183.263
34.9688
18.0249
14.1305
12.32
11.3663
183.423
35.2646
17.8712
13.879
12.0899
11.1986
183.563
35.5847
17.7383
13.6431
11.8791
11.0492
183.682
35.9277
17.6258
13.4206
11.6859
10.9154
183.778
36.2905
17.5324
13.2174
11.5084
10.7952
183.851
36.645
17.4571
13.0342
11.3449
10.6863
183.899
37.0889
17.4007
12.8687
11.1939
10.5869
183.923
37.7546
17.3659
12.7191
11.0538
10.4954
183.922
38.5806
17.3538
12.584
10.9229
10.4107
183.894
39.4557
17.3947
12.4628
10.8003
10.3317
183.841
40.3176
17.4851
12.3559
10.6861
10.2582
183.765
41.1229
17.5941
12.268
10.5814
10.1907
183.671
41.827
17.7063
12.1925
10.487
10.1298
183.562
42.3843
17.8041
12.1239
10.402
10.0754
183.444
42.7468
17.8675
12.056
10.3252
10.0281
183.324
42.8646
17.8751
11.9818
10.2557
9.98866
183.211
42.6893
17.8004
11.8979
10.192
9.9585
183.113
42.1195
17.6635
11.8083
10.137
9.94053
183.035
41.4201
17.4851
11.7117
10.0926
9.94002
182.986
40.6453
17.2626
11.6075
10.0626
9.9644
182.976
39.7653
16.9951
11.4973
10.0529
10.0242
183.014
38.7638
16.6812
11.3872
10.0739
10.1358
183.11
37.6302
16.3279
11.291
10.143
10.3259
183.273
36.3926
15.9377
11.2303
10.2951
10.6402
183.514
35.0756
15.542
11.2409
10.5892
11.1678
183.842
33.7263
15.1899
11.3775
11.1452
12.0678
184.268
32.5229
14.9482
11.7574
12.1891
13.7415
184.805
31.5752
14.8968
12.6118
14.298
17.0443
185.461
30.9789
15.261
14.6759
19.8679
28.9926
186.242
30.7967
17.1048
23.7004
51.1968
117.017
186.929
30.789
19.3001
32.2405
74.2315
189.464
187.68
31.0732
21.5167
38.6362
85.1628
189.795
188.484
31.5871
23.4409
43.0675
90.1554
188.82
214.013
213.769
213.806
213.84
213.851
213.882
213.908
213.919
213.911
213.892
213.866
213.835
213.793
213.746
213.703
213.671
213.654
213.646
213.643
213.643
213.643
213.643
213.642
213.642
213.642
213.642
213.642
213.642
213.642
213.642
213.642
213.642
213.642
182.215
64.0837
37.8194
33.8504
32.19
31.2824
30.9218
30.9784
31.4079
32.2038
33.3324
35.6536
40.6555
45.5419
49.4645
51.7143
51.7894
50.0152
47.3027
44.2977
41.3529
39.0293
37.5619
37.0175
36.9075
36.8617
36.8081
36.7641
36.6928
36.6139
36.5531
36.6102
37.3419
44.6672
150.788
37.0092
16.7863
13.4418
12.4826
11.8866
11.4625
11.1556
10.9755
10.9543
11.1233
11.6148
13.1787
15.9699
19.2822
22.3952
24.5603
25.4124
24.9737
23.4135
20.9948
18.2358
15.7783
14.0608
13.1784
12.762
12.617
12.5217
12.417
12.3534
12.4239
12.953
15.393
29.0464
150.788
28.0924
13.2796
10.442
9.58276
8.90483
8.32282
7.79916
7.34991
7.00297
6.78386
6.73271
6.98089
7.98431
9.68775
11.864
14.0496
15.7364
16.5913
16.4785
15.4067
13.5689
11.3568
9.27017
7.70232
6.78118
6.32977
6.11618
6.02895
6.07813
6.43293
7.57822
11.3245
27.3315
150.788
25.984
13.3175
10.4804
9.42958
8.50683
7.70958
7.00448
6.3942
5.89181
5.51067
5.26615
5.19734
5.47357
6.21608
7.45255
9.04006
10.6493
11.9005
12.5176
12.3657
11.4491
9.92455
8.1018
6.36877
5.03692
4.24909
3.87413
3.79271
3.97469
4.59699
6.18115
10.5659
27.2457
150.788
26.2208
14.4359
11.2829
9.88539
8.65603
7.62085
6.75152
6.02165
5.42217
4.95407
4.62159
4.43589
4.4572
4.77134
5.44963
6.49587
7.76955
8.99005
9.86496
10.1881
9.88711
8.99064
7.63327
6.05344
4.62472
3.60537
3.04832
2.91331
3.17371
3.95902
5.78193
10.4565
27.3611
150.788
27.1653
15.8205
12.262
10.4749
8.93107
7.65912
6.64413
5.81846
5.14591
4.61664
4.2317
3.99219
3.91698
4.0496
4.44304
5.1363
6.08998
7.13245
8.02961
8.54888
8.58706
8.12198
7.19975
5.9137
4.58683
3.50323
2.80625
2.56651
2.81288
3.65181
5.58247
10.4179
27.4803
150.788
28.3965
17.3111
13.2912
11.0816
9.23298
7.74141
6.60114
5.69902
4.96425
4.37922
3.95043
3.67837
3.56444
3.62394
3.88149
4.37053
5.08813
5.93758
6.74818
7.32062
7.52548
7.31986
6.70911
5.74187
4.60294
3.57239
2.81667
2.46094
2.60332
3.40228
5.34888
10.2874
27.5301
150.788
29.7248
18.7721
14.3271
11.6792
9.5309
7.84508
6.60236
5.63972
4.85739
4.22183
3.74905
3.44963
3.31904
3.35484
3.55225
3.92794
4.48488
5.16917
5.86726
6.42555
6.6786
6.61773
6.21033
5.49083
4.56296
3.64964
2.91243
2.48277
2.4693
3.14171
5.01615
9.99327
27.4188
150.788
31.0276
20.2354
15.3633
12.2546
9.79644
7.9409
6.63305
5.63515
4.81752
4.14708
3.64192
3.31904
3.17905
3.2105
3.3799
3.68645
4.1312
4.68495
5.27073
5.76635
6.02872
6.02909
5.7415
5.19135
4.45356
3.67893
3.00944
2.56099
2.43813
2.88837
4.57138
9.47594
27.0541
150.788
32.256
21.6657
16.372
12.7728
10.0206
8.03446
6.68918
5.68205
4.85613
4.17287
3.66022
3.33041
3.18552
3.2064
3.34543
3.59161
3.94681
4.399
4.88086
5.30057
5.53464
5.5461
5.3226
4.88204
4.29287
3.655
3.07843
2.65382
2.4678
2.74722
4.14635
8.73613
26.4408
150.789
33.4734
23.0159
17.3224
13.2349
10.2054
8.14607
6.7917
5.80103
5.00378
4.35316
3.85811
3.53139
3.37742
3.36965
3.46643
3.65228
3.92183
4.26335
4.63703
4.98222
5.17266
5.16929
4.96926
4.5964
4.11219
3.59732
3.11703
2.73432
2.52749
2.6969
3.87554
8.20992
25.6023
150.789
34.6469
24.2487
18.1803
13.6374
10.3754
8.28242
6.96724
6.03408
5.30353
4.72054
4.27351
3.96672
3.80793
3.76321
3.80619
3.92251
4.10226
4.3327
4.58818
4.82457
4.95503
4.91929
4.71395
4.37596
3.96128
3.53301
3.13384
2.80266
2.60124
2.70081
3.69261
7.79156
25.1126
150.789
35.651
25.3316
18.9178
13.9711
10.5399
8.46739
7.23237
6.39968
5.78294
5.31431
4.96534
4.72645
4.59735
4.5353
4.53536
4.58651
4.67674
4.7931
4.91766
5.02089
5.04981
4.95055
4.69431
4.34207
3.94487
3.55022
3.19242
2.89626
2.69983
2.75049
3.59338
7.42486
24.6285
150.789
36.4299
26.2947
19.5264
14.2381
10.7167
8.71783
7.60579
6.91894
6.46531
6.16498
5.97609
5.87592
5.83619
5.82512
5.84749
5.89133
5.94177
5.98366
6.00018
5.97024
5.86477
5.65133
5.27749
4.80135
4.31267
3.84824
3.43898
3.10294
2.86678
2.85595
3.56914
7.14819
24.1784
150.789
36.9985
27.0979
19.9986
14.4655
10.9217
9.04957
8.10253
7.60175
7.3511
7.26159
7.2817
7.37713
7.47401
7.59394
7.72674
7.8549
7.95931
8.02008
8.01282
7.91057
7.69087
7.33298
6.81511
6.0849
5.34025
4.63364
4.01442
3.51822
3.15731
3.03659
3.62147
6.9887
23.8233
150.789
37.398
27.6974
20.3256
14.6632
11.167
9.47146
8.72563
8.43704
8.40691
8.54057
8.78015
9.04178
9.3193
9.61447
9.91021
10.1865
10.4241
10.6057
10.6935
10.6308
10.3828
9.91976
9.21977
8.27469
7.14514
6.00741
5.00937
4.20076
3.60838
3.30604
3.74783
6.94851
23.6304
150.791
37.6512
28.0982
20.5089
14.7896
11.4488
9.98278
9.46034
9.39024
9.57448
9.91691
10.3051
10.7239
11.1727
11.6346
12.0901
12.5214
12.9156
13.2173
13.3821
13.3988
13.2326
12.8426
12.1853
11.2139
9.83002
8.09892
6.50733
5.18873
4.23754
3.66824
3.94159
7.02459
23.6226
150.793
37.769
28.3054
20.558
14.8714
11.7712
10.5703
10.2738
10.404
10.7737
11.2133
11.7116
12.2535
12.8171
13.3803
13.9211
14.4185
14.8519
15.1991
15.4572
15.6038
15.5998
15.391
14.9091
14.0798
12.8379
11.1473
8.90611
6.67862
5.12249
4.1574
4.20778
7.21228
23.8007
150.795
37.7602
28.3334
20.4948
14.9387
12.1341
11.2027
11.1096
11.3833
11.7792
12.2677
12.8104
13.3764
13.9406
14.4825
14.9861
15.4379
15.8255
16.1847
16.5306
16.8487
17.1022
17.229
17.1411
16.7199
15.8318
14.3503
12.193
9.32911
6.59268
4.92626
4.58877
7.50675