/*--------------------------------*- C++ -*----------------------------------*\
| =========                 |                                                 |
| \\      /  F ield         | OpenFOAM: The Open Source CFD Toolbox           |
|  \\    /   O peration     | Version:  v2012                                 |
|   \\  /    A nd           | Website:  www.openfoam.com                      |
|    \\/     M anipulation  |                                                 |
\*---------------------------------------------------------------------------*/
FoamFile
{
    version     2.0;
    format      ascii;
    class       volScalarField;
    location    "684";
    object      p;
}
// * * * * * * * * * * * * * * * * * * * * * * * * * * * * * * * * * * * * * //

dimensions      [0 2 -2 0 0 0 0];


internalField   nonuniform List<scalar> 
6018
(
1.26011
1.26008
1.26126
1.2633
1.26612
1.26987
1.27448
1.27989
1.28597
1.29259
1.29959
1.30685
1.31434
1.32208
1.33011
1.33821
1.34606
1.35522
1.37201
1.39863
1.25611
1.25607
1.25747
1.26004
1.26356
1.26795
1.27311
1.27895
1.28536
1.29226
1.2995
1.30689
1.31439
1.3221
1.33001
1.33786
1.34539
1.35325
1.36411
1.3767
1.24652
1.2479
1.25061
1.25437
1.25901
1.26438
1.27034
1.27681
1.28372
1.29101
1.29849
1.30593
1.31347
1.32134
1.32926
1.33696
1.3444
1.35231
1.36086
1.36558
1.23573
1.23875
1.24304
1.24825
1.25414
1.26056
1.26738
1.27452
1.28192
1.28953
1.29722
1.3049
1.3127
1.32065
1.32851
1.33606
1.34339
1.35096
1.3578
1.36056
1.22363
1.22856
1.23469
1.24156
1.24887
1.25647
1.26424
1.27213
1.28011
1.28813
1.29614
1.30412
1.31215
1.3202
1.32808
1.3356
1.3429
1.35016
1.35609
1.35832
1.21025
1.21752
1.22586
1.23464
1.24353
1.25238
1.26115
1.26983
1.2784
1.28686
1.29519
1.30344
1.31168
1.31987
1.32784
1.33542
1.34277
1.35007
1.35601
1.35825
1.19547
1.20584
1.21686
1.2278
1.23838
1.24854
1.25832
1.26776
1.2769
1.28578
1.29442
1.30289
1.31131
1.31968
1.32781
1.33554
1.34301
1.35068
1.35757
1.36036
1.17976
1.1937
1.20795
1.22134
1.23372
1.24517
1.25592
1.26612
1.27584
1.28513
1.29405
1.30266
1.31125
1.31979
1.32814
1.33615
1.34381
1.35186
1.3605
1.36527
1.161
1.18097
1.19933
1.21543
1.22959
1.24223
1.25383
1.26468
1.2749
1.28461
1.29387
1.30277
1.31145
1.32005
1.32857
1.33685
1.34465
1.35269
1.36366
1.3763
1.14286
1.17184
1.19365
1.21141
1.22652
1.23998
1.25217
1.2634
1.27388
1.28378
1.2932
1.30226
1.31107
1.31977
1.3285
1.33709
1.34526
1.35461
1.37152
1.39818
1.33465
1.33352
1.33236
1.33158
1.33131
1.33144
1.33178
1.33217
1.33254
1.33284
1.333
1.33276
1.33203
1.33092
1.32965
1.3284
1.32728
1.32613
1.32474
1.32291
1.3206
1.31789
1.31476
1.31094
1.30619
1.30045
1.2937
1.28645
1.27956
1.27379
1.26949
1.26625
1.26353
1.26137
1.33413
1.33291
1.33181
1.3312
1.33116
1.33149
1.33194
1.33235
1.3327
1.33293
1.33301
1.33263
1.33178
1.33063
1.32943
1.32833
1.32734
1.32629
1.32502
1.32338
1.32118
1.31854
1.3158
1.31261
1.30817
1.30244
1.2955
1.28783
1.2803
1.27364
1.26831
1.26408
1.26043
1.2576
1.33238
1.331
1.33002
1.32979
1.33031
1.33121
1.33211
1.3328
1.33325
1.33345
1.33335
1.33269
1.33156
1.33026
1.32918
1.3284
1.32773
1.32689
1.32586
1.32454
1.32252
1.31976
1.31655
1.31253
1.30705
1.29985
1.29119
1.28179
1.27247
1.26398
1.2571
1.25196
1.24836
1.24654
1.32885
1.32723
1.32654
1.32697
1.32843
1.33037
1.33225
1.33369
1.33456
1.33482
1.33435
1.33329
1.33178
1.33038
1.32944
1.32896
1.32859
1.32802
1.32706
1.32546
1.32262
1.31824
1.31247
1.30534
1.29678
1.28702
1.27652
1.26606
1.25649
1.24836
1.24204
1.23755
1.23489
1.2343
1.32348
1.32175
1.32161
1.32302
1.32572
1.32905
1.33232
1.33493
1.33648
1.33675
1.33578
1.33421
1.33244
1.33109
1.33044
1.33019
1.32978
1.32873
1.32662
1.32289
1.31713
1.30941
1.30018
1.28992
1.27905
1.26802
1.25722
1.24715
1.23827
1.23089
1.22519
1.22134
1.21965
1.22047
1.31709
1.31555
1.31613
1.31858
1.32259
1.32742
1.33222
1.33606
1.33819
1.33841
1.33719
1.3354
1.33366
1.33244
1.33174
1.33088
1.32917
1.32601
1.32084
1.31337
1.30387
1.29294
1.28128
1.26944
1.2578
1.24665
1.2362
1.22668
1.2184
1.21167
1.2066
1.20331
1.20258
1.20499
1.31074
1.30984
1.31114
1.31448
1.31957
1.32568
1.33172
1.33644
1.33888
1.3392
1.33825
1.33674
1.33518
1.33358
1.33165
1.32877
1.32417
1.31734
1.30817
1.29706
1.2847
1.27181
1.259
1.2466
1.23481
1.22385
1.21384
1.20486
1.19709
1.19088
1.18636
1.18346
1.18345
1.18751
1.30567
1.30539
1.30723
1.31119
1.317
1.32388
1.33058
1.33561
1.33832
1.33917
1.33885
1.33762
1.33557
1.33263
1.32832
1.32207
1.31346
1.30262
1.29003
1.2764
1.26239
1.24853
1.23523
1.22263
1.21077
1.19993
1.1903
1.18174
1.17422
1.16825
1.16434
1.16211
1.16218
1.16786
1.30211
1.3023
1.3045
1.3088
1.3149
1.32196
1.32866
1.33371
1.3368
1.33831
1.33831
1.3367
1.33328
1.3279
1.32014
1.30991
1.29752
1.28355
1.26869
1.25359
1.23866
1.22413
1.21036
1.19744
1.18525
1.17458
1.16561
1.15769
1.15071
1.14512
1.14177
1.1403
1.13907
1.14282
1.29999
1.30045
1.30284
1.30719
1.31314
1.31985
1.32612
1.33103
1.33438
1.33607
1.33566
1.33273
1.32696
1.31826
1.30684
1.29319
1.27805
1.26207
1.24574
1.2296
1.21389
1.19866
1.18461
1.17194
1.16042
1.15045
1.14196
1.13453
1.1278
1.12224
1.11948
1.11945
1.11602
1.11044
1.33295
1.33309
1.33357
1.33431
1.335
1.3352
1.33285
1.33295
1.33334
1.33403
1.33469
1.3348
1.33254
1.33268
1.33304
1.33358
1.33389
1.3335
1.33207
1.3324
1.33271
1.33277
1.33214
1.33073
1.33154
1.3321
1.33213
1.33102
1.32879
1.32608
1.33088
1.33161
1.33079
1.32777
1.32364
1.31996
1.33009
1.33064
1.32824
1.3231
1.31779
1.3136
1.32933
1.32901
1.32452
1.31801
1.31215
1.30802
1.32864
1.32669
1.32023
1.31332
1.30766
1.30398
1.32746
1.32397
1.31652
1.30961
1.30464
1.30147
1.29916
1.2997
1.30206
1.30617
1.3116
1.31757
1.32315
1.32767
1.33071
1.33168
1.32978
1.32439
1.31546
1.30335
1.28885
1.27279
1.25587
1.23858
1.22118
1.20434
1.18843
1.17328
1.15905
1.14603
1.13471
1.1252
1.11754
1.1117
1.10749
1.10497
1.1044
1.1053
1.10223
1.08999
1.29961
1.30003
1.30214
1.30572
1.31029
1.31524
1.31985
1.32343
1.32522
1.32429
1.31975
1.31124
1.29915
1.28429
1.26764
1.25009
1.2321
1.21421
1.19645
1.17894
1.16236
1.147
1.13336
1.12224
1.11382
1.10783
1.10409
1.10221
1.10168
1.10202
1.10282
1.10334
1.10228
1.09849
1.3013
1.30145
1.30305
1.30578
1.30924
1.31291
1.31612
1.318
1.31756
1.31381
1.30611
1.29458
1.28007
1.26342
1.24546
1.22731
1.20892
1.1903
1.17223
1.15512
1.13962
1.12634
1.11584
1.10839
1.10368
1.10115
1.10018
1.10011
1.10038
1.10085
1.10147
1.10202
1.10231
1.10202
1.30426
1.30391
1.30471
1.30632
1.30842
1.31047
1.31168
1.31106
1.30761
1.30058
1.28976
1.27568
1.25952
1.24203
1.22367
1.20509
1.18665
1.16872
1.1519
1.13688
1.12423
1.11432
1.10724
1.10275
1.10032
1.09927
1.09899
1.09916
1.09966
1.10042
1.10132
1.10234
1.10338
1.10401
1.30854
1.30743
1.30711
1.30728
1.30767
1.30761
1.30618
1.30237
1.29545
1.28516
1.2716
1.25549
1.23872
1.22121
1.20289
1.18503
1.16795
1.15214
1.13802
1.12602
1.11638
1.10914
1.10415
1.10108
1.09942
1.09872
1.09868
1.09906
1.09981
1.10078
1.10186
1.10316
1.10456
1.10543
1.31405
1.31183
1.31004
1.30839
1.30664
1.30391
1.29926
1.29184
1.28138
1.26819
1.25267
1.236
1.21879
1.20143
1.18471
1.169
1.15463
1.14183
1.13071
1.12133
1.11375
1.10794
1.10381
1.1011
1.09958
1.09899
1.09903
1.09947
1.10024
1.10119
1.1023
1.10376
1.10534
1.10624
1.32046
1.31679
1.3131
1.30922
1.30483
1.29894
1.2907
1.27966
1.26583
1.25048
1.23405
1.21715
1.20046
1.18488
1.17075
1.15814
1.14699
1.13714
1.12837
1.12066
1.11412
1.1088
1.10475
1.10199
1.10036
1.09959
1.09943
1.09974
1.10034
1.1012
1.10231
1.10383
1.10545
1.10635
1.32745
1.32199
1.31599
1.30941
1.30185
1.29243
1.28064
1.26611
1.24883
1.23289
1.21602
1.19985
1.18519
1.17243
1.16155
1.15225
1.14403
1.13641
1.12914
1.12227
1.11598
1.11056
1.10625
1.10314
1.1011
1.0999
1.09942
1.09946
1.0999
1.10066
1.10174
1.10326
1.10487
1.10581
1.33489
1.32728
1.31851
1.30869
1.29752
1.28435
1.26858
1.25039
1.23314
1.21592
1.19952
1.18532
1.17352
1.16409
1.15654
1.15016
1.14416
1.13801
1.13152
1.12482
1.11832
1.11241
1.1075
1.10387
1.10123
1.09963
1.0989
1.09868
1.09894
1.09961
1.10067
1.10214
1.10371
1.10472
1.34243
1.33221
1.32022
1.30669
1.29147
1.27404
1.25422
1.23561
1.21816
1.20003
1.18542
1.17391
1.16535
1.15919
1.15453
1.1504
1.14594
1.14063
1.13442
1.12748
1.12036
1.11351
1.10792
1.10378
1.10076
1.0989
1.09792
1.09755
1.09769
1.0983
1.09934
1.10076
1.10226
1.10333
1.34946
1.33614
1.32053
1.303
1.28358
1.26238
1.24104
1.22132
1.20192
1.18583
1.17386
1.16542
1.16001
1.15666
1.15425
1.15175
1.14831
1.14348
1.13717
1.12956
1.12161
1.11404
1.10763
1.10292
1.09982
1.09796
1.09693
1.09647
1.09653
1.09707
1.09806
1.09942
1.10085
1.10185
1.3553
1.33845
1.319
1.29739
1.27368
1.24868
1.22706
1.20504
1.18715
1.17377
1.16469
1.15926
1.15656
1.1554
1.15466
1.15334
1.15061
1.14596
1.13924
1.13091
1.12197
1.11367
1.10691
1.10213
1.09909
1.09728
1.09624
1.09574
1.09572
1.09618
1.09709
1.09835
1.09969
1.1005
1.35923
1.33854
1.31499
1.2891
1.26155
1.2345
1.21069
1.18998
1.17449
1.16379
1.15751
1.15465
1.15404
1.1545
1.15499
1.15452
1.15224
1.14743
1.14013
1.13113
1.12168
1.1131
1.1063
1.10158
1.09864
1.09692
1.09593
1.09542
1.09536
1.09574
1.09655
1.0977
1.09895
1.09953
1.36057
1.33599
1.30839
1.27847
1.24739
1.22083
1.19584
1.17689
1.16367
1.15556
1.15169
1.15079
1.15166
1.15324
1.15456
1.15451
1.15217
1.14703
1.13942
1.1303
1.1209
1.11244
1.10578
1.10121
1.09841
1.09682
1.09591
1.09546
1.09541
1.09574
1.09647
1.0975
1.09856
1.09898
1.35884
1.33046
1.29885
1.26498
1.23319
1.20563
1.18205
1.16525
1.15437
1.14857
1.14654
1.14698
1.14877
1.15096
1.15244
1.15212
1.14934
1.14406
1.13676
1.12822
1.11946
1.11153
1.10525
1.10092
1.0983
1.09687
1.09613
1.09581
1.09585
1.09618
1.09682
1.09769
1.09847
1.09871
1.35384
1.32186
1.28687
1.2506
1.21893
1.19068
1.1693
1.15484
1.14623
1.14225
1.14147
1.14263
1.14473
1.14677
1.14759
1.1465
1.14338
1.13842
1.13196
1.12455
1.11695
1.11001
1.10445
1.10057
1.09824
1.09703
1.09652
1.09643
1.0966
1.09696
1.0975
1.09812
1.09859
1.09863
1.34555
1.31022
1.27239
1.23613
1.20372
1.17681
1.15777
1.14555
1.13884
1.13613
1.13597
1.1372
1.13884
1.13993
1.13965
1.13777
1.13457
1.13018
1.12483
1.11888
1.11285
1.10736
1.10294
1.09987
1.09806
1.09722
1.09702
1.09718
1.09752
1.09789
1.09827
1.0986
1.09874
1.09865
1.3342
1.29614
1.25559
1.22011
1.18838
1.16401
1.14736
1.13712
1.13184
1.12983
1.1296
1.1302
1.13075
1.13049
1.12908
1.12665
1.1235
1.11973
1.11552
1.11111
1.1068
1.10303
1.10017
1.09835
1.09745
1.09723
1.09745
1.09792
1.09841
1.09877
1.09894
1.09895
1.09885
1.0987
1.31995
1.27989
1.23957
1.20408
1.17406
1.15228
1.13783
1.12921
1.12479
1.12289
1.12212
1.12164
1.12075
1.11913
1.11681
1.11406
1.11102
1.10777
1.10456
1.10155
1.09891
1.09687
1.09572
1.09549
1.09591
1.09671
1.09761
1.09845
1.09909
1.09938
1.09938
1.09916
1.09892
1.09877
1.30339
1.26161
1.22367
1.18847
1.16091
1.14156
1.12906
1.12166
1.11744
1.11509
1.1135
1.11169
1.10944
1.10672
1.10377
1.10082
1.09793
1.09519
1.0927
1.09066
1.08949
1.08916
1.08957
1.09093
1.09293
1.09515
1.09712
1.09858
1.09944
1.0997
1.09957
1.09923
1.09896
1.09883
1.2855
1.24429
1.20679
1.17359
1.14878
1.13164
1.12069
1.11401
1.10975
1.10672
1.10396
1.10087
1.0975
1.09402
1.09067
1.08761
1.08488
1.08254
1.08071
1.07954
1.07927
1.07998
1.08177
1.08464
1.08823
1.09209
1.09554
1.09805
1.09939
1.09974
1.09953
1.09919
1.09893
1.09884
1.26626
1.22731
1.19019
1.15974
1.13752
1.12234
1.11257
1.10622
1.10168
1.09782
1.09385
1.08969
1.08552
1.08157
1.07802
1.07495
1.07238
1.07035
1.06898
1.06842
1.06886
1.07042
1.07308
1.07698
1.08195
1.08736
1.09248
1.09648
1.0988
1.09952
1.09936
1.09903
1.0988
1.09875
1.24627
1.20908
1.17434
1.1469
1.12702
1.11351
1.10458
1.09832
1.09324
1.08844
1.08352
1.07859
1.07393
1.06974
1.0661
1.06307
1.06067
1.0589
1.05789
1.05775
1.05865
1.06071
1.06405
1.06871
1.07455
1.08117
1.08787
1.0936
1.0974
1.099
1.09912
1.09879
1.09857
1.09853
1.22683
1.19155
1.15964
1.13496
1.11717
1.10502
1.09664
1.09025
1.08457
1.07894
1.07329
1.06787
1.06294
1.05864
1.055
1.05203
1.04978
1.04824
1.04751
1.04771
1.04896
1.05137
1.05508
1.06016
1.06656
1.07402
1.08194
1.08933
1.09495
1.09799
1.09878
1.09856
1.0983
1.09822
1.20896
1.1753
1.14607
1.12385
1.10788
1.09678
1.08873
1.08209
1.07582
1.06956
1.06342
1.05772
1.05266
1.04833
1.04471
1.04183
1.03972
1.03838
1.03788
1.03834
1.03985
1.04252
1.04646
1.05178
1.05846
1.06639
1.07514
1.08387
1.09133
1.09622
1.0982
1.09833
1.09798
1.09781
1.19161
1.1599
1.13347
1.11349
1.09906
1.08877
1.08088
1.07395
1.0672
1.06048
1.05405
1.04822
1.04313
1.0388
1.03524
1.03245
1.03047
1.02929
1.029
1.02966
1.03137
1.03423
1.03834
1.04377
1.05059
1.05873
1.06794
1.07762
1.08663
1.09349
1.09714
1.09797
1.09757
1.09729
1.17424
1.14541
1.12177
1.10381
1.09066
1.08099
1.07316
1.06597
1.05885
1.05185
1.04528
1.03941
1.03433
1.03005
1.02655
1.02385
1.02198
1.02096
1.02083
1.02167
1.02355
1.02656
1.03077
1.03628
1.04313
1.05133
1.06076
1.071
1.08115
1.08982
1.09541
1.09737
1.09712
1.09667
1.15825
1.13209
1.11093
1.09479
1.08268
1.07347
1.06567
1.05827
1.0509
1.04376
1.03715
1.03131
1.02628
1.02205
1.01862
1.01601
1.01425
1.01336
1.01337
1.01436
1.01638
1.01951
1.02381
1.02935
1.0362
1.04439
1.05387
1.06438
1.07521
1.08532
1.09295
1.09644
1.09663
1.09592
1.14386
1.11995
1.10098
1.08638
1.07512
1.06628
1.05849
1.05095
1.04346
1.03627
1.0297
1.02392
1.01895
1.01479
1.01143
1.0089
1.00725
1.00647
1.00661
1.00772
1.00987
1.01309
1.01746
1.02303
1.02986
1.03799
1.04743
1.058
1.06914
1.08023
1.08963
1.09503
1.09593
1.09501
1.13057
1.1089
1.09189
1.07854
1.06801
1.05947
1.05172
1.04411
1.03658
1.02943
1.02294
1.01724
1.01235
1.00825
1.00497
1.00253
1.00096
1.00028
1.00053
1.00175
1.004
1.00731
1.01174
1.01733
1.02413
1.0322
1.04153
1.05208
1.06353
1.07499
1.08552
1.09298
1.09484
1.09386
1.11817
1.09887
1.08359
1.07128
1.06141
1.05313
1.04544
1.03783
1.03034
1.02327
1.01689
1.01128
1.00646
1.00244
0.999237
0.996867
0.995377
0.99479
0.995126
0.996444
0.998779
1.00217
1.00665
1.01226
1.01905
1.02705
1.03628
1.04676
1.05837
1.07003
1.08119
1.09032
1.09334
1.09253
1.10703
1.08985
1.076
1.06464
1.05535
1.04732
1.03973
1.03218
1.02477
1.01782
1.01155
1.00604
1.0013
0.997353
0.994217
0.991918
0.9905
0.98999
0.990405
0.991804
0.994216
0.997674
1.00221
1.00784
1.01462
1.02256
1.0317
1.04208
1.05356
1.06541
1.07704
1.08721
1.09164
1.09124
1.09731
1.08182
1.06918
1.05868
1.0499
1.04211
1.03465
1.02719
1.0199
1.01308
1.00693
1.00152
0.99686
0.992984
0.989913
0.987677
0.986322
0.985881
0.986363
0.987832
0.990312
0.99383
0.998411
1.00408
1.01085
1.01876
1.02782
1.03808
1.04944
1.06145
1.07326
1.08395
1.08999
1.09026
1.08886
1.07477
1.06319
1.05344
1.04512
1.03757
1.03025
1.02293
1.01577
1.00909
1.00305
0.99773
0.993149
0.989337
0.986323
0.984143
0.982843
0.982459
0.983001
0.98453
0.98707
0.990644
0.995272
1.00097
1.00776
1.01565
1.02466
1.03481
1.04607
1.05827
1.07016
1.08105
1.08856
1.08968
1.08149
1.06868
1.05806
1.04898
1.04108
1.03376
1.0266
1.01943
1.01241
1.00585
0.999925
0.994687
0.990172
0.986414
0.983449
0.981316
0.980061
0.979726
0.980317
0.981899
0.984493
0.988119
0.992796
0.998535
1.00535
1.01324
1.02223
1.03232
1.04351
1.05568
1.06779
1.07882
1.08738
1.08938
1.07513
1.06356
1.05379
1.04534
1.03782
1.03073
1.02375
1.01672
1.00984
1.0034
0.997566
0.992397
0.987935
0.984219
0.981292
0.979194
0.977975
0.977678
0.97831
0.979939
0.982582
0.986259
0.990987
0.996774
1.00363
1.01155
1.02055
1.03062
1.04177
1.05388
1.06615
1.07733
1.08651
1.08934
1.06977
1.0594
1.0504
1.04254
1.03539
1.02853
1.02172
1.01484
1.00809
1.00175
0.995989
0.990871
0.986444
0.982757
0.979853
0.977777
0.976584
0.976316
0.976981
0.97865
0.981338
0.985066
0.989847
0.995692
1.0026
1.01058
1.01963
1.02973
1.04088
1.05301
1.06548
1.07673
1.08613
1.08968
1.06539
1.05615
1.0479
1.04062
1.03383
1.02719
1.02056
1.01382
1.00719
1.00092
0.995209
0.990119
0.985708
0.98203
0.979134
0.977067
0.975888
0.975639
0.97633
0.978033
0.980764
0.984542
0.989383
0.995295
1.00228
1.01034
1.01947
1.02965
1.04087
1.05312
1.06586
1.07716
1.08654
1.09052
1.062
1.05381
1.04631
1.03961
1.03319
1.02677
1.0203
1.0137
1.00715
1.00094
0.995242
0.990153
0.985732
0.982044
0.979137
0.977061
0.97588
0.975637
0.976346
0.978078
0.98085
0.98468
0.989587
0.995579
1.00266
1.01083
1.02008
1.03039
1.04175
1.05415
1.067
1.07869
1.08797
1.09205
1.05959
1.05243
1.04568
1.03955
1.0335
1.0273
1.02099
1.01449
1.00801
1.00181
0.996099
0.990977
0.986519
0.982797
0.979856
0.977752
0.976554
0.976305
0.977024
0.97878
0.98159
0.985474
0.990452
0.996535
1.00373
1.01203
1.02144
1.03194
1.04352
1.05614
1.0692
1.08135
1.09052
1.09466
1.05814
1.05201
1.04604
1.04048
1.0348
1.02883
1.02265
1.01624
1.00979
1.00357
0.997801
0.992614
0.988093
0.984303
0.981296
0.979146
0.977914
0.977644
0.978363
0.980137
0.982983
0.986924
0.991979
0.998163
1.00548
1.01395
1.02355
1.03429
1.04615
1.05912
1.07262
1.0851
1.09438
1.09847
1.05765
1.05259
1.04741
1.04243
1.03714
1.03139
1.02532
1.01897
1.01251
1.00622
1.00037
0.995074
0.99045
0.98655
0.983451
0.981232
0.979949
0.979644
0.980353
0.98214
0.985021
0.98902
0.994159
1.00045
1.00792
1.01656
1.02639
1.03741
1.04965
1.06309
1.07706
1.08985
1.09942
1.10355
1.05809
1.05419
1.04983
1.04542
1.04056
1.03503
1.02904
1.0227
1.01619
1.0098
1.0038
0.998357
0.993581
0.989534
0.986316
0.984001
0.982647
0.982294
0.982986
0.984782
0.987698
0.991758
0.996984
1.0034
1.01101
1.01985
1.02992
1.04126
1.05396
1.06801
1.08251
1.09567
1.10552
1.10967
1.05945
1.05683
1.05336
1.04952
1.04508
1.03979
1.03383
1.02745
1.02084
1.01429
1.0081
1.00246
0.99748
0.99325
0.989883
0.987444
0.985999
0.985585
0.986252
0.988054
0.991005
0.995128
1.00045
1.00698
1.01475
1.02378
1.03411
1.04579
1.05897
1.07357
1.08877
1.10235
1.11224
1.11642
1.06176
1.06054
1.05805
1.05479
1.05076
1.04568
1.03971
1.03323
1.02647
1.01971
1.01328
1.00738
1.00214
0.997688
0.994132
0.991543
0.98999
0.989502
0.99014
0.991947
0.994934
0.999123
1.00454
1.01119
1.01912
1.02835
1.03893
1.05094
1.06461
1.07976
1.09555
1.10936
1.11918
1.12323
1.06501
1.06538
1.06397
1.06132
1.05764
1.05271
1.04671
1.04007
1.03308
1.02606
1.01932
1.01309
1.00754
1.00282
0.999043
0.996279
0.994601
0.994031
0.994638
0.99645
0.999477
1.00374
1.00925
1.01602
1.0241
1.03351
1.04433
1.05669
1.07089
1.0865
1.10249
1.11618
1.12569
1.12953
1.06925
1.07142
1.07118
1.06918
1.06577
1.06094
1.05487
1.048
1.0407
1.03332
1.02618
1.01956
1.01366
1.00863
1.00458
1.00162
0.999808
0.999151
0.999729
1.00155
1.00463
1.00896
1.01457
1.02147
1.02968
1.03925
1.05028
1.06299
1.07769
1.09339
1.10909
1.12213
1.131
1.13456
1.07455
1.07872
1.0798
1.07849
1.0753
1.07048
1.06425
1.05703
1.0493
1.04144
1.03382
1.02674
1.02042
1.01504
1.01071
1.00754
1.00558
1.00484
1.0054
1.00724
1.01037
1.01479
1.0205
1.02751
1.03585
1.04554
1.05673
1.06972
1.08435
1.10003
1.11482
1.12653
1.13431
1.13749
1.0809
1.08739
1.08996
1.08938
1.08638
1.08143
1.07484
1.06711
1.05879
1.05033
1.04214
1.03454
1.02778
1.02201
1.01737
1.01398
1.01188
1.01107
1.01162
1.0135
1.01671
1.02123
1.02705
1.03418
1.04263
1.05242
1.06375
1.07683
1.09108
1.10604
1.11911
1.12886
1.13517
1.13779
1.0883
1.09752
1.1018
1.102
1.09911
1.0938
1.0866
1.07815
1.06908
1.0599
1.05105
1.04288
1.03562
1.02944
1.0245
1.02089
1.01865
1.0178
1.01837
1.02032
1.02362
1.02826
1.03422
1.04148
1.05006
1.05999
1.07154
1.0843
1.098
1.1111
1.12166
1.12903
1.13373
1.13585
1.09678
1.10928
1.11551
1.11649
1.11351
1.10757
1.09951
1.09012
1.08012
1.07007
1.06046
1.05165
1.04385
1.03725
1.03199
1.0282
1.02586
1.025
1.02562
1.02767
1.03111
1.0359
1.04201
1.04943
1.05818
1.06834
1.08022
1.09217
1.10444
1.11496
1.12251
1.1274
1.13065
1.13257
1.10635
1.12286
1.13133
1.13301
1.12967
1.1228
1.11357
1.10297
1.09181
1.08073
1.07025
1.06071
1.05235
1.04532
1.03979
1.03583
1.03345
1.03263
1.03335
1.03554
1.03916
1.04415
1.05047
1.05811
1.06706
1.07738
1.08869
1.10016
1.11021
1.11756
1.12207
1.12478
1.12695
1.12879
1.11695
1.1385
1.14949
1.15173
1.14771
1.13951
1.12873
1.1166
1.10404
1.09176
1.08028
1.06996
1.06101
1.05356
1.0478
1.04374
1.04137
1.04066
1.04153
1.04391
1.04776
1.05302
1.05964
1.06759
1.07682
1.08712
1.09747
1.10758
1.11484
1.11903
1.12104
1.12222
1.12375
1.12558
1.1284
1.15641
1.1703
1.17287
1.16769
1.15764
1.14488
1.13087
1.11667
1.10301
1.09044
1.07928
1.06972
1.0619
1.05596
1.05187
1.04959
1.04904
1.05012
1.05277
1.05693
1.06257
1.06963
1.07798
1.0874
1.09732
1.10653
1.11378
1.11803
1.11972
1.12014
1.12059
1.1217
1.12334
1.14047
1.17687
1.19406
1.19659
1.18958
1.17703
1.16178
1.14557
1.12948
1.11429
1.10054
1.08852
1.07836
1.07024
1.0642
1.06017
1.05806
1.05774
1.05909
1.0621
1.06672
1.07288
1.0805
1.08913
1.09825
1.10697
1.11384
1.11809
1.11984
1.12003
1.11978
1.12
1.12092
1.12205
1.15236
1.2
1.22094
1.22281
1.21308
1.19727
1.17905
1.16031
1.14212
1.12531
1.11036
1.09748
1.0868
1.07846
1.07243
1.06854
1.06669
1.06671
1.06847
1.07196
1.07718
1.08389
1.09181
1.10032
1.10822
1.11451
1.11846
1.12022
1.12054
1.12021
1.11992
1.12017
1.12102
1.12164
1.1637
1.22576
1.25086
1.2511
1.23743
1.21754
1.19599
1.17461
1.15432
1.13587
1.11969
1.10598
1.09486
1.0864
1.08046
1.07683
1.07541
1.07593
1.07829
1.08225
1.08791
1.09518
1.10301
1.11003
1.11526
1.11857
1.12016
1.12067
1.12063
1.12039
1.12032
1.1207
1.12133
1.12162
1.1688
1.25206
1.28249
1.28006
1.26155
1.23733
1.21259
1.18858
1.16609
1.14591
1.1285
1.11395
1.10241
1.09394
1.08819
1.08504
1.08433
1.08545
1.08808
1.09237
1.09848
1.10553
1.1117
1.11578
1.11807
1.11937
1.12005
1.12038
1.12052
1.12054
1.12073
1.12116
1.12158
1.12165
1.17572
1.27867
1.31504
1.30879
1.28456
1.25581
1.22796
1.20095
1.17598
1.15409
1.13558
1.1204
1.10889
1.10108
1.09597
1.09336
1.09339
1.09511
1.09763
1.10125
1.10582
1.11034
1.11387
1.1162
1.11764
1.11871
1.11954
1.12007
1.12039
1.12065
1.121
1.12142
1.12169
1.12168
1.10112
1.29115
1.33826
1.3282
1.30077
1.26992
1.24081
1.21113
1.18344
1.15968
1.14003
1.12435
1.11267
1.10474
1.10017
1.09861
1.09926
1.10041
1.10131
1.10273
1.10535
1.10886
1.11219
1.11483
1.11682
1.11829
1.1193
1.11994
1.12034
1.1207
1.12112
1.12153
1.12174
1.12172
1.3255
1.3212
1.31384
1.30752
1.30317
1.30038
1.3239
1.31951
1.31266
1.3073
1.30338
1.30079
1.32401
1.32006
1.31383
1.30901
1.30523
1.30261
1.32659
1.32293
1.31727
1.31252
1.30865
1.30588
1.33165
1.32786
1.32272
1.31777
1.3137
1.31065
1.33907
1.33485
1.32997
1.32479
1.32043
1.31689
1.34859
1.34407
1.33893
1.33346
1.32864
1.32434
1.35989
1.35509
1.34935
1.34344
1.33792
1.33265
1.37244
1.36717
1.36084
1.35433
1.34794
1.3416
1.38567
1.37991
1.37293
1.36577
1.3585
1.35096
1.39882
1.39285
1.38523
1.3774
1.36924
1.36022
1.41141
1.40556
1.3973
1.38871
1.37954
1.36872
1.42336
1.41744
1.40857
1.39911
1.38866
1.37571
1.43377
1.42775
1.41823
1.4079
1.3959
1.38046
1.4416
1.4358
1.42553
1.41428
1.40048
1.38229
1.44682
1.44076
1.42981
1.41757
1.4018
1.38076
1.44898
1.44217
1.43062
1.41727
1.39943
1.37559
1.44724
1.43985
1.42768
1.41313
1.39321
1.3668
1.44142
1.43356
1.42083
1.4051
1.3833
1.35474
1.43194
1.4235
1.41023
1.39338
1.36998
1.33991
1.41923
1.41012
1.39627
1.37843
1.35378
1.32268
1.40323
1.39371
1.3794
1.36079
1.3354
1.30359
1.38425
1.37465
1.36009
1.34103
1.31547
1.28348
1.36306
1.35363
1.33901
1.31982
1.29447
1.2631
1.34046
1.33134
1.31684
1.29787
1.27293
1.24274
1.31711
1.30846
1.29422
1.27565
1.25137
1.2226
1.2936
1.28554
1.27167
1.25357
1.23037
1.20321
1.27037
1.26296
1.24959
1.23215
1.21034
1.18483
1.24784
1.24108
1.22837
1.21185
1.19171
1.16833
1.22634
1.22024
1.20832
1.19289
1.17446
1.15359
1.20614
1.20069
1.18961
1.17531
1.15833
1.13938
1.1874
1.18256
1.17233
1.1591
1.14347
1.12604
1.17024
1.1659
1.15656
1.1444
1.13014
1.11429
1.15465
1.15077
1.14234
1.13145
1.11835
1.10415
1.1406
1.13711
1.12955
1.12
1.10804
1.09535
1.12803
1.12486
1.11804
1.10965
1.09915
1.08767
1.11678
1.11398
1.10781
1.10039
1.09132
1.08098
1.10672
1.10429
1.0988
1.09228
1.08443
1.07525
1.09766
1.09568
1.09087
1.0853
1.07852
1.07051
1.08952
1.08793
1.08385
1.07929
1.07356
1.06679
1.08212
1.08094
1.07763
1.07413
1.06954
1.06406
1.07526
1.07455
1.07212
1.06974
1.06641
1.06227
1.06877
1.06859
1.06718
1.06602
1.06406
1.06134
1.06246
1.06289
1.06263
1.06281
1.06241
1.06123
1.05614
1.05728
1.0583
1.06001
1.06135
1.06189
1.04963
1.05158
1.05403
1.05744
1.06079
1.06328
1.04269
1.04557
1.04959
1.05493
1.06059
1.06534
1.03516
1.03894
1.04474
1.05232
1.06056
1.068
1.0267
1.03128
1.0392
1.04941
1.06056
1.0712
1.01678
1.02223
1.03268
1.04586
1.06043
1.07487
1.00479
1.01125
1.02456
1.04108
1.05976
1.07889
0.990069
0.997555
1.01394
1.03412
1.05793
1.08305
0.971738
0.980041
0.998943
1.02366
1.05403
1.08682
0.948611
0.957492
0.978309
1.00821
1.04657
1.08913
0.919186
0.928379
0.950769
0.985298
1.03311
1.08852
0.881647
0.890791
0.913248
0.950751
1.00817
1.0812
0.833238
0.84075
0.861435
0.898764
0.963035
1.06191
0.770821
0.773688
0.790986
0.822083
0.875881
1.0046
0.692715
0.686561
0.696418
0.712478
0.725654
0.880677
0.600264
0.579934
0.577808
0.584227
0.48217
0.407022
0.507622
0.476459
0.441526
0.410187
0.13145
-0.578522
0.42232
0.388649
0.321751
0.256897
0.0239168
-0.478343
0.340747
0.307072
0.23256
0.155475
0.024663
-0.221495
-0.156392
-0.153313
-0.150904
-0.149024
-0.14792
-0.148121
-0.149807
-0.152735
-0.156403
-0.160193
-0.163424
-0.165817
-0.167461
-0.168455
-0.168793
-0.168604
-0.168133
-0.167587
-0.167087
-0.166675
-0.166355
-0.166111
-0.165934
-0.165819
-0.165736
-0.165669
-0.165617
-0.165569
-0.165526
-0.16549
-0.165464
-0.165453
-0.165456
-0.165465
-0.154306
-0.15271
-0.151702
-0.150118
-0.149103
-0.149414
-0.151251
-0.154245
-0.157811
-0.161457
-0.164503
-0.166709
-0.168257
-0.169066
-0.169088
-0.168566
-0.167897
-0.167294
-0.166828
-0.166488
-0.16623
-0.166038
-0.165903
-0.165804
-0.165728
-0.165669
-0.165619
-0.165573
-0.165533
-0.165498
-0.165472
-0.16546
-0.165462
-0.165471
-0.154024
-0.153558
-0.153321
-0.15215
-0.151497
-0.152087
-0.154065
-0.157051
-0.160483
-0.163888
-0.16678
-0.168876
-0.170129
-0.170638
-0.170412
-0.169537
-0.168454
-0.167494
-0.1668
-0.166365
-0.166104
-0.165947
-0.165842
-0.165764
-0.165707
-0.165662
-0.165619
-0.165579
-0.165541
-0.165506
-0.165479
-0.165465
-0.165466
-0.165476
-0.154797
-0.155762
-0.155402
-0.154403
-0.154095
-0.155015
-0.157204
-0.160253
-0.163605
-0.166784
-0.169419
-0.171294
-0.172377
-0.172718
-0.172344
-0.171322
-0.169925
-0.1685
-0.167322
-0.166524
-0.166083
-0.165873
-0.165775
-0.165718
-0.165678
-0.165647
-0.165616
-0.165583
-0.165548
-0.165512
-0.165482
-0.165465
-0.165465
-0.165476
-0.156561
-0.158202
-0.157436
-0.156339
-0.156226
-0.157467
-0.15996
-0.163195
-0.166577
-0.169634
-0.172067
-0.173738
-0.174647
-0.174835
-0.17435
-0.173256
-0.171712
-0.169969
-0.168334
-0.167051
-0.166263
-0.165881
-0.16573
-0.165675
-0.16565
-0.165633
-0.165613
-0.165588
-0.165555
-0.165518
-0.165484
-0.165462
-0.16546
-0.165471
-0.158945
-0.160526
-0.159423
-0.158171
-0.158185
-0.159738
-0.162543
-0.165969
-0.16938
-0.172328
-0.174575
-0.176043
-0.17676
-0.176787
-0.176186
-0.175027
-0.17341
-0.171501
-0.169592
-0.167853
-0.166659
-0.166011
-0.165736
-0.165647
-0.165625
-0.165619
-0.16561
-0.165592
-0.165563
-0.165525
-0.165485
-0.165455
-0.165448
-0.165459
-0.161485
-0.162808
-0.161476
-0.160057
-0.16017
-0.162005
-0.165071
-0.168619
-0.171995
-0.174793
-0.176838
-0.178097
-0.178619
-0.178481
-0.177752
-0.176511
-0.174839
-0.172839
-0.170704
-0.16875
-0.167194
-0.166248
-0.165795
-0.165638
-0.165605
-0.165605
-0.165604
-0.165593
-0.165568
-0.165529
-0.165483
-0.165443
-0.165428
-0.165437
-0.163762
-0.164999
-0.16348
-0.161886
-0.162073
-0.164146
-0.167391
-0.170975
-0.174248
-0.176866
-0.178706
-0.179771
-0.180118
-0.17983
-0.178972
-0.177635
-0.175898
-0.17385
-0.171563
-0.169462
-0.167676
-0.166506
-0.165875
-0.165634
-0.165582
-0.165585
-0.165592
-0.165587
-0.165565
-0.165526
-0.165474
-0.165423
-0.165397
-0.165401
-0.165468
-0.166819
-0.165154
-0.163403
-0.163636
-0.165905
-0.169255
-0.172807
-0.175945
-0.178384
-0.180051
-0.180962
-0.181175
-0.180764
-0.179792
-0.178356
-0.176547
-0.174459
-0.172175
-0.169921
-0.167984
-0.166651
-0.165899
-0.165597
-0.165534
-0.165547
-0.165566
-0.165569
-0.16555
-0.16551
-0.165452
-0.16539
-0.165353
-0.165348
-0.166212
-0.167756
-0.16611
-0.164269
-0.164541
-0.166996
-0.170413
-0.173916
-0.176935
-0.179243
-0.180796
-0.181616
-0.181745
-0.18125
-0.180187
-0.178661
-0.176774
-0.174632
-0.17234
-0.170056
-0.168073
-0.166609
-0.165795
-0.165478
-0.165432
-0.165472
-0.165515
-0.165531
-0.165518
-0.165476
-0.165411
-0.16534
-0.165288
-0.16527
-0.165594
-0.167283
-0.165842
-0.164074
-0.16447
-0.167148
-0.17066
-0.174162
-0.177136
-0.179402
-0.180932
-0.181738
-0.181844
-0.181306
-0.180177
-0.178568
-0.1766
-0.174388
-0.172054
-0.169752
-0.167793
-0.166331
-0.165512
-0.165233
-0.165245
-0.16534
-0.165425
-0.165466
-0.165462
-0.16542
-0.16535
-0.165269
-0.165197
-0.165166
-0.163182
-0.164998
-0.163915
-0.1624
-0.163098
-0.166139
-0.169864
-0.173488
-0.176549
-0.178895
-0.180503
-0.181375
-0.18152
-0.180982
-0.179818
-0.178144
-0.176095
-0.173804
-0.171412
-0.169093
-0.167147
-0.165767
-0.165023
-0.164832
-0.164942
-0.165134
-0.16529
-0.165369
-0.165381
-0.165341
-0.165263
-0.165169
-0.165082
-0.165038
-0.15878
-0.160765
-0.160085
-0.159033
-0.160278
-0.163814
-0.167948
-0.171863
-0.17517
-0.177738
-0.179543
-0.180572
-0.180829
-0.180346
-0.179184
-0.177467
-0.175345
-0.172976
-0.170525
-0.168193
-0.166277
-0.164978
-0.164352
-0.164299
-0.164534
-0.16485
-0.16511
-0.165243
-0.165278
-0.16524
-0.165153
-0.165045
-0.164945
-0.164881
-0.152587
-0.154648
-0.154273
-0.153874
-0.156072
-0.160185
-0.164875
-0.16927
-0.173009
-0.175966
-0.178106
-0.179405
-0.179867
-0.17951
-0.178405
-0.176683
-0.17451
-0.17207
-0.169559
-0.167217
-0.165337
-0.164122
-0.163616
-0.163695
-0.164091
-0.164548
-0.164908
-0.165103
-0.165167
-0.165133
-0.165034
-0.16491
-0.164799
-0.164717
-0.144845
-0.146799
-0.146637
-0.147055
-0.150449
-0.155264
-0.160625
-0.165689
-0.170063
-0.1736
-0.176242
-0.177956
-0.178743
-0.178614
-0.177647
-0.175981
-0.173799
-0.171312
-0.168754
-0.166399
-0.164542
-0.163393
-0.162986
-0.163178
-0.163708
-0.164296
-0.164737
-0.164989
-0.16508
-0.165045
-0.16493
-0.164784
-0.164658
-0.164576
-0.135704
-0.137474
-0.137582
-0.138976