/*--------------------------------*- C++ -*----------------------------------*\
| =========                 |                                                 |
| \\      /  F ield         | OpenFOAM: The Open Source CFD Toolbox           |
|  \\    /   O peration     | Version:  v2012                                 |
|   \\  /    A nd           | Website:  www.openfoam.com                      |
|    \\/     M anipulation  |                                                 |
\*---------------------------------------------------------------------------*/
FoamFile
{
    version     2.0;
    format      ascii;
    class       surfaceScalarField;
    location    "684";
    object      phi;
}
// * * * * * * * * * * * * * * * * * * * * * * * * * * * * * * * * * * * * * //

dimensions      [0 3 -1 0 0 0 0];
oriented        oriented;


internalField   nonuniform List<scalar> 
11779
(
-9.8974e-05
1.0145e-05
8.8829e-05
-0.000108134
9.15991e-06
-0.000116398
8.26403e-06
-0.000123819
7.42153e-06
-0.000130409
6.58972e-06
-0.000136273
5.86374e-06
-0.000141615
5.3423e-06
-0.000146594
4.97836e-06
-0.00015133
4.73632e-06
-0.000155917
4.58727e-06
-0.000160429
4.51186e-06
-0.000164922
4.49282e-06
-0.000169426
4.50459e-06
-0.000173959
4.53285e-06
-0.000178527
4.56802e-06
-0.00018311
4.58299e-06
-0.000187655
4.54442e-06
-0.000192199
4.54443e-06
-0.000196781
4.58205e-06
3.21876e-06
-0.000192543
1.50987e-05
0.000187589
-0.00019613
1.27469e-05
-0.000198636
1.07696e-05
-0.000200334
9.1204e-06
-0.000201545
7.80005e-06
-0.000202458
6.77693e-06
-0.000203123
6.00734e-06
-0.000203589
5.4441e-06
-0.000203894
5.04107e-06
-0.000204067
4.76074e-06
-0.000204136
4.58077e-06
-0.000204134
4.49101e-06
-0.000204081
4.45108e-06
-0.000203964
4.41665e-06
-0.000203776
4.37981e-06
-0.000203516
4.32266e-06
-0.000203162
4.19055e-06
-0.000202574
3.95602e-06
-0.000201571
3.57922e-06
1.64801e-06
-0.000214865
1.60143e-05
0.000213949
-0.000215337
1.32194e-05
-0.000215448
1.08802e-05
-0.000215297
8.96951e-06
-0.000214949
7.45247e-06
-0.000214447
6.27489e-06
-0.00021382
5.38002e-06
-0.00021309
4.71437e-06
-0.000212278
4.22899e-06
-0.000211398
3.88039e-06
-0.000210443
3.62551e-06
-0.000209387
3.4354e-06
-0.000208265
3.32914e-06
-0.000207124
3.27555e-06
-0.000205951
3.20724e-06
-0.000204729
3.10019e-06
-0.000203466
2.92749e-06
-0.000202188
2.67792e-06
-0.000200799
2.1904e-06
8.49002e-07
-0.00022125
1.59544e-05
0.000221309
-0.000220876
1.28454e-05
-0.000220264
1.02686e-05
-0.000219481
8.18642e-06
-0.000218569
6.54051e-06
-0.000217556
5.26213e-06
-0.000216461
4.28521e-06
-0.000215297
3.55036e-06
-0.000214073
3.00486e-06
-0.000212795
2.60179e-06
-0.00021147
2.30084e-06
-0.000210115
2.08029e-06
-0.000208722
1.93609e-06
-0.000207284
1.83802e-06
-0.000205825
1.7481e-06
-0.00020437
1.64483e-06
-0.000202956
1.51382e-06
-0.000201625
1.34653e-06
-0.000200467
1.03319e-06
3.81532e-07
-0.00022422
1.54793e-05
0.000224695
-0.000223432
1.20581e-05
-0.000222432
9.26789e-06
-0.000221293
7.0482e-06
-0.000220064
5.31163e-06
-0.000218771
3.96916e-06
-0.000217429
2.94276e-06
-0.000216046
2.16714e-06
-0.000214627
1.58619e-06
-0.000213177
1.15133e-06
-0.0002117
8.24459e-07
-0.000210202
5.81717e-07
-0.000208675
4.09355e-07
-0.000207127
2.89754e-07
-0.000205582
2.03444e-07
-0.000204078
1.40346e-07
-0.000202658
9.4194e-08
-0.000201371
5.96607e-08
-0.000200371
3.29416e-08
1.06926e-08
-0.000226182
1.46849e-05
0.000226977
-0.000225048
1.09239e-05
-0.000223721
7.9412e-06
-0.000222303
5.63012e-06
-0.000220844
3.8525e-06
-0.000219366
2.49118e-06
-0.000217877
1.45341e-06
-0.000216379
6.69162e-07
-0.000214873
8.03095e-08
-0.000213358
-3.63864e-07
-0.000211833
-7.00608e-07
-0.000210295
-9.56125e-07
-0.000208737
-1.14856e-06
-0.000207167
-1.2796e-06
-0.000205609
-1.3554e-06
-0.000204094
-1.37441e-06
-0.000202667
-1.33265e-06
-0.000201375
-1.23215e-06
-0.000200372
-9.703e-07
-3.61312e-07
-0.00022735
1.34581e-05
0.000228577
-0.000225842
9.41579e-06
-0.000224198
6.29708e-06
-0.000222545
3.97729e-06
-0.000220925
2.23315e-06
-0.00021935
9.15421e-07
-0.00021781
-8.64165e-08
-0.000216297
-8.4337e-07
-0.000214806
-1.41118e-06
-0.000213328
-1.84166e-06
-0.000211856
-2.17225e-06
-0.000210387
-2.42582e-06
-0.000208902
-2.63352e-06
-0.000207402
-2.77967e-06
-0.000205902
-2.85531e-06
-0.000204417
-2.85933e-06
-0.000202982
-2.76716e-06
-0.000201637
-2.57784e-06
-0.000200471
-2.13595e-06
-8.32334e-07
-0.000226444
1.18232e-05
0.000228079
-0.000224507
7.47952e-06
-0.000222589
4.37813e-06
-0.000220789
2.17762e-06
-0.000219129
5.73678e-07
-0.000217605
-6.09229e-07
-0.00021619
-1.50142e-06
-0.000214855
-2.17827e-06
-0.000213567
-2.69909e-06
-0.000212301
-3.10795e-06
-0.000211041
-3.43228e-06
-0.000209782
-3.68478e-06
-0.000208542
-3.87295e-06
-0.000207315
-4.00653e-06
-0.000206073
-4.09759e-06
-0.000204803
-4.12956e-06
-0.000203506
-4.06384e-06
-0.000202205
-3.87867e-06
-0.000200804
-3.53691e-06
-1.6367e-06
-0.000216547
9.0012e-06
0.000219369
-0.000213747
4.67968e-06
-0.000211486
2.11692e-06
-0.000209788
4.79411e-07
-0.000208524
-6.90115e-07
-0.000207578
-1.55538e-06
-0.000206843
-2.23607e-06
-0.00020626
-2.76163e-06
-0.000205788
-3.17113e-06
-0.0002054
-3.49568e-06
-0.000205075
-3.75715e-06
-0.000204794
-3.96546e-06
-0.000204531
-4.13635e-06
-0.000204258
-4.27952e-06
-0.00020396
-4.39514e-06
-0.000203625
-4.46527e-06
-0.000203219
-4.46977e-06
-0.000202595
-4.50264e-06
-0.000201574
-4.55815e-06
-3.21032e-06
-0.000151626
0.000160627
-0.000146947
-0.00014483
-0.00014435
-0.00014504
-0.000146596
-0.000148832
-0.000151593
-0.000154765
-0.00015826
-0.000162017
-0.000165983
-0.000170119
-0.000174399
-0.000178794
-0.000183259
-0.000187729
-0.000192232
-0.00019679
9.79488e-06
-3.0216e-06
-6.77327e-06
1.11527e-05
-1.35779e-06
1.07038e-05
4.48818e-07
8.89527e-06
1.80858e-06
6.53986e-06
2.35542e-06
4.39698e-06
2.14288e-06
2.87881e-06
1.51817e-06
2.12806e-06
7.50759e-07
2.19048e-06
-6.24189e-08
3.08922e-06
-8.98741e-07
4.92e-06
-1.83078e-06
7.06096e-06
-2.14096e-06
8.9173e-06
-1.85633e-06
1.00383e-05
-1.12097e-06
1.02563e-05
-2.1806e-07
9.91912e-06
3.37209e-07
9.59787e-06
3.21246e-07
9.57077e-06
2.70999e-08
9.7659e-06
-1.95132e-07
9.83347e-06
-6.75757e-08
9.48624e-06
3.47231e-07
8.5863e-06
8.99941e-07
7.07869e-06
1.50761e-06
4.7063e-06
2.37239e-06
9.58753e-07
3.74754e-06
-4.42812e-06
5.38687e-06
-1.14212e-05
6.9931e-06
-1.99611e-05
8.53984e-06
-2.99927e-05
1.00317e-05
-4.12324e-05
1.12397e-05
-5.32929e-05
1.20605e-05
-6.5623e-05
1.23301e-05
-7.76171e-05
1.19941e-05
1.12119e-05
2.12784e-05
-7.78258e-06
-1.65174e-05
2.39904e-05
-4.06974e-06
2.44745e-05
-3.53072e-08
2.28481e-05
3.43495e-06
1.96415e-05
5.56208e-06
1.57358e-05
6.04849e-06
1.21711e-05
5.08295e-06
9.78864e-06
3.13318e-06
9.02906e-06
6.97165e-07
9.95074e-06
-1.82041e-06
1.23169e-05
-4.19696e-06
1.48388e-05
-4.66281e-06
1.68463e-05
-3.8638e-06
1.77972e-05
-2.07192e-06
1.77001e-05
-1.21007e-07
1.68954e-05
1.14197e-06
1.55026e-05
1.71401e-06
1.33361e-05
2.19365e-06
1.02276e-05
2.91329e-06
5.98724e-06
4.17281e-06
2.59522e-09
6.33188e-06
-8.94632e-06
9.84885e-06
-2.16732e-05
1.42344e-05
-3.77918e-05
1.84911e-05
-5.60964e-05
2.20521e-05
-7.55028e-05
2.47932e-05
-9.51253e-05
2.66156e-05
-0.000114146
2.75604e-05
-0.000131805
2.7691e-05
-0.000147576
2.70103e-05
-0.000161047
2.55312e-05
-0.000172094
2.3378e-05
-0.00018086
2.07601e-05
1.79409e-05
3.08556e-05
-1.24397e-05
-2.61984e-05
3.32788e-05
-6.49302e-06
3.35563e-05
-3.12803e-07
3.19749e-05
5.01642e-06
2.89276e-05
8.60938e-06
2.49665e-05
1.00095e-05
2.09308e-05
9.11864e-06
1.77592e-05
6.30479e-06
1.61449e-05
2.31146e-06
1.62073e-05
-1.88277e-06
1.72895e-05
-5.27914e-06
1.8003e-05
-5.37633e-06
1.78052e-05
-3.66604e-06
1.6456e-05
-7.22703e-07
1.41095e-05
2.22553e-06
1.07841e-05
4.46735e-06
6.05399e-06
6.44412e-06
-8.55909e-07
9.10355e-06
-1.10475e-05
1.31049e-05
-2.5422e-05
1.85473e-05
-4.39711e-05
2.48809e-05
-6.54287e-05
3.13065e-05
-8.81592e-05
3.6965e-05
-0.00011079
4.11219e-05
-0.000132206
4.34681e-05
-0.000151543
4.41298e-05
-0.00016825
4.33229e-05
-0.000182029
4.13391e-05
-0.000192796
3.84582e-05
-0.000200745
3.49597e-05
-0.000206308
3.10942e-05
-0.00021002
2.709e-05
-0.000212414
2.31541e-05
1.94759e-05
3.78167e-05
-1.6012e-05
-3.42445e-05
3.91103e-05
-7.78663e-06
3.8567e-05
2.30481e-07
3.66135e-05
6.9699e-06
3.35438e-05
1.16792e-05
2.9759e-05
1.37943e-05
2.58406e-05
1.3037e-05
2.25117e-05
9.63368e-06
2.03438e-05
4.47938e-06
1.91094e-05
-6.48443e-07
1.75853e-05
-3.75502e-06
1.52389e-05
-3.02988e-06
1.16845e-05
-1.11681e-07
6.97323e-06
3.98858e-06
8.90523e-07
8.30824e-06
-7.43287e-06
1.27907e-05
-1.93029e-05
1.83141e-05
-3.55496e-05
2.53503e-05
-5.59905e-05
3.35458e-05
-7.94158e-05
4.19726e-05
-0.000103995
4.946e-05
-0.000127823
5.51347e-05
-0.000149397
5.8539e-05
-0.000167865
5.95902e-05
-0.000182935
5.85381e-05
-0.000194661
5.58554e-05
-0.000203372
5.20341e-05
-0.000209565
4.75314e-05
-0.00021383
4.27238e-05
-0.000216747
3.78763e-05
-0.000218761
3.31079e-05
-0.000220124
2.84532e-05
-0.000220953
2.39837e-05
1.98319e-05
4.04202e-05
-1.78695e-05
-3.85627e-05
4.03865e-05
-7.75295e-06
3.89993e-05
1.61767e-06
3.66045e-05
9.36478e-06
3.34341e-05
1.48496e-05
2.97814e-05
1.7447e-05
2.60475e-05
1.67709e-05
2.2679e-05
1.30022e-05
1.9767e-05
7.39132e-06
1.66223e-05
2.4963e-06
1.22179e-05
6.49371e-07
6.57706e-06
2.61093e-06
-7.09662e-07
7.17505e-06
-9.98757e-06
1.32665e-05
-2.22308e-05
2.05515e-05
-3.85377e-05
2.90976e-05
-5.90612e-05
3.88377e-05
-8.28068e-05
4.90959e-05
-0.00010796
5.86988e-05
-0.00013239
6.64024e-05
-0.000154342
7.14121e-05
-0.000172752
7.35454e-05
-0.000187277
7.30642e-05
-0.000198165
7.04772e-05
-0.000206018
6.63914e-05
-0.000211555
6.13923e-05
-0.000215474
5.59537e-05
-0.00021835
5.04071e-05
-0.000220552
4.49257e-05
-0.000222245
3.95696e-05
-0.0002235
3.43631e-05
-0.000224347
2.92996e-05
-0.000224753
2.43899e-05
1.97737e-05
3.80635e-05
-1.76157e-05
-3.83172e-05
3.67724e-05
-6.46191e-06
3.47862e-05
3.60386e-06
3.21838e-05
1.19672e-05
2.90496e-05
1.79838e-05
2.55496e-05
2.0947e-05
2.1936e-05
2.03846e-05
1.83384e-05
1.65998e-05
1.42953e-05
1.14344e-05
8.91008e-06
7.88155e-06
1.56865e-06
7.9908e-06
-7.94654e-06
1.21261e-05
-2.02288e-05
1.94573e-05
-3.60101e-05
2.90478e-05
-5.56284e-05
4.01698e-05
-7.8651e-05
5.21201e-05
-0.000103654
6.38408e-05
-0.000128589
7.40312e-05
-0.00015138
8.14898e-05
-0.000170593
8.56152e-05
-0.000185688
8.65071e-05
-0.000196867
8.47243e-05
-0.0002048
8.09974e-05
-0.000210347
7.60242e-05
-0.000214318
7.03617e-05
-0.000217331
6.44052e-05
-0.000219789
5.84116e-05
-0.000221893
5.25117e-05
-0.000223698
4.6731e-05
-0.00022518
4.10516e-05
-0.000226302
3.54842e-05
-0.000227039
3.00373e-05
-0.000227291
2.46415e-05
1.94594e-05
3.19067e-05
-1.61045e-05
-3.3418e-05
2.98434e-05
-4.39865e-06
2.74401e-05
6.0072e-06
2.46882e-05
1.4719e-05
2.1558e-05
2.11141e-05
1.81056e-05
2.43994e-05
1.44171e-05
2.4073e-05
1.0239e-05
2.07779e-05
4.63507e-06
1.70384e-05
-3.38696e-06
1.59036e-05
-1.44787e-05
1.90825e-05
-2.91392e-05
2.67867e-05
-4.75302e-05
3.78483e-05
-6.93426e-05
5.08602e-05
-9.35979e-05
6.44251e-05
-0.000118663
7.71852e-05
-0.000142483
8.76607e-05
-0.000163205
9.47532e-05
-0.000179787
9.80724e-05
-0.000192156
9.79841e-05
-0.000200928
9.52785e-05
-0.000207021
9.08179e-05
-0.000211349
8.53251e-05
-0.000214639
7.93145e-05
-0.000217368
7.30905e-05
-0.000219775
6.68119e-05
-0.000221951
6.05872e-05
-0.000223905
5.44661e-05
-0.000225617
4.84434e-05
-0.00022704
4.24743e-05
-0.000228106
3.65506e-05
-0.000228796
3.07272e-05
-0.000229081
2.49268e-05
1.89547e-05
2.42486e-05
-1.3768e-05
-2.65851e-05
2.16244e-05
-1.77442e-06
1.87784e-05
8.85323e-06
1.56814e-05
1.7816e-05
1.22862e-05
2.45093e-05
8.59992e-06
2.80857e-05
4.50321e-06
2.81697e-05
-8.21852e-07
2.61029e-05
-8.77493e-06
2.49915e-05
-2.04696e-05
2.75983e-05
-3.64164e-05
3.50293e-05
-5.63547e-05
4.6725e-05
-7.93536e-05
6.08472e-05
-0.000104047
7.5554e-05
-0.000128654
8.90316e-05
-0.00015114
9.96715e-05
-0.000169926
0.000106446
-0.000184349
0.000109176
-0.000194702
0.000108426
-0.000201863
0.000105145
-0.000206861
0.000100277
-0.000210574
9.45307e-05
-0.000213588
8.83393e-05
-0.000216231
8.19579e-05
-0.000218655
7.55138e-05
-0.000220864
6.90218e-05
-0.000222823
6.25455e-05
-0.000224508
5.61517e-05
-0.000225884
4.98191e-05
-0.000226955
4.35452e-05
-0.000227746
3.73411e-05
-0.000228285
3.12669e-05
-0.000228583
2.52242e-05
1.84505e-05
1.64748e-05
-1.08919e-05
-1.93508e-05
1.33033e-05
1.39704e-06
9.86553e-06
1.2291e-05
6.15843e-06
2.15231e-05
2.21219e-06
2.84555e-05
-2.0007e-06
3.22986e-05
-7.12211e-06
3.32911e-05
-1.46527e-05
3.36335e-05
-2.60902e-05
3.6429e-05
-4.21777e-05
4.36858e-05
-6.25738e-05
5.54254e-05
-8.59627e-05
7.01139e-05
-0.000110645
8.55294e-05
-0.000134599
9.95083e-05
-0.000155863
0.000110296
-0.000173073
0.00011688
-0.000185868
0.000119242
-0.000194803
0.000118111
-0.000200914
0.000114537
-0.000205247
0.000109478
-0.000208599
0.000103628
-0.000211446
9.73783e-05
-0.000213962
9.08554e-05
-0.000216136
8.41311e-05
-0.000217905
7.7283e-05
-0.000219335
7.04517e-05
-0.000220454
6.36651e-05
-0.000221192
5.68895e-05
-0.000221595
5.02222e-05
-0.00022173
4.36799e-05
-0.000221562
3.7173e-05
-0.000220955
3.066e-05
-0.000220144
2.44134e-05
1.76752e-05
9.02213e-06
-1.23946e-05
-7.51951e-06
5.23293e-06
5.18624e-06
1.05675e-06
1.64672e-05
-3.407e-06
2.59868e-05
-8.07267e-06
3.31212e-05
-1.33505e-05
3.75764e-05
-2.05399e-05
4.04805e-05
-3.13265e-05
4.44201e-05
-4.67594e-05
5.18619e-05
-6.67054e-05
6.36318e-05
-8.98638e-05
7.85837e-05
-0.00011419
9.444e-05
-0.000137468
0.000108807
-0.00015772
0.000119761
-0.000173735
0.000126311
-0.000185362
0.000128507
-0.000193318
0.000127198
-0.000198715
0.000123507
-0.000202594
0.000118416
-0.000205625
0.000112509
-0.000208096
0.0001061
-0.000210046
9.93283e-05
-0.000211477
9.22857e-05
-0.000212277
8.49313e-05
-0.000212243
7.72489e-05
-0.000211152
6.9361e-05
-0.000208743
6.1256e-05
-0.000204844
5.29907e-05
-0.000199341
4.47197e-05
-0.000192316
3.66547e-05
-0.000184196
2.90524e-05
-0.000175229
2.16936e-05
-0.000165361
1.45456e-05
1.29413e-05
-9.34489e-07
9.3449e-07
-1.95843e-06
1.02394e-06
-1.84971e-06
-1.08722e-07
-2.20179e-08
-1.82769e-06
3.19171e-06
-3.21373e-06
-3.58156e-06
-1.17029e-06
2.10478e-06
-1.5055e-06
1.35916e-06
5.44136e-07
-2.15836e-06
5.10065e-06
-6.3842e-06
1.08864e-05
-8.99949e-06
-9.21258e-06
-6.00896e-07
2.70568e-06
9.27305e-07
-1.6904e-07
5.84114e-06
-7.0722e-06
1.28405e-05
-1.33835e-05
2.00722e-05
-1.62313e-05
-1.53388e-05
3.76739e-07
2.32894e-06
4.49382e-06
-4.28612e-06
1.22851e-05
-1.48634e-05
2.10794e-05
-2.21779e-05
2.87016e-05
-2.38534e-05
-2.08816e-05
1.64075e-06
6.88191e-07
8.86887e-06
-1.15142e-05
1.89186e-05
-2.49132e-05
2.80944e-05
-3.13537e-05
3.46485e-05
-3.04075e-05
-2.47958e-05
3.47685e-06
-2.78866e-06
1.35659e-05
-2.16033e-05
2.42983e-05
-3.56456e-05
3.21001e-05
-3.91554e-05
3.65863e-05
-3.48937e-05
-2.65267e-05
5.77694e-06
-8.5656e-06
1.75149e-05
-3.33413e-05
2.70114e-05
-4.51421e-05
3.22529e-05
-4.43969e-05
3.38999e-05
-3.65407e-05
-2.60448e-05
8.34153e-06
-1.69071e-05
1.97319e-05
-4.47317e-05
2.64853e-05
-5.18955e-05
2.87447e-05
-4.66563e-05
2.82632e-05
-3.60592e-05
-2.43668e-05
1.03987e-05
-2.73058e-05
1.97076e-05
-5.40406e-05
2.33952e-05
-5.55831e-05
2.33997e-05
-4.66607e-05
2.1688e-05
-3.43476e-05
-2.20296e-05
1.08134e-05
-3.81192e-05
1.71487e-05
-6.03759e-05
1.86631e-05
-5.70975e-05
1.74211e-05
-4.54187e-05
1.51289e-05
-3.20554e-05
-1.92953e-05
1.78197e-06
-3.30359e-06
-5.99789e-06
-3.03372e-06
1.00019e-05
-8.33146e-06
2.17649e-05
-1.39715e-05
3.16269e-05
-2.01411e-05
3.92908e-05
-2.78481e-05
4.52834e-05
-3.87655e-05
5.13979e-05
-5.42636e-05
5.99182e-05
-7.45253e-05
7.21235e-05
-9.83177e-05
8.74242e-05
-0.000123406
0.000103672
-0.000147262
0.000118295
-0.000167748
0.000129294
-0.000183692
0.000135704
-0.000195059
0.000137678
-0.000202706
0.000136155
-0.000207829
0.000132322
-0.00021141
0.000127088
-0.000214009
0.000121014
-0.000215844
0.000114344
-0.000216736
0.000106992
-0.000216209
9.88006e-05
-0.000213581
8.96579e-05
-0.000208157
7.95078e-05
-0.000199522
6.86134e-05
-0.00018744
5.72787e-05
-0.000171939
4.57551e-05
-0.000153386
3.44383e-05
-0.000132381
2.37145e-05
-0.000109667
1.39406e-05
-8.61334e-05
5.5187e-06
-6.24346e-05
-2.00516e-06
-3.67869e-05
-1.11021e-05
-2.38456e-05
-6.0151e-06
1.67816e-06
1.03336e-06
-1.17006e-05
1.56875e-05
-1.79594e-05
2.80237e-05
-2.48402e-05
3.85076e-05
-3.29842e-05
4.74348e-05
-4.37216e-05
5.60209e-05
-5.84313e-05
6.61076e-05
-7.75934e-05
7.90803e-05
-0.000100276
9.48066e-05
-0.000124345
0.000111493
-0.000147227
0.000126554
-0.000166761
0.000137829
-0.000181788
0.000144321
-0.000192342
0.000146258
-0.000199308
0.000144644
-0.000203786
0.000140633
-0.000206639
0.000135175
-0.000208267
0.000128716
-0.000208411
0.000121159
-0.000206355
0.000112288
-0.000201284
0.000101921
-0.000192473
8.99894e-05
-0.000179514
7.66995e-05
-0.000162571
6.25648e-05
-0.000142193
4.82346e-05
-0.000119277
3.43627e-05
-9.51625e-05
2.16411e-05
-7.14098e-05
1.06856e-05
-4.9627e-05
1.93168e-06
-3.11473e-05
-4.53912e-06
-1.64582e-05
-9.17038e-06
-4.82044e-06
-1.36429e-05
3.02815e-06
-1.89507e-05
-2.08175e-05
-1.37161e-05
7.51358e-06
7.88071e-06
-2.03663e-05
2.23376e-05
-2.78293e-05
3.54868e-05
-3.64824e-05
4.71607e-05
-4.72698e-05
5.82222e-05
-6.13799e-05
7.0131e-05
-7.94517e-05
8.41793e-05
-0.000100898
0.000100526
-0.000123852
0.00011776
-0.000145808
0.000133449
-0.00016457
0.000145316
-0.000178942
0.000152201
-0.000188895
0.000154275
-0.000195243
0.000152606
-0.00019899
0.000148391
-0.000200849
0.000142491
-0.000200776
0.000135102
-0.000198109
0.000126049
-0.000192071
0.000115121
-0.000181954
0.00010217
-0.000167402
8.73686e-05
-0.000148657
7.12448e-05
-0.000126623
5.46656e-05
-0.000102706
3.86478e-05
-7.8591e-05
2.41195e-05
-5.60855e-05
1.18572e-05
-3.68248e-05
2.38045e-06
-2.17358e-05
-4.40351e-06
-1.07353e-05
-9.06883e-06
-3.14061e-06
-1.21338e-05
1.93485e-06
-1.42458e-05
4.59808e-06
-1.63062e-05
4.34108e-06
-1.86937e-05
-1.64764e-05
-2.14851e-05
1.43163e-05
1.46824e-05
-2.92958e-05
3.01483e-05
-3.83525e-05
4.45435e-05
-4.92871e-05
5.80952e-05
-6.30002e-05
7.19354e-05
-8.01373e-05
8.72681e-05
-0.000100392
0.000104434
-0.000122241
0.000122376
-0.000143362
0.000138881
-0.000161535
0.000151622
-0.000175466
0.000159247
-0.00018503
0.000161765
-0.000190853
0.000160098
-0.000193783
0.000155537
-0.000194263
0.000148871
-0.000191971
0.000140199
-0.000186216
0.000129347
-0.000176304
0.000116138
-0.000161858
0.000100675
-0.000143126
8.34391e-05
-0.000121062
6.53038e-05
-9.72068e-05
4.73899e-05
-7.34081e-05
3.08669e-05
-5.14487e-05
1.66883e-05
-3.27617e-05
5.43255e-06
-1.81028e-05
-2.80174e-06
-7.31479e-06
-8.40755e-06
2.48311e-07
-1.19666e-05
5.10052e-06
-1.3921e-05
7.68292e-06
-1.47162e-05
8.37999e-06
-1.49429e-05
7.2854e-06
-1.52116e-05
4.12691e-06
-1.55352e-05
-1.23495e-05
-2.94899e-05
2.22532e-05
2.1553e-05
-3.8741e-05
3.93994e-05
-4.97658e-05
5.55683e-05
-6.32299e-05
7.15593e-05
-7.96234e-05
8.83289e-05
-9.88258e-05
0.00010647
-0.00011965
0.000125259
-0.000140039
0.000142764
-0.000157805
0.000156648
-0.000171489
0.000165306
-0.000180737
0.000168494
-0.000185999
0.000167027
-0.000188102
0.000162201
-0.000187196
0.00015463
-0.00018274
0.000144415
-0.000174151
0.000131611
-0.00016098
0.000116176
-0.00014334
9.84978e-05
-0.000122056
7.93901e-05
-9.86002e-05
5.99832e-05
-7.4815e-05
4.15185e-05
-5.25289e-05
2.51039e-05
-3.31742e-05
1.15122e-05
-1.75322e-05
1.04628e-06
-5.61958e-06
-6.48004e-06
3.03473e-06
-1.1456e-05
8.92062e-06
-1.42934e-05
1.24341e-05
-1.54801e-05
1.40042e-05
-1.54911e-05
1.38714e-05
-1.45833e-05
1.22536e-05
-1.33252e-05
9.22975e-06
-1.21877e-05
4.70439e-06
-1.10098e-05
-7.64511e-06
-3.78839e-05
3.15541e-05
2.85829e-05
-4.885e-05
5.03655e-05
-6.20319e-05
6.87503e-05
-7.78639e-05
8.73913e-05
-9.61918e-05
0.000106657
-0.000116115
0.000126394
-0.00013587
0.000145014
-0.000153379
0.000160273
-0.000167046
0.000170315
-0.000176234
0.000174494
-0.000181218
0.000173478
-0.000182583
0.000168392
-0.000180307
0.000159925
-0.000173898
0.000148222
-0.000162968
0.000133484
-0.000147352
0.000115995
-0.000127589
9.64125e-05
-0.000104939
7.58485e-05
-8.11547e-05
5.56057e-05
-5.80999e-05
3.69284e-05
-3.73454e-05
2.0764e-05
-1.98946e-05
7.65308e-06
-6.08492e-06
-2.29743e-06
4.33692e-06
-9.37556e-06
1.18609e-05
-1.40041e-05
1.67939e-05
-1.6389e-05
1.95045e-05
-1.70041e-05
2.0387e-05
-1.63626e-05
1.97228e-05
-1.48269e-05
1.77598e-05
-1.26203e-05
1.46621e-05
-1.02274e-05
1.04324e-05
-7.95803e-06
5.00898e-06
-5.58642e-06
-2.63612e-06
-4.66855e-05
4.2484e-05
3.57556e-05
-5.96176e-05
6.32977e-05
-7.49011e-05
8.40337e-05
-9.24817e-05
0.000104972
-0.000111625
0.0001258
-0.000130857
0.000145626
-0.000148227
0.000162383
-0.000162035
0.000174081
-0.000171471
0.000179751
-0.000176401
0.000179423
-0.000177229
0.000174307
-0.000173902
0.000165065
-0.000166012
0.000152035
-0.000153344
0.000135553
-0.00013607
0.00011621
-0.00011505
9.49746e-05
-9.18083e-05
7.31712e-05
-6.81834e-05
5.22235e-05
-4.59083e-05
3.33306e-05
-2.62652e-05
1.72853e-05
-9.92387e-06
4.42271e-06
2.9582e-06
-5.22899e-06
1.26216e-05
-1.19608e-05
1.94398e-05
-1.61938e-05
2.3764e-05
-1.83282e-05
2.58934e-05
-1.85184e-05
2.61865e-05
-1.72972e-05
2.50952e-05
-1.52714e-05
2.28306e-05
-1.25623e-05
1.96499e-05
-9.43966e-06
1.56536e-05
-6.23104e-06
1.07848e-05
-3.08928e-06
4.99552e-06
2.0288e-07
2.35939e-06
-5.59241e-05
5.52272e-05
4.31809e-05
-7.07964e-05
7.817e-05
-8.77588e-05
0.000100996
-0.000106196
0.000123409
-0.000124948
0.000144553
-0.00014226
0.000162938
-0.000156347
0.00017647
-0.000166102
0.000183836
-0.000171537
0.000185187
-0.000172102
0.000179987
-0.000168132
0.000170337
-0.000159302
0.000156235
-0.000145554
0.000138288
-0.00012734
0.00011734
-0.000105766
9.4636e-05
-8.24754e-05
7.16839e-05
-5.92776e-05
4.99734e-05
-3.77243e-05
3.06702e-05
-1.88467e-05
1.4453e-05
-3.09889e-06
1.53747e-06
9.41163e-06
-8.08782e-06
1.87428e-05
-1.45602e-05
2.51437e-05
-1.83617e-05
2.89382e-05
-1.99883e-05
3.04652e-05
-1.98552e-05
3.03145e-05
-1.83677e-05
2.89171e-05
-1.58997e-05
2.65041e-05
-1.28585e-05
2.33278e-05
-9.38598e-06
1.95551e-05
-5.66696e-06
1.52219e-05
-1.89779e-06
1.02362e-05
1.8964e-06
4.5959e-06
5.84316e-06
6.95529e-06
-6.54123e-05
6.97597e-05
5.08798e-05
-8.18964e-05
9.46541e-05
-9.98174e-05
0.000118917
-0.000118106
0.000141697
-0.000135368
0.000161815
-0.000149858
0.000177428
-0.000160259
0.000186871
-0.000166248
0.000189825
-0.000167162
0.000186101
-0.000162994
0.000175819
-0.00015377
0.000161113
-0.000139577
0.000142042
-0.000121064
0.000119775
-9.95139e-05
9.57894e-05
-7.66222e-05
7.17444e-05
-5.41111e-05
4.91727e-05
-3.33513e-05
2.92136e-05
-1.51691e-05
1.2488e-05
1.50422e-07
-8.66531e-07
1.24524e-05
-1.07646e-05
2.16977e-05
-1.7333e-05
2.78579e-05
-2.07204e-05
3.12593e-05
-2.17631e-05
3.25401e-05
-2.12691e-05
3.20415e-05
-1.93566e-05
3.02903e-05
-1.66166e-05
2.77483e-05
-1.33577e-05
2.47003e-05
-9.81049e-06
2.12981e-05
-5.98379e-06
1.75625e-05
-1.93133e-06
1.344e-05
2.22474e-06
8.84354e-06
6.49285e-06
3.87729e-06
1.08094e-05
1.08326e-05
-7.47501e-05
8.58169e-05
5.86928e-05
-9.22582e-05
0.000112162
-0.000110272
0.000136931
-0.00012747
0.000158895
-0.000142433
0.000176779
-0.000153689
0.000188684
-0.000160551
0.000193733
-0.000162238
0.000191511
-0.00015825
0.000182114
-0.000149228
0.000166796
-0.000135171
0.000147057
-0.000116918
0.000123788
-9.58728e-05
9.87301e-05
-7.37638e-05
7.36804e-05
-5.22317e-05
5.02122e-05
-3.24973e-05
2.94383e-05
-1.52282e-05
1.19445e-05
-5.92101e-07
-2.14803e-06
1.13238e-05
-1.27825e-05
2.02414e-05
-1.96821e-05
2.63328e-05
-2.34245e-05
2.9928e-05
-2.43155e-05
3.11331e-05
-2.29683e-05
3.03192e-05
-2.04551e-05
2.83014e-05
-1.73389e-05
2.56973e-05
-1.40124e-05
2.29358e-05
-1.05962e-05
2.01175e-05
-6.99213e-06
1.71906e-05
-3.0569e-06
1.40417e-05
1.21753e-06
1.05672e-05
5.69926e-06
6.70567e-06
1.03544e-05
2.6999e-06
1.48152e-05
1.35325e-05
-8.34165e-05
0.000102941
6.62926e-05
-0.000101245
0.00012999
-0.000118549
0.000154235
-0.00013397
0.000174316
-0.000146197
0.000189005
-0.000154081
0.000196569
-0.000156909
0.000196561
-0.000153851
0.000188453
-0.000145353
0.000173616
-0.000131962
0.000153405
-0.000114437
0.000129532
-9.42806e-05
0.000103631
-7.32565e-05
7.7706e-05
-5.29689e-05
5.33928e-05
-3.45531e-05
3.17964e-05
-1.85825e-05
1.34677e-05
-5.16529e-06
-1.47274e-06
5.69101e-06
-1.30043e-05
1.38927e-05
-2.09842e-05
1.95849e-05
-2.53742e-05
2.28502e-05
-2.66899e-05
2.39782e-05
-2.54435e-05
2.36648e-05
-2.26549e-05
2.21967e-05
-1.8987e-05
2.01278e-05
-1.527e-05
1.79463e-05
-1.1831e-05
1.58968e-05
-8.54667e-06
1.39488e-05
-5.0441e-06
1.19237e-05
-1.03188e-06
9.65378e-06
3.48749e-06
7.02628e-06
8.32676e-06
4.031e-06
1.33496e-05
1.14964e-06
1.76965e-05
1.46821e-05
-9.09229e-05
0.000120578
7.32859e-05
-0.000108383
0.000147451
-0.000124314
0.000170165
-0.000137433
0.000187435
-0.000146426
0.000197998
-0.000150873
0.000201017
-0.000149214
0.000194902
-0.00014193
0.000181169
-0.000129539
0.000161225
-0.00011312
0.000136987
-9.41282e-05
0.00011054
-7.4382e-05
8.38852e-05
-5.55055e-05
5.88295e-05
-3.86272e-05
3.65145e-05
-2.43103e-05
1.74795e-05
-1.2667e-05
1.82439e-06
-3.62199e-06
-1.05177e-05
2.94777e-06
-1.95741e-05
7.4008e-06
-2.54372e-05
1.02952e-05
-2.82686e-05
1.20236e-05
-2.84183e-05
1.2798e-05
-2.62179e-05
1.26547e-05
-2.25117e-05
1.1859e-05
-1.81912e-05
1.07143e-05
-1.41252e-05
9.55423e-06
-1.06709e-05
8.5422e-06
-7.53464e-06
7.58785e-06
-4.08975e-06
6.48542e-06
7.05421e-08
5.07693e-06
4.89598e-06
3.28548e-06
1.01182e-05
1.20774e-06
1.54274e-05
-3.95279e-07
1.92995e-05
1.42869e-05
-9.68616e-05
0.00013815
7.92895e-05
-0.00011332
0.00016391
-0.000127334
0.000184179
-0.000137825
0.000197926
-0.000143743
0.000203916
-0.000144178
0.000201452
-0.000138471
0.000189194
-0.000127532
0.00017023
-0.000112465
0.000146158
-9.48397e-05
0.000119362
-7.64569e-05
9.2157e-05
-5.90218e-05
6.64501e-05
-4.37356e-05
4.35433e-05
-3.12336e-05
2.40125e-05
-2.1685e-05
7.93099e-06
-1.49645e-05
-4.89611e-06
-1.06545e-05
-1.48278e-05
-7.91333e-06
-2.23152e-05
-5.80722e-06
-2.75433e-05
-3.75812e-06
-3.03177e-05
-1.73333e-06
-3.04431e-05
8.6914e-08
-2.80381e-05
1.39675e-06
-2.38215e-05
2.0884e-06
-1.88829e-05
2.26334e-06
-1.43002e-05
2.18707e-06
-1.05947e-05
2.06614e-06
-7.4137e-06
1.88027e-06
-3.90389e-06
1.47797e-06
4.72844e-07
7.46474e-07
5.62747e-06
-3.30061e-07
1.11947e-05
-1.4769e-06
1.65742e-05
-1.73361e-06
1.95562e-05
1.25532e-05
-0.000100921
0.000155108
8.39635e-05
-0.000115892
0.00017888
-0.000127669
0.000195957
-0.000135284
0.00020554
-0.000138097
0.000206729
-0.000134449
0.000197805
-0.000125438
0.000180183
-0.000112034
0.000156826
-9.59e-05
0.000130024
-7.89095e-05
0.000102371
-6.28284e-05
7.60759e-05
-4.90021e-05
5.26239e-05
-3.82072e-05
3.27483e-05
-3.07325e-05
1.65378e-05
-2.64298e-05
3.62829e-06
-2.45874e-05
-6.73843e-06
-2.38952e-05
-1.552e-05
-2.30681e-05
-2.31423e-05
-2.1445e-05
-2.91665e-05
-1.89348e-05
-3.2828e-05
-1.57649e-05
-3.36129e-05
-1.23058e-05
-3.14972e-05
-9.05206e-06
-2.70753e-05
-6.46173e-06
-2.14732e-05
-4.75408e-06
-1.60078e-05
-3.8053e-06
-1.15435e-05
-3.28609e-06
-7.93291e-06
-2.98075e-06
-4.20924e-06
-2.90893e-06
4.01023e-07
-3.14306e-06
5.8616e-06
-3.61203e-06
1.16637e-05
-3.72511e-06
1.66873e-05
-2.50446e-06
1.83356e-05
1.00488e-05
-0.000102945
0.000170978
8.70746e-05
-0.000116069
0.000192004
-0.000125428
0.000205316
-0.000130348
0.00021046
-0.000129595
0.000205976
-0.000122739
0.000190948
-0.000111347
0.000168791
-9.68936e-05
0.000142372
-8.1298e-05
0.000114428
-6.64395e-05
8.7513e-05
-5.38154e-05
6.34518e-05
-4.43958e-05
4.32042e-05
-3.86198e-05
2.69723e-05
-3.63598e-05
1.42778e-05
-3.67061e-05
3.97454e-06
-3.79996e-05
-5.44494e-06
-3.87701e-05
-1.47495e-05
-3.83966e-05
-2.35159e-05
-3.67568e-05
-3.08062e-05
-3.3843e-05
-3.57418e-05
-2.97555e-05
-3.77003e-05
-2.47955e-05
-3.64573e-05
-1.95321e-05
-3.23386e-05
-1.47261e-05
-2.62792e-05
-1.10673e-05
-1.96666e-05
-8.81379e-06
-1.3797e-05
-7.64008e-06
-9.10663e-06
-6.98489e-06
-4.86442e-06
-6.56828e-06
-1.55923e-08
-6.3518e-06
5.64512e-06
-6.10516e-06
1.14171e-05
-5.14827e-06
1.57304e-05
-2.70229e-06
1.58896e-05
7.34649e-06
-0.00010295
0.000185392
8.85361e-05
-0.000114024
0.000203078
-0.00012097
0.000212262
-0.000123195
0.000212685
-0.000119151
0.000201933
-0.000110019
0.000181816
-9.74557e-05
0.000156227
-8.33173e-05
0.000128234
-6.95569e-05
0.000100668
-5.78462e-05
7.58023e-05
-4.93518e-05
5.49574e-05
-4.46898e-05
3.85422e-05
-4.38032e-05
2.60857e-05
-4.56872e-05
1.61618e-05
-4.853e-05
6.81742e-06
-5.07965e-05
-3.17848e-06
-5.19826e-05
-1.35633e-05
-5.20173e-05
-2.34812e-05
-5.0752e-05
-3.20715e-05
-4.79883e-05
-3.85055e-05
-4.36126e-05
-4.20761e-05
-3.77351e-05
-4.23348e-05
-3.08223e-05
-3.92513e-05
-2.37502e-05
-3.33513e-05
-1.76324e-05
-2.57844e-05
-1.33523e-05
-1.80772e-05
-1.10136e-05
-1.14453e-05
-9.88367e-06
-5.99432e-06
-9.14744e-06
-7.51821e-07
-8.43967e-06
4.93734e-06
-7.41162e-06
1.0389e-05
-5.52592e-06
1.38447e-05
-2.38329e-06
1.2747e-05
4.9632e-06
-0.000101115
0.00019815
8.83571e-05
-0.000110138
0.000212102
-0.000114825
0.000216949
-0.000114063
0.000211922
-0.000107652
0.000195521
-9.72602e-05
0.000171425
-8.47306e-05
0.000143698
-7.20386e-05
0.000115542
-6.09993e-05
8.96283e-05
-5.29908e-05
6.77938e-05
-4.88051e-05
5.07717e-05
-4.85184e-05
3.82554e-05
-5.11869e-05
2.87542e-05
-5.49737e-05
1.99486e-05
-5.8284e-05
1.01278e-05
-6.06724e-05
-7.90111e-07
-6.22289e-05
-1.20068e-05
-6.28912e-05
-2.28188e-05
-6.23874e-05
-3.25753e-05
-6.03581e-05
-4.05348e-05
-5.6483e-05
-4.59511e-05
-5.06179e-05
-4.82e-05
-4.29459e-05
-4.69233e-05
-3.4155e-05
-4.21423e-05
-2.54673e-05
-3.44721e-05
-1.83254e-05
-2.5219e-05
-1.37062e-05
-1.60645e-05
-1.13922e-05
-8.30835e-06
-1.01727e-05
-1.97135e-06
-9.00681e-06
3.77146e-06
-7.38166e-06
8.76388e-06
-4.91547e-06
1.13785e-05
-1.77686e-06
9.60835e-06
3.18635e-06
-9.75936e-05
0.000209112
8.66318e-05
-0.000104518
0.000219027
-0.000107165
0.000219595
-0.000103917
0.000208675
-9.60057e-05
0.00018761
-8.53138e-05
0.000160733
-7.37894e-05
0.000132173
-6.3327e-05
0.000105079
-5.54848e-05
8.17861e-05
-5.12822e-05
6.35912e-05