/*--------------------------------*- C++ -*----------------------------------*\
| =========                 |                                                 |
| \\      /  F ield         | OpenFOAM: The Open Source CFD Toolbox           |
|  \\    /   O peration     | Version:  v2012                                 |
|   \\  /    A nd           | Website:  www.openfoam.com                      |
|    \\/     M anipulation  |                                                 |
\*---------------------------------------------------------------------------*/
FoamFile
{
    version     2.0;
    format      ascii;
    class       volVectorField;
    location    "684";
    object      U;
}
// * * * * * * * * * * * * * * * * * * * * * * * * * * * * * * * * * * * * * //

dimensions      [0 1 -1 0 0 0 0];


internalField   nonuniform List<vector> 
6018
(
(0.025289 -0.470799 0)
(0.0246311 -0.51885 0)
(0.0238836 -0.562217 0)
(0.0231156 -0.601671 0)
(0.0215212 -0.636588 0)
(0.0196587 -0.667452 0)
(0.018433 -0.69522 0)
(0.0176225 -0.72085 0)
(0.0171355 -0.745004 0)
(0.0168967 -0.768212 0)
(0.0168624 -0.790893 0)
(0.0169867 -0.813376 0)
(0.0171795 -0.835859 0)
(0.0173549 -0.858413 0)
(0.0174617 -0.88108 0)
(0.0174013 -0.904061 0)
(0.0170257 -0.927688 0)
(0.0159527 -0.95135 0)
(0.0118373 -0.971376 0)
(0.00438515 -0.984574 0)
(0.0548145 -0.952255 0)
(0.0471258 -0.973162 0)
(0.0405709 -0.988028 0)
(0.0348482 -0.998239 0)
(0.0302203 -1.00507 0)
(0.0266562 -1.01033 0)
(0.0240128 -1.01421 0)
(0.022125 -1.01699 0)
(0.0208313 -1.01887 0)
(0.0200134 -1.02001 0)
(0.0195821 -1.02059 0)
(0.0194146 -1.02076 0)
(0.019308 -1.02062 0)
(0.0192538 -1.02018 0)
(0.0192966 -1.01938 0)
(0.0193128 -1.01829 0)
(0.0191111 -1.01709 0)
(0.0190234 -1.01535 0)
(0.0192886 -1.00997 0)
(0.00951655 -1.00195 0)
(0.0636938 -1.07266 0)
(0.0532131 -1.07597 0)
(0.0443917 -1.07731 0)
(0.0371513 -1.07711 0)
(0.031369 -1.07581 0)
(0.0268756 -1.07365 0)
(0.0234664 -1.0708 0)
(0.0209361 -1.06738 0)
(0.0190861 -1.0635 0)
(0.0177417 -1.05923 0)
(0.0167598 -1.05468 0)
(0.0160999 -1.0498 0)
(0.0158298 -1.04413 0)
(0.0157168 -1.03845 0)
(0.0154716 -1.03271 0)
(0.0150377 -1.02679 0)
(0.0142995 -1.0207 0)
(0.0131642 -1.01401 0)
(0.0110284 -1.00667 0)
(0.0053376 -1.00121 0)
(0.0643945 -1.10679 0)
(0.0525231 -1.1056 0)
(0.0426419 -1.10306 0)
(0.0346209 -1.09952 0)
(0.028264 -1.09524 0)
(0.0233262 -1.09041 0)
(0.0195641 -1.08513 0)
(0.0167531 -1.07947 0)
(0.0146885 -1.07349 0)
(0.0131833 -1.06721 0)
(0.0120743 -1.06071 0)
(0.011274 -1.05403 0)
(0.0107749 -1.04713 0)
(0.0104337 -1.04002 0)
(0.0100806 -1.03276 0)
(0.00961549 -1.02552 0)
(0.00893702 -1.0183 0)
(0.00794244 -1.01101 0)
(0.00612254 -1.00438 0)
(0.00246815 -1.0007 0)
(0.0632052 -1.12266 0)
(0.050146 -1.11938 0)
(0.0393862 -1.11482 0)
(0.030747 -1.10942 0)
(0.0239458 -1.10347 0)
(0.0186708 -1.09715 0)
(0.0146348 -1.09055 0)
(0.0115885 -1.08373 0)
(0.00931475 -1.07672 0)
(0.00762285 -1.06954 0)
(0.00635652 -1.06223 0)
(0.00542014 -1.0548 0)
(0.00476826 -1.04721 0)
(0.00431416 -1.03949 0)
(0.00394608 -1.03173 0)
(0.00359808 -1.02412 0)
(0.00322719 -1.0167 0)
(0.0027807 -1.00954 0)
(0.00205087 -1.00357 0)
(0.000765715 -1.00057 0)
(0.0606557 -1.13327 0)
(0.0462492 -1.12829 0)
(0.0346575 -1.12202 0)
(0.0255356 -1.11511 0)
(0.0184541 -1.10789 0)
(0.0130046 -1.10054 0)
(0.00884369 -1.09312 0)
(0.00569699 -1.08565 0)
(0.00333422 -1.07814 0)
(0.00156021 -1.07059 0)
(0.000225106 -1.063 0)
(-0.000773712 -1.05535 0)
(-0.00150394 -1.04759 0)
(-0.00200597 -1.03973 0)
(-0.00232358 -1.0319 0)
(-0.00247853 -1.02423 0)
(-0.00247607 -1.01676 0)
(-0.00230555 -1.00957 0)
(-0.0017892 -1.00358 0)
(-0.000682387 -1.00057 0)
(0.0566784 -1.13987 0)
(0.0410876 -1.13314 0)
(0.0287805 -1.12508 0)
(0.0193998 -1.11681 0)
(0.0122624 -1.10862 0)
(0.00683814 -1.10064 0)
(0.00271152 -1.09286 0)
(-0.000413193 -1.08524 0)
(-0.00276807 -1.07774 0)
(-0.00455182 -1.07033 0)
(-0.00590921 -1.06297 0)
(-0.00694995 -1.05563 0)
(-0.00774985 -1.04823 0)
(-0.00828603 -1.04074 0)
(-0.00857249 -1.03323 0)
(-0.0085808 -1.02582 0)
(-0.00824653 -1.01847 0)
(-0.00750793 -1.0111 0)
(-0.00588513 -1.00441 0)
(-0.00239418 -1.0007 0)
(0.0518007 -1.13675 0)
(0.0343025 -1.12715 0)
(0.0215148 -1.11757 0)
(0.012338 -1.10825 0)
(0.00556484 -1.09966 0)
(0.000484499 -1.0917 0)
(-0.00336988 -1.08439 0)
(-0.00626045 -1.07753 0)
(-0.00842194 -1.07104 0)
(-0.0100849 -1.06465 0)
(-0.0114072 -1.05838 0)
(-0.012464 -1.0521 0)
(-0.0133203 -1.04571 0)
(-0.0138975 -1.03966 0)
(-0.0141837 -1.03346 0)
(-0.0141685 -1.02727 0)
(-0.0137248 -1.02097 0)
(-0.0128064 -1.01414 0)
(-0.0108374 -1.00672 0)
(-0.00527958 -1.00121 0)
(0.0413925 -1.08937 0)
(0.0237179 -1.07488 0)
(0.0123001 -1.06235 0)
(0.00443189 -1.05262 0)
(-0.00125778 -1.04541 0)
(-0.0055092 -1.04001 0)
(-0.00871105 -1.03587 0)
(-0.0111663 -1.03262 0)
(-0.0130837 -1.03001 0)
(-0.0145881 -1.02789 0)
(-0.0157565 -1.02614 0)
(-0.0166224 -1.02466 0)
(-0.0173042 -1.02333 0)
(-0.0178827 -1.02199 0)
(-0.0183533 -1.02053 0)
(-0.0186422 -1.01899 0)
(-0.0186753 -1.01749 0)
(-0.0187763 -1.01554 0)
(-0.0191457 -1.00999 0)
(-0.00948391 -1.00196 0)
(0.0196219 -0.770466 0)
(0.00934915 -0.743656 0)
(0.00214198 -0.727388 0)
(-0.00246865 -0.721643 0)
(-0.00585168 -0.722395 0)
(-0.00812439 -0.728231 0)
(-0.0100889 -0.737898 0)
(-0.0116801 -0.75054 0)
(-0.0129694 -0.76548 0)
(-0.0140328 -0.782231 0)
(-0.0149258 -0.800431 0)
(-0.015672 -0.819799 0)
(-0.0162649 -0.840102 0)
(-0.0167285 -0.861144 0)
(-0.0170532 -0.882774 0)
(-0.0171449 -0.905047 0)
(-0.0168659 -0.928209 0)
(-0.0158568 -0.951592 0)
(-0.011794 -0.971463 0)
(-0.00436523 -0.984585 0)
(-0.00169435 0.042243 0)
(0.000777796 0.0538586 0)
(0.00333213 0.056346 0)
(0.00429919 0.050222 0)
(0.00358554 0.039007 0)
(0.00189079 0.0270295 0)
(0.00051216 0.0174774 0)
(-0.000313538 0.0116497 0)
(-0.000908509 0.00989985 0)
(-0.00145852 0.0123418 0)
(-0.00244376 0.0195479 0)
(-0.00265069 0.0298558 0)
(-0.00175709 0.0402026 0)
(-0.000357151 0.0482273 0)
(0.00055122 0.0514533 0)
(0.000643643 0.0508031 0)
(-0.000380175 0.0488731 0)
(-0.00253396 0.047905 0)
(-0.00472982 0.0484337 0)
(-0.0044682 0.0493467 0)
(-0.00287029 0.0487902 0)
(-0.00154042 0.0460608 0)
(-0.000630697 0.0409072 0)
(0.000427584 0.0309078 0)
(0.00165179 0.0168121 0)
(0.00299394 -0.00732319 0)
(0.00313604 -0.0394239 0)
(0.00455344 -0.0773125 0)
(0.00829871 -0.12357 0)
(0.0131177 -0.176463 0)
(0.0185273 -0.234948 0)
(0.0230503 -0.297197 0)
(0.0252614 -0.358997 0)
(0.0256642 -0.417387 0)
(-0.020783 0.0960285 0)
(-0.0101625 0.115256 0)
(0.00167505 0.123728 0)
(0.0113814 0.120882 0)
(0.0164611 0.10805 0)
(0.0163515 0.0889231 0)
(0.0123126 0.0688349 0)
(0.00617559 0.0530516 0)
(-0.000679426 0.0450045 0)
(-0.00724465 0.0454573 0)
(-0.0134023 0.0549672 0)
(-0.0156314 0.0680645 0)
(-0.0141129 0.0797836 0)
(-0.00948109 0.0879816 0)
(-0.00306244 0.0895623 0)
(0.00118799 0.0873852 0)
(0.0020438 0.0820874 0)
(0.00178603 0.0734314 0)
(0.00215461 0.0604514 0)
(0.00281222 0.0426947 0)
(0.00387581 0.0170283 0)
(0.00880913 -0.0185588 0)
(0.0181102 -0.0702044 0)
(0.0300696 -0.145526 0)
(0.0433565 -0.232904 0)
(0.0553763 -0.32848 0)
(0.0653494 -0.427126 0)
(0.0733457 -0.52477 0)
(0.0789703 -0.617097 0)
(0.0815934 -0.701138 0)
(0.0809003 -0.774454 0)
(0.0770269 -0.835755 0)
(0.0706502 -0.88528 0)
(0.0627337 -0.923515 0)
(-0.0406718 0.144781 0)
(-0.0218693 0.162694 0)
(-0.00169647 0.169429 0)
(0.0159409 0.166186 0)
(0.0277164 0.15422 0)
(0.0317468 0.135729 0)
(0.0280538 0.11437 0)
(0.018409 0.0950917 0)
(0.00545979 0.0826199 0)
(-0.00815051 0.0789694 0)
(-0.020432 0.0836404 0)
(-0.0220479 0.0889087 0)
(-0.0175683 0.0904551 0)
(-0.00858719 0.086735 0)
(0.000410979 0.0775732 0)
(0.00686197 0.0640055 0)
(0.0110386 0.0445364 0)
(0.015214 0.0161606 0)
(0.0219175 -0.0245923 0)
(0.0339283 -0.0853271 0)
(0.0524511 -0.169229 0)
(0.0750675 -0.271002 0)
(0.0980959 -0.38312 0)
(0.117909 -0.498185 0)
(0.132233 -0.609714 0)
(0.14113 -0.712565 0)
(0.144617 -0.803221 0)
(0.143196 -0.879617 0)
(0.137586 -0.940943 0)
(0.128487 -0.987272 0)
(0.11667 -1.02022 0)
(0.103244 -1.04278 0)
(0.0893189 -1.05749 0)
(0.0758562 -1.06666 0)
(-0.0583637 0.182613 0)
(-0.030382 0.194674 0)
(-0.00186422 0.195962 0)
(0.0226962 0.189953 0)
(0.0396104 0.177026 0)
(0.0469906 0.159222 0)
(0.0440626 0.138995 0)
(0.0319496 0.119813 0)
(0.013853 0.105593 0)
(-0.00532419 0.098166 0)
(-0.0203527 0.0924102 0)
(-0.0197267 0.0830516 0)
(-0.0112841 0.0683006 0)
(0.00277299 0.0478224 0)
(0.0167805 0.0218777 0)
(0.0282107 -0.0122648 0)
(0.040886 -0.0614664 0)
(0.0594169 -0.131446 0)
(0.0848816 -0.223908 0)
(0.115348 -0.33571 0)
(0.14636 -0.458448 0)
(0.173671 -0.581715 0)
(0.194066 -0.696624 0)
(0.205784 -0.797372 0)
(0.208829 -0.881409 0)
(0.204497 -0.948123 0)
(0.194385 -0.998744 0)
(0.180211 -1.03524 0)
(0.163608 -1.06056 0)
(0.145997 -1.07784 0)
(0.1282 -1.08964 0)
(0.110649 -1.09796 0)
(0.0938174 -1.10334 0)
(0.078236 -1.10618 0)
(-0.0698287 0.199527 0)
(-0.0331067 0.203715 0)
(0.0018243 0.199955 0)
(0.031159 0.190573 0)
(0.0519062 0.176389 0)
(0.0617 0.158906 0)
(0.0592452 0.13983 0)
(0.0453339 0.121513 0)
(0.0238007 0.105942 0)
(0.00258868 0.0917363 0)
(-0.00817854 0.073055 0)
(-0.00402641 0.0483655 0)
(0.010184 0.0162715 0)
(0.0289913 -0.0236991 0)
(0.0503943 -0.0755845 0)
(0.0753716 -0.146051 0)
(0.106389 -0.238982 0)
(0.143138 -0.351462 0)
(0.181894 -0.476448 0)
(0.217167 -0.603097 0)
(0.244364 -0.720934 0)
(0.261116 -0.822709 0)
(0.26709 -0.905007 0)
(0.263382 -0.967909 0)
(0.252027 -1.01387 0)
(0.235423 -1.04642 0)
(0.215794 -1.06927 0)
(0.194914 -1.08561 0)
(0.173922 -1.09797 0)
(0.153389 -1.1076 0)
(0.133513 -1.11489 0)
(0.11428 -1.1202 0)
(0.0957967 -1.12335 0)
(0.0785497 -1.12414 0)
(-0.0730237 0.191615 0)
(-0.030198 0.187848 0)
(0.00897633 0.179916 0)
(0.0414343 0.16862 0)
(0.0645903 0.154228 0)
(0.0759075 0.137432 0)
(0.0737448 0.119412 0)
(0.0588033 0.101371 0)
(0.0364084 0.0825178 0)
(0.0183084 0.0595373 0)
(0.0139756 0.0280616 0)
(0.0249847 -0.0133717 0)
(0.0474223 -0.0666284 0)
(0.0774357 -0.135547 0)
(0.113894 -0.223953 0)
(0.156133 -0.331936 0)
(0.201621 -0.45437 0)
(0.245439 -0.58205 0)
(0.281923 -0.703846 0)
(0.306863 -0.810123 0)
(0.318809 -0.896044 0)
(0.318769 -0.961064 0)
(0.30914 -1.00776 0)
(0.292743 -1.04034 0)
(0.2722 -1.06321 0)
(0.249617 -1.08002 0)
(0.226456 -1.09334 0)
(0.203554 -1.10462 0)
(0.1812 -1.11439 0)
(0.159397 -1.12263 0)
(0.138136 -1.12921 0)
(0.117372 -1.13401 0)
(0.0971029 -1.13654 0)
(0.0778997 -1.1363 0)
(-0.0681425 0.163729 0)
(-0.0223538 0.154691 0)
(0.0184022 0.143787 0)
(0.0523364 0.13124 0)
(0.0770478 0.116703 0)
(0.0895947 0.100332 0)
(0.0879045 0.0825923 0)
(0.0731892 0.0630858 0)
(0.0540954 0.0390161 0)
(0.0435808 0.00590794 0)
(0.0491597 -0.0408833 0)
(0.071713 -0.104484 0)
(0.107909 -0.186939 0)
(0.153582 -0.288193 0)
(0.204452 -0.404954 0)
(0.25626 -0.530791 0)
(0.30304 -0.655743 0)
(0.339267 -0.769138 0)
(0.361306 -0.863089 0)
(0.36882 -0.935007 0)
(0.364002 -0.986768 0)
(0.350168 -1.02267 0)
(0.330602 -1.04763 0)
(0.307929 -1.06591 0)
(0.283903 -1.08053 0)
(0.25952 -1.09318 0)
(0.23534 -1.10459 0)
(0.211624 -1.11496 0)
(0.18833 -1.12418 0)
(0.165281 -1.13203 0)
(0.142477 -1.13836 0)
(0.120028 -1.14303 0)
(0.0977797 -1.14524 0)
(0.0760394 -1.14555 0)
(-0.0596199 0.127183 0)
(-0.0127266 0.114779 0)
(0.0289159 0.101445 0)
(0.0638678 0.0869126 0)
(0.089815 0.0710062 0)
(0.103488 0.0536441 0)
(0.102611 0.0344242 0)
(0.090595 0.0113798 0)
(0.0796596 -0.020578 0)
(0.081708 -0.0682179 0)
(0.102155 -0.13687 0)
(0.140975 -0.227472 0)
(0.192045 -0.336136 0)
(0.249044 -0.457264 0)
(0.30519 -0.583088 0)
(0.353889 -0.703395 0)
(0.389456 -0.808111 0)
(0.409006 -0.891324 0)
(0.41317 -0.952374 0)
(0.405099 -0.994819 0)
(0.388751 -1.02394 0)
(0.367565 -1.04477 0)
(0.343921 -1.061 0)
(0.319231 -1.07488 0)
(0.294147 -1.0875 0)
(0.268851 -1.09909 0)
(0.243708 -1.10952 0)
(0.218929 -1.1187 0)
(0.194419 -1.12653 0)
(0.170133 -1.13245 0)
(0.146135 -1.13701 0)
(0.122597 -1.14063 0)
(0.0992597 -1.14317 0)
(0.0750736 -1.14289 0)
(-0.0491459 0.0896343 0)
(-0.00118466 0.0746195 0)
(0.0412932 0.0584238 0)
(0.0772016 0.0407916 0)
(0.104212 0.0219946 0)
(0.118643 0.00195977 0)
(0.119654 -0.0205595 0)
(0.114935 -0.0506955 0)
(0.117453 -0.0964484 0)
(0.136685 -0.164694 0)
(0.17519 -0.257186 0)
(0.228817 -0.368611 0)
(0.289317 -0.491076 0)
(0.348407 -0.615332 0)
(0.398487 -0.730718 0)
(0.433572 -0.828061 0)
(0.451427 -0.902854 0)
(0.453497 -0.95602 0)
(0.443587 -0.992181 0)
(0.425948 -1.01706 0)
(0.404001 -1.03548 0)
(0.37986 -1.0506 0)
(0.354503 -1.06389 0)
(0.328523 -1.0757 0)
(0.30225 -1.08586 0)
(0.276044 -1.09325 0)
(0.25012 -1.09993 0)
(0.224443 -1.10459 0)
(0.199077 -1.10746 0)
(0.173916 -1.10876 0)
(0.148826 -1.10845 0)
(0.124096 -1.10667 0)
(0.0994984 -1.1044 0)
(0.0719179 -1.10026 0)
(-0.0368622 0.0537801 0)
(0.0125117 0.0360373 0)
(0.0562661 0.0164019 0)
(0.0933495 -0.00512694 0)
(0.120998 -0.0277029 0)
(0.136577 -0.0517012 0)
(0.143029 -0.0811311 0)
(0.150556 -0.124306 0)
(0.170533 -0.189066 0)
(0.20885 -0.27845 0)
(0.263209 -0.388584 0)
(0.325691 -0.510082 0)
(0.386918 -0.631913 0)
(0.438049 -0.742916 0)
(0.473055 -0.834474 0)
(0.48998 -0.903094 0)
(0.490889 -0.950705 0)
(0.480032 -0.982604 0)
(0.461816 -1.00467 0)
(0.439476 -1.02133 0)
(0.41504 -1.03493 0)
(0.389507 -1.04621 0)
(0.363303 -1.05431 0)
(0.336471 -1.0604 0)
(0.309086 -1.06248 0)
(0.281544 -1.05995 0)
(0.253642 -1.05146 0)
(0.225298 -1.03588 0)
(0.196914 -1.01273 0)
(0.168873 -0.981267 0)
(0.141621 -0.941935 0)
(0.115113 -0.897665 0)
(0.0882825 -0.855047 0)
(0.0574761 -0.817031 0)
(0.0020628 -0.00234164 0)
(0.00252958 -0.00809036 0)
(0.000765874 -0.0111122 0)
(-0.00147316 -0.00575707 0)
(-0.00312657 0.00755523 0)
(-0.00342067 0.0249921 0)
(0.00669958 -0.00353329 0)
(0.00627786 -0.00949034 0)
(-0.00244705 -0.0055052 0)
(-0.0149864 0.0128421 0)
(-0.0242324 0.0398739 0)
(-0.0262891 0.0692447 0)
(0.0109243 -0.00283161 0)
(0.00462342 -0.00386901 0)
(-0.0164918 0.0138021 0)
(-0.0394431 0.0460289 0)
(-0.0525196 0.0831665 0)
(-0.0524336 0.117363 0)
(0.011825 -0.000936878 0)
(-0.00612373 0.00637455 0)
(-0.0434411 0.0392773 0)
(-0.0744221 0.0841096 0)
(-0.0860819 0.126602 0)
(-0.0791437 0.159765 0)
(0.00842153 0.000645418 0)
(-0.0299098 0.0205694 0)
(-0.083093 0.0684554 0)
(-0.115283 0.120092 0)
(-0.11868 0.159873 0)
(-0.10084 0.185793 0)
(-0.00249696 0.00306815 0)
(-0.0682289 0.0389912 0)
(-0.13012 0.0961272 0)
(-0.154 0.144966 0)
(-0.1436 0.174293 0)
(-0.113405 0.191037 0)
(-0.0223272 0.00674414 0)
(-0.116964 0.0582518 0)
(-0.175832 0.115002 0)
(-0.183002 0.15208 0)
(-0.156613 0.16913 0)
(-0.115234 0.169467 0)
(-0.0511698 0.0147623 0)
(-0.169032 0.0734394 0)
(-0.212012 0.120291 0)
(-0.1985 0.141846 0)
(-0.157685 0.144491 0)
(-0.109013 0.13783 0)
(-0.0922672 0.0256608 0)
(-0.214946 0.0793773 0)
(-0.23415 0.112938 0)
(-0.202047 0.119387 0)
(-0.151771 0.113808 0)
(-0.0998454 0.102975 0)
(-0.141623 0.032691 0)
(-0.248848 0.0737092 0)
(-0.242849 0.0931011 0)
(-0.198678 0.0922015 0)
(-0.142767 0.0820501 0)
(-0.0888803 0.0691113 0)
(-0.0220246 0.0188187 0)
(0.0294049 -0.00218394 0)
(0.0749174 -0.0259204 0)
(0.113068 -0.0517095 0)
(0.141643 -0.078867 0)
(0.161129 -0.109918 0)
(0.177919 -0.151798 0)
(0.202228 -0.212912 0)
(0.241768 -0.297655 0)
(0.29701 -0.403562 0)
(0.361068 -0.521717 0)
(0.423725 -0.639875 0)
(0.475573 -0.746322 0)
(0.510427 -0.832751 0)
(0.526656 -0.896357 0)
(0.526705 -0.939674 0)
(0.515201 -0.968275 0)
(0.496678 -0.987824 0)
(0.474426 -1.00209 0)
(0.450109 -1.0122 0)
(0.424138 -1.01924 0)
(0.396408 -1.02068 0)
(0.366612 -1.01432 0)
(0.334172 -0.996011 0)
(0.299398 -0.963187 0)
(0.262893 -0.914717 0)
(0.224883 -0.849476 0)
(0.186246 -0.768782 0)
(0.148255 -0.674983 0)
(0.112207 -0.571274 0)
(0.0783819 -0.460813 0)
(0.0444447 -0.345125 0)
(0.0094081 -0.234813 0)
(-0.0115518 -0.14496 0)
(-0.00387222 -0.0157132 0)
(0.0501016 -0.0406959 0)
(0.0975591 -0.0689054 0)
(0.137258 -0.0995401 0)
(0.169104 -0.133681 0)
(0.19694 -0.176299 0)
(0.228568 -0.23487 0)
(0.271662 -0.314801 0)
(0.328542 -0.415245 0)
(0.394102 -0.528358 0)
(0.458299 -0.641964 0)
(0.511083 -0.74391 0)
(0.546094 -0.825871 0)
(0.561944 -0.885346 0)
(0.561425 -0.925164 0)
(0.549386 -0.950793 0)
(0.530622 -0.967324 0)
(0.508017 -0.977526 0)
(0.482452 -0.982666 0)
(0.453706 -0.979028 0)
(0.420814 -0.963229 0)
(0.382836 -0.931368 0)
(0.339504 -0.880426 0)
(0.291436 -0.809264 0)
(0.240196 -0.720836 0)
(0.187603 -0.617533 0)
(0.135678 -0.50507 0)
(0.0867141 -0.390501 0)
(0.0427264 -0.281465 0)
(0.00540957 -0.185374 0)
(-0.0233988 -0.106687 0)
(-0.0482669 -0.0446917 0)
(-0.0761177 0.00306275 0)
(-0.098777 0.00838804 0)
(0.0174204 -0.049726 0)
(0.0742739 -0.0790606 0)
(0.124263 -0.11218 0)
(0.167344 -0.149347 0)
(0.20602 -0.19365 0)
(0.24609 -0.250896 0)
(0.294233 -0.326464 0)
(0.353659 -0.421018 0)
(0.420996 -0.528386 0)
(0.487196 -0.637196 0)
(0.541931 -0.735243 0)
(0.578254 -0.813918 0)
(0.594623 -0.870478 0)
(0.594122 -0.907571 0)
(0.581873 -0.930284 0)
(0.562412 -0.942556 0)
(0.538103 -0.947787 0)
(0.50916 -0.942064 0)
(0.474472 -0.922607 0)
(0.432768 -0.885321 0)
(0.383482 -0.827413 0)
(0.327155 -0.748393 0)
(0.265858 -0.650977 0)
(0.202819 -0.540851 0)
(0.141596 -0.425764 0)
(0.0857384 -0.313834 0)
(0.0385903 -0.213748 0)
(0.0022252 -0.132424 0)
(-0.0234917 -0.0720172 0)
(-0.0403094 -0.0290131 0)
(-0.0516197 -4.98668e-05 0)
(-0.0620729 0.0186556 0)
(-0.0768275 0.025441 0)
(-0.0754114 0.0132601 0)
(0.0422318 -0.0838228 0)
(0.102544 -0.118062 0)
(0.156465 -0.157329 0)
(0.205666 -0.203372 0)
(0.254459 -0.260214 0)
(0.308569 -0.332411 0)
(0.371472 -0.421504 0)
(0.441204 -0.523117 0)
(0.509992 -0.627264 0)
(0.567707 -0.722044 0)
(0.60675 -0.798473 0)
(0.624882 -0.853286 0)
(0.62486 -0.888364 0)
(0.612222 -0.908007 0)
(0.591274 -0.91599 0)
(0.563781 -0.912461 0)
(0.529316 -0.894418 0)
(0.486599 -0.858376 0)
(0.434778 -0.801184 0)
(0.374125 -0.722419 0)
(0.306707 -0.624897 0)
(0.236119 -0.514728 0)
(0.167011 -0.400308 0)
(0.104077 -0.290601 0)
(0.0510772 -0.193468 0)
(0.0103331 -0.114547 0)
(-0.0181376 -0.0555884 0)
(-0.036929 -0.0131389 0)
(-0.0487684 0.015597 0)
(-0.0553915 0.0325953 0)
(-0.0593206 0.0397558 0)
(-0.0635229 0.0392858 0)
(-0.0682587 0.030275 0)
(-0.0576925 0.00949662 0)
(0.0712574 -0.118587 0)
(0.1361 -0.158661 0)
(0.19596 -0.205721 0)
(0.25387 -0.2625 0)
(0.314507 -0.332313 0)
(0.381608 -0.416783 0)
(0.454362 -0.513077 0)
(0.526377 -0.612908 0)
(0.587985 -0.705103 0)
(0.630938 -0.780198 0)
(0.652096 -0.834017 0)
(0.653617 -0.867493 0)
(0.64071 -0.883068 0)
(0.617464 -0.887279 0)
(0.58536 -0.87488 0)
(0.544164 -0.845106 0)
(0.492744 -0.794117 0)
(0.431053 -0.72115 0)
(0.360834 -0.628147 0)
(0.285555 -0.520827 0)
(0.209998 -0.407382 0)
(0.139326 -0.296948 0)
(0.0780491 -0.197577 0)
(0.0290213 -0.114616 0)
(-0.00711484 -0.05019 0)
(-0.0320146 -0.002399 0)
(-0.0478733 0.0313085 0)
(-0.0568046 0.0527632 0)
(-0.0600182 0.0644545 0)
(-0.0595599 0.0674914 0)
(-0.0573558 0.0628989 0)
(-0.0552757 0.0525398 0)
(-0.053057 0.0358843 0)
(-0.0395157 0.0100127 0)
(0.10511 -0.154594 0)
(0.17575 -0.201712 0)
(0.243689 -0.257891 0)
(0.312176 -0.325827 0)
(0.384104 -0.406703 0)
(0.46038 -0.498372 0)
(0.536076 -0.594299 0)
(0.602342 -0.684466 0)
(0.650456 -0.759221 0)
(0.675883 -0.813092 0)
(0.679871 -0.845864 0)
(0.667079 -0.859858 0)
(0.641597 -0.858659 0)
(0.604529 -0.838544 0)
(0.555978 -0.798251 0)
(0.495993 -0.735671 0)
(0.425515 -0.651286 0)
(0.347653 -0.549648 0)
(0.267091 -0.438149 0)
(0.189206 -0.325842 0)
(0.118949 -0.221211 0)
(0.0599332 -0.130522 0)
(0.013797 -0.0568949 0)
(-0.0200062 -0.000323122 0)
(-0.0433771 0.0415348 0)
(-0.0575993 0.0705248 0)
(-0.0641497 0.0877814 0)
(-0.0646438 0.0958819 0)
(-0.0616286 0.0961362 0)
(-0.0551222 0.0895212 0)
(-0.0475019 0.0773439 0)
(-0.0404421 0.0608973 0)
(-0.0329626 0.0394529 0)
(-0.0199889 0.00946789 0)
(0.14467 -0.191768 0)
(0.222701 -0.247399 0)
(0.300079 -0.313635 0)
(0.378962 -0.391216 0)
(0.459341 -0.478902 0)
(0.539048 -0.571498 0)
(0.610455 -0.660032 0)
(0.66482 -0.735089 0)
(0.696198 -0.790273 0)
(0.703592 -0.823686 0)
(0.691742 -0.836698 0)
(0.664133 -0.831501 0)
(0.622475 -0.805446 0)
(0.567135 -0.757131 0)
(0.49918 -0.686153 0)
(0.421022 -0.594542 0)
(0.336899 -0.488276 0)
(0.252408 -0.375806 0)
(0.173094 -0.266008 0)
(0.1034 -0.166291 0)
(0.0459555 -0.081214 0)
(0.00143532 -0.0124969 0)
(-0.0310352 0.0402757 0)
(-0.0531514 0.0788177 0)
(-0.066456 0.104467 0)
(-0.0712548 0.119434 0)
(-0.0697372 0.124411 0)
(-0.0642375 0.122205 0)
(-0.0553225 0.113996 0)
(-0.0444402 0.100876 0)
(-0.0330875 0.0837965 0)
(-0.022138 0.0639013 0)
(-0.0107109 0.040184 0)
(-0.000569512 0.00868911 0)
(0.191381 -0.230693 0)
(0.277893 -0.295443 0)
(0.364454 -0.370894 0)
(0.451121 -0.454979 0)
(0.535376 -0.544284 0)
(0.612389 -0.631609 0)
(0.673627 -0.70726 0)
(0.711847 -0.764263 0)
(0.724319 -0.800015 0)
(0.714964 -0.813927 0)
(0.686226 -0.806237 0)
(0.640658 -0.776388 0)
(0.579441 -0.72305 0)
(0.504564 -0.646908 0)
(0.419706 -0.551559 0)
(0.330154 -0.443782 0)
(0.242072 -0.332318 0)
(0.161071 -0.225513 0)
(0.0910832 -0.129629 0)
(0.0340364 -0.0480188 0)
(-0.0100282 0.0184691 0)
(-0.0417007 0.0699378 0)
(-0.0625258 0.106437 0)
(-0.0741037 0.130375 0)
(-0.0778333 0.142175 0)
(-0.0748182 0.144651 0)
(-0.066911 0.140819 0)
(-0.056543 0.131444 0)
(-0.0440043 0.118045 0)
(-0.0302125 0.101478 0)
(-0.016227 0.0823331 0)
(-0.00240335 0.0613883 0)
(0.0118934 0.0374349 0)
(0.0182795 0.00757808 0)
(0.24552 -0.271109 0)
(0.340411 -0.344372 0)
(0.434282 -0.426522 0)
(0.524769 -0.5129 0)
(0.607679 -0.598543 0)
(0.676118 -0.675399 0)
(0.721786 -0.735102 0)
(0.740858 -0.774011 0)
(0.740113 -0.790463 0)
(0.708061 -0.783014 0)
(0.660355 -0.751391 0)
(0.594526 -0.695949 0)
(0.513939 -0.617763 0)
(0.42332 -0.521595 0)
(0.328854 -0.414831 0)
(0.237092 -0.30606 0)
(0.153624 -0.202957 0)
(0.082077 -0.110791 0)
(0.0239377 -0.0320229 0)
(-0.0209464 0.0330507 0)
(-0.0529783 0.083777 0)
(-0.0725191 0.120106 0)
(-0.082043 0.141839 0)
(-0.0835057 0.152614 0)
(-0.0791344 0.153561 0)
(-0.0705293 0.148108 0)
(-0.0588287 0.137299 0)
(-0.0452771 0.123858 0)
(-0.0304852 0.108636 0)
(-0.0149272 0.0917914 0)
(0.000830025 0.0733658 0)
(0.0167808 0.0536459 0)
(0.0330491 0.0314793 0)
(0.0352199 0.00700782 0)
(0.306384 -0.311803 0)
(0.408287 -0.391659 0)
(0.506186 -0.476822 0)
(0.595723 -0.561054 0)
(0.671796 -0.63856 0)
(0.726536 -0.701975 0)
(0.754817 -0.745368 0)
(0.760211 -0.765683 0)
(0.73194 -0.760831 0)
(0.681945 -0.729611 0)
(0.613482 -0.674824 0)
(0.528583 -0.597412 0)
(0.433236 -0.502912 0)
(0.334366 -0.39921 0)
(0.238855 -0.294713 0)
(0.15224 -0.196472 0)
(0.0779503 -0.108974 0)
(0.017288 -0.0340831 0)
(-0.0300122 0.0284177 0)
(-0.0633806 0.0775754 0)
(-0.0835244 0.112511 0)
(-0.0914951 0.1344 0)
(-0.0901175 0.147065 0)
(-0.0846445 0.1462 0)
(-0.0740126 0.139029 0)
(-0.0611157 0.127562 0)
(-0.0473535 0.114549 0)
(-0.0328921 0.101361 0)
(-0.0174306 0.0879866 0)
(-0.000947974 0.0738014 0)
(0.0161233 0.058372 0)
(0.0337533 0.0416428 0)
(0.0512367 0.0228633 0)
(0.049516 0.00489415 0)
(0.372474 -0.350772 0)
(0.478786 -0.434401 0)
(0.576629 -0.518706 0)
(0.660692 -0.597117 0)
(0.726013 -0.663831 0)
(0.765562 -0.712535 0)
(0.77757 -0.738051 0)
(0.754748 -0.738439 0)
(0.707256 -0.7103 0)
(0.636747 -0.657989 0)
(0.549284 -0.583933 0)
(0.450323 -0.493096 0)
(0.347689 -0.394036 0)
(0.24862 -0.2951 0)
(0.158647 -0.202976 0)
(0.0810473 -0.121653 0)
(0.0170446 -0.0526153 0)
(-0.0335788 0.00434143 0)
(-0.0703896 0.049 0)
(-0.0920154 0.0807394 0)
(-0.101491 0.102828 0)
(-0.100232 0.11138 0)
(-0.091694 0.1136 0)
(-0.0781222 0.10904 0)
(-0.0640137 0.100204 0)
(-0.0504292 0.0896935 0)
(-0.0370741 0.0794869 0)
(-0.0230337 0.0701626 0)
(-0.00741716 0.0610888 0)
(0.00992338 0.0511829 0)
(0.028326 0.0398383 0)
(0.0474835 0.0268983 0)
(0.0651723 0.0123838 0)
(0.0566544 0.000485869 0)
(0.441736 -0.385845 0)
(0.549212 -0.470149 0)
(0.643071 -0.550153 0)
(0.717821 -0.619921 0)
(0.768493 -0.673783 0)
(0.788271 -0.70542 0)
(0.777072 -0.713695 0)
(0.734445 -0.691751 0)
(0.665306 -0.644221 0)
(0.576199 -0.57501 0)
(0.474992 -0.489588 0)
(0.369311 -0.396169 0)
(0.26708 -0.303573 0)
(0.173988 -0.218404 0)
(0.0932564 -0.144564 0)
(0.0260436 -0.0834155 0)
(-0.0278587 -0.0348953 0)
(-0.0682372 0.0012083 0)
(-0.0946326 0.0260369 0)
(-0.107792 0.0423908 0)
(-0.109574 0.0528828 0)
(-0.101773 0.0589449 0)
(-0.0882574 0.0606456 0)
(-0.0723866 0.058539 0)
(-0.0570474 0.0537099 0)
(-0.043485 0.0478442 0)
(-0.0308977 0.0424749 0)
(-0.0173278 0.0379301 0)
(-0.00133812 0.0334181 0)
(0.0171327 0.0277606 0)
(0.0370311 0.0203298 0)
(0.0575379 0.0112193 0)
(0.0742013 0.00186749 0)
(0.0584114 -0.00450758 0)
(0.51188 -0.415035 0)
(0.616773 -0.496968 0)
(0.702413 -0.569809 0)
(0.764095 -0.628829 0)
(0.797003 -0.668864 0)
(0.800887 -0.684641 0)
(0.762926 -0.672319 0)
(0.697816 -0.631498 0)
(0.609546 -0.56879 0)
(0.507017 -0.489731 0)
(0.399219 -0.402722 0)
(0.294263 -0.316603 0)
(0.198467 -0.238513 0)
(0.115193 -0.172624 0)
(0.0455954 -0.120572 0)
(-0.010546 -0.0823735 0)
(-0.0538407 -0.0574186 0)
(-0.0850972 -0.0425631 0)
(-0.105548 -0.0327532 0)
(-0.11554 -0.0236118 0)
(-0.115236 -0.0139304 0)
(-0.105644 -0.00422323 0)
(-0.0897283 0.00401346 0)
(-0.0714551 0.00931769 0)
(-0.0546522 0.0113256 0)
(-0.0409081 0.0110505 0)
(-0.0287721 0.0101037 0)
(-0.0152501 0.00932304 0)
(0.00150006 0.00829555 0)
(0.0212627 0.00587815 0)
(0.0426581 0.0015705 0)
(0.0642179 -0.0040143 0)
(0.0786348 -0.00775435 0)
(0.0544051 -0.00851282 0)
(0.580576 -0.436716 0)
(0.679308 -0.513535 0)
(0.753963 -0.577461 0)
(0.801031 -0.624431 0)
(0.814809 -0.650148 0)
(0.792559 -0.648908 0)
(0.733142 -0.617614 0)
(0.648315 -0.563006 0)
(0.546184 -0.491405 0)
(0.436912 -0.411095 0)
(0.329709 -0.33132 0)
(0.231484 -0.259675 0)
(0.146239 -0.201122 0)
(0.0752855 -0.157887 0)
(0.0182997 -0.130273 0)
(-0.0264173 -0.117137 0)
(-0.0618057 -0.113521 0)
(-0.0904968 -0.111703 0)
(-0.112057 -0.106563 0)
(-0.124191 -0.0967905 0)
(-0.125359 -0.0830552 0)
(-0.115847 -0.0667371 0)
(-0.0984017 -0.0499595 0)
(-0.0775603 -0.0352913 0)
(-0.0581036 -0.0248286 0)
(-0.042578 -0.0189953 0)
(-0.0296473 -0.0162877 0)
(-0.0155395 -0.0146657 0)
(0.00219554 -0.013459 0)
(0.0232056 -0.0136447 0)
(0.0458912 -0.0155308 0)
(0.06711 -0.0176416 0)
(0.0761917 -0.0156106 0)
(0.045333 -0.00823908 0)
(0.645857 -0.449853 0)
(0.73508 -0.519379 0)
(0.795302 -0.573331 0)
(0.82362 -0.608196 0)
(0.819793 -0.619111 0)
(0.770978 -0.600582 0)
(0.691556 -0.555391 0)
(0.591751 -0.49251 0)
(0.481999 -0.419362 0)
(0.372727 -0.345567 0)
(0.272092 -0.27942 0)
(0.184963 -0.226729 0)
(0.113232 -0.190672 0)
(0.056447 -0.171979 0)
(0.0119105 -0.168918 0)
(-0.025559 -0.175541 0)
(-0.0605483 -0.182103 0)
(-0.0927156 -0.183456 0)
(-0.11874 -0.178845 0)
(-0.135277 -0.168173 0)
(-0.140102 -0.151501 0)
(-0.132782 -0.129591 0)
(-0.11528 -0.104458 0)
(-0.0919033 -0.0794897 0)
(-0.0682122 -0.0586863 0)
(-0.0484536 -0.0448309 0)
(-0.0327949 -0.037674 0)
(-0.0173988 -0.0341713 0)
(0.00134922 -0.03161 0)
(0.0234875 -0.0300224 0)
(0.0467563 -0.0293641 0)
(0.0652785 -0.0272553 0)
(0.0690534 -0.0198599 0)
(0.0344157 -0.00621417 0)
(0.706014 -0.454203 0)
(0.783042 -0.515094 0)
(0.828129 -0.558529 0)
(0.840259 -0.581392 0)
(0.809108 -0.577831 0)
(0.738592 -0.544503 0)
(0.642985 -0.491128 0)
(0.533988 -0.42599 0)
(0.422907 -0.357995 0)
(0.319444 -0.296342 0)
(0.229896 -0.247739 0)
(0.157065 -0.216363 0)
(0.100718 -0.203666 0)
(0.0573462 -0.207597 0)
(0.0200602 -0.221389 0)
(-0.0177272 -0.235075 0)
(-0.0567648 -0.243382 0)
(-0.0937302 -0.246376 0)
(-0.125007 -0.243788 0)
(-0.147205 -0.234585 0)
(-0.157657 -0.217841 0)
(-0.155024 -0.193345 0)
(-0.139946 -0.162302 0)
(-0.115487 -0.127936 0)
(-0.0869921 -0.0953989 0)
(-0.0603787 -0.0701704 0)
(-0.0388776 -0.0551417 0)
(-0.0205541 -0.04831 0)
(-0.000749739 -0.044626 0)
(0.0218367 -0.0413343 0)
(0.0442386 -0.0377447 0)
(0.0597465 -0.0313484 0)
(0.0571985 -0.019706 0)
(0.0240049 -0.00395911 0)
(0.75976 -0.450009 0)
(0.822497 -0.502142 0)
(0.850172 -0.53543 0)
(0.841846 -0.545824 0)
(0.787341 -0.528145 0)
(0.699016 -0.485772 0)
(0.592316 -0.429515 0)
(0.480023 -0.367776 0)
(0.373206 -0.30993 0)
(0.280094 -0.263809 0)
(0.204951 -0.234523 0)
(0.148105 -0.224351 0)
(0.105919 -0.231638 0)
(0.0704201 -0.249333 0)
(0.0330822 -0.267626 0)
(-0.00851959 -0.281079 0)
(-0.0514515 -0.290265 0)
(-0.0925952 -0.295726 0)
(-0.128973 -0.296556 0)
(-0.157408 -0.291064 0)
(-0.174945 -0.277492 0)
(-0.179413 -0.254564 0)
(-0.169985 -0.222142 0)
(-0.147764 -0.182153 0)
(-0.116464 -0.139226 0)
(-0.082181 -0.10028 0)
(-0.0512005 -0.0719534 0)
(-0.0262494 -0.0567334 0)
(-0.00429707 -0.0502003 0)
(0.0181236 -0.0453693 0)
(0.0386664 -0.0392492 0)
(0.0503215 -0.0298385 0)
(0.043872 -0.0161054 0)
(0.0155586 -0.0019501 0)
(0.806921 -0.437935 0)
(0.854504 -0.481059 0)
(0.864363 -0.504452 0)
(0.833384 -0.503866 0)
(0.758291 -0.475153 0)
(0.656416 -0.428696 0)
(0.543952 -0.374097 0)
(0.433683 -0.320146 0)
(0.335676 -0.275463 0)
(0.256231 -0.246256 0)
(0.196689 -0.236024 0)
(0.154425 -0.242974 0)
(0.121209 -0.261844 0)
(0.0865455 -0.282349 0)
(0.0457468 -0.298423 0)
(0.000967349 -0.310587 0)
(-0.0445281 -0.320495 0)
(-0.088666 -0.328148 0)
(-0.12923 -0.332687 0)
(-0.16353 -0.332265 0)
(-0.188641 -0.32443 0)
(-0.201768 -0.306939 0)
(-0.200872 -0.278288 0)
(-0.185106 -0.238663 0)
(-0.155658 -0.19052 0)
(-0.11677 -0.139977 0)
(-0.07539 -0.0953248 0)
(-0.0389355 -0.0642993 0)
(-0.010554 -0.0487271 0)
(0.0125695 -0.0413748 0)
(0.0311572 -0.0337774 0)
(0.039813 -0.0234798 0)
(0.0321112 -0.0107102 0)
(0.00980852 -0.000473666 0)
(0.846318 -0.419413 0)
(0.877292 -0.453979 0)
(0.872153 -0.468243 0)
(0.816472 -0.457386 0)
(0.72507 -0.422556 0)
(0.6145 -0.376127 0)
(0.501175 -0.326808 0)
(0.397224 -0.28327 0)
(0.311145 -0.252647 0)
(0.246731 -0.240072 0)
(0.202166 -0.244686 0)
(0.169687 -0.262693 0)
(0.138506 -0.2839 0)
(0.100719 -0.301154 0)
(0.0567763 -0.313976 0)
(0.0102484 -0.324853 0)
(-0.0366349 -0.334741 0)
(-0.0824293 -0.343528 0)
(-0.12562 -0.350283 0)
(-0.164382 -0.354791 0)
(-0.196317 -0.353974 0)