/*--------------------------------*- C++ -*----------------------------------*\
| =========                 |                                                 |
| \\      /  F ield         | OpenFOAM: The Open Source CFD Toolbox           |
|  \\    /   O peration     | Version:  v2012                                 |
|   \\  /    A nd           | Website:  www.openfoam.com                      |
|    \\/     M anipulation  |                                                 |
\*---------------------------------------------------------------------------*/
FoamFile
{
    version     2.0;
    format      ascii;
    class       volScalarField;
    location    "562";
    object      age;
}
// * * * * * * * * * * * * * * * * * * * * * * * * * * * * * * * * * * * * * //

dimensions      [0 0 1 0 0 0 0];


internalField   nonuniform List<scalar> 
6054
(
0.825067
0.74691
0.677611
0.615052
0.557823
0.504907
0.455601
0.409426
0.366038
0.325199
0.286667
0.250209
0.215609
0.182687
0.151288
0.121275
0.0925222
0.0649079
0.0383213
0.0126516
0.551273
0.50943
0.472129
0.437993
0.406205
0.376054
0.346693
0.317198
0.289707
0.26299
0.236778
0.211021
0.185627
0.160527
0.135652
0.110942
0.0863372
0.0617754
0.0371759
0.0124511
0.458288
0.433576
0.410027
0.386788
0.363831
0.341009
0.318259
0.295575
0.272989
0.250283
0.227434
0.204415
0.181205
0.157789
0.134158
0.110302
0.0862097
0.061874
0.0372946
0.0124819
0.445699
0.424767
0.403697
0.382418
0.360957
0.339307
0.317464
0.295415
0.273147
0.250657
0.227939
0.204988
0.181797
0.158361
0.134671
0.110723
0.0865181
0.0620624
0.0373736
0.0124913
0.44705
0.425992
0.404754
0.383349
0.361776
0.34003
0.318101
0.295981
0.273658
0.251122
0.228363
0.205371
0.182137
0.158652
0.134909
0.110904
0.0866403
0.06213
0.0373976
0.0124933
0.447027
0.425834
0.404544
0.383131
0.361572
0.33985
0.31795
0.295858
0.273561
0.251048
0.228308
0.205332
0.182111
0.158635
0.134898
0.110898
0.0866372
0.0621287
0.0373973
0.0124933
0.446133
0.425028
0.403808
0.382442
0.360912
0.339206
0.317316
0.29524
0.272978
0.250508
0.227818
0.204896
0.181731
0.158315
0.134642
0.110706
0.0865094
0.0620588
0.0373726
0.0124912
0.446047
0.425231
0.404108
0.382695
0.361018
0.339112
0.317027
0.294815
0.272461
0.249924
0.227189
0.204248
0.181092
0.157716
0.134114
0.110277
0.0861975
0.061869
0.0372931
0.0124818
0.477761
0.457182
0.435479
0.412532
0.38898
0.36435
0.338126
0.311805
0.286331
0.260906
0.235527
0.210288
0.185211
0.1603
0.135535
0.110886
0.0863144
0.0617683
0.0371746
0.0124511
0.677137
0.639718
0.607705
0.563986
0.524338
0.482176
0.44073
0.39985
0.360045
0.321546
0.284499
0.248953
0.214905
0.182308
0.151095
0.121184
0.0924838
0.0648943
0.038318
0.0126511
57.8869
58.057
58.6035
59.2577
59.6203
59.802
60.2614
60.8808
61.2548
62.263
63.3252
64.2877
57.172
4.23014
2.92837
2.19685
1.78541
1.50482
1.30086
1.14388
1.01816
0.914178
44.678
44.7813
45.1398
45.635
46.1884
46.7874
47.4985
52.1309
58.6069
46.7208
26.791
14.2961
6.12002
1.49217
1.49345
1.17459
1.0228
0.89486
0.798216
0.719484
0.654367
0.599191
41.3665
41.6814
42.0727
42.5684
44.0971
46.3157
43.4007
33.6676
20.6837
8.85067
3.11301
1.29039
1.0969
0.89331
0.808459
0.719167
0.663169
0.614985
0.576374
0.543223
0.513162
0.484886
41.7772
42.095
42.6919
42.4866
39.5723
30.0432
17.3561
7.35169
2.34772
1.00043
0.890214
0.788625
0.733618
0.685185
0.647621
0.612869
0.583613
0.557579
0.533335
0.510264
0.488021
0.46664
43.2452
42.5046
39.3891
30.8786
18.9576
8.28178
2.70282
0.979942
0.885897
0.78569
0.741782
0.699284
0.667595
0.638945
0.613524
0.590158
0.569156
0.548809
0.528488
0.508265
0.488036
0.467724
41.2766
33.7218
22.5195
10.9632
3.81464
1.01466
0.923915
0.812136
0.770557
0.73
0.701133
0.674968
0.652308
0.630915
0.610463
0.590474
0.57048
0.550233
0.529806
0.509268
0.488645
0.467959
28.1185
16.2781
6.6447
1.96138
0.957079
0.857827
0.810193
0.768211
0.740446
0.716491
0.694301
0.673684
0.653524
0.633355
0.612947
0.592236
0.571285
0.550279
0.529321
0.508451
0.487681
0.466991
11.7272
4.09063
1.14244
0.951975
0.845333
0.812758
0.782428
0.75977
0.738134
0.717915
0.697275
0.676554
0.65523
0.633542
0.611677
0.589915
0.568493
0.547546
0.526963
0.506653
0.48651
0.466424
2.80619
1.01676
0.921412
0.857088
0.827771
0.807037
0.784174
0.763493
0.740915
0.718409
0.695591
0.672958
0.650807
0.629618
0.609862
0.592098
0.577114
0.561511
0.545405
0.529067
0.512693
0.495828
0.991428
0.912702
0.86977
0.844862
0.825171
0.799466
0.773415
0.748903
0.729964
0.714071
0.698377
0.683611
0.66984
0.659168
0.652777
0.650615
0.652028
0.6567
0.664287
0.673119
0.680094
0.681526
85.4494
72.6753
68.1549
63.7446
59.2083
55.3772
52.8947
51.8799
52.6223
53.6017
54.7832
56.2254
57.7023
59.6771
60.1324
59.5519
58.7471
58.1162
83.6829
72.0565
67.1876
58.3686
50.1066
43.971
41.1853
40.2642
40.3105
41.1636
42.5681
44.3733
46.0377
47.0887
47.1809
46.3961
45.4902
44.8851
83.6449
72.5014
65.337
51.1066
41.3935
37.55
37.4629
37.6144
37.8385
38.0795
38.4521
38.9773
39.5836
40.0462
40.3707
40.6052
40.8353
41.0925
84.9598
80.3588
55.7888
40.9277
36.3167
37.1163
38.576
39.7542
40.2921
40.1973
39.8126
39.5737
39.6734
39.8685
40.125
40.4859
40.9378
41.374
88.2377
65.8218
41.8652
36.0844
37.655
40.9756
44.4295
46.7911
47.5543
46.8625
45.2715
43.5262
42.2529
41.6926
41.7014
42.0615
42.5293
42.769
91.5495
48.1044
35.689
37.2322
42.2534
48.735
54.3666
57.6442
58.173
56.443
53.4016
50.0896
47.3654
45.6546
44.9327
44.5327
44.9454
44.2977
47.9363
35.317
35.7636
41.1333
50.5327
60.3734
67.9247
71.6139
71.2753
67.7914
62.6516
57.33
52.8625
49.7123
47.304
46.3684
44.6004
38.4957
33.3054
33.8075
38.0216
48.4947
62.0307
74.8323
83.7648
87.1548
85.1049
79.0869
71.2388
63.4852
56.9297
51.7103
48.6475
44.3383
35.6196
23.4069
32.6033
34.3269
42.5021
57.7163
75.2389
90.4675
99.9141
102.086
97.4142
88.1619
77.2427
66.8015
58.0258
51.5419
44.5102
33.5377
20.4536
9.05619
32.357
35.6
48.4386
68.2801
88.8434
105.284
114.025
113.801
105.824
93.0938
79.0115
66.3516
55.9726
45.7408
32.8045
18.8084
7.71929
2.22992
0.920655
0.888508
0.863535
0.843276
0.822544
0.807348
0.796937
0.803222
0.840775
0.933005
1.12417
1.48739
2.16044
3.38987
5.61445
9.4685
15.1048
22.1076
30.5978
40.3655
50.2781
57.7758
0.908818
0.887117
0.868233
0.856223
0.853074
0.876979
0.961717
1.16221
1.56816
2.39408
4.13535
7.68701
13.464
21.397
31.2068
41.7881
51.1722
58.1569
64.2944
69.0821
74.8533
86.6797
0.912477
0.896756
0.891849
0.912832
1.00107
1.22444
1.71037
2.83574
5.48523
10.5877
18.4044
28.6111
39.5679
49.5684
56.5198
60.6325
61.9963
61.938
62.057
63.4685
71.0466
87.263
0.924548
0.928789
0.983874
1.15202
1.54911
2.5869
5.35551
10.7726
19.3178
30.2748
41.9567
52.2276
58.371
61.3112
61.6792
61.4268
61.2973
61.3878
61.9564
65.5965
75.5084
89.9034
0.963943
1.0517
1.29188
1.97424
4.08661
8.78953
16.8298
27.6206
39.9221
51.1981
58.5441
61.5238
61.7621
61.2123
60.9433
60.9452
61.0878
61.5762
63.5458
69.3095
79.3903
92.2108
1.10374
1.4253
2.5779
5.85276
12.3143
22.0348
34.1749
46.635
56.638
61.4017
62.6571
61.6348
60.9119
60.6331
60.6574
60.9155
61.5154
63.603
68.4239
76.0629
85.284
94.9628
1.51469
3.22531
7.47058
15.1465
25.9287
38.6085
50.804
59.6237
62.8215
62.4096
61.4509
60.6749
60.3566
60.4524
60.8325
62.1605
65.9184
72.1619
79.7201
87.0332
92.7797
97.7464
3.71313
8.73097
17.051
28.4572
41.3006
53.1572
61.1343
63.9106
62.6399
61.0624
60.2472
60.0378
60.2951
61.508
65.5217
72.7193
82.1195
91.2062
98.15
101.776
101.503
100.714
9.38342
18.137
29.7478
42.6029
54.0327
61.1398
63.0281
61.6943
60.3422
59.7063
59.8372
60.8386
64.8567
73.1396
85.5539
99.4486
111.831
120.073
122.687
119.27
110.719
103.48
18.4185
30.1463
42.9547
54.0957
60.3647
61.6056
60.484
59.5185
59.2989
59.7455
62.7848
70.5157
84.3994
103.068
123.681
142.21
154.477
157.915
151.931
137.827
119.335
106.048
29.8393
42.7584
53.855
59.6629
60.5426
59.6952
58.8806
58.9338
59.8523
64.4847
76.119
95.5353
121.619
151.038
178.727
198.932
207.021
201.015
182.011
154.514
125.834
107.859
42.1903
53.6239
59.5518
60.3008
59.282
58.6467
58.4328
59.2291
63.7628
77.0299
100.446
133.125
171.202
208.576
239.073
257.019
257.849
239.281
206.069
166.13
129.466
108.587
53.3021
59.8212
60.5729
59.4622
58.625
58.3145
58.3508
60.3709
70.7172
92.639
126.61
169.373
213.953
252.967
282.062
297.386
292.281
264.517
219.064
170.545
129.888
109.087
60.2318
61.3685
60.5012
59.5783
58.5421
58.1933
58.2304
61.2086
74.3259
99.3249
137.565
183.876
229.478
267.343
295.311
313.53
297.422
268.536
218.239
167.671
127.845
109.574
62.9496
62.5511
62.0036
60.5514
59.0825
58.2105
58.0333
59.7333
69.2798
90.8151
126.15
170.97
216.363
254.484
281.258
293.225
284.196
254.204
206.436
159.624
124.409
110.102
65.629
65.9981
65.1967
63.4768
61.2593
59.241
58.124
57.9311
61.3194
73.7693
100.048
139.204
183.153
222.116
249.091
261.443
255.219
228.715
188.592
149.208
120.71
110.721
70.9266
71.9118
71.4304
69.6184
66.701
63.2425
60.1203
58.3038
57.8538
60.8144
73.2264
100.925
139.484
179.133
208.688
222.248
219.926
200.276
169.609
138.91
117.756
111.493
79.2607
81.1806
81.3776
79.7055
76.3153
71.6647
66.4843
61.7715
58.7777
57.7238
59.2127
70.0798
96.8159
132.754
166.994
185.685
187.008
174.976
153.109
130.609
116.096
112.41
90.8118
94.074
95.1784
93.8936
90.3293
84.8507
78.069
70.8239
64.183
59.4857
57.4743
57.5858
66.7561
90.9062
124.622
153.131
161.797
155.44
140.966
125.111
115.789
114.128
105.469
110.262
112.428
111.744
108.282
102.33
94.4153
85.2694
75.811
67.156
60.5736
57.2793
56.6795
64.0557
86.1944
118.21
141.826
142.062
133.569
122.402
116.459
116.538
122.743
129.097
132.422
132.501
129.364
123.245
114.586
104.008
92.3205
80.5295
69.8284
61.566
57.0922
56.0424
62.4069
83.8671
115.447
135.323
129.321
121.895
117.229
118.894
141.948
149.836
154.368
155.31
152.666
146.632
137.581
126.05
112.738
98.5043
84.4092
71.7509
62.0423
56.829
55.6429
62.028
84.7312
116.429
129.179
122.53
118.338
120.679
162.402
171.786
177.535
179.397
177.356
171.589
162.415
150.299
135.841
119.788
103.061
86.7965
72.4282
61.6516
56.3248
55.4517
63.5313
90.4325
121.835
123.62
119.729
122.135
183.504
194.341
201.305
204.123
202.749
197.336
188.187
175.734
160.511
143.152
124.438
105.371
87.2229
71.575
60.2737
55.4755
55.3611
67.702
100.617
125.555
120.887
123.315
204.822
217.147
225.399
229.249
228.591
223.545
214.423
201.679
185.854
167.535
147.375
126.172
105.016
85.4014
69.1709
58.3238
54.6448
56.5048
76.8179
116.382
122.263
124.643
226.12
240.074
249.778
254.789
254.914
250.229
241.068
227.941
211.46
192.25
170.923
148.12
124.665
101.77
81.2037
65.1541
56.0541
53.8644
60.1776
94.167
125.362
126.025
247.281
263.082
274.453
280.8
281.804
277.485
268.196
254.532
237.219
216.989
194.501
170.344
145.144
119.801
95.757
75.1206
60.4258
54.1311
53.485
71.6662
120.899
127.261
268.215
286.124
299.424
307.325
309.347
305.419
295.918
281.538
263.162
241.681
217.874
192.365
165.681
138.443
111.703
87.2767
67.7736
56.0951
52.8638
56.9817
95.4363
129.776
288.806
309.106
324.633
334.355
337.574
334.093
324.299
309.016
289.324
266.318
240.945
213.931
185.804
157.017
128.237
100.809
77.1349
60.3881
53.2446
52.1209
72.2685
131.616
308.877
331.86
349.943
361.799
366.443
363.495
353.338
336.954
315.679
290.866
263.664
234.929
205.243
175.002
144.616
114.927
87.8257
66.525
54.6938
51.906
57.8689
118.668
328.18
354.127
375.111
389.455
395.802
393.514
382.936
365.246
342.106
315.198
285.915
255.256
223.863
192.129
160.332
128.945
99.2527
74.1106
57.5683
52.0334
51.2384
53.8152
346.389
375.539
399.764
416.98
425.358
423.895
412.857
393.66
368.376
339.095
307.499
274.745
241.531
208.24
175.087
142.323
110.7
82.368
61.5331
52.5698
50.9867
51.9424
363.104
395.617
423.374
443.844
454.616
454.186
442.671
421.781
394.108
362.219
328.129
293.163
258.064
223.193
188.707
154.735
121.695
91.0347
66.4155
53.5045
50.8908
51.1438
377.863
413.766
445.238
469.298
482.846
483.694
471.707
448.964
418.728
384.095
347.425
310.21
273.233
236.818
201.059
165.984
131.81
99.5013
71.9371
54.9585
50.8161
50.7157
390.169
429.304
464.494
492.359
509.037
511.442
499.017
474.304
441.457
404.097
364.909
325.53
286.774
248.923
212.002
175.952
140.841
107.335
77.6229
56.9984
50.7811
50.456
399.536
441.51
480.15
511.803
531.873
536.145
523.338
496.635
461.325
421.476
380.023
338.719
298.399
259.299
221.385
184.525
148.664
114.262
82.9946
59.4324
50.8188
50.2953
405.545
449.714
491.178
526.22
549.752
556.283
543.041
514.566
477.236
435.411
392.173
349.355
307.811
267.74
229.06
191.592
155.178
120.128
87.7945
61.9891
50.9006
50.1834
407.911
453.407
496.696
534.231
561.094
570.444
556.154
526.594
488.092
445.107
400.793
357.037
314.727
274.048
234.889
197.051
160.303
124.831
91.8483
64.4686
51.0122
50.0845
406.516
452.348
496.21
534.682
562.968
576.799
560.638
531.385
492.975
449.914
405.417
361.435
318.91
278.052
238.75
200.81
163.97
128.307
94.971
66.6516
51.138
49.9968
401.441
446.629
489.801
527.605
555.345
565.775
555.1
528.231
491.378
449.448
405.751
362.326
320.195
279.626
240.548
202.794
166.106
130.499
97.0629
68.334
51.2583
49.9165
392.939
436.614
478.021
513.895
539.78
549.706
541.256
517.422
483.353
443.674
401.725
359.633
318.506
278.702
240.222
202.952
166.656
131.343
98.0633
69.3473
51.3506
49.8408
381.393
422.874
461.736
494.897
518.344
527.629
520.957
500.291
469.614
432.966
393.528
353.439
313.872
275.276
237.752
201.256
165.589
130.793
97.934
69.5707
51.3908
49.7672
367.268
406.087
441.932
472.01
492.899
501.357
496.067
478.346
451.197
417.98
381.559
343.975
306.413
269.404
233.157
197.704
162.896
128.832
96.6527
68.941
51.3439
49.6928
351.055
386.95
419.566
446.475
464.887
472.434
468.17
453.016
429.231
399.524
366.361
331.585
296.335
261.2
226.491
192.312
158.567
125.449
94.2207
67.5524
51.0583
49.6147
333.231
366.109
395.483
419.311
435.395
442.005
438.475
425.49
404.759
378.427
348.535
316.677
283.899
250.825
217.848
185.121
152.607
120.636
90.6355
65.4067
50.5751
49.5316
314.227
344.126
370.375
391.309
405.242
410.922
407.903
396.718
378.672
355.442
328.666
299.673
269.395
238.473
207.348
176.192
145.042
114.409
85.9302
62.5782
49.947
49.4472
294.412
321.456
344.777
363.055
375.028
379.812
377.129
367.415
351.674
331.196
307.267
280.965
253.116
224.356
195.13
165.604
135.92
106.82
80.1935
59.2103
49.2482
49.3969
274.078
298.447
319.078
334.954
345.161
349.098
346.617
338.084
324.272
306.163
284.747
260.895
235.343
208.694
181.347
153.455
125.323
97.9761
73.5957
55.5765
48.6603
49.4765
253.45
275.339
293.527
307.254
315.88
319.024
316.636
309.026
296.788
280.663
261.413
239.755
216.342
191.701
166.151
139.869
113.398
88.0805
66.4485
52.2279
48.3626
49.6936
232.697
252.287
268.26
280.062
287.272
289.674
287.282
280.366
269.38
254.89
237.495
217.797
196.354
173.572
149.698
125.018
100.392
77.4987
59.2971
49.5947
48.2647
50.1517
211.952
229.384
243.322
253.383
259.309
261.002
258.523
252.103
242.103
228.966
213.182
195.246
175.588
154.475
132.17
109.175
86.7108
66.8543
52.9921
48.0114
48.7082
51.0265
191.326
206.694
218.721
227.167
231.901
232.903
230.265
224.194
214.989
203.01
188.655
172.292
154.198
134.567
113.833
92.8041
73.0231
57.149
48.7898
47.7387
50.0923
52.1735
170.905
184.269
194.459
201.37
204.965
205.285
202.444
196.635
188.11
177.157
164.066
149.051
132.301
114.09
95.1613
76.6403
60.4296
49.9272
47.0685
49.8144
53.2046
53.7799
150.728
162.134
170.54
175.969
178.47
178.128
175.077
169.49
161.565
151.506
139.472
125.585
110.109
93.5527
77.0268
61.8627
50.6489
46.7703
48.8245
54.0701
56.5733
55.0898
130.763
140.249
146.922
150.934
152.403
151.449
148.205
142.808
135.383
126.046
114.872
102.108
88.1987
73.9743
60.8443
50.3729
46.2226
47.6198
53.3272
59.4874
60.5004
55.8938
110.924
118.488
123.487
126.174
126.706
125.211
121.794
116.532
109.489
100.774
90.5596
79.4552
67.8616
57.1534
48.7818
45.1515
46.4934
52.3508
60.4728
64.1789
60.2511
56.4345
91.2034
96.7732
100.148
101.62
101.332
99.3702
95.7855
90.6418
84.0749
76.3228
67.8784
59.5669
51.406
45.9426
43.8566
45.577
52.2063
60.5691
64.9054
62.8849
59.5067
56.9315
71.8495
75.3313
77.1463
77.5043
76.4743
74.1267
70.548
65.9534
60.6766
55.0893
49.898
45.3926
42.785
42.6929
45.6197
53.9741
61.7541
63.7455
62.3027
61.0204
58.9609
57.6935
53.3832
54.8656
55.1691
54.5149
53.0926
51.0538
48.6259
46.0948
43.7159
41.8093
40.5874
39.8998
42.4067
48.715
59.4749
67.2696
63.1839
62.0273
61.2623
60.532
59.8226
59.6975
37.7599
37.9333
37.9847
38.0343
38.0854
38.1395
38.1995
38.2702
38.36
38.4866
38.6765
39.288
62.1626
72.5476
70.589
68.9783
67.9775
66.8231
65.9515
65.3758
65.8461
67.6247
32.1811
37.846
55.4952
78.9123
101.196
117.515
124.287
120.839
108.51
92.3129
76.0549
61.7077
47.9921
32.9714
18.0851
6.99111
1.97037
0.989791
32.0471
40.8318
62.6263
88.3448
110.778
125.303
129.19
120.449
104.576
86.1305
68.3072
51.2792
34.06
18.096
6.66357
1.79365
0.995551
0.934212
31.9391
44.0032
68.7071
95.0328
115.945
127.936
125.902
113.636
95.2921
75.3205
55.5605
36.2836
19.0592
6.90696
1.787
1.00232
0.95164
0.930877
31.8444
46.8651
72.9654
98.3258
116.379
123.172
117.461
102.027
81.855
60.3808
39.3625
20.8138
7.65524
1.95387
1.02725
0.970037
0.954057
0.937977
31.7561
48.9799
75.0404
98.1406
112.267
114.461
104.852
86.8777
65.1727
43.0178
23.2411
8.91279
2.31839
1.08578
0.994616
0.977249
0.963147
0.951166
31.6706
50.1052
74.8483
94.6571
104.607
102.334
89.2261
69.2251
46.9224
26.2295
10.7029
2.92481
1.18126
1.02654
1.00076
0.986175
0.974109
0.992751
31.5852
50.1148
72.4425
88.4937
93.948
87.54
71.5758
50.6112
29.657
13.0637
3.84092
1.32956
1.06867
1.0258
1.00985
0.997242
1.01306
1.11895
31.4936
48.9714
68.3123
80.0995
81.0705
71.0917
53.4198
33.338
16.0472
5.15324
1.55498
1.12637
1.05484
1.03358
1.01915
1.02418
1.10437
1.60022
31.229
46.9827
62.7415
70.1147
66.9721
54.3829
36.5971
19.2501
6.92751
1.89442
1.20767
1.09011
1.05884
1.04174
1.03567
1.0818
1.58234
3.93531
30.7195
44.2939
56.1396
59.2092
52.7026
38.7682
22.4802
9.25345
2.64904
1.31451
1.1351
1.08616
1.06466
1.05251
1.08706
1.46741
3.78472
9.39599
29.9396
41.0332
48.9283
48.14
39.2294
25.4225
12.1339
3.90477
1.5234
1.19617
1.11575
1.08784
1.07274
1.09836
1.31035
3.3515
8.79095
17.8676
28.8983
37.3733
41.4971
37.6075
27.5014
15.2141
5.73283
1.88962
1.29126
1.15723
1.1152
1.0965
1.09742
1.15976
2.76331
7.77867
16.5715
28.7245
27.6431
33.466
34.2169
28.1251
17.9865
8.14864
2.6722
1.43526
1.21502
1.14689
1.11974
1.11055
1.16152
2.11667
6.46164
14.8068
26.8302
40.918
26.3775
29.5137
27.4896
20.1724
11.0711
4.1623
1.70922
1.30064
1.18575
1.14585
1.13101
1.17021
1.59769
4.84852
12.6252
24.3404
38.7545
52.3111
25.1237
25.6968
21.5367
13.8523
6.37601
2.2998
1.44387
1.24376
1.17838
1.15236
1.15365
1.23184
3.34696
9.99591
21.2422
35.7944
50.4709
60.267
23.8401
22.1544
16.5353
9.24714
3.70867
1.70464
1.33714
1.22033
1.17984
1.16867
1.23105
2.10396
7.22409
17.4804
31.9066
47.6123
59.6254
64.6855
22.5681
18.9494
12.4795
6.02756
2.37254
1.49896
1.28576
1.21338
1.18728
1.20331
1.3641
4.44925
13.2941
27.0117
43.4406
57.806
65.8579
68.9277
21.3245
16.1307
9.35608
4.01988
1.84763
1.40083
1.26314
1.21888
1.20995
1.27937
2.40679
8.88599
21.3174
37.7702
54.254
65.713
71.58
75.7313
20.0702
13.7226
7.02397
2.86051
1.63009
1.34933
1.25765
1.22772
1.23839
1.35165
4.8192
15.132
30.7457
48.5693
63.4653
72.7247
79.2633
85.6256
18.9121
11.7111
5.33738
2.25011
1.51936
1.324
1.26246
1.24725
1.30219
2.18288
9.02095
22.7816
40.7571
58.4916
71.5696
80.7915
89.6822
98.3956
17.89
10.0749
4.17845
1.94732
1.45697
1.31588
1.2721
1.27214
1.35795
4.03204
14.5739
31.2914
50.5655
67.3973
79.8095
90.8979
102.59
113.664
17.0046
8.7437
3.3958
1.78313
1.42231
1.31689
1.2862
1.31534
1.63513
7.07785
21.0695
40.0654
59.7137
75.8003
89.1437
103.027
117.478
130.902
16.2469
7.66345
2.88984
1.6851
1.40494
1.32575
1.30799
1.36131
2.50359
11.2324
28.0671
48.6239
68.1845
84.3692
99.8576
116.734
133.802
149.495
15.6102
6.80996
2.57496
1.62433
1.39989
1.33855
1.33345
1.40575
4.01765
16.0177
35.1727
56.7024
76.2409
93.5266
111.752
131.493
151.024
168.849
15.0855
6.14848
2.37307
1.58779
1.4026
1.35163
1.35777
1.4477
6.14916
21.0959
42.0857
64.2377
84.1647
103.329
124.423
146.814
168.65
188.469
14.6624
5.64189
2.23932
1.56719
1.40989
1.36848
1.39423
1.7062
8.83827
26.1908
48.614
71.2812
92.1122
113.589
137.437
162.268
186.262
208.008
14.3301
5.25806
2.14932
1.55742
1.42106
1.38864
1.42683
2.20309
11.7714
31.0953
54.657
77.9066
100.084
124.016
150.41
177.495
203.547
227.248
14.074
4.96914
2.08926
1.55546
1.43514
1.40978
1.45622
2.88528
14.7005
35.6644
60.172
84.1533
107.967
134.301
163.015
192.205
220.275
246.041
13.8893
4.76162
2.05087
1.55933
1.45127
1.43122
1.48479
3.6822
17.4682
39.8
65.1415
90.0083
115.587
144.168
174.989
206.167
236.264
264.247
13.7751
4.62215
2.02904
1.56769
1.46849
1.4527
1.51261
4.5161
19.9627
43.4378
69.551
95.4146
122.758
153.379
186.114
219.188
251.346
281.7
13.7293
4.5401
2.02048
1.57957
1.48579
1.47409
1.53952
5.31055
22.1035
46.5343
73.3797
100.289
129.302
161.742
196.212
231.099
265.34
298.186
13.7566
4.50074
2.02302
1.59427
1.50357
1.49532
1.56533
5.99654
23.8336
49.0595
76.5992
104.541
135.07
169.101
205.134
241.737
278.045
313.441
13.7949
4.53854
2.03574
1.61137
1.52194
1.51631
1.58988
6.51677
25.1149
50.9916
79.1767
108.083
139.938
175.334
212.75
250.945
289.242
327.158
13.8341
4.66665
2.05583
1.63076
1.541
1.53703
1.61307
6.82943
25.9223
52.3128
81.0798
110.84
143.81
180.344
218.95
258.57
298.705
339.002
13.8748
4.89249
2.08171
1.65157
1.56065
1.55739
1.63456
6.90587
26.2443
53.0148
82.2796
112.755
146.616
184.061
223.646
264.477
306.214
348.634
13.9177
5.21487
2.1163
1.67373
1.58081
1.57721
1.65368
6.78037
26.0465
53.0724
82.7565
113.786
148.313
186.435
226.768
268.552
311.579
355.742
13.9634
5.63071
2.17113
1.69746
1.60147
1.59652
1.67062
6.47792
25.3368
52.4743
82.4839
113.917
148.873
187.441
228.274
270.716
314.654
360.075
14.0132
6.12571
2.25846
1.72305
1.62265
1.61543
1.68564
6.03504
24.1395
51.2179
81.4478
113.146
148.302
187.069
228.146
270.927
315.354
361.472
14.0684
6.68859
2.39186
1.75081
1.64438
1.63412
1.69913
5.49887
22.4999
49.3089
79.646
111.481
146.619
185.337
226.395
269.187
313.667
359.888
14.1308
7.30809
2.58582
1.78103
1.66664
1.6528
1.71152
4.92026
20.4878
46.7652
77.0829
108.939
143.859
182.286
223.066
265.548
309.649
355.393
14.2035
7.97201
2.85518
1.81403
1.68943
1.67171
1.7233
4.34622
18.1976
43.6231
73.7694
105.541
140.074
177.979
218.231
260.1
303.426
348.159
14.2906
8.66806
3.2153
1.8506
1.71282
1.69111
1.73497
3.81388
15.7448
39.9448
69.7243
101.316
135.326
172.499
211.988
252.973
295.175
338.446
14.3985
9.38025
3.67897
1.88858
1.73638
1.71107
1.74701
3.34751
13.2557
35.8258
64.9811
96.2934
129.684
165.945
204.453
244.32
285.114
326.569
14.5367
10.0922
4.26967
1.96352
1.76135
1.73151
1.75977
2.95866
10.8556
31.3908
59.5928
90.5057
123.218
158.43
195.763
234.313
273.483
312.873
14.7214
10.795
4.97367
2.10871
1.78872
1.75256
1.7735
2.64863
8.65423
26.8195
53.656
83.991
115.993
150.068
186.066
223.133
260.526
297.699
14.9811
11.4883
5.76874
2.3476
1.81832
1.77432
1.78829
2.41168
6.73876
22.177
47.2832
76.8072
108.064
140.972
175.516
210.967
246.482
281.371
15.3702
12.1674
6.64184
2.707
1.85052
1.79726
1.80302
2.23774
5.25811
17.7058
40.63
69.0352
99.486
131.239
164.268
198.003
231.574
264.173
15.8718
12.9187
7.56434
3.20283
1.88315
1.82071
1.81792
2.11544
4.18047
13.6592
33.9162
60.7954
90.3154
120.949
152.464
184.423
216.011
246.35
15.7487
13.5642
8.65247
3.90491
1.97178
1.84861
1.83252
2.03357
3.42207
10.2205
27.4102
52.2643
80.6288
110.166
140.221
170.399
199.988
228.11
38.2211
14.4962
9.2804
4.7683
2.19996
1.88438
1.84794
1.98281
2.90171
7.47287
21.4024
43.7019
70.5515
98.9449
127.626
156.077
183.684
209.633
180.852
28.8818
10.6081
5.39251
2.5067
1.92193
1.86345
1.95304
2.5531
5.43096
16.0105
35.3752
60.2795
87.369
114.738
141.564
167.249
191.076
180.127
46.7073
12.4067
6.05081
2.90453
1.96515
1.88482
1.93844
2.3222
4.10691
11.5252
27.5964
50.0719
75.5738
101.618
126.929
150.796
172.572
179.06
71.9883
16.7419
6.93092
3.32084
2.03522
1.91131
1.93566
2.17326
3.28263
8.08952
20.7045
40.2629
63.7728
88.3575
112.22
134.39
154.209
178.193
105.577
26.067
8.45078
3.81751
2.13659
1.9469
1.9443
2.08462
2.7714
5.65482
14.9101
31.2131
52.2731
75.1267
97.506
118.067
136.025
177.477
150.914
45.0248
10.2106
4.40637
2.28678
1.98766
1.95543
2.04008
2.45802
4.10342
10.3241
23.2422
41.4443
62.1998
82.9281
101.874
118.018
176.641
172.452
74.2965
16.3232
5.43293
2.45321
2.03038
1.97471
2.0211
2.26852
3.2186
7.0224
16.6236
31.6736
49.9442
68.7445
85.9413
100.193
176.239
166.033
103.988
29.1031
6.77335
2.67623
2.08144
2.00095
2.02027
2.16002
2.71843
4.85505
11.4825
23.3043
38.7858
55.3524
70.5767
82.7003
175.653
159.23
133.223
50.3743
10.7926
3.05262
2.14859
2.03341
2.02915
2.10662
2.43312
3.56932
7.73471
16.526
29.1159
43.2428
56.2992
65.912
175.167
157.061
151.087
79.1936
20.8129
3.46831
2.23139
2.07397
2.04215
2.08582
2.27176
2.89717
5.26862
11.3884
21.1862
32.8624
43.7819
50.2831
174.91
156.348
155.228
108.171
38.8217
6.37515
2.37068
2.12323
2.06658
2.08525
2.18675
2.54584
3.8041
7.78042
15.1107
24.5775
33.9935
36.5725
174.863
155.784
152.175
130.681
60.4355
12.43
2.5208
2.17376
2.09402
2.09396
2.15107
2.36704
3.04867
5.53091
10.9799
18.7669
27.4204
31.0595
174.789
155.375
149.273
142.382
83.0303
22.8857
2.69553
2.22341
2.12224
2.10432
2.14049
2.27669
2.70022
4.25157
8.32262
14.8586
23.1425
28.7937
174.571
155.046
148.29
146.241
104.878
39.0869
5.28999
2.31872
2.15796
2.12277
2.14184
2.22581
2.50047
3.43842
6.36899
11.7748
19.6328
27.2827
50.4981
145.868
147.27
158.356
170.843
183.368
195.506
208.462
222.951
238.15
253.111
266.846
279.388
290.526
300.399
310.139
320.084
331.514
346.823
370.238
430.291
588.801
37.6843
102.11
99.2952
98.9828
102.924
109.035
117.977
130.836
149.545
173.017
200.312
229.263
257.743
283.017
302.165
313.72
320.956
326.117
332.925
347.789
391.808
530.848
27.2908
68.8638
93.757
89.633
89.1549
89.184
89.7508
91.9493
99.9541
117.984
148.912
189.911
238.159
288.332
332.651
362.102
368.977
361.314
349.166
349.036
369.737
481.732
20.2989
46.5497
80.6339
89.7693
88.1021
87.5083
86.7723
86.4053
86.3233
89.6249
106.054
143.116
199.549
270.7
346.989
412.395
442.4
429.153
394.052
363.364
367.542
452.379
15.5319
32.0322
63.6006
86.0142
90.5534
89.3899
88.1017
86.4518
85.182
84.6679
86.0472
102.579
147.99
222.391
319.448
423.701
513.528
498.18
446.28
388.714
372.161
438.616
12.0764
22.508
47.4554
76.5073
90.3873
91.9214
90.8498
88.8019
86.5034
84.651
83.7732
84.1804
102.338
157.058
249.331
370.705
486.453
539.219
488.456
414.079
377.151
433.531
9.51169
16.2658
34.285
62.5933
86.1076
94.3503
93.6066
91.9248
89.1907
86.4175
84.2239
83.0172
82.7937
102.424
163.317
270.547
406.918
510.104
510.423
434.136
384.353
433.773
7.52841
12.1412
24.4478
48.3407
75.8951
92.6406
95.9212
95.1857
92.646
89.3517
86.256
83.8708
82.4298
81.9737
100.684
163.761
282.262
421.608
492.157
439.404
390.245
436.485
5.97861
9.34214
17.5043
35.9059
62.7142
86.8381
97.149
98.125
96.5092
93.3014
89.5925
86.2212
83.5727
81.9311
81.4256
97.1768
161.062
287.358
418.878
439.912
395.47
439.663
4.79616
7.36844
12.7689
26.0553
49.2791
76.2672
94.9984
101.234
100.206
97.9945
94.3162
90.3523
86.6173
83.4933
81.3563
80.5638
93.8375
160.709
301.794
422.319
400.838
444.874
3.91551
5.91764
9.58274
18.7523
37.2833
63.4193
87.9495
100.833
103.323
102.839
100.064
96.1915
91.871
87.5513
83.7256
81.0195
80.0256
91.6519
167.395
331.52
427.682
449.119
3.3182
4.83285
7.42305
13.5863
27.4756
50.4278
77.1699
97.5469
105.567
107.265
106.345
103.422
99.2125
94.151
88.765
83.8675
80.5586
79.5547
94.2111
198.511
411.911
456.925
2.94864
4.03661
5.93
10.0444
19.9584
38.6887
64.5622
89.9008
105.254
110.564
112.567
111.562
108.374
103.302
96.816
89.7603
83.4728
79.734
79.0321
103.313
261.175
464.035
2.74018
3.46322
4.87061
7.654
14.4769
28.8892
51.8528
79.0096
101.206
112.338
117.872
119.911
118.741
114.569
107.669
98.9106
89.7844
82.2582
78.6434
78.5253
151.253
462.844
2.64057
3.08092
4.10961
6.0413
10.6299
21.192
40.2438
66.4795
93.1766
111.446
121.396
127.543
129.55
127.315
120.82
110.823
99.0727
87.9601
80.0904
77.5245
82.4415
143.939
2.59652
2.84779
3.57037
4.94265
8.00324
15.4375
30.3849
53.8127
82.0829
106.716
122.574
133.38
139.753
140.703
135.715
125.175
111.013
96.1537
83.9558
77.5008
76.3309
79.9604
2.57934
2.71882
3.19527
4.1829
6.23882
11.3085
22.4852
42.1185
69.3534
98.0615
120.441
136.438
148.064
153.54
151.285
141.285
125.284
106.804
90.0743
79.0559
75.7074
76.2245
2.57708
2.65857
2.95127
3.65394
5.05905
8.44378
16.4578
32.0488
56.4075
86.3611
114.281
135.984
153.116
164.033
165.975
157.828
140.93
119.276
97.9883
82.133
75.4752
74.4819
2.58811
2.63567
2.80501
3.29042
4.26788
6.50713
12.0502
23.8599
44.3532
73.007
104.235
131.509
153.932
170.831
178.196
173.276
156.742
132.75
107.289
86.5034
75.8465
73.5962
2.60379
2.63227
2.72734
3.04524
3.73281
5.22017
8.94497
17.5198
33.8808
59.4281
91.281
122.861
150.304
172.898
187.117
186.025
171.238
146.147
117.366
91.869
76.7931
73.1164
2.62665
2.64156
2.69566
2.89035
3.37022
4.3718
6.82574
12.8207
25.2914
46.7665
76.85
110.584
142.321
169.684
189.335
194.903
183.016
158.161
127.219
97.8062
78.2771
72.7276
2.66361
2.65619
2.6887
2.8019
3.12833
3.8131
5.41588
9.47194
18.5878
35.7462
62.3782
95.8421
130.425
161.797
186.295
198.578
190.927
167.832
136.122
103.778
80.2346
72.4193
2.70408
2.67696
2.69531
2.75949
2.9712
3.44419
4.49492
7.16823
13.5826
26.6887
48.9973
80.0877
115.535
149.888
178.438
195.403
194.055
174.315
143.356
109.192
82.368
72.1633
2.79623
2.71018
2.7079
2.74623
2.87683
3.2016
3.89936
5.63122
9.99285
19.6037
37.4109
64.6869
98.9331
134.815
166.554
187.955
194.396
177.072
148.483
113.863
84.5118
71.9438
2.90414
2.75577
2.72751
2.74905
2.82643
3.04537
3.51601
4.63116
7.51127
14.3001
27.9157
50.6715
81.9968
117.677
151.495
176.563
185.922
175.884
150.996
117.343
86.5112
71.7496
3.23623
2.82415
2.7584
2.76061
2.80593
2.94886
3.26998
3.99234
5.8519
10.4859
20.4966
38.6508
65.9151
99.7028
134.22
162.14
175.812
172.023
150.7
119.34
88.166
71.5717
6.43325
2.94032
2.80654
2.78057
2.8048
2.89359
3.11332
3.58898
4.77421
7.84246
14.9412
28.8503
51.537
82.0806