/*--------------------------------*- C++ -*----------------------------------*\
| =========                 |                                                 |
| \\      /  F ield         | OpenFOAM: The Open Source CFD Toolbox           |
|  \\    /   O peration     | Version:  v2012                                 |
|   \\  /    A nd           | Website:  www.openfoam.com                      |
|    \\/     M anipulation  |                                                 |
\*---------------------------------------------------------------------------*/
FoamFile
{
    version     2.0;
    format      ascii;
    class       volScalarField;
    location    "562";
    object      k;
}
// * * * * * * * * * * * * * * * * * * * * * * * * * * * * * * * * * * * * * //

dimensions      [0 2 -2 0 0 0 0];


internalField   nonuniform List<scalar> 
6054
(
0.0050327
0.00613765
0.0072967
0.00852062
0.00982706
0.0112462
0.0128156
0.0145772
0.016574
0.0188433
0.0214507
0.0245095
0.028193
0.0327612
0.0386118
0.0463644
0.0569996
0.0721118
0.0944447
0.129122
0.00923655
0.0103335
0.0114757
0.0128154
0.0143873
0.0162352
0.0184232
0.021028
0.0241435
0.0278815
0.0323767
0.0378052
0.0444006
0.052456
0.0623291
0.0744514
0.0893057
0.107368
0.128977
0.15381
0.0216461
0.0239817
0.0264904
0.0291966
0.032134
0.0353479
0.038897
0.0428466
0.0472692
0.0522443
0.0578671
0.0642491
0.0715082
0.0797818
0.0892409
0.100049
0.112362
0.126299
0.141935
0.159307
0.0336952
0.0365263
0.0394719
0.0425621
0.0458343
0.0493311
0.0530996
0.0571887
0.0616522
0.0665483
0.0719424
0.0779072
0.0845271
0.0919021
0.100145
0.109385
0.119778
0.131519
0.144882
0.160274
0.0407784
0.0435242
0.0463827
0.0493866
0.0525705
0.0559694
0.0596194
0.0635595
0.0678319
0.0724837
0.0775688
0.0831491
0.0892988
0.096109
0.103693
0.112199
0.121818
0.132812
0.145542
0.160503
0.0426922
0.045139
0.0477344
0.0505099
0.0534962
0.0567236
0.0602247
0.0640361
0.0681983
0.0727535
0.0777616
0.0832832
0.0893894
0.0961677
0.103729
0.112219
0.121828
0.132816
0.145543
0.160503
0.0393501
0.0413241
0.0435048
0.0459198
0.0485967
0.0515663
0.0548623
0.0585287
0.0626547
0.0672902
0.0724804
0.0782877
0.0847897
0.0920773
0.100256
0.10945
0.119812
0.131534
0.144887
0.160275
0.0297729
0.0309471
0.0323937
0.0341329
0.0361896
0.0385962
0.0414456
0.0448528
0.0488298
0.053439
0.0587639
0.0649027
0.0719676
0.0800985
0.0894495
0.100178
0.112434
0.126334
0.141947
0.159308
0.0147017
0.0147866
0.015156
0.0158238
0.0168279
0.0182344
0.0201037
0.0224301
0.0252962
0.0288114
0.033113
0.038381
0.0448441
0.0527869
0.0625662
0.074611
0.089404
0.107422
0.129001
0.153814
0.0141076
0.0134992
0.0131301
0.0131393
0.0134654
0.0141063
0.0150459
0.0162923
0.0178627
0.019789
0.0221321
0.0249927
0.0285287
0.0329879
0.038759
0.0464548
0.0570507
0.0721369
0.0944533
0.129123
4.66452e-05
5.29556e-05
5.59337e-05
5.80331e-05
6.23506e-05
6.92162e-05
7.63773e-05
8.17405e-05
8.42659e-05
8.35107e-05
7.72762e-05
6.85397e-05
6.18181e-05
9.39524e-05
0.000179557
0.000333629
0.000589673
0.00097745
0.00151584
0.00220843
0.00304382
0.00399676
0.000164508
0.000181667
0.000200881
0.000231899
0.000275891
0.000335995
0.000417491
0.000513596
0.000617823
0.000748983
0.000934745
0.00119148
0.00153135
0.00195633
0.00246729
0.00306197
0.00374086
0.00449988
0.00533203
0.00622972
0.00718561
0.00819087
0.000952436
0.00113617
0.00132136
0.00154818
0.00185416
0.0022631
0.0028187
0.00345597
0.00411296
0.00477725
0.00547945
0.00623904
0.00706583
0.00797052
0.00897148
0.0100832
0.0113165
0.0126753
0.0141599
0.0157647
0.0175419
0.0195102
0.00314881
0.00384969
0.00449417
0.00536375
0.00630839
0.00720558
0.00803362
0.00875087
0.00937472
0.0100079
0.0107422
0.0116308
0.0127022
0.0139769
0.0154664
0.0171709
0.0190793
0.0211719
0.0234513
0.0258711
0.0283946
0.0310027
0.00733895
0.00865607
0.00987791
0.0110078
0.0118574
0.0123567
0.0126567
0.0129202
0.013293
0.0138895
0.0147721
0.0159603
0.0174463
0.0192046
0.021196
0.0233728
0.0256862
0.028093
0.0305594
0.0330612
0.035591
0.0381568
0.0128884
0.0142851
0.0152404
0.01564
0.015583
0.0153393
0.015184
0.0152957
0.0157669
0.0166265
0.0178552
0.0194015
0.0211964
0.0231668
0.0252453
0.0273785
0.0295297
0.0316808
0.0338299
0.0359875
0.0381695
0.0403957
0.018097
0.0186216
0.0184176
0.0177465
0.0169839
0.016448
0.0163198
0.0166544
0.0174264
0.0185649
0.0199759
0.0215607
0.0232309
0.0249185
0.0265797
0.0281934
0.0297586
0.0312903
0.0328134
0.0343542
0.0359293
0.0375767
0.021223
0.0203887
0.0191263
0.0178902
0.0170119
0.0166438
0.0167937
0.0173825
0.0182909
0.0193915
0.020568
0.0217275
0.0228057
0.023768
0.0246021
0.0253169
0.0259346
0.0264842
0.0270026
0.0275376
0.028138
0.0288604
0.0218179
0.0200052
0.0183296
0.0171209
0.0164941
0.0164063
0.0167301
0.0173086
0.0179903
0.0186477
0.0191866
0.0195447
0.0196902
0.0196123
0.0193229
0.0188456
0.0182159
0.0174827
0.0167025
0.015948
0.0153118
0.0148657
0.0206039
0.0185113
0.016976
0.0160765
0.0157261
0.0157603
0.0159979
0.0162781
0.0164758
0.0165079
0.0163297
0.0159322
0.0153302
0.0145544
0.013621
0.0125284
0.0113127
0.0100777
0.00895461
0.00815236
0.00802345
0.00931557
1.69137e-07
9.96567e-07
2.02164e-06
2.38175e-06
3.74513e-06
1.03027e-05
1.91986e-05
2.63881e-05
2.81794e-05
2.47139e-05
1.85337e-05
1.28066e-05
9.33633e-06
8.41181e-06
1.02974e-05
1.62548e-05
2.61984e-05
3.7335e-05
9.25543e-07
2.02297e-06
1.05055e-05
3.23547e-05
5.84224e-05
7.40614e-05
7.36069e-05
6.08686e-05
4.35156e-05
3.10716e-05
2.21459e-05
1.58333e-05
1.20977e-05
1.19038e-05
2.06577e-05
4.86481e-05
9.30728e-05
0.000136323
2.44745e-06
8.62916e-06
5.37604e-05
0.000144503
0.000237583
0.000295042
0.000304155
0.000272354
0.000216856
0.000163282
0.000119227
8.6954e-05
6.7894e-05
6.88368e-05
0.0001178
0.000270008
0.000507567
0.000752906
3.95054e-06
2.10856e-05
0.000126823
0.000304118
0.000470611
0.000573974
0.000600724
0.000563665
0.000485874
0.000396953
0.000309764
0.000238584
0.000198051
0.000223656
0.000410015
0.000900028
0.00161873
0.00236509
4.79828e-06
4.25887e-05
0.000230441
0.000502494
0.000737635
0.000873599
0.000900331
0.000846112
0.000749719
0.000638491
0.000524604
0.000431449
0.000407982
0.000591954
0.00125719
0.00251157
0.00415741
0.00589044
5.18333e-06
8.24405e-05
0.000388219
0.000778172
0.00109179
0.00125276
0.0012569
0.00116351
0.00103233
0.000887187
0.000751836
0.000675429
0.000818366
0.00159172
0.00342302
0.00604423
0.00869795
0.0111207
8.60318e-06
0.000156992
0.000629124
0.00117825
0.00159269
0.00177483
0.00175038
0.00158119
0.00138328
0.00118452
0.00104246
0.00111296
0.00185923
0.00394645
0.00737948
0.0113657
0.0145282
0.0167531
3.41283e-05
0.000287184
0.00099017
0.00176019
0.00229976
0.00249193
0.00238969
0.00211988
0.00182492
0.00157199
0.00153404
0.00215042
0.00426718
0.0082153
0.0132235
0.0172904
0.0199468
0.0211985
0.000112493
0.000495236
0.00152145
0.00259174
0.00327885
0.00345085
0.00321048
0.00281718
0.00239429
0.00218064
0.00262207
0.00449369
0.0087269
0.0140828
0.0190624
0.022343
0.0236434
0.0232719
0.000297087
0.000807451
0.00228788
0.00376401
0.00458477
0.00464269
0.00418606
0.00363682
0.00320865
0.00339435
0.00507238
0.00880979
0.0142532
0.019784
0.0238057
0.0254439
0.0249008
0.0229834
0.0185148
0.0166723
0.0155195
0.0149307
0.0147181
0.0146959
0.0147145
0.0146744
0.0145266
0.0142598
0.0138724
0.0133441
0.0126585
0.0117787
0.0106749
0.00935148
0.00785987
0.006285
0.00472775
0.00329987
0.00216037
0.00182372
0.0164159
0.0150302
0.014255
0.0138924
0.0137668
0.0137537
0.0137864
0.0138379
0.0138952
0.0139252
0.0138558
0.0135848
0.013008
0.0120468
0.0106976
0.00903568
0.00719481
0.00529609
0.00334543
0.00170821
0.000625935
0.000362269
0.0147163
0.0138097
0.0133989
0.013321
0.0134786
0.0138258
0.0143392
0.0149748
0.015633
0.0161473
0.0163118
0.0159409
0.0149332
0.013329
0.0113213
0.00913885
0.00701349
0.00504086
0.00336533
0.00193297
0.000698218
0.000222211
0.0136248
0.013239
0.0133187
0.0137801
0.0145845
0.0156863
0.0169778
0.0182534
0.0192147
0.0195387
0.0189856
0.0175016
0.0152696
0.0126215
0.0100619
0.00787928
0.00611858
0.00476137
0.00358258
0.00235003
0.000885919
0.000169243
0.0133603
0.0136524
0.0144838
0.015801
0.0175132
0.0194172
0.0211721
0.0223438
0.0225293
0.0215157
0.0193794
0.0164592
0.0133627
0.0106023
0.00853163
0.00695345
0.00570421
0.00469318
0.00377161
0.00263486
0.00103129
0.000138858
0.0142088
0.0154202
0.0172472
0.0195299
0.0219549
0.02404
0.0252405
0.0251301
0.0235774
0.0208038
0.0172994
0.0137477
0.0110837
0.00901811
0.00744389
0.00623964
0.00530617
0.00455517
0.0038211
0.0027696
0.0011126
0.000110309
0.0164433
0.018741
0.0215305
0.0243816
0.0266881
0.0278248
0.0273768
0.025294
0.0218826
0.0176179
0.014081
0.0113131
0.00919069
0.007571
0.00637603
0.00547953
0.00480775
0.00427177
0.00369985
0.00274464
0.00111489
8.45252e-05
0.0201315
0.0233543
0.0265479
0.0290035
0.0300379
0.0292492
0.0266288
0.0224926
0.0177128
0.01403
0.0111519
0.00896342
0.00733129
0.006125
0.00526486
0.00464071
0.00419535
0.00384325
0.00341218
0.00255518
0.00102126
8.19088e-05
0.0248626
0.0283233
0.0308703
0.0317841
0.0306641
0.0274968
0.0224561
0.0174705
0.0135362
0.0105519
0.00831903
0.00670738
0.0055652
0.0047477
0.00416994
0.00377256
0.00350991
0.00330158
0.00296924
0.00220926
0.00085688
8.94499e-05
0.029586
0.0321756
0.0329508
0.0315216
0.027855
0.0219314
0.0165954
0.0125195
0.00949698
0.00732221
0.00580382
0.00473914
0.00400382
0.00349241
0.00314244
0.00292108
0.00279744
0.00268259
0.00244857
0.00181386
0.000668526
9.32651e-05
0.0328319
0.0334577
0.0317487
0.0277036
0.0211373
0.0153124
0.011044
0.00806974
0.00599675
0.0046232
0.00370527
0.00308467
0.00266549
0.0023861
0.00221395
0.00213085
0.00210943
0.00209011
0.00194984
0.00142339
0.000484019
8.93764e-05
0.0333041
0.0313555
0.027068
0.0204875
0.0139107
0.00947689
0.00644813
0.00458955
0.00337974
0.0026017
0.00210556
0.00178736
0.00158861
0.00147861
0.00144313
0.0014691
0.00152884
0.00159317
0.00151198
0.00106774
0.000324879
8.17169e-05
0.0304696
0.0260419
0.0197213
0.013111
0.00804329
0.00509741
0.0033294
0.00229952
0.00169189
0.00132047
0.0010887
0.000946532
0.000871596
0.000856481
0.000898245
0.000989054
0.00110869
0.00120446
0.00114037
0.000750733
0.000198924
7.03976e-05
0.0248222
0.0187985
0.0122433
0.00731501
0.00413904
0.0024695
0.00164017
0.00120833
0.000952783
0.000779307
0.000651571
0.000560734
0.000511832
0.000514183
0.000572581
0.000679394
0.000810319
0.00089031
0.000809425
0.000490628
0.000121013
5.44675e-05
0.0177196
0.0114584
0.00658536
0.0035637
0.00204221
0.00138324
0.00107692
0.000900355
0.000771471
0.000658638
0.000551519
0.000455168
0.000386123
0.000363221
0.000396492
0.000477554
0.000577088
0.000622752
0.000538882
0.00030421
7.20307e-05
3.76758e-05
0.0110581
0.00611406
0.00317295
0.00181781
0.00128802
0.00106243
0.000937215
0.000847414
0.000767317
0.000682015
0.000583636
0.000475666
0.000376083
0.000310725
0.00029795
0.000334394
0.000392868
0.000410955
0.000339676
0.000181161
4.16679e-05
2.293e-05
0.00611516
0.00294213
0.00168751
0.00123392
0.00105469
0.00095957
0.000895986
0.000845992
0.000797743
0.000739446
0.000660212
0.000555576
0.000435405
0.000325847
0.000256551
0.000239469
0.0002578
0.000258747
0.00020563
0.000104946
2.33993e-05
1.25308e-05
0.00332006
0.00168548
0.00119401
0.00103293
0.000954457
0.000904369
0.000869121
0.000842231
0.000817144
0.000784702
0.000733455
0.000652255
0.000537776
0.000403606
0.000281296
0.000202549
0.000174425
0.000160526
0.000122108
5.99406e-05
1.28755e-05
6.49087e-06
0.00199268
0.00121918
0.00101284
0.00094333
0.000902487
0.000873045
0.000851407
0.000834768
0.000821192
0.000804923
0.000777536
0.000727184
0.000641964
0.000518246
0.00037128
0.000236413
0.000147873
0.000108001
7.45947e-05
3.47913e-05
7.1762e-06
3.52076e-06
0.00140391
0.00103972
0.000947244
0.000915585
0.000895068
0.000875827
0.000858735
0.000841488
0.000827645
0.000813887
0.000795858
0.000765714
0.000711296
0.000619766
0.000487032
0.000330142
0.000188136
9.79397e-05
5.35575e-05
2.23937e-05
4.41833e-06
2.43506e-06
0.00115569
0.000986709
0.000951364
0.000942758
0.00093725
0.000925446
0.000906442
0.000881896
0.000859263
0.000836583
0.000812823
0.000784881
0.000744887
0.000680213
0.000577206
0.000433624
0.000270889
0.00013205
5.46425e-05
1.88123e-05
3.49582e-06
2.51455e-06
0.00107032
0.00100316
0.0010041
0.00101431
0.0010215
0.00101635
0.000998358
0.000969667
0.000933626
0.000892861
0.000853292
0.000813418
0.000769253
0.000713058
0.000630671
0.000509601
0.000353388
0.00019242
7.3683e-05
2.14035e-05
3.98698e-06
3.50685e-06
0.00107099
0.00106483
0.00109341
0.00112048
0.0011377
0.00113903
0.00112277
0.0010905
0.00104528
0.000991311
0.000930975
0.000871843
0.000811179
0.000746469
0.000668284
0.000561552
0.000418117
0.000252307
0.000107965
2.90705e-05
5.17642e-06
4.98737e-06
0.00112193
0.00115751
0.00120882
0.00125096
0.0012757
0.00128357
0.00127113
0.00123915
0.00118938
0.00112457
0.00104884
0.000967792
0.000885394
0.000801212
0.000712623
0.000607747
0.000473162
0.000308779
0.0001466
4.08644e-05
6.7337e-06
6.75324e-06
0.001202
0.0012676
0.00133645
0.00139024
0.00142279
0.00143687
0.00142972
0.00140173
0.00135341
0.00128558
0.00120025
0.00110122
0.000995145
0.000887388
0.000777967
0.000662399
0.000528133
0.000365895
0.000191344
5.8671e-05
9.31829e-06
8.24708e-06
0.00129736
0.0013848
0.00146654
0.00152887
0.00156755
0.00158674
0.00158537
0.00156392
0.00152196
0.00145829
0.00137222
0.00126483
0.00114028
0.00100663
0.000871897
0.000735164
0.000590584
0.000425802
0.000242508
8.32326e-05
1.29358e-05
8.85789e-06
0.00139848
0.00150138
0.00159175
0.00165929
0.0017017
0.00172416
0.0017279
0.00171405
0.00168178
0.00162828
0.00154986
0.00144396
0.00131156
0.00115886
0.000996314
0.000832375
0.000667357
0.000491966
0.000299221
0.00011581
1.81555e-05
8.72002e-06
0.00149856
0.00161164
0.00170666
0.00177614
0.00181967
0.00184317
0.00185058
0.001844
0.00182285
0.00178344
0.00171962
0.00162479
0.00149519
0.00133335
0.00114925
0.000956468
0.000763901
0.000569132
0.00036273
0.000156416
2.586e-05
7.61667e-06
0.0015928
0.00171162
0.00180779
0.00187627
0.00191856
0.00194056
0.00194976
0.00194923
0.00193911
0.00191557
0.00187088
0.00179497
0.00167882
0.00151935
0.00132324
0.00110576
0.000883018
0.000661721
0.000435919
0.000206564
3.84334e-05
5.26295e-06
0.00167807
0.00179897
0.00189334
0.00195829
0.00199717
0.00201564
0.0020246
0.00202825
0.00202788
0.00202027
0.00199695
0.00194519
0.0018511
0.00170515
0.00150834
0.00127447
0.0010241
0.000772498
0.000521294
0.000267676
5.9949e-05
3.54376e-06
0.00175262
0.0018728
0.0019631
0.00202239
0.00205556
0.00206983
0.0020766
0.00208216
0.00208946
0.00209648
0.00209484
0.00206999
0.0020039
0.0018806
0.00169406
0.00145406
0.0011829
0.000901994
0.000620668
0.000340661
9.4403e-05
9.29216e-06
0.00181593
0.00193358
0.00201858
0.00207119
0.00209755
0.00210621
0.00210887
0.00211389
0.00212625
0.00214572
0.00216467
0.00216749
0.00213269
0.00203847
0.00187133
0.00163519
0.00135223
0.00104794
0.000735184
0.000426278
0.000144926
3.2698e-05
0.00186829
0.00198256
0.00206194
0.00210767
0.00212671
0.00212858
0.00212538
0.00212739
0.00214196
0.00217119
0.00220879
0.00223861
0.00223631
0.00217487
0.00203365
0.00180972
0.00152353
0.0012048
0.000867232
0.000524775
0.000213594
8.98663e-05
0.00191038
0.00202117
0.00209538
0.00213471
0.00214652
0.00214088
0.00213038
0.00212712
0.00214104
0.00217709
0.00223089
0.00228622
0.00231622
0.00228906
0.00217754
0.00197172
0.00168904
0.00136462
0.00101217
0.000635457
0.000301305
0.000203856
0.00194296
0.00205072
0.00212072
0.0021547
0.00215992
0.00214663
0.00212787
0.00211747
0.00212816
0.00216817
0.00223554
0.00231436
0.00237552
0.00238265
0.00230232
0.00211796
0.00184326
0.00151941
0.00116355
0.000756523
0.000405801
0.000395806
0.00196662
0.00207206
0.00213911
0.00216912
0.00216891
0.00214845
0.00212106
0.00210233
0.00210786
0.0021494
0.00222779
0.00232779
0.00241834
0.00245868
0.00240938
0.00224761
0.00198325
0.00166268
0.00131448
0.000889553
0.000520921
0.000673527
0.00198171
0.00208548
0.00215078
0.00217831
0.00217418
0.00214767
0.00211203
0.00208473
0.0020842
0.00212569
0.00221297
0.00233178
0.00244937
0.00252097
0.00250128
0.00236166
0.00210804
0.00179188
0.00145895
0.00103008
0.000637086
0.00101521
0.00198812
0.00209039
0.00215482
0.00218118
0.00217473
0.00214395
0.00210142
0.00206661
0.00206065
0.00210178
0.00219658
0.00233187
0.00247368
0.00257367
0.00258101
0.00246179
0.00221813
0.00190543
0.00159174
0.00117219
0.00074441
0.00137566
0.0019849
0.00208439
0.00214825
0.00217457
0.00216754
0.00213505
0.00208847
0.00204897
0.00204009
0.00208217
0.00218408
0.0023338
0.00249656
0.00262113
0.00265176
0.00255006
0.00231472
0.00200411
0.00170878
0.00131129
0.000837219
0.00170922
0.00197593
0.00206929
0.00213105
0.00215685
0.00214968
0.00211722
0.00207129
0.00203266
0.00202533
0.00207127
0.00218095
0.00234336
0.00252336
0.0026677
0.00271653
0.00262839
0.00239934
0.00208984
0.00180821
0.00144342
0.00091487
0.0019763
0.00196627
0.00204851
0.00210559
0.0021299
0.00212283
0.00209173
0.00204939
0.00201608
0.00201609
0.00207155
0.00219274
0.00236802
0.00256107
0.00271753
0.00277811
0.00269836
0.00247337
0.00216479
0.00189294
0.00156557
0.000982694
0.0021481
0.00196356
0.0020278
0.00207624
0.00209721
0.00209
0.00206136
0.00202503
0.00200113
0.00201369
0.00208405
0.00222096
0.00241094
0.00261591
0.00278002
0.00284335
0.00276218
0.00253523
0.00223078
0.00196766
0.00167574
0.00104688
0.00220204
0.0019786
0.00201592
0.00205014
0.00206477
0.00205645
0.0020309
0.00200298
0.00199264
0.00202309
0.00211382
0.00227069
0.0024771
0.00269244
0.00285929
0.00291771
0.0028266
0.0025908
0.00228567
0.00203205
0.00176773
0.00111653
0.00213434
0.00202553
0.0020253
0.00203804
0.00204203
0.00203075
0.0020085
0.00199134
0.00199883
0.00205252
0.00216877
0.00234909
0.00257253
0.00279522
0.00295829
0.0030028
0.0028923
0.00264046
0.00233185
0.00208851
0.00184986
0.0011811
0.00196153
0.00212159
0.00207224
0.00205488
0.00204273
0.00202577
0.00200654
0.00200239
0.00203178
0.00211352
0.00225942
0.00246504
0.00270392
0.00292854
0.00307888
0.00309844
0.00295805
0.00268313
0.0023689
0.00213617
0.00192119
0.00123421
0.0017234
0.00228601
0.00217637
0.00211984
0.00208529
0.00205929
0.00204239
0.00205321
0.00210786
0.00222104
0.00239851
0.00262849
0.00287796
0.00309559
0.00322103
0.00320227
0.0030206
0.0027163
0.00239531
0.00217319
0.00197772
0.00127283
0.0014433
0.00253816
0.00235917
0.00225527
0.00219222
0.00215365
0.00213814
0.00216533
0.00224726
0.00239284
0.00260027
0.0028494
0.00310003
0.00329722
0.00338165
0.00330875
0.0030742
0.00273576
0.00240842
0.00219596
0.00200738
0.00129216
0.00114658
0.00289453
0.00264128
0.00248439
0.00238817
0.00233414
0.00231912
0.00236321
0.00247224
0.00264772
0.00287884
0.00313599
0.00337227
0.00352999
0.00355296
0.00340812
0.00310999
0.00273546
0.00240394
0.0021996
0.00200913
0.00128599
0.000860432
0.00336578
0.00303933
0.00282812
0.00269678
0.00262582
0.00261087
0.0026712
0.00280403
0.00300223
0.00324453
0.0034916
0.00369096
0.00378372
0.00372055
0.00348535
0.00311595
0.00270794
0.00237639
0.00217723
0.00197149
0.00124639
0.000601565
0.00395744
0.00356434
0.00330225
0.00313707
0.00304956
0.00303675
0.00310988
0.00325891
0.00346641
0.00369965
0.00391087
0.0040429
0.00403826
0.00386125
0.00351966
0.00307765
0.0026455
0.00231956
0.00211996
0.00189057
0.00116699
0.000384672
0.00467007
0.00422127
0.00391549
0.00372071
0.00361874
0.00360991
0.0036905
0.0038435
0.00403957
0.00423495
0.00437496
0.00439938
0.00425932
0.00394173
0.00348574
0.00298115
0.00254001
0.00222596
0.00201723
0.00176015
0.00104261
0.000220417
0.00549572
0.00500688
0.00466878
0.00445204
0.00433963
0.00433386
0.00441423
0.00455205
0.00470573
0.00482237
0.00484256
0.00470971
0.0043951
0.00391985
0.00335827
0.00281747
0.00238668
0.00208845
0.00186066
0.00157073
0.00087198
0.000110825
0.00642311
0.00591454
0.00555991
0.00533232
0.00521495
0.0052088
0.00527109
0.00535989
0.00542333
0.00540285
0.00524019
0.00489603
0.00437873
0.00375307
0.00312122
0.00258243
0.0021808
0.00189544
0.00164177
0.00131042
0.000660377
8.58237e-05
0.00744335
0.006941
0.00658942
0.00636284
0.00624206
0.00621775
0.00622251
0.00620413
0.00610515
0.00586789
0.00545051
0.00485476
0.00414256
0.00341563
0.00277422
0.00227502
0.00191265
0.00162874
0.00134526
0.000979651
0.000412738
8.37135e-05
0.00855357
0.00808827
0.00775725
0.00753332
0.00739464
0.0072979
0.00716796
0.00694795
0.00658277
0.00603514
0.00531283
0.00448237
0.00364962
0.00291346
0.00232878
0.00189419
0.0015632
0.00126995
0.000962863
0.000612089
0.000201041
7.15505e-05
0.00975189
0.00934921
0.00903119
0.00877378
0.00855251
0.00827118
0.00787476
0.00731205
0.00656289
0.00565733
0.00468001
0.00373866
0.00292469
0.00227937
0.00179386
0.00142588
0.00111915
0.000829724
0.000546336
0.000264471
7.97953e-05
5.3082e-05
0.0110153
0.0106464
0.0102586
0.00985113
0.00935817
0.00869855
0.00784497
0.00681813
0.00569083
0.00456679
0.00354875
0.00270537
0.00204845
0.00155299
0.0011781
0.000878942
0.000619404
0.00039152
0.000204612
9.02147e-05
3.11881e-05
2.97505e-05
0.0122434
0.0116576
0.0109334
0.0100483
0.00895571
0.00771096
0.00639411
0.00509931
0.00392427
0.0029342
0.00215733
0.00156768
0.00112502
0.000793683
0.000542898
0.00034923
0.000201152
0.000101678
5.22172e-05
2.84003e-05
1.08538e-05
1.1585e-05
0.0124753
0.0109176
0.00926879
0.00766918
0.00622135
0.00494097
0.00382013
0.00284445
0.00202396
0.0013877
0.000905272
0.000558403
0.000323851
0.000178966
9.74108e-05
5.29282e-05
2.99248e-05
1.62292e-05
9.87206e-06
6.30058e-06
2.67269e-06
2.77797e-06
0.00989082
0.00916595
0.00854818
0.00782595
0.00692167
0.00579057
0.00443154
0.0029665
0.00164944
0.000723268
0.000244162
6.18619e-05
1.49579e-05
1.70593e-05
1.85627e-05
1.74192e-05
1.5778e-05
1.39925e-05
1.16295e-05
7.09624e-06
2.34063e-06
3.51273e-07
0.000626926
0.00125779
0.00337846
0.00530702
0.0061835
0.00603336
0.00536376
0.00477319
0.00471849
0.00600385
0.00918632
0.0141908
0.0198968
0.0244858
0.0266219
0.0261399
0.0239093
0.0210803
0.00108426
0.00191097
0.00492369
0.00730264
0.00808365
0.00765031
0.00694854
0.00658391
0.0073702
0.00984892
0.014142
0.01952
0.0243896
0.0270803
0.0269621
0.0246989
0.021569
0.0186344
0.00156243
0.0027852
0.00687796
0.00956088
0.0100914
0.0094294
0.00894522
0.00920741
0.0109167
0.0143328
0.0190488
0.0238129
0.0269437
0.0273713
0.0253606
0.0221253
0.0189005
0.0163783
0.00198617
0.00390218
0.00915013
0.011899
0.0121419
0.0115815
0.0114939
0.0124544
0.0149384
0.0187936
0.0231181
0.0264215
0.0274024
0.0258545
0.0227322
0.0193368
0.0165518
0.0146727
0.00233114
0.00525736
0.0115867
0.0141765
0.0142872
0.0141026
0.0144571
0.0160356
0.0189457
0.0225971
0.0257782
0.0271628
0.0261625
0.0233436
0.0199249
0.0169413
0.0148613
0.0137083
0.0026011
0.00682159
0.0140028
0.0163215
0.0165852
0.0167891
0.0176164
0.019593
0.0224461
0.0252552
0.026817
0.0263172
0.0239204
0.0206221
0.0175181
0.015253
0.0139896
0.0136906
0.00281776
0.00856893
0.0160901
0.0184999
0.0191045
0.0195501
0.0207
0.0227388
0.0250363
0.0265452
0.0264048
0.0244551
0.0213884
0.0182478
0.0158198
0.014435
0.0141471
0.0148447
0.00302358
0.0101829
0.0181141
0.0206826
0.0215475
0.0221364
0.0233611
0.0251017
0.026493
0.026542
0.024978
0.022195
0.0190924
0.0165309
0.0150043
0.0146767
0.0154866
0.017356
0.00320074
0.0117483
0.0200774
0.0228061
0.0237317
0.0243597
0.0254045
0.0265179
0.0268208
0.0255507
0.023044
0.0200266
0.0173666
0.0156819
0.0152393
0.0160771
0.0181185
0.0211848
0.00333354
0.0132452
0.0219935
0.0248905
0.0256211
0.0260968
0.0267068
0.0269955
0.026215
0.0239666
0.0210523
0.0183117
0.0164447
0.0158264
0.0165782
0.0186757
0.021906
0.0258111
0.00341714
0.0147031
0.0237643
0.0265538
0.0271112
0.0272589
0.0272625
0.0266829
0.0249877
0.0222043
0.0193794
0.0172875
0.0164181
0.0169806
0.0189947
0.0222521
0.0262524
0.0301379
0.0034648
0.0161198
0.0254558
0.0279109
0.0281623
0.0278443
0.0271759
0.0258191
0.023481
0.0205918
0.0182296
0.0170189
0.0172878
0.0190809
0.0222149
0.0261828
0.0300817
0.0327763
0.00344975
0.0174303
0.0269032
0.0289411
0.0287778
0.0279222
0.0266119
0.0246534
0.0219731
0.0193365
0.0177057
0.0175442
0.018972
0.0218431
0.0256494
0.0294854
0.0321578
0.032632
0.0033517
0.0185774
0.0279895
0.0296399
0.0289997
0.0276025
0.0257504
0.0234079
0.0206819
0.0185805
0.0178547
0.0187517
0.021218
0.0247524
0.028458
0.0311207
0.0316141
0.0294206
0.00325788
0.0196671
0.0288203
0.030034
0.0288969
0.0270037
0.0247409
0.0222057
0.0197159
0.0183277
0.0185525
0.0204461
0.0235966
0.0271231
0.029803
0.0304286
0.0283589
0.0238122
0.00317662
0.0204771
0.0293984
0.0301641
0.028548
0.0262368
0.0237063
0.0211515
0.019128
0.0185578
0.0196731
0.0222939
0.0255756
0.0283049
0.0291899
0.0274347
0.0231502
0.0172403
0.00342678
0.0211448
0.029756
0.0300801
0.02803
0.025395
0.0227356
0.020317
0.0188801
0.019098
0.0209843
0.0239052
0.0266721
0.0279301
0.0266843
0.0228492
0.0172565
0.011256
0.00397031
0.0216678
0.029927
0.0298326
0.0274084
0.0245461
0.0218828
0.01973
0.0189462
0.0198597
0.0222181
0.0249328
0.0266094
0.0260513
0.0228795
0.0177718
0.0120233
0.0068812
0.0045739
0.0220318
0.0299409
0.0294656
0.0267318
0.0237271
0.0211177
0.0193418
0.0191698
0.0206699
0.0231304
0.025163
0.0253951
0.0230929
0.018632
0.0131923
0.00805905
0.00416138
0.00519787
0.0222419
0.0298234
0.0290158
0.0260358
0.0229591
0.0204593
0.0191228
0.0195089
0.0213711
0.0235579
0.0245615
0.0232883
0.0196587
0.0146497
0.00955654
0.00535806
0.00263746
0.00582722
0.0223085
0.0295974
0.0285109
0.0253431
0.0222549
0.0199224
0.019057
0.0198819
0.0218418
0.0234416
0.0232568
0.0206812
0.016283
0.0113028
0.00688778
0.00363777
0.0018363
0.00646019
0.0222422
0.0292831
0.0279713
0.0246686
0.0215904
0.0194776
0.0190264
0.0202085
0.0220191
0.0228263
0.0214861
0.0179736
0.0133124
0.00872703
0.00502148
0.00259385
0.0014363
0.00708866
0.0220596
0.0288988
0.0274125
0.0240176
0.020958
0.0191197
0.0190545
0.0204391
0.0218989
0.0218284
0.0195046
0.0154434
0.0108665
0.00679034
0.00375593
0.00198408
0.00125455
0.00769448
0.0217798
0.028459
0.0268448
0.0233957
0.0203902
0.0188711
0.0191124
0.0205495
0.0215204
0.0205922
0.0175229
0.0132321
0.00892724
0.00536451
0.00291879
0.00164276
0.00119381
0.00827166
0.0214177
0.0279741
0.0262768
0.0227823
0.0198716
0.0186328
0.0191711
0.0205391
0.0209486
0.0192546
0.0156811
0.0113819
0.00741571
0.00433122
0.00237686
0.001465
0.00120151
0.0088145
0.0209868
0.0274525
0.0257116
0.022154
0.0194057
0.0184535
0.0192215
0.0204252
0.0202568
0.0179256
0.014052
0.00987156
0.00625163
0.0035919
0.00203407
0.00138645
0.00124784
0.0093157
0.0205002
0.0269001
0.0251525
0.0215567
0.0189958
0.0183215
0.0192572
0.0202326
0.0195126
0.01668
0.0126579
0.0086565
0.0053624
0.00306864
0.00182394
0.00136767
0.00131491
0.00976525
0.0199605
0.0262958
0.0245694
0.0210117
0.0186456
0.0182289
0.0192751
0.0199887
0.0187705
0.0155611
0.0114919
0.00768863
0.00468809
0.00270227
0.00170144
0.00138417
0.00139133
0.0101509
0.0193741
0.0256494
0.0239814
0.0205219
0.0183475
0.0181649
0.0192783
0.0197212
0.0180708
0.0145883
0.0105335
0.0069245
0.00418083
0.00244904
0.00163637
0.00142034
0.00146962
0.0104608
0.0187496
0.0249815
0.0234082
0.020075
0.0180747
0.0181191
0.0192718
0.0194536
0.0174407
0.0137664
0.00975869
0.00632756
0.00380317
0.00227715
0.00160842
0.00146611
0.00154481
0.0106821
0.018094
0.0243083
0.0228606
0.0196633
0.0178212
0.0180827
0.0192574
0.0192012
0.0168964
0.0130914
0.00914374
0.00586813
0.0035263
0.00216379
0.00160393
0.00151492
0.00161376
0.0107989
0.0174094
0.0236419
0.0223437
0.0192852
0.0175888
0.0180458
0.0192281
0.018976
0.0164463
0.0125551
0.00866795
0.00552274
0.00332848
0.00209278
0.00161377
0.00156258
0.00167471
0.0108244
0.0166267
0.0229833
0.0218597
0.0189386
0.0173742
0.0180007
0.019191
0.0187889
0.0160943
0.0121482
0.00831437
0.00527323
0.00319364
0.00205282
0.00163186
0.00160653
0.00172684
0.0107266
0.0157662
0.0222895
0.0214056
0.0186212
0.0171718
0.0179412
0.0191497
0.0186465
0.0158409
0.011862
0.0080697
0.00510603
0.00311026
0.00203623
0.00165431
0.00164531
0.00176999
0.0104718
0.0148525
0.0215168
0.0209587
0.0183402
0.0169888
0.017862
0.0190977
0.0185505
0.0156864
0.0116908
0.00792473
0.00501173
0.00307063
0.0020381
0.00167882
0.00167822
0.00180429
0.0100347
0.0138948
0.0206623
0.0204973
0.0180893
0.0168316
0.0177618
0.0190151
0.018477
0.0156436
0.0116426
0.00787777
0.00498615
0.00307059
0.00205596
0.00170439
0.00170509
0.00183005
0.00940784
0.0129056
0.0197279
0.0200103
0.0178578
0.0166889
0.0176366
0.0189028
0.018411
0.0156625
0.0117237
0.00795967
0.0050423
0.0031123
0.00209107
0.00173192
0.00172649
0.00184764
0.00860439
0.0118939
0.0187183
0.0194856
0.0176331
0.0165522
0.0174849
0.0187617
0.0183496
0.015735
0.0118934
0.00814224
0.00519429
0.00322521
0.00216356
0.00177113
0.00174536
0.00185745
0.00764673
0.0108688
0.0176416
0.0189109
0.0174013
0.0164138
0.0173068
0.018592
0.0182879
0.0158507
0.0121413
0.00841959
0.00543522
0.00340789
0.00228217
0.00183368
0.00177056
0.00186311
0.00656821
0.00983913
0.0165095
0.0182755
0.0171478
0.0162671
0.0171027
0.0183906
0.0182191
0.0159976
0.0124556
0.00878456
0.0057642
0.00366377
0.00245297
0.00192675
0.00180839
0.00186954
0.00541762
0.00881424
0.0153373
0.0175715
0.016858
0.0161054
0.0168733
0.0181529
0.0181354
0.0161623
0.0128229
0.00922836
0.00617946
0.00399676
0.00268357
0.00205975
0.00186782
0.00188377
0.00425969
0.00780485
0.0141441
0.0167964
0.0165181
0.0159214
0.0166196
0.0178802
0.0180286
0.0163299
0.0132281
0.00974039
0.00667754
0.00441019
0.00298225
0.00224375
0.00196023
0.00191559
0.00316042
0.00682848
0.0129528
0.015954
0.0161166
0.0157068
0.0163423
0.0175733
0.0178904
0.0164848
0.0136546
0.0103083
0.00725281
0.00490593
0.00335691
0.00249066
0.00209907
0.0019777
0.0021974
0.0059045
0.0117899
0.0150554
0.0156443
0.0154518
0.0160406
0.0172328
0.0177086
0.01661
0.0140835
0.0109166
0.00789672
0.00548338
0.00381394
0.00281208
0.00229902
0.00208534
0.00142892
0.0050457
0.0106781
0.0141186
0.0150938
0.0151433
0.0157123
0.0168586
0.0174778
0.0166906
0.0144954
0.0115473
0.00859744
0.0061387
0.00435705
0.00321806
0.00257467
0.0022555
0.000867887
0.00426129
0.0096345
0.0131663
0.0144658
0.0147718