/*--------------------------------*- C++ -*----------------------------------*\
| =========                 |                                                 |
| \\      /  F ield         | OpenFOAM: The Open Source CFD Toolbox           |
|  \\    /   O peration     | Version:  v2012                                 |
|   \\  /    A nd           | Website:  www.openfoam.com                      |
|    \\/     M anipulation  |                                                 |
\*---------------------------------------------------------------------------*/
FoamFile
{
    version     2.0;
    format      ascii;
    class       volScalarField;
    location    "562";
    object      nut;
}
// * * * * * * * * * * * * * * * * * * * * * * * * * * * * * * * * * * * * * //

dimensions      [0 2 -1 0 0 0 0];


internalField   nonuniform List<scalar> 
6054
(
1.39621e-05
1.70132e-05
2.02082e-05
2.3576e-05
2.71638e-05
3.10533e-05
3.53449e-05
4.01499e-05
4.55812e-05
5.17344e-05
5.87785e-05
6.70076e-05
7.68686e-05
8.90248e-05
0.000104476
0.000124753
0.000152212
0.000190543
0.000245783
0.000328466
9.10001e-05
0.00010427
0.000118591
0.000134721
0.000152846
0.000173322
0.000196831
0.000224283
0.000256887
0.000296017
0.000343083
0.000399781
0.000468705
0.000553552
0.000659718
0.000795312
0.000973081
0.00121515
0.00157138
0.00217459
0.000457389
0.000521579
0.00058855
0.000657482
0.000728447
0.000802185
0.000880123
0.000963846
0.00105497
0.00115489
0.00126518
0.00138793
0.00152558
0.0016807
0.00185642
0.00205589
0.00228113
0.00253085
0.00279736
0.00305743
0.0011286
0.00123854
0.00134427
0.00144615
0.00154528
0.00164309
0.00174113
0.00184065
0.00194265
0.00204781
0.00215658
0.00226912
0.00238551
0.00250549
0.00262799
0.00275089
0.00287101
0.00298395
0.00308484
0.0031691
0.00170973
0.00181246
0.00190817
0.00199855
0.00208518
0.00216942
0.00225227
0.00233438
0.00241607
0.00249739
0.00257819
0.00265805
0.00273642
0.0028126
0.00288566
0.0029547
0.00301894
0.00307797
0.00313206
0.00318229
0.00190052
0.00197002
0.00203698
0.00210293
0.00216901
0.00223594
0.00230423
0.00237412
0.00244568
0.00251843
0.00259265
0.0026677
0.00274265
0.00281644
0.00288788
0.00295588
0.00301949
0.00307818
0.00313211
0.0031823
0.00161747
0.00164968
0.00168601
0.00172706
0.00177317
0.00182474
0.00188209
0.00194582
0.00201978
0.00210368
0.00219625
0.00229667
0.00240419
0.0025177
0.00263552
0.00275521
0.00287323
0.00298491
0.00308514
0.00316915
0.00091684
0.000916723
0.000924317
0.000938745
0.000959439
0.000986188
0.00102326
0.00107553
0.00114113
0.00122049
0.00131449
0.00142448
0.00155208
0.00169942
0.0018692
0.00206417
0.00228609
0.00253349
0.00279844
0.00305764
0.000215214
0.000208453
0.000206512
0.000208359
0.00021342
0.000221717
0.000236579
0.000257054
0.000283875
0.000317986
0.000360615
0.000413613
0.000479521
0.000561896
0.000666023
0.00079993
0.00097631
0.00121733
0.00157275
0.00217513
3.88703e-05
3.72111e-05
3.62036e-05
3.62288e-05
3.71188e-05
3.88666e-05
4.14262e-05
4.4816e-05
4.90779e-05
5.42924e-05
6.06149e-05
6.83042e-05
7.77647e-05
8.96259e-05
0.000104863
0.000124988
0.000152343
0.000190606
0.000245804
0.000328468
1.29902e-07
1.47475e-07
1.55769e-07
1.61615e-07
1.73638e-07
1.92757e-07
2.12698e-07
2.27633e-07
2.34665e-07
2.32562e-07
2.15201e-07
1.90873e-07
1.72155e-07
2.61639e-07
4.99998e-07
9.28919e-07
1.64149e-06
2.72015e-06
4.2167e-06
6.14005e-06
8.45728e-06
1.10969e-05
2.6986e-06
2.95273e-06
3.24374e-06
3.73114e-06
4.4224e-06
5.35184e-06
6.58555e-06
7.96147e-06
9.14771e-06
1.02621e-05
1.17889e-05
1.40027e-05
1.68575e-05
2.03378e-05
2.44841e-05
2.93551e-05
3.50844e-05
4.17515e-05
4.9408e-05
5.81206e-05
6.79501e-05
7.89214e-05
4.52056e-05
5.20792e-05
5.74189e-05
6.27743e-05
6.89729e-05
7.37942e-05
7.77439e-05
8.15476e-05
8.44536e-05
8.77309e-05
9.29874e-05
0.000100824
0.000111243
0.000124529
0.000141206
0.000161853
0.000187103
0.000217503
0.000253504
0.000295426
0.000343714
0.000398059
0.00023626
0.000250093
0.00024428
0.0002299
0.000218862
0.000208721
0.000202687
0.000200993
0.000202987
0.000210045
0.000223713
0.000245051
0.000274929
0.000314469
0.000364867
0.00042713
0.000501787
0.000588587
0.000686523
0.000792948
0.000904333
0.00101715
0.000475141
0.000448331
0.000412967
0.00037878
0.000356596
0.000339157
0.000329086
0.000328494
0.000338748
0.000361512
0.000398414
0.000450857
0.000519898
0.000606022
0.000708657
0.000825832
0.000954083
0.00108873
0.0012246
0.00135706
0.00148287
0.00160049
0.000630724
0.000582403
0.000537206
0.000496965
0.000466815
0.000448688
0.000445709
0.000459912
0.000492679
0.000545125
0.000617756
0.000709927
0.000819387
0.000942113
0.00107262
0.0012048
0.00133294
0.00145275
0.00156196
0.00166026
0.00174835
0.00182769
0.000739189
0.000677886
0.000622261
0.000578451
0.000551918
0.000545635
0.000561528
0.000600175
0.000660892
0.000741537
0.000838134
0.000944822
0.00105446
0.00115985
0.00125514
0.00133674
0.00140361
0.00145694
0.0014993
0.00153351
0.00156189
0.00158892
0.00080312
0.000731063
0.000673363
0.000636375
0.000623757
0.00063636
0.000672895
0.000729849
0.000801483
0.000880134
0.000957086
0.00102398
0.00107437
0.00110487
0.00111517
0.00110751
0.00108556
0.00105346
0.00101559
0.0009777
0.000948226
0.000927564
0.000826428
0.000752896
0.000702815
0.00067954
0.000682632
0.00070819
0.000749393
0.000797062
0.000840836
0.000870942
0.000880133
0.000864969
0.000826095
0.000767399
0.000694793
0.000614653
0.000532886
0.000454357
0.000382748
0.000321017
0.000272267
0.000237415
0.00082069
0.000754485
0.000716666
0.000705158
0.000713678
0.000732712
0.000751079
0.00075804
0.000745587
0.000710219
0.000653369
0.000580448
0.000498747
0.000415406
0.000335757
0.000263096
0.000199601
0.00014675
0.00010498
7.41803e-05
5.35969e-05
4.22005e-05
4.71046e-10
2.77544e-09
5.63027e-09
6.63315e-09
1.04301e-08
2.86927e-08
5.34672e-08
7.34893e-08
7.8478e-08
6.88269e-08
5.16155e-08
3.56661e-08
2.60015e-08
2.34267e-08
2.86781e-08
4.5269e-08
7.29612e-08
1.03975e-07
4.20854e-09
2.7404e-08
1.69021e-07
5.4098e-07
9.95382e-07
1.26565e-06
1.24475e-06
1.00952e-06
7.03322e-07
4.81817e-07
3.36368e-07
2.41085e-07
1.88e-07
1.90336e-07
3.35532e-07
8.01312e-07
1.54204e-06
2.25319e-06
1.11288e-08
1.97498e-07
2.16769e-06
6.63166e-06
1.14477e-05
1.45343e-05
1.50086e-05
1.3196e-05
1.0114e-05
7.04222e-06
4.82227e-06
3.44164e-06
2.75672e-06
2.9795e-06
5.40057e-06
1.29726e-05
2.49147e-05
3.67206e-05
1.79635e-08
5.28635e-07
6.09344e-06
1.74922e-05
2.9647e-05
3.89572e-05
4.35037e-05
4.29129e-05
3.79795e-05
3.02121e-05
2.24285e-05
1.67771e-05
1.41695e-05
1.71063e-05
3.38424e-05
7.80865e-05
0.000140548
0.000195411
2.18182e-08
1.00112e-06
9.55694e-06
2.5619e-05
4.32777e-05
5.79548e-05
6.68747e-05
6.95053e-05
6.7171e-05
6.00106e-05
4.99751e-05
4.12533e-05
3.99378e-05
6.09985e-05
0.000134709
0.000260903
0.00038745
0.000463224
2.3569e-08
1.73319e-06
1.3577e-05
3.47215e-05
5.88709e-05
7.93068e-05
9.17473e-05
9.57953e-05
9.45106e-05
8.8434e-05
7.93082e-05
7.37478e-05
9.1687e-05
0.000178478
0.0003533
0.000530126
0.000635591
0.000661246
3.91192e-08
2.93462e-06
1.9314e-05
4.83595e-05
8.26362e-05
0.000111986
0.000129342
0.000133129
0.000130261
0.000122249
0.000114948
0.000127246
0.000210997
0.000401376
0.0006229
0.000779242
0.000823304
0.000795777
1.55178e-07
4.84991e-06
2.8017e-05
7.01062e-05
0.000120636
0.000163753
0.000187624
0.000190831
0.000182923
0.000170461
0.000174422
0.000244249
0.000433485
0.000684521
0.00088552
0.000961754
0.000944989
0.000881207
5.11446e-07
7.74102e-06
4.16423e-05
0.000105565
0.000182897
0.000246778
0.00027738
0.000280429
0.000261078
0.000249622
0.000298897
0.000462275
0.000730642
0.000953175
0.00106848
0.00107345
0.00100965
0.000918029
1.35039e-06
1.20608e-05
6.36451e-05
0.000164955
0.000284344
0.000373272
0.000405678
0.000400707
0.000374449
0.000392072
0.000526846
0.000758691
0.000993718
0.00114115
0.00117669
0.00112327
0.00102372
0.000914991
0.00079613
0.0007416
0.000713423
0.000703507
0.000701192
0.000695621
0.000678311
0.000645143
0.000596869
0.000537815
0.000473425
0.000408196
0.000345421
0.000286628
0.000232421
0.000183136
0.000139079
0.00010046
6.73545e-05
4.00477e-05
1.916e-05
7.63397e-06
0.000761433
0.000717048
0.000691845
0.000675269
0.000657892
0.000633658
0.000600895
0.000561375
0.000518399
0.000474798
0.00043198
0.000390153
0.000348967
0.000307995
0.00026741
0.000227908
0.000190438
0.000155978
0.00011455
6.09581e-05
1.33901e-05
1.519e-06
0.000724545
0.000688233
0.000664764
0.000645903
0.000627029
0.000607039
0.000586926
0.000567875
0.000550024
0.000532292
0.000513051
0.000491072
0.00046623
0.000440265
0.000417401
0.000405621
0.000394905
0.000339309
0.000259743
0.000125504
1.80308e-05
9.31883e-07
0.000696445
0.000671427
0.00065803
0.000651886
0.000651365
0.00065582
0.000664018
0.0006735
0.00068091
0.00068308
0.000678206
0.0006669
0.000653211
0.000646444
0.000642111
0.000607721
0.000573361
0.000524555
0.000413652
0.000191128
2.4074e-05
7.09797e-07
0.000693355
0.0006892
0.000699669
0.000721749
0.000752708
0.000788632
0.000824328
0.000854156
0.000873408
0.000879776
0.00087458
0.000863762
0.000851951
0.000817854
0.000783109
0.000742991
0.000706589
0.000651365
0.000513782
0.000234129
2.86993e-05
5.82381e-07
0.000733933
0.000762358
0.000807903
0.000865273
0.000927711
0.000987078
0.00103527
0.00106581
0.00107528
0.00106454
0.00104261
0.00100043
0.000949641
0.000897146
0.000848327
0.000805879
0.000767494
0.000707983
0.000561122
0.0002565
3.13857e-05
4.62662e-07
0.000833016
0.000901384
0.00098392
0.00107078
0.00115079
0.00121309
0.00124904
0.0012535
0.00122622
0.00117415
0.00110101
0.00102712
0.000956301
0.000892707
0.000841274
0.00080185
0.000766518
0.000712234
0.000567943
0.000259594
3.16161e-05
3.54528e-07
0.00099498
0.00110067
0.00120936
0.00130679
0.00137898
0.00141441
0.00140506
0.00135002
0.00125417
0.00115316
0.00105323
0.000962963
0.00088614
0.000824166
0.000779505
0.000748343
0.000722931
0.000678909
0.000542209
0.000243605
2.88385e-05
3.43555e-07
0.00120844
0.00133608
0.00144752
0.00152566
0.00155526
0.00152388
0.00142638
0.00129089
0.00115579
0.0010309
0.000921185
0.000831994
0.000764001
0.000714439
0.000682033
0.000663476
0.000651151
0.000617988
0.000487358
0.000209418
2.38617e-05
3.75182e-07
0.00144422
0.00156639
0.00164698
0.00166727
0.00160902
0.00145795
0.001279
0.00110992
0.00096009
0.000834866
0.000737054
0.00066378
0.000612991
0.000580744
0.000564194
0.000560579
0.000561742
0.000535681
0.000412738
0.000168111
1.81855e-05
3.91183e-07
0.00165787
0.00173819
0.00174757
0.00166423
0.00145871
0.00122699
0.00101835
0.000843824
0.000703334
0.000599712
0.000526767
0.000478441
0.00044995
0.000437494
0.000438665
0.000450845
0.00046364
0.000444909
0.000331771
0.000126317
1.27521e-05
3.74874e-07
0.0017969
0.00179488
0.00169106
0.00145584
0.00115364
0.000901331
0.000694127
0.000545168
0.000439092
0.000368589
0.000325503
0.000302615
0.00029536
0.000301408
0.000319471
0.000346218
0.000367812
0.0003541
0.000250953
8.83107e-05
8.22516e-06
3.4275e-07
0.00181188
0.00169118
0.00144321
0.00110707
0.000782876
0.000550711
0.000391067
0.000290712
0.000230324
0.000195314
0.000177141
0.00017137
0.000176429
0.000192758
0.000220652
0.000255828
0.000280816
0.00026418
0.000173442
5.45597e-05
4.60949e-06
2.95277e-07
0.00167151
0.00141708
0.00105695
0.000712828
0.000443078
0.000281765
0.000196989
0.000152866
0.00012819
0.000113424
0.000104875
0.000101895
0.000105877
0.000119941
0.000146417
0.000179113
0.000197331
0.000173827
0.000101978
3.00038e-05
2.62486e-06
2.28464e-07
0.00137844
0.00101069
0.000647363
0.000377491
0.000226739
0.000158603
0.000127003
0.000109549
9.78931e-05
8.88919e-05
8.14187e-05
7.57763e-05
7.38853e-05
7.91978e-05
9.4344e-05
0.000113728
0.000121716
0.0001009
5.59454e-05
1.62922e-05
1.49985e-06
1.58034e-07
0.000991681
0.000607437
0.000336764
0.000200231
0.000144724
0.000120656
0.00010715
9.76607e-05
8.99082e-05
8.27395e-05
7.54619e-05
6.80152e-05
6.14438e-05
5.81957e-05
6.11219e-05
6.79614e-05
6.98229e-05
5.59661e-05
3.05496e-05
8.97493e-06
8.56727e-07
9.61833e-08
0.000616567
0.000318104
0.000188902
0.000140351
0.000120298
0.00010875
0.000100278
9.33239e-05
8.7134e-05
8.10586e-05
7.44547e-05
6.6851e-05
5.83283e-05
4.99763e-05
4.39234e-05
4.16936e-05
3.99724e-05
3.13946e-05
1.71397e-05
5.08398e-06
4.87568e-07
5.2563e-08
0.000368113
0.000195854
0.000141224
0.000122601
0.000112284
0.000104333
9.74822e-05
9.13629e-05
8.57257e-05
8.02097e-05
7.43281e-05
6.75068e-05
5.92953e-05
4.96704e-05
3.94639e-05
3.05722e-05
2.48416e-05
1.85909e-05
1.00868e-05
2.98041e-06
2.76753e-07
2.72274e-08
0.000241434
0.000152683
0.000127938
0.000118555
0.000111513
0.00010481
9.82513e-05
9.18733e-05
8.58196e-05
7.99973e-05
7.41792e-05
6.79392e-05
6.07319e-05
5.20728e-05
4.17602e-05
3.0292e-05
1.9725e-05
1.26177e-05
6.47384e-06
1.84843e-06
1.60876e-07
1.47687e-08
0.00018562
0.000140919
0.000128889
0.000123178
0.00011777
0.000111331
0.000104164
9.65017e-05
8.89929e-05
8.17707e-05
7.48914e-05
6.81967e-05
6.12861e-05
5.36131e-05
4.46703e-05
3.41657e-05
2.23256e-05
1.16373e-05
5.07032e-06
1.30873e-06
1.0382e-07
1.02145e-08
0.000166356
0.000144865
0.000139813
0.000136591
0.000132396
0.000125852
0.000117268
0.000107373
9.73258e-05
8.7519e-05
7.8302e-05
6.98065e-05
6.18616e-05
5.40376e-05
4.57432e-05
3.6529e-05
2.6138e-05
1.45773e-05
5.55548e-06
1.20889e-06
8.4284e-08
1.05479e-08
0.00016747
0.000159806
0.000160037
0.000159295
0.000156241
0.00014939
0.000139206
0.000126703
0.000113053
9.92749e-05
8.63919e-05
7.47268e-05
6.43198e-05
5.49529e-05
4.6058e-05
3.70241e-05
2.75671e-05
1.75257e-05
7.26236e-06
1.41987e-06
9.72826e-08
1.47104e-08
0.00018213
0.000184642
0.00019018
0.000192479
0.000190398
0.000183208
0.000171124
0.00015536
0.00013744
0.00011891
0.000100946
8.4708e-05
7.04075e-05
5.80934e-05
4.73396e-05
3.74164e-05
2.77266e-05
1.82472e-05
8.85334e-06
1.89507e-06
1.26314e-07
2.09207e-08
0.000207397
0.000219076
0.000230627
0.000236824
0.000235707
0.000228357
0.000214372
0.000195084
0.000172273
0.000147851
0.000123661
0.000101272
8.15681e-05
6.48037e-05
5.08596e-05
3.90082e-05
2.84084e-05
1.85248e-05
9.64333e-06
2.47947e-06
1.63004e-07
2.8328e-08
0.000241434
0.000262167
0.000280353
0.000291064
0.000292096
0.000284999
0.000269348
0.000246575
0.000218647
0.000187778
0.000156229
0.000126089
9.91254e-05
7.62554e-05
5.75465e-05
4.25038e-05
3.01292e-05
1.94826e-05
1.0325e-05
3.04474e-06
2.23885e-07
3.45942e-08
0.000282792
0.000312886
0.000338468
0.000354559
0.000358594
0.000352295
0.000335484
0.000309641
0.0002768
0.00023932
0.000199781
0.000160805
0.000124795
9.36788e-05
6.83762e-05
4.85393e-05
3.32122e-05
2.10669e-05
1.12396e-05
3.67012e-06
3.07076e-07
3.71564e-08
0.000329959
0.000369726
0.000403253
0.000425341
0.000433071
0.000428114
0.000410824
0.000382712
0.000345744
0.000302199
0.000254706
0.000206241
0.000159949
0.000118706
8.45154e-05
5.79389e-05
3.81393e-05
2.34915e-05
1.24671e-05
4.36914e-06
4.12176e-07
3.6578e-08
0.000381175
0.000430654
0.00047226
0.00050055
0.000512356
0.000509108
0.00049203
0.000462678
0.000422867
0.000374591
0.000320192
0.000262601
0.000205414
0.000152536
0.000107351
7.17365e-05
4.55594e-05
2.70995e-05
1.41497e-05
5.16826e-06
5.4532e-07
3.19498e-08
0.000434464
0.000493311
0.0005427
0.000577027
0.000593051
0.000591287
0.000574902
0.000545305
0.000504135
0.000452989
0.000393636
0.000328504
0.000261117
0.000196053
0.000138157
9.11404e-05
5.63028e-05
3.23433e-05
1.64946e-05
6.18257e-06
7.47772e-07
2.20767e-08
0.000487763
0.000555233
0.000611664
0.000651433
0.00067145
0.000670794
0.000655291
0.00062615
0.00058494
0.000532873
0.000470981
0.000400815
0.000325256
0.000248919
0.000177703
0.000117344
7.13751e-05
3.98056e-05
1.97392e-05
7.50099e-06
1.0795e-06
1.48652e-08
0.000539101
0.000614112
0.000676447
0.000720484
0.000743334
0.000744451
0.00072982
0.000701442
0.000661096
0.000609746
0.000547657
0.00047527
0.000394417
0.000309134
0.00022561
0.000151126
9.18504e-05
5.02382e-05
2.41995e-05
9.20827e-06
1.58642e-06
3.8978e-08
0.000586808
0.000668186
0.000735328
0.000782714
0.000807751
0.000810301
0.000796198
0.000768487
0.00072944
0.00067998
0.000619629
0.000547573
0.000464366
0.000373172
0.000279857
0.000192237
0.000118562
6.45267e-05
3.03222e-05
1.14193e-05
2.29615e-06
1.37155e-07
0.00062958
0.000716204
0.00078722
0.000837229
0.000863865
0.000867287
0.000853151
0.000825675
0.000787935
0.000741088
0.000683975
0.000614331
0.000531203
0.000436871
0.000336871
0.000238818
0.000151539
8.34941e-05
3.87401e-05
1.42921e-05
3.23231e-06
3.76928e-07
0.00066645
0.000757315
0.000831454
0.000883541
0.000911304
0.000915038
0.0009002
0.000872278
0.000835492
0.000791597
0.000738884
0.000673381
0.000592212
0.000496689
0.000392498
0.000287332
0.000189342
0.000107591
5.0134e-05
1.80584e-05
4.43173e-06
8.54925e-07
0.000696723
0.000790936
0.000867604
0.000921393
0.000949979
0.000953594
0.000937398
0.000908225
0.000871775
0.000830834
0.000783392
0.00072357
0.000645977
0.000550534
0.000443469
0.000333661
0.000228874
0.000136277
6.52132e-05
2.30529e-05
5.91633e-06
1.65955e-06
0.000719903
0.000816633
0.000895312
0.000950534
0.000979804
0.000983087
0.000965028
0.000933869
0.000897061
0.000858821
0.000817195
0.000764382
0.00069192
0.000597612
0.000488169
0.000374683
0.00026624
0.000167457
8.43822e-05
2.9773e-05
7.68437e-06
2.82309e-06
0.000735595
0.00083397
0.000914105
0.000970472
0.00100037
0.00100337
0.000983253
0.000949721
0.000912099
0.000876246
0.000840627
0.000795745
0.000729794
0.000637714
0.000526237
0.000409019
0.00029817
0.000197761
0.000107283
3.87546e-05
9.72437e-06
4.25358e-06
0.000743233
0.000842192
0.000923047
0.000980105
0.00101053
0.00101359
0.000991759
0.00095617
0.00091792
0.000884395
0.000854701
0.000818068
0.000759508
0.00067065
0.000557718
0.000436615
0.000323183
0.00022361
0.000132154
5.05113e-05
1.20117e-05
5.7614e-06
0.000741092
0.000839063
0.00091969
0.000976957
0.00100786
0.00101172
0.000989584
0.000953349
0.000915674
0.000884983
0.000861037
0.000832293
0.000781188
0.000696092
0.000582462
0.000457819
0.000341429
0.000242897
0.000155748
6.52752e-05
1.45562e-05
7.1556e-06
0.000731299
0.000825996
0.000904717
0.000960895
0.000991314
0.000995515
0.000975173
0.000941425
0.000906665
0.000879977
0.000861641
0.000839802
0.000795236
0.000713686
0.000600003
0.000472728
0.000353659
0.000255489
0.000174609
8.24666e-05
1.74495e-05
8.27118e-06
0.000716027
0.000804842
0.000879865
0.000933829
0.000963313
0.000968093
0.000950743
0.000921302
0.000891755
0.000870911
0.000858594
0.000842233
0.000801821
0.000723169
0.000609735
0.00048109
0.000360477
0.0002624
0.000186971
0.000100006
2.08328e-05
8.98844e-06
0.000698358
0.000778418
0.000847772
0.000898374
0.000926549
0.000932299
0.000918827
0.000895313
0.000873053
0.000859926
0.00085458
0.000843291
0.000805295
0.000726598
0.000611759
0.000481859
0.00036105
0.000264752
0.000193171
0.000114456
2.48025e-05
9.21355e-06
0.000682218
0.00075052
0.00081203
0.000857975
0.000884329
0.000891167
0.000882332
0.000866229
0.000853073
0.000849225
0.000851464
0.00084448
0.000806946
0.000725968
0.000608411
0.000477241
0.000357063
0.000262793
0.000194528
0.000121762
2.90052e-05
8.93098e-06
0.00067213
0.000725839
0.000777239
0.000817065
0.000840914
0.000848782
0.000845109
0.000837718
0.000835117
0.000841512
0.000851159
0.000846821
0.000807021
0.000721149
0.000599516
0.000467172
0.000348603
0.000257489
0.000193256
0.000126424
3.17205e-05
8.20952e-06
0.000672747
0.000709638
0.000748868
0.000781093
0.000801644
0.000810379
0.000812286
0.000814387
0.00082322
0.000839863
0.000855522
0.000850885
0.000805094
0.000711344
0.000584448
0.000451373
0.000335653
0.000248958
0.000189549
0.000129066
3.40135e-05
7.21489e-06
0.000688189
0.000707142
0.000732784
0.00075621
0.000772741
0.000782136
0.000789859
0.000801711
0.000821693
0.000847305
0.000865921
0.000856412
0.000799869
0.000695165
0.000562354
0.000429572
0.000318273
0.000237341
0.000183492
0.000129578
3.57973e-05
6.04422e-06
0.000721363
0.000722718
0.000734423
0.000748515
0.000760632
0.000770526
0.000783987
0.000805044
0.000834607
0.000866061
0.000882549
0.000861772
0.00078893
0.000670667
0.000532293
0.00040163
0.000296669
0.000222862
0.000175175
0.000127652
3.68743e-05
4.80326e-06
0.000773493
0.000759065
0.000757791
0.000762958
0.0007708
0.00078117
0.000799871
0.000828537
0.000864491
0.000896459
0.000903512
0.000863328
0.000768598
0.000635551
0.000493476
0.000367679
0.000271263
0.000205837
0.000164744
0.000123376
3.70283e-05
3.60572e-06
0.000843851
0.000816753
0.00080467
0.000802271
0.000806555
0.000817543
0.000840475
0.000873941
0.000911107
0.000935597
0.000923391
0.000854904
0.000734056
0.000587599
0.000445634
0.000328289
0.000242765
0.000186724
0.000152394
0.000111511
3.60144e-05
2.52167e-06
0.000930125
0.000894235
0.000874305
0.000866371
0.000868219
0.000880266
0.0009056
0.000939527
0.00097018
0.000976062
0.000932319
0.000827215
0.00068022
0.000525519
0.000389536
0.000284669
0.000212187
0.000166125
0.000138375
9.91432e-05
3.36611e-05
1.61289e-06
0.00102875
0.000988083
0.000963593
0.000952442
0.000953086
0.000966306
0.00099121
0.00101899
0.0010317
0.00100389
0.000915125
0.000770078
0.000603715
0.000450291
0.00032747
0.000238842
0.000180697
0.000144735
0.000119997
8.91735e-05
2.98595e-05
9.2436e-07
0.00113525
0.00109369
0.00106788
0.0010558
0.00105624
0.0010694
0.00108886
0.00109943
0.00107687
0.000996966
0.00085459
0.000677032
0.000506041
0.000366135
0.000263204
0.000193412
0.000149649
0.000123289
0.000100909
8.1103e-05
2.46317e-05
4.64827e-07
0.00124498
0.0012061
0.00118188
0.00117072
0.00117097
0.00117997
0.00118281
0.00115629
0.00107461
0.000928278
0.000739371
0.000550851
0.000395158
0.000280158
0.000201342
0.000150751
0.000120272
0.000102257
8.57174e-05
7.00234e-05
1.82324e-05
3.59974e-07
0.00135353
0.00132033
0.00129963
0.00128944
0.00128602
0.00127821
0.00124009
0.00114525
0.000983715
0.000778893
0.000574908
0.000406666
0.000283952
0.000200283
0.000146031
0.000112605
9.32059e-05
8.16477e-05
7.24931e-05
5.28611e-05
1.09492e-05
3.51124e-07
0.00145579
0.00142933
0.0014105
0.00139532
0.0013735
0.00131567
0.00119419
0.00100421
0.000777473
0.000562407
0.000390372
0.000267707
0.000185675
0.000132747
9.96986e-05
7.98426e-05
6.83312e-05
6.10701e-05
5.32662e-05
3.35066e-05
4.89207e-06
3.00113e-07
0.00153489
0.00151331
0.00148195
0.0014377
0.00134973
0.0011848
0.000954544
0.000708003
0.00049471
0.0003353
0.000225953
0.000154464
0.000108908
8.03436e-05
6.27408e-05
5.20599e-05
4.53466e-05
4.01798e-05
3.24413e-05
1.3525e-05
1.63373e-06
2.22653e-07
0.00131319
0.00147038
0.00140021
0.00126761
0.00104229
0.000779091
0.000541938
0.000362726
0.000239966
0.000159674
0.000108351
7.59377e-05
5.54545e-05
4.24889e-05
3.42545e-05
2.88534e-05
2.46824e-05
2.01845e-05
1.24454e-05
3.92662e-06
5.98093e-07
1.24792e-07
0.00110444
0.00110922
0.000901619
0.000663372
0.00045058
0.000296456
0.000193493
0.000127076
8.46504e-05
5.76311e-05
4.04901e-05
2.93722e-05
2.19736e-05
1.69592e-05
1.33904e-05
1.04874e-05
7.50359e-06
4.50359e-06
2.33724e-06
1.01205e-06
2.01726e-07
4.85958e-08
0.000470957
0.000310354
0.00019957
0.000131578
8.95238e-05
6.17546e-05
4.29639e-05
2.98608e-05
2.05346e-05
1.40671e-05
9.55036e-06
6.3289e-06
4.05978e-06
2.54386e-06
1.56601e-06
9.29318e-07
5.37403e-07
2.93901e-07
1.79558e-07
1.11548e-07
3.7333e-08
1.16529e-08
3.08332e-05
2.85912e-05
2.66783e-05
2.44393e-05
2.16322e-05
1.81147e-05
1.38795e-05
9.30276e-06
5.17842e-06
2.27253e-06
7.67482e-07
1.94484e-07
4.70271e-08
5.36336e-08
5.83603e-08
5.47653e-08
4.96054e-08
4.39919e-08
3.65629e-08
2.23105e-08
7.35894e-09
1.26253e-09
2.84846e-06
1.8687e-05
0.000100334
0.000261364
0.00043932
0.000552148
0.0005805
0.00056169
0.000549277
0.000630501
0.000812337
0.00102687
0.00119158
0.00125532
0.00121979
0.00111957
0.00099685
0.000883357
4.92354e-06
2.94547e-05
0.00016438
0.000420547
0.000666494
0.000784463
0.000799475
0.000757671
0.000777441
0.000892624
0.00106563
0.00122467
0.00130878
0.00129552
0.0012039
0.00107381
0.000943392
0.000836421
7.09064e-06
4.63317e-05
0.000267759
0.000648009
0.000935423
0.00102146
0.00099511
0.000962108
0.001006
0.00112164
0.00125542
0.00134525
0.00135247
0.00127629
0.00114703
0.00100452
0.000879403
0.000785978
9.00892e-06
7.21859e-05
0.000421489
0.000919963
0.00119022
0.00121755
0.0011698
0.0011531
0.00120487
0.00129756
0.00137687
0.00139601
0.00133716
0.00121597
0.00106803
0.000928352
0.000818087
0.000742584
1.05691e-05
0.000109836
0.000623
0.00118002
0.0013723
0.00136983
0.0013239
0.00131837
0.00136097
0.00141524
0.00143455
0.0013894
0.00128029
0.00113353
0.000984299
0.000859686
0.000771409
0.00071817
1.17891e-05
0.000161565
0.000841604
0.00135577
0.0015053
0.00149147
0.00145487
0.00145023
0.00146989
0.0014772
0.00143822
0.00134103
0.00120024
0.00104669
0.000910797
0.000810737
0.000750774
0.000727769
1.27676e-05
0.00022666
0.000987403
0.00148261
0.00160996
0.00159141
0.00155857
0.00154452
0.00153221
0.00149038
0.00140113
0.00126808
0.00111454
0.000970631
0.000859803
0.000792776
0.000770409
0.000786136
1.36967e-05
0.000281029
0.0011023
0.00157887
0.00168571
0.00159643
0.00150536
0.00150813
0.00155177
0.00146511
0.00133837
0.00118706
0.001038
0.000917512
0.000842468
0.00081856
0.000841284
0.000903265
1.4496e-05
0.000327679
0.0011969
0.00165013
0.00163599
0.00150511
0.00141948
0.0014396
0.00153615
0.00141376
0.00126463
0.00111209
0.000983053
0.000898972
0.000870153
0.000896178
0.00096947
0.00107865
1.5095e-05
0.000372163
0.00127661
0.00165332
0.00153661
0.00140575
0.001338
0.00138182
0.00149516
0.00134879
0.00119314
0.00105586
0.000961302
0.000924344
0.000948568
0.00102827
0.00115013
0.00129625
1.54719e-05
0.00041487
0.00134064
0.00156097
0.00143286
0.00131365
0.00126929
0.00134201
0.00143958
0.00128274
0.00113656
0.00102925
0.000980217
0.000997369
0.00107736
0.00120625
0.0013635
0.00152352
1.56868e-05
0.000455673
0.00139299
0.0014636
0.00133517
0.00123451
0.00121672
0.00132291
0.00138008
0.00122637
0.00110377
0.00103798
0.00104244
0.00111594
0.00124539
0.00140826
0.0015757
0.00171566
1.56189e-05
0.000492375
0.00140863
0.00137202
0.0012499
0.00117102
0.00118209
0.00133059
0.00132556
0.00118775
0.00110083
0.00108552
0.00114506
0.00126811
0.00143081
0.00160155
0.00174438
0.00182429
1.51768e-05
0.000523051
0.0013392
0.0012907
0.0011807
0.00112474
0.00116856
0.00137427
0.00128361
0.00117331
0.00113109
0.00116795
0.00127708
0.00143373
0.00160404
0.00174857
0.00182792
0.00180923
1.47537e-05
0.000550953
0.00127484
0.00122308
0.00112791
0.00109656
0.00117871
0.00138506
0.00125861
0.00118449
0.00119033
0.00127646
0.0014208
0.0015873
0.00173346
0.00181555
0.00179639
0.00165186
1.43872e-05
0.000571222
0.00122356
0.00117043
0.00109184
0.00108773
0.00121633
0.00135545
0.00125302
0.00122081
0.00127266
0.00139661
0.0015553
0.00170337
0.00179293
0.00178191
0.001643
0.0013698
1.55153e-05
0.000587035
0.00118417
0.00113296
0.00107238
0.00109973
0.00129074
0.00133777
0.0012657
0.00127512
0.00136749
0.00151214
0.00166103
0.00176254
0.00176911
0.00164839
0.001391
0.00102192
1.79641e-05
0.000598486
0.00115523
0.00110992
0.00106979
0.00113639
0.00141843
0.00133316
0.00129528
0.00134269
0.00146291
0.00160841
0.00172382
0.00175618
0.00166638
0.00144083
0.00109885
0.000702083
2.06796e-05
0.000605381
0.00113669
0.00110115
0.0010852
0.00119738
0.00141799
0.00133956
0.00133495
0.00141533
0.00154809
0.00167491
0.00173738
0.00168835
0.00150642
0.00120279
0.000826702
0.000470998
2.34826e-05
0.000607955
0.00112906
0.00110633
0.00111849
0.00129119
0.00141115
0.00135537
0.001382
0.00148555
0.00161514
0.00170654
0.00170396
0.00157416
0.00131866
0.000973916
0.000611273
0.000329278
2.63053e-05
0.000606572
0.00113214
0.00112566
0.00117285
0.00143331
0.00141034
0.00137932
0.00143216
0.00154739
0.0016597
0.00170374
0.00163285
0.0014338
0.00112991
0.0007788
0.000458838
0.000251729
2.91398e-05
0.000601587
0.00114535
0.00115996
0.00124725
0.00148845
0.00141417
0.00140613
0.00148127
0.00159716
0.00168106
0.00167181
0.0015378
0.00128721
0.000961558
0.000625961
0.000359836
0.000215192
3.19498e-05
0.000593357
0.00116736
0.0012085
0.00134789
0.00148382
0.00142211
0.00143608
0.0015265
0.00163344
0.00168149
0.00161871
0.00143207
0.00114843
0.000819551
0.000513427
0.000301089
0.000204638
3.46545e-05
0.000582259
0.00119752
0.0012729
0.00148765
0.00148116
0.00143471
0.00146748
0.00156619
0.0016566
0.00166511
0.001553
0.00132622
0.00102511
0.000705309
0.00043515
0.000271217
0.000211358
3.72275e-05
0.000568658
0.0012366
0.00135159
0.00155116
0.00147991
0.00144776
0.00149864
0.0015997
0.0016683
0.00163684
0.00148227
0.00122734
0.000919883
0.000616974
0.000384229
0.000261778
0.000230255
3.96442e-05
0.000552906
0.00128365
0.00144355
0.00154708
0.00148013
0.001463
0.00152885
0.00162726
0.00167095
0.00160151
0.0014123
0.00113915
0.00083297
0.000551237
0.000354404
0.00026683
0.000258126
4.18726e-05
0.000535371
0.0013373
0.0015555
0.00154264
0.00148188
0.00147974
0.00155756
0.00164955
0.00166716
0.00156334
0.00134702
0.00106309
0.000763154
0.00050438
0.000340479
0.000282165
0.00029264
4.38691e-05
0.000516036
0.00133974
0.00156824
0.00153861
0.00148527
0.0014975
0.00158444
0.00166752
0.00165946
0.00152562
0.00128871
0.000999294
0.0007086
0.000472825
0.000338289
0.000304658
0.000331801
4.55802e-05
0.000495064
0.0013159
0.00155976
0.00153517
0.00148994
0.0015157
0.00160948
0.00168229
0.00165005
0.00149074
0.00123851
0.000947206
0.000667282
0.000453372
0.000344518
0.00033183
0.000373717
4.69538e-05
0.000472751
0.00128859
0.00154924
0.00153197
0.00149481
0.00153378
0.00163282
0.00169493
0.00164078
0.00146027
0.00119682
0.000905937
0.000637211
0.00044327
0.000356506
0.000361611
0.000416557
4.79343e-05
0.000449348
0.00125825
0.0015371
0.00152877
0.0014996
0.00155124
0.00164978
0.00169278
0.00163305
0.00143523
0.00116362
0.000874499
0.000616564
0.000440211
0.000372099
0.000392225
0.000458596
4.84511e-05
0.000424701
0.00122507
0.00152348
0.0015255
0.00150429
0.00156753
0.00162552
0.00168461
0.00162787
0.00141623
0.00113869
0.000851923
0.00060375
0.000442304
0.000389559
0.000422156
0.000498312
4.85644e-05
0.000388956
0.00118735
0.00150828
0.00152204
0.00150869
0.00158226
0.00161511
0.00168167
0.00162604
0.00140362
0.00112171
0.000837341