/*--------------------------------*- C++ -*----------------------------------*\
| =========                 |                                                 |
| \\      /  F ield         | OpenFOAM: The Open Source CFD Toolbox           |
|  \\    /   O peration     | Version:  v2012                                 |
|   \\  /    A nd           | Website:  www.openfoam.com                      |
|    \\/     M anipulation  |                                                 |
\*---------------------------------------------------------------------------*/
FoamFile
{
    version     2.0;
    format      ascii;
    class       volScalarField;
    location    "562";
    object      omega;
}
// * * * * * * * * * * * * * * * * * * * * * * * * * * * * * * * * * * * * * //

dimensions      [0 0 -1 0 0 0 0];


internalField   nonuniform List<scalar> 
6054
(
360.453
360.757
361.076
361.412
361.77
362.158
362.588
363.069
363.614
364.232
364.941
365.772
366.769
368.001
369.574
371.648
374.475
378.455
384.261
393.107
101.5
99.103
96.7666
95.1255
94.1292
93.6708
93.599
93.7564
93.9849
94.1887
94.3701
94.5648
94.7303
94.7625
94.4784
93.6128
91.7762
88.3575
82.0789
70.7307
47.3254
45.979
45.0096
44.4066
44.113
44.0646
44.195
44.4538
44.8062
45.2374
45.7382
46.2912
46.8727
47.4695
48.0715
48.6648
49.2571
49.904
50.739
52.1047
29.8557
29.4915
29.3631
29.4313
29.661
30.0233
30.4972
31.0699
31.7361
32.4973
33.3595
34.3336
35.4336
36.6803
38.1072
39.7636
41.7198
44.0755
46.9658
50.574
23.8508
24.014
24.3075
24.7112
25.2115
25.7993
26.4708
27.2276
28.0753
29.0237
30.0865
31.282
32.6334
34.1709
35.934
37.9729
40.3512
43.1492
46.4684
50.4362
22.4635
22.913
23.434
24.0188
24.6639
25.3689
26.1366
26.9726
27.8852
28.8884
29.9931
31.2191
32.5923
34.1452
35.9189
37.9647
40.3472
43.1476
46.4679
50.4361
24.3282
25.0498
25.8034
26.5885
27.4066
28.2594
29.1496
30.0792
31.0205
31.9868
33.0019
34.0875
35.2675
36.572
38.0402
39.7248
41.6994
44.0662
46.9626
50.5735
32.4734
33.7584
35.046
36.3601
37.7196
39.1367
40.5034
41.703
42.7909
43.7849
44.7047
45.5625
46.3684
47.1329
47.8545
48.5318
49.1816
49.8657
50.7238
52.1018
68.3121
70.9347
73.3903
75.9449
78.8491
82.2416
84.9766
87.258
89.1104
90.6058
91.8238
92.7945
93.5185
93.9443
93.9399
93.2719
91.5734
88.2437
82.0224
70.7151
362.941
362.775
362.674
362.676
362.766
362.941
363.197
363.537
363.965
364.49
365.127
365.902
366.859
368.063
369.614
371.672
374.488
378.461
384.263
393.107
359.079
359.081
359.082
359.082
359.084
359.086
359.088
359.089
359.09
359.089
359.088
359.085
359.083
359.092
359.116
359.159
359.229
359.336
359.485
359.676
359.906
360.168
60.9605
61.5249
61.9289
62.1523
62.3849
62.7812
63.395
64.5102
67.5385
72.9857
79.2905
85.0896
90.8411
96.192
100.771
104.308
106.625
107.778
107.918
107.186
105.748
103.785
21.069
21.8162
23.0126
24.6626
26.8825
30.6677
36.2561
42.3798
48.7008
54.4535
58.9268
61.8808
63.517
64.0053
63.5348
62.2987
60.4827
58.2764
55.8566
53.3628
51.0363
49.0134
13.3277
15.393
18.3976
23.3308
28.8236
34.5226
39.6355
43.5382
46.1839
47.6463
48.0178
47.4628
46.2019
44.446
42.3892
40.2008
38.0228
35.9708
34.1596
32.6265
31.3984
30.4801
15.4458
19.3073
23.9193
29.061
33.2516
36.4336
38.4602
39.3315
39.2416
38.4206
37.0772
35.3999
33.5571
31.6896
29.9101
28.3022
26.9224
25.8033
24.9546
24.3623
24.0015
23.8407
20.4343
24.5278
28.3698
31.471
33.3815
34.1869
34.0672
33.2579
32.0024
30.5003
28.9034
27.3289
25.8686
24.5902
23.536
22.7244
22.1539
21.8075
21.6585
21.6758
21.8317
22.1021
24.4822
27.4701
29.5979
30.6793
30.7725
30.1447
29.0632
27.7492
26.368
25.0357
23.8338
22.8198
22.031
21.4842
21.1766
21.0912
21.2015
21.4767
21.8858
22.4023
23.0037
23.6492
26.4257
27.8891
28.4042
28.1127
27.2732
26.1546
24.9574
23.8165
22.8213
22.0324
21.4902
21.2188
21.2271
21.512
22.0613
22.8592
23.8904
25.1401
26.5882
28.1657
29.6743
31.1142
26.4003
26.571
26.0802
25.1948
24.1625
23.1665
22.3249
21.7155
21.3957
21.411
21.7997
22.5959
23.8352
25.5568
27.811
30.6605
34.1835
38.4779
43.6383
49.6797
56.238
62.615
25.1056
24.535
23.6875
22.7984
22.0353
21.5095
21.2999
21.474
22.0978
23.2433
24.9931
27.4481
30.7374
35.0364
40.5679
47.6189
56.6765
68.673
85.2984
109.899
149.7
220.746
359.066
359.067
359.067
359.067
359.067
359.069
359.072
359.074
359.074
359.073
359.072
359.07
359.069
359.069
359.069
359.071
359.074
359.077
219.92
73.8202
62.1551
59.8076
58.6935
58.5167
59.1339
60.2946
61.8715
64.4885
65.8383
65.6753
64.3493
62.5413
61.567
60.7105
60.357
60.5022
219.92
43.6923
24.8008
21.7899
20.7539
20.2997
20.2654
20.6391
21.4412
23.1862
24.7242
25.2653
24.6286
23.1035
21.8125
20.8137
20.3722
20.5037
219.921
39.8868
20.813
17.386
15.8738
14.7334
13.8086
13.1351
12.7931
13.1389
13.8112
14.2208
13.9773
13.0744
12.1154
11.526
11.5173
12.1031
219.921
42.5409
24.1124
19.6141
17.0442
15.0738
13.463
12.1734
11.1614
10.6396
10.4973
10.4585
10.2155
9.7044
9.33264
9.62648
10.7302
12.7162
219.921
47.5656
28.5939
22.4118
18.5455
15.7964
13.6996
12.1457
10.9229
10.0322
9.47992
9.15863
8.92565
8.91832
9.6887
11.4015
13.6848
16.8178
219.922
53.4967
32.5735
24.3644
19.2735
15.8486
13.533
11.8771
10.6194
9.6894
9.06894
8.74653
8.81166
9.83231
11.847
14.5856
17.6462
21.0525
219.929
59.2142
35.3418
25.1075
19.0636
15.2176
12.7366
11.1087
9.97642
9.22198
8.79499
8.80421
9.84389
12.0015
14.933
17.978
21.108
24.0562
219.951
63.9756
36.5363
24.551
17.9273
13.9836
11.5743
10.0459
9.17079
8.73578
8.77248
9.72081
11.9442
14.7746
17.8406
20.8142
23.4175
25.3499
220.002
66.9483
35.9474
22.8185
16.124
12.4378
10.3187
9.07601
8.56899
8.65747
9.62782
11.6118
14.3433
17.3369
20.2311
22.6516
24.3238
25.1187
23.256
22.4815
21.7535
21.2233
20.9901
21.1263
21.6929
22.746
24.3381
26.5143
29.3021
32.6904
36.6466
41.0942
45.929
51.063
56.5136
62.562
70.192
82.3984
112.754
238.896
21.5592
20.9612
20.6044
20.5731
20.9256
21.7053
22.9431
24.6499
26.804
29.3288
32.0751
34.8192
37.2756
39.1135
40.0045
39.6462
37.7803
33.9541
29.2049
28.0227
46.746
238.493
20.3111
20.0655
20.1558
20.6239
21.4959
22.7757
24.431
26.3699
28.4223
30.3354
31.7938
32.4614
32.0296
30.2749
27.1232
22.5305
17.7599
14.8562
12.9564
15.4017
38.7236
238.454
19.5633
19.7177
20.2403
21.1388
22.3907
23.9186
25.5683
27.1023
28.2192
28.6039
27.9939
26.2432
23.3763
19.5245
15.67
12.9653
10.6714
9.07696
8.66085
12.2956
36.7998
238.439
19.2691
19.8091
20.701
21.8927
23.2669
24.6214
25.6841
26.1589
25.7947
24.4559
22.1585
19.0553
15.6848
12.9635
10.8946
9.35873
8.07288
7.20515
7.34088
11.2539
35.9344
238.431
19.3597
20.227
21.3481
22.5708
23.6657
24.3547
24.3805
23.5784
21.9268
19.5425
16.5924
13.7418
11.6714
10.052
8.77479
7.74266
6.91363
6.434
6.80975
10.7977
35.4493
238.423
19.7395
20.7914
21.8824
22.77
23.1912
22.9371
21.9182
20.1788
17.8455
15.0048
12.7891
11.0144
9.61067
8.48095
7.57901
6.83361
6.27219
5.9977
6.51447
10.5728
35.2633
238.416
20.2331
21.2183
21.9519
22.1945
21.7826
20.6795
18.952
16.661
14.1231
12.1665
10.5883
9.30816
8.27329
7.43176
6.75411
6.20131
5.80325
5.66093
6.2931
10.489
35.4132
238.415
20.5741
21.1988
21.3264
20.833
19.7164
18.044
15.7434
13.5338
11.7117
10.2356
9.03079
8.06181
7.28429
6.64534
6.11398
5.68605
5.39032
5.34247
6.09251
10.5495
35.9102
238.417
20.4859
20.5413
20.0068
18.9061
17.3117
15.0426
12.9753
11.2797
9.89176
8.77052
7.87435
7.13963
6.53162
6.01369
5.56978
5.21082
4.97993
5.00781
5.93251
10.7896
36.7615
238.418
19.8037
19.2485
18.1674
16.6465
14.4904
12.4796
10.8449
9.56329
8.52618
7.70905
7.03399
6.44734
5.92397
5.45402
5.04702
4.72633
4.54972
4.69784
5.87707
11.2684
37.9561
238.417
18.5342
17.4694
16.0065
14.0726
12.0581
10.5143
9.28955
8.41861
7.69712
7.05854
6.46864
5.90637
5.37853
4.90567
4.51726
4.24329
4.15658
4.49922
6.02493
12.0907
39.4982
238.415
16.8165
15.3986
13.6649
11.8429
10.274
9.25604
8.51363
7.90995
7.34572
6.76076
6.14597
5.52331
4.9402
4.44331
4.07087
3.86608
3.94812
4.55925
6.57493
13.7598
43.1553
238.412
14.8502
13.2656
11.5836
10.262
9.34156
8.7644
8.3262
7.90447
7.43257
6.87076
6.21283
5.50307
4.83419
4.28696
3.91062
3.79311
4.1064
5.12183
7.93725
16.3522
46.1026
238.408
12.8548
11.3373
10.1726
9.4405
9.0069
8.72141
8.47953
8.21876
7.88075
7.40943
6.77386
6.00673
5.22598
4.58625
4.20262
4.19909
4.74125
6.17197
9.63228
18.6721
48.0253
238.403
11.1509
10.0654
9.42188
9.07854
8.89985
8.80545
8.74676
8.67712
8.53444
8.24291
7.73418
6.99352
6.12077
5.33932
4.87468
4.92036
5.62663
7.34292
11.1188
20.1853
48.6361
238.399
9.91808
9.24897
8.93326
8.7917
8.76728
8.82361
8.93501
9.06511
9.15536
9.12237
8.86729
8.31066
7.46472
6.52002
5.84087
5.74353
6.44944
8.24178
11.9973
20.6425
47.9918
238.396
9.01913
8.6058
8.45475
8.42514
8.50038
8.66808
8.91569
9.21853
9.53208
9.78314
9.86781
9.66207
9.06945
8.12569
7.12793
6.62527
7.02148
8.63466
12.1057
20.1115
46.5234
238.394
8.2535
7.98505
7.91668
7.95689
8.09309
8.32977
8.66561
9.08608
9.56881
10.0619
10.4819
10.7034
10.5705
9.95234
8.89075
7.80446
7.49674
8.55949
11.5225
18.8221
44.6071
238.393
7.56339
7.37816
7.34928
7.43306
7.60016
7.86684
8.24407
8.71993
9.30012
9.95329
10.6268
11.228
11.6061
11.56
10.9028
9.66298
8.42691
8.41604
10.5629
17.111
42.5574
238.393
6.94712
6.81123
6.80457
6.90203
7.07914
7.35346
7.72963
8.21341
8.82873
9.55887
10.3806
11.2437
12.0412
12.5878
12.6184
11.8707
10.3638
9.05859
9.83579
15.5615
41.4767
238.393
6.39108
6.27737
6.27417
6.3675
6.53798
6.80332
7.17178
7.65306
8.25831
8.99382
9.87699
10.8852
11.9598
12.9758
13.693
13.764
12.8192
10.9793
10.1459
15.0743
40.9835
238.393
5.88037
5.76699
5.74932
5.82131
5.97537
6.21715
6.56115
7.01917
7.60536
8.33663
9.22251
10.2923
11.5212
12.8494
14.1168
15.0082
15.08
13.8271
12.1949
15.34
40.9806
238.394
5.4096
5.28359
5.24146
5.28225
5.41223
5.62089
5.92956
6.35189
6.90406
7.60608
8.4815
9.5564
10.8547
12.3637
14.0116
15.58
16.6557
16.6684
15.2023
16.4811
41.3101
238.394
4.97858
4.8351
4.76701
4.7764
4.87097
5.04167
5.30807
5.68482
6.18994
6.8463
7.68263
8.7337
10.0392
11.6371
13.5189
15.5845
17.5289
18.7806
18.5322
19.2696
41.6209
238.395
4.58769
4.42589
4.33289
4.31203
4.37137
4.50402
4.72562
5.05076
5.4984
6.09347
6.86859
7.86561
9.13722
10.7456
12.7515
15.1457
17.7821
20.2119
21.5761
22.6784
42.1258
238.395
4.23835
4.0608
3.94727
3.90109
3.92939
4.02733
4.20593
4.47868
4.86424
5.38811
6.0849
7.00133
8.19985
9.76241
11.7885
14.3664
17.4979
20.9423
24.0008
26.5063
44.0479
238.395
3.93142
3.74231
3.61381
3.54838
3.55157
3.6204
3.76112
3.98549
4.31071
4.76105
5.3706
6.18729
7.27889
8.74124
10.7056
13.3331
16.7672
21.0016
25.6352
30.2648
47.4217
238.395
3.66613
3.46965
3.3311
3.25162
3.23507
3.28192
3.39146
3.57457
3.8464
4.22872
4.75283
5.46407
6.42936
7.7497
9.57783
12.1325
15.6834
20.4593
26.428
33.4107
51.3972
238.394
3.44033
3.24003
3.09539
3.00612
2.97441
3.00486
3.08961
3.23923
3.46682
3.79127
4.23998
4.8531
5.69123
6.85024
8.48798
10.861
14.3481
19.4068
26.409
35.6855
55.5338
238.394
3.251
3.0496
2.90207
2.80698
2.76533
2.78034
2.84536
2.9684
3.16061
3.43828
3.82509
4.3554
5.08066
6.08345
7.50879
9.6215
12.8785
17.9543
25.6479
36.9952
59.5071
238.395
3.09459
2.89378
2.74514
2.64616
2.59678
2.59929
2.64867
2.75071
2.91491
3.15557
3.4935
3.95835
4.59268
5.46254
6.68675
8.50614
11.4053
16.2404
24.2458
37.3297
63.1173
238.402
2.96752
2.76814
2.61927
2.51743
2.46186
2.4543
2.49121
2.57655
2.71845
2.92973
3.22934
3.64398
4.2099
4.97829
6.03687
7.57783
10.0537
14.4298
22.3859
36.7179
66.0811
238.417
2.86651
2.66886
2.52014
2.41609
2.35544
2.33967
2.36656
2.43858
2.56261
2.75025
3.01927
3.39514
3.91113
4.60864
5.5479
6.86215
8.92061
12.6834
20.1894
35.189
67.9881
238.449
2.78871
2.59277
2.44434
2.33852
2.27365
2.2511
2.26997
2.33144
2.44118
2.60963
2.85366
3.19852
3.6774
4.32788
5.19162
6.34766
8.05359
11.1494
17.8423
32.8169
68.5901
238.502
2.73179
2.53732
2.38923
2.282
2.21362
2.18542
2.19792
2.25121
2.34974
2.50273
2.72614
3.04533
3.49511
4.11418
4.93555
5.99868
7.44909
9.929
15.5777
29.8779
67.7896
238.578
2.69402
2.50066
2.35288
2.24459
2.17338
2.14046
2.148
2.19509
2.28506
2.42591
2.63253
2.93031
3.35625
3.95313
4.75314
5.77395
7.06993
9.06081
13.5991
26.5795
65.5144
238.673
2.67496
2.48208
2.33447
2.22545
2.15207
2.11521
2.11888
2.16134
2.24491
2.37652
2.56999
2.85045
3.25695
3.83758
4.62781
5.63836
6.86337
8.52121
12.0446
23.2065
61.9736
238.772
2.67834
2.48419
2.33584
2.22586
2.15065
2.11032
2.11045
2.14923
2.22796
2.35278
2.53657
2.80406
3.19585
3.7655
4.55267
5.57001
6.77949
8.25086
10.9715
20.0886
57.5164
238.864
2.70195
2.50521
2.35548
2.24463
2.16851
2.12676
2.12402
2.15913
2.23383
2.35377
2.53116
2.79037
3.17309
3.73792
4.52753
5.56005
6.78434
8.17977
10.3558
17.5031
52.4297
238.938
2.74609
2.54524
2.39308
2.28083
2.20367
2.16067
2.15556
2.1883
2.26082
2.3786
2.55387
2.8116
3.19407
3.75781
4.55626
5.60885
6.8614
8.24999
10.1242
15.6546
47.1704
238.985
2.81169
2.60503
2.44906
2.33445
2.25568
2.21105
2.20393
2.23511
2.30649
2.42352
2.59889
2.85897
3.24839
3.82608
4.64783
5.73234
7.02183
8.42593
10.1861
14.6409
42.2086
239
2.90024
2.68603
2.52472
2.40656
2.32543
2.27892
2.2701
2.30036
2.37153
2.48912
2.6668
2.93329
3.33658
3.93859
4.79563
5.92279
7.25586
8.69758
10.446
14.5179
38.4941
238.981
3.0136
2.7903
2.62215
2.49923
2.41493
2.36633
2.35631
2.38604
2.45776
2.57723
2.75988
3.03786
3.46363
4.10219
5.0087
6.19108
7.5744
9.05613
10.8069
14.6321
37.2345
238.934
3.15362
2.92014
2.74398
2.61522
2.52703
2.47606
2.46514
2.49486
2.56739
2.69023
2.88133
3.17778
3.63751
4.32825
5.30148
6.55345
7.99378
9.51525
11.2697
14.8853
36.2859
238.868
3.32178
3.0777
2.89286
2.75756
2.66491
2.6113
2.59946
2.6292
2.703
2.83075
3.03548
3.36048
3.87012
4.63347
5.69441
7.03165
8.53451
10.0923
11.8435
15.2628
35.5567
238.791
3.51856
3.26431
3.07081
2.92876
2.83139
2.77491
2.76194
2.79148
2.86703
3.00241
3.2286
3.59727
4.17935
5.04222
6.21604
7.6543
9.2216
10.8068
12.5358
15.7253
35.0422
238.709
3.74215
3.47965
3.27846
3.13015
3.02821
2.96878
2.95449
2.98386
3.06275
3.21135
3.47088
3.90613
4.59276
5.59036
6.90634
8.45844
10.0842
11.6788
13.3516
16.2847
34.7298
238.63
3.98859
3.72124
3.51463
3.36143
3.2556
3.19356
3.1782
3.20849
3.29515
3.46787
3.78128
4.31739
5.15454
6.33178
7.8211
9.49149
11.1546
12.7267
14.2868
16.9079
34.6081
238.559
4.25474
3.98591
3.777
3.62093
3.51243
3.44981
3.43405
3.46867
3.57295
3.79039
4.19478
4.88737
5.9367
7.3475
9.03553
10.8113
12.4678
13.9627
15.3204
17.5473
34.6688
238.499
4.53958
4.27218
4.06343
3.9065
3.79687
3.73578
3.72323
3.77185
3.91545
4.21856
4.78073
5.71291
7.05518
8.75373
10.6444
12.4817
14.0568
15.3795
16.4028
18.1307
34.9171
238.453
4.841
4.57796
4.37202
4.21674
4.10856
4.0526
4.05398
4.14038
4.36984
4.83705
5.66653
6.9564
8.68527
10.706
12.7592
14.5672
15.9485
16.9394
17.435
18.5583
35.4007
238.423
5.15921
4.90383
4.70428
4.55476
4.45354
4.41433
4.45641
4.63541
5.04678
5.82029
7.08736
8.88812
11.0809
13.3963
15.5021
17.1305
18.1323
18.536
18.2426
18.7141
36.2199
238.416
5.49921
5.25703
5.07025
4.93458
4.85377
4.86444
5.01779
5.41728
6.20622
7.53362
9.48067
11.938
14.5889
17.054
18.9974
20.2035
20.5207
19.9484
18.5571
18.5326
37.6958
238.416
5.87554
5.65877
5.49962
5.39898
5.38377
5.5469
6.00238
6.91885
8.46688
10.7309
13.6097
16.7436
19.656
21.9474
23.3582
23.724
22.8768
20.795
18.0764
18.2677
41.0952
238.412
6.33182
6.17799
6.09413
6.10263
6.33647
6.9811
8.24977
10.3277
13.2661
16.8724
20.7123
24.204
26.8547
28.3702
28.5916
27.3892
24.6799
20.6503
16.8408
19.5542
48.8424
238.407
7.05471
7.12879
7.32647
7.77141
8.97844
11.165
14.4758
18.7969
23.7152
28.6006
32.7524
35.6262
36.9393
36.5504
34.3925
30.4624
25.095
19.3971
16.4408
22.9751
52.146
238.401
9.23823
10.5098
12.1264
15.1474
19.876
26.0105
33.0457
40.128
46.3585
50.9134
53.2804
53.3727
51.199
46.7996
40.5437
33.2999
26.8075
22.577
22.3414
28.0622
53.8046
238.396
26.4893
35.1778
46.4438
58.2863
69.4938
80.0098
88.915
95.2567
98.5637
98.6488
94.7894
88.2306
79.7706
70.3523
62.2033
56.9538
55.6841
55.22
54.9799
56.4831
71.5906
238.393
320.785
320.587
320.417
320.219
319.971
319.661
319.287
318.884
318.521
318.265
318.133
318.083
318.07
318.07
318.071
318.071
318.07
318.07
318.069
318.068
318.066
278.229
220.093
67.3083
33.6723
20.3051
14.0752
10.9271
9.2399
8.49789
8.59035
9.52235
11.3085
13.8195
16.6979
19.5057
21.825
23.3482
23.9848
23.8639
220.219
64.8783
29.9531
17.3646
12.1286
9.75229
8.69138
8.68966
9.48008
11.0337
13.271
15.939
18.6353
20.903
22.3957
23.0011
22.8632
22.2788
220.351
60.1144
25.6871
14.7542
10.788
9.23133
8.98917
9.57004
10.8516
12.7785
15.1733
17.7015
19.9218
21.4461
22.1098
22.0257
21.4924
20.8381
220.467
54.0573
21.709
12.9342
10.2014
9.5121
9.82549
10.8008
12.3983
14.4838
16.7904
18.9264
20.493
21.2624
21.2842
20.8291
20.2323
19.759
220.562
47.8657
18.5982
12.0137
10.4112
10.2951
10.9201
12.1633
13.9208
15.967
17.9696
19.55
20.4348
20.5937
20.2428
19.7064
19.2651
19.0879
220.637
42.222
16.6382
12.0385
11.0179
11.2567
12.1086
13.5102
15.2706
17.0967
18.646
19.6246
19.9298
19.7022
19.2338
18.8137
18.6335
18.8118
220.696
37.8051
16.2953
12.4779
11.8664
12.2848
13.2814
14.7222
16.34
17.811
18.8454
19.2852
19.1904
18.7999
18.3993
18.2082
18.3631
18.8831
220.753
36.2345
16.433
13.0996
12.7824
13.3112
14.3681
15.7254
17.0728
18.1161
18.663
18.6974
18.3934
18.0171
17.81
17.9299
18.4083
19.2148
220.802
35.853
16.7744
13.8207
13.7048
14.2942
15.3091
16.4659
17.4598
18.073
18.2219
18.0082
17.666
17.4443
17.5134
17.9396
18.6891
19.6401
220.838
35.5898
17.228
14.6586
14.6077
15.172
16.0438
16.917
17.5332
17.7689
17.6444
17.343
17.1067
17.1218
17.477
18.1623
19.0466
19.9121
220.861
35.4403
17.7262
15.4326
15.4268
15.8881
16.5393
17.0903
17.3576
17.31
17.051
16.7963
16.7495
17.0254
17.6307
18.4473
19.2536
19.7818
220.874
35.3759
18.2741
16.1612
16.1214
16.4113
16.7957
17.0302
17.0142
16.7908
16.5157
16.3961
16.584
17.0985
17.8377
18.5923
19.091
19.1042
220.87
35.4004
18.811
16.812
16.6651
16.7343
16.838
16.7939
16.5764
16.2799
16.084
16.162
16.5685
17.2248
17.9264
18.4105
18.4351
17.8875
220.843
35.5174
19.2929
17.3575
17.046
16.8682
16.7059
16.4433
16.1123
15.836
15.7853
16.0553
16.6145
17.2643
17.7415
17.7978
17.2951
16.2614
220.817
35.6965
19.7275
17.7836
17.267
16.8377
16.4453
16.0323
15.6649
15.4731
15.586
16.0177
16.608
17.0876
17.1928
16.76
15.7866
14.4154
220.795
35.848
20.0876
18.0825
17.3406
16.674
16.1011
15.6048
15.2655
15.2013
15.4582
15.9629
16.4442
16.617
16.2806
15.3963
14.0902
12.586
220.864
36.0198
20.3658
18.2549
17.2854
16.4096
15.7093
15.1873
14.9167
14.9774
15.3451
15.8089
16.0575
15.8465
15.0834
13.8616
12.4058
11.0146
221.013
36.2044
20.5612
18.3092
17.123
16.0746
15.2993
14.7994
14.6271
14.791
15.1876
15.5015
15.4363
14.834
13.7301
12.3345
10.9418
9.80112
221.179
36.3934
20.676
18.258
16.8763
15.6988
14.8927
14.4389
14.36
14.6043
14.9412
15.0235
14.6169
13.6778
12.3684
10.968
9.74844
8.83524
221.35
36.5848
20.7146
18.1174
16.5673
15.3017
14.4983
14.109
14.1164
14.386
14.5856
14.3926
13.6671
12.4884
11.1096
9.81249
8.76541
8.00984
221.523
36.778
20.6852
17.9035
16.214
14.8988
14.126
13.8163
13.8824
14.1153
14.124
13.6505
12.6657
11.3565
10.0033
8.8441
7.92823
7.29476
221.696
36.9726
20.5987
17.6333
15.8374
14.5053
13.7732
13.5311
13.6427
13.7865
13.5785
12.852
11.6879
10.342
9.07592
8.02204
7.20843
6.67451
221.868
37.1776
20.4694
17.3242
15.4503
14.1244
13.4446
13.2684
13.3895
13.4067
12.9815
12.0495
10.7839
9.46203
8.28543
7.31541
6.58968
6.13057
222.034
37.4056
20.3111
16.9903
15.0629
13.7664
13.1532
13.024
13.1207
12.9907
12.3668
11.2832
9.97731
8.70852
7.6059
6.70755
6.05699
5.64828
222.192
37.6636
20.1364
16.648
14.6873
13.4276
12.87
12.7923
12.8393
12.5568
11.7633
10.5791
9.27361
8.06158
7.0201
6.18606
5.59636
5.21817
222.34
37.9573
19.9576
16.3085
14.3199
13.1109
12.6135
12.5725
12.5519
12.1229
11.1929
9.94969
8.66574
7.50523
6.51606
5.73943
5.196
4.83424
222.477
38.2916
19.7853
15.9797
13.9739
12.8187
12.3816
12.3637
12.2655
11.7041
10.6695
9.39695
8.1428
7.02663
6.08398
5.35698
4.84707
4.49326
222.6
38.6805
19.6275
15.6668
13.6563
12.5537
12.1729
12.1653
11.9871
11.3112
10.1998
8.91732
7.69407
6.61599
5.71517
5.02956
4.54336
4.19328
222.705
39.1346
19.4919
15.3751
13.3679
12.3143
11.9845
11.9779
11.7228
10.9517
9.78599
8.50496
7.31045
6.26547
5.40183
4.74973
4.28034
3.93244
222.789
39.6607
19.3866
15.1094
13.104
12.0916
11.8134
11.8028
11.4775
10.6295
9.42731
8.15388
6.98454
5.96846
5.13716
4.51161
4.05439
3.70852
222.85
40.2673
19.3191
14.8726
12.8621
11.884
11.6569
11.6405
11.2546
10.3466
9.12147
7.85802
6.71028
5.71928
4.91535
4.3105
3.86237
3.51892
222.882
40.992
19.2984
14.6663
12.6419
11.6925
11.5123
11.4912
11.0554
10.1029
8.86513
7.61224
6.48268
5.51302
4.73155
4.14255
3.70143
3.36076
222.889
42.747
19.3568
14.4931
12.443
11.5161
11.3766
11.354
10.8807
9.89781
8.65488
7.41221
6.29759
5.3455
4.58181
4.00464
3.56889
3.23114
222.862
45.3849
19.6516
14.3617
12.2657
11.3532
11.2476
11.228
10.7302
9.72964
8.48753
7.25439
6.15159
5.21327
4.46291
3.89414
3.46235
3.12732
222.792
48.6933
20.2642
14.3236
12.1232
11.2077
11.1236
11.1111
10.6037
9.59713
8.36063
7.13602
6.04197
5.11356
4.3723
3.8089
3.37967
3.04684
222.673
52.4004
21.2162
14.3946
12.0237
11.0838
11.0034
10.9954
10.4958
9.50477
8.276
7.05625
5.96723
5.04442
4.30811
3.74723
3.31909
2.98767
222.502
56.2712
22.5228
14.6017
11.9751
10.9808
10.8864
10.8806
10.3995
9.43614
8.23333
7.02348
5.93136
5.00567
4.26973
3.70841
3.27965
2.94843
222.283
60.1541
24.1837
14.9751
11.9895
10.9011
10.773
10.7663
10.3131
9.388
8.2185
7.02396
5.93332
5.00466
4.26384
3.69738
3.26444
2.9302
222.021
63.922
26.1768
15.5448
12.083
10.8503
10.6655
10.6528
10.2343
9.35687
8.22776
7.05446
5.96818
5.03605
4.28785
3.7131
3.27336
2.93488
221.726
67.459
28.457
16.3367
12.2758
10.8373
10.5679
10.5409
10.1609
9.33918
8.25728
7.11142
6.0336
5.09871
4.34142
3.75566
3.30663
2.96168
221.411
70.6521
30.9558
17.3676
12.5903
10.8749
10.4863
10.4325
10.0909
9.33134
8.3032
7.19103
6.12681
5.19116
4.42423
3.82547
3.36484
3.01115
221.093
73.383
33.5831
18.6408
13.0495
10.9792
10.4294
10.3307
10.0232
9.32991
8.36177
7.28938
6.24459
5.31149
4.53574
3.92298
3.44885
3.08426
220.791
75.4609
36.2236
20.1408
13.6733
11.1686
10.409
10.2405
9.9577
9.33155
8.42897
7.40284
6.38335
5.45719
4.67489
4.04838
3.5596
3.18229
220.526
76.7211
38.7534
21.8315
14.4746
11.4628
10.4389
10.169
9.89622
9.33389
8.50092
7.5272
6.53914
5.62515
4.83989
4.20122
3.69772
3.3067
220.314
77.1391
41.063
23.6573
15.4534
11.878
10.5349
10.1256
9.842
9.336
8.57435
7.65841
6.70776
5.81171
5.02813
4.38035
3.86339
3.45864
220.159
76.72
43.0612
25.5475
16.5963
12.4268
10.7135
10.1219
9.80048
9.33846
8.64676
7.79295
6.88506
6.01287
5.23623
4.58356
4.05572
3.63851
220.056
75.4564
44.6714
27.4251
17.8749
13.1158
10.9902
10.1718
9.77956
9.3437
8.71651
7.92743
7.06743
6.22444
5.46021
4.80757
4.27253
3.84539
219.994
73.3299
45.8264
29.2149
19.2503
13.9425
11.3776
10.2899
9.78945
9.35629
8.78384
8.05938
7.25144
6.44218
5.69562
5.04808
4.51026
4.07644
219.96
70.4034
46.4734
30.8491
20.6897
14.8981
11.8835
10.49
9.84216
9.38312
8.85079
8.18732
7.43465
6.66326
5.93835
5.30039
4.76397
4.3271
219.942
66.7736
46.5657
32.2614
22.1525
15.9654
12.5119
10.7836
9.95021
9.43306
8.92153
8.31163
7.61468
6.88564
6.18668
5.56182
5.03014
4.59394
219.938
62.5531
46.0583
33.3879
23.5948
17.119
13.2579
11.1793
10.1255
9.51629
9.00221
8.43476
7.79091
7.10688
6.43845
5.83077
5.30752
4.87586
219.938
57.9841
44.918
34.1679
24.9311
18.3094
14.1056
11.6801
10.3785
9.64367
9.10051
8.56062
7.96443
7.32645
6.69232
6.10573
5.59467
5.17121
219.939
53.4517
43.1356
34.552
26.1114
19.4909
15.0311
12.2815
10.7169
9.82601
9.22582
8.69483
8.13813
7.54538
6.94874
6.38758
5.89205
5.48021
219.939
48.9989
40.6833
34.4912
27.0889
20.6637
16.0146
12.9741
11.1424
10.0718
9.38722
8.84441
8.31689
7.76689
7.21018
6.67731
6.20188
5.80608
219.939
44.7806
37.5551
33.9399
27.8076
21.761
17.0269
13.7438
11.6531
10.3862
9.59257
9.0164
8.50611
7.99623
7.47984
6.97791
6.5294
6.15809
219.938
41.3212
33.8782
32.8744
28.2185
22.7352
18.0287
14.5673
12.2408
10.7713
9.84833
9.21765
8.71098
8.23962
7.76319
7.30021
6.89078
6.56326
219.937
39.7532
29.9513
31.2982
28.2746
23.5455
18.9983
15.4218
12.8912
11.2234
10.1577
9.45412
8.9383
8.49837
8.06933
7.66417
7.32863
7.1115
219.936
39.1965
26.0543
29.2208
27.9245
24.1437
19.8974
16.2834
13.5892
11.7349
10.5194
9.72825
9.19297
8.77666
8.40895
8.10089
7.94677
8.16617
219.935
38.7984
22.4804
26.671
27.118
24.4744
20.6892
17.1286
14.3132
12.294
10.9294
10.0404
9.47334
9.07692
8.79061
8.66425
9.06767
12.5122
219.933
38.4804
19.3111
23.7008
25.827
24.4784
21.3285
17.9277
15.0451
12.8808
11.3741
10.3826
9.77166
9.39045
9.20259
9.40981
12.2942
50.9446
219.932
38.2802
17.3387
20.8594
24.3522
24.1981
21.7126
18.5291
15.6314
13.3662
11.7498
10.671
10.0164
9.64154
9.53769
10.1501
19.0424
221.868
219.931
38.1599
16.1192
18.157
22.6135
23.6264
21.9226
19.0605
16.197
13.8538
12.1351
10.968
10.2602
9.87772
9.83219
10.7245
22.2285
221.695
219.931
38.0743
15.2347
15.7626
20.6672
22.7476
21.9227
19.5
16.7464
14.3502
12.533
11.2763
10.5045
10.0941
10.0624
11.075
23.4326
221.876
318.676
318.126
318.088
318.076
318.072
318.069
318.068
318.067
318.067
318.066
318.066
318.066
318.066
318.066
318.066
318.066
318.066
318.066
318.066
318.066
318.066
278.229
122.29
81.9376
57.1192
53.9949
53.3069
53.2495
53.2431
53.2684
53.3535
53.5008
53.6963
53.919
54.1501
54.3766
54.5861
54.7933
55.1928
55.4301
55.6483
56.6414
68.052
238.393
72.4597
56.3865
31.3939
20.4689
18.0269
17.2054
16.8844
16.7774
16.8091
16.9434
17.1506
17.4031
17.6797
17.9684
18.2553
18.5536
18.9925
19.4198
20.1762
23.4447
44.5385
238.393
49.9733
45.1946
30.2215
15.653
10.2361
8.44642
7.72348
7.43123
7.35736
7.41487
7.55582
7.74822
7.97226
8.21887
8.48876
8.79649
9.22503
9.86641
11.2783
16.4267
41.4742
238.393
37.2538
37.5157
29.5431
18.323
9.67451
6.37345
5.10335
4.56896
4.36433
4.33355
4.39883
4.51544
4.65931
4.8231
5.01479
5.26611
5.67195
6.47727
8.40317
14.6243
41.0092
238.393
29.1841
31.6818
27.8796
20.3442
12.1775
6.98846
4.80757
3.89395
3.50997
3.39112
3.40565
3.48187
3.58031
3.68713
3.81184
3.99714
4.35801
5.21796
7.43674
14.1615
40.9644
238.393
23.7419
27.0712
25.8351
21.1627
14.7876
8.8573
5.57331
4.12853
3.48612
3.25069
3.23056
3.30604
3.41041
3.5153
3.62316
3.77747
4.10043
4.92581
7.20699
14.1126
41.0137
238.393
19.9487
23.3861
23.6815
21.0718
16.4634
11.2432
6.99681
4.8363
3.84253
3.4392
3.37611
3.47249
3.62111
3.77378
3.91954
4.09555
4.41103
5.19137
7.39012
14.2047
41.1036
238.393
17.2527
20.4413
21.588
20.4277
17.3334
13.105
8.87957
5.93601
4.43419
3.79522
3.65456
3.77255
3.98548
4.21856
4.44162
4.69457
5.05324
5.80062
7.88151
14.4818
41.1597
238.393
15.3098
18.0977
19.6531
19.4712
17.588
14.3891
10.6752
7.3124
5.23676
4.26802
3.99437
4.12078
4.40025
4.73578
5.08331
5.45611
5.90304
6.66078
8.62001
14.9525
41.2285
238.393
13.8933
16.2409
17.9255
18.3688
17.4084
15.151
12.0612
8.85674
6.28724
4.86945
4.38372
4.47225
4.80559
5.25207
5.75238
6.28088
6.87067
7.71967
9.61634
15.6626
41.483
238.393
12.8492
14.7737
16.4202
17.2312
16.9421
15.4879
13.0679
10.2101
7.47872
5.64121
4.8287
4.80906
5.17386
5.71402
6.35231
7.06377
7.86391
8.90844
10.8667
16.6668
41.9337
238.393
12.0737
13.6154
15.1307
16.1278
16.3034
15.4969
13.7219
11.2898
8.7125
6.48978
5.35897
5.13849
5.48901
6.09067
6.84352
7.73496
8.78387
10.1215
12.3139
18.036
42.6907
238.393
11.4972
12.7009
14.0389
15.0985
15.576
15.2669
14.0694
12.1068
9.7679
7.47595
5.94525
5.47164
5.73607
6.36221
7.19293
8.23675
9.53364
11.2262
13.8225
19.7377
43.8854
238.393
11.0753
11.9798
13.122
14.1629
14.8191
14.8738
14.164
12.6724
10.637
8.47029
6.59663
5.80258
5.91392
6.51665
7.39286
8.5343
10.0377
12.095
15.2103
21.5981
45.406
238.393
10.7769
11.4147
12.3568
13.3275
14.072
14.3789
14.0605
13.0083
11.3191
9.31752
7.38889
6.181
6.02865
6.54733
7.4211
8.62243
10.266
12.636
16.3094
23.3973
47.1488
238.393
10.5853
10.9807
11.7233
12.5914
13.3593
13.8288
13.8104
13.1449
11.8164
10.0375
8.17446
6.67372
6.1344
6.46235
7.28666
8.48182
10.2052
12.8016
17.0025
24.9431
49.1129
238.394
10.4842
10.6583
11.2049
11.9502
12.6953
13.2581
13.4584
13.1167
12.1381
10.6247
8.87624
7.29479
6.32564
6.35094
7.03704
8.16535
9.88293
12.6134
17.2284
26.0745
51.1874
238.396
10.4593
10.438
10.7918
11.3985
12.0876
12.6908
13.0413
12.9587
12.3003
11.0742
9.49367
7.91192
6.71417
6.31645
6.73402
7.73293
9.35312
12.0941
16.9744
26.6608
53.1454
238.4
10.5021
10.307
10.4742
10.9324
11.5403
12.1435
12.5883
12.7037
12.3243
11.3872
10.0168
8.50373
7.20438
6.46683
6.52317
7.28283
8.71367
11.3213
16.2791
26.6184
54.7712
238.408
10.5973
10.2533
10.249
10.5504
11.0557
11.6272
12.1216
12.3804
12.2337
11.5705
10.4355
9.04842
7.72733
6.79296
6.48835
6.91334
8.08158
10.4378
15.2661
25.9459
55.5877
238.42
10.7223
10.271
10.1076
10.2503
10.6365
11.1501
11.6579
12.0135
12.0523
11.6362
10.7449
9.52589
8.25061
7.21832
6.66358
6.70899
7.55813
9.56141
14.0549
24.7453
55.5843
238.437
10.8519
10.342
10.0405
10.0328
10.2866
10.7187
11.2095
11.6224
11.8024
11.5998
10.9459
9.92052
8.74182
7.68665
6.98444
6.76151
7.21544
8.80137
12.8121
23.2274
54.9765
238.459
10.9612
10.446
10.0436
9.89224
10.0076
10.3392
10.7867
11.2233
11.5042
11.4783
11.0447
10.2245
9.17913
8.15504
7.38079
6.9916
7.11132
8.22731
11.6128
21.4622
53.7577
238.485
11.0279
10.5579
10.0988
9.82111
9.80296
10.0184
10.3979
10.8289
11.1751
11.2891
11.0512
10.4356
9.5478
8.59508
7.8036
7.32092
7.24167
7.92124
10.5853
19.5594
51.8864
238.512
11.0349
10.6525
10.186
9.81621
9.66834
9.76016
10.0517
10.4503
10.8299
11.0488
10.9779
10.5563
9.8392
8.98994
8.22411
7.70077
7.50764
7.91593
9.86824
17.735
49.6379
238.538
10.9714
10.7067
10.28
9.8592
9.59724
9.56889
9.75618
10.0973
10.4812
10.7725
10.8383
10.5932
10.0502
9.32885
8.62192
8.09753
7.83288
8.06383
9.60466
16.1005
46.9872
238.561
10.8333
10.7027
10.3556
9.93004
9.58616
9.44107
9.51601
9.77938
10.1407
10.474
10.6464
10.5558
10.1813
9.60287
8.98035
8.48642
8.18871
8.29759
9.56152
15.0255
43.9522
238.58
10.6225
10.6293
10.3902
10.0037
9.61675
9.37006
9.33614
9.50541
9.81871
10.1655
10.4153
10.4551
10.237
9.80645
9.28747
8.84912
8.55405
8.59748
9.65622
14.5974
41.0329
238.594
10.3456
10.4821