/*--------------------------------*- C++ -*----------------------------------*\
| =========                 |                                                 |
| \\      /  F ield         | OpenFOAM: The Open Source CFD Toolbox           |
|  \\    /   O peration     | Version:  v2012                                 |
|   \\  /    A nd           | Website:  www.openfoam.com                      |
|    \\/     M anipulation  |                                                 |
\*---------------------------------------------------------------------------*/
FoamFile
{
    version     2.0;
    format      ascii;
    class       volScalarField;
    location    "562";
    object      p;
}
// * * * * * * * * * * * * * * * * * * * * * * * * * * * * * * * * * * * * * //

dimensions      [0 2 -2 0 0 0 0];


internalField   nonuniform List<scalar> 
6054
(
0.947398
0.948203
0.950447
0.95423
0.959524
0.966283
0.974561
0.984279
0.994958
1.00607
1.01745
1.02903
1.04079
1.05281
1.06516
1.07747
1.08917
1.10251
1.12705
1.16627
0.945713
0.946397
0.948643
0.952564
0.958049
0.965066
0.973577
0.983437
0.994266
1.00562
1.01714
1.02869
1.04039
1.05233
1.06442
1.0763
1.08745
1.09889
1.11491
1.13362
0.936958
0.938733
0.942425
0.947758
0.95442
0.962383
0.971524
0.981709
0.992708
1.00419
1.01566
1.02713
1.03903
1.05121
1.06325
1.07487
1.08596
1.09767
1.11028
1.11711
0.926062
0.929398
0.934603
0.94136
0.949358
0.958416
0.968392
0.979147
0.99049
1.00218
1.01394
1.02578
1.03788
1.05007
1.062
1.07336
1.08432
1.09559
1.10571
1.10971
0.913446
0.91872
0.925783
0.934194
0.943628
0.953881
0.964809
0.976283
0.988155
1.00024
1.01241
1.02465
1.03699
1.04928
1.06124
1.07258
1.08351
1.09433
1.10312
1.1064
0.899103
0.906776
0.916102
0.92648
0.937552
0.949141
0.961129
0.973417
0.985913
0.998492
1.01107
1.02367
1.03627
1.04874
1.06084
1.07228
1.08329
1.09417
1.10298
1.10628
0.883048
0.893838
0.905893
0.918532
0.93141
0.944435
0.957557
0.970708
0.983871
0.996977
1.00995
1.02289
1.03578
1.04849
1.06082
1.07249
1.08367
1.09509
1.10531
1.10935
0.865518
0.880215
0.895569
0.910721
0.925472
0.939939
0.954211
0.968272
0.982149
0.995806
1.00916
1.02243
1.03564
1.04865
1.06135
1.07347
1.08493
1.09688
1.10965
1.11656
0.843435
0.864963
0.884689
0.902635
0.919212
0.935005
0.950355
0.96545
0.980221
0.994602
1.00859
1.02226
1.03567
1.0489
1.06196
1.07453
1.08614
1.09788
1.11411
1.13292
0.825378
0.855082
0.878203
0.897876
0.915346
0.931723
0.947632
0.96316
0.97832
0.993115
1.00752
1.02156
1.03528
1.04882
1.06232
1.07546
1.08771
1.1014
1.12616
1.16546
1.03283
1.03187
1.0308
1.0297
1.02852
1.02708
1.02522
1.02293
1.02009
1.01673
1.01288
1.00839
1.00304
0.996638
0.989239
0.981248
0.973192
0.965587
0.958917
0.953633
0.950002
0.947977
1.0327
1.03176
1.03079
1.02979
1.02863
1.0272
1.02553
1.02347
1.02073
1.01741
1.01388
1.00996
1.00504
0.998789
0.991285
0.983014
0.974555
0.966427
0.959115
0.953124
0.948885
0.946488
1.03257
1.0317
1.03092
1.03008
1.02902
1.02772
1.02627
1.02449
1.02193
1.01861
1.0148
1.01026
1.00445
0.997093
0.988311
0.978674
0.968885
0.959608
0.951284
0.944409
0.939632
0.937192
1.03267
1.03192
1.03132
1.03068
1.02979
1.02864
1.0272
1.02507
1.02175
1.01707
1.01114
1.00393
0.995348
0.985515
0.97485
0.963944
0.953398
0.943908
0.935961
0.929887
0.926134
0.92489
1.03311
1.03252
1.03213
1.03164
1.03067
1.02898
1.02629
1.02213
1.01613
1.00835
0.999113
0.988798
0.977739
0.966306
0.954918
0.944003
0.934013
0.925417
0.918435
0.913269
0.910486
0.910547
1.03405
1.03356
1.03304
1.03192
1.02964
1.02576
1.01998
1.01216
1.00248
0.991399
0.979515
0.967334
0.955247
0.94353
0.932393
0.922062
0.912884
0.905206
0.899094
0.894644
0.892672
0.894127
1.0351
1.03411
1.03234
1.02908
1.02374
1.01611
1.00632
0.994757
0.982023
0.96878
0.955543
0.942678
0.930458
0.919026
0.908423
0.898662
0.890069
0.883138
0.877856
0.873949
0.872488
0.875373
1.03498
1.03227
1.02772
1.02081
1.01135
0.999671
0.986378
0.972139
0.957604
0.94334
0.929608
0.916511
0.904348
0.893279
0.883144
0.873758
0.86569
0.859712
0.855549
0.852273
0.850333
0.854111
1.03187
1.02605
1.01758
1.00646
0.993087
0.978187
0.962554
0.946747
0.93116
0.916275
0.902213
0.888861
0.87701
0.866642
0.857192
0.84879
0.841488
0.835702
0.831984
0.829281
0.825217
0.826158
1.02426
1.01452
1.00197
0.987164
0.970851
0.953724
0.936551
0.919752
0.90342
0.888359
0.874703
0.86214
0.850931
0.840845
0.831831
0.824129
0.81759
0.812432
0.809904
0.809372
0.804255
0.796619
1.03459
1.03473
1.03512
1.03568
1.03617
1.03638
1.03621
1.03576
1.03526
1.03486
1.03467
1.03465
1.03471
1.03478
1.0348
1.03467
1.0343
1.03366
1.03455
1.03466
1.035
1.03552
1.03601
1.03621
1.03601
1.03557
1.0351
1.03479
1.03468
1.03471
1.0348
1.03486
1.03485
1.03469
1.03426
1.03357
1.03434
1.03446
1.0348
1.0353
1.03571
1.03578
1.03547
1.03499
1.0346
1.03444
1.03455
1.03477
1.03499
1.03512
1.03509
1.03485
1.03429
1.0335
1.03397
1.03421
1.03457
1.03496
1.03509
1.03479
1.0342
1.03365
1.03339
1.03358
1.03413
1.0348
1.03536
1.03569
1.0357
1.03532
1.03458
1.03361
1.03348
1.03392
1.03429
1.03431
1.03378
1.03278
1.03178
1.03117
1.03122
1.03203
1.03336
1.03476
1.03591
1.0366
1.03669
1.03612
1.03517
1.03404
1.03292
1.03359
1.03378
1.03298
1.03131
1.02944
1.02804
1.02747
1.02811
1.02986
1.03221
1.03459
1.03652
1.03763
1.03775
1.03705
1.03597
1.03487
1.03224
1.03314
1.03278
1.03054
1.0275
1.02483
1.02313
1.02292
1.02442
1.02724
1.03075
1.0342
1.03689
1.03834
1.03854
1.03792
1.03695
1.03596
1.03143
1.03237
1.03088
1.02687
1.02285
1.01963
1.0179
1.01833
1.02063
1.02446
1.02904
1.03341
1.03666
1.0384
1.03888
1.03857
1.0378
1.03666
1.03057
1.03109
1.02787
1.02279
1.01802
1.01453
1.01339
1.01445
1.01737
1.02191
1.02719
1.03205
1.03562
1.03772
1.03862
1.03859
1.03766
1.03556
1.02987
1.02935
1.02447
1.01854
1.01357
1.01072
1.01014
1.01158
1.0149
1.01976
1.02522
1.03016
1.03388
1.03628
1.03743
1.03722
1.03528
1.03112
1.01109
0.997358
0.981309
0.963709
0.945356
0.926721
0.908733
0.891814
0.875598
0.860351
0.846518
0.834379
0.823937
0.815331
0.808851
0.804321
0.801193
0.799257
0.798913
0.799614
0.795808
0.782618
0.992615
0.975639
0.957031
0.937483
0.918164
0.899207
0.880578
0.863013
0.846917
0.832765
0.821059
0.811927
0.805188
0.800696
0.798161
0.797073
0.796916
0.797277
0.797902
0.798123
0.796554
0.79228
0.970937
0.951804
0.931811
0.911509
0.891447
0.871972
0.853847
0.837655
0.823926
0.813129
0.805334
0.800213
0.79724
0.795862
0.795532
0.795666
0.795909
0.79629
0.796818
0.797177
0.797039
0.796428
0.947473
0.927504
0.907145
0.886331
0.866609
0.848471
0.832644
0.819631
0.809674
0.802727
0.798373
0.795993
0.794951
0.79465
0.794683
0.794932
0.795363
0.795979
0.796734
0.797538
0.798148
0.798461
0.92464
0.903932
0.883573
0.864247
0.846664
0.831456
0.819067
0.809625
0.80295
0.79864
0.79614
0.794856
0.794301
0.794214
0.794446
0.794889
0.795521
0.796328
0.797278
0.798358
0.799316
0.799871
0.902795
0.882842
0.864255
0.847619
0.833287
0.821536
0.812368
0.805571
0.800813
0.797711
0.795823
0.794789
0.794354
0.794351
0.794678
0.795213
0.795911
0.796744
0.797781
0.799034
0.800145
0.80073
0.883676
0.86604
0.850509
0.837252
0.826261
0.817381
0.810375
0.804999
0.801023
0.798198
0.796353
0.795312
0.794793
0.794685
0.794912
0.795385
0.796029
0.796863
0.797948
0.799274
0.800429
0.801006
0.868641
0.854352
0.84238
0.832393
0.824041
0.817011
0.81112
0.806233
0.802297
0.799335
0.797281
0.795953
0.795136
0.794769
0.794791
0.795137
0.795715
0.796525
0.797623
0.798959
0.800119
0.800723
0.85826
0.847638
0.838936
0.831496
0.824855
0.818784
0.81321
0.808221
0.803961
0.800554
0.798029
0.796228
0.79501
0.794378
0.794242
0.794439
0.79494
0.795729
0.796829
0.798148
0.799294
0.799956
0.852226
0.844894
0.838725
0.832982
0.827274
0.821483
0.815731
0.810238
0.805335
0.801263
0.798099
0.795916
0.794501
0.793664
0.793323
0.793404
0.793853
0.794632
0.795729
0.797018
0.798147
0.798829
0.849502
0.84474
0.840328
0.835587
0.830264
0.824333
0.81804
0.811596
0.806023
0.801438
0.797726
0.795201
0.793622
0.792705
0.792291
0.792309
0.792719
0.793478
0.794554
0.795801
0.796904
0.797507
0.848828
0.845914
0.842654
0.838482
0.833218
0.826775
0.819742
0.812614
0.806086
0.800822
0.796985
0.794438
0.792844
0.791911
0.791461
0.791429
0.791785
0.792501
0.793524
0.794689
0.795735
0.796244
0.849103
0.84749
0.845028
0.841174
0.835698
0.828672
0.820693
0.81278
0.805771
0.800289
0.79641
0.793886
0.792335
0.791426
0.790968
0.790902
0.791202
0.791858
0.792805
0.793874
0.794822
0.79524
0.84952
0.848855
0.846953
0.843173
0.837218
0.829501
0.820941
0.812636
0.805453
0.799907
0.796051
0.79359
0.792107
0.791249
0.790819
0.790751
0.791013
0.791604
0.792461
0.793427
0.794198
0.794496
0.849478
0.849407
0.847688
0.843633
0.837244
0.829222
0.820551
0.812239
0.8051
0.799613
0.795827
0.79345
0.792057
0.791291
0.790938
0.790915
0.791177
0.791714
0.792465
0.793278
0.79384
0.793995
0.84832
0.84825
0.846181
0.841734
0.835278
0.827514
0.819258
0.811357
0.804545
0.799283
0.795648
0.793393
0.792129
0.791502
0.791283
0.791354
0.791647
0.792131
0.792748
0.793359
0.793718
0.793727
0.845145
0.844414
0.841702
0.837109
0.831033
0.823992
0.8166
0.809536
0.803418
0.798655
0.79535
0.793327
0.792257
0.791819
0.791777
0.791976
0.792314
0.792734
0.79318
0.793558
0.793711
0.793621
0.839212
0.837527
0.83423
0.829717
0.824254
0.818202
0.812011
0.806173
0.801152
0.797277
0.794627
0.793065
0.792333
0.79216
0.792329
0.792666
0.79304
0.793372
0.793617
0.793745
0.793724
0.793597
0.830484
0.827826
0.824127
0.819771
0.814959
0.80998
0.805144
0.800749
0.797132
0.794545
0.792973
0.792244
0.792122
0.792372
0.792816
0.793299
0.793688
0.793918
0.793964
0.793878
0.793738
0.793606
0.81951
0.816024
0.812063
0.807874
0.803641
0.79965
0.796093
0.793153
0.791075
0.789981
0.78982
0.790327
0.791208
0.792183
0.793067
0.793751
0.79416
0.794287
0.794181
0.793947
0.793744
0.793625
0.807122
0.803015
0.798881
0.79488
0.791164
0.787897
0.785276
0.783717
0.783197
0.783516
0.784791
0.786785
0.789055
0.791165
0.792823
0.793892
0.794391
0.794445
0.794246
0.793938
0.793718
0.793626
0.794149
0.789629
0.785401
0.78159
0.778304
0.775691
0.773891
0.773105
0.773535
0.775219
0.777885
0.781342
0.785226
0.788838
0.791701
0.793531
0.794334
0.794408
0.794155
0.793841
0.793619
0.793551
0.781283
0.776542
0.772315
0.768702
0.765747
0.76359
0.762376
0.762241
0.76332
0.765784
0.769526
0.774171
0.779512
0.78485
0.789291
0.792369
0.793886
0.794194
0.793948
0.79364
0.793411
0.793358
0.769012
0.764205
0.760057
0.75664
0.753965
0.752145
0.75131
0.751568
0.753022
0.755942
0.760629
0.766037
0.772103
0.779025
0.785303
0.79006
0.792833
0.793763
0.793668
0.793343
0.793096
0.793044
0.757571
0.75279
0.748752
0.745509
0.743073
0.74152
0.740966
0.741514
0.743251
0.746326
0.751034
0.757404
0.764193
0.771629
0.779683
0.786372
0.790892
0.792983
0.793321
0.793004
0.792719
0.792609
0.747042
0.742329
0.73841
0.735324
0.733087
0.731744
0.731398
0.732141
0.734075
0.737312
0.741971
0.748159
0.755717
0.763995
0.772808
0.781302
0.787821
0.791586
0.792788
0.792632
0.792277
0.792052
0.737428
0.7328
0.728997
0.726048
0.723979
0.72281
0.722631
0.723518
0.725563
0.728872
0.733543
0.739621
0.747097
0.755839
0.765439
0.775135
0.783541
0.789294
0.791852
0.792134
0.791685
0.791345
0.728698
0.724156
0.720456
0.717626
0.715699
0.714672
0.714633
0.71564
0.717768
0.721101
0.725726
0.731712
0.739089
0.747834
0.757761
0.768278
0.778207
0.785982
0.790332
0.791427
0.790959
0.790476
0.72081
0.716347
0.712739
0.71001
0.7082
0.707293
0.70737
0.708478
0.710677
0.71403
0.718606
0.724476
0.731704
0.740326
0.750277
0.76119
0.772159
0.781713
0.788118
0.790432
0.790147
0.789449
0.713729
0.709338
0.705809
0.703166
0.701452
0.700647
0.700821
0.702014
0.704273
0.707645
0.712186
0.717954
0.725019
0.733448
0.743256
0.754253
0.765784
0.776647
0.785082
0.789015
0.789189
0.788244
0.70743
0.703101
0.699642
0.697072
0.695436
0.694718
0.694973
0.696238
0.698548
0.701941
0.706457
0.712142
0.719059
0.727281
0.736863
0.747749
0.759476
0.771064
0.781077
0.787031
0.787936
0.78681
0.701894
0.697622
0.694223
0.691717
0.690145
0.6895
0.689821
0.691146
0.693502
0.696915
0.701415
0.707037
0.713829
0.721855
0.731188
0.741864
0.753619
0.7655
0.776465
0.784444
0.786268
0.785126
0.697113
0.69289
0.689544
0.687093
0.685575
0.684991
0.685366
0.686741
0.689135
0.692569
0.697061
0.702636
0.709328
0.717187
0.726287
0.736707
0.748329
0.760286
0.771847
0.781373
0.78426
0.783304
0.693079
0.688902
0.685603
0.683199
0.681727
0.681193
0.681611
0.683027
0.685454
0.688907
0.693398
0.69894
0.705556
0.713284
0.722184
0.732334
0.743694
0.755701
0.767482
0.777864
0.78211
0.781595
0.689793
0.685656
0.682398
0.680034
0.678599
0.678107
0.678561
0.680011
0.682466
0.685937
0.690432
0.695956
0.70252
0.710149
0.718887
0.728788
0.739891
0.751975
0.76369
0.774343
0.780126
0.7803
0.687254
0.683152
0.679928
0.677598
0.676194
0.675737
0.676218
0.677696
0.680175
0.683665
0.688169
0.693688
0.700224
0.70779
0.716412
0.726129
0.737015
0.748983
0.760746
0.771496
0.778634
0.779587
0.685465
0.68139
0.678194
0.675892
0.674512
0.674082
0.674585
0.676086
0.678587
0.682096
0.686616
0.692142
0.698674
0.706212
0.714769
0.72438
0.735109
0.746863
0.758725
0.769617
0.777771
0.779504
0.68443
0.680376
0.6772
0.674917
0.673555
0.673147
0.673665
0.675184
0.677705
0.681235
0.685776
0.691324
0.697873
0.705418
0.713963
0.723531
0.734166
0.745839
0.757921
0.768867
0.777616
0.780112
0.684147
0.680106
0.676941
0.67467
0.673321
0.67293
0.673461
0.674996
0.677535
0.681087
0.685656
0.691239
0.697828
0.705414
0.713997
0.723586
0.734211
0.745934
0.758405
0.769344
0.778313
0.781511
0.68464
0.680597
0.677429
0.675156
0.673803
0.673414
0.673952
0.675501
0.678062
0.681643
0.686252
0.691887
0.698541
0.706205
0.714873
0.724545
0.735255
0.747112
0.759815
0.771059
0.780101
0.783822
0.68592
0.68186
0.678676
0.676386
0.675019
0.674618
0.675155
0.67671
0.679289
0.682901
0.687555
0.693255
0.699995
0.707769
0.716572
0.726403
0.7373
0.749339
0.762099
0.774011
0.783171
0.787087
0.688
0.683906
0.680687
0.678364
0.676968
0.676541
0.677065
0.678619
0.681214
0.684859
0.689567
0.695344
0.702191
0.710104
0.719084
0.729133
0.740303
0.752636
0.765686
0.778172
0.78748
0.791497
0.690899
0.686749
0.683473
0.681096
0.679651
0.679183
0.679682
0.681227
0.683833
0.687512
0.69228
0.698147
0.705118
0.713198
0.722393
0.732718
0.744244
0.757028
0.770666
0.78358
0.793172
0.797151
0.694641
0.690411
0.687051
0.684594
0.683077
0.682548
0.683005
0.684529
0.687142
0.690855
0.695686
0.701651
0.708761
0.717029
0.726474
0.737128
0.749098
0.762469
0.776777
0.790163
0.800058
0.804094
0.69925
0.694912
0.691438
0.68887
0.687252
0.686639
0.687035
0.688526
0.691136
0.694879
0.699774
0.705842
0.713101
0.721574
0.731294
0.742326
0.75483
0.768914
0.783929
0.797742
0.807974
0.812
0.704746
0.700274
0.696651
0.693935
0.692183
0.691457
0.69177
0.693212
0.69581
0.699576
0.704534
0.710706
0.718118
0.726803
0.736816
0.74826
0.761371
0.776258
0.791986
0.806211
0.816537
0.820495
0.711146
0.706513
0.702703
0.699797
0.697872
0.697002
0.697206
0.69858
0.701153
0.704936
0.709951
0.716225
0.723789
0.732688
0.743
0.754878
0.768626
0.784245
0.800629
0.815099
0.825219
0.828972
0.718456
0.713635
0.709595
0.706454
0.704313
0.703261
0.703328
0.704616
0.70715
0.71094
0.71601
0.722385
0.730097
0.739205
0.74981
0.762136
0.776549
0.792723
0.809377
0.823579
0.83317
0.836622
0.726678
0.721631
0.717313
0.713884
0.711479
0.710208
0.710109
0.711291
0.713776
0.717571
0.722696
0.729173
0.737033
0.746349
0.757236
0.770023
0.785047
0.801439
0.81767
0.830898
0.839481
0.842533
0.735818
0.730487
0.725825
0.722046
0.719326
0.717795
0.717505
0.718568
0.721001
0.724806
0.729996
0.736585
0.744604
0.754147
0.76535
0.778634
0.793688
0.809859
0.824851
0.836297
0.843415
0.84597
0.745909
0.740192
0.735089
0.730881
0.727788
0.725958
0.725461
0.726402
0.728793
0.732628
0.737905
0.74463
0.752838
0.762639
0.774246
0.788035
0.802534
0.817531
0.830305
0.839291
0.844646
0.846658
0.757028
0.750762
0.745071
0.740328
0.736798
0.734635
0.733924
0.734756
0.737131
0.741028
0.746436
0.75335
0.761813
0.771925
0.783853
0.797297
0.811309
0.824013
0.833691
0.839907
0.843555
0.845156
0.769318
0.76225
0.755753
0.750335
0.746297
0.743773
0.742852
0.743602
0.745999
0.750013
0.755624
0.762837
0.771682
0.782184
0.794204
0.806768
0.819195
0.828822
0.835099
0.838755
0.841097
0.842535
0.783006
0.774741
0.767126
0.760866
0.756248
0.75334
0.752221
0.752916
0.755383
0.7596
0.765555
0.773245
0.782612
0.79345
0.805137
0.816383
0.825681
0.831791
0.835078
0.836881
0.838438
0.839817
0.798406
0.788312
0.779153
0.771874
0.76662
0.763311
0.762002
0.762678
0.765287
0.769853
0.77638
0.78472
0.794574
0.805309
0.81574
0.824386
0.830205
0.833206
0.834462
0.835319
0.836421
0.837572
0.816048
0.803049
0.791754
0.783286
0.777341
0.773608
0.772143
0.772908
0.775842
0.78092
0.788184
0.797162
0.806974
0.816542
0.824458
0.829823
0.832589
0.833575
0.833903
0.834446
0.835324
0.836047
0.836388
0.818761
0.804729
0.794968
0.788239
0.784036
0.782551
0.783614
0.787138
0.792777
0.800573
0.809762
0.818313
0.825127
0.829736
0.832251
0.833241
0.833489
0.833668
0.834172
0.834931
0.835286
0.85937
0.834505
0.817362
0.80657
0.799231
0.794733
0.793394
0.794626
0.79818
0.804376
0.812392
0.82001
0.825622
0.829172
0.831299
0.832456
0.833022
0.833338
0.833699
0.834262
0.834831
0.835001
0.883052
0.847966
0.82836
0.817667
0.81063
0.805906
0.804411
0.805333
0.807994
0.812785
0.818373
0.823181
0.826694
0.828998
0.830623
0.831832
0.832651
0.833231
0.833816
0.834425
0.834863
0.834942
0.897245
0.854894
0.834716
0.823192
0.815913
0.812077
0.810843
0.810548
0.810912
0.812987
0.816735
0.821011
0.824749
0.827635
0.829778
0.831347
0.83244
0.833227
0.833913
0.834538
0.834928
0.834982
1.02948
1.02747
1.02131
1.01499
1.01058
1.00831
1.00812
1.00976
1.01318
1.01792
1.02311
1.02781
1.0315
1.03394
1.03479
1.03348
1.02933
1.02189
1.02924
1.02593
1.01913
1.01302
1.0092
1.00737
1.00736
1.00897
1.01215
1.01641
1.02099
1.02516
1.02843
1.03022
1.02976
1.02612
1.01862
1.00726
1.02919
1.02524
1.01822
1.01285
1.0095
1.00784
1.00773
1.00912
1.0118
1.01527
1.01895
1.02224
1.02442
1.0246
1.02169
1.01476
1.00354
0.988607
1.02997
1.0261
1.01925
1.01448
1.01128
1.00954
1.00916
1.01008
1.01199
1.01445
1.01697
1.01884
1.01913
1.01671
1.0105
0.999884
0.985039
0.967164
1.03237
1.02869
1.02234
1.01776
1.01443
1.0124
1.01158
1.01179
1.01269
1.0139
1.01485
1.01466
1.0122
1.00643
0.996552
0.98207
0.963875
0.945259
1.03693
1.0331
1.02736
1.0226
1.01899
1.0165
1.01502
1.01425
1.01384
1.01344
1.01227
1.00929
1.00343
0.993883
0.979967
0.962027
0.944181
0.923878
1.04373
1.03952
1.03411
1.02899
1.02498
1.02184
1.01941
1.01729
1.0152
1.01272
1.00881
1.00243
0.992673
0.978943
0.961515
0.943949
0.924939
0.903106
1.05241
1.04766
1.04236
1.03688
1.03224
1.0282
1.02447
1.02063
1.0164
1.01127
1.00407
0.993863
0.979983
0.962488
0.944347
0.925734
0.904205
0.8852
1.0627
1.05762
1.05197
1.04602
1.04052
1.0353
1.02998
1.02397
1.01708
1.0087
0.997782
0.98366
0.965691
0.945251
0.926598
0.905773
0.887106
0.871387
1.07441
1.06903
1.0627
1.05607
1.04956
1.043
1.03574
1.02709
1.01695
1.00477
0.989819
0.97137
0.949367
0.928413
0.908264
0.88954
0.874162
0.861752
1.08688
1.08114
1.07415
1.06675
1.05916
1.05099
1.04134
1.02955
1.01557
0.999071
0.979499
0.956521
0.934014
0.913156
0.892899
0.876917
0.864691
0.855772
1.09943
1.09359
1.08593
1.07769
1.06892
1.05874
1.04618
1.03075
1.01257
0.991567
0.967941
0.942745
0.919919
0.898003
0.879983
0.867024
0.858149
0.852488
1.11155
1.10593
1.0976
1.08839
1.07821
1.06558
1.0496
1.03021
1.00764
0.981775
0.953867
0.928777
0.90416
0.883983
0.869162
0.859482
0.853814
0.85082
1.12314
1.11756
1.10858
1.09824
1.08632
1.0708
1.05101
1.02733
1.00019
0.970045
0.939315
0.912633
0.889283
0.871986
0.860407
0.853839
0.850826
0.849829
1.13343
1.12782
1.11806
1.10655
1.0925
1.07371
1.04991
1.02187
0.990269
0.955693
0.925661
0.897957
0.876514
0.862002
0.853397
0.849421
0.848382
0.848798
1.14142
1.136
1.12535
1.11257
1.09609
1.07375
1.04591
1.01352
0.977734
0.941497
0.910692
0.884204
0.86537
0.853602
0.847552
0.845538
0.845852
0.847141
1.14696
1.14136
1.12985
1.11566
1.09652
1.07058
1.03897
1.00255
0.962454
0.927673
0.895942
0.871615
0.855527
0.84631
0.842296
0.841653
0.842653
0.844178
1.14962
1.14343
1.13109
1.11538
1.09353
1.06418
1.02899
0.989319
0.947902
0.912578
0.881924
0.860328
0.846808
0.839729
0.83718
0.837109
0.838111
0.839198
1.14869
1.14203
1.12884
1.11149
1.08702
1.05469
1.01614
0.973455
0.933524
0.897426
0.869117
0.850222
0.838951
0.833498
0.83164
0.831459
0.831854
0.831791
1.14405
1.13701
1.12298
1.10404
1.07715
1.04243
1.00164
0.956808
0.917708
0.882866
0.857498
0.841086
0.831661
0.82714
0.825308
0.824519
0.823756
0.822177
1.13584
1.12844
1.11364
1.09329
1.06443
1.02766
0.985316
0.941228
0.902149
0.869522
0.846937
0.832685
0.824627
0.82035
0.818056
0.816335
0.81406
0.810948
1.12451
1.11668
1.10122
1.0797
1.04944
1.01105
0.967485
0.9255
0.887115
0.857361
0.837257
0.824739
0.817489
0.813168
0.810125
0.80706
0.80326
0.798828
1.11063
1.10234
1.08632
1.06383
1.03278
0.993801
0.949324
0.90933
0.873067
0.846231
0.828289
0.817111
0.810214
0.805566
0.801554
0.797026
0.791915
0.786501
1.09462
1.08602
1.06958
1.04644
1.0149
0.976125
0.933161
0.894026
0.860222
0.836004
0.819871
0.809663
0.802894
0.79759
0.7924
0.786654
0.780549
0.774507
1.0769
1.06827
1.05162
1.02821
0.99631
0.957922
0.9181
0.879597
0.848537
0.826571
0.811894
0.80231
0.795405
0.789343
0.783061
0.776344
0.76956
0.763173
1.05816
1.04973
1.03305
1.00976
0.978079
0.940176
0.902171
0.866074
0.837848
0.817802
0.804272
0.795036
0.787814
0.780992
0.77382
0.76639
0.759194
0.752653
1.03918
1.03114
1.01456
0.991542
0.960727
0.923552
0.887364
0.853893
0.828061
0.809616
0.796963
0.787879
0.780263
0.77275
0.764885
0.756985
0.749579
0.742998
1.02061
1.01306
0.996655
0.973893
0.944255
0.908692
0.874339
0.843023
0.819135
0.80199
0.789972
0.780907
0.772889
0.764792
0.756425
0.748248
0.740764
0.734205
1.003
0.995921
0.979734
0.957286
0.928799
0.895693
0.86264
0.833254
0.811021
0.794912
0.783328
0.7742
0.765811
0.757257
0.748556
0.740243
0.732758
0.726249
0.986868
0.980043
0.964175
0.942188
0.914578
0.883556
0.851884
0.824472
0.803677
0.788381
0.77708
0.767847
0.759142
0.750253
0.741351
0.732994
0.72555
0.719103
0.972594
0.965793
0.950286
0.928876
0.902067
0.872398
0.842268
0.816692
0.797095
0.782412
0.771281
0.761932
0.752976
0.743859
0.734855
0.72651
0.719125
0.712742
0.96035
0.953503
0.938241
0.917407
0.891467
0.862814
0.834092
0.809963
0.791269
0.777024
0.765991
0.756532
0.747389
0.73813
0.729091
0.72079
0.713472
0.70715
0.950252
0.943243
0.928066
0.907729
0.882633
0.854915
0.827374
0.804274
0.786192
0.772254
0.761269
0.751712
0.74244
0.733106
0.724076
0.715834
0.708581
0.702317
0.942224
0.935105
0.919765
0.899791
0.875419
0.848542
0.821965
0.799579
0.781895
0.768154
0.757173
0.747529
0.738175
0.728816
0.719819
0.71164
0.704448
0.698236
0.936094
0.929025
0.913302
0.893557
0.869741
0.843583
0.817765
0.795858
0.778407
0.764769
0.753749
0.744028
0.734629
0.725278
0.71633
0.70821
0.701073
0.694908
0.931752
0.924541
0.908554
0.888979
0.865595
0.839987
0.814739
0.793119
0.77576
0.762139
0.751041
0.741247
0.73183
0.722511
0.713615
0.705548
0.698456
0.692332
0.928678
0.921562
0.905462
0.885952
0.862855
0.837685
0.812855
0.791375
0.773995
0.7603
0.749079
0.739208
0.729796
0.72053
0.711685
0.703658
0.696603
0.690512
0.926587
0.920054
0.903907
0.884349
0.861409
0.836617
0.812067
0.790618
0.773122
0.75928
0.747899
0.737934
0.728534
0.719336
0.710543
0.702547
0.695518
0.689453
0.925532
0.919814
0.90368
0.884056
0.861248
0.836742
0.812333
0.790839
0.773154
0.759095
0.747525
0.73745
0.728056
0.718933
0.710201
0.702228
0.695211
0.689157
0.925363
0.92052
0.904595
0.884957
0.862274
0.837997
0.813619
0.792033
0.774109
0.759756
0.747967
0.737768
0.72837
0.719326
0.710668
0.702723
0.695707
0.689652
0.925777
0.921873
0.906509
0.88695
0.86439
0.840315
0.815913
0.794194
0.775981
0.761273
0.749236
0.738895
0.729482
0.720518
0.711949
0.70404
0.697019
0.690949
0.926557
0.923669
0.909314
0.889957
0.867528
0.843635
0.819208
0.797313
0.778758
0.763658
0.751345
0.740841
0.731399
0.722515
0.714048
0.706188
0.699162
0.693063
0.927677
0.925888
0.912942
0.893925
0.871638
0.847878
0.823475
0.801371
0.782446
0.76694
0.75431
0.743618
0.734132
0.725323
0.71697
0.709177
0.702152
0.696014
0.929335
0.928681
0.917391
0.898819
0.876685
0.852859
0.8287
0.806366
0.787045
0.771128
0.758144
0.747237
0.737691
0.72895
0.720721
0.713018
0.706008
0.699828
0.931834
0.932206
0.922617
0.90456
0.882548
0.858591
0.83488
0.812291
0.792551
0.776213
0.762856
0.751716
0.742091
0.733406
0.725307
0.717717
0.710743
0.704523
0.9352
0.936367
0.928436
0.911032
0.889104
0.865444
0.84195
0.819083
0.798958
0.782202
0.768464
0.757075
0.747353
0.73871
0.730739
0.723279
0.716366
0.710117
0.939128
0.940862
0.934558
0.918079
0.896284
0.873353
0.84977
0.826668
0.806248
0.789104
0.774988
0.76334
0.753507
0.744888
0.737039
0.729719
0.722887
0.716622
0.943278
0.945393
0.940641
0.925449
0.903959
0.881595
0.858211
0.834968
0.814384
0.796913
0.782445
0.770543
0.760589
0.751982
0.74424
0.737059
0.730319
0.724046
0.947353
0.949688
0.946337
0.932842
0.91227
0.889959
0.867151
0.843957
0.823335
0.805616
0.790847
0.778717
0.768649
0.760045
0.752398
0.745344
0.73869
0.732402
0.951075
0.953432
0.951321
0.939916
0.921132
0.898732
0.876158
0.853668
0.833097
0.815189
0.800204
0.787897
0.777742
0.769152
0.761593
0.754649
0.748057
0.741723
0.95428
0.956446
0.955391
0.946337
0.929957
0.908099
0.88563
0.864042
0.843569
0.825588
0.810512
0.798112
0.787931
0.779395
0.771935
0.765087
0.758521
0.75208
0.956998
0.958777
0.958584
0.951877
0.937946
0.917424
0.895981
0.874874
0.85457
0.83675
0.82175
0.809372
0.799276
0.790886
0.783574
0.776825
0.770245
0.763605
0.95932
0.96056
0.961084
0.95651
0.944881
0.926043
0.90601
0.885957
0.865974
0.848583
0.833862
0.821663
0.811806
0.803736
0.796694
0.790094
0.783473
0.776516
0.961305
0.962055
0.963067
0.960382
0.951234
0.934963
0.915782
0.896553
0.877809
0.861059
0.846772
0.834976
0.825546
0.817999
0.811469
0.805187
0.798551
0.791141
0.96306
0.963595
0.964773
0.963562
0.956898
0.943762
0.925896
0.907293
0.890018
0.873996
0.860369
0.849273
0.840535
0.833739
0.828032
0.822418
0.815958
0.807984
0.964645
0.965121
0.966244
0.966009
0.9615
0.951085
0.935419
0.918398
0.902351
0.887083
0.874453
0.864399
0.856723
0.851067
0.846616
0.842187
0.836335
0.827846
0.966001
0.966418
0.967375
0.967735
0.965028
0.957119
0.94405
0.928823
0.91398
0.900257
0.888855
0.880087
0.873894
0.869953
0.867476
0.865098
0.860689
0.851967
0.967136
0.967422
0.968153
0.968872
0.967605
0.962104
0.951766
0.938514
0.924963
0.913242
0.903169
0.895942
0.891635
0.89003
0.890487
0.891579
0.890215
0.882148
0.968099
0.968228
0.968761
0.969598
0.969382
0.965994
0.958227
0.947204
0.935667
0.92592
0.916868
0.911385
0.909256
0.910468
0.9148
0.921257
0.926082
0.921825
0.968906
0.968973
0.969359
0.970135
0.970596
0.96884
0.963364
0.954762
0.94508
0.936692
0.929844
0.9259
0.925813
0.929884
0.93849
0.951857
0.96894
0.970974
0.969511
0.969585
0.969879
0.97051
0.97126
0.970626
0.967066
0.960603
0.952366
0.945429
0.940834
0.937345
0.938666
0.944614
0.956033
0.973789
1.00528
1.03334
0.969968
0.970048
0.970302
0.970792
0.97159
0.971665
0.969614
0.964972
0.958256
0.952649
0.949079
0.945802
0.947982
0.95465
0.966644
0.983896
1.01335
1.04018
0.970383
0.970445
0.970667
0.971079
0.971817
0.972285
0.971326
0.96824
0.963112
0.958324
0.955449
0.95327
0.955433
0.961797
0.972328
0.985513
1.00474
1.0193
0.967187
0.977846
0.981906
0.98345
0.984334
0.98489
0.985295
0.985581
0.985761
0.985851
0.98587
0.985837
0.985772
0.985687
0.985597
0.985512
0.985438
0.985382
0.985344
0.985324
0.98532
0.985326
0.978034
0.981377
0.982921
0.983737
0.984363
0.98487
0.985255
0.985534
0.985714
0.985806
0.985829
0.9858
0.985738
0.98566
0.985579
0.985501
0.985436
0.985386
0.98535
0.98533
0.985326
0.985332
0.984507
0.983834
0.984019
0.984217
0.984511
0.984884
0.985218
0.985483
0.985663
0.985759
0.985785
0.98576
0.985703
0.985629
0.985552
0.985481
0.985424
0.985379
0.985347
0.985328
0.985325
0.98533
0.984788
0.984363
0.984638
0.984678
0.984716
0.984933
0.985201
0.985441
0.985618
0.985717
0.985746
0.985725
0.98567
0.985599
0.985524
0.985456
0.9854
0.985357
0.985329
0.985312
0.985309
0.985316
0.984276
0.984628
0.985032
0.985022
0.984939
0.985003
0.985193
0.985405
0.985575
0.985677
0.98571
0.985689
0.985636
0.985567
0.985493
0.985426
0.98537
0.985329
0.985302
0.985285
0.985282
0.985288
0.984712
0.985204
0.985464
0.985315
0.985175
0.985123
0.985219
0.985393
0.985557
0.985652
0.985685
0.985662
0.985608
0.985537
0.985464
0.985396
0.985339
0.985296
0.985268
0.985249
0.985244
0.985249
0.985195
0.985649
0.985829
0.985625
0.98541
0.985299
0.985311
0.985439
0.985586
0.985669
0.985683
0.985652
0.98559
0.985514
0.985438
0.985369
0.98531
0.985264
0.985229
0.985208
0.985199
0.985199
0.985288
0.985808
0.986055
0.985931
0.985677
0.98552
0.985476
0.985551
0.985668
0.985735
0.985722
0.985663
0.985584
0.985498
0.985416
0.985345
0.985284
0.985233
0.985191
0.985162
0.985142
0.985139
0.985195
0.985844
0.986196
0.986205
0.985982
0.985781
0.985698
0.985718
0.985799
0.985844
0.985803
0.985702
0.985587
0.98548
0.98539
0.985318
0.985257
0.985202
0.985152
0.985109
0.985075
0.985066
0.985112
0.985858
0.986297
0.986426
0.986289
0.986079
0.985955
0.98593
0.985964
0.985979
0.985904
0.985755
0.985585
0.985444
0.985342
0.985273
0.985219
0.985167
0.98511
0.985052
0.985001
0.984973
0.984981
0.985827
0.986344
0.986578
0.986551
0.986376
0.98622
0.986153
0.986137
0.986111
0.985994
0.985782
0.985545
0.985355
0.985237
0.985179
0.985149
0.985115
0.985059
0.984985
0.984914
0.984855
0.984839
0.985753
0.986327
0.986647
0.986726
0.986616
0.98645
0.986336
0.986271
0.986189
0.98602
0.985738
0.985413
0.985154
0.985016
0.984982
0.985003
0.985019
0.984986
0.984904
0.984806
0.984711
0.984628
0.985598
0.986236
0.986624
0.986789
0.986748
0.98659
0.986427
0.9863
0.986154
0.985919
0.985553
0.985123
0.984768
0.984601
0.98461
0.984714
0.984832
0.984867
0.984798
0.984668
0.984532
0.984422
0.985435
0.986102
0.986515
0.98673
0.986739
0.986591
0.98638
0.986173
0.985953