/*--------------------------------*- C++ -*----------------------------------*\
| =========                 |                                                 |
| \\      /  F ield         | OpenFOAM: The Open Source CFD Toolbox           |
|  \\    /   O peration     | Version:  v2012                                 |
|   \\  /    A nd           | Website:  www.openfoam.com                      |
|    \\/     M anipulation  |                                                 |
\*---------------------------------------------------------------------------*/
FoamFile
{
    version     2.0;
    format      ascii;
    class       surfaceScalarField;
    location    "562";
    object      phi;
}
// * * * * * * * * * * * * * * * * * * * * * * * * * * * * * * * * * * * * * //

dimensions      [0 3 -1 0 0 0 0];
oriented        oriented;


internalField   nonuniform List<scalar> 
11863
(
-7.06616e-05
8.06097e-06
6.26007e-05
-7.82691e-05
7.60748e-06
-8.54718e-05
7.20265e-06
-9.23092e-05
6.83742e-06
-9.88858e-05
6.57662e-06
-0.000105364
6.47846e-06
-0.000111886
6.52161e-06
-0.000118562
6.67591e-06
-0.000125415
6.85281e-06
-0.000132368
6.95343e-06
-0.000139338
6.96989e-06
-0.000146319
6.9809e-06
-0.000153323
7.00414e-06
-0.000160365
7.042e-06
-0.000167438
7.07289e-06
-0.000174493
7.0547e-06
-0.000181439
6.94631e-06
-0.00018834
6.90112e-06
-0.000195226
6.88602e-06
4.77402e-06
-0.000182302
1.54958e-05
0.000174867
-0.000188403
1.37079e-05
-0.000193308
1.21082e-05
-0.000197212
1.07411e-05
-0.000200285
9.64935e-06
-0.00020266
8.85426e-06
-0.000204422
8.28344e-06
-0.000205617
7.87104e-06
-0.000206308
7.54308e-06
-0.000206645
7.29074e-06
-0.000206801
7.12639e-06
-0.000206836
7.01558e-06
-0.000206736
6.9039e-06
-0.00020649
6.79641e-06
-0.000206113
6.69544e-06
-0.000205609
6.55078e-06
-0.000204944
6.28152e-06
-0.000203929
5.88561e-06
-0.000202357
5.31464e-06
2.4168e-06
-0.000221662
1.75173e-05
0.00021964
-0.000222806
1.48527e-05
-0.00022332
1.26213e-05
-0.000223383
1.0805e-05
-0.00022309
9.35608e-06
-0.000222476
8.24053e-06
-0.000221587
7.394e-06
-0.000220465
6.74915e-06
-0.000219168
6.24619e-06
-0.00021772
5.84219e-06
-0.000216101
5.50725e-06
-0.000214351
5.2665e-06
-0.000212579
5.13107e-06
-0.000210792
5.00963e-06
-0.000208955
4.85888e-06
-0.000207066
4.66172e-06
-0.000205151
4.36643e-06
-0.000203242
3.97619e-06
-0.000201173
3.24545e-06
1.24426e-06
-0.00023101
1.76784e-05
0.000230849
-0.000230717
1.45602e-05
-0.000230058
1.19617e-05
-0.000229099
9.84617e-06
-0.000227899
8.15614e-06
-0.000226487
6.82899e-06
-0.000224893
5.79909e-06
-0.000223144
5.00053e-06
-0.000221271
4.37315e-06
-0.000219302
3.87311e-06
-0.000217271
3.47605e-06
-0.000215189
3.18477e-06
-0.000213039
2.98159e-06
-0.000210844
2.81415e-06
-0.000208641
2.65578e-06
-0.00020646
2.48085e-06
-0.00020436
2.26681e-06
-0.000202391
2.00727e-06
-0.000200681
1.53512e-06
5.63214e-07
-0.000234489
1.7242e-05
0.000234926
-0.000233649
1.37199e-05
-0.000232498
1.08109e-05
-0.000231107
8.455e-06
-0.000229525
6.57436e-06
-0.000227784
5.08781e-06
-0.000225907
3.92152e-06
-0.000223913
3.00737e-06
-0.000221826
2.28618e-06
-0.000219668
1.71502e-06
-0.000217458
1.26613e-06
-0.0002152
9.25963e-07
-0.000212895
6.76893e-07
-0.000210571
4.89929e-07
-0.000208264
3.48529e-07
-0.000206026
2.43299e-07
-0.000203924
1.64559e-07
-0.000202021
1.04974e-07
-0.000200544
5.80907e-08
1.88417e-08
-0.000236476
1.64841e-05
0.000237234
-0.000235287
1.25317e-05
-0.000233816
9.33937e-06
-0.000232151
6.78972e-06
-0.000230343
4.76691e-06
-0.00022842
3.16465e-06
-0.000226399
1.9e-06
-0.000224295
9.04189e-07
-0.000222124
1.14583e-07
-0.000219899
-5.10039e-07
-0.000217632
-1.00035e-06
-0.000215324
-1.3824e-06
-0.000212983
-1.66437e-06
-0.000210633
-1.86011e-06
-0.000208305
-1.97902e-06
-0.000206052
-2.00962e-06
-0.000203938
-1.9491e-06
-0.000202028
-1.80517e-06
-0.000200546
-1.42385e-06
-5.2749e-07
-0.000237527
1.53648e-05
0.000238646
-0.000236003
1.1008e-05
-0.000234256
7.59247e-06
-0.000232394
4.92749e-06
-0.00023046
2.83358e-06
-0.000228467
1.17082e-06
-0.000226414
-1.52061e-07
-0.000224315
-1.19558e-06
-0.000222171
-2.02862e-06
-0.000219991
-2.69038e-06
-0.000217789
-3.20283e-06
-0.000215556
-3.61535e-06
-0.000213294
-3.92626e-06
-0.000211024
-4.13044e-06
-0.000208761
-4.24132e-06
-0.000206536
-4.23524e-06
-0.000204402
-4.0822e-06
-0.000202411
-3.79656e-06
-0.000200687
-3.14786e-06
-1.21457e-06
-0.00023568
1.39742e-05
0.00023707
-0.000233789
9.11728e-06
-0.000231818
5.62095e-06
-0.000229902
3.0115e-06
-0.000228064
9.95753e-07
-0.00022627
-6.22889e-07
-0.000224483
-1.93942e-06
-0.000222652
-3.02582e-06
-0.000220773
-3.90774e-06
-0.000218854
-4.60967e-06
-0.000216896
-5.16124e-06
-0.000214941
-5.56944e-06
-0.000213015
-5.85246e-06
-0.000211091
-6.0542e-06
-0.000209153
-6.17989e-06
-0.000207188
-6.20012e-06
-0.000205216
-6.05422e-06
-0.000203271
-5.742e-06
-0.000201182
-5.23656e-06
-2.39646e-06
-0.000219595
1.09679e-05
0.000222601
-0.000216482
6.00397e-06
-0.000214197
3.33615e-06
-0.000212584
1.39863e-06
-0.000211484
-1.04689e-07
-0.000210706
-1.40045e-06
-0.000210117
-2.52868e-06
-0.000209604
-3.53892e-06
-0.000209136
-4.37513e-06
-0.000208714
-5.03165e-06
-0.000208316
-5.55907e-06
-0.000207912
-5.97363e-06
-0.000207471
-6.29375e-06
-0.000206979
-6.54628e-06
-0.000206425
-6.73392e-06
-0.000205795
-6.83026e-06
-0.00020504
-6.80883e-06
-0.000203963
-6.81951e-06
-0.000202362
-6.83728e-06
-4.75839e-06
-0.000130598
0.000141566
-0.000124594
-0.000121258
-0.00011986
-0.000119964
-0.000121365
-0.000123893
-0.000127432
-0.000131807
-0.000136839
-0.000142398
-0.000148372
-0.000154666
-0.000161212
-0.000167946
-0.000174776
-0.000181585
-0.000188404
-0.000195242
6.96185e-06
-6.01558e-07
-6.3603e-06
7.29043e-06
-3.28582e-07
7.34307e-06
-5.26354e-08
7.35869e-06
-1.56268e-08
7.5543e-06
-1.95608e-07
7.81668e-06
-2.62371e-07
7.92333e-06
-1.06652e-07
7.85215e-06
7.11783e-08
7.42079e-06
4.31365e-07
6.38343e-06
1.03736e-06
4.65232e-06
1.73111e-06
2.29627e-06
2.35605e-06
-7.73116e-07
3.06939e-06
-4.68926e-06
3.91615e-06
-9.53741e-06
4.84815e-06
-1.53726e-05
5.83518e-06
-2.21028e-05
6.73022e-06
-2.95575e-05
7.45473e-06
-3.75544e-05
7.99689e-06
-4.58805e-05
8.32608e-06
-5.43082e-05
8.42773e-06
8.29243e-06
1.41908e-05
-1.20719e-06
-1.35851e-05
1.423e-05
-3.6787e-07
1.37975e-05
3.79877e-07
1.30725e-05
7.09366e-07
1.19532e-05
9.23744e-07
1.00526e-05
1.63824e-06
7.19046e-06
2.75547e-06
3.21836e-06
4.04328e-06
-2.29154e-06
5.94128e-06
-1.00597e-05
8.80548e-06
-2.05416e-05
1.22131e-05
-3.36305e-05
1.54449e-05
-4.87349e-05
1.81738e-05
-6.51383e-05
2.03195e-05
-8.20923e-05
2.18022e-05
-9.88982e-05
2.2641e-05
-0.000115014
2.28465e-05
-0.000130035
2.24748e-05
-0.000143673
2.16354e-05
-0.000155738
2.03912e-05
-0.00016612
1.88101e-05
1.70394e-05
1.54656e-05
-5.98445e-07
-1.60744e-05
1.40171e-05
1.08064e-06
1.17499e-05
2.64712e-06
8.5606e-06
3.89863e-06
3.94234e-06
5.54201e-06
-2.82335e-06
8.40392e-06
-1.24801e-05
1.24122e-05
-2.56834e-05
1.72466e-05
-4.23493e-05
2.26072e-05
-6.15186e-05
2.79748e-05
-8.20263e-05
3.27208e-05
-0.000102894
3.63129e-05
-0.000123241
3.85208e-05
-0.000142285
3.93629e-05
-0.000159477
3.89951e-05
-0.000174479
3.76426e-05
-0.000187173
3.55407e-05
-0.00019758
3.28814e-05
-0.000205795
2.98504e-05
-0.000212018
2.66139e-05
-0.000216532
2.33241e-05
2.01479e-05
1.02389e-05
2.48925e-06
-1.33266e-05
5.91833e-06
5.40123e-06
3.70267e-08
8.52841e-06
-8.41073e-06
1.23464e-05
-2.04649e-05
1.75961e-05
-3.63788e-05
2.43178e-05
-5.58012e-05
3.18346e-05
-7.7815e-05
3.92604e-05
-0.000100999
4.57915e-05
-0.000123859
5.08349e-05
-0.000145177
5.40381e-05
-0.000164165
5.53011e-05
-0.000180417
5.47727e-05
-0.000193831
5.27773e-05
-0.000204543
4.97072e-05
-0.000212827
4.59261e-05
-0.000219014
4.1728e-05
-0.000223483
3.735e-05
-0.000226621
3.29888e-05
-0.000228765
2.87574e-05
-0.000230134
2.46936e-05
2.08625e-05
-2.18555e-06
9.25924e-06
-4.58445e-06
-1.12692e-05
1.44849e-05
-2.36788e-05
2.0938e-05
-4.02055e-05
2.88731e-05
-6.06447e-05
3.80353e-05
-8.38409e-05
4.75141e-05
-0.000108182
5.61758e-05
-0.000132
6.30781e-05
-0.00015388
6.76721e-05
-0.000172874
6.98289e-05
-0.000188557
6.97203e-05
-0.000200963
6.77079e-05
-0.00021045
6.42595e-05
-0.000217533
5.98605e-05
-0.000222755
5.49285e-05
-0.000226595
4.97666e-05
-0.000229442
4.45743e-05
-0.000231581
3.94898e-05
-0.000233176
3.45836e-05
-0.000234276
2.98569e-05
-0.000234864
2.5282e-05
2.09242e-05
-2.28199e-05
2.14392e-05
1.064e-05
-3.86885e-05
3.03535e-05
-5.85337e-05
4.07833e-05
-8.16751e-05
5.20144e-05
-0.00010651
6.28702e-05
-0.00013111
7.21141e-05
-0.000153772
7.88378e-05
-0.000173337
8.26429e-05
-0.000189283
8.36186e-05
-0.000201649
8.21941e-05
-0.000210871
7.89427e-05
-0.000217597
7.44339e-05
-0.000222502
6.91646e-05
-0.00022617
6.35284e-05
-0.000229032
5.77905e-05
-0.000231364
5.2099e-05
-0.000233307
4.65175e-05
-0.000234901
4.10835e-05
-0.000236142
3.58244e-05
-0.000237012
3.07267e-05
-0.000237414
2.5684e-05
2.07439e-05
-5.1667e-05
3.99116e-05
3.31946e-05
-7.37252e-05
5.24116e-05
-9.82378e-05
6.52959e-05
-0.000123354
7.71301e-05
-0.00014709
8.66066e-05
-0.000167899
9.2923e-05
-0.00018495
9.58893e-05
-0.000198138
9.58305e-05
-0.000207889
9.33702e-05
-0.000214912
8.92164e-05
-0.000219975
8.40062e-05
-0.000223752
7.82111e-05
-0.000226734
7.21458e-05
-0.000229234
6.60288e-05
-0.000231423
5.99796e-05
-0.000233382
5.40575e-05
-0.000235115
4.82509e-05
-0.00023657
4.25384e-05
-0.000237701
3.6956e-05
-0.000238513
3.15384e-05
-0.000238957
2.61274e-05
2.04332e-05
-8.52732e-05
6.32662e-05
6.19186e-05
-0.0001103
7.74381e-05
-0.000134998
8.99939e-05
-0.000157448
9.95805e-05
-0.000176342
0.0001055
-0.000191184
0.000107765
-0.000202204
0.00010691
-0.000210098
0.000103724
-0.000215718
9.89898e-05
-0.000219831
9.33298e-05
-0.000223026
8.72012e-05
-0.000225693
8.08781e-05
-0.000228011
7.44639e-05
-0.000230047
6.8065e-05
-0.000231814
6.17466e-05
-0.00023327
5.55133e-05
-0.000234483
4.94635e-05
-0.000235537
4.35927e-05
-0.000236364
3.77827e-05
-0.000236931
3.21056e-05
-0.000237326
2.65224e-05
2.01777e-05
-0.000118356
8.82969e-05
9.33257e-05
-0.000142359
0.000101441
-0.000163511
0.000111146
-0.000180727
0.000116797
-0.000193802
0.000118575
-0.000203225
0.000117188
-0.000209838
0.000113523
-0.000214535
0.000108421
-0.000218045
0.000102499
-0.000220802
9.60865e-05
-0.000223004
8.94037e-05
-0.000224725
8.25988e-05
-0.000226083
7.58223e-05
-0.000227094
6.90755e-05
-0.00022766
6.23134e-05
-0.000227809
5.56622e-05
-0.00022757
4.92239e-05
-0.000226963
4.29857e-05
-0.000226028
3.68479e-05
-0.000224756
3.08334e-05
-0.000223579
2.53456e-05
1.92e-05
-0.000146373
0.000123109
0.000111561
-0.000166389
0.000121457
-0.000182259
0.000127015
-0.000193989
0.000128527
-0.000202238
0.000126824
-0.000207949
0.000122899
-0.000211956
0.000117531
-0.000214827
0.000111292
-0.000216869
0.000104542
-0.000218255
9.74728e-05
-0.000218925
9.00739e-05
-0.000218653
8.23267e-05
-0.000217144
7.4313e-05
-0.00021406
6.5991e-05
-0.000209214
5.74682e-05
-0.00020258
4.90278e-05
-0.000194255
4.08985e-05
-0.000184484
3.32155e-05
-0.000173706
2.60699e-05
-0.000162068
1.91952e-05
-0.000149495
1.2773e-05
1.12708e-05
-5.9037e-07
5.90369e-07
-1.18346e-06
5.93092e-07
-1.12355e-06
-5.99199e-08
-1.69447e-07
-9.54101e-07
1.50984e-06
-1.67929e-06
3.36909e-06
-1.85925e-06
4.82072e-06
-1.45164e-06
5.53758e-06
-7.16863e-07
5.49683e-06
4.07483e-08
4.91629e-06
5.80543e-07
4.13728e-06
7.79003e-07
3.4689e-06
6.68372e-07
3.10842e-06
3.60483e-07
3.15254e-06
-4.41313e-08
3.62433e-06
-4.71795e-07
4.49382e-06
-8.69491e-07
5.49213e-06
-9.98319e-07
-8.6817e-07
-8.64281e-07
1.45465e-06
-1.33777e-06
1.06657e-06
-3.32882e-07
-1.06481e-06
2.2479e-06
-3.53488e-06
5.77584e-06
-5.20724e-06
9.32058e-06
-5.40399e-06
1.21257e-05
-4.25673e-06
1.37454e-05
-2.3366e-06
1.40768e-05
-2.90668e-07
1.3328e-05
1.32931e-06
1.1968e-05
2.13901e-06
1.05446e-05
2.09175e-06
9.53412e-06
1.37099e-06
9.23919e-06
2.50783e-07
9.7432e-06
-9.75811e-07
1.09768e-05
-2.10309e-06
1.2407e-05
-2.42858e-06
-2.04626e-06
-6.66811e-07
2.12146e-06
-2.14685e-07
6.14443e-07
2.357e-06
-3.6365e-06
6.66909e-06
-7.84697e-06
1.15736e-05
-1.01118e-05
1.59873e-05
-9.81769e-06
1.92059e-05
-7.47532e-06
2.09306e-05
-4.06124e-06
2.11717e-05
-5.31793e-07
2.02032e-05
2.29779e-06
1.85088e-05
3.83342e-06
1.66431e-05
3.9574e-06
1.5145e-05
2.86909e-06
1.44073e-05
9.88525e-07
1.45376e-05
-1.10613e-06
1.52955e-05
-2.86102e-06
1.59279e-05
-3.06101e-06
-2.19273e-06
-1.70097e-07
2.29155e-06
1.71527e-06
-1.27093e-06
6.30314e-06
-8.22438e-06
1.24147e-05
-1.39585e-05
1.84129e-05
-1.61099e-05
2.31858e-05
-1.45906e-05
2.62174e-05
-1.0507e-05
2.7426e-05
-5.2698e-06
2.70063e-05
-1.12105e-07
2.54136e-05
3.89051e-06
2.31869e-05
6.06009e-06
2.08457e-05
6.29863e-06
1.88919e-05
4.82284e-06
1.76648e-05
2.21566e-06
1.70933e-05
-5.34665e-07
1.65366e-05
-2.30434e-06
1.54024e-05
-1.92676e-06
-1.1698e-07
5.07302e-07
1.78425e-06
4.30305e-06
-5.06668e-06
1.11285e-05
-1.50498e-05
1.87234e-05
-2.15534e-05
2.51661e-05
-2.25527e-05
2.9618e-05
-1.90425e-05
3.18684e-05
-1.27573e-05
3.20282e-05
-5.42968e-06
3.06467e-05
1.26948e-06
2.82963e-05
6.24085e-06
2.54154e-05
8.94103e-06
2.2522e-05
9.19196e-06
2.00348e-05
7.31003e-06
1.80581e-05
4.19238e-06
1.6161e-05
1.36242e-06
1.35358e-05
3.20877e-07
9.83208e-06
1.77697e-06
5.13065e-06
1.38414e-06
4.00105e-07
7.5298e-06
-1.12123e-05
1.6335e-05
-2.3855e-05
2.45036e-05
-2.9722e-05
3.03849e-05
-2.8434e-05
3.35941e-05
-2.22517e-05
3.43481e-05
-1.35113e-05
3.33099e-05
-4.39151e-06
3.10825e-05
3.49689e-06
2.80405e-05
9.2828e-06
2.4614e-05
1.23676e-05
2.12248e-05
1.25811e-05
1.81022e-05
1.04325e-05
1.50117e-05
7.28296e-06
1.12363e-05
5.13774e-06
6.01712e-06
5.54009e-06
-1.088e-06
8.88209e-06
1.46826e-05
2.63519e-06
-2.23508e-06
1.11897e-05
-1.97668e-05
2.09976e-05
-3.3663e-05
2.84597e-05
-3.71842e-05
3.28704e-05
-3.28447e-05
3.42805e-05
-2.36618e-05
3.34391e-05
-1.26698e-05
3.13381e-05
-2.29054e-06
2.83097e-05
6.52528e-06
2.46784e-05
1.29141e-05
2.07953e-05
1.62507e-05
1.69192e-05
1.64572e-05
1.29888e-05
1.4363e-05
8.39214e-06
1.18796e-05
2.20672e-06
1.13232e-05
-6.37676e-06
1.41236e-05
-1.79731e-05
2.04784e-05
2.99041e-05
4.16949e-06
-6.40457e-06
1.46424e-05
-3.02398e-05
2.40807e-05
-4.31012e-05
2.9855e-05
-4.29585e-05
3.18103e-05
-3.47999e-05
3.09131e-05
-2.27647e-05
2.87758e-05
-1.05325e-05
2.58354e-05
6.49801e-07
2.23461e-05
1.00146e-05
1.84425e-05
1.68177e-05
1.42743e-05
2.04189e-05
9.901e-06
2.08305e-05
4.91701e-06
1.9347e-05
-1.70302e-06
1.84996e-05
-1.10729e-05
2.06931e-05
-2.3998e-05
2.70486e-05
-4.0931e-05
3.74114e-05
5.08917e-05
6.01973e-06
-1.24243e-05
1.71803e-05
-4.14004e-05
2.50063e-05
-5.09272e-05
2.79565e-05
-4.59087e-05
2.72009e-05
-3.40444e-05
2.4923e-05
-2.04867e-05
2.18645e-05
-7.47397e-06
1.83493e-05
4.16495e-06
1.44852e-05
1.38788e-05
1.02923e-05
2.10106e-05
5.79967e-06
2.49116e-05
7.5629e-07
2.58739e-05
-5.8178e-06
2.59211e-05
-1.52996e-05
2.79815e-05
-2.87199e-05
3.41134e-05
-4.65114e-05
4.48401e-05
-6.84065e-05
5.93065e-05
7.58109e-05
8.02535e-06
-2.04496e-05
1.81094e-05
-5.14845e-05
2.28143e-05
-5.5632e-05
2.32707e-05
-4.63651e-05
2.11397e-05
-3.19133e-05
1.78838e-05
-1.72308e-05
1.41516e-05
-3.74178e-06
1.01195e-05
8.19707e-06
5.79156e-06
1.82067e-05
1.19369e-06
2.56084e-05
-3.8313e-06
2.99366e-05
-1.01536e-05
3.21962e-05
-1.9252e-05
3.50195e-05
-3.24321e-05
4.11615e-05
-5.02616e-05
5.19429e-05
-7.23492e-05
6.69276e-05
-9.73376e-05
8.42949e-05
0.000101582
-0.000177732
0.000131704
0.00015759
-0.000193353
0.000137078
-0.000204636
0.000138298
-0.000212395
0.000136286
-0.000217578
0.000132007
-0.000220968
0.000126289
-0.00022311
0.000119672
-0.000224084
0.000112266
-0.000223528
0.000103986
-0.000220836
9.47802e-05
-0.000215431
8.46691e-05
-0.000206943
7.38388e-05
-0.000195166
6.25363e-05
-0.000180259
5.1084e-05
-0.000162728
3.99372e-05
-0.000143136
2.9436e-05
-0.000121978
1.97402e-05
-9.97778e-05
1.10152e-05
-7.73036e-05
3.59559e-06
-5.51829e-05
-2.92542e-06
-3.16573e-05
-1.07527e-05
-2.03865e-05
-0.000191748
0.000146292
0.000177159
-0.000202023
0.000147353
-0.000208827
0.000145102
-0.000213053
0.000140513
-0.000215392
0.000134345
-0.000215961
0.000126859
-0.000214249
0.00011796
-0.000209567
0.000107584
-0.000201318
9.57375e-05
-0.000189157
8.26183e-05
-0.000173152
6.86648e-05
-0.000153771
5.44573e-05
-0.000131877
4.06427e-05
-0.000108685
2.78921e-05
-8.54855e-05
1.67373e-05
-6.35365e-05
7.48698e-06
-4.40141e-05
2.17794e-07
-2.77758e-05
-5.22315e-06
-1.48961e-05
-9.28409e-06
-4.55854e-06
-1.3263e-05
2.37851e-06
-1.76897e-05
-1.8008e-05
-0.000198421
0.000155812
0.000188901
-0.000204366
0.000153298
-0.000207521
0.000148257
-0.0002083
0.000141292
-0.000206378
0.000132423
-0.000201073
0.000121553
-0.000191786
0.000108673
-0.000178164
9.39627e-05
-0.000160348
7.79208e-05
-0.000139078
6.13489e-05
-0.000115598
4.51843e-05
-9.14739e-05
3.03335e-05
-6.83926e-05
1.75614e-05
-4.78957e-05
7.39514e-06
-3.1084e-05
-7.42865e-08
-1.82778e-05
-5.31922e-06
-9.00149e-06
-9.05856e-06
-2.54635e-06
-1.16783e-05
1.85315e-06
-1.36836e-05
4.2321e-06
-1.56419e-05
3.94213e-06
-1.73997e-05
-1.40659e-05
-0.000199007
0.000160826
0.000193992
-0.000200998
0.000155289
-0.000199955
0.000147214
-0.000195276
0.000136612
-0.000186417
0.000123565
-0.000173003
0.000108139
-0.000155148
9.08182e-05
-0.00013363
7.24442e-05
-0.000109834
5.41251e-05
-8.55221e-05
3.70368e-05
-6.25103e-05
2.21725e-05
-4.23667e-05
1.01899e-05
-2.61059e-05
1.30056e-06
-1.38681e-05
-4.84265e-06
-5.02481e-06
-8.91757e-06
1.13191e-06
-1.14759e-05
4.98014e-06
-1.29068e-05
6.94527e-06
-1.36434e-05
7.37e-06
-1.41083e-05
6.31259e-06
-1.45845e-05
3.49881e-06
-1.45859e-05
-1.05671e-05
-0.000194198
0.00016154
0.000193483
-0.00019115
0.000152242
-0.000183838
0.000139902
-0.000171896
0.00012467
-0.000155265
0.000106934
-0.00013458
8.74533e-05
-0.000111158
6.73968e-05
-8.67979e-05
4.80836e-05
-6.34152e-05
3.07425e-05
-4.26391e-05
1.62607e-05
-2.55129e-05
5.04621e-06
-1.23138e-05
-3.00924e-06
-2.59743e-06
-8.41578e-06
4.31828e-06
-1.17584e-05
8.9071e-06
-1.35064e-05
1.1557e-05
-1.41258e-05
1.25818e-05
-1.39317e-05
1.21765e-05
-1.32381e-05
1.05148e-05
-1.24466e-05
7.65609e-06
-1.17258e-05
3.66414e-06
-1.0594e-05
-6.90294e-06
-0.000182516
0.000156797
0.00018726
-0.000173034
0.00014276
-0.000158658
0.000125526
-0.000139754
0.000105767
-0.000117386
8.45654e-05
-9.32399e-05
6.33077e-05
-6.92695e-05
4.34264e-05
-4.72666e-05
2.60807e-05
-2.84892e-05
1.1965e-05
-1.34706e-05
1.24213e-06
-2.03631e-06
-6.38803e-06
6.35254e-06
-1.13981e-05
1.22042e-05
-1.42674e-05
1.59139e-05
-1.5468e-05
1.78474e-05
-1.54399e-05
1.82536e-05
-1.4532e-05
1.73885e-05
-1.30665e-05
1.54349e-05
-1.12845e-05
1.24898e-05
-9.50149e-06
8.55092e-06
-7.78692e-06
3.80243e-06
-5.84552e-06
-3.10051e-06
-0.000163426
0.000145704
0.000174519
-0.000147331
0.000126666
-0.000126959
0.000105154
-0.000103708
8.25161e-05
-7.9454e-05
6.03109e-05
-5.61373e-05
3.9991e-05
-3.53172e-05
2.26062e-05
-1.79058e-05
8.66936e-06
-4.12759e-06
-1.81324e-06
6.34017e-06
-9.22563e-06
1.40005e-05
-1.40483e-05
1.91884e-05
-1.6586e-05
2.2269e-05
-1.7348e-05
2.36371e-05
-1.68361e-05
2.35555e-05
-1.53583e-05
2.23215e-05
-1.3298e-05
2.01239e-05
-1.0869e-05
1.71284e-05
-8.28907e-06
1.33871e-05
-5.76014e-06
8.86445e-06
-3.2643e-06
3.77845e-06
-7.59513e-07
6.77942e-07
-0.000138183
0.000128549
0.000155337
-0.00011699
0.000105472
-9.33857e-05
8.15498e-05
-6.93209e-05
5.84513e-05
-4.66356e-05
3.76257e-05
-2.66632e-05
2.00186e-05
-1.00543e-05
5.99736e-06
3.09701e-06
-4.48196e-06
1.30572e-05
-1.17734e-05
2.02383e-05
-1.64067e-05
2.49817e-05
-1.87917e-05
2.75482e-05
-1.91526e-05
2.82824e-05
-1.80822e-05
2.77326e-05
-1.62863e-05
2.61875e-05
-1.38132e-05
2.38357e-05
-1.09462e-05
2.08312e-05
-7.86444e-06
1.72786e-05
-4.73644e-06
1.31862e-05
-1.66779e-06
8.5099e-06
1.41201e-06
3.51693e-06
4.23346e-06
4.19487e-06
-0.000109752
0.000107064
0.000131237
-8.61847e-05
8.19055e-05
-6.24961e-05
5.78612e-05
-4.04051e-05
3.63602e-05
-2.10605e-05
1.82811e-05
-4.93827e-06
3.89632e-06
7.9268e-06
-6.8677e-06
1.76511e-05
-1.42063e-05
2.4474e-05
-1.85963e-05
2.87053e-05
-2.06381e-05
3.06779e-05
-2.07643e-05
3.09908e-05
-1.94655e-05
3.0107e-05
-1.71983e-05
2.8267e-05
-1.44463e-05
2.57867e-05
-1.13329e-05
2.28552e-05
-8.01471e-06
1.95659e-05
-4.57512e-06
1.59327e-05
-1.10328e-06
1.19154e-05
2.34952e-06
7.49422e-06
5.83321e-06
3.02941e-06
8.69827e-06
7.22428e-06
-8.18071e-05
8.38685e-05
0.000105003
-5.8689e-05
5.87874e-05
-3.72575e-05
3.64298e-05
-1.85237e-05
1.76264e-05
-2.83841e-06
2.59583e-06
9.76056e-06
-8.70265e-06
1.93329e-05
-1.64401e-05
2.58884e-05
-2.07617e-05
2.98094e-05
-2.25173e-05
3.16286e-05
-2.24572e-05
3.15295e-05
-2.06653e-05
3.00941e-05
-1.80301e-05
2.79059e-05
-1.50101e-05
2.52997e-05
-1.18401e-05
2.25259e-05
-8.55911e-06
1.96341e-05
-5.12298e-06
1.65846e-05
-1.52556e-06
1.33045e-05
2.17682e-06
9.72291e-06
5.9311e-06
5.85635e-06
9.69977e-06
2.16686e-06
1.23878e-05
9.39114e-06
-5.75188e-05
6.15401e-05
7.98472e-05
-3.69193e-05
3.81879e-05
-1.89631e-05
1.84736e-05
-3.94419e-06
2.60755e-06
8.17624e-06
-9.5246e-06
1.7279e-05
-1.78054e-05
2.35775e-05
-2.27385e-05
2.74356e-05
-2.46198e-05
2.89236e-05
-2.40054e-05
2.83767e-05
-2.19104e-05
2.66903e-05
-1.89788e-05
2.44006e-05
-1.57404e-05
2.19244e-05
-1.25339e-05
1.94914e-05
-9.40715e-06
1.71563e-05
-6.22398e-06
1.48453e-05
-2.81198e-06
1.24329e-05
8.86822e-07
9.80666e-06
4.80307e-06
6.89066e-06
8.84711e-06
3.75511e-06
1.28353e-05
1.01486e-06
1.5128e-05
1.0406e-05
-3.88959e-05
4.19776e-05
5.84583e-05
-2.19789e-05
2.12709e-05
-7.98669e-06
4.48141e-06
3.10387e-06
-8.48301e-06
1.13897e-05
-1.78104e-05
1.70395e-05
-2.34552e-05
2.01695e-05
-2.58685e-05
2.12379e-05
-2.56882e-05
2.10265e-05
-2.3794e-05
1.98115e-05
-2.06953e-05
1.80209e-05
-1.71881e-05
1.60505e-05
-1.377e-05
1.41651e-05
-1.06485e-05
1.24802e-05
-7.72228e-06
1.09528e-05
-4.69661e-06
9.44446e-06
-1.3036e-06
7.80784e-06
2.52345e-06
5.93453e-06
6.67638e-06
3.80202e-06
1.09796e-05
1.62002e-06
1.50173e-05
-1.35829e-09
1.67494e-05
1.04046e-05
-2.68527e-05
2.63276e-05
4.25028e-05
-1.42452e-05
8.66333e-06
-4.63864e-06
-5.1251e-06
2.1088e-06
-1.52304e-05
6.27796e-06
-2.19796e-05
8.51588e-06
-2.56931e-05
9.58035e-06
-2.6933e-05
9.9503e-06
-2.60582e-05
9.77371e-06
-2.36174e-05
9.22693e-06
-2.01485e-05
8.39446e-06
-1.63557e-05
7.43176e-06
-1.28073e-05
6.50763e-06
-9.72433e-06
5.70584e-06
-6.92048e-06
4.98162e-06
-3.97238e-06
4.21178e-06
-5.33751e-07
3.27253e-06
3.4627e-06
2.09141e-06
7.85752e-06
7.14657e-07
1.23564e-05
-4.22748e-07
1.61547e-05
-7.70589e-07
1.70972e-05
9.63406e-06
-2.16505e-05
1.52889e-05
3.26892e-05
-1.38935e-05
9.06343e-07
-9.17955e-06
-9.83908e-06
-6.84336e-06
-1.75666e-05
-5.82598e-06
-2.29969e-05
-5.11489e-06
-2.64042e-05
-4.23098e-06
-2.78169e-05
-3.11109e-06
-2.71781e-05
-1.97591e-06
-2.47526e-05
-1.03118e-06
-2.10933e-05
-4.15176e-07
-1.69717e-05
-1.3239e-07
-1.30901e-05
-7.53908e-08
-9.78132e-06
-1.22853e-07
-6.87301e-06
-2.32473e-07
-3.86276e-06
-4.4792e-07
-3.18298e-07
-8.40184e-07
3.85497e-06
-1.42825e-06
8.44559e-06
-2.0685e-06
1.29966e-05
-2.19599e-06
1.62822e-05
-1.33102e-06
1.62323e-05
8.30303e-06
-2.32073e-05
9.38085e-06
2.91154e-05
-2.06199e-05
-1.68111e-06
-2.03649e-05
-1.00941e-05
-2.09092e-05
-1.70223e-05
-2.10576e-05
-2.28485e-05
-2.02985e-05
-2.71633e-05
-1.86431e-05
-2.94723e-05
-1.6281e-05
-2.95402e-05
-1.3532e-05
-2.75015e-05
-1.078e-05
-2.38453e-05
-8.40605e-06
-1.93456e-05
-6.65799e-06
-1.48382e-05
-5.55624e-06
-1.08831e-05
-4.9283e-06
-7.50094e-06
-4.56697e-06
-4.22409e-06
-4.36757e-06
-5.17688e-07
-4.31254e-06
3.79994e-06
-4.33943e-06
8.47249e-06
-4.18338e-06
1.28406e-05
-3.39514e-06
1.5494e-05
-1.64604e-06
1.44832e-05
6.657e-06
-3.06974e-05
8.64569e-06
3.14325e-05
-3.23807e-05
2.18948e-09
-3.46146e-05
-7.86019e-06
-3.60841e-05
-1.55528e-05
-3.63619e-05
-2.25706e-05
-3.53732e-05
-2.81521e-05
-3.31309e-05
-3.17146e-05
-2.97511e-05
-3.292e-05
-2.55184e-05
-3.17342e-05
-2.09017e-05
-2.84619e-05
-1.65035e-05
-2.37439e-05
-1.2891e-05
-1.84507e-05
-1.03686e-05
-1.34055e-05
-8.84778e-06
-9.02172e-06
-7.96581e-06
-5.10606e-06
-7.37769e-06
-1.10581e-06
-6.89606e-06
3.31832e-06
-6.36083e-06
7.93726e-06
-5.47672e-06
1.19565e-05
-3.94605e-06
1.39633e-05
-1.63776e-06
1.21749e-05
5.01924e-06
-4.15424e-05
1.17893e-05
3.83988e-05
-4.52711e-05
3.73082e-06
-4.8187e-05
-4.94424e-06
-4.99636e-05
-1.37762e-05
-5.05186e-05
-2.20157e-05
-4.97045e-05
-2.89662e-05
-4.73851e-05
-3.4034e-05
-4.35319e-05
-3.67732e-05
-3.83074e-05
-3.69587e-05
-3.21244e-05
-3.46449e-05
-2.56643e-05
-3.0204e-05
-1.97678e-05
-2.43472e-05
-1.51604e-05
-1.80129e-05
-1.21217e-05
-1.20604e-05
-1.03526e-05
-6.87518e-06
-9.2515e-06
-2.20689e-06
-8.32972e-06
2.39654e-06
-7.28558e-06
6.89313e-06
-5.83614e-06
1.0507e-05
-3.79771e-06
1.19249e-05
-1.36779e-06
9.74498e-06
3.65145e-06
-5.20235e-05
1.65657e-05
4.72471e-05
-5.61208e-05
7.82813e-06
-5.92362e-05
-1.8288e-06
-6.1396e-05
-1.16163e-05
-6.24828e-05
-2.0929e-05
-6.22509e-05
-2.91982e-05
-6.04323e-05
-3.58525e-05
-5.68324e-05
-4.03731e-05
-5.14271e-05
-4.2364e-05
-4.44375e-05
-4.16345e-05
-3.64106e-05
-3.82309e-05
-2.82371e-05
-3.25207e-05
-2.09803e-05
-2.52696e-05
-1.54993e-05
-1.75414e-05
-1.20048e-05
-1.03697e-05
-9.95175e-06
-4.25994e-06
-8.49758e-06
9.42366e-07
-7.04181e-06
5.43737e-06
-5.26999e-06
8.73523e-06
-3.11804e-06
9.77294e-06
-9.86594e-07
7.61354e-06
2.66486e-06
-5.98843e-05
2.13786e-05
5.50714e-05
-6.37844e-05
1.17282e-05
-6.69681e-05
1.3549e-06
-6.94627e-05
-9.1217e-06
-7.11524e-05
-1.92393e-05
-7.17601e-05
-2.85905e-05
-7.09243e-05
-3.66883e-05
-6.82824e-05
-4.3015e-05
-6.35953e-05
-4.70511e-05
-5.68473e-05
-4.83825e-05
-4.82994e-05
-4.67788e-05
-3.86132e-05
-4.22068e-05
-2.88669e-05
-3.50159e-05
-2.03425e-05
-2.60658e-05
-1.40274e-05
-1.66848e-05
-1.00608e-05
-8.22659e-06
-7.66528e-06
-1.45313e-06
-5.83058e-06
3.60267e-06
-4.00369e-06
6.90834e-06
-2.12321e-06
7.89246e-06
-5.69442e-07
6.05978e-06
2.09542e-06
-6.454e-05
2.55969e-05
6.03218e-05
-6.80648e-05
1.5253e-05
-7.11294e-05
4.41948e-06
-7.37596e-05
-6.49153e-06
-7.58682e-05
-1.71307e-05
-7.72951e-05
-2.71635e-05
-7.76907e-05
-3.62927e-05
-7.64903e-05
-4.42154e-05
-7.3239e-05
-5.03024e-05
-6.77209e-05
-5.39005e-05
-5.98903e-05
-5.46095e-05
-5.00183e-05
-5.20788e-05
-3.88634e-05
-4.61708e-05
-2.77089e-05
-3.72203e-05
-1.80703e-05
-2.63234e-05
-1.10628e-05
-1.52341e-05
-6.76652e-06
-5.7494e-06
-4.22335e-06
1.05951e-06
-2.4156e-06
5.10059e-06
-1.0109e-06
6.48776e-06
-1.45534e-07
5.19442e-06
1.94989e-06
-6.62474e-05
2.90951e-05
6.27492e-05
-6.93114e-05
1.8317e-05
-7.21213e-05
7.22936e-06
-7.47344e-05
-3.87842e-06
-7.70913e-05
-1.47738e-05
-7.90015e-05
-2.52533e-05
-8.01992e-05
-3.5095e-05
-8.04298e-05
-4.39848e-05
-7.91228e-05
-5.16094e-05
-7.55654e-05
-5.74579e-05
-6.94381e-05
-6.07368e-05
-6.07183e-05
-6.07986e-05
-4.96893e-05
-5.71998e-05
-3.72496e-05
-4.966e-05
-2.4954e-05
-3.8619e-05
-1.45701e-05
-2.5618e-05
-7.32352e-06
-1.2996e-05
-3.18524e-06
-3.07877e-06
-1.04603e-06
2.96139e-06
9.65369e-09
5.43207e-06
2.60026e-07
4.94405e-06
2.20991e-06
-6.55478e-05
3.19055e-05
6.27374e-05
-6.812e-05
2.08892e-05
-7.06068e-05
9.71611e-06
-7.30823e-05
-1.40291e-06
-7.55312e-05
-1.23249e-05
-7.78486e-05
-2.29359e-05
-7.98206e-05
-3.31229e-05
-8.10771e-05
-4.27283e-05
-8.1186e-05
-5.15004e-05
-7.96121e-05
-5.90319e-05
-7.56925e-05
-6.46565e-05
-6.90273e-05
-6.74638e-05
-5.94988e-05
-6.67284e-05
-4.74053e-05
-6.17535e-05
-3.39073e-05
-5.21169e-05
-2.09092e-05
-3.86161e-05
-1.04576e-05
-2.34476e-05
-3.79688e-06
-9.73953e-06
-5.86351e-07
-2.49138e-07
5.51454e-07
4.29427e-06
4.80194e-07
5.01531e-06
2.69011e-06
-6.30728e-05
3.41102e-05
6.08681e-05
-6.51742e-05
2.29905e-05
-6.73074e-05
1.18493e-05
-6.95401e-05
8.29744e-07
-7.18753e-05
-9.98966e-06
-7.42526e-05
-2.05586e-05
-7.65465e-05
-3.0829e-05
-7.85427e-05
-4.07321e-05
-7.98963e-05
-5.01469e-05
-8.0075e-05
-5.88532e-05
-7.82921e-05
-6.64394e-05
-7.39776e-05
-7.17783e-05
-6.67829e-05
-7.3923e-05
-5.64036e-05
-7.21328e-05
-4.33116e-05
-6.52089e-05
-2.90657e-05
-5.2862e-05
-1.60103e-05
-3.65029e-05
-6.44769e-06
-1.93022e-05
-1.31676e-06
-5.38007e-06
4.74995e-07
2.50252e-06
4.86657e-07
5.00365e-06
3.17676e-06
-5.95231e-05
3.58609e-05
5.77723e-05
-6.12759e-05
2.47434e-05
-6.31337e-05
1.37071e-05
-6.5137e-05
2.83306e-06
-6.72851e-05
-7.84153e-06
-6.95405e-05
-1.83033e-05
-7.18285e-05
-2.8541e-05
-7.40203e-05
-3.85404e-05
-7.59164e-05
-4.82508e-05
-7.72382e-05
-5.75314e-05
-7.75397e-05
-6.61379e-05
-7.56158e-05
-7.37022e-05
-7.08108e-05
-7.8728e-05
-6.2932e-05
-8.00116e-05
-5.15866e-05
-7.65544e-05
-3.75969e-05
-6.68517e-05
-2.30437e-05
-5.10561e-05
-1.07869e-05
-3.1559e-05
-3.12718e-06
-1.30397e-05
-7.67378e-08
-5.47917e-07
4.24598e-07
4.50232e-06
3.60136e-06
-5.54345e-05
3.73168e-05
5.39787e-05
-5.6962e-05
2.62709e-05
-5.86243e-05
1.53693e-05
-6.0438e-05
4.64678e-06
-6.23965e-05
-5.88302e-06
-6.44777e-05
-1.6222e-05
-6.66414e-05
-2.63774e-05
-6.88205e-05
-3.63612e-05
-7.08977e-05
-4.61735e-05
-7.26632e-05
-5.57659e-05
-7.37977e-05
-6.50034e-05
-7.39243e-05
-7.35756e-05
-7.17444e-05
-8.09079e-05
-6.63843e-05
-8.53717e-05
-5.75818e-05
-8.53568e-05
-4.51798e-05
-7.92538e-05
-3.04913e-05
-6.57445e-05
-1.63061e-05
-4.57442e-05
-5.95538e-06
-2.33905e-05
-1.06823e-06
-5.43506e-06
2.21302e-07
3.21278e-06
3.82266e-06
-5.11312e-05
3.8598e-05
4.98499e-05
-5.25155e-05
2.76552e-05
-5.40333e-05
1.68871e-05
-5.56867e-05
6.30017e-06
-5.74654e-05
-4.10433e-06
-5.93539e-05
-1.43335e-05
-6.13309e-05
-2.44005e-05
-6.33656e-05
-3.43265e-05
-6.5402e-05
-4.41371e-05
-6.73229e-05
-5.38449e-05
-6.89071e-05
-6.34192e-05
-6.97803e-05
-7.27023e-05
-6.94631e-05
-8.12251e-05
-6.6816e-05
-8.80188e-05
-6.07519e-05
-9.14209e-05
-5.08165e-05
-8.91892e-05
-3.73144e-05
-7.92466e-05
-2.23314e-05
-6.07273e-05
-9.53212e-06
-3.61898e-05
-2.2389e-06
-1.27283e-05
2.39064e-09
9.7149e-07
3.82506e-06
-4.67824e-05
3.97812e-05
4.55993e-05
-4.80746e-05
2.89473e-05
-4.94854e-05
1.8298e-05
-5.10088e-05
7.82356e-06
-5.26311e-05
-2.48205e-06
-5.43383e-05
-1.26263e-05
-5.61173e-05
-2.26214e-05
-5.79561e-05
-3.24877e-05
-5.98345e-05
-4.22587e-05
-6.1703e-05
-5.19764e-05
-6.34503e-05
-6.16719e-05
-6.48493e-05