/*--------------------------------*- C++ -*----------------------------------*\
| =========                 |                                                 |
| \\      /  F ield         | OpenFOAM: The Open Source CFD Toolbox           |
|  \\    /   O peration     | Version:  v2012                                 |
|   \\  /    A nd           | Website:  www.openfoam.com                      |
|    \\/     M anipulation  |                                                 |
\*---------------------------------------------------------------------------*/
FoamFile
{
    version     2.0;
    format      ascii;
    class       volVectorField;
    location    "562";
    object      U;
}
// * * * * * * * * * * * * * * * * * * * * * * * * * * * * * * * * * * * * * //

dimensions      [0 1 -1 0 0 0 0];


internalField   nonuniform List<vector> 
6054
(
(0.0137641 -0.333689 0)
(0.0136255 -0.372874 0)
(0.0135871 -0.409816 0)
(0.013892 -0.444804 0)
(0.0146829 -0.478192 0)
(0.0159918 -0.510649 0)
(0.0179217 -0.54289 0)
(0.0203251 -0.575626 0)
(0.0228033 -0.609651 0)
(0.0245131 -0.64439 0)
(0.0251887 -0.679246 0)
(0.0256465 -0.714122 0)
(0.0260318 -0.749096 0)
(0.0263021 -0.784163 0)
(0.0264096 -0.819319 0)
(0.0261948 -0.854803 0)
(0.0254493 -0.891075 0)
(0.0235685 -0.927124 0)
(0.0172851 -0.957412 0)
(0.006502 -0.977342 0)
(0.0524521 -0.894589 0)
(0.048254 -0.928454 0)
(0.044398 -0.955601 0)
(0.0407477 -0.977424 0)
(0.0376321 -0.994672 0)
(0.0354858 -1.00815 0)
(0.0339486 -1.01839 0)
(0.0328378 -1.02569 0)
(0.0319042 -1.03032 0)
(0.031251 -1.03262 0)
(0.03089 -1.03378 0)
(0.0305275 -1.03428 0)
(0.0301727 -1.03411 0)
(0.0300231 -1.03321 0)
(0.0299456 -1.03156 0)
(0.029717 -1.02939 0)
(0.0291204 -1.02705 0)
(0.0288725 -1.02376 0)
(0.0291048 -1.01489 0)
(0.0140186 -1.00293 0)
(0.068675 -1.10447 0)
(0.0590993 -1.11211 0)
(0.0509167 -1.11586 0)
(0.0442856 -1.11723 0)
(0.0390986 -1.11659 0)
(0.0351643 -1.11427 0)
(0.0322447 -1.11045 0)
(0.0300479 -1.10535 0)
(0.0283008 -1.0992 0)
(0.0268462 -1.09233 0)
(0.0256908 -1.08486 0)
(0.02497 -1.07629 0)
(0.0245623 -1.06718 0)
(0.024085 -1.05849 0)
(0.023457 -1.04936 0)
(0.0226023 -1.04016 0)
(0.021283 -1.03082 0)
(0.019461 -1.02077 0)
(0.0162786 -1.00984 0)
(0.00786572 -1.00179 0)
(0.0712098 -1.15523 0)
(0.0595282 -1.15478 0)
(0.049765 -1.1523 0)
(0.0417913 -1.14819 0)
(0.0354165 -1.14275 0)
(0.0304508 -1.1362 0)
(0.0266405 -1.12863 0)
(0.0237246 -1.12024 0)
(0.0214526 -1.11113 0)
(0.0196424 -1.1015 0)
(0.0182023 -1.09152 0)
(0.0171708 -1.08123 0)
(0.0164761 -1.07061 0)
(0.0158621 -1.05969 0)
(0.0152212 -1.04867 0)
(0.0144288 -1.03778 0)
(0.0133231 -1.02701 0)
(0.0117868 -1.01621 0)
(0.00906098 -1.00642 0)
(0.00363751 -1.00102 0)
(0.0701731 -1.17403 0)
(0.0568925 -1.17072 0)
(0.0458587 -1.16565 0)
(0.0368872 -1.15924 0)
(0.0297108 -1.15177 0)
(0.0240493 -1.14344 0)
(0.0196257 -1.13437 0)
(0.0161744 -1.12466 0)
(0.013461 -1.11443 0)
(0.01131 -1.1038 0)
(0.00961124 -1.09288 0)
(0.00833067 -1.08171 0)
(0.0074053 -1.07026 0)
(0.00668573 -1.05862 0)
(0.00607184 -1.04701 0)
(0.00549612 -1.03568 0)
(0.00489159 -1.02466 0)
(0.00418864 -1.01407 0)
(0.00307072 -1.00525 0)
(0.00113696 -1.00083 0)
(0.0677436 -1.18476 0)
(0.0527701 -1.17974 0)
(0.0405148 -1.17298 0)
(0.030647 -1.16509 0)
(0.0227911 -1.15637 0)
(0.0165734 -1.14703 0)
(0.0116788 -1.13715 0)
(0.00783202 -1.12681 0)
(0.00479283 -1.11611 0)
(0.00239204 -1.10511 0)
(0.000510835 -1.09388 0)
(-0.000937488 -1.08243 0)
(-0.00200773 -1.07077 0)
(-0.00277477 -1.05899 0)
(-0.00328887 -1.04727 0)
(-0.00355348 -1.03584 0)
(-0.00357893 -1.02476 0)
(-0.00335199 -1.01412 0)
(-0.00260882 -1.00527 0)
(-0.000989929 -1.00083 0)
(0.0640679 -1.19071 0)
(0.0473917 -1.18409 0)
(0.0340664 -1.17576 0)
(0.0235471 -1.16671 0)
(0.0152513 -1.15721 0)
(0.00868194 -1.14738 0)
(0.00347783 -1.13726 0)
(-0.00064212 -1.12688 0)
(-0.00392125 -1.11625 0)
(-0.00651374 -1.10544 0)
(-0.00855501 -1.09449 0)
(-0.0101658 -1.08339 0)
(-0.0113525 -1.07213 0)
(-0.0121545 -1.06075 0)
(-0.012603 -1.0494 0)
(-0.0126144 -1.03825 0)
(-0.0121061 -1.02729 0)
(-0.0110145 -1.01635 0)
(-0.00863885 -1.00647 0)
(-0.00350636 -1.00103 0)
(0.0600248 -1.18235 0)
(0.0410487 -1.17372 0)
(0.026846 -1.16392 0)
(0.0160256 -1.1542 0)
(0.00761347 -1.14485 0)
(0.000929683 -1.13581 0)
(-0.00441563 -1.12688 0)
(-0.00867659 -1.11795 0)
(-0.0121166 -1.10856 0)
(-0.0148773 -1.09914 0)
(-0.0170424 -1.08946 0)
(-0.0187596 -1.0795 0)
(-0.0199986 -1.06986 0)
(-0.0207822 -1.06026 0)
(-0.0211735 -1.05058 0)
(-0.0210429 -1.04093 0)
(-0.0202457 -1.03127 0)
(-0.0188105 -1.02098 0)
(-0.0159338 -1.00992 0)
(-0.00776218 -1.00181 0)
(0.0483872 -1.10491 0)
(0.0289201 -1.08902 0)
(0.0159335 -1.07579 0)
(0.00643948 -1.06631 0)
(-0.000879172 -1.05974 0)
(-0.0068488 -1.05523 0)
(-0.0118201 -1.0519 0)
(-0.0159237 -1.04924 0)
(-0.0192376 -1.04677 0)
(-0.0218849 -1.04459 0)
(-0.0239356 -1.04258 0)
(-0.0254494 -1.04061 0)
(-0.0265703 -1.03853 0)
(-0.027471 -1.03618 0)
(-0.0281323 -1.0335 0)
(-0.028474 -1.03059 0)
(-0.0283533 -1.02773 0)
(-0.028397 -1.02407 0)
(-0.028834 -1.01492 0)
(-0.0139576 -1.00295 0)
(0.0289728 -0.666325 0)
(0.0143845 -0.635516 0)
(0.00789329 -0.612147 0)
(0.00263975 -0.60115 0)
(-0.00182632 -0.598117 0)
(-0.00608987 -0.601913 0)
(-0.00992615 -0.611793 0)
(-0.0138159 -0.627153 0)
(-0.0170975 -0.647178 0)
(-0.0195154 -0.670889 0)
(-0.0214701 -0.697519 0)
(-0.0230211 -0.726499 0)
(-0.0242126 -0.757293 0)
(-0.0250945 -0.789426 0)
(-0.0256384 -0.822554 0)
(-0.025716 -0.856675 0)
(-0.0251519 -0.892078 0)
(-0.0233937 -0.927602 0)
(-0.0171761 -0.95758 0)
(-0.00646823 -0.977362 0)
(-0.000290134 0.0335594 0)
(-7.65142e-05 0.0359598 0)
(-0.000174687 0.0367425 0)
(-0.000530855 0.0367857 0)
(-0.00169638 0.0373553 0)
(-0.00342066 0.0385799 0)
(-0.00366856 0.039686 0)
(-0.0025911 0.039837 0)
(-0.00103351 0.0386079 0)
(-0.000315366 0.035539 0)
(0.000811845 0.0287896 0)
(0.00236388 0.0185505 0)
(0.00309905 0.00519351 0)
(0.0023129 -0.013294 0)
(0.00124569 -0.0351406 0)
(0.00160078 -0.0616737 0)
(0.00290398 -0.0930788 0)
(0.00462023 -0.128637 0)
(0.00667417 -0.167389 0)
(0.00891871 -0.208255 0)
(0.0112253 -0.250268 0)
(0.0131296 -0.292478 0)
(-0.00510478 0.0700507 0)
(-0.00310718 0.0717638 0)
(-0.000740323 0.0705283 0)
(3.36845e-06 0.0677484 0)
(-0.000461119 0.0633542 0)
(0.00032705 0.0561132 0)
(0.00220876 0.0448898 0)
(0.00306971 0.0281494 0)
(0.0043632 0.00380075 0)
(0.00932769 -0.0281656 0)
(0.0171185 -0.0722455 0)
(0.0254169 -0.132362 0)
(0.0340669 -0.20391 0)
(0.0426761 -0.283833 0)
(0.0501862 -0.368181 0)
(0.0562973 -0.453252 0)
(0.0606559 -0.536076 0)
(0.06319 -0.614323 0)
(0.0639657 -0.686245 0)
(0.0629989 -0.750645 0)
(0.0604419 -0.806729 0)
(0.0567325 -0.854345 0)
(-0.00537745 0.0796711 0)
(-0.000629345 0.0748556 0)
(0.00342021 0.0656689 0)
(0.00551409 0.0522906 0)
(0.0075907 0.0334115 0)
(0.0129716 0.00578347 0)
(0.0213373 -0.0336801 0)
(0.0327765 -0.0905717 0)
(0.0486391 -0.166627 0)
(0.0675292 -0.257384 0)
(0.0865481 -0.357698 0)
(0.103099 -0.462323 0)
(0.115729 -0.566585 0)
(0.123952 -0.665983 0)
(0.127893 -0.757177 0)
(0.127933 -0.837908 0)
(0.124614 -0.907138 0)
(0.118545 -0.964745 0)
(0.110409 -1.01122 0)
(0.100701 -1.04694 0)
(0.0900028 -1.0733 0)
(0.0791422 -1.09196 0)
(0.000256608 0.0603522 0)
(0.00926603 0.0420833 0)
(0.017779 0.0175362 0)
(0.0262181 -0.016731 0)
(0.0387095 -0.0674561 0)
(0.0578444 -0.13729 0)
(0.0824909 -0.226214 0)
(0.110043 -0.331557 0)
(0.137405 -0.446668 0)
(0.161593 -0.56351 0)
(0.18021 -0.675154 0)
(0.191825 -0.776636 0)
(0.196206 -0.865097 0)
(0.194111 -0.939242 0)
(0.186799 -0.999275 0)
(0.17564 -1.04635 0)
(0.161865 -1.08213 0)
(0.14646 -1.10815 0)
(0.130405 -1.12677 0)
(0.114482 -1.13957 0)
(0.0990746 -1.14812 0)
(0.0845349 -1.15318 0)
(0.0197417 0.00836709 0)
(0.0348646 -0.0299455 0)
(0.0527996 -0.0822418 0)
(0.0762445 -0.15421 0)
(0.106767 -0.24775 0)
(0.142214 -0.35864 0)
(0.178245 -0.479635 0)
(0.210463 -0.602147 0)
(0.235532 -0.717973 0)
(0.251714 -0.821015 0)
(0.258626 -0.907887 0)
(0.256925 -0.977803 0)
(0.248085 -1.03195 0)
(0.234003 -1.07268 0)
(0.216543 -1.10278 0)
(0.197249 -1.12489 0)
(0.177265 -1.14119 0)
(0.157419 -1.15329 0)
(0.138192 -1.16258 0)
(0.119744 -1.16933 0)
(0.102075 -1.17355 0)
(0.0854113 -1.17508 0)
(0.0567376 -0.0793096 0)
(0.084642 -0.148503 0)
(0.11943 -0.237958 0)
(0.160483 -0.34712 0)
(0.204223 -0.469545 0)
(0.245435 -0.595554 0)
(0.2793 -0.715596 0)
(0.302695 -0.822254 0)
(0.31459 -0.911308 0)
(0.315736 -0.981715 0)
(0.307942 -1.03492 0)
(0.293445 -1.0739 0)
(0.274493 -1.10214 0)
(0.253051 -1.12293 0)
(0.23059 -1.13883 0)
(0.208039 -1.15158 0)
(0.18588 -1.16215 0)
(0.164361 -1.17094 0)
(0.143597 -1.1781 0)
(0.123526 -1.18354 0)
(0.103965 -1.18683 0)
(0.0851424 -1.18732 0)
(0.119178 -0.207068 0)
(0.163883 -0.309247 0)
(0.213772 -0.427735 0)
(0.263775 -0.554518 0)
(0.307949 -0.679055 0)
(0.341535 -0.791972 0)
(0.362063 -0.887187 0)
(0.369466 -0.962512 0)
(0.365507 -1.01906 0)
(0.352888 -1.05998 0)
(0.334421 -1.08923 0)
(0.312464 -1.11059 0)
(0.28873 -1.12697 0)
(0.264415 -1.14037 0)
(0.240239 -1.15197 0)
(0.216473 -1.16234 0)
(0.193104 -1.1716 0)
(0.170233 -1.17955 0)
(0.148045 -1.18608 0)
(0.126499 -1.19121 0)
(0.105196 -1.19442 0)
(0.083956 -1.19526 0)
(0.206842 -0.364557 0)
(0.263705 -0.487942 0)
(0.318377 -0.614968 0)
(0.364339 -0.735056 0)
(0.396991 -0.839593 0)
(0.414638 -0.924034 0)
(0.418232 -0.987999 0)
(0.410462 -1.03422 0)
(0.394608 -1.06691 0)
(0.373654 -1.09033 0)
(0.349901 -1.108 0)
(0.324792 -1.12233 0)
(0.29909 -1.13464 0)
(0.273487 -1.14544 0)
(0.248289 -1.15499 0)
(0.223549 -1.1633 0)
(0.199508 -1.16961 0)
(0.176142 -1.17516 0)
(0.15316 -1.17997 0)
(0.130614 -1.1838 0)
(0.108082 -1.18675 0)
(0.0840795 -1.18706 0)
(0.308907 -0.529113 0)
(0.367158 -0.654414 0)
(0.414438 -0.76927 0)
(0.446325 -0.866015 0)
(0.461795 -0.94148 0)
(0.462672 -0.996755 0)
(0.452294 -1.03563 0)
(0.434314 -1.06285 0)
(0.411741 -1.08262 0)
(0.386571 -1.09786 0)
(0.360218 -1.11013 0)
(0.333477 -1.12011 0)
(0.306882 -1.12714 0)
(0.280574 -1.13355 0)
(0.254427 -1.13743 0)
(0.228658 -1.1392 0)
(0.20348 -1.13902 0)
(0.178603 -1.13685 0)
(0.153734 -1.13248 0)
(0.129371 -1.12707 0)
(0.105379 -1.1225 0)
(0.0786135 -1.11701 0)
(0.410419 -0.676967 0)
(0.458999 -0.786919 0)
(0.490613 -0.877176 0)
(0.504746 -0.945629 0)
(0.503847 -0.99444 0)
(0.491783 -1.02813 0)
(0.472339 -1.05146 0)
(0.448666 -1.06813 0)
(0.422823 -1.08034 0)
(0.395868 -1.08839 0)
(0.368166 -1.09409 0)
(0.3399 -1.09524 0)
(0.311357 -1.09124 0)
(0.282167 -1.08019 0)
(0.252392 -1.06049 0)
(0.222903 -1.03163 0)
(0.194454 -0.994261 0)
(0.167339 -0.948761 0)
(0.141675 -0.895913 0)
(0.11768 -0.838468 0)
(0.0955827 -0.782974 0)
(0.067484 -0.731038 0)
(0.00112335 -0.00140457 0)
(0.00136872 -0.00493962 0)
(0.000442244 -0.00656435 0)
(-0.000824745 -0.00391142 0)
(-0.00127382 0.00302458 0)
(-0.00134025 0.0123169 0)
(-0.000711516 0.0209564 0)
(7.53262e-05 0.0266087 0)
(0.000752779 0.0282341 0)
(0.00106632 0.0264701 0)
(0.000901311 0.0227851 0)
(0.000438929 0.0188351 0)
(-2.7104e-06 0.0160728 0)
(-0.00041389 0.0152547 0)
(-0.00082739 0.0165347 0)
(-0.00113617 0.0200256 0)
(-0.00108103 0.0249469 0)
(-0.000737634 0.0297834 0)
(0.00413151 -0.0022424 0)
(0.00365538 -0.00698211 0)
(-0.00101591 -0.00616204 0)
(-0.00707355 0.0036919 0)
(-0.0119651 0.0197465 0)
(-0.0129389 0.0381484 0)
(-0.0101409 0.0545899 0)
(-0.00510612 0.066015 0)
(0.000205156 0.070969 0)
(0.00410374 0.069656 0)
(0.0056998 0.0637885 0)
(0.0050506 0.0561325 0)
(0.0027787 0.0495245 0)
(-0.000302428 0.0460327 0)
(-0.0034462 0.0465358 0)
(-0.00619511 0.0512272 0)
(-0.00713895 0.0585025 0)
(-0.00645699 0.0653735 0)
(0.00724565 -0.00239433 0)
(0.00431787 -0.00480446 0)
(-0.00760033 0.00299254 0)
(-0.020393 0.0214992 0)
(-0.0283874 0.0457869 0)
(-0.0287613 0.0699127 0)
(-0.0224774 0.0894848 0)
(-0.0124182 0.102048 0)
(-0.00171447 0.106899 0)
(0.00683378 0.104789 0)
(0.0113455 0.0975258 0)
(0.0114333 0.087855 0)
(0.00783174 0.0787855 0)
(0.00191637 0.0728565 0)
(-0.00464737 0.0713438 0)
(-0.0106338 0.0742704 0)
(-0.0124028 0.0784434 0)
(-0.0100463 0.0806493 0)
(0.00908933 -0.00146498 0)
(0.000329136 0.000139582 0)
(-0.0208456 0.0174297 0)
(-0.0406154 0.0462879 0)
(-0.050113 0.0780912 0)
(-0.0474504 0.105704 0)
(-0.0355347 0.1256 0)
(-0.0189309 0.136135 0)
(-0.00209715 0.137806 0)
(0.0112878 0.132405 0)
(0.0187105 0.122212 0)
(0.0195731 0.110051 0)
(0.0146636 0.0986997 0)
(0.00589219 0.0904687 0)
(-0.00387372 0.0863643 0)
(-0.011724 0.084397 0)
(-0.011554 0.0807096 0)
(-0.00742174 0.0728012 0)
(0.00867914 -0.000355829 0)
(-0.0102081 0.00735969 0)
(-0.0430265 0.0361848 0)
(-0.06803 0.0752394 0)
(-0.0754708 0.111734 0)
(-0.0665967 0.139244 0)
(-0.0467618 0.156372 0)
(-0.0224474 0.16187 0)
(0.0008877 0.158121 0)
(0.0188607 0.148795 0)
(0.028673 0.134906 0)
(0.0298556 0.119773 0)
(0.0234374 0.105901 0)
(0.0121453 0.0948204 0)
(0.000570907 0.0858758 0)
(-0.00573815 0.0751079 0)
(-0.00323076 0.0598663 0)
(0.00640618 0.0377626 0)
(0.00548173 0.000636915 0)
(-0.0292396 0.0171139 0)
(-0.0742857 0.0585875 0)
(-0.100206 0.10416 0)
(-0.10107 0.139955 0)
(-0.0828165 0.163073 0)
(-0.0535323 0.172347 0)
(-0.0208198 0.170465 0)
(0.00819639 0.162629 0)
(0.0295333 0.149045 0)
(0.0411065 0.13223 0)
(0.0422543 0.114686 0)
(0.0344339 0.0982723 0)
(0.0216745 0.0831025 0)
(0.0109337 0.0667072 0)
(0.00874777 0.0448438 0)
(0.0172352 0.0146845 0)
(0.0341891 -0.0259951 0)
(-0.00227145 0.00195904 0)
(-0.0580786 0.0304035 0)
(-0.111944 0.0813812 0)
(-0.132542 0.126885 0)
(-0.122427 0.156377 0)
(-0.0924349 0.171646 0)
(-0.0536076 0.170368 0)
(-0.0150941 0.163327 0)
(0.0182072 0.150609 0)
(0.0425922 0.133516 0)
(0.0555401 0.114337 0)
(0.0565508 0.0947329 0)
(0.04794 0.0752875 0)
(0.0359685 0.0545924 0)
(0.0295639 0.0286256 0)
(0.0348382 -0.00737737 0)
(0.0528525 -0.056861 0)
(0.0817002 -0.122979 0)
(-0.0156874 0.00314179 0)
(-0.0963815 0.0456712 0)
(-0.151467 0.0995368 0)
(-0.159725 0.138374 0)
(-0.135504 0.159351 0)
(-0.0937551 0.157867 0)
(-0.0473011 0.150103 0)
(-0.00437419 0.137458 0)
(0.0316116 0.121602 0)
(0.0576892 0.103091 0)
(0.0714395 0.082764 0)
(0.0725115 0.061326 0)
(0.0647201 0.0382492 0)
(0.056933 0.0104247 0)
(0.0590438 -0.0282366 0)
(0.0760655 -0.0830164 0)
(0.1082 -0.157104 0)
(0.153269 -0.252143 0)
(-0.0351544 0.00664411 0)
(-0.140582 0.0600108 0)
(-0.186993 0.108582 0)
(-0.1768 0.139316 0)
(-0.137593 0.139226 0)
(-0.0861846 0.131325 0)
(-0.0362079 0.117519 0)
(0.0087209 0.101082 0)
(0.0462469 0.0830975 0)
(0.0736469 0.0631704 0)
(0.0883317 0.041452 0)
(0.0903847 0.0177221 0)
(0.0862892 -0.0101497 0)
(0.0875245 -0.0486297 0)
(0.102961 -0.104795 0)
(0.136044 -0.182569 0)
(0.185171 -0.282505 0)
(0.24553 -0.401442 0)
(-0.0623723 0.0145913 0)
(-0.184109 0.0695411 0)
(-0.212457 0.107562 0)
(-0.183676 0.118671 0)
(-0.130442 0.112698 0)
(-0.0745608 0.0981154 0)
(-0.0226253 0.080332 0)
(0.0236979 0.0612198 0)
(0.0623602 0.0407828 0)
(0.0908495 0.0186387 0)
(0.106508 -0.00517235 0)
(0.111685 -0.0324971 0)
(0.116085 -0.0692026 0)
(0.131257 -0.123545 0)
(0.164103 -0.200863 0)
(0.215128 -0.301723 0)
(0.279219 -0.421695 0)
(0.347887 -0.551605 0)
(0.500829 -0.794339 0)
(0.532226 -0.878712 0)
(0.545355 -0.9413 0)
(0.543142 -0.984889 0)
(0.529802 -1.01424 0)
(0.509541 -1.03378 0)
(0.485275 -1.04603 0)
(0.458426 -1.05374 0)
(0.42944 -1.05536 0)
(0.398287 -1.04856 0)
(0.364604 -1.02999 0)
(0.328473 -0.997625 0)
(0.290279 -0.950155 0)
(0.250449 -0.886858 0)
(0.210146 -0.809716 0)
(0.170704 -0.721709 0)
(0.13308 -0.625453 0)
(0.097959 -0.522946 0)
(0.0651275 -0.415963 0)
(0.0322556 -0.306384 0)
(-0.000611649 -0.205353 0)
(-0.0156677 -0.127867 0)
(0.571671 -0.873703 0)
(0.58408 -0.931249 0)
(0.580909 -0.970317 0)
(0.566681 -0.995395 0)
(0.545411 -1.00984 0)
(0.519485 -1.01736 0)
(0.489562 -1.0154 0)
(0.455284 -1.00117 0)
(0.416025 -0.971375 0)
(0.371658 -0.923575 0)
(0.322788 -0.856832 0)
(0.270742 -0.772873 0)
(0.217333 -0.674454 0)
(0.164766 -0.56678 0)
(0.115291 -0.456053 0)
(0.0704647 -0.34836 0)
(0.0312058 -0.249444 0)
(-0.00158082 -0.164625 0)
(-0.0265527 -0.0956731 0)
(-0.0479538 -0.0408604 0)
(-0.0721964 0.00060665 0)
(-0.087146 0.00509975 0)
(0.619893 -0.91626 0)
(0.616099 -0.951467 0)
(0.600984 -0.972109 0)
(0.578085 -0.981163 0)
(0.548844 -0.979395 0)
(0.513145 -0.963193 0)
(0.470274 -0.929436 0)
(0.419903 -0.875804 0)
(0.36263 -0.801262 0)
(0.300361 -0.708045 0)
(0.236028 -0.600973 0)
(0.173017 -0.486976 0)
(0.11481 -0.373882 0)
(0.0646046 -0.269665 0)
(0.0244709 -0.180757 0)
(-0.0052642 -0.111425 0)
(-0.0264177 -0.060697 0)
(-0.0410195 -0.0240761 0)
(-0.0518774 0.000798602 0)
(-0.0620948 0.0174259 0)
(-0.0744175 0.0223454 0)
(-0.0680767 0.0121971 0)
(0.649006 -0.929081 0)
(0.632669 -0.943989 0)
(0.606882 -0.947737 0)
(0.572508 -0.934577 0)
(0.529215 -0.903453 0)
(0.47629 -0.851299 0)
(0.414219 -0.777183 0)
(0.344954 -0.683236 0)
(0.271973 -0.574619 0)
(0.199797 -0.459169 0)
(0.133066 -0.345689 0)
(0.0757471 -0.242498 0)
(0.0305031 -0.155964 0)
(-0.00200231 -0.0893907 0)
(-0.0238962 -0.04104 0)
(-0.0383641 -0.00621305 0)
(-0.0478296 0.0168645 0)
(-0.0537805 0.0301016 0)
(-0.0582541 0.0354088 0)
(-0.0628825 0.0344288 0)
(-0.0658321 0.0252959 0)
(-0.0504556 0.00776226 0)
(0.66133 -0.916357 0)
(0.632156 -0.911591 0)
(0.591706 -0.887647 0)
(0.539833 -0.842803 0)
(0.476886 -0.775269 0)
(0.404274 -0.686276 0)
(0.325509 -0.580548 0)
(0.245471 -0.465786 0)
(0.169641 -0.35121 0)
(0.102983 -0.245616 0)
(0.0489068 -0.155545 0)
(0.00865926 -0.0843154 0)
(-0.0190649 -0.0313846 0)
(-0.037249 0.00714641 0)
(-0.0483575 0.0336844 0)
(-0.0542998 0.0501905 0)
(-0.0562788 0.0586041 0)
(-0.0562233 0.059851 0)
(-0.0553734 0.0547467 0)
(-0.0545765 0.0446509 0)
(-0.0518809 0.028176 0)
(-0.0356898 0.00692794 0)
(0.654429 -0.875463 0)
(0.607767 -0.842513 0)
(0.547723 -0.786228 0)
(0.475515 -0.707179 0)
(0.394138 -0.608342 0)
(0.308317 -0.496617 0)
(0.224001 -0.381054 0)
(0.146962 -0.270988 0)
(0.081664 -0.173943 0)
(0.0304023 -0.0941582 0)
(-0.00697234 -0.0324571 0)
(-0.0326097 0.0135819 0)
(-0.0488567 0.0464949 0)
(-0.057813 0.0685209 0)
(-0.060927 0.0814042 0)
(-0.0600222 0.086622 0)
(-0.0565065 0.085204 0)
(-0.0511005 0.07835 0)
(-0.0455414 0.0668663 0)
(-0.0403042 0.0512771 0)
(-0.0336791 0.0303774 0)
(-0.0202012 0.00588352 0)
(0.62273 -0.801416 0)
(0.555089 -0.73693 0)
(0.474841 -0.649834 0)
(0.386219 -0.545175 0)
(0.295095 -0.430988 0)
(0.207946 -0.316893 0)
(0.130428 -0.211558 0)
(0.06623 -0.120971 0)
(0.016596 -0.0476597 0)
(-0.0195091 0.00886403 0)
(-0.0443338 0.0511216 0)
(-0.0594682 0.0810243 0)
(-0.0667248 0.099706 0)
(-0.0676596 0.109962 0)
(-0.0644452 0.112589 0)
(-0.0580571 0.109182 0)
(-0.0497546 0.100868 0)
(-0.0406099 0.0884314 0)
(-0.0315896 0.0727368 0)
(-0.0227807 0.0539804 0)
(-0.0134938 0.0309403 0)
(-0.00489067 0.00490115 0)
(0.564196 -0.696383 0)
(0.476845 -0.604342 0)
(0.382014 -0.496728 0)
(0.286413 -0.382184 0)
(0.196791 -0.270247 0)
(0.118475 -0.168746 0)
(0.0544375 -0.0823306 0)
(0.00520545 -0.01247 0)
(-0.0305054 0.0415667 0)
(-0.0548031 0.0815213 0)
(-0.0693982 0.109184 0)
(-0.0751312 0.126153 0)
(-0.0742226 0.133175 0)
(-0.0692733 0.133058 0)
(-0.0606103 0.128002 0)
(-0.0502493 0.11855 0)
(-0.0387433 0.105765 0)
(-0.0268883 0.0901832 0)
(-0.0153163 0.0724377 0)
(-0.0038377 0.0524657 0)
(0.00710058 0.0290822 0)
(0.0100532 0.00434614 0)
(0.48317 -0.57072 0)
(0.382691 -0.462231 0)
(0.282794 -0.348771 0)
(0.190343 -0.23931 0)
(0.11037 -0.140937 0)
(0.0453259 -0.0573468 0)
(-0.00472346 0.010688 0)
(-0.0407774 0.0637983 0)
(-0.0645865 0.102278 0)
(-0.0782461 0.12807 0)
(-0.0832068 0.142241 0)
(-0.0806902 0.14661 0)
(-0.0732009 0.145036 0)
(-0.0635888 0.138383 0)
(-0.0519794 0.127805 0)
(-0.0390489 0.114896 0)
(-0.0255035 0.100196 0)
(-0.0118983 0.0838655 0)
(0.00147398 0.0661675 0)
(0.0148881 0.046779 0)
(0.0265326 0.0248173 0)
(0.0234614 0.00438037 0)
(0.389396 -0.440486 0)
(0.285059 -0.329243 0)
(0.18917 -0.22285 0)
(0.106516 -0.127606 0)
(0.0392488 -0.0466338 0)
(-0.0127785 0.0198004 0)
(-0.0504441 0.071847 0)
(-0.0742358 0.109819 0)
(-0.0865377 0.133631 0)
(-0.0898885 0.146849 0)
(-0.0862087 0.150731 0)
(-0.0780838 0.146177 0)
(-0.0669037 0.13721 0)
(-0.0541765 0.125481 0)
(-0.0406762 0.112677 0)
(-0.0266364 0.0993543 0)
(-0.0121717 0.0854428 0)
(0.00249836 0.0706144 0)
(0.017198 0.054778 0)
(0.0320081 0.0374771 0)
(0.0435235 0.0185215 0)
(0.0347287 0.00268687 0)
(0.294353 -0.321718 0)
(0.194439 -0.219233 0)
(0.108225 -0.127839 0)
(0.0376917 -0.0503268 0)
(-0.017438 0.0133331 0)
(-0.0574587 0.0633342 0)
(-0.0830825 0.0990637 0)
(-0.0952656 0.12187 0)
(-0.0969542 0.136212 0)
(-0.0927267 0.136078 0)
(-0.0821968 0.130587 0)
(-0.0692337 0.120788 0)
(-0.0560177 0.109135 0)
(-0.0429058 0.0973568 0)
(-0.029596 0.086137 0)
(-0.0156199 0.0753424 0)
(-0.000773337 0.064392 0)
(0.0147353 0.0526696 0)
(0.0306221 0.0398811 0)
(0.0465031 0.0256654 0)
(0.0568718 0.0106899 0)
(0.0409106 -0.000720453 0)
(0.207535 -0.225993 0)
(0.117226 -0.139525 0)
(0.0428126 -0.066773 0)
(-0.0158854 -0.00798007 0)
(-0.059601 0.0373122 0)
(-0.0874336 0.0691963 0)
(-0.101942 0.0906458 0)
(-0.104626 0.0984215 0)
(-0.0988365 0.100642 0)
(-0.0868606 0.0969254 0)
(-0.0731808 0.0895562 0)
(-0.0594616 0.0803866 0)
(-0.0464792 0.0710316 0)
(-0.0341246 0.0625088 0)
(-0.0215228 0.0550108 0)
(-0.00775095 0.0480639 0)
(0.00753537 0.0408671 0)
(0.0239625 0.0327527 0)
(0.0410033 0.0234441 0)
(0.057519 0.0129492 0)
(0.0658324 0.00345378 0)
(0.0431922 -0.00341838 0)
(0.134959 -0.159308 0)
(0.056583 -0.0927068 0)
(-0.00569561 -0.040553 0)
(-0.0525089 -0.00259929 0)
(-0.0847109 0.0224449 0)
(-0.102743 0.0358985 0)
(-0.108661 0.0429145 0)
(-0.10526 0.0460395 0)
(-0.0955443 0.0465514 0)
(-0.0819405 0.0450875 0)
(-0.0670669 0.0419431 0)
(-0.052967 0.0375935 0)
(-0.0404891 0.0329102 0)
(-0.0290041 0.0286824 0)
(-0.017004 0.0250973 0)
(-0.00321537 0.0217707 0)
(0.0127133 0.0179582 0)
(0.0301513 0.0130602 0)
(0.0481823 0.00704339 0)
(0.0645913 0.000301328 0)
(0.0705485 -0.00319087 0)
(0.041591 -0.00423157 0)
(0.0800444 -0.123511 0)
(0.0147405 -0.0792978 0)
(-0.0349737 -0.0504386 0)
(-0.0702123 -0.0353165 0)
(-0.0933054 -0.0294312 0)
(-0.106253 -0.0266544 0)
(-0.110705 -0.0231966 0)
(-0.107075 -0.0181522 0)
(-0.0968275 -0.0122878 0)
(-0.0821517 -0.00678076 0)
(-0.0661119 -0.00268256 0)
(-0.0512677 -0.000508188 0)
(-0.0386306 3.67823e-05 0)
(-0.0273238 -0.000258018 0)
(-0.0153829 -0.000772725 0)
(-0.00123835 -0.00139571 0)
(0.0154222 -0.00264997 0)
(0.0338141 -0.00496399 0)
(0.0525352 -0.00802048 0)
(0.0672756 -0.0106717 0)
(0.0688556 -0.00925741 0)
(0.0369395 -0.00360214 0)
(0.0452597 -0.118321 0)
(-0.00598798 -0.0988218 0)
(-0.0435711 -0.0942122 0)
(-0.0717049 -0.0973405 0)
(-0.0935357 -0.100361 0)
(-0.108688 -0.0991315 0)
(-0.115753 -0.093247 0)
(-0.114099 -0.0833733 0)
(-0.104582 -0.0707231 0)
(-0.0894339 -0.0570193 0)
(-0.071899 -0.0442909 0)
(-0.0551272 -0.0342944 0)
(-0.0408141 -0.0277551 0)
(-0.0284329 -0.0241164 0)
(-0.0158559 -0.0221264 0)
(-0.0011282 -0.0208187 0)
(0.016194 -0.0201416 0)
(0.0352069 -0.0201914 0)
(0.0535902 -0.0202254 0)
(0.0656014 -0.0183673 0)
(0.0634777 -0.0131331 0)
(0.0307161 -0.00294486 0)
(0.0323386 -0.141561 0)
(-0.00612135 -0.146042 0)
(-0.0376135 -0.158224 0)
(-0.0667582 -0.168127 0)
(-0.0926596 -0.172423 0)
(-0.112506 -0.170764 0)
(-0.124058 -0.163089 0)
(-0.126159 -0.149572 0)
(-0.119057 -0.131083 0)
(-0.104468 -0.109412 0)
(-0.0854225 -0.0872626 0)
(-0.0655386 -0.0677279 0)
(-0.0476502 -0.0531591 0)
(-0.0324394 -0.0440697 0)
(-0.0182385 -0.03901 0)
(-0.00267559 -0.0358621 0)
(0.0151613 -0.0334325 0)
(0.0342179 -0.0312519 0)
(0.0514217 -0.0282411 0)
(0.0609642 -0.0226883 0)
(0.0548943 -0.014106 0)
(0.0237552 -0.00225548 0)
(0.039068 -0.185531 0)
(0.00657863 -0.204729 0)
(-0.0266247 -0.221529 0)
(-0.0603109 -0.232638 0)
(-0.0913418 -0.238254 0)
(-0.116719 -0.23785 0)
(-0.134024 -0.23059 0)
(-0.141632 -0.215969 0)
(-0.139022 -0.194196 0)
(-0.12697 -0.166588 0)
(-0.107647 -0.135767 0)
(-0.0844901 -0.105594 0)
(-0.0613313 -0.0801782 0)
(-0.0408239 -0.0622329 0)
(-0.0230507 -0.05162 0)
(-0.00589062 -0.045623 0)
(0.0123593 -0.0412728 0)
(0.0309212 -0.0369511 0)
(0.0464243 -0.0313633 0)
(0.0531873 -0.0231533 0)
(0.0446001 -0.0124502 0)
(0.0174241 -0.00147456 0)
(0.0569107 -0.233652 0)
(0.0230754 -0.255864 0)
(-0.0143954 -0.272744 0)
(-0.0524811 -0.285191 0)
(-0.0883529 -0.293068 0)
(-0.119414 -0.29542 0)
(-0.143222 -0.290873 0)
(-0.157757 -0.278273 0)
(-0.161742 -0.256914 0)
(-0.154869 -0.227247 0)
(-0.137998 -0.190984 0)
(-0.113468 -0.151589 0)
(-0.0850735 -0.114002 0)
(-0.0571203 -0.0832723 0)
(-0.0326269 -0.0623707 0)
(-0.0116612 -0.0503372 0)
(0.00765965 -0.0430914 0)
(0.0256673 -0.0367652 0)
(0.0394854 -0.0294392 0)
(0.0441226 -0.0200563 0)
(0.034875 -0.00936663 0)
(0.0125222 -0.000745158 0)
(0.0772758 -0.271731 0)
(0.0395407 -0.292103 0)
(-0.00151872 -0.308561 0)
(-0.042982 -0.321991 0)
(-0.0828217 -0.332064 0)
(-0.118962 -0.337859 0)
(-0.149177 -0.337743 0)
(-0.17132 -0.330013 0)
(-0.183423 -0.31283 0)
(-0.184169 -0.285738 0)
(-0.17316 -0.24922 0)
(-0.151083 -0.205241 0)
(-0.120381 -0.158028 0)
(-0.0854109 -0.113516 0)
(-0.0515224 -0.0777419 0)
(-0.0227048 -0.0539636 0)
(0.00040083 -0.0404459 0)
(0.0189813 -0.0316333 0)
(0.0318681 -0.0234236 0)
(0.0355642 -0.01449 0)
(0.0271931 -0.00569937 0)
(0.00929332 -0.000136495 0)
(0.0959578 -0.295018 0)
(0.0548963 -0.312727 0)
(0.0114516 -0.328092 0)
(-0.0322923 -0.341547 0)
(-0.0748159 -0.352902 0)
(-0.114658 -0.361279 0)
(-0.150192 -0.36631 0)
(-0.179552 -0.365043 0)
(-0.200275 -0.354936 0)
(-0.210189 -0.334349 0)
(-0.207899 -0.302871 0)
(-0.192555 -0.260623 0)
(-0.164559 -0.209933 0)
(-0.126568 -0.155651 0)
(-0.084094 -0.104946 0)
(-0.0441131 -0.064852 0)
(-0.0120653 -0.0389833 0)
(0.010598 -0.0247199 0)
(0.0245646 -0.0154278 0)
(0.0288275 -0.00785484 0)
(0.0223009 -0.0018835 0)
(0.00790689 0.000373234 0)
(0.111767 -0.304374 0)
(0.0684881 -0.3194 0)
(0.0235993 -0.333093 0)
(-0.0214543 -0.345836 0)
(-0.0655034 -0.357651 0)
(-0.107517 -0.368026 0)
(-0.146504 -0.37577 0)
(-0.181259 -0.378985 0)
(-0.209689 -0.37785 0)
(-0.229159 -0.3669 0)
(-0.237225 -0.344167 0)
(-0.231777 -0.309099 0)
(-0.211492 -0.262062 0)
(-0.176435 -0.205318 0)
(-0.130082 -0.144996 0)
(-0.079837 -0.0896281 0)
(-0.0348171 -0.0473347 0)
(-0.00201276 -0.0217414 0)
(0.0170927 -0.00874732 0)
(0.0241175 -0.00185308 0)
(0.0202214 0.00175256 0)
(0.00823919 0.000858392 0)
(0.124654 -0.302369 0)
(0.0800809 -0.314751 0)
(0.0345532 -0.326516 0)
(-0.0109159 -0.338136 0)
(-0.0555397 -0.349762 0)
(-0.0987364 -0.361169 0)
(-0.139803 -0.371611 0)
(-0.177831 -0.379724 0)
(-0.211729 -0.383335 0)
(-0.239544 -0.380581 0)
(-0.258046 -0.368593 0)
(-0.263881 -0.343598 0)
(-0.254616 -0.305635 0)
(-0.228134 -0.253978 0)
(-0.184408 -0.191809 0)
(-0.12871 -0.127009 0)
(-0.0710739 -0.0697158 0)
(-0.0232962 -0.0290486 0)
(0.00690767 -0.00739503 0)
(0.0202237 0.00124228 0)
(0.0202227 0.0036945 0)
(0.00995913 0.00119155 0)
(0.134871 -0.291923 0)
(0.0896812 -0.30185 0)
(0.0441506 -0.311684 0)
(-0.0010212 -0.321885 0)
(-0.0453847 -0.33266 0)
(-0.0886602 -0.343853 0)
(-0.130568 -0.355025 0)
(-0.170662 -0.365442 0)
(-0.208238 -0.373837 0)
(-0.24196 -0.378024 0)
(-0.269418 -0.375385 0)
(-0.286398 -0.361363 0)
(-0.289354 -0.334497 0)
(-0.275097 -0.293476 0)
(-0.240237 -0.236942 0)
(-0.185814 -0.170241 0)
(-0.119859 -0.103175 0)
(-0.0561359 -0.0479374 0)
(-0.00918731 -0.0136908 0)
(0.0147607 0.000720089 0)
(0.0206416 0.00337886 0)
(0.011951 0.00170701 0)
(0.142845 -0.276114 0)
(0.0974779 -0.284209 0)
(0.052263 -0.292622 0)
(0.00763913 -0.301654 0)
(-0.0361705 -0.311436 0)
(-0.079036 -0.321858 0)
(-0.120884 -0.332646 0)
(-0.161574 -0.343389 0)
(-0.200816 -0.353386 0)
(-0.238019 -0.361246 0)
(-0.271834 -0.36505 0)
(-0.298777 -0.36469 0)
(-0.313816 -0.3471 0)
(-0.312954 -0.3185 0)
(-0.291235 -0.273197 0)
(-0.244933 -0.211776 0)
(-0.177455 -0.141719 0)
(-0.101044 -0.0754483 0)
(-0.0347594 -0.0270407 0)
(0.00537433 -0.00337638 0)
(0.0199169 0.00219791 0)
(0.0139306 0.00241032 0)
(0.149274 -0.257442 0)
(0.104093 -0.264371 0)
(0.0594047 -0.271845 0)
(0.0154215 -0.279995 0)
(-0.0277881 -0.288864 0)
(-0.0701672 -0.298403 0)
(-0.111747 -0.308445 0)
(-0.152531 -0.318758 0)
(-0.192404 -0.328997 0)
(-0.231029 -0.338402 0)
(-0.26789 -0.345447 0)
(-0.301683 -0.34838 0)
(-0.327637 -0.347499 0)
(-0.339899 -0.327729 0)
(-0.332908 -0.295924 0)
(-0.299954 -0.245384 0)
(-0.238527 -0.179264 0)
(-0.155894 -0.107653 0)
(-0.0712757 -0.0465779 0)
(-0.0099086 -0.0109058 0)
(0.016801 0.000241659 0)
(0.015419 0.00216965 0)
(0.154776 -0.23753 0)
(0.109981 -0.243762 0)
(0.0658594 -0.250594 0)
(0.0224797 -0.258044 0)
(-0.0201591 -0.266098 0)
(-0.0620383 -0.274742 0)
(-0.103231 -0.283873 0)
(-0.143826 -0.293359 0)
(-0.183897 -0.303032 0)
(-0.223354 -0.312533 0)
(-0.26185 -0.321104 0)
(-0.298686 -0.327296 0)
(-0.331877 -0.329071 0)
(-0.355549 -0.324595 0)
(-0.363124 -0.303796 0)
(-0.346118 -0.266984 0)
(-0.297268 -0.210533 0)
(-0.216709 -0.140196 0)
(-0.119052 -0.0703656 0)
(-0.0341062 -0.0207932 0)
(0.00981965 -0.0014348 0)
(0.0158386 0.00120784 0)
(0.159748 -0.217267 0)
(0.1154 -0.223084 0)
(0.0717953 -0.229468 0)
(0.0289202 -0.236375 0)
(-0.0132592 -0.243747 0)
(-0.054736 -0.251581 0)
(-0.0955818 -0.259811 0)
(-0.135888 -0.268347 0)
(-0.175801 -0.277131 0)
(-0.215468 -0.28602 0)
(-0.254897 -0.294687 0)
(-0.293662 -0.302437 0)
(-0.330445 -0.307798 0)
(-0.362061 -0.308067 0)
(-0.381909 -0.29921 0)
(-0.38092 -0.275303 0)
(-0.348665 -0.231824 0)
(-0.278155 -0.168808 0)
(-0.175741 -0.0960842 0)
(-0.0695089 -0.0342101 0)
(-0.00199304 -0.00370338 0)
(0.0153824 0.000490233 0)
(0.164426 -0.197061 0)
(0.120511 -0.202614 0)
(0.0773507 -0.208661 0)
(0.0348831 -0.215132 0)
(-0.00694428 -0.221938 0)
(-0.0481307 -0.229084 0)
(-0.088731 -0.236526 0)
(-0.12882 -0.244173 0)
(-0.168536 -0.252015 0)
(-0.208085 -0.260026 0)
(-0.247692 -0.268116 0)
(-0.287372 -0.275989 0)
(-0.326417 -0.282858 0)
(-0.36264 -0.286936 0)
(-0.391368 -0.284914 0)
(-0.404305 -0.271815 0)
(-0.389617 -0.241614 0)
(-0.334952 -0.190044 0)
(-0.236728 -0.120669 0)
(-0.114992 -0.0510667 0)