/*--------------------------------*- C++ -*----------------------------------*\
| =========                 |                                                 |
| \\      /  F ield         | OpenFOAM: The Open Source CFD Toolbox           |
|  \\    /   O peration     | Version:  v2012                                 |
|   \\  /    A nd           | Website:  www.openfoam.com                      |
|    \\/     M anipulation  |                                                 |
\*---------------------------------------------------------------------------*/
FoamFile
{
    version     2.0;
    format      ascii;
    class       volScalarField;
    location    "619";
    object      age;
}
// * * * * * * * * * * * * * * * * * * * * * * * * * * * * * * * * * * * * * //

dimensions      [0 0 1 0 0 0 0];


internalField   nonuniform List<scalar> 
6057
(
0.489312
0.464164
0.439015
0.413868
0.388724
0.363585
0.338451
0.313324
0.288204
0.263092
0.237988
0.212892
0.187806
0.162729
0.137662
0.112607
0.0875626
0.0625304
0.0375104
0.0125019
0.487428
0.462448
0.437461
0.412469
0.387474
0.362477
0.337478
0.312479
0.287479
0.262479
0.237479
0.212479
0.18748
0.162481
0.137483
0.112486
0.0874895
0.0624933
0.037497
0.0124996
0.486956
0.46202
0.437076
0.412126
0.38717
0.362211
0.337248
0.312283
0.287315
0.262344
0.237371
0.212396
0.187418
0.162438
0.137456
0.112471
0.0874826
0.0624916
0.0374972
0.0124997
0.486781
0.461862
0.436934
0.411999
0.387059
0.362114
0.337166
0.312213
0.287258
0.262299
0.237336
0.21237
0.187401
0.162427
0.13745
0.112468
0.0874824
0.0624921
0.0374977
0.0124998
0.486727
0.461811
0.436886
0.411956
0.38702
0.36208
0.337137
0.312189
0.287238
0.262283
0.237325
0.212362
0.187396
0.162424
0.137449
0.112468
0.0874829
0.0624926
0.0374979
0.0124998
0.48675
0.461828
0.436898
0.411964
0.387026
0.362084
0.337139
0.312191
0.287239
0.262284
0.237325
0.212363
0.187396
0.162425
0.137449
0.112468
0.0874829
0.0624926
0.0374979
0.0124998
0.486851
0.461912
0.436969
0.412023
0.387075
0.362125
0.337173
0.312218
0.287261
0.262301
0.237337
0.212371
0.187401
0.162428
0.13745
0.112468
0.0874825
0.0624922
0.0374977
0.0124998
0.487075
0.462102
0.437133
0.412164
0.387196
0.362228
0.33726
0.31229
0.287319
0.262347
0.237373
0.212397
0.187419
0.162439
0.137456
0.112471
0.0874827
0.0624916
0.0374972
0.0124997
0.487593
0.46257
0.437539
0.412522
0.387509
0.362499
0.337493
0.312488
0.287485
0.262482
0.237481
0.21248
0.187481
0.162482
0.137484
0.112486
0.0874896
0.0624933
0.037497
0.0124996
0.485508
0.465276
0.438891
0.413986
0.388754
0.363615
0.338468
0.313336
0.288211
0.263096
0.23799
0.212894
0.187807
0.162729
0.137663
0.112607
0.0875627
0.0625304
0.0375104
0.0125019
1.02393
0.995918
0.968586
0.941811
0.915491
0.889542
0.86389
0.838473
0.813237
0.788139
0.76314
0.738209
0.713321
0.688458
0.663604
0.638749
0.613887
0.589015
0.564132
0.539239
0.514338
1.01613
0.988575
0.961667
0.935293
0.909353
0.883764
0.858454
0.833362
0.808436
0.783632
0.758912
0.734247
0.709612
0.684989
0.660364
0.635727
0.611073
0.5864
0.561709
0.537002
0.51228
1.01263
0.985476
0.958914
0.93284
0.907161
0.881799
0.856687
0.831768
0.806993
0.78232
0.757717
0.733154
0.70861
0.684068
0.659515
0.634944
0.61035
0.585734
0.561095
0.536437
0.511762
1.01101
0.98403
0.957617
0.931673
0.906109
0.880852
0.855835
0.831003
0.806309
0.781711
0.757176
0.732675
0.708185
0.68369
0.659178
0.634642
0.610077
0.585485
0.560868
0.536228
0.511571
1.00993
0.983057
0.956744
0.930893
0.905419
0.880245
0.855306
0.830548
0.805922
0.781387
0.756907
0.732456
0.708009
0.683549
0.659064
0.634548
0.609999
0.585416
0.560804
0.536168
0.511514
1.00927
0.982498
0.956278
0.93051
0.905108
0.879997
0.855114
0.830404
0.80582
0.781323
0.756877
0.732454
0.708031
0.683589
0.659117
0.634607
0.610058
0.585471
0.560852
0.536207
0.511544
1.0094
0.982771
0.956651
0.930946
0.905576
0.880472
0.855579
0.830848
0.806235
0.781704
0.757225
0.732771
0.708322
0.683858
0.659367
0.634838
0.610267
0.585658
0.561014
0.536346
0.511662
1.01193
0.985233
0.959004
0.933161
0.90763
0.882351
0.857271
0.832342
0.807521
0.782777
0.758089
0.733437
0.708811
0.684216
0.659674
0.635129
0.610561
0.585955
0.561307
0.53662
0.511911
1.01056
0.98463
0.959491
0.934935
0.91077
0.886933
0.86327
0.838992
0.814247
0.789109
0.763778
0.738645
0.713407
0.688098
0.662773
0.637531
0.61237
0.587294
0.562298
0.537373
0.51252
1.04851
1.03393
1.02062
1.00758
0.993751
0.978203
0.960201
0.93933
0.915453
0.888687
0.859423
0.828149
0.795416
0.761803
0.727863
0.694049
0.660599
0.627652
0.595291
0.563411
0.531889
10.5982
11.0827
11.6026
12.7779
3.25913
1.91091
1.69668
1.5691
1.48184
1.41329
1.35606
1.30626
1.26176
1.22119
1.18364
1.14848
1.11522
1.08351
1.05305
9.73185
11.0486
11.2939
7.08592
2.22973
1.77756
1.63658
1.53205
1.45561
1.39265
1.33889
1.29141
1.24857
1.20925
1.17269
1.13834
1.10578
1.07467
1.04476
9.33079
10.7686
8.00175
3.42168
1.90723
1.70045
1.59162
1.50372
1.43524
1.37694
1.3262
1.28085
1.23959
1.20153
1.16599
1.13249
1.10065
1.07017
1.0408
8.53981
8.14932
4.47496
2.08475
1.8032
1.65641
1.56334
1.48555
1.42215
1.36715
1.31861
1.27481
1.23471
1.19751
1.16264
1.12967
1.09824
1.06808
1.03897
7.22522
5.54552
2.72553
1.88897
1.74895
1.6302
1.54564
1.47406
1.41397
1.36121
1.31414
1.27135
1.23194
1.19523
1.16071
1.12798
1.09675
1.06675
1.03778
6.10538
3.8053
2.1143
1.83823
1.7184
1.61355
1.53426
1.46663
1.40876
1.35749
1.31137
1.26919
1.23017
1.19372
1.15939
1.12682
1.09572
1.06585
1.037
5.29698
2.89706
1.97878
1.81378
1.69926
1.60265
1.52696
1.462
1.40565
1.35529
1.30962
1.26766
1.22879
1.1925
1.15838
1.12605
1.09521
1.06558
1.03695
4.67922
2.44813
1.93613
1.7994
1.68668
1.59565
1.5223
1.45878
1.40292
1.35274
1.30738
1.26611
1.22821
1.1929
1.15956
1.12782
1.09738
1.06799
1.03947
4.22851
2.26845
1.91533
1.78975
1.67853
1.59123
1.51921
1.45677
1.40234
1.35447
1.31169
1.27197
1.23359
1.19621
1.16085
1.12765
1.09619
1.0663
1.03773
3.90834
2.19047
1.90508
1.78314
1.67352
1.58874
1.51797
1.45716
1.40382
1.3542
1.30458
1.25421
1.20799
1.17564
1.15146
1.12795
1.10598
1.08534
1.06555
14.779
22.8012
31.9382
41.6911
51.4817
60.7992
69.2315
76.4877
82.4041
86.9331
90.1051
92.4187
93.9383
94.8141
95.2836
95.5891
95.7845
95.9416
96.3434
96.5835
94.8122
62.3637
77.3885
90.1106
100.308
107.748
112.652
115.425
116.659
116.861
116.661
116.252
115.625
114.878
114.115
113.41
112.814
112.361
112.088
111.922
111.808
111.747
107.762
117.89
124.276
127.856
129.569
130.192
130.204
129.807
128.921
127.378
125.383
123.073
120.623
118.219
116.028
114.193
112.831
111.985
111.571
111.41
111.33
135.829
141.505
145.439
148.308
150.289
151.273
151.124
149.816
147.475
144.226
140.225
135.673
130.82
125.955
121.396
117.47
114.469
112.555
111.627
111.299
111.187
158.052
164.338
169.53
173.372
175.664
176.362
175.527
173.246
169.602
164.706
158.714
151.84
144.37
136.675
129.217
122.538
117.196
113.612
111.815
111.225
111.019
182.563
190.443
196.554
200.757
203.065
203.517
202.147
199.002
194.152
187.7
179.794
170.647
160.552
149.919
139.306
129.446
121.197
115.341
112.22
111.219
110.899
209.045
217.896
224.609
229.193
231.64
231.926
230.055
226.066
220.029
212.055
202.297
190.967
178.356
164.874
151.116
137.929
126.431
117.815
112.885
111.266
110.813
236.074
245.857
253.348
258.468
261.123
261.254
258.856
253.972
246.689
237.145
225.519
212.042
197.009
180.821
164.059
147.602
132.728
121.017
113.858
111.36
110.735
263.38
274.366
282.837
288.601
291.509
291.475
288.487
282.604
273.951
262.71
249.115
233.441
216.007
197.214
177.612
158.047
139.844
124.869
115.143
111.502
110.665
291.134
303.584
313.211
319.735
322.946
322.723
319.051
312.02
301.812
288.684
272.95
254.952
235.062
213.694
191.374
168.886
147.507
129.255
116.726
111.688
110.602
319.508
333.671
344.658
352.084
355.657
355.208
350.727
342.351
330.346
315.081
296.977
276.474
254.013
230.04
205.069
179.814
155.454
134.026
118.573
111.914
110.543
348.639
364.804
377.399
385.9
389.902
389.177
383.727
373.756
359.656
341.941
321.183
297.949
272.764
246.117
218.514
190.608
163.462
139.029
120.639
112.174
110.489
378.652
397.161
411.66
421.436
425.939
424.874
418.257
406.393
389.838
369.304
345.559
319.329
291.242
261.83
231.588
201.114
171.356
144.124
122.868
112.462
110.439
409.656
430.899
447.631
458.903
463.985
462.495
454.479
440.376
420.956
397.187
370.082
340.562
309.377
277.1
244.205
211.226
179.004
149.188
125.202
112.768
110.392
441.718
466.116
485.437
498.441
504.177
502.158
492.475
475.746
453.014
425.563
394.702
361.583
327.096
291.856
256.296
220.869
186.314
154.121
127.585
113.088
110.348
474.839
502.831
525.114
540.095
546.552
543.879
532.229
512.451
485.933
454.34
419.325
382.304
344.32
306.028
267.802
229.988
193.218
158.842
129.965
113.412
110.306
508.947
540.976
566.6
583.803
591.04
587.559
573.609
550.332
519.541
483.351
443.808
402.609
360.958
319.543
278.667
238.539
199.669
163.289
132.291
113.734
110.265
543.886
580.383
609.721
629.386
637.442
632.977
616.364
589.117
553.569
512.356
467.953
422.35
376.902
332.325
288.837
246.486
205.635
167.416
134.522
114.047
110.227
579.415
620.782
654.188
676.537
685.431
679.772
660.107
628.417
587.652
541.04
491.512
441.346
392.032
344.296
298.26
253.794
211.09
171.189
136.618
114.345
110.189
615.207
661.796
699.586
724.809
734.53
727.438
704.314
667.719
621.327
569.018
514.191
459.391
406.213
355.374
306.884
260.431
216.013
174.583
138.548
114.62
110.153
650.844
702.93
745.361
773.608
784.107
775.311
748.311
706.386
654.044
595.848
535.66
476.256
419.301
365.47
314.66
266.367
220.387
177.58
140.282
114.868
110.117
685.8
743.561
790.811
822.169
833.351
822.552
791.273
743.664
685.168
621.04
555.563
491.702
431.144
374.499
321.538
271.572
224.193
180.165
141.795
115.084
110.082
719.43
782.915
835.054
869.525
881.233
868.119
832.221
778.69
714.006
644.072
573.532
505.482
441.588
382.37
327.467
276.016
227.415
182.326
143.064
115.263
110.048
751.017
820.083
877.011
914.453
926.447
910.739
870.024
810.522
739.826
664.413
589.201
517.355
450.485
388.996
332.399
279.67
230.031
184.051
144.07
115.4
110.014
779.834
854.084
915.439
955.502
967.436
948.92
903.436
838.176
761.894
681.546
602.221
527.095
457.69
394.292
336.284
282.503
232.021
185.326
144.793
115.491
109.98
805.19
883.988
949.104
991.1
1002.48
981.078
931.179
860.694
779.524
694.996
612.274
534.494
463.075
398.178
339.073
284.482
233.36
186.137
145.216
115.532
109.947
826.432
908.767
976.548
1019.64
1029.52
1005.75
952.078
877.222
792.122
704.359
619.092
539.377
466.523
400.579
340.718
285.573
234.021
186.463
145.326
115.516
109.913
842.995
927.946
998.089
1039.04
1045.88
1021.81
965.212
887.1
799.237
709.329
622.466
541.603
467.938
401.428
341.169
285.738
233.975
186.284
145.118
115.425
109.879
854.48
940.76
1010.76
1045.43
1050.87
1028.65
970.022
889.922
800.59
709.713
622.261
541.071
467.245
400.666
340.38
284.938
233.19
185.577
144.591
115.226
109.845
860.533
946.534
1015.27
1046.76
1049.53
1026.44
966.327
885.565
796.096
705.441
618.413
537.725
464.391
398.243
338.305
283.134
231.626
184.311
143.729
114.923
109.811
861.046
945.227
1011.57
1043.24
1044.88
1015.83
954.27
874.092
785.82
696.556
610.939
531.558
459.349
394.12
334.898
280.274
229.239
182.446
142.51
114.516
109.776
856.034
936.905
999.416
1031.4
1030.85
996.064
934.309
855.979
770.067
683.245
599.944
522.612
452.122
388.271
330.113
276.306
225.977
179.943
140.906
114.002
109.74
845.693
921.926
979.278
1007.98
1003.56
967.654
907.409
831.894
749.287
665.804
585.607
510.981
442.737
380.681
323.91
271.175
221.786
176.767
138.903
113.387
109.703
830.376
900.899
952.163
975.976
968.663
932.657
874.607
802.622
724.065
644.636
568.18
496.803
431.251
371.35
316.247
264.823
216.612
172.879
136.488
112.683
109.664
810.569
874.616
919.294
937.886
928.046
892.432
837.055
769.08
695.079
620.213
547.972
480.256
417.746
360.289
307.092
257.191
210.401
168.246
133.654
111.911
109.623
786.847
843.957
881.913
895.478
883.405
848.43
795.935
732.205
663.047
593.058
525.334
461.551
402.328
347.525
296.412
248.226
203.105
162.849
130.413
111.1
109.578
759.829
809.818
841.186
850.06
836.046
801.868
752.325
692.907
628.697
563.714
500.638
440.921
385.119
333.092
284.183
237.881
194.695
156.692
126.8
110.291
109.529
730.155
773.072
798.176
802.779
787.101
753.815
707.198
652.034
592.727
532.714
474.26
418.609
366.253
317.033
270.388
226.13
185.174
149.82
122.897
109.496
109.486
698.45
734.53
753.815
754.581
737.503
705.174
661.405
610.355
555.778
500.552
446.556
394.856
345.865
299.389
255.023
212.981
174.597
142.337
118.848
108.824
109.525
665.304
694.916
708.888
706.261
688.035
656.708
615.679
568.529
518.404
467.659
417.849
369.888
324.08
280.206
238.113
198.505
163.106
134.443
114.927
108.398
109.644
631.248
654.848
664.039
658.451
639.322
609.037
570.613
527.088
481.041
434.383
388.418
343.9
300.998
259.531
219.745
182.887
150.98
126.481
111.707
108.313
109.871
596.742
614.839
619.765
611.639
591.848
562.639
526.652
486.409
444.002
400.995
358.486
317.041
276.696
237.454
200.129
166.493
138.701
119.004
109.293
108.225
110.243
562.173
575.295
576.479
566.216
545.977
517.841
484.063
446.708
407.483
367.688
328.213
289.398
251.24
214.169
179.689
149.955
127.02
112.797
107.973
108.405
110.859
527.845
536.517
534.452
522.416
501.906
474.784
442.938
408.07
371.596
334.581
297.672
260.999
224.766
190.11
159.187
134.247
117.019
108.996
107.828
109.271
111.696
493.974
498.696
493.834
480.343
459.668
433.437
403.237
370.497
336.387
301.706
266.845
231.891
197.644
166.126
139.843
120.751
110.236
107.561
108.917
111.093
112.634
460.671
461.912
454.648
439.939
419.131
393.649
364.86
333.956
301.827
268.986
235.682
202.334
170.747
143.646
123.35
111.246
107.444
108.942
111.705
113.534
113.614
427.949
426.117
416.767
400.999
380.071
355.255
327.713
298.357
267.777
236.289
204.307
173.133
145.69
124.733
111.779
107.399
109.102
113.016
116.288
116.746
114.69
395.722
391.152
379.963
363.287
342.308
318.132
291.662
263.496
234.028
203.645
173.441
146.05
124.936
111.803
107.26
109.31
114.744
120.614
123.013
120.773
115.842
363.869
356.84
344.058
326.671
305.734
282.125
256.447
229.098
200.553
171.698
144.9
123.942
111.323
107.031
109.551
116.681
125.786
131.9
131.577
125.336
117.155
332.299
323.1
309.006
291.081
270.173
246.93
221.736
195.123
168.006
142.309
121.969
110.398
106.83
109.828
118.55
130.819
141.625
145.793
141.031
129.944
118.337
301.049
289.976
274.763
256.301
235.279
212.203
187.507
162.364
138.372
119.076
109.045
106.509
109.985
120.108
134.9
150.1
160.12
160.404
150.19
134.069
119.228
270.219
257.393
241.041
221.943
200.78
178.03
154.768
133.14
115.477
107.205
106.082
110.082
121.264
137.538
155.67
171.068
178.211
173.428
157.741
137.208
119.783
239.633
224.966
207.485
187.909
167.057
145.68
126.392
111.633
105.076
105.441
110.375
122.144
138.58
157.397
175.953
189.506
192.653
182.677
162.56
139.033
119.992
208.804
192.542
174.344
155.02
135.83
118.618
107.49
103.228
104.646
111.079
123.079
138.152
155.328
173.705
191.02
201.604
201.615
186.666
163.756
139.017
120.073
177.978
161.069
142.82
125.6
111.109
103.362
101.88
104.461
112.408
124.134
136.658
149.992
165.744
182.464
197.061
205.2
198.68
183.608
160.891
136.97
120.15
149.074
132.161
115.413
104.564
100.042
100.929
105.581
114.912
125.743
134.309
142.827
154.038
167.788
180.948
190.431
193.426
187.837
173.944
153.899
133.155
120.229
123.925
107.663
98.6782
98.046
101.323
108.983
118.812
127.291
131.501
134.825
141.831
150.587
159.938
168.509
174.245
175.154
170.081
158.968
143.64
128.416
120.314
102.531
93.9166
96.6198
105.468
115.568
124.363
127.056
127.174
128.717
131.554
135.381
140.21
145.338
149.822
152.555
152.484
148.931
141.888
132.672
124.159
120.414
86.9262
97.1302
110.912
124.194
125.826
125.19
124.966
124.979
125.261
125.964
127.144
128.709
130.43
131.936
132.782
132.562
131.002
128.137
124.568
121.579
120.538
82.0569
125.072
124.783
124.343
124.183
123.93
123.704
123.502
123.318
123.16
123.024
122.906
122.798
122.697
122.599
122.494
122.289
121.927
121.495
121.221
121.238
3.68671
2.14959
1.90088
1.77886
1.671
1.58816
1.51863
1.45818
1.4022
1.34773
1.29939
1.27269
1.27733
1.36271
1.59618
2.10769
3.13819
5.12739
8.77269
3.53463
2.12689
1.90012
1.77673
1.67074
1.58956
1.52054
1.45791
1.39725
1.34393
1.32117
1.3805
1.65417
2.34674
4.11293
8.51809
17.2435
30.0254
45.8037
3.42975
2.11473
1.90164
1.77674
1.67266
1.59236
1.52113
1.4519
1.38722
1.35579
1.42764
1.77318
2.96234
7.06881
16.703
32.6929
53.0276
73.9921
93.0114
3.3548
2.10899
1.90483
1.77878
1.67635
1.59521
1.51889
1.44475
1.39343
1.39302
1.54974
3.15404
9.2486
23.0386
44.3047
69.4457
93.6165
113.122
126.966
3.29951
2.10751
1.90944
1.78269
1.68115
1.59681
1.51356
1.43955
1.41563
1.52524
2.55692
9.22719
24.8841
49.4114
78.2906
105.194
126.074
140.52
150.493
3.25805
2.10909
1.91538
1.78817
1.68624
1.59686
1.50934
1.4487
1.45331
1.62283
6.68255
22.0982
47.7995
79.5738
109.869
133.488
150.174
162.61
173.192
3.22689
2.11302
1.92256
1.79488
1.69122
1.5961
1.50819
1.46992
1.55192
3.44623
15.702
40.3467
73.6415
107.751
135.513
155.668
171.278
185.193
198.013
3.20373
2.11886
1.93088
1.80246
1.69571
1.59537
1.51547
1.49751
1.62132
7.88594
28.7736
61.2914
98.5425
131.494
156.282
175.524
192.867
209.238
223.864
3.18695
2.12629
1.94023
1.81068
1.70006
1.59626
1.52715
1.56446
2.67543
15.4849
44.3305
82.3727
120.487
151.15
174.676
195.422
215.38
233.798
249.877
3.17539
2.13509
1.95048
1.81932
1.70466
1.60144
1.55204
1.6169
5.2095
25.4579
60.7616
101.928
139.168
168.192
192.488
215.825
238.149
258.293
275.994
3.16813
2.14506
1.96153
1.82845
1.71035
1.6098
1.5771
1.66496
9.29352
36.6871
76.8313
119.271
155.205
183.959
210.36
236.354
260.707
282.699
302.405
3.1645
2.15606
1.97328
1.83788
1.71625
1.62507
1.61946
2.03016
14.843
48.3045
91.7948
134.395
169.433
199.206
228.233
256.615
282.969
307.167
329.258
3.16394
2.16797
1.98566
1.84784
1.72434
1.64067
1.65823
3.03784
21.4534
59.681
105.331
147.629
182.524
214.181
245.85
276.435
305.019
331.815
356.647
3.16597
2.18068
1.99859
1.85846
1.73462
1.6609
1.68975
4.63253
28.437
70.4326
117.401
159.374
194.881
228.853
263.003
295.797
326.94
356.699
384.632
3.17022
2.19409
2.01206
1.86983
1.74687
1.68328
1.72023
6.71757
35.4123
80.356
128.11
169.973
206.685
243.101
279.584
314.732
348.763
381.822
413.242
3.17641
2.20814
2.02603
1.88202
1.76076
1.70625
1.75082
9.17672
42.1394
89.3708
137.613
179.669
217.979
256.802
295.55
333.257
370.47
407.154
442.462
3.18428
2.22275
2.04049
1.89502
1.776
1.72965
1.78148
11.8924
48.4702
97.4786
146.074
188.619
228.738
269.869
310.884
351.356
392.005
432.623
472.22
3.19362
2.23787
2.05542
1.90888
1.79221
1.75226
1.81165
14.7457
54.3202
104.723
153.636
196.914
238.923
282.251
325.571
368.984
413.279
458.119
502.381
3.20426
2.25346
2.07081
1.92329
1.8095
1.77848
1.95052
17.6775
59.6514
111.171
160.418
204.608
248.498
293.916
339.587
386.072
434.178
483.487
532.745
3.21605
2.26947
2.08661
1.93815
1.82932
1.80844
2.18302
20.4997
64.4557
116.888
166.51
211.724
257.435
304.846
352.895
402.533
454.565
508.53
563.047
3.22886
2.28587
2.1028
1.95367
1.84845
1.83488
2.47765
23.1204
68.7417
121.938
171.976
218.27
265.71
315.021
365.45
418.263
474.273
533.005
592.958
3.24257
2.30263
2.11938
1.96986
1.86752
1.85922
2.80708
25.5023
72.5282
126.375
176.863
224.249
273.306
324.419
377.183
433.128
493.087
556.6
622.057
3.25709
2.31971
2.13633
1.98666
1.88679
1.88277
3.14836
27.6291
75.8383
130.248
181.205
229.654
280.204
333.006
388.013
446.976
510.767
578.957
649.845
3.27234
2.3371
2.15363
2.00401
1.90628
1.90595
3.4827
29.4943
78.6963
133.596
185.026
234.484
286.391
340.754
397.868
459.671
527.083
599.716
675.795
3.28826
2.35477
2.17126
2.02183
1.92597
1.92888
3.79514
31.0971
81.1253
136.454
188.345
238.735
291.857
347.64
406.686
471.088
541.821
618.534
699.396
3.30479
2.37272
2.18922
2.04008
1.94583
1.95162
4.07412
32.4402
83.147
138.849
191.178
242.409
296.6
353.645
414.411
481.118
554.785
635.094
720.164
3.32188
2.39092
2.20747
2.05871
1.96584
1.97421
4.31114
33.5287
84.7812
140.805
193.537
245.507
300.619
358.752
420.997
489.666
565.807
649.119
737.668
3.3395
2.40937
2.22602
2.07769
1.98593
1.99667
4.5003
34.3687
86.0453
142.342
195.432
248.034
303.915
362.953
426.409
496.656
574.749
660.377
751.532
3.35763
2.42806
2.24484
2.097
2.00645
2.01902
4.63798
34.9675
86.9552
143.477
196.875
249.995
306.493
366.24
430.621
502.031
581.506
668.688
761.471
3.37626
2.44699
2.26394
2.1166
2.02721
2.04128
4.72264
35.3323
87.5235
144.222
197.873
251.396
308.357
368.613
433.617
505.754
586.006
673.93
767.282
3.3953
2.46615
2.2833
2.1365
2.04809
2.06347
4.75326
35.4719
87.765
144.592
198.434
252.245
309.515
370.074
435.392
507.807
588.209
676.031
768.883
3.4148
2.48549
2.30293
2.15667
2.06908
2.08549
4.7602
35.3828
87.6765
144.587
198.569
252.548
309.975
370.63
435.948
508.188
588.118
675.007
766.276
3.43433
2.50549
2.32272
2.17711
2.0902
2.10735
4.74701
35.0728
87.2653
144.207
198.28
252.318
309.742
370.287
435.3
506.92
585.763
670.908
759.562
3.45387
2.5262
2.34268
2.1978
2.11146
2.12907
4.71532
34.5521
86.5387
143.455
197.572
251.564
308.823
369.057
433.471
504.037
581.207
663.843
748.938
3.47345
2.54761
2.3628
2.21875
2.13287
2.15066
4.66678
33.8328
85.5034
142.336
196.449
250.294
307.228
366.955
430.487
499.591
574.539
653.973
734.689
3.49308
2.56968
2.38309
2.23996
2.15443
2.17213
4.6032
32.9286
84.1656
140.853
194.913
248.513
304.968
363.998
426.385
493.648
565.877
641.504
717.164
3.51275
2.59242
2.40355
2.26141
2.17615
2.1935
4.52647
31.8543
82.5315
139.006
192.965
246.229
302.056
360.206
421.203
486.286
555.36
626.675
696.762
3.53249
2.61584
2.4242
2.28312
2.19804
2.21479
4.4386
30.6262
80.6075
136.797
190.606
243.448
298.505
355.599
414.985
477.593
543.147
609.752
673.91
3.55231
2.63993
2.44505
2.30509
2.22012
2.23601
4.34167
29.2619
78.4012
134.226
187.834
240.177
294.329
350.2
407.78
467.666
529.408
591.02
649.047
3.5722
2.66471
2.46611
2.32731
2.24241
2.25718
4.23775
27.7802
75.9217
131.293
184.647
236.42
289.545
344.036
399.636
456.604
514.322
570.766
622.605
3.5922
2.69018
2.48739
2.34978
2.2649
2.27832
4.12894
26.2015
73.1803
127.999
181.043
232.184
284.17
337.131
390.603
444.508
498.068
549.274
594.991
3.61229
2.71635
2.5089
2.37252
2.28763
2.29945
4.01725
24.547
70.1915
124.344
177.018
227.474
278.221
329.517
380.732
431.474
480.817
526.806
566.574
3.6325
2.74322
2.53065
2.3955
2.3106
2.32059
3.90467
22.8391
66.9732
120.333
172.569
222.293
271.718
321.222
370.072
417.593
462.723
503.601
537.675
3.65284
2.7708
2.55267
2.41875
2.33384
2.34176
3.79303
21.101
63.5475
115.972
167.695
216.644
264.679
312.28
358.669
402.941
443.919
479.859
508.56
3.6733
2.79908
2.57496
2.44225
2.35735
2.36299
3.68406
19.3562
59.9415
111.272
162.394
210.529
257.124
302.726
346.571
387.587
424.508
455.734
479.427
3.69392
2.82807
2.59753
2.466
2.38116
2.38431
3.5793
17.6282
56.1862
106.25
156.668
203.951
249.069
292.597
333.825
371.584
404.569
431.333
450.397
3.71469
2.85775
2.62041
2.49
2.40527
2.40574
3.4801
15.9405
52.3233
100.929
150.523
196.912
240.533
281.932
320.478
354.985
384.154
406.71
421.518
3.73562
2.88812
2.6436
2.51424
2.42971
2.42732
3.38761
14.3137
48.3738
95.3418
143.973
189.416
231.533
270.769
306.584
337.842
363.304
381.885
392.769
3.75673
2.91916
2.6671
2.53873
2.45447
2.44907
3.30272
12.7897
44.3659
89.5261
137.041
181.474
222.085
259.148
292.204
320.216
342.063
356.862
364.1
3.77801
2.95083
2.69094
2.56344
2.47957
2.47103
3.2261
11.4033
40.3578
83.53
129.762
173.104
212.208
247.111
277.405
302.187
320.495
331.669
335.472
3.79949
2.98305
2.71508
2.58839
2.505
2.49322
3.1582
10.1643
36.4167
77.4148
122.187
164.339
201.928
234.699
262.26
283.845
298.688
306.37
306.91
3.82116
3.01601
2.73963
2.61354
2.53076
2.51568
3.09924
9.07276
32.6107
71.2558
114.383
155.227
191.282
221.96
246.84
265.291
276.754
281.055
278.52
3.84303
3.04957
2.76466
2.63891
2.55685
2.53841
3.04923
8.12329
29.0028
65.1402
106.436
145.843
180.328
208.951
231.222
246.617
254.793
255.825
250.375
3.86511
3.08342
2.79017
2.66447
2.58324
2.56146
3.008
7.30758
25.6473
59.1641
98.4559
136.288
169.151
195.75
215.483
227.909
232.871
230.756
222.218
3.8874
3.11742
2.81616
2.69022
2.60992
2.58482
2.97521
6.61525
22.5865
53.4266
90.5674
126.694
157.876
182.468
199.726
209.234
211.102
205.605
193.551
3.90989
3.15146
2.84259
2.71616
2.63687
2.60851
2.95039
6.03462
19.8487
48.0228
82.9104
117.221
146.669
169.266
184.101
190.74
189.506
179.985
165.149
3.93258
3.18542
2.86941
2.74226
2.66404
2.63252
2.93294
5.55341
17.447
43.0355
75.6277
108.055
135.74
156.37
168.81
172.787
167.854
155.098
139.824
3.95548
3.21919
2.89656
2.76852
2.69141
2.65685
2.92224
5.15928
15.3803
38.53
68.8559
99.3934
125.336
144.074
154.296
155.368
147.328
134.473
119.293
3.97854
3.25265
2.92398
2.79491
2.71895
2.68148
2.91757
4.8404
13.6326
34.543
62.7043
91.4167
115.714
132.69
141.208
138.905
131.954
119.769
101.806
4.00218
3.2857
2.95158
2.82142
2.74661
2.70645
2.91838
4.58536
12.1879
31.108
57.2822
84.3177
107.16
122.671
129.664
126.44
124.475
108.079
87.3353
4.02082
3.31482
2.97632
2.84513
2.77137
2.72864
2.9224
4.40725
11.1073
28.453
53.0251
78.7235
100.467
115.112
120.076
122.135
122.441
98.6555
81.1074
4.03927
3.34011
2.9981
2.86603
2.79317
2.74937
2.9289
4.27694
10.3201
26.4623
49.7963
74.4896
95.4766
109.88
112.745
125.426
121.65
93.2597
79.7509
4.05753
3.36509
3.0199
2.88696
2.81499
2.77007
2.9377
4.17079
9.66167
24.76
47.0184
70.8767
91.3244
105.74
108.973
132.563
121.469
94.56
79.6072
79.5499
78.9877
78.6761
78.5309
78.4244
78.3312
78.2365
78.1338
78.0203
77.8959
77.7629
77.626
77.4929
77.3746
77.2653
77.1371
77.0056
77.8656
80.6982
92.4385
140.662
97.2928
95.1438
93.7198
93.2311
92.8654
92.5321
92.0787
91.4466
90.597
89.5144
88.1973
86.6581
84.9289
83.0854
81.2309
79.4579
77.846
76.5984
76.2012
76.3708
78.2918
130.725
128.187
126.92
126.471
126.109
125.572
124.626
123.141
121.04
118.283
114.859
110.786
106.108
100.909
95.3362
89.6376
84.2224
79.6777
76.6538
75.5342
75.3069
169.788
169.581
169.932
170.415
170.549
170.063
168.692
166.271
162.698
157.92
151.924
144.735
136.416
127.084
116.94
106.331
95.8509
86.4397
79.3713
75.8562
74.9891
210.947
214.674
217.792
220.068
221.243
221.123
219.472
216.125
210.982
204
195.187
184.597
172.33
158.548
143.5
127.595
111.52
96.4279
84.0898
76.7794
74.8534
252.916
261.411
268.069
272.79
275.499
276.066
274.292
270.036
263.224
253.844
241.953
227.665
211.158
192.677
172.552
151.255
129.526
108.608
90.5715
78.4639
74.7395
295.164
308.905
319.65
327.346
332.026
333.582
331.85
326.726
318.169
306.218
290.993
272.697
251.616
228.124
202.685
175.878
148.5
121.815
98.0374
80.8175
74.6434
337.282
356.524
371.721
382.797
389.803
392.612
391.086
385.157
374.828
360.195
341.454
318.907
292.969
264.169
233.149
200.662
167.62
135.299
105.911
83.5651
74.559
378.911
403.753
423.624
438.386
447.997
452.285
451.114
444.445
432.331
414.94
392.56
365.606
334.625
300.31
263.497
225.16
186.404
148.585
113.857
86.5176
74.483
419.739
450.212
474.921
493.617
506.079
512.049
511.361
503.989
490.049
469.804
443.667
412.186
376.053
336.116
293.399
249.107
204.595
161.385
121.603
89.545
74.413
459.518
495.646
525.37
548.243
563.812
571.674
571.582
563.51
547.648
524.393
494.327
458.179
416.807
371.21
322.575
272.316
222.055
173.561
129.002
92.5529
74.3477
498.074
539.91
574.856
602.187
621.158
631.143
631.762
622.96
605.021
578.523
544.284
503.275
456.559
405.292
350.793
294.64
238.705
185.051
135.975
95.4796
74.286
535.282
582.914
623.329
655.447
678.16
690.536
691.985
682.402
662.181
632.138
593.409
547.282
495.081
438.137
377.869
315.963
254.494
195.833
142.489
98.2862
74.2272
571.051
624.591
670.745
708.017
734.857
749.92
752.335
741.905
719.161
685.224
641.634
590.086
532.228
469.586
403.665
336.196
269.39
205.909
148.534
100.949
74.1707
605.295
664.859
717.029
759.843
791.219
809.296
812.825
801.481
775.951
737.739
688.89
631.598
567.897
499.535
428.086
355.275
283.372
215.287
154.116
103.454
74.1159
637.913
703.603
762.049
810.791
847.125
868.561
873.369
861.041
832.452
789.576
735.074
671.725
602.004
527.907
451.067
373.155
296.427
223.981
159.248
105.794
74.0627
668.778
740.66
805.605
860.632
902.343
927.498
933.763
920.386
888.462
840.542
780.02
710.342
634.464
554.643
472.564
389.808
308.549
232.008
163.945
107.966
74.0108
697.729
775.813
847.416
909.041
956.529
985.767
993.681
979.195
943.666
890.347
823.493
747.284
665.179
579.689
492.546
405.216
319.737
239.384
168.226
109.969
73.9601
724.57
808.795
887.132
955.592
1009.22
1042.9
1052.67
1037.03
997.635
938.605
865.186
782.343
694.027
602.987
510.989
419.372
329.996
246.125
172.109
111.806
73.9103
749.074
839.286
924.326
999.76
1059.83
1098.32
1110.17
1093.32
1049.82
984.836
904.729
815.268
720.866
624.471
527.872
432.276
339.334
252.249
175.613
113.479
73.8613
770.988
866.923
958.507
1040.93
1107.64
1151.27
1165.45
1147.38
1099.58
1028.48
941.697
845.778
745.537
644.071
543.181
443.937
347.769
257.777
178.756
114.992
73.8131
790.05
891.314
989.126
1078.38
1151.84
1200.89
1217.65
1198.38
1146.12
1068.91
975.649
873.596
767.895
661.739
556.921
454.381
355.327
262.731
181.558
116.351
73.7654
806.003
912.061
1015.6
1111.32
1191.44
1246.12
1265.74
1245.33
1188.59
1105.47
1006.17
898.511
787.871
677.49
569.141
463.656
362.042
267.135
184.037
117.561
73.7184
818.616
928.792
1037.36
1138.95
1225.37
1285.71
1308.42
1287.07
1226.1
1137.58
1032.93
920.367
805.424
691.349
579.893
471.814
367.951
271.011
186.21
118.626
73.6718
827.703
941.213
1053.95
1160.58
1252.7
1318.44
1344.2
1322.31
1257.84
1164.73
1055.64
939.009
820.477
703.294
589.192
478.883
373.075
274.375
188.088
119.551
73.6257
833.141
949.131
1065.05
1175.7
1272.6
1342.78
1370.48
1349.53
1283.12
1186.52
1074.02
954.258
832.927
713.276
597.03
484.873
377.43
277.239
189.681
120.337
73.5801
834.87
952.453
1070.5
1183.98
1284.45
1357.66
1386.2
1367.79
1301.19
1202.46
1087.76
965.903
842.641
721.224
603.374
489.777
381.018
279.606
190.993
120.985
73.5347
832.884
951.162
1070.24
1185.21
1287.79
1363.84
1399.06
1377.44
1311.32
1212.1
1096.55
973.732
849.477
727.047
608.176
493.57