/*--------------------------------*- C++ -*----------------------------------*\
| =========                 |                                                 |
| \\      /  F ield         | OpenFOAM: The Open Source CFD Toolbox           |
|  \\    /   O peration     | Version:  v2012                                 |
|   \\  /    A nd           | Website:  www.openfoam.com                      |
|    \\/     M anipulation  |                                                 |
\*---------------------------------------------------------------------------*/
FoamFile
{
    version     2.0;
    format      ascii;
    class       volScalarField;
    location    "619";
    object      k;
}
// * * * * * * * * * * * * * * * * * * * * * * * * * * * * * * * * * * * * * //

dimensions      [0 2 -2 0 0 0 0];


internalField   nonuniform List<scalar> 
6057
(
0.0460423
0.0496764
0.053806
0.0585242
0.0639535
0.0702528
0.0776314
0.0863702
0.0968535
0.10962
0.125446
0.145487
0.171526
0.206437
0.255103
0.326341
0.437316
0.624639
0.975709
1.73053
0.112955
0.122085
0.13241
0.144155
0.157601
0.173099
0.191106
0.212218
0.237229
0.267213
0.303653
0.348648
0.405238
0.477957
0.573781
0.703794
0.886232
1.15199
1.55411
2.17918
0.150271
0.162417
0.176131
0.191692
0.209449
0.229846
0.253442
0.280955
0.313323
0.351787
0.398018
0.454308
0.523856
0.611231
0.723089
0.869354
1.06513
1.33388
1.71268
2.26136
0.171998
0.185901
0.201577
0.219334
0.239557
0.262723
0.289432
0.320446
0.356742
0.39959
0.450663
0.512206
0.587277
0.680126
0.796788
0.94605
1.14108
1.40235
1.76331
2.28271
0.182235
0.196972
0.213574
0.232362
0.253733
0.278178
0.306309
0.338898
0.376923
0.421646
0.474708
0.53828
0.615285
0.709737
0.827293
0.976191
1.16892
1.42538
1.77932
2.29194
0.182167
0.196922
0.213537
0.232334
0.253712
0.278162
0.306298
0.338889
0.376917
0.421641
0.474704
0.538278
0.615283
0.709735
0.827293
0.976191
1.16892
1.42538
1.77932
2.29194
0.171797
0.185755
0.201469
0.219255
0.239499
0.262681
0.289402
0.320425
0.356727
0.399579
0.450655
0.512201
0.587273
0.680123
0.796786
0.946049
1.14108
1.40235
1.76331
2.28271
0.149938
0.162189
0.175968
0.191575
0.209367
0.229788
0.2534
0.280925
0.313301
0.351771
0.398007
0.4543
0.52385
0.611226
0.723086
0.869352
1.06513
1.33388
1.71267
2.26136
0.112499
0.121809
0.132222
0.144028
0.157511
0.173035
0.19106
0.212185
0.237205
0.267196
0.303641
0.348639
0.405231
0.477952
0.573777
0.703792
0.88623
1.15199
1.55411
2.17918
0.0459107
0.0495935
0.0537491
0.0584844
0.063925
0.0702322
0.0776164
0.0863593
0.0968455
0.109614
0.125442
0.145484
0.171523
0.206435
0.255101
0.32634
0.437315
0.624639
0.975708
1.73053
0.0145185
0.015309
0.016118
0.0169493
0.0178077
0.0186983
0.0196271
0.0206008
0.0216272
0.0227153
0.0238752
0.0251185
0.0264583
0.0279097
0.0294897
0.0312148
0.0331002
0.0351727
0.0374636
0.0400091
0.0428517
0.0325455
0.0345259
0.036572
0.0386924
0.0408961
0.0431932
0.045596
0.0481185
0.0507776
0.0535931
0.0565879
0.059789
0.0632276
0.0669397
0.0709672
0.0753481
0.0801445
0.0854193
0.0912451
0.0977065
0.104903
0.0441879
0.0466585
0.0492275
0.0519082
0.0547134
0.0576576
0.0607575
0.064032
0.0675034
0.0711974
0.0751438
0.0793776
0.0839388
0.0888741
0.0942327
0.100079
0.106485
0.113532
0.121314
0.12994
0.139539
0.051533
0.0541856
0.0569653
0.0598878
0.0629684
0.0662239
0.0696733
0.0733382
0.0772437
0.0814186
0.0858962
0.0907154
0.0959208
0.101564
0.107703
0.114412
0.121767
0.129859
0.138794
0.148693
0.159701
0.0557271
0.0583493
0.0611186
0.0640524
0.0671676
0.0704827
0.0740186
0.077799
0.0818509
0.086205
0.0908963
0.0959652
0.101458
0.107427
0.11394
0.121068
0.128888
0.137492
0.146987
0.157502
0.169188
0.0572693
0.059668
0.0622209
0.0649462
0.0678622
0.0709896
0.0743517
0.0779752
0.0818895
0.0861276
0.090726
0.0957256
0.101172
0.107121
0.113642
0.120799
0.128662
0.13731
0.146843
0.157389
0.169099
0.0564903
0.0584853
0.0606214
0.0629151
0.0653848
0.0680525
0.070945
0.0740931
0.0775325
0.0813026
0.0854444
0.0900021
0.0950235
0.100569
0.106712
0.113513
0.121035
0.129288
0.13835
0.148351
0.159436
0.0538853
0.0553646
0.0569464
0.0586375
0.0604481
0.0623945
0.0645005
0.0667982
0.0693326
0.0721552
0.075324
0.0789022
0.0829492
0.0875224
0.0927094
0.098571
0.105165
0.112495
0.120544
0.129365
0.139102
0.0504142
0.0514631
0.0525661
0.0537056
0.054866
0.0560362
0.0572117
0.0583969
0.0596069
0.0608699
0.0622393
0.0638638
0.0658494
0.068294
0.0712786
0.0749006
0.0792128
0.0843485
0.0902919
0.0969753
0.104384
0.0471093
0.0479923
0.0489055
0.04981
0.0506656
0.0514296
0.0520527
0.0524757
0.0526255
0.0524176
0.0517621
0.0505769
0.0487558
0.0461831
0.0436297
0.0414847
0.0399629
0.0392425
0.0394703
0.0406244
0.0426832
0.00102934
0.000906888
0.000922423
0.0011923
0.00222623
0.00327341
0.00425781
0.00517804
0.00602325
0.00682999
0.00761458
0.00838525
0.00914746
0.0099052
0.0106617
0.0114196
0.0121816
0.0129502
0.0137283
0.00181537
0.0022311
0.00377553
0.00572304
0.00721259
0.00848453
0.00984103
0.0114373
0.0131393
0.0148093
0.0164747
0.0181466
0.0198323
0.0215385
0.0232713
0.025037
0.0268415
0.0286906
0.0305903
0.00276061
0.00527407
0.0071452
0.00898568
0.010562
0.0122935
0.0144575
0.0169142
0.0193627
0.0217176
0.0239982
0.0262187
0.0284
0.0305632
0.0327286
0.034915
0.0371396
0.0394179
0.0417638
0.00410621
0.00797684
0.00992786
0.0116948
0.0135741
0.0159701
0.0188673
0.0219114
0.0248249
0.0275593
0.0301294
0.0325654
0.0349074
0.0371949
0.0394648
0.0417496
0.044077
0.0464709
0.0489514
0.00557708
0.0104996
0.0123782
0.0142467
0.0165737
0.0195765
0.0229725
0.0263433
0.0294748
0.0323388
0.0349586
0.0373832
0.0396703
0.0418758
0.0440503
0.0462368
0.0484712
0.050783
0.053196
0.00679982
0.0126953
0.0146774
0.0167857
0.0195717
0.0230179
0.0266786
0.0301623
0.0333103
0.03611
0.0385998
0.0408453
0.0429186
0.0448885
0.0468156
0.0487506
0.0507345
0.0528
0.0549724
0.00774963
0.014657
0.0168771
0.0193086
0.0224787
0.0261864
0.0299176
0.0333422
0.0363447
0.0389279
0.0411463
0.0430793
0.0448109
0.0464198
0.0479744
0.0495308
0.0511324
0.0528118
0.0545927
0.00857312
0.0163965
0.0189734
0.021753
0.0252007
0.0290032
0.0326528
0.0358799
0.0386061
0.0408507
0.0426835
0.0441963
0.045485
0.0466381
0.0477317
0.048826
0.0499652
0.0511783
0.0524827
0.00928308
0.0179452
0.020947
0.0240519
0.0276644
0.031427
0.0348727
0.0377914
0.0401349
0.0419433
0.0433018
0.0443178
0.045102
0.0457572
0.0463706
0.0470092
0.0477178
0.04852
0.0494217
0.00988614
0.0193381
0.0227777
0.0261513
0.0298259
0.0334383
0.0365851
0.0391043
0.0409813
0.0422805
0.0431073
0.0435907
0.0438641
0.0440513
0.0442555
0.0445518
0.0449836
0.0455642
0.0462825
0.0437336
0.0444098
0.0450503
0.0456219
0.0461037
0.0464869
0.0467633
0.0469228
0.0469438
0.0467723
0.0462615
0.0455309
0.0445687
0.0432692
0.0414135
0.0385315
0.0338488
0.0264904
0.0187808
0.0128712
0.00772289
0.0386957
0.0383468
0.0376986
0.0367229
0.0354147
0.0337851
0.0318509
0.029632
0.027168
0.0248471
0.0228109
0.0207902
0.018606
0.0164634
0.0144812
0.0127208
0.0107046
0.00813314
0.00556146
0.00304629
0.00132511
0.0312895
0.0293739
0.0270591
0.0244465
0.021681
0.0189279
0.0163681
0.0142479
0.0127963
0.0116494
0.010746
0.00990774
0.00909071
0.00830683
0.00752957
0.00672108
0.0058275
0.0048088
0.00369071
0.00239983
0.00103371
0.0229104
0.0200365
0.0171602
0.0145276
0.0123434
0.0107255
0.00968757
0.00912466
0.00877096
0.00850919
0.00827969
0.00803278
0.00773561
0.00736182
0.00688404
0.00628714
0.00557269
0.00472111
0.00370154
0.00249374
0.00116708
0.0159
0.0133247
0.0112601
0.0097961
0.00889434
0.00843244
0.00827337
0.00824001
0.00824761
0.00825223
0.00822499
0.00813929
0.00796821
0.00768257
0.00725472
0.00668832
0.00597266
0.00508681
0.004003
0.00274659
0.00132886
0.0115105
0.00989153
0.0088704
0.00832854
0.0081186
0.00811434
0.00821462
0.0083419
0.00846136
0.00855004
0.00858728
0.00855108
0.00841709
0.00815835
0.00774848
0.00718327
0.006449
0.00551811
0.0043743
0.00303708
0.00149495
0.00933817
0.00852735
0.00814402
0.00804334
0.00811017
0.00826505
0.00845181
0.00863537
0.00879619
0.00891736
0.0089809
0.0089668
0.00885223
0.00861233
0.00821839
0.00765967
0.00691793
0.00595795
0.00476347
0.00333686
0.0016602
0.00842487
0.00809132
0.00802693
0.00812149
0.0083006
0.00851692
0.00873806
0.00894522
0.0091242
0.00926032
0.00933745
0.00933687
0.00923688
0.00901348
0.00863921
0.00809461
0.00735691
0.00638439
0.0051511
0.00363749
0.00182304
0.00810132
0.0080273
0.00812102
0.00830639
0.00853571
0.00877922
0.00901666
0.00923532
0.00942297
0.00956666
0.00965156
0.00966015
0.00957182
0.00936347
0.00900931
0.00848371
0.007758
0.00678705
0.0055284
0.00393662
0.00198321
0.0080416
0.00811072
0.00828747
0.00851943
0.00877444
0.00903267
0.00927954
0.00950428
0.00969613
0.00984326
0.00993194
0.00994583
0.00986572
0.0096697
0.00933361
0.00882888
0.00812137
0.0071624
0.00589176
0.00423389
0.00214098
0.00810141
0.00825396
0.00847865
0.00873792
0.00900901
0.00927745
0.00953068
0.00975902
0.00995257
0.0101003
0.0101894
0.0102047
0.0101288
0.00994131
0.00961913
0.00913443
0.00844938
0.00751051
0.00624035
0.00452971
0.00229683
0.00821791
0.00842328
0.00867913
0.00895744
0.00924107
0.00951782
0.00977607
0.0100067
0.0102003
0.0103464
0.0104331
0.0104464
0.0103705
0.0101872
0.00987512
0.00940762
0.00874661
0.00783364
0.00657488
0.00482483
0.00245133
0.00836406
0.00860621
0.00888513
0.00917913
0.00947377
0.00975787
0.0100204
0.0102524
0.0104448
0.0105876
0.0106695
0.0106778
0.0105981
0.0104145
0.0101083
0.00965507
0.00901799
0.00813498
0.00689696
0.00512011
0.00260509
0.00852843
0.0087987
0.00909689
0.00940488
0.00970944
0.0100001
0.0102661
0.0104985
0.0106886
0.0108266
0.0109019
0.0109028
0.0108163
0.0106285
0.010324
0.00988191
0.00926798
0.00841794
0.00720862
0.00541652
0.00275875
0.00870653
0.00900019
0.00931535
0.0096358
0.00994919
0.0102454
0.0105136
0.0107453
0.0109317
0.0110637
0.0111311
0.0111228
0.0110271
0.0108323
0.0105261
0.0100923
0.00950051
0.00868589
0.00751206
0.00571508
0.00291296
0.00889687
0.00921075
0.00954081
0.00987212
0.0101928
0.0104929
0.0107617
0.010991
0.0111726
0.0112974
0.0113559
0.0113373
0.011231
0.0110271
0.0107168
0.0102891
0.00971887
0.0089419
0.00780955
0.00601684
0.00306843
0.00909868
0.00943011
0.00977294
0.0101131
0.010439
0.0107408
0.0110081
0.0112331
0.0114082
0.0115248
0.0115737
0.0115444
0.0114269
0.0112128
0.0108971
0.0104743
0.00992561
0.00918869
0.00810326
0.00632289
0.00322588
0.00931113
0.00965746
0.0100106
0.0103571
0.0106856
0.0109863
0.0112495
0.0114681
0.0116351
0.0117426
0.0117813
0.0117412
0.0116126
0.0113885
0.011067
0.010649
0.0101226
0.00942859
0.00839528
0.00663438
0.00338612
0.0095328
0.00989126
0.010252
0.0106018
0.0109297
0.0112262
0.0114825
0.0116925
0.0118498
0.0119471
0.0119755
0.0119248
0.0117857
0.0115524
0.0112261
0.0108136
0.0103113
0.00966361
0.00868759
0.00695246
0.00355002
0.00976123
0.010129
0.0104942
0.0108442
0.0111682
0.0114572
0.0117038
0.0119028
0.0120489
0.0121351
0.0121529
0.0120923
0.0119439
0.0117029
0.0113733
0.0109684
0.0104928
0.00989546
0.00898209
0.00727833
0.00371859
0.00999269
0.0103671
0.010734
0.0110809
0.0113977
0.0116761
0.0119102
0.0120963
0.0122296
0.012304
0.0123112
0.0122413
0.012085
0.0118383
0.011508
0.0111133
0.0106679
0.0101257
0.00928058
0.00761323
0.00389296
0.0102223
0.0106016
0.0109677
0.0113087
0.0116154
0.0118801
0.0120994
0.0122706
0.01239
0.0124518
0.0124484
0.01237
0.0122076
0.0119576
0.0116294
0.0112484
0.0108375
0.0103558
0.00958482
0.00795849
0.00407446
0.0104455
0.0108279
0.0111916
0.0115246
0.0118185
0.0120672
0.0122696
0.0124244
0.0125288
0.0125776
0.0125637
0.0124778
0.0123109
0.0120602
0.0117374
0.011374
0.0110026
0.0105873
0.00989655
0.00831553
0.00426468
0.0106581
0.0110429
0.0114031
0.011726
0.0120053
0.0122361
0.01242
0.0125572
0.0126457
0.0126812
0.0126571
0.0125647
0.0123953
0.0121466
0.0118325
0.011491
0.0111643
0.0108217
0.0102175
0.00868566
0.00446553
0.0108609
0.0112446
0.0115991
0.0119117
0.0121745
0.0123862
0.0125503
0.012669
0.0127411
0.0127632
0.0127295
0.0126319
0.0124619
0.0122178
0.0119159
0.0116007
0.0113242
0.0110608
0.0105492
0.00907015
0.00467937
0.0110539
0.0114336
0.0117795
0.0120789
0.0123254
0.0125169
0.0126607
0.0127604
0.0128162
0.0128254
0.0127831
0.0126817
0.0125131
0.0122761
0.0119897
0.011705
0.0114843
0.0113064
0.0108934
0.00946975
0.00490924
0.0112368
0.0116098
0.0119445
0.0122284
0.0124559
0.0126279
0.0127514
0.0128326
0.0128728
0.0128703
0.012821
0.0127175
0.0125522
0.0123245
0.0120565
0.0118066
0.0116472
0.0115607
0.0112517
0.00988536
0.00515908
0.011409
0.0117728
0.0120937
0.0123597
0.0125669
0.0127183
0.0128231
0.0128873
0.0129137
0.0129017
0.0128474
0.0127439
0.0125837
0.0123672
0.0121202
0.011909
0.0118159
0.0118262
0.0116277
0.0103241
0.00542524
0.0115703
0.0119221
0.0122271
0.0124736
0.0126595
0.0127908
0.0128779
0.0129277
0.0129433
0.0129246
0.0128681
0.0127666
0.0126128
0.0124092
0.0121857
0.0120162
0.0119935
0.0121072
0.0120264
0.0107901
0.00570324
0.0117209
0.0120584
0.0123458
0.0125719
0.0127365
0.0128489
0.0129204
0.0129591
0.0129679
0.0129466
0.012891
0.0127936
0.0126473
0.0124565
0.0122567
0.0121308
0.0121827
0.0124065
0.0124524
0.011283
0.00599457
0.0118624
0.0121831
0.0124508
0.0126561
0.0128016
0.0128982
0.0129578
0.01299
0.0129965
0.0129764
0.0129246
0.0128325
0.0126935
0.0125148
0.012338
0.0122569
0.0123872
0.0127269
0.0129084
0.0118078
0.00629902
0.0119938
0.0122964
0.0125451
0.0127317
0.0128614
0.0129456
0.012999
0.0130295
0.0130384
0.0130232
0.0129774
0.0128912
0.0127585
0.0125898
0.0124348
0.012399
0.012611
0.013072
0.0133948
0.0123663
0.0066166
0.0121184
0.0124027
0.0126339
0.0128052
0.0129233
0.0130002
0.013053
0.0130874
0.0131033
0.0130964
0.013058
0.0129773
0.0128488
0.0126875
0.0125522
0.012562
0.0128579
0.0134452
0.013916
0.0129602
0.00694743
0.0122401
0.0125069
0.0127232
0.0128832
0.0129943
0.0130708
0.0131295
0.0131734
0.0132009
0.013205
0.0131747
0.0130979
0.0129706
0.0128132
0.0126953
0.0127507
0.0131322
0.0138487
0.0144727
0.0135902
0.00729063
0.0123639
0.0126147
0.0128195
0.0129731
0.013083
0.0131669
0.0132381
0.0132974
0.0133405
0.0133575
0.0133347
0.0132592
0.0131288
0.0129712
0.0128683
0.0129693
0.0134374
0.0142844
0.0150645
0.0142544
0.007644
0.0124952
0.0127323
0.01293
0.0130836
0.0131994
0.0132983
0.0133888
0.013469
0.013531
0.0135614
0.0135441
0.0134654
0.0133268
0.0131644
0.0130745
0.0132215
0.013776
0.0147519
0.0156871
0.0149477
0.00800363
0.0126401
0.0128668
0.0130627
0.0132235
0.0133534
0.0134753
0.0135917
0.0136973
0.01378
0.0138226
0.0138065
0.0137187
0.0135655
0.0133937
0.0133155
0.0135095
0.0141488
0.015248
0.016331
0.0156596
0.0083633
0.0128057
0.0130259
0.0132261
0.013401
0.0135559
0.0137085
0.0138567
0.0139905
0.0140933
0.0141441
0.0141226
0.0140177
0.0138427
0.0136573
0.0135909
0.0138334
0.0145543
0.0157644
0.0169773
0.0163727
0.00871409
0.0130005
0.0132192
0.0134308
0.0136295
0.0138185
0.0140088
0.0141927
0.0143549
0.0144739
0.0145255
0.0144889
0.0143571
0.0141526
0.0139505
0.0138977
0.0141911
0.0149873
0.0162851
0.0175937
0.017062
0.00904417
0.0132345
0.0134574
0.0136887
0.0139213
0.0141529
0.014386
0.0146066
0.0147935
0.0149206
0.0149615
0.0148969
0.0147263
0.0144847
0.0142648
0.0142304
0.0145774
0.0154384
0.0167879
0.0181516
0.0176972
0.00933774
0.0135191
0.0137539
0.0140155
0.0142909
0.0145712
0.0148489
0.0151025
0.015305
0.0154265
0.0154405
0.0153317
0.0151095
0.0148245
0.0145895
0.014581
0.0149849
0.0158957
0.0172518
0.0186586
0.0182413
0.00956854
0.0138673
0.0141239
0.0144313
0.0147547
0.0150849
0.0154033
0.01568
0.0158822
0.0159784
0.0159442
0.0157722
0.0154857
0.0151546
0.0149124
0.014941
0.015404
0.0163457
0.0176953
0.0191036
0.0186875
0.00973767
0.014294
0.0145832
0.0149455
0.0153252
0.0157037
0.0160516
0.0163328
0.0165107
0.0165547
0.0164468
0.0161916
0.0158312
0.0154578
0.0152245
0.0153042
0.0158245
0.0167625
0.0181034
0.0194747
0.0190242
0.00982388
0.0148164
0.0151526
0.0155795
0.0160162
0.016433
0.0167898
0.0170461
0.0171665
0.0171254
0.0169159
0.0165598
0.0161233
0.0157229
0.015526
0.01567
0.0162404
0.0171576
0.0184559
0.0197451
0.0191932
0.00982914
0.0154553
0.0158616
0.016354
0.0168374
0.01727
0.0176033
0.017795
0.0178154
0.017652
0.0173147
0.0168485
0.0163488
0.0159571
0.0158132
0.016039
0.0166314
0.0175098
0.0187213
0.0198767
0.0191596
0.00975289
0.0162329
0.0167284
0.0172809
0.0177882
0.0181996
0.0184624
0.0185391
0.0184122
0.0180899
0.0176083
0.0170408
0.0165167
0.0161773
0.0161325
0.0164341
0.0169961
0.0177865
0.0188535
0.0198215
0.0189031
0.0096037
0.0171771
0.0177654
0.0183618
0.0188542
0.0191897
0.0193202
0.0192224
0.0189017
0.0183958
0.0177756
0.0171479
0.0166784
0.0164413
0.0165114
0.0168444
0.0173006
0.0179254
0.018785
0.0195102
0.0182969
0.00935129
0.0183381
0.0189961
0.0195884
0.0200021
0.0201867
0.0201106
0.0197771
0.0192278
0.0185423
0.0178314
0.0172314
0.0168774
0.0168089
0.0169615
0.0171997
0.0174465
0.0178184
0.01842
0.0188486
0.0174641
0.00900431
0.0197073
0.0204066
0.0209226
0.0211684
0.0211098
0.0207481
0.0201307
0.0193524
0.018544
0.0178511
0.0174047
0.0172623
0.0173166
0.0174007
0.0173551
0.0172614
0.0173181
0.0176561
0.0178128
0.0164109
0.00851628
0.0213003
0.0219604
0.0222903
0.0222522
0.0218487
0.0211358
0.0202274
0.0192867
0.0184897
0.0179811
0.0178086
0.0178309
0.017818
0.0175513
0.0170436
0.0165265
0.0162969
0.0164272
0.016551
0.0152275
0.00792692
0.0230902
0.023568
0.0235657
0.0231087
0.0222699
0.0211892
0.0200684
0.0191321
0.0185577
0.0183927
0.0184403
0.0183868
0.0179368
0.0170496
0.015984
0.0151291
0.0147674
0.0148363
0.0150829
0.0139602
0.00727193
0.0249705
0.0250678
0.0245543
0.0235509
0.0222456
0.0208909
0.0197671
0.0190986
0.0189721
0.0190905
0.019028
0.0183704
0.0171088
0.0155483
0.0141269
0.0131721
0.0128741
0.0131371
0.013571
0.0126684
0.00657736
0.0267535
0.0262099
0.0249951
0.0233896
0.0217286
0.0203707
0.019572
0.0194826
0.0197314
0.0196584
0.0188024
0.0171084
0.0150321
0.0131624
0.0117889
0.0110336
0.0109147
0.0115046
0.0121166
0.0113897
0.00585429
0.0280785
0.0266166
0.0246093
0.0225373
0.020873
0.0199284
0.0198739
0.020237
0.0202017
0.0191412
0.0169578
0.0143169
0.0120587
0.0104802
0.0095227
0.0091404
0.00933056
0.0100942
0.0107389
0.0100329
0.00518296
0.0284243
0.025875
0.0232572
0.0211718
0.0200487
0.0200701
0.0204954
0.0205129
0.019254
0.0165088
0.0132758
0.0106698
0.00904789
0.00818831
0.00775712
0.00773973
0.00814195
0.00886673
0.00936828
0.00861592
0.00457046
0.0271915
0.0237646
0.0211677
0.0197936
0.019898
0.0203563
0.0203354
0.0188529
0.0155653
0.0117489
0.00891932
0.00735363
0.0067537
0.00661456
0.0065916
0.00674274
0.00717761
0.00773599
0.00801357
0.00721277
0.00398616
0.0240399
0.0205914
0.0190783
0.0190944
0.0194836
0.0192997
0.0173627
0.0137471
0.00966733
0.00671225
0.00557205
0.00532326
0.005414
0.00557835
0.00572593
0.00593857
0.00628143
0.00663031
0.00669099
0.00590672
0.00340902
0.0192621
0.0173223
0.0171599
0.017295
0.016589
0.0143136
0.0102303
0.006956
0.00479295
0.00390021
0.00386796
0.00409864
0.00437111
0.00461115
0.00482754
0.00505456
0.0053113
0.00551349
0.00546998
0.0047977
0.00281304
0.0140718
0.0130836
0.0130167
0.0114656
0.00888426
0.00645667
0.00424624
0.00279308
0.00227981
0.00231437
0.0025496
0.00283657
0.00312623
0.00340214
0.00366835
0.00393623
0.00420102
0.00440587
0.00441247
0.00388916
0.002154
0.00812554
0.00259881
0.00242931
0.00224703
0.00185411
0.00139612
0.00101191
0.000897744
0.000958002
0.00108422
0.00123031
0.00138206
0.00153679
0.00169704
0.00187008
0.00206938
0.00226197
0.00239755
0.00240458
0.00215662
0.00131244
0.0104297
0.0206486
0.0245238
0.0280961
0.0317401
0.0350992
0.0378526
0.0398831
0.0412107
0.0419313
0.0421816
0.0421204
0.0419115
0.0417022
0.0416064
0.0416929
0.0419824
0.042454
0.0430585
0.0108966
0.0217912
0.0260575
0.0297506
0.0332734
0.036308
0.0386091
0.0401024
0.0408461
0.0409734
0.0406607
0.0401033
0.0394915
0.0389798
0.0386616
0.0385558
0.0386122
0.0387325
0.0387977
0.011303
0.0227622
0.0273638
0.0311009
0.0344248
0.0370842
0.0388945
0.0398269
0.0399832
0.0395402
0.0387156
0.0377378
0.0368042
0.0360396
0.0354676
0.0350109
0.0345214
0.033827
0.0327785
0.0116425
0.023548
0.0284422
0.0321492
0.0352146
0.0374658
0.0387661
0.039137
0.0387291
0.0377672
0.0365071
0.0351912
0.033991
0.0329569
0.032008
0.0309682
0.0296358
0.0278599
0.0255925
0.0119168
0.0241613
0.0292884
0.0328964
0.0356747
0.0374995
0.0382898
0.0381218
0.0371989
0.035793
0.0341864
0.0326069
0.0311607
0.0297973
0.0283407
0.0265797
0.0243752
0.0217321
0.0188145
0.012131
0.0246101
0.0298919
0.0333684
0.0358421
0.0372383
0.0375381
0.0368753
0.0355085
0.0337493
0.031885
0.030097
0.0283992
0.0266468
0.024631
0.0222156
0.0194382
0.0165176
0.0137763
0.0122892
0.0249051
0.030273
0.0335975
0.0357585
0.0367394
0.0365858
0.0354909
0.0337661
0.031749
0.0297049
0.027741
0.0257758
0.0236158
0.0211117
0.0182989
0.015417
0.0128069
0.0107454
0.0123956
0.025062
0.0304602
0.0336169
0.0354688
0.0360615
0.0355058
0.0340543
0.0320641
0.0298786
0.027714
0.0255879
0.0233476
0.0208212
0.0180043
0.015126
0.0125398
0.0105297
0.00918495
0.0124547
0.025097
0.0304813
0.0334615
0.0350179
0.0352607
0.0343644
0.0326388
0.0304736
0.0281953
0.0259486
0.0236631
0.0211595
0.0183617
0.0154483
0.01278
0.0106813
0.00926847
0.00846257
0.0124713
0.0250271
0.0303627
0.0331652
0.0344487
0.0343875
0.0332184
0.0313014
0.029043
0.0267294
0.02442
0.0219745
0.0192418
0.0162949
0.0134733
0.011164
0.00956064
0.00861664
0.00816612
0.0124505
0.0248682
0.0301298
0.0327599
0.0337994
0.0334854
0.0321127
0.0300823
0.0277992
0.0254891
0.0231221
0.0205179
0.0176064
0.0146286
0.0120208
0.0101028
0.00891475
0.00830379
0.00808266
0.0123969
0.0246357
0.0298059
0.0322743
0.0331032
0.0325892
0.03108
0.0290059
0.0267516
0.0244671
0.0220382
0.0192809
0.0162476
0.0133309
0.0109891
0.00942732
0.00855821
0.00817903
0.00810838
0.0123152
0.0243437
0.0294118
0.0317331
0.0323869
0.0317252
0.0301417
0.028083
0.0258964
0.0236461
0.0211463
0.0182467
0.0151446
0.0123464
0.0102739
0.00900903
0.00837739
0.00816123
0.00819302
0.0122098
0.0240047
0.0289655
0.0311571
0.0316716
0.0309118
0.0293091
0.0273136
0.0252202
0.0230023
0.020421
0.0173935
0.0142663
0.0116147
0.00978844
0.00876075
0.00830642
0.00820771
0.00831256
0.0120847
0.0236298
0.0284826
0.0305632
0.0309731
0.0301604
0.0285858
0.02669
0.0247038
0.0225084
0.0198249
0.0166926
0.0135787
0.0110814
0.00946847
0.00862722
0.00830717
0.00829589
0.00845571
0.0119436
0.0232283
0.0279757
0.0299643
0.0303022
0.0294768
0.0279693
0.0261993
0.0243248
0.0221102
0.0193119
0.0161161
0.0130503
0.0107025
0.0092687
0.00857477
0.008358
0.00841389
0.00861718
0.0117896
0.0228082
0.0274551
0.0293702
0.0296659
0.0288624
0.0274529
0.0258255
0.0240512
0.0217872
0.018878
0.0156388
0.012647
0.0104434
0.00915875
0.00858186
0.00844606
0.00855535
0.0087944
0.0116257
0.0223761
0.0269287
0.0287881
0.0290679
0.0283156
0.0270274
0.0255511
0.0238413
0.0215235
0.0185163
0.0152491
0.0123466
0.0102784
0.00911763
0.00863463
0.00856363
0.00871655
0.00898575
0.0114542
0.0219372
0.0264028
0.0282228
0.0285098
0.0278325
0.0266818
0.0253564
0.023686
0.0213127
0.0182204
0.0149385
0.0121318
0.0101883
0.00913053
0.00872375
0.00870548
0.00889466
0.00918952
0.0112773
0.0214959
0.0258821
0.0276774
0.0279913
0.0274075
0.0264043
0.0252243
0.0235774
0.0211501
0.0179848
0.0146991
0.0119881
0.0101576
0.00918681
0.00884213
0.00886682
0.00908636
0.00940307
0.0110966
0.0210554
0.0253699
0.0271535
0.0275107
0.0270343
0.0261833
0.0251308
0.0235063
0.0210309
0.0178047
0.0145252
0.011899
0.0101714
0.00927666
0.00898229
0.00904159
0.00928665
0.00962218
0.0109137
0.0206183
0.0248684
0.0266519
0.0270656
0.026706
0.0260075
0.025066
0.023467
0.0209513
0.0176759
0.0144095
0.0118567
0.0102204
0.00939042
0.00913543
0.00922212
0.00948903
0.00984117
0.0107297
0.0201865
0.0243794
0.0261724
0.0266532
0.0264164
0.0258671
0.0250254
0.0234554
0.0209076
0.0175948
0.0143464
0.0118577
0.0102948
0.00951668
0.00929328
0.00940253
0.00968764
0.0100546
0.0105456
0.0197615
0.0239036
0.0257145
0.0262701
0.0261591
0.0257544
0.0250049
0.0234681
0.0208974
0.0175582
0.0143302
0.0118963
0.0103914
0.0096538
0.00945575
0.00958324
0.00988289
0.0102608
0.0103621
0.0193443
0.0234416
0.025277
0.0259134
0.0259287
0.0256629
0.025001
0.0235025
0.0209185
0.0175629
0.0143562
0.0119679
0.0105078
0.00980084
0.00962225
0.00976382
0.0100745
0.0104602
0.0101799
0.0189356
0.0229935
0.0248589
0.0255797
0.0257201
0.0255873
0.0250106
0.0235559
0.0209691
0.0176062
0.0144206
0.012069
0.010642
0.00995704
0.00979232
0.00994393
0.0102623
0.0106527
0.00999945
0.0185359
0.0225589
0.0244587
0.0252661
0.0255293
0.0255235
0.025031
0.0236262
0.0210471
0.0176854
0.0145201
0.012197
0.0107929
0.0101219
0.00996567
0.0101233
0.0104459
0.0108379
0.00982103
0.0181453
0.0221378
0.0240751
0.02497
0.0253524
0.0254676
0.0250596
0.0237113
0.0211509
0.0177982
0.0146519
0.0123498
0.0109594
0.0102952
0.0101422
0.0103016
0.010625
0.0110154
0.00964475
0.0177639
0.0217295
0.0237066
0.0246888
0.0251865
0.0254169
0.0250943
0.0238091
0.0212786
0.0179426
0.014814
0.0125261
0.0111412
0.0104769
0.0103218
0.0104788
0.0107993
0.0111849
0.00947074
0.0173914
0.0213335
0.023352
0.0244204
0.0250287
0.0253689
0.025133
0.0239179
0.0214286
0.0181167
0.0150047
0.0127248
0.011338
0.0106673
0.0105048
0.0106552
0.010969
0.0113466
0.00929962
0.0170278
0.0209491
0.02301
0.0241628
0.0248769
0.0253214
0.0251735
0.0240353
0.0215993
0.0183194
0.0152229
0.0129457
0.0115504
0.010867
0.0106923
0.0108317
0.0111351
0.0115021
0.00913115
0.0166739
0.0205758
0.0226797
0.0239144
0.0247288
0.0252707
0.0252103
0.024156
0.0217905
0.0185546
0.0154701
0.01319
0.0117799
0.0110782
0.010887
0.0110116
0.0113003
0.0116508
0.00896903
0.0163281
0.0202124
0.0223592
0.0236731
0.0245826
0.0252157
0.0252418
0.0242753
0.0219924
0.0188137
0.0157501
0.0134639
0.0120329
0.0113075
0.0110933
0.0111964
0.0114646
0.0117948
0.0088125
0.0159903
0.0198584
0.0220475
0.0234377
0.024437
0.0251554
0.025267
0.024392
0.0222023
0.0190949
0.01606
0.0137676
0.0123117
0.0115567
0.0113127
0.0113879
0.0116305
0.0119371
0.00866088
0.0156605
0.0195133
0.0217437
0.023207
0.0242908
0.025089
0.0252849
0.0245046
0.0224184
0.0193959
0.0163983
0.0141008
0.0126172
0.0118272
0.0115473
0.0115888
0.0118012
0.0120818
0.00851365
0.0153388
0.0191766
0.0214472
0.0229801
0.024143
0.0250161
0.0252948
0.024612
0.0226387
0.0197144
0.0167633
0.0144631
0.0129502
0.012121
0.0117999
0.0118027
0.0119811
0.0122338
0.00837031
0.0150246
0.0188476
0.0211572
0.0227562
0.0239931
0.0249363
0.0252962
0.024713
0.0228614
0.0200483
0.0171532
0.0148542
0.0133117
0.0124404
0.0120739
0.0120337
0.0121751
0.0123987
0.00823046
0.0147174
0.018526
0.0208731
0.0225345
0.0238406
0.0248496
0.0252886
0.0248066
0.0230844
0.0203951
0.0175665
0.0152737
0.0137029
0.0127879
0.0123731
0.0122869
0.0123891
0.0125827
0.00809371
0.0144171
0.0182114
0.0205945
0.0223147
0.0236853
0.0247558
0.0252717
0.024892
0.023306
0.0207525
0.0180016
0.0157212
0.0141254
0.0131666
0.012702
0.0125679
0.0126295
0.0127931
0.00795972
0.0141231
0.0179034
0.0203209
0.0220963
0.0235269
0.0246552
0.0252455
0.0249683
0.0235241
0.0211163
0.0184568
0.0161971
0.0145808
0.0135802
0.0130656
0.0128829
0.0129032
0.0130387
0.0078282
0.0138354
0.0176016
0.0200519
0.021879
0.0233654
0.0245481
0.02521
0.0250349
0.0237368
0.0214834
0.0189293
0.0167016
0.0150705
0.0140319
0.0134689
0.0132378
0.0132183
0.0133298
0.00769886
0.0135536
0.0173058
0.019787
0.0216626
0.0232011
0.0244349
0.0251654
0.0250915
0.0239423
0.0218514
0.0194148
0.0172335
0.0155966
0.0145251
0.0139169
0.0136393
0.0135846
0.0136774
0.00757149
0.0132776
0.0170155
0.0195261
0.0214472
0.0230342
0.0243161
0.0251122
0.025138
0.0241393
0.0222176
0.0199106
0.0177904
0.0161594
0.0150627
0.0144136
0.0140955
0.0140122
0.014094
0.00744587
0.013007
0.0167305
0.019269
0.0212328
0.0228651
0.0241925
0.0250511
0.0251745
0.0243266
0.0225797
0.0204142
0.0183703
0.0167588
0.0156464
0.0149635
0.0146142
0.0145121
0.0145937
0.00732183
0.0127418
0.0164506
0.0190155
0.0210195
0.0226944
0.0240649
0.0249828
0.0252015
0.0245035
0.0229357
0.0209228
0.0189708
0.0173947
0.0162762
0.0155724
0.0152043
0.0150964
0.0151928
0.0071992
0.0124817
0.0161756
0.0187656
0.0208077
0.0225229
0.0239343
0.0249084
0.0252198
0.0246699
0.023284
0.0214341
0.01959
0.0180648
0.016955
0.0162457
0.0158752
0.0157792
0.0159097
0.00707786
0.0122265
0.0159054
0.0185193
0.0205976
0.0223512
0.023802
0.0248292
0.0252308
0.0248263
0.0236237
0.0219462
0.0202266
0.0187656
0.0176845
0.0169902
0.0166382
0.0165771
0.0167674
0.00695771
0.0119763
0.0156398
0.0182766
0.0203898
0.0221804
0.0236692
0.0247467
0.025236
0.0249739
0.0239551
0.022458
0.0208777
0.0194999
0.0184693
0.0178142
0.0175075
0.0175111
0.0177952
0.00683867
0.0117309
0.0153788
0.0180377
0.0201849
0.0220114
0.0235374
0.0246628
0.0252376
0.0251146
0.0242791
0.0229704
0.0215398
0.0202684
0.0193151
0.018729
0.0185014
0.0186077
0.0190241
0.00672067
0.0114901
0.0151224
0.0178028
0.0199833
0.0218455
0.0234082
0.0245792
0.025238
0.0252511
0.0245981
0.0234838
0.0222168
0.0210757
0.0202307
0.0197502
0.0196446
0.0199029
0.0205117
0.00660371
0.0112541
0.0148705
0.0175719
0.0197855
0.0216834
0.0232831
0.0244981
0.02524
0.0253866
0.0249154
0.0239988
0.0229125
0.0219289
0.0212285
0.0208992
0.0209698
0.0214384
0.0222781
0.00648777
0.0110227
0.0146232
0.0173454
0.0195922
0.0215261
0.0231627
0.0244216
0.0252462
0.0255249
0.0252353
0.0245203
0.0236334
0.0228383
0.0223265
0.0222057
0.0225209
0.0232757
0.0242738
0.0063729
0.0107961
0.0143807
0.0171236
0.0194036
0.0213732
0.0230448
0.0243517
0.0252596
0.0256699
0.0255622
0.0250559
0.0243887
0.0238185
0.0235496
0.0237088
0.0243507
0.0254674
0.0264417
0.00625916
0.0105742
0.0141429
0.0169065
0.0192201
0.0212252
0.0229311
0.0242898
0.0252829
0.0258256
0.0259006
0.0256134
0.0251902
0.0248892
0.0249309
0.0254588
0.026513
0.0278512
0.0285265
0.00614662
0.0103573
0.0139102
0.0166944
0.0190419
0.0210826
0.0228229
0.0242372
0.0253182
0.0259954
0.0262559
0.026201
0.0260518
0.026075
0.0265123
0.0275132
0.0290969
0.0302853
0.0301148
0.00603541
0.0101453
0.0136826
0.0164875
0.018869
0.0209456
0.0227212
0.0241951
0.0253676
0.0261825
0.0266342
0.0268282
0.0269897
0.0274052