/*--------------------------------*- C++ -*----------------------------------*\
| =========                 |                                                 |
| \\      /  F ield         | OpenFOAM: The Open Source CFD Toolbox           |
|  \\    /   O peration     | Version:  v2012                                 |
|   \\  /    A nd           | Website:  www.openfoam.com                      |
|    \\/     M anipulation  |                                                 |
\*---------------------------------------------------------------------------*/
FoamFile
{
    version     2.0;
    format      ascii;
    class       volScalarField;
    location    "619";
    object      nut;
}
// * * * * * * * * * * * * * * * * * * * * * * * * * * * * * * * * * * * * * //

dimensions      [0 2 -1 0 0 0 0];


internalField   nonuniform List<scalar> 
6057
(
0.000481862
0.000500518
0.000520907
0.000543266
0.000567906
0.000595218
0.000625696
0.000659973
0.000698879
0.000743514
0.000795377
0.000856558
0.000930056
0.00102032
0.00113423
0.00128286
0.00148505
0.00177484
0.00221822
0.00295416
0.00265543
0.00275206
0.00285601
0.00296841
0.00309035
0.00322297
0.00336781
0.0035268
0.00370239
0.00389777
0.00411714
0.0043662
0.00465288
0.00498854
0.00539004
0.00588354
0.00651175
0.0073493
0.00853996
0.010407
0.00451742
0.00467146
0.00483622
0.00501279
0.0052024
0.00540673
0.00562757
0.00586707
0.00612794
0.00641356
0.00672824
0.00707748
0.00746849
0.00791068
0.00841638
0.00900144
0.00968514
0.0104876
0.0114195
0.0124482
0.00569115
0.00587822
0.00607738
0.00628963
0.00651619
0.00675839
0.00701781
0.00729618
0.00759545
0.00791778
0.00826561
0.00864165
0.00904878
0.00948994
0.00996772
0.0104836
0.0110362
0.0116187
0.0122145
0.0127936
0.00624966
0.006452
0.00666672
0.00689475
0.00713719
0.0073952
0.00766999
0.00796277
0.00827473
0.00860694
0.00896017
0.00933475
0.00973021
0.0101449
0.0105754
0.0110162
0.011459
0.0118943
0.0123157
0.0127337
0.00624608
0.00644951
0.00666497
0.00689353
0.00713634
0.0073946
0.00766957
0.00796248
0.00827454
0.00860681
0.00896009
0.0093347
0.00973018
0.0101449
0.0105754
0.0110162
0.011459
0.0118943
0.0123157
0.0127337
0.00568041
0.00587089
0.00607232
0.00628615
0.00651379
0.00675677
0.00701674
0.00729547
0.00759498
0.00791747
0.00826541
0.00864152
0.00904869
0.00948988
0.00996768
0.0104835
0.0110362
0.0116187
0.0122145
0.0127936
0.00449982
0.00466012
0.00482859
0.0050077
0.00519906
0.00540453
0.0056261
0.00586609
0.00612728
0.00641313
0.00672795
0.00707729
0.00746836
0.0079106
0.00841633
0.0090014
0.00968512
0.0104876
0.0114195
0.0124482
0.0026347
0.0027405
0.00284862
0.00296377
0.0030873
0.00322095
0.00336646
0.00352589
0.00370178
0.00389736
0.00411687
0.00436602
0.00465276
0.00498846
0.00538999
0.0058835
0.00651173
0.00734929
0.00853996
0.010407
0.000481173
0.0005001
0.000520631
0.000543081
0.00056778
0.000595131
0.000625635
0.000659932
0.00069885
0.000743494
0.000795364
0.000856549
0.00093005
0.00102032
0.00113423
0.00128286
0.00148505
0.00177484
0.00221822
0.00295416
0.000270586
0.000277855
0.000285101
0.000292362
0.000299674
0.000307076
0.00031461
0.000322319
0.000330251
0.000338457
0.000346991
0.000355911
0.00036528
0.000375165
0.000385638
0.000396757
0.000408564
0.00042116
0.000434659
0.000449184
0.000464867
0.00126958
0.0013375
0.0014044
0.00147016
0.00153467
0.00159785
0.00165971
0.00172032
0.00177986
0.00183855
0.00189671
0.00195475
0.00201314
0.00207244
0.00213321
0.00219576
0.00226143
0.00233076
0.00240429
0.00248254
0.00256605
0.00231656
0.00242531
0.00253083
0.00263332
0.00273298
0.00283011
0.00292507
0.00301829
0.00311028
0.00320159
0.00329284
0.00338471
0.00347794
0.00357334
0.00367145
0.00377361
0.00388078
0.00399369
0.00411306
0.00423962
0.00437411
0.0030981
0.00321682
0.00333171
0.00344347
0.00355274
0.00366017
0.00376637
0.003872
0.00397768
0.00408408
0.00419186
0.00430173
0.00441441
0.00453067
0.00465124
0.00477738
0.0049098
0.00504918
0.00519622
0.00535169
0.00551634
0.00357552
0.0036828
0.00378712
0.00388958
0.00399108
0.00409248
0.00419454
0.00429798
0.00440347
0.00451165
0.00462313
0.0047385
0.00485838
0.00498336
0.00511449
0.00525246
0.00539761
0.00555034
0.00571118
0.00588081
0.00605996
0.0037689
0.00384843
0.00392645
0.00400427
0.00408301
0.00416367
0.00424712
0.00433417
0.00442554
0.00452187
0.00462374
0.00473169
0.00484622
0.00496798
0.00509835
0.00523739
0.00538482
0.00554007
0.00570301
0.00587444
0.0060551
0.00371202
0.00375014
0.00378793
0.00382682
0.00386802
0.00391266
0.00396173
0.00401617
0.00407679
0.00414434
0.00421944
0.00430267
0.00439458
0.00449642
0.00461015
0.00473641
0.00487564
0.00502165
0.00517382
0.00533372
0.00550209
0.00345959
0.00344862
0.00343797
0.00342886
0.00342239
0.00341956
0.00342133
0.00342862
0.00344239
0.00346348
0.00349255
0.0035301
0.0035764
0.00363153
0.00369778
0.00377563
0.0038641
0.00397057
0.00409147
0.00421903
0.00435423
0.00310846
0.00305354
0.00299852
0.00294366
0.00288914
0.0028352
0.00278217
0.00273055
0.002681
0.0026342
0.00259105
0.00255398
0.00252354
0.00249856
0.00247593
0.00245526
0.00243806
0.00243467
0.00245587
0.00250567
0.00256783
0.0027649
0.00268377
0.00260161
0.00251726
0.00242947
0.00233694
0.0022383
0.00213215
0.00201711
0.00189202
0.00175629
0.00161024
0.00145443
0.00128989
0.00113139
0.00098578
0.00085768
0.000749456
0.000661663
0.000589743
0.000528617
7.20486e-05
6.76274e-05
6.82041e-05
7.75421e-05
0.000105957
0.000110525
0.000102271
0.00015494
0.000174285
0.00018559
0.00019596
0.000205638
0.000214781
0.000223499
0.000231877
0.000239977
0.000247854
0.000255554
0.000263119
0.000120861
0.000222915
0.000298977
0.000315474
0.000318748
0.000349826
0.00039717
0.000453843
0.000517511
0.000582056
0.000647506
0.000713939
0.000781354
0.000849703
0.000918879
0.000988715
0.00105898
0.00112941
0.00119971
0.000149041
0.000440446
0.000465745
0.00047244
0.000510929
0.000576959
0.000677074
0.000799551
0.000929927
0.00106234
0.0011952
0.0013275
0.00145871
0.00158842
0.00171628
0.00184194
0.00196506
0.00208536
0.00220261
0.00018177
0.000567775
0.000609844
0.000643926
0.000714703
0.000835084
0.000997392
0.00118162
0.00137178
0.00156093
0.00174548
0.00192364
0.00209464
0.00225823
0.00241449
0.00256366
0.00270611
0.00284233
0.00297285
0.000211839
0.000686434
0.000724342
0.000826893
0.000945538
0.00112178
0.00133814
0.00157071
0.0018035
0.00202801
0.00223958
0.00243641
0.00261833
0.00278609
0.00294097
0.00308447
0.00321817
0.00334363
0.00346234
0.000233911
0.000706891
0.000842866
0.00102315
0.00119565
0.00142147
0.00167825
0.00194177
0.00219624
0.00243251
0.00264607
0.00283602
0.00300353
0.00315094
0.00328106
0.00339685
0.00350112
0.00359644
0.00368509
0.000249714
0.000759556
0.000972223
0.00122879
0.00145062
0.00171767
0.00199994
0.00227629
0.0025319
0.00275823
0.00295206
0.0031141
0.00324733
0.00335582
0.00344399
0.00351607
0.00357588
0.00362671
0.00367135
0.000262647
0.000843746
0.00111031
0.00143681
0.00169934
0.00199531
0.00229024
0.00256289
0.00280183
0.00300041
0.00315752
0.00327599
0.00336084
0.00341794
0.00345314
0.00347176
0.00347835
0.00347665
0.00346963
0.000273305
0.00094584
0.00125044
0.00164
0.00193329
0.00224502
0.00254019
0.00279628
0.00300453
0.00316236
0.00327134
0.00333687
0.00336623
0.0033672
0.00334709
0.00331224
0.00326773
0.00321734
0.00316368
0.000282043
0.00105056
0.00138764
0.00182448
0.00214691
0.0024623
0.00274537
0.00297541
0.00314344
0.0032524
0.0033076
0.00331742
0.00329178
0.00324059
0.0031727
0.00309526
0.0030134
0.00293027
0.00284733
0.00247823
0.00238997
0.00230153
0.00221223
0.00212184
0.00203051
0.00193853
0.00184614
0.00175334
0.00165946
0.00156209
0.00146295
0.00136106
0.00125373
0.00113673
0.00100252
0.000829983
0.000533896
0.000338065
0.000227334
0.000136579
0.00222096
0.002114
0.00200245
0.00188644
0.00176697
0.00164529
0.00152341
0.00140331
0.00128686
0.00117989
0.00108507
0.000992462
0.00089592
0.000801536
0.000713253
0.000633333
0.000547232
0.000426563
0.000319541
0.000222689
0.00010121
0.00194858
0.0018083
0.00166265
0.00151632
0.00137542
0.00124689
0.0011382
0.00105668
0.0010036
0.00096162
0.000926742
0.000889895
0.000847753
0.000799904
0.000743079
0.000675066
0.000595351
0.000480025
0.000367962
0.000246112
8.93919e-05
0.00168188
0.00152875
0.00138854
0.00127305
0.00119318
0.00115552
0.00115744
0.00117456
0.00119079
0.0011973
0.00118895
0.00116267
0.00111539
0.00104321
0.000946338
0.000795294
0.000657003
0.000526586
0.000404804
0.000247304
9.49836e-05
0.00149412
0.00138667
0.00132556
0.00131762
0.00135558
0.00141836
0.0014729
0.00150666
0.00151689
0.00150519
0.00147138
0.00141478
0.00133465
0.00122038
0.00103894
0.0008882
0.000748541
0.000610899
0.000437721
0.00026219
0.000101354
0.00145083
0.0014402
0.00148768
0.00157337
0.00166581
0.00173489
0.00177107
0.00178334
0.00177272
0.00174123
0.00168849
0.00161344
0.00151496
0.00137762
0.00118539
0.00102119
0.000864905
0.000688534
0.000481712
0.000283291
0.000107501
0.00155383
0.00163513
0.00174816
0.00185624
0.00193763
0.00198472
0.0020032
0.00200095
0.00197948
0.00193857
0.00187687
0.00179282
0.0016847
0.00154994
0.00134006
0.00115698
0.000983571
0.000767865
0.000532735
0.000307727
0.000113287
0.00174338
0.00187459
0.00199923
0.0020939
0.00215531
0.00218825
0.00219838
0.00219017
0.00216388
0.00211823
0.00205162
0.00196214
0.00184765
0.00170593
0.0014965
0.00129488
0.00110456
0.000852816
0.000588618
0.000334414
0.000118713
0.00195749
0.00209998
0.00221319
0.00229218
0.00234193
0.00236833
0.00237493
0.00236396
0.00233461
0.00228553
0.00221508
0.00212129
0.00200183
0.00185403
0.00165459
0.00143476
0.00121649
0.000940867
0.000647922
0.000362852
0.000123818
0.00216146
0.00229731
0.00239807
0.00246734
0.00251155
0.00253519
0.00254009
0.00252681
0.00249445
0.00244176
0.00236727
0.0022692
0.00214524
0.00199242
0.00180719
0.00157608
0.00132604
0.00103007
0.000709582
0.000392756
0.000128649
0.00234522
0.00247213
0.00256462
0.00262907
0.00267107
0.00269363
0.00269693
0.00268101
0.00264502
0.00258794
0.00250866
0.00240574
0.00227713
0.00211982
0.00192971
0.00170187
0.00143179
0.00111881
0.00077275
0.00042394
0.000133249
0.00251136
0.00263168
0.00271997
0.00278274
0.00282437
0.00284621
0.00284763
0.00282844
0.00278795
0.00272548
0.00264037
0.00253168
0.00239783
0.00223604
0.00204195
0.0018096
0.00153225
0.00120578
0.000836717
0.000456267
0.000137658
0.00266453
0.0027814
0.00286849
0.00293168
0.00297373
0.00299482
0.00299393
0.00297079
0.00292489
0.00285595
0.00276383
0.00264824
0.00250821
0.00234147
0.00214376
0.00190836
0.00162642
0.00128996
0.000900879
0.000489629
0.000141909
0.00280879
0.0029249
0.00301307
0.0030779
0.00312065
0.00314086
0.00313724
0.00310947
0.00305726
0.00298076
0.00288043
0.00275668
0.00260934
0.00243685
0.00223541
0.00199793
0.00171365
0.00137054
0.000964721
0.000523932
0.000146034
0.00294709
0.00306475
0.00315554
0.00322255
0.00326612
0.00328527
0.00327848
0.00324542
0.00318606
0.00310097
0.00299124
0.00285807
0.0027022
0.00252302
0.00231745
0.00207842
0.00179363
0.00144695
0.0010278
0.000559091
0.000150061
0.00308172
0.00320253
0.0032967
0.0033662
0.0034106
0.00342846
0.00341805
0.00337909
0.00331178
0.00321715
0.00309692
0.00295315
0.00278757
0.00260072
0.00239048
0.00215014
0.00186627
0.0015188
0.00108974
0.000595027
0.000154013
0.00321385
0.00333881
0.00343682
0.00350893
0.00355406
0.00357032
0.00355585
0.0035104
0.00343443
0.0033294
0.00319771
0.00304229
0.002866
0.00267057
0.00245509
0.00221351
0.00193166
0.00158585
0.00115021
0.000631655
0.000157915
0.00334396
0.00347365
0.00357567
0.00365034
0.00369598
0.0037103
0.00369131
0.00363883
0.00355356
0.00343742
0.00329347
0.00312557
0.00293773
0.00273301
0.0025118
0.00226897
0.00199002
0.00164799
0.00120894
0.000668882
0.000161789
0.00347196
0.00360662
0.00371261
0.00378963
0.00383546
0.00384742
0.00382346
0.00376346
0.00366837
0.00354054
0.00338374
0.00320276
0.0030028
0.0027883
0.00256102
0.00231697
0.00204162
0.00170521
0.00126571
0.000706603
0.000165659
0.0035972
0.00373684
0.00384659
0.00392563
0.00397128
0.00398043
0.00395107
0.00388312
0.00377779
0.00363788
0.00346783
0.00327343
0.00306108
0.00283656
0.00260309
0.00235791
0.00208679
0.00175757
0.00132031
0.000744688
0.000169546
0.00371849
0.00386302
0.00397623
0.00405692
0.00410198
0.00410786
0.00407268
0.00399645
0.00388059
0.00372835
0.00354491
0.00333703
0.00311229
0.00287782
0.00263825
0.00239217
0.00212588
0.00180519
0.00137259
0.000782982
0.000173476
0.00383411
0.00398346
0.00409989
0.00418187
0.00422603
0.0042281
0.00418674
0.00410198
0.00397543
0.00381082
0.00361406
0.0033929
0.00315608
0.00291202
0.00266672
0.00242012
0.00215924
0.00184823
0.0014224
0.0008213
0.000177474
0.00390244
0.00409615
0.00421566
0.00429864
0.00434149
0.00433945
0.00429167
0.00419821
0.00406094
0.00388408
0.00367431
0.00344036
0.0031921
0.00293911
0.00268867
0.00244209
0.00218722
0.00188689
0.00146961
0.000859421
0.000181569
0.00382559
0.00409135
0.00432148
0.00440528
0.00444649
0.00444025
0.00438591
0.00428369
0.00413578
0.00394697
0.00372473
0.00347878
0.00322
0.00295902
0.00270428
0.0024584
0.00221017
0.00192136
0.00151409
0.000897025
0.000185796
0.00375074
0.00401091
0.00426591
0.00449789
0.00453939
0.00452893
0.00446798
0.00435703
0.00419868
0.00399838
0.00376446
0.00350756
0.00323948
0.00297174
0.00271375
0.00246939
0.00222843
0.00195184
0.0015557
0.000933702
0.000190192
0.00368433
0.00393889
0.00418648
0.00442417
0.00461207
0.00460406
0.00453656
0.00441694
0.00424846
0.00403732
0.00379274
0.00352622
0.00325036
0.0029773
0.0027173
0.00247539
0.00224236
0.00197853
0.00159426
0.000968728
0.000194808
0.00362789
0.00387858
0.00412405
0.00435745
0.00455643
0.00466442
0.00459042
0.00446226
0.00428405
0.00406293
0.00380897
0.00353445
0.00325255
0.00297584
0.00271519
0.00247677
0.00225229
0.0020016
0.00162961
0.0010013
0.000199703
0.0035854
0.00383349
0.0040794
0.00431826
0.00452132
0.00464299
0.00462856
0.00449192
0.00430454
0.00407453
0.00381276
0.00353211
0.00324612
0.00296755
0.00270776
0.00247389
0.00225853
0.00202116
0.00166284
0.00103322
0.00020479
0.00355775
0.00380549
0.00405412
0.00430325
0.00452038
0.00464856
0.00465036
0.00450506
0.00430927
0.00407173
0.00380397
0.00351925
0.00323127
0.00295305
0.0026961
0.00246786
0.00226239
0.0020393
0.00169543
0.00106577
0.000209971
0.00354287
0.00379189
0.0040457
0.00430859
0.00454478
0.00468995
0.00465518
0.00450249
0.00429978
0.00405654
0.00378477
0.00349793
0.0032097
0.00293309
0.00267988
0.00245827
0.00226356
0.00205563
0.00172748
0.00109902
0.000215267
0.00353711
0.00378764
0.00404765
0.00432707
0.00458555
0.00474933
0.00464557
0.00448597
0.00427746
0.00402997
0.00375578
0.00346842
0.00318139
0.00290765
0.00265927
0.00244528
0.00226215
0.00207009
0.00175889
0.00113317
0.000220666
0.00353585
0.00378769
0.00405577
0.00435687
0.0046417
0.00473318
0.00462235
0.00445659
0.00424333
0.00399288
0.00371772
0.00343125
0.00314674
0.00287704
0.00263452
0.00242907
0.00225825
0.00208266
0.00178932
0.00116802
0.00022616
0.00353648
0.00378924
0.00406768
0.00439409
0.00471113
0.00470405
0.00458647
0.00441527
0.00419826
0.0039461
0.0036713
0.00338701
0.00310619
0.00284157
0.00260588
0.00240982
0.00225192
0.00209323
0.00181864
0.00120342
0.000231746
0.00353737
0.00379071
0.00408301
0.00443575
0.00472922
0.00466254
0.0045387
0.00436279
0.00414305
0.00389036
0.00361715
0.00333619
0.00306009
0.00280149
0.00257353
0.00238767
0.00224317
0.00210159
0.00184643
0.00123918
0.000237401
0.00353831
0.00379314
0.00410289
0.00448111
0.00468286
0.00460926
0.00447975
0.00429993
0.00407846
0.00382635
0.00355581
0.00327917
0.00300865
0.00275692
0.00253756
0.00236267
0.00223195
0.00210738
0.00187206
0.00127489
0.000243086
0.00353909
0.00379711
0.00412614
0.00453228
0.00462522
0.004545
0.00441037
0.00422741
0.00400515
0.00375462
0.00348766
0.00321612
0.00295192
0.00270785
0.00249797
0.00233482
0.00221809
0.0021101
0.00189461
0.0013099
0.000248738
0.00353747
0.00380007
0.00414727
0.00457501
0.00455712
0.00447061
0.00433136
0.00414597
0.00392373
0.00367556
0.00341284
0.00314698
0.00288971
0.00265407
0.00245461
0.00230399
0.00220129
0.00210901
0.00191279
0.00134327
0.000254266
0.00352596
0.00379964
0.00416082
0.00451706
0.00447965
0.00438709
0.00424362
0.00405634
0.00383469
0.00358935
0.00333126
0.00307144
0.00282163
0.00259524
0.00240725
0.00226998
0.00218112
0.00210302
0.00192468
0.00137377
0.000259543
0.00350988
0.00379049
0.00416511
0.00443886
0.00439414
0.00429563
0.00414815
0.00395923
0.00373838
0.00349597
0.00324254
0.00298893
0.00274708
0.00253089
0.00235559
0.00223249
0.00215701
0.00209064
0.00183743
0.00139989
0.000264413
0.00349438
0.00377887
0.0041512
0.00435435
0.00430214
0.00419756
0.00404595
0.00385523
0.00363489
0.00339505
0.00314601
0.00289865
0.00266534
0.00246053
0.00229933
0.00219124
0.00212826
0.00201334
0.00163144
0.0014211
0.000268671
0.00347919
0.00376304
0.00412308
0.0042644
0.00420527
0.00409413
0.00393777
0.00374451
0.00352388
0.00328584
0.00304069
0.00279963
0.00257569
0.0023838
0.00223834
0.00214603
0.00209415
0.00175876
0.00147998
0.00135779
0.000271971
0.00346313
0.00374066
0.00408123
0.00417034
0.00410461
0.00398617
0.0038237
0.00362652
0.00340429
0.00316702
0.00292527
0.00269087
0.00247763
0.00230068
0.00217282
0.0020969
0.00199894
0.00156573
0.0013695
0.00128352
0.000274364
0.00344588
0.00371025
0.00402389
0.00407523
0.00400054
0.00387331
0.00370265
0.00349959
0.0032742
0.00303671
0.00279827
0.00257155
0.00237116
0.00221188
0.00210355
0.00204422
0.00175154
0.00141945
0.00128662
0.00122019
0.000275576
0.00342725
0.00367334
0.00395659
0.00397912
0.00389217
0.00375299
0.003572
0.00336089
0.0031309
0.00289276
0.00265842
0.00244155
0.00225729
0.0021192
0.00203212
0.00198889
0.00157021
0.00131445
0.00123077
0.00119229
0.000275649
0.00340571
0.00363306
0.00388722
0.00388037
0.00377674
0.00362167
0.00342743
0.0032068
0.00297148
0.00273339
0.00250541
0.00230219
0.00213884
0.00202465
0.00196066
0.00181392
0.00143972
0.0012499
0.00120584
0.00120145
0.000274578
0.00337835
0.00358824
0.00382187
0.00377562
0.00364981
0.00347471
0.00326461
0.00303342
0.00279382
0.00255822
0.00234089
0.00215715
0.00201989
0.0019335
0.00189273
0.00163574
0.00135545
0.00122578
0.00121502
0.00123752
0.00027247
0.00334558
0.00354065
0.00375314
0.00365873
0.00350514
0.00330678
0.00307972
0.00283867
0.00259735
0.00236943
0.00216966
0.00201362
0.0019071
0.00185022
0.00183021
0.00150735
0.00131532
0.0012436
0.00126229
0.00129071
0.000268865
0.00331196
0.00349876
0.00365095
0.00352083
0.00333547
0.0031128
0.00287014
0.00262278
0.00238545
0.00217329
0.00200061
0.00187822
0.00180716
0.00177813
0.00165718
0.00141929
0.00132102
0.00130936
0.00135166
0.0013486
0.00026383
0.00326763
0.00346524
0.00352415
0.00335253
0.0031341
0.00288925
0.0026357
0.00238928
0.00216589
0.00198079
0.00184527
0.00176275
0.00172468
0.00171544
0.00148624
0.00138374
0.00138167
0.00143394
0.00148612
0.00130566
0.000256581
0.00321701
0.00343921
0.00335971
0.00314478
0.00289636
0.0026356
0.00238009
0.00214642
0.00195084
0.00180567
0.00171452
0.00166892
0.00165388
0.00150022
0.0013968
0.0014229
0.00151232
0.00161389
0.00166091
0.00125446
0.000247543
0.00316658
0.00335865
0.00314586
0.00289162
0.00262151
0.00235604
0.00211259
0.00190799
0.00175582
0.00165971
0.00160916
0.00158766
0.00147141
0.00137953
0.00141161
0.00154578
0.00165207
0.00169778
0.00162981
0.00119119
0.000237096
0.00311103
0.00313853
0.00287553
0.00259255
0.00231473
0.00206136
0.00184902
0.00169172
0.00159472
0.00154289
0.00144262
0.00129628
0.00128303
0.00136913
0.0014866
0.00152549
0.0015902
0.00163932
0.00155743
0.00111742
0.000225489
0.00302731
0.00285023
0.00254934
0.00225448
0.00198908
0.00177016
0.00160974
0.00151441
0.00146631
0.00122935
0.00113057
0.00114327
0.0012328
0.00135697
0.00138837
0.00145277
0.00153329
0.00157174
0.00146695
0.00103151
0.000212734
0.00282307
0.00249562
0.00217647
0.00189358
0.00166692
0.0015062
0.00141528
0.00125382
0.00104135
0.000989788
0.00102268
0.00109609
0.00119176
0.0012427
0.00130884
0.00139733
0.00146874
0.00147511
0.00133356
0.00089797
0.000200165
0.00244222
0.00208533
0.00177608
0.00153659
0.00137633
0.00129395
0.00101235
0.000884585
0.000878133
0.000923611
0.000965965
0.000984243
0.00102231
0.00114271
0.00123675
0.00131921
0.00134481
0.00131066
0.00114065
0.000738181
0.000187966
0.00199835
0.00164177
0.00138069
0.00121825
0.0010592
0.00081187
0.000762152
0.00079926
0.000847305
0.000834403
0.000777975
0.000747147
0.000800708
0.000965762
0.00109587
0.00114097
0.00114438
0.00108533
0.000911849
0.000581216
0.00017554
0.00150921
0.00120296
0.00103488
0.000757955
0.000647062
0.000674013
0.000749766
0.00079033
0.00070942
0.00057543
0.000535336
0.000568809
0.00065878
0.000807641
0.000888499
0.000908569
0.000896475
0.000831152
0.000685112
0.000446194
0.000162336
0.00100853
0.000823835
0.000529247
0.00052302
0.000613962
0.000720604
0.00070456
0.000593148
0.000452038
0.000391399
0.000413664
0.000472755
0.000557599
0.000617605
0.000651778
0.000661049
0.000646442
0.00059587
0.000496961
0.000343772
0.00013977
0.000565905
0.000327608
0.000398688
0.000527327
0.000624842
0.000599113
0.000449682
0.00030383
0.000241375
0.00023869
0.00026108
0.000294061
0.000332054
0.000370287
0.000402491
0.000420042
0.000421374
0.000402999
0.000356498
0.000270685
0.000115943
0.00015776
0.000121636
0.000117602
0.000113104
0.000102741
8.91529e-05
7.59005e-05
7.14908e-05
7.38512e-05
7.85657e-05
8.36915e-05
8.8703e-05
9.35366e-05
9.82924e-05
0.000103182
0.000108541
0.00011348
0.000116831
0.000108273
0.000110473
9.30375e-05
0.000289693
0.00116517
0.00152865
0.00197829
0.0023455
0.00265341
0.00291309
0.00310638
0.00322794
0.00328237
0.00328103
0.00323609
0.00316051
0.00306646
0.00296397
0.00286019
0.00275914
0.00266221
0.00256899
0.000296106
0.00128548
0.00167018
0.00212765
0.00251523
0.00280685
0.00303543
0.00318645
0.00325856
0.00326044
0.00320707
0.00311562
0.00300203
0.00287979
0.00275845
0.00264289
0.00253385
0.00242929
0.00232598
0.000301578
0.00141372
0.00181519
0.00227946
0.00265545
0.00292439
0.00311708
0.0032236
0.00324706
0.00320088
0.00310406
0.0029773
0.00283871
0.00270109
0.00257082
0.00244823
0.00232952
0.00220936
0.00208316
0.000306073
0.00149273
0.00196919
0.0024408
0.00276777
0.00300987
0.0031645
0.003227
0.00320528
0.00311756
0.002987
0.0028364
0.00268365
0.00253842
0.00240199
0.0022697
0.00213481
0.00199197
0.00183977
0.000309658
0.00154351
0.00213568
0.00255385
0.00285486
0.00306781
0.00318434
0.00320539
0.00314383
0.00302245
0.00286771
0.00270303
0.00254341
0.00239349
0.00224945
0.00210401
0.00195177
0.00179307
0.00163571
0.000312429
0.00158466
0.00224006
0.00263589
0.00291976
0.0031029
0.00318302
0.00316669
0.00307169
0.00292489
0.0027547
0.002583
0.00242022
0.00226553
0.00211225
0.00195501
0.00179554
0.00164541
0.00152358
0.000314459
0.00161655
0.00230494
0.00270035
0.00296568
0.00311973
0.00316636
0.00311767
0.00299611
0.00283176
0.00265326
0.00247905
0.00231412
0.00215387
0.00199279
0.00183279
0.0016876
0.00157964
0.00153133
0.000315817
0.00163995
0.00235616
0.00274934
0.00299583
0.00312253
0.00313944
0.00306392
0.00292264
0.00274774
0.00256626
0.00239183
0.00222455
0.0020592
0.00189633
0.00174966
0.00164409
0.00160451
0.00164192
0.000316569
0.00165571
0.00239525
0.00278504
0.00301324
0.00311508
0.00310652
0.00300985
0.0028553
0.00267568
0.00249479
0.00232087
0.00215098
0.00198339
0.00182894
0.00171368
0.00166658
0.00170253
0.00181056
0.000316781
0.00166471
0.0024237
0.00280954
0.00302066
0.00310061
0.00307106
0.00295878
0.00279676
0.00261701
0.00243874
0.00226521
0.00209323
0.0019285
0.00179436
0.00172463
0.00174244
0.00184382
0.00199835
0.000316516
0.0016678
0.00244294
0.00282478
0.00302051
0.00308179
0.00303572
0.00291306
0.00274858
0.00257204
0.0023973
0.00222377
0.00205129
0.00189578
0.00179215
0.00177482
0.00185294
0.00200358
0.00218208
0.000315834
0.00166581
0.00245432
0.0028325
0.00301483
0.00306077
0.00300249
0.0028742
0.00271141
0.00254033
0.0023692
0.00219539
0.00202471
0.00188466
0.00181814
0.00185306
0.00198155
0.00216484
0.00235258
0.000314791
0.00165952
0.00245906
0.00283422
0.00300532
0.0030392
0.00297274
0.002843
0.00268517
0.00252089
0.00235295
0.00217883
0.0020125
0.00189292
0.00186604
0.00194849
0.00211659
0.00231972
0.00250984
0.000313442
0.00164965
0.00245828
0.00283125
0.00299334
0.00301829
0.00294732
0.00281967
0.00266923
0.00251227
0.00234677
0.00217267
0.00201324
0.00191732
0.00192941
0.00205315
0.00225109
0.00246574
0.00265624
0.000311832
0.00163683
0.00245295
0.00282467
0.00297995
0.00299891
0.00292664
0.00280397
0.0026625
0.0025124
0.00228447
0.00217507
0.0020251
0.00195432
0.00200269
0.0021619
0.00238185
0.00260352
0.00279461
0.000310006
0.00162164
0.00244389
0.00281539
0.00296595
0.00298158
0.0029108
0.00279527
0.00266338
0.00234413
0.00215249
0.00218382
0.00204591
0.0020007
0.0020822
0.00227089
0.00250725
0.0027344
0.00292724
0.000308001
0.00160456
0.00243184
0.00280411
0.00295193
0.00296661
0.0028996
0.00279267
0.00263787
0.00220302
0.00205855
0.00212787
0.00207343
0.00205364
0.00216491
0.00237806
0.00262746
0.00285981
0.00305579
0.000305852
0.00158603
0.0024174
0.00279141
0.0029383
0.00295412
0.00289267
0.00279504
0.00247744
0.00210265
0.00199339
0.00207368
0.00210612
0.00211085
0.00224891
0.00248284
0.00274305
0.00298085
0.0031812
0.000303588
0.00156639
0.00240106
0.00277773
0.00292534
0.00294406
0.0028895
0.00280115
0.00235723
0.00203108
0.00194707
0.00203462
0.00214274
0.00217048
0.00233314
0.00258517
0.0028545
0.00309814
0.00330382
0.000301234
0.00154597
0.00238325
0.00276342
0.0029132
0.0029363
0.0028895
0.00280994
0.00227043
0.00198007
0.00191451
0.00200783
0.00218205
0.0022315
0.00241636
0.00268413
0.00296179
0.00321167
0.00342333
0.000298812
0.00152499
0.00236432
0.00274872
0.00290196
0.0029306
0.00289206
0.00273514
0.00220775
0.00194466
0.00189288
0.00199047
0.00217224
0.00229283
0.00249707
0.00277838
0.00306404
0.00332054
0.0035387
0.000296338
0.00150368
0.00234453
0.00273383
0.00289161
0.0029267
0.00289653
0.00265416
0.00216286
0.00192062
0.00187926
0.00197978
0.00215775
0.00235297
0.00257355
0.00283914
0.00310917
0.00339034
0.0036482
0.00029383
0.00148219
0.00232412
0.00271887
0.00288211
0.00292433
0.00290241
0.00259432
0.00213156
0.00190526
0.00187162
0.00197382
0.00214796
0.00234454
0.00255936
0.00280154
0.0030606
0.00333131
0.00361443
0.000291298
0.00146067
0.00230327
0.00270392
0.00287341
0.00292323
0.00290932
0.00255143
0.00211079
0.00189701
0.00186857
0.00197018
0.00213949
0.00232807
0.00253046
0.00275897
0.00300751
0.0032694
0.0035441
0.000288753
0.0014392
0.00228211
0.00268906
0.0028654
0.00292314
0.00291696
0.00252172
0.00209842
0.00189458
0.00186914
0.00196807
0.00213119
0.00231125
0.00250238
0.00271836
0.00295614
0.00321
0.00347787
0.000286203
0.00141788
0.00226076
0.00267429
0.00285799
0.00292384
0.0029251
0.00250262
0.00209298
0.00189691
0.00187267
0.00196755
0.00212366
0.00229535
0.00247647
0.00268133
0.00290935
0.00315568
0.00341728
0.000283655
0.00139676
0.0022393
0.00265964
0.00285108
0.00292515
0.00293357
0.00249234
0.00209347
0.00190324
0.00187874
0.0019687
0.00211755
0.00228117
0.00245337
0.00264884
0.00286903
0.00310946
0.00336593
0.000281113
0.00137589
0.00221779
0.0026451
0.00284456
0.00292689
0.00294223
0.00248953
0.0020991
0.00191304
0.0018871
0.00197156
0.00211324
0.00226937
0.00243383
0.00262176
0.00283622
0.00307296
0.00332658
0.000278579
0.0013553
0.00219629
0.00263064
0.00283835
0.00292892
0.00295096
0.00249314
0.00210929
0.00192593
0.00189761
0.0019762
0.00211102
0.00226042
0.00241841
0.00260059
0.00281133
0.00304649
0.00329961
0.000276054
0.00133497
0.00217483
0.00261626
0.00283235
0.00293112
0.0029597
0.00250236
0.00212365
0.00194169
0.00191021
0.00198272
0.00211112
0.0022546
0.00240734
0.00258536
0.00279406
0.00302935
0.00328373
0.000273549
0.00131491
0.00215339
0.00260192
0.00282648
0.00293337
0.00296832
0.0025165
0.00214179
0.00196017
0.00192497
0.00199123
0.00211365
0.00225203
0.0024006
0.00257577
0.00278368
0.00302008
0.0032766
0.00027106
0.00129527
0.00213197
0.00258756
0.00282058
0.00293544
0.00297653
0.00253458
0.00216325
0.00198146
0.00194246
0.0020021
0.00211889
0.00225287
0.00239808
0.00257141
0.00277931
0.00301699
0.00327471
0.000268643
0.00127511
0.00211009
0.00257283
0.00281442
0.00293719
0.00298429
0.0025561
0.0021875
0.0020048
0.00196201
0.00201596
0.00212781
0.00225802
0.00240065
0.00257228
0.00277963
0.00301769
0.00327566
0.000266288
0.0012545
0.00208778
0.00255773
0.00280796
0.00293855
0.00299156
0.00258069
0.00221436
0.00203002
0.00198356
0.00203256
0.00214028
0.00226756
0.00240798
0.00257762
0.00278362
0.00302094
0.00327798
0.000263988
0.00123364
0.00206507
0.00254224
0.00280112
0.00293947
0.00299834
0.002608
0.00224375
0.00205712
0.00200706
0.00205176
0.00215603
0.00228108
0.00241953
0.00258679
0.00279052
0.00302593
0.00328088
0.000261734
0.00121264
0.00204195
0.00252631
0.00279387
0.00293988
0.00300459
0.00263764
0.00227553
0.00208611
0.00203251
0.0020734
0.00217475
0.00229815
0.00243482
0.00259926
0.00279973
0.00303198
0.00328357
0.000259521
0.00119159
0.00201842
0.00250993
0.00278614
0.00293974
0.00301033
0.00266919
0.00230951
0.00211695
0.00205987
0.00209733
0.00219617
0.00231838
0.00245343
0.00261459
0.00281069
0.00303815
0.00328484
0.000257344
0.00117049
0.00199449
0.00249307
0.00277789
0.00293903
0.00301554
0.00270216
0.00234548
0.00214959
0.00208907
0.00212341
0.00222002
0.00234145
0.00247506
0.00263254
0.00282303
0.00304401
0.003284
0.000255197
0.00114937
0.00197021
0.00247571
0.00276909
0.00293772
0.00302021
0.00273604
0.00238314
0.0021839
0.00212005
0.00215155
0.00224606
0.00236716
0.00249958
0.00265315
0.00283697
0.00305019
0.00327727
0.000253076
0.00112828
0.00194557
0.00245782
0.0027597
0.00293577
0.00302435
0.0027702
0.00242212
0.00221974
0.00215248
0.00218162
0.00227429
0.00239541
0.00252716
0.00267664
0.00285354
0.00305542
0.00326516
0.000250977
0.00110727
0.00192059
0.00243939
0.00274969
0.00293319
0.00302797
0.00280394
0.00246195
0.00225683
0.00218612
0.0022133
0.00230463
0.002426
0.0025577
0.00270361
0.00287312
0.00305229
0.00325377
0.000248895
0.00108635
0.00189531