/*--------------------------------*- C++ -*----------------------------------*\
| =========                 |                                                 |
| \\      /  F ield         | OpenFOAM: The Open Source CFD Toolbox           |
|  \\    /   O peration     | Version:  v2012                                 |
|   \\  /    A nd           | Website:  www.openfoam.com                      |
|    \\/     M anipulation  |                                                 |
\*---------------------------------------------------------------------------*/
FoamFile
{
    version     2.0;
    format      ascii;
    class       volScalarField;
    location    "619";
    object      omega;
}
// * * * * * * * * * * * * * * * * * * * * * * * * * * * * * * * * * * * * * //

dimensions      [0 0 -1 0 0 0 0];


internalField   nonuniform List<scalar> 
6057
(
95.5507
99.25
103.293
107.727
112.613
118.029
124.072
130.869
138.584
147.435
157.719
169.851
184.425
202.325
224.912
254.385
294.478
351.941
439.861
585.794
42.5373
44.3611
46.3617
48.563
50.9978
53.708
56.7449
60.1731
64.0746
68.5554
73.7535
79.8515
87.0939
95.8112
106.452
119.621
136.097
156.749
181.981
209.395
33.2647
34.768
36.4192
38.2406
40.2601
42.5111
45.0358
47.8868
51.1302
54.8504
59.1564
64.1906
70.1422
77.2665
85.9145
96.5795
109.976
127.186
149.978
181.661
30.2221
31.6254
33.1684
34.8723
36.7633
38.8735
41.2425
43.9197
46.9679
50.4674
54.5227
59.2718
64.9013
71.6681
79.9368
90.2412
103.395
120.698
144.362
178.426
29.1592
30.5288
32.0359
33.7013
35.5508
37.616
39.9361
42.5603
45.5511
48.9891
52.9797
57.6641
63.2345
69.9599
78.2278
88.6142
102.009
119.838
144.476
179.991
29.165
30.5328
32.0387
33.7033
35.5522
37.617
39.9368
42.5608
45.5514
48.9893
52.9799
57.6642
63.2345
69.9599
78.2278
88.6142
102.009
119.838
144.476
179.991
30.2438
31.64
33.1783
34.8791
36.768
38.8767
41.2445
43.9211
46.9688
50.468
54.523
59.2721
64.9014
71.6682
79.9369
90.2413
103.395
120.698
144.362
178.426
33.321
34.8037
36.4429
38.2562
40.2702
42.5177
45.0401
47.8896
51.1321
54.8517
59.1572
64.1912
70.1426
77.2668
85.9146
96.5796
109.976
127.186
149.978
181.661
42.6991
44.4479
46.4162
48.5962
51.0191
53.7218
56.754
60.1791
64.0786
68.558
73.7552
79.8526
87.0947
95.8117
106.452
119.621
136.098
156.749
181.981
209.395
95.4141
99.1672
103.238
107.69
112.588
118.011
124.06
130.861
138.578
147.431
157.716
169.849
184.424
202.324
224.912
254.384
294.478
351.941
439.861
585.794
53.6558
55.0972
56.5341
57.9738
59.4237
60.8915
62.3854
63.9142
65.4871
67.1143
68.8064
70.5752
72.433
74.3931
76.47
78.6748
81.016
83.5138
86.1906
89.0707
92.1806
25.6349
25.8138
26.0411
26.3184
26.6481
27.0321
27.4723
27.9706
28.5291
29.1497
29.8348
30.5865
31.4074
32.3
33.2677
34.3153
35.4398
36.6487
37.951
39.3575
40.881
19.0748
19.2382
19.4511
19.7121
20.0197
20.3729
20.7713
21.2146
21.7033
22.2381
22.8204
23.4518
24.1346
24.8714
25.6663
26.5208
27.4392
28.428
29.4949
30.649
31.9011
16.6337
16.8445
17.0979
17.3917
17.7239
18.0931
18.4988
18.9407
19.4193
19.9356
20.4912
21.0881
21.729
22.417
23.1558
23.9486
24.8008
25.7189
26.7105
27.7843
28.9505
15.5857
15.8437
16.1385
16.4677
16.8294
17.2225
17.6464
18.1013
18.5878
19.1072
19.6612
20.2522
20.8831
21.5572
22.2779
23.0497
23.8787
24.7718
25.7368
26.7824
27.919
15.1952
15.5045
15.8466
16.2192
16.6206
17.0498
17.5064
17.9908
18.5038
19.0469
19.6218
20.2307
20.8766
21.5622
22.2899
23.0647
23.8935
24.7849
25.7483
26.7921
27.9268
15.2182
15.5955
16.0038
16.4406
16.9039
17.3929
17.9076
18.4487
19.018
19.6178
20.2502
20.9177
21.6229
22.3664
23.1472
23.9661
24.8244
25.7461
26.7404
27.8138
28.9774
15.5756
16.0541
16.564
17.1012
17.6625
18.2464
18.8525
19.4826
20.1408
20.8331
21.5671
22.3512
23.1935
24.1007
25.0717
26.1072
27.216
28.3321
29.4622
30.6622
31.9463
16.2184
16.8536
17.5307
18.2445
18.9904
19.7645
20.5637
21.3865
22.2331
23.1076
24.0208
25.0056
26.0941
27.3333
28.7886
30.5061
32.4901
34.6448
36.7657
38.7024
40.6507
17.0383
17.8824
18.7982
19.7874
20.8546
22.0072
23.2555
24.6116
26.0895
27.7046
29.4724
31.4096
33.5223
35.8038
38.5628
42.0831
46.5941
52.3612
59.6531
68.8849
80.7449
14.2868
13.4101
13.5245
15.3762
21.0108
25.4774
29.0569
32.0434
34.5598
36.8015
38.8578
40.7768
42.5898
44.3187
45.9799
47.5861
49.1482
50.6751
52.1751
15.0203
10.0087
12.6282
18.1411
21.9842
23.9217
24.7779
25.201
25.3894
25.4431
25.4434
25.4176
25.382
25.3482
25.3258
25.3228
25.3465
25.4032
25.498
18.5225
11.9744
15.3414
18.8269
20.6721
21.3074
21.3528
21.1546
20.8217
20.4431
20.0788
19.7505
19.4693
19.2412
19.0695
18.9556
18.9
18.9022
18.961
22.5901
14.0493
16.2793
18.1616
18.9927
19.124
18.9166
18.5436
18.0969
17.6557
17.2614
16.929
16.6651
16.4708
16.345
16.2852
16.2879
16.3495
16.4661
26.327
15.2958
16.4018
17.2292
17.5283
17.4512
17.1675
16.7716
16.3431
15.9461
15.6094
15.3436
15.151
15.0303
14.9781
14.9902
15.0618
15.188
15.3642
29.0701
15.9778
16.1911
16.406
16.3691
16.193
15.8967
15.5334
15.167
14.8448
14.5876
14.4023
14.2894
14.2461
14.2684
14.3517
14.4909
14.6812
14.9175
31.034
16.3001
15.8581
15.7135
15.4959
15.2453
14.9592
14.6476
14.3547
14.1133
13.9382
13.8336
13.7993
13.8326
13.9299
14.087
14.2993
14.5619
14.8699
32.6413
16.384
15.4963
15.1398
14.8297
14.5357
14.2574
13.9998
13.7789
13.615
13.518
13.491
13.5338
13.6451
13.8227
14.0638
14.3646
14.7206
15.1263
33.966
16.3394
15.1486
14.6658
14.3095
13.9985
13.7284
13.5149
13.3581
13.2633
13.2367
13.2812
13.3984
13.5891
13.854
14.1926
14.6027
15.0808
15.6216
35.0519
16.2447
14.831
14.2715
13.8925
13.5801
13.3261
13.1425
13.0371
12.9998
13.0328
13.1399
13.3253
13.5936
13.9489
14.3936
14.9278
15.5495
16.2547
17.6471
18.5817
19.574
20.6226
21.7282
22.8942
24.1231
25.4167
26.7739
28.1853
29.6152
31.1226
32.7455
34.5124
36.4323
38.4346
40.2994
41.4384
40.3093
37.3617
31.6077
17.4229
18.1395
18.8263
19.4668
20.0426
20.5344
20.9076
21.1158
21.1119
21.0588
21.0224
20.9481
20.7675
20.5398
20.3031
20.0854
19.5614
18.3295
16.3671
13.6796
13.0926
16.0575
16.2439
16.2747
16.1222
15.7632
15.1801
14.3806
13.4837
12.7505
12.1143
11.5955
11.1336
10.7233
10.3848
10.1329
9.9562
9.78835
9.59315
9.54516
9.75097
11.5638
13.6219
13.1064
12.3584
11.4116
10.345
9.282
8.36983
7.7686
7.36564
7.10698
6.96384
6.90889
6.93536
7.05689
7.26187
7.55326
7.95012
8.47004
9.14402
10.0837
12.2871
10.6417
9.60917
8.4946
7.43468
6.56129
5.94522
5.61705
5.46907
5.43717
5.4825
5.59
5.75303
5.97025
6.24911
6.5936
7.01799
7.55084
8.23545
9.1451
10.4755
13.1111
7.93373
6.86818
5.96259
5.29344
4.87367
4.67715
4.63822
4.6777
4.7731
4.91034
5.08578
5.29991
5.55598
5.86122
6.22853
6.67988
7.25307
8.01428
9.08073
10.7207
13.9064
6.00978
5.21509
4.65862
4.33315
4.18562
4.16435
4.21916
4.31563
4.44368
4.59997
4.78504
5.0015
5.25448
5.55319
5.91442
6.36555
6.95225
7.75911
8.94154
10.8436
14.6548
4.83248
4.31631
4.01501
3.87864
3.85123
3.89211
3.97477
4.08426
4.2166
4.37172
4.55126
4.75853
4.99926
5.28363
5.63003
6.07003
6.65593
7.48624
8.75117
10.8772
15.3567
4.13863
3.82256
3.66938
3.62379
3.64473
3.70692
3.79661
3.90672
4.0362
4.18574
4.35722
4.55391
4.78153
5.05034
5.37927
5.80236
6.37737
7.21361
8.53251
10.8491
16.0171
3.72045
3.53053
3.45589
3.45288
3.49364
3.56292
3.65324
3.76138
3.88708
4.03121
4.19552
4.38297
4.59889
4.85325
5.16471
5.56783
6.12452
6.95331
8.30315
10.7799
16.642
3.45444
3.33881
3.306
3.32357
3.3728
3.44422
3.53389
3.64005
3.76276
3.90282
4.06168
4.24183
4.44806
4.68969
4.98477
5.36728
5.90126
6.71295
8.07551
10.6848
17.2371
3.2723
3.20072
3.1909
3.21892
3.2719
3.34403
3.43306
3.53789
3.65872
3.79619
3.95138
4.12628
4.32497
4.55591
4.83612
5.19872
5.70835
6.49674
7.85796
10.5746
17.8074
3.13904
3.0942
3.0975
3.13102
3.18582
3.25825
3.34689
3.45107
3.57101
3.7072
3.8604
4.03202
4.22538
4.44786
4.71521
5.05935
5.5447
6.30641
7.65581
10.4571
18.3574
3.03634
3.0082
3.01914
3.05561
3.11135
3.18388
3.27232
3.37631
3.49612
3.63215
3.78482
3.95503
4.14521
4.36159
4.61838
4.94608
5.40831
6.14207
7.47223
10.3382
18.8911
2.95428
2.93668
2.95206
2.99012
3.04618
3.11858
3.20685
3.3109
3.43111
3.56782
3.72123
3.89171
4.0808
4.29339
4.54209
4.85574
5.29681
6.00289
7.30888
10.2221
19.4119
2.88699
2.87609
2.89405
2.93272
2.98857
3.06053
3.1485
3.25266
3.37358
3.51162
3.66682
3.83906
4.02897
4.24002
4.4831
4.7853
5.20765
5.88748
7.16645
10.1119
19.9232
2.83109
2.82439
2.8436
2.8821
2.93721
3.00835
3.09576
3.19995
3.32171
3.46153
3.61936
3.79463
3.98705
4.19866
4.43856
4.73197
5.13838
5.79417
7.04503
10.01
20.4279
2.78446
2.78021
2.79965
2.8373
2.89114
2.96103
3.04755
3.1516
3.27422
3.41611
3.57718
3.75651
3.95291
4.167
4.40602
4.6933
5.08671
5.72127
6.94431
9.91861
20.9291
2.74566
2.74253
2.76139
2.79759
2.84965
2.91786
3.00317
3.10684
3.23027
3.37437
3.53912
3.7233
3.92491
4.14317
4.38343
4.66715
5.05057
5.66711
6.86382
9.83928
21.4297
2.71357
2.71057
2.72819
2.76241
2.81224
2.87839
2.96218
3.06527
3.1894
3.33577
3.50447
3.69407
3.90186
4.12572
4.36917
4.65176
5.02821
5.63021
6.80301
9.77367
21.9326
2.68729
2.68369
2.69954
2.73137
2.77859
2.84239
2.92442
3.02675
3.15148
3.30012
3.47291
3.66831
3.88301
4.11364
4.36196
4.64569
5.01812
5.60924
6.76137
9.72338
22.4409
2.66614
2.66139
2.67512
2.70422
2.74854
2.80981
2.88993
2.99139
3.11664
3.2675
3.44444
3.64586
3.86796
4.10628
4.36092
4.64786
5.01914
5.60311
6.7385
9.69012
22.9581
2.64965
2.64344
2.65478
2.68098
2.72223
2.78081
2.85894
2.95946
3.08519
3.23825
3.41933
3.62687
3.85669
4.10336
4.36549
4.6575
5.0304
5.611
6.73414
9.67574
23.4879
2.63774
2.62984
2.63869
2.66182
2.69994
2.75572
2.83179
2.9314
3.05763
3.21289
3.39811
3.6118
3.84948
4.10493
4.37547
4.67419
5.05133
5.63234
6.74824
9.68274
24.0346
2.63043
2.62065
2.62704
2.64711
2.68197
2.7349
2.80894
2.90771
3.03455
3.1921
3.3815
3.60133
3.84689
4.11133
4.39095
4.6978
5.08168
5.66685
6.78099
9.71419
24.6034
2.62766
2.61582
2.61971
2.63691
2.66863
2.71867
2.79082
2.88897
3.01667
3.17672
3.37042
3.5964
3.84976
4.12323
4.41235
4.72853
5.12153
5.71453
6.83288
9.77545
25.2004
2.62929
2.61519
2.61649
2.63083
2.65974
2.70727
2.77782
2.87582
3.00483
3.16775
3.366
3.59816
3.85919
4.14154
4.44039
4.76693
5.17127
5.77572
6.90457
9.87256
25.8337
2.63503
2.61849
2.61712
2.62861
2.65495
2.70067
2.77042
2.869
3.00003
3.16642
3.36958
3.60802
3.87652
4.16747
4.47609
4.81386
5.23166
5.85118
6.99265
9.9922
26.4917
2.64463
2.6255
2.62147
2.6303
2.65458
2.69927
2.76923
2.86959
3.00359
3.17422
3.38281
3.62765
3.90336
4.20216
4.51976
4.8691
5.30127
5.93693
7.09343
10.1243
27.162
2.65801
2.63623
2.62973
2.63648
2.65961
2.70425
2.77549
2.8782
3.01595
3.19153
3.40602
3.65747
3.94032
4.24689
4.57362
4.93469
5.3821
6.03538
7.20842
10.2664
27.8471
2.67542
2.65114
2.64254
2.64775
2.67045
2.71579
2.78929
2.89569
3.03837
3.21997
3.44124
3.69982
3.98993
4.30408
4.63964
5.01247
5.47586
6.14798
7.33893
10.4202
28.5455
2.69784
2.67093
2.66046
2.66471
2.68783
2.73506
2.8122
2.92365
3.07268
3.26161
3.49067
3.757
4.05451
4.37597
4.71994
5.10443
5.5844
6.27661
7.48595
10.5874
29.2562
2.7258
2.69629
2.68432
2.68838
2.71302
2.76361
2.84599
2.96413
3.12113
3.31883
3.55678
3.83149
4.13652
4.46498
4.81688
5.21285
5.70977
6.42316
7.65184
10.7694
29.9787
2.7601
2.72816
2.71524
2.72011
2.74766
2.80336
2.89278
3.0195
3.18627
3.39428
3.64228
3.92601
4.23864
4.57371
4.93303
5.34022
5.8543
6.58966
7.83824
10.967
30.7103
2.80177
2.76771
2.75461
2.7616
2.79381
2.85662
2.95509
3.09247
3.27096
3.49092
3.75012
4.04345
4.36369
4.70495
5.07114
5.48926
6.02046
6.77825
8.04704
11.1809
31.4457
2.85206
2.81636
2.80414
2.81501
2.8538
2.92591
3.03575
3.1861
3.37839
3.61194
3.88342
4.18685
4.51463
4.86158
5.23407
5.66276
6.21074
6.99106
8.27985
11.4114
32.1769
2.9124
2.87574
2.86581
2.88271
2.93024
3.01419
3.13799
3.30376
3.51195
3.76068
4.04544
4.35931
4.69441
5.04648
5.42471
5.8635
6.42752
7.22993
8.53777
11.6578
32.892
2.98494
2.94777
2.9417
2.96677
3.0261
3.12474
3.26531
3.44906
3.67521
3.94058
4.23941
4.56389
4.90594
5.26246
5.64583
6.09407
6.67286
7.49607
8.82082
11.9181
33.5747
3.07206
3.03542
3.03422
3.07049
3.14475
3.26117
3.42145
3.62568
3.87171
4.15494
4.46839
4.80341
5.15186
5.51207
5.8999
6.3566
6.94818
7.78954
9.12761
12.1881
34.2047
3.17581
3.14156
3.14727
3.1971
3.28974
3.42724
3.61018
3.83725
4.10482
4.40685
4.73516
5.0804
5.43445
5.79745
6.18892
6.65259
7.25403
8.11175
9.45617
12.4532
34.7554
3.29831
3.26887
3.28514
3.35122
3.46498
3.62686
3.83529
4.08731
4.37772
4.6991
5.04217
5.39694
5.75553
6.12026
6.51419
6.98263
7.59053
8.46488
9.79911
12.6877
35.1823
3.44181
3.42042
3.45361
3.53801
3.67511
3.86419
4.10074
4.37947
4.6936
5.03445
5.3917
5.75491
6.11656
6.48173
6.87633
7.34609
7.95862
8.84383
10.1445
12.9113
35.4918
3.60863
3.59879
3.65205
3.76056
3.9254
4.14415
4.4111
4.71788
5.05611
5.416
5.78629
6.15627
6.51907
6.88305
7.27542
7.74112
8.35438
9.23484
10.4782
13.1219
35.6486
3.80159
3.80863
3.88725
4.02506
4.22206
4.47373
4.77215
5.10773
5.46981
5.84766
6.22917
6.6037
6.9654
7.32636
7.71113
8.16555
8.76736
9.61422
10.7727
13.2808
35.6581
4.02455
4.0587
4.16712
4.33913
4.57273
4.86056
5.19193
5.55552
5.94049
6.33452
6.72484
7.10144
7.46062
7.81034
8.18042
8.61328
9.17935
9.95111
10.9923
13.3599
35.5196
4.28201
4.35349
4.49884
4.71134
4.98646
5.31337
5.6788
6.06977
6.47494
6.88304
7.27964
7.65672
8.00902
8.34368
8.68276
9.07021
9.55982
10.2054
11.0986
13.3496
35.2468
4.58215
4.69958
4.89239
5.15322
5.47474
5.8426
6.24162
6.65865
7.08251
7.50206
7.90349
8.28279
8.6211
8.92404
9.20349
9.50483
9.86218
10.3293
11.053
13.203
34.7806
4.94675
5.11708
5.36527
5.68109
6.05214
6.4606
6.89062
7.3311
7.77309
8.20477
8.61308
8.98583
9.3013
9.53898
9.71037
9.86193
10.0203
10.2686
10.8096
12.9498
34.1292
5.38037
5.62171
5.93692
6.31414
6.73551
7.18114
7.63771
8.09968
8.56183
9.01211
9.43207
9.79285
10.0405
10.1436
10.1284
10.0447
9.94942
9.97541
10.3578
12.569
33.1914
5.91521
6.24279
6.6346
7.07591
7.54351
8.01935
8.49858
8.98553
9.47779
9.95812
10.3869
10.6841
10.7734
10.6372
10.3249
9.93096
9.58214
9.43272
9.82079
12.1387
32.0223
6.59098
7.01711
7.49102
7.9916
8.49506
8.99357
9.49942
10.0273
10.5693
11.0819
11.4596
11.5811
11.3674
10.8427
10.1398
9.44691
8.93871
8.73868
9.2544
11.7196
30.6708
7.451
7.98712
8.53906
9.08409
9.61045
10.1345
10.6906
11.2895
11.8968
12.3732
12.5543
12.2976
11.5772
10.5529
9.50281
8.63465
8.0959
8.01376
8.71376
11.3372
29.1693
8.55608
9.1957
9.80456
10.3747
10.9239
11.5078
12.1585
12.8649
13.4565
13.7075
13.3923
12.4571
11.1092
9.69982
8.4912
7.59484
7.11847
7.31962
8.2597
11.0418
27.5193
9.9461
10.6653
11.3069
11.9019
12.5219
13.2309
14.0423
14.7617
15.0744
14.6432
13.4037
11.6873
9.93457
8.43346
7.27569
6.54133
6.35275
6.84302
8.05282
11.1729
25.8934
11.6387
12.4081
13.0946
13.7784
14.5668
15.5108
16.3562
16.6814
16.0163
14.3132
12.1517
10.1315
8.43855
7.16572
6.27217
5.86693
6.05436
6.7651
8.21313
11.6718
24.3154
13.607
14.475
15.3313
16.2476
17.3867
18.3315
18.4996
17.3374
14.962
12.3018
10.1485
8.4953
7.27705
6.49409
6.01495
5.90965
6.27207
7.12776
8.78827
12.4098
22.708
15.9289
17.1173
18.4352
19.8251
20.7202
20.3503
18.1121
14.7392
11.8778
9.72846
8.60812
7.79214
7.14223
6.67483
6.4445
6.53618
7.00681
7.97725
9.76627
13.238
20.9998
19.0992
21.0265
22.9645
23.2113
21.2597
17.2825
12.6523
10.4
9.45431
8.93792
8.55791
8.14277
7.7454
7.46618
7.40672
7.64627
8.21621
9.25285
11.0069
13.9561
19.0761
24.866
26.2436
25.7724
19.2345
13.5221
10.777
9.44277
9.19291
9.44508
9.69613
9.7656
9.64619
9.41483
9.18786
9.11411
9.37103
9.96979
10.9327
12.3773
14.3679
16.6926
37.7792
21.3655
20.657
19.8669
18.0465
15.6598
13.3321
12.5575
12.9721
13.8002
14.7005
15.5808
16.4298
17.2652
18.124
19.0654
19.9328
20.5215
20.5516
19.4631
14.1065
36.0026
16.1263
14.5303
13.9218
13.5323
13.2279
12.994
12.8391
12.7669
12.7747
12.8562
13.0159
13.261
13.5995
14.0374
14.577
15.2158
15.9469
16.7608
36.7996
16.0067
14.2603
13.6213
13.2288
12.9355
12.7195
12.5853
12.535
12.5668
12.6785
12.8717
13.1549
13.5356
14.0157
14.5885
15.2386
15.9439
16.6801
37.4796
15.8923
14.0137
13.3552
12.9638
12.681
12.4778
12.3548
12.3136
12.3529
12.4726
12.6752
12.9651
13.3426
13.7962
14.3005
14.8191
15.3107
15.735
38.0383
15.7751
13.7819
13.1111
12.7231
12.4476
12.2503
12.128
12.0829
12.1144
12.222
12.407
12.666
12.9832
13.3256
13.6442
13.8822
13.9861
13.9108
38.4837
15.6534
13.5597
12.8811
12.4961
12.2235
12.0244
11.893
11.8324
11.8424
11.9211
12.0631
12.2516
12.4493
12.5989
12.6329
12.4887
12.1201
11.5023
38.8281
15.5302
13.3442
12.6592
12.2757
12.0011
11.7932
11.6447
11.5599
11.5386
11.5748
11.652
11.7341
11.7619
11.661
11.3634
10.8258
10.0386
9.04211
39.0805
15.4063
13.1339
12.4419
12.0574
11.7765
11.5545
11.3838
11.27
11.2117
11.1956
11.1902
11.1385
10.9644
10.594
9.98415
9.13541
8.10749
7.01707
39.2492
15.2821
12.9279
12.2273
11.8394
11.5488
11.3096
11.1146
10.9709
10.8739
10.7994
10.6981
10.4954
10.1113
9.49428
8.64511
7.62721
6.56252
5.59403
39.3427
15.1578
12.7257
12.0147
11.6214
11.3193
11.062
10.844
10.6727
10.5376
10.4011
10.1958
9.83712
9.25775
8.44655
7.45762
6.4091
5.44394
4.674
39.369
15.0339
12.5274
11.8045
11.4043
11.0906
10.8166
10.5792
10.3845
10.2137
10.0133
9.70084
9.1924
8.44955
7.50872
6.47323
5.48691
4.67326
4.08643
39.336
14.9108
12.3334
11.5974
11.19
10.8656
10.5783
10.3267
10.114
9.91008
9.64506
9.22661
8.58309
7.71639
6.70744
5.69227
4.81113
4.14448
3.7041
39.2513
14.7891
12.1443
11.3943
10.9801
10.6474
10.3514
10.0918
9.86632
9.63145
9.30196
8.78245
8.02462
7.07336
6.04417
5.08743
4.31895
3.77812
3.44659
39.1218
14.6691
11.9605
11.1964
10.7765
10.4387
10.1394
9.87795
9.64425
9.38005
8.98713
8.37457
7.52524
6.52239
5.50571
4.6236
3.95797
3.5182
3.26436
38.954
14.5514
11.7828
11.0047
10.5807
10.2415
9.94434
9.6868
9.4485
9.15597
8.70176
8.00561
7.08621
6.05778
5.07329
4.26698
3.68995
3.32871
3.12945
38.754
14.4363
11.6116
10.8201
10.3939
10.0571
9.76744
9.51864
9.27842
8.9589
8.44566
7.6745
6.70517
5.67023
4.72787
3.99058
3.48769
3.18642
3.02572
38.527
14.324
11.4472
10.643
10.2167
9.8863
9.6088
9.37271
9.13306
8.78799
8.21536
7.3798
6.37872
5.34937
4.4514
3.77595
3.33353
3.07705
2.94379
38.2779
14.2146
11.2898
10.474
10.0497
9.72907
9.46783
9.2476
9.01019
8.64014
8.01052
7.1211
6.09957
5.08529
4.23054
3.60877
3.21453
2.99159
2.87795
38.0108
14.1083
11.1396
10.3131
9.89275
9.58512
9.34342
9.14159
8.9076
8.5122
7.82976
6.89534
5.86223
4.86932
4.05425
3.47772
3.12194
2.92419
2.82464
37.7295
14.0049
10.9963
10.1604
9.7458
9.45376
9.23406
9.05216
8.82255
8.40211
7.67146
6.69968
5.66184
4.69403
3.91342
3.37453
3.04974
2.87096
2.78148
37.4369
13.9045
10.86
10.0156
9.60842
9.33404
9.138
8.97683
8.75244
8.30803
7.53399
6.53156
5.49397
4.5519
3.80192
3.29423
2.99374
2.82917
2.74676
37.1358
13.8069
10.7303
9.8786
9.48005
9.22483
9.05352
8.9136
8.6948
8.22826
7.41586
6.3895
5.35442
4.43619
3.71502
3.23292
2.95087
2.79673
2.71913
36.8284
13.7119
10.607
9.74893
9.36006
9.12497
8.97884
8.86053
8.64769
8.16126
7.31556
6.27135
5.2399
4.34361
3.64882
3.18724
2.91871
2.77196
2.69754
36.5167
13.6193
10.4897
9.62623
9.24778
9.0333
8.91228
8.81579
8.60947
8.10534
7.23168
6.17563
5.14916
4.27218
3.59932
3.15382
2.89532
2.75377
2.68121
36.202
13.5291
10.3781
9.51006
9.14251
8.9487
8.85237
8.77774
8.57876
8.05969
7.16355
6.10014
5.0797
4.2192
3.56405
3.13102
2.87987
2.74177
2.67005
35.8858
13.441
10.2719
9.39997
9.04355
8.87015
8.79782
8.745
8.5544
8.02356
7.1102
6.04297
5.02925
4.18248
3.54139
3.11784
2.8718
2.73571
2.66396
35.5689
13.3549
10.1707
9.29551
8.95023
8.7967
8.74751
8.71638
8.53538
7.99619
7.07057
6.00242
4.99584
4.16031
3.53011
3.11348
2.87067
2.73535
2.66283
35.2522
13.2706
10.0741
9.19625
8.86196
8.72753
8.70048
8.69085
8.52079
7.97689
7.04363
5.97695
4.97778
4.15134
3.52926
3.11732
2.87606
2.74042
2.66646
34.9363
13.188
9.9819
9.10179
8.77815
8.66192
8.6559
8.66752
8.50981
7.96497
7.02838
5.96517
4.97362
4.15446
3.5381
3.12884
2.88761
2.75063
2.67457
34.6213
13.107
9.8937
9.01172
8.6983
8.59924
8.61309
8.64559
8.50169
7.95975
7.02384
5.96582
4.98213
4.16877
3.55606
3.14765
2.90503
2.76569
2.6869
34.3076
13.0276
9.80931
8.9257
8.62196
8.53896
8.57146
8.62439
8.49574
7.96057
7.02917
5.97778
5.00223
4.19357
3.5827
3.17344
2.92808
2.78544
2.70328
33.9962
12.9498
9.72841
8.84345
8.54873
8.48064
8.53053
8.60325
8.4912
7.96679
7.04368
6.0001
5.03307
4.22828
3.61767
3.20603
2.95675
2.80993
2.72376
33.6869
12.8729
9.65108
8.76491
8.47855
8.42424
8.48998
8.58093
8.48611
7.97758
7.06803
6.0324
5.07404
4.27257
3.66055
3.24526
2.99134
2.83984
2.7496
33.3865
12.8053
9.57893
8.6905
8.41136
8.36945
8.44948
8.55703
8.47935
7.98994
7.09852
6.07403
5.12538
4.32684
3.71365
3.29408
3.03395
2.87646
2.78129
33.0938
12.7464
9.51171
8.61994
8.34689
8.316
8.40877
8.53125
8.47056
8.00262
7.1338
6.12394
5.18612
4.39151
3.77713
3.35244
3.08487
2.92031
2.81952
32.8079
12.6946
9.44921
8.553
8.2849
8.26366
8.36764
8.50339
8.45946
8.01509
7.17301
6.18125
5.25552
4.46592
3.85068
3.42043
3.14456
2.97211
2.8652
32.5279
12.649
9.39129
8.48952
8.2252
8.21225
8.32595
8.47329
8.44581
8.02689
7.21539
6.24507
5.3328
4.54947
3.93398
3.49822
3.21361
3.03278
2.91948
32.2529
12.6089
9.33781
8.42937
8.16764
8.16164
8.28359
8.44089
8.42941
8.03758
7.26029
6.31464
5.4172
4.64153
4.02677
3.58604
3.29275
3.10343
2.98371
31.9823
12.5738
9.28857
8.37244
8.11209
8.11173
8.24052
8.40618
8.41016
8.04678
7.30711
6.38941
5.50801
4.74153
4.12876
3.68414
3.38276
3.18532
3.05955
31.7155
12.5434
9.2434
8.31863
8.05849
8.06247
8.19672
8.3692
8.38798
8.05412
7.35525
6.46915
5.60465
4.84912
4.23984
3.79283
3.4845
3.27989
3.14888
31.4519
12.5174
9.20215
8.26785
8.00677
8.01385
8.15223
8.33006
8.3629
8.05924
7.40273
6.5528
5.70733
4.96397
4.36062
3.91255
3.59893
3.38844
3.2537
31.1909
12.4951
9.16468
8.22002
7.95689
7.96588
8.10713
8.28892
8.33496
8.06181
7.44871
6.63893
5.81605
5.08569
4.4908
4.0437
3.72698
3.51269
3.37553
30.9322
12.4763
9.13084
8.17508
7.90886
7.9186
8.06152
8.24599
8.30433
8.06161
7.49264
6.72508
5.9295
5.21526
4.63042
4.18704
3.8696
3.6536
3.51606
30.6753
12.4604
9.10049
8.13298
7.86267
7.87208
8.01556
8.20155
8.27122
8.05855
7.53406
6.81056
6.04618
5.35165
4.77956
4.34253
4.02741
3.8121
3.67693
30.4197
12.4471
9.07345
8.09367
7.81836
7.82642
7.96943
8.15591
8.23596
8.05262
7.57263
6.89472
6.16506
5.49402
4.93811
4.51059
4.20041
3.9892
3.85992
30.1653
12.4358
9.04956
8.0571
7.77597
7.78177
7.92335
8.10945
8.19895
8.044
7.60818
6.97705
6.28527
5.64224
5.10575
4.69092
4.38931
4.18619
4.06724
29.9116
12.4262
9.0286
8.0232
7.73555
7.73826
7.8776
8.06261
8.1607
8.03303
7.64073
7.05726
6.40633
5.79542
5.2827
4.8838
4.59511
4.40491
4.30192
29.6585
12.4176
9.01031
7.99191
7.69717
7.69607
7.83247
8.01587
8.12184
8.02025
7.67057
7.13537
6.52891
5.95411
5.46849
5.09024
4.81966
4.64836
4.56883
29.4057
12.4094
8.99441
7.96313
7.66087
7.65538
7.78828
7.96978
8.0831
8.0064
7.6983
7.21186
6.65283
6.11923
5.66463
5.31237
5.0662
4.92159
4.87666
29.153
12.4009
8.98053
7.93673
7.6267
7.61637
7.74541
7.92494
8.0453
7.99243
7.72487
7.28836
6.78038
6.29149
5.87351
5.55375
5.34003
5.23265
5.23757
28.9004
12.3915
8.96827
7.91253
7.59467
7.57923
7.70421
7.88197
8.00938
7.97952
7.75164
7.36616
6.91385
6.4738
6.09897
5.81997
5.64952
5.59536
5.68229
28.6478
12.3802
8.95714
7.89033
7.56473
7.54409
7.66502
7.84154
7.97631
7.969
7.78062
7.44863
7.05601
6.67031
6.34674
6.11938
6.0076
6.03127
6.24447
28.3952
12.3662
8.9466
7.86983
7.53683
7.51105
7.62817
7.80427
7.9471
7.96234
7.81403
7.54009
7.21065
6.88663
6.62485
6.4644
6.43511
6.5841
6.95853
28.1427
12.3485
8.93603
7.85072
7.5108
7.48012
7.59401
7.77079
7.92269
7.96109
7.85394
7.64336
7.38291
7.13043
6.94456
6.87349
6.96576
7.33189
7.90606
27.8905
12.3263
8.92474
7.83258
7.48645
7.45127
7.56278
7.7416
7.90397
7.96684
7.90417
7.76168
7.57814
7.41012
7.32129
7.37424
7.65522
8.3084
9.14058
27.6386
12.2984
8.91202
7.81494
7.46348
7.4244
7.53458
7.71704
7.89165
7.98097
7.96873
7.89873
7.80217
7.73632
7.77551
8.0088
8.63787
9.6366
10.7166
27.3874
12.2641
8.89711
7.79728
7.44151
7.39928
7.50935
7.69723
7.88614
8.00435
8.04849
8.05757
8.06092
8.12168
8.33251
8.82134
9.89194
11.3253
12.5777
27.1373
12.2225
8.87928
7.77901
7.42012
7.37563
7.48688
7.68205
7.88747
8.03725
8.14349
8.23993
8.35956
8.57925
9.0236
9.92605
11.529
13.3063
14.5656
26.8886
12.1727
8.85781
7.75956
7.39881
7.35303
7.46678
7.67107
7.89519
8.07923
8.25261
8.44545
8.70013
9.11522
9.85742
11.2684
13.4521
15.2083
16.5118
26.6419
12.1141
8.8321
7.73836
7.37709
7.33104
7.44854
7.66357
7.90835
8.12895
8.37301
8.6702
9.07658
9.71618
10.7964
12.7131
15.3
16.594
18.6255
26.3978
12.0459
8.80172
7.71502
7.35456
7.30923
7.4315
7.65848
7.92521
8.18355
8.49896
8.90395
9.46817
10.3369
11.7484
14.0619
16.6202
17.6099
21.2734
26.2071
11.9863
8.774
7.69449
7.33552
7.29138
7.41811
7.6554
7.94062
8.23028
8.60316
9.09624
9.78678
10.8308
12.5027
14.9764
17.4697
18.9287
23.8315
26.0186
11.9224
8.74322
7.67226
7.31558
7.2732
7.40479
7.65263
7.95635
8.27662
8.70317
9.2757
10.0668
11.2158
12.9778
15.2724
17.9576
19.2848
17.7732
25.8322
11.8541
8.70909
7.64789
7.29424
7.25411
7.39089
7.64944
7.97167
8.32179
8.79749
9.43651
10.2909
11.4516
13.0682
15.0153
17.7304
17.9191
17.6184
17.2592
16.171
15.8119
15.7936
15.9146
16.097
16.2963
16.4902
16.6659
16.8161
16.9353
17.0182
17.0576
17.0422
16.951
16.7424
16.3352
15.5885
14.3973
12.3245
5.4789
6.98276
6.25099
6.16071
6.16724
6.21112
6.26971
6.34068
6.42519
6.52537
6.64376
6.78345
6.9485
7.14433
7.37788
7.6576
7.99176
8.38078
8.7914
9.12563
9.17413
8.37944
5.13315
4.79982
4.717
4.71478
4.75855
4.82859
4.9205
5.03351
5.16843
5.32707
5.51226
5.72817
5.98088
6.27937
6.63708
7.0736
7.6146
8.28491
9.08864
9.96074
10.2066
4.42689
4.19665
4.12611
4.12805
4.1714
4.23925
4.32899
4.44058
4.57424
4.73141
4.91476
5.1286
5.37958
5.678
6.04001
6.49088
7.06914
7.82958
8.85027
10.1915
11.5202
3.9738
3.80435
3.74317
3.74146
3.77562
3.83671
3.91832
4.02155
4.14649
4.29438
4.46779
4.67103
4.91095
5.1984
5.55088
5.99684
6.58271
7.38547
8.53071
10.1855
12.5184
3.65536
3.50642
3.44677
3.43884
3.46445
3.51715
3.59091
3.68597
3.80228
3.9409
4.10426
4.29653
4.5245
4.79904
5.13792
5.57073
6.1483
6.96207
8.16666
10.0574
13.3269
3.40463
3.26687
3.20714
3.19275
3.21129
3.25701
3.32536
3.41415
3.52356
3.65449
3.80915
3.99151
4.20812
4.46964
4.7937
5.21011
5.77209
6.5762
7.80884
9.87427
14.0137
3.20293
3.0722
3.01185
2.99285
3.00635
3.04704
3.11146
3.19563
3.29969
3.42436
3.57162
3.74517
3.95128
4.2003
4.50953
4.90887
5.45184
6.24065
7.48439
9.68245
14.6168
3.04121
2.91499
2.8535
2.83181
2.8423
2.87986
2.94099
3.02171
3.12157
3.24107
3.38195
3.54765
3.7441
3.98131
4.27626
4.65856
5.18233
5.95334
7.19847
9.4992
15.1561
2.91298
2.78841
2.72584
2.70303
2.71208
2.74777
2.80654
2.88463
2.98112
3.09626
3.23157
3.39021
3.57781
3.80398
4.08532
4.45123
4.95616
5.7086
6.94953
9.33106
15.6452
2.81175
2.68665
2.62376
2.601
2.60972
2.64445
2.70157
2.77762
2.8713
2.98267
3.11305
3.26536
3.44486
3.66077
3.92929
4.2796
4.76639
5.5003
6.73368
9.17966
16.0938
2.73231
2.60568
2.543
2.52102
2.53011
2.56446
2.62042
2.6948
2.78606
2.89412
3.02012
3.16673
3.33886
3.5453
3.80185
4.13743
4.60697
5.32284
6.54666
9.04459
16.5092
2.67067
2.54217
2.47994
2.45909
2.46888
2.50317
2.55825
2.63116
2.72025
2.82534
2.94745
3.08897
3.25445
3.45223
3.69767
4.01946
4.47274
5.17133
6.38449
8.92468
16.897
2.62371
2.49329
2.43152
2.41181
2.42235
2.45666
2.51095
2.58246
2.66953
2.77194
2.89058
3.02762
3.18719
3.37713
3.61234
3.92129
4.35938
5.04165
6.24366
8.81856
17.2618
2.5891
2.45663
2.39514
2.37635
2.38746
2.42167
2.4751
2.54517
2.63028
2.73024
2.84583
2.97898
3.1334
3.31635
3.54222
3.8393
4.26329
4.93032
6.12115
8.72489
17.6074
2.56521
2.43038
2.36867
2.35034
2.36167
2.39551
2.4479
2.5164
2.59957
2.69724
2.81015
2.94
3.09004
3.26688
3.48433
3.77051
4.18152
4.83446
6.01445
8.64246
17.9371
2.55066
2.41306
2.35041
2.33191
2.34295
2.37604
2.42711
2.49387
2.57503
2.67051
2.78107
2.90819
3.05464
3.22628
3.43625
3.71252
4.11165
4.7517
5.9214
8.57021
18.2534
2.5443
2.40341
2.33897
2.31953
2.3297
2.36157
2.411
2.47578
2.5548
2.64814
2.75661
2.88153
3.02518
3.19258
3.39605
3.66339
4.05172
4.68007
5.84021
8.50721
18.559
2.54499
2.40032
2.33325
2.31206
2.32069
2.35086
2.39829
2.46081
2.53752
2.62868
2.73524
2.85843
3.00004
3.16418
3.36216
3.62155
4.00014
4.61792
5.76934
8.45267
18.8559
2.55169
2.40287
2.33234
2.3086
2.31504
2.34301
2.38805
2.44801
2.52217
2.61106
2.71577
2.83757
2.9779
3.13986
3.33338
3.58579
3.9556
4.56387
5.70745
8.40586
19.1461
2.56348
2.41025
2.3355
2.3085
2.31216
2.33745
2.37968
2.43675
2.50811
2.5945
2.69728
2.81792
2.95766
3.11857
3.3088
3.55506
3.91695
4.51668
5.65335
8.36613
19.4314
2.57928
2.42194
2.34235
2.31141
2.31165
2.33378
2.37283
2.42667
2.49488
2.57843
2.67902
2.79866
2.93838
3.09886
3.28701
3.52832
3.88306
4.47521
5.60598
8.33283
19.7138
2.59813
2.4376
2.35278
2.317
2.31335
2.33191
2.36741
2.41763
2.48223
2.56245
2.66079
2.77942
2.91883
3.0791
3.26628
3.50414
3.85291
4.43847
5.5644
8.30541
19.9948
2.62022
2.45666
2.36638
2.32536
2.31732
2.3319
2.3634
2.40949
2.46997
2.54656
2.64206
2.75898
2.89796
3.05848
3.24551
3.48147
3.82578
4.40566
5.52785
8.28341
20.2763
2.64597
2.4789
2.38309
2.33652
2.32355
2.33358
2.36058
2.40199
2.45777
2.52999
2.62195
2.73673
2.87526
3.03656
3.22425
3.45973
3.80118
4.3762
5.49577
8.2665
20.56
2.67568
2.50466
2.40301
2.35038
2.33179
2.33653
2.35829
2.39438
2.44491
2.5123
2.60033
2.71263
2.85065
3.01321
3.20257
3.43872
3.77849
4.34971
5.46777
8.25459
20.8477
2.70994
2.53428
2.42627
2.36686
2.34178
2.34036
2.35614
2.38643
2.43144
2.49379
2.57764
2.68713
2.82443
2.98855
3.18045
3.41835
3.75753
4.32602
5.44367
8.24783
21.1413
2.74857
2.56848
2.45341
2.38623
2.35364
2.34521
2.35445
2.37866
2.41803
2.47525
2.5547
2.66098
2.79716
2.96281
3.15789
3.39858
3.73824
4.30507
5.42343
8.24665
21.4428
2.79012
2.60581
2.48376
2.40841
2.36769
2.35169
2.35399
2.37193
2.40562
2.45763
2.53248
2.63508
2.7695
2.93635
3.13493
3.37934
3.72057
4.28687
5.40712
8.25174
21.7547
2.83409
2.64523
2.51653
2.43302
2.38392
2.36014
2.35545
2.36721
2.39534
2.44215
2.51199
2.61034
2.74221
2.9096
3.11167
3.36051
3.70446
4.27152
5.39496
8.26408
22.0797
2.88072
2.68694
2.55123
2.45975
2.40245
2.37094
2.35935
2.36499
2.38761