/*--------------------------------*- C++ -*----------------------------------*\
| =========                 |                                                 |
| \\      /  F ield         | OpenFOAM: The Open Source CFD Toolbox           |
|  \\    /   O peration     | Version:  v2012                                 |
|   \\  /    A nd           | Website:  www.openfoam.com                      |
|    \\/     M anipulation  |                                                 |
\*---------------------------------------------------------------------------*/
FoamFile
{
    version     2.0;
    format      ascii;
    class       surfaceScalarField;
    location    "619";
    object      phi;
}
// * * * * * * * * * * * * * * * * * * * * * * * * * * * * * * * * * * * * * //

dimensions      [0 3 -1 0 0 0 0];
oriented        oriented;


internalField   nonuniform List<scalar> 
11870
(
-0.000198814
-2.04978e-08
0.000198835
-0.000198812
-1.94533e-09
-0.000198826
1.4017e-08
-0.000198853
2.67338e-08
-0.00019889
3.70742e-08
-0.000198935
4.51185e-08
-0.000198987
5.14365e-08
-0.000199043
5.65167e-08
-0.000199104
6.08189e-08
-0.000199169
6.47191e-08
-0.000199237
6.85273e-08
-0.00019931
7.25004e-08
-0.000199387
7.68324e-08
-0.000199468
8.16109e-08
-0.000199555
8.67515e-08
-0.000199647
9.18587e-08
-0.000199743
9.59643e-08
-0.000199842
9.91713e-08
-0.000199939
9.68586e-08
6.10548e-08
-0.000200155
-9.14903e-08
0.000200226
-0.000200103
-5.4291e-08
-0.000200065
-2.34917e-08
-0.00020004
9.30843e-10
-0.000200022
1.97986e-08
-0.000200011
3.41054e-08
-0.000200005
4.49888e-08
-0.000200002
5.33283e-08
-0.000200001
6.00037e-08
-0.000200002
6.56841e-08
-0.000200004
7.08903e-08
-0.000200008
7.60207e-08
-0.000200012
8.13386e-08
-0.000200018
8.69019e-08
-0.000200023
9.23633e-08
-0.000200028
9.6982e-08
-0.000200032
9.99016e-08
-0.000200032
9.92495e-08
-0.00020002
8.49235e-08
4.0664e-08
-0.00020051
-1.75863e-07
0.000200595
-0.000200445
-1.19171e-07
-0.000200395
-7.36274e-08
-0.000200356
-3.82709e-08
-0.000200324
-1.18345e-08
-0.000200298
7.74903e-09
-0.000200275
2.21802e-08
-0.000200255
3.27226e-08
-0.000200235
4.07194e-08
-0.000200217
4.7081e-08
-0.000200198
5.24845e-08
-0.00020018
5.74168e-08
-0.000200161
6.21948e-08
-0.000200141
6.69663e-08
-0.00020012
7.13395e-08
-0.000200097
7.40721e-08
-0.000200072
7.50853e-08
-0.000200044
7.17486e-08
-0.000200016
5.70455e-08
2.41937e-08
-0.000200641
-2.64627e-07
0.00020073
-0.000200573
-1.86538e-07
-0.000200521
-1.26151e-07
-0.000200479
-8.03817e-08
-0.000200443
-4.73879e-08
-0.000200412
-2.36827e-08
-0.000200383
-6.73941e-09
-0.000200355
5.08841e-09
-0.000200328
1.35507e-08
-0.000200301
1.9775e-08
-0.000200273
2.45667e-08
-0.000200244
2.849e-08
-0.000200214
3.19105e-08
-0.000200182
3.49978e-08
-0.000200148
3.75456e-08
-0.000200113
3.90288e-08
-0.000200077
3.92737e-08
-0.000200042
3.66062e-08
-0.000200013
2.80283e-08
1.12891e-08
-0.000200666
-3.52353e-07
0.000200754
-0.000200603
-2.49568e-07
-0.000200555
-1.74584e-07
-0.000200516
-1.19504e-07
-0.000200482
-8.11365e-08
-0.000200451
-5.45706e-08
-0.000200422
-3.64502e-08
-0.000200392
-2.4286e-08
-0.000200362
-1.61389e-08
-0.000200332
-1.07056e-08
-0.0002003
-7.09744e-09
-0.000200267
-4.69501e-09
-0.000200232
-3.09376e-09
-0.000200195
-2.03344e-09
-0.000200156
-1.33931e-09
-0.000200116
-8.76749e-10
-0.000200076
-5.5594e-10
-0.00020004
-3.32551e-10
-0.000200011
-1.74175e-10
-5.77482e-11
-0.000200616
-4.35296e-07
0.000200699
-0.000200564
-3.01266e-07
-0.000200526
-2.12869e-07
-0.000200495
-1.50096e-07
-0.000200468
-1.08472e-07
-0.000200441
-8.08992e-08
-0.000200415
-6.29437e-08
-0.000200388
-5.14685e-08
-0.00020036
-4.4356e-08
-0.00020033
-4.01924e-08
-0.000200299
-3.80976e-08
-0.000200266
-3.74397e-08
-0.000200232
-3.78046e-08
-0.000200195
-3.88666e-08
-0.000200156
-4.00949e-08
-0.000200116
-4.07019e-08
-0.000200076
-4.03321e-08
-0.00020004
-3.72357e-08
-0.000200011
-2.83501e-08
-1.13951e-08
-0.000200485
-5.13626e-07
0.000200563
-0.000200455
-3.31631e-07
-0.000200434
-2.33889e-07
-0.000200417
-1.66411e-07
-0.000200401
-1.24783e-07
-0.000200383
-9.8612e-08
-0.000200364
-8.2443e-08
-0.000200343
-7.26953e-08
-0.00020032
-6.72674e-08
-0.000200295
-6.4624e-08
-0.000200269
-6.4082e-08
-0.000200242
-6.50798e-08
-0.000200212
-6.72365e-08
-0.000200181
-7.0263e-08
-0.000200147
-7.35132e-08
-0.000200113
-7.55107e-08
-0.000200077
-7.59926e-08
-0.000200042
-7.22842e-08
-0.000200013
-5.72893e-08
-2.42731e-08
-0.000200235
-5.89752e-07
0.000200311
-0.000200245
-3.21655e-07
-0.000200251
-2.27394e-07
-0.000200257
-1.60886e-07
-0.000200257
-1.24367e-07
-0.000200253
-1.02754e-07
-0.000200245
-9.02014e-08
-0.000200235
-8.32067e-08
-0.000200222
-7.98695e-08
-0.000200208
-7.87452e-08
-0.000200193
-7.94511e-08
-0.000200176
-8.1647e-08
-0.000200158
-8.50369e-08
-0.000200139
-8.93293e-08
-0.000200119
-9.39712e-08
-0.000200096
-9.80364e-08
-0.000200072
-1.00565e-07
-0.000200044
-9.96743e-08
-0.000200016
-8.50471e-08
-4.07022e-08
-0.000199727
-6.20158e-07
0.000199758
-0.00019981
-2.38682e-07
-0.000199866
-1.71458e-07
-0.000199906
-1.20477e-07
-0.000199934
-9.71295e-08
-0.000199953
-8.39035e-08
-0.000199966
-7.67623e-08
-0.000199976
-7.31657e-08
-0.000199984
-7.18222e-08
-0.000199991
-7.19176e-08
-0.000199997
-7.32313e-08
-0.000200003
-7.55849e-08
-0.000200009
-7.88573e-08
-0.000200016
-8.29404e-08
-0.000200022
-8.76276e-08
-0.000200028
-9.24282e-08
-0.000200032
-9.633e-08
-0.000200032
-9.94181e-08
-0.00020002
-9.68834e-08
-6.10657e-08
-0.00019815
0.00019753
-0.000198389
-0.00019856
-0.000198681
-0.000198778
-0.000198862
-0.000198939
-0.000199012
-0.000199084
-0.000199156
-0.000199229
-0.000199304
-0.000199383
-0.000199466
-0.000199554
-0.000199646
-0.000199743
-0.000199842
-0.000199939
-0.000177303
4.95922e-06
0.000172344
-0.000181612
4.30846e-06
-0.000185318
3.70631e-06
-0.000188466
3.14771e-06
-0.0001911
2.63404e-06
-0.000193266
2.16619e-06
-0.000195011
1.74485e-06
-0.000196381
1.37015e-06
-0.000197423
1.0418e-06
-0.000198182
7.59215e-07
-0.000198704
5.21693e-07
-0.000199032
3.28147e-07
-0.000199208
1.76364e-07
-0.000199271
6.28789e-08
-0.000199255
-1.59251e-08
-0.000199192
-6.3344e-08
-0.000199105
-8.65106e-08
-0.000199016
-8.93669e-08
-0.000198937
-7.88441e-08
-0.000198876
-6.13809e-08
-4.09995e-08
-0.000181731
9.56817e-06
0.000177122
-0.000185731
8.30842e-06
-0.000189153
7.12846e-06
-0.000192037
6.03245e-06
-0.000194428
5.02436e-06
-0.000196368
4.10671e-06
-0.000197904
3.28103e-06
-0.000199082
2.5478e-06
-0.000199947
1.9065e-06
-0.000200544
1.3561e-06
-0.000200917
8.95289e-07
-0.000201111
5.22076e-07
-0.000201167
2.32378e-07
-0.000201124
1.96185e-08
-0.000201016
-1.24173e-07
-0.000200871
-2.0786e-07
-0.000200715
-2.42808e-07
-0.000200564
-2.40278e-07
-0.00020043
-2.13087e-07
-0.000200317
-1.74024e-07
-1.3182e-07
-0.000183296
1.40486e-05
0.000178816
-0.000187178
1.21909e-05
-0.000190496
1.04463e-05
-0.000193288
8.82382e-06
-0.000195593
7.32993e-06
-0.000197456
5.96916e-06
-0.000198919
4.74442e-06
-0.000200028
3.65677e-06
-0.000200827
2.70563e-06
-0.000201361
1.88968e-06
-0.000201673
1.20746e-06
-0.000201808
6.56875e-07
-0.000201807
2.32041e-07
-0.000201711
-7.66449e-08
-0.000201554
-2.8165e-07
-0.000201365
-3.96329e-07
-0.000201171
-4.37127e-07
-0.000200989
-4.2214e-07
-0.000200831
-3.71012e-07
-0.0002007
-3.04719e-07
-2.37644e-07
-0.000184266
1.84763e-05
0.000179838
-0.0001881
1.60255e-05
-0.000191374
1.37199e-05
-0.000194123
1.15727e-05
-0.000196386
9.59366e-06
-0.000198207
7.78928e-06
-0.000199626
6.16421e-06
-0.00020069
4.72023e-06
-0.000201441
3.45642e-06
-0.000201923
2.37167e-06
-0.00020218
1.46455e-06
-0.000202257
7.34254e-07
-0.000202199
1.74013e-07
-0.000202047
-2.28418e-07
-0.000201838
-4.91128e-07
-0.000201603
-6.30879e-07
-0.000201371
-6.69656e-07
-0.00020116
-6.33051e-07
-0.000200983
-5.47804e-07
-0.000200842
-4.45858e-07
-3.49903e-07
-0.000185
2.28768e-05
0.000180599
-0.000188808
1.98339e-05
-0.000192056
1.69677e-05
-0.000194779
1.42959e-05
-0.000197016
1.1831e-05
-0.000198808
9.58128e-06
-0.000200197
7.55308e-06
-0.000201226
5.74932e-06
-0.000201938
4.16852e-06
-0.000202377
2.81046e-06
-0.000202585
1.6721e-06
-0.000202605
7.54508e-07
-0.000202486
5.55701e-08
-0.000202275
-4.39468e-07
-0.000202009
-7.57569e-07
-0.000201723
-9.17174e-07
-0.000201448
-9.44431e-07
-0.000201206
-8.74972e-07
-0.000201012
-7.41864e-07
-0.000200866
-5.91466e-07
-4.62045e-07
-0.000185397
2.72443e-05
0.000181029
-0.000189175
2.36124e-05
-0.000192398
2.01906e-05
-0.000195102
1.7e-05
-0.000197326
1.40545e-05
-0.000199107
1.13627e-05
-0.000200485
8.93112e-06
-0.000201502
6.76663e-06
-0.000202204
4.87001e-06
-0.000202629
3.23576e-06
-0.000202817
1.85981e-06
-0.000202804
7.41876e-07
-0.000202639
-1.09493e-07
-0.00020238
-6.99112e-07
-0.000202065
-1.07194e-06
-0.000201731
-1.25094e-06
-0.000201418
-1.25829e-06
-0.000201147
-1.14597e-06
-0.000200939
-9.49397e-07
-0.000200801
-7.29796e-07
-5.64198e-07
-0.000185065
3.15225e-05
0.000180787
-0.000188766
2.73133e-05
-0.00019193
2.3354e-05
-0.000194597
1.96676e-05
-0.00019681
1.62672e-05
-0.000198606
1.31589e-05
-0.000200019
1.03442e-05
-0.000201076
7.82326e-06
-0.000201816
5.6103e-06
-0.000202293
3.71312e-06
-0.00020254
2.10597e-06
-0.000202581
7.8279e-07
-0.000202452
-2.37692e-07
-0.000202195
-9.56896e-07
-0.000201876
-1.3906e-06
-0.000201541
-1.58568e-06
-0.00020122
-1.57967e-06
-0.000200941
-1.42475e-06
-0.000200737
-1.15365e-06
-0.000200637
-8.29411e-07
-6.37983e-07
-0.000183188
3.55357e-05
0.000179175
-0.000186646
3.07714e-05
-0.000189606
2.63138e-05
-0.000192124
2.21857e-05
-0.000194252
1.83956e-05
-0.000196034
1.49406e-05
-0.000197502
1.18121e-05
-0.000198691
9.01189e-06
-0.000199627
6.54673e-06
-0.000200319
4.40486e-06
-0.000200784
2.5711e-06
-0.000201047
1.04594e-06
-0.000201125
-1.59447e-07
-0.000201069
-1.01325e-06
-0.000200957
-1.50275e-06
-0.000200794
-1.74806e-06
-0.000200604
-1.7699e-06
-0.000200425
-1.60399e-06
-0.000200297
-1.28157e-06
-0.000200303
-8.2339e-07
-6.30157e-07
-0.00017826
3.88495e-05
0.000174946
-0.000181031
3.35432e-05
-0.000183351
2.86329e-05
-0.000185306
2.41409e-05
-0.000186979
2.00693e-05
-0.000188445
1.64059e-05
-0.000189764
1.31312e-05
-0.000190981
1.02288e-05
-0.000192118
7.68379e-06
-0.000193187
5.47422e-06
-0.00019418
3.56413e-06
-0.000195082
1.94763e-06
-0.000195873
6.31997e-07
-0.000196588
-2.98364e-07
-0.000197259
-8.31566e-07
-0.00019784
-1.16779e-06
-0.000198312
-1.29762e-06
-0.000198715
-1.2005e-06
-0.000199016
-9.80785e-07
-0.000199244
-5.9526e-07
-1.16906e-07
-0.000168135
0.000166338
4.06473e-05
-0.000169333
3.47408e-05
-0.00017005
2.93502e-05
-0.000170403
2.44932e-05
-0.000170498
2.01651e-05
-0.00017044
1.63479e-05
-0.000170328
1.30188e-05
-0.000170259
1.01594e-05
-0.000170334
7.75959e-06
-0.000170699
5.83853e-06
-0.000171414
4.27892e-06
-0.000172526
3.05986e-06
-0.000174071
2.17745e-06
-0.000176067
1.69759e-06
-0.00017849
1.59118e-06
-0.000181277
1.61955e-06
-0.000184294
1.71947e-06
-0.000187425
1.92967e-06
-0.000190364
1.9588e-06
-0.000192662
1.70292e-06
4.75091e-06
7.5237e-06
-7.52371e-06
9.34381e-06
-1.82012e-06
6.51472e-06
2.82907e-06
4.94712e-07
6.02e-06
-9.81393e-06
1.03086e-05
-2.51423e-05
1.53283e-05
-4.29343e-05
1.7792e-05
-6.01573e-05
1.7223e-05
-7.57746e-05
1.56173e-05
-8.99928e-05
1.42182e-05
-0.000102984
1.29913e-05
-0.000114866
1.1882e-05
-0.000125726
1.08597e-05
-0.000135628
9.90246e-06
-0.000144624
8.99595e-06
-0.000152756
8.13136e-06
-0.00016006
7.30471e-06
-0.000166576
6.51612e-06
5.76782e-06
4.41815e-06
-1.19419e-05
2.43086e-06
1.67156e-07
-4.27954e-06
9.53946e-06
-1.63263e-05
1.80667e-05
-3.2221e-05
2.62034e-05
-4.8396e-05
3.15033e-05
-6.30162e-05
3.24122e-05
-7.65489e-05
3.07558e-05
-8.95883e-05
2.86566e-05
-0.000101908
2.65381e-05
-0.000113411
2.44945e-05
-0.000124094
2.25644e-05
-0.000133968
2.07337e-05
-0.000143049
1.89835e-05
-0.000151352
1.72987e-05
-0.000158891
1.56711e-05
-0.000165686
1.4099e-05
-0.000171755
1.25856e-05
1.11344e-05
-9.06393e-07
-1.10355e-05
-7.23801e-06
6.49876e-06
-1.79247e-05
2.02261e-05
-3.20226e-05
3.21647e-05
-4.67062e-05
4.08869e-05
-6.00019e-05
4.4799e-05
-7.22069e-05
4.46172e-05
-8.41324e-05
4.26813e-05
-9.57872e-05
4.03114e-05
-0.000106993
3.77435e-05
-0.000117653
3.51547e-05
-0.000127699
3.26103e-05
-0.000137088
3.01229e-05
-0.000145794
2.76895e-05
-0.000153801
2.53058e-05
-0.000161102
2.29721e-05
-0.000167698
2.06948e-05
-0.000173597
1.84845e-05
1.63531e-05
-6.42552e-06
-4.60998e-06
-1.61825e-05
1.62557e-05
-2.87954e-05
3.2839e-05
-4.24545e-05
4.58238e-05
-5.51273e-05
5.35597e-05
-6.65389e-05
5.62106e-05
-7.75479e-05
5.56262e-05
-8.85493e-05
5.36826e-05
-9.93885e-05
5.11506e-05
-0.000109935
4.82898e-05
-0.000120082
4.53018e-05
-0.000129739
4.22675e-05
-0.000138838
3.9222e-05
-0.000147329
3.61803e-05
-0.000155176
3.31526e-05
-0.000162356
3.0152e-05
-0.000168858
2.71966e-05
-0.000174681
2.43081e-05
2.15096e-05
-1.05782e-05
5.96826e-06
-2.27553e-05
2.84328e-05
-3.59576e-05
4.60413e-05
-4.86088e-05
5.8475e-05
-5.99313e-05
6.48822e-05
-7.04655e-05
6.67448e-05
-8.09023e-05
6.60631e-05
-9.13574e-05
6.41377e-05
-0.000101705
6.1498e-05
-0.000111843
5.84283e-05
-0.000121665
5.51237e-05
-0.000131075
5.16774e-05
-0.000139993
4.81405e-05
-0.000148356
4.4543e-05
-0.000156113
4.09099e-05
-0.00016323
3.72688e-05
-0.000169686
3.36521e-05
-0.000175473
3.00956e-05
2.66358e-05
-1.33698e-05
1.93381e-05
-2.69691e-05
4.20321e-05
-4.01051e-05
5.91772e-05
-5.193e-05
7.02999e-05
-6.25847e-05
7.55368e-05
-7.27834e-05
7.69436e-05
-8.29461e-05
7.62258e-05
-9.30934e-05
7.42851e-05
-0.00010315
7.1555e-05
-0.000113036
6.83144e-05
-0.000122654
6.47408e-05
-0.000131908
6.09318e-05
-0.000140714
5.69465e-05
-0.000148997
5.28263e-05
-0.000156698
4.86101e-05
-0.00016377
4.43412e-05
-0.000170187
4.00691e-05
-0.000175938
3.58468e-05
3.17268e-05
-1.50281e-05
3.43662e-05
-2.92542e-05
5.62582e-05
-4.21115e-05
7.20346e-05
-5.34626e-05
8.1651e-05
-6.38812e-05
8.59554e-05
-7.39856e-05
8.7048e-05
-8.40214e-05
8.62616e-05
-9.40028e-05
8.42664e-05
-0.000103891
8.14431e-05
-0.000113621
7.80444e-05
-0.000123106
7.4226e-05
-0.000132254
7.00798e-05
-0.000140974
6.56663e-05
-0.000149182
6.10345e-05
-0.000156809
5.6237e-05
-0.000163803
5.13352e-05
-0.000170134
4.63997e-05
-0.000175792
4.15047e-05
3.67223e-05
-1.59743e-05
5.03405e-05
-3.01822e-05
7.0466e-05
-4.27311e-05
8.45835e-05
-5.38639e-05
9.27838e-05
-6.42486e-05
9.63401e-05
-7.43472e-05
9.71465e-05
-8.43253e-05
9.62398e-05
-9.42141e-05
9.41552e-05
-0.000103996
9.12251e-05
-0.000113617
8.76652e-05
-0.000122995
8.36046e-05
-0.000132037
7.9121e-05
-0.00014064
7.42699e-05
-0.000148712
6.91061e-05
-0.000156172
6.36971e-05
-0.000162964
5.81272e-05
-0.000169058
5.24941e-05
-0.000174454
4.69004e-05
4.14429e-05
-1.62304e-05
6.65709e-05
-3.02003e-05
8.4436e-05
-4.24849e-05
9.6868e-05
-5.35214e-05
0.00010382
-6.3929e-05
0.000106748
-7.40361e-05
0.000107254
-8.39763e-05
0.00010618
-9.37955e-05
0.000103974
-0.000103486
0.000100915
-0.000112995
9.71744e-05
-0.000122238
9.28475e-05
-0.000131107
8.79897e-05
-0.000139484
8.2647e-05
-0.000147256
7.68785e-05
-0.00015433
7.07707e-05
-0.000160642
6.4439e-05
-0.000166167
5.80192e-05
-0.000170919
5.16525e-05
4.54699e-05
-1.59008e-05
8.24717e-05
-2.9606e-05
9.81412e-05
-4.16865e-05
0.000108949
-5.26632e-05
0.000114797
-6.30735e-05
0.000117158
-7.31625e-05
0.000117343
-8.30477e-05
0.000116065
-9.27792e-05
0.000113706
-0.000102347
0.000110484
-0.00011169
0.000106517
-0.000120703
0.00010186
-0.000129249
9.65362e-05
-0.000137179
9.05766e-05
-0.000144346
8.40461e-05
-0.000150634
7.70585e-05
-0.000155969
6.97742e-05
-0.000160334
6.23837e-05
-0.000163763
5.5082e-05
4.8044e-05
-0.000160392
3.99448e-05
0.000161095
-0.000158938
3.32864e-05
-0.000156859
2.7272e-05
-0.000154257
2.18903e-05
-0.000151196
1.71046e-05
-0.000147715
1.28664e-05
-0.000143819
9.12312e-06
-0.000139483
5.82355e-06
-0.000134656
2.93228e-06
-0.000129286
4.69097e-07
-0.000123324
-1.68333e-06
-0.000116704
-3.56035e-06
-0.000109401
-5.12563e-06
-0.000101354
-6.34907e-06
-9.24566e-05
-7.30623e-06
-8.25525e-05
-8.28454e-06
-7.151e-05
-9.32301e-06
-5.9766e-05
-9.81436e-06
-4.75949e-05
-1.02123e-05
-3.15344e-05
-1.43576e-05
-2.67835e-05
-0.000136022
3.64752e-05
0.000139492
-0.000131912
2.91764e-05
-0.000127314
2.26742e-05
-0.000122336
1.6912e-05
-0.000117044
1.18127e-05
-0.000111475
7.29767e-06
-0.000105648
3.29622e-06
-9.95687e-05
-2.5607e-07
-9.32419e-05
-3.39459e-06
-8.66398e-05
-6.13296e-06
-7.97077e-05
-8.61544e-06
-7.23817e-05
-1.08863e-05
-6.46387e-05
-1.28687e-05
-5.63296e-05
-1.46582e-05
-4.71751e-05
-1.64607e-05
-3.71776e-05
-1.8282e-05
-2.67172e-05
-1.97834e-05
-1.60331e-05
-2.04984e-05
-5.19695e-06
-2.10484e-05
3.07315e-06
-2.26277e-05
-2.37103e-05
-0.000110808
3.13849e-05
0.000115898
-0.000105555
2.3924e-05
-0.000100324
1.74433e-05
-9.52389e-05
1.18266e-05
-9.03727e-05
6.94645e-06
-8.57514e-05
2.67638e-06
-8.13486e-05
-1.10656e-06
-7.70698e-05
-4.53492e-06
-7.27514e-05
-7.71301e-06
-6.81659e-05
-1.07184e-05
-6.32077e-05
-1.35736e-05
-5.785e-05
-1.6244e-05
-5.19888e-05
-1.87298e-05
-4.55562e-05
-2.10908e-05
-3.86399e-05
-2.3377e-05
-3.13999e-05
-2.5522e-05
-2.39034e-05
-2.728e-05
-1.59505e-05
-2.84513e-05
-7.86029e-06
-2.91387e-05
-1.49836e-06
-2.89896e-05
-2.52087e-05
-8.97924e-05
2.65778e-05
9.45995e-05
-8.55352e-05
1.96669e-05
-8.19293e-05
1.38373e-05
-7.89457e-05
8.84297e-06
-7.64392e-05
4.43993e-06
-7.41819e-05
4.19146e-07
-7.19145e-05
-3.37401e-06
-6.94252e-05
-7.0242e-06
-6.65733e-05
-1.05649e-05
-6.32761e-05
-1.40156e-05
-5.94909e-05
-1.73588e-05
-5.51586e-05
-2.05764e-05
-5.02318e-05
-2.36566e-05
-4.47255e-05
-2.65971e-05
-3.87038e-05
-2.93987e-05
-3.22231e-05
-3.20027e-05
-2.53349e-05
-3.41683e-05
-1.80855e-05
-3.57007e-05
-1.08182e-05
-3.6406e-05
-4.41749e-06
-3.53903e-05
-2.96262e-05
-7.57531e-05
2.3643e-05
7.86879e-05
-7.374e-05
1.76538e-05
-7.24232e-05
1.25205e-05
-7.14782e-05
7.898e-06
-7.05862e-05
3.54791e-06
-6.95044e-05
-6.62714e-07
-6.80846e-05
-4.79372e-06
-6.62462e-05
-8.86264e-06
-6.39311e-05
-1.288e-05
-6.11032e-05
-1.68435e-05
-5.77301e-05
-2.0732e-05
-5.37841e-05
-2.45223e-05
-4.92498e-05
-2.81909e-05
-4.41383e-05
-3.17087e-05
-3.85076e-05
-3.50294e-05
-3.24519e-05
-3.80584e-05
-2.60233e-05
-4.05968e-05
-1.92898e-05
-4.24343e-05
-1.24487e-05
-4.3247e-05
-5.89669e-06
-4.19424e-05
-3.55229e-05
-6.77638e-05
2.28017e-05
6.86051e-05
-6.75465e-05
1.74366e-05
-6.75518e-05
1.25257e-05
-6.74722e-05
7.81846e-06
-6.71214e-05
3.1971e-06
-6.64006e-05
-1.3835e-06
-6.52559e-05
-5.93843e-06
-6.36489e-05
-1.04697e-05
-6.15506e-05
-1.49783e-05
-5.89403e-05
-1.94538e-05
-5.57984e-05
-2.38739e-05
-5.21099e-05
-2.82108e-05
-4.78693e-05
-3.24315e-05
-4.30904e-05
-3.64876e-05
-3.78232e-05
-4.02965e-05
-3.21513e-05
-4.37303e-05
-2.61167e-05
-4.66314e-05
-1.97713e-05
-4.87797e-05
-1.32284e-05
-4.97899e-05
-6.61801e-06
-4.85527e-05
-4.21409e-05
-6.30414e-05
2.32661e-05
6.25771e-05
-6.36408e-05
1.80359e-05
-6.40932e-05
1.29782e-05
-6.42526e-05
7.97779e-06
-6.40497e-05
2.99422e-06
-6.34467e-05
-1.98646e-06
-6.24156e-05
-6.96953e-06
-6.09316e-05
-1.19537e-05
-5.89752e-05
-1.69346e-05
-5.65307e-05
-2.18983e-05
-5.35841e-05
-2.68205e-05
-5.01267e-05
-3.16683e-05
-4.61591e-05
-3.63991e-05
-4.16949e-05
-4.09518e-05
-3.67652e-05
-4.52263e-05
-3.14309e-05
-4.90646e-05
-2.57369e-05
-5.23254e-05
-1.97148e-05
-5.48017e-05
-1.34301e-05
-5.60747e-05
-6.88043e-06
-5.51023e-05
-4.90213e-05
-5.95166e-05
2.42591e-05
5.85236e-05
-6.03491e-05
1.88685e-05
-6.08945e-05
1.35235e-05
-6.10992e-05
8.18251e-06
-6.09356e-05
2.83062e-06
-6.03828e-05
-2.53924e-06
-5.94219e-05
-7.93044e-06
-5.80348e-05
-1.33408e-05
-5.62054e-05
-1.87641e-05
-5.39188e-05
-2.41849e-05
-5.11622e-05
-2.95771e-05
-4.79279e-05
-3.49025e-05
-4.42174e-05
-4.01095e-05
-4.00425e-05
-4.51267e-05
-3.54235e-05
-4.98453e-05
-3.03984e-05
-5.40897e-05
-2.501e-05
-5.77139e-05
-1.92834e-05
-6.05283e-05
-1.32512e-05
-6.21069e-05
-6.86359e-06
-6.149e-05
-5.58849e-05
-5.62981e-05
2.53746e-05
5.51825e-05
-5.71449e-05
1.97153e-05
-5.76764e-05
1.4055e-05
-5.78713e-05
8.37742e-06
-5.77147e-05
2.67399e-06
-5.71927e-05
-3.06117e-06
-5.62917e-05
-8.83152e-06
-5.49967e-05
-1.46358e-05
-5.32925e-05
-2.04682e-05
-5.11636e-05
-2.63138e-05
-4.85955e-05
-3.21452e-05
-4.55786e-05
-3.79194e-05
-4.2112e-05
-4.35761e-05
-3.82058e-05
-4.90329e-05
-3.38775e-05
-5.41736e-05
-2.91432e-05
-5.8824e-05
-2.40378e-05
-6.28193e-05
-1.85941e-05
-6.5972e-05
-1.28265e-05
-6.78745e-05
-6.67585e-06
-6.76406e-05
-6.25607e-05
-5.31181e-05
2.64586e-05
5.20341e-05
-5.39117e-05
2.05089e-05
-5.43974e-05
1.45406e-05
-5.45646e-05
8.54471e-06
-5.44047e-05
2.51407e-06
-5.39084e-05
-3.55749e-06
-5.3065e-05
-9.67493e-06
-5.18614e-05
-1.58394e-05
-5.02823e-05
-2.20473e-05
-4.8311e-05
-2.82852e-05
-4.59306e-05
-3.45256e-05
-4.31277e-05
-4.07224e-05
-3.98964e-05
-4.68074e-05
-3.62431e-05
-5.26861e-05
-3.21843e-05
-5.82324e-05
-2.77282e-05
-6.32801e-05
-2.28991e-05
-6.76484e-05
-1.77355e-05
-7.11357e-05
-1.22475e-05
-7.33625e-05
-6.38467e-06
-7.35034e-05
-6.89454e-05
-4.99241e-05
2.74615e-05
4.89212e-05
-5.06436e-05
2.12285e-05
-5.10726e-05
1.49697e-05
-5.12063e-05
8.67833e-06
-5.10399e-05
2.34769e-06
-5.05675e-05
-4.02985e-06
-4.97806e-05
-1.04618e-05
-4.86671e-05
-1.69529e-05
-4.72117e-05
-2.35027e-05
-4.53962e-05
-3.01006e-05
-4.32015e-05
-3.67203e-05
-4.06101e-05
-4.33138e-05
-3.76107e-05
-4.98068e-05
-3.42022e-05
-5.60945e-05
-3.03959e-05
-6.20387e-05
-2.6205e-05
-6.7471e-05
-2.16507e-05
-7.22028e-05
-1.67696e-05
-7.60167e-05
-1.15753e-05
-7.85569e-05
-6.03262e-06
-7.9046e-05
-7.4978e-05
-4.67225e-05
2.83682e-05
4.58158e-05
-4.73614e-05
2.18674e-05
-4.77305e-05
1.53387e-05
-4.78288e-05
8.77662e-06
-4.76549e-05
2.1738e-06
-4.72052e-05
-4.47951e-06
-4.64729e-05
-1.11942e-05
-4.54467e-05
-1.79791e-05
-4.41114e-05
-2.4838e-05
-4.24479e-05
-3.17641e-05
-4.04347e-05
-3.87335e-05
-3.80506e-05
-4.56979e-05
-3.52788e-05
-5.25786e-05
-3.21117e-05
-5.92617e-05
-2.85534e-05
-6.5597e-05
-2.46199e-05
-7.14045e-05
-2.03371e-05
-7.64856e-05
-1.57409e-05
-8.06129e-05
-1.08505e-05
-8.34473e-05
-5.6468e-06
-8.42497e-05
-8.06248e-05
-4.35341e-05
2.9175e-05
4.27273e-05
-4.40911e-05
2.24244e-05
-4.44001e-05
1.56477e-05
-4.4463e-05
8.83957e-06
-4.4281e-05
1.9918e-06
-4.38524e-05
-4.90812e-06
-4.31717e-05
-1.18749e-05
-4.22288e-05
-1.8922e-05
-4.10086e-05
-2.60582e-05
-3.94914e-05
-3.32813e-05
-3.76539e-05
-4.0571e-05
-3.54714e-05
-4.78804e-05
-3.29221e-05
-5.51279e-05
-2.99922e-05
-6.21916e-05
-2.66808e-05
-6.89083e-05
-2.30031e-05
-7.50822e-05
-1.89897e-05
-8.0499e-05
-1.46796e-05
-8.4923e-05
-1.00995e-05
-8.80274e-05
-5.24439e-06
-8.91049e-05
-8.58692e-05
-4.03811e-05
2.98824e-05
3.96737e-05
-4.08577e-05
2.29009e-05
-4.11077e-05
1.58977e-05
-4.11359e-05
8.86775e-06
-4.09452e-05
1.80108e-06
-4.05355e-05
-5.31777e-06
-3.99028e-05
-1.25076e-05
-3.9038e-05
-1.97868e-05
-3.79266e-05
-2.71696e-05
-3.65487e-05
-3.46592e-05
-3.48796e-05
-4.22401e-05
-3.28919e-05
-4.98681e-05
-3.05594e-05
-5.74605e-05
-2.78627e-05
-6.48882e-05
-2.47964e-05
-7.19746e-05
-2.13739e-05
-7.85047e-05
-1.76289e-05
-8.4244e-05
-1.36057e-05
-8.89461e-05
-9.3393e-06
-9.22938e-05
-4.83614e-06
-9.3608e-05
-9.07054e-05
-3.72841e-05
3.0493e-05
3.66735e-05
-3.76826e-05
2.32994e-05
-3.78756e-05
1.60907e-05
-3.78697e-05
8.86185e-06
-3.76695e-05
1.60086e-06
-3.72763e-05
-5.71092e-06
-3.66874e-05
-1.30965e-05
-3.58949e-05
-2.05793e-05
-3.48851e-05
-2.81794e-05
-3.36384e-05
-3.59059e-05
-3.21294e-05
-4.37491e-05
-3.03286e-05
-5.16689e-05
-2.82062e-05
-5.95829e-05
-2.57381e-05
-6.73563e-05
-2.29141e-05
-7.47986e-05
-1.97457e-05
-8.16732e-05
-1.62682e-05
-8.77214e-05
-1.25321e-05
-9.26823e-05
-8.5802e-06
-9.62457e-05
-4.42859e-06
-9.77596e-05
-9.51339e-05
-3.42601e-05
3.10103e-05
3.37428e-05
-3.45832e-05
2.36225e-05
-3.47211e-05
1.62286e-05
-3.46816e-05
8.82243e-06
-3.44709e-05
1.39014e-06
-3.40916e-05
-6.09024e-06
-3.35422e-05
-1.36459e-05
-3.28158e-05
-2.13056e-05
-3.19001e-05
-2.90951e-05
-3.07758e-05
-3.70302e-05
-2.94176e-05
-4.51073e-05
-2.77948e-05
-5.32917e-05
-2.58748e-05
-6.15029e-05
-2.36294e-05
-6.96017e-05
-2.10441e-05
-7.73839e-05
-1.81275e-05
-8.45898e-05
-1.49163e-05
-9.09327e-05
-1.14663e-05
-9.61322e-05
-7.82833e-06
-9.98836e-05
-4.02546e-06
-0.000101562
-9.91594e-05
-3.1322e-05
3.14376e-05
3.08947e-05
-3.15726e-05
2.38732e-05
-3.16569e-05
1.63128e-05
-3.15841e-05
8.74971e-06
-3.13617e-05
1.16769e-06
-3.09934e-05
-6.45851e-06
-3.0479e-05
-1.41604e-05
-2.98127e-05
-2.19719e-05
-2.89833e-05
-2.99246e-05
-2.79725e-05
-3.8041e-05
-2.67553e-05
-4.63245e-05
-2.53006e-05
-5.47464e-05
-2.35741e-05
-6.32294e-05
-2.15444e-05
-7.16314e-05
-1.91929e-05
-7.97354e-05
-1.65252e-05
-8.72575e-05
-1.35781e-05
-9.38797e-05
-1.04127e-05
-9.92976e-05
-7.08674e-06
-0.00010321
-3.6286e-06
-0.000105021
-0.000102788
-2.8479e-05
3.17782e-05
2.81384e-05
-2.86592e-05
2.40534e-05
-2.86909e-05
1.63445e-05
-2.85847e-05
8.64352e-06
-2.83491e-05
9.32068e-07
-2.7989e-05
-6.81855e-06
-2.75053e-05
-1.46442e-05
-2.68932e-05
-2.25839e-05
-2.61426e-05
-3.06752e-05
-2.52362e-05
-3.89473e-05
-2.415e-05
-4.74107e-05
-2.28532e-05
-5.60433e-05
-2.13104e-05
-6.47721e-05
-1.94882e-05
-7.34536e-05
-1.73645e-05
-8.18592e-05
-1.49416e-05
-8.96804e-05
-1.22559e-05
-9.65654e-05
-9.37268e-06
-0.000102181
-6.35636e-06
-0.000106226
-3.23861e-06
-0.000108138
-0.000106027
-2.57358e-05
3.20345e-05
2.54795e-05
-2.58471e-05
2.41647e-05
-2.58267e-05
1.6324e-05
-2.56865e-05
8.50331e-06
-2.54361e-05
6.81664e-07
-2.50815e-05
-7.17311e-06
-2.46244e-05
-1.51013e-05
-2.4061e-05
-2.31472e-05
-2.3382e-05
-3.13542e-05
-2.25715e-05
-3.97579e-05
-2.16063e-05
-4.83759e-05
-2.04566e-05
-5.7193e-05
-1.90873e-05
-6.61414e-05
-1.74635e-05
-7.50774e-05
-1.55603e-05
-8.37624e-05
-1.33771e-05
-9.18635e-05
-1.09495e-05
-9.8993e-05
-8.34571e-06
-0.000104785
-5.63654e-06
-0.000108935
-2.85527e-06
-0.00011092
-0.000108882
-2.3092e-05
3.22086e-05
2.2918e-05
-2.31356e-05
2.42083e-05
-2.30633e-05
1.62517e-05
-2.28884e-05
8.3284e-06
-2.26217e-05
4.14933e-07
-2.22701e-05
-7.52469e-06
-2.1836e-05
-1.55354e-05
-2.13163e-05
-2.36669e-05
-2.07023e-05
-3.19682e-05
-1.99792e-05
-4.0481e-05
-1.91254e-05
-4.92297e-05
-1.81122e-05
-5.82062e-05
-1.69056e-05
-6.7348e-05
-1.54702e-05
-7.65128e-05
-1.37796e-05
-8.54531e-05
-1.18304e-05
-9.38127e-05
-9.6567e-06
-0.000101167
-7.32956e-06
-0.000107112
-4.92534e-06
-0.000111339
-2.47799e-06
-0.000113367
-0.00011136
-2.05406e-05
3.2304e-05
2.04452e-05
-2.05188e-05
2.41865e-05
-2.03955e-05
1.61285e-05
-2.01857e-05
8.11861e-06
-1.99016e-05
1.30767e-07
-1.9551e-05
-7.87529e-06
-1.91367e-05
-1.59497e-05
-1.86562e-05
-2.41475e-05
-1.81011e-05
-3.25233e-05
-1.74576e-05
-4.11245e-05
-1.67055e-05
-4.99818e-05
-1.58183e-05
-5.90934e-05
-1.47634e-05
-6.8403e-05
-1.35062e-05
-7.77699e-05
-1.20194e-05
-8.69399e-05
-1.02977e-05
-9.55344e-05
-8.37387e-06
-0.000103091
-6.32053e-06
-0.000109165
-4.21958e-06
-0.00011344
-2.10595e-06
-0.000115481
-0.000113466
-1.80651e-05
3.23311e-05
1.8038e-05
-1.79848e-05
2.41062e-05
-1.7814e-05
1.59577e-05
-1.75707e-05
7.87528e-06
-1.72689e-05
-1.70973e-07
-1.6918e-05
-8.22621e-06
-1.65212e-05
-1.63465e-05
-1.60757e-05
-2.45929e-05
-1.55737e-05
-3.30253e-05
-1.50021e-05
-4.16961e-05
-1.43425e-05
-5.06413e-05
-1.35707e-05
-5.98653e-05
-1.26564e-05
-6.93173e-05
-1.15667e-05
-7.88595e-05
-1.02746e-05
-8.82321e-05
-8.77365e-06
-9.70353e-05
-7.09545e-06
-0.000104769
-5.31361e-06
-0.000110947
-3.51524e-06
-0.000115239
-1.73864e-06
-0.000117257
-0.000115204
-1.56474e-05
3.22948e-05
1.56837e-05
-1.55175e-05
2.39764e-05
-1.5307e-05
1.57472e-05
-1.50338e-05
7.60199e-06
-1.47156e-05
-4.89136e-07
-1.43638e-05
-8.57797e-06
-1.39824e-05
-1.6728e-05
-1.35682e-05
-2.50071e-05
-1.31135e-05
-3.34801e-05
-1.26061e-05
-4.22035e-05
-1.20297e-05
-5.12177e-05
-1.13626e-05
-6.05323e-05
-1.05778e-05
-7.01021e-05
-9.64489e-06
-7.97924e-05
-8.53805e-06
-8.93389e-05
-7.25083e-06
-9.83225e-05
-5.81419e-06
-0.000106205
-4.30234e-06
-0.000112459
-2.80726e-06
-0.000116734
-1.37099e-06
-0.000118693
-0.000116575
-1.32919e-05
3.21891e-05
1.33976e-05
-1.31103e-05
2.37948e-05
-1.28645e-05
1.55014e-05
-1.25668e-05
7.30429e-06
-1.22342e-05
-8.21731e-07
-1.18814e-05
-8.93083e-06
-1.15131e-05
-1.70962e-05
-1.11262e-05
-2.5394e-05
-1.07124e-05
-3.38938e-05
-1.02611e-05
-4.26548e-05
-9.7581e-06
-5.17207e-05
-9.18505e-06
-6.11054e-05
-8.51844e-06
-7.07687e-05
-7.73137e-06
-8.05795e-05
-6.80034e-06
-9.02699e-05
-5.71994e-06
-9.9403e-05
-4.52133e-06
-0.000107404
-3.27882e-06
-0.000113701
-2.08886e-06
-0.000117924
-1.00098e-06
-0.000119781
-0.000117576
-1.10191e-05
3.20129e-05
1.11953e-05
-1.07784e-05
2.35541e-05
-1.04896e-05
1.52125e-05
-1.0166e-05
6.98076e-06
-9.82016e-06
-1.1676e-06
-9.465e-06
-9.28599e-06
-9.10676e-06
-1.74544e-05
-8.74146e-06
-2.57593e-05
-8.36115e-06
-3.42741e-05
-7.95664e-06
-4.30593e-05
-7.51671e-06
-5.21606e-05
-7.02653e-06
-6.15956e-05
-6.46672e-06
-7.13285e-05
-5.81447e-06
-8.12317e-05
-5.04979e-06
-9.10346e-05
-4.16964e-06
-0.000100283
-3.20671e-06
-0.000108367
-2.23481e-06
-0.000114673
-1.35167e-06
-0.000118807
-6.12765e-07
-0.00012052
-0.000118189
-8.83677e-06
3.17707e-05
9.07891e-06
-8.53882e-06
2.32562e-05
-8.20074e-06
1.48744e-05
-7.84017e-06
6.62019e-06
-7.47374e-06
-1.53402e-06
-7.1117e-06
-9.64804e-06
-6.75722e-06
-1.78089e-05
-6.40555e-06
-2.6111e-05
-6.04901e-06
-3.46307e-05
-5.68058e-06
-4.34278e-05
-5.29231e-06
-5.25489e-05
-4.87329e-06
-6.20146e-05
-4.40857e-06
-7.17932e-05
-3.88005e-06
-8.17602e-05
-3.27227e-06
-9.16424e-05
-2.58609e-06
-0.000100969
-1.85721e-06
-0.000109096
-1.15976e-06
-0.000115371
-5.95049e-07
-0.000119371
-2.10759e-07
-0.000120905
-0.0001184
-6.74174e-06
3.14667e-05
7.04579e-06
-6.39024e-06
2.29047e-05
-6.00465e-06
1.44889e-05
-5.60113e-06
6.21667e-06
-5.20083e-06
-1.93431e-06
-4.81956e-06
-1.00293e-05
-4.45813e-06
-1.81703e-05
-4.10853e-06
-2.64606e-05
-3.76331e-06
-3.49759e-05
-3.41839e-06
-4.37727e-05
-3.06929e-06
-5.2898e-05
-2.70909e-06
-6.23748e-05
-2.32742e-06
-7.21749e-05
-1.91143e-06
-8.21762e-05
-1.45127e-06
-9.21025e-05
-9.53197e-07
-0.000101467
-4.56471e-07
-0.000109592
-3.61514e-08
-0.000115791
1.98834e-07
-0.000119606
2.26665e-07