/*--------------------------------*- C++ -*----------------------------------*\
| =========                 |                                                 |
| \\      /  F ield         | OpenFOAM: The Open Source CFD Toolbox           |
|  \\    /   O peration     | Version:  v2012                                 |
|   \\  /    A nd           | Website:  www.openfoam.com                      |
|    \\/     M anipulation  |                                                 |
\*---------------------------------------------------------------------------*/
FoamFile
{
    version     2.0;
    format      ascii;
    class       volVectorField;
    location    "619";
    object      U;
}
// * * * * * * * * * * * * * * * * * * * * * * * * * * * * * * * * * * * * * //

dimensions      [0 1 -1 0 0 0 0];


internalField   nonuniform List<vector> 
6057
(
(4.42665e-05 -0.994101 0)
(9.04723e-05 -0.994049 0)
(0.0001305 -0.994082 0)
(0.000158732 -0.994187 0)
(0.000185143 -0.99435 0)
(0.000207123 -0.994557 0)
(0.000225603 -0.9948 0)
(0.000241653 -0.995071 0)
(0.000256402 -0.995364 0)
(0.000270848 -0.995678 0)
(0.000285848 -0.996011 0)
(0.000302103 -0.996363 0)
(0.000320047 -0.996736 0)
(0.000339665 -0.997132 0)
(0.000360386 -0.997552 0)
(0.000380365 -0.998001 0)
(0.000394334 -0.998485 0)
(0.00038958 -0.99899 0)
(0.000316705 -0.999437 0)
(7.97495e-05 -0.999743 0)
(-0.000219833 -1.00093 0)
(-0.000108269 -1.00063 0)
(-1.37488e-05 -1.00041 0)
(6.29715e-05 -1.00025 0)
(0.000122828 -1.00015 0)
(0.000168849 -1.00008 0)
(0.000204286 -1.00004 0)
(0.000232144 -1.00001 0)
(0.00025514 -1 0)
(0.000275453 -1.00001 0)
(0.000294837 -1.00001 0)
(0.000314669 -1.00003 0)
(0.00033585 -1.00005 0)
(0.000358695 -1.00007 0)
(0.000382982 -1.0001 0)
(0.000406852 -1.00013 0)
(0.000422573 -1.00016 0)
(0.000428876 -1.00017 0)
(0.000381782 -1.00014 0)
(0.000206019 -1.00003 0)
(-0.000526971 -1.00274 0)
(-0.000340449 -1.00237 0)
(-0.000188272 -1.00209 0)
(-6.85609e-05 -1.00187 0)
(2.29018e-05 -1.00169 0)
(9.10277e-05 -1.00155 0)
(0.000141824 -1.00143 0)
(0.000179968 -1.00132 0)
(0.000209669 -1.00122 0)
(0.000234086 -1.00113 0)
(0.000255627 -1.00104 0)
(0.000276101 -1.00095 0)
(0.000296786 -1.00085 0)
(0.000318203 -1.00075 0)
(0.000337758 -1.00065 0)
(0.000349339 -1.00054 0)
(0.000355704 -1.00042 0)
(0.000346103 -1.00029 0)
(0.000288155 -1.00014 0)
(0.00013975 -1.00003 0)
(-0.000878841 -1.0034 0)
(-0.000611058 -1.00302 0)
(-0.000399001 -1.00272 0)
(-0.000235923 -1.00249 0)
(-0.000116863 -1.0023 0)
(-2.95546e-05 -1.00213 0)
(3.4639e-05 -1.00199 0)
(8.01795e-05 -1.00184 0)
(0.000113815 -1.00171 0)
(0.000139656 -1.00157 0)
(0.000160685 -1.00144 0)
(0.000178997 -1.00129 0)
(0.000195895 -1.00115 0)
(0.000211802 -1.00099 0)
(0.000225501 -1.00083 0)
(0.000234191 -1.00065 0)
(0.000235844 -1.00047 0)
(0.000220027 -1.00029 0)
(0.000170251 -1.00012 0)
(7.16117e-05 -1.00002 0)
(-0.00123832 -1.00352 0)
(-0.000879295 -1.00315 0)
(-0.000607747 -1.00288 0)
(-0.000404842 -1.00267 0)
(-0.000260343 -1.00249 0)
(-0.000158119 -1.00233 0)
(-8.70983e-05 -1.00218 0)
(-3.82613e-05 -1.00203 0)
(-4.38853e-06 -1.00189 0)
(1.94503e-05 -1.00174 0)
(3.66886e-05 -1.00158 0)
(4.97222e-05 -1.00142 0)
(6.00956e-05 -1.00125 0)
(6.86257e-05 -1.00107 0)
(7.52494e-05 -1.00088 0)
(7.9204e-05 -1.00068 0)
(7.96909e-05 -1.00048 0)
(7.35526e-05 -1.00028 0)
(5.5307e-05 -1.00011 0)
(2.18868e-05 -1.00001 0)
(-0.00158569 -1.00325 0)
(-0.00111677 -1.00293 0)
(-0.000787311 -1.00272 0)
(-0.000549112 -1.00255 0)
(-0.00038667 -1.00241 0)
(-0.000276663 -1.00227 0)
(-0.000203306 -1.00214 0)
(-0.000155235 -1.00201 0)
(-0.000124237 -1.00187 0)
(-0.000104776 -1.00173 0)
(-9.32523e-05 -1.00157 0)
(-8.71348e-05 -1.00142 0)
(-8.47467e-05 -1.00125 0)
(-8.48241e-05 -1.00107 0)
(-8.59117e-05 -1.00088 0)
(-8.61843e-05 -1.00068 0)
(-8.41229e-05 -1.00048 0)
(-7.62055e-05 -1.00028 0)
(-5.66865e-05 -1.00011 0)
(-2.23386e-05 -1.00001 0)
(-0.00191273 -1.00258 0)
(-0.00129316 -1.00233 0)
(-0.000912398 -1.00222 0)
(-0.000647711 -1.00213 0)
(-0.000477912 -1.00205 0)
(-0.000368406 -1.00196 0)
(-0.00029894 -1.00187 0)
(-0.000255797 -1.00177 0)
(-0.000230191 -1.00166 0)
(-0.000216736 -1.00154 0)
(-0.00021178 -1.00141 0)
(-0.000212804 -1.00128 0)
(-0.000218163 -1.00114 0)
(-0.000226425 -1.00098 0)
(-0.000235139 -1.00082 0)
(-0.000240501 -1.00065 0)
(-0.00023981 -1.00047 0)
(-0.000222374 -1.00029 0)
(-0.000171417 -1.00012 0)
(-7.19934e-05 -1.00002 0)
(-0.00220107 -1.00134 0)
(-0.00135245 -1.00118 0)
(-0.000942832 -1.00125 0)
(-0.000670801 -1.00127 0)
(-0.000511053 -1.00129 0)
(-0.0004137 -1.00128 0)
(-0.000355198 -1.00125 0)
(-0.000321141 -1.0012 0)
(-0.000303788 -1.00114 0)
(-0.000296052 -1.00108 0)
(-0.000296387 -1.001 0)
(-0.000302962 -1.00092 0)
(-0.000314419 -1.00084 0)
(-0.000329679 -1.00074 0)
(-0.000345389 -1.00065 0)
(-0.000354483 -1.00054 0)
(-0.000358915 -1.00042 0)
(-0.000347947 -1.00029 0)
(-0.000288983 -1.00014 0)
(-0.000139999 -1.00003 0)
(-0.00246022 -0.998928 0)
(-0.00118988 -0.99882 0)
(-0.0008315 -0.99922 0)
(-0.000588912 -0.999444 0)
(-0.000462464 -0.99961 0)
(-0.000389932 -0.999722 0)
(-0.000349387 -0.9998 0)
(-0.000327981 -0.999857 0)
(-0.000318706 -0.999902 0)
(-0.000317163 -0.999938 0)
(-0.000322098 -0.99997 0)
(-0.00033255 -1 0)
(-0.000347622 -1.00003 0)
(-0.000366447 -1.00006 0)
(-0.000388038 -1.00009 0)
(-0.000410088 -1.00013 0)
(-0.000424708 -1.00016 0)
(-0.000430491 -1.00017 0)
(-0.000381887 -1.00014 0)
(-0.000206078 -1.00003 0)
(-0.00207988 -0.992231 0)
(-0.000538415 -0.991421 0)
(-0.000534106 -0.992408 0)
(-0.000387913 -0.993128 0)
(-0.00033736 -0.993661 0)
(-0.00030665 -0.994107 0)
(-0.000291361 -0.994505 0)
(-0.000285243 -0.994878 0)
(-0.000285333 -0.995239 0)
(-0.000289968 -0.995597 0)
(-0.000298489 -0.995959 0)
(-0.000310465 -0.99633 0)
(-0.000325584 -0.996715 0)
(-0.000343385 -0.997119 0)
(-0.000362915 -0.997544 0)
(-0.000382007 -0.997997 0)
(-0.00039534 -0.998483 0)
(-0.000390073 -0.998989 0)
(-0.00031676 -0.999437 0)
(-7.97705e-05 -0.999743 0)
(0.0119428 -0.874999 0)
(0.0103874 -0.898054 0)
(0.00895881 -0.918029 0)
(0.00762699 -0.935101 0)
(0.00639909 -0.949493 0)
(0.00527759 -0.961432 0)
(0.00426506 -0.971148 0)
(0.00336267 -0.978876 0)
(0.00257043 -0.984847 0)
(0.00188759 -0.989292 0)
(0.00131293 -0.99244 0)
(0.000844182 -0.994513 0)
(0.000477113 -0.995727 0)
(0.000205736 -0.996283 0)
(2.29312e-05 -0.996365 0)
(-7.58514e-05 -0.996137 0)
(-0.00013058 -0.99574 0)
(-0.000134674 -0.995287 0)
(-0.000108425 -0.99486 0)
(-6.72153e-05 -0.994507 0)
(-1.37413e-05 -0.994252 0)
(0.0293511 -0.897918 0)
(0.0255114 -0.919391 0)
(0.0219258 -0.93789 0)
(0.0185954 -0.953598 0)
(0.0155307 -0.966726 0)
(0.0127388 -0.977493 0)
(0.0102244 -0.986125 0)
(0.00798865 -0.992851 0)
(0.00603024 -0.9979 0)
(0.00434633 -1.0015 0)
(0.0029334 -1.00387 0)
(0.00178553 -1.00524 0)
(0.000889519 -1.00581 0)
(0.000223328 -1.0058 0)
(-0.000236187 -1.00539 0)
(-0.000512923 -1.00473 0)
(-0.000637546 -1.00395 0)
(-0.000645705 -1.00317 0)
(-0.00057562 -1.00246 0)
(-0.000465152 -1.00184 0)
(-0.000341889 -1.00133 0)
(0.0476991 -0.906052 0)
(0.041399 -0.926908 0)
(0.0354892 -0.944857 0)
(0.0299978 -0.960074 0)
(0.0249456 -0.97276 0)
(0.0203468 -0.983122 0)
(0.0162097 -0.991379 0)
(0.0125368 -0.997754 0)
(0.0093262 -1.00247 0)
(0.0065733 -1.00574 0)
(0.00427148 -1.0078 0)
(0.00241072 -1.00887 0)
(0.000970785 -1.00915 0)
(-8.04038e-05 -1.00887 0)
(-0.000784566 -1.0082 0)
(-0.00118789 -1.0073 0)
(-0.00134523 -1.00632 0)
(-0.00131562 -1.00537 0)
(-0.00116369 -1.00452 0)
(-0.000955283 -1.0038 0)
(-0.000736643 -1.00321 0)
(0.0656672 -0.911025 0)
(0.0569677 -0.931632 0)
(0.0487917 -0.949354 0)
(0.0411838 -0.964357 0)
(0.0341761 -0.976833 0)
(0.0277905 -0.986987 0)
(0.022041 -0.99503 0)
(0.0169344 -1.00118 0)
(0.0124698 -1.00566 0)
(0.00864204 -1.00869 0)
(0.00544183 -1.01048 0)
(0.00286035 -1.01126 0)
(0.000874147 -1.01126 0)
(-0.000562284 -1.01069 0)
(-0.00150916 -1.00974 0)
(-0.0020286 -1.0086 0)
(-0.00219743 -1.00741 0)
(-0.00210399 -1.00628 0)
(-0.00184061 -1.00531 0)
(-0.00150878 -1.00453 0)
(-0.00118224 -1.0039 0)
(0.0834928 -0.914762 0)
(0.0724033 -0.935236 0)
(0.0619632 -0.952828 0)
(0.0522353 -0.967704 0)
(0.0432638 -0.980051 0)
(0.0350796 -0.99007 0)
(0.0277066 -0.997966 0)
(0.0211588 -1.00396 0)
(0.0154309 -1.00826 0)
(0.0105071 -1.01108 0)
(0.00637858 -1.01264 0)
(0.00305704 -1.01315 0)
(0.000514354 -1.01285 0)
(-0.00129878 -1.01197 0)
(-0.00247059 -1.01074 0)
(-0.0030809 -1.00932 0)
(-0.00322504 -1.00788 0)
(-0.00302491 -1.00657 0)
(-0.00259871 -1.00549 0)
(-0.00209649 -1.00465 0)
(-0.00164246 -1.00402 0)
(0.101226 -0.916827 0)
(0.0877449 -0.937141 0)
(0.0750414 -0.954595 0)
(0.0631957 -0.969361 0)
(0.0522635 -0.981629 0)
(0.0422855 -0.991588 0)
(0.0332938 -0.999431 0)
(0.0252991 -1.00537 0)
(0.0182682 -1.00961 0)
(0.0121944 -1.01239 0)
(0.00711167 -1.01384 0)
(0.00302093 -1.01425 0)
(-0.00010016 -1.01373 0)
(-0.00229908 -1.01262 0)
(-0.00369065 -1.01113 0)
(-0.0043596 -1.00948 0)
(-0.00443554 -1.00782 0)
(-0.00407319 -1.00633 0)
(-0.00341445 -1.00514 0)
(-0.00267831 -1.00431 0)
(-0.00208569 -1.00372 0)
(0.118762 -0.915382 0)
(0.102913 -0.93527 0)
(0.0879827 -0.952373 0)
(0.0740651 -0.966896 0)
(0.061218 -0.979043 0)
(0.0494733 -0.989009 0)
(0.0388399 -0.996985 0)
(0.0293161 -1.00317 0)
(0.0209734 -1.00758 0)
(0.0138761 -1.01052 0)
(0.00789936 -1.01233 0)
(0.00298578 -1.01299 0)
(-0.000753253 -1.01272 0)
(-0.0033438 -1.01176 0)
(-0.00498113 -1.01016 0)
(-0.00574981 -1.00854 0)
(-0.00572278 -1.00684 0)
(-0.00515438 -1.00529 0)
(-0.00422512 -1.0041 0)
(-0.00321203 -1.00341 0)
(-0.00247237 -1.00299 0)
(0.135722 -0.906638 0)
(0.117572 -0.925235 0)
(0.100523 -0.941202 0)
(0.0846721 -0.954825 0)
(0.0700645 -0.966377 0)
(0.05671 -0.976099 0)
(0.0446072 -0.984192 0)
(0.03381 -0.990792 0)
(0.0243809 -0.996077 0)
(0.0162532 -1.00012 0)
(0.00929456 -1.003 0)
(0.00353536 -1.00478 0)
(-0.000927061 -1.00556 0)
(-0.00405443 -1.00557 0)
(-0.00592026 -1.00511 0)
(-0.00677265 -1.00441 0)
(-0.00676678 -1.00348 0)
(-0.00612515 -1.00248 0)
(-0.0050894 -1.00172 0)
(-0.00376294 -1.00151 0)
(-0.0026435 -1.00156 0)
(0.151056 -0.883747 0)
(0.130717 -0.898839 0)
(0.111762 -0.911448 0)
(0.0942801 -0.922022 0)
(0.0782907 -0.930993 0)
(0.0637587 -0.938757 0)
(0.0506224 -0.945649 0)
(0.0388319 -0.951935 0)
(0.0283407 -0.957802 0)
(0.0190945 -0.963352 0)
(0.0111768 -0.968489 0)
(0.00461994 -0.973213 0)
(-0.00065474 -0.977416 0)
(-0.00457418 -0.981181 0)
(-0.00692314 -0.984684 0)
(-0.00835371 -0.987842 0)
(-0.00887855 -0.990516 0)
(-0.00841823 -0.992676 0)
(-0.00677332 -0.994253 0)
(-0.00364659 -0.995725 0)
(-0.00140049 -0.997764 0)
(0.162259 -0.837003 0)
(0.139695 -0.844329 0)
(0.118956 -0.848965 0)
(0.100133 -0.851497 0)
(0.0832331 -0.852488 0)
(0.0682033 -0.852464 0)
(0.0549687 -0.851911 0)
(0.0434619 -0.851303 0)
(0.0336088 -0.851188 0)
(0.0252645 -0.852191 0)
(0.0181718 -0.854778 0)
(0.0122202 -0.85922 0)
(0.00750396 -0.86588 0)
(0.00481631 -0.874702 0)
(0.00422561 -0.88582 0)
(0.00458196 -0.898918 0)
(0.0056343 -0.913714 0)
(0.00679084 -0.929511 0)
(0.00785627 -0.943683 0)
(0.00845306 -0.957941 0)
(0.00632076 -0.976541 0)
(-0.0264241 0.0128997 0)
(-0.0212522 0.0459933 0)
(-0.00566602 0.0458204 0)
(0.00791853 0.0266534 0)
(0.0199418 -0.0126976 0)
(0.0335489 -0.0792937 0)
(0.0411968 -0.17338 0)
(0.040488 -0.262943 0)
(0.0368082 -0.342946 0)
(0.0335147 -0.416737 0)
(0.0306361 -0.484329 0)
(0.0280181 -0.546246 0)
(0.0256075 -0.602923 0)
(0.0233542 -0.654701 0)
(0.0212243 -0.701848 0)
(0.0191956 -0.744591 0)
(0.0172571 -0.783122 0)
(0.0154043 -0.8176 0)
(0.0136314 -0.848161 0)
(-0.046475 0.00167638 0)
(-0.0108856 0.0232642 0)
(0.0201649 0.00619404 0)
(0.0449807 -0.0428031 0)
(0.0725194 -0.117227 0)
(0.0940134 -0.202044 0)
(0.100227 -0.283001 0)
(0.0952194 -0.349859 0)
(0.0877741 -0.416768 0)
(0.0807595 -0.480209 0)
(0.0742137 -0.53964 0)
(0.0681453 -0.595005 0)
(0.0624647 -0.64632 0)
(0.05709 -0.693649 0)
(0.0519595 -0.737059 0)
(0.0470367 -0.776624 0)
(0.0423088 -0.81242 0)
(0.0377798 -0.844526 0)
(0.0334515 -0.873047 0)
(-0.0533913 -0.0150933 0)
(0.0125886 -0.0114516 0)
(0.0575586 -0.0545595 0)
(0.0986168 -0.12117 0)
(0.133173 -0.197461 0)
(0.151599 -0.268944 0)
(0.15283 -0.332019 0)
(0.145675 -0.391188 0)
(0.136765 -0.450693 0)
(0.127413 -0.507874 0)
(0.118193 -0.562582 0)
(0.109302 -0.614356 0)
(0.100731 -0.662945 0)
(0.0924324 -0.708178 0)
(0.0843665 -0.74995 0)
(0.0765156 -0.788207 0)
(0.068888 -0.822928 0)
(0.0615108 -0.854128 0)
(0.0544155 -0.881869 0)
(-0.0295967 -0.0296876 0)
(0.0450314 -0.049611 0)
(0.104802 -0.108277 0)
(0.155282 -0.178181 0)
(0.188348 -0.245893 0)
(0.201025 -0.305381 0)
(0.199162 -0.360452 0)
(0.191382 -0.415514 0)
(0.181591 -0.4704 0)
(0.170722 -0.523943 0)
(0.159572 -0.575782 0)
(0.148437 -0.625358 0)
(0.137411 -0.672296 0)
(0.126518 -0.716301 0)
(0.115765 -0.757162 0)
(0.105177 -0.794734 0)
(0.0947993 -0.828931 0)
(0.0846942 -0.859719 0)
(0.0749295 -0.887125 0)
(0.00379461 -0.0419252 0)
(0.0878231 -0.0800392 0)
(0.156289 -0.145821 0)
(0.207556 -0.213131 0)
(0.235502 -0.272947 0)
(0.244005 -0.32644 0)
(0.241294 -0.378419 0)
(0.233584 -0.430859 0)
(0.223285 -0.483014 0)
(0.211472 -0.534348 0)
(0.198943 -0.584368 0)
(0.186051 -0.632539 0)
(0.172971 -0.678434 0)
(0.159793 -0.721692 0)
(0.146586 -0.762029 0)
(0.133427 -0.799235 0)
(0.120415 -0.833169 0)
(0.107659 -0.863759 0)
(0.0952748 -0.891004 0)
(0.0494455 -0.0487263 0)
(0.138644 -0.100249 0)
(0.208541 -0.16874 0)
(0.255501 -0.232118 0)
(0.278299 -0.287309 0)
(0.284548 -0.338599 0)
(0.281769 -0.389354 0)
(0.274136 -0.440263 0)
(0.263489 -0.490873 0)
(0.25097 -0.540853 0)
(0.237321 -0.589731 0)
(0.222927 -0.637016 0)
(0.208012 -0.682259 0)
(0.192721 -0.725057 0)
(0.177179 -0.765069 0)
(0.161525 -0.802033 0)
(0.145916 -0.835768 0)
(0.130526 -0.866174 0)
(0.115528 -0.89324 0)
(0.103451 -0.0525808 0)
(0.194098 -0.111382 0)
(0.259939 -0.180523 0)
(0.300979 -0.240761 0)
(0.319665 -0.29402 0)
(0.324566 -0.344829 0)
(0.321644 -0.395109 0)
(0.313886 -0.445211 0)
(0.302898 -0.494959 0)
(0.289747 -0.544114 0)
(0.2751 -0.592271 0)
(0.259341 -0.638971 0)
(0.242712 -0.683749 0)
(0.225393 -0.726159 0)
(0.207565 -0.765813 0)
(0.189431 -0.802405 0)
(0.171224 -0.835728 0)
(0.153192 -0.865681 0)
(0.135576 -0.892267 0)
(0.165555 -0.0557062 0)
(0.250725 -0.116372 0)
(0.310139 -0.184735 0)
(0.345299 -0.243001 0)
(0.360747 -0.295792 0)
(0.364524 -0.346716 0)
(0.361224 -0.396824 0)
(0.353177 -0.446506 0)
(0.341802 -0.495741 0)
(0.328033 -0.544348 0)
(0.312443 -0.591969 0)
(0.295374 -0.638149 0)
(0.27706 -0.682387 0)
(0.257709 -0.724182 0)
(0.237554 -0.763089 0)
(0.216877 -0.798761 0)
(0.196004 -0.830983 0)
(0.175277 -0.859674 0)
(0.155024 -0.884896 0)
(0.231704 -0.0570991 0)
(0.306665 -0.116962 0)
(0.359229 -0.184094 0)
(0.389117 -0.241271 0)
(0.401884 -0.294098 0)
(0.404515 -0.345212 0)
(0.400637 -0.395218 0)
(0.392176 -0.444607 0)
(0.380344 -0.493433 0)
(0.365919 -0.541535 0)
(0.349353 -0.588551 0)
(0.330916 -0.633985 0)
(0.310813 -0.677253 0)
(0.28927 -0.717757 0)
(0.266584 -0.754964 0)
(0.243143 -0.78847 0)
(0.219395 -0.818054 0)
(0.195812 -0.843686 0)
(0.172837 -0.865528 0)
(0.295046 -0.0561117 0)
(0.361489 -0.114395 0)
(0.407444 -0.180422 0)
(0.432677 -0.236974 0)
(0.443126 -0.289816 0)
(0.444523 -0.340944 0)
(0.439905 -0.390754 0)
(0.430904 -0.43978 0)
(0.418511 -0.488088 0)
(0.403309 -0.535489 0)
(0.385606 -0.581547 0)
(0.365567 -0.625643 0)
(0.343348 -0.667032 0)
(0.319191 -0.704943 0)
(0.29348 -0.738694 0)
(0.266745 -0.767793 0)
(0.239612 -0.792011 0)
(0.212734 -0.811397 0)
(0.186707 -0.826254 0)
(0.165392 -0.757393 0)
(0.140123 -0.752142 0)
(0.11722 -0.743694 0)
(0.096725 -0.732581 0)
(0.0785701 -0.7192 0)
(0.0626298 -0.703792 0)
(0.0487566 -0.686437 0)
(0.0368205 -0.667081 0)
(0.0267922 -0.645611 0)
(0.0190418 -0.62174 0)
(0.0127555 -0.595072 0)
(0.0078201 -0.565489 0)
(0.00415892 -0.532719 0)
(0.00154401 -0.496602 0)
(-0.000531156 -0.456935 0)
(-0.00305979 -0.413199 0)
(-0.00604136 -0.364203 0)
(-0.00698243 -0.308063 0)
(-0.00962673 -0.248256 0)
(-0.0231857 -0.192038 0)
(-0.0360285 -0.148517 0)
(0.156616 -0.649098 0)
(0.128207 -0.631053 0)
(0.10265 -0.610417 0)
(0.0797955 -0.587791 0)
(0.0594098 -0.563579 0)
(0.04125 -0.53801 0)
(0.0250989 -0.51118 0)
(0.0107555 -0.483109 0)
(-0.00194183 -0.453896 0)
(-0.0131691 -0.42359 0)
(-0.0232406 -0.391887 0)
(-0.0322585 -0.358153 0)
(-0.0397893 -0.322702 0)
(-0.0457499 -0.284965 0)
(-0.0507737 -0.244698 0)
(-0.0558934 -0.199465 0)
(-0.0607047 -0.150916 0)
(-0.0632061 -0.0982896 0)
(-0.0649046 -0.0462667 0)
(-0.0759091 -0.00331417 0)
(-0.104248 0.00899742 0)
(0.137773 -0.533704 0)
(0.107325 -0.509127 0)
(0.0804426 -0.484297 0)
(0.0568508 -0.459918 0)
(0.0362243 -0.436443 0)
(0.0182138 -0.414115 0)
(0.00242613 -0.392951 0)
(-0.0115865 -0.372603 0)
(-0.0241282 -0.352541 0)
(-0.0353853 -0.332116 0)
(-0.0459261 -0.3095 0)
(-0.0558524 -0.285229 0)
(-0.0650345 -0.258937 0)
(-0.0739489 -0.229869 0)
(-0.0829124 -0.198365 0)
(-0.0911273 -0.165074 0)
(-0.0973114 -0.130351 0)
(-0.100619 -0.0932779 0)
(-0.102449 -0.0546622 0)
(-0.103779 -0.021185 0)
(-0.0965102 -0.00416324 0)
(0.115892 -0.433272 0)
(0.0862531 -0.411768 0)
(0.0610307 -0.39323 0)
(0.0395486 -0.377834 0)
(0.0210064 -0.365147 0)
(0.00459223 -0.354246 0)
(-0.0103962 -0.343922 0)
(-0.0244907 -0.332867 0)
(-0.0379957 -0.320418 0)
(-0.0510623 -0.306038 0)
(-0.0635071 -0.289424 0)
(-0.0752275 -0.270357 0)
(-0.0862935 -0.24854 0)
(-0.0967963 -0.223909 0)
(-0.106885 -0.196723 0)
(-0.116486 -0.167262 0)
(-0.124573 -0.135651 0)
(-0.130246 -0.101984 0)
(-0.132892 -0.067326 0)
(-0.129671 -0.0355445 0)
(-0.109034 -0.0119719 0)
(0.0993698 -0.362161 0)
(0.0733509 -0.350718 0)
(0.0515452 -0.343251 0)
(0.0325704 -0.338348 0)
(0.0152773 -0.334374 0)
(-0.00109642 -0.32996 0)
(-0.016957 -0.324166 0)
(-0.0324407 -0.316569 0)
(-0.0476264 -0.306844 0)
(-0.0625631 -0.294778 0)
(-0.0771848 -0.280213 0)
(-0.0913757 -0.262988 0)
(-0.105047 -0.243001 0)
(-0.118125 -0.220278 0)
(-0.130533 -0.194897 0)
(-0.142 -0.167266 0)
(-0.151559 -0.137806 0)
(-0.158343 -0.106683 0)
(-0.161224 -0.074399 0)
(-0.156095 -0.0429662 0)
(-0.130832 -0.0160227 0)
(0.0921982 -0.319827 0)
(0.0697403 -0.317879 0)
(0.0498928 -0.317832 0)
(0.0313368 -0.317949 0)
(0.0133636 -0.317089 0)
(-0.0043292 -0.314637 0)
(-0.0218466 -0.310278 0)
(-0.0392128 -0.303839 0)
(-0.0564404 -0.295143 0)
(-0.0734996 -0.284083 0)
(-0.0903084 -0.270559 0)
(-0.106765 -0.254472 0)
(-0.122752 -0.235784 0)
(-0.138108 -0.214546 0)
(-0.152549 -0.190817 0)
(-0.165594 -0.164939 0)
(-0.176573 -0.137357 0)
(-0.184586 -0.108185 0)
(-0.188195 -0.0775839 0)
(-0.182845 -0.0465902 0)
(-0.156667 -0.0179805 0)
(0.0922687 -0.295176 0)
(0.0712429 -0.298132 0)
(0.0513119 -0.300848 0)
(0.0317868 -0.302398 0)
(0.0124115 -0.302344 0)
(-0.00689925 -0.300471 0)
(-0.0261739 -0.296645 0)
(-0.0454127 -0.290748 0)
(-0.064605 -0.282667 0)
(-0.0836982 -0.272325 0)
(-0.102599 -0.259645 0)
(-0.121185 -0.24456 0)
(-0.139304 -0.227054 0)
(-0.156726 -0.207215 0)
(-0.173065 -0.185054 0)
(-0.187752 -0.160763 0)
(-0.200199 -0.134797 0)
(-0.209523 -0.107248 0)
(-0.21409 -0.0780536 0)
(-0.209555 -0.0477385 0)
(-0.184249 -0.0186793 0)
(0.0957306 -0.277825 0)
(0.0744373 -0.282342 0)
(0.0534795 -0.285671 0)
(0.0326013 -0.287475 0)
(0.011718 -0.287591 0)
(-0.00920469 -0.285915 0)
(-0.0301806 -0.282366 0)
(-0.0512019 -0.276857 0)
(-0.0722443 -0.269301 0)
(-0.0932473 -0.259627 0)
(-0.114108 -0.247765 0)
(-0.134683 -0.233657 0)
(-0.15478 -0.217287 0)
(-0.174131 -0.198729 0)
(-0.192316 -0.178009 0)
(-0.208638 -0.1552 0)
(-0.222536 -0.130675 0)
(-0.233223 -0.104563 0)
(-0.23897 -0.0766958 0)
(-0.235762 -0.0473053 0)
(-0.212174 -0.0186089 0)
(0.100199 -0.262596 0)
(0.0779252 -0.267292 0)
(0.0557012 -0.270566 0)
(0.033436 -0.272294 0)
(0.0110888 -0.272392 0)
(-0.0113639 -0.270798 0)
(-0.0339337 -0.267459 0)
(-0.056613 -0.262306 0)
(-0.0793752 -0.255262 0)
(-0.102158 -0.246255 0)
(-0.124853 -0.235211 0)
(-0.147294 -0.222065 0)
(-0.169255 -0.206788 0)
(-0.190426 -0.189426 0)
(-0.210359 -0.170039 0)
(-0.228326 -0.148638 0)
(-0.243707 -0.125444 0)
(-0.255768 -0.100657 0)
(-0.262808 -0.0741204 0)
(-0.261126 -0.0458737 0)
(-0.2396 -0.0180685 0)
(0.104713 -0.24776 0)
(0.0812706 -0.252202 0)
(0.057774 -0.255226 0)
(0.0341797 -0.256773 0)
(0.0104577 -0.256792 0)
(-0.013414 -0.255246 0)
(-0.0374512 -0.252101 0)
(-0.0616533 -0.247298 0)
(-0.0859997 -0.240765 0)
(-0.110432 -0.232426 0)
(-0.134838 -0.222198 0)
(-0.159037 -0.210005 0)
(-0.182767 -0.195796 0)
(-0.205671 -0.179578 0)
(-0.227261 -0.161418 0)
(-0.246861 -0.141339 0)
(-0.26376 -0.119443 0)
(-0.277181 -0.0959442 0)
(-0.285543 -0.0707579 0)
(-0.285405 -0.0438258 0)
(-0.266011 -0.0172441 0)
(0.108953 -0.23292 0)
(0.0843396 -0.23698 0)
(0.0596297 -0.239689 0)
(0.0347935 -0.241018 0)
(0.00980389 -0.240938 0)
(-0.0153649 -0.239431 0)
(-0.0407377 -0.236475 0)
(-0.066326 -0.232016 0)
(-0.0921204 -0.225988 0)
(-0.118072 -0.218309 0)
(-0.144069 -0.208889 0)
(-0.169922 -0.197637 0)
(-0.19534 -0.184481 0)
(-0.21992 -0.169392 0)
(-0.243127 -0.152395 0)
(-0.264302 -0.13354 0)
(-0.282697 -0.112919 0)
(-0.29746 -0.0907155 0)
(-0.307116 -0.0669065 0)
(-0.308442 -0.0414108 0)
(-0.291098 -0.016253 0)
(0.112819 -0.218063 0)
(0.0870887 -0.221701 0)
(0.0612456 -0.224075 0)
(0.0352656 -0.225176 0)
(0.00912102 -0.224991 0)
(-0.0172215 -0.223518 0)
(-0.0437992 -0.220743 0)
(-0.0706391 -0.216619 0)
(-0.0977474 -0.21108 0)
(-0.125088 -0.204043 0)
(-0.152557 -0.195412 0)
(-0.17996 -0.185081 0)
(-0.206986 -0.172957 0)
(-0.233192 -0.158978 0)
(-0.257997 -0.143134 0)
(-0.280702 -0.125466 0)
(-0.300535 -0.106086 0)
(-0.316592 -0.0851814 0)
(-0.327478 -0.0627715 0)
(-0.33014 -0.0387917 0)
(-0.31468 -0.0151691 0)
(0.116283 -0.203274 0)
(0.0895061 -0.20648 0)
(0.0626169 -0.208516 0)
(0.035594 -0.209388 0)
(0.00840639 -0.209099 0)
(-0.0189894 -0.207656 0)
(-0.0466456 -0.205051 0)
(-0.0746069 -0.201244 0)
(-0.102898 -0.196172 0)
(-0.131501 -0.189753 0)
(-0.160323 -0.181883 0)
(-0.189172 -0.172445 0)
(-0.217722 -0.161325 0)
(-0.245497 -0.148435 0)
(-0.271864 -0.133733 0)
(-0.296069 -0.117247 0)
(-0.317282 -0.0990971 0)
(-0.334572 -0.0794872 0)
(-0.346598 -0.0584899 0)
(-0.350444 -0.0360734 0)
(-0.336662 -0.014039 0)
(0.119341 -0.188649 0)
(0.0915937 -0.191429 0)
(0.0637467 -0.193134 0)
(0.0357803 -0.193783 0)
(0.00765765 -0.19339 0)
(-0.0206765 -0.191969 0)
(-0.0492904 -0.189522 0)
(-0.0782484 -0.18601 0)
(-0.107596 -0.181378 0)
(-0.137336 -0.175544 0)
(-0.167393 -0.168401 0)
(-0.197582 -0.159822 0)
(-0.227571 -0.149677 0)
(-0.256851 -0.137851 0)
(-0.284737 -0.124278 0)
(-0.310402 -0.10897 0)
(-0.332944 -0.092046 0)
(-0.351394 -0.0737301 0)
(-0.364456 -0.0541507 0)
(-0.369331 -0.0333226 0)
(-0.357005 -0.0128908 0)
(0.122002 -0.174281 0)
(0.0933599 -0.176647 0)
(0.064642 -0.178031 0)
(0.0358272 -0.178464 0)
(0.00687194 -0.177967 0)
(-0.0222921 -0.176562 0)
(-0.0517499 -0.174256 0)
(-0.0815862 -0.171017 0)
(-0.111869 -0.166793 0)
(-0.142624 -0.161507 0)
(-0.173799 -0.155051 0)
(-0.205221 -0.147293 0)
(-0.236557 -0.138087 0)
(-0.267272 -0.127299 0)
(-0.296625 -0.114838 0)
(-0.323706 -0.100698 0)
(-0.347524 -0.0849967 0)
(-0.367058 -0.0679735 0)
(-0.381045 -0.0498099 0)
(-0.386797 -0.0305803 0)
(-0.375698 -0.0117411 0)
(0.124277 -0.160249 0)
(0.0948162 -0.162216 0)
(0.0653104 -0.163291 0)
(0.0357375 -0.163514 0)
(0.00604565 -0.162911 0)
(-0.0238467 -0.161514 0)
(-0.0540416 -0.159332 0)
(-0.0846445 -0.156341 0)
(-0.115747 -0.152494 0)
(-0.1474 -0.147717 0)
(-0.179576 -0.141905 0)
(-0.212123 -0.134922 0)
(-0.244709 -0.126615 0)
(-0.276781 -0.116832 0)
(-0.307541 -0.105461 0)
(-0.335988 -0.0924776 0)
(-0.361025 -0.0779913 0)
(-0.381563 -0.0622569 0)
(-0.396364 -0.0455007 0)
(-0.402849 -0.0278703 0)
(-0.392754 -0.0105984 0)
(0.126183 -0.146614 0)
(0.0959739 -0.148197 0)
(0.0657592 -0.148973 0)
(0.0355129 -0.14899 0)
(0.00517427 -0.148281 0)
(-0.0253515 -0.146881 0)
(-0.0561835 -0.144807 0)
(-0.0874482 -0.142038 0)
(-0.119261 -0.138535 0)
(-0.1517 -0.134227 0)
(-0.184764 -0.129014 0)
(-0.218325 -0.12276 0)
(-0.252061 -0.115308 0)
(-0.285404 -0.106492 0)
(-0.317502 -0.0961826 0)
(-0.347259 -0.0843367 0)
(-0.373455 -0.0710548 0)
(-0.394916 -0.0566023 0)
(-0.41042 -0.0412402 0)
(-0.417501 -0.0252046 0)
(-0.408197 -0.00946577 0)
(0.127732 -0.133421 0)
(0.0968433 -0.134632 0)
(0.0659938 -0.135117 0)
(0.0351534 -0.13493 0)
(0.00425236 -0.134111 0)
(-0.0268177 -0.132698 0)
(-0.0581935 -0.130715 0)
(-0.0900219 -0.128145 0)
(-0.122443 -0.124953 0)
(-0.155561 -0.121076 0)
(-0.189404 -0.116416 0)
(-0.223868 -0.110843 0)
(-0.25865 -0.104195 0)
(-0.293171 -0.0963036 0)
(-0.326531 -0.0870227 0)
(-0.357531 -0.0762913 0)
(-0.384824 -0.0641985 0)
(-0.407125 -0.051018 0)
(-0.423221 -0.037034 0)
(-0.430772 -0.0225874 0)
(-0.422052 -0.00834293 0)
(0.128936 -0.120692 0)
(0.0974316 -0.121541 0)
(0.0660171 -0.12174 0)
(0.0346575 -0.121349 0)
(0.00327366 -0.120414 0)
(-0.0282569 -0.118979 0)
(-0.0600883 -0.117071 0)
(-0.0923887 -0.114677 0)
(-0.125322 -0.111767 0)
(-0.159018 -0.108283 0)
(-0.193535 -0.104133 0)
(-0.228796 -0.0991896 0)
(-0.264518 -0.0932974 0)
(-0.300118 -0.0862827 0)
(-0.334653 -0.077991 0)
(-0.366825 -0.0683457 0)
(-0.395143 -0.0574229 0)
(-0.4182 -0.0455024 0)
(-0.434777 -0.0328789 0)
(-0.442677 -0.0200171 0)
(-0.434349 -0.00722719 0)
(0.129802 -0.108427 0)
(0.097743 -0.108922 0)
(0.0658298 -0.108838 0)
(0.0340223 -0.108242 0)
(0.00223157 -0.107186 0)
(-0.0296797 -0.105719 0)
(-0.0618838 -0.103872 0)
(-0.0945699 -0.101634 0)
(-0.127925 -0.0989794 0)
(-0.162105 -0.0958528 0)
(-0.197197 -0.0921684 0)
(-0.233152 -0.0878072 0)
(-0.269707 -0.0826186 0)
(-0.306284 -0.0764314 0)
(-0.3419 -0.0690861 0)
(-0.375161 -0.0604941 0)
(-0.404429 -0.0507188 0)
(-0.428152 -0.0400451 0)
(-0.445099 -0.028765 0)
(-0.453232 -0.0174866 0)
(-0.445109 -0.0061154 0)
(0.130341 -0.0965909 0)
(0.0977826 -0.0967449 0)
(0.0654323 -0.0963853 0)
(0.033245 -0.0955857 0)
(0.00112027 -0.0944055 0)
(-0.0310953 -0.0928999 0)
(-0.0635934 -0.091101 0)
(-0.0965847 -0.0890021 0)
(-0.130279 -0.0865774 0)
(-0.164856 -0.0837752 0)
(-0.200429 -0.0805157 0)
(-0.236977 -0.0766884 0)
(-0.274262 -0.0721515 0)
(-0.311709 -0.0667403 0)
(-0.348306 -0.0602956 0)
(-0.382566 -0.052721 0)
(-0.412697 -0.0440682 0)
(-0.436993 -0.0346284 0)
(-0.454194 -0.024676 0)
(-0.462442 -0.0149824 0)
(-0.454354 -0.00501106 0)
(0.130593 -0.0850928 0)
(0.0975741 -0.084947 0)
(0.0648341 -0.0843341 0)
(0.0323269 -0.0833403 0)
(-6.34544e-05 -0.0820382 0)
(-0.0325107 -0.0804901 0)
(-0.0652284 -0.0787315 0)
(-0.0984501 -0.0767562 0)
(-0.132407 -0.0745385 0)
(-0.167302 -0.0720289 0)
(-0.203269 -0.069154 0)
(-0.240316 -0.0658131 0)
(-0.278226 -0.061876 0)
(-0.316436 -0.0571886 0)
(-0.353907 -0.0515966 0)
(-0.389065 -0.0450013 0)
(-0.419966 -0.0374446 0)
(-0.444735 -0.0292274 0)
(-0.462066 -0.020589 0)
(-0.470298 -0.0124854 0)
(-0.462114 -0.00393725 0)
(0.130554 -0.0738397 0)
(0.097153 -0.0734343 0)
(0.0640683 -0.0726257 0)
(0.0312817 -0.0714595 0)
(-0.00131718 -0.0700439 0)
(-0.0339295 -0.0684543 0)
(-0.0667977 -0.06673 0)
(-0.100181 -0.064865 0)
(-0.134333 -0.0628318 0)
(-0.169472 -0.0605829 0)
(-0.205755 -0.058052 0)
(-0.24321 -0.0551498 0)
(-0.281645 -0.0517606 0)
(-0.320509 -0.0477441 0)
(-0.358741 -0.0429559 0)
(-0.394688 -0.0373003 0)
(-0.426251 -0.0308131 0)
(-0.451384 -0.0238085 0)
(-0.468715 -0.0164745 0)
(-0.476783 -0.00997854 0)
(-0.4684 -0.00286674 0)
(0.130264 -0.0628937 0)
(0.0965016 -0.0622003 0)
(0.0631438 -0.0611868 0)
(0.0301388 -0.0599073 0)
(-0.00262892 -0.0583893 0)
(-0.0353515 -0.0567588 0)
(-0.0683088 -0.0550628 0)
(-0.101794 -0.0532938 0)
(-0.136079 -0.0514204 0)
(-0.171399 -0.0493978 0)
(-0.207924 -0.0471683 0)
(-0.245703 -0.0446562 0)
(-0.284564 -0.0417622 0)
(-0.32397 -0.0383632 0)
(-0.362846 -0.0343293 0)
(-0.399461 -0.0295737 0)
(-0.431569 -0.02413 0)
(-0.456946 -0.0183307 0)
(-0.474141 -0.0123 0)
(-0.481901 -0.00744443 0)
(-0.473208 -0.0017758 0)
(0.129707 -0.0523572 0)
(0.0956591 -0.0513534 0)
(0.0620496 -0.0500778 0)
(0.0288787 -0.0486388 0)
(-0.0039841 -0.0470605 0)
(-0.0367737 -0.0453835 0)
(-0.0697702 -0.0437014 0)
(-0.103306 -0.0420074 0)
(-0.137674 -0.0402634 0)
(-0.173117 -0.0384271 0)
(-0.209817 -0.0364523 0)
(-0.247838 -0.034279 0)
(-0.287028 -0.0318263 0)
(-0.326865 -0.028991 0)
(-0.36626 -0.0256618 0)
(-0.403414 -0.0217665 0)
(-0.435931 -0.0173425 0)
(-0.461418 -0.0127487 0)
(-0.478339 -0.00803668 0)
(-0.485629 -0.00485425 0)
(-0.476484 -0.00049779 0)
(0.128861 -0.0422324 0)
(0.0945794 -0.0409431 0)
(0.0607986 -0.039421 0)
(0.027492 -0.0377441 0)
(-0.00542685 -0.0360385 0)
(-0.0382063 -0.0343259 0)
(-0.0711977 -0.0326271 0)
(-0.104743 -0.0309714 0)
(-0.13915 -0.0293145 0)
(-0.174666 -0.0276161 0)
(-0.211477 -0.0258436 0)
(-0.249662 -0.0239543 0)
(-0.289085 -0.0218874 0)
(-0.329238 -0.0195612 0)
(-0.369022 -0.0168865 0)
(-0.40657 -0.0138118 0)
(-0.439345 -0.0103876 0)
(-0.464794 -0.00701029 0)
(-0.481272 -0.00364988 0)
(-0.487844 -0.00214688 0)
(-0.478148 0.000757039 0)
(0.127754 -0.0325083 0)
(0.0932657 -0.0309494 0)
(0.059343 -0.0291959 0)
(0.0259638 -0.0273107 0)
(-0.0069737 -0.0253899 0)
(-0.0397065 -0.0235644 0)
(-0.0726262 -0.0218234 0)
(-0.106144 -0.020148 0)
(-0.140553 -0.0185195 0)
(-0.176093 -0.0168998 0)
(-0.212953 -0.0152706 0)
(-0.251222 -0.013607 0)
(-0.290782 -0.011868 0)
(-0.331134 -0.00999509 0)
(-0.371169 -0.00792485 0)
(-0.408955 -0.00563173 0)
(-0.44182 -0.0031935 0)
(-0.467063 -0.00104111 0)
(-0.482893 0.000955015 0)
(-0.488567 0.000788229 0)
(-0.478125 0.0020262 0)
(0.126403 -0.0231423 0)
(0.0917386 -0.0213203 0)
(0.0576896 -0.0193318 0)
(0.0242521 -0.017236 0)
(-0.00865734 -0.0151191 0)
(-0.0413042 -0.0130988 0)
(-0.0741276 -0.0112429 0)
(-0.10757 -0.00948284 0)
(-0.14194 -0.00780881 0)
(-0.177452 -0.00619949 0)
(-0.214296 -0.00464938 0)
(-0.25257 -0.00314942 0)
(-0.292166 -0.00167822 0)
(-0.332596 -0.000201705 0)
(-0.372737 0.00131415 0)
(-0.410591 0.00286093 0)
(-0.443357 0.00431809 0)
(-0.46819 0.00524997 0)
(-0.483163 0.00586228 0)
(-0.488247 0.00388352 0)
(-0.476389 0.00325996 0)
(0.124812 -0.0140615 0)
(0.089997 -0.011967 0)
(0.0558383 -0.00972441 0)