/*--------------------------------*- C++ -*----------------------------------*\
| =========                 |                                                 |
| \\      /  F ield         | OpenFOAM: The Open Source CFD Toolbox           |
|  \\    /   O peration     | Version:  v2012                                 |
|   \\  /    A nd           | Website:  www.openfoam.com                      |
|    \\/     M anipulation  |                                                 |
\*---------------------------------------------------------------------------*/
FoamFile
{
    version     2.0;
    format      ascii;
    class       volScalarField;
    location    "399";
    object      age;
}
// * * * * * * * * * * * * * * * * * * * * * * * * * * * * * * * * * * * * * //

dimensions      [0 0 1 0 0 0 0];


internalField   nonuniform List<scalar> 
6508
(
0.0125767
0.0124755
0.0124904
0.0124953
0.0124965
0.0124965
0.0124953
0.0124904
0.0124755
0.0125765
0.0379111
0.0373338
0.0373949
0.0374338
0.0374467
0.0374466
0.0374334
0.0373943
0.0373334
0.0379102
0.0636785
0.0621235
0.0621825
0.0622721
0.0623076
0.0623071
0.0622707
0.0621805
0.0621209
0.0636749
0.0899049
0.0868836
0.0868494
0.0869893
0.0870523
0.0870511
0.0869859
0.0868445
0.0868761
0.0898949
0.11661
0.111643
0.111398
0.111577
0.111667
0.111665
0.11157
0.111388
0.111626
0.116587
0.143814
0.136421
0.135834
0.136032
0.136146
0.136141
0.136019
0.135815
0.136387
0.143767
0.171531
0.161232
0.160163
0.160356
0.160486
0.160478
0.160334
0.160131
0.161169
0.171443
0.199776
0.186089
0.184389
0.184552
0.184689
0.184676
0.184518
0.184337
0.185978
0.199621
0.228562
0.211003
0.208518
0.208627
0.208759
0.208739
0.208572
0.208436
0.210819
0.228302
0.25791
0.235988
0.232559
0.232582
0.232699
0.232669
0.232501
0.23243
0.235687
0.257483
0.287841
0.261064
0.256519
0.256424
0.256513
0.25647
0.256305
0.256323
0.260576
0.287156
0.31839
0.286255
0.280405
0.280156
0.280205
0.280143
0.279987
0.280115
0.285474
0.317303
0.349603
0.311598
0.304224
0.303784
0.303779
0.303691
0.303547
0.303804
0.310359
0.347899
0.381545
0.337141
0.327988
0.327315
0.327242
0.327118
0.326987
0.327385
0.335193
0.378898
0.41431
0.362957
0.35171
0.350753
0.350597
0.350425
0.350305
0.350856
0.359916
0.410237
0.448035
0.38915
0.375412
0.374105
0.373853
0.373615
0.373495
0.374217
0.384442
0.44179
0.482919
0.41587
0.399122
0.397379
0.397017
0.396693
0.396554
0.397426
0.40865
0.473493
0.519258
0.443361
0.422894
0.420581
0.420101
0.419666
0.419478
0.420455
0.432526
0.504643
0.557504
0.471845
0.446787
0.443721
0.443118
0.442547
0.44227
0.443276
0.455838
0.535883
0.598326
0.502217
0.470997
0.466807
0.466085
0.465359
0.464943
0.465875
0.478661
0.561114
0.643217
0.534548
0.495871
0.490069
0.489232
0.488346
0.487738
0.488452
0.501784
0.601155
0.693795
0.570358
0.521784
0.513542
0.512576
0.511562
0.510733
0.511104
0.523312
0.620288
0.75199
0.610355
0.548999
0.53707
0.535909
0.534852
0.533798
0.533764
0.543536
0.632739
0.821551
0.656244
0.57838
0.560865
0.559219
0.558243
0.556999
0.556553
0.56273
0.641043
0.908325
0.709896
0.610448
0.584954
0.582457
0.581748
0.580389
0.579603
0.581675
0.647483
1.02442
0.776818
0.648839
0.610723
0.605591
0.605267
0.603997
0.60298
0.602034
0.654063
1.18219
0.852933
0.689534
0.63818
0.629055
0.628782
0.627802
0.626718
0.623542
0.662419
1.47324
0.994571
0.746532
0.667309
0.652207
0.652115
0.651767
0.650824
0.646195
0.673607
1.74107
1.0196
0.803115
0.704089
0.676872
0.675117
0.675698
0.675255
0.669931
0.688033
18.7096
2.42374
0.9084
0.746673
0.704553
0.698195
0.699314
0.69983
0.694688
0.704145
50.8925
8.07906
1.03373
0.792505
0.735016
0.722289
0.722708
0.724282
0.720316
0.721314
50.1548
15.9002
1.6561
0.865446
0.770608
0.747295
0.745923
0.748416
0.746573
0.739604
49.366
27.8341
4.53807
0.971
0.814951
0.774724
0.76893
0.771834
0.772981
0.758755
48.6545
43.3352
12.3007
1.25172
0.877994
0.809673
0.794092
0.794947
0.799349
0.776753
48.0817
46.7249
23.7236
4.21081
0.980658
0.848268
0.818638
0.817341
0.824715
0.804587
47.7734
43.9045
35.3657
11.1555
1.55105
0.936386
0.854073
0.839673
0.847391
0.835652
47.2949
42.7488
41.7885
22.6474
5.22118
1.03025
0.895019
0.86425
0.86901
0.866421
46.8594
42.3292
42.6109
34.2427
13.4205
2.55091
0.997142
0.895669
0.886067
0.892292
46.4115
41.8959
41.7772
40.7277
25.29
8.02131
1.44768
0.992271
0.912581
0.909584
45.9994
41.5207
41.1923
42.2429
35.9171
18.2155
4.90625
1.09326
0.961986
0.933162
45.7446
41.2577
40.8751
42.3727
41.5981
30.021
13.2672
3.31268
1.04918
0.967927
46.0793
41.1067
40.4746
41.4001
42.8704
38.9054
24.7986
10.0153
2.5445
1.04935
47.0681
41.1573
40.1221
40.8282
42.1502
42.8217
35.5404
20.8159
7.99869
2.09916
48.7005
41.529
39.8754
40.193
41.5664
43.5703
42.7309
32.7473
18.3497
6.94679
50.6428
42.1551
39.6786
39.7932
41.1949
43.4412
45.3597
42.5326
31.4948
17.5517
51.6275
42.1891
39.3954
39.5577
41.4187
45.0099
47.444
48.2258
43.4997
31.8626
46.8142
41.1482
39.0097
39.5341
42.7499
48.0407
52.7736
54.5492
53.0879
46.1334
43.8633
39.7929
38.6786
40.2323
45.7589
53.4804
60.5685
64.6944
64.4767
59.9656
41.9597
38.6565
38.5923
41.9964
50.4733
61.054
70.9316
77.7186
79.6408
76.3202
40.796
37.8311
38.6967
44.8517
56.1556
69.6405
82.591
92.4416
97.2818
95.9763
40.0256
37.2458
39.2811
47.8643
61.4112
77.5604
93.5891
106.741
114.85
116.534
39.5421
36.865
39.8601
49.8436
64.8165
83.0234
101.628
117.761
129.093
134.974
39.185
36.6157
39.8321
49.9316
65.3008
84.4358
104.536
122.783
137.004
146.675
38.992
36.4593
38.9587
47.8722
62.2861
80.835
100.977
120.078
136.088
147.698
39.4681
36.3274
37.4933
44.0315
55.9931
72.3221
90.9309
109.392
125.62
138.267
40.8992
36.4506
36.0366
39.5149
47.7879
60.4197
75.8328
92.0506
107.047
119.492
44.2371
39.2719
35.4682
36.0021
39.9278
47.823
58.5982
71.0254
83.2697
93.9606
48.6851
46.444
40.3592
34.9099
35.1056
37.912
43.3194
50.7005
58.9255
66.6972
51.4649
54.8977
53.4294
42.5475
34.0685
33.6172
34.527
36.5138
39.6055
43.1735
57.0872
58.9696
60.9389
64.3264
36.8168
32.8714
32.5425
32.3928
32.2837
32.1952
105.781
155.944
156.602
159.587
162.082
165.185
168.278
171.081
173.732
175.749
176.666
176.988
177.264
177.551
177.873
178.267
178.786
179.442
181.055
184.677
198.456
385.453
445.656
428.174
426.575
93.2924
148.02
143.32
148.981
154.399
161.724
170.213
179.16
187.604
194.523
199.189
200.812
199.477
196.106
191.767
187.563
184.252
182.294
181.898
182.561
185.31
218.661
278.824
335.207
356.356
73.8413
141.74
136.916
140.622
146.922
156.264
168.799
183.796
199.599
214.307
225.969
233.148
234.523
230.52
222.487
212.512
202.537
194.081
188.085
184.752
184.603
186.33
202.174
248.191
303.267
54.3603
130.128
134.807
135.336
140.416
149.194
162.587
180.419
201.103
222.321
241.3
255.475
263.683
262.862
254.601
241.459
226.467
212.074
200.227
191.754
187.027
185.819
187.273
208.904
268.138
37.3927
113.967
133.069
132.457
135.445
142.119
153.63
170.59
191.932
215.451
238.354
257.848
271.629
277.941
272.94
260.777
244.778
227.865
212.518
200.266
191.841
187.389
187.077
194.164
245.028
23.6392
94.6479
130.343
131.165
132.181
136.188
144.168
157.17
174.918
195.9
217.815
238.067
254.188
264.197
266.835
261.123
249.775
235.104
220.125
206.824
196.484
189.852
187.606
192.001
233.806
13.2312
70.668
121.16
130.676
130.524
132.178
136.425
144.128
155.666
170.491
187.334
204.59
220.54
233.371
241.533
243.996
240.535
232.367
221.493
209.886
199.609
192.053
188.527
192.084
228.307
7.25719
47.7574
105.723
129.485
129.991
130.113
131.599
134.694
139.903
147.437
157.062
168.259
180.64
193.423
205.422
215.037
220.614
221.081
216.832
209.572
201.169
193.767
189.54
192.556
226.004
4.11796
29.2733
83.233
122.3
129.91
129.418
129.543
130.194
131.351
133.26
136.249
140.519
146.413
154.402
164.716
176.762
189.086
199.862
205.977
205.799
201.091
195.047
190.599
193.025
223.932
2.47886
16.0759
59.3032
108.255
128.78
129.242
128.834
128.821
128.9
129.062
129.33
129.778
130.573
132.139
135.498
142.066
152.48
166.63
181.784
194.763
199.144
195.68
191.635
193.472
221.266
1.62433
7.93075
37.202
85.9222
121.797
129.179
128.555
128.386
128.273
128.17
128.079
127.992
127.91
127.836
127.791
127.953
129.931
136.575
149.306
168.177
186.549
194.826
192.443
194.049
218.9
1.18025
4.09914
20.5308
60.9573
106.975
127.706
128.822
129.712
130.712
131.841
132.685
132.918
132.389
131.091
129.258
127.338
126.132
126.077
128.456
138.721
159.961
183.22
194.857
194.871
216.908
0.965054
2.36316
9.89227
37.633
83.0317
119.872
129.839
131.56
136.173
141.452
146.506
150.059
151.248
149.752
145.649
139.544
132.846
127.653
125.007
124.866
133.712
156.686
187.465
199.63
217.167
0.873435
1.53358
4.63456
19.8037
56.2483
101.056
126.636
132.499
139.635
149.833
159.706
168.071
173.45
174.773
171.604
164.035
153.105
140.893
130.429
124.87
123.825
132.346
162.658
206.131
218.199
0.844245
1.13062
2.47558
8.87837
32.163
73.3555
112.855
131.5
140.041
152.618
167.561
181.041
191.766
197.741
197.666
191.582
179.738
163.56
145.783
131.035
124.438
123.544
135.949
175.875
219.516
0.849087
0.960164
1.54516
3.88906
15.1127
45.0288
86.5948
119.907
137.311
150.234
167.017
185.33
201.325
211.937
216.12
213.381
203.798
187.856
166.795
144.292
127.828
123.463
126.177
150.286
214.201
0.86247
0.906992
1.13182
2.05943
5.93005
22.1377
55.4815
94.7167
124.883
143.826
160.397
179.69
199.663
215.472
224.968
224.511
218.94
205.936
186.223
161.462
136.072
123.431
123.847
133.757
143.141
0.887917
0.902992
0.979494
1.33133
2.58848
8.61274
28.5507
62.2486
98.892
128.042
149.152
168.083
188.188
207.285
221.306
226.839
224.49
215.048
198.015
175.647
147.726
124.948
121.409
133.1
141.078
0.912873
0.916069
0.942908
1.05083
1.50917
3.04982
11.0758
32.7033
65.1225
99.5413
128.564
151.44
171.568
190.807
207.409
218.499
222.13
215.99
202.041
183.014
157.539
129.024
119.524
130.56
139.721
0.935014
0.937915
0.946841
0.978922
1.10536
1.581
3.37658
12.5354
33.8362
64.0827
96.4683
125.352
149.317
169.727
187.29
200.931
208.474
207.964
199.338
183.878
162.1
132.896
118.742
128.613
139.065
0.956731
0.961115
0.965478
0.974718
1.0025
1.13024
1.48294
3.45114
12.6108
32.2121
59.5761
89.5974
117.742
141.984
162.117
178.06
188.867
193.116
189.957
179.4
162.02
135.597
118.14
126.109
138.683
0.983022
0.980049
0.987436
0.992981
0.999336
1.01709
1.12333
1.21954
2.98925
10.908
28.0069
52.0256
79.1543
105.707
129.289
148.727
163.287
172.149
174.436
169.594
157.541
137.204
117.629
121.703
138.145
1.05118
1.00077
1.00328
1.01334
1.01908
1.02193
1.03673
1.08023
1.16023
2.22649
8.28072
22.359
42.7602
66.5595
90.6941
112.728
131.026
144.495
152.313
153.842
148.641
136.895
118.871
113.442
129.826
1.92724
1.05984
1.02216
1.02823
1.03933
1.04428
1.04405
1.05371
1.07891
1.16506
1.47177
5.527
15.8349
32.3453
52.4485
73.5542
93.4047
110.261
122.893
130.484
132.619
129.354
121.538
107.012
105.255
6.91091
2.08402
1.13088
1.05753
1.05586
1.0644
1.06854
1.07016
1.07564
1.09114
1.15328
1.22767
3.1937
9.5898
21.7305
37.6441
55.1783
72.3465
87.5156
99.4877
107.495
111.319
110.839
108.442
100.243
18.3693
7.80435
2.54024
1.25961
1.11028
1.08978
1.09065
1.0948
1.09831
1.09945
1.10985
1.13307
1.22061
1.53715
4.69335
11.8781
23.3151
37.008
51.2017
64.4625
75.7119
84.2943
89.8728
92.7415
93.538
34.0464
20.554
9.43462
3.36537
1.48003
1.19132
1.13382
1.12106
1.12226
1.12519
1.12572
1.13095
1.14565
1.1974
1.27102
1.93984
5.10986
11.4266
20.8303
31.6515
42.5992
52.7153
61.3775
68.2542
73.498
50.8477
37.9078
23.7539
11.8767
4.68759
1.84772
1.3141
1.19742
1.16187
1.15345
1.15313
1.15557
1.15613
1.16482
1.18531
1.25154
1.32355
1.81334
4.15495
8.68661
15.5041
23.4819
31.7066
39.532
46.5997
68.7382
57.3919
43.028
27.9681
15.2488
6.64739
2.5771
1.5359
1.29906
1.22091
1.19274
1.18571
1.18555
1.18591
1.19093
1.20271
1.22649
1.28284
1.35258
1.41135
2.57747
5.11975
9.07233
14.4005
20.2356
89.4086
78.9043
65.1549
49.2414
33.2122
19.4923
9.40629
3.9407
1.95674
1.46911
1.31248
1.2491
1.22592
1.21939
1.21905
1.22046
1.22662
1.23967
1.26742
1.29653
1.35701
1.41414
1.47947
2.33955
4.02969
111.993
102.491
89.2819
73.4501
56.173
39.262
24.4559
13.1293
6.10219
2.74507
1.75428
1.46024
1.33871
1.28402
1.26263
1.2564
1.25658
1.25927
1.26716
1.28034
1.30139
1.32954
1.35929
1.40986
1.45497
133.684
126.326
114.248
98.9193
81.52
63.284
45.6595
30.0205
17.7765
9.14807
4.35649
2.32242
1.70605
1.48282
1.37718
1.32644
1.30558
1.29932
1.29978
1.30489
1.31333
1.3253
1.3412
1.36266
1.38809
148.326
144.681
135.615
122.248
105.963
87.9753
69.4741
51.6256
35.7544
22.7218
13.1027
6.86303
3.55409
2.19499
1.72795
1.53232
1.43213
1.38141
1.3587
1.35129
1.3517
1.35675
1.3652
1.37637
1.38999
153.585
153.017
148.153
138.262
124.668
108.601
91.1441
73.3052
56.1504
40.6587
27.5938
17.4491
10.2237
5.70381
3.28812
2.22016
1.80316
1.61408
1.51189
1.45632
1.42871
1.41732
1.41549
1.41921
1.42664
146.279
149.463
149.42
142.048
132.379
119.773
105.177
89.4551
73.4453
57.9839
43.8059
31.548
21.5559
14.0034
8.69431
5.30372
3.38728
2.39278
1.95709
1.74768
1.63339
1.56619
1.5276
1.50768
1.49972
128.355
133.351
134.6
131.862
126.332
117.887
107.333
95.2389
82.2669
69.08
56.2404
44.298
33.6791
24.7077
17.5021
12.0314
8.16015
5.50125
3.83633
2.85676
2.30303
2.01349
1.85179
1.75484
1.69475
102.115
107.449
110.171
110.275
107.854
103.24
96.7946
88.8699
79.9015
70.3241
60.5191
50.888
41.782
33.487
26.2103
20.0697
15.1193
11.2551
8.35639
6.26515
4.77291
3.75464
3.07898
2.63326
2.35073
73.1186
77.7674
80.7533
82.0738
81.7611
79.9018
76.7782
72.575
67.5136
61.8181
55.7077
49.4079
43.1213
37.0246
31.3078
26.1135
21.5435
17.63
14.3565
11.6848
9.54071
7.84895
6.53857
5.51937
4.73499
46.5675
49.4138
51.6063
53.0458
53.6762
53.4438
52.4506
50.9208
48.8955
46.4618
43.702
40.6998
37.5311
34.2708
31.0089
27.8455
24.8703
22.1376
19.6618
17.4445
15.495
13.802
12.3498
11.1107
10.0629
32.1173
32.0482
31.9823
31.9182
31.8548
31.7908
31.7033
31.4661
31.0894
30.5809
29.9492
29.1974
28.3212
27.319
26.2318
25.1942
24.2128
23.2383
22.2937
21.3675
20.4266
19.547
18.7543
18.0475
17.4206
143.501
147.026
149.454
114.828
121.949
123.113
99.2794
109.183
115.264
93.3703
92.3912
91.4593
77.2003
79.7291
81.6171
52.4641
57.2305
61.3966
25.7704
30.7866
35.5324
6.26505
8.98836
12.2406
1.49587
1.5607
1.94454
1.41346
1.43999
1.47344
1.40507
1.42139
1.44034
1.43594
1.44645
1.45839
1.49893
1.50248
1.50884
1.65881
1.63815
1.62629
2.17987
2.07228
1.99686
4.1636
3.75212
3.43017
9.22167
8.55479
7.97933
16.9147
16.482
16.0985
509.261
399.992
330.246
285.705
264.856
256.078
251.672
249.809
249.776
250.464
251.212
251.904
252.547
253.162
253.761
254.355
254.955
255.575
256.226
256.925
257.687
258.529
259.473
260.506
261.927
263.869
266.464
269.977
274.794
281.43
290.503
302.191
315.199
325.062
322.762
318.212
313.213
308.807
305.436
303.327
302.478
302.466
302.689
303.518
304.646
305.778
307.288
308.562
309.238
178.843
89.5073
88.5766
88.3257
88.13
87.9853
87.8721
87.7786
87.6977
87.6248
87.5573
87.4922
87.428
87.3627
87.2674
87.1354
86.9875
86.8606
86.7637
86.6409
86.4921
86.4107
86.5186
86.7398
87.5278
88.4928
89.156
89.6159
90.0631
91.2823
96.2994
465.186
310.374
255.127
236.948
236.462
237.712
241.305
246.942
252.948
258.274
262.846
266.788
269.885
271.988
272.999
273.078
272.547
271.592
270.345
268.994
267.675
266.508
265.588
264.972
264.726
264.999
265.604
266.276
267.469
269.71
272.925
276.602
279.8
282.135
283.139
283.142
282.7
282.47
282.722
283.441
284.302
285.313
286.301
287.1
294.275
293.983
227.459
160.44
121.999
96.2804
89.724
89.9799
90.5389
91.3703
92.4865
93.853
95.3681
96.8758
98.1841
99.1893
99.8079
99.9737
99.6532
98.8218
97.518
95.7766
93.7239
91.5434
89.4075
87.5436
86.254
85.8646
85.9566
87.2786
90.8657
93.837
92.9703
91.9911
92.028
96.0567
262.567
237.875
232.68
233.92
240.326
251.757
266.177
281.889
297.734
312.894
326.687
338.582
348.204
355.3
359.756
361.376
360.06
356.035
349.542
341.087
331.243
320.691
310.095
300.012
290.881
283.134
277.447
273.889
271.858
271.224
271.626
272.198
273.295
274.561
275.791
276.849
277.916
279.476
281.348
283.911
285.444
287.455
288.237
265.353
209.705
153.484
112.118
96.4286
93.6097
93.4988
95.509
99.1209
103.156
107.672
112.353
116.879
120.933
124.291
126.837
128.558
129.405
129.357
128.407
126.574
123.833
120.181
115.647
110.308
104.357
98.163
92.3734
88.1214
85.7576
85.4101
88.335
93.5839
96.3322
93.7107
92.7997
96.6465
234.781
229.104
230.685
239.934
257.706
280.893
307.121
334.608
361.993
388.216
412.408
433.852
451.973
466.324
476.564
482.47
483.86
480.769
473.259
461.554
446.046
427.544
407.036
385.456
363.892
343.179
324.28
308.305
295.753
286.533
280.599
277.616
276.586
276.8
277.752
279.36
281.929
285.198
288.767
291.641
291.439
271.332
219.677
159.43
116.961
99.0733
96.7632
96.91
100.287
106.354
114.137
121.664
129.377
136.821
143.64
149.59
154.536
158.422
161.237
162.976
163.63
163.2
161.696
159.093
155.355
150.441
144.317
136.968
128.445
118.935
108.873
99.0794
90.8779
85.963
84.4931
87.5608
93.326
95.3314
93.7121
97.88
226.889
226.862
234.323
254.436
283.601
318.501
356.594
395.959
435.111
472.859
508.201
540.264
568.274
591.539
609.461
621.539
627.438
626.855
619.825
606.518
587.306
563.004
534.645
503.265
470.162
436.787
404.592
374.976
349.159
327.951
311.439
299.719
292.384
288.71
287.936
289.512
292.736
295.445
298.659
288.055
248.035
188.183
133.614
105.839
99.1696
99.1333
102.668
110.08
120.473
130.953
141.69
151.843
161.389
169.944
177.392
183.688
188.814
192.76
195.525
197.098
197.47
196.637
194.593
191.322
186.805
181.019
173.929
165.487
155.643
144.39
131.849
118.443
105.115
93.5267
85.974
83.6786
86.8065
93.8354
95.4292
99.2896
222.928
226.211
242.426
272.974
312.879
358.439
407.088
456.989
506.749
555.228
601.409
644.315
682.975
716.413
743.67
763.839
776.166
780.01
775.147
761.701
740.099
711.16
676.064
636.168
592.963
548.175
503.625
461.029
422.025
388.031
359.905
338.061
322.479
312.704
307.872
306.568
306.101
304.896
281.246
228.775
167.058
120.854
101.857
100.317
102.652
109.531
121.088
133.86
147.313
160.164
172.404
183.656
193.82
202.802
210.607
217.221
222.608
226.726
229.525
230.961
231.003
229.632
226.842
222.652
217.094
210.208
202.035
192.594
181.871
169.804
156.307
141.37
125.291
109.03
94.6078
85.2217
82.6588
87.534
98.4417
100.509
220.924
227.735
252.759
292.303
340.621
394.036
450.313
507.968
565.902
623.165
678.816
731.853
781.167
825.52
863.551
893.82
914.91
925.652
925.065
913.18
890.487
857.989
817.136
769.672
717.476
662.531
606.91
552.618
501.56
455.488
415.806
383.403
358.621
341.075
329.601
320.679
312.701
278.377
218.251
156.832
115.539
101.912
101.827
106.288
116.428
130.252
145.732
161.101
175.986
189.964
202.966
214.888
225.734
235.493
244.117
251.508
257.547
262.114
265.097
266.415
266.018
263.894
260.069
254.597
247.566
239.085
229.282
218.287
206.209
193.097
178.9
163.455
146.592
128.424
109.857
93.2593
83.1189
81.3245
89.6514
102.859
219.63
230.494
262.847
308.493
361.545
418.897
478.902
540.564
603.153
665.981
728.297
789.217
847.654
902.267
951.413
993.138
1025.35
1045.73
1052.91
1045.24
1023.47
988.964
943.666
889.878
830.005
766.41
701.39
637.142
575.737
519.099
468.918
426.438
392.195
365.72
343.984
326.088
284.779
218.698
154.998
114.434
102.145
103.2
108.956
121.576
137.26
154.602
171.858
188.429
204.159
218.978
232.903
245.952
258.1
269.239
279.194
287.755
294.709
299.858
303.041
304.148
303.128
299.999
294.826
287.728
278.863
268.413
256.575
243.553
229.551
214.749
199.251
183.009
165.778
147.23
127.356
107.17
89.519
80.1764
81.6372
104.208
218.486
233.292
270.162
318.173
371.675
428.569
487.883
549.082
611.802
675.678
740.263
804.93
868.788
930.602
988.701
1040.93
1084.73
1116.61
1135.54
1132.7
1116.22
1083.72
1037.67
980.918
916.436
847.079
775.454
703.939
634.718
569.805
511.007
459.695
416.324
379.183
347.475
301.167
229.818
160.422
115.981
102.242
103.934
110.661
124.02
141.478
160.196
179.076
197.238
214.644
231.321
247.356
262.795
277.6
291.618
304.604
316.261
326.273
334.331
340.152
343.511
344.26
342.345
337.822
330.846
321.651
310.514
297.73
283.574
268.298
252.135
235.309
218.024
200.398
182.339
163.466
143.282
121.852
100.819
83.981
76.5621
75.8293
217.428
234.895
272.888
318.984
368.729
420.887
475.027
531.027
588.878
648.579
710.025
772.905
836.614
900.149
962.034
1020.31
1072.31
1114.35
1140.7
1152
1151.88
1122.32
1080.87
1027.09
963.605
893.551
819.87
745.171
671.772
601.757
536.949
478.535
426.315
379.658
326.712
251.704
173.84
120.757
103.013
103.913
110.839
124.196
142.399
162.429
182.575
202.215
221.15
239.575
257.627
275.412
292.907
309.953
326.273
341.512
355.265
367.088
376.532
383.177
386.685
386.847
383.615
377.139
367.726
355.79
341.797
326.199
309.39
291.678
273.296
254.429
235.265
215.988
196.687
177.164
156.818
134.965
112.003
91.0203
77.8687
74.819
216.317
234.369
269.78
310.216
352.575
396.223
441.187
487.71
536.118
586.744
639.816
695.348
753.05
812.244
871.732
929.869
984.406
1032.46
1070.53
1094.88
1102.35
1090.64
1062.38
1019.18
963.828
899.611
829.724
757.018
683.964
612.677
544.759
481.065
421.677
360.318
282.563
196.172
130.817
105.139
103.791
109.501
122.251
140.324
161.171
182.42
203.262
223.538
243.428
263.205
283.029
302.945
322.838
342.456
361.445
379.353
395.635
409.663
420.771
428.329
431.84
431.034
425.91
416.81
404.274
388.967
371.579
352.745
332.99
312.697
292.097
271.316
250.444
229.61
208.958
188.488
167.809
146.058
122.556
98.7913
80.4903
74.6105
214.9
231.092
260.814
292.771
324.891
357.223
390.176
424.259
460.036
498.1
538.972
582.985
630.201
680.342
732.643
785.948
838.534
888.085
931.72
966.168
988.11
994.763
984.476
958.01
917.412
865.47
805.35
740.002
671.917
603.05
534.866
468.132
399.765
319.691
227.795
149.029
110.267
104.142
107.398
118.552
135.736
156.624
178.72
200.508
221.825
242.829
263.86
285.191
306.947
329.107
351.498
373.831
395.691
416.523
435.605
452.065
464.946
473.331
476.519
474.188
466.484
454.089
437.892
418.849
397.863
375.715
353.028
330.237
307.579
285.122
262.85
240.777
219.003
197.602
176.381
154.641
131.324
106.355
84.0564
74.4758
212.747
225.349
246.989
268.44
288.791
308.576
328.472
349.112
371.151
395.312
422.307
452.706
486.88
524.959
566.744
611.706
658.785
706.365
752.217
793.538
827.128
849.771
858.78
852.479
831.063
796.37
750.869
697.306
638.054
574.948
509.018
438.829
358.482
265.473
176.533
120.599
105.77
105.653
113.9
129.311
149.375
171.673
194.219
216.254
237.99
259.756
281.926
304.733
328.259
352.442
377.097
401.92
426.457
450.055
471.822
490.625
505.158
514.109
516.448
511.714
500.755
484.633
464.675
442.078
417.873
392.898
367.796
343.006
318.752
295.057
271.817
248.939
226.44
204.4
182.729
160.894
137.884
112.826
87.9437
74.3774
210.083
217.277
229.391
239.716
248.427
256.33
264.207
272.634
282.193
293.564
307.454
324.475
345.137
369.861
398.935
432.447
470.124
511.262
554.574
598.067
639.019
674.125
699.93
713.507
713.073
698.448
670.99
632.636
585.314
530.091
466.304
390.982
302.438
210.538
139.223
109.594
105.768
109.32
121.961
140.263
161.885
184.685
207.247
229.356
251.399
273.765
296.797
320.677
345.448
371.024
397.218
423.718
450.038
475.462
498.986
519.289
534.754
543.662
544.763
536.98
522.525
503.058
480.132
455.008
428.71
402.032
375.569
349.718
324.671
300.414
276.791
253.638
230.905
208.649
186.822
164.989
142.255
117.591
91.5695
74.2954
206.848
207.178
209.428
209.499
208.377
206.919
205.77
205.304
205.91
208.024
212.094
218.532
227.729
240.126
256.213
276.477
301.316
330.922
365.123
403.194
443.675
484.232
521.624
551.977
571.575
577.713
569.514
547.756
513.096
465.303
403.144
326.249
240.645
163.644
118.12
107.218
106.835
114.577
130.346
150.301
172.52
195.237
217.524
239.49
261.573
284.145
307.491
331.735
356.874
382.795
409.284
435.989
462.376
487.668
510.805
530.42
544.906
554.465
551.955
542.064
525.568
504.613
480.682
454.943
428.326
401.552
375.148
349.463
324.651
300.675
277.365
254.538
232.119
210.141
188.561
166.991
144.612
120.488
94.3985
74.2208
203.024
195.972
189.192
181.308
173.578
166.595
160.684
155.953
152.48
150.311
149.481
150.059
152.163
155.93
161.74
170.082
181.578
196.92
216.756
241.463
270.838
304.171
340.236
376.145
408.046
431.464
442.11
436.871
414.968
376.405
321.339
253.743
184.745
132.013
110.306
107.101
109.3
120.609
138.094
158.712
180.833
203.049
224.784
246.295
267.992
290.193
313.11
336.802
361.213
386.178
411.417
436.526
460.912
483.763
504.018
520.41
531.485
536.276
533.354
523.434
507.885
488.198
465.707
441.511
416.473
391.257
366.347
342.054
318.504
295.653
273.351
251.451
229.9
208.719
187.835
166.869
145.06
121.606
96.1068
74.1492
198.739
184.497
170.648
158.228
148.095
140.155
134.157
129.782
126.687
124.556
123.158
122.343
122.035
122.298
123.121
124.635
127.085
130.884
136.708
145.554
158.372
175.513
197.236
222.911
250.338
275.753
295.441
304.037
297.042
273.14
234.469
187.141
142.817
115.457
108.284
107.468
112.702
126.436
144.539
165.035
186.529
207.897
228.773
249.434
270.227
291.39
313.063
335.244
357.818
380.569
403.163
425.15
445.927
464.731
480.65
492.698
499.95
501.647
497.702
488.523
474.909
457.826
438.238
417.011
394.876
372.417
350.067
328.09
306.589
285.529
264.814
244.368
224.186
204.282
184.534
164.539
143.592
121.012
96.5583
74.0779
193.977
173.285
154.774
141.066
131.552
125.084
120.8
118.057
116.338
115.287
114.633
114.197
113.882
113.666
113.57
113.609
113.816
114.256
115.05
116.358
118.525
122.119
127.627
136.063
148.135
162.495
177.038
188.071
190.999
182.52
163.692
139.649
118.981
109.558
107.921
108.766
116.765
131.368
149.225
168.964
189.396
209.6
229.278
248.669
268.033
287.535
307.246
327.118
346.998
366.639
385.698
403.735
420.212
434.514
445.985
453.999
458.066
457.893
453.555
445.349
433.779
419.468
403.071
385.217
366.463
347.267
327.961
308.742
289.684
270.784
252.024
233.418
215.008
196.774
178.528
159.834
140.069
118.724
95.6602
73.991
188.518
162.448
141.77
128.924
121.227
116.755
114.576
113.521
113.003
112.681
112.421
112.298
112.167
112.029
111.889
111.744
111.594
111.432
111.245
111.183
111.086
111.218
111.771
112.765
114.386
116.856
120.335
124.381
127.334
126.818
121.9
114.971
109.781
108.331
108.095
110.87
120.573
134.938
151.838
170.296
189.28
208.001
226.178
243.937
261.455
278.833
296.094
313.166
329.89
346.031
361.284
375.282
387.611
397.84
405.566
410.449
412.258
410.928
406.552
399.349
389.646
377.851
364.404
349.736
334.233
318.205
301.871
285.361
268.745
252.078
235.43
218.886
202.491
186.161
169.632
152.469
134.18
114.486
93.3701
73.4622
182.857
152.412
131.46
120.872
115.817
114.023
113.592
113.419
113.415
113.754
114.441
115.393
116.466
117.487
118.195
118.384
117.949
116.721
114.93
113.009
111.281
110.114
109.743
109.567
109.436
109.344
109.261
109.193
109.144
109.069
108.924
108.709
108.405
108.226
108.932
113.531
123.537
136.828
152.206
168.902
186.075
203.04
219.473
235.361
250.788
265.811
280.426
294.562
308.084
320.803
332.485
342.867
351.67
358.628
363.516
366.17
366.493
364.499
360.279
353.995
345.873
336.182
325.207
313.22
300.454
287.092
273.269
259.094
244.675
230.135
215.6
201.162
186.802
172.36
157.544
142.006
125.456
107.86
89.3806
71.9581
175.76
142.174
123.124
116.121
114.088
113.873
113.895
114.543
116.527
120.301
125.821
132.7
140.155
147.097
152.456
155.445
155.712
153.523
148.915
142.365
134.574
126.504
119.579
114.337
110.994
109.44
109.27
109.057
108.847
108.717
108.572
108.437
108.351
108.71
110.688
116.148
125.281
136.896
150.248
164.773
179.807
194.759
209.262
223.168
236.458
249.139
261.195
272.571
283.173
292.871
301.512
308.929
314.959
319.455
322.3
323.423
322.801
320.465
316.495
311.01
304.161
296.112
287.024
277.045
266.305
254.927
243.036
230.771
218.284
205.716
193.162
180.631
168.015
155.119
141.744
127.764
113.191
98.2285
83.1143
69.122
168.857
130.338
117.348
114.501
114.105
114.289
115.785
119.635
126.63
136.626
149.023
162.679
176.074
187.849
197.063
203.168
205.872
205.082
201.07
193.86
183.923
171.918
158.706
145.284
132.67
122.084
115.11
111.102
109.51
109.29
109.07
109.012
109.3
110.406
113.023
118.053
125.623
135.107
146.065
158.082
170.669
183.345
195.735
207.605
218.833
229.36
239.15
248.157
256.322
263.57
269.814
274.965
278.938
281.661
283.084
283.184
281.965
279.462
275.731
270.844
264.878
257.917
250.047
241.368
231.998
222.073
211.743
201.15
190.404
179.555
168.585
157.404
145.876
133.902
121.492
108.823
96.2378
84.2501
73.2511
64.5301
141.657
119.095
115.104
114.374
114.532
116.201
120.518
128.306
140.018
155.034
172.204
189.909
206.566
221.065
232.741
241.165
246.005
247.093
244.707
239.29
230.676
219.19
205.309
190.318
174.994
159.484
144.286
130.483
119.737
113.706
111.171
111.122
111.54
112.739
115.146
119.22
124.903
132.03
140.381
149.679
159.585
169.74
179.817
189.557
198.779
207.363
215.23
222.325
228.597
234.001
238.491
242.022
244.556
246.063
246.527
245.949
244.331
241.684
238.029
233.401
227.85
221.454
214.315
206.558
198.313
189.701
180.803
171.65
162.214
152.426
142.203
131.481
120.251
108.616
96.8193
85.2399
74.3518
64.7411
56.809
53.23
120.639
115.499
114.78
114.848
116.124
119.441
125.764
135.785
149.632
166.521
185.176
203.969
221.513
236.991
249.959
259.778
264.454
265.24
262.203
259.022
253.526
244.741
231.775
216.7
202.367
189.166
176.86
164.62
151.539
137.485
124.194
115.993
113.226
113.694
115.055
117.048
121.277
126.741
133.096
140.107
147.559
155.248
162.954
170.478
177.649
184.334
190.432
195.868
200.585
204.54
207.696
210.025
211.506
212.125
211.85
210.666
208.575
205.602
201.797
197.233
192.003
186.205
179.93
173.243
166.167
158.683
150.731
142.231
133.112
123.344
112.973
102.118
90.9773
79.8312
69.0255
58.9231
49.8554
42.0768
35.756
31.0534
116.467
115.665
115.354
115.649
117.191
120.627
126.702
135.928
148.395
163.544
180.385
197.631
214.05
228.732
241.338
249.954
255.353
257.827
257.832
255.306
250.271
242.259
230.951
217.24
203.236
190.086
178.53
169.088
162.077
157.498
154.506
152.465
147.898
138.454
129.475
123.589
121.198
121.836
124.101
127.845
132.58
137.777
143.236
148.696
153.967
158.905
163.399
167.363
170.731
173.456
175.497
176.829
177.425
177.249
176.325
174.698
172.423
169.562
166.169
162.282
157.916
153.052
147.643
141.622
134.912
127.451
119.21
110.217
100.568