/*--------------------------------*- C++ -*----------------------------------*\
| =========                 |                                                 |
| \\      /  F ield         | OpenFOAM: The Open Source CFD Toolbox           |
|  \\    /   O peration     | Version:  v2012                                 |
|   \\  /    A nd           | Website:  www.openfoam.com                      |
|    \\/     M anipulation  |                                                 |
\*---------------------------------------------------------------------------*/
FoamFile
{
    version     2.0;
    format      ascii;
    class       volScalarField;
    location    "399";
    object      k;
}
// * * * * * * * * * * * * * * * * * * * * * * * * * * * * * * * * * * * * * //

dimensions      [0 2 -2 0 0 0 0];


internalField   nonuniform List<scalar> 
6508
(
0.161559
0.184215
0.188128
0.188805
0.189008
0.189008
0.188805
0.188129
0.184216
0.16156
0.124597
0.158641
0.167785
0.169785
0.170259
0.170259
0.169787
0.167787
0.158646
0.124599
0.0995956
0.136719
0.150122
0.153638
0.15451
0.154511
0.153642
0.150131
0.136732
0.0996019
0.0819405
0.118304
0.134767
0.139747
0.141091
0.141093
0.139755
0.134784
0.118331
0.081954
0.0690441
0.102931
0.121412
0.127675
0.129511
0.129516
0.127691
0.121443
0.102976
0.069069
0.059357
0.0901002
0.109786
0.117103
0.119412
0.11942
0.11713
0.109837
0.0901699
0.0593981
0.0519033
0.0793588
0.0996451
0.107785
0.11052
0.110535
0.107828
0.0997237
0.0794596
0.0519666
0.0460446
0.0703235
0.0907712
0.0995285
0.102632
0.102655
0.0995946
0.0908892
0.0704636
0.0461382
0.0413503
0.0626772
0.0829805
0.0921751
0.0955851
0.0956201
0.0922741
0.0831501
0.062869
0.0414854
0.0375215
0.0561628
0.0761155
0.0855966
0.089254
0.0893061
0.0857402
0.0763513
0.0564242
0.0377139
0.0343445
0.0505763
0.0700378
0.079686
0.0835374
0.0836129
0.0798898
0.0703646
0.0509269
0.0346165
0.031662
0.0457525
0.0646308
0.0743522
0.0783523
0.0784596
0.0746376
0.065079
0.0462183
0.0320456
0.0293556
0.0415578
0.0597945
0.0695171
0.0736291
0.0737759
0.0699162
0.0604046
0.0421721
0.0298948
0.027333
0.0378827
0.055443
0.065113
0.069309
0.0695051
0.0656681
0.0562687
0.0386887
0.028089
0.0255195
0.0346367
0.0515008
0.0610802
0.0653415
0.0655991
0.0618304
0.052628
0.0356917
0.0265771
0.0238512
0.0317435
0.0479016
0.0573658
0.061682
0.0620166
0.0583534
0.0494321
0.0331371
0.0253284
0.0222703
0.0291378
0.0445855
0.0539213
0.058291
0.0587217
0.0552008
0.0465972
0.0310306
0.0243361
0.0207208
0.0267622
0.0414973
0.0507016
0.0551322
0.0556829
0.052343
0.0440992
0.0292895
0.0236302
0.0191454
0.0245649
0.0385824
0.0476635
0.0521712
0.0528715
0.0497547
0.0419177
0.0278842
0.0232462
0.0174835
0.0224976
0.0357879
0.0447628
0.0493722
0.0502579
0.0474116
0.0400319
0.0268053
0.0231627
0.0156455
0.0204918
0.0330233
0.0419102
0.0466566
0.047772
0.0452434
0.0384094
0.0260185
0.0184291
0.0136107
0.018597
0.0303115
0.0391093
0.0440279
0.0454126
0.0432621
0.0370278
0.0255948
0.0165677
0.0113944
0.0168465
0.0276436
0.0363263
0.0414469
0.043144
0.0414225
0.0358208
0.0254605
0.0161646
0.00904866
0.0153023
0.0250367
0.0335392
0.038876
0.0409266
0.039672
0.0347599
0.0255314
0.0164889
0.00667691
0.0138108
0.0225485
0.0307525
0.036287
0.0387249
0.0379807
0.033797
0.0257184
0.0171909
0.00446282
0.012302
0.0202765
0.0280107
0.033669
0.0365063
0.0363108
0.0328814
0.0259352
0.0180767
0.00264738
0.0108197
0.0183251
0.0253981
0.0310389
0.0342472
0.0346223
0.0319633
0.0261107
0.0190205
0.00138457
0.00938845
0.0166343
0.0229967
0.0284447
0.0319428
0.0328806
0.030995
0.0261922
0.0199317
0.00066328
0.00800969
0.0152059
0.0209066
0.0259654
0.0296141
0.0310647
0.0299359
0.0261345
0.0207445
0.000312375
0.00670695
0.014022
0.0191796
0.023699
0.027314
0.0291757
0.0287574
0.0259024
0.0214005
0.00028113
0.00551322
0.0130705
0.0178661
0.0217572
0.0251297
0.027246
0.0274496
0.025474
0.0218507
0.000281948
0.00443594
0.0123298
0.0169993
0.0202568
0.0231827
0.0253465
0.0260326
0.0248417
0.0220642
0.000270879
0.00347234
0.0117727
0.0166009
0.0193114
0.0216247
0.0235924
0.024565
0.0240242
0.0220277
0.000241444
0.00255655
0.0112521
0.016639
0.0190135
0.0206259
0.0221452
0.023154
0.0230755
0.0217563
0.000225086
0.00206031
0.010586
0.0168774
0.0193643
0.0203387
0.0212025
0.0219619
0.0220998
0.0212993
0.000213165
0.00182471
0.00956133
0.0169091
0.0200952
0.0208101
0.0209571
0.021198
0.0212593
0.0207564
0.000195674
0.00153308
0.00812007
0.0163771
0.0207696
0.0219235
0.0215372
0.0210905
0.0207735
0.0202895
0.000185511
0.0012681
0.00654085
0.0150637
0.0209463
0.0231655
0.0228726
0.0218121
0.0208922
0.0201249
0.000185662
0.00113384
0.00554315
0.0132309
0.0202729
0.0240654
0.0246753
0.0234037
0.0218438
0.0205367
0.000187953
0.00107755
0.00476841
0.0112394
0.0187077
0.024161
0.0262597
0.0256256
0.023727
0.0217908
0.000183887
0.00108002
0.0039012
0.00934051
0.0166438
0.0232533
0.0271736
0.0279389
0.0264007
0.0240492
0.000150699
0.000957768
0.0031575
0.00714874
0.0139932
0.0213603
0.0270041
0.0296415
0.0294093
0.0272301
9.50332e-05
0.000654591
0.00213231
0.0049751
0.0104641
0.0184378
0.0253995
0.0300872
0.0317287
0.0306809
3.98621e-05
0.000313221
0.00107246
0.00276111
0.00669374
0.0138508
0.0218996
0.0284961
0.0324791
0.0334848
9.56131e-06
8.70855e-05
0.000355444
0.00106164
0.00333573
0.00848982
0.0161831
0.0240951
0.0304212
0.0340455
3.23614e-06
3.44505e-05
0.000184018
0.000491674
0.00132947
0.00387282
0.00913635
0.0171498
0.0249697
0.0311096
4.23755e-06
3.98296e-05
0.00020833
0.000475226
0.000862172
0.00175238
0.0042458
0.00963542
0.0172054
0.0246413
1.08864e-05
6.15245e-05
0.000290792
0.000610959
0.000970887
0.00143252
0.00235403
0.00477625
0.0100684
0.0169052
2.96584e-05
9.9786e-05
0.000419289
0.000817387
0.00122987
0.00166585
0.00219067
0.00318286
0.0057626
0.0105739
6.82932e-05
0.000158877
0.000595613
0.00107293
0.00155065
0.00204733
0.00255495
0.0031443
0.00426527
0.00696082
0.000122468
0.000242215
0.000812137
0.00134858
0.00189396
0.00248712
0.00309813
0.00368308
0.00439195
0.00575562
0.000169582
0.000350282
0.00104055
0.00160624
0.00222864
0.00294164
0.00371895
0.00445034
0.00515134
0.00605946
0.000187552
0.000480075
0.00123634
0.00181563
0.00252395
0.00336129
0.00433246
0.00528968
0.00615851
0.00704991
0.000177096
0.0005872
0.00135197
0.00196521
0.00273902
0.0037014
0.00485057
0.00603845
0.00717154
0.00826414
0.000139751
0.000621925
0.00135315
0.00197793
0.00276597
0.00382081
0.00513381
0.00658551
0.00804935
0.00947223
8.76126e-05
0.000557542
0.00120311
0.00178986
0.00255157
0.00360292
0.00498415
0.00663144
0.0084088
0.0102034
3.67203e-05
0.000392247
0.000894554
0.00138857
0.00204821
0.00297766
0.00425306
0.00589001
0.00780841
0.00987576
1.44039e-05
0.000175695
0.000478379
0.000818447
0.0012985
0.0019902
0.00296304
0.00427836
0.00594575
0.00789676
5.1698e-06
2.54625e-05
0.000109825
0.000248565
0.000493724
0.00088946
0.001468
0.00224905
0.00323847
0.00442933
1.0631e-06
4.5194e-06
9.15103e-06
1.42138e-05
4.13963e-05
0.000192014
0.00057745
0.00119568
0.00189167
0.00254769
0.0045671
0.000878905
0.000648716
0.000541335
0.00043949
0.000339261
0.000284439
0.000259499
0.000244221
0.000223564
0.000200326
0.000177728
0.000152815
0.000120485
8.34656e-05
4.89688e-05
2.42336e-05
1.00523e-05
3.52754e-06
1.05271e-06
2.60769e-07
7.24293e-08
4.83718e-08
2.51203e-08
8.49288e-09
0.00716444
0.00273093
0.00255052
0.00253288
0.00238129
0.00212214
0.00177897
0.00145118
0.00117306
0.000932533
0.0007187
0.000514242
0.000346499
0.000224921
0.000140987
8.52962e-05
4.93518e-05
2.71114e-05
1.41107e-05
6.97687e-06
3.3065e-06
1.48765e-06
5.57976e-07
1.10771e-07
2.08023e-08
0.0102457
0.00686277
0.00490057
0.00419086
0.00365927
0.00315047
0.0026703
0.00222126
0.00185485
0.00155784
0.0012984
0.00105346
0.000791525
0.000553118
0.000364354
0.000229778
0.000140549
8.39797e-05
4.88923e-05
2.76111e-05
1.49514e-05
7.4446e-06
2.90247e-06
5.64079e-07
4.69173e-08
0.012999
0.0121862
0.00778757
0.00576669
0.00452624
0.0036215
0.00293989
0.00242756
0.00204926
0.00174929
0.00149479
0.00125726
0.00101332
0.000751021
0.000517762
0.000338616
0.000214193
0.000132559
8.08412e-05
4.83895e-05
2.80414e-05
1.48928e-05
6.07817e-06
1.25622e-06
3.57424e-07
0.0152333
0.0165732
0.0119423
0.00787843
0.00563089
0.00416964
0.00320799
0.00257794
0.00217963
0.00190182
0.0016661
0.00142889
0.00116921
0.000874101
0.000595811
0.000390276
0.000249014
0.000156116
9.76396e-05
6.05179e-05
3.65041e-05
2.00438e-05
8.30749e-06
1.79643e-06
1.12456e-06
0.0169116
0.0199199
0.016819
0.0107658
0.00724199
0.00499961
0.00366353
0.00286815
0.00243046
0.00216961
0.00196241
0.00174354
0.00148368
0.00117689
0.000839325
0.000549412
0.000340083
0.000197126
0.000119548
7.28782e-05
4.3715e-05
2.38315e-05
9.6884e-06
2.14167e-06
2.17734e-06
0.018096
0.0222126
0.0218
0.0150515
0.0095996
0.00627254
0.00436197
0.00333652
0.0028354
0.00259486
0.00244681
0.00229997
0.00210668
0.00184371
0.00150495
0.00110024
0.000717068
0.000435117
0.000245474
0.000129518
6.83446e-05
3.35591e-05
1.26107e-05
2.70736e-06
3.1981e-06
0.0188903
0.0234663
0.0256875
0.0205243
0.0128665
0.00815707
0.00542877
0.0040217
0.00339088
0.00314927
0.00306926
0.00303097
0.00296852
0.00283745
0.00260605
0.00225396
0.00177354
0.00121057
0.000726918
0.000388762
0.000179415
7.27091e-05
2.38516e-05
4.63848e-06
4.18482e-06
0.019407
0.0238152
0.0281591
0.025925
0.0177502
0.0108623
0.00695313
0.00497111
0.00409921
0.00378799
0.00372812
0.00376832
0.00382973
0.00385425
0.00379322
0.00360135
0.00324102
0.00268777
0.00193818
0.00112634
0.000555331
0.000207651
6.08632e-05
1.08237e-05
5.65011e-06
0.0197479
0.0234885
0.0291029
0.0298284
0.0235333
0.0149031
0.00917867
0.00629182
0.00498858
0.00448478
0.00435121
0.00438286
0.00448243
0.00459219
0.00466588
0.00464171
0.0044654
0.00407645
0.00343044
0.0025252
0.00143029
0.00057799
0.000155803
2.66216e-05
8.56405e-06
0.0199841
0.0227621
0.0287122
0.0320112
0.0286385
0.0200715
0.0127385
0.0084099
0.00627405
0.00534673
0.00500855
0.00495139
0.00500978
0.00511119
0.00523419
0.00529373
0.00525193
0.00503471
0.00456286
0.0037787
0.0026573
0.001317
0.000366313
5.82605e-05
1.33188e-05
0.0201338
0.0218779
0.0273603
0.0323758
0.0320131
0.0256287
0.0168261
0.011129
0.0080961
0.00666247
0.00603047
0.00578124
0.0057634
0.00584629
0.00593555
0.0059702
0.00593972
0.00579446
0.00541785
0.00475732
0.00372469
0.0023018
0.000780178
0.000113248
2.04199e-05
0.0202223
0.0210276
0.0254921
0.0311821
0.0334493
0.0298442
0.0221157
0.0145646
0.0102717
0.00820316
0.00733033
0.00701649
0.0069344
0.00699422
0.0071104
0.00718041
0.00710384
0.00684764
0.00641291
0.00571994
0.00469866
0.00325415
0.00149821
0.000223559
2.99084e-05
0.0202199
0.0203187
0.0235312
0.0289405
0.0329905
0.0323035
0.0267911
0.0193787
0.0131906
0.0100492
0.00870623
0.00829957
0.00830376
0.00843021
0.00862463
0.00876519
0.00873828
0.00847445
0.00793122
0.00705406
0.00583888
0.00424702
0.00226548
0.000439347
4.03575e-05
0.0200966
0.0197681
0.0217821
0.0262553
0.0310228
0.0328086
0.0300222
0.0240206
0.0175668
0.0128463
0.010427
0.00962311
0.00961213
0.00992594
0.0102735
0.0106319
0.0108125
0.0106719
0.0100923
0.00901674
0.00745398
0.00547366
0.00313789
0.000808719
5.16153e-05
0.0198587
0.0193418
0.020394
0.0236525
0.0281777
0.0315166
0.0314131
0.0276682
0.0220645
0.0168204
0.0132405
0.0114431
0.0110046
0.0113018
0.0118603
0.0124294
0.0129255
0.0131076
0.0127512
0.011655
0.00974567
0.0071599
0.00422163
0.00132825
5.79809e-05
0.0195744
0.0190008
0.0193856
0.0214713
0.0251346
0.0289593
0.0308781
0.0296724
0.0258562
0.0210958
0.016971
0.0142557
0.0129885
0.012814
0.0133277
0.0140501
0.0148618
0.0154532
0.0155197
0.0147016
0.0126786
0.00943953
0.00561083
0.00202087
0.000109095
0.0193859
0.0187585
0.0187098
0.0198455
0.0224243
0.0258752
0.0287983
0.0297292
0.0281541
0.0248001
0.0209907
0.0178202
0.015799
0.014939
0.0150007
0.0156558
0.0165891
0.0175469
0.0181207
0.0178143
0.0160078
0.0122974
0.00736911
0.00289512
0.000239183
0.0195168
0.0187183
0.0183411
0.0187708
0.0203323
0.0229458
0.025909
0.0280836
0.0285256
0.0270857
0.0244302
0.0215359
0.0191765
0.0177241
0.0172151
0.0174844
0.0182516
0.019355
0.0204067
0.0207311
0.0194651
0.0155997
0.00958646
0.00397661
0.000472542
0.020253
0.0190846
0.0183443
0.0182174
0.0189395
0.0206104
0.022994
0.0254499
0.0271434
0.0274821
0.0264504
0.0245594
0.0225071
0.0208565
0.0199067
0.0197245
0.0202166
0.0211481
0.0223732
0.0232928
0.0228009
0.0191794
0.0122603
0.00542869
0.00116373
0.0218909
0.0201468
0.0189025
0.0182315
0.0182496
0.0190555
0.0206181
0.0226734
0.0247159
0.0261618
0.0266264
0.0261137
0.0249742
0.0236914
0.0226702
0.0221721
0.0222906
0.0229868
0.0241493
0.0254381
0.0257987
0.0229249
0.0155447
0.00765451
0.0032126
0.0246197
0.02221
0.0202962
0.0189817
0.0183166
0.0183428
0.0190674
0.0204052
0.022126
0.0238604
0.025206
0.0258954
0.0259094
0.0254568
0.0248132
0.024321
0.0242395
0.0247057
0.0256934
0.0270878
0.0281153
0.0267144
0.0200491
0.0111987
0.00651528
0.0281829
0.0253156
0.0227065
0.0206519
0.0192524
0.0185277
0.0184674
0.01903
0.0201174
0.0215442
0.0230468
0.0243455
0.0252395
0.0256786
0.025699
0.025577
0.0255871
0.0259482
0.0268076
0.0281544
0.0296659
0.0301415
0.0261583
0.0175476
0.00940876
0.0320026
0.0292784
0.0262348
0.0234671
0.0212683
0.0197356
0.0188708
0.0186363
0.0189711
0.0197834
0.020933
0.0222353
0.0234895
0.0245304
0.0252326
0.0256468
0.0259822
0.0264378
0.0271858
0.0283486
0.0299283
0.0315157
0.0319562
0.0285125
0.0221263
0.034677
0.0331284
0.030392
0.02731
0.0244525
0.0221204
0.0204203
0.0193631
0.0188949
0.0189621
0.0194851
0.0203609
0.0214558
0.0226204
0.0237029
0.0245757
0.0252839
0.0259674
0.0267592
0.0277765
0.029099
0.0307383
0.0324814
0.0335394
0.0323053
0.0344367
0.0351579
0.0338672
0.0313723
0.028427
0.0255832
0.0231589
0.021294
0.0200142
0.0192893
0.0190709
0.0192932
0.0198826
0.0207412
0.0217511
0.0227851
0.0237429
0.0246228
0.0255163
0.0265066
0.0276662
0.0290457
0.0306426
0.0323328
0.0334433
0.0303187
0.0337559
0.0348899
0.0341213
0.0320927
0.0294641
0.0267616
0.0243241
0.0223329
0.0208471
0.0198697
0.0193712
0.0192805
0.0195624
0.0201459
0.0209378
0.0218432
0.0227925
0.0237179
0.0246817
0.0257357
0.0269235
0.0282737
0.0297668
0.031233
0.02348
0.0288785
0.0324782
0.0340933
0.0339487
0.0325176
0.0303457
0.0279101
0.0255633
0.0235166
0.0218703
0.0206635
0.019877
0.0195091
0.0194654
0.0197361
0.0202544
0.0209532
0.0217652
0.0226471
0.023571
0.0245737
0.025685
0.0269126
0.0282175
0.016408
0.0222834
0.0273544
0.0310242
0.0330451
0.0334982
0.0326966
0.0310564
0.0289895
0.0268339
0.0248166
0.0230814
0.0216866
0.0206656
0.0199827
0.0196607
0.0195956
0.0197932
0.0202059
0.0207865
0.0214943
0.0223099
0.0231842
0.0241366
0.0251628
0.0111463
0.0162169
0.0214324
0.0261015
0.0297174
0.0320101
0.0329572
0.0327316
0.0316286
0.0299874
0.0281055
0.0262164
0.0244714
0.0229696
0.0217467
0.0208238
0.0201723
0.01982
0.019687
0.0197555
0.0200179
0.0204419
0.0209954
0.0216623
0.0224248
0.00834623
0.012064
0.016494
0.0210835
0.0253165
0.0287759
0.0311949
0.0324804
0.0327011
0.0320923
0.0308918
0.0293439
0.0276618
0.0260065
0.0244829
0.0231459
0.0220247
0.0211011
0.0204509
0.0200167
0.0197701
0.0196752
0.0197448
0.0199614
0.0203042
0.00760195
0.0100889
0.0134257
0.0172986
0.0213193
0.0250964
0.0282738
0.0305904
0.0319817
0.0324961
0.0322676
0.0314798
0.0303247
0.0289722
0.027558
0.0261369
0.0247986
0.023576
0.0225157
0.021614
0.0208847
0.0203413
0.0199614
0.0197136
0.0195643
0.00816008
0.00985107
0.0122603
0.0152787
0.0186815
0.0221776
0.0254477
0.0282094
0.0303298
0.0317284
0.0324146
0.0324709
0.0320237
0.0312119
0.0301666
0.0289893
0.0277679
0.0265622
0.02541
0.0243116
0.0233023
0.0224111
0.0216131
0.0209665
0.020438
0.00941357
0.0107652
0.0125892
0.0149176
0.0176697
0.0206569
0.0236444
0.026385
0.0287526
0.0306271
0.0319439
0.0326993
0.0329413
0.0327513
0.0322259
0.0314576
0.0305316
0.0295187
0.0284704
0.0274247
0.0264085
0.0254449
0.0245096
0.023631
0.0228353
0.0108574
0.0122381
0.0137708
0.0156568
0.0179688
0.0204945
0.0230924
0.0256084
0.0279124
0.0299114
0.0315265
0.0327153
0.0334713
0.0338216
0.0338176
0.0335227
0.0330025
0.0323196
0.0315274
0.0306684
0.0297761
0.0288763
0.0279881
0.0271242
0.0263013
0.0119446
0.0135841
0.0152173
0.0169534
0.0188868
0.021001
0.0232437
0.0255562
0.0277525
0.0296993
0.031392
0.0327906
0.0338631
0.0346064
0.0350359
0.0351837
0.0350899
0.034798
0.0343513
0.0337885
0.0331428
0.0324411
0.0317052
0.030952
0.0301987
0.0119533
0.0139005
0.0157804
0.0176071
0.0194262
0.0213184
0.0232902
0.025303
0.0272743
0.0291359
0.0308571
0.0323969
0.0336551
0.0346671
0.0354309
0.0359556
0.0362575
0.0363575
0.0362835
0.0360651
0.0357306
0.0353039
0.0348055
0.0342527
0.033663
0.0100095
0.012087
0.0141429
0.0161417
0.0180446
0.0198155
0.0215779
0.0233405
0.025077
0.0267588
0.02836
0.0298594
0.0312226
0.0324744
0.0334756
0.0342653
0.0348644
0.0352713
0.0355065
0.0355934
0.0355532
0.0354001
0.035149
0.034814
0.0344118
0.00579839
0.00724805
0.00879329
0.0103935
0.0120416
0.0136469
0.0150892
0.0164999
0.0178833
0.0192299
0.020527
0.021766
0.0229348
0.0240196
0.024957
0.0257675
0.0265025
0.0270339
0.0274563
0.0277766
0.0279892
0.0280768
0.0280533
0.0279292
0.0277166
0.00313037
0.00361781
0.0040398
0.00440964
0.0047443
0.00506787
0.00540509
0.00570055
0.00595645
0.00617368
0.00635455
0.00650133
0.00661407
0.00668422
0.0066723
0.00657433
0.00646996
0.00636005
0.00641453
0.00678494
0.00720153
0.00762865
0.00803307
0.00841363
0.00876934
0.00538701
0.00295307
0.0017667
0.0160757
0.0108365
0.00699356
0.0277997
0.0233435
0.0192274
0.0330394
0.0313604
0.0287446
0.0322469
0.0326693
0.032294
0.0293826
0.030407
0.03116
0.0261369
0.0271204
0.0280732
0.023157
0.0239173
0.0247054
0.020699
0.0211613
0.0216895
0.0195334
0.0195925
0.019735
0.0200529
0.0197639
0.0195425
0.0221682
0.0215722
0.0210723
0.0255783
0.0248769
0.0242082
0.0295345
0.0288853
0.028246
0.0331132
0.0325508
0.0319724
0.0340036
0.0335595
0.0330771
0.027467
0.0271675
0.0268214
0.00907061
0.00934187
0.00959036
6.4464e-09
5.2351e-08
3.55786e-07
1.4578e-06
3.82937e-06
7.57932e-06
1.24117e-05
1.7814e-05
2.32791e-05
2.84361e-05
3.28456e-05
3.61497e-05
3.8134e-05
3.86945e-05
3.79654e-05
3.60276e-05
3.30779e-05
2.93776e-05
2.51284e-05
2.07251e-05
1.64865e-05
1.26336e-05
9.31639e-06
6.61512e-06
4.52833e-06
2.99323e-06
1.91625e-06
1.19296e-06
7.27149e-07
4.40363e-07
2.73197e-07
1.85002e-07
1.51352e-07
1.71166e-07
2.72536e-07
5.2192e-07
1.01006e-06
1.78985e-06
2.82311e-06
4.00763e-06
5.19543e-06
6.32587e-06
7.48026e-06
8.8564e-06
1.01887e-05
1.12337e-05
1.22599e-05
1.24902e-05
1.18403e-05
1.33277e-05
4.20979e-05
0.000116462
0.000265052
0.000499899
0.000802158
0.00112661
0.00142997
0.0016841
0.0018728
0.00198722
0.00203123
0.00201693
0.00195872
0.00186667
0.00174727
0.00160631
0.00144763
0.00127376
0.00108728
0.000897448
0.000703035
0.000513543
0.000340363
0.000243146
0.000163448
9.98994e-05
5.9373e-05
2.70261e-05
7.64298e-06
1.10709e-06
3.71357e-08
8.26835e-07
5.1612e-06
1.58855e-05
3.30128e-05
5.36318e-05
7.40898e-05
9.16029e-05
0.00010472
0.000112738
0.000115643
0.000113892
0.000108169
9.91947e-05
8.73975e-05
7.53272e-05
6.4782e-05
5.53045e-05
4.66707e-05
3.88909e-05
3.19188e-05
2.57842e-05
2.05041e-05
1.60637e-05
1.2414e-05
9.4781e-06
7.1653e-06
5.37878e-06
4.02628e-06
3.02505e-06
2.30513e-06
1.81445e-06
1.53162e-06
1.51808e-06
1.9959e-06
3.19533e-06
5.3261e-06
8.18106e-06
1.10834e-05
1.3403e-05
1.508e-05
1.71585e-05
2.0774e-05
2.87241e-05
4.02249e-05
5.71988e-05
8.7405e-05
0.000134259
0.000200575
0.000287751
0.000398033
0.000530427
0.000683217
0.000851951
0.00102853
0.00120662
0.0013889
0.00157034
0.00174886
0.00192353
0.00209346
0.00226058
0.00241913
0.00256083
0.00268835
0.00279276
0.00285261
0.0028735
0.00284183
0.0027389
0.00254996
0.00226761
0.00189285
0.00143105
0.00087462
0.00036075
0.000131034
4.41958e-05
1.09464e-05
4.77279e-06
1.51396e-07
2.97649e-06
1.91237e-05
5.78344e-05
0.000116248
0.000184051
0.000251174
0.000310803
0.000359306
0.000395225
0.000418315
0.000429011
0.000428163
0.000416775
0.000395586
0.000363947
0.00032611
0.000286586
0.000246865
0.000208706
0.000173382
0.000141767
0.000114259
9.08858e-05
7.15383e-05
5.57581e-05
4.30511e-05
3.29874e-05
2.51627e-05
1.92064e-05
1.47972e-05
1.16868e-05
9.74959e-06
9.11646e-06
1.07771e-05
1.59977e-05
2.5631e-05
3.87457e-05
5.27672e-05
6.58954e-05
7.87716e-05
0.000101859
0.000137567
0.000203392
0.000282977
0.000365816
0.000451539
0.000547372
0.00065881
0.000789134
0.000940531
0.00111492
0.00132545
0.00156495
0.00182017
0.00208059
0.00233433
0.00257178
0.00278692
0.00297737
0.00314325
0.00328598
0.00340203
0.00350167
0.0035838
0.00364457
0.00367739
0.00367468
0.00362467
0.00351153
0.00332087
0.00305273
0.00269496
0.00222913
0.00163291
0.000957258
0.000330021
7.97932e-05
1.56223e-05
9.73931e-06
5.38324e-07
6.51784e-06
4.116e-05
0.00012037
0.000233134
0.000357928
0.000477526
0.000582001
0.000667012
0.000731528
0.000776173
0.000802263
0.000811358
0.000805014
0.00078457
0.000750639
0.00070137
0.000642315
0.00057627
0.000506199
0.000435286
0.000366893
0.000303587
0.000246966
0.000197908
0.000156682
0.000122897
9.57421e-05
7.42862e-05
5.76302e-05
4.49971e-05
3.58038e-05
2.98029e-05
2.74202e-05
3.03823e-05
4.32496e-05
6.83783e-05
0.000103651
0.000144979
0.000199425
0.00027636
0.000373717
0.000470796
0.000567542
0.000660071
0.000749734
0.000849584
0.000972004
0.00112504
0.00131323
0.00153875
0.00179692
0.00207908
0.00236955
0.00265365
0.00291672
0.00315393
0.00336281
0.00354358
0.00369885
0.0038316
0.00394428
0.0040331
0.00410205
0.00414995
0.00417414
0.00417048
0.00413327
0.00405503
0.00392693
0.00374002
0.0034859
0.00315427
0.00272793
0.00218166
0.00150174
0.000754912
0.000185451
2.74094e-05
1.20156e-05
1.5018e-06
1.25924e-05
7.71738e-05
0.000215304
0.000397724
0.000585852
0.000754672
0.000893362
0.000999995
0.00107673
0.00112695
0.00115401
0.00116084
0.00114994
0.00112341
0.00108289
0.00102906
0.00096073
0.000882837
0.000797303
0.000706743
0.000614567
0.000524163
0.000438444
0.000360185
0.00029119
0.000232598
0.000184159
0.000145054
0.00011416
9.03384e-05
7.27344e-05
6.12398e-05
5.74426e-05
6.59123e-05
9.52822e-05
0.000153018
0.000238605
0.000359277
0.000512533
0.000637133
0.000744585
0.000832999
0.000908724
0.000987489
0.00108528
0.00121685
0.00139175
0.00161308
0.00187759
0.0021753
0.0024913
0.00280883
0.00311413
0.00339705
0.00365292
0.00388092
0.00408206
0.00425841
0.00441204
0.00454441
0.00465115
0.00473928
0.0048087
0.00485705
0.00488022
0.00487218
0.00482497
0.00472888
0.00457358
0.00435003
0.00405296
0.00368073
0.0032293
0.00268212
0.00200929
0.00121329
0.000445018
6.24294e-05
1.42581e-05
3.54289e-06
2.30216e-05
0.000136493
0.00036088
0.000630541
0.000882139
0.0010866
0.00123977
0.00134787
0.00141891
0.00145959
0.00147497
0.00146881
0.00144411
0.00140339
0.00134883
0.00128202
0.00120333
0.00111519
0.00102006
0.000919708
0.000816194
0.000711962
0.000609811
0.000512796
0.000423812
0.000345105
0.000277736
0.000221863
0.000176845
0.000141703
0.00011582
0.000100256
0.000100442
0.000129595
0.000204938
0.000339959
0.000535877
0.000737982
0.000890462
0.000992683
0.00105875
0.00110916
0.00116828
0.00125837
0.00139482
0.00158591
0.00183203
0.00212555
0.00245146
0.00279164
0.0031295
0.00345194
0.00375061
0.00402178
0.00426523
0.00448298
0.00467749
0.0048509
0.0050049
0.00514058
0.00525746
0.00536357
0.00545918
0.00554162
0.00560552
0.00564245
0.00564052
0.00558426
0.00545527
0.00523439
0.00490642
0.00446623
0.00392038
0.00327777
0.00253196
0.00167142
0.000767936
0.000126235
1.80002e-05
7.22251e-06
4.03812e-05
0.0002311
0.000573846
0.000937085
0.0012341
0.00144899
0.00159521
0.00168954
0.00174447
0.00176823
0.00176623
0.00174224
0.00169924
0.00163988
0.00156671
0.00148209
0.00138789
0.00128521
0.00117779
0.00106729
0.000955228
0.000843164
0.000732919
0.000626692
0.000526986
0.000436244
0.000356357
0.000288407
0.000232622
0.000188834
0.000157752
0.000144006
0.000161999
0.00023866
0.000402095
0.000662934
0.000926583
0.00111201
0.00121262
0.00125325
0.00127208
0.0013051
0.00137968
0.00151276
0.00171082
0.00197089
0.00228111
0.00262264
0.00297623
0.00332412
0.0036536
0.00395732
0.00423252
0.00447926
0.0046996
0.00489677
0.00507401
0.00523436
0.00538058
0.00551499
0.00564295
0.00577138
0.00590171
0.00603244
0.00615897
0.00627273
0.00636022
0.00640213
0.00637267
0.00623977
0.0059683
0.00552862
0.00490984
0.00412959
0.00321841
0.00220422
0.00113934
0.000257867
2.30765e-05
1.2827e-05
6.83427e-05
0.000375506
0.0008622
0.00129996
0.00161058
0.00181363
0.00194104
0.00201577
0.00205152
0.00205641
0.00203548
0.00199214
0.00192904
0.00184881
0.00175424
0.00164817
0.00153337
0.00141213
0.00128792
0.00116357
0.0010407
0.000920634
0.000804521
0.000693562
0.000589246
0.000493325
0.000407569
0.000333443
0.000272
0.000224523
0.000194948
0.000195843
0.000255922
0.000417408
0.000716007
0.00104395
0.00128602
0.00140428
0.00142769
0.0014129
0.00141234
0.00146185
0.00158062
0.00177409
0.00203606
0.00235115
0.00269856
0.00305641
0.00340642
0.0037358
0.00403752
0.00430881
0.00454984
0.00476264
0.00495067
0.00511808
0.00526917
0.00540827
0.00553964
0.0056674
0.00580106
0.00594665
0.00610721
0.00628337
0.00647275
0.00666888
0.00685971
0.00702598
0.00713962
0.00716228
0.00704361
0.00672428
0.00614949
0.00529425
0.00419327
0.00293172
0.00161893
0.000471917
2.52299e-05
1.99475e-05
0.000112117
0.000582841
0.00121418
0.00168752
0.00198631
0.00216904
0.00227548
0.00233052
0.00234741
0.00233378
0.00229433
0.00223218
0.00214924
0.00204772
0.0019307
0.00180103
0.00166211
0.00151747
0.00137073
0.00122697
0.00108835
0.000956888
0.000833434
0.00071835
0.000612
0.000515037
0.000428478
0.000353655
0.000292422
0.000248594
0.000232542
0.000269741
0.000405895
0.000700989
0.00107174
0.00138722
0.00155751
0.00158722
0.00154499
0.00150524
0.00151864
0.00161029
0.00178625
0.00203851
0.00234896
0.00269428
0.003051
0.00339953
0.00372639
0.004024
0.0042893
0.00452214
0.0047243
0.00489903
0.00505069
0.00518419
0.00530478
0.00541797
0.00552945
0.00564663
0.00577893
0.00593298
0.00611371
0.00632418
0.00656486
0.00683238
0.00711796
0.00740553
0.00766999
0.00787338
0.00796014
0.00785429
0.00746254
0.0066905
0.00549349
0.00395504
0.0022874
0.000800498
5.94001e-05
2.75419e-05
0.000179701
0.000857513
0.00160153
0.00207392
0.0023529
0.00251621
0.00260553
0.00264357
0.00264329
0.00261239
0.00255564
0.00247622
0.00237609
0.00225649
0.00211915
0.00196657
0.00180234
0.00163054
0.00145592
0.00128449
0.00112091
0.000971158
0.000835633
0.000713875
0.000605148
0.000508824
0.000424837
0.000354191
0.000300065
0.000270972
0.000287707
0.000392625
0.000645483
0.00101889
0.00139695
0.00164872
0.00172406
0.00167574
0.00159808
0.0015656
0.00161654
0.00176131
0.00199206
0.00228863
0.00262564
0.00297773
0.00332375
0.0036488
0.0039442
0.0042061
0.00443376
0.00462843
0.0047928
0.00493075
0.00504709
0.00514725
0.0052372
0.00532344
0.00541294
0.00551555
0.00563989
0.0057937
0.00598389
0.00621603
0.00649349
0.00681615
0.00717882
0.00757006
0.0079692
0.00834259
0.00863927
0.00878329
0.00866411
0.00813391
0.00703433
0.00531751
0.00322296
0.00128035
0.000255718
3.48857e-05
0.000284823
0.00117553
0.00197481
0.00244921
0.00271957
0.00287079
0.00294618
0.00296929
0.00295386
0.0029082
0.00283733
0.00274425
0.0026307
0.00249743
0.00234412
0.00217181
0.00198349
0.00178315
0.00157651
0.00137116
0.00117577
0.000997343
0.000839828
0.000703786
0.000588137
0.000491036
0.000411066
0.000349028
0.000310867
0.000313219
0.000389583
0.000585993
0.00091984
0.00132055
0.00165409
0.0018137
0.00179887
0.00169972
0.00161815
0.00161663
0.00171652
0.00191196
0.00218465
0.00250678
0.00285094
0.003194
0.00351915
0.00381599
0.0040794
0.00430775
0.00450161
0.00466288
0.00479463
0.00490091
0.00498662
0.00505741
0.00511969
0.0051807
0.00524855
0.00533394
0.00544542
0.00559194
0.00578235
0.00602472
0.00632527
0.00668711
0.00710896
0.00758285
0.00809202
0.00860877
0.00908986
0.00946862
0.00964075
0.00944211
0.00863267
0.00696664
0.0044934
0.00194486
0.000752814
4.18724e-05
0.000412606
0.00149383
0.00234944
0.00283239
0.0030995
0.00324204
0.00330606
0.00331702
0.00329004
0.00323434
0.00315541
0.00305608
0.00293613
0.00279719
0.0026368
0.00245353
0.00224828
0.0020241
0.00178531
0.00153927
0.00129674
0.00107338
0.000879139
0.000716008
0.000584349
0.000482566
0.000407778
0.000360869
0.000351071
0.000400841
0.000546485
0.000817086
0.00119119
0.00157061
0.0018263
0.00189077
0.00180856
0.00168969
0.00162887
0.00167139
0.00182003
0.00205206
0.00235083
0.00268215
0.00302055
0.00334681
0.00364836
0.00391823
0.00415355
0.00435401
0.00452075
0.00465594
0.00476261
0.00484464
0.00490674
0.00495447
0.00499437
0.00503412
0.00508298
0.00515109
0.00524754
0.00538256
0.00556684
0.00581076
0.00612341
0.00651137
0.00697622
0.00751304
0.00810925
0.00874236
0.00937605
0.00995334
0.0103839
0.0105181
0.0100999
0.00873237
0.00610524
0.00285316
0.00156021
4.79583e-05
0.000558501
0.00182263
0.00273259
0.00322877
0.00349607
0.00363274
0.00368885
0.00369219
0.00365931
0.00360059
0.00352185
0.00342547
0.00331122
0.00317934
0.0030242
0.00284338
0.00263518
0.00239915
0.0021369
0.00185365
0.00155969
0.00127035
0.00100886
0.000794129
0.000628874
0.000511337
0.000438317
0.000409939
0.000435515
0.000537004
0.000741478
0.00105441
0.00142615
0.00174922
0.00191639
0.00190182
0.00178096
0.00166627
0.0016366
0.00172603
0.00191
0.00217153
0.00248201
0.00281132
0.0031373
0.0034447
0.00372429
0.00397142
0.00418458
0.00436411
0.00451141
0.00462859
0.00471844
0.00478448
0.00483105
0.00486338
0.00488782
0.00491202
0.00494665
0.00500031
0.00508311
0.00520649
0.00538262
0.00562414
0.00594304
0.00634801
0.00684315
0.00742658
0.0080894
0.00881407
0.00957066
0.0103106
0.0109561
0.0113768
0.0113426
0.0104152
0.00794426
0.00403112
0.00246811
5.3415e-05
0.000723139
0.00216218
0.00312515
0.00363768
0.00390742
0.00404111
0.00409416
0.00409649
0.00406556
0.00401337
0.00394604
0.00386555
0.00377058
0.00365785
0.00352231
0.00335907
0.00316392
0.00293396
0.00266651
0.00236219
0.00202743
0.00167557
0.00132773
0.00101479
0.00077509
0.000613901
0.000527548
0.000511098
0.000567328
0.000709015