/*--------------------------------*- C++ -*----------------------------------*\
| =========                 |                                                 |
| \\      /  F ield         | OpenFOAM: The Open Source CFD Toolbox           |
|  \\    /   O peration     | Version:  v2012                                 |
|   \\  /    A nd           | Website:  www.openfoam.com                      |
|    \\/     M anipulation  |                                                 |
\*---------------------------------------------------------------------------*/
FoamFile
{
    version     2.0;
    format      ascii;
    class       volScalarField;
    location    "399";
    object      nut;
}
// * * * * * * * * * * * * * * * * * * * * * * * * * * * * * * * * * * * * * //

dimensions      [0 2 -1 0 0 0 0];


internalField   nonuniform List<scalar> 
6508
(
0.000633667
0.00282699
0.00339703
0.00345721
0.00346399
0.003464
0.00345722
0.00339706
0.00282713
0.000633668
0.000518818
0.00233745
0.00322722
0.00338449
0.00340991
0.00340992
0.00338454
0.00322742
0.00233786
0.000518825
0.000433775
0.00199883
0.00304779
0.00330555
0.00335576
0.0033558
0.00330573
0.00304833
0.00199959
0.000433797
0.000369355
0.00174428
0.00287168
0.0032216
0.00330076
0.00330086
0.00322202
0.00287279
0.00174561
0.000369406
0.000319638
0.00154284
0.00270502
0.00313437
0.0032445
0.00324471
0.0031352
0.00270699
0.0015449
0.000319737
0.00028063
0.00137857
0.00255024
0.0030456
0.00318686
0.00318727
0.00304709
0.00255345
0.00138157
0.000280798
0.000249546
0.00124159
0.00240773
0.00295678
0.00312794
0.00312867
0.00295927
0.00241267
0.00124584
0.000249815
0.000224412
0.0011253
0.00227688
0.00286896
0.00306796
0.0030692
0.00287293
0.00228426
0.00113124
0.000224819
0.000203799
0.00102511
0.00215664
0.00278273
0.00300717
0.00300919
0.00278895
0.00216745
0.00103337
0.000204398
0.000186658
0.000937647
0.00204561
0.00269842
0.00294583
0.00294903
0.00270793
0.00206136
0.000949124
0.000187526
0.0001722
0.000860326
0.00194237
0.00261617
0.00288418
0.0028891
0.00263037
0.00196518
0.000876247
0.000173447
0.000159823
0.000791148
0.00184558
0.00253583
0.00282238
0.00282977
0.00255673
0.00187826
0.000813117
0.000161603
0.000149052
0.000728492
0.00175386
0.00245703
0.00276048
0.00277113
0.00248771
0.00180029
0.000758631
0.000151581
0.000139505
0.000670973
0.00166581
0.00237919
0.00269842
0.00271335
0.0024239
0.00173135
0.000712137
0.000143085
0.000130864
0.000617368
0.00157988
0.00230151
0.00263599
0.00265654
0.00236457
0.00167278
0.00067344
0.000135913
0.000122844
0.000566584
0.0014944
0.00222288
0.00257277
0.00260072
0.00230934
0.00162467
0.00064323
0.000129948
0.000115182
0.000517653
0.00140754
0.00214186
0.00250812
0.00254579
0.00225834
0.00158316
0.000623436
0.000125182
0.000107611
0.000469773
0.00131735
0.00205661
0.00244107
0.0024915
0.00221176
0.00154861
0.00060795
0.000121777
9.98509e-05
0.000422405
0.00122191
0.00196486
0.00237024
0.00243737
0.00216979
0.00152181
0.000597947
0.000119919
9.15949e-05
0.000375373
0.00111966
0.00186388
0.00229365
0.00238252
0.00213248
0.00150372
0.000595073
0.000119515
8.23785e-05
0.000328898
0.00100841
0.00174893
0.00220733
0.0023246
0.00209896
0.00149714
0.000613815
0.000129075
7.20692e-05
0.000285481
0.000891838
0.00161935
0.00210925
0.00226213
0.00206885
0.0015014
0.000654664
0.000153894
6.07086e-05
0.000246235
0.000774034
0.00147506
0.00199628
0.002192
0.00203951
0.00151591
0.00071689
0.000192097
4.85323e-05
0.000212045
0.000660289
0.00131876
0.00186566
0.00211043
0.00200769
0.00154061
0.000793041
0.000244503
3.60562e-05
0.000182316
0.000556907
0.00115683
0.00171673
0.00201393
0.00196994
0.00156911
0.00087964
0.000312163
2.42556e-05
0.000156712
0.000468907
0.000998338
0.00155232
0.00189937
0.00192189
0.00159518
0.000972329
0.00039554
1.44657e-05
0.000135112
0.0003983
0.000852191
0.00137918
0.00176551
0.00185899
0.00161322
0.00106589
0.000493933
7.59397e-06
0.000117012
0.000343157
0.00072472
0.00120655
0.00161443
0.00177697
0.00161794
0.0011548
0.000604827
3.64575e-06
0.000101636
0.000301315
0.000619215
0.00104371
0.0014518
0.00167374
0.00160382
0.00123288
0.000723675
1.71879e-06
8.87435e-05
0.000270885
0.000536128
0.000898519
0.00128608
0.00155054
0.00156631
0.00129343
0.000843681
1.54702e-06
7.85742e-05
0.000250898
0.00047519
0.000776904
0.00112715
0.00141258
0.0015032
0.00133008
0.000956119
1.55151e-06
7.08481e-05
0.000240767
0.000435486
0.000682633
0.000984867
0.00126861
0.00141605
0.0013379
0.0010515
1.49065e-06
6.45569e-05
0.000240242
0.000416258
0.000617607
0.000867653
0.00112977
0.0013109
0.00131506
0.00112105
1.32879e-06
5.79848e-05
0.000248471
0.000417043
0.000582548
0.000781833
0.00100777
0.00119803
0.0012643
0.00115883
1.23882e-06
5.54841e-05
0.000263186
0.000422654
0.000576471
0.000731123
0.0009132
0.00109058
0.00119382
0.0011636
1.17325e-06
5.2816e-05
0.000280569
0.000430218
0.000570586
0.000715572
0.000853695
0.0010023
0.00111663
0.0011404
1.07704e-06
4.54254e-05
0.000295335
0.00045693
0.000566415
0.000732203
0.000833065
0.000945099
0.0010485
0.00110074
1.02113e-06
3.77335e-05
0.000304241
0.000506729
0.000585877
0.00071711
0.000849136
0.000926319
0.00100468
0.00106097
1.02197e-06
3.47164e-05
0.000312772
0.000575997
0.000633048
0.000724482
0.00088582
0.00094822
0.000996972
0.00103892
1.03457e-06
3.47943e-05
0.000323368
0.000625863
0.000716438
0.000762193
0.000877978
0.00100587
0.00103081
0.00104974
1.0122e-06
3.62692e-05
0.000297117
0.000652436
0.000838548
0.000836664
0.000904522
0.00104526
0.00110451
0.00110252
8.29598e-07
3.30904e-05
0.000257042
0.000596203
0.000846617
0.000946522
0.000966582
0.00106251
0.00120976
0.00119823
5.23246e-07
2.28038e-05
0.000177759
0.000462842
0.000752988
0.0010257
0.00105707
0.00111383
0.00123957
0.00132135
2.19514e-07
1.07058e-05
8.61494e-05
0.000268941
0.000563812
0.000914521
0.00112258
0.00118702
0.00128571
0.00143857
5.26574e-08
2.80737e-06
2.54336e-05
9.93142e-05
0.000317164
0.000669464
0.00103089
0.00123282
0.00135289
0.00149036
1.78228e-08
1.03236e-06
1.11834e-05
4.05891e-05
0.000126923
0.000361058
0.000716686
0.00110051
0.00138252
0.00156256
2.3338e-08
1.06754e-06
1.07217e-05
3.47809e-05
7.80255e-05
0.000175542
0.000406023
0.000770656
0.00114686
0.00143427
5.99547e-08
1.49757e-06
1.36689e-05
4.26168e-05
8.6526e-05
0.000147433
0.000256631
0.000481494
0.000840562
0.00119004
1.63329e-07
2.2936e-06
1.9507e-05
5.85229e-05
0.000113115
0.000177632
0.000256039
0.000378273
0.000608649
0.000930291
3.76047e-07
3.6325e-06
2.96703e-05
8.29107e-05
0.000149076
0.000224338
0.000309433
0.00040606
0.000541216
0.000765276
6.74246e-07
5.88989e-06
4.61489e-05
0.000112583
0.000184311
0.000270563
0.000375309
0.000487878
0.00060548
0.000747436
9.33495e-07
9.69269e-06
6.80702e-05
0.000137
0.000208086
0.000305244
0.000434829
0.000580423
0.00072247
0.000856416
1.03236e-06
1.55241e-05
8.57768e-05
0.000147166
0.000217045
0.000321497
0.000470771
0.000651454
0.000833672
0.000999501
9.74835e-07
1.98437e-05
9.04343e-05
0.000144981
0.000212087
0.00031625
0.000469902
0.000667254
0.000886541
0.0011022
7.69354e-07
2.14751e-05
8.51583e-05
0.000129918
0.000187386
0.000279818
0.000423182
0.000622484
0.000864296
0.001122
4.82399e-07
1.92783e-05
7.02703e-05
0.000102856
0.000145744
0.000215591
0.000329389
0.000501837
0.000733901
0.00100719
2.02215e-07
1.33005e-05
4.81523e-05
6.84297e-05
9.4795e-05
0.000137723
0.000209756
0.000326234
0.000500188
0.00073313
7.93263e-08
5.66734e-06
2.3402e-05
3.35193e-05
4.61414e-05
6.65896e-05
0.000100189
0.00015548
0.000243603
0.000373938
2.84722e-08
6.38995e-07
4.07365e-06
7.37141e-06
1.2026e-05
1.92298e-05
3.01436e-05
4.65357e-05
7.09016e-05
0.000105904
5.855e-09
3.71815e-08
7.52848e-08
1.16933e-07
3.40515e-07
1.57839e-06
4.73855e-06
9.78474e-06
1.54327e-05
2.07246e-05
3.98669e-05
7.80756e-06
5.76915e-06
4.81669e-06
3.91243e-06
3.02164e-06
2.53404e-06
2.31213e-06
2.17617e-06
1.9923e-06
1.78541e-06
1.58419e-06
1.36229e-06
1.07425e-06
7.44314e-07
4.36759e-07
2.16169e-07
8.96742e-08
3.14694e-08
9.39141e-09
2.32638e-09
6.46159e-10
4.31536e-10
2.24104e-10
5.42194e-11
8.89611e-05
0.000104654
0.000137417
0.000151941
0.000149936
0.000136972
0.000115623
9.33785e-05
7.37546e-05
5.65977e-05
4.14219e-05
2.59793e-05
1.4867e-05
8.50451e-06
4.91848e-06
2.88929e-06
1.69205e-06
9.72212e-07
5.41355e-07
2.88608e-07
1.46745e-07
6.9369e-08
2.46263e-08
2.83744e-09
1.03398e-10
0.000147247
0.000261238
0.000368799
0.00043368
0.000452441
0.000438509
0.00040366
0.000354629
0.000303561
0.00025525
0.000207675
0.000156327
9.63564e-05
5.38042e-05
2.95499e-05
1.65891e-05
9.62455e-06
5.76771e-06
3.53198e-06
2.17598e-06
1.30963e-06
6.9278e-07
2.13326e-07
1.64026e-08
2.33204e-10
0.000207604
0.000359931
0.000456862
0.000526783
0.00055766
0.000547967
0.000514886
0.000468722
0.000420604
0.000374031
0.00032755
0.000275182
0.000209323
0.000130633
7.37474e-05
4.09935e-05
2.34022e-05
1.38714e-05
8.57207e-06
5.44766e-06
3.43374e-06
1.84116e-06
5.13895e-07
3.72888e-08
1.77658e-09
0.000269261
0.000426619
0.000562893
0.000593913
0.000598519
0.000576397
0.000538529
0.000488428
0.000440932
0.000401093
0.000363855
0.000321703
0.000266977
0.000192113
0.000115642
6.58322e-05
3.76539e-05
2.2191e-05
1.37416e-05
8.81332e-06
5.58067e-06
2.88041e-06
7.35075e-07
5.34619e-08
5.58963e-09
0.000332856
0.000485497
0.000648013
0.000670308
0.000656866
0.000613574
0.00055927
0.000501022
0.000451188
0.000414176
0.000382778
0.000348601
0.000305043
0.000247521
0.000176405
0.000110228
6.38952e-05
3.51225e-05
2.09778e-05
1.30454e-05
7.91333e-06
3.74815e-06
8.64486e-07
6.33909e-08
1.08225e-08
0.000399792
0.000540836
0.000721221
0.000774984
0.000734572
0.000670911
0.000597719
0.000526411
0.000471766
0.000436472
0.000411328
0.000387254
0.000358233
0.00032026
0.000270647
0.000207516
0.000140657
8.65032e-05
4.96485e-05
2.69111e-05
1.39549e-05
5.53936e-06
1.11632e-06
7.95493e-08
1.58961e-08
0.000471576
0.000591888
0.000786042
0.000882456
0.000829012
0.00074926
0.000656235
0.000567558
0.000502826
0.000465414
0.000444163
0.000428559
0.000412191
0.000390995
0.000362
0.000322645
0.000270002
0.000203252
0.000136411
8.06359e-05
3.78427e-05
1.21213e-05
2.08971e-06
1.35753e-07
2.08005e-08
0.000549475
0.000639209
0.000838464
0.000978665
0.000960503
0.000848559
0.000733533
0.00062484
0.000543988
0.000497892
0.000474091
0.00046031
0.00044929
0.000436501
0.000418874
0.000393923
0.000359472
0.000313157
0.00025128
0.000173755
9.88547e-05
3.29169e-05
5.2674e-06
3.16823e-07
2.80835e-08
0.000634097
0.000684417
0.000876041
0.00105208
0.00109071
0.000979661
0.000835156
0.000703887
0.000600261
0.000537439
0.000503932
0.000484964
0.000471557
0.000458801
0.000443635
0.000423013
0.00039497
0.000357461
0.000308847
0.000247873
0.000168432
7.64187e-05
1.30303e-05
7.79609e-07
4.25668e-08
0.000724556
0.00073002
0.000900275
0.0010986
0.00119456
0.00113009
0.000983872
0.000828647
0.000692857
0.000601099
0.000549719
0.000521591
0.000502063
0.000484373
0.000466001
0.000442361
0.000412392
0.000374265
0.000326555
0.00026889
0.000200936
0.000116661
2.81578e-05
1.69353e-06
6.61987e-08
0.000817275
0.000778292
0.000914771
0.00111826
0.00126091
0.00126056
0.00112739
0.000976502
0.000834411
0.000722173
0.000648456
0.000602094
0.000574134
0.000551807
0.000526028
0.0004928
0.000452402
0.000404555
0.000347432
0.000282659
0.000210427
0.000131978
4.74614e-05
3.23383e-06
1.01492e-07
0.000906871
0.000830719
0.000924436
0.00111554
0.00128918
0.00135055
0.00127322
0.00112015
0.00098291
0.000871315
0.000794747
0.000745995
0.000709097
0.00068005
0.000650076
0.000608982
0.000552445
0.000482154
0.000402991
0.000317949
0.000230886
0.000144199
6.30958e-05
6.20717e-06
1.48648e-07
0.00098505
0.000886601
0.000934643
0.00109766
0.00128366
0.00139618
0.00138523
0.0012714
0.00112637
0.001022
0.000954893
0.000919957
0.00089916
0.000872613
0.000841822
0.000794944
0.000723755
0.000628941
0.00051678
0.000395261
0.000275555
0.000166963
7.56267e-05
1.08789e-05
2.00576e-07
0.00104309
0.000941912
0.000949371
0.00107328
0.0012523
0.00139956
0.00145091
0.00139629
0.00127979
0.00116851
0.00110522
0.00108853
0.00109672
0.00110315
0.00108249
0.00104413
0.000970679
0.000856603
0.000705976
0.000533181
0.000359441
0.0002077
9.18317e-05
1.66498e-05
2.56519e-07
0.00107527
0.000990084
0.000969514
0.00105058
0.00120563
0.00136739
0.00146903
0.00147838
0.00141068
0.00131585
0.00124667
0.00123146
0.00126357
0.00130833
0.0013324
0.00131349
0.00125608
0.00114239
0.00096762
0.000742864
0.000497951
0.000277078
0.000117609
2.40485e-05
2.8815e-07
0.00108196
0.00102446
0.000992322
0.00103517
0.00115508
0.00131056
0.00144346
0.0015101
0.00150149
0.00144398
0.0013823
0.00135662
0.00138397
0.00145081
0.00152512
0.00155411
0.00153394
0.00144524
0.00127196
0.00101282
0.000695591
0.000383144
0.000156497
3.42882e-05
5.42097e-07
0.00107111
0.00104241
0.00101293
0.00102862
0.0011105
0.00124281
0.00138446
0.00149187
0.0015402
0.00153339
0.00149896
0.00147321
0.00148517
0.00154308
0.00163211
0.0017198
0.00175529
0.00171555
0.00157505
0.00131227
0.000937448
0.000524949
0.000209205
4.7718e-05
1.18809e-06
0.00105751
0.00104855
0.00102829
0.0010292
0.00107789
0.00117773
0.0013075
0.00143315
0.00152471
0.00156966
0.00157675
0.00156993
0.00157687
0.00161696
0.00169291
0.00178928
0.00187432
0.0019034
0.00182626
0.00160172
0.00119989
0.000690775
0.00027313
6.37956e-05
2.34577e-06
0.00105939
0.00105529
0.00104135
0.0010353
0.00105927
0.00112567
0.00122958
0.00135102
0.00146434
0.00154973
0.00160119
0.00162767
0.00164782
0.0016813
0.00174005
0.00182295
0.0019145
0.00198327
0.00197738
0.00183602
0.00145622
0.000867027
0.00034295
8.32348e-05
5.76616e-06
0.0010937
0.00108002
0.00106279
0.00104998
0.00105566
0.00109267
0.00116512
0.00126562
0.00137795
0.00148368
0.00156959
0.00163247
0.00167932
0.00172304
0.00177571
0.00184343
0.00187462
0.00188017
0.00187436
0.00187431
0.00167883
0.00104847
0.000419866
0.000108445
1.58309e-05
0.00117136
0.00113976
0.00110864
0.0010832
0.00107153
0.001083
0.00112411
0.00119498
0.00128856
0.00139264
0.00149414
0.00158379
0.00165902
0.00172342
0.00170604
0.00170778
0.00173423
0.00174102
0.00170186
0.00164722
0.00159714
0.00126574
0.000542711
0.000154142
3.18264e-05
0.00128784
0.00124042
0.00119067
0.0011465
0.00111466
0.00110185
0.00111378
0.00115329
0.00121889
0.00130463
0.00140149
0.00150002
0.00159305
0.00167685
0.00160328
0.00156493
0.00157267
0.00158793
0.00157216
0.00151549
0.00145235
0.00130584
0.000872965
0.000384709
0.000126473
0.00143185
0.00138052
0.00131635
0.0012521
0.00119704
0.00115812
0.00114061
0.00114793
0.00118107
0.00123821
0.00131472
0.00140401
0.00149886
0.00159245
0.00158532
0.00148971
0.00145399
0.00145385
0.00145768
0.00144346
0.00141541
0.00137199
0.00124143
0.0010068
0.000859075
0.00156985
0.00153745
0.00147493
0.00139954
0.00132472
0.00126037
0.00121331
0.00118821
0.00118699
0.00121029
0.00125649
0.00132219
0.00140234
0.00149088
0.00158006
0.00152129
0.00142211
0.00137696
0.0013641
0.00136154
0.00135835
0.00136347
0.00135961
0.00126458
0.00116214
0.00165005
0.00166659
0.00163274
0.00156751
0.00148763
0.00140679
0.00133518
0.0012799
0.00124524
0.00123326
0.00124446
0.00127767
0.00133055
0.00139915
0.0014779
0.00155948
0.00151823
0.00140576
0.00134291
0.001314
0.00130257
0.00130101
0.00130785
0.0013311
0.0013913
0.00161578
0.00171182
0.00173865
0.00171365
0.0016544
0.00157706
0.00149525
0.00141943
0.00135714
0.00131292
0.00128943
0.00128761
0.00130608
0.00134401
0.00139835
0.00146428
0.00153592
0.00158034
0.00144291
0.00136008
0.00131374
0.00128862
0.00127924
0.00128888
0.00132785
0.00145803
0.0016429
0.00175068
0.00179225
0.00178178
0.00173461
0.00166557
0.00158761
0.00151135
0.00144449
0.00139212
0.00135753
0.00134179
0.00134605
0.0013673
0.00140496
0.00145547
0.00151457
0.001577
0.00155898
0.00144922
0.00137873
0.00133662
0.00131738
0.00132099
0.00123271
0.00148155
0.00166466
0.00178077
0.00183638
0.00184188
0.00180977
0.00175278
0.00168271
0.00160966
0.00154127
0.00148329
0.00143912
0.00141129
0.00139958
0.00140549
0.00142501
0.00145785
0.00150099
0.0015509
0.00160407
0.00164787
0.00154204
0.00147257
0.00143253
0.00103384
0.00129539
0.00152101
0.00169549
0.00181429
0.00188031
0.00190034
0.00188346
0.00183994
0.00178032
0.00171358
0.00164719
0.00158662
0.00153603
0.00149764
0.00147303
0.00146169
0.00146497
0.0014795
0.00150401
0.00153739
0.0015773
0.00162111
0.0016674
0.00171501
0.000941143
0.00116427
0.00138696
0.00158549
0.0017455
0.00186127
0.00193256
0.00195561
0.00192433
0.00191312
0.0018783
0.00182029
0.001759
0.00169984
0.00164669
0.00160178
0.00156668
0.00154107
0.00152825
0.00152605
0.00153315
0.00154772
0.00156987
0.00159841
0.00163199
0.000987282
0.00114637
0.00132777
0.0015121
0.00168099
0.00182125
0.00189899
0.00184509
0.00179057
0.00174823
0.00172089
0.00171022
0.00171748
0.00174821
0.00180497
0.00176341
0.0017179
0.00167772
0.0016449
0.0016194
0.00160193
0.00159318
0.00159219
0.00159758
0.00160771
0.0011303
0.00124873
0.00137993
0.00152467
0.00167203
0.001808
0.00189099
0.0018368
0.00176912
0.00170491
0.00165048
0.00160951
0.00158321
0.0015732
0.00157996
0.00160443
0.00164638
0.00171036
0.00179583
0.00176248
0.00173273
0.00170797
0.00168729
0.00167316
0.00166428
0.00128559
0.00141581
0.00152159
0.0016285
0.00174186
0.00185438
0.00195571
0.00191671
0.00184473
0.00176799
0.00169388
0.00162837
0.0015751
0.00153565
0.00151023
0.00149971
0.00150481
0.001524
0.00156195
0.00161948
0.0017056
0.00182842
0.00182921
0.00180707
0.00178779
0.00135803
0.00154038
0.00166872
0.00176812
0.00186012
0.00194921
0.0020317
0.0020455
0.00197349
0.00189048
0.00180672
0.00172629
0.00165427
0.00159378
0.00154567
0.00151013
0.00148813
0.0014792
0.00148321
0.00150213
0.00153711
0.00159121
0.00166191
0.00176017
0.001887
0.00128505
0.00152163
0.00170623
0.00183669
0.00193554
0.00202014
0.00209549
0.00215929
0.002128
0.00204557
0.00195823
0.00186958
0.00178443
0.00170808
0.00164345
0.00159029
0.00154944
0.00152132
0.00150513
0.00150084
0.00150843
0.00152864
0.00156221
0.00161019
0.00167446
0.00100497
0.00126935
0.0015052
0.00169483
0.00182547
0.00192746
0.00201357
0.00208678
0.00214602
0.00219099
0.00211913
0.0020348
0.00194867
0.00186704
0.00179197
0.00172553
0.00167066
0.00162885
0.00159956
0.00158166
0.0015743
0.00157735
0.00159082
0.00161466
0.00164929
0.000548319
0.000748464
0.000962967
0.00117127
0.00134815
0.00146846
0.00156651
0.00165298
0.00172906
0.00179447
0.00184844
0.00189254
0.00192783
0.00194597
0.00188247
0.00181509
0.00175847
0.00171559
0.00168477
0.00166285
0.00164807
0.00164186
0.00164407
0.0016544
0.00167192
0.000153761
0.000213365
0.000286585
0.000371861
0.000466459
0.000554941
0.000615573
0.000671857
0.000725338
0.000775812
0.000822947
0.000866693
0.000906775
0.000942376
0.000970982
0.000994082
0.00101351
0.00102708
0.00103682
0.00104293
0.00104533
0.00104405
0.00103951
0.00103208
0.00102211
2.53996e-05
2.92923e-05
3.26492e-05
3.55812e-05
3.82263e-05
4.07766e-05
4.3427e-05
4.57431e-05
4.77443e-05
4.94397e-05
5.0849e-05
5.19911e-05
5.28674e-05
5.34123e-05
5.33197e-05
5.25586e-05
5.17471e-05
5.08918e-05
5.13159e-05
5.41939e-05
5.74202e-05
6.07165e-05
6.38268e-05
6.67442e-05
6.94629e-05
4.32851e-05
2.39796e-05
1.44211e-05
0.000574803
0.000375933
0.000225443
0.00119837
0.00123427
0.0011
0.00146646
0.00151467
0.0015548
0.00139538
0.00148145
0.00157633
0.00134501
0.00138942
0.00144895
0.00141386
0.00141514
0.00142924
0.00167404
0.00162565
0.00159207
0.00166523
0.00170055
0.00173816
0.00162152
0.00163944
0.00166131
0.00166024
0.00166059
0.00166425
0.00177198
0.00175888
0.00174965
0.00191576
0.00190207
0.00188897
0.00174997
0.00182999
0.00192745
0.00169371
0.00174238
0.00179902
0.00169528
0.00172123
0.00175167
0.0010113
0.000998971
0.000985154
7.17593e-05
7.38221e-05
7.57079e-05
4.21932e-11
4.67036e-10
3.17405e-09
1.30053e-08
3.41621e-08
6.76144e-08
1.10721e-07
1.58909e-07
2.07655e-07
2.5365e-07
2.92977e-07
3.22444e-07
3.40139e-07
3.45138e-07
3.38636e-07
3.21355e-07
2.95048e-07
2.62047e-07
2.24149e-07
1.84875e-07
1.47068e-07
1.12701e-07
8.311e-08
5.90131e-08
4.03974e-08
2.6703e-08
1.70952e-08
1.06426e-08
6.48705e-09
3.92857e-09
2.43726e-09
1.65044e-09
1.35025e-09
1.52701e-09
2.43135e-09
4.65616e-09
9.01091e-09
1.59675e-08
2.51853e-08
3.57524e-08
4.63485e-08
5.64329e-08
6.67308e-08
7.90067e-08
9.08916e-08
1.00213e-07
1.09367e-07
1.11422e-07
1.05624e-07
1.18892e-07
3.75489e-07
1.0384e-06
2.36155e-06
4.4489e-06
7.12844e-06
9.99609e-06
1.26691e-05
1.49025e-05
1.65574e-05
1.75593e-05
1.79444e-05
1.78193e-05
1.73098e-05
1.65036e-05
1.54568e-05
1.42194e-05
1.28245e-05
1.12937e-05
9.64893e-06
7.97158e-06
6.25057e-06
4.57002e-06
3.03144e-06
2.1666e-06
1.457e-06
8.90793e-07
5.29528e-07
2.41075e-07
6.81823e-08
7.24611e-09
1.91942e-10
2.14999e-08
2.32794e-07
8.26565e-07
1.80441e-06
2.99899e-06
4.18625e-06
5.18915e-06
5.91742e-06
6.33432e-06
6.44076e-06
6.27356e-06
5.88334e-06
5.3153e-06
4.54001e-06
3.76441e-06
3.12468e-06
2.58683e-06
2.12735e-06
1.74046e-06
1.41133e-06
1.13277e-06
9.0006e-07
7.08398e-07
5.52313e-07
4.2694e-07
3.27684e-07
2.5012e-07
1.90532e-07
1.45765e-07
1.13194e-07
9.09195e-08
7.83728e-08
7.85e-08
1.04488e-07
1.69369e-07
2.85272e-07
4.40758e-07
5.96882e-07
7.17125e-07
7.97522e-07
8.94056e-07
1.06614e-06
1.45116e-06
1.98997e-06
2.68486e-06
3.54635e-06
4.6644e-06
6.09581e-06
7.9182e-06
1.02572e-05
1.3176e-05
1.67753e-05
2.11818e-05
2.65594e-05
3.31825e-05
4.14281e-05
5.16858e-05
6.44953e-05
8.02764e-05
9.8533e-05
0.000116823
0.000130734
0.000140292
0.000148277
0.000154313
0.000157625
0.000158041
0.000154953
0.000147747
0.000136034
0.000119812
9.92522e-05
7.45359e-05
4.45062e-05
1.51617e-05
4.53669e-06
1.40285e-06
2.59815e-07
2.46686e-08
7.82516e-10
8.4727e-08
1.29649e-06
5.93523e-06
1.48009e-05
2.66843e-05
3.96523e-05
5.19048e-05
6.21566e-05
6.96915e-05
7.42268e-05
7.58252e-05
7.47711e-05
7.14034e-05
6.581e-05
5.75288e-05
4.8048e-05
3.91934e-05
3.13817e-05
2.48453e-05
1.95207e-05
1.52668e-05
1.19077e-05
9.27086e-06
7.21818e-06
5.63e-06
4.40032e-06
3.44845e-06
2.71576e-06
2.1588e-06
1.74665e-06
1.46105e-06
1.30053e-06
1.29175e-06
1.60409e-06
2.48717e-06
4.11181e-06
6.28541e-06
8.4378e-06
1.01032e-05
1.13105e-05
1.32719e-05
1.51987e-05
1.71036e-05
1.88173e-05
2.02716e-05
2.18217e-05
2.41167e-05
2.75026e-05
3.22994e-05
3.89299e-05
4.80397e-05
6.07505e-05
7.81665e-05
0.000101663
0.000132654
0.000171606
0.000217431
0.000266408
0.000312253
0.000348411
0.000370601
0.00037918
0.000381954
0.000379711
0.000372438
0.000360073
0.000342652
0.000320297
0.000288636
0.0002441
0.000209298
0.000181499
0.000156785
0.000115854
7.02118e-05
2.29326e-05
4.43361e-06
4.48482e-07
5.03378e-08
2.78241e-09
1.8245e-07
2.78105e-06
1.32414e-05
3.50547e-05
6.75397e-05
0.000107255
0.000149489
0.000189518
0.000223569
0.000249276
0.000265658
0.000272814
0.000271432
0.000262198
0.000245082
0.000218131
0.000186326
0.000153846
0.000123653
9.73847e-05
7.56776e-05
5.83411e-05
4.47689e-05
3.43078e-05
2.63733e-05
2.04122e-05
1.59481e-05
1.26126e-05
1.01365e-05
8.33553e-06
7.10497e-06
6.44186e-06
6.52902e-06
7.88287e-06
1.20035e-05
1.95501e-05
2.8868e-05
3.69106e-05
4.29231e-05
4.60292e-05
4.4428e-05
4.24897e-05
4.1603e-05
4.24985e-05
4.44998e-05
4.82108e-05
5.44347e-05
6.40038e-05
7.8007e-05
9.79367e-05
0.000125584
0.000162813
0.000211248
0.000271148
0.00033943
0.000409695
0.000473724
0.000524574
0.000559325
0.000578873
0.000585751
0.000582514
0.000571947
0.000554368
0.000529982
0.000499131
0.000462373
0.000420539
0.000374785
0.000326633
0.000277862
0.000230066
0.000184053
0.000139551
9.53184e-05
5.0508e-05
1.17256e-05
8.04819e-07
6.21023e-08
7.76224e-09
3.4505e-07
5.03338e-06
2.35055e-05
6.24999e-05
0.00012214
0.000196856
0.000277664
0.00035519
0.000422153
0.000474337
0.000510275
0.000530358
0.000535905
0.000528381
0.000508678
0.000476326
0.000428852
0.00037316
0.000314181
0.000256782
0.000204908
0.000160516
0.000123995
9.49975e-05
7.26043e-05
5.56953e-05
4.31015e-05
3.38068e-05
2.7012e-05
2.21401e-05
1.88457e-05
1.71088e-05
1.75465e-05
2.18775e-05
3.28746e-05
5.05133e-05
6.76255e-05
7.88793e-05
8.00367e-05
7.53026e-05
7.00882e-05
6.74413e-05
6.69431e-05
6.93729e-05
7.52507e-05
8.56227e-05
0.000101913
0.000125921
0.000159859
0.000206068
0.000266397
0.000341231
0.000428365
0.000521341
0.000610942
0.000688629
0.000749512
0.000793057
0.000821124
0.000835894
0.000836637
0.000827325
0.0008083
0.000779441
0.000740701
0.000692291
0.000634837
0.000569562
0.000498414
0.000424131
0.000350114
0.000279804
0.000215711
0.000158629
0.000107643
6.18388e-05
2.25715e-05
1.82058e-06
7.36921e-08
1.83118e-08
6.19631e-07
8.79658e-06
4.05926e-05
0.000107409
0.000207595
0.000327627
0.000449426
0.000558285
0.000646122
0.000710549
0.000752595
0.000774773
0.00077988
0.000770325
0.000747692
0.000712279
0.000662337
0.000599205
0.000527034
0.000450271
0.000373991
0.000302757
0.000239768
0.000186731
0.000143962
0.000110636
8.53127e-05
6.64552e-05
5.26533e-05
4.27921e-05
3.62015e-05
3.30107e-05
3.50463e-05
4.65675e-05
6.91467e-05
9.41909e-05
0.000110754
0.000112707
0.000106484
9.90588e-05
9.36793e-05
9.18565e-05
9.43922e-05
0.000102448
0.000117354
0.000140989
0.000175775
0.00022448
0.000289548
0.000372159
0.000471123
0.000581914
0.000696574
0.00080548
0.000900967
0.000979439
0.00104082
0.00108654
0.00111783
0.00113515
0.00113683
0.00112671
0.00110469
0.00107009
0.00102215
0.000960282
0.000884304
0.000794821
0.000693732
0.000584808
0.000473826
0.000367603
0.000272144
0.00019105
0.000124636
7.10704e-05
2.96039e-05
3.5015e-06
9.30321e-08
3.73299e-08
1.07763e-06
1.52306e-05
6.99747e-05
0.000181824
0.000338224
0.000507369
0.000660356
0.000782571
0.000871198
0.000929403
0.000962245
0.000974669
0.000970754
0.000953517
0.000924871
0.000885554
0.000834998
0.000771375
0.000697277
0.000615196
0.000528819
0.000442658
0.000361246
0.000288325
0.000226238
0.00017569
0.000136024
0.000105823
8.34333e-05
6.74079e-05
5.70086e-05
5.31862e-05
6.01093e-05
8.22822e-05
0.0001125
0.000136749
0.000143666
0.000138001
0.000128498
0.000120299
0.000116298
0.000118267
0.000127666
0.000146295
0.000176384
0.000220719
0.00028226
0.000363294
0.000464435
0.000583112
0.00071324
0.000846369
0.00097369
0.00108827
0.0011866
0.00126836
0.00133454
0.00138598
0.00142275
0.00144429
0.00145029
0.00144418
0.00142563
0.00139329
0.00134541
0.0012801
0.00119568
0.00109114
0.000966628
0.000824559
0.000671301
0.000517212
0.000374303
0.000252489
0.000156505
8.53953e-05
3.57604e-05
5.92971e-06
1.19267e-07
6.62961e-08
1.83642e-06
2.63396e-05
0.000119524
0.000296091
0.000514099
0.000718846
0.000880439
0.000994212
0.00106652
0.00110626
0.00112146
0.00111836
0.00110146
0.00107385
0.00103742
0.00099299
0.000940336
0.000878129
0.000805942
0.000725199
0.000638025
0.000547727
0.000458464
0.000374566
0.000299678
0.000236056
0.000184348
0.000143923
0.000113474
9.17736e-05
7.87836e-05
7.74357e-05
9.31953e-05
0.000123481
0.000155411
0.000170585
0.000168894
0.000158587
0.00014741
0.000140342
0.000140364
0.000149606
0.000170162
0.000204526
0.000255589
0.000326298
0.000418795
0.000533021
0.000665635
0.000810059
0.000957935
0.00110109
0.0012329
0.00134931
0.00144925
0.00153337
0.00160253
0.00165709
0.00169693
0.00172062
0.00173191
0.00173317
0.00172407
0.00170301
0.00166738
0.00161366
0.00153769
0.0014354
0.00130355
0.00114117
0.000951697
0.000746335
0.000542532
0.00035984
0.000214385
0.000111054
4.50196e-05
8.92031e-06
1.30396e-07
1.03096e-07
3.09287e-06
4.51979e-05
0.000197249
0.000448607
0.000712514
0.000927422
0.00107541
0.0011667
0.00121514
0.0012329
0.0012291
0.00121003
0.00117993
0.00114158
0.0010968
0.00104634
0.00099028
0.000928088
0.000858332
0.000780842
0.000696636
0.000607949
0.000518029
0.000430857
0.00035041
0.000279805
0.000220746
0.000173541
0.000137669
0.000112866
0.000100881
0.000106511
0.000130979
0.000166323
0.000190589
0.000196589
0.000188624
0.000175375
0.000164506
0.000160993
0.00016799
0.000188024
0.000223708
0.000277929
0.000353511
0.00045238
0.00057427
0.000715627
0.000869796
0.00102854
0.00118386
0.00132917
0.00145987
0.00157386
0.00167106
0.00175226
0.00181825
0.0018696
0.00190678
0.00192928
0.00194334
0.00195101
0.00195254
0.0019469
0.00193167
0.00190268
0.00185396
0.00177789
0.00166594
0.0015098
0.00130602
0.00106092
0.000793867
0.000533721
0.000313804
0.000156315
6.07989e-05
1.32004e-05
3.06967e-07
1.42344e-07
5.20151e-06
7.54608e-05
0.000302132
0.000613374
0.000895081
0.00109936
0.00122653
0.00129399
0.0013198
0.00131784
0.00129747
0.00126464
0.00122304
0.0011751
0.00112211
0.00106467
0.00100308
0.000937565
0.000867793
0.000793105
0.000712554
0.000627909
0.000541165
0.000455567
0.000374911
0.000302686
0.000241216
0.000191576
0.000154293
0.000130788
0.000124888
0.000139873
0.000171803
0.000202415
0.00021812
0.000216509
0.00020393
0.000189611
0.000181217
0.000183724
0.000200451
0.000234203
0.000287785
0.000363826
0.000464157
0.000588571
0.000733747
0.000893261
0.00105899
0.00122295
0.0013784
0.00152023
0.0016453
0.00175243
0.00184187
0.00191446
0.00197122
0.00201334
0.00204223
0.0020599
0.00207219
0.00208181
0.00209013
0.00209731
0.00210209
0.00210119
0.00208894
0.00205643
0.00199104
0.00187739
0.00169979
0.00144956
0.00113613
0.000794195
0.000475689
0.000233733
8.7541e-05
1.9667e-05
1.32077e-06
1.80295e-07
8.75455e-06
0.000114477
0.00040289
0.000757701
0.00104858
0.00123974
0.00134548
0.00139085
0.00139713
0.00137902
0.00134565
0.00130233
0.00125201
0.00119631
0.00113597
0.00107133
0.00100246
0.000930012
0.000855063
0.00077862
0.000700653
0.000620264
0.000538334
0.000456986
0.000379144
0.00030868
0.000248405
0.000200146
0.000165776
0.000148832
0.000152996
0.000176473
0.000207764
0.000231644
0.000239245
0.00023139
0.000215913
0.000202439
0.000198595
0.000209312
0.000237927
0.000287082
0.000359398
0.00045658
0.000578695
0.000722985
0.000883603
0.00105269
0.00122218
0.00138506
0.00153587
0.00167063
0.00178705
0.0018844
0.00196302
0.00202388
0.00206833
0.0020982
0.00211575
0.00212483
0.0021308
0.00213714
0.00214637
0.00216006
0.00217842
0.00219985
0.0022199
0.00223064
0.00221958
0.00216892
0.00205554
0.00185422
0.00154823
0.00115088
0.000723958
0.000362612
0.000132892
2.95324e-05
3.8828e-06
2.16398e-07
1.29825e-05
0.000153072