/*--------------------------------*- C++ -*----------------------------------*\
| =========                 |                                                 |
| \\      /  F ield         | OpenFOAM: The Open Source CFD Toolbox           |
|  \\    /   O peration     | Version:  v2012                                 |
|   \\  /    A nd           | Website:  www.openfoam.com                      |
|    \\/     M anipulation  |                                                 |
\*---------------------------------------------------------------------------*/
FoamFile
{
    version     2.0;
    format      ascii;
    class       volScalarField;
    location    "399";
    object      omega;
}
// * * * * * * * * * * * * * * * * * * * * * * * * * * * * * * * * * * * * * //

dimensions      [0 0 -1 0 0 0 0];


internalField   nonuniform List<scalar> 
6508
(
254.959
65.1628
55.3803
54.612
54.5635
54.5635
54.6119
55.3798
65.1599
254.959
240.156
67.8691
51.9905
50.1658
49.9305
49.9304
50.1653
51.9881
67.8597
240.157
229.602
68.3994
49.2562
46.4789
46.0431
46.0429
46.4775
49.2502
68.3802
229.605
221.847
67.824
46.9297
43.3781
42.7448
42.7443
43.3751
46.9175
67.788
221.853
216.007
66.7148
44.8839
40.7339
39.9172
39.9161
40.7282
44.8628
66.6556
216.018
211.514
65.3576
43.0492
38.4497
37.47
37.4679
38.4398
43.0152
65.2663
211.533
207.99
63.9172
41.3856
36.4535
35.3333
35.3297
36.4375
41.3333
63.7801
208.021
205.179
62.4931
39.8664
34.6915
33.4528
33.4468
34.6666
39.7894
62.2888
205.224
202.898
61.1416
38.4767
33.124
31.7857
31.776
33.0856
38.3632
60.8388
202.964
201.018
59.8976
37.2092
31.721
30.2984
30.2832
31.6626
37.0393
59.4488
201.113
199.445
58.7873
36.0579
30.459
28.964
28.9408
30.372
35.8056
58.1194
199.58
198.107
57.8306
35.0193
29.3207
27.7611
27.7264
29.1926
34.6486
56.8409
198.299
196.949
57.0464
34.093
28.2932
26.6726
26.623
28.1046
33.5527
55.5897
197.22
195.928
56.4594
33.2829
27.3677
25.685
25.616
27.0919
32.5
54.3276
196.31
195.008
56.1038
32.5979
26.5392
24.7882
24.6934
26.1487
31.4614
52.9991
195.545
194.158
56.0261
32.054
25.807
23.9749
23.8459
25.2685
30.4259
51.5168
194.911
193.349
56.2882
31.6762
25.175
23.2409
23.0662
24.4431
29.433
49.7735
194.406
192.553
56.9684
31.5006
24.653
22.5852
22.3491
23.6658
28.4766
48.1774
194.045
191.74
58.1549
31.5756
24.258
22.0109
21.692
22.9307
27.5446
46.6331
193.849
190.879
59.9341
31.9632
24.0158
21.5256
21.0944
22.2331
26.6219
45.0453
193.806
189.922
62.3044
32.7479
23.9634
21.1371
20.5506
21.5552
25.6551
42.3881
142.778
188.857
65.1427
33.9877
24.1513
20.8737
20.0752
20.9112
24.6621
39.0961
107.656
187.689
68.4166
35.7136
24.6271
20.7621
19.6825
20.31
23.6298
35.5152
84.1479
186.446
72.1653
37.9177
25.4323
20.8377
19.3926
19.76
22.5624
32.1943
67.4382
185.181
75.7522
40.4889
26.5835
21.1373
19.2285
19.2801
21.539
29.2374
55.0702
183.991
78.5009
43.2419
28.0574
21.6896
19.2202
18.8932
20.6129
26.6732
45.7012
183.01
80.0795
46.0083
29.8033
22.5053
19.398
18.6242
19.8133
24.4966
38.5082
182.325
80.2347
48.4742
31.7319
23.5751
19.7858
18.5037
19.157
22.6812
32.9544
181.932
78.8079
50.4652
33.7631
24.8779
20.3981
18.56
18.6653
21.1979
28.6655
181.741
75.5768
51.7636
35.7743
26.3756
21.2382
18.8164
18.36
20.0261
25.3656
181.724
70.1658
52.0949
37.5977
28.005
22.2948
19.2882
18.2608
19.1521
22.8536
181.724
62.6119
51.2105
39.0352
29.6745
23.5389
19.9797
18.384
18.5676
20.9835
181.718
53.7872
49.0034
39.8813
31.2681
24.9232
20.8825
18.739
18.2686
19.6491
181.702
44.0901
45.2855
39.8975
32.6385
26.3815
21.9745
19.3268
18.2517
18.7744
181.693
37.1334
40.2225
38.8644
33.5911
27.8185
23.2179
20.1379
18.5119
18.3046
181.687
34.5484
34.0783
36.5776
33.8701
29.0818
24.5487
21.1493
19.0388
18.201
181.677
33.7494
27.4944
32.9378
33.18
29.9418
25.8529
22.3156
19.8126
18.4326
181.672
33.6067
21.4989
28.1783
31.2674
30.1074
26.9363
23.5471
20.7948
18.9685
181.672
32.6601
17.7226
22.9705
28.0958
29.2792
27.528
24.6818
21.9102
19.7674
181.673
30.9693
14.7461
17.9583
23.9817
27.2884
27.3397
25.476
23.0177
20.7582
181.671
29.7779
13.1302
14.3164
19.8483
24.3549
26.1981
25.6698
23.9027
21.8129
181.653
28.944
12.284
11.9905
16.5284
21.0459
24.1557
25.0714
24.3101
22.7252
181.622
28.7053
11.9955
10.749
13.8967
17.9758
21.5327
23.6449
24.0289
23.2194
181.592
29.2572
12.4488
10.2666
11.8723
15.1454
18.6308
21.4274
22.8977
23.0463
181.576
31.0203
13.9754
10.6898
10.5174
12.6815
15.6983
18.6138
20.8343
21.9596
181.572
33.3705
16.4545
12.1134
10.4747
10.7263
12.748
15.5836
18.0609
19.9005
181.573
37.3098
19.4307
13.6634
11.0499
9.98271
10.457
12.5029
15.0022
17.1804
181.577
41.0828
21.274
14.3361
11.2208
9.71642
9.1728
9.91964
11.9782
14.2056
181.587
43.5063
21.4942
13.967
10.8728
9.37807
8.556
8.41419
9.46786
11.3662
181.608
43.7378
20.0744
12.9408
10.4017
9.12612
8.25688
7.74344
7.88091
9.09582
181.637
41.1239
17.5982
11.9786
10.2759
9.19238
8.25487
7.54919
7.25368
7.70048
181.663
36.1388
15.2865
11.7244
10.7102
9.637
8.55268
7.66741
7.13018
7.07537
181.673
30.9246
14.4134
12.3373
11.6287
10.4551
9.20291
8.1198
7.38721
7.05343
181.667
29.5912
14.9498
13.5549
12.9146
11.704
10.3225
9.0497
8.08936
7.49783
181.647
28.9604
15.8898
15.2245
14.7608
13.6546
12.1315
10.5794
9.31319
8.44227
181.618
28.9207
17.1212
17.4016
17.5072
16.7118
15.1315
13.2143
11.4577
10.1306
181.591
29.4912
18.5776
20.2919
21.6068
21.6206
20.2763
18.0546
15.611
13.4707
181.578
31.0014
20.4418
24.4172
28.1418
29.8876
29.5744
27.5172
24.4076
21.1178
181.573
39.8478
26.9599
33.7202
41.0547
46.2543
48.7001
48.3295
45.6756
41.8242
181.571
121.55
121.552
121.555
121.57
121.652
121.862
122.198
122.576
122.931
114.559
112.571
112.446
112.387
112.332
112.277
112.247
112.234
112.225
112.214
112.201
112.189
112.175
112.158
112.138
112.119
112.105
112.098
112.094
112.093
112.092
112.092
112.092
112.092
156.639
80.5346
26.0947
18.5605
16.6702
15.882
15.4932
15.386
15.5409
15.9049
16.4765
17.3507
19.7943
23.3065
26.4472
28.6648
29.5215
29.1669
27.8863
26.0655
24.1742
22.5322
21.4454
22.6577
39.0388
201.186
69.5818
26.2702
13.2879
9.66348
8.08785
7.18449
6.61521
6.26363
6.1103
6.10317
6.25206
6.73878
8.21456
10.2802
12.3301
13.8511
14.6032
14.5603
13.8428
12.6891
11.4165
10.746
13.6058
34.3895
201.186
62.6146
33.857
17.0458
10.947
8.11648
6.60898
5.70979
5.17911
4.8722
4.67685
4.56356
4.56884
4.84095
5.74909
7.02075
8.26024
9.15265
9.55622
9.43077
8.88261
8.16643
8.0888
11.8276
33.689
201.186
56.5745
38.8478
21.2158
13.2653
9.40805
7.23398
5.95695
5.27803
4.94322
4.7416
4.57901
4.44166
4.37945
4.54992
5.15222
5.92835
6.61323
7.03514
7.10538
6.86664
6.54117
6.95868
11.3016
33.6021
201.187
50.8075
41.03
25.9548
16.0609
11.0251
8.14835
6.55056
5.72461
5.38679
5.23837
5.12676
5.00153
4.86384
4.75469
4.75795
4.98431
5.32252
5.61252
5.69881
5.58651
5.52422
6.35819
11.2071
33.7851
201.187
45.2636
41.0709
30.2266
19.4217
13.0683
9.3493
7.2977
6.33823
6.01017
5.94508
5.94856
5.93918
5.88077
5.75693
5.56055
5.30195
5.09798
5.03006
4.94424
4.8128
4.89754
6.05831
11.2967
34.0338
201.188
40.0579
39.6466
32.6795
23.2581
15.5203
10.8868
8.27259
7.08597
6.74365
6.76662
6.91021
7.07247
7.2018
7.257
7.19905
6.98588
6.5686
5.95601
5.3289
4.82121
4.74107
5.99845
11.4138
34.1685
201.189
35.3192
37.2573
33.5842
26.4902
18.4802
12.8009
9.47896
7.95581
7.53548
7.60805
7.86371
8.18649
8.52397
8.82988
9.05576
9.14226
9.01607
8.58282
7.71323
6.48236
5.61764
6.30834
11.5547
34.1632
201.189
31.1434
34.319
33.221
28.3518
21.5761
15.2125
10.9904
8.93868
8.3107
8.34473
8.63452
9.0375
9.5056
10.0091
10.5174
10.973
11.3057
11.4039
11.1072
10.1875
8.49183
7.56347
11.9569
34.1474
201.191
27.5811
31.18
31.8927
29.1383
23.974
17.7609
12.9473
10.149
9.05532
8.89492
9.1111
9.49286
9.97839
10.5522
11.2321
11.967
12.7353
13.4523
13.9727
14.053
13.2246
11.2891
13.0093
34.4017
201.194
24.6353
28.1101
29.9095
28.952
25.3888
20.3312
14.9248
11.3968
9.70277
9.2256
9.29974
9.60188
10.0384
10.5948
11.2837
12.1148
13.1293
14.323
15.594
16.8306
17.7006
17.4408
16.4382
35.0199
201.197
22.299
25.3125
27.5758
27.9525
25.9462
22.0979
17.3698
13.0023
10.4503
9.41469
9.22347
9.40555
9.77919
10.2849
10.9378
11.7908
12.8589
14.2022
15.9133
17.9901
20.3506
22.5671
23.745
36.0163
201.203
20.5268
22.9175
25.1766
26.3657
25.7003
23.1371
19.3406
15.242
11.7108
9.83295
9.1175
9.02169
9.23502
9.66089
10.2452
11.0262
12.0735
13.4742
15.3474
17.8466
21.1895
25.4368
29.9561
40.3854
201.208
19.2663
20.9872
22.9437
24.4627
24.7727
23.4421
20.6919
17.2032
13.7263
10.9937
9.4343
8.84046
8.7644
8.99784
9.49063
10.1825
11.1391
12.4584
14.2956
16.9112
20.7377
26.3537
34.17
48.5723
201.214
18.4685
19.5355
21.0353
22.5137
23.3719
23.0488
21.3835
18.7152
15.6411
12.7829
10.6207
9.29229
8.70907
8.63835
8.90143
9.46285
10.2903
11.4738
13.1779
15.6892
19.5716
25.8407
35.8955
55.232
201.218
18.0917
18.5471
19.5356
20.7418
21.7601
22.0969
21.3917
19.6493
17.2204
14.6094
12.2773
10.5082
9.38498
8.8323
8.73873
9.04063
9.6886
10.6925
12.2014
14.5155
18.227
24.637
35.8526
58.9378
201.246
18.0989
17.9954
18.4709
19.2933
20.193
20.82
20.8011
19.9274
18.2795
16.1733
14.0035
12.0961
10.6379
9.68133
9.191
9.10323
9.45092
10.2282
11.5048
13.5752
17.076
23.4259
35.2243
60.6714
201.317
18.4553
17.8516
17.8366
18.2383
18.863
19.483
19.8157
19.5957
18.7088
17.2557
15.4941
13.7178
12.1611
10.9614
10.1689
9.77177
9.73767
10.1687
11.174
12.943
16.2224
22.5829
35.0986
62.3337
201.444
19.1176
18.0847
17.6159
17.5963
17.8798
18.3095
18.7006
18.8375
18.5362
17.7334
16.5192
15.0886
13.6587
12.405
11.4403
10.8201
10.5597
10.6633
11.3146
12.6866
15.6576
22.1209
35.7496
65.2214
201.821
20.0153
18.6542
17.7858
17.3636
17.2874
17.4394
17.6962
17.9149
17.9367
17.6331
16.9639
15.9964
14.8716
13.7497
12.7668
12.0276
11.6022
11.5248
11.9086
12.9977
15.3671
21.865
37.023
70.5845
202.933
21.0181
19.4866
18.3074
17.5237
17.0939
16.937
16.9622
17.0758
17.1711
17.1332
16.8699
16.3503
15.6173
14.7711
13.9302
13.2083
12.7122
12.5324
12.7259
13.544
15.4894
21.1058
36.9425
72.6516
204.713
21.8839
20.4089
19.0704
18.013
17.272
16.8152
16.5808
16.5007
16.5047
16.5137
16.4445
16.2301
15.8435
15.3136
14.7151
14.136
13.6783
13.4506
13.5617
14.1078
15.4413
18.7677
29.0547
45.6126
74.3934
22.3505
21.2082
19.93
18.7422
17.7674
17.0411
16.5446
16.2347
16.0627
15.9774
15.922
15.837
15.6716
15.4041
15.0564
14.6801
14.3458
14.1421
14.1663
14.5094
15.2712
16.7542
19.5183
23.6132
25.7559
22.0894
21.5476
20.6058
19.5135
18.4585
17.5507
16.8302
16.296
15.9183
15.6674
15.5076
15.3995
15.3
15.1725
15.0013
14.8007
14.609
14.4819
14.4871
14.6924
15.1547
15.9188
17.1617
18.9973
20.3698
20.8701
21.0957
20.7426
20.0141
19.1089
18.1856
17.3452
16.6372
16.0726
15.6409
15.3247
15.1003
14.9432
14.8242
14.7176
14.6107
14.5127
14.4518
14.4693
14.6105
14.9175
15.4156
16.112
16.9861
17.781
18.7642
19.7193
20.0673
19.9115
19.3984
18.683
17.8977
17.1365
16.4559
15.8784
15.4096
15.0443
14.762
14.5553
14.4069
14.299
14.2216
14.1781
14.1875
14.2766
14.4726
14.7973
15.2587
15.8345
16.4228
16.104
17.5778
18.5518
19.0226
19.0533
18.7463
18.2195
17.5799
16.9143
16.2803
15.7101
15.2214
14.8138
14.4936
14.2364
14.0475
13.916
13.8344
13.8017
13.8258
13.9205
14.0999
14.3731
14.7339
15.1464
13.3106
15.0405
16.4325
17.4218
17.9948
18.187
18.0667
17.7183
17.2278
16.6705
16.1015
15.561
15.0694
14.6431
14.2776
13.9885
13.7512
13.5769
13.4617
13.4029
13.3998
13.4557
13.5747
13.7574
13.9923
10.7814
12.5189
14.0909
15.3947
16.3797
17.0238
17.3428
17.3785
17.19
16.8438
16.4016
15.9158
15.4237
14.9538
14.5206
14.1367
13.8006
13.5294
13.3066
13.1352
13.0208
12.9601
12.9512
12.9917
13.0757
8.86819
10.3618
11.8922
13.2978
14.5039
15.4604
16.1418
16.5518
16.7122
16.6608
16.4467
16.1204
15.7259
15.2994
14.8679
14.4501
14.0582
13.6925
13.3819
13.1166
12.8951
12.7124
12.5773
12.4883
12.4414
7.69988
8.80079
10.1115
11.4401
12.6826
13.7798
14.6846
15.3803
15.8562
16.1151
16.1789
16.0819
15.8631
15.559
15.2032
14.8218
14.4354
14.0524
13.6882
13.3469
13.0372
12.7678
12.537
12.3396
12.1691
7.21941
7.88889
8.88472
10.021
11.1729
12.2664
13.2486
14.0968
14.7887
15.3027
15.6334
15.7903
15.7952
15.6751
15.46
15.1782
14.8548
14.5072
14.1494
13.7939
13.4484
13.1215
12.8093
12.5311
12.2804
7.32237
7.60359
8.27373
9.16033
10.1442
11.1395
12.0899
12.9699
13.7598
14.4295
14.9579
15.335
15.5625
15.6519
15.6214
15.4926
15.2876
15.0271
14.7277
14.405
14.0697
13.7322
13.399
13.077
12.7729
7.99502
7.94485
8.25232
8.85503
9.65999
10.5142
11.366
12.197
12.9913
13.7206
14.3584
14.8859
15.2911
15.5706
15.7293
15.778
15.7309
15.6043
15.4139
15.1739
14.897
14.5941
14.2773
13.9537
13.6324
9.29508
8.92734
8.9187
9.23043
9.75791
10.3958
11.0922
11.8355
12.5842
13.2893
13.9502
14.549
15.0661
15.4888
15.81
16.0299
16.1526
16.1858
16.14
16.0266
15.8567
15.6407
15.3891
15.1107
14.8151
11.8942
10.9509
10.4839
10.3887
10.6417
11.0603
11.5667
12.1254
12.7092
13.298
13.9048
14.5014
15.0311
15.5032
15.9075
16.2388
16.4922
16.6654
16.7608
16.7844
16.744
16.6476
16.5032
16.319
16.1038
18.2549
16.149
14.6868
13.7814
13.3847
13.494
13.7745
14.1203
14.5033
14.9118
15.3427
15.7774
16.1957
16.6152
16.9908
17.3224
17.6061
17.83
17.9943
18.1032
18.1619
18.1729
18.1405
18.0699
17.9679
37.7104
33.9702
30.683
27.9499
25.8149
24.5917
24.5125
24.5586
24.6552
24.7868
24.9433
25.1139
25.2928
25.4883
25.7028
25.9209
26.1491
26.321
26.4813
26.6333
26.7754
26.8923
26.987
27.0609
27.1171
123.245
123.507
123.734
123.932
124.111
124.284
124.464
124.621
124.757
124.873
124.969
125.047
125.107
125.144
125.138
125.086
125.03
124.972
125.001
125.197
125.418
125.644
125.857
126.058
126.245
124.454
123.149
122.508
27.9673
28.8255
31.0213
19.5604
18.3799
17.4795
17.9667
17.557
16.6373
16.8077
16.9252
16.6986
15.5045
15.7838
15.9255
14.2301
14.4683
14.6801
13.1809
13.3068
13.4444
12.4301
12.4438
12.4785
12.0463
11.9507
11.8792
12.0783
11.9018
11.7425
12.5104
12.2648
12.0438
13.3515
13.0789
12.8155
14.545
14.2739
14.0022
15.8922
15.6676
15.4321
17.856
17.7285
17.5874
27.1601
27.1954
27.2256
126.403
126.546
126.676
152.783
112.092
112.092
112.093
112.094
112.096
112.099
112.102
112.105
112.108
112.11
112.112
112.113
112.113
112.113
112.112
112.11
112.108
112.106
112.103
112.101
112.099
112.097
112.096
112.095
112.094
112.093
112.093
112.092
112.092
112.092
112.092
112.092
112.092
112.092
112.092
112.093
112.093
112.094
112.094
112.095
112.095
112.096
112.097
112.098
112.098
112.099
112.099
112.099
112.099
112.115
112.156
112.237
112.365
112.529
112.706
112.87
113.008
113.11
113.172
113.196
113.188
113.157
113.107
113.042
112.966
112.88
112.785
112.684
112.581
112.475
112.372
112.278
112.225
112.181
112.147
112.124
112.107
112.096
152.784
193.474
38.4575
22.1707
19.2187
18.2956
17.8833
17.6984
17.6528
17.6968
17.798
17.9548
18.1543
18.3856
18.6621
19.2505
20.0103
20.7324
21.3793
21.9384
22.3452
22.6161
22.7621
22.7808
22.6761
22.4764
22.2001
21.8665
21.5048
21.1318
20.7529
20.3645
19.9566
19.5427
19.3386
19.1016
18.866
18.6703
18.5614
18.5689
18.6899
18.9086
19.1918
19.4853
19.7938
20.2138
21.3042
24.6464
28.7838
32.9038
36.3404
38.8054
40.2569
40.7276
40.2209
38.7255
36.363
33.5256
30.3824
27.116
23.9614
21.2463
19.3505
18.5042
18.2535
18.1305
18.098
18.0975
18.182
18.34
18.5377
18.7451
18.9264
19.0711
19.1995
19.6517
23.7935
28.8832
31.5043
42.1314
193.476
193.474
35.1304
14.7503
9.74424
7.85417
6.89736
6.3344
5.98795
5.78065
5.67107
5.63564
5.65789
5.72632
5.83691
6.01103
6.32634
6.78717
7.3121
7.86651
8.4002
8.88195
9.28599
9.5954
9.80339
9.91086
9.90376
9.78365
9.56587
9.26545
8.89678
8.47176
7.99893
7.49662
7.05745
6.71849
6.43211
6.2335
6.16439
6.25368
6.52222
6.96447
7.67472
9.0512
11.8918
15.0381
18.0457
20.6921
22.6968
23.9545
24.4318
24.1596
23.2083
21.8179
20.0207
17.9039
15.6844
13.6028
11.828
10.4611
9.53515
9.02167
8.86661
8.97208
9.16778
9.43824
9.78572
10.2129
10.7242
11.3166
11.9757
12.6715
13.3488
13.913
14.2177
14.0945
13.6339
14.3909
17.9973
34.8336
193.479
193.474
35.724
14.8002
9.09042
6.65057
5.29951
4.45223
3.89327
3.51953
3.27204
3.11371
3.01991
2.97403
2.96581
2.99228
3.06281
3.21536
3.44726
3.74576
4.09372
4.46976
4.84811
5.20365
5.51646
5.76859
5.94091
6.02073
6.00335
5.88986
5.68543
5.39823
5.03927
4.62644
4.19974
3.85422
3.60307
3.4976
3.59051
3.92785
4.64609
6.00401
8.41175
11.0803
13.6419
15.5316
16.848
17.6223
17.8563
17.5776
16.8348
15.7117
14.3085
12.7697
11.2169
9.78673
8.59298
7.69824
7.09867
6.75516
6.61306
6.61908
6.73371
6.92362
7.17207
7.48591
7.876
8.35548
8.93924
9.64245
10.4778
11.4503
12.5455
13.7103
14.8214
15.6334
15.7549
14.9464
15.8159
34.0566
193.48
193.475
36.4943
15.3324
9.15972
6.3636
4.79658
3.83362
3.21742
2.81538
2.55057
2.37585
2.26155
2.18878
2.14578
2.12614
2.12882
2.1604
2.24024
2.36584
2.53772
2.75231
2.99923
3.26549
3.53598
3.79152
4.01064
4.17627
4.27268
4.29069
4.22626
4.0803
3.85947
3.57943
3.27374
3.01279
2.89836
3.02927
3.52833
4.55477
6.40372
8.46096
10.6235
12.3515
13.5746
14.2345
14.4222
14.2118
13.6563
12.8102
11.7452
10.5562
9.35182
8.23146
7.26981
6.51598
5.97916
5.63571
5.44629
5.36962
5.37317
5.43659
5.55935
5.72843
5.94915
6.23146
6.58864
7.03777
7.60032
8.30267
9.17627
10.2563
11.5761
13.1547
14.9705
16.9081
18.6661
19.6203
19.7159
34.291
193.482
193.476
37.1537
15.5166
8.8903
5.87045
4.24934
3.3166
2.75857
2.41431
2.19604
2.05418
1.95984
1.89579
1.85171
1.82182
1.80399
1.79989
1.8168
1.86111
1.93547
2.04256
2.18239
2.35159
2.54334
2.74618
2.94393
3.11928
3.2555
3.33853
3.35866
3.31142
3.19931
3.03708
2.86598
2.78294
2.96382
3.60926
4.83846
6.54781
8.36242
10.0211
11.3019
12.0749
12.3769
12.283
11.8856
11.2485
10.4226
9.4688
8.4665
7.5012
6.64263
5.93204
5.38437
4.99303
4.73406
4.57708
4.49404
4.46455
4.47732
4.52853
4.62465
4.76039
4.94181
5.17862
5.48402
5.87583
6.37848
7.02581
7.86365
8.95061
10.3549
12.1496
14.4056
17.1566
20.3149
23.5178
25.9404
36.0518
193.484
193.478
37.4722
15.1735
8.20077
5.15381
3.64876
2.85589
2.41568
2.15896
2.00238
1.90255
1.83553
1.78752
1.75043
1.71982
1.69398
1.67363
1.66215
1.66612
1.68913
1.73488
1.80634
1.90478
2.02886
2.17357
2.32935
2.48303
2.61981
2.72538
2.78812
2.80136
2.76716
2.70759
2.69508
2.9005
3.57418
4.84781
6.44956
8.05799
9.43686
10.4179
10.9381
11.0352
10.8069
10.3405
9.69939
8.92942
8.08159
7.21906
6.40829
5.70066
5.12254
4.67565
4.34688
4.11593
3.96055
3.86071
3.80206
3.77665
3.78182
3.81848
3.89092
3.9963
4.13973
4.32964
4.57775
4.90019
5.31933
5.86736
6.59268
7.5674
8.89064
10.6893
13.1173
16.3555
20.5643
25.8119
31.8603
43.4873
193.486
193.481
37.2151
14.2563
7.21362
4.39041
3.13282
2.52298
2.20462
2.02751
1.92357
1.85889
1.81502
1.78131
1.75135
1.72167
1.69097
1.65981
1.63066
1.60811
1.59803
1.60449
1.63112
1.68083
1.75482
1.85164
1.96627
2.08987
2.21087
2.31681
2.39702
2.44648
2.47447
2.5291
2.74608
3.38035
4.60718
6.1198
7.61438
8.85497
9.68521
10.0675
10.062
9.77129
9.28895
8.67414
7.96616
7.20553
6.44364
5.73413
5.11755
4.61177
4.21481
3.9132
3.69036
3.52968
3.41601
3.33779
3.28803
3.26371
3.26451
3.29381
3.34952
3.43108
3.54233
3.68957
3.88199
4.13278
4.46105
4.8948
5.47705
6.27629
7.40111
9.00973
11.3348
14.7128
19.5595
26.3991
35.9606
52.9036
193.488
193.485
36.25
12.8953
6.15556
3.7617
2.78775
2.33878
2.11591
1.99753
1.93181
1.89292
1.86668
1.84473
1.82149
1.79376
1.76031
1.72127
1.67842
1.63505
1.59697
1.57134
1.56229
1.57396
1.60886
1.66726
1.74653
1.8407
1.94105
2.03787
2.12409
2.20255
2.30512
2.53253
3.09893
4.21462
5.62329
7.05645
8.25723
9.05044
9.39172
9.3497
9.04004
8.56428
7.98474
7.33465
6.64466
5.95579
5.31283
4.75042
4.28421
3.91235
3.62314
3.40223
3.2361
3.11275
3.02244
2.95857
2.91752
2.89793
2.89989
2.92681
2.97371
3.04098
3.13116
3.24833
3.39855
3.59092
3.83933
4.16535
4.604
5.21485
6.09496
7.40328
9.40024
12.5356
17.5061
25.3017
37.6224
60.642
193.506
193.489
34.5479
11.3637
5.30076
3.38117
2.62869
2.28879
2.12432
2.04297
2.00279
1.98233
1.9697
1.95804
1.94278
1.92026
1.88854
1.84711
1.7968
1.73912
1.67773
1.61958
1.57309
1.54665
1.54414
1.567
1.61411
1.68103
1.76123
1.84883
1.94478
2.07185
2.30372
2.80701
3.75711
5.03366
6.40448
7.61503
8.4542
8.83775
8.81859
8.52145
8.06452
7.52045
6.92206
6.29046
5.65679
5.05925
4.52983
4.08481
3.72449
3.4393
3.2166
3.04455
2.91303
2.81367
2.74021
2.68862
2.65683
2.64408
2.65051
2.67758
2.72171
2.78301
2.86293
2.9638
3.08906
3.24394
3.43658
3.68116
4.00253
4.44371
5.08256
6.05928
7.62601
10.2417
14.7877
22.7504
36.8166
65.1015
193.613
193.493
32.5342
10.2687
4.9016
3.23242
2.59357
2.31565
2.18969
2.13487
2.11423
2.10889
2.10853
2.10718
2.10118
2.08761
2.06354
2.02721
1.97861
1.91734
1.84374
1.76101
1.67811
1.60793
1.56005
1.54006
1.55122
1.59076
1.65482
1.74387
1.87523
2.10452
2.54637
3.32059
4.42733
5.70077
6.91377
7.83829
8.33145
8.39623
8.14798
7.72352
7.21448
6.66
6.07865
5.49033
4.9265
4.4178
3.98272
3.62499
3.33782
3.11015
2.93099
2.7911
2.68299
2.60078
2.54028
2.49887
2.47527
2.46912
2.4807
2.51029
2.55557
2.61655
2.69402
2.78915
2.9036
3.0398
3.20238
3.3994
3.64575
3.96915
4.42213
5.10654
6.22696
8.20425
11.9243
19.2124
33.8124
65.855
193.884
193.497
31.7816
9.75898
4.70545
3.18707
2.62194
2.38669
2.28911
2.25492
2.25031
2.25831
2.26991
2.27993
2.2846
2.28297
2.27216
2.2494
2.21263
2.15951
2.08731
1.99595
1.88851
1.7784
1.68195
1.61096
1.5786
1.58933
1.64597
1.75961
1.96544
2.33618
2.96218
3.87692
5.00413
6.1717
7.16687
7.80469
8.01381
7.8626
7.49222
7.02359
6.5126
5.96786
5.42043
4.88534
4.39125
3.95943
3.59803
3.30389
3.068
2.88008
2.73107
2.61374
2.52244
2.4529
2.40219
2.36859
2.3514
2.3507
2.36735
2.40056
2.44907
2.51292
2.59254
2.68839
2.80107
2.93176
3.08218
3.25606
3.46155
3.7154
4.05106
4.53616
5.31311
6.70066
9.45685
15.4391
29.2115
63.2586
194.324
193.5
31.1284
9.39542
4.59979
3.19571
2.68531
2.48212
2.40642
2.38861
2.39722
2.41691
2.43983
2.46158
2.47959
2.49327
2.49964
2.49648
2.48033
2.44744
2.394
2.31588
2.21054
2.07923
1.93901
1.81916
1.73878
1.71813
1.77472
1.92972
2.22275
2.71076
3.43686
4.38015
5.43882
6.44527
7.21073
7.60056
7.60293
7.32224
6.89702
6.43281
5.93436
5.42129
4.91488
4.4345
4.00322
3.63418
3.32893
3.08135
2.88235
2.72301
2.59587
2.49514
2.41639
2.35638
2.31302
2.28524
2.27286
2.27649
2.29783
2.33505
2.38772
2.45605
2.54015
2.64048
2.75721
2.88972
3.03793
3.20298
3.38884
3.60525
3.87316
4.23653
4.79057
5.75534
7.69499
12.2015
24.0089
58.0609
194.817
193.503
30.5219
9.12021
4.5496
3.23616
2.76728
2.58784
2.52831
2.5228
2.54177
2.57149
2.60514
2.63918
2.67175
2.70175
2.7276
2.74706
2.75698
2.75431
2.73401
2.6901
2.61683
2.50964
2.36798
2.20658
2.07633
2.01734
2.06525
2.24935
2.59857
3.14178
3.88436
4.77973
5.71917
6.54617
7.10275
7.30049
7.16791
6.82291
6.39125
5.94909
5.47587
4.99809
4.53477
4.10557
3.72774
3.40849
3.14582
2.93273
2.76091
2.62279
2.51214
2.42413
2.35516
2.30269
2.26519
2.24214
2.23399
2.24205
2.26731
2.30864
2.36598
2.43968
2.53043
2.63809
2.76138
2.89888
3.0495
3.21295
3.39079
3.58856
3.81948
4.11257
4.53257
5.22884
6.59662
9.84908
19.2649
51.2581
195.254
193.505
30.026
8.92639
4.54019
3.29745
2.85801
2.69402
2.64449
2.64642
2.67249
2.71057
2.75404
2.7998
2.84626
2.89246
2.93717
2.97856
3.01408
3.04097
3.05549
3.05226
3.02499
2.96739
2.87394
2.7442
2.59166
2.484
2.49716
2.67154
3.02421
3.55834
4.2557
5.05741
5.8561
6.51185
6.89796
6.96137
6.75224
6.38752
5.9824
5.56183
5.12113
4.67992
4.25836
3.8744
3.54056
3.26028
3.02991
2.84258
2.691
2.56903
2.47124
2.39345
2.33261
2.28665
2.25445
2.23599
2.23248
2.24571
2.27549
2.32159
2.38478
2.46602
2.56532
2.68133
2.81201
2.95525
3.10945
3.27372
3.44851
3.63702
3.84794
4.10119
4.44396
4.98058
5.98985
8.35414
15.6087
44.2064
195.603
193.511
29.5937
8.78505
4.54576
3.35426
2.93379
2.78089
2.74007
2.74979
2.78364
2.82921
2.88157
2.93869
2.99832
3.05936
3.12062
3.18065
3.23735
3.28841
3.33122
3.36222
3.37648
3.36867
3.33284
3.26379
3.16347
3.05492
3.01456
3.13783
3.44395
3.92034
4.53358
5.2194
5.87709
6.38586
6.64598
6.62799
6.39058
6.03934
5.65857
5.26603
4.8577
4.45205
4.06881
3.72319
3.42472
3.17497
2.96937
2.80113
2.66374
2.55494
2.46813
2.39938
2.34607
2.30652
2.28006
2.26698
2.26871
2.28734
2.32233
2.37501
2.44665
2.53764
2.64701
2.77249
2.91107
3.06
3.21748
3.38264
3.55568
3.73882
3.93854
4.16979
4.46672
4.91028
5.71135
7.51916
13.139
38.0182
195.871
193.53
29.2241
8.66678
4.54097
3.38373
2.97828
2.83561
2.80394
2.82326
2.86787
2.92561
2.99047
3.05929
3.13213
3.20773
3.28436
3.36112
3.43528
3.50533
3.56933
3.62554
3.67028
3.69993
3.71084
3.69851
3.65977
3.60163
3.55571
3.60748
3.83309
4.22046
4.72904
5.29372
5.82358
6.21633
6.39261
6.33495
6.09828
5.77075
5.41765
5.05321
4.67534
4.30244
3.95274
3.63575
3.36436
3.14092
2.95683
2.80582
2.68266
2.58388
2.50534
2.4435
2.39611
2.36198
2.34073
2.33305
2.34132
2.36642
2.40966
2.47273
2.55638
2.66013
2.78182
2.91778
3.06388
3.21699
3.37559
3.53936
3.70878
3.88576
4.07551
4.29012
4.55766
4.94688
5.63977
7.19058
11.8113
33.0973
196.091
193.556
28.8653
8.54638
4.51467
3.38556
2.99474
2.8634
2.84218
2.87284
2.93004
3.00195
3.08256
3.16836
3.25704
3.34848
3.44193
3.53524
3.62653
3.71416
3.79613
3.87281
3.94087
3.99764
4.04127
4.06975
4.08107
4.07556
4.06224
4.07606
4.20847
4.48722
4.88106
5.32856
5.74849
6.05392
6.17891
6.10849
5.88664
5.58495
5.25715
4.91682
4.55962
4.21141
3.89474
3.6112
3.36781
3.16491
2.99691
2.85858
2.74554
2.65432
2.58191
2.52568
2.48359
2.45465
2.43887
2.43752
2.4546
2.49054
2.54722
2.62581
2.72617
2.84617
2.98181
3.12759
3.27855
3.43207
3.58768
3.74607
3.90838
4.07649
4.25474
4.45307
4.69505
5.04027
5.65044
7.02725
11.1946
30.5418
196.319
193.593
28.4675
8.4126
4.4706
3.36701
2.99078
2.87114
2.86187
2.90589
2.9781
3.06662
3.16531
3.27049
3.37938
3.48969
3.60117
3.7132
3.82366
3.93104
4.03415
4.13123
4.2202
4.29966
4.36874
4.42728
4.47519
4.51304
4.54185
4.57026
4.62889
4.79243
5.05989
5.38953
5.71109
5.94784
6.04032
5.96979
5.76612
5.48529
5.16797
4.84004
4.51077
4.1949
3.90757
3.65175
3.43078
3.24425
3.08859
2.95978
2.85424
2.76897
2.70152
2.65009
2.61323
2.59038
2.58227
2.59213
2.62417
2.67824
2.75573
2.85654
2.97788
3.11534
3.26283
3.41352
3.56213
3.70899
3.85555
4.00337
4.15419
4.30992
4.47413
4.65481
4.87159
5.17619
5.71206
6.93485
10.7367
29.1111
196.569
193.653
27.981
8.25386
4.41279
3.33938
2.97935
2.87325
2.87786
2.93709
3.02593
3.13237
3.25021
3.37572
3.50582
3.63754
3.76851
3.89915
4.02873
4.15534
4.2778
4.39482
4.50531
4.60784
4.70175
4.78809
4.86773
4.94071
5.00414
5.06116
5.11867
5.20908
5.35921
5.56291
5.77951
5.94706
6.00884
5.93778
5.74645
5.46207
5.1594
4.85029
4.54469
4.25538
3.99248
3.75896
3.55614
3.3833
3.238
3.11738
3.01868
2.93955
2.87812
2.83311
2.8039
2.79094
2.79686
2.82859
2.88508
2.96617
3.07066
3.19496
3.33387
3.48143
3.63084
3.77561
3.91236
4.04466
4.1759
4.30795
4.44298
4.58284
4.73025
4.8914
5.08218
5.34684
5.80648
6.86957
10.2993
27.6667
196.821
193.746
27.1559
8.03991
4.35602
3.32806
2.99023
2.9008
2.92095
2.99589
3.10098
3.2244
3.36015
3.50468
3.65474
3.80659
3.95698
4.10408
4.25023
4.39359
4.53288
4.66728
4.79611
4.91856
5.03422
5.14329
5.24601
5.34387
5.43372
5.51506
5.59467
5.67891
5.77566
5.89224
6.01459
6.10812
6.12868
6.0441
5.83576
5.56194
5.2691
4.97272
4.68417
4.41412
4.16974
3.95349
3.76575
3.60554
3.47104
3.36019
3.27103
3.20191
3.15162
3.11954
3.10586
3.11228
3.14413
3.20744
3.29538
3.40416
3.52847
3.66289
3.80236
3.94176
4.07631
4.20202
4.31799
4.42911
4.53993
4.6522
4.76814
4.88923
5.01738
5.15736
5.32534
5.55761
5.94134
6.78445
9.62022
25.8233
197.067
194.002
25.9755
7.82822
4.37056
3.40388
3.0925
3.02027
3.05443
3.14205
3.25935
3.39507
3.54375
3.70221
3.86691
4.0331
4.1968
4.35626
4.51132
4.66518
4.8155
4.96119
5.10154
5.23649
5.36589
5.49017
5.60939
5.72302
5.83058
5.93157
6.02551
6.10991
6.19107
6.27379
6.35187
6.40638
6.4067
6.31297
6.11312
5.8526
5.56812
5.28015
5.00219
4.74414
4.51204
4.3083
4.13313
3.98554
3.86401
3.76693
3.6928
3.64046
3.60913
3.59855
3.60944
3.64458
3.71173
3.79912
3.90172
4.01419
4.13161
4.24983
4.36552
4.47597
4.57888
4.67275
4.75995
4.84695
4.93478
5.02535
5.12041
5.22091
5.32817
5.44703
5.59162
5.78716
6.09208
6.70144
8.66559
21.5257
198.301
78.0258
18.7544
7.34917
4.57635
3.71603
3.4283
3.36599
3.40556
3.49549
3.61339
3.74899
3.89724
4.05464
4.21688
4.37928
4.53888
4.69491
4.8475
4.99999
5.15132
5.29939
5.44318
5.58284
5.71877
5.85052
5.9771
6.09786
6.21205
6.31863
6.41631
6.50339
6.57635
6.64291
6.70025
6.73884
6.74019
6.67456
6.52913
6.32121
6.07755
5.82026
5.56606
5.32682
5.11006
4.91967
4.75702
4.6219
4.51331
4.42989
4.37027
4.33317
4.31759
4.32302
4.35009
4.4027
4.47228
4.54961
4.63113
4.71404
4.7962
4.87607
4.95237
5.02394
5.08999
5.15142
5.2132
5.27709
5.34297
5.41245
5.48664
5.56605
5.65156
5.74751
5.86311
6.01381
6.23052
6.58478
7.33324
9.75932
22.1234
30.0586
13.3336
7.35337
5.32966
4.57308
4.27587
4.1841
4.1868
4.23629
4.31413
4.41173
4.52372
4.64561
4.77345
4.90436
5.03679
5.17004
5.3039
5.43854
5.57562
5.71323
5.85079
5.98769
6.12281
6.25473
6.38224
6.50438
6.61999
6.72755
6.82574
6.91194
6.98286
7.04161
7.08975
7.11864
7.11678
7.07366
6.9819
6.84345
6.66997
6.47541
6.27376
6.07621
5.89127
5.72451
5.57901
5.45606
5.35572
5.27732
5.21983
5.18206
5.16303
5.16221
5.18048
5.21476
5.2529
5.29341
5.33517
5.37731
5.41915
5.46025
5.49997
5.53759
5.57439
5.61236
5.65348
5.69641
5.7422
5.79176
5.8456
5.90387
5.96706
6.03832
6.12297
6.22903
6.36923
6.56523
6.86105
7.37444
8.55477
16.457
11.7831
8.57341
7.05878
6.3399
5.92719
5.67546
5.52395
5.44045
5.40661
5.41029
5.44277
5.4972
5.56775
5.64947
5.73877
5.83329
5.93181
6.03336
6.14024
6.25472
6.37449
6.4969
6.6207
6.74441
6.86644
6.98528
7.09962
7.20836
7.30912
7.39835
7.47309
7.52842
7.56724
7.58689
7.58183
7.54819
7.48243
7.38406
7.25874
7.11652
6.96617
6.81335
6.66474
6.52544
6.39899
6.28752
6.19199
6.11264
6.04922
6.00127
5.96872
5.95209
5.94951
5.95002
5.9533
5.95894
5.9665
5.97552
5.98564
5.99724
6.01033
6.02478
6.04128
6.06031
6.08101
6.10404
6.13005
6.15947
6.19239
6.22866
6.26843
6.31362
6.36701
6.4322
6.51357
6.6163
6.74587
6.90861
7.10957
15.1858
12.9595
10.9164
9.54347
8.63891
8.01985
7.57699
7.25417
7.01988
6.85523
6.74581
6.67987
6.6482
6.6427
6.65614
6.68335
6.72065
6.76674
6.82305
6.89133
6.97187
7.0615
7.15883
7.2622
7.36962
7.4792
7.58908
7.69766
7.80328
7.90246
7.99165
8.06739
8.12516
8.15692