/*--------------------------------*- C++ -*----------------------------------*\
| =========                 |                                                 |
| \\      /  F ield         | OpenFOAM: The Open Source CFD Toolbox           |
|  \\    /   O peration     | Version:  v2012                                 |
|   \\  /    A nd           | Website:  www.openfoam.com                      |
|    \\/     M anipulation  |                                                 |
\*---------------------------------------------------------------------------*/
FoamFile
{
    version     2.0;
    format      ascii;
    class       volScalarField;
    location    "399";
    object      p;
}
// * * * * * * * * * * * * * * * * * * * * * * * * * * * * * * * * * * * * * //

dimensions      [0 2 -2 0 0 0 0];


internalField   nonuniform List<scalar> 
6508
(
0.625163
0.608567
0.600112
0.596288
0.594591
0.594549
0.596169
0.599927
0.608333
0.624895
0.604816
0.599036
0.596483
0.594168
0.592886
0.59284
0.594034
0.596271
0.598768
0.604525
0.591935
0.590741
0.589968
0.588968
0.588382
0.588325
0.588799
0.589703
0.590407
0.591581
0.584866
0.584672
0.583941
0.583213
0.582868
0.582791
0.582988
0.583588
0.584241
0.584405
0.578879
0.578923
0.578275
0.577644
0.577336
0.577232
0.577338
0.577792
0.578323
0.578227
0.572762
0.572974
0.572447
0.571937
0.571659
0.571513
0.57151
0.571772
0.572113
0.571816
0.566715
0.567006
0.566446
0.565993
0.56573
0.565525
0.5654
0.565506
0.565766
0.565352
0.560882
0.561197
0.560584
0.560043
0.559706
0.559408
0.55917
0.559184
0.559413
0.558938
0.555235
0.555513
0.554944
0.55424
0.553731
0.553291
0.55294
0.552889
0.55301
0.552477
0.549742
0.549893
0.549268
0.548464
0.547775
0.547165
0.546679
0.546513
0.546423
0.545843
0.544448
0.54443
0.543613
0.542693
0.541798
0.540963
0.540266
0.539864
0.539555
0.538945
0.539458
0.539264
0.538195
0.537041
0.535834
0.53467
0.533645
0.532898
0.532376
0.531698
0.534897
0.534497
0.533106
0.531588
0.529941
0.528318
0.526847
0.525671
0.524836
0.524003
0.530907
0.530236
0.528414
0.526392
0.524158
0.521918
0.519843
0.518104
0.516803
0.515703
0.527665
0.526627
0.524227
0.521531
0.518525
0.515461
0.512557
0.510046
0.508081
0.506562
0.525385
0.523856
0.520694
0.517115
0.513104
0.508953
0.504923
0.501326
0.498419
0.49624
0.524312
0.522136
0.51799
0.513284
0.507995
0.502441
0.496921
0.491786
0.48738
0.484309
0.524686
0.521682
0.516304
0.510207
0.503351
0.496035
0.488564
0.48126
0.474473
0.469889
0.526685
0.522673
0.515822
0.508089
0.4994
0.48996
0.479992
0.469727
0.459283
0.451564
0.530276
0.525188
0.516693
0.507164
0.496485
0.484707
0.471757
0.458099
0.442451
0.426228
0.535139
0.529251
0.519018
0.50766
0.495022
0.48102
0.465293
0.447739
0.426136
0.395609
0.540493
0.534547
0.522719
0.50976
0.495485
0.479693
0.462085
0.442463
0.421781
0.400273
0.545895
0.540637
0.527547
0.513427
0.497999
0.481061
0.462529
0.442301
0.421936
0.402362
0.551334
0.547266
0.533435
0.518497
0.502274
0.484604
0.465572
0.444668
0.423141
0.402184
0.55634
0.553746
0.540246
0.524714
0.507889
0.489608
0.470076
0.448873
0.4267
0.405174
0.560702
0.559603
0.547686
0.531849
0.514628
0.495922
0.476003
0.454789
0.43248
0.410993
0.565255
0.565449
0.555937
0.540105
0.52252
0.503498
0.483267
0.461936
0.439548
0.418045
0.57086
0.571951
0.564861
0.549444
0.531478
0.512158
0.491653
0.470133
0.44751
0.425927
0.577187
0.578746
0.573782
0.559416
0.541286
0.521695
0.50095
0.479288
0.456435
0.434684
0.583025
0.584799
0.5819
0.569408
0.551652
0.531912
0.510981
0.489254
0.466475
0.44423
0.587849
0.589683
0.588524
0.578675
0.562145
0.542578
0.521558
0.499736
0.477085
0.454265
0.591858
0.593496
0.593462
0.586723
0.572377
0.553481
0.532526
0.510567
0.487825
0.464478
0.595106
0.596156
0.596945
0.593312
0.581936
0.564417
0.54384
0.521856
0.499022
0.475333
0.597714
0.598369
0.599655
0.598526
0.590392
0.575081
0.555445
0.533694
0.510841
0.487037
0.6
0.600558
0.601988
0.602365
0.597273
0.584963
0.567091
0.546017
0.523269
0.499377
0.601953
0.602435
0.603651
0.604735
0.602283
0.593442
0.57831
0.558652
0.53641
0.512667
0.603498
0.603816
0.604668
0.605956
0.605548
0.600107
0.588438
0.571197
0.55019
0.526988
0.604722
0.604846
0.605394
0.60651
0.607324
0.604776
0.596849
0.583041
0.564223
0.542129
0.605861
0.605764
0.605988
0.606733
0.607957
0.607651
0.603274
0.593395
0.577798
0.557694
0.607117
0.606844
0.606669
0.607025
0.608157
0.609223
0.607746
0.601735
0.590114
0.572989
0.608462
0.608092
0.607677
0.60785
0.608751
0.610228
0.610735
0.607988
0.600337
0.586982
0.609691
0.609368
0.609095
0.609377
0.610154
0.611535
0.612951
0.612417
0.60805
0.598555
0.610473
0.610292
0.610354
0.611054
0.612064
0.613383
0.614801
0.615245
0.61305
0.606797
0.610639
0.610612
0.610984
0.612192
0.613822
0.615262
0.616317
0.616733
0.615579
0.611555
0.61038
0.61044
0.611053
0.612718
0.6149
0.616596
0.617267
0.617037
0.615831
0.612887
0.610029
0.610163
0.610802
0.612429
0.614669
0.616462
0.616932
0.616085
0.614294
0.611525
0.609636
0.609819
0.61034
0.611481
0.613025
0.614296
0.614556
0.613456
0.61126
0.608288
0.609212
0.609397
0.609632
0.60992
0.610225
0.610309
0.609867
0.60862
0.606521
0.60374
0.608809
0.60889
0.608631
0.607845
0.606722
0.605361
0.603852
0.60218
0.600221
0.597958
0.608535
0.6084
0.607479
0.605569
0.603077
0.600348
0.597772
0.595508
0.593518
0.59168
0.60856
0.60814
0.606536
0.603603
0.599901
0.596028
0.592569
0.589759
0.587598
0.585976
0.609048
0.608377
0.606263
0.602583
0.597906
0.593068
0.588872
0.58557
0.583168
0.581571
0.610053
0.609262
0.606906
0.602824
0.597467
0.591847
0.587007
0.58323
0.580515
0.578787
0.61143
0.610664
0.608298
0.604077
0.598348
0.592302
0.586913
0.582678
0.579633
0.577715
0.612726
0.612101
0.61005
0.606164
0.600607
0.5945
0.588706
0.583999
0.580541
0.578318
0.613327
0.612887
0.611478
0.608569
0.60392
0.598142
0.592279
0.587181
0.583253
0.580625
0.613061
0.612759
0.612017
0.610404
0.607332
0.602764
0.597438
0.592189
0.58777
0.584589
0.612399
0.612153
0.61182
0.611268
0.609968
0.607414
0.603537
0.598793
0.594201
0.590429
0.611849
0.611683
0.611464
0.611241
0.610864
0.610026
0.608355
0.605399
0.601414
0.597378
0.611634
0.611501
0.611202
0.610836
0.610412
0.609941
0.609384
0.6081
0.605375
0.601756
0.372891
0.379906
0.38329
0.385292
0.38634
0.38647
0.385886
0.38479
0.383496
0.38221
0.380974
0.379944
0.379251
0.378868
0.378678
0.378601
0.378589
0.378625
0.378685
0.378749
0.378807
0.378855
0.378895
0.378925
0.37894
0.383572
0.38281
0.382957
0.384293
0.38523
0.385386
0.384804
0.383713
0.382394
0.381113
0.380012
0.379211
0.378717
0.378437
0.378355
0.378426
0.378555
0.378678
0.378774
0.37884
0.378884
0.378916
0.378943
0.378963
0.378976
0.386015
0.383347
0.382278
0.382965
0.383656
0.383804
0.383278
0.382286
0.381104
0.379956
0.378977
0.378229
0.377737
0.377516
0.377566
0.377798
0.378117
0.378429
0.378676
0.37883
0.378915
0.37896
0.378985
0.379004
0.379021
0.385455
0.382876
0.381973
0.382238
0.382746
0.382769
0.382248
0.381283
0.380179
0.379121
0.378224
0.377544
0.377101
0.376897
0.376937
0.377201
0.377613
0.378055
0.378423
0.378689
0.378855
0.378946
0.378993
0.379022
0.379042
0.38716
0.383159
0.382323
0.382276
0.382694
0.382622
0.382036
0.381017
0.379883
0.378815
0.377933
0.377284
0.376877
0.376699
0.376729
0.376957
0.377337
0.37779
0.378201
0.378525
0.378743
0.378876
0.378948
0.378988
0.379011
0.391565
0.384899
0.383535
0.383238
0.383536
0.38349
0.382765
0.381616
0.380341
0.379145
0.378162
0.37745
0.377011
0.376819
0.376842
0.377047
0.37738
0.377767
0.378135
0.378428
0.378643
0.37878
0.378859
0.378904
0.378928
0.397692
0.388152
0.385687
0.385198
0.385324
0.385286
0.384464
0.383154
0.381625
0.380162
0.378929
0.378021
0.377452
0.37719
0.377181
0.377356
0.377643
0.377965
0.378255
0.378465
0.378606
0.378699
0.378756
0.378792
0.378812
0.405185
0.392993
0.388886
0.388058
0.388015
0.387915
0.387075
0.385603
0.383759
0.381885
0.380234
0.378935
0.378087
0.377656
0.377565
0.377711
0.37798
0.378259
0.378474
0.378598
0.378642
0.37865
0.378657
0.378671
0.378682
0.413825
0.399243
0.39301
0.391402
0.391148
0.390999
0.390205
0.388561
0.386358
0.383981
0.381759
0.379937
0.378673
0.377979
0.37777
0.377899
0.378194
0.378497
0.378692
0.378742
0.378695
0.378615
0.378551
0.378533
0.378536
0.423135
0.406418
0.397633
0.394644
0.393937
0.39358
0.392743
0.39099
0.388451
0.385514
0.382612
0.380152
0.378352
0.377337
0.37707
0.37733
0.377857
0.378419
0.378778
0.378854
0.378735
0.378557
0.37841
0.378351
0.37835
0.432786
0.414089
0.402385
0.397287
0.395566
0.394762
0.393661
0.391698
0.388766
0.385196
0.381496
0.37817
0.375613
0.374202
0.373972
0.374573
0.375678
0.37704
0.378187
0.378736
0.378734
0.378481
0.378229
0.378092
0.378072
0.442708
0.422271
0.407341
0.399275
0.395719
0.39398
0.392326
0.389926
0.386478
0.382207
0.377638
0.37337
0.369873
0.367527
0.366941
0.368106
0.370086
0.372605
0.375381
0.377458
0.378357
0.378336
0.378001
0.377724
0.377657
0.452953
0.431175
0.413031
0.401247
0.394892
0.391462
0.388849
0.385772
0.381723
0.37676
0.371373
0.366221
0.361897
0.358821
0.357405
0.357955
0.360122
0.363879
0.36875
0.373275
0.376446
0.377741
0.37766
0.377226
0.377018
0.463711
0.440979
0.420088
0.404306
0.394298
0.388309
0.384147
0.380172
0.3755
0.369982
0.363983
0.358165
0.353191
0.349548
0.347548
0.347504
0.349633
0.353932
0.359125
0.365247
0.371599
0.375715
0.376953
0.376524
0.376047
0.475341
0.452042
0.429093
0.409601
0.395462
0.386121
0.379726
0.374494
0.369227
0.363422
0.357266
0.351285
0.346082
0.34214
0.339723
0.339038
0.340333
0.343764
0.349213
0.35634
0.364314
0.371504
0.375323
0.37545
0.374639
0.488413
0.464553
0.440396
0.417982
0.399768
0.386518
0.377208
0.370178
0.364046
0.358009
0.351918
0.346087
0.340964
0.336956
0.334371
0.333345
0.334078
0.336723
0.341396
0.348107
0.356492
0.365432
0.37225
0.373683
0.372724
0.502981
0.478737
0.454029
0.42969
0.408059
0.390801
0.377991
0.368517
0.361014
0.354453
0.348345
0.342702
0.337804
0.333963
0.331407
0.330285
0.330706
0.332858
0.336845
0.342743
0.350481
0.359439
0.367888
0.371074
0.370269
0.518689
0.494619
0.469697
0.44446
0.420508
0.399735
0.383186
0.37064
0.361094
0.35347
0.347019
0.341428
0.336717
0.33306
0.330654
0.329666
0.330111
0.332097
0.33572
0.340961
0.347741
0.355956
0.364238
0.368346
0.367713
0.535341
0.511882
0.487179
0.461822
0.436697
0.413402
0.393457
0.377518
0.36527
0.35588
0.348516
0.342612
0.337921
0.334421
0.332204
0.331396
0.332105
0.334325
0.33805
0.34307
0.349109
0.356208
0.363536
0.366688
0.366213
0.552475
0.530133
0.506131
0.481143
0.455804
0.431201
0.408776
0.389701
0.374407
0.3626
0.353629
0.346848
0.341807
0.338287
0.336247
0.335715
0.336791
0.339514
0.343801
0.349234
0.355011
0.360803
0.366106
0.365242
0.363603
0.569182
0.548624
0.525836
0.501713
0.47689
0.452091
0.428401
0.407048
0.388949
0.374421
0.363243
0.35493
0.348988
0.34507
0.343017
0.34275
0.344326
0.347822
0.353036
0.359487
0.366175
0.371923
0.374429
0.364303
0.350578
0.584126
0.56612
0.54525
0.522591
0.498902
0.474788
0.451014
0.428588
0.408535
0.391582
0.377986
0.367623
0.360156
0.355308
0.352909
0.35275
0.354722
0.358914
0.365275
0.373365
0.382456
0.39142
0.394969
0.375946
0.340853
0.595957
0.581095
0.562879
0.542371
0.520426
0.497709
0.474849
0.452583
0.43179
0.41331
0.397657
0.385127
0.375715
0.369383
0.366079
0.365547
0.367506
0.37198
0.379014
0.388342
0.399576
0.412292
0.423201
0.424111
0.426281
0.603768
0.59221
0.577245
0.559645
0.540173
0.51954
0.49837
0.477304
0.457068
0.438137
0.421159
0.406968
0.395804
0.387716
0.38291
0.381324
0.382609
0.386598
0.393292
0.402514
0.413808
0.426605
0.439757
0.452927
0.469129
0.607287
0.598762
0.587287
0.573216
0.557003
0.53921
0.520434
0.500838
0.482721
0.465346
0.447761
0.432633
0.420353
0.410765
0.404183
0.400886
0.400742
0.403448
0.408895
0.416945
0.427231
0.439167
0.452068
0.465092
0.477517
0.607173
0.600987
0.592756
0.582381
0.569951
0.555782
0.540415
0.524267
0.507646
0.49094
0.475135
0.46098
0.448341
0.437633
0.429615
0.424532
0.422388
0.423157
0.426653
0.432632
0.440844
0.450868
0.462106
0.473722
0.484617
0.604604
0.600064
0.594386
0.587283
0.578584
0.56831
0.556668
0.543979
0.530346
0.516296
0.501954
0.489682
0.47868
0.467457
0.458436
0.45196
0.447854
0.446287
0.447332
0.450761
0.456214
0.463346
0.47173
0.480707
0.489338
0.600578
0.597147
0.593288
0.588741
0.583246
0.576624
0.5688
0.559869
0.549999
0.539597
0.528915
0.517911
0.506691
0.497123
0.489514
0.482474
0.47678
0.473241
0.47177
0.472287
0.474719
0.478742
0.4839
0.489681
0.495502
0.595525
0.593062
0.590569
0.587928
0.58494
0.581384
0.577051
0.571827
0.565732
0.558931
0.551628
0.543753
0.535778
0.527367
0.5198
0.513279
0.507441
0.503263
0.500095
0.498142
0.497649
0.498406
0.500274
0.502922
0.505861
0.590004
0.588489
0.587144
0.58596
0.584854
0.583658
0.582132
0.580049
0.577355
0.574073
0.57024
0.565847
0.561125
0.555797
0.550586
0.544854
0.539012
0.534124
0.529732
0.526961
0.525046
0.523173
0.522002
0.521599
0.521577
0.584817
0.584068
0.583682
0.583659
0.583984
0.584562
0.585182
0.5856
0.58577
0.58569
0.585253
0.584278
0.582742
0.58055
0.577801
0.574324
0.570683
0.567058
0.561871
0.556997
0.553593
0.550549
0.548087
0.545668
0.542998
0.580669
0.580392
0.580696
0.581574
0.583035
0.585042
0.587387
0.589828
0.592335
0.594909
0.597372
0.599452
0.600954
0.601759
0.601738
0.600767
0.598851
0.596653
0.593639
0.589708
0.585424
0.580289
0.575653
0.571769
0.567777
0.577959
0.577902
0.578612
0.580102
0.582392
0.585477
0.589184
0.593274
0.597677
0.602386
0.607194
0.611808
0.615965
0.619449
0.622098
0.623743
0.624183
0.623605
0.621952
0.619148
0.615672
0.611362
0.606538
0.60103
0.594647
0.576848
0.576872
0.577772
0.579612
0.582428
0.586243
0.590935
0.596242
0.602043
0.608337
0.614951
0.621613
0.62803
0.633906
0.638963
0.64294
0.645628
0.646961
0.646963
0.645614
0.643042
0.639253
0.634537
0.629063
0.62271
0.577287
0.577309
0.578325
0.58038
0.58352
0.587789
0.593146
0.599342
0.60617
0.613583
0.62146
0.629579
0.637646
0.645342
0.65234
0.658338
0.663074
0.666347
0.668045
0.668099
0.666567
0.663621
0.659446
0.654188
0.647892
0.579335
0.579237
0.580262
0.582412
0.585743
0.590307
0.596095
0.602919
0.610517
0.6187
0.627389
0.636449
0.645599
0.654511
0.662859
0.670343
0.676651
0.681501
0.684692
0.686117
0.685771
0.683743
0.680147
0.675164
0.669044
0.582843
0.582468
0.583393
0.585583
0.589029
0.593755
0.599751
0.60691
0.615019
0.623822
0.633119
0.642738
0.652466
0.661998
0.671077
0.679444
0.686735
0.692615
0.696845
0.699286
0.699887
0.698667
0.695715
0.691201
0.685342
0.587846
0.586825
0.587414
0.589537
0.593065
0.597948
0.604137
0.611518
0.619904
0.62909
0.638814
0.64883
0.658945
0.668906
0.678454
0.687296
0.695053
0.701387
0.706067
0.708965
0.710051
0.709291
0.706746
0.702561
0.696939
0.594112
0.592341
0.592426
0.59404
0.597161
0.602045
0.608444
0.616103
0.624817
0.634366
0.644491
0.654949
0.665504
0.675894
0.685834
0.695038
0.703172
0.709914
0.714937
0.718071
0.719362
0.718767
0.716361
0.712269
0.706719
0.598496
0.596462
0.596065
0.597424
0.600708
0.605741
0.612283
0.620164
0.629186
0.639091
0.649614
0.660483
0.671342
0.681756
0.691515
0.700692
0.708805
0.715329
0.720311
0.723821
0.725496
0.725121
0.722898
0.719003
0.713702
0.4573
0.46456
0.468941
0.483252
0.489946
0.495242
0.487741
0.495386
0.502107
0.492979
0.498729
0.503291
0.496176
0.501135
0.504953
0.500454
0.504324
0.507375
0.508523
0.510675
0.512379
0.521736
0.521915
0.521948
0.540733
0.538874
0.53706
0.564424
0.561255
0.557631
0.589165
0.584813
0.580301
0.616739
0.611291
0.604961
0.641388
0.635066
0.628234
0.662546
0.655936
0.64882
0.678858
0.672082
0.664742
0.69057
0.68386
0.676517
0.700373
0.693641
0.68624
0.707557
0.70076
0.693147
0.514883
0.5149
0.51492
0.514933
0.514921
0.514866
0.514758
0.514596
0.514388
0.514146
0.513884
0.513609
0.513332
0.513062
0.512806
0.512572
0.512367
0.512196
0.51206
0.511958
0.511888
0.511845
0.511827
0.51183
0.511848
0.511875
0.511909
0.511946
0.511983
0.51202
0.512055
0.512088
0.512117
0.512144
0.512165
0.51218
0.512181
0.512162
0.512118
0.512049
0.511957
0.511843
0.511705
0.511533
0.511318
0.511038
0.510684
0.51026
0.509753
0.50913
0.508355
0.507493
0.506732
0.506185
0.505807
0.505518
0.505305
0.50518
0.505197
0.505638
0.506861
0.508952
0.511939
0.515739
0.520313
0.525444
0.530657
0.53552
0.53982
0.543026
0.544552
0.544276
0.542782
0.540822
0.539126
0.538035
0.537506
0.537399
0.537425
0.537462
0.514852
0.514875
0.514898
0.514907
0.514886
0.514819
0.514697
0.514522
0.514302
0.514055
0.513793
0.513519
0.513241
0.512972
0.512722
0.512498
0.512306
0.512151
0.51203
0.51194
0.511881
0.51185
0.511841
0.51185
0.511873
0.511906
0.511942
0.511978
0.512013
0.512046
0.512077
0.512104
0.51213
0.512152
0.51217
0.512181
0.512178
0.512154
0.512104
0.512031
0.511941
0.511835
0.511714
0.511584
0.511428
0.511212
0.510964
0.510715
0.510407
0.50992
0.509132
0.508069
0.506931
0.505805
0.504623
0.503463
0.502521
0.501936
0.501872
0.502411
0.503657
0.505799
0.508756
0.512426
0.516678
0.521546
0.526749
0.531821
0.536416
0.539987
0.542031
0.542383
0.541334
0.539588
0.538024
0.537117
0.536865
0.537029
0.537216
0.537306
0.514811
0.514839
0.514862
0.514858
0.51481
0.514708
0.514552
0.51435
0.514109
0.513846
0.513574
0.513299
0.513028
0.51277
0.512531
0.512319
0.512136
0.511991
0.51188
0.511792
0.511743
0.511732
0.511749
0.511785
0.511838
0.511897
0.51195
0.511997
0.51204
0.512077
0.512109
0.512137
0.512161
0.512181
0.512197
0.512204
0.512196
0.512164
0.512106
0.512029
0.511947
0.511878
0.511818
0.511764
0.511701
0.511551
0.511243
0.510724
0.509975
0.508854
0.507006
0.504568
0.502169
0.500026
0.498198
0.496837
0.495962
0.495563
0.495705
0.496302
0.497523
0.499563
0.502323
0.505776
0.50984
0.514438
0.51939
0.52444
0.529279
0.533467
0.536565
0.538303
0.538694
0.538094
0.537179
0.536581
0.536453
0.536595
0.536803
0.53691
0.514766
0.514798
0.514816
0.514783
0.514691
0.514542
0.514346
0.514115
0.513858
0.513587
0.51331
0.513035
0.512769
0.512517
0.512284
0.512075
0.511894
0.511747
0.511639
0.511567
0.511534
0.511529
0.51156
0.511623
0.511702
0.511789
0.511878
0.511961
0.512036
0.5121
0.512153
0.512197
0.512232
0.51226
0.51228
0.512285
0.512269
0.512228
0.512163
0.512086
0.512018
0.511979
0.51196
0.511887
0.51163
0.511044
0.509988
0.508403
0.506293
0.503706
0.500764
0.497908
0.495431
0.493219
0.491467
0.490145
0.489154
0.488686
0.488782
0.489431
0.490681
0.492567
0.495069
0.498171
0.501836
0.505999
0.510548
0.515343
0.520193
0.524834
0.528956
0.532276
0.534598
0.535897
0.536386
0.53646
0.536443
0.536445
0.536464
0.536493
0.514721
0.514753
0.514754
0.514678
0.514534
0.51434
0.514112
0.51386
0.513592
0.513315
0.513038
0.512766
0.512505
0.51226
0.512036
0.511835
0.511662
0.51152
0.511414
0.511345
0.511313
0.511317
0.511356
0.511429
0.511526
0.511637
0.511759
0.511886
0.512005
0.512111
0.512204
0.512281
0.512344
0.512392
0.512424
0.512432
0.512409
0.512355
0.512282
0.512213
0.512158
0.512078
0.51187
0.511367
0.510372
0.508737
0.506438
0.503589
0.5004
0.497078
0.493848
0.490959
0.488426
0.486215
0.484416
0.483068
0.482199
0.481815
0.481929
0.482568
0.483758
0.485491
0.487757
0.490543
0.493819
0.497539
0.501641
0.506049
0.510668
0.515382
0.520051
0.52451
0.528558
0.531954
0.534443
0.535899
0.53644
0.536415
0.536215
0.536092
0.514691
0.514716
0.514687
0.514562
0.514371
0.514145
0.513896
0.513629
0.513353
0.513075
0.512799
0.512531
0.512276
0.512037
0.511819
0.511625
0.511458
0.511321
0.511218
0.51115
0.51112
0.511126
0.511168
0.511245
0.511352
0.511482
0.511631
0.51179
0.511949
0.512101
0.512241
0.512363
0.512466
0.512545
0.512595
0.512609
0.512584
0.512532
0.512465
0.512382
0.512224
0.511843
0.511028
0.509579
0.50739
0.504494
0.501063
0.49735
0.49375
0.490292
0.486985
0.484064
0.481553
0.479466
0.477793
0.476551
0.475765
0.475434
0.475568
0.476182
0.477283
0.478868
0.480929
0.483455
0.48642
0.489793
0.493531
0.49759
0.501925
0.506494
0.511262
0.516194
0.521215
0.526126
0.530539
0.533899
0.535744
0.53615
0.535812
0.535503
0.514699
0.514709
0.514641
0.514471
0.514249
0.514
0.513732
0.513454
0.513173
0.512893
0.51262
0.512355
0.512104
0.511868
0.511652
0.51146
0.511295
0.511161
0.51106
0.510993
0.510964
0.510972
0.511016
0.511095
0.511207
0.511347
0.511511
0.51169
0.511877
0.512065
0.512245
0.51241
0.512551
0.512662
0.512732
0.512758
0.512746
0.512703
0.51261
0.512386
0.511856
0.510782
0.508959
0.506313
0.502934
0.499056
0.495046
0.491062
0.487218
0.483711
0.480565
0.477793
0.475417
0.473448
0.471884
0.470731
0.469997
0.469691
0.469819
0.470391
0.471404
0.472858
0.47475
0.47707
0.479801
0.48292
0.4864
0.490211
0.494324
0.498721
0.503403
0.508407
0.513756
0.519299
0.524879
0.530008
0.533719
0.535317
0.535132
0.534553
0.51478
0.514769
0.514665
0.51446
0.514211
0.513936
0.513649
0.513359
0.513073
0.512792
0.512519
0.512255
0.512003
0.511765
0.511547
0.511352
0.511184
0.511048
0.510945
0.510878
0.510849
0.510857
0.510903
0.510984
0.511098
0.511242
0.51141
0.511599
0.5118
0.512007
0.512211
0.512402
0.51257
0.5127
0.512787
0.51283
0.512831
0.512761
0.512523
0.511925
0.510708
0.508656
0.505712
0.502015
0.497836
0.493473
0.489181
0.485123
0.481372
0.477981
0.474972
0.472336
0.47008
0.468207
0.466721
0.465626
0.464929
0.464634
0.464747
0.465272
0.466206
0.467551
0.469306
0.471463
0.474014
0.476943
0.480235
0.48387
0.48783
0.4921
0.496681
0.501594
0.506884
0.512569
0.518597
0.52469
0.530121
0.533545
0.534017
0.533161
0.514967
0.514933
0.514795
0.514555
0.51427
0.513964
0.513657
0.513357
0.513065
0.512782
0.512506
0.512239
0.511982
0.511738
0.511513
0.51131
0.511135
0.510991
0.510883
0.510812
0.51078
0.510788
0.510833
0.510914
0.511028
0.511171
0.511339
0.511527
0.511729
0.511938
0.512146
0.512343
0.512515
0.512651
0.512745
0.512795
0.51277
0.512576
0.512014
0.510808
0.508714
0.505656
0.501782
0.497394
0.492808
0.488286
0.483988
0.480012
0.476393
0.473133
0.470236
0.467703
0.465536
0.463736
0.462306
0.461252
0.460577
0.460284
0.460378
0.460861
0.46173
0.462989
0.464638
0.466672
0.469086
0.471873
0.475024
0.478527
0.48237
0.486544
0.491041
0.495867
0.501037
0.506593
0.512564
0.518872
0.525207
0.530364
0.532144
0.531283
0.515281
0.515219
0.515033
0.514751
0.514421
0.514081
0.513753
0.513443
0.513146
0.512858
0.512577
0.512303
0.512038
0.511786
0.51155
0.511337
0.511151
0.510998
0.510881
0.510804
0.510767
0.51077
0.510812
0.510891
0.511002
0.511141
0.511304
0.511484
0.511676
0.511873
0.512068
0.512251
0.512409
0.512535
0.512621
0.512645
0.512524
0.512078
0.511026
0.509091
0.506137
0.502266
0.497796
0.493058
0.488348
0.483849
0.479653
0.475797
0.472292
0.469137
0.466333
0.463878
0.461775
0.460027
0.458636
0.457607
0.456942
0.456647
0.456722
0.45717
0.457991
0.459188
0.46076
0.462706
0.465024
0.467709
0.470757
0.474162
0.477915
0.482008
0.486432
0.491179
0.496245
0.50164
0.507385
0.513483
0.519848
0.525936
0.529456
0.529187
0.515692
0.515599
0.51537
0.515041
0.514654
0.514272
0.513923
0.513602
0.513299
0.513005
0.512719
0.512439
0.512166
0.511903
0.511657
0.511433
0.511237
0.511073
0.510946
0.510859
0.510814
0.51081
0.510847
0.51092
0.511026
0.511159
0.511313
0.511481
0.511656
0.511833
0.512004
0.512161
0.512295
0.512401
0.51246
0.512417
0.512123
0.511317
0.509699
0.507073
0.50342
0.498938
0.494224
0.489384
0.484707
0.480302
0.476219
0.472471
0.469059
0.465984
0.463246
0.460845
0.458785
0.457069
0.455699
0.454682
0.45402
0.453717
0.453778
0.4542
0.454987
0.456143
0.457665
0.459556
0.461813
0.464434
0.467418
0.470758
0.47445
0.478484
0.482852
0.487538
0.492526
0.497798
0.503347
0.509178
0.515286
0.521453
0.52648
0.52756
0.516172
0.51606
0.515796
0.515398
0.514937
0.51451
0.51414
0.513808
0.513497
0.513196
0.512903
0.512617
0.512339
0.51207
0.511816
0.511586
0.511384
0.511213
0.511078
0.510982
0.510927
0.510915
0.510943
0.511009
0.511107
0.511231
0.511374
0.511528
0.511685
0.511839
0.511985
0.512117
0.51223
0.512315
0.512336
0.512191
0.511667
0.510452
0.508279
0.505081
0.500931
0.496262
0.491394
0.486572
0.481983
0.47768
0.473693
0.470026
0.46668
0.463658
0.460961
0.458591
0.456552
0.454849
0.453487
0.45247
0.451803
0.45149
0.451537
0.451942
0.452709
0.453841
0.455338
0.457201
0.45943
0.462023
0.464979
0.468292
0.471958
0.475966
0.480305
0.484958
0.489902
0.495103
0.500532
0.506178
0.512034
0.518003
0.523859
0.526493
0.516698
0.516569
0.516257
0.515768
0.515224
0.514752
0.514363
0.514019
0.513696
0.513387
0.513087
0.512796
0.512516
0.512246
0.511991
0.511764
0.511566
0.511397
0.511262
0.511164
0.511105
0.511086
0.511105
0.511161
0.511249
0.511363
0.511496
0.511639
0.511784
0.511924
0.512056
0.512179
0.512288
0.512367
0.512354
0.512101
0.511341
0.509754
0.507157
0.503606
0.499176
0.494439
0.489477
0.48472
0.480211
0.475986
0.472063
0.468446
0.465137
0.46214
0.459459
0.457098
0.455063
0.453357
0.451987
0.450959
0.45028
0.449956
0.44999
0.450384
0.451142
0.452266
0.453759
0.45562
0.45785
0.460449
0.463414
0.466741
0.470422
0.474446
0.478798
0.48346
0.488405
0.493595
0.498982
0.50451
0.510124
0.515917
0.521752
0.525232
0.517193
0.517027
0.516655
0.51607
0.515442
0.514931
0.514526
0.51417
0.513832
0.513511
0.513205
0.512911
0.512631
0.512367
0.512124
0.511912
0.511729
0.511579
0.511462
0.51138
0.511331
0.511314
0.51133
0.511377
0.511455
0.511561
0.511689
0.511832
0.51198
0.512128
0.512275
0.512423
0.512567
0.512678
0.512667
0.512339
0.511394
0.509533
0.50666
0.502804
0.498243
0.493398
0.488521
0.483839
0.479386
0.475205
0.471312
0.467711
0.464408
0.46141
0.458723
0.456351
0.454301
0.452577
0.451186
0.450137
0.44944
0.449101
0.449125
0.449513
0.450272
0.451402
0.452908
0.45479
0.457051
0.459689
0.462702
0.466085
0.469828
0.473919
0.47834
0.483069
0.488077
0.493323
0.498752
0.504278
0.509805
0.515366
0.520837
0.524158
0.517553
0.517363
0.516928
0.516236
0.515522
0.514978
0.514556
0.51417
0.513806
0.513477
0.513172
0.512881
0.512607
0.512357
0.512136
0.511952
0.511804
0.511694
0.511621
0.511583
0.511572
0.511585
0.511618
0.511671
0.511747
0.511849
0.511983
0.512145
0.512328
0.512525
0.512738
0.512971
0.513216
0.513428
0.513483
0.513145
0.512088
0.510037
0.506914
0.502819
0.498236
0.493399
0.488583
0.48393
0.479494
0.475317
0.471414
0.467796
0.46447
0.461445
0.458729
0.456329
0.45425
0.452496
0.451073
0.449992
0.449266
0.448909
0.448922
0.449309
0.450073
0.45122
0.452752
0.454675
0.45699
0.459697
0.462796
0.466279
0.470137
0.474356
0.478915
0.483791
0.488952
0.494354
0.499936
0.505604
0.511233
0.516768
0.522119
0.524905
0.517706
0.5175
0.516991
0.516189
0.515406
0.514837
0.514378
0.513944
0.513562
0.513235
0.512932
0.512643
0.512377
0.512144
0.51195
0.511805
0.511711
0.511662
0.51166
0.511703
0.511777
0.511869
0.51197
0.512074
0.51218
0.512304
0.512466
0.512679
0.512943
0.513254
0.51361
0.514016
0.514453
0.514853
0.515051
0.514771
0.513671
0.511496
0.508202
0.504048
0.499418
0.494523
0.489675
0.484985
0.480511
0.476291
0.47234
0.46867
0.465291
0.462213
0.459445
0.457
0.454875
0.453073
0.451607
0.45049
0.449734
0.449351
0.44935
0.449739
0.450516
0.451687
0.453259
0.455238
0.457629
0.460433
0.46365
0.467275
0.471298
0.475706
0.480479
0.485592
0.491014
0.496703
0.5026
0.508616
0.51463
0.52047
0.525663
0.528684
0.517568
0.51734
0.516755
0.515868
0.515043
0.514444
0.513944
0.513485
0.513101
0.512769
0.512455
0.512162
0.511901
0.511684
0.511517
0.511416
0.511382
0.511407
0.511493
0.511655
0.511877
0.512112
0.512351
0.512595
0.512826
0.513047
0.513299
0.513621
0.514034
0.514542
0.515139
0.515819
0.516544
0.51721
0.51761
0.517427
0.516314
0.514052
0.510667
0.506435
0.501671
0.49668
0.491741
0.486958
0.482392
0.478077
0.474033
0.470274
0.466812
0.463656
0.460819
0.458308
0.456122
0.454268
0.452766
0.451623
0.450846
0.450441
0.450419
0.4508
0.451587
0.452785
0.454403
0.456451
0.458933
0.461854
0.465215
0.469014
0.473245
0.477899
0.482961
0.48841
0.494221
0.50036
0.506785
0.513433
0.520216
0.526909
0.532604
0.536383
0.517036
0.51678
0.51614
0.515209
0.514366
0.51375
0.513246
0.512803
0.512416
0.512063
0.511734
0.511435
0.51118
0.510978
0.510843
0.510784
0.510811
0.510923
0.511109
0.511405
0.511797
0.512216
0.512679
0.513184
0.51369
0.514156
0.51464
0.515178
0.515838
0.516642
0.517582
0.518628
0.51971
0.520681
0.521289
0.521192
0.520053
0.517695
0.514193
0.50982
0.504903
0.499773
0.494685
0.489752
0.485046
0.480603
0.476439
0.472568
0.469001
0.465746
0.462813
0.460206
0.457939
0.45603
0.454491
0.453327
0.452536
0.452118
0.452084
0.452455
0.453248
0.454475
0.456145
0.458267
0.460849
0.463897
0.467415
0.471406
0.475872
0.480811
0.486221
0.492093
0.498418
0.505191
0.512384
0.519933
0.527786
0.535821
0.542904
0.548008
0.515958
0.515696
0.515065
0.514159
0.513356
0.512775
0.512308
0.511891
0.511508
0.511146
0.51081
0.51051
0.510259
0.510072
0.509965
0.509952
0.510043
0.510251
0.510577
0.510998
0.511509
0.512151
0.512916
0.513741
0.514607
0.515467
0.516366
0.517336
0.518405
0.519621
0.521003
0.522489
0.52396
0.525222
0.525994
0.52593
0.524724
0.522242
0.518597
0.514065
0.508977
0.503667
0.498395
0.493286
0.488412
0.483808
0.479494
0.475485
0.471791
0.468421
0.465381
0.462679
0.460329
0.458354
0.456762
0.455553
0.45473
0.454296
0.454263
0.45464
0.455451
0.456714
0.458441
0.460641
0.463321
0.466492
0.470162
0.474339
0.479036
0.484267
0.490046
0.496394
0.503342
0.510924
0.519101
0.527765
0.536828
0.546282
0.554915
0.561758
0.514183
0.51402
0.513512
0.51275
0.512089
0.511609
0.51121
0.510837
0.510472
0.510116
0.509779
0.509478
0.50923
0.509054
0.508969
0.508993
0.509138
0.50942
0.509851
0.510425
0.51114
0.512015
0.513044
0.514184
0.515394
0.516685
0.518084
0.519667
0.521342
0.523102
0.524995
0.526969
0.528846
0.530387
0.531287
0.531221
0.529931
0.527335
0.523577
0.518918
0.513681
0.508201
0.502737
0.497431
0.492362
0.487575
0.483094
0.478934
0.475105
0.471616
0.468473
0.465684
0.46326
0.461214
0.459556
0.458288
0.457422
0.456969
0.456934
0.457326
0.458168
0.459474
0.461256
0.463524
0.466287
0.469556
0.473345
0.47767
0.482556
0.488034
0.494142
0.500942
0.508518
0.516933
0.526275
0.536572
0.547527
0.559129
0.57036
0.579006
0.510904
0.511353
0.5114
0.511042
0.510694
0.510406
0.510115
0.509796
0.509453
0.509103
0.508763
0.508457
0.508207
0.508036
0.507968
0.508024
0.508223
0.508579
0.509106
0.509808
0.510686
0.511737
0.512957
0.514373
0.515997
0.517798