/*--------------------------------*- C++ -*----------------------------------*\
| =========                 |                                                 |
| \\      /  F ield         | OpenFOAM: The Open Source CFD Toolbox           |
|  \\    /   O peration     | Version:  v2012                                 |
|   \\  /    A nd           | Website:  www.openfoam.com                      |
|    \\/     M anipulation  |                                                 |
\*---------------------------------------------------------------------------*/
FoamFile
{
    version     2.0;
    format      ascii;
    class       surfaceScalarField;
    location    "399";
    object      phi;
}
// * * * * * * * * * * * * * * * * * * * * * * * * * * * * * * * * * * * * * //

dimensions      [0 3 -1 0 0 0 0];
oriented        oriented;


internalField   nonuniform List<scalar> 
12736
(
2.4343e-06
0.000197566
1.2584e-06
0.000201176
6.48644e-07
0.00020061
2.89887e-07
0.000200359
6.32066e-09
0.000200284
-2.77947e-07
0.000200284
-6.38832e-07
0.000200361
-1.2518e-06
0.000200613
-2.42958e-06
0.000201178
0.00019757
3.44323e-06
0.000194122
2.71262e-06
0.000201907
1.662e-06
0.00020166
7.81505e-07
0.000201239
1.94712e-08
0.000201046
-7.44374e-07
0.000201048
-1.62998e-06
0.000201246
-2.68797e-06
0.000201671
-3.43e-06
0.00020192
0.00019414
3.38592e-06
0.000190737
2.99375e-06
0.000202299
2.02941e-06
0.000202625
1.01573e-06
0.000202253
3.52843e-08
0.000202026
-9.4818e-07
0.000202032
-1.97059e-06
0.000202269
-2.94888e-06
0.000202649
-3.36253e-06
0.000202333
0.000190778
3.36729e-06
0.000187369
3.15405e-06
0.000202512
2.21052e-06
0.000203568
1.1367e-06
0.000203327
5.5798e-08
0.000203107
-1.02961e-06
0.000203117
-2.11634e-06
0.000203356
-3.0803e-06
0.000203613
-3.32416e-06
0.000202577
0.000187454
3.37169e-06
0.000183998
3.22787e-06
0.000202656
2.32585e-06
0.00020447
1.22594e-06
0.000204427
8.33464e-08
0.00020425
-1.06585e-06
0.000204266
-2.18478e-06
0.000204475
-3.11719e-06
0.000204546
-3.3059e-06
0.000202766
0.000184148
3.33831e-06
0.000180659
3.2496e-06
0.000202744
2.39109e-06
0.000205329
1.29177e-06
0.000205526
1.21561e-07
0.00020542
-1.05791e-06
0.000205446
-2.18359e-06
0.0002056
-3.08704e-06
0.000205449
-3.2426e-06
0.000202922
0.000180905
3.28906e-06
0.00017737
3.2495e-06
0.000202784
2.41278e-06
0.000206165
1.34099e-06
0.000206598
1.74372e-07
0.000206586
-1.00687e-06
0.000206627
-2.12219e-06
0.000206716
-3.01563e-06
0.000206342
-3.15011e-06
0.000203056
0.000177755
3.24364e-06
0.000174127
3.23473e-06
0.000202793
2.42773e-06
0.000206972
1.39386e-06
0.000207632
2.49354e-07
0.000207731
-9.16729e-07
0.000207793
-2.01383e-06
0.000207813
-2.90853e-06
0.000207237
-3.042e-06
0.00020319
0.000174713
3.2114e-06
0.000170915
3.23064e-06
0.000202774
2.49408e-06
0.000207709
1.48512e-06
0.000208641
3.60981e-07
0.000208855
-7.88993e-07
0.000208943
-1.87262e-06
0.000208896
-2.76189e-06
0.000208126
-2.9185e-06
0.000203346
0.000171795
3.20407e-06
0.000167711
3.27339e-06
0.000202704
2.60223e-06
0.00020838
1.62326e-06
0.00020962
5.17952e-07
0.00020996
-6.22075e-07
0.000210083
-1.70623e-06
0.00020998
-2.58083e-06
0.000209001
-2.77582e-06
0.000203541
0.000169019
3.2337e-06
0.000164477
3.37179e-06
0.000202566
2.74812e-06
0.000209004
1.81117e-06
0.000210557
7.30134e-07
0.000211041
-4.01629e-07
0.000211215
-1.49206e-06
0.000211071
-2.36708e-06
0.000209876
-2.608e-06
0.000203782
0.000166411
3.30945e-06
0.000161168
3.53322e-06
0.000202342
2.96404e-06
0.000209573
2.07439e-06
0.000211446
1.0233e-06
0.000212092
-9.71942e-08
0.000212335
-1.1935e-06
0.000212167
-2.1031e-06
0.000210786
-2.40584e-06
0.000204085
0.000164005
3.44415e-06
0.000157724
3.77833e-06
0.000202008
3.28112e-06
0.00021007
2.44723e-06
0.00021228
1.43119e-06
0.000213108
3.21668e-07
0.000213445
-7.90004e-07
0.000213279
-1.75517e-06
0.000211751
-2.14949e-06
0.000204479
0.000161855
3.65866e-06
0.000154065
4.13794e-06
0.000201529
3.73436e-06
0.000210474
2.9684e-06
0.000213046
1.99365e-06
0.000214083
8.93921e-07
0.000214544
-2.44517e-07
0.000214417
-1.28568e-06
0.000212792
-1.81114e-06
0.000205005
0.000160044
3.98102e-06
0.000150084
4.65143e-06
0.000200859
4.36814e-06
0.000210757
3.68641e-06
0.000213728
2.7625e-06
0.000215007
1.67374e-06
0.000215633
4.97555e-07
0.000215594
-6.45873e-07
0.000213935
-1.35394e-06
0.000205713
0.00015869
4.44745e-06
0.000145637
5.36787e-06
0.000199938
5.23806e-06
0.000210887
4.66256e-06
0.000214303
3.80504e-06
0.000215865
2.73451e-06
0.000216704
1.51547e-06
0.000216813
2.34355e-07
0.000215217
-7.41652e-07
0.000206689
0.000157949
5.10393e-06
0.000140533
6.34697e-06
0.000198695
6.41071e-06
0.000210823
5.97017e-06
0.000214744
5.2036e-06
0.000216631
4.16823e-06
0.000217739
2.90707e-06
0.000218074
1.47952e-06
0.000216644
1.23811e-07
0.000208044
0.000158073
6.0056e-06
0.000134527
7.65494e-06
0.000197046
7.95853e-06
0.00021052
7.69073e-06
0.000215012
7.0537e-06
0.000217268
6.09005e-06
0.000218703
4.81066e-06
0.000219353
3.26022e-06
0.000218194
1.40221e-06
0.000209902
0.000159475
7.20802e-06
0.000127319
9.35927e-06
0.000194895
9.95396e-06
0.000209925
9.90727e-06
0.000215058
9.46059e-06
0.000217715
8.65221e-06
0.000219511
7.45874e-06
0.000220547
5.86465e-06
0.000219789
3.56126e-06
0.000212206
0.000163036
8.76001e-06
0.000118559
1.15164e-05
0.000192138
1.24533e-05
0.000208988
1.26824e-05
0.000214829
1.25062e-05
0.000217891
1.19763e-05
0.000220041
1.10037e-05
0.000221519
9.56935e-06
0.000221223
7.14348e-06
0.000214632
0.000170179
1.06731e-05
0.000107886
1.44554e-05
0.000188356
1.58017e-05
0.000207642
1.63615e-05
0.000214269
1.65463e-05
0.000217706
1.64345e-05
0.000220153
1.60818e-05
0.000221872
1.56247e-05
0.00022168
1.50243e-05
0.000215232
0.00017258
1.26242e-05
1.23192e-05
9.55668e-05
1.76489e-05
0.000183026
1.94639e-05
0.000205827
2.03737e-05
0.00021336
2.09604e-05
0.00021712
2.1358e-05
0.000219755
2.171e-05
0.00022152
2.20415e-05
0.000221349
2.15018e-05
0.000215772
0.000179865
1.42159e-05
1.37472e-05
8.18196e-05
2.11117e-05
0.000175662
2.35072e-05
0.000203431
2.47855e-05
0.000212081
2.57517e-05
0.000216153
2.65903e-05
0.000218917
2.73359e-05
0.000220774
2.79109e-05
0.000220774
2.76934e-05
0.000215989
0.000186296
2.12628e-05
1.47636e-05
6.7056e-05
2.45753e-05
0.00016585
2.78079e-05
0.000200199
2.94709e-05
0.000210418
3.07649e-05
0.000214859
3.19515e-05
0.00021773
3.30657e-05
0.00021966
3.39161e-05
0.000219923
3.41462e-05
0.000215759
0.000192018
2.84246e-05
1.50531e-05
5.20029e-05
2.76391e-05
0.000153264
3.22508e-05
0.000195587
3.43572e-05
0.000208312
3.59485e-05
0.000213268
3.74508e-05
0.000216228
3.88968e-05
0.000218214
4.00779e-05
0.000218742
4.05781e-05
0.000215259
0.00019687
3.57253e-05
1.43607e-05
3.76422e-05
2.98609e-05
0.000137764
3.66128e-05
0.000188835
3.93603e-05
0.000205564
4.12507e-05
0.000211378
4.30274e-05
0.000214451
4.47493e-05
0.000216492
4.62489e-05
0.000217242
4.69864e-05
0.000214522
0.000200644
4.32126e-05
1.28393e-05
2.48028e-05
3.09344e-05
0.000119669
4.05491e-05
0.00017922
4.43844e-05
0.000201729
4.66374e-05
0.000209125
4.86508e-05
0.000212438
5.06113e-05
0.000214532
5.23751e-05
0.000215479
5.33996e-05
0.000213497
0.000203292
5.07522e-05
1.08587e-05
1.39441e-05
3.0816e-05
9.97114e-05
4.37172e-05
0.000166319
4.92988e-05
0.000196147
5.20942e-05
0.000206329
5.43291e-05
0.000210203
5.64894e-05
0.000212371
5.84852e-05
0.000213483
5.97664e-05
0.000212216
0.000204871
5.81867e-05
8.82529e-06
5.11886e-06
2.96408e-05
7.88959e-05
4.58313e-05
0.000150129
5.38553e-05
0.000188123
5.75627e-05
0.000202622
6.00699e-05
0.000207696
6.23935e-05
0.000210048
6.45851e-05
0.000211291
6.60705e-05
0.000210731
0.000205525
6.54168e-05
6.70007e-06
-1.58121e-06
2.74013e-05
5.81946e-05
4.65776e-05
0.000130952
5.76688e-05
0.000177032
6.28812e-05
0.00019741
6.58475e-05
0.000204729
6.83232e-05
0.000207572
7.06524e-05
0.000208962
7.2397e-05
0.000208986
0.000205443
7.24784e-05
4.49492e-06
-6.07614e-06
2.40821e-05
3.86074e-05
4.56468e-05
0.000109388
6.02447e-05
0.000162434
6.77287e-05
0.000189926
7.15627e-05
0.000200895
7.42726e-05
0.000204862
7.67133e-05
0.000206521
7.87467e-05
0.000206953
0.000204739
7.94509e-05
2.61371e-06
-8.68984e-06
1.98706e-05
2.13505e-05
4.2848e-05
8.64103e-05
6.10616e-05
0.000144221
7.16293e-05
0.000179358
7.70004e-05
0.000195524
8.02143e-05
0.000201648
8.28219e-05
0.000203914
8.50972e-05
0.000204677
0.000203533
8.63038e-05
1.43703e-06
-1.01269e-05
1.49881e-05
7.79945e-06
3.81177e-05
6.32807e-05
5.96359e-05
0.000122703
7.39699e-05
0.000165024
8.17652e-05
0.000187729
8.60096e-05
0.000197404
8.89564e-05
0.000200967
9.1451e-05
0.000202183
0.000201872
9.31122e-05
8.18447e-07
-1.09453e-05
1.01325e-05
-1.51456e-06
3.18586e-05
4.15546e-05
5.57247e-05
9.88365e-05
7.40897e-05
0.000146659
8.52505e-05
0.000176568
9.13323e-05
0.000191322
9.50046e-05
0.000197294
9.77997e-05
0.000199388
0.000199724
9.99477e-05
3.36691e-07
-1.1282e-05
6.39275e-06
-7.57062e-06
2.49097e-05
2.30377e-05
4.94731e-05
7.42731e-05
7.14437e-05
0.000124688
8.66776e-05
0.000161334
9.56129e-05
0.000182387
0.000100709
0.000192199
0.000104102
0.000195995
0.000197091
0.000106734
-2.83649e-08
-1.12536e-05
4.17597e-06
-1.1775e-05
1.8165e-05
9.04867e-06
4.14175e-05
5.10205e-05
6.58265e-05
0.000100279
8.52665e-05
0.000141894
9.80252e-05
0.000169628
0.000105535
0.000184689
0.000110109
0.00019142
0.000193834
0.000113367
2.54874e-08
-1.12791e-05
3.03883e-06
-1.47883e-05
1.25616e-05
-4.74078e-07
3.25011e-05
3.1081e-05
5.75217e-05
7.52587e-05
8.04707e-05
0.000118945
9.75895e-05
0.000152509
0.000108611
0.000173668
0.000115293
0.000184739
0.0001895
0.000119627
3.20686e-07
-1.15998e-05
2.40859e-06
-1.68762e-05
8.69433e-06
-6.75981e-06
2.39639e-05
1.58114e-05
4.73242e-05
5.18984e-05
7.22849e-05
9.39843e-05
9.35199e-05
0.000131274
0.000108863
0.000158325
0.000118786
0.000174815
0.000183235
0.000125051
3.40916e-07
-1.19407e-05
1.54987e-06
-1.80852e-05
5.99418e-06
-1.12041e-05
1.67621e-05
5.04354e-06
3.64775e-05
3.2183e-05
6.13487e-05
6.91131e-05
8.55179e-05
0.000107105
0.000105268
0.000138575
0.000119419
0.000160664
0.000173897
0.000128757
-3.0339e-07
-1.16373e-05
-1.22549e-08
-1.83763e-05
3.22968e-06
-1.44461e-05
1.09517e-05
-2.67843e-06
2.61972e-05
1.69375e-05
4.8791e-05
4.65192e-05
7.4047e-05
8.18492e-05
9.73333e-05
0.000115289
0.000116029
0.000141968
0.000160421
0.000129505
-1.41052e-06
-1.02268e-05
-2.34698e-06
-1.74398e-05
-2.18412e-07
-1.65746e-05
5.74953e-06
-8.64637e-06
1.71367e-05
5.55036e-06
3.59902e-05
2.76657e-05
6.02285e-05
5.76109e-05
8.53887e-05
9.01287e-05
0.000107961
0.000119396
0.000142363
0.000126019
-2.39803e-06
-7.8288e-06
-4.58453e-06
-1.52533e-05
-3.85169e-06
-1.73075e-05
7.11464e-07
-1.32095e-05
9.5082e-06
-3.24638e-06
2.43233e-05
1.28506e-05
4.56842e-05
3.625e-05
7.06629e-05
6.515e-05
9.55071e-05
9.45515e-05
0.000120324
0.000117547
-2.79488e-06
-5.03392e-06
-5.57074e-06
-1.24775e-05
-5.98465e-06
-1.68935e-05
-2.90562e-06
-1.62886e-05
3.73709e-06
-9.88909e-06
1.46169e-05
1.97075e-06
3.12834e-05
1.95835e-05
5.30911e-05
4.33423e-05
7.71501e-05
7.04926e-05
9.68752e-05
0.000100598
-2.43902e-06
-2.5949e-06
-5.35777e-06
-9.55873e-06
-6.26139e-06
-1.59899e-05
-4.08404e-06
-1.84659e-05
1.09993e-06
-1.50731e-05
9.43289e-06
-6.3622e-06
2.20764e-05
6.93999e-06
4.00225e-05
2.53962e-05
6.20771e-05
4.84379e-05
7.32781e-05
8.56742e-05
-1.17381e-06
-1.42108e-06
-2.56431e-06
-8.16823e-06
-2.73507e-06
-1.58192e-05
-1.19183e-06
-2.00091e-05
2.54153e-06
-1.88064e-05
8.65839e-06
-1.24791e-05
1.76634e-05
-2.06501e-06
3.08954e-05
1.21642e-05
4.88563e-05
3.0477e-05
5.19131e-05
7.02213e-05
-1.70571e-07
-1.25051e-06
4.6092e-07
-8.79972e-06
2.07469e-06
-1.74329e-05
4.35516e-06
-2.22896e-05
7.49507e-06
-2.19463e-05
1.19187e-05
-1.69027e-05
1.81087e-05
-8.25497e-06
2.70522e-05
3.22068e-06
3.99339e-05
1.75953e-05
3.48924e-05
5.69546e-05
7.28527e-07
-1.97904e-06
3.31575e-06
-1.1387e-05
6.72749e-06
-2.08447e-05
1.01436e-05
-2.57057e-05
1.34872e-05
-2.52899e-05
1.70838e-05
-2.04993e-05
2.14075e-05
-1.25787e-05
2.71927e-05
-2.56448e-06
3.56511e-05
9.13689e-06
2.27845e-05
4.77591e-05
1.62249e-06
-3.60153e-06
5.72074e-06
-1.54852e-05
1.0172e-05
-2.52959e-05
1.41366e-05
-2.96704e-05
1.76793e-05
-2.88326e-05
2.10589e-05
-2.38789e-05
2.4618e-05
-1.61378e-05
2.8792e-05
-6.73849e-06
3.43624e-05
3.56648e-06
1.47199e-05
4.2427e-05
2.47767e-06
-6.0792e-06
7.2085e-06
-2.0216e-05
1.1674e-05
-2.97614e-05
1.54502e-05
-3.34466e-05
1.88206e-05
-3.2203e-05
2.19795e-05
-2.70378e-05
2.51893e-05
-1.93476e-05
2.87859e-05
-1.03351e-05
3.31131e-05
-7.60719e-07
9.01567e-06
3.88174e-05
3.05491e-06
-9.13412e-06
7.26659e-06
-2.44277e-05
1.08726e-05
-3.33673e-05
1.39612e-05
-3.65353e-05
1.68666e-05
-3.51084e-05
1.96471e-05
-2.98183e-05
2.25006e-05
-2.22012e-05
2.57432e-05
-1.35776e-05
2.96439e-05
-4.66148e-06
4.25052e-06
3.44091e-05
2.87478e-06
-1.20089e-05
5.60727e-06
-2.71602e-05
7.8716e-06
-3.56317e-05
1.00384e-05
-3.87021e-05
1.22989e-05
-3.73689e-05
1.46077e-05
-3.21271e-05
1.70698e-05
-2.46634e-05
1.99627e-05
-1.64705e-05
2.35274e-05
-8.22621e-06
-1.13375e-07
2.78913e-05
1.7083e-06
-1.37172e-05
2.42054e-06
-2.78724e-05
3.10307e-06
-3.63142e-05
4.21864e-06
-3.98176e-05
5.75886e-06
-3.89091e-05
7.53227e-06
-3.39005e-05
9.61782e-06
-2.67489e-05
1.21865e-05
-1.90392e-05
1.53826e-05
-1.14223e-05
-4.05601e-06
1.93253e-05
-1.70094e-07
-1.35471e-05
-1.62858e-06
-2.6414e-05
-2.79642e-06
-3.51464e-05
-2.98224e-06
-3.96318e-05
-2.28573e-06
-3.96057e-05
-1.09079e-06
-3.50954e-05
6.57289e-07
-2.8497e-05
2.92199e-06
-2.13039e-05
5.74369e-06
-1.4244e-05
-7.5044e-06
9.19209e-06
-2.2053e-06
-1.13418e-05
-5.80149e-06
-2.28178e-05
-8.99991e-06
-3.19479e-05
-1.08853e-05
-3.77464e-05
-1.14664e-05
-3.90246e-05
-1.08707e-05
-3.56911e-05
-9.48842e-06
-2.98793e-05
-7.56187e-06
-2.32304e-05
-5.15254e-06
-1.66533e-05
-1.04212e-05
-2.23573e-06
-3.83687e-06
-7.50493e-06
-9.32997e-06
-1.73247e-05
-1.46131e-05
-2.66649e-05
-1.8621e-05
-3.37384e-05
-2.09082e-05
-3.67374e-05
-2.12836e-05
-3.53157e-05
-2.05188e-05
-3.0644e-05
-1.90478e-05
-2.47015e-05
-1.71158e-05
-1.85853e-05
-1.2758e-05
-1.4779e-05
-4.46669e-06
-3.03825e-06
-1.10919e-05
-1.06994e-05
-1.82592e-05
-1.94976e-05
-2.46948e-05
-2.73028e-05
-2.92614e-05
-3.21709e-05
-3.15304e-05
-3.30467e-05
-3.19508e-05
-3.02237e-05
-3.12584e-05
-2.53938e-05
-2.99434e-05
-1.99002e-05
-1.44742e-05
-2.82273e-05
-3.53048e-06
4.92229e-07
-9.95684e-06
-4.27305e-06
-1.81402e-05
-1.13143e-05
-2.68281e-05
-1.86149e-05
-3.43808e-05
-2.46182e-05
-3.96493e-05
-2.77782e-05
-4.23916e-05
-2.74814e-05
-4.33427e-05
-2.44427e-05
-4.31607e-05
-2.00822e-05
-1.53551e-05
-4.22798e-05
-1.38599e-06
1.87822e-06
-5.73492e-06
7.58696e-08
-1.3035e-05
-4.01415e-06
-2.2581e-05
-9.06895e-06
-3.28442e-05
-1.43549e-05
-4.19179e-05
-1.87045e-05
-4.8496e-05
-2.09033e-05
-5.25465e-05
-2.03922e-05
-5.48444e-05
-1.77843e-05
-1.43108e-05
-5.58888e-05
6.59609e-07
1.21861e-06
-2.95056e-07
1.03053e-06
-4.17488e-06
-1.34327e-07
-1.14051e-05
-1.8387e-06
-2.15586e-05
-4.20147e-06
-3.31499e-05
-7.11322e-06
-4.40741e-05
-9.97904e-06
-5.28315e-05
-1.16348e-05
-5.9334e-05
-1.12818e-05
-9.6206e-06
-6.40242e-05
1.21861e-06
2.24915e-06
2.11482e-06
2.76126e-07
-3.92535e-06
-1.10386e-05
-2.10176e-05
-3.26524e-05
-4.39342e-05
-5.35548e-05
-2.43923e-05
3.70165e-05
-2.15397e-05
-2.85266e-06
-1.57235e-05
-5.81622e-06
-9.70238e-06
-6.0211e-06
-3.60112e-06
-6.10126e-06
2.09849e-06
-5.69961e-06
7.01878e-06
-4.92029e-06
1.1033e-05
-4.01423e-06
1.40064e-05
-2.97334e-06
1.57606e-05
-1.75425e-06
1.63086e-05
-5.48017e-07
1.57313e-05
5.77293e-07
1.41819e-05
1.54947e-06
1.1882e-05
2.29991e-06
9.15765e-06
2.72431e-06
6.52286e-06
2.63479e-06
4.27703e-06
2.24583e-06
2.55901e-06
1.71802e-06
1.36496e-06
1.19405e-06
5.85193e-07
7.79763e-07
1.11203e-07
4.7399e-07
-1.27522e-07
2.38725e-07
-1.83278e-07
5.57561e-08
-1.09855e-07
-7.34239e-08
-1.09855e-07
-1.01648e-05
6.13972e-05
-1.80256e-05
5.00816e-06
-1.69955e-05
-6.84626e-06
-1.26706e-05
-1.0346e-05
-7.21284e-06
-1.15591e-05
-1.50211e-06
-1.14103e-05
3.86539e-06
-1.02878e-05
8.45512e-06
-8.60396e-06
1.21673e-05
-6.68556e-06
1.50605e-05
-4.64743e-06
1.7116e-05
-2.60354e-06
1.8293e-05
-5.99691e-07
1.85739e-05
1.26857e-06
1.80023e-05
2.87156e-06
1.65632e-05
4.16337e-06
1.42631e-05
4.93486e-06
1.14157e-05
5.09327e-06
8.46016e-06
4.67355e-06
5.78032e-06
3.8739e-06
3.62491e-06
2.93517e-06
2.05983e-06
2.03907e-06
1.01818e-06
1.28037e-06
3.86673e-07
6.87266e-07
7.23413e-08
2.40907e-07
-3.75135e-08
-5.94117e-07
8.32541e-05
-1.27515e-05
1.71656e-05
-1.52549e-05
-4.34287e-06
-1.34579e-05
-1.2143e-05
-9.90816e-06
-1.51088e-05
-5.7114e-06
-1.56071e-05
-1.49614e-06
-1.45031e-05
2.31036e-06
-1.24105e-05
5.53536e-06
-9.91057e-06
8.20856e-06
-7.32062e-06
1.04112e-05
-4.80616e-06
1.22414e-05
-2.42991e-06
1.36751e-05
-1.65147e-07
1.45556e-05
1.99103e-06
1.47398e-05
3.97924e-06
1.41252e-05
5.54944e-06
1.27351e-05
6.48338e-06
1.06468e-05
6.76181e-06
8.27266e-06
6.24806e-06
5.93765e-06
5.27018e-06
3.90461e-06
4.07211e-06
2.29304e-06
2.89194e-06
1.1113e-06
1.86901e-06
3.31926e-07
1.02028e-06
2.94412e-07
7.51329e-06
0.000104165
-7.84314e-06
3.2522e-05
-1.34951e-05
1.30904e-06
-1.40622e-05
-1.15758e-05
-1.22447e-05
-1.69263e-05
-9.51218e-06
-1.83397e-05
-6.44446e-06
-1.75708e-05
-3.53228e-06
-1.53226e-05
-9.30238e-07
-1.25126e-05
1.33077e-06
-9.58163e-06
3.28566e-06
-6.76105e-06
4.99617e-06
-4.14042e-06
6.54265e-06
-1.71162e-06
7.94059e-06
5.93085e-07
9.10793e-06
2.8119e-06
9.80631e-06
4.85106e-06
9.83909e-06
6.4506e-06
9.17249e-06
7.42841e-06
7.89231e-06
7.52824e-06
6.26071e-06
6.90178e-06
4.5264e-06
5.80642e-06
2.90614e-06
4.5122e-06
1.53408e-06
3.24107e-06
5.0103e-07
2.05333e-06
7.95443e-07
1.64252e-05
0.000123466
-2.11983e-06
5.10671e-05
-1.10358e-05
1.0225e-05
-1.42514e-05
-8.36018e-06
-1.43168e-05
-1.68609e-05
-1.3117e-05
-1.95395e-05
-1.12912e-05
-1.93965e-05
-9.31763e-06
-1.72962e-05
-7.38152e-06
-1.44487e-05
-5.54255e-06
-1.14206e-05
-3.81626e-06
-8.48734e-06
-2.18832e-06
-5.76836e-06
-6.21382e-07
-3.27856e-06
9.41574e-07
-9.69872e-07
2.50239e-06
1.25108e-06
3.94147e-06
3.41198e-06
5.03111e-06
5.36096e-06
5.64505e-06
6.81446e-06
5.5882e-06
7.58509e-06
4.97571e-06
7.51427e-06
3.9451e-06
6.83703e-06
2.72334e-06
5.73396e-06
1.51184e-06
4.45257e-06
5.07194e-07
3.05797e-06
1.30264e-06
2.61219e-05
0.000140556
5.56271e-06
7.16262e-05
-7.02343e-06
2.28111e-05
-1.3265e-05
-2.11864e-06
-1.57611e-05
-1.43648e-05
-1.62815e-05
-1.90191e-05
-1.59354e-05
-1.97426e-05
-1.51338e-05
-1.80978e-05
-1.40099e-05
-1.55727e-05
-1.2646e-05
-1.27845e-05
-1.11094e-05
-1.00239e-05
-9.44558e-06
-7.4322e-06
-7.68914e-06
-5.035e-06
-5.85209e-06
-2.80692e-06
-3.922e-06
-6.79011e-07
-1.92876e-06
1.41874e-06
-2.05626e-08
3.45277e-06
1.55419e-06
5.2397e-06
2.58439e-06
6.55489e-06
2.94449e-06
7.15417e-06
2.72043e-06
7.06109e-06
2.0529e-06
6.4015e-06
1.18855e-06
5.31692e-06
3.96411e-07
3.85011e-06
1.69905e-06
3.62385e-05
0.00015507
1.50987e-05
9.2766e-05
-1.13851e-06
3.90483e-05
-1.06262e-05
7.36908e-06
-1.5946e-05
-9.04502e-06
-1.86986e-05
-1.62665e-05
-2.0241e-05
-1.82002e-05
-2.0953e-05
-1.73858e-05
-2.09623e-05
-1.55634e-05
-2.0334e-05
-1.34128e-05
-1.91254e-05
-1.12325e-05
-1.74134e-05
-9.14412e-06
-1.52915e-05
-7.15699e-06
-1.28649e-05
-5.23345e-06
-1.02371e-05
-3.30681e-06
-7.49204e-06
-1.32634e-06
-4.75161e-06
7.12339e-07
-2.24695e-06
2.73505e-06
-2.48376e-07
4.55631e-06
9.90391e-07
5.91541e-06
1.47524e-06
6.57624e-06
1.33554e-06
6.5412e-06
8.24157e-07
5.8283e-06
2.73e-07
4.40127e-06
1.97205e-06
4.64349e-05
0.000166822
2.59746e-05
0.000113226
6.79341e-06
5.82295e-05
-6.18188e-06
2.03444e-05
-1.44994e-05
-7.27552e-07
-1.98942e-05
-1.08717e-05
-2.36794e-05
-1.4415e-05
-2.63564e-05
-1.47088e-05
-2.80691e-05
-1.38507e-05
-2.87708e-05
-1.2711e-05
-2.84101e-05
-1.15933e-05
-2.70683e-05
-1.04859e-05
-2.4779e-05
-9.44627e-06
-2.16825e-05
-8.33e-06
-1.79901e-05
-6.99915e-06
-1.39684e-05
-5.34804e-06
-9.91021e-06
-3.3459e-06
-6.11917e-06
-1.05599e-06
-2.92787e-06
1.36502e-06
-6.38551e-07
3.62609e-06
5.9045e-07
5.34724e-06
9.18435e-07
6.21321e-06
6.64983e-07
6.08175e-06
2.37392e-07
4.82886e-06
2.20944e-06
5.64434e-05
0.000175795
3.7698e-05
0.000131972
1.67857e-05
7.91419e-05
3.77624e-07
3.67524e-05
-1.10768e-05
1.07269e-05
-1.92558e-05
-2.69261e-06
-2.55029e-05
-8.16796e-06
-3.052e-05
-9.69173e-06
-3.44514e-05
-9.91927e-06
-3.71887e-05
-9.97369e-06
-3.85813e-05
-1.02008e-05
-3.85131e-05
-1.05541e-05
-3.69177e-05
-1.10416e-05
-3.38222e-05
-1.14255e-05
-2.93933e-05
-1.14281e-05
-2.39572e-05
-1.07841e-05
-1.79808e-05
-9.32232e-06
-1.20502e-05
-6.98655e-06
-6.80335e-06
-3.88186e-06
-2.78912e-06
-3.88138e-07
-3.0931e-07
2.86743e-06
7.07934e-07
5.19597e-06
7.20702e-07
6.06898e-06
3.19234e-07
5.23032e-06
2.52867e-06
6.60935e-05
0.00018218
4.98493e-05
0.000148216
2.85556e-05
0.000100436
9.28692e-06
5.60211e-05
-5.28195e-06
2.52957e-05
-1.61928e-05
8.2182e-06
-2.48317e-05
4.70973e-07
-3.21396e-05
-2.38386e-06
-3.84128e-05
-3.64601e-06
-4.35273e-05
-4.85922e-06
-4.72796e-05
-6.44843e-06
-4.94043e-05
-8.42941e-06
-4.97246e-05
-1.07214e-05
-4.79927e-05
-1.31574e-05
-4.41425e-05
-1.52782e-05
-3.8352e-05
-1.65746e-05
-3.09792e-05
-1.66951e-05
-2.26715e-05
-1.52943e-05
-1.43878e-05
-1.21655e-05
-7.29157e-06
-7.48442e-06
-2.34097e-06
-2.08317e-06
1.70881e-07
2.68412e-06
7.97378e-07
5.44249e-06
4.54326e-07
5.57337e-06
2.983e-06
7.53699e-05
0.000186261
6.20954e-05
0.00016149
4.17377e-05
0.000120793
2.06468e-05
7.71121e-05
3.20444e-06
4.27381e-05
-1.01589e-05
2.15815e-05
-2.07731e-05
1.10853e-05
-2.984e-05
6.683e-06
-3.79639e-05
4.47787e-06
-4.51212e-05
2.29813e-06
-5.105e-05
-5.19693e-07
-5.54635e-05
-4.01593e-06
-5.81547e-05
-8.03007e-06
-5.89655e-05
-1.23466e-05
-5.75322e-05
-1.67115e-05
-5.34152e-05
-2.06917e-05
-4.66096e-05
-2.35006e-05
-3.75295e-05
-2.43745e-05
-2.69451e-05
-2.27499e-05
-1.6195e-05
-1.82346e-05
-7.19316e-06
-1.1085e-05
-1.56909e-06
-2.93995e-06
5.08455e-07
3.36494e-06
4.95115e-07
5.58671e-06
3.47812e-06
8.42323e-05
0.000188333
7.41845e-05
0.000171538
5.59509e-05
0.000139027
3.43434e-05
9.87196e-05
1.46202e-05
6.24613e-05
-1.03468e-06
3.72364e-05
-1.32063e-05
2.32569e-05
-2.32948e-05
1.67715e-05
-3.23118e-05
1.34949e-05
-4.05784e-05
1.05647e-05
-4.79414e-05
6.84333e-06
-5.41209e-05
2.16352e-06
-5.88371e-05
-3.31382e-06
-6.18595e-05
-9.32423e-06
-6.30511e-05
-1.552e-05
-6.21186e-05
-2.16242e-05
-5.84584e-05
-2.71609e-05
-5.15384e-05
-3.12944e-05
-4.14244e-05
-3.28639e-05
-2.89464e-05
-3.07125e-05
-1.60512e-05
-2.39802e-05
-5.74883e-06
-1.32423e-05
-5.0234e-07
-1.88155e-06
4.9966e-07
4.58471e-06
3.97778e-06
9.26269e-05
0.000188818
8.58471e-05
0.000178318
7.07162e-05
0.000154158
5.00334e-05
0.000119402
2.8973e-05
8.35217e-05
1.11826e-05
5.50268e-05
-2.53773e-06
3.69772e-05
-1.32973e-05
2.75311e-05
-2.24877e-05
2.26852e-05
-3.08732e-05
1.89503e-05
-3.86283e-05
1.45984e-05
-4.56543e-05
9.18952e-06
-5.1789e-05
2.82087e-06
-5.68357e-05
-4.27752e-06
-6.05044e-05
-1.18512e-05
-6.24648e-05
-1.96638e-05
-6.21104e-05
-2.75153e-05
-5.87208e-05
-3.46841e-05
-5.18701e-05
-3.97145e-05
-4.11776e-05
-4.14051e-05
-2.72573e-05
-3.79005e-05
-1.30103e-05
-2.74892e-05
-2.93907e-06
-1.19528e-05
2.53101e-07
1.39254e-06
4.23088e-06
0.000100614
0.000188152
9.68258e-05
0.000182106
8.54174e-05
0.000165566
6.70723e-05
0.000137747
4.59526e-05
0.000104641
2.64869e-05
7.44925e-05
1.09556e-05
5.25086e-05
-7.23519e-07
3.92102e-05
-9.91568e-06
3.18774e-05
-1.78642e-05
2.68989e-05
-2.5131e-05
2.18651e-05
-3.18416e-05
1.59001e-05
-3.80098e-05
8.98906e-06
-4.36179e-05
1.33057e-06
-4.85735e-05
-6.89561e-06
-5.26606e-05
-1.55767e-05
-5.56002e-05
-2.45757e-05
-5.67031e-05
-3.35812e-05
-5.44189e-05
-4.19987e-05
-4.77265e-05
-4.80975e-05
-3.63744e-05
-4.92526e-05
-2.13792e-05
-4.24844e-05
-7.22624e-06
-2.61058e-05
-3.32608e-07
-5.50109e-06
3.89827e-06
0.000108242
0.000186643
0.000106953
0.000183396
9.94199e-05
0.000173099
8.45664e-05
0.000152601
6.48751e-05
0.000124333
4.46383e-05
9.47294e-05
2.72582e-05
6.98886e-05
1.39578e-05
5.25106e-05
4.10158e-06
4.17336e-05
-3.72683e-06
3.47273e-05
-1.06017e-05
2.874e-05
-1.69802e-05
2.22786e-05
-2.29811e-05
1.49899e-05
-2.86426e-05
6.99212e-06
-3.39596e-05
-1.57864e-06
-3.88493e-05
-1.0687e-05
-4.31234e-05
-2.03015e-05
-4.63472e-05
-3.03573e-05
-4.78144e-05
-4.05315e-05
-4.61426e-05
-4.97693e-05
-3.96942e-05
-5.5701e-05
-2.75428e-05
-5.46359e-05
-1.22726e-05
-4.1376e-05
-1.42365e-06
-1.635e-05
2.47462e-06
0.000115591
0.000184419
0.000116136
0.00018285
0.000112195
0.00017704
0.000101519
0.000163277
8.47152e-05
0.000141136
6.5054e-05
0.000114391
4.63433e-05
8.85994e-05
3.10059e-05
6.7848e-05
1.95076e-05
5.32319e-05
1.08984e-05
4.33365e-05
3.87572e-06
3.57626e-05
-2.44469e-06
2.8599e-05
-8.42509e-06
2.09703e-05
-1.41541e-05
1.27212e-05
-1.96281e-05
3.89533e-06
-2.4818e-05
-5.49712e-06
-2.96241e-05
-1.54954e-05
-3.38945e-05
-2.6087e-05
-3.7263e-05
-3.7163e-05
-3.87786e-05
-4.82537e-05
-3.67256e-05
-5.7754e-05
-2.92326e-05
-6.21289e-05
-1.59062e-05
-5.47024e-05
-2.95678e-06
-2.92995e-05
-4.82162e-07
0.000122625
0.00018142
0.00012446
0.000181016
0.000123459
0.000178041
0.000117031
0.000169705
0.000104229
0.000153939
8.67295e-05
0.00013189
6.78687e-05
0.00010746
5.07576e-05
8.49591e-05
3.70207e-05
6.69687e-05
2.66368e-05
5.37204e-05
1.85961e-05
4.38033e-05
1.1792e-05
3.54032e-05
5.53853e-06
2.72237e-05
-4.23098e-07
1.86828e-05
-6.14224e-06
9.61447e-06
-1.16046e-05
-3.47198e-08
-1.67515e-05
-1.03485e-05
-2.14714e-05
-2.13672e-05
-2.5613e-05
-3.30213e-05
-2.87695e-05
-4.50973e-05
-2.96628e-05
-5.68606e-05
-2.64573e-05
-6.53343e-05
-1.69151e-05
-6.42446e-05
-4.1997e-06
-4.20148e-05
-4.68186e-06
0.00012912
0.000177351
0.000132039
0.000178097
0.000133179
0.000176901
0.000130503
0.00017238
0.000122189
0.000162253
0.000108283
0.000145796
9.09175e-05
0.000124825
7.31157e-05
0.000102761
5.73113e-05
8.27731e-05
4.45577e-05
6.64741e-05
3.46111e-05
5.37499e-05
2.65719e-05
4.34423e-05
1.95626e-05
3.42331e-05
1.30577e-05
2.51877e-05
6.85755e-06
1.58146e-05
9.44738e-07
5.87809e-06
-4.64877e-06
-4.75499e-06
-9.83016e-06
-1.61858e-05
-1.44884e-05
-2.8363e-05
-1.84993e-05
-4.10864e-05
-2.13236e-05
-5.40363e-05
-2.11025e-05
-6.55555e-05
-1.56142e-05
-6.97329e-05
-4.71998e-06
-5.2909e-05
-9.40184e-06
0.000134624
0.000171484
0.000138774
0.000173947
0.000141494
0.000174182
0.000141745
0.000172129
0.000137688
0.00016631
0.000128223
0.000155261
0.000114005
0.000139044
9.72056e-05
0.00011956
8.04006e-05
9.95781e-05
6.54723e-05
8.14024e-05
5.31334e-05
6.60887e-05
4.31133e-05
5.34625e-05
3.46927e-05
4.26538e-05
2.71928e-05
3.26875e-05
2.0198e-05
2.28094e-05
1.35393e-05
1.25368e-05
7.22019e-06
1.56408e-06
1.31153e-06
-1.02771e-05
-4.07562e-06
-2.29759e-05
-8.90439e-06
-3.62576e-05
-1.30832e-05
-4.98575e-05
-1.5279e-05
-6.33597e-05
-1.32108e-05
-7.18011e-05
-5.11868e-06
-6.10011e-05
-1.45205e-05
0.000138236
0.000162753
0.000144248
0.000167934
0.000148479
0.000169951
0.000150895
0.000169713
0.000150334
0.000166871
0.000145351
0.000160244
0.0001354
0.000148995
0.0001214
0.00013356
0.000105337
0.000115641
8.93423e-05
9.73969e-05
7.49022e-05
8.05289e-05
6.25644e-05
6.58003e-05
5.21278e-05
5.30903e-05
4.30515e-05
4.17639e-05
3.48271e-05
3.10338e-05
2.71124e-05
2.02515e-05
1.9749e-05
8.9275e-06
1.27048e-05
-3.23297e-06
6.04856e-06
-1.63196e-05
-8.97904e-08
-3.01193e-05
-5.71973e-06
-4.42276e-05
-1.04207e-05
-5.86588e-05
-1.14187e-05
-7.08031e-05
-5.92193e-06
-6.64978e-05
-2.04425e-05
0.000138645
0.000150126
0.000147551
0.000159029
0.000153804
0.000163697
0.000158099
0.000165418
0.000160203
0.000164767
0.000159071
0.000161376
0.000153649
0.000154417
0.000143737
0.000143472
0.000130289
0.00012909
0.000115014
0.000112672
9.966e-05
9.58825e-05
8.54415e-05
8.00188e-05
7.28375e-05
6.56944e-05
6.17487e-05
5.28527e-05
5.18415e-05
4.09409e-05
4.27084e-05
2.93846e-05
3.3948e-05
1.76879e-05
2.52865e-05
5.42857e-06
1.66584e-05
-7.69154e-06
8.21183e-06
-2.16727e-05
5.45519e-08
-3.60703e-05
-7.84976e-06
-5.07545e-05
-1.32959e-05
-6.5357e-05
-1.03717e-05
-6.9422e-05
-3.08142e-05
0.000134494
0.00013318
0.00014728
0.000146243
0.000156509
0.000154468
0.000163064
0.000158863
0.000167436
0.000160395
0.000169347
0.000159465
0.000167957
0.000155807
0.000162529
0.000148901
0.000153047
0.000138572
0.000140377
0.000125342
0.000125931
0.000110328
0.00011114
9.48103e-05
9.70283e-05
7.98059e-05
8.40565e-05
6.58245e-05
7.22081e-05
5.27893e-05
6.12189e-05
4.03738e-05
5.06897e-05
2.82171e-05
4.01704e-05
1.59479e-05
2.92446e-05
3.23422e-06
1.76987e-05
-1.01268e-05
5.51956e-06
-2.38911e-05
-7.65805e-06
-3.75768e-05
-2.08873e-05
-5.21278e-05
-2.58265e-05
-6.44827e-05
-5.66407e-05
0.000120392
0.000113387
0.000136643
0.000129992
0.000149137
0.000141973
0.000158344
0.000149657
0.000164926
0.000153813
0.000169223
0.000155167
0.000171004
0.000154026
0.000169662
0.000150243
0.000164714
0.00014352
0.000156239
0.000133818
0.000144927
0.00012164
0.000131874
0.000107863
0.000118224
9.34563e-05
0.000104812
7.92368e-05
9.19609e-05
6.56399e-05
7.9695e-05
5.26398e-05
6.78367e-05
4.00754e-05
5.60204e-05
2.77642e-05
4.37257e-05
1.55289e-05
3.03556e-05
3.24328e-06
1.54197e-05
-8.95528e-06
-1.79494e-06
-2.03622e-05
-2.28222e-05
-3.11006e-05
-4.69029e-05
-4.0402e-05
-3.55597e-05
-6.7984e-05
0.000107434
9.16271e-05
0.00012693
0.000110496
0.000143175
0.000125728
0.000155927
0.000136905
0.000165508
0.000144232
0.000172407
0.000148267
0.000176875
0.000149558
0.000178714
0.000148404
0.000177575
0.000144658
0.000173166
0.000138227
0.000165489
0.000129317
0.000155127
0.000118225
0.000142982
0.000105601
0.000129975
9.22441e-05
0.000116734
7.88814e-05
0.000103529
6.58443e-05
9.04249e-05
5.31797e-05
7.73115e-05
4.08776e-05
6.39068e-05
2.89336e-05
4.97942e-05
1.73559e-05
3.46127e-05
6.22616e-06
1.8364e-05
-4.11346e-06
4.4148e-07
-1.3178e-05
-1.98705e-05
-2.00899e-05
-2.12891e-05
-3.41412e-05
9.17899e-05
7.00585e-05
0.000112868
8.94174e-05
0.000132016
0.00010658
0.000148299
0.000120623
0.000161393
0.000131138
0.000171462
0.000138198
0.00017885
0.00014217
0.000183848
0.000143407
0.000186144
0.000142362
0.000185354
0.000139016
0.000181537
0.000133134
0.000174789
0.000124974
0.000165517
0.000114872
0.000154393
0.000103368
0.000142154