/*--------------------------------*- C++ -*----------------------------------*\
| =========                 |                                                 |
| \\      /  F ield         | OpenFOAM: The Open Source CFD Toolbox           |
|  \\    /   O peration     | Version:  v2012                                 |
|   \\  /    A nd           | Website:  www.openfoam.com                      |
|    \\/     M anipulation  |                                                 |
\*---------------------------------------------------------------------------*/
FoamFile
{
    version     2.0;
    format      ascii;
    class       volVectorField;
    location    "399";
    object      U;
}
// * * * * * * * * * * * * * * * * * * * * * * * * * * * * * * * * * * * * * //

dimensions      [0 1 -1 0 0 0 0];


internalField   nonuniform List<vector> 
6508
(
(0.00333998 -0.988259 0)
(0.00722869 -1.00146 0)
(0.00406563 -1.00091 0)
(0.00187968 -1.00054 0)
(0.000578051 -1.00043 0)
(-0.000528809 -1.00043 0)
(-0.00183603 -1.00054 0)
(-0.00403149 -1.00092 0)
(-0.00721029 -1.00146 0)
(-0.00332851 -0.988265 0)
(0.0091804 -0.97838 0)
(0.0144202 -1.00749 0)
(0.00839442 -1.00508 0)
(0.0046478 -1.00335 0)
(0.00153907 -1.00272 0)
(-0.00138444 -1.00273 0)
(-0.00450777 -1.00337 0)
(-0.00828207 -1.00511 0)
(-0.0143396 -1.0075 0)
(-0.00915543 -0.978428 0)
(0.0121592 -0.963402 0)
(0.0141793 -1.01126 0)
(0.0100091 -1.01063 0)
(0.00601488 -1.0084 0)
(0.00207508 -1.00728 0)
(-0.00179416 -1.00729 0)
(-0.00575875 -1.00845 0)
(-0.00979958 -1.01071 0)
(-0.0140385 -1.01138 0)
(-0.0121044 -0.963537 0)
(0.0128516 -0.945813 0)
(0.0142009 -1.01231 0)
(0.0108185 -1.01565 0)
(0.00674129 -1.01394 0)
(0.00239045 -1.01273 0)
(-0.00194568 -1.01277 0)
(-0.00633392 -1.01405 0)
(-0.0104839 -1.01582 0)
(-0.0139469 -1.01255 0)
(-0.0127563 -0.946107 0)
(0.0130375 -0.928372 0)
(0.0142394 -1.01297 0)
(0.011297 -1.02017 0)
(0.0072097 -1.01941 0)
(0.00263814 -1.01837 0)
(-0.00197374 -1.01844 0)
(-0.00659917 -1.0196 0)
(-0.0107915 -1.02047 0)
(-0.0138653 -1.01339 0)
(-0.0128853 -0.928931 0)
(0.0129852 -0.91152 0)
(0.0141386 -1.01352 0)
(0.0115478 -1.02453 0)
(0.00750924 -1.02488 0)
(0.00285925 -1.02415 0)
(-0.00189039 -1.02425 0)
(-0.0066146 -1.02518 0)
(-0.0107935 -1.025 0)
(-0.013612 -1.01422 0)
(-0.0127495 -0.912473 0)
(0.0128135 -0.895009 0)
(0.0140162 -1.01386 0)
(0.0115824 -1.02867 0)
(0.00769546 -1.03032 0)
(0.00307686 -1.03001 0)
(-0.00168937 -1.03017 0)
(-0.00641657 -1.03078 0)
(-0.0105387 -1.02944 0)
(-0.0132484 -1.01496 0)
(-0.0124603 -0.896535 0)
(0.0125922 -0.878704 0)
(0.0139299 -1.01399 0)
(0.0115239 -1.03296 0)
(0.00785643 -1.03562 0)
(0.00335012 -1.03582 0)
(-0.00136253 -1.03607 0)
(-0.00603596 -1.03634 0)
(-0.010069 -1.03396 0)
(-0.0128193 -1.01562 0)
(-0.0120823 -0.881059 0)
(0.0123716 -0.862574 0)
(0.0138465 -1.01396 0)
(0.0116801 -1.03684 0)
(0.00815668 -1.04073 0)
(0.00376744 -1.0415 0)
(-0.00088562 -1.04187 0)
(-0.00549908 -1.0418 0)
(-0.00944369 -1.03844 0)
(-0.0123042 -1.01632 0)
(-0.0116304 -0.86613 0)
(0.0122229 -0.846556 0)
(0.0138379 -1.01374 0)
(0.0120758 -1.04024 0)
(0.00863547 -1.04568 0)
(0.00436408 -1.04706 0)
(-0.000236139 -1.04758 0)
(-0.00480831 -1.0472 0)
(-0.0087603 -1.04288 0)
(-0.0116434 -1.01718 0)
(-0.0111137 -0.851861 0)
(0.0121893 -0.830504 0)
(0.0140238 -1.01325 0)
(0.0126349 -1.0435 0)
(0.00930231 -1.05048 0)
(0.00517555 -1.05253 0)
(0.000639714 -1.05325 0)
(-0.00390874 -1.05262 0)
(-0.00796106 -1.04714 0)
(-0.0108064 -1.01825 0)
(-0.0105517 -0.838368 0)
(0.0122843 -0.814206 0)
(0.0144665 -1.01237 0)
(0.0134388 -1.04651 0)
(0.0102591 -1.05506 0)
(0.00630365 -1.05787 0)
(0.00185024 -1.05889 0)
(-0.0026777 -1.05808 0)
(-0.00685945 -1.0516 0)
(-0.00980987 -1.01959 0)
(-0.00991337 -0.825791 0)
(0.0125342 -0.797399 0)
(0.0152213 -1.01101 0)
(0.0146041 -1.0492 0)
(0.011641 -1.05938 0)
(0.00788356 -1.06305 0)
(0.003523 -1.06446 0)
(-0.00100159 -1.0636 0)
(-0.00534609 -1.05628 0)
(-0.00856571 -1.02131 0)
(-0.00913707 -0.814338 0)
(0.01299 -0.779744 0)
(0.0163813 -1.00902 0)
(0.0162721 -1.05147 0)
(0.0135999 -1.0634 0)
(0.0100746 -1.06803 0)
(0.00581759 -1.06999 0)
(0.00127082 -1.06921 0)
(-0.0032781 -1.06127 0)
(-0.00692908 -1.02356 0)
(-0.00814975 -0.804337 0)
(0.0137237 -0.760786 0)
(0.0180802 -1.0062 0)
(0.0186169 -1.05322 0)
(0.0163221 -1.06703 0)
(0.0130787 -1.07279 0)
(0.0089485 -1.07546 0)
(0.00435714 -1.07498 0)
(-0.000450979 -1.0667 0)
(-0.00470725 -1.02658 0)
(-0.00687239 -0.796282 0)
(0.01483 -0.739911 0)
(0.0204924 -1.0023 0)
(0.0218525 -1.05429 0)
(0.020041 -1.0702 0)
(0.0171532 -1.07726 0)
(0.0131993 -1.08086 0)
(0.00856531 -1.08096 0)
(0.00344255 -1.0727 0)
(-0.00163323 -1.03071 0)
(-0.00534413 -0.790844 0)
(0.0164305 -0.716303 0)
(0.0238347 -0.996994 0)
(0.0262349 -1.05451 0)
(0.0250356 -1.07278 0)
(0.0226083 -1.08135 0)
(0.0189191 -1.08615 0)
(0.014303 -1.08716 0)
(0.00880634 -1.07951 0)
(0.00270131 -1.03636 0)
(-0.00305064 -0.789095 0)
(0.0186794 -0.688895 0)
(0.0283593 -0.989885 0)
(0.0320373 -1.05366 0)
(0.0316147 -1.0746 0)
(0.0297957 -1.0849 0)
(0.02653 -1.09118 0)
(0.0220795 -1.09353 0)
(0.0162659 -1.08693 0)
(0.00901641 -1.04423 0)
(0.000306899 -0.792335 0)
(0.0217221 -0.656356 0)
(0.0343311 -0.980536 0)
(0.0395338 -1.05149 0)
(0.040086 -1.07545 0)
(0.0390826 -1.08769 0)
(0.0365252 -1.09571 0)
(0.0326178 -1.09984 0)
(0.0270172 -1.09473 0)
(0.0186176 -1.05455 0)
(0.00630926 -0.803913 0)
(0.025813 -0.617012 0)
(0.041948 -0.968409 0)
(0.0489465 -1.04773 0)
(0.0506748 -1.07507 0)
(0.0507412 -1.08935 0)
(0.049327 -1.09919 0)
(0.0463356 -1.10521 0)
(0.0421964 -1.10272 0)
(0.0338626 -1.06669 0)
(0.0133734 -0.825362 0)
(0.0297295 -0.568622 0)
(0.0513072 -0.952961 0)
(0.0605615 -1.04213 0)
(0.0635982 -1.07316 0)
(0.064953 -1.08945 0)
(0.0651658 -1.10104 0)
(0.0640116 -1.10964 0)
(0.0632268 -1.10847 0)
(0.0618463 -1.07591 0)
(0.0482953 -0.858669 0)
(0.0324015 -0.510501 0)
(0.0618853 -0.93075 0)
(0.0742561 -1.03436 0)
(0.0786886 -1.06954 0)
(0.0814243 -1.08759 0)
(0.0833505 -1.10041 0)
(0.0845415 -1.109 0)
(0.0857365 -1.10838 0)
(0.0874021 -1.07901 0)
(0.0788389 -0.884016 0)
(0.0338641 -0.445172 0)
(0.0728174 -0.899609 0)
(0.089393 -1.02393 0)
(0.0953581 -1.0641 0)
(0.0994174 -1.08369 0)
(0.102928 -1.09728 0)
(0.106035 -1.10649 0)
(0.108225 -1.10587 0)
(0.110707 -1.07984 0)
(0.105792 -0.914443 0)
(0.0335748 -0.373455 0)
(0.0829131 -0.857294 0)
(0.105339 -1.01043 0)
(0.113161 -1.05678 0)
(0.118413 -1.07796 0)
(0.123262 -1.09208 0)
(0.127958 -1.10156 0)
(0.131437 -1.10207 0)
(0.134605 -1.07966 0)
(0.13212 -0.946451 0)
(0.0303204 -0.297416 0)
(0.0905664 -0.801423 0)
(0.121219 -0.991654 0)
(0.131785 -1.04746 0)
(0.138179 -1.07069 0)
(0.14418 -1.08526 0)
(0.150214 -1.09505 0)
(0.155184 -1.0972 0)
(0.159134 -1.078 0)
(0.158585 -0.97391 0)
(0.0236621 -0.221635 0)
(0.0939737 -0.730942 0)
(0.13569 -0.964145 0)
(0.150761 -1.03559 0)
(0.158487 -1.06198 0)
(0.165506 -1.07703 0)
(0.172588 -1.08711 0)
(0.17896 -1.09035 0)
(0.183748 -1.07488 0)
(0.185079 -0.995374 0)
(0.0156752 -0.153196 0)
(0.0923203 -0.646335 0)
(0.146989 -0.924245 0)
(0.169367 -1.02006 0)
(0.17919 -1.05182 0)
(0.18714 -1.06753 0)
(0.195072 -1.07787 0)
(0.202582 -1.08212 0)
(0.208264 -1.07045 0)
(0.211371 -1.01121 0)
(0.00907661 -0.0949717 0)
(0.0859792 -0.550526 0)
(0.153769 -0.868204 0)
(0.186679 -0.997363 0)
(0.200135 -1.03949 0)
(0.209088 -1.0569 0)
(0.217716 -1.06751 0)
(0.226162 -1.07269 0)
(0.232636 -1.06451 0)
(0.237202 -1.0217 0)
(0.00573594 -0.047819 0)
(0.076333 -0.447315 0)
(0.155398 -0.795317 0)
(0.20133 -0.964305 0)
(0.2208 -1.02389 0)
(0.231336 -1.04517 0)
(0.240549 -1.05625 0)
(0.249775 -1.06218 0)
(0.256913 -1.05762 0)
(0.262457 -1.02705 0)
(0.00418702 -0.00640793 0)
(0.0642456 -0.342159 0)
(0.151189 -0.706317 0)
(0.211506 -0.91718 0)
(0.240086 -1.00246 0)
(0.253651 -1.03184 0)
(0.263574 -1.04427 0)
(0.273332 -1.05081 0)
(0.281273 -1.04984 0)
(0.287523 -1.02829 0)
(0.00131079 0.023007 0)
(0.0496755 -0.239998 0)
(0.140708 -0.603396 0)
(0.215296 -0.853333 0)
(0.256182 -0.971755 0)
(0.275317 -1.01551 0)
(0.28672 -1.03149 0)
(0.296853 -1.03885 0)
(0.305681 -1.04014 0)
(0.312717 -1.02623 0)
(-0.000737172 0.0384372 0)
(0.0335737 -0.146723 0)
(0.124179 -0.490495 0)
(0.21106 -0.771141 0)
(0.266772 -0.927632 0)
(0.294958 -0.9935 0)
(0.309649 -1.01715 0)
(0.320525 -1.02633 0)
(0.330161 -1.0293 0)
(0.337924 -1.02104 0)
(-0.00174785 0.0491433 0)
(0.0191524 -0.0659955 0)
(0.101971 -0.373305 0)
(0.197569 -0.671095 0)
(0.269324 -0.866101 0)
(0.310414 -0.961827 0)
(0.33139 -0.999351 0)
(0.344201 -1.01278 0)
(0.354742 -1.01743 0)
(0.363286 -1.01424 0)
(-0.00252276 0.053417 0)
(0.00895539 -0.0109641 0)
(0.0768148 -0.259289 0)
(0.174955 -0.556023 0)
(0.261682 -0.784334 0)
(0.318852 -0.915615 0)
(0.350068 -0.974754 0)
(0.367177 -0.996904 0)
(0.379232 -1.0044 0)
(0.388928 -1.00454 0)
(-0.00371612 0.0560141 0)
(0.00416338 0.0248389 0)
(0.0527169 -0.156781 0)
(0.145386 -0.432537 0)
(0.242775 -0.682433 0)
(0.317174 -0.850271 0)
(0.362779 -0.938597 0)
(0.387889 -0.976084 0)
(0.403206 -0.98945 0)
(0.41461 -0.992623 0)
(-0.00463 0.0565206 0)
(0.00327031 0.0504048 0)
(0.0333085 -0.0739289 0)
(0.112486 -0.310181 0)
(0.213228 -0.564506 0)
(0.30301 -0.763243 0)
(0.365892 -0.885467 0)
(0.403515 -0.946008 0)
(0.4253 -0.970516 0)
(0.439719 -0.978269 0)
(-0.00362894 0.0563392 0)
(0.00312203 0.0680174 0)
(0.021499 -0.0161164 0)
(0.0808127 -0.199814 0)
(0.175906 -0.438305 0)
(0.275568 -0.655837 0)
(0.35588 -0.811026 0)
(0.410028 -0.901053 0)
(0.442754 -0.943782 0)
(0.46285 -0.960121 0)
(-0.00130735 0.0573528 0)
(0.00277834 0.0806818 0)
(0.0156621 0.0212508 0)
(0.0552724 -0.110771 0)
(0.13541 -0.314248 0)
(0.236532 -0.533647 0)
(0.330925 -0.714207 0)
(0.40319 -0.835859 0)
(0.451427 -0.903788 0)
(0.481419 -0.934974 0)
(3.2977e-05 0.0593871 0)
(0.00099462 0.0888959 0)
(0.0106689 0.0469581 0)
(0.0371116 -0.0467978 0)
(0.0972937 -0.204335 0)
(0.190378 -0.406099 0)
(0.291559 -0.598612 0)
(0.379957 -0.747585 0)
(0.446466 -0.844589 0)
(0.491172 -0.897552 0)
(-0.000286179 0.0599248 0)
(-0.00373432 0.0919706 0)
(0.00235485 0.0656542 0)
(0.0226726 -0.00267776 0)
(0.0654602 -0.116688 0)
(0.142414 -0.284715 0)
(0.24139 -0.472363 0)
(0.340278 -0.638261 0)
(0.424071 -0.76232 0)
(0.48686 -0.841687 0)
(-0.0014274 0.0556849 0)
(-0.0112482 0.0913826 0)
(-0.00908899 0.078961 0)
(0.00718815 0.0298397 0)
(0.0388884 -0.0519993 0)
(0.0978024 -0.179853 0)
(0.186207 -0.345888 0)
(0.287231 -0.514636 0)
(0.383526 -0.657558 0)
(0.464159 -0.762857 0)
(-0.00317098 0.0453054 0)
(-0.017479 0.0819919 0)
(-0.0198887 0.0855501 0)
(-0.010073 0.0555288 0)
(0.0155697 -0.00369103 0)
(0.0604083 -0.0964432 0)
(0.132444 -0.230025 0)
(0.227126 -0.386661 0)
(0.328134 -0.536545 0)
(0.421956 -0.661061 0)
(-0.00427653 0.0321683 0)
(-0.0205097 0.0698603 0)
(-0.0258966 0.0864021 0)
(-0.0220448 0.0748375 0)
(-0.00169368 0.03426 0)
(0.0327945 -0.0338312 0)
(0.0880039 -0.134452 0)
(0.16883 -0.267315 0)
(0.265792 -0.411622 0)
(0.365337 -0.54476 0)
(-0.00360956 0.0186389 0)
(-0.0182702 0.0549583 0)
(-0.0263835 0.0824838 0)
(-0.0233429 0.0877522 0)
(-0.00856817 0.0635492 0)
(0.0179064 0.0131277 0)
(0.0593469 -0.0617413 0)
(0.121826 -0.166209 0)
(0.206059 -0.29346 0)
(0.301943 -0.424208 0)
(-0.00196827 0.0089744 0)
(-0.0101924 0.0419343 0)
(-0.0117209 0.0778384 0)
(-0.00830758 0.0961239 0)
(0.00141791 0.0856686 0)
(0.0202943 0.048826 0)
(0.0498352 -0.00876623 0)
(0.094264 -0.0880052 0)
(0.158786 -0.190851 0)
(0.241217 -0.30847 0)
(-0.00131983 0.00552979 0)
(-0.00203336 0.0398825 0)
(0.0049456 0.0806588 0)
(0.0140594 0.10436 0)
(0.0246227 0.102186 0)
(0.038466 0.0748489 0)
(0.0585782 0.0280221 0)
(0.0883765 -0.0343395 0)
(0.132594 -0.113909 0)
(0.194387 -0.21043 0)
(-0.000612994 0.00705098 0)
(0.00627585 0.0481193 0)
(0.0205786 0.0936969 0)
(0.0354442 0.118916 0)
(0.0491976 0.118141 0)
(0.0626751 0.094702 0)
(0.0775802 0.0539945 0)
(0.0967193 0.0010359 0)
(0.124848 -0.0624689 0)
(0.166634 -0.138324 0)
(0.000347002 0.0130553 0)
(0.0140161 0.0657902 0)
(0.0328572 0.11476 0)
(0.0504733 0.138507 0)
(0.0656614 0.135778 0)
(0.0795593 0.111945 0)
(0.0932568 0.0733947 0)
(0.108156 0.0251897 0)
(0.126817 -0.0290834 0)
(0.153854 -0.0896293 0)
(0.00194082 0.0234861 0)
(0.0199922 0.0893932 0)
(0.0390494 0.138554 0)
(0.0558847 0.15879 0)
(0.0703029 0.153469 0)
(0.0835167 0.128258 0)
(0.0963503 0.0899383 0)
(0.109962 0.0441903 0)
(0.125537 -0.00539578 0)
(0.145166 -0.0570715 0)
(0.00453717 0.0379353 0)
(0.0220902 0.113286 0)
(0.0371526 0.159714 0)
(0.0507476 0.176456 0)
(0.0628196 0.169424 0)
(0.0745197 0.14317 0)
(0.0859467 0.104871 0)
(0.098205 0.0608314 0)
(0.112638 0.014657 0)
(0.130009 -0.0319761 0)
(0.00644846 0.0538621 0)
(0.0184368 0.131552 0)
(0.0269411 0.174741 0)
(0.0360831 0.189842 0)
(0.0449435 0.182658 0)
(0.0546876 0.155946 0)
(0.0644152 0.118024 0)
(0.0752262 0.0758495 0)
(0.0882946 0.0329801 0)
(0.10446 -0.00947437 0)
(0.00605757 0.0663004 0)
(0.00908369 0.1404 0)
(0.0100899 0.182052 0)
(0.0138109 0.197737 0)
(0.0190972 0.191675 0)
(0.0265805 0.165982 0)
(0.0345919 0.129179 0)
(0.0440942 0.0893236 0)
(0.0558011 0.0497066 0)
(0.0703269 0.0111857 0)
(0.00334055 0.0703652 0)
(-0.00359562 0.138068 0)
(-0.0104739 0.180796 0)
(-0.0137378 0.200046 0)
(-0.012602 0.197092 0)
(-0.00804136 0.173042 0)
(-0.00147345 0.138415 0)
(0.00687061 0.101159 0)
(0.0172643 0.0645975 0)
(0.0300045 0.0295326 0)
(-0.000268491 0.0635284 0)
(-0.0165346 0.124937 0)
(-0.0316533 0.169942 0)
(-0.0431756 0.195873 0)
(-0.047977 0.198799 0)
(-0.0473981 0.177623 0)
(-0.0423643 0.146261 0)
(-0.0353467 0.111593 0)
(-0.0264262 0.0775985 0)
(-0.0155735 0.0453337 0)
(-0.00324827 0.0475109 0)
(-0.0268309 0.101577 0)
(-0.0499916 0.148389 0)
(-0.070573 0.180845 0)
(-0.083716 0.190909 0)
(-0.0886058 0.17869 0)
(-0.0866238 0.152089 0)
(-0.0814731 0.12034 0)
(-0.0743221 0.0885619 0)
(-0.0655713 0.0584848 0)
(-0.00489117 0.0262342 0)
(-0.0307806 0.0706842 0)
(-0.0599883 0.117195 0)
(-0.0897954 0.155327 0)
(-0.113562 0.17531 0)
(-0.127353 0.173853 0)
(-0.131724 0.153968 0)
(-0.130191 0.126436 0)
(-0.125681 0.0970849 0)
(-0.119247 0.0688393 0)
(-0.0035666 0.0058371 0)
(-0.0254268 0.0370943 0)
(-0.0556897 0.077759 0)
(-0.0922988 0.116969 0)
(-0.127717 0.145317 0)
(-0.154844 0.155579 0)
(-0.170669 0.147557 0)
(-0.177079 0.127185 0)
(-0.178001 0.101939 0)
(-0.175243 0.0760352 0)
(-0.00094756 -0.00775841 0)
(-0.0117136 0.00822935 0)
(-0.0349434 0.0364862 0)
(-0.0706472 0.068799 0)
(-0.113692 0.0991503 0)
(-0.155392 0.119652 0)
(-0.188425 0.124906 0)
(-0.209697 0.115662 0)
(-0.221015 0.0977952 0)
(-0.22803 0.0768235 0)
(0.0019665 -0.0095855 0)
(0.00269447 -0.00730247 0)
(-0.00565708 0.0047994 0)
(-0.0277873 0.0223034 0)
(-0.0648418 0.0436724 0)
(-0.111155 0.0651035 0)
(-0.159704 0.0802482 0)
(-0.201597 0.0836329 0)
(-0.232083 0.0757742 0)
(-0.254298 0.0626133 0)
(0.00287272 -0.00348135 0)
(0.0075036 -0.00427084 0)
(0.0100737 -0.00231089 0)
(0.00716251 0.000315449 0)
(-0.00504856 0.00439487 0)
(-0.0269745 0.0111827 0)
(-0.0613053 0.0219524 0)
(-0.109535 0.0318442 0)
(-0.159446 0.0341644 0)
(-0.202236 0.0302274 0)
(-0.0120832 -0.155686 0)
(-0.101345 0.0136406 0)
(-0.0745893 0.021645 0)
(-0.0497315 0.0173792 0)
(-0.025579 0.0163266 0)
(-0.00291353 0.0144988 0)
(0.0178518 0.0115294 0)
(0.0351693 0.00938141 0)
(0.0504738 0.00748238 0)
(0.0594063 0.00425579 0)
(0.0637778 0.000391072 0)
(0.0638261 -0.00398538 0)
(0.0598477 -0.00779513 0)
(0.0520365 -0.00957548 0)
(0.0416289 -0.00930092 0)
(0.0305196 -0.00689641 0)
(0.0207809 -0.00436555 0)
(0.0129567 -0.00227365 0)
(0.0073038 -0.000912911 0)
(0.00351089 -0.000403836 0)
(0.00111162 -0.000245841 0)
(-0.00024338 -7.23538e-05 0)
(-0.000736864 0.000153307 0)
(-0.000648068 0.000348728 0)
(-0.000257283 0.000349855 0)
(0.0125633 -0.261615 0)
(-0.0719745 0.00327634 0)
(-0.0698954 0.0396789 0)
(-0.0590048 0.0483741 0)
(-0.0391606 0.0511662 0)
(-0.0171223 0.0493198 0)
(0.00468676 0.0437052 0)
(0.0243565 0.0358188 0)
(0.0409369 0.0269412 0)
(0.0541173 0.0174782 0)
(0.0637379 0.0081379 0)
(0.0707256 -0.000551464 0)
(0.0733932 -0.00809053 0)
(0.0726182 -0.0145408 0)
(0.0689917 -0.0194868 0)
(0.0614922 -0.0214465 0)
(0.0508285 -0.0204327 0)
(0.0389769 -0.0172382 0)
(0.0275377 -0.0130373 0)
(0.0178623 -0.00896202 0)
(0.010561 -0.00560702 0)
(0.0055768 -0.00303423 0)
(0.00242939 -0.00113892 0)
(0.000634546 0.000167735 0)
(-3.59342e-05 0.000646433 0)
(0.0485078 -0.377858 0)
(-0.0427962 -0.0519827 0)
(-0.0571627 0.0338695 0)
(-0.0581008 0.0622373 0)
(-0.0464432 0.072726 0)
(-0.0309917 0.0732404 0)
(-0.0142019 0.0671126 0)
(0.0017665 0.0568783 0)
(0.0156717 0.0449168 0)
(0.0273343 0.0324671 0)
(0.0369074 0.0202551 0)
(0.0447237 0.00847635 0)
(0.0513521 -0.00292697 0)
(0.0561319 -0.0134212 0)
(0.058624 -0.0225676 0)
(0.0575557 -0.029065 0)
(0.0537914 -0.0320544 0)
(0.0465194 -0.0312216 0)
(0.0372931 -0.0274588 0)
(0.0276549 -0.0219405 0)
(0.0188757 -0.0160036 0)
(0.0116897 -0.0106392 0)
(0.00623307 -0.00628972 0)
(0.00247276 -0.00292318 0)
(0.000254742 -0.000470359 0)
(0.0819337 -0.494447 0)
(-0.0142934 -0.125292 0)
(-0.0471257 0.0124512 0)
(-0.0562049 0.0657498 0)
(-0.0528898 0.0864261 0)
(-0.043181 0.0913492 0)
(-0.0316679 0.0858145 0)
(-0.0195634 0.0740835 0)
(-0.00865891 0.0598324 0)
(0.000945691 0.045065 0)
(0.00924482 0.0308378 0)
(0.0164021 0.0175178 0)
(0.0227127 0.00502897 0)
(0.0286179 -0.00691237 0)
(0.0339197 -0.0183213 0)
(0.0380315 -0.0282796 0)
(0.0395437 -0.0352667 0)
(0.038203 -0.0392017 0)
(0.0340212 -0.037658 0)
(0.0280187 -0.0330738 0)
(0.0211063 -0.0266376 0)
(0.0143304 -0.0197639 0)
(0.00834739 -0.0134705 0)
(0.00363903 -0.00798909 0)
(0.000392999 -0.00279674 0)
(0.114716 -0.602084 0)
(0.0192938 -0.216591 0)
(-0.0333378 -0.0259128 0)
(-0.0522808 0.0563407 0)
(-0.0579006 0.0917179 0)
(-0.0545543 0.101741 0)
(-0.0486039 0.0991449 0)
(-0.0406742 0.0871914 0)
(-0.0329203 0.0718323 0)
(-0.0254163 0.0557352 0)
(-0.0183691 0.0402606 0)
(-0.0117905 0.0259524 0)
(-0.00558082 0.0128101 0)
(0.000531833 0.000560589 0)
(0.00686918 -0.0112352 0)
(0.0131536 -0.0225006 0)
(0.0183137 -0.0321005 0)
(0.0218102 -0.0384456 0)
(0.0227616 -0.0411139 0)
(0.0212589 -0.0392363 0)
(0.0177773 -0.0342166 0)
(0.0131215 -0.0275626 0)
(0.00812613 -0.0205628 0)
(0.00366527 -0.01359 0)
(0.000369382 -0.00557217 0)
(0.148492 -0.698211 0)
(0.0584157 -0.321342 0)
(-0.0111241 -0.0819955 0)
(-0.0432568 0.0318877 0)
(-0.0590898 0.0858084 0)
(-0.0642274 0.103749 0)
(-0.064097 0.104952 0)
(-0.061591 0.0948224 0)
(-0.0577 0.0801807 0)
(-0.052688 0.0643464 0)
(-0.0468752 0.0488593 0)
(-0.0405073 0.0344262 0)
(-0.0337559 0.0211975 0)
(-0.0267176 0.00898525 0)
(-0.0193004 -0.00259484 0)
(-0.011356 -0.0139071 0)
(-0.00339565 -0.0245348 0)
(0.00369725 -0.0331305 0)
(0.00883321 -0.0384963 0)
(0.0114854 -0.0395572 0)
(0.0116506 -0.0375154 0)
(0.00964004 -0.0326023 0)
(0.00636583 -0.0261414 0)
(0.00290275 -0.0184457 0)
(0.000237129 -0.0080139 0)
(0.182846 -0.781564 0)
(0.10149 -0.432859 0)
(0.0200143 -0.158347 0)
(-0.027406 -0.00972171 0)
(-0.0544406 0.0653772 0)
(-0.0698963 0.0963092 0)
(-0.0774958 0.102724 0)
(-0.081949 0.0955345 0)
(-0.0831525 0.0836273 0)
(-0.0818678 0.070085 0)
(-0.0781227 0.0564749 0)
(-0.0722414 0.0435262 0)
(-0.0645827 0.0314031 0)
(-0.0555217 0.0199982 0)
(-0.0454726 0.0090129 0)
(-0.0347907 -0.00184282 0)
(-0.0237971 -0.0126053 0)
(-0.0131848 -0.0226909 0)
(-0.00416447 -0.030853 0)
(0.00216017 -0.0358488 0)
(0.00549832 -0.036759 0)
(0.00601129 -0.0347018 0)
(0.00440405 -0.0297328 0)
(0.00204588 -0.0219604 0)
(0.000134624 -0.00975505 0)
(0.216756 -0.850883 0)
(0.146529 -0.543902 0)
(0.0593627 -0.253099 0)
(-0.00383622 -0.068699 0)
(-0.0432548 0.0292857 0)
(-0.0695884 0.0744769 0)
(-0.0869489 0.0883815 0)
(-0.0994935 0.0869452 0)
(-0.108118 0.0796449 0)
(-0.112833 0.0705719 0)
(-0.113455 0.061232 0)
(-0.10997 0.0522785 0)
(-0.102697 0.0435097 0)
(-0.0919109 0.034675 0)
(-0.0783035 0.025373 0)
(-0.062828 0.0153286 0)
(-0.0466277 0.00453948 0)
(-0.0309368 -0.00665953 0)
(-0.0169493 -0.0175751 0)
(-0.00604572 -0.0268373 0)
(0.000787537 -0.0327118 0)
(0.00362856 -0.0342364 0)
(0.00353944 -0.0316767 0)
(0.00175408 -0.0244222 0)
(0.000171596 -0.0110136 0)
(0.249457 -0.905322 0)
(0.191868 -0.648264 0)
(0.105176 -0.36028 0)
(0.0286994 -0.146185 0)
(-0.0241336 -0.0227532 0)
(-0.0615957 0.0387775 0)
(-0.089486 0.0620775 0)
(-0.11137 0.0667038 0)
(-0.129012 0.0650388 0)
(-0.142169 0.0621575 0)
(-0.150382 0.059789 0)
(-0.152994 0.0571177 0)
(-0.149645 0.0549761 0)
(-0.140329 0.0520959 0)
(-0.125228 0.0474663 0)
(-0.105458 0.0402338 0)
(-0.082484 0.0300692 0)
(-0.0584725 0.0172912 0)
(-0.0359872 0.00286106 0)
(-0.0175185 -0.0114923 0)
(-0.00466684 -0.0237219 0)
(0.00192372 -0.0313455 0)
(0.00344213 -0.0324825 0)
(0.00236081 -0.0265411 0)
(0.000341959 -0.0123764 0)
(0.280756 -0.945266 0)
(0.236256 -0.741117 0)
(0.155452 -0.473034 0)
(0.0704893 -0.241017 0)
(0.00419401 -0.0909278 0)
(-0.0443589 -0.0115963 0)
(-0.0821888 0.0225914 0)
(-0.113207 0.0339147 0)
(-0.139947 0.0379639 0)
(-0.162508 0.0414823 0)
(-0.180044 0.0463311 0)
(-0.191701 0.0527014 0)
(-0.196614 0.0599635 0)
(-0.194031 0.0669296 0)
(-0.182792 0.0716284 0)
(-0.163722 0.0720732 0)
(-0.137297 0.0668331 0)
(-0.105683 0.0551185 0)
(-0.0721563 0.0371656 0)
(-0.040909 0.0151205 0)
(-0.0167401 -0.00655098 0)
(-0.00214145 -0.0233252 0)
(0.00307137 -0.0314274 0)
(0.00338515 -0.0287027 0)
(0.000592346 -0.0145209 0)
(0.310983 -0.972444 0)
(0.279026 -0.819064 0)
(0.208286 -0.584162 0)
(0.12072 -0.34861 0)
(0.0430347 -0.175302 0)
(-0.0164077 -0.0752726 0)
(-0.0624747 -0.0282418 0)
(-0.10062 -0.00968977 0)
(-0.134386 -0.000507397 0)
(-0.164668 0.00878501 0)
(-0.190545 0.0207594 0)
(-0.211026 0.0355223 0)
(-0.225143 0.0525478 0)
(-0.231769 0.0709515 0)
(-0.231115 0.0882854 0)
(-0.220567 0.101572 0)
(-0.198861 0.108032 0)
(-0.166772 0.104659 0)
(-0.127441 0.0894769 0)
(-0.0840688 0.0624334 0)
(-0.0435201 0.0277309 0)
(-0.013804 -0.00511755 0)
(0.000676286 -0.0258992 0)
(0.00327676 -0.0301282 0)
(0.00131485 -0.0171042 0)
(0.340164 -0.988188 0)
(0.319756 -0.880786 0)
(0.262072 -0.687171 0)
(0.178039 -0.462735 0)
(0.0930336 -0.273967 0)
(0.0232478 -0.151246 0)
(-0.0302194 -0.0880257 0)
(-0.0731075 -0.0603317 0)
(-0.11026 -0.0463248 0)
(-0.144367 -0.0326648 0)
(-0.17528 -0.0149342 0)
(-0.201991 0.00714644 0)
(-0.223625 0.032636 0)
(-0.239235 0.060335 0)
(-0.246682 0.0889368 0)
(-0.247718 0.116578 0)
(-0.240081 0.139083 0)
(-0.218961 0.15156 0)
(-0.184901 0.149274 0)
(-0.139724 0.128243 0)
(-0.0875732 0.0876022 0)
(-0.0392834 0.0352044 0)
(-0.00733618 -0.00983084 0)
(0.00221398 -0.0288045 0)
(0.00281239 -0.0199399 0)
(0.368403 -0.994214 0)
(0.358044 -0.924843 0)
(0.315151 -0.776099 0)
(0.240379 -0.575998 0)
(0.153584 -0.382799 0)
(0.0752633 -0.239622 0)
(0.0138514 -0.155574 0)
(-0.0330416 -0.115103 0)
(-0.0715146 -0.0945827 0)
(-0.105828 -0.0773068 0)
(-0.137609 -0.0557623 0)
(-0.166662 -0.0285422 0)
(-0.19255 0.00355659 0)
(-0.214709 0.0389965 0)
(-0.232005 0.0761244 0)
(-0.242902 0.11359 0)
(-0.247802 0.149728 0)
(-0.239755 0.180366 0)
(-0.220248 0.19782 0)
(-0.186171 0.194998 0)
(-0.136287 0.164091 0)
(-0.0776154 0.103142 0)
(-0.0259288 0.0290353 0)
(-0.000426908 -0.0199264 0)
(0.00277292 -0.0224562 0)
(0.396154 -0.993255 0)
(0.393735 -0.952107 0)
(0.365736 -0.846486 0)
(0.304807 -0.680546 0)
(0.222571 -0.495785 0)
(0.139398 -0.3387 0)
(0.0697968 -0.232416 0)
(0.0172343 -0.173334 0)
(-0.022623 -0.142806 0)
(-0.0557505 -0.12066 0)
(-0.085462 -0.0961723 0)
(-0.112851 -0.0661828 0)
(-0.137984 -0.0310093 0)
(-0.161025 0.00829854 0)
(-0.181826 0.0506126 0)
(-0.199826 0.0951466 0)
(-0.213766 0.141122 0)
(-0.221832 0.185426 0)
(-0.223713 0.222204 0)
(-0.203248 0.243345 0)
(-0.169133 0.23589 0)
(-0.114966 0.186079 0)
(-0.0529753 0.0962278 0)
(-0.00762848 0.00464275 0)
(0.00146029 -0.0226132 0)
(0.42351 -0.987154 0)
(0.426888 -0.964764 0)
(0.412344 -0.896259 0)
(0.36794 -0.769258 0)
(0.296418 -0.605337 0)
(0.213873 -0.444853 0)
(0.13769 -0.319512 0)
(0.0773129 -0.238468 0)
(0.0328919 -0.191838 0)
(-0.000800484 -0.161643 0)
(-0.029139 -0.133306 0)
(-0.0549486 -0.100681 0)
(-0.0791115 -0.0632141 0)
(-0.101847 -0.0218515 0)
(-0.123353 0.0225831 0)
(-0.143486 0.0696033 0)
(-0.161705 0.119021 0)
(-0.176858 0.170404 0)
(-0.186912 0.221487 0)
(-0.18802 0.264009 0)
(-0.173025 0.284127 0)
(-0.135768 0.261866 0)
(-0.0781909 0.178446 0)
(-0.0207276 0.0529817 0)
(0.00012578 -0.0188242 0)
(0.45047 -0.977506 0)
(0.457768 -0.965673 0)
(0.454046 -0.925858 0)
(0.426566 -0.837079 0)
(0.370603 -0.703306 0)
(0.295169 -0.552016 0)
(0.216534 -0.41576 0)
(0.14826 -0.313807 0)
(0.0958885 -0.247018 0)
(0.0575146 -0.203622 0)
(0.0277704 -0.169049 0)
(0.00207091 -0.133739 0)
(-0.0218697 -0.0945701 0)
(-0.0447546 -0.0517739 0)
(-0.0666549 -0.00588728 0)
(-0.0875844 0.0429656 0)
(-0.107331 0.0946935 0)
(-0.125363 0.149277 0)
(-0.140844 0.206004 0)
(-0.151556 0.26135 0)
(-0.15214 0.303819 0)
(-0.133758 0.314889 0)
(-0.0908615 0.257634 0)
(-0.0349941 0.119553 0)
(-0.00160189 -0.00755043 0)
(0.476565 -0.963835 0)
(0.486796 -0.95907 0)
(0.490833 -0.937812 0)
(0.478406 -0.881752 0)
(0.440452 -0.782409 0)
(0.378269 -0.652041 0)
(0.303416 -0.516699 0)
(0.230314 -0.400165 0)
(0.168968 -0.313107 0)
(0.122177 -0.252421 0)
(0.0870486 -0.207416 0)
(0.0587228 -0.167444 0)
(0.0334705 -0.12636 0)
(0.00959244 -0.0823227 0)
(-0.0132444 -0.0352491 0)
(-0.0350971 0.0149558 0)
(-0.0559946 0.0684799 0)
(-0.0755194 0.125371 0)
(-0.0931205 0.185364 0)
(-0.107991 0.247106 0)
(-0.117489 0.305113 0)
(-0.113964 0.340858 0)
(-0.0882518 0.320092 0)
(-0.0428905 0.19035 0)
(-0.00331468 0.0150825 0)
(0.500436 -0.9459 0)
(0.513956 -0.946442 0)
(0.523325 -0.936369 0)
(0.522566 -0.904759 0)
(0.502159 -0.838189 0)
(0.457437 -0.736394 0)
(0.393268 -0.614469 0)
(0.321315 -0.494055 0)
(0.253525 -0.391701 0)
(0.19708 -0.312948 0)
(0.153132 -0.253646 0)
(0.118713 -0.20532 0)
(0.0898191 -0.160414 0)
(0.0635714 -0.114632 0)
(0.0386785 -0.06628 0)
(0.0149471 -0.0147384 0)
(-0.00756194 0.0404771 0)
(-0.0288145 0.0995823 0)
(-0.0482406 0.162325 0)
(-0.0654443 0.227862 0)
(-0.0798049 0.294025 0)
(-0.0864715 0.347741 0)
(-0.0747013 0.357956 0)
(-0.0447789 0.253398 0)
(-0.00333151 0.0387484 0)
(0.51943 -0.92106 0)
(0.538184 -0.928357 0)
(0.551998 -0.925838 0)
(0.559464 -0.909937 0)
(0.553738 -0.869977 0)
(0.527561 -0.798555 0)
(0.479581 -0.699655 0)
(0.416139 -0.587697 0)
(0.347802 -0.479557 0)
(0.284166 -0.386691 0)
(0.230445 -0.312057 0)
(0.187084 -0.251937 0)
(0.151579 -0.199994 0)
(0.120828 -0.150664 0)
(0.0925924 -0.100427 0)
(0.065836 -0.047422 0)
(0.0404021 0.0094624 0)
(0.0164125 0.0707911 0)
(-0.00578685 0.136305 0)
(-0.0258912 0.204811 0)
(-0.0440975 0.275124 0)
(-0.0579258 0.342787 0)
(-0.0574401 0.376271 0)
(-0.0455776 0.302458 0)
(-0.00185703 0.0527178 0)
(0.529101 -0.884253 0)
(0.556798 -0.902837 0)
(0.576366 -0.907821 0)
(0.590063 -0.902117 0)
(0.595207 -0.880891 0)
(0.585531 -0.836078 0)
(0.556092 -0.764261 0)
(0.50753 -0.671041 0)
(0.446307 -0.568727 0)
(0.381464 -0.470166 0)
(0.320675 -0.383542 0)
(0.267956 -0.310747 0)
(0.223641 -0.248959 0)
(0.185855 -0.193462 0)
(0.15227 -0.139826 0)
(0.121153 -0.0848096 0)
(0.0916537 -0.0261438 0)
(0.063551 0.037323 0)
(0.0367411 0.105451 0)
(0.0115575 0.176874 0)
(-0.0119494 0.250299 0)
(-0.0324918 0.325843 0)
(-0.0433161 0.381486 0)
(-0.0519315 0.339929 0)
(-0.0011985 0.0771225 0)
(0.523871 -0.829267 0)
(0.565122 -0.865186 0)
(0.59391 -0.881373 0)
(0.614354 -0.884552 0)
(0.627634 -0.875889 0)
(0.630772 -0.851022 0)
(0.618681 -0.804475 0)
(0.588224 -0.735208 0)
(0.540949 -0.648817 0)
(0.482718 -0.555212 0)
(0.421031 -0.464171 0)
(0.362108 -0.381863 0)
(0.309274 -0.309858 0)
(0.262995 -0.246167 0)
(0.2221 -0.186904 0)
(0.18505 -0.128503 0)
(0.150271 -0.0681385 0)
(0.116432 -0.0036737 0)
(0.0826882 0.0659671 0)
(0.0491563 0.139764 0)
(0.0164835 0.215116 0)
(-0.0136381 0.293167 0)
(-0.0379484 0.368925 0)
(-0.075601 0.370835 0)
(-0.0456114 0.17087 0)
(0.49908 -0.751326 0)
(0.557204 -0.809109 0)
(0.599616 -0.84202 0)
(0.629851 -0.85692 0)
(0.651178 -0.858722 0)
(0.664158 -0.847929 0)
(0.66612 -0.821286 0)
(0.653218 -0.775374 0)
(0.623529 -0.710345 0)
(0.57883 -0.631054 0)
(0.524084 -0.545263 0)
(0.4654 -0.460496 0)
(0.407845 -0.381653 0)
(0.354479 -0.310159 0)
(0.305933 -0.244098 0)
(0.261326 -0.180988 0)
(0.219433 -0.118405 0)
(0.178625 -0.0540401 0)
(0.137162 0.0141197 0)
(0.0932833 0.086878 0)
(0.0468728 0.161793 0)
(0.00201015 0.236095 0)
(-0.0439481 0.315889 0)
(-0.127116 0.37811 0)
(-0.149173 0.263445 0)
(0.455077 -0.652934 0)
(0.529473 -0.732268 0)
(0.588104 -0.785501 0)
(0.631821 -0.816493 0)
(0.663511 -0.83052 0)
(0.685696 -0.831276 0)
(0.698645 -0.819166 0)
(0.700223 -0.792046 0)
(0.687662 -0.747929 0)
(0.659811 -0.687574 0)
(0.618356 -0.615016 0)
(0.567332 -0.536194 0)
(0.511561 -0.456951 0)
(0.455632 -0.38127 0)
(0.401886 -0.310215 0)
(0.3505 -0.242782 0)
(0.301358 -0.177563 0)
(0.253409 -0.112995 0)
(0.204822 -0.0476094 0)
(0.153015 0.0197083 0)
(0.0956569 0.0882746 0)
(0.034022 0.154322 0)
(-0.0396083 0.218619 0)
(-0.159429 0.260286 0)
(-0.250982 0.191056 0)
(0.396408 -0.540891 0)
(0.482191 -0.636426 0)
(0.555964 -0.709354 0)
(0.61518 -0.759246 0)
(0.66035 -0.788933 0)
(0.693616 -0.802407 0)
(0.716805 -0.802523 0)
(0.730149 -0.789994 0)
(0.731915 -0.7633 0)
(0.720774 -0.721342 0)
(0.695764 -0.665752 0)
(0.658119 -0.599533 0)
(0.611021 -0.527054 0)
(0.558677 -0.452931 0)
(0.504661 -0.380763 0)
(0.450435 -0.311319 0)
(0.39654 -0.244281 0)
(0.343108 -0.179225 0)
(0.289312 -0.11568 0)
(0.233599 -0.0533149 0)
(0.174075 0.00740992 0)
(0.110153 0.0638811 0)
(0.0404509 0.114336 0)
(-0.0405041 0.162865 0)
(-0.117094 0.181954 0)
(0.330938 -0.423553 0)
(0.419813 -0.526749 0)
(0.503399 -0.614252 0)
(0.576511 -0.682089 0)
(0.636628 -0.729552 0)
(0.683661 -0.758528 0)
(0.719156 -0.771915 0)
(0.743505 -0.771913 0)
(0.760914 -0.759662 0)
(0.762352 -0.734581 0)
(0.753405 -0.696046 0)
(0.731759 -0.64527 0)
(0.698339 -0.58488 0)
(0.65574 -0.518425 0)
(0.607304 -0.449814 0)
(0.555715 -0.381874 0)
(0.502069 -0.315524 0)
(0.44699 -0.250989 0)
(0.390773 -0.188648 0)
(0.333099 -0.128915 0)