/*--------------------------------*- C++ -*----------------------------------*\
| =========                 |                                                 |
| \\      /  F ield         | OpenFOAM: The Open Source CFD Toolbox           |
|  \\    /   O peration     | Version:  v2012                                 |
|   \\  /    A nd           | Website:  www.openfoam.com                      |
|    \\/     M anipulation  |                                                 |
\*---------------------------------------------------------------------------*/
FoamFile
{
    version     2.0;
    format      ascii;
    class       volScalarField;
    location    "765";
    object      nut;
}
// * * * * * * * * * * * * * * * * * * * * * * * * * * * * * * * * * * * * * //

dimensions      [0 2 -1 0 0 0 0];


internalField   nonuniform List<scalar> 
6066
(
0.000500356
0.000519346
0.000540341
0.000563563
0.000589319
0.000617997
0.000650109
0.000686317
0.000727497
0.000774781
0.000829761
0.000894676
0.000972756
0.00106883
0.0011904
0.00134971
0.00156779
0.00188319
0.00237194
0.00319726
0.00279228
0.00289143
0.0030004
0.00311946
0.00324947
0.0033916
0.00354739
0.00371883
0.00390847
0.00412019
0.00435845
0.00462934
0.00494145
0.00530718
0.00574507
0.00628402
0.00697154
0.00789127
0.00920565
0.0112842
0.00475878
0.00491928
0.0050944
0.00528405
0.00548923
0.00571137
0.00595232
0.0062144
0.00650054
0.00681443
0.00716092
0.00754616
0.00797808
0.00846724
0.0090277
0.00967776
0.0104402
0.0113398
0.0123914
0.0135603
0.00599315
0.00619232
0.00640765
0.00663886
0.00688693
0.00715326
0.00743951
0.0077476
0.00807976
0.00843849
0.00882664
0.00924738
0.00970417
0.0102005
0.0107396
0.0113233
0.0119507
0.0126141
0.013294
0.0139537
0.00656951
0.00679056
0.00702705
0.00727884
0.00754708
0.00783321
0.00813873
0.00846521
0.00881416
0.00918699
0.00958482
0.0100082
0.010457
0.0109292
0.011421
0.0119254
0.012432
0.0129276
0.0134019
0.013866
0.00654307
0.00677262
0.00701489
0.00727057
0.00754142
0.00782931
0.00813604
0.00846334
0.00881286
0.00918609
0.00958421
0.0100078
0.0104567
0.010929
0.0114209
0.0119254
0.012432
0.0129276
0.0134019
0.013866
0.0059153
0.0061403
0.00637268
0.00661516
0.00687073
0.0071421
0.00743178
0.00774224
0.00807605
0.00843595
0.00882495
0.0092463
0.00970348
0.0102001
0.0107393
0.0113232
0.0119506
0.0126141
0.013294
0.0139537
0.00463785
0.00484129
0.00504285
0.00524938
0.00546554
0.00569501
0.00594095
0.00620651
0.00649513
0.00681084
0.00715859
0.00754463
0.00797708
0.0084666
0.00902729
0.00967751
0.0104401
0.0113398
0.0123913
0.0135603
0.00266807
0.00281635
0.00295181
0.0030871
0.00322729
0.00337615
0.00353656
0.00371132
0.00390354
0.00411696
0.00435631
0.00462792
0.00494051
0.00530657
0.00574468
0.00628378
0.00697139
0.00789119
0.00920564
0.0112842
0.000494149
0.000515158
0.000537484
0.000561623
0.000588016
0.000617142
0.000649562
0.00068597
0.000727262
0.00077462
0.000829651
0.000894601
0.000972705
0.0010688
0.00119038
0.0013497
0.00156778
0.00188318
0.00237194
0.00319726
0.000307834
0.0003142
0.000320583
0.000327032
0.000333584
0.000340284
0.000347178
0.000354324
0.000361724
0.000369189
0.000376757
0.000384472
0.000392388
0.000400564
0.000409072
0.000417989
0.000427407
0.000437424
0.000448146
0.000459684
0.00047215
0.00048566
0.00156688
0.00163098
0.00169235
0.00175165
0.00180881
0.0018637
0.00191616
0.00196611
0.00201317
0.0020599
0.00210653
0.00215324
0.00220029
0.00224798
0.00229671
0.00234694
0.00239921
0.00245414
0.00251239
0.00257462
0.00264147
0.00271351
0.00278242
0.0028775
0.00296828
0.003056
0.00314091
0.00322318
0.00330298
0.00338056
0.00345668
0.00353309
0.0036101
0.00368795
0.00376695
0.00384751
0.00393014
0.00401543
0.00410411
0.00419702
0.00429507
0.00439917
0.00451021
0.00462896
0.00357107
0.00366988
0.00376511
0.00385846
0.00395047
0.00404148
0.00413182
0.00422185
0.00431303
0.00440669
0.00450312
0.00460249
0.00470498
0.00481078
0.00492016
0.00503343
0.00515108
0.00527368
0.005402
0.00553685
0.00567912
0.0058296
0.00393023
0.00401476
0.00409768
0.00418081
0.0042648
0.00435013
0.00443724
0.00452652
0.00462025
0.00471985
0.00482567
0.00493788
0.00505648
0.00518137
0.0053123
0.00544901
0.00559117
0.00573856
0.00589121
0.00604947
0.00621395
0.00638538
0.00391371
0.0039691
0.00402516
0.0040835
0.00414489
0.00420992
0.00427915
0.00435301
0.00443459
0.00452577
0.00462729
0.00473968
0.00486319
0.00499772
0.00514286
0.00529779
0.00546118
0.00563104
0.00580522
0.00598287
0.0061639
0.00634863
0.003594
0.00360862
0.00362577
0.00364667
0.00367218
0.00370297
0.00373967
0.00378289
0.00383518
0.00389912
0.00397612
0.0040673
0.00417368
0.00429618
0.00443548
0.00459204
0.00476592
0.00495141
0.00514232
0.00533549
0.00552856
0.00572012
0.00309454
0.00306734
0.00304379
0.00302444
0.00300984
0.00300044
0.00299675
0.00299927
0.00300916
0.00302895
0.00305998
0.00310369
0.00316148
0.00323494
0.00332557
0.00343424
0.00356062
0.00371254
0.0038895
0.00407997
0.00427077
0.00445627
0.00255107
0.00248901
0.00243066
0.00237581
0.0023246
0.00227721
0.00223378
0.00219448
0.0021594
0.0021285
0.00210193
0.00207995
0.00206291
0.00205356
0.00205422
0.00206608
0.0020908
0.00213519
0.00220205
0.00229831
0.00242052
0.00254772
0.00205181
0.00196389
0.00187939
0.00179788
0.00171966
0.0016451
0.00157452
0.00150879
0.00144691
0.00138439
0.00132029
0.001254
0.00118525
0.00111359
0.00103837
0.000958984
0.000875094
0.000786731
0.00070561
0.000639473
0.000583976
0.000535312
8.38127e-05
7.61613e-05
8.13932e-05
0.000104228
0.000127519
0.000105651
0.000153452
0.00019373
0.00020727
0.000219575
0.000230992
0.000241746
0.00025199
0.000261836
0.000271375
0.000280681
0.00028982
0.000298854
0.000169984
0.000300462
0.000348542
0.000354195
0.000358523
0.000435459
0.000501826
0.000581589
0.000664945
0.000750358
0.000837399
0.00092603
0.00101615
0.00110751
0.00119972
0.00129226
0.00138461
0.00147639
0.000208038
0.000511543
0.00053186
0.000532734
0.000616219
0.000726887
0.000877182
0.00104442
0.00121555
0.00138666
0.001556
0.00172291
0.00188691
0.00204752
0.00220422
0.00235652
0.0025041
0.00264682
0.000252287
0.000657913
0.000679666
0.000754061
0.000872023
0.00105912
0.00128933
0.00153161
0.00177045
0.0019996
0.00221675
0.00242157
0.00261447
0.00279624
0.00296778
0.00313015
0.00328452
0.00343205
0.000293475
0.000776947
0.000835192
0.000972515
0.00115528
0.00141172
0.001702
0.00199208
0.002265
0.00251387
0.00273754
0.00293764
0.00311701
0.00327892
0.00342662
0.00356318
0.00369147
0.00381398
0.000321609
0.000811019
0.000996468
0.0012065
0.00145219
0.00176032
0.00208448
0.0023909
0.00266313
0.00289584
0.00309061
0.00325225
0.00338673
0.00350004
0.00359764
0.00368427
0.003764
0.0038402
0.000341796
0.000873832
0.00115914
0.00144499
0.00174525
0.00208402
0.00241554
0.002709
0.00295064
0.00313862
0.00327834
0.00337821
0.00344727
0.00349385
0.003525
0.00354648
0.00356293
0.00357808
0.0003453
0.00096579
0.00132153
0.00167863
0.00201735
0.00236827
0.0026839
0.00294068
0.00312948
0.00325331
0.00332201
0.00334772
0.00334229
0.00331591
0.00327674
0.00323095
0.00318317
0.00313682
0.000371276
0.00107958
0.00147857
0.00189901
0.00225905
0.00260414
0.00288658
0.00308987
0.00321224
0.00326242
0.00325505
0.00320602
0.00312968
0.00303755
0.00293799
0.0028366
0.00273691
0.00264102
0.000381969
0.00119596
0.00162594
0.00210013
0.00246533
0.00278832
0.00302617
0.00316609
0.0032163
0.00319203
0.00311296
0.00299845
0.00286468
0.00272326
0.00258128
0.00244224
0.00230734
0.00217676
0.00164717
0.00155087
0.00146127
0.00137852
0.00130354
0.0012371
0.00117958
0.00112899
0.00107694
0.00102157
0.000961795
0.000896388
0.000828076
0.000757928
0.000686027
0.000614068
0.000543621
0.000476231
0.000411535
0.000345406
0.000281425
0.00014669
0.00145493
0.00139429
0.00134821
0.00131484
0.00129208
0.0012764
0.00125908
0.00123597
0.00120544
0.00116675
0.00111961
0.00106415
0.00100066
0.000929478
0.000850992
0.000765239
0.000619953
0.000463135
0.000345683
0.000266589
0.000215124
0.000109157
0.00154667
0.00155891
0.00158165
0.00160642
0.00162583
0.00163393
0.00162752
0.00160856
0.00157648
0.00153067
0.00147071
0.00139651
0.0013083
0.00120671
0.00109281
0.000968156
0.000834553
0.000640909
0.000474798
0.000348887
0.000247276
8.60548e-05
0.00183092
0.00189054
0.0019436
0.00198433
0.00200949
0.00201592
0.00200795
0.00198556
0.00194789
0.00189403
0.00182315
0.00173444
0.00162733
0.00150184
0.00135873
0.0011846
0.000987784
0.000797115
0.000611958
0.000441603
0.00027718
9.71164e-05
0.00216091
0.00223383
0.00229067
0.00233114
0.00235509
0.00236129
0.00235281
0.00232912
0.00228914
0.00223165
0.00215504
0.00205757
0.00193774
0.00179461
0.00159915
0.00138361
0.00118165
0.000979127
0.000766351
0.000541416
0.000323796
0.000115097
0.00246871
0.00254306
0.0025992
0.00263898
0.00266277
0.00266969
0.00266174
0.00263834
0.00259836
0.00254
0.00246107
0.00235912
0.00223165
0.00202309
0.00177425
0.00155624
0.0013514
0.00114337
0.000911603
0.000624999
0.000359302
0.000138797
0.00274238
0.00281616
0.00287172
0.00291131
0.00293514
0.00294264
0.00293541
0.00291291
0.00287361
0.00281545
0.002736
0.00263233
0.00250109
0.00221198
0.00195001
0.00172168
0.00150766
0.00129389
0.00105029
0.000713725
0.000397276
0.000147456
0.00298435
0.00305751
0.00311258
0.00315174
0.0031751
0.00318273
0.00317591
0.00315374
0.00311463
0.00305662
0.0029772
0.00287318
0.00274067
0.00240285
0.00212348
0.0018815
0.00165646
0.00143501
0.00118736
0.000804049
0.000436558
0.00015268
0.00319949
0.00327209
0.00332651
0.00336481
0.00338709
0.00339426
0.00338672
0.00336358
0.00332348
0.0032647
0.00318485
0.00308075
0.00294826
0.00259429
0.00229707
0.00204173
0.0018056
0.00157426
0.0013167
0.000893616
0.000476373
0.000157387
0.00339288
0.00346504
0.0035187
0.00355614
0.00357682
0.0035824
0.00357272
0.00354707
0.00350445
0.00344344
0.00336205
0.00325735
0.00312519
0.00277878
0.00246879
0.00220365
0.00195868
0.00171653
0.00144632
0.000981063
0.000516245
0.000161683
0.0035694
0.00364127
0.00369434
0.00373082
0.00374981
0.00375275
0.00373958
0.00370989
0.00366303
0.00359812
0.00351366
0.0034072
0.00327489
0.00294771
0.00263322
0.00236513
0.00211616
0.00186385
0.00156478
0.00106556
0.000555883
0.000165643
0.00373372
0.00380605
0.00385915
0.00389453
0.00391124
0.00391062
0.00389275
0.00385751
0.00380474
0.00373412
0.00364482
0.00353504
0.00340141
0.00309283
0.00278436
0.00252227
0.0022755
0.00201586
0.00167539
0.00114675
0.000595123
0.000169326
0.00389012
0.00396389
0.00401727
0.00405135
0.00406528
0.00406026
0.00403656
0.00399438
0.00393408
0.00385596
0.00375995
0.00364502
0.00350855
0.00320797
0.00291728
0.00267093
0.00243263
0.00217002
0.00177809
0.00122448
0.000633868
0.000172778
0.00404187
0.0041176
0.00417136
0.00420399
0.00421465
0.00420446
0.00417387
0.00412347
0.00405412
0.00396681
0.00386225
0.00374034
0.00359934
0.00328981
0.00302822
0.00280694
0.00258296
0.0023215
0.00187299
0.00129869
0.000672054
0.000176034
0.00419061
0.00426855
0.00432274
0.0043537
0.00436057
0.00434446
0.00430604
0.00424626
0.00416652
0.00406848
0.00395372
0.00382315
0.00363908
0.00333766
0.00311389
0.0029251
0.0027219
0.0024364
0.00196031
0.00136939
0.00070963
0.000179124
0.0043367
0.00441692
0.00447144
0.00450037
0.0045029
0.00448019
0.0044331
0.00436297
0.00427167
0.00416159
0.00403521
0.00389458
0.00360623
0.00335213
0.00316958
0.00301832
0.00284467
0.00251827
0.00204064
0.00143664
0.00074655
0.000182074
0.00447952
0.00456185
0.00461638
0.00464283
0.00464048
0.00461055
0.00455412
0.00447283
0.00436905
0.00424586
0.00410677
0.00384285
0.00354465
0.00333467
0.00319065
0.0030813
0.00294559
0.00259138
0.00211462
0.00150051
0.000782772
0.000184906
0.00461763
0.00470164
0.00475573
0.00477917
0.00477144
0.00473378
0.0046675
0.00457448
0.00445751
0.00432044
0.00404246
0.0037135
0.00346181
0.00328591
0.00317751
0.00311292
0.00300775
0.00265655
0.00218269
0.00156109
0.000818257
0.000187639
0.00474902
0.00483406
0.00488712
0.00490704
0.00489348
0.00484776
0.00477128
0.00466618
0.0045356
0.00421453
0.00386813
0.00358283
0.00336198
0.00321183
0.00313533
0.00311533
0.0030576
0.00271466
0.00224527
0.00161846
0.000852974
0.000190291
0.00487127
0.00495657
0.00500798
0.00502388
0.00500419
0.0049502
0.00486339
0.00474618
0.00437294
0.00401614
0.00370865
0.00345189
0.00325298
0.00312333
0.00307261
0.00309274
0.00310029
0.00276634
0.00230275
0.00167272
0.00088689
0.000192878
0.0049818
0.00506652
0.00511563
0.00512711
0.00510112
0.00503887
0.00488316
0.00452533
0.00416819
0.0038433
0.00355974
0.00332489
0.00314476
0.0030301
0.00299795
0.00305073
0.0031126
0.00281212
0.00235546
0.00172397
0.000919971
0.000195416
0.00507799
0.00516126
0.00520749
0.0052142
0.00518201
0.00497746
0.00466568
0.00432599
0.00399276
0.00368641
0.00342342
0.00320813
0.00304303
0.00293884
0.00291817
0.00299511
0.00310231
0.00285261
0.00240375
0.0017723
0.000952181
0.000197921
0.00515722
0.0052382
0.00528108
0.00519818
0.00502491
0.00477839
0.00447824
0.00415467
0.00383587
0.00354807
0.0033031
0.00310349
0.00295052
0.00285368
0.00283853
0.00293076
0.00307741
0.00288832
0.00244791
0.00181781
0.000983473
0.000200407
0.00504606
0.00510933
0.00510279
0.00501471
0.00484468
0.00460535
0.0043153
0.00400388
0.0037014
0.00342962
0.0031987
0.00301142
0.00286833
0.00277678
0.00276273
0.00286198
0.00304045
0.00291966
0.00248818
0.00186058
0.00101379
0.000202891
0.00490512
0.00496013
0.00495028
0.00486396
0.00469776
0.00446249
0.00418003
0.00387998
0.00359035
0.00333034
0.00310974
0.00293171
0.00279645
0.00270888
0.0026931
0.00279249
0.00299412
0.00294695
0.00252477
0.00190067
0.00104304
0.000205388
0.0048155
0.00486415
0.00485095
0.00476037
0.00459078
0.00435463
0.00407554
0.00378236
0.00350095
0.00324879
0.0030351
0.00286345
0.00273411
0.00264971
0.00263081
0.00272507
0.00294099
0.00297044
0.00255783
0.00193813
0.00107114
0.000207918
0.00477089
0.00481196
0.0047918
0.00469419
0.00451816
0.00427777
0.00399809
0.00370765
0.00343059
0.00318284
0.00297309
0.00280533
0.00268019
0.00259841
0.00257609
0.00266159
0.00288332
0.00299027
0.0025875
0.00197299
0.00109794
0.000210499
0.00476219
0.0047948
0.00476615
0.00466003
0.0044753
0.00422758
0.00394371
0.0036523
0.00337622
0.00313002
0.00292182
0.00275597
0.00263354
0.00255396
0.00252861
0.00260313
0.00282325
0.00300652
0.00261385
0.00200527
0.00112329
0.000213153
0.00479662
0.00481857
0.00477882
0.00466045
0.00446214
0.00420191
0.00390891
0.00361226
0.00333373
0.00308659
0.00287827
0.00271317
0.00259268
0.00251527
0.00248781
0.00255062
0.00276292
0.00301919
0.00263693
0.00203495
0.0011469
0.000215905
0.00488924
0.00489018
0.00483209
0.00469472
0.0044752
0.0041953
0.00388766
0.00358191
0.00329842
0.00304883
0.00283957
0.00267472
0.00255583
0.00248071
0.00245218
0.00250437
0.00270463
0.00299773
0.00265715
0.0020623
0.00116848
0.000218764
0.00502623
0.00499391
0.00490584
0.004743
0.00449921
0.00419583
0.00387067
0.00355445
0.0032656
0.00301366
0.00280377
0.00263943
0.00252217
0.00244949
0.00242087
0.00246402
0.00264931
0.00294413
0.00267575
0.00208884
0.00118999
0.000221622
0.00498936
0.00505125
0.00498023
0.00478444
0.00451598
0.00419146
0.00385043
0.00352513
0.00323232
0.00297927
0.00276974
0.00260658
0.00249121
0.00242108
0.00239316
0.00242868
0.00259741
0.00288907
0.00269302
0.00211469
0.00121153
0.000224487
0.00487388
0.00493596
0.00496891
0.00482405
0.00452634
0.00418041
0.00382555
0.00349317
0.00319806
0.00294523
0.00273711
0.00257585
0.0024626
0.00239496
0.00236826
0.00239744
0.00254884
0.00283281
0.00270896
0.00213989
0.00123316
0.000227368
0.00474057
0.00480248
0.00483761
0.00484514
0.00454045
0.00416948
0.00379884
0.00345983
0.00316332
0.00291164
0.00270577
0.00254697
0.00243599
0.00237058
0.00234525
0.00236926
0.00250334
0.00277557
0.00272352
0.0021644
0.0012549
0.000230273
0.00459193
0.00465328
0.00469025
0.00470275
0.00455803
0.00416518
0.00377333
0.00342598
0.00312833
0.00287851
0.00267552
0.0025196
0.00241087
0.00234726
0.00232315
0.00234316
0.00246047
0.00271765
0.00273663
0.0021882
0.00127678
0.000233206
0.00443104
0.00449146
0.00452996
0.00454705
0.004539
0.00415593
0.00374734
0.00339144
0.00309308
0.00284568
0.00264596
0.00249306
0.0023864
0.00232408
0.00230093
0.00231817
0.00241965
0.00265913
0.00274818
0.00221124
0.00129882
0.000236175
0.00426161
0.0043207
0.00436032
0.00438096
0.00438131
0.00412666
0.003717
0.00335578
0.0030575
0.0028126
0.0026161
0.0024661
0.00236126
0.0022998
0.00227741
0.00229321
0.00238024
0.0026002
0.00275799
0.00223342
0.00132101
0.000239185
0.00408793
0.00414529
0.00418575
0.00420974
0.00421789
0.00407
0.0036712
0.00331425
0.00301903
0.00277714
0.00258389
0.00243672
0.00233366
0.00227296
0.00225143
0.00226695
0.00234153
0.00254123
0.00276584
0.00225465
0.00134335
0.000242239
0.00391461
0.00396984
0.00401093
0.0040384
0.00405363
0.00398047
0.0036009
0.00325852
0.00297178
0.00273518
0.00254609
0.00240227
0.00230154
0.0022422
0.00222188
0.00223794
0.00230296
0.00248224
0.00275757
0.00227481
0.00136585
0.000245342
0.00374579
0.00379904
0.00384046
0.00387108
0.00389257
0.00385425
0.00349936
0.00318048
0.00290874
0.00268134
0.00249872
0.00235994
0.00226314
0.00220651
0.00218809
0.00220508
0.00226415
0.0024231
0.00268066
0.00229386
0.00138846
0.000248498
0.00358574
0.00363706
0.00367889
0.00371207
0.00373825
0.0036937
0.0033658
0.00307478
0.00282325
0.00260998
0.00243794
0.00230763
0.00221749
0.00216546
0.00214981
0.00216806
0.00222335
0.00236363
0.00260212
0.0023121
0.00141119
0.000251711
0.00343913
0.00348794
0.00353023
0.00356561
0.0035945
0.00350264
0.00320106
0.00293807
0.00271062
0.0025175
0.00236199
0.00224485
0.00216457
0.00211903
0.00210689
0.0021267
0.0021799
0.00230297
0.0025215
0.00232939
0.00143392
0.000254981
0.00331021
0.00335589
0.003398
0.00343565
0.00346763
0.00328609
0.00300701
0.00277169
0.00257259
0.00240601
0.00227287
0.00217304
0.00210502
0.0020672
0.00205901
0.00208048
0.0021329
0.00224056
0.00243832
0.00234547
0.00145649
0.000258309
0.00320194
0.00324432
0.00328534
0.00332415
0.00333485
0.00304206
0.00279045
0.00258763
0.00242092
0.00228416
0.00217575
0.00209461
0.00203953
0.00200977
0.00200573
0.00202897
0.00208148
0.00217609
0.0023538
0.00235997
0.00147869
0.000261691
0.00311568
0.00315483
0.00319403
0.00323211
0.00301512
0.00277604
0.00257018
0.00240497
0.00227066
0.00216174
0.00207588
0.00201178
0.0019687
0.00194665
0.00194681
0.00197185
0.00202468
0.00210971
0.00226853
0.00237237
0.00150022
0.000265128
0.0030509
0.00308681
0.00312318
0.00291318
0.002704
0.00252308
0.0023674
0.00223644
0.00212969
0.00204356
0.00197609
0.00192617
0.00189342
0.00187836
0.00188255
0.00190925
0.00196195
0.00204189
0.00218295
0.00228275
0.00152071
0.000268622
0.0030049
0.00295333
0.00277192
0.00259875
0.00244021
0.00230307
0.00218922
0.00208524
0.00199965
0.00193108
0.00187798
0.00183941
0.00181521
0.00180614
0.00181397
0.00184209
0.00189424
0.00197099
0.00209775
0.00218594
0.00154116
0.000272188
0.00284131
0.00265173
0.00249493
0.00235417
0.00222754
0.00211853
0.00202825
0.00195096
0.00188141
0.00182582
0.00178346
0.00175356
0.00173609
0.00173187
0.00174274
0.00177203
0.00182355
0.00189817
0.0020134
0.00209333
0.00156159
0.000275819
0.00260541
0.00243336
0.00229427
0.00216981
0.00206016
0.00196783
0.00189185
0.00183115
0.00177633
0.00173005
0.00169501
0.00167113
0.00165843
0.00165777
0.00167092
0.00170102
0.00175178
0.00182494
0.00193066
0.00200384
0.00158183
0.000279506
0.00243905
0.00227895
0.0021472
0.00203115
0.00193108
0.00184798
0.00178017
0.00172625
0.00168278
0.00164451
0.00161491
0.00159463
0.00158479
0.00158623
0.0016007
0.00163106
0.00168085
0.00175278
0.00185033
0.00191862
0.00160165
0.000283233
0.00231699
0.00216323
0.00203602
0.00192573
0.00183163
0.0017536
0.00168993
0.00163918
0.00160118
0.00156702
0.00154212
0.00152562
0.00151715
0.00151944
0.00153418
0.00156411
0.00161258
0.00168322
0.00177364
0.00183929
0.00162086
0.000286985
0.00221558
0.00206744
0.00194538
0.00184082
0.00175169
0.00167719
0.0016158
0.00156638
0.00152896
0.00149977
0.00147498
0.00146107
0.00145614
0.00145859
0.0014731
0.001502
0.00154862
0.00161764
0.00170201
0.00176825
0.00163923
0.000290736
0.00211863
0.0019767
0.00186182
0.00176502
0.00168202
0.00161132
0.00155197
0.00150342
0.00146608
0.0014412
0.00141525
0.00140063
0.0013969
0.00140346
0.00141833
0.00144583
0.00149027
0.0015571
0.00163646
0.00170732
0.00165659
0.00029444
0.00201258
0.00187844
0.00177498
0.00169014
0.00161554
0.00154938
0.00149241
0.00144521
0.00140843
0.00138351
0.00136118
0.00134517
0.00134085
0.00134762
0.00136554
0.00139436
0.00143725
0.00150189
0.00157684
0.00165401
0.00167292
0.000297948
0.00188105
0.00175932
0.00167503
0.00160945
0.00154779
0.00148848
0.00143496
0.00138958
0.00135371
0.00132917
0.00131158
0.00129356
0.00128836
0.00129483
0.00131285
0.00134342
0.00138827
0.00145082
0.00152171
0.00160115
0.00163781
0.000300823
0.00170153
0.00160653
0.00155742
0.0015175
0.00146922
0.00141785
0.00137042
0.00132958
0.00129683
0.00127474
0.00126496
0.00124464
0.00123866
0.00124517
0.00126325
0.00129367
0.00133871
0.00140252
0.00146946
0.00154621
0.0015983
0.000302954
0.00145925
0.00139694
0.00140919
0.00141876
0.00139307
0.00134932
0.00130538
0.00126723
0.00123695
0.00121754
0.00121313
0.00119487
0.00118857
0.00119627
0.00121576
0.0012469
0.00129171
0.00135423
0.00142169
0.00150172
0.00155373
0.000304929
0.00119755
0.00118666
0.00123072
0.00126653
0.00127266
0.00125571
0.00122706
0.0011985
0.00117594
0.0011629
0.00116381
0.00114808
0.00113887
0.00114709
0.00116868
0.00120198
0.00124808
0.0013106
0.00137847
0.00146681
0.0015241
0.000307311
0.00077986
0.00100877
0.00114563
0.00114304
0.00109711
0.00108426
0.00107929
0.00107776
0.00108109
0.00109102
0.0011118
0.00110408
0.0010911
0.0010994
0.00112315
0.00115928
0.00120797
0.00127278
0.00134383
0.00143357
0.00148119
0.00031026
0.000282983
0.000358383
0.000459103
0.000582944
0.000728776
0.000895849
0.00101084
0.000970805
0.000984593
0.00101927
0.00106522
0.00105922
0.00103609
0.00104665
0.00107654
0.00111858
0.00117183
0.0012406
0.00131766
0.00140811
0.00145185
0.000313399
0.000391085
0.00132182
0.00177126
0.00228383
0.00264246
0.00292926
0.0031109
0.00318183
0.00315769
0.00306238
0.00292084
0.00275539
0.00258259
0.00241205
0.00224751
0.00208916
0.00193603
0.00178779
0.000398424
0.00145057
0.00191145
0.00241488
0.00278033
0.00302232
0.00314356
0.00314722
0.00305633
0.00290297
0.00271719
0.00252258
0.00233355
0.00215574
0.00198945
0.00183386
0.00168995
0.00156141
0.000404395
0.00158539
0.00205115
0.00254351
0.002882
0.00307489
0.00313625
0.00307834
0.00293303
0.00273843
0.00252831
0.00232497
0.00213875
0.00197211
0.00182592
0.00170379
0.00161267
0.00155945
0.000409288
0.00172862
0.00219765
0.00267806
0.00295242
0.00309545
0.0031008
0.00299014
0.00280384
0.00258513
0.00236806
0.00217167
0.00200313
0.0018659
0.00176592
0.001712
0.00171012
0.00175597
0.000413028
0.00179159
0.00235582
0.00275809
0.00299702
0.00309201
0.00304749
0.00289444
0.00268071
0.00245252
0.0022418
0.0020643
0.00192755
0.0018396
0.00180996
0.00184288
0.00192899
0.00204543
0.000415734
0.00183889
0.00245815
0.0028175
0.003021
0.00307165
0.0029847
0.00279992
0.00257105
0.00234485
0.00215031
0.00200214
0.0019114
0.00188887
0.00193848
0.00204909
0.00219413
0.00234284
0.00041752
0.00187551
0.00251679
0.00285954
0.00302911
0.00304035
0.00291891
0.00271249
0.00247869
0.00226305
0.00209236
0.00198315
0.0019494
0.00199747
0.00211727
0.00228173
0.00245699
0.00261624
0.000418487
0.00190251
0.00256142
0.0028873
0.00302551
0.00300292
0.00285486
0.00263574
0.00240501
0.00220615
0.00206563
0.00200286
0.00203023
0.00214268
0.00231498
0.00251114
0.00269907
0.00286012
0.000418729
0.00192099
0.00259401
0.00290358
0.00301374
0.00296309
0.00279581
0.00257148
0.00234971
0.00217213
0.00206663
0.00205399
0.00213948
0.00230412
0.00251172
0.00272468
0.00291691
0.00307718
0.000418334
0.00193198
0.00261639
0.00291085
0.00299667
0.00292366
0.00274377
0.00252022
0.0023115
0.00215829
0.00209064
0.00212764
0.00226379
0.00246775
0.00269786
0.00291928
0.00311265
0.003272
0.00041738
0.00193651
0.00263022
0.00291123
0.00297655
0.00288655
0.00269979
0.00248154
0.00228851
0.00216145
0.00213228
0.00221522
0.00239313
0.00262573
0.00287017
0.00309616
0.00329013
0.00344931
0.000415941
0.00193548
0.00263696
0.00290647
0.00295513
0.00285303
0.00266415
0.00245442
0.00227854
0.00217824
0.00218622
0.00230975
0.00252115
0.00277464
0.0030287
0.00325811
0.00345338
0.00361357
0.000414083
0.00192974
0.00263788
0.00289801
0.00293367
0.0028238
0.00263663
0.00243754
0.00227935
0.00220536
0.00224783
0.00240623
0.00264434
0.00291358
0.00317504
0.00340804
0.00360601
0.00376857
0.000411865
0.00192004
0.00263408
0.00288696
0.00291304
0.00279915
0.00261663
0.00242941
0.00228878
0.00223983
0.00231342
0.00250143
0.00276113
0.00304297
0.00331117
0.00354868
0.00375096
0.00391741
0.00040934
0.00190702
0.00262646
0.00287421
0.0028938
0.00277905
0.00260336
0.00242859
0.00230486
0.00227917
0.00238033
0.00259342
0.00287102
0.00316377
0.00343898
0.0036824
0.00389038
0.00406237
0.000406553
0.00189126
0.00261577
0.00286041
0.00287629
0.00276328
0.00259596
0.00243373
0.0023259
0.00232137
0.00244669
0.00268115
0.0029741
0.003277
0.00355994
0.00381067
0.00402577
0.00420441
0.000403543
0.00187324
0.00260262
0.00284604
0.00286064
0.00275147
0.00259355
0.0024436
0.0023505
0.00236491
0.00251124
0.00276409
0.00307061
0.00338344
0.00367499
0.00393422
0.00415751
0.00434327
0.000400342
0.00185337
0.00258749
0.00283143
0.00284684
0.00274317
0.00259529
0.00245718
0.00237751
0.00240864
0.00257315
0.00284193
0.00316076
0.00348355
0.00378445
0.00405304
0.00428503
0.00447789
0.00039698
0.00183196
0.00257077
0.00281679
0.00283483
0.00273793
0.00260041
0.00247355
0.00240601
0.00245171
0.00263181
0.00291445
0.00324461
0.00357737
0.00388812
0.00416644
0.00440712
0.00460659
0.000393477
0.00180931
0.00255276
0.00280226
0.00282443
0.00273526
0.00260822
0.00248727
0.00243523
0.00249344
0.00268678
0.00298141
0.00332199
0.00366458
0.00398523
0.00427318
0.00452204
0.00472724
0.000389851
0.00178562
0.00253367
0.0027879
0.00281547
0.00273472
0.00261811
0.00246405
0.00246447
0.00253333
0.00273766
0.00304251
0.00339249
0.00374439
0.00407453
0.00437152
0.00462766
0.0048374
0.000386115
0.00176108
0.00251368
0.00277372
0.00280774
0.00273589
0.00262952
0.00245298
0.00247063
0.00257091
0.00278407
0.00309732
0.00345544
0.00381563
0.00415423
0.00445926
0.00472156
0.00493449
0.000382281
0.00173581
0.00249289
0.0027597
0.00280103
0.00273838
0.00264199
0.00245352
0.00247184
0.00260584
0.00282565
0.00314536
0.0035099
0.00387404
0.00416905
0.00448732
0.0048013
0.00501591
0.000378343
0.00170992
0.00247138
0.00274578
0.00279513
0.00274186
0.00265515
0.00246438
0.00247895
0.00263782
0.00286208
0.00318606
0.00355459
0.00382219
0.00410221
0.00440194
0.00469229
0.00490958
0.000374321
0.00168343
0.00244918
0.00273187
0.0027898
0.002746
0.00266866
0.0024849
0.00249249
0.00266667
0.0028931
0.00321884
0.00352888
0.00378014
0.00404821
0.00432753
0.00459173
0.00478643
0.000370271
0.00165566
0.00242573
0.00271756
0.00278461
0.00275041
0.00268231
0.00251541
0.00251379
0.00269237
0.00291861
0.00324354
0.00351044
0.00375829
0.00401673
0.00428176
0.00452938
0.00470833
0.000366334
0.00162448
0.0023999
0.00270204
0.00277897
0.00275469
0.00269579
0.00255552
0.00254421
0.00271584
0.00293872
0.00325851
0.00351116
0.00375894
0.00401122
0.00426772
0.0045051
0.00467301
0.000362484
0.00159028
0.00237162
0.00268518
0.00277272
0.00275858
0.00270885
0.00260642
0.00258537
0.00273724
0.00295378
0.00326733
0.00353805
0.00378516
0.00403499
0.00428646
0.00451632
0.00467397
0.000358697
0.00155373
0.00234075
0.00266682
0.00276565
0.00276184
0.00272125
0.00266961
0.0026399
0.00275647
0.00296387
0.00326705
0.00359912
0.003853
0.00410572
0.00435607
0.00457948
0.00472191
0.000354953
0.00151507
0.00230721
0.0026468
0.00275757
0.00276427
0.00273277
0.00269313
0.00268907
0.00277346
0.00296917
0.00325879
0.00359969
0.00395422
0.00423871
0.00449565
0.00471555
0.0048393
0.000351234
0.00147455
0.00227092
0.0026249
0.00274828
0.00276565
0.00274317
0.00271154
0.00271019
0.00278813
0.00297003
0.00324299
0.00356919
0.00391191
0.00424337
0.00454263
0.00479173
0.00497951
0.000347522
0.00143244
0.00223178
0.0026009
0.00273756
0.0027658
0.00275224
0.00272828
0.00272945
0.00280047
0.00296693
0.00322048
0.00352845
0.00385584
0.00417452
0.00446309
0.00470391
0.00488624
0.000343801
0.00138897
0.00218969
0.00257455
0.00272519
0.00276454
0.00275978
0.00274314
0.00274662
0.00281051
0.0029604
0.00319229
0.00347883
0.00378751
0.00409052
0.00436633
0.00459754
0.00477368
0.000340054
0.00134439
0.00214455
0.00254555
0.00271092
0.00276167
0.00276563
0.00275591
0.00276152
0.00281827
0.00295104
0.00315962
0.003422
0.00370886
0.00399343
0.00425438
0.00447464
0.00464374
0.000336267
0.00129893
0.00209626
0.00251359
0.00269446
0.002757
0.00276965
0.00276647
0.00277402
0.00282383
0.00293946
0.00312376
0.00335988
0.00362224
0.00388579
0.00412983
0.00433772
0.00449892
0.000332423
0.0012528
0.00204475
0.00247834
0.00267549
0.00275034
0.00277173
0.00277474
0.00278406
0.00282729
0.00292624
0.00308605
0.00329457
0.00353031
0.00377057
0.00399577
0.00418989
0.00434227
0.000328507
0.00120621
0.00198999
0.00243942
0.00265364
0.00274145
0.00277175
0.0027807
0.00279167
0.00282882
0.00291195
0.00304777
0.00322823
0.00343597
0.00365115
0.00385577
0.00403495
0.00417753
0.000324502
0.00115934
0.00193196
0.00239643
0.00262848
0.00273004
0.00276962
0.0027844
0.00279696
0.00282863
0.00289716
0.00301014
0.00316293
0.00334215
0.00353108
0.00371374
0.00387677
0.00400911
0.000320392
0.0011124
0.00187068
0.00234894
0.00259949
0.00271577
0.00276521
0.0027859
0.00280012
0.00282699
0.00288238
0.00297424
0.00310059
0.00325169
0.00341396
0.00357387
0.00371947
0.00384097
0.000316158
0.00106555
0.00180622
0.00229653
0.00256605
0.00269815
0.00275831
0.00278529
0.00280142
0.00282429
0.00286816
0.002941
0.00304288
0.00316714
0.0033033
0.0034402
0.00356775
0.00367733
0.000311781
0.00101896
0.0017387
0.00223873
0.00252739
0.00267655
0.00274861
0.00278258
0.00280113
0.00282092
0.00285501
0.00291125
0.00299116
0.00309063