/*--------------------------------*- C++ -*----------------------------------*\
| =========                 |                                                 |
| \\      /  F ield         | OpenFOAM: The Open Source CFD Toolbox           |
|  \\    /   O peration     | Version:  v2012                                 |
|   \\  /    A nd           | Website:  www.openfoam.com                      |
|    \\/     M anipulation  |                                                 |
\*---------------------------------------------------------------------------*/
FoamFile
{
    version     2.0;
    format      ascii;
    class       volVectorField;
    location    "765";
    object      U;
}
// * * * * * * * * * * * * * * * * * * * * * * * * * * * * * * * * * * * * * //

dimensions      [0 1 -1 0 0 0 0];


internalField   nonuniform List<vector> 
6066
(
(-0.00140614 -1.00355 0)
(-0.00102736 -1.00096 0)
(-0.000700275 -0.999147 0)
(-0.000434894 -0.997902 0)
(-0.000238539 -0.997086 0)
(-9.79121e-05 -0.996595 0)
(1.69855e-05 -0.996349 0)
(8.97391e-05 -0.996277 0)
(0.000143165 -0.996325 0)
(0.00017949 -0.996461 0)
(0.000211701 -0.996659 0)
(0.0002392 -0.996907 0)
(0.000264067 -0.997194 0)
(0.000287653 -0.997515 0)
(0.000310325 -0.997867 0)
(0.000331119 -0.998252 0)
(0.000346354 -0.998673 0)
(0.000344622 -0.999114 0)
(0.000280688 -0.999509 0)
(6.93076e-05 -0.99978 0)
(-0.00358851 -1.00842 0)
(-0.00263062 -1.00584 0)
(-0.00184141 -1.004 0)
(-0.00124729 -1.00274 0)
(-0.000829217 -1.00185 0)
(-0.000512978 -1.00122 0)
(-0.000270352 -1.0008 0)
(-0.000100637 -1.00052 0)
(1.95092e-05 -1.00033 0)
(0.000105707 -1.00021 0)
(0.000168685 -1.00015 0)
(0.000216813 -1.00011 0)
(0.000256072 -1.00009 0)
(0.000290209 -1.00009 0)
(0.000321341 -1.0001 0)
(0.00034911 -1.00012 0)
(0.000367719 -1.00014 0)
(0.000375462 -1.00014 0)
(0.000335212 -1.00012 0)
(0.000180534 -1.00003 0)
(-0.00596801 -1.0092 0)
(-0.00435159 -1.00672 0)
(-0.00307553 -1.00497 0)
(-0.00211876 -1.00374 0)
(-0.00142101 -1.00288 0)
(-0.000911491 -1.00229 0)
(-0.000547072 -1.00187 0)
(-0.000296765 -1.00157 0)
(-0.000121429 -1.00134 0)
(3.27459e-06 -1.00117 0)
(9.02433e-05 -1.00102 0)
(0.000153832 -1.0009 0)
(0.000202543 -1.00079 0)
(0.000241884 -1.00069 0)
(0.000273 -1.00059 0)
(0.00029344 -1.00049 0)
(0.000306097 -1.00038 0)
(0.000301894 -1.00026 0)
(0.000253537 -1.00013 0)
(0.000123519 -1.00002 0)
(-0.00829058 -1.0086 0)
(-0.0059831 -1.00633 0)
(-0.00420602 -1.00478 0)
(-0.00289546 -1.00373 0)
(-0.00195721 -1.00302 0)
(-0.00129199 -1.00253 0)
(-0.000825885 -1.00217 0)
(-0.000505326 -1.0019 0)
(-0.000284338 -1.00169 0)
(-0.000132505 -1.00151 0)
(-2.78472e-05 -1.00134 0)
(4.58012e-05 -1.00119 0)
(9.90452e-05 -1.00105 0)
(0.000138665 -1.0009 0)
(0.000167965 -1.00074 0)
(0.000187623 -1.00059 0)
(0.000197366 -1.00043 0)
(0.000189072 -1.00026 0)
(0.000148705 -1.00011 0)
(6.31948e-05 -1.00001 0)
(-0.0104328 -1.00706 0)
(-0.00740055 -1.00513 0)
(-0.00513948 -1.00393 0)
(-0.00351356 -1.00318 0)
(-0.00237454 -1.00269 0)
(-0.0015865 -1.00235 0)
(-0.00104703 -1.00211 0)
(-0.000681591 -1.00191 0)
(-0.000434576 -1.00174 0)
(-0.000267974 -1.00158 0)
(-0.00015594 -1.00143 0)
(-8.01336e-05 -1.00128 0)
(-2.83674e-05 -1.00112 0)
(7.3182e-06 -1.00096 0)
(3.17608e-05 -1.00079 0)
(4.7809e-05 -1.00061 0)
(5.68792e-05 -1.00043 0)
(5.73823e-05 -1.00025 0)
(4.52912e-05 -1.0001 0)
(1.83402e-05 -1.00001 0)
(-0.0122634 -1.00462 0)
(-0.00846523 -1.00325 0)
(-0.00575851 -1.00256 0)
(-0.00388132 -1.00221 0)
(-0.00260775 -1.00202 0)
(-0.00175131 -1.0019 0)
(-0.00117907 -1.0018 0)
(-0.000798759 -1.00171 0)
(-0.000546663 -1.00161 0)
(-0.000380339 -1.00149 0)
(-0.00027148 -1.00137 0)
(-0.000200906 -1.00124 0)
(-0.000155884 -1.0011 0)
(-0.00012789 -1.00094 0)
(-0.000110748 -1.00078 0)
(-9.92235e-05 -1.00061 0)
(-8.94199e-05 -1.00043 0)
(-7.68261e-05 -1.00025 0)
(-5.5366e-05 -1.0001 0)
(-2.16314e-05 -1.00001 0)
(-0.013603 -1.00119 0)
(-0.00899565 -1.00065 0)
(-0.00593363 -1.00069 0)
(-0.00391521 -1.00088 0)
(-0.00260437 -1.00107 0)
(-0.00175247 -1.00121 0)
(-0.00119859 -1.00129 0)
(-0.000838607 -1.00132 0)
(-0.000605025 -1.0013 0)
(-0.000454444 -1.00125 0)
(-0.000358847 -1.00118 0)
(-0.000299869 -1.00108 0)
(-0.000265412 -1.00098 0)
(-0.00024729 -1.00085 0)
(-0.000239258 -1.00072 0)
(-0.000234033 -1.00057 0)
(-0.000226501 -1.00042 0)
(-0.000206292 -1.00026 0)
(-0.00015722 -1.00011 0)
(-6.59596e-05 -1.00001 0)
(-0.0140952 -0.996406 0)
(-0.0086827 -0.997177 0)
(-0.00548407 -0.998262 0)
(-0.00351806 -0.999138 0)
(-0.00231202 -0.999781 0)
(-0.00155937 -1.00021 0)
(-0.00108515 -1.00049 0)
(-0.000784469 -1.00065 0)
(-0.000593517 -1.00074 0)
(-0.000473228 -1.00077 0)
(-0.000399363 -1.00077 0)
(-0.000356548 -1.00074 0)
(-0.0003349 -1.00069 0)
(-0.000327855 -1.00062 0)
(-0.000329423 -1.00055 0)
(-0.000330865 -1.00046 0)
(-0.000329523 -1.00036 0)
(-0.000315447 -1.00025 0)
(-0.00025957 -1.00012 0)
(-0.000125293 -1.00002 0)
(-0.0128756 -0.989017 0)
(-0.0070258 -0.992154 0)
(-0.00423888 -0.994816 0)
(-0.00264776 -0.996571 0)
(-0.00173549 -0.997739 0)
(-0.00118789 -0.998498 0)
(-0.000847514 -0.998999 0)
(-0.000634981 -0.999333 0)
(-0.000503677 -0.999557 0)
(-0.000423617 -0.99971 0)
(-0.000377103 -0.999817 0)
(-0.000353328 -0.999896 0)
(-0.000345501 -0.999957 0)
(-0.000348769 -1.00001 0)
(-0.000358908 -1.00005 0)
(-0.000372955 -1.00009 0)
(-0.000383323 -1.00012 0)
(-0.000387209 -1.00014 0)
(-0.000336164 -1.00012 0)
(-0.000180903 -1.00003 0)
(-0.00754493 -0.97424 0)
(-0.00333402 -0.981537 0)
(-0.00212884 -0.986746 0)
(-0.00132009 -0.989871 0)
(-0.000897665 -0.991845 0)
(-0.000643581 -0.993172 0)
(-0.000492427 -0.994112 0)
(-0.000404672 -0.994814 0)
(-0.000352412 -0.995373 0)
(-0.000322104 -0.995843 0)
(-0.000306833 -0.996262 0)
(-0.000302288 -0.996654 0)
(-0.000305745 -0.997035 0)
(-0.000315172 -0.997417 0)
(-0.000328573 -0.997809 0)
(-0.000343211 -0.99822 0)
(-0.000353803 -0.998657 0)
(-0.000348325 -0.999109 0)
(-0.000281017 -0.999509 0)
(-6.94253e-05 -0.999779 0)
(0.00833719 -1.02919 0)
(0.0067099 -1.04216 0)
(0.00531675 -1.05296 0)
(0.00401622 -1.06137 0)
(0.00280736 -1.06755 0)
(0.00168394 -1.07168 0)
(0.00064996 -1.0739 0)
(-0.00029008 -1.07438 0)
(-0.00113211 -1.07328 0)
(-0.0018708 -1.07078 0)
(-0.00249873 -1.06706 0)
(-0.00300767 -1.06232 0)
(-0.003391 -1.05679 0)
(-0.00364438 -1.05067 0)
(-0.00376511 -1.04422 0)
(-0.00375017 -1.03764 0)
(-0.00360584 -1.03119 0)
(-0.00335555 -1.02505 0)
(-0.00302561 -1.01942 0)
(-0.00263857 -1.01443 0)
(-0.00221781 -1.01013 0)
(-0.00180205 -1.0065 0)
(0.0205948 -1.0484 0)
(0.0167964 -1.06013 0)
(0.0133424 -1.0697 0)
(0.0101082 -1.077 0)
(0.00708688 -1.08218 0)
(0.00427508 -1.08536 0)
(0.00168313 -1.08667 0)
(-0.000678508 -1.08629 0)
(-0.00280182 -1.08435 0)
(-0.00466922 -1.08105 0)
(-0.00625983 -1.07656 0)
(-0.00755144 -1.07108 0)
(-0.00852651 -1.06486 0)
(-0.00917422 -1.05811 0)
(-0.00948973 -1.05107 0)
(-0.00947561 -1.04399 0)
(-0.00914755 -1.03711 0)
(-0.00854021 -1.03063 0)
(-0.0077072 -1.02475 0)
(-0.00671906 -1.01959 0)
(-0.00565823 -1.0152 0)
(-0.00461328 -1.01156 0)
(0.0326561 -1.05504 0)
(0.0267185 -1.06652 0)
(0.0210865 -1.07577 0)
(0.0157653 -1.08281 0)
(0.0107691 -1.08775 0)
(0.00610979 -1.0907 0)
(0.00181318 -1.09179 0)
(-0.00209586 -1.09117 0)
(-0.00560773 -1.08899 0)
(-0.0086918 -1.08541 0)
(-0.0113093 -1.08061 0)
(-0.0134187 -1.0748 0)
(-0.0149885 -1.06821 0)
(-0.0160011 -1.06107 0)
(-0.0164487 -1.05362 0)
(-0.0163348 -1.04614 0)
(-0.0156864 -1.03885 0)
(-0.0145677 -1.03202 0)
(-0.0130768 -1.02585 0)
(-0.0113401 -1.02047 0)
(-0.00950713 -1.01596 0)
(-0.00772622 -1.0123 0)
(0.0447828 -1.05956 0)
(0.0366565 -1.07106 0)
(0.0288927 -1.08033 0)
(0.0215224 -1.08738 0)
(0.0145729 -1.09232 0)
(0.00806396 -1.09524 0)
(0.00203614 -1.09626 0)
(-0.00345078 -1.09554 0)
(-0.00839115 -1.09321 0)
(-0.0127572 -1.08942 0)
(-0.0164792 -1.08433 0)
(-0.0194852 -1.07815 0)
(-0.0217229 -1.07111 0)
(-0.0231667 -1.06347 0)
(-0.0238026 -1.05548 0)
(-0.0236266 -1.04741 0)
(-0.022662 -1.03955 0)
(-0.0209963 -1.03219 0)
(-0.0187742 -1.02558 0)
(-0.0161849 -1.01991 0)
(-0.0134639 -1.01525 0)
(-0.0108457 -1.01159 0)
(0.0569934 -1.06295 0)
(0.0466514 -1.07458 0)
(0.0367523 -1.08398 0)
(0.0273244 -1.09118 0)
(0.0183943 -1.09627 0)
(0.00998676 -1.09933 0)
(0.00215873 -1.10043 0)
(-0.00493542 -1.09974 0)
(-0.0113933 -1.09734 0)
(-0.0171157 -1.09345 0)
(-0.0220272 -1.08811 0)
(-0.0260165 -1.08155 0)
(-0.0289942 -1.07401 0)
(-0.0309281 -1.06577 0)
(-0.0317957 -1.05709 0)
(-0.0315789 -1.04826 0)
(-0.0302738 -1.03962 0)
(-0.0279801 -1.03153 0)
(-0.0248994 -1.02432 0)
(-0.0212856 -1.01824 0)
(-0.0174908 -1.01342 0)
(-0.0138827 -1.00981 0)
(0.0693733 -1.06377 0)
(0.0568512 -1.07552 0)
(0.0448366 -1.08508 0)
(0.0333148 -1.09252 0)
(0.0223643 -1.09794 0)
(0.0120473 -1.10133 0)
(0.00245195 -1.1026 0)
(-0.00640278 -1.10268 0)
(-0.0144522 -1.10019 0)
(-0.0216224 -1.09651 0)
(-0.0278873 -1.09116 0)
(-0.0330014 -1.08441 0)
(-0.0368513 -1.07648 0)
(-0.0393843 -1.06769 0)
(-0.0405669 -1.05831 0)
(-0.0403751 -1.04861 0)
(-0.0387302 -1.03901 0)
(-0.0356975 -1.02999 0)
(-0.0315787 -1.022 0)
(-0.0266883 -1.01539 0)
(-0.021547 -1.01039 0)
(-0.0167359 -1.00695 0)
(0.0817181 -1.05842 0)
(0.066996 -1.07006 0)
(0.0528368 -1.07969 0)
(0.0394045 -1.08703 0)
(0.0266882 -1.09275 0)
(0.0146289 -1.09667 0)
(0.00333791 -1.09879 0)
(-0.00724724 -1.09925 0)
(-0.0168143 -1.09816 0)
(-0.0255591 -1.09527 0)
(-0.033496 -1.09025 0)
(-0.0400195 -1.08411 0)
(-0.0449244 -1.07644 0)
(-0.0482428 -1.06764 0)
(-0.049945 -1.05797 0)
(-0.0499667 -1.04765 0)
(-0.0480065 -1.03711 0)
(-0.0441089 -1.02706 0)
(-0.0387902 -1.01818 0)
(-0.0323806 -1.01097 0)
(-0.0255796 -1.00588 0)
(-0.0192733 -1.00281 0)
(0.0936471 -1.03936 0)
(0.0770211 -1.04973 0)
(0.0610942 -1.05837 0)
(0.04595 -1.06533 0)
(0.0315223 -1.07075 0)
(0.0178012 -1.0747 0)
(0.00481021 -1.0773 0)
(-0.0074061 -1.07861 0)
(-0.0187767 -1.07869 0)
(-0.0291375 -1.07757 0)
(-0.0381882 -1.07524 0)
(-0.0458754 -1.07152 0)
(-0.0520477 -1.06621 0)
(-0.0564797 -1.05951 0)
(-0.0591864 -1.05111 0)
(-0.059979 -1.04098 0)
(-0.0581357 -1.03092 0)
(-0.0535332 -1.02063 0)
(-0.0470985 -1.01143 0)
(-0.0390049 -1.00399 0)
(-0.0299259 -0.99912 0)
(-0.0212977 -0.996843 0)
(0.103323 -0.994497 0)
(0.0850154 -1.00078 0)
(0.0675719 -1.00549 0)
(0.0510469 -1.0088 0)
(0.0354168 -1.01093 0)
(0.020659 -1.01211 0)
(0.0067695 -1.01256 0)
(-0.00627237 -1.01246 0)
(-0.0184894 -1.01207 0)
(-0.0298983 -1.01167 0)
(-0.0404433 -1.01135 0)
(-0.0500147 -1.01118 0)
(-0.0582487 -1.01113 0)
(-0.0647118 -1.01095 0)
(-0.0690188 -1.01023 0)
(-0.0705804 -1.00856 0)
(-0.0705255 -1.00539 0)
(-0.065304 -1.00026 0)
(-0.0579053 -0.994137 0)
(-0.0470086 -0.988627 0)
(-0.0335617 -0.98545 0)
(-0.0210654 -0.986138 0)
(0.107245 -0.911928 0)
(0.0872751 -0.909937 0)
(0.0684147 -0.906272 0)
(0.050718 -0.901135 0)
(0.0341944 -0.894758 0)
(0.0188869 -0.887354 0)
(0.00486777 -0.879143 0)
(-0.00780646 -0.87044 0)
(-0.0191095 -0.861733 0)
(-0.0290389 -0.853238 0)
(-0.0375305 -0.845308 0)
(-0.0444875 -0.838431 0)
(-0.0499322 -0.833382 0)
(-0.0539298 -0.830943 0)
(-0.0563603 -0.831925 0)
(-0.0567802 -0.837312 0)
(-0.0547728 -0.84815 0)
(-0.0492089 -0.863897 0)
(-0.0397047 -0.881806 0)
(-0.0276876 -0.901651 0)
(-0.0160818 -0.925258 0)
(-0.00932 -0.953174 0)
(-0.0282104 0.0153525 0)
(-0.0210214 0.0546058 0)
(-0.00023387 0.0483146 0)
(0.0160428 0.0140718 0)
(0.0323849 -0.0591047 0)
(0.0455933 -0.182437 0)
(0.0462378 -0.305729 0)
(0.0417644 -0.413945 0)
(0.0371627 -0.511155 0)
(0.0329865 -0.597873 0)
(0.0293389 -0.675107 0)
(0.0260582 -0.743838 0)
(0.0230427 -0.804758 0)
(0.0202252 -0.858421 0)
(0.0175716 -0.905331 0)
(0.0150713 -0.945883 0)
(0.0127212 -0.980057 0)
(0.0104446 -1.00756 0)
(-0.0480597 0.00181912 0)
(-0.00351242 0.0262255 0)
(0.0323099 -0.00516169 0)
(0.0666424 -0.0902254 0)
(0.0999222 -0.204583 0)
(0.11436 -0.321588 0)
(0.109317 -0.414901 0)
(0.0984651 -0.503452 0)
(0.088151 -0.585031 0)
(0.078804 -0.659847 0)
(0.070425 -0.727949 0)
(0.0627672 -0.78953 0)
(0.0556328 -0.844754 0)
(0.0488926 -0.8938 0)
(0.0424924 -0.936879 0)
(0.0364473 -0.974115 0)
(0.0307907 -1.0054 0)
(0.0253748 -1.03082 0)
(-0.0544097 -0.0171793 0)
(0.0261457 -0.0178391 0)
(0.0825055 -0.0866709 0)
(0.134303 -0.188912 0)
(0.168866 -0.293437 0)
(0.175935 -0.383298 0)
(0.16592 -0.461918 0)
(0.152022 -0.539294 0)
(0.138069 -0.612535 0)
(0.124883 -0.681492 0)
(0.112565 -0.745477 0)
(0.100936 -0.804143 0)
(0.0898229 -0.857256 0)
(0.0791148 -0.904719 0)
(0.0687743 -0.946544 0)
(0.0588327 -0.982729 0)
(0.0493333 -1.01315 0)
(0.0402101 -1.03791 0)
(-0.0275229 -0.0354248 0)
(0.067064 -0.0673982 0)
(0.142526 -0.155659 0)
(0.200802 -0.254182 0)
(0.228494 -0.341108 0)
(0.22871 -0.415638 0)
(0.21628 -0.487185 0)
(0.200808 -0.558295 0)
(0.184553 -0.627019 0)
(0.168538 -0.69269 0)
(0.152989 -0.75436 0)
(0.137876 -0.811431 0)
(0.123127 -0.863463 0)
(0.108708 -0.9102 0)
(0.0946433 -0.951534 0)
(0.081003 -0.987396 0)
(0.0678446 -1.01765 0)
(0.0551574 -1.0424 0)
(0.0104244 -0.0514989 0)
(0.118856 -0.10784 0)
(0.203934 -0.201978 0)
(0.258792 -0.291251 0)
(0.278626 -0.366217 0)
(0.275235 -0.434269 0)
(0.262354 -0.502165 0)
(0.246139 -0.569748 0)
(0.228432 -0.635804 0)
(0.210301 -0.699421 0)
(0.192096 -0.759632 0)
(0.173934 -0.815723 0)
(0.155865 -0.867138 0)
(0.137955 -0.91351 0)
(0.120311 -0.954646 0)
(0.103072 -0.990436 0)
(0.0863463 -1.02074 0)
(0.0701865 -1.04564 0)
(0.062188 -0.0614103 0)
(0.178065 -0.134978 0)
(0.263031 -0.228858 0)
(0.310333 -0.309897 0)
(0.324151 -0.378957 0)
(0.319372 -0.444709 0)
(0.306571 -0.510692 0)
(0.289872 -0.576295 0)
(0.271045 -0.640702 0)
(0.251131 -0.702993 0)
(0.230571 -0.762243 0)
(0.209597 -0.817669 0)
(0.188374 -0.868634 0)
(0.16708 -0.914689 0)
(0.145925 -0.955588 0)
(0.125135 -0.991212 0)
(0.104897 -1.02145 0)
(0.0853348 -1.04637 0)
(0.124034 -0.067134 0)
(0.240963 -0.149932 0)
(0.319392 -0.241704 0)
(0.358632 -0.317355 0)
(0.368302 -0.384299 0)
(0.362842 -0.44943 0)
(0.34996 -0.514432 0)
(0.332763 -0.578904 0)
(0.312912 -0.642248 0)
(0.291362 -0.703615 0)
(0.268594 -0.762094 0)
(0.244915 -0.816843 0)
(0.220598 -0.867146 0)
(0.195949 -0.912497 0)
(0.171304 -0.952637 0)
(0.146996 -0.987483 0)
(0.123303 -1.017 0)
(0.10041 -1.04134 0)
(0.192735 -0.0713847 0)
(0.304396 -0.156435 0)
(0.373601 -0.245375 0)
(0.405559 -0.318093 0)
(0.412193 -0.384701 0)
(0.406071 -0.449765 0)
(0.392857 -0.514234 0)
(0.375082 -0.577982 0)
(0.354207 -0.640519 0)
(0.331055 -0.701027 0)
(0.306084 -0.758548 0)
(0.279657 -0.812138 0)
(0.252163 -0.860985 0)
(0.224059 -0.904535 0)
(0.195843 -0.942548 0)
(0.167994 -0.975035 0)
(0.140904 -1.0021 0)
(0.114835 -1.02409 0)
(0.268305 -0.0736947 0)
(0.366455 -0.157066 0)
(0.426216 -0.243337 0)
(0.45195 -0.31465 0)
(0.456112 -0.381448 0)
(0.44916 -0.446507 0)
(0.435404 -0.510569 0)
(0.416926 -0.573676 0)
(0.394924 -0.635334 0)
(0.370033 -0.69465 0)
(0.342652 -0.750514 0)
(0.313184 -0.801789 0)
(0.282161 -0.847515 0)
(0.250244 -0.887074 0)
(0.21815 -0.92028 0)
(0.186554 -0.947298 0)
(0.155998 -0.968458 0)
(0.126828 -0.98435 0)
(0.339944 -0.073157 0)
(0.426768 -0.153504 0)
(0.477708 -0.237804 0)
(0.498151 -0.308399 0)
(0.500089 -0.375288 0)
(0.492107 -0.440171 0)
(0.477595 -0.50371 0)
(0.45821 -0.565968 0)
(0.434811 -0.626318 0)
(0.407795 -0.683634 0)
(0.37746 -0.736492 0)
(0.344266 -0.783445 0)
(0.308943 -0.823319 0)
(0.272441 -0.855461 0)
(0.235787 -0.879825 0)
(0.199919 -0.896849 0)
(0.165558 -0.907178 0)
(0.133116 -0.911692 0)
(0.101023 -0.796588 0)
(0.0791988 -0.786504 0)
(0.0587976 -0.775164 0)
(0.0398304 -0.762751 0)
(0.0222477 -0.749373 0)
(0.00600003 -0.735079 0)
(-0.00895621 -0.719853 0)
(-0.0226228 -0.703426 0)
(-0.0349998 -0.685247 0)
(-0.0460067 -0.664978 0)
(-0.0554812 -0.642216 0)
(-0.0629868 -0.617079 0)
(-0.0681809 -0.588595 0)
(-0.0709259 -0.555928 0)
(-0.0710493 -0.517994 0)
(-0.0689504 -0.473788 0)
(-0.0646147 -0.422514 0)
(-0.0580357 -0.362318 0)
(-0.0493393 -0.29108 0)
(-0.0389685 -0.213505 0)
(-0.0316968 -0.147507 0)
(-0.0260259 -0.120215 0)
(0.0896982 -0.692677 0)
(0.0673195 -0.684632 0)
(0.046433 -0.676577 0)
(0.0268894 -0.668348 0)
(0.00849728 -0.659545 0)
(-0.00890869 -0.649717 0)
(-0.0254795 -0.638303 0)
(-0.0412833 -0.625003 0)
(-0.0562684 -0.609529 0)
(-0.0703612 -0.591605 0)
(-0.0835629 -0.570865 0)
(-0.0960114 -0.546872 0)
(-0.107825 -0.519087 0)
(-0.119081 -0.486826 0)
(-0.129858 -0.449226 0)
(-0.140051 -0.405413 0)
(-0.149042 -0.354068 0)
(-0.155382 -0.292964 0)
(-0.157955 -0.219854 0)
(-0.155782 -0.13712 0)
(-0.143881 -0.0590016 0)
(-0.099357 -0.00788677 0)
(0.0845318 -0.62763 0)
(0.0625656 -0.625643 0)
(0.0415636 -0.623063 0)
(0.0213383 -0.619426 0)
(0.00172749 -0.614245 0)
(-0.0173487 -0.607156 0)
(-0.0358836 -0.597947 0)
(-0.0538394 -0.586442 0)
(-0.0711694 -0.572445 0)
(-0.087805 -0.555761 0)
(-0.103702 -0.536181 0)
(-0.118884 -0.513502 0)
(-0.133475 -0.487498 0)
(-0.147725 -0.45786 0)
(-0.162045 -0.424189 0)
(-0.176889 -0.38604 0)
(-0.192356 -0.342766 0)
(-0.207569 -0.292838 0)
(-0.22071 -0.234454 0)
(-0.227624 -0.168306 0)
(-0.213607 -0.100041 0)
(-0.137929 -0.035748 0)
(0.0849108 -0.586976 0)
(0.0621059 -0.587901 0)
(0.0397237 -0.587345 0)
(0.017711 -0.585034 0)
(-0.00395902 -0.580747 0)
(-0.0252752 -0.574324 0)
(-0.0462115 -0.56565 0)
(-0.066741 -0.554556 0)
(-0.0868269 -0.54088 0)
(-0.10643 -0.524448 0)
(-0.12553 -0.505084 0)
(-0.144149 -0.482639 0)
(-0.16239 -0.457 0)
(-0.180501 -0.428061 0)
(-0.198884 -0.395666 0)
(-0.217967 -0.35961 0)
(-0.237915 -0.319649 0)
(-0.258361 -0.275337 0)
(-0.277776 -0.225818 0)
(-0.291706 -0.170022 0)
(-0.28513 -0.108191 0)
(-0.216965 -0.0420809 0)
(0.0871315 -0.554182 0)
(0.0627163 -0.555647 0)
(0.0385161 -0.55535 0)
(0.0145277 -0.55316 0)
(-0.00924772 -0.548973 0)
(-0.0328024 -0.542682 0)
(-0.0561188 -0.534163 0)
(-0.0791798 -0.523262 0)
(-0.101953 -0.509823 0)
(-0.1244 -0.493677 0)
(-0.146483 -0.474646 0)
(-0.16818 -0.452585 0)
(-0.189542 -0.427431 0)
(-0.210809 -0.399175 0)
(-0.232498 -0.367735 0)
(-0.254992 -0.333112 0)
(-0.278441 -0.295473 0)
(-0.302736 -0.254845 0)
(-0.32691 -0.210765 0)
(-0.34693 -0.161545 0)
(-0.349124 -0.105237 0)
(-0.292864 -0.0422058 0)
(0.0894422 -0.522834 0)
(0.0632521 -0.524095 0)
(0.037194 -0.523609 0)
(0.0112578 -0.521287 0)
(-0.0145646 -0.51706 0)
(-0.0402846 -0.510833 0)
(-0.0659032 -0.502484 0)
(-0.0914182 -0.491872 0)
(-0.116813 -0.478845 0)
(-0.142057 -0.463234 0)
(-0.167105 -0.444849 0)
(-0.191897 -0.423535 0)
(-0.216405 -0.399233 0)
(-0.240777 -0.371842 0)
(-0.265551 -0.341339 0)
(-0.290855 -0.308028 0)
(-0.316913 -0.27218 0)
(-0.344004 -0.234006 0)
(-0.371683 -0.193441 0)
(-0.396959 -0.148737 0)
(-0.408095 -0.0973405 0)
(-0.365316 -0.0395276 0)
(0.0913929 -0.491407 0)
(0.0634878 -0.492301 0)
(0.035662 -0.491538 0)
(0.0078888 -0.489053 0)
(-0.019858 -0.484788 0)
(-0.0476099 -0.47866 0)
(-0.0753866 -0.47055 0)
(-0.103203 -0.460327 0)
(-0.131059 -0.447848 0)
(-0.158937 -0.432944 0)
(-0.186795 -0.415426 0)
(-0.21456 -0.395127 0)
(-0.242159 -0.372 0)
(-0.269633 -0.345784 0)
(-0.29731 -0.31654 0)
(-0.325182 -0.284717 0)
(-0.353538 -0.250506 0)
(-0.382825 -0.214264 0)
(-0.413119 -0.176254 0)
(-0.44261 -0.135037 0)
(-0.461612 -0.0881632 0)
(-0.431531 -0.0358788 0)
(0.0928901 -0.45975 0)
(0.06338 -0.460257 0)
(0.0339071 -0.459222 0)
(0.00442814 -0.456596 0)
(-0.0251024 -0.452331 0)
(-0.0547358 -0.446354 0)
(-0.0845126 -0.438552 0)
(-0.114467 -0.428803 0)
(-0.144615 -0.416965 0)
(-0.174952 -0.402879 0)
(-0.205442 -0.386354 0)
(-0.236015 -0.367225 0)
(-0.266572 -0.345462 0)
(-0.297072 -0.320731 0)
(-0.327524 -0.293056 0)
(-0.357888 -0.262902 0)
(-0.388408 -0.230432 0)
(-0.419584 -0.196039 0)
(-0.451903 -0.160226 0)
(-0.484653 -0.121961 0)
(-0.510067 -0.0791685 0)
(-0.491241 -0.0321291 0)
(0.0939358 -0.428035 0)
(0.0629448 -0.428177 0)
(0.0319583 -0.426901 0)
(0.000917468 -0.424171 0)
(-0.0302443 -0.419954 0)
(-0.0615975 -0.414181 0)
(-0.0932055 -0.406749 0)
(-0.125123 -0.39754 0)
(-0.157387 -0.386419 0)
(-0.19 -0.373229 0)
(-0.222935 -0.35778 0)
(-0.25612 -0.339908 0)
(-0.289447 -0.319598 0)
(-0.322817 -0.296522 0)
(-0.355976 -0.270618 0)
(-0.388776 -0.242299 0)
(-0.421383 -0.211738 0)
(-0.454296 -0.17931 0)
(-0.488275 -0.145621 0)
(-0.523516 -0.110029 0)
(-0.553915 -0.0709256 0)
(-0.54469 -0.0286697 0)
(0.0945614 -0.396506 0)
(0.062218 -0.396321 0)
(0.0298561 -0.394843 0)
(-0.00259877 -0.392053 0)
(-0.0352345 -0.387927 0)
(-0.0681409 -0.382405 0)
(-0.101406 -0.375391 0)
(-0.135109 -0.366777 0)
(-0.169305 -0.356431 0)
(-0.204014 -0.344196 0)
(-0.23921 -0.329886 0)
(-0.274818 -0.313331 0)
(-0.310712 -0.29451 0)
(-0.346759 -0.273146 0)
(-0.382522 -0.249109 0)
(-0.417684 -0.222728 0)
(-0.452308 -0.194208 0)
(-0.486872 -0.163888 0)
(-0.52229 -0.132363 0)
(-0.559448 -0.0993067 0)
(-0.593625 -0.0635669 0)
(-0.592482 -0.0255804 0)
(0.0948115 -0.365409 0)
(0.0612435 -0.364942 0)
(0.0276434 -0.363306 0)
(-0.00607863 -0.360498 0)
(-0.0400306 -0.356501 0)
(-0.0743234 -0.351264 0)
(-0.10907 -0.344705 0)
(-0.144376 -0.33672 0)
(-0.180319 -0.327186 0)
(-0.216939 -0.315949 0)
(-0.254215 -0.302822 0)
(-0.292066 -0.287626 0)
(-0.330341 -0.270318 0)
(-0.368872 -0.250664 0)
(-0.407107 -0.228507 0)
(-0.444522 -0.204108 0)
(-0.481071 -0.177696 0)
(-0.517211 -0.149595 0)
(-0.553951 -0.120273 0)
(-0.592614 -0.0896622 0)
(-0.629612 -0.0570393 0)
(-0.635241 -0.0228492 0)
(0.0947376 -0.334967 0)
(0.0600689 -0.334268 0)
(0.0253629 -0.33252 0)
(-0.0094848 -0.329731 0)
(-0.0446006 -0.325894 0)
(-0.0801168 -0.320968 0)
(-0.116172 -0.31488 0)
(-0.152897 -0.30754 0)
(-0.190399 -0.298832 0)
(-0.228741 -0.288609 0)
(-0.267916 -0.276686 0)
(-0.307838 -0.262874 0)
(-0.348329 -0.247097 0)
(-0.389177 -0.229129 0)
(-0.429737 -0.208826 0)
(-0.46927 -0.186408 0)
(-0.507625 -0.16211 0)
(-0.545264 -0.136265 0)
(-0.583268 -0.109176 0)
(-0.623132 -0.0809446 0)
(-0.662224 -0.0512291 0)
(-0.673539 -0.0204323 0)
(0.0943952 -0.305366 0)
(0.0587432 -0.304488 0)
(0.0230559 -0.302672 0)
(-0.0127845 -0.299939 0)
(-0.048921 -0.296287 0)
(-0.0855062 -0.291686 0)
(-0.122703 -0.286074 0)
(-0.160669 -0.279377 0)
(-0.199543 -0.271487 0)
(-0.239416 -0.262268 0)
(-0.280302 -0.251541 0)
(-0.322121 -0.239115 0)
(-0.364679 -0.22487 0)
(-0.407706 -0.208558 0)
(-0.450442 -0.19007 0)
(-0.491947 -0.169614 0)
(-0.531982 -0.147403 0)
(-0.571023 -0.123777 0)
(-0.610247 -0.0989142 0)
(-0.651098 -0.0730063 0)
(-0.69175 -0.0460175 0)
(-0.707864 -0.0182793 0)
(0.0938416 -0.27675 0)
(0.0573154 -0.275743 0)
(0.0207618 -0.273903 0)
(-0.015949 -0.271258 0)
(-0.0529747 -0.267813 0)
(-0.0904864 -0.263545 0)
(-0.128669 -0.258408 0)
(-0.167708 -0.252338 0)
(-0.207771 -0.245242 0)
(-0.248984 -0.236994 0)
(-0.291392 -0.227433 0)
(-0.334934 -0.216367 0)
(-0.379402 -0.203613 0)
(-0.424492 -0.188933 0)
(-0.469248 -0.172231 0)
(-0.512587 -0.153707 0)
(-0.554192 -0.133549 0)
(-0.594534 -0.112047 0)
(-0.634929 -0.0893687 0)
(-0.676604 -0.065732 0)
(-0.718433 -0.0413051 0)
(-0.738624 -0.0163455 0)
(0.0931332 -0.24921 0)
(0.055833 -0.248125 0)
(0.018518 -0.246302 0)
(-0.0189523 -0.243775 0)
(-0.0567481 -0.240556 0)
(-0.095057 -0.236629 0)
(-0.134084 -0.231959 0)
(-0.174038 -0.226494 0)
(-0.215119 -0.220157 0)
(-0.257487 -0.212837 0)
(-0.301233 -0.204394 0)
(-0.346317 -0.194639 0)
(-0.392549 -0.183294 0)
(-0.439565 -0.170216 0)
(-0.486173 -0.155293 0)
(-0.53123 -0.138663 0)
(-0.574309 -0.120517 0)
(-0.615901 -0.101033 0)
(-0.657382 -0.0804559 0)
(-0.699745 -0.0590393 0)
(-0.742481 -0.0370172 0)
(-0.766165 -0.0145955 0)
(0.0923234 -0.222791 0)
(0.0543409 -0.221674 0)
(0.0163597 -0.219905 0)
(-0.0217699 -0.217525 0)
(-0.0602287 -0.214551 0)
(-0.0992187 -0.210972 0)
(-0.138962 -0.206762 0)
(-0.17969 -0.201881 0)
(-0.221632 -0.196265 0)
(-0.264993 -0.189827 0)
(-0.309895 -0.182434 0)
(-0.356321 -0.173876 0)
(-0.404191 -0.163907 0)
(-0.452938 -0.152391 0)
(-0.501243 -0.139242 0)
(-0.547932 -0.124452 0)
(-0.592411 -0.108241 0)
(-0.635224 -0.0907111 0)
(-0.677675 -0.0721463 0)
(-0.720632 -0.0528633 0)
(-0.764084 -0.0330981 0)
(-0.790781 -0.0130017 0)
(0.0914609 -0.197493 0)
(0.0528798 -0.196385 0)
(0.0143189 -0.194706 0)
(-0.0243788 -0.192499 0)
(-0.0634036 -0.189787 0)
(-0.10297 -0.186563 0)
(-0.143315 -0.18281 0)
(-0.184693 -0.178497 0)
(-0.227368 -0.173579 0)
(-0.271569 -0.167972 0)
(-0.317425 -0.161527 0)
(-0.365056 -0.154057 0)
(-0.414376 -0.145427 0)
(-0.464604 -0.135475 0)
(-0.514499 -0.124058 0)
(-0.562764 -0.111048 0)
(-0.608586 -0.0966666 0)
(-0.652562 -0.0810297 0)
(-0.695889 -0.0644057 0)
(-0.739386 -0.0471441 0)
(-0.783414 -0.0295003 0)
(-0.812726 -0.0115419 0)
(0.0905886 -0.173278 0)
(0.0514857 -0.172215 0)
(0.0124251 -0.170655 0)
(-0.0267566 -0.168646 0)
(-0.0662574 -0.166214 0)
(-0.106304 -0.163358 0)
(-0.147152 -0.160065 0)
(-0.18908 -0.156322 0)
(-0.232369 -0.152079 0)
(-0.277239 -0.147221 0)
(-0.323937 -0.141637 0)
(-0.372634 -0.135224 0)
(-0.423093 -0.127884 0)
(-0.474605 -0.119464 0)
(-0.526004 -0.109709 0)
(-0.575799 -0.0984161 0)
(-0.622937 -0.0857818 0)
(-0.667993 -0.071942 0)
(-0.712123 -0.0571813 0)
(-0.756126 -0.0418297 0)
(-0.800626 -0.0261827 0)
(-0.832219 -0.0101971 0)
(0.0897434 -0.150076 0)
(0.0501905 -0.149089 0)
(0.0107053 -0.147676 0)
(-0.0288809 -0.145888 0)
(-0.0687735 -0.143756 0)
(-0.109215 -0.141284 0)
(-0.150483 -0.138471 0)
(-0.192864 -0.135304 0)
(-0.236611 -0.131674 0)
(-0.282084 -0.12753 0)
(-0.329559 -0.122789 0)
(-0.379052 -0.117406 0)
(-0.430385 -0.111306 0)
(-0.483026 -0.104323 0)
(-0.535829 -0.0961448 0)
(-0.587119 -0.0864951 0)
(-0.635542 -0.0755426 0)
(-0.681604 -0.0634157 0)
(-0.72648 -0.0504208 0)
(-0.770961 -0.0368736 0)
(-0.815859 -0.0231095 0)
(-0.849452 -0.00895083 0)
(0.0889566 -0.127789 0)
(0.0490224 -0.126906 0)
(0.00918547 -0.125666 0)
(-0.0307298 -0.124125 0)
(-0.0709393 -0.12232 0)
(-0.111701 -0.120262 0)
(-0.153293 -0.117945 0)
(-0.19597 -0.115314 0)
(-0.240158 -0.112318 0)
(-0.286224 -0.108896 0)
(-0.334252 -0.104998 0)
(-0.384318 -0.100598 0)
(-0.436365 -0.0956485 0)
(-0.48997 -0.0899862 0)
(-0.544052 -0.083294 0)
(-0.59679 -0.0752245 0)
(-0.646469 -0.0658684 0)
(-0.693489 -0.0553899 0)
(-0.739058 -0.0440711 0)
(-0.783996 -0.0322314 0)
(-0.829236 -0.0202487 0)
(-0.864589 -0.00778864 0)
(0.0882556 -0.106295 0)
(0.0480075 -0.105544 0)
(0.00788953 -0.104508 0)
(-0.0322841 -0.103248 0)
(-0.0727357 -0.101815 0)
(-0.113705 -0.10019 0)
(-0.15548 -0.0983797 0)
(-0.19848 -0.0963191 0)
(-0.243109 -0.0939926 0)
(-0.289564 -0.0912896 0)
(-0.338008 -0.0882038 0)
(-0.388541 -0.0847279 0)
(-0.441149 -0.0808276 0)
(-0.495541 -0.0763753 0)
(-0.550752 -0.0710778 0)
(-0.604867 -0.0645346 0)
(-0.655798 -0.056701 0)
(-0.70374 -0.0478009 0)
(-0.749943 -0.0380845 0)
(-0.795324 -0.027863 0)
(-0.840865 -0.0175715 0)
(-0.877774 -0.00669751 0)
(0.0876674 -0.085443 0)
(0.0471713 -0.0848616 0)
(0.00684054 -0.0840771 0)
(-0.033504 -0.0831403 0)
(-0.0740612 -0.0821122 0)
(-0.115138 -0.0809873 0)
(-0.157137 -0.0797298 0)
(-0.200424 -0.0783076 0)
(-0.24533 -0.0766103 0)
(-0.292112 -0.0746104 0)
(-0.34091 -0.0723015 0)
(-0.391808 -0.0696836 0)
(-0.444839 -0.0667454 0)
(-0.49984 -0.0634049 0)
(-0.556006 -0.0594111 0)
(-0.611406 -0.0543344 0)
(-0.663595 -0.0479795 0)
(-0.712423 -0.0405935 0)
(-0.759217 -0.0324125 0)
(-0.805028 -0.02373 0)
(-0.850841 -0.0150513 0)
(-0.889129 -0.00566544 0)
(0.0872414 -0.0650414 0)
(0.0465838 -0.0646998 0)
(0.00616166 -0.0642429 0)
(-0.0342283 -0.0637355 0)
(-0.0748682 -0.0631981 0)
(-0.116073 -0.0626356 0)
(-0.158219 -0.0619707 0)
(-0.201701 -0.0611258 0)
(-0.246866 -0.060049 0)
(-0.29393 -0.0587248 0)
(-0.343009 -0.0571517 0)
(-0.394184 -0.0553409 0)
(-0.44752 -0.0533005 0)
(-0.502962 -0.0509894 0)
(-0.559892 -0.0482118 0)
(-0.61646 -0.0445373 0)
(-0.6699 -0.0396245 0)
(-0.719597 -0.0337066 0)
(-0.76695 -0.0270031 0)
(-0.813181 -0.0197939 0)
(-0.859244 -0.0126625 0)
(-0.898757 -0.00468118 0)
(0.0870593 -0.0451981 0)
(0.0463482 -0.045185 0)
(0.00589446 -0.0451382 0)
(-0.0345165 -0.0451247 0)
(-0.0751725 -0.0451265 0)
(-0.116432 -0.0450917 0)
(-0.158704 -0.0449523 0)
(-0.202379 -0.0446529 0)
(-0.247764 -0.0441641 0)
(-0.295051 -0.0434799 0)
(-0.344344 -0.0426105 0)
(-0.395719 -0.0415736 0)
(-0.449257 -0.040388 0)
(-0.504987 -0.0390435 0)
(-0.562489 -0.0374037 0)
(-0.620078 -0.0350676 0)
(-0.674748 -0.0315642 0)
(-0.725308 -0.0270806 0)
(-0.773202 -0.0218064 0)
(-0.819842 -0.0160176 0)
(-0.86614 -0.0103808 0)
(-0.906743 -0.00373458 0)
(0.0871934 -0.0261091 0)
(0.0465007 -0.026473 0)
(0.0060866 -0.026862 0)
(-0.0342882 -0.0272952 0)
(-0.0749476 -0.0277522 0)
(-0.116273 -0.0281761 0)
(-0.158669 -0.0285116 0)
(-0.202504 -0.0287196 0)
(-0.248058 -0.0287859 0)
(-0.295504 -0.0287176 0)
(-0.344942 -0.0285334 0)
(-0.396442 -0.028254 0)
(-0.450093 -0.0279005 0)
(-0.50598 -0.0274816 0)
(-0.563867 -0.0269153 0)
(-0.622309 -0.0258554 0)
(-0.678167 -0.0237352 0)
(-0.729592 -0.0206592 0)
(-0.77802 -0.0167765 0)
(-0.825058 -0.0123664 0)
(-0.871579 -0.00818348 0)
(-0.913157 -0.00281856 0)
(0.0876878 -0.00761277 0)
(0.0470682 -0.00834474 0)
(0.0067197 -0.0091264 0)
(-0.0336162 -0.00995742 0)
(-0.0742805 -0.0108185 0)
(-0.115661 -0.0116595 0)
(-0.158152 -0.0124383 0)
(-0.202101 -0.0131317 0)
(-0.247764 -0.0137398 0)
(-0.295302 -0.0142809 0)
(-0.34481 -0.0147797 0)
(-0.396361 -0.0152569 0)
(-0.450046 -0.0157309 0)
(-0.505983 -0.0162174 0)
(-0.564089 -0.0166779 0)
(-0.623199 -0.0168351 0)
(-0.680176 -0.0160785 0)
(-0.732475 -0.0143892 0)
(-0.781441 -0.0118703 0)
(-0.828864 -0.00880701 0)
(-0.8756 -0.0060505 0)
(-0.918056 -0.00193732 0)
(0.0885318 0.0105591 0)
(0.0480121 0.00948715 0)
(0.00773817 0.0083515 0)
(-0.0325547 0.00715823 0)
(-0.0732122 0.00592309 0)
(-0.114623 0.0046853 0)
(-0.157168 0.00347321 0)
(-0.201175 0.00229511 0)
(-0.246881 0.00113851 0)
(-0.294436 -2.32346e-05 0)
(-0.343939 -0.00121803 0)
(-0.395469 -0.00246501 0)
(-0.449118 -0.00377625 0)
(-0.505018 -0.00516608 0)
(-0.563199 -0.00662519 0)
(-0.622789 -0.00794658 0)
(-0.680788 -0.00853959 0)
(-0.733976 -0.00821843 0)
(-0.783493 -0.00704765 0)
(-0.831282 -0.00530712 0)
(-0.878231 -0.00396491 0)
(-0.921479 -0.00108292 0)
(0.0896889 0.0286345 0)
(0.0492875 0.0272576 0)
(0.00909915 0.0258036 0)
(-0.031137 0.0242777 0)
(-0.0717645 0.0226879 0)