/*--------------------------------*- C++ -*----------------------------------*\
| =========                 |                                                 |
| \\      /  F ield         | OpenFOAM: The Open Source CFD Toolbox           |
|  \\    /   O peration     | Version:  v2012                                 |
|   \\  /    A nd           | Website:  www.openfoam.com                      |
|    \\/     M anipulation  |                                                 |
\*---------------------------------------------------------------------------*/
FoamFile
{
    version     2.0;
    format      ascii;
    class       volScalarField;
    location    "734";
    object      age;
}
// * * * * * * * * * * * * * * * * * * * * * * * * * * * * * * * * * * * * * //

dimensions      [0 0 1 0 0 0 0];


internalField   nonuniform List<scalar> 
6024
(
0.488974
0.463947
0.438882
0.413792
0.388686
0.36357
0.338451
0.313332
0.288216
0.263105
0.238001
0.212904
0.187815
0.162737
0.137668
0.112611
0.087565
0.0625317
0.0375108
0.012502
0.487077
0.462206
0.437295
0.412357
0.387399
0.362426
0.337444
0.312456
0.287463
0.262468
0.237472
0.212474
0.187476
0.162479
0.137482
0.112485
0.0874888
0.0624929
0.0374968
0.0124996
0.486644
0.461805
0.436928
0.412023
0.387099
0.362161
0.337213
0.312257
0.287296
0.262331
0.237361
0.212389
0.187413
0.162435
0.137453
0.112469
0.0874817
0.0624911
0.0374971
0.0124997
0.486533
0.461693
0.436818
0.411918
0.387002
0.362073
0.337136
0.312192
0.287241
0.262286
0.237327
0.212364
0.187396
0.162424
0.137448
0.112467
0.0874817
0.0624918
0.0374976
0.0124998
0.486568
0.461707
0.436816
0.411907
0.386985
0.362054
0.337116
0.312174
0.287226
0.262274
0.237317
0.212357
0.187391
0.162422
0.137447
0.112467
0.0874823
0.0624924
0.0374978
0.0124998
0.486703
0.461803
0.436884
0.411953
0.387016
0.362075
0.33713
0.312183
0.287232
0.262278
0.23732
0.212358
0.187392
0.162422
0.137447
0.112467
0.0874824
0.0624924
0.0374979
0.0124998
0.486931
0.46198
0.437015
0.412053
0.387092
0.362133
0.337176
0.312218
0.287258
0.262297
0.237334
0.212368
0.187398
0.162425
0.137449
0.112467
0.0874819
0.0624919
0.0374976
0.0124998
0.487319
0.462264
0.437245
0.412235
0.387241
0.362255
0.337275
0.312298
0.287323
0.262348
0.237372
0.212395
0.187417
0.162437
0.137455
0.11247
0.0874821
0.0624913
0.0374971
0.0124997
0.488604
0.462731
0.437757
0.412636
0.387589
0.362549
0.337525
0.312508
0.287497
0.26249
0.237485
0.212482
0.187481
0.162482
0.137483
0.112486
0.0874891
0.062493
0.0374969
0.0124996
0.4867
0.465639
0.43923
0.414195
0.388907
0.363724
0.338548
0.313395
0.288256
0.263131
0.238016
0.212913
0.187821
0.16274
0.13767
0.112611
0.0875653
0.0625317
0.0375108
0.012502
1.43187
1.36815
1.315
1.26878
1.22749
1.18985
1.15502
1.12239
1.09154
1.06211
1.03386
1.00655
0.980032
0.954149
0.928781
0.903827
0.879195
0.854807
0.830596
0.806501
0.782469
0.758455
0.734422
0.710336
0.68617
0.661904
0.637526
0.613028
0.588412
0.563685
0.538859
0.51395
1.40697
1.34849
1.29858
1.25453
1.21478
1.1783
1.14439
1.11253
1.08233
1.05349
1.02575
0.99893
0.972859
0.947401
0.922437
0.897865
0.873597
0.849557
0.825677
0.801897
0.778164
0.754433
0.73066
0.706815
0.682872
0.658813
0.634628
0.610313
0.58587
0.56131
0.536646
0.511896
1.38754
1.33348
1.28646
1.24443
1.20621
1.17094
1.13803
1.107
1.0775
1.04926
1.02205
0.995681
0.970001
0.94488
0.920206
0.895884
0.871833
0.847979
0.824259
0.800618
0.777005
0.753378
0.729701
0.705942
0.682077
0.658087
0.633961
0.609697
0.585299
0.560777
0.536148
0.511431
1.3751
1.3242
1.27928
1.23876
1.20165
1.16721
1.13492
1.10438
1.07526
1.04731
1.02034
0.994157
0.968635
0.943649
0.919097
0.894887
0.87094
0.847187
0.823565
0.800018
0.776496
0.752953
0.729353
0.705661
0.681853
0.657909
0.633818
0.609578
0.585192
0.560675
0.536045
0.511324
1.36745
1.31871
1.27521
1.23563
1.19915
1.16515
1.13316
1.10283
1.07388
1.04608
1.01922
0.993154
0.967736
0.94285
0.918393
0.894276
0.870422
0.846759
0.823226
0.799766
0.776328
0.752863
0.729332
0.705699
0.681938
0.658028
0.633956
0.609719
0.585325
0.560789
0.536133
0.511384
1.36276
1.31535
1.2726
1.23349
1.19733
1.1636
1.13186
1.10176
1.073
1.04534
1.01859
0.992603
0.967235
0.942381
0.917948
0.893854
0.870024
0.846392
0.822897
0.799486
0.776112
0.752742
0.729336
0.705821
0.68215
0.65831
0.634283
0.61006
0.585649
0.561074
0.536367
0.511565
1.35938
1.31273
1.2707
1.2324
1.19706
1.16394
1.13248
1.10234
1.0733
1.04524
1.01804
0.991602
0.965864
0.94075
0.916187
0.892047
0.868212
0.844585
0.821088
0.797665
0.774285
0.750983
0.727854
0.704819
0.681553
0.657879
0.634095
0.610088
0.585854
0.56139
0.536721
0.511883
1.35805
1.31316
1.27264
1.23477
1.19819
1.1624
1.12785
1.09543
1.06503
1.0365
1.00968
0.984598
0.961268
0.940234
0.919735
0.898727
0.877294
0.855369
0.832897
0.809809
0.785952
0.760897
0.733774
0.707066
0.683214
0.658834
0.634455
0.610063
0.585648
0.561205
0.536788
0.512367
1.3589
1.31309
1.2681
1.22289
1.17966
1.14326
1.11948
1.09956
1.08078
1.06322
1.05003
1.04127
1.03615
1.03344
1.03179
1.03004
1.02673
1.02036
1.00968
0.993845
0.972434
0.941756
0.866279
0.776525
0.712805
0.685656
0.65848
0.631332
0.604227
0.576998
0.547455
0.510812
1.35666
1.30544
1.25704
1.22012
1.2057
1.21296
1.26826
1.3983
1.65205
2.09716
2.81892
3.90265
5.41232
7.35248
9.62738
12.0221
14.2207
16.0014
17.2623
17.9427
18.0219
17.4589
16.3203
14.7029
12.7222
10.537
8.25406
6.01879
3.98932
2.3362
1.15146
0.531475
9.87404
10.3043
10.7728
11.8383
3.52822
1.83637
1.63295
1.51319
9.05723
10.1349
10.5359
6.71448
2.21351
1.70635
1.57562
1.47796
8.67632
9.96799
7.51564
3.28739
1.83716
1.6341
1.53263
1.45102
7.95701
7.58743
4.23394
2.00665
1.72783
1.59217
1.50572
1.43378
6.74603
5.19103
2.596
1.80762
1.67518
1.56742
1.48899
1.42296
5.70742
3.57494
2.01348
1.75758
1.64716
1.55181
1.47845
1.41619
4.95625
2.73075
1.88562
1.73458
1.63005
1.5417
1.4717
1.41167
4.38081
2.31451
1.84642
1.72169
1.61882
1.53509
1.46725
1.40883
3.96282
2.15006
1.82774
1.71327
1.61144
1.53103
1.46501
1.40845
3.66657
2.0794
1.81883
1.70755
1.60702
1.52928
1.46486
1.40876
1.35088
1.30051
1.27096
1.27976
1.37954
1.64751
2.23361
3.49663
6.06347
10.4181
16.1988
22.9905
30.2125
37.2214
43.4635
48.5727
52.4099
55.0504
56.5811
57.1073
56.9116
56.216
55.2012
53.9883
52.7176
51.5016
50.4158
49.4994
48.7453
48.0588
47.1573
45.3947
1.34269
1.30743
1.33111
1.51462
2.02125
3.48671
7.13337
13.5065
22.4115
32.6936
42.9372
52.4347
60.4295
66.6417
71.1139
74.0837
75.8412
76.6393
76.6545
75.9473
74.4141
72.1773
69.3756
66.1771
62.7704
59.3591
56.1539
53.3837
51.2747
49.975
49.4334
49.1837
1.34617
1.34328
1.50807
2.21318
4.87102
10.9141
20.8476
33.3879
47.0889
60.1812
71.6947
81.3548
89.198
95.4839
100.407
104.036
106.344
107.283
106.838
105.064
102.068
97.9516
92.8504
86.9353
80.4188
73.5642
66.7057
60.2828
54.8543
51.0226
49.1992
48.7146
1.36117
1.43086
2.12702
5.36049
13.0698
25.4038
41.175
57.9947
74.066
88.3723
100.809
111.538
120.693
128.269
134.172
138.317
140.682
141.292
140.2
137.477
133.178
127.385
120.202
111.766
102.266
91.9624
81.2362
70.6629
61.0943
53.6835
49.6727
48.6434
1.41325
1.6757
4.63592
12.7018
26.4767
44.6286
64.5536
83.88
101.538
117.359
131.459
143.809
154.276
162.73
169.117
173.444
175.737
176.024
174.333
170.706
165.189
157.842
148.741
137.991
125.74
112.213
97.7811
83.0707
69.1219
57.5466
50.478
48.5716
1.49526
3.05431
10.1835
23.923
43.4789
66.0718
88.7866
110.055
129.538
147.221
162.968
176.576
187.926
196.987
203.769
208.275
210.5
210.445
208.126
203.576
196.836
187.959
177.016
164.093
149.308
132.842
115.02
96.4526
78.2698
62.4187
51.7433
48.5124
1.73271
6.24711
18.5738
37.9516
62.3095
88.1455
113.086
136.343
157.755
177.102
194.14
208.755
220.931
230.66
237.907
242.623
244.773
244.341
241.337
235.793
227.756
217.293
204.482
189.417
172.208
153.01
132.094
110.003
87.8663
67.8486
53.4153
48.4614
2.86286
11.6325
29.1417
53.5794
81.7245
110.13
137.172
162.405
185.534
206.268
224.485
240.18
253.326
263.842
271.624
276.58
278.645
277.789
274.023
267.383
257.939
245.781
231.017
213.766
194.154
172.335
148.543
123.243
97.4826
73.4951
55.3335
48.4161
5.12865
18.6809
41.1045
69.8468
101.036
131.708
160.774
187.798
212.427
234.503
254.036
271
285.276
296.694
305.089
310.32
312.29
310.952
306.321
298.455
287.459
273.467
256.632
237.113
215.07
190.674
164.146
135.887
106.837
79.1861
57.3875
48.3749
8.64192
26.8878
53.7709
86.1257
119.894
152.668
183.602
212.233
238.324
261.892
282.954
301.382
316.952
329.412
338.525
344.085
345.949
344.05
338.42
329.155
316.421
300.419
281.367
259.48
234.958
208
178.828
147.8
115.747
84.7483
59.5026
48.337
13.2947
35.7787
66.6227
102.046
138.102
172.822
205.455
235.624
263.298
288.573
311.382
331.482
348.55
362.243
372.22
378.183
379.926
377.365
370.556
359.663
344.947
326.713
305.268
280.895
253.839
224.323
192.577
158.933
124.123
90.0806
61.619
48.3014
18.6149
44.9732
79.3087
117.396
155.526
192.03
226.254
258.014
287.458
314.661
339.445
361.468
380.306
395.481
406.51
412.97
414.571
411.209
402.989
390.178
373.177
352.434
328.382
301.387
271.737
239.669
205.412
169.281
131.927
95.1221
63.6943
48.2679
24.3065
54.1871
91.6046
132.048
172.069
210.219
246.003
279.477
310.888
340.242
367.267
391.529
412.471
429.434
441.741
448.802
450.224
445.888
435.97
420.889
401.237
377.66
350.752
320.98
288.674
254.065
217.364
178.863
139.151
99.841
65.6988
48.2359
30.1514
63.2207
103.373
145.925
187.673
227.369
264.745
300.078
333.648
365.39
394.968
421.844
445.279
464.379
478.215
485.987
487.175
481.649
469.698
451.942
429.227
402.452
372.412
339.696
304.67
267.537
228.464
187.71
145.808
104.225
67.6127
48.2052
35.9837
71.9369
114.529
158.977
202.308
243.493
282.526
319.86
355.774
390.167
422.651
452.556
478.912
500.523
516.153
524.74
525.615
518.651
504.288
483.413
457.194
426.837
393.378
357.548
319.741
280.11
238.746
195.853
151.918
108.273
69.4232
48.1756
41.6772
80.24
125.016
171.174
215.97
258.62
299.383
338.844
377.29
414.614
450.378
483.748
513.466
537.978
555.668
565.163
565.622
556.938
539.752
515.292
485.118
450.799
413.644
374.537
333.897
291.805
248.239
203.328
157.507
111.992
71.1225
48.1468
47.1444
88.0687
134.803
182.507
228.672
272.78
315.338
357.039
398.2
438.737
478.156
515.422
548.943
576.738
596.75
607.234
607.15
596.435
575.995
547.479
512.913
474.277
433.178
390.655
347.147
302.641
256.973
210.167
162.604
115.394
72.7068
48.1188
52.3272
95.3866
143.879
192.985
240.437
286.001
330.406
374.441
418.486
462.503
505.928
547.496
585.237
616.687
639.269
650.806
650.033
636.952
612.816
579.786
540.427
497.168
451.922
405.882
359.494
312.636
264.976
216.405
167.238
118.495
74.175
48.0914
57.1862
102.173
152.244
202.622
251.294
298.305
344.588
391.032
438.109
485.836
533.57
579.799
622.141
657.59
682.978
695.617
693.985
678.191
649.919
611.95
567.453
519.332
469.801
420.189
370.94
321.81
272.28
222.076
171.44
121.31
75.5282
48.0646
61.6948
108.417
159.901
211.436
261.262
309.699
357.865
406.764
456.984
508.601
560.887
612.072
659.344
699.104
727.511
741.289
738.616
719.752
686.925
643.644
593.744
540.607
486.725
433.542
381.488
330.189
278.919
227.214
175.237
123.857
76.7687
48.0382
65.8373
114.114
166.863
219.447
270.36
320.182
370.207
421.568
474.986
530.603
587.607
643.968
696.432
740.769
772.386
787.323
783.423
761.145
723.384
674.496
619.026
560.813
502.597
445.907
391.147
337.803
284.926
231.852
178.657
126.153
77.8998
48.0122
69.6053
119.269
173.142
226.675
278.606
329.756
381.586
435.37
491.975
551.608
613.388
675.046
732.882
782.002
816.985
833.095
827.787
801.788
758.791
704.103
643.013
579.773
517.323
457.256
399.929
344.681
290.335
236.02
181.727
128.215
78.9258
47.9866
72.9956
123.889
178.758
233.144
286.019
338.422
391.975
448.101
507.807
571.372
637.859
704.793
768.061
822.088
860.557
877.855
870.985
841.017
792.594
732.054
665.423
597.316
530.824
467.57
407.848
350.849
295.176
239.749
184.47
130.058
79.8508
47.9613
76.0087
127.983
183.729
238.879
292.617
346.185
401.351
459.687
522.338
589.65
660.646
732.681
801.272
860.204
902.237
920.767
912.225
878.11
824.228
757.946
686.001
613.297
543.034
476.835
414.918
356.333
299.476
243.062
186.908
131.697
80.6792
47.9363
78.6478
131.565
188.077
243.902
298.419
353.046
409.691
470.062
535.433
606.212
681.395
758.203
831.842
895.535
941.165
961.011
950.73
912.343
853.155
781.43
704.534
627.603
553.903
485.04
421.151
361.155
303.258
245.981
189.058
133.144
81.4147
47.9115
80.918
134.647
191.821
248.237
303.443
359.012
416.976
479.168
546.974
620.854
699.794
780.915
859.199
927.42
976.647
997.907
985.857
943.112
878.939
802.229
720.858
640.144
563.394
492.179
426.56
365.335
306.544
248.524
190.935
134.41
82.0606
47.887
82.8255
137.243
194.982
251.906
307.707
364.09
423.194
486.96
556.864
633.412
715.587
800.457
882.865
955.285
1008.09
1030.91
1017.09
969.975
901.246
820.118
734.836
650.848
571.473
498.247
431.154
368.89
309.349
250.706
192.553
135.502
82.6198
47.8626
84.3773
139.367
197.579
254.929
311.228
368.288
428.337
493.402
565.029
643.758
728.577
816.533
902.436
978.686
1035.03
1059.16
1043.62
992.495
919.755
834.887
746.342
659.645
578.111
503.237
434.941
371.832
311.686
252.539
193.919
136.428
83.0941
47.8384
85.5805
141.03
199.628
257.324
314.022
371.617
432.403
498.474
571.42
651.802
738.614
828.917
917.584
996.908
1055.06
1077.69
1063.47
1010.11
934.125
846.323
755.251
666.468
583.277
507.14
437.923
374.171
313.567
254.03
195.041
137.191
83.4848
47.8144
86.4424
142.244
201.145
259.11
316.105
374.086
435.395
502.163
576.004
657.483
745.595
837.435
927.971
1009.3
1068.25
1090.93
1076.93
1022.22
944.038
854.237
761.452
671.257
586.943
509.946
440.102
375.912
314.995
255.185
195.923
137.795
83.7923
47.7904
86.9701
143.019
202.143
260.299
317.49
375.708
437.319
504.467
578.766
660.767
749.459
841.965
933.328
1015.55
1075.53
1102.45
1084.03
1028.44
949.244
858.483
764.86
673.963
589.081
511.643
441.474
377.055
315.973
256.005
196.566
138.241
84.0163
47.7665
87.1693
143.366
202.633
260.904
318.189
376.493
438.182
505.39
579.706
661.65
750.193
842.472
933.583
1015.59
1075.58
1102.55
1083.75
1028.56
949.598
858.975
765.419
674.547
589.666
512.217
442.03
377.596
316.497
256.487
196.968
138.526
84.1551
47.7423
87.0464
143.284
202.619
260.933
318.211
376.449
437.994
504.945
578.84
660.154
747.828
839.001
928.808
1009.44
1068.34
1094.61
1076.29
1022.55
945.054
855.668
763.092
672.979
588.674
511.648
441.759
377.526
316.561
256.626
197.123
138.648
84.2064
47.7181
86.6083
142.781
202.102
260.387
317.561
375.585
436.767
503.148
576.198
656.325
742.435
831.669
919.194
997.39
1054.31
1078.4
1061.93
1010.66
935.692
848.58
757.869
669.236
586.079
509.913
440.64
376.833
316.155
256.412
197.025
138.602
84.1706
47.6938
85.8596
141.859
201.084
259.269
316.244
373.908
434.512
500.023
571.817
650.229
734.128
820.664
905.051
979.913
1034.13
1056.6
1041.56
993.186
921.7
837.783
749.764
663.308
581.861
506.988
438.652
375.497
315.264
255.832
196.664
138.383
84.0498
47.6581
84.8038
140.52
199.564
257.577
314.259
371.422
431.243
495.593
565.746
641.953
723.055
806.226
886.761
957.581
1008.54
1029.57
1015.83
970.747
903.333
823.381
738.808
655.192
576.001
502.849
435.767
373.491
313.865
254.867
196.024
137.984
83.8393
47.6071
83.444
138.767
197.538
255.306
311.604
368.13
426.969
489.887
558.039
631.593
709.371
788.6
864.694
930.928
978.185
997.679
985.194
943.656
880.848
805.512
725.057
644.903
568.491
497.473
431.957
370.786
311.931
253.494
195.089
137.392
83.5323
47.5395
81.7834
136.6
195.003
252.448
308.272
364.031
421.701
482.93
548.749
619.241
693.222
767.99
839.125
900.33
943.568
961.371
950.189
912.405
854.567
784.36
708.609
632.48
559.335
490.843
427.194
367.349
309.428
251.686
193.837
136.591
83.1209
47.4539
79.8256
134.018
191.951
248.991
304.253
359.12
415.444
474.746
537.929
604.99
674.75
744.606
810.359
866.234
905.291
921.338
911.469
877.52
824.876
760.187
689.62
618.001
548.556
482.948
421.447
363.144
306.32
249.409
192.243
135.565
82.5967
47.3491
77.5754
131.023
188.373
244.921
299.532
353.388
408.201
465.359
525.633
588.946
654.139
718.741
778.847
829.283
864.169
878.47
869.838
839.66
792.285
733.35
668.31
601.58
536.196
473.787
414.69
358.129
302.564
246.627
190.277
134.293
81.9501
47.2237
75.0395
127.615
184.261
240.219
294.09
346.824
399.975
454.795
511.931
571.251
631.635
690.773
745.125
790.168
821.01
833.62
826.123
799.558
757.38
704.27
644.948
583.364
522.316
463.363
406.893
352.261
298.114
243.296
187.906
132.753
81.1701
47.0761
72.2272
123.797
179.607
234.866
287.904
339.412
390.766
443.085
496.911
552.076
607.514
661.112
709.745
749.559
776.558
787.559
781.088
757.916
720.748
673.389
619.828
563.522
506.987
451.684
398.03
345.494
292.917
239.37
185.093
130.918
80.2444
46.9047
69.1516
119.573
174.404
228.841
280.949
331.131
380.573
430.262
480.667
531.599
582.058
630.163
673.233
708.069
731.472
740.967
735.407
715.366
682.932
641.133
593.25
542.23
490.292
438.766
388.069
337.776
286.917
234.797
181.796
128.761
79.1593
46.7077
65.8303
114.953
168.646
222.122
273.193
321.957
369.391
416.367
463.299
509.991
555.536
598.308
636.073
666.25
686.334
694.43
689.669
672.474
644.432
607.899
565.5
519.67
472.318
424.622
376.98
329.051
280.051
229.523
177.972
126.25
77.8999
46.4831
62.2868
109.949
162.334
214.69
264.603
311.859
357.212
401.432
444.894
487.411
528.194
565.887
598.687
624.572
641.631
648.449
644.378
629.729
605.687
574.042
536.833
496.008
453.148
409.269
364.728
319.257
272.254
223.488
173.575
123.353
76.4508
46.2288
58.5508
104.582
155.471
206.527
255.144
300.799
344.02
385.48
425.522
463.99
500.238
533.181
561.415
583.41
597.753
603.416
599.932
587.526
567.062
539.863
507.468
471.38
432.851
392.714
351.275
308.33
263.454
216.632
168.554
120.033
74.7958
45.9429
54.6594
98.8765
148.07
197.62
244.776
288.729
329.785
368.512
405.224
439.825
471.824
500.397
524.503
543.028
554.968
559.602
556.607
546.145
528.826
505.597
477.579
445.887
411.464
374.945
336.569
296.199
253.581
208.891
162.857
116.253
72.9181
45.6225
50.657
92.8695
140.149
187.96
233.461
275.596
314.457
350.496
384.005
414.964
443.042
467.66
488.09
503.568
513.412
517.144
514.549
505.741
491.139
471.392
447.28
419.59
388.988
355.918
320.543
282.786
242.561
200.203
156.431
111.973
70.8014
45.2678
46.5964
86.6074
131.739
177.55
221.165
261.335
297.96
331.365
361.825
389.396
413.905
434.995
452.202
465.042
473.084
476.033
473.757
466.335
454.04
437.294
416.608
392.495
365.387
335.56
303.109
268.007
230.323
190.508
149.219
107.149
68.4287
44.8783
42.5378
80.1492
122.88
166.401
207.856
245.877
280.195
311.012
338.583
363.036
384.337
402.32
416.739
427.324
433.838
436.115
434.088
427.808
417.44
403.239
385.506
364.539
340.58
313.773
284.165
251.777
216.802
179.749
141.163
101.736
65.7853
44.4544
38.5488
73.5674
113.628
154.534
193.511
229.144
261.036
289.284
314.115
335.711
354.155
369.432
381.464
390.147
395.377
397.085
395.246
389.891
381.11
369.033
353.808
335.574
314.434
290.44
263.616
234.028
201.95
167.875
132.204
95.6927
62.861
43.9985
34.7034
66.9499
104.053
141.989
178.118
211.06
240.345
265.988
288.186
307.154
323.056
335.989
345.996
353.084
357.246
358.477
356.775
352.16
344.67
334.348
321.242
305.382
286.785
265.451
241.397
214.73
185.746
154.844
122.284
88.9837
59.6568
43.5161
31.081
60.4016
94.2511
128.83
161.694
191.571
217.991
240.919
260.522
277.025
290.638
301.526
309.807
315.561
318.836
319.666
318.065
314.044
307.608
298.753
287.465
273.719
257.485
238.743
217.512
193.916
168.205
140.627
111.356
81.6028
56.1977
43.0197
27.767
54.0445
84.341
115.157
144.312
170.7
193.92
213.933
230.886
244.995
256.48
265.534
272.31
276.923
279.451
279.947
278.433
274.916
269.388
261.822
252.181
240.418
226.488
210.366
192.069
171.693
149.377
125.217
99.4187
73.6093
52.5556
42.5343
24.8491
48.0116
74.4644
101.111
126.113
148.586
168.24
185.078
199.238
210.919
220.326
227.649
233.048
236.647
238.532
238.761
237.359
234.334
229.674
223.35
215.321
205.54
193.962
180.553
165.305
148.236
129.345
108.661
86.5834
65.2006
48.8924
42.1076
22.4389
42.4505
64.7806
86.8713
107.316
125.495
141.251
154.651
165.84
174.997
182.306
187.936
192.035
194.713
196.05
196.095
194.874
192.395
188.649
183.613
177.251
169.52
160.369
149.738
137.559
123.758
108.255
91.1695
73.2251
56.8238
45.5338
41.816
20.6123
37.4543
55.4098
72.6271
88.2123
101.834
113.479
123.279
131.394
137.99
143.223
147.226
150.111
151.965
152.849
152.8
151.841
149.982
147.216
143.521
138.862
133.185
126.417
118.463
109.213
98.5655
86.5076
73.3973
60.211
49.2836
43.0387
41.7319
19.8052
33.2957
46.5794
58.6922
69.286
78.3042
85.8627
92.1403
97.2985
101.47
104.764
107.27
109.061
110.196
110.715
110.642
109.993
108.766
106.944
104.497
101.38
97.535
92.8901
87.3702
80.9139
73.5203
65.3504
56.9271
49.1415
43.7205
41.5958
42.2362
19.3932
29.4318
38.0156
45.1704
51.0612
55.8551
59.7495
62.9228
65.5041
67.5772
69.2041
70.4332
71.3045
71.8487
72.097
72.0047
71.5583
70.7597
69.6088
68.1006
66.2288
63.9876
61.3755
58.403
55.1078
51.5796
48.0137
44.7302
42.3157
41.1741
41.3877
44.0196
24.7081
27.6769
30.3464
32.7359
34.691
36.0979
37.1186
37.9014
38.5201
39.0072
39.3825
39.6601
39.8512
39.9648
40.003
40.0344
40.0657
40.0972
40.1289
40.1609
40.1936
40.2271
40.2617
40.2977
40.3357
40.3766
40.4215
40.4731
40.5369
40.6467
42.1623
51.6762
3.46211
2.04268
1.81545
1.70395
1.60513
1.5295
1.46546
1.40712
3.3222
2.02251
1.81522
1.70243
1.60558
1.53113
1.46519
1.40168
3.22597
2.01192
1.81706
1.70302
1.60783
1.53232
1.46092
1.39229
3.15731
2.00717
1.82049
1.70548
1.61099
1.53225
1.45526
1.38802
3.10672
2.00629
1.82525
1.70942
1.6142
1.5303
1.44917
1.39454
3.06876
2.00818
1.83119
1.71447
1.61711
1.52756
1.44706
1.41666
3.0402
2.01219
1.8382
1.72019
1.61892
1.52393
1.45581
1.46246
3.01892
2.01791
1.84612
1.72618
1.62036
1.52438
1.47295
1.52606
3.00346
2.02504
1.85479
1.73247
1.62253
1.52849
1.49685
1.5783
2.99274
2.03335
1.86411
1.73869
1.62446
1.54106
1.53578
1.81815
2.98594
2.04268
1.87396
1.74525
1.62902
1.55426
1.57801
2.59418
2.98243
2.05286
1.88427
1.75236
1.63626
1.57433
1.61164
3.92267
2.9817
2.06379
1.895
1.76023
1.64597
1.59639
1.64426
5.77205
2.98331
2.07537
1.90618
1.7691
1.65775
1.61887
1.67652
8.0762
2.98693
2.08754
1.91781
1.77859
1.67091
1.64248
1.77655
10.7595
2.99229
2.10023
1.92983
1.78854
1.68765
1.67449
2.05163
13.7052
2.99917
2.11339
1.94227
1.79957
1.70399
1.70166
2.47242
16.6991
3.00738
2.12698
1.95516
1.81169
1.72078
1.72565
3.00678
19.642
3.01676
2.14097
1.9685
1.82478
1.73796
1.74857
3.6228
22.4742
3.02717
2.15532
1.98228
1.83867
1.75545
1.77095
4.29024
25.1544
3.03851
2.17002
1.99649
1.8532
1.77402
1.79296
4.98187
27.6543
3.05068
2.18504
2.0111
1.8683
1.79299
1.81467
5.67384
29.9543
3.06359
2.20035
2.0261
1.88387
1.81204
1.8362
6.34567
32.0415
3.07718
2.21596
2.04145
1.89987
1.83111
1.85761
6.98025
33.9078
3.09139
2.23184
2.05714
1.91624
1.85017
1.87887
7.56354
35.5486
3.10618
2.24797
2.07316
1.93294
1.86922
1.89998
8.0844
36.9624
3.1215
2.26436
2.08949
1.94994
1.88826
1.92096
8.53424
38.1495
3.13732
2.28099
2.10612
1.96722
1.9073
1.94178
8.90666
39.1117
3.15363
2.29786
2.12303
1.98475
1.92632
1.96245
9.19729
39.8519
3.17041
2.31496
2.14022
2.00252
1.94535
1.98298
9.40358
40.3735
3.18764
2.33231
2.15769
2.02053
1.96438
2.00337
9.52429
40.6812
3.20529
2.34984
2.17544
2.03877
1.98342
2.02358
9.56106
40.7776
3.22311
2.36788
2.19341
2.05725
2.0025
2.0435
9.53045
40.6579
3.24095
2.38663
2.21153
2.07596
2.02162
2.06314
9.43793
40.3254
3.25881
2.40609
2.22983
2.09492
2.04079
2.0825
9.28766
39.7855
3.27672
2.42624
2.24829
2.11411
2.06003
2.10161
9.08422
39.0447
3.29468
2.44708
2.26693
2.13356
2.07935
2.12049
8.83295
38.1108
3.3127
2.46863
2.28576
2.15324
2.09876
2.13917
8.53988
36.9927
3.33079
2.49089
2.3048
2.17318
2.11828
2.15766
8.21162
35.701
3.34896
2.51386
2.32404
2.19337
2.13794
2.17601
7.85526
34.2485
3.36723
2.53753
2.34352
2.21382
2.15774
2.19425
7.4782
32.65
3.38559
2.5619
2.36322
2.23451
2.17772
2.21244
7.08802
30.9235
3.40407
2.58696
2.38318
2.25546
2.1979
2.23061
6.69226
29.0894
3.42267
2.61267
2.4034
2.27666
2.21829
2.24882
6.29828
27.1717
3.4414
2.63901
2.42388
2.29809
2.23892
2.26714
5.91306
25.1971
3.46026
2.66592
2.44462
2.31976
2.25981
2.28562
5.54298
23.1952
3.47927
2.6933
2.46563
2.34164
2.28097
2.30433
5.19359
21.1972
3.49842
2.72105
2.48689
2.36373
2.30241
2.32333
4.86963
19.2358
3.51772
2.749
2.50837
2.38598
2.32413
2.34264
4.57495
17.344
3.53716
2.77697
2.53004
2.40837
2.34613
2.3622
4.31238
15.5539
3.55673
2.80472
2.55184
2.43084
2.36838
2.38209
4.08375
13.8957
3.57642
2.83209
2.57376
2.45333
2.39084
2.40239
3.89025
12.3974
3.59621
2.85852
2.59568
2.47577
2.41346
2.42321
3.7327
11.0837
3.61607
2.88354
2.61744
2.49806
2.43615
2.44463
3.61202
9.97779
3.63598
2.90682
2.63884
2.52005
2.45879
2.4668
3.53019
9.09963
3.6559
2.92781
2.65973
2.54165
2.48128
2.48988
3.49199
8.49192
3.67483
2.94723
2.6798
2.56261
2.50347
2.51392
3.50445
8.14252
3.69265
2.96526
2.69888
2.58269
2.52528
2.53858
3.60092
8.44898
3.70943
2.98196
2.71695
2.60183
2.5467
2.56355
3.69251
8.69071
3.72556
2.99748
2.73404
2.62003
2.56776
2.58908
4.50131
13.6025
3.73768
3.01061
2.74867
2.63582
2.58645
2.60801
5.6717
15.3313
3.74935
3.02169
2.76118
2.6492
2.60253
2.67209
6.56033
15.3558
3.76066
3.0325
2.77349
2.66212
2.62071
2.75871
7.23929
15.2858
66.6393
66.0621
65.8713
65.7836
65.7147
65.6578
65.6082
65.5634
65.522
65.4831
65.4459
65.41
65.375
65.3407
65.3067
65.2728
65.2386
65.1881
65.1108
65.0055
64.8731
64.718
64.5452
64.3629
64.1847
64.0317
63.9322
63.8519
63.7618
64.7517
67.3612
77.4994
66.561
66.2093
66.3409
66.8475
67.8292
69.295
71.0721
72.9269
74.7255
76.3867
77.8569
79.103
80.1051
80.8528
81.3402
81.5598
81.5072
81.1789
80.5749
79.6924
78.5358
77.1107
75.4271
73.5077
71.3973
69.1873
67.0831
65.2918
63.9327
63.3594
63.563
65.0145
66.5913
66.7063
68.2234
71.3143
75.8415
81.1889
86.6909
91.966
96.8336
101.15
104.855
107.923
110.345
112.125
113.276
113.803
113.699
112.951
111.554
109.508
106.805
103.434
99.3944
94.7031
89.4159
83.6585
77.6857
71.962
67.1809
64.0799
63.0043
62.7862
66.9377
68.3053
72.9178
80.2978
89.475
99.2632
108.84
117.76
125.773
132.751
138.659
143.501
147.295
150.068
151.842
152.629
152.431
151.25
149.076
145.89
141.663
136.358
129.946
122.409
113.773
104.152
93.8307
83.4055
73.9107
66.789
63.3851
62.6071
67.8538
71.3474
80.2371
92.5881
106.579
120.709
134.104
146.298
157.06
166.322
174.096
180.425
185.357
188.94
191.21
192.189
191.885
190.3
187.415
183.202
177.618
170.611
162.125
152.11
140.545
127.486
113.163
98.1521
83.6137
71.4943
64.3367
62.5302
69.3982
75.7895
89.5489
106.89
125.39
143.417
160.118
175.082
188.167
199.377
208.773
216.423
222.388
226.718
229.451
230.604
230.184
228.185
224.586
219.359
212.459
203.837
193.435
181.193
167.065
151.056
133.305
114.273
95.0682
77.8731
66.0781
62.47
71.5968
81.4102
100.154
122.151
144.658
166.045
185.563
202.927
218.097
231.14
242.132
251.131
258.182
263.315
266.548
267.89
267.339
264.891
260.527
254.223
245.948
235.664
223.331
208.908
192.359
173.671
152.915
130.404
107.062
85.0829
68.5025
62.4203
74.4354
87.9221
111.455
137.617
163.597
187.871
209.87
229.455
246.67
261.595
274.276
284.732
292.967
298.978
302.759
304.303
303.603
300.655
295.452
287.983
278.236
266.197
251.853
235.196
216.223
194.944
171.409
145.817
118.863
92.5368
71.3106
62.3773
77.7124
95.0498
122.996
152.796
181.769
208.583
232.884
254.657
273.981
290.9
305.399
317.441
326.978
333.962
338.352
340.115
339.235
335.715
329.565
320.803
309.455
295.544
279.096
260.136
238.701
214.836
188.613
160.183
130.051
99.9008
74.3033
62.3391
81.3032
102.549
134.449
167.39
198.967
228.095
254.627
278.628
300.161
319.208
335.685
349.487
360.497
368.599
373.693
375.704
374.599
370.393
363.128
352.88
339.736
323.787
305.112
283.778
259.849
233.403
204.539
173.414
140.415
106.916
77.343
62.3041
85.1387
110.208
145.589
181.236
215.12
246.424
275.172
301.464
325.324
346.665
365.337
381.15
393.885
403.32
409.258
411.56
410.167
405.11
396.493
384.479
369.262
351.034
329.958
306.152
279.704
250.697
219.249
185.537
149.901
113.457
80.3314
62.2717
89.1519
117.849
156.263
194.254
230.224
263.62
294.59
323.245
349.569
373.423
394.583
412.743
427.536
438.583
445.548
448.195
446.428
440.309
430.031
415.891
398.239
377.416
353.705
327.296
298.294
266.764
232.806
196.611
158.521
119.469
83.2059
62.2411
93.2685
125.335
166.374
206.418
244.31
279.737
312.939
344.037
372.993
399.632
423.64
444.554
461.806
474.797
483.002
486.051
483.802
476.365
464.058
447.366
426.852
403.06
376.434
347.258
315.653
281.643
245.269
206.708
166.324
124.944
85.9286
62.2122
97.4161
132.562
175.867
217.73
257.417
294.824
330.268
363.894
395.677
425.414
452.676
476.801
496.953
512.255
521.93
525.439
522.58
513.531
498.781
479.065
455.222
428.055
398.209
366.083
331.818
295.373
256.693
215.895
173.367
129.898
88.4785
62.1844
101.525
139.452
184.718
228.209
269.585
308.921
346.612
382.858
417.678
450.841
481.783
509.592
533.11
551.109
562.497
566.519
562.901
551.914
534.277
511.04
483.389
452.439
419.069
383.812
346.829
307.998
267.127
224.234
179.713
134.359
90.8458
62.1577
105.532
145.948
192.914
237.876
280.847
322.061
362.001
400.956
439.017
475.927
510.964
542.927
570.278
591.367
604.715
609.297
604.753
591.479
570.488
543.231
511.306
476.188
439.018
400.47
360.724
319.56
276.62
231.783
185.419
138.362
93.0286
62.1318
109.387
152.012
200.457
246.752
291.23
334.267
376.451
418.194
459.676
500.621
540.132
576.693
608.33
632.899
648.454
653.636
647.984
632.058
607.243
575.479
538.85
499.23
458.032
416.071
373.536
330.101
285.219
238.595
190.541
141.944
95.0299
62.1065
113.046
157.622
207.353
254.861
300.755
345.551
389.964
434.552
479.599
524.813
569.122
610.676
647.024
675.451
693.455
699.272
692.317
673.363
644.262
607.542
565.837
521.448
476.059
430.613
385.298
339.667
292.975
244.723
195.131
145.142
96.856
62.0817
116.475
162.762
213.615
262.223
309.443
355.925
402.529
449.985
498.69
548.338
597.696
644.573
686.009
718.649
739.337
745.818
737.36
715.005
681.185
639.115
592.041
542.7
493.035
444.09
396.036
348.304
299.942
250.22
199.237
147.991
98.5155
62.0575
119.646
167.429
219.257
268.86
317.311
365.392