/*--------------------------------*- C++ -*----------------------------------*\
| =========                 |                                                 |
| \\      /  F ield         | OpenFOAM: The Open Source CFD Toolbox           |
|  \\    /   O peration     | Version:  v2012                                 |
|   \\  /    A nd           | Website:  www.openfoam.com                      |
|    \\/     M anipulation  |                                                 |
\*---------------------------------------------------------------------------*/
FoamFile
{
    version     2.0;
    format      ascii;
    class       volScalarField;
    location    "734";
    object      k;
}
// * * * * * * * * * * * * * * * * * * * * * * * * * * * * * * * * * * * * * //

dimensions      [0 2 -2 0 0 0 0];


internalField   nonuniform List<scalar> 
6024
(
0.0455092
0.048967
0.0529167
0.0574505
0.0626869
0.0687796
0.0759314
0.0844134
0.0945898
0.106981
0.122336
0.141771
0.167004
0.200801
0.247849
0.316582
0.423354
0.602855
0.937323
1.65058
0.111038
0.119811
0.129762
0.141101
0.154092
0.169076
0.186487
0.206899
0.231082
0.260059
0.295251
0.338662
0.393195
0.463167
0.555197
0.679769
0.854044
1.10694
1.48772
2.07605
0.147453
0.159162
0.172403
0.187441
0.204612
0.224334
0.247141
0.27372
0.304965
0.342065
0.386614
0.440787
0.507623
0.591446
0.698538
0.838227
1.02466
1.27967
1.6376
2.15355
0.168542
0.181985
0.197149
0.214329
0.233891
0.256291
0.282099
0.31204
0.347044
0.388319
0.437455
0.496581
0.568588
0.657486
0.768957
0.911244
1.09666
1.34429
1.68517
2.17356
0.178329
0.192633
0.208733
0.226937
0.247627
0.271271
0.298452
0.329904
0.36656
0.409614
0.460624
0.521644
0.595432
0.685774
0.797991
0.939814
1.12293
1.36593
1.70015
2.18217
0.177989
0.192385
0.208551
0.226805
0.247529
0.271198
0.298398
0.329864
0.366529
0.409592
0.460607
0.521631
0.595424
0.685768
0.797987
0.939812
1.12293
1.36593
1.70015
2.18217
0.167544
0.181265
0.196626
0.213947
0.233611
0.256084
0.281945
0.311925
0.34696
0.388257
0.437411
0.49655
0.568565
0.657471
0.768946
0.911237
1.09666
1.34429
1.68517
2.17356
0.14585
0.158041
0.1716
0.18686
0.204187
0.224022
0.246911
0.273551
0.304844
0.341979
0.386551
0.440742
0.507591
0.591423
0.698522
0.838216
1.02465
1.27967
1.6376
2.15355
0.108984
0.118455
0.128809
0.140419
0.153598
0.168716
0.186228
0.206717
0.23095
0.259964
0.295182
0.338612
0.393159
0.463141
0.555179
0.679756
0.854036
1.10693
1.48772
2.07605
0.044722
0.0484216
0.0525343
0.0571851
0.0625058
0.0686581
0.0758494
0.0843542
0.0945466
0.106949
0.122313
0.141754
0.166991
0.200792
0.247843
0.316578
0.423351
0.602854
0.937322
1.65058
0.00653218
0.00738581
0.00821142
0.0090182
0.00981222
0.0105978
0.0113782
0.0121562
0.0129344
0.0137151
0.014501
0.0152947
0.0160992
0.0169178
0.0177547
0.0186142
0.0195021
0.0204251
0.0213913
0.0224106
0.0234953
0.0246604
0.0258909
0.0271861
0.0285606
0.0300327
0.0316242
0.0333614
0.0352753
0.0374025
0.0397847
0.042469
0.0140644
0.0157831
0.0174879
0.0191917
0.020904
0.0226319
0.024382
0.0261604
0.0279729
0.0298249
0.0317215
0.0336679
0.0356695
0.037732
0.0398614
0.0420645
0.0443493
0.0467257
0.0492053
0.0518027
0.0545359
0.0574269
0.0604845
0.0637492
0.0672564
0.0710478
0.0751735
0.0796929
0.0846757
0.0902024
0.0963655
0.10327
0.0205644
0.0229664
0.0252747
0.0275069
0.0296868
0.0318374
0.0339805
0.0361363
0.0383226
0.0405552
0.0428481
0.0452136
0.047663
0.0502065
0.0528546
0.0556182
0.0585094
0.061542
0.0647319
0.0680981
0.0716635
0.0754506
0.0795004
0.0838534
0.0885539
0.0936547
0.0992183
0.105319
0.112044
0.119495
0.127787
0.137055
0.0262067
0.0289626
0.031525
0.0339294
0.0362204
0.0384414
0.0406325
0.0428287
0.0450594
0.0473496
0.0497196
0.0521866
0.0547652
0.0574688
0.0603102
0.0633027
0.0664607
0.0698003
0.0733401
0.0771017
0.0811113
0.085399
0.0900197
0.0950165
0.100438
0.10634
0.112791
0.11987
0.127669
0.136298
0.145885
0.156576
0.0309387
0.0337775
0.0363355
0.0386687
0.0408412
0.0429147
0.044944
0.0469757
0.0490479
0.0511912
0.0534299
0.0557839
0.0582697
0.0609023
0.0636962
0.0666667
0.0698303
0.0732054
0.0768132
0.080678
0.0848285
0.0893055
0.0941734
0.0994789
0.105272
0.111608
0.118551
0.126178
0.134576
0.143851
0.154131
0.165565
0.0347597
0.0374706
0.0398291
0.0419096
0.0437926
0.0455535
0.0472583
0.0489618
0.0507073
0.0525288
0.0544522
0.0564978
0.0586829
0.061023
0.0635341
0.0662335
0.0691406
0.0722773
0.0756683
0.0793414
0.0833279
0.0876833
0.0924806
0.0977744
0.103616
0.110059
0.117159
0.124979
0.133586
0.14306
0.153519
0.165105
0.0376857
0.040102
0.0421058
0.043787
0.045239
0.0465486
0.0477901
0.0490238
0.050296
0.0516409
0.0530829
0.0546402
0.0563275
0.0581586
0.0601487
0.0623161
0.0646824
0.0672741
0.0701235
0.0732631
0.0767286
0.0805805
0.0849183
0.0898098
0.0953155
0.101495
0.108406
0.116105
0.124586
0.133862
0.144027
0.155201
0.0397506
0.0417371
0.0432588
0.0444196
0.0453258
0.0460752
0.0467506
0.0474173
0.0481228
0.0488992
0.0497659
0.0507338
0.0518095
0.0529985
0.0543079
0.055749
0.0573382
0.0590983
0.0610595
0.0632723
0.0657826
0.0686424
0.0719612
0.0758408
0.0803676
0.085633
0.0917111
0.0986641
0.106526
0.115195
0.124593
0.13477
0.0410037
0.042452
0.0433925
0.0439458
0.0442349
0.0443726
0.0444535
0.0445497
0.0447093
0.0449592
0.0453085
0.0457547
0.046289
0.0469007
0.0475807
0.0483235
0.0491287
0.0500011
0.0509506
0.0519952
0.0531608
0.0544606
0.0559465
0.0577972
0.0601507
0.0631192
0.0668324
0.0714323
0.0772002
0.0840647
0.09182
0.100194
0.0415064
0.0423367
0.0426326
0.0425382
0.0421998
0.0417505
0.041298
0.0409172
0.0406483
0.0405004
0.0404597
0.0404989
0.0405866
0.0406933
0.0407956
0.040877
0.0409283
0.0409421
0.0409109
0.040828
0.0406894
0.0405968
0.0404879
0.0403236
0.0400483
0.0395751
0.0387308
0.0373075
0.0367292
0.037251
0.0388496
0.0413532
0.00115229
0.00101329
0.00102006
0.00130351
0.00239099
0.00355853
0.00463778
0.0056289
0.00202229
0.0024506
0.00415323
0.00630926
0.00789268
0.00923229
0.0106536
0.0123017
0.0030703
0.00584879
0.00789353
0.00986372
0.0115098
0.013275
0.0155022
0.0180436
0.00456149
0.00882676
0.010919
0.0127661
0.0146721
0.0171186
0.0201042
0.023237
0.00617775
0.0115625
0.0135245
0.0154412
0.0177951
0.0208685
0.0243545
0.0277893
0.00750672
0.0139134
0.0159406
0.018083
0.020904
0.024423
0.0281483
0.0316498
0.00852746
0.0159875
0.0182339
0.0206969
0.0239038
0.027664
0.0314127
0.0347927
0.00940263
0.0178069
0.0204061
0.0232176
0.0266919
0.0305077
0.0341117
0.0372183
0.0101481
0.0194128
0.0224383
0.0255707
0.0291893
0.0329117
0.0362374
0.0389491
0.0107735
0.020844
0.0243061
0.0276889
0.0313495
0.0348582
0.0378028
0.0400208
0.0413196
0.0414562
0.0410583
0.0403018
0.0393624
0.0383914
0.0374965
0.0367308
0.0360937
0.0355421
0.0350088
0.0344223
0.0337216
0.0328692
0.0318482
0.0306662
0.0293497
0.0279372
0.0264716
0.0249917
0.0237473
0.0226564
0.0214884
0.0201036
0.0184314
0.0168047
0.0152677
0.0138434
0.0125027
0.0110074
0.00912253
0.00620394
0.0405038
0.03994
0.0388755
0.0375239
0.0360843
0.0347049
0.0334568
0.0323282
0.0312417
0.0300888
0.0287684
0.027221
0.0254404
0.0234765
0.0214232
0.0194002
0.0175269
0.0159083
0.0146188
0.0137558
0.013076
0.0124621
0.0118645
0.0112604
0.0106399
0.0099912
0.00926837
0.00836926
0.00734082
0.00613685
0.00460413
0.00185581
0.0391851
0.0379637
0.0363128
0.0344806
0.0326676
0.0309818
0.0294201
0.0278911
0.0262706
0.0244674
0.0224675
0.0203436
0.0182318
0.0162853
0.0146361
0.0133586
0.0124611
0.0119045
0.0116205
0.0114608
0.0113183
0.011151
0.0109312
0.0106357
0.0102425
0.00973051
0.00907383
0.00822461
0.00717367
0.00587964
0.00425734
0.00200693
0.0375003
0.0357027
0.0335837
0.0314049
0.0293351
0.0274096
0.0255496
0.0236363
0.0216018
0.0194811
0.017404
0.0155368
0.0140195
0.0129166
0.0122157
0.0118503
0.0117332
0.011775
0.0118918
0.0120016
0.0120679
0.012065
0.0119683
0.0117506
0.011383
0.0108368
0.010085
0.00909933
0.0078777
0.0063906
0.00460729
0.00230097
0.0355903
0.0333285
0.0308755
0.0284764
0.0262362
0.0241164
0.022015
0.0198794
0.0177716
0.0158412
0.0142471
0.0130831
0.012354
0.0119983
0.0119243
0.0120382
0.0122603
0.0125283
0.0127865
0.0130036
0.0131571
0.0132243
0.0131782
0.0129865
0.0126139
0.0120242
0.0111851
0.0100755
0.00868548
0.00699345
0.00499862
0.0025654
0.0335894
0.0309898
0.0283304
0.0258089
0.0234563
0.0212
0.0189924
0.0168997
0.0150728
0.0136528
0.0126969
0.0121742
0.0120008
0.0120776
0.0123147
0.0126405
0.0130023
0.0133619
0.0136859
0.0139591
0.0141641
0.0142774
0.0142694
0.0141043
0.0137401
0.0131315
0.0122335
0.011028
0.00949577
0.00760735
0.0053757
0.00279751
0.0316135
0.0287994
0.0260375
0.023458
0.0210394
0.0187365
0.0166035
0.0147886
0.0134244
0.0125496
0.0121137
0.0120204
0.0121677
0.0124677
0.0128528
0.0132747
0.0136997
0.0141043
0.0144669
0.0147783
0.0150211
0.0151711
0.0151972
0.0150609
0.0147153
0.014108
0.0131809
0.0119117
0.0102699
0.00820378
0.00573156
0.00300246
0.0297522
0.0268296
0.0240374
0.0214392
0.0190042
0.0167642
0.0148607
0.0134378
0.0125364
0.0120967
0.0120132
0.0121784
0.0125024
0.0129175
0.013376
0.0138456
0.0143045
0.0147368
0.015128
0.0154693
0.0157425
0.0159231
0.0159793
0.0158703
0.0155463
0.0149502
0.0140144
0.0127079
0.0109882
0.00877566
0.00608118
0.00318757
0.0280656
0.0251152
0.0223355
0.019744
0.0173476
0.015268
0.0136762
0.0126452
0.012121
0.0119881
0.0121289
0.0124469
0.0128699
0.0133476
0.0138462
0.0143438
0.0148251
0.0152793
0.0156946
0.0160603
0.0163584
0.0165643
0.0166454
0.0165596
0.0162553
0.0156729
0.0147395
0.0134134
0.0116405
0.00931439
0.00642206
0.00335632
0.0265868
0.0236624
0.0209155
0.0183502
0.0160443
0.0141864
0.012917
0.0122198
0.0119756
0.0120503
0.0123335
0.0127441
0.0132257
0.0137409
0.0142654
0.0147835
0.0152844
0.0157578
0.0161937
0.0165801
0.0168987
0.0171248
0.0172253
0.0171574
0.0168684
0.0162975
0.01537
0.014034
0.012225
0.00981337
0.00675125
0.0035111
0.0253262
0.0224579
0.0197499
0.0172278
0.015051
0.0134357
0.0124573
0.0120226
0.0119798
0.0121953
0.0125713
0.0130411
0.0135607
0.0141018
0.0146463
0.0151826
0.0157024
0.016194
0.0166482
0.0170521
0.0173873
0.0176288
0.0177432
0.0176874
0.0174084
0.0168444
0.0159213
0.01458
0.0127455
0.0102709
0.00706647
0.00365381
0.0242783
0.0214783
0.0188076
0.0163421
0.0143156
0.0129345
0.0121998
0.0119655
0.0120679
0.0123814
0.0128209
0.0133316
0.0138788
0.0144407
0.0150032
0.0155575
0.0160955
0.0166043
0.0170747
0.0174931
0.0178409
0.0180931
0.0182162
0.018167
0.0178921
0.0173296
0.0164075
0.0150624
0.0132089
0.0106887
0.00736655
0.00378601
0.0234276
0.0206958
0.0180574
0.0156576
0.0137865
0.0126153
0.0120782
0.0119967
0.0122061
0.0125908
0.0130767
0.0136184
0.0141883
0.0147687
0.0153492
0.0159213
0.0164759
0.017
0.0174837
0.017913
0.0182694
0.0185279
0.0186548
0.0186068
0.0183305
0.0177644
0.0168394
0.015491
0.0136238
0.0110706
0.00765122
0.00390895
0.0227531
0.0200818
0.0174699
0.0151404
0.0134188
0.0124287
0.0120504
0.0120872
0.0123783
0.0128173
0.0133398
0.0139074
0.0144972
0.0150958
0.0156938
0.016282
0.016851
0.0173873
0.0178803
0.0183163
0.0186769
0.0189371
0.0190633
0.0190119
0.0187294
0.0181557
0.017225
0.0158738
0.0139976
0.0114208
0.00792075
0.00402371
0.0222313
0.0196084
0.0170175
0.0147603
0.013177
0.0123407
0.0120909
0.0122216
0.0125773
0.0130604
0.0136139
0.0142047
0.0148135
0.0154294
0.016043
0.0166447
0.0172244
0.0177684
0.0182659
0.0187034
0.0190631
0.0193204
0.0194417
0.0193828
0.0190908
0.0185068
0.0175698
0.0162168
0.0143365
0.0117432
0.00817578
0.00413122
0.0218391
0.0192307
0.0166608
0.0144884
0.0130343
0.0123287
0.0121845
0.0123919
0.0128011
0.013322
0.0139034
0.0145157
0.0151423
0.0157734
0.0163997
0.0170109
0.0175966
0.0181426
0.0186385
0.0190716
0.019425
0.0196745
0.0197866
0.0197169
0.019413
0.0188185
0.0178773
0.0165259
0.014646
0.0120415
0.00841709
0.00423228
0.0215341
0.0189278
0.0163801
0.0143037
0.012971
0.0123777
0.012322
0.0125939
0.0130495
0.0136042
0.0142112
0.0148435
0.0154858
0.0161292
0.0167643
0.0173801
0.0179657
0.0185071
0.0189947
0.0194169
0.0197579
0.0199942
0.0200926
0.020009
0.0196927
0.0190894
0.0181498
0.016806
0.0149304
0.0123186
0.00864551
0.0043276
0.021297
0.0186888
0.0161682
0.0141862
0.0129702
0.0124764
0.0124967
0.0128247
0.0133217
0.0139076
0.0145385
0.0151887
0.015844
0.0164959
0.0171349
0.0177495
0.0183282
0.0188577
0.0193297
0.019734
0.020056
0.0202733
0.0203531
0.0202531
0.0199249
0.0193206
0.0183901
0.01706
0.0151927
0.0125768
0.00886184
0.00441784
0.0211181
0.0185066
0.016017
0.0141215
0.0130174
0.0126135
0.0127009
0.0130792
0.0136148
0.0142303
0.0148836
0.0155495
0.0162144
0.0168704
0.0175078
0.0181146
0.0186793
0.0191896
0.0196385
0.0200177
0.0203139
0.0205054
0.0205615
0.020443
0.0201088
0.0195138
0.0186
0.0172896
0.0154348
0.0128179
0.00906687
0.00450359
0.0209857
0.018375
0.0159184
0.014103
0.0130952
0.012774
0.0129226
0.0133483
0.0139214
0.0145666
0.0152418
0.0159213
0.0165923
0.0172477
0.0178779
0.0184703
0.0190138
0.0194975
0.0199162
0.020263
0.0205257
0.0206846
0.020712
0.0205771
0.0202467
0.0196706
0.018781
0.0174955
0.0156578
0.0130435
0.00926136
0.00458541
0.0208944
0.0182886
0.0158658
0.014123
0.0131985
0.0129477
0.0131504
0.0136198
0.0142311
0.0149083
0.0156055
0.0162976
0.0169716
0.0176218
0.018239
0.0188108
0.0193264
0.0197768
0.0201582
0.0204652
0.0206868
0.0208066
0.0208035
0.0206591
0.0203403
0.0197915
0.0189338
0.0176782
0.0158627
0.0132548
0.00944604
0.00466382
0.02084
0.018243
0.0158536
0.0141755
0.0133227
0.0131328
0.0133839
0.0138936
0.0145395
0.0152456
0.0159657
0.0166702
0.0173447
0.0179859
0.0185852
0.0191307
0.0196124
0.0200231
0.0203605
0.0206202
0.0207942
0.0208702
0.020841
0.0206913
0.0203905
0.0198771
0.0190594
0.0178379
0.0160507
0.0134531
0.00962161
0.00473933
0.0208186
0.0182341
0.015877
0.0142559
0.0134645
0.0133273
0.0136216
0.0141682
0.0148455
0.0155772
0.0163155
0.01703
0.0177049
0.0183336
0.0189111
0.0194256
0.0198679
0.0202329
0.0205196
0.0207258
0.0208464
0.0208815
0.0208273
0.0206757
0.0203983
0.0199279
0.0191587
0.0179776
0.0162238
0.0136394
0.00978878
0.00481243
0.0208271
0.0182585
0.0159321
0.0143605
0.0136211
0.0135293
0.0138624
0.0144424
0.0151481
0.0159018
0.0166542
0.0173737
0.0180444
0.0186605
0.0192126
0.0196918
0.0200896
0.020403
0.0206332
0.0207806
0.0208496
0.0208429
0.0207647
0.0206139
0.0203653
0.0199452
0.0192326
0.0180986
0.0163832
0.0138148
0.00994822
0.00488359
0.0208625
0.018313
0.0160154
0.0144861
0.0137903
0.0137375
0.0141048
0.014715
0.015446
0.0162185
0.0169812
0.0177014
0.0183633
0.0189607
0.019485
0.0199254
0.0202736
0.0205302
0.0207002
0.0207895
0.0208051
0.0207564
0.0206555
0.0205087
0.0202936
0.0199306
0.0192823
0.018202
0.0165299
0.01398
0.0101006
0.00495329
0.0209222
0.018395
0.0161241
0.0146302
0.0139704
0.0139506
0.0143478
0.0149849
0.0157382
0.016526
0.0172952
0.018012
0.0186603
0.019234
0.0197241
0.0201202
0.0204154
0.0206133
0.020722
0.0207512
0.0207131
0.0206234
0.0205021
0.0203631
0.0201864
0.0198863
0.0193092
0.018289
0.0166648
0.0141359
0.0102467
0.00502201
0.0210037
0.018502
0.0162557
0.0147907
0.0141598
0.0141673
0.0145903
0.0152508
0.016023
0.0168226
0.0175941
0.0183025
0.0189317
0.0194761
0.0199267
0.020274
0.0205124
0.020649
0.0206952
0.0206647
0.0205743
0.0204462
0.0203083
0.0201812
0.0200472
0.0198146
0.0193146
0.0183607
0.0167887
0.0142831
0.0103871
0.00509023
0.0211048
0.018632
0.0164082
0.014966
0.0143573
0.0143866
0.0148311
0.0155113
0.0162987
0.0171056
0.0178743
0.0185685
0.0191724
0.0196809
0.0200861
0.0203801
0.0205593
0.0206342
0.020619
0.0205309
0.0203912
0.0202286
0.0200785
0.0199677
0.01988
0.0197186
0.0193003
0.0184179
0.0169019
0.0144223
0.0105224
0.00515845
0.0212232
0.018783
0.0165799
0.0151547
0.0145618
0.0146075
0.0150688
0.0157645
0.0165627
0.0173719
0.0181318
0.0188053
0.0193773
0.0198439
0.020199
0.0204367
0.0205559
0.0205698
0.0204952
0.0203524
0.0201674
0.019975
0.0198178
0.0197276
0.0196892
0.0196013
0.019268
0.0184618
0.0170051
0.014554
0.0106534
0.00522722
0.0213569
0.0189532
0.0167693
0.0153556
0.0147724
0.0148288
0.0153022
0.0160087
0.0168125
0.0176183
0.0183629
0.019009
0.0195429
0.0199627
0.0202644
0.0204444
0.0205038
0.0204581
0.0203265
0.0201325
0.0199067
0.0196902
0.0195313
0.0194659
0.0194792
0.019466
0.0192197
0.0184934
0.0170986
0.0146787
0.0107807
0.00529711
0.0215039
0.0191413
0.0169752
0.015568
0.0149882
0.0150497
0.0155298
0.016242
0.0170458
0.0178417
0.0185641
0.0191763
0.0196666
0.0200358
0.020282
0.0204037
0.0204041
0.0203005
0.0201148
0.0198739
0.019613
0.0193788
0.0192242
0.0191876
0.0192543
0.0193158
0.0191572
0.0185138
0.0171826
0.0147969
0.0109047
0.00536873
0.0216628
0.0193458
0.0171971
0.0157915
0.0152093
0.0152699
0.0157511
0.0164629
0.0172605
0.0180398
0.0187325
0.0193039
0.0197458
0.0200613
0.0202505
0.0203139
0.0202564
0.0200974
0.0198615
0.0195792
0.0192903
0.0190457
0.0189018
0.018898
0.019019
0.0191542
0.0190826
0.0185241
0.0172573
0.0149088
0.0110262
0.00544278
0.0218289
0.0195682
0.0174383
0.0160294
0.0154383
0.0154919
0.0159677
0.0166718
0.0174543
0.0182073
0.0188628
0.0193881
0.019778
0.0200377
0.0201691
0.0201745
0.0200608
0.0198494
0.0195682
0.0192514
0.0189424
0.0186957
0.0185693
0.0186022
0.0187778
0.0189846
0.0189979
0.018525
0.0173244
0.0150155
0.0111457
0.00552004
0.0219983
0.0198033
0.0176979
0.0162842
0.0156782
0.0157167
0.0161783
0.0168655
0.0176237
0.0183421
0.0189534
0.0194275
0.0197621
0.0199643
0.0200373
0.0199852
0.0198172
0.0195576
0.0192374
0.018894
0.0185738
0.0183332
0.0182308
0.0183043
0.0185354
0.0188116
0.0189062
0.0185169
0.0173843
0.0151171
0.011264
0.00560142
0.0221689
0.0200493
0.0179742
0.0165551
0.0159284
0.0159438
0.0163819
0.0170426
0.017767
0.0184425
0.0190026
0.0194205
0.0196966
0.0198391
0.0198529
0.0197442
0.0195255
0.0192238
0.0188727
0.018512
0.0181898
0.0179635
0.0178911
0.0180088
0.0182961
0.0186398
0.0188123
0.0185042
0.0174382
0.0152137
0.0113814
0.00568326
0.022339
0.0203041
0.0182658
0.0168412
0.0161888
0.0161728
0.0165779
0.017202
0.017883
0.0185068
0.0190087
0.0193652
0.0195791
0.0196597
0.0196139
0.0194513
0.0191877
0.0188521
0.0184798
0.0181116
0.0177966
0.0175923
0.0175556
0.0177203
0.018064
0.0184729
0.0187196
0.0184893
0.0174884
0.0153066
0.0114967
0.00576448
0.0225065
0.0205654
0.018571
0.0171419
0.0164591
0.0164037
0.016766
0.0173431
0.0179707
0.0185341
0.0189709
0.0192614
0.0194099
0.0194275
0.019324
0.019112
0.018811
0.0184507
0.0180667
0.0177004
0.017401
0.0172257
0.0172295
0.0174437
0.0178434
0.0183145
0.0186309
0.0184741
0.0175357
0.015396
0.0116098
0.00584499
0.0226698
0.0208309
0.0188882
0.0174565
0.0167394
0.0166369
0.0169466
0.0174662
0.0180304
0.018525
0.018891
0.0191122
0.0191953
0.0191513
0.0189933
0.0187386
0.0184066
0.0180288
0.0176416
0.0172854
0.0170093
0.0168693
0.0169181
0.0171836
0.0176386
0.0181685
0.0185491
0.0184605
0.0175807
0.0154816
0.0117204
0.00592458
0.0228272
0.0210985
0.0192154
0.0177842
0.0170299
0.0168729
0.0171205
0.0175725
0.0180638
0.0184824
0.0187731
0.0189238
0.0189393
0.0188348
0.0186254
0.018332
0.0179772
0.017592
0.0172098
0.0168722
0.016627
0.0165286
0.0166267
0.0169452
0.017454
0.0180386
0.0184775
0.0184504
0.017624
0.0155632
0.0118284
0.00600315
0.0229771
0.0213657
0.0195507
0.0181242
0.017331
0.0171132
0.0172896
0.0176644
0.0180743
0.0184105
0.0186225
0.0186984
0.0186479
0.0184856
0.0182291
0.0179009
0.0175279
0.0171421
0.0167752
0.0164652
0.0162596
0.0162095
0.0163609
0.0167336
0.0172946
0.0179291
0.0184191
0.0184458
0.0176659
0.0156404
0.0119331
0.00608052
0.0231186
0.0216303
0.019892
0.0184757
0.0176432
0.0173594
0.0174567
0.0177453
0.0180657
0.0183135
0.0184416
0.0184436
0.0183294
0.0181138
0.0178151
0.0174569
0.0170694
0.0166863
0.0163425
0.0160706
0.0159134
0.0159188
0.0161276
0.0165552
0.0171656
0.0178446
0.0183775
0.0184486
0.0177066
0.0157122
0.0120339
0.0061564
0.0232508
0.0218904
0.0202372
0.0188378
0.0179672
0.0176137
0.017625
0.0178191
0.0180424
0.0181957
0.0182384
0.0181687
0.0179948
0.017731
0.017396
0.017014
0.0166173
0.0162411
0.0159227
0.0156976
0.0155977
0.0156649
0.0159345
0.0164169
0.0170732
0.0177898
0.0183562
0.0184608
0.0177459
0.0157774
0.0121296
0.00623041
0.0233735
0.0221441
0.0205842
0.0192094
0.0183039
0.0178785
0.0177978
0.0178904
0.0180101
0.0180632
0.018023
0.0178851
0.0176569
0.0173514
0.0169871
0.0165888
0.0161903
0.0158269
0.0155369
0.0153584
0.015324
0.0154583
0.0157907
0.0163266
0.0170238
0.01777
0.0183588
0.0184844
0.0177829
0.0158341
0.0122187
0.006302
0.0234874
0.0223904
0.0209311
0.0195895
0.0186539
0.0181563
0.017979
0.0179638
0.0179716
0.0179276
0.0178077
0.0176069
0.0173307
0.0169911
0.0166062
0.0162006
0.0158092
0.0154666
0.0152099
0.0150778
0.0151042
0.0153116
0.0157071
0.0162931
0.0170248
0.0177906
0.0183887
0.0185203
0.017818
0.0158804
0.0122991
0.00637053
0.0235936
0.0226288
0.0212763
0.019977
0.019018
0.0184491
0.0181731
0.0180456
0.01794
0.017802
0.0176074
0.0173499
0.0170335
0.016669
0.0162733
0.0158708
0.0154967
0.015184
0.0149676
0.0148838
0.0149656
0.0152354
0.0156961
0.0163264
0.0170836
0.0178568
0.0184488
0.0185688
0.0178495
0.0159123
0.012368
0.00643516
0.0236946
0.0228601
0.0216191
0.0203714
0.0193961
0.0187592
0.0183858
0.0181405
0.0179279
0.0177019
0.0174395
0.0171333
0.0167858
0.0164067
0.0160115
0.0156236
0.0152778
0.0150048
0.0148361
0.0148041
0.0149382
0.0152587
0.0157673
0.016438
0.0172084
0.0179735
0.0185409
0.0186287
0.0178734
0.0159239
0.012422
0.00649483
0.023794
0.0230865
0.0219599
0.0207723
0.0197883
0.0190902
0.0186226
0.0182641
0.0179518
0.0176459
0.0173244
0.0169792
0.0166116
0.0162296
0.0158471
0.0154859
0.01518
0.0149563
0.014842
0.0148645
0.0150482
0.015409
0.015947
0.0166351
0.0174069
0.0181447
0.018665
0.0186965
0.0178831
0.0159073
0.0124566
0.0065482
0.0238972
0.023312
0.0223012
0.0211786
0.0201965
0.0194474
0.0188878
0.0184301
0.0180303
0.0176557
0.0172865
0.0169144
0.0165393
0.0161673
0.0158106
0.0154886
0.0152336
0.0150674
0.0150121
0.0150891
0.0153171
0.015707
0.016256
0.0169364
0.017682
0.0183717
0.0188183
0.0187649
0.0178682
0.0158519
0.0124665
0.00659351
0.0240116
0.0235439
0.022646
0.0215946
0.0206251
0.0198378
0.0191991
0.0186581
0.0181864
0.017758
0.0173557
0.0169711
0.0166027
0.0162548
0.0159372
0.0156663
0.0154716
0.0153683
0.0153725
0.0154993
0.0157614
0.0161651
0.0167043
0.0173508
0.0180388
0.0186496
0.0189922
0.0188215
0.017814
0.015744
0.0124449
0.00662838
0.0241474
0.0237914
0.0230037
0.0220281
0.0210822
0.0202716
0.0195748
0.0189721
0.0184486
0.0179854
0.0175678
0.0171876
0.0168419
0.0165325
0.0162665
0.0160567
0.0159276
0.0158872
0.015945
0.0161101
0.0163896
0.0167857
0.0172899
0.0178733
0.0184707
0.0189648
0.0191697
0.0188462
0.0176998
0.0155669
0.0123842
0.00664946
0.0243184
0.0240701
0.0233897
0.0224936
0.021582
0.0207652
0.0200385
0.0194019
0.0188523
0.0183776
0.017966
0.0176089
0.0173018
0.017044
0.016839
0.0166965
0.0166308
0.0166445
0.016741
0.0169239
0.0171961
0.0175566
0.0179952
0.0184822
0.0189535
0.019294
0.0193213
0.0188088
0.017498
0.0153004
0.0122743
0.00665181
0.0245446
0.024403
0.0238283
0.0230156
0.0221503
0.021346
0.0206227
0.0199851
0.0194402
0.018981
0.018598
0.0182822
0.0180271
0.017829
0.0176878
0.0176085
0.017594
0.0176418
0.0177509
0.0179213
0.0181531
0.0184434
0.0187808
0.0191351
0.019443
0.0195902
0.0194012
0.0186671
0.017173
0.0149212
0.0121019
0.00662787
0.0248554
0.0248238
0.0243559
0.0236324
0.0228282
0.022058
0.0213709
0.0207666
0.0202576
0.0198403
0.019506
0.019245
0.0190482
0.018909
0.0188223
0.0187879
0.0187975
0.0188459
0.0189298
0.0190479
0.0191993
0.0193803
0.0195783
0.0197624
0.0198696
0.0197844
0.0193453
0.0183658
0.0166816
0.0144045
0.011848
0.00656585
0.0252949
0.0253837
0.0250271
0.0244012
0.0236753
0.0229649
0.0223281
0.0217885
0.0213404
0.0209834
0.0207086
0.0205042
0.0203587
0.0202622
0.0202034
0.0201764
0.0201661
0.0201677
0.0201791
0.0201994
0.0202277
0.0202594
0.0202808
0.0202595
0.0201314
0.019783
0.0190694
0.0178347
0.0159743
0.0137265
0.0114819
0.00644666
0.0259375
0.0261653
0.0259273
0.0254088
0.0247785
0.0241511
0.0235862
0.023108
0.0227227
0.0224229
0.0221944
0.0220215
0.0218912
0.0217919
0.0217071
0.0216281
0.0215393
0.0214394
0.0213284
0.0212064
0.0210721
0.0209197
0.0207328
0.0204774
0.0200875
0.0194588
0.0184658
0.0169855
0.0150005
0.0128674
0.010952
0.00623878
0.026916
0.0273106
0.027198
0.0267928
0.0262672
0.0257322
0.0252434
0.0248198
0.0244634
0.0241655
0.0239126
0.0236872
0.0234806
0.0232845
0.0230876
0.0228808
0.0226506
0.0223971
0.0221207
0.021821
0.0214948
0.0211331
0.0207168
0.0202095
0.0195487
0.0186425
0.0173908
0.0157287
0.0137231
0.0118084
0.0101849
0.00589505
0.0285407
0.0291137
0.0291085
0.0287894
0.02833
0.0278281
0.0273302
0.0268536
0.0263994
0.0259592
0.0255351
0.0251179
0.0247126
0.024318
0.0239299
0.0235304
0.0231084
0.022663
0.0221924
0.0216931
0.0211585
0.0205763
0.0199249
0.0191689
0.0182552
0.0171157
0.0156934
0.0139805
0.0121137
0.0105059
0.00912943
0.00536403
0.0312833
0.0319076
0.0318836
0.03147
0.0308528
0.0301323
0.0293636
0.0285765
0.0277886
0.0269984
0.0262409
0.0255237
0.0248437
0.0241947
0.0235676
0.0229379
0.022297
0.0216416
0.0209667
0.0202651
0.0195273
0.0187394
0.0178819
0.0169284
0.0158464
0.0146041
0.0131941
0.0116492
0.0101223
0.0088453
0.00764955
0.0045644
0.0375138
0.0353651
0.0340038
0.032597
0.0312176
0.0298434
0.0285226
0.027286
0.0261354
0.0250548
0.0240418
0.0230903
0.022192
0.0213391
0.0205224
0.0197103
0.0189007
0.0180893
0.0172709
0.0164394
0.0155881
0.0147098
0.0137964
0.0128408
0.0118384
0.0107912
0.00971675
0.00864259
0.00762297
0.00667104
0.00555926
0.00328278
0.0263869
0.02323
0.021199
0.0197597
0.0185477
0.0174392
0.0164089
0.0154709
0.0146175
0.0138338
0.013108
0.0124308
0.0117945
0.0111925
0.0106166
0.0100935
0.00961143
0.0091585
0.0087254
0.00830459
0.00788954
0.0074743
0.00705299
0.00661936
0.00616627
0.00568482
0.00516353
0.00457751
0.00388698
0.00303263
0.00196524
0.000979708
0.0113312
0.0221803
0.0260756
0.0296346
0.0332214
0.0364085
0.0388679
0.040494
0.0118063
0.0233351
0.0276156
0.0312647
0.034676
0.0374691
0.0393832
0.0403692
0.0122167
0.0243096
0.0289154
0.0325757
0.0357328
0.0380737
0.0394045
0.0397333
0.0125641
0.0250988
0.0299794
0.0335788
0.0364209
0.0382686
0.0390051
0.0386878
0.0128434
0.0257057
0.0308137
0.0342859
0.0367667
0.038113
0.0382654
0.0373415
0.0130619
0.0261482
0.0314104
0.0347017
0.0368163
0.037669
0.0372696
0.0358042
0.0132239
0.0264329
0.0317725
0.034869
0.0366176
0.0370004
0.0361013
0.0341788
0.0133338
0.0265758
0.0319341
0.0348256
0.0362198
0.0361707
0.0348388
0.0325548
0.0133962
0.0265942
0.0319261
0.0346095
0.035671
0.035239
0.0335503
0.0310029
0.0134162
0.0265058
0.0317773
0.0342568
0.0350156
0.0342569
0.032291
0.0295733
0.0133986
0.0263276
0.0315146
0.0338005
0.0342925
0.033267
0.0311021
0.0282969
0.0133483
0.0260755
0.0311619
0.0332696
0.0335344
0.0323023
0.0300112
0.0271882
0.0132701
0.0257639
0.0307407
0.0326888
0.0327674
0.0313866
0.0290343
0.0262486
0.0131683
0.0254056
0.030269
0.0320785
0.0320113
0.0305353
0.0281775
0.0254708
0.0130469
0.0250117
0.0297624
0.031455
0.0312804
0.0297571
0.0274398
0.0248415
0.0129094
0.0245916
0.0292332
0.0308306
0.0305841
0.0290552
0.026815
0.0243443
0.0127591
0.0241533
0.0286916
0.0302145
0.0299281
0.028429
0.0262942
0.0239628
0.0125986
0.0237032
0.0281454
0.0296132
0.0293151
0.027875
0.025866
0.023677
0.0124303
0.0232466
0.0276005
0.0290311
0.0287455
0.0273881
0.0255187
0.0234682
0.0122562
0.0227877
0.0270615
0.0284708
0.0282184
0.0269617
0.0252408
0.0233081
0.0120781
0.0223297
0.0265316
0.0279337
0.0277316
0.0265889
0.0250198
0.0231888
0.0118972
0.0218753
0.0260132
0.0274202
0.0272822
0.0262629
0.0248451
0.0231048
0.0117148
0.0214263
0.0255075
0.0269299
0.026867
0.025977
0.024708
0.0230513
0.0115317
0.0209842
0.0250156
0.0264622
0.0264827
0.025725
0.0246012
0.0230244
0.0113487
0.0205499
0.0245378
0.0260158
0.0261257
0.0255015
0.0245188
0.0230203
0.0111664
0.0201241
0.0240742
0.0255895
0.025793
0.0253016
0.0244557
0.0230358
0.0109853
0.0197073
0.0236246
0.0251818
0.0254814
0.025121
0.0244074
0.0230681
0.0108055
0.0192997
0.0231887
0.0247913
0.0251881
0.0249559
0.0243694
0.0231141
0.0106275
0.0189014
0.0227659
0.0244165
0.0249106
0.0248031
0.024338
0.0231713
0.010451
0.0185123
0.0223557
0.0240559
0.0246465
0.0246597
0.0243114
0.0232373
0.0102765
0.018132
0.0219575
0.0237083
0.0243938
0.0245232
0.0242881
0.0233102
0.0101042
0.0177604
0.0215703
0.0233724
0.0241506
0.0243915
0.0242657
0.0233879
0.00993672
0.0173976
0.021193
0.0230463
0.0239143
0.0242618
0.0242407
0.0234642
0.00977475
0.0170425
0.0208248
0.0227287
0.0236837
0.0241329
0.0242121
0.0235374
0.00961759
0.0166953
0.0204653
0.0224187
0.0234576
0.0240037
0.0241789
0.0236062
0.00946462
0.0163558
0.0201138
0.0221156
0.023235
0.0238732
0.0241394
0.0236692
0.0093153
0.0160237
0.0197699
0.0218189
0.0230154
0.0237405
0.0240926
0.0237252
0.00916916
0.0156985
0.0194333
0.0215281
0.022798
0.0236054
0.0240387
0.0237733
0.00902578
0.01538
0.0191037
0.0212428
0.0225826
0.0234676
0.0239777
0.0238129
0.00888478
0.015068
0.0187808
0.0209628
0.0223691
0.0233272
0.0239102
0.0238436
0.00874585
0.0147623
0.0184644
0.0206878
0.0221574
0.0231847
0.0238368
0.0238653
0.00860871
0.0144627
0.0181543
0.0204179
0.021948
0.0230409
0.0237588
0.0238787
0.00847312
0.014169
0.0178504
0.0201532
0.0217415
0.0228969
0.0236778
0.0238845
0.00833891
0.0138813
0.0175529
0.019894
0.0215388
0.0227544
0.023596
0.0238843
0.00820594
0.0135994
0.0172617
0.019641
0.0213411
0.0226155
0.0235161
0.0238805
0.00807413
0.0133235
0.0169772
0.0193949
0.0211503
0.022483
0.0234413
0.0238762
0.00794347
0.0130537
0.0166999
0.019157
0.0209684
0.0223596
0.0233716
0.0238751
0.00781399
0.0127902
0.0164305
0.0189288
0.0207983
0.0222492
0.0233106
0.0238823
0.00768583
0.0125334
0.0161697
0.018712
0.0206433
0.0221562
0.0232637
0.0239043
0.00755921
0.0122839
0.0159189
0.0185091
0.0205063
0.0220814
0.0232382
0.0239498
0.00743444
0.0120424
0.0156798
0.0183227
0.0203904
0.0220253
0.0232431
0.0240301
0.00731196
0.01181
0.0154541
0.018156
0.0203011
0.0219963
0.0232891
0.0241609
0.00719232
0.0115882
0.0152444
0.0180115
0.0202403
0.0220051
0.0233912
0.0243648
0.00707617
0.0113787
0.0150532
0.0178906
0.0202071
0.0220646
0.0235703
0.0246753
0.0069643
0.011183
0.0148835