/*--------------------------------*- C++ -*----------------------------------*\
| =========                 |                                                 |
| \\      /  F ield         | OpenFOAM: The Open Source CFD Toolbox           |
|  \\    /   O peration     | Version:  v2012                                 |
|   \\  /    A nd           | Website:  www.openfoam.com                      |
|    \\/     M anipulation  |                                                 |
\*---------------------------------------------------------------------------*/
FoamFile
{
    version     2.0;
    format      ascii;
    class       volScalarField;
    location    "734";
    object      nut;
}
// * * * * * * * * * * * * * * * * * * * * * * * * * * * * * * * * * * * * * //

dimensions      [0 2 -1 0 0 0 0];


internalField   nonuniform List<scalar> 
6024
(
0.000479065
0.000496931
0.000516584
0.000538259
0.000562254
0.000588945
0.000618807
0.000652455
0.000690664
0.000734509
0.000785456
0.000845547
0.000917715
0.0010063
0.00111799
0.00126354
0.00146115
0.00174362
0.00217415
0.00288511
0.00263345
0.00272533
0.00282508
0.00293339
0.00305112
0.00317942
0.00331966
0.00347369
0.00364432
0.00383444
0.00404807
0.00429072
0.00457005
0.00489712
0.0052883
0.00576895
0.00638041
0.00719478
0.00835057
0.0101582
0.00446844
0.00461507
0.00477291
0.00494282
0.0051259
0.00532348
0.00553721
0.00576915
0.00602188
0.00629881
0.00660407
0.00694291
0.00732225
0.00775115
0.00824143
0.00880822
0.00946985
0.0102452
0.0111437
0.0121334
0.00561629
0.0057961
0.00598802
0.00619299
0.00641205
0.00664641
0.00689747
0.00716682
0.00745628
0.00776791
0.00810406
0.00846732
0.00886038
0.00928601
0.00974661
0.0102435
0.0107753
0.0113354
0.011908
0.0124649
0.00615412
0.00635164
0.00656064
0.00678222
0.0070175
0.0072676
0.00753369
0.00781692
0.00811839
0.00843907
0.00877969
0.00914047
0.00952095
0.00991949
0.0103329
0.0107558
0.0111807
0.0115988
0.012005
0.0124091
0.0061364
0.00633958
0.0065524
0.00677657
0.0070136
0.0072649
0.0075318
0.0078156
0.00811747
0.00843844
0.00877925
0.00914019
0.00952077
0.00991938
0.0103328
0.0107557
0.0111807
0.0115988
0.0120049
0.0124091
0.00556383
0.00576092
0.00596419
0.0061767
0.00640082
0.00663862
0.00689204
0.00716305
0.00745369
0.00776618
0.00810294
0.00846659
0.00885992
0.00928572
0.00974643
0.0102434
0.0107752
0.0113354
0.011908
0.0124649
0.00438585
0.00456166
0.00473729
0.00491866
0.00510927
0.00531194
0.0055292
0.00576366
0.00601824
0.00629642
0.00660248
0.00694186
0.00732157
0.00775071
0.00824115
0.00880805
0.00946975
0.0102452
0.0111437
0.0121334
0.00254611
0.00267274
0.00279065
0.00291021
0.00303513
0.00316829
0.00331202
0.00346869
0.003641
0.00383223
0.00404659
0.00428973
0.0045694
0.00489669
0.00528802
0.00576877
0.0063803
0.00719472
0.00835056
0.0101582
0.000474903
0.000494156
0.000514714
0.000537014
0.000561442
0.000588424
0.000618473
0.000652226
0.000690506
0.0007344
0.000785381
0.000845496
0.00091768
0.00100628
0.00111798
0.00126353
0.00146115
0.00174361
0.00217415
0.00288511
0.000181499
0.000192994
0.000203495
0.000213257
0.000222448
0.000231181
0.000239541
0.000247596
0.000255398
0.000262993
0.000270423
0.000277725
0.000284935
0.00029209
0.000299227
0.000306385
0.000313607
0.000320942
0.000328445
0.000336179
0.000344219
0.000352651
0.000361342
0.000370269
0.000379514
0.000389172
0.000399351
0.000410172
0.000421774
0.000434305
0.000447922
0.000462786
0.000528061
0.000593108
0.0006591
0.000726179
0.000794438
0.000863868
0.000934394
0.00100587
0.00107808
0.00115074
0.00122351
0.00129605
0.00136799
0.00143899
0.0015087
0.00157676
0.00164287
0.00170679
0.00176831
0.00182731
0.00188378
0.00193781
0.00199033
0.0020432
0.0020969
0.00215191
0.00220882
0.00226835
0.00233128
0.00239844
0.00247068
0.00254878
0.000942386
0.00107603
0.00121027
0.00134417
0.00147722
0.00160901
0.00173917
0.00186731
0.00199307
0.00211607
0.00223599
0.00235258
0.00246564
0.00257505
0.00268077
0.00278283
0.00288135
0.00297651
0.00306857
0.00315785
0.00324478
0.00332955
0.0034147
0.00350118
0.00358954
0.00368046
0.00377474
0.00387329
0.00397718
0.00408756
0.00420556
0.00433221
0.00138523
0.00157561
0.0017613
0.00194041
0.00211209
0.00227606
0.00243235
0.00258121
0.00272301
0.00285821
0.00298736
0.00311104
0.00322986
0.00334441
0.00345533
0.00356319
0.0036686
0.00377211
0.00387427
0.00397562
0.00407672
0.0041782
0.00428268
0.00439071
0.00450268
0.00461903
0.00474027
0.00486705
0.00500019
0.00514065
0.00528948
0.00544771
0.00181512
0.00203911
0.00224931
0.00244374
0.00262219
0.00278547
0.00293493
0.00307222
0.00319907
0.0033172
0.00342823
0.00353368
0.00363489
0.0037331
0.00382938
0.00392473
0.00402002
0.00411601
0.00421341
0.00431285
0.00441494
0.00452096
0.00463362
0.0047534
0.00488038
0.0050145
0.00515561
0.00530356
0.00545827
0.00561996
0.00578927
0.00596701
0.00220124
0.00243306
0.00264033
0.00282206
0.00297957
0.00311544
0.00323282
0.00333497
0.00342501
0.00350577
0.00357976
0.00364913
0.00371573
0.00378117
0.00384683
0.00391393
0.00398355
0.00405664
0.00413406
0.00421658
0.00430487
0.00440105
0.00450842
0.00462777
0.00475926
0.00490255
0.00505687
0.00522093
0.00539266
0.00556999
0.00575277
0.00594128
0.00252438
0.0027405
0.00292132
0.00306779
0.00318331
0.00327248
0.00334024
0.00339128
0.00342984
0.0034595
0.00348328
0.00350367
0.00352274
0.00354221
0.00356359
0.00358821
0.00361726
0.00365184
0.003693
0.00374163
0.00379856
0.00386589
0.00394813
0.00404679
0.00416284
0.00429692
0.00444939
0.00462039
0.00480236
0.00498925
0.00517917
0.00537059
0.00277594
0.00295753
0.00309426
0.00318963
0.00324943
0.00328033
0.00328893
0.00328115
0.00326203
0.00323564
0.00320518
0.00317313
0.00314138
0.00311144
0.00308449
0.00306158
0.0030436
0.00303142
0.00302586
0.00302791
0.00303831
0.00305787
0.00309137
0.00314085
0.00320773
0.00329347
0.0033989
0.00352262
0.00367362
0.00384842
0.00402959
0.00420942
0.00295546
0.00308945
0.00317121
0.0032072
0.00320582
0.0031759
0.0031256
0.00306189
0.00299027
0.00291479
0.00283824
0.00276238
0.0026883
0.0026166
0.00254766
0.00248177
0.0024192
0.00236022
0.00230512
0.00225417
0.00220768
0.00216468
0.00212719
0.00209858
0.00208088
0.00207508
0.00208161
0.00210164
0.00214304
0.00221128
0.00231566
0.00243361
0.00306782
0.00314672
0.00316898
0.00314439
0.00308419
0.00299935
0.00289944
0.002792
0.00268229
0.00257344
0.0024669
0.00236301
0.00226149
0.00216186
0.00206366
0.00196658
0.00187053
0.00177549
0.00168151
0.00158879
0.00149771
0.00141047
0.00132061
0.00122712
0.00112952
0.0010276
0.000920796
0.00080933
0.000714014
0.0006364
0.000573468
0.000519108
7.62298e-05
7.14845e-05
7.17228e-05
8.10778e-05
0.000109808
0.000113237
0.000101056
0.000154259
0.000126234
0.000229776
0.000310822
0.000327088
0.000321357
0.000348799
0.000407407
0.000463999
0.000155541
0.000456065
0.000480878
0.000475667
0.000523503
0.000588021
0.000687826
0.000810924
0.000189587
0.000584884
0.000618745
0.000658914
0.000727509
0.00084646
0.00100879
0.00119389
0.000220632
0.000691068
0.00072475
0.000841549
0.000958054
0.00113324
0.00134957
0.00158234
0.000243209
0.000707964
0.000839908
0.00103698
0.00120751
0.00143215
0.00168792
0.00194968
0.000259218
0.000758492
0.000966329
0.0012412
0.00146094
0.00172592
0.00200502
0.00227627
0.000272194
0.000841136
0.00110152
0.00144702
0.00170685
0.00199874
0.0022873
0.0025503
0.000282778
0.00094111
0.00123835
0.00164617
0.0019363
0.00224119
0.00252566
0.00276679
0.000291362
0.00104373
0.00137083
0.0017937
0.00214365
0.00244878
0.00271635
0.00292549
0.00312279
0.0031417
0.0031029
0.0030202
0.0029079
0.002779
0.00264386
0.00250937
0.00237908
0.0022538
0.00213274
0.0020145
0.00189793
0.00178251
0.00166856
0.00155711
0.00144948
0.00134744
0.00125256
0.00116589
0.00108953
0.00101796
0.000943479
0.000862758
0.000774881
0.000689246
0.000607379
0.000529893
0.000456658
0.000370182
0.000260386
0.000134316
0.00312406
0.00308647
0.00299307
0.00286281
0.00271284
0.00255713
0.00240491
0.00226036
0.00212357
0.0019924
0.00186442
0.0017382
0.00161412
0.00149419
0.00138179
0.0012807
0.00119443
0.00112549
0.00107475
0.00103762
0.00100186
0.000962554
0.000917656
0.000866318
0.000807952
0.000741553
0.000665657
0.000499071
0.000360024
0.000271324
0.000217121
0.000120926
0.00308562
0.00299774
0.00286062
0.00269674
0.00252519
0.00235884
0.00220361
0.00205975
0.00192467
0.00179597
0.00167368
0.00156091
0.0014631
0.0013864
0.00133523
0.00131034
0.00130795
0.00131767
0.00132639
0.0013198
0.00129778
0.00125989
0.00120566
0.00113489
0.00104787
0.000945488
0.000829043
0.000641682
0.000462604
0.000335721
0.000247671
0.000107312
0.00302064
0.00289107
0.00272227
0.00253895
0.00235967
0.00219414
0.00204427
0.00190804
0.00178403
0.00167438
0.00158536
0.00152511
0.00149976
0.00151018
0.00154949
0.00160312
0.00165308
0.00168673
0.00169411
0.00168127
0.00164823
0.00159493
0.00152108
0.0014262
0.00131009
0.00117328
0.00100792
0.000784422
0.000585378
0.000419811
0.000276008
0.000110293
0.00294053
0.00277908
0.00259034
0.0023995
0.00222234
0.00206458
0.00192598
0.00180641
0.00170998
0.00164526
0.00162119
0.00164176
0.00170208
0.00178689
0.00187621
0.00195314
0.00200674
0.00203495
0.00203652
0.00201694
0.00197591
0.00191266
0.0018259
0.00171408
0.00157598
0.00141118
0.00121205
0.000965793
0.000731727
0.000518005
0.000321038
0.000124358
0.00285447
0.00267099
0.0024726
0.00228298
0.00211407
0.00196898
0.00184919
0.00176022
0.00171222
0.00171443
0.00176874
0.00186506
0.0019834
0.00210133
0.0022019
0.00227769
0.00232727
0.002352
0.00235154
0.00232899
0.00228391
0.00221482
0.00211945
0.00199545
0.00184047
0.00165277
0.0014088
0.00114418
0.000881798
0.000623454
0.000369639
0.000144313
0.00276946
0.00257292
0.00237303
0.00219041
0.00203376
0.00190679
0.00181621
0.00177342
0.00178884
0.00186365
0.001985
0.00212997
0.00227385
0.00239962
0.00249959
0.00257286
0.00262085
0.00264477
0.00264368
0.00261977
0.00257224
0.00249879
0.00239679
0.00226324
0.00209489
0.00188862
0.00159905
0.00131408
0.0010282
0.000717695
0.000404569
0.000153813
0.00269048
0.00248851
0.00229298
0.00212101
0.00198016
0.00187815
0.00182777
0.00184191
0.0019235
0.00205985
0.00222577
0.00239466
0.00254682
0.00267311
0.00277192
0.00284467
0.00289276
0.00291655
0.0029152
0.00289032
0.00284017
0.00276245
0.00265434
0.00251244
0.00233281
0.0021112
0.00178202
0.00147456
0.00116757
0.00080408
0.000440893
0.000158483
0.00262081
0.00241942
0.00223213
0.00207324
0.00195205
0.00188221
0.00188007
0.00195352
0.002093
0.00227337
0.00246495
0.00264424
0.00279873
0.00292509
0.00302427
0.00309785
0.00314653
0.0031703
0.00316867
0.00314185
0.00308819
0.00300542
0.00289073
0.00274062
0.00255073
0.00231601
0.00195932
0.00162785
0.00130029
0.000890133
0.000477838
0.000162624
0.00256229
0.00236593
0.00218925
0.00204537
0.00194786
0.001916
0.00196502
0.00209282
0.00227742
0.00248686
0.00269243
0.00287654
0.00303254
0.00316018
0.00326105
0.00333621
0.00338598
0.00340939
0.0034064
0.0033765
0.00331807
0.00322903
0.00310676
0.00294791
0.00274805
0.00250162
0.0021309
0.00177599
0.0014276
0.00097393
0.000514771
0.000166332
0.00251569
0.00232738
0.00216264
0.00203549
0.00196518
0.00197435
0.00207262
0.00224629
0.00246423
0.00269248
0.00290628
0.00309373
0.00325204
0.0033822
0.00348556
0.00356271
0.00361391
0.00363652
0.00363117
0.00359696
0.00353238
0.00343566
0.00330457
0.0031361
0.002926
0.00266854
0.00229471
0.00191938
0.00154685
0.00105419
0.000551214
0.000169679
0.00248093
0.00230254
0.00215044
0.00204147
0.00200074
0.00205115
0.00219388
0.0024047
0.00264696
0.00288795
0.00310781
0.00329892
0.00346065
0.00359426
0.00370064
0.00378035
0.00383266
0.00385422
0.00384561
0.00380588
0.00373379
0.00362799
0.00348673
0.00330752
0.0030865
0.00281811
0.00244743
0.00205716
0.00165204
0.00113014
0.000586829
0.000172721
0.00245738
0.00228992
0.00215075
0.00206103
0.0020509
0.00214067
0.00232212
0.00256257
0.00282302
0.00307368
0.00329919
0.00349495
0.00366114
0.00379889
0.00390919
0.00399178
0.00404475
0.00406467
0.00405185
0.00400547
0.00392459
0.00380833
0.00365556
0.00346436
0.00323152
0.00295195
0.00258537
0.00218758
0.0017482
0.00120144
0.000621384
0.000175503
0.00244402
0.00228784
0.00216167
0.00209184
0.00211214
0.00223825
0.00245287
0.00271721
0.00299204
0.00325111
0.00348267
0.00368405
0.00385557
0.00399846
0.00411335
0.00419856
0.00425175
0.00426931
0.00425137
0.00419725
0.00410638
0.0039784
0.00381276
0.00360833
0.00336271
0.00307157
0.00270602
0.00230826
0.00183553
0.00126795
0.00065473
0.00017806
0.00243957
0.00229438
0.00218116
0.00213164
0.0021814
0.00234049
0.00258349
0.00286759
0.00315471
0.00342198
0.00366034
0.00386811
0.00404593
0.00419474
0.00431407
0.00440156
0.00445439
0.00446882
0.00444485
0.004382
0.00428006
0.00413916
0.00395943
0.00374059
0.00348129
0.0031782
0.00280852
0.00240893
0.00191444
0.0013297
0.000686767
0.000180424
0.00244233
0.00215988
0.00213835
0.00217816
0.00225626
0.00244507
0.00271258
0.00301368
0.00331207
0.00358787
0.00383389
0.00404896
0.00423356
0.0043882
0.00451164
0.00460089
0.00465267
0.00466317
0.00463231
0.00455981
0.00444582
0.00429094
0.00409604
0.00386179
0.00358805
0.00327274
0.0028925
0.00248796
0.00198553
0.00138679
0.000717433
0.000182617
0.00232308
0.00205278
0.00206651
0.00222953
0.00233481
0.00255045
0.0028395
0.00315578
0.00346508
0.00374989
0.00400427
0.00422712
0.00441858
0.0045787
0.0047057
0.00479602
0.00484596
0.00485169
0.00481313
0.0047302
0.00460332
0.00443359
0.00422258
0.0039721
0.00368344
0.00331496
0.00295643
0.00255793
0.00204945
0.00143939
0.000746692
0.000184662
0.00220037
0.00197723
0.00201544
0.00223156
0.00241552
0.00265548
0.00296379
0.00329412
0.00361427
0.00390856
0.00417173
0.00440249
0.00460051
0.00476552
0.00489532
0.00498587
0.00503309
0.00503325
0.0049863
0.00489227
0.00475184
0.00456651
0.00433868
0.0040714
0.00370194
0.00332157
0.00299868
0.00261972
0.00210675
0.00148769
0.000774527
0.000186577
0.00210998
0.00192352
0.00197962
0.00219829
0.00249666
0.00275875
0.00308453
0.00342822
0.0037594
0.00406358
0.00433579
0.00457428
0.00477832
0.00494743
0.00507911
0.00516894
0.00521255
0.00520641
0.00515047
0.00504486
0.00489037
0.0046889
0.0044437
0.0040729
0.00364728
0.00330773
0.00301824
0.00267413
0.00215794
0.00153188
0.000800937
0.000188379
0.00204333
0.00188513
0.00195476
0.00217448
0.00246842
0.00278889
0.00313738
0.00352067
0.00389901
0.0042136
0.00449517
0.00474114
0.00495051
0.00512277
0.00525532
0.00534344
0.00538258
0.0053695
0.00530415
0.00518663
0.00501776
0.00479979
0.00444604
0.00396651
0.00358133
0.00327533
0.00301686
0.00272186
0.0022035
0.0015722
0.000825933
0.000190083
0.00199405
0.00185694
0.00193648
0.00215676
0.00243973
0.00274385
0.00307162
0.00343317
0.00383416
0.00427482
0.00464783
0.0049011
0.00511511
0.00528958
0.00542197
0.00550743
0.00554133
0.00552081
0.00544578
0.00531622
0.00513285
0.00482642
0.00430199
0.00386011
0.00350692
0.00322797
0.0029993
0.00275812
0.00224386
0.00160885
0.000849539
0.000191701
0.00195768
0.00183646
0.00192261
0.00214093
0.00241256
0.00270004
0.00300963
0.0033534
0.00373619
0.00415882
0.00461488
0.00505174
0.00526978
0.00544563
0.00557694
0.00565891
0.00568692
0.00565863
0.00557385
0.0054323
0.00519773
0.00465761
0.00416569
0.003755
0.0034258
0.00317171
0.00297024
0.00275933
0.00227946
0.00164207
0.000871785
0.000193247
0.00193108
0.00182224
0.00191229
0.00212615
0.00238637
0.00265971
0.00295466
0.00328433
0.00365321
0.00405946
0.0044982
0.00495833
0.00539569
0.00558847
0.005718
0.00579582
0.00581752
0.00578133
0.00568693
0.00552244
0.00501485
0.00449904
0.00403698
0.00364903
0.00334295
0.00311058
0.00293331
0.00275164
0.00231094
0.00167209
0.00089271
0.000194732
0.00191216
0.00181305
0.00190491
0.0021129
0.00236229
0.0026237
0.00290648
0.00322386
0.00358065
0.00397522
0.00440023
0.00483956
0.00526737
0.00564688
0.00584277
0.00591603
0.00593134
0.00588742
0.00574932
0.00533028
0.0048393
0.00435126
0.00391038
0.00354647
0.00326157
0.003048
0.00289134
0.0027372
0.00233872
0.00169911
0.000912351
0.000196166
0.00189958
0.00180794
0.00189998
0.00210152
0.00234118
0.00259257
0.00286527
0.00317212
0.00351773
0.00390062
0.00431309
0.0047366
0.00513802
0.00549667
0.00577882
0.00594715
0.0059675
0.00582955
0.00554574
0.00514143
0.00467648
0.00420795
0.0037914
0.00345009
0.00318398
0.00298657
0.00284702
0.00271747
0.00236316
0.00172331
0.000930742
0.000197561
0.00189244
0.00180626
0.00189722
0.00209222
0.00232339
0.00256656
0.00283112
0.00312939
0.00346565
0.00383794
0.00423792
0.00464634
0.00502772
0.00535563
0.00560841
0.00575263
0.00576213
0.00562827
0.00535566
0.00497248
0.00452437
0.0040779
0.00368355
0.00336163
0.00311195
0.00292826
0.00280262
0.00269433
0.00238454
0.00174485
0.000947912
0.000198927
0.00189009
0.00180759
0.00189653
0.0020852
0.00230917
0.00254583
0.00280418
0.00309611
0.00342573
0.00379077
0.004182
0.00457902
0.00494626
0.00525524
0.00548403
0.00560685
0.00560539
0.00547089
0.00520433
0.00482844
0.00439397
0.00396492
0.00358782
0.00328195
0.00304637
0.00287426
0.00275974
0.00266928
0.0024031
0.00176384
0.000963877
0.000200273
0.00189205
0.00181162
0.00189791
0.00208067
0.00229875
0.00253064
0.00278484
0.00307294
0.00339919
0.00376132
0.00414939
0.00454162
0.00490178
0.00520129
0.00541793
0.00552766
0.00551266
0.00536545
0.00509026
0.00471288
0.00428531
0.0038676
0.00350356
0.00321092
0.00298745
0.00282522
0.00271949
0.00264349
0.00241903
0.00178041
0.000978646
0.000201611
0.00189798
0.00181817
0.00190139
0.00207881
0.00229233
0.0025212
0.00277338
0.00306029
0.00338646
0.00374974
0.0041395
0.00453219
0.00488988
0.00518304
0.00538929
0.00548516
0.00545356
0.00528925
0.0050007
0.00461784
0.0041929
0.0037831
0.00342951
0.00314808
0.00293519
0.0027815
0.00268264
0.00261799
0.00243246
0.00179462
0.000992207
0.00020295
0.00190757
0.00182719
0.00190704
0.00207973
0.00229001
0.00251758
0.0027698
0.00305797
0.00338695
0.00375461
0.00414928
0.0045451
0.00490159
0.00518769
0.00538127
0.00546037
0.0054099
0.00522742
0.00492515
0.00453624
0.00411282
0.00370959
0.00336498
0.0030933
0.00288966
0.00274331
0.00264969
0.00259365
0.00244347
0.00180654
0.00100453
0.000204302
0.00192073
0.00183871
0.0019149
0.0020835
0.00229179
0.00251968
0.00277383
0.0030654
0.00339956
0.00377398
0.0041755
0.00457539
0.00492999
0.00520685
0.00538501
0.00544511
0.00537482
0.0051746
0.00485987
0.00446584
0.00404407
0.00364684
0.00331015
0.00304688
0.00285112
0.00271084
0.00262101
0.00257119
0.0024521
0.00181621
0.00101556
0.000205679
0.00193742
0.00185277
0.00192508
0.00209019
0.00229764
0.00252735
0.00278514
0.00308194
0.00342317
0.00380614
0.00421563
0.00461958
0.00497077
0.00523586
0.00539625
0.00543621
0.00534652
0.00513026
0.00480512
0.00440739
0.00398767
0.00359588
0.00326593
0.0030095
0.00281999
0.00268436
0.00259711
0.00255112
0.00244266
0.00182362
0.00102522
0.000207092
0.0019575
0.00186969
0.00193807
0.00210027
0.00230792
0.00254083
0.00280378
0.00310725
0.00345677
0.00384922
0.00426743
0.00467518
0.0050213
0.00527234
0.00541345
0.00543351
0.00532626
0.00509671
0.00476365
0.00436354
0.00394582
0.00355843
0.00323356
0.00298202
0.0027968
0.00266419
0.00257816
0.00253375
0.00243142
0.0018289
0.00103334
0.000208557
0.00198069
0.00188921
0.0019539
0.00211406
0.00232297
0.00256017
0.00282934
0.00314059
0.00349961
0.00390291
0.00433075
0.00474208
0.00508155
0.00531684
0.00543873
0.00544121
0.00532006
0.00508067
0.00474172
0.00433929
0.00392202
0.00353659
0.00321414
0.00296501
0.002782
0.00265071
0.00256438
0.00251922
0.00242089
0.00183203
0.00103988
0.000210089
0.00200695
0.00191133
0.00197252
0.00213142
0.00234259
0.00258514
0.00286166
0.003182
0.00355231
0.00396873
0.00440858
0.004825
0.00515801
0.00537841
0.00548437
0.00547346
0.00534303
0.00509587
0.00474995
0.00434171
0.00392044
0.00353257
0.0032087
0.00295892
0.00277583
0.00264417
0.00255607
0.00250813
0.00241132
0.00183312
0.00104557
0.000211618
0.0020363
0.00193605
0.00199386
0.00215216
0.00236654
0.0026156
0.00290089
0.00323231
0.00361703
0.00405145
0.00450995
0.00493799
0.00527213
0.00548729
0.00558624
0.00556299
0.00542132
0.00516093
0.00480037
0.00437726
0.00394391
0.00354739
0.00321758
0.00296394
0.00277845
0.00264473
0.00255337
0.00250073
0.00240331
0.0018324
0.00105047
0.000213125
0.00206858
0.00196335
0.00201785
0.00217613
0.00239465
0.00265151
0.00294739
0.00329278
0.00369693
0.00415783
0.00464573
0.00509844
0.00545834
0.00569041
0.00579097
0.00575411
0.00557979
0.0052846
0.0048951
0.00444623
0.0039918
0.00358025
0.00324037
0.00298007
0.00279009
0.00265264
0.00255645
0.00249712
0.00239692
0.00182974
0.00105449
0.000214608
0.00210354
0.00199319
0.0020444
0.00220313
0.00242669
0.00269268
0.00300116
0.00336393
0.00379369
0.00428924
0.00481325
0.00530922
0.00570743
0.00592975
0.00599259
0.00600826
0.00579888
0.00545252
0.00501814
0.00453926
0.00406044
0.00362994
0.00327695
0.00300776
0.00281137
0.00266844
0.00256562
0.00249739
0.00239207
0.00182492
0.00105751
0.000216064
0.00214085
0.00202547
0.00207338
0.00223292
0.00246228
0.00273852
0.00306129
0.00344447
0.0039043
0.00443588
0.00500815
0.00554786
0.00572935
0.005836
0.00589291
0.00590417
0.00586893
0.00564843
0.00516463
0.00464769
0.00414692
0.00369748
0.00332904
0.0030485
0.00284346
0.00269294
0.00258133
0.00250163
0.00238862
0.00181768
0.0010594
0.000217492
0.00217996
0.00205995
0.00210461
0.00226517
0.00250078
0.00278795
0.00312595
0.00353122
0.00402186
0.00459765
0.00521477
0.00547339
0.00562447
0.00572375
0.00577475
0.0057809
0.00574349
0.0056636
0.0053487
0.00478693
0.0042547
0.00378638
0.00340049
0.00310507
0.00288804
0.00272711
0.00260394
0.00250982
0.0023863
0.00180773
0.00106
0.000218889
0.00222004
0.00209623
0.00213777
0.00229945
0.00254149
0.00283972
0.00319319
0.00362203
0.00414703
0.00476939
0.00517004
0.00536265
0.00550312
0.00559422
0.00563921
0.00564088
0.00560103
0.00552239
0.00540684
0.00498366
0.00440086
0.00390165
0.00349537
0.00318094
0.00294726
0.00277188
0.00263359
0.00252182
0.00238445
0.00179471
0.0010591
0.000220251
0.00225987
0.00213364
0.00217243
0.00233526
0.00258367
0.00289282
0.00326274
0.00371809
0.00428397
0.00483026
0.00505906
0.00523776
0.00536719
0.00544974
0.00548844
0.00548614
0.00544468
0.00536766
0.00525828
0.005119
0.00461158
0.00405544
0.00361695
0.00327883
0.00302321
0.00282795
0.00267011
0.00253694
0.00238118
0.00177819
0.00105646
0.000221571
0.00229774
0.0021712
0.00220796
0.00237206
0.00262657
0.00294638
0.00333424
0.00381742
0.00444145
0.00472475
0.00493608
0.00510059
0.00521879
0.00529277
0.00532538
0.00531962
0.00527763
0.00520326
0.00510057
0.00497297
0.00482273
0.00427297
0.00377379
0.00340026
0.00311676
0.00289541
0.00271297
0.00255383
0.00235613
0.0017577
0.0010518
0.00022284
0.00233138
0.00220744
0.00224343
0.00240904
0.00266939
0.00300013
0.00340507
0.00393067
0.0043746
0.00460943
0.00480304
0.00495322
0.00506027
0.00512602
0.0051532
0.0051449
0.00510358
0.00503328
0.00493827
0.00482245
0.00468844
0.00453649
0.00398582
0.00355067
0.0032275
0.00297292
0.00276027
0.00257023
0.00232384
0.00173281
0.00104478
0.000224048
0.00235798
0.00224032
0.00227742
0.00244509
0.00271127
0.00304893
0.00347644
0.0040276
0.00427308
0.00448645
0.00466219
0.00479811
0.00489433
0.00495253
0.00497532
0.00496581
0.00492666
0.00486199
0.00477595
0.00467233
0.00455362
0.00441969
0.00423873
0.00374182
0.00335701
0.00305779
0.00280872
0.00258268
0.00228532
0.00170289
0.00103502
0.000225182
0.00237398
0.00226705
0.00230782
0.00247904
0.00274792
0.00309348
0.003558
0.00394691
0.0041668
0.00435838
0.0045162
0.0046381
0.00472412
0.00477575
0.0047955
0.00478641
0.00475116
0.00469373
0.00461793
0.00452701
0.00442281
0.00430453
0.00416732
0.00395003
0.0035055
0.00314692
0.00285357
0.00258642
0.00223952
0.00166716
0.00102207
0.000226224
0.00237543
0.00228378
0.00233181
0.0025083
0.00277069
0.00314002
0.0036458
0.00386369
0.00405826
0.00422807
0.00436819
0.00447661
0.0045533
0.00459962
0.00461786
0.00461093
0.00458132
0.00453263
0.004468
0.00438989
0.00429922
0.00419429
0.00406963
0.00391519
0.00364443
0.00323223
0.00288845
0.00257566
0.00218521
0.00162468
0.00100542
0.000227151
0.00235751
0.00228584
0.00234515
0.00251456
0.00279251
0.00318518
0.00359734
0.00378073
0.00395033
0.00409878
0.00422179
0.00431759
0.00438611
0.00442852
0.00444685
0.00444371
0.00442119
0.00438223
0.00432908
0.00426315
0.00418435
0.00409009
0.0039744
0.00382706
0.00363376
0.00328992
0.00290177
0.0025438
0.00212089
0.00157441
0.000984492
0.000227936
0.00231564
0.00226759
0.00233308
0.00251364
0.00280774
0.00322208
0.003543
0.00370043
0.00384612
0.00397419
0.00408117
0.00416554
0.00422722
0.00426714
0.00428698
0.00428887
0.00427423
0.00424513
0.00420272
0.00414732
0.0040778
0.0039909
0.00388032
0.00373599
0.00354407
0.00328849
0.00287526
0.00248399
0.00204479
0.00151515
0.00095867
0.000228538
0.00224588
0.00221917
0.00230132
0.00249676
0.00280774
0.00324035
0.00349182
0.00362532
0.00374891
0.00385828
0.00395079
0.00402522
0.00408144
0.00412008
0.00414235
0.00414968
0.00414262
0.00412222
0.0040885
0.00404072
0.00397693
0.00389339
0.00378373
0.00363828
0.00344403
0.00318615
0.00279646
0.0023925
0.00195482
0.00144559
0.000927269
0.000228901
0.00214458
0.00214033
0.00224127
0.00245162
0.00277816
0.00322183
0.00344534
0.0035578
0.00366193
0.00375491
0.00383491
0.00390097
0.00395285
0.00399084
0.00401554
0.0040272
0.00402608
0.00401169
0.00398311
0.0039388
0.00387629
0.00379158
0.00367846
0.00352786
0.00332787
0.0030651
0.00266741
0.00227168
0.00184865
0.00136437
0.000889546
0.000228941
0.0020128
0.00202812
0.00214433
0.00236572
0.00269827
0.00313555
0.00340441
0.00349955
0.00358753
0.00366685
0.00373634
0.00379527
0.00384324
0.00388013
0.00390586
0.00391963
0.00392071
0.00390779
0.00387929
0.00383324
0.0037669
0.00367626
0.00355542
0.00339608
0.00318768
0.00289893
0.00250133
0.00213077
0.00172371
0.0012702
0.000844682
0.000228529
0.00185409
0.00188327
0.00200957
0.00223413
0.00255483
0.00295662
0.00336792
0.00344997
0.00352531
0.00359353
0.00365402
0.00370615
0.00374934
0.00378303
0.00380653
0.00381807
0.00381595
0.00379857
0.00376418
0.00371069
0.00363535
0.0035343
0.0034021
0.00323135
0.0030131
0.00267287
0.0023163
0.00197725
0.00157745
0.00116208
0.000791755
0.000227457
0.00167491
0.00171388
0.00184661
0.00206769
0.00236652
0.00271388
0.00306658
0.00336293
0.00346871
0.00352759
0.00357927
0.00362321
0.00365873
0.00368501
0.00370097
0.00370409
0.00369222
0.00366395
0.00361768
0.00355145
0.00346266
0.00334776
0.00320189
0.00301881
0.00277408
0.00243647
0.00212462
0.00180244
0.00140792
0.00103972
0.000729679
0.000225383
0.00148166
0.00153141
0.00167134
0.00188766
0.00216464
0.00246786
0.00275677
0.00300527
0.00317979
0.00327788
0.00333432
0.00338648
0.00344855
0.00352499
0.00355758
0.00354585
0.00351813
0.00347346
0.0034106
0.00332787
0.00322297
0.00309286
0.00293356
0.00274023
0.00248531
0.00219676
0.00191301
0.00156597
0.00121495
0.000904182
0.000642425
0.00022172
0.00128613
0.00135295
0.00150438
0.001721
0.00198375
0.00225809
0.00250735
0.0027156
0.00288127
0.00301153
0.00311247
0.00319673
0.00327594
0.00334683
0.00332873
0.00329652
0.0032485
0.00318416
0.00310263
0.00300262
0.00288241
0.00273972
0.00257174
0.00237529
0.00214734
0.00188689
0.00159813
0.0012944
0.00100233
0.000758305
0.000509447
0.000190243
0.00107406
0.00117683
0.00134514
0.00156439
0.00181579
0.00207777
0.00233233
0.00256575
0.00277208
0.00294614
0.00306698
0.0030476
0.00302029
0.00298582
0.00294361
0.00288889
0.00282027
0.00273766
0.00264065
0.00252854
0.00240038
0.00225493
0.00209079
0.00190656
0.00170146
0.00147662
0.00123751
0.000996873
0.000777587
0.000601258
0.000399024
0.000151139
0.000925344
0.00106783
0.00122925
0.0014342
0.00166236
0.00189838
0.00214031
0.00238953
0.00259982
0.00256026
0.00251553
0.0024664
0.00241392
0.00235854
0.00229987
0.00223136
0.00215251
0.00206392
0.0019659
0.00185854
0.00174176
0.00161541
0.00147926
0.00133328
0.00117799
0.00101535
0.000850269
0.000691613
0.000553748
0.000409868
0.000317989
0.000167517
0.000585143
0.000941214
0.00119831
0.00147158
0.0017119
0.00178342
0.00172016
0.00166229
0.00160873
0.00155619
0.00150505
0.00145537
0.00140705
0.00135986
0.00131317
0.00125904
0.00119957
0.00113629
0.00107006
0.00100136
0.000930487
0.000857632
0.000782931
0.000706606
0.000629158
0.000551622
0.000476097
0.000406036
0.000322653
0.000242712
0.000241829
0.000160833
0.000361007
0.000338776
0.000347401
0.0003354
0.000324951
0.000315092
0.000305642
0.000296777
0.000288476
0.000280636
0.000273176
0.000266025
0.000259127
0.000252428
0.000245847
0.000239714
0.00023392
0.000228342
0.000222877
0.000217436
0.000211933
0.000206281
0.000200382
0.000194125
0.000187363
0.0001799
0.000171454
0.000128727
9.17137e-05
9.14939e-05
0.000105774
8.07383e-05
0.000298808
0.0011558
0.00150631
0.00193682
0.00232011
0.00262766
0.00286661
0.00303305
0.000305008
0.00127348
0.00164242
0.00207555
0.00245055
0.00275984
0.00297011
0.00308887
0.000310264
0.00139835
0.00178108
0.00221442
0.00257951
0.00287051
0.00303284
0.00310271
0.000314644
0.00149832
0.00192541
0.00236146
0.00271564
0.00294178
0.00306227
0.0030849
0.000318123
0.0015479
0.00208088
0.0025221
0.00280277
0.00298637
0.00306584
0.00304504
0.000320817
0.00158843
0.00222049
0.00259843
0.00285855
0.0030094
0.0030504
0.00299139
0.0003228
0.00161991
0.00228293
0.00265743
0.0028962
0.00301569
0.00302196
0.00293078
0.000324139
0.00164308
0.00233193
0.00270151
0.00291909
0.00300957
0.00298557
0.00286854
0.000324897
0.00165877
0.00236912
0.00273292
0.0029303
0.00299478
0.00294534
0.00280872
0.000325139
0.00166785
0.00239606
0.00275381
0.00293257
0.00297444
0.00290444
0.00275413
0.000324925
0.0016712
0.00241418
0.0027661
0.00292823
0.00295106
0.00286525
0.00270662
0.000324315
0.00166961
0.00242484
0.0027715
0.00291925
0.00292657
0.00282943
0.00266719
0.000323364
0.00166385
0.00242923
0.00277146
0.00290718
0.00290245
0.00279804
0.00263618
0.000322121
0.00165461
0.00242842
0.00276723
0.00289328
0.00287971
0.00277167
0.00261344
0.000320633
0.0016425
0.00242333
0.00275981
0.00287848
0.00285904
0.00275049
0.00259846
0.000318939
0.00162807
0.00241477
0.00275004
0.00286349
0.00284083
0.0027344
0.00259043
0.000317076