/*--------------------------------*- C++ -*----------------------------------*\
| =========                 |                                                 |
| \\      /  F ield         | OpenFOAM: The Open Source CFD Toolbox           |
|  \\    /   O peration     | Version:  v2012                                 |
|   \\  /    A nd           | Website:  www.openfoam.com                      |
|    \\/     M anipulation  |                                                 |
\*---------------------------------------------------------------------------*/
FoamFile
{
    version     2.0;
    format      ascii;
    class       volScalarField;
    location    "734";
    object      omega;
}
// * * * * * * * * * * * * * * * * * * * * * * * * * * * * * * * * * * * * * //

dimensions      [0 0 -1 0 0 0 0];


internalField   nonuniform List<scalar> 
6024
(
94.9959
98.5388
102.436
106.734
111.492
116.785
122.706
129.378
136.955
145.649
155.752
167.668
181.978
199.544
221.691
250.552
289.739
345.75
431.122
572.102
42.1645
43.9621
45.9321
48.1016
50.5034
53.1782
56.1766
59.5617
63.4087
67.8218
72.9361
78.9291
86.0373
94.5795
104.986
117.832
133.854
153.853
178.157
204.371
32.9987
34.4875
36.1211
37.9219
39.9172
42.1404
44.6327
47.4454
50.6428
54.3063
58.5418
63.4874
69.3261
76.3043
84.7593
95.1641
108.202
124.904
146.953
177.489
30.0095
31.3979
32.9238
34.6083
36.4768
38.5608
40.8989
43.5395
46.5439
49.9901
53.9797
58.6468
64.1719
70.8039
78.8948
88.9584
101.776
118.593
141.516
174.374
28.9771
30.3281
31.8159
33.4606
35.2871
37.326
39.6156
42.2039
45.1518
48.5378
52.4648
57.0697
62.5392
69.134
77.2284
87.3776
100.435
117.764
141.621
175.852
29.0055
30.3467
31.8282
33.4689
35.2928
37.33
39.6184
42.2058
45.1532
48.5388
52.4654
57.0701
62.5395
69.1342
77.2285
87.3777
100.435
117.764
141.621
175.852
30.113
31.4646
32.9677
34.6378
36.497
38.5748
40.9087
43.5465
46.5487
49.9933
53.9818
58.6481
64.1728
70.8045
78.8951
88.9586
101.776
118.593
141.516
174.374
33.2548
34.6455
36.2232
37.9901
39.9641
42.1733
44.6559
47.4614
50.6534
54.3133
58.5463
63.4904
69.3282
76.3057
84.7602
95.1648
108.202
124.904
146.953
177.489
42.804
44.3199
46.1573
48.2503
50.6066
53.2514
56.2279
59.595
63.4305
67.8363
72.9457
78.9355
86.0416
94.5824
104.988
117.834
133.855
153.854
178.158
204.371
94.1708
97.9885
102.065
106.487
111.331
116.681
122.64
129.333
136.924
145.628
155.737
167.657
181.971
199.54
221.689
250.551
289.738
345.749
431.122
572.102
35.9902
38.2697
40.352
42.2878
44.1102
45.8419
47.4998
49.0969
50.644
52.1501
53.6234
55.0713
56.5011
57.9199
59.3351
60.7545
62.1866
63.6411
65.1289
66.6626
68.2569
69.9288
71.6522
73.4224
75.2557
77.1708
79.1891
81.335
83.6356
86.1204
88.8205
91.7681
26.634
26.6108
26.533
26.4283
26.3129
26.1984
26.0939
26.0077
25.947
25.9181
25.9266
25.9774
26.0744
26.2211
26.421
26.6778
26.995
27.3764
27.8262
28.3492
28.9503
29.6349
30.3892
31.2006
32.0742
33.0162
34.0333
35.1325
36.3216
37.6088
39.0036
40.5175
21.8216
21.3438
20.8836
20.4639
20.0964
19.7869
19.5384
19.352
19.2279
19.1654
19.1629
19.2188
19.3309
19.4973
19.7162
19.9862
20.3062
20.6759
21.0952
21.5647
22.0858
22.6609
23.2818
23.9501
24.67
25.4464
26.2848
27.1911
28.1717
29.2337
30.3853
31.6363
18.9186
18.3818
17.8987
17.4857
17.1491
16.8895
16.705
16.5925
16.5477
16.5662
16.6433
16.7746
16.9559
17.1835
17.4543
17.7657
18.1161
18.5043
18.93
19.3936
19.8962
20.4392
21.0195
21.6404
22.3062
23.0222
23.7943
24.6288
25.5327
26.5138
27.5802
28.7416
17.045
16.5649
16.1541
15.8236
15.5752
15.4066
15.3135
15.2905
15.3319
15.4321
15.5853
15.7863
16.0306
16.3141
16.6335
16.9863
17.3706
17.7855
18.2307
18.7064
19.214
19.7537
20.3239
20.928
21.5704
22.257
22.9946
23.7912
24.6554
25.5965
26.6236
27.7467
15.791
15.4006
15.0849
14.8507
14.6976
14.6218
14.6183
14.6813
14.805
14.9835
15.2111
15.4826
15.7931
16.1386
16.5159
16.9225
17.3565
17.817
18.3036
18.8166
19.3567
19.9233
20.5128
21.1278
21.7715
22.4493
23.1683
23.9381
24.7717
25.684
26.6861
27.7895
14.9287
14.6331
14.4133
14.2732
14.2113
14.2242
14.3074
14.4558
14.6643
14.9273
15.2393
15.5951
15.9897
16.4187
16.8787
17.3669
17.8816
18.422
18.9882
19.5805
20.1994
20.844
21.5085
22.1928
22.8967
23.6204
24.3641
25.1287
25.9427
26.8301
27.809
28.8984
14.3197
14.1121
13.9803
13.9263
13.9489
14.0459
14.2145
14.4514
14.7524
15.1127
15.5267
15.9886
16.4926
17.0334
17.6067
18.2092
18.8389
19.4952
20.1792
20.8963
21.651
22.4477
23.2781
24.1466
25.0543
26.0009
26.9826
28.0087
28.9976
29.9332
30.9195
32.0163
13.8739
13.7409
13.6832
13.7022
13.7983
13.9717
14.2224
14.5497
14.9516
15.4245
15.9636
16.5635
17.2187
17.9243
18.6762
19.4713
20.3078
21.1849
22.1032
23.0662
24.08
25.1588
26.3007
27.5412
28.9064
30.4177
32.1061
33.9888
36.0237
38.0162
39.6517
41.1708
13.5296
13.4542
13.4531
13.5283
13.6826
13.9199
14.2434
14.6551
15.1543
15.7379
16.401
17.1387
17.9468
18.8233
19.7686
20.7858
21.8806
23.0597
24.3298
25.6975
27.1678
28.7825
30.6585
32.8603
35.456
38.512
42.0623
46.0967
51.4404
58.5339
67.7449
79.6621
15.116
14.175
14.2223
16.0773
21.7743
26.5638
30.3257
33.4093
16.0202
10.6652
13.3621
19.2892
23.3347
25.3374
26.1497
26.5122
19.7395
12.8245
16.4148
20.1051
21.986
22.5757
22.538
22.2507
24.0602
15.0915
17.4459
19.3745
20.1675
20.2238
19.929
19.4633
28.0002
16.4362
17.5669
18.3485
18.5742
18.415
18.0461
17.5622
30.8653
17.1602
17.3182
17.438
17.3117
17.0534
16.6763
16.2333
32.8969
17.4862
16.9365
16.6748
16.3619
16.0286
15.667
15.285
34.5438
17.5496
16.5266
16.0451
15.6381
15.2634
14.9135
14.5937
35.887
17.4741
16.1354
15.5267
15.0748
14.6849
14.3477
14.0773
36.9763
17.3459
15.7809
15.0973
14.6243
14.2349
13.9168
13.68
13.2316
13.1955
13.2322
13.3441
13.5364
13.8148
14.1825
14.6375
15.1713
15.7698
16.415
17.0873
17.7676
18.4398
19.0873
19.6943
20.2484
20.7336
21.1339
21.4357
21.796
22.2566
22.7757
23.3015
23.7862
24.3812
25.137
26.125
27.3788
28.71
29.6479
28.0595
12.9651
12.9404
12.9885
13.1074
13.3013
13.5718
13.9119
14.3022
14.7119
15.1018
15.4302
15.6605
15.7611
15.7119
15.504
15.1481
14.6739
14.1346
13.602
13.2571
13.0517
12.9469
12.9291
12.998
13.169
13.4733
13.9236
14.5181
15.2404
15.9249
16.2259
15.3466
12.6993
12.6641
12.694
12.786
12.9367
13.1344
13.3509
13.541
13.6494
13.6235
13.4241
13.0332
12.461
11.7464
10.9615
10.1947
9.52721
9.03444
8.76098
8.68371
8.72126
8.8507
9.06654
9.37156
9.77465
10.2915
10.9449
11.7628
12.78
13.9619
15.149
15.9592
12.4147
12.3493
12.3366
12.3692
12.4319
12.4922
12.4982
12.3878
12.1085
11.6348
10.978
10.1874
9.34781
8.55305
7.88371
7.392
7.0978
6.98098
7.0195
7.13844
7.32174
7.56458
7.8683
8.23914
8.6887
9.23625
9.91344
10.7687
11.8704
13.2927
15.1067
17.0884
12.1034
11.9926
11.9195
11.8676
11.8056
11.681
11.4306
11.0049
10.3929
9.62837
8.78801
7.96898
7.25818
6.7146
6.35553
6.16353
6.10956
6.15657
6.27858
6.4472
6.65873
6.91411
7.21736
7.57638
8.00382
8.52066
9.16257
9.9889
11.0985
12.6444
14.8774
18.0436
11.7673
11.6024
11.4578
11.3049
11.0953
10.767
10.2707
9.60087
8.80309
7.96344
7.17852
6.52752
6.0506
5.74759
5.59275
5.5497
5.58692
5.68111
5.81997
5.99364
6.20167
6.44628
6.73258
7.06825
7.46555
7.94515
8.54377
9.32595
10.411
12.0132
14.5431
18.8422
11.4151
11.1933
10.9722
10.7094
10.3451
9.82619
9.14187
8.33899
7.50451
6.73386
6.10259
5.64344
5.35115
5.1957
5.14197
5.15949
5.22718
5.3329
5.47227
5.64107
5.83971
6.07137
6.34067
6.65458
7.0244
7.47001
8.02818
8.76605
9.8143
11.4307
14.1671
19.5202
11.0583
10.7814
10.483
10.108
9.59735
8.92593
8.13051
7.2956
6.51751
5.87263
5.39733
5.08562
4.90902
4.83239
4.82554
4.86721
4.94492
5.0528
5.18936
5.35212
5.54278
5.76411
6.02007
6.3167
6.66419
7.0814
7.60469
8.30204
9.3092
10.9139
13.7929
20.113
10.7088
10.3807
10.0064
9.52321
8.88687
8.11175
7.27429
6.47304
5.7912
5.27326
4.92056
4.70717
4.59847
4.56313
4.57838
4.63024
4.71159
4.81951
4.95307
5.11174
5.29708
5.51146
5.75819
6.04231
6.3728
6.76721
7.26079
7.92127
8.88625
10.464
13.4398
20.6385
10.3762
10.0013
9.55375
8.97158
8.2369
7.40417
6.5735
5.83893
5.25842
4.84558
4.5808
4.43036
4.36127
4.34814
4.3745
4.43122
4.51402
4.62188
4.75391
4.91043
5.09292
5.30338
5.54444
5.82019
6.13833
6.51477
6.983
7.60984
8.53342
10.0761
13.1151
21.109
10.0673
9.64945
9.13234
8.46373
7.65886
6.80514
6.01044
5.3522
4.86147
4.52938
4.32557
4.21533
4.1699
4.16941
4.20201
4.26153
4.345
4.45316
4.58481
4.74071
4.92226
5.13111
5.36927
5.63995
5.94957
6.31222
6.75911
7.35553
8.23965
9.74296
12.8198
21.5337
9.78595
9.32808
8.74592
8.00509
7.15516
6.30596
5.56082
4.97587
4.55915
4.28727
4.12539
4.0412
4.01047
4.01772
4.05422
4.11538
4.19957
4.30809
4.44006
4.59634
4.77824
4.9871
5.22444
5.49264
5.79688
6.14938
6.57878
7.14821
7.99548
9.45788
12.5532
21.9198
9.53358
9.03779
8.39585
7.59698
6.72216
5.89316
5.20135
4.68149
4.32379
4.09633
3.9636
3.8966
3.87537
3.88764
3.92643
3.98852
4.07339
4.18239
4.31498
4.47214
4.65512
4.86509
5.10314
5.37092
5.67239
6.01786
6.43342
6.97961
7.79307
9.21448
12.3132
22.2729
9.30972
8.77762
8.08167
7.23782
6.35317
5.55287
4.91278
4.44841
4.13706
3.94243
3.83032
3.77503
3.76007
3.7754
3.81534
3.878
3.96331
4.07263
4.20578
4.36389
4.54825
4.75998
4.99987
5.26889
5.56974
5.9109
6.31599
6.84278
7.62594
9.00727
12.0977
22.5975
9.11281
8.5463
7.80207
6.92439
6.04059
5.2727
4.68007
4.26198
3.98683
3.81662
3.7193
3.67226
3.66135
3.67827
3.71877
3.78154
3.86684
3.97608
4.10944
4.26823
4.45393
4.66772
4.91022
5.18175
5.48382
5.82306
6.22073
6.73195
7.4886
8.83148
11.9047
22.8973
8.94194
8.34269
7.55356
6.65169
5.77697
5.04229
4.49184
4.11188
3.86499
3.71308
3.62644
3.58506
3.57673
3.59449
3.63497
3.69731
3.78205
3.89062
4.02359
4.18256
4.36928
4.58513
4.83066
5.10564
5.41046
5.75006
6.14316
6.64235
7.37634
8.68298
11.7322
23.1757
8.7948
8.1634
7.33385
6.41559
5.5555
4.85316
4.33949
3.99074
3.76599
3.6279
3.54901
3.5115
3.5047
3.52265
3.56255
3.62386
3.70736
3.81457
3.94643
4.10488
4.29208
4.50972
4.75836
5.03739
5.34627
5.68837
6.07977
6.57014
7.28509
8.55817
11.5784
23.4353
8.66863
8.00609
7.1415
6.21251
5.36951
4.69834
4.21646
3.89321
3.68586
3.55825
3.485
3.45003
3.44396
3.4615
3.50026
3.55995
3.64154
3.74663
3.87656
4.0337
4.22069
4.43957
4.69108
4.97448
5.28864
5.6351
6.02739
6.51213
7.21146
8.45389
11.4416
23.6783
8.56099
7.86909
6.97491
6.03878
5.21391
4.57218
4.1176
3.81516
3.62152
3.50193
3.43272
3.39933
3.39332
3.40993
3.44703
3.50452
3.58353
3.68576
3.81296
3.96794
4.15385
4.37319
4.6271
4.91518
5.23545
5.58765
5.98329
6.4655
7.15254
8.36741
11.3203
23.907
8.46931
7.7509
6.83204
5.89252
5.08506
4.46938
4.03841
3.75312
3.5705
3.45704
3.39069
3.35813
3.35164
3.36688
3.40186
3.45664
3.53247
3.63116
3.75484
3.90677
4.09062
4.30948
4.56545
4.85816
5.18467
5.54377
5.94512
6.42778
7.10586
8.29635
11.2132
24.1232
8.39196
7.65026
6.71107
5.77078
4.97993
4.38701
3.97586
3.70449
3.53046
3.4218
3.35759
3.32529
3.31793
3.33142
3.3639
3.41554
3.48768
3.58222
3.70162
3.84957
4.03028
4.24799
4.50546
4.80203
5.13455
5.5017
5.91083
6.39692
7.0694
8.23871
11.119
24.3286
8.32758
7.56599
6.61033
5.671
4.89547
4.32217
3.92764
3.66769
3.5005
3.39532
3.33236
3.2999
3.29134
3.30281
3.3325
3.38064
3.44868
3.53851
3.65287
3.79585
3.97261
4.1885
4.44635
4.74547
5.08394
5.46006
5.8788
6.37117
7.04145
8.19276
11.0367
24.5248
8.27498
7.49692
6.5282
5.59096
4.82922
4.27272
3.8921
3.64152
3.47969
3.37697
3.31454
3.28142
3.2714
3.28062
3.30729
3.35166
3.41518
3.4997
3.6082
3.74538
3.91762
4.13054
4.387
4.68776
5.03195
5.4178
5.84794
6.34918
7.02042
8.1571
10.9652
24.7132
8.23305
7.44192
6.46316
5.52865
4.77907
4.23687
3.86792
3.62501
3.46736
3.36623
3.30372
3.26954
3.25787
3.26477
3.28826
3.32855
3.38703
3.46552
3.56732
3.69819
3.8648
4.07301
4.32684
4.62834
4.97799
5.37419
5.81736
6.32994
7.00518
8.13057
10.9039
24.8952
8.20079
7.39995
6.41381
5.48234
4.74328
4.21315
3.85394
3.6173
3.46285
3.36264
3.29955
3.26392
3.2504
3.25494
3.27522
3.3111
3.36381
3.43543
3.52994
3.65336
3.81289
4.0152
4.26534
4.56687
4.92176
5.32876
5.7864
6.31266
6.99484
8.11228
10.8522
25.0722
8.17723
7.37
6.37886
5.45048
4.72035
4.20028
3.84913
3.61757
3.46549
3.3656
3.30144
3.26398
3.24825
3.25014
3.26686
3.29791
3.34425
3.40821
3.49438
3.60934
3.7609
3.95644
4.2022
4.50332
4.86325
5.28135
5.75463
6.29675
6.98871
8.1015
10.8098
25.2455
8.16145
7.35112
6.35713
5.43173
4.70897
4.19714
3.85254
3.62497
3.47447
3.37428
3.30852
3.26868
3.25019
3.2488
3.26125
3.2867
3.3259
3.38162
3.45895
3.56501
3.7081
3.89642
4.13748
4.43794
4.80272
5.23204
5.72186
6.28178
6.98624
8.09772
10.7764
25.4164
8.15255
7.34241
6.34752
5.42491
4.70803
4.20273
3.86325
3.63862
3.48889
3.38769
3.31963
3.27671
3.25472
3.24923
3.25653
3.27558
3.30717
3.35443
3.42283
3.51987
3.65434
3.83532
4.07157
4.37121
4.74066
5.18113
5.68808
6.26748
6.98706
8.10056
10.752
25.5862
8.14968
7.34299
6.34904
5.42898
4.71654
4.21611
3.8804
3.65763
3.5078
3.40478
3.33362
3.28683
3.26055
3.25018
3.25167
3.26385
3.28765
3.32647
3.38599
3.47404
3.59992
3.77362
4.00506
4.30382
4.6777
5.12909
5.65347
6.25374
6.9909
8.10979
10.7371
25.7562
8.15199
7.352
6.36079
5.44303
4.73361
4.23646
3.90314
3.68114
3.53025
3.42454
3.34946
3.29805
3.26682
3.251
3.24627
3.25141
3.26744
3.2979
3.34867
3.42786
3.54531
3.71188
3.93867
4.23653
4.61462
5.07654
5.61837
6.24057
6.99765
8.1253
10.7321
25.9278
8.15867
7.36862
6.38193
5.46626
4.7585
4.26304
3.93072
3.70834
3.55541
3.44612
3.36636
3.30971
3.27301
3.25137
3.24023
3.23832
3.24667
3.26889
3.31108
3.38165
3.49099
3.65079
3.87318
4.17022
4.55229
5.02426
5.58327
6.22814
7.00729
8.14712
10.7376
26.1025
8.16892
7.39204
6.41179
5.49807
4.79065
4.2953
3.96257
3.73862
3.58259
3.46882
3.38377
3.32144
3.27894
3.25124
3.2336
3.22464
3.22538
3.23953
3.2734
3.33577
3.43754
3.59111
3.80953
4.1059
4.49172
4.97313
5.54882
6.21675
7.01993
8.17538
10.755
26.2819
8.18021
7.42133
6.45053
5.5388
4.83025
4.33329
3.99863
3.77184
3.61173
3.49274
3.40172
3.33322
3.28455
3.25052
3.22622
3.21016
3.20331
3.2096
3.23564
3.29052
3.38559
3.53384
3.74909
4.04506
4.43402
4.92414
5.51579
6.20699
7.03581
8.2101
10.7861
26.4678
8.19116
7.45396
6.49635
5.58824
4.87803
4.37782
4.03937
3.80809
3.64259
3.51742
3.41978
3.34471
3.28953
3.2489
3.21769
3.19437
3.17997
3.17873
3.19755
3.24583
3.33518
3.47906
3.69189
3.98807
4.38069
4.87933
5.48636
6.20044
7.05529
8.25154
10.8321
26.6621
8.20118
7.48912
6.54835
5.64569
4.93349
4.42849
4.08442
3.84702
3.67482
3.5425
3.43764
3.35557
3.29354
3.24594
3.20752
3.17679
3.15507
3.14697
3.15959
3.20243
3.28726
3.42781
3.63898
3.93579
4.33207
4.83876
5.46049
6.19737
7.0795
8.29936
10.8854
26.8562
8.20971
7.52598
6.60568
5.71046
4.99621
4.48505
4.13359
3.88839
3.70814
3.56772
3.45503
3.36555
3.29625
3.24123
3.19531
3.1573
3.12898
3.11517
3.12295
3.16174
3.24329
3.38153
3.59176
3.88948
4.2893
4.80351
5.43918
6.19847
7.10842
8.3533
10.9444
27.0474
8.21626
7.56375
6.66744
5.78188
5.06582
4.54734
4.18681
3.93215
3.74251
3.59307
3.47204
3.37485
3.29789
3.23514
3.1818
3.13703
3.10328
3.08518
3.08955
3.12559
3.20501
3.34185
3.5517
3.85055
4.2537
4.77486
5.42363
6.20476
7.14293
8.4143
11.0099
27.2357
8.22042
7.60164
6.73275
5.85929
5.14203
4.61537
4.24422
3.97855
3.77827
3.61915
3.48982
3.38504
3.30018
3.2297
3.16947
3.11882
3.08066
3.05939
3.06152
3.0959
3.17411
3.31029
3.52026
3.82038
4.22665
4.75417
5.4152
6.2175
7.18417
8.48347
11.083
27.4205
8.22188
7.63889
6.80072
5.94203
5.22459
4.68927
4.30626
4.02822
3.81638
3.64751
3.51031
3.3984
3.30567
3.22735
3.16065
3.10492
3.06311
3.03957
3.04038
3.07407
3.15199
3.28825
3.49883
3.8004
4.20962
4.74294
5.41539
6.23809
7.23345
8.56215
11.1651
27.6017
8.22043
7.67483
6.87047
6.02945
5.31331
4.76933
4.37361
4.08225
3.85846
3.68021
3.5358
3.41623
3.3155
3.22963
3.15669
3.09657
3.05179
3.02672
3.02711
3.0611
3.1398
3.27706
3.48887
3.79215
4.2042
4.74287
5.42592
6.26819
7.29237
8.65195
11.2576
27.779
8.21601
7.70886
6.94115
6.12088
5.40803
4.85599
4.44726
4.14221
3.90688
3.71984
3.56701
3.43927
3.33074
3.23794
3.15915
3.09471
3.04755
3.02158
3.02256
3.05811
3.13878
3.27818
3.49201
3.79738
4.21223
4.75583
5.44875
6.3097
7.3628
8.75474
11.3624
27.9518
8.20871
7.74054
7.01198
6.21566
5.5086
4.94974
4.52841
4.21026
3.96396
3.76701
3.60509
3.46878
3.35274
3.25356
3.16957
3.10128
3.05202
3.02574
3.02811
3.06655
3.15064
3.29335
3.51015
3.8181
4.23578
4.78401
5.4861
6.36485
7.44698
8.87272
11.4814
28.1193
8.19885
7.76959
7.08222
6.31313
5.61485
5.05123
4.61889
4.28846
4.03064
3.82311
3.65127
3.50649
3.38333
3.27832
3.18983
3.11842
3.06772
3.04174
3.04612
3.08838
3.17745
3.3248
3.54549
3.85662
4.27726
4.82986
5.54054
6.43622
7.5475
9.00844
11.6169
28.2804
8.18697
7.79598
7.15132
6.41266
5.72669
5.16158
4.72032
4.37842
4.10818
3.88932
3.70758
3.55463
3.42485
3.31469
3.2225
3.14887
3.09766
3.07286
3.08002
3.12658
3.22158
3.37521
3.60072
3.91556
4.33939
4.8962
5.61504
6.52713
7.66748
9.16453
11.7719
28.4337
8.17389
7.81999
7.21892
6.51376
5.8445
5.28185
4.8337
4.48049
4.19838
3.96794
3.77664
3.616
3.48025
3.36575
3.27081
3.19602
3.14548
3.123
3.13396
3.18552
3.28653
3.44717
3.67917
3.99812
4.42529
4.98628
5.71298
6.64123
7.81053
9.34427
11.9495
28.5776
8.16079
7.84229
7.28504
6.61651
5.96898
5.41256
4.95965
4.59612
4.30256
4.06157
3.86153
3.69402
3.55322
3.43541
3.33887
3.26415
3.2156
3.19677
3.21272
3.27018
3.37754
3.5448
3.78355
4.10816
4.53877
5.10388
5.83837
6.78278
7.98092
9.55154
12.1538
28.7098
8.14926
7.86413
7.35036
6.72198
6.10113
5.55312
5.09816
4.72713
4.42353
4.17351
3.96603
3.79287
3.64825
3.52845
3.4317
3.35852
3.31345
3.29969
3.32183
3.38607
3.50021
3.6738
3.91854
4.24886
4.68436
5.25361
5.99594
6.95686
8.18368
9.79102
12.3895
28.8275
8.14156
7.88763
7.41775
6.83334
6.24038
5.70467
5.25049
4.87474
4.56424
4.30756
4.0946
3.91756
3.77083
3.65072
3.55546
3.4855
3.44558
3.4383
3.46773
3.53943
3.66056
3.84026
4.09017
4.42543
4.86604
5.44085
6.19152
7.16955
8.42485
10.0684
12.6628
28.927
8.14093
7.91706
7.49322
6.95186
6.38813
5.86799
5.41889
5.04213
4.7285
4.46833
4.25263
4.07415
3.92756
3.8093
3.71758
3.65278
3.61973
3.62022
3.65775
3.7372
3.86518
4.05049
4.30489
4.64422
5.08987
5.67118
6.4321
7.42833
8.71191
10.391
12.9815
29.0034
8.15245
7.96146
7.5816
7.08093
6.54685
6.04509
5.60592
5.23322
4.92107
4.6615
4.44667
4.26998
4.12645
4.01267
3.92687
3.86938
3.84481
3.85404
3.89996
3.98694
4.12117
4.31134
4.56955
4.91256
5.3631
5.95227
6.72641
7.74247
9.05442
10.7685
13.3555
29.0495
8.18625
8.02974
7.68947
7.22624
6.72141
6.24036
5.81611
5.45334
5.14819
4.89428
4.68486
4.51399
4.37704
4.27077
4.19347
4.14594
4.13078
4.149
4.203
4.29672
4.43624
4.63043
4.89205
5.23893
5.6954
6.29473
7.08536
8.12398
9.46524
11.2142
13.7983
29.0547
8.25426
8.13141
7.82673
7.39745
6.92142
6.46289
6.05766
5.71077
5.41882
5.17639
4.9776
4.81711
4.69059
4.59496
4.52853
4.49238
4.48744
4.51453
4.57582
4.67525
4.81911
5.01689
5.2823
5.63448
6.09942
6.71297
7.52518
8.58991
9.9628
11.7471
14.3272
29.0023
8.36988
8.28222
8.01028
7.61205
7.16468
6.73009
6.34545
6.01934
5.74633
5.52112
5.33824
5.1927
5.08042
4.99837
4.94473
4.92077
4.92604
4.96131
5.02893
5.13326
5.28129
5.48347
5.75477
6.11583
6.5944
7.22933
8.06973
9.16621
10.575
12.3955
14.9642
28.8663
8.55939
8.51232
8.27097
7.9004
7.48063
7.07224
6.70901
6.40358
6.15227
5.94836
5.78571
5.65911
5.56442
5.49854
5.45894
5.44707
5.46178
5.50437
5.57791
5.68764
5.84165
6.05164
6.33402
6.71109
7.21264
7.87938
8.75656
9.89471
11.346
13.2021
15.7356
28.6031
8.87532
8.87874
8.66388
8.31462
7.91861
7.53641
7.19823
6.91417
6.68447
6.50315
6.36287
6.25689
6.1803
6.12953
6.10166
6.09954
6.12238
6.17234
6.25354
6.37236
6.53811
6.76385
7.06747
7.47288
8.01179
8.72377
9.65273
10.8466
12.3466
14.231
16.6682
28.1382
9.42306
9.4887
9.28856
8.94716
8.56634
8.20726
7.89636
7.63973
7.43523
7.27644
7.15599
7.06533
7.00009
6.95719
6.93586
6.94091
6.97262
7.0339
7.12968
7.26732
7.45722
7.71359
8.05555
8.5082
9.10368
9.87998
10.8819
12.1513
13.6912
15.5721
17.7754
27.352
10.489
10.595
10.3699
10.0076
9.62653
9.28242
8.99361
8.76206
8.5815
8.43728
8.32581
8.24186
8.18222
8.14448
8.12942
8.14513
8.19369
8.27825
8.40414
8.57928
8.81466
9.12504
9.52988
10.0542
10.7291
11.5911
12.6815
14.0243
15.5786
17.3358
19.0164
26.091
12.6525
12.6476
12.3787
12.0033
11.6471
11.3396
11.0771
10.8615
10.6887
10.5452
10.4316
10.3486
10.2919
10.2583
10.2474
10.2798
10.3586
10.4857
10.6652
10.9038
11.2112
11.6004
12.0884
12.6969
13.4521
14.3832
15.5176
16.8435
18.2797
19.6443
20.1871
24.0679
21.907
18.2784
17.4318
17.0239
16.8548
16.7338
16.5814
16.4147
16.246
16.1001
15.9741
15.8655
15.772
15.6922
15.6281
15.655
15.7563
15.9197
16.1401
16.4171
16.7527
17.1516
17.6215
18.1725
18.8163
19.5626
20.4092
21.2853
22.0582
22.4139
20.7954
20.4111
68.0801
63.878
61.0217
58.9137
57.0784
55.3465
53.6867
52.1295
50.6714
49.2943
47.9839
46.7279
45.5162
44.3394
43.1836
42.1063
41.0885
40.1087
39.1489
38.1932
37.2265
36.2336
35.1976
34.0985
32.9108
31.5999
30.1162
28.3558
26.1296
23.08
18.5795
12.1344
37.9214
17.1924
15.4469
14.7174
14.236
13.8559
13.5588
13.3509
38.7082
17.0391
15.1479
14.3923
13.9094
13.5402
13.2598
13.0692
39.3752
16.8929
14.8759
14.1051
13.6239
13.2638
12.9926
12.806
39.9311
16.7513
14.6224
13.842
13.3637
13.0086
12.7373
12.541
40.3725
16.6069
14.38
13.5938
13.118
12.7623
12.4812
12.2631
40.7144
16.4617
14.1457
13.3549
12.8794
12.5171
12.2179
11.9691
40.9662
16.3175
13.9174
13.1213
12.6433
12.2693
11.9463
11.662
41.136
16.1744
13.6943
12.8912
12.4079
12.0186
11.6691
11.3489
41.2323
16.0325
13.4759
12.6639
12.1732
11.7668
11.391
11.0381
41.2629
15.8922
13.2623
12.4398
11.9403
11.5171
11.1178
10.7378
41.2358
15.7538
13.0539
12.2195
11.711
11.2729
10.8549
10.4547
41.1584
15.6178
12.8511
12.0042
11.4874
11.0376
10.6068
10.1936
41.0377
15.4845
12.6545
11.7948
11.2712
10.8138
10.3766
9.95708
40.88
15.3545
12.4645
11.5923
11.064
10.6036
10.1663
9.74608
40.691
15.2278
12.2816
11.3975
10.867
10.4081
9.97634
9.56008
40.4761
15.1047
12.106
11.211
10.6807
10.2277
9.80656
9.39779
40.2397
14.9854
11.938
11.033
10.5055
10.0624
9.65602
9.25791
39.9858
14.8697
11.7775
10.8637
10.3412
9.91158
9.52334
9.13812
39.7179
14.7578
11.6244
10.703
10.1877
9.77439
9.40681
9.03592
39.4389
14.6494
11.4787
10.5507
10.0445
9.64975
9.3049
8.9493
39.1512
14.5445
11.34
10.4066
9.91084
9.53645
9.21565
8.87618
38.8569
14.4428
11.208
10.2702
9.78615
9.43327
9.13725
8.81467
38.5578
14.3444
11.0825
10.1412
9.66967
9.33898
9.06803
8.76316
38.2554
14.2488
10.9631
10.019
9.56066
9.25241
9.00655
8.72022
37.9507
14.156
10.8495
9.90322
9.45838
9.17249
8.9515
8.68462
37.6446
14.0658
10.7412
9.79341
9.36213
9.09827
8.90174
8.65522
37.338
13.9781
10.6381
9.68911
9.27128
9.02886
8.85627
8.63099
37.0313
13.8927
10.5397
9.5899
9.18522
8.96352
8.81423
8.61099
36.7249
13.8095
10.4457
9.49539
9.10342
8.90156
8.77487
8.59432
36.4187
13.7283
10.3559
9.40521
9.02538
8.84239
8.73753
8.58021
36.1134
13.6493
10.2701
9.31903
8.95067
8.78549
8.70156
8.5679
35.8094
13.5725
10.1881
9.23659
8.87889
8.73045
8.66641
8.55662
35.5113
13.5035
10.1112
9.15834
8.81023
8.67712
8.63145
8.54443
35.2207
13.4454
10.0401
9.08426
8.74441
8.62521
8.59635
8.53086
34.9365
13.3964
9.97449
9.01414
8.6812
8.57447
8.56083
8.51555
34.6575
13.3551
9.9143
8.94784
8.62043
8.5247
8.52472
8.49818
34.383
13.3211
9.85936
8.88528
8.56196
8.47578
8.48791
8.47856
34.1123
13.2938
9.80951
8.82636
8.50572
8.42763
8.45036
8.45657
33.8445
13.2726
9.76459
8.77103
8.45167
8.38025
8.41208
8.43219
33.5791
13.2568
9.72445
8.71925
8.39982
8.33368
8.37316
8.40553
33.3155
13.2457
9.68893
8.67099
8.35021
8.28804
8.33377
8.3768
33.0533
13.2384
9.6578
8.62624
8.30293
8.2435
8.29419
8.34634
32.792
13.2342
9.63081
8.58498
8.25813
8.20032
8.25479
8.31465
32.5312
13.2319
9.60761
8.54718
8.21598
8.15885
8.21607
8.28242
32.2708
13.2304
9.58775
8.5128
8.17669
8.11949
8.17865
8.25054
32.0106
13.2281
9.57062
8.48173
8.1405
8.08279
8.14333
8.22017
31.7505
13.2232
9.55545
8.45384
8.1077
8.04939
8.11125
8.19283
31.4907
13.2137
9.54124
8.42889
8.07857
8.02009
8.0839
8.17052
31.2314
13.197
9.52677
8.40652
8.05344
7.99584
8.06318
8.15591
30.973
13.1702
9.51054
8.38624
8.03271
7.97796
8.05165
8.15271
30.7164
13.1301
9.49083
8.3674
8.01678
7.96834
8.05285
8.16631
30.4623
13.0731
9.46567
8.34922
8.00603
7.96948
8.07178
8.20562
30.212
12.9959
9.43301
8.33095
8.00095
7.98453
8.11571
8.28424
29.9671
12.8949
9.39088
8.31186
8.00237
8.01782
8.19597
8.42053
29.7293
12.7678
9.33778
8.29107
8.01138
8.07498
8.32934
8.65032
29.5016
12.6151
9.27286
8.26804
8.02897
8.16309
8.54457
9.04307
29.3022
12.4575
9.20373
8.24577
8.05871
8.29066
8.88292
9.76334
29.1329
12.2971
9.13101
8.22574
8.10521
8.48114
9.48663
11.1085
28.9923
12.1358
9.05603
8.20852
8.17923
8.80255
10.7187
15.4243
28.8773
11.9766
8.98054
8.1947
8.30908
9.64408
15.5278
35.9718
28.8024
11.8538
8.92044
8.18487
8.44704
10.5249
19.6994
60.4242
28.74
11.7358
8.86096
8.17501
8.5804
11.2251
21.7158
57.5852
28.6878
11.6226
8.8026
8.16761
8.71463
11.8024
23.0887
54.8788
21.7116
15.1829
17.0056
18.544
19.7063
20.6236
21.3692
21.9976
22.5452
23.0303
23.4668
23.8659
24.2373
24.5896
24.9312
25.2712
25.6196
25.9509
26.2457
26.4985
26.7063
26.8674
26.9729
27.0082
26.9487
26.7516
26.3413
25.6236
24.446
22.5843
19.2346
9.31839
19.6331
17.3946
16.2715
15.8936
15.1359
14.3253
13.5524
12.8669
12.2827
11.7974
11.4049
11.099
10.8747
10.7283
10.6641
10.6889
10.8055
10.9813
11.191
11.4235
11.6927
12.003
12.3621
12.7783
13.2618
13.8218
14.4601
15.1631
15.8344
16.1651
15.6645
12.4174
19.8265
16.1532
14.31
13.2689
12.1321
11.1255
10.2958
9.65124
9.17271
8.83453
8.61108
8.481
8.42729
8.43671
8.49937
8.60681
8.753
8.93281
9.14161
9.3839
9.6622
9.98197
10.3503
10.7776
11.2789
11.8766
12.6014
13.491
14.5617
15.7548
16.8417
15.313
19.6009
14.7488
12.6614
11.4201
10.2779
9.35703
8.65861
8.15763
7.81396
7.59124
7.45955
7.39689
7.3873
7.41951
7.48599
7.58232
7.70677
7.86035
8.04337
8.2581
8.50804
8.79846
9.13655
9.53288
10.0037
10.5746
11.2858
12.1973
13.3945
14.9894
16.8926
17.2213
18.8217
13.46
11.364
10.1123
9.06012
8.25666
7.67256
7.26762
6.99565
6.81981
6.714
6.66076
6.64839
6.66942
6.71955
6.79681
6.90088
7.03338
7.19521
7.38887
7.61797
7.88744
8.20417
8.57827
9.02578
9.57321
10.2652
11.1778
12.4423
14.2268
16.5901
18.583
17.7202
12.3632
10.3482
9.15105
8.19877
7.49178
6.98431
6.63253
6.39206
6.22975
6.12525
6.06535
6.04154
6.04867
6.08396
6.14639
6.23621
6.35456
6.50232
6.68201
6.89719
7.15259
7.45463
7.81265
8.24144
8.76627
9.43285
10.3275
11.5977
13.4398
16.1395
19.6188
16.5663
11.4474
9.54432
8.4146
7.5474
6.91108
6.45251
6.1292
5.90043
5.73915
5.62966
5.56166
5.52846
5.52597
5.55197
5.60563
5.68723
5.79732
5.93668
6.10777
6.31405
6.56
6.85164
7.19749
7.61107
8.11597
8.757
9.62118
10.8438
12.6863
15.6203
20.4574
15.5008
10.6826
8.89318
7.82908
7.02931
6.44333
6.01652
5.7082
5.48262
5.31902
5.20465
5.1309
5.09201
5.08428
5.10556
5.15496
5.23264
5.33868
5.47373
5.64018
5.84131
6.08139
6.36593
6.70271
7.10401
7.59182
8.21026
9.02958
10.1994
12.0207
15.1228
21.1569
14.5526
10.0385
8.35527
7.34978
6.60287
6.05322
5.64757
5.34677
5.12155
4.9556
4.83802
4.76114
4.71963
4.70987
4.72964
4.77791
4.85471
4.95972
5.09348
5.25826
5.45722
5.69436
5.97474
6.30531
6.69705
7.17067
7.7611
8.54088
9.66139
11.4503
14.6705
21.7643
13.722
9.49313
7.90249
6.94818
6.24419
5.72176
5.33015
5.03317
4.80783
4.64047
4.52139
4.44344
4.40146
4.39182
4.41219
4.4614
4.53935
4.64535
4.77987
4.94509
5.14406
5.38056
5.65926
5.98632
6.37172
6.831
7.39699
8.14138
9.21639
10.9681
14.271
22.3039
12.9895
9.02791
7.51613
6.60712
5.93876
5.43722
5.05501
4.76056
4.53544
4.36773
4.2485
4.17092
4.12991
4.12175
4.14401
4.19538
4.27564
4.38378
4.52024
4.68713
4.88744
5.12484
5.4037
5.72979
6.1105
6.55868
7.10422
7.81662
8.84904
10.5614
13.9211
22.7895
12.3644
8.62935
7.18418
6.31511
5.67665
5.19152
4.81625
4.52426
4.30001
4.13289
4.01452
3.93832
3.89916
3.89328
3.91809
3.97217
4.05518
4.16585
4.3046
4.47355
4.67572
4.91477
5.19512
5.52158
5.89975
6.3403
6.86962
7.55365
8.54624
10.2186
13.6157
23.2313
11.8235
8.28696
6.89795
6.06366
5.45048
4.9789
4.60974
4.32061
4.09801
3.93227
3.81554
3.74136
3.7046
3.70136
3.72892
3.78574
3.87136
3.9843
4.12504
4.29575
4.49954
4.74043
5.02274
5.3504
5.72791
6.16402
6.68134
7.34118
8.29708
9.92986
13.3494
23.637
11.3558
7.99235
6.65091
5.84651
5.25503
4.79523
4.43214
4.14649
3.9263
3.76267
3.64815
3.57644
3.54233
3.54178
3.57194
3.63113
3.71878
3.83328
3.97522
4.14692
4.35166
4.59396
4.87793
5.20716
5.58555
6.01993
6.52924
7.16942
8.09238
9.68667
13.1174
24.0126
10.9523
7.73857
6.43788
5.65982
5.08634
4.63733
4.28043
3.99904
3.78199
3.62108
3.50924
3.44024
3.40882
3.41079
3.44314
3.50404
3.59289
3.70796
3.85
4.02152
4.2265
4.46916
4.75395
5.08468
5.46496
5.89992
6.40495
7.03019
7.92436
9.48201
12.9156
24.363
10.6049
7.5202
6.2544
5.50022
4.94218
4.50185
4.15179
3.87546
3.66231
3.50466
3.39581
3.32962
3.30076
3.30488
3.33881
3.40059
3.48973
3.60427
3.74523
3.91562
4.1194
4.3612
4.64568
4.97734
5.35996
5.79761
6.30172
6.9166
7.78642
9.30985
12.7404
24.6922
10.3068
7.3329
6.09715
5.36433
4.81977
4.38733
4.04333
3.77276
3.56438
3.41056
3.30493
3.24153
3.21497
3.22079
3.25566
3.31752
3.40585
3.51879
3.65777
3.82584
4.02716
4.26653
4.54931
4.88084
5.26573
5.70775
6.21425
6.82291
7.6729
9.165
12.5886
25.0035
10.0521
7.17313
5.96323
5.24911
4.71669
4.2919
3.95354
3.68816
3.48513
3.33584
3.23371
3.17298
3.14837
3.15534
3.19047
3.25164
3.33818
3.44876
3.58484
3.74952
3.94695
4.18243
4.46198
4.79209
5.17907
5.62627
6.13756
6.7443
7.57891
9.04301
12.4575
25.2997
9.8359
7.03796
5.84991
5.15217
4.63089
4.21376
3.88082
3.62007
3.42184
3.27738
3.17915
3.12107
3.09803
3.10559
3.14032
3.20005
3.2842
3.39176
3.52412
3.68424
3.87657
4.10678
4.38164
4.70934
5.0975
5.54976
6.06793
6.67668
7.50032
8.9401
12.3444
25.5834
9.65404
6.9249
5.75486
5.07147
4.56061
4.15113
3.82364
3.5671
3.37285
3.23265
3.13828
3.08292
3.06122
3.06889
3.10264
3.16043
3.2418
3.34571
3.47342
3.62801
3.81417
4.03792
4.30719
4.63127
5.01898
5.47571
6.00246
6.61672
7.4337
8.8531
12.2471
25.8567
9.50285
6.83194
5.67606
5.00519
4.50425
4.10243
3.78039
3.52793
3.337
3.19995
3.1089
3.05596
3.03544
3.04297
3.07534
3.131
3.20911
3.30864
3.43091
3.57914
3.75818
3.97485
4.23781
4.55663
4.9419
5.40249
5.93892
6.56175
7.3763
8.77942
12.1638