/*--------------------------------*- C++ -*----------------------------------*\
| =========                 |                                                 |
| \\      /  F ield         | OpenFOAM: The Open Source CFD Toolbox           |
|  \\    /   O peration     | Version:  v2012                                 |
|   \\  /    A nd           | Website:  www.openfoam.com                      |
|    \\/     M anipulation  |                                                 |
\*---------------------------------------------------------------------------*/
FoamFile
{
    version     2.0;
    format      ascii;
    class       volScalarField;
    location    "734";
    object      p;
}
// * * * * * * * * * * * * * * * * * * * * * * * * * * * * * * * * * * * * * //

dimensions      [0 2 -2 0 0 0 0];


internalField   nonuniform List<scalar> 
6024
(
0.25818
0.260243
0.261833
0.263046
0.263973
0.264693
0.265267
0.26574
0.266142
0.266493
0.266809
0.267102
0.26738
0.267649
0.267916
0.268182
0.268456
0.268793
0.269346
0.270153
0.258204
0.260325
0.261911
0.263094
0.264012
0.26473
0.265302
0.265772
0.266171
0.266524
0.266845
0.267144
0.267429
0.267706
0.26798
0.26825
0.268517
0.268805
0.269141
0.26944
0.258648
0.260699
0.262203
0.263313
0.264166
0.264831
0.265364
0.265807
0.266188
0.266528
0.26684
0.267134
0.267416
0.267692
0.267964
0.268226
0.268479
0.268731
0.268952
0.269057
0.259618
0.261479
0.262808
0.26377
0.264494
0.265057
0.265514
0.265901
0.266244
0.266556
0.26685
0.26713
0.267403
0.267671
0.267933
0.268183
0.268424
0.268654
0.268834
0.268896
0.261149
0.262686
0.263719
0.264435
0.264964
0.265381
0.265734
0.266048
0.266339
0.266616
0.266885
0.267149
0.267411
0.26767
0.267925
0.268169
0.268403
0.268619
0.26878
0.268829
0.263254
0.264286
0.264884
0.265257
0.265532
0.265769
0.265996
0.266224
0.266457
0.266695
0.266938
0.267184
0.267434
0.267685
0.267935
0.268176
0.268407
0.268622
0.268783
0.268831
0.265971
0.266239
0.266239
0.266172
0.266145
0.266179
0.266271
0.26641
0.266584
0.266783
0.267001
0.26723
0.267469
0.267715
0.267963
0.268203
0.268437
0.268664
0.268841
0.268902
0.269399
0.268463
0.267665
0.267075
0.266723
0.266554
0.26652
0.26658
0.266704
0.266871
0.267068
0.267285
0.267516
0.267758
0.268008
0.268256
0.268499
0.268746
0.268961
0.269066
0.273483
0.270657
0.268879
0.267761
0.267126
0.266802
0.266681
0.26669
0.266782
0.266929
0.267113
0.267321
0.267546
0.267783
0.26803
0.268284
0.26854
0.268822
0.269154
0.269451
0.276949
0.272106
0.269469
0.268038
0.267255
0.26686
0.2667
0.266686
0.266765
0.266903
0.267079
0.267278
0.267495
0.267724
0.267965
0.268214
0.268478
0.268809
0.26936
0.270165
0.648272
0.61848
0.585729
0.551201
0.515851
0.480472
0.445743
0.412249
0.380483
0.350857
0.323706
0.299276
0.277723
0.259128
0.243513
0.230836
0.221005
0.213885
0.2093
0.207031
0.206831
0.208432
0.211539
0.215829
0.22097
0.226624
0.232462
0.238173
0.243491
0.248218
0.252242
0.255544
0.645299
0.616246
0.584086
0.550023
0.515035
0.479928
0.44539
0.412015
0.380309
0.350694
0.323507
0.298999
0.277337
0.258614
0.242858
0.230033
0.220052
0.212787
0.208073
0.205699
0.205419
0.206976
0.210084
0.214423
0.219662
0.225462
0.231487
0.237414
0.242955
0.247883
0.252066
0.255482
0.637056
0.608703
0.577334
0.543993
0.509616
0.475005
0.440864
0.407803
0.376347
0.346933
0.319911
0.295541
0.273999
0.255385
0.239732
0.227005
0.217117
0.209948
0.205349
0.203112
0.202987
0.204728
0.208065
0.212678
0.218226
0.224371
0.230764
0.237058
0.242928
0.248114
0.252458
0.255941
0.625921
0.59798
0.567215
0.534501
0.50069
0.466561
0.432822
0.4001
0.36894
0.339799
0.313043
0.288939
0.267671
0.249341
0.233983
0.221562
0.211986
0.205138
0.200886
0.19904
0.199317
0.201491
0.205322
0.210478
0.216601
0.223342
0.230339
0.237201
0.243549
0.249068
0.253566
0.257041
0.612811
0.584888
0.554363
0.521985
0.488526
0.45473
0.421303
0.388886
0.358042
0.329242
0.302862
0.279173
0.258355
0.240507
0.225656
0.213769
0.204744
0.198443
0.194754
0.193563
0.194507
0.197302
0.201879
0.207849
0.214801
0.222387
0.230231
0.237883
0.244881
0.25083
0.25547
0.258836
0.597571
0.569332
0.538733
0.506422
0.473101
0.43949
0.406289
0.37415
0.343651
0.315272
0.289391
0.266275
0.24609
0.228923
0.214799
0.203681
0.195428
0.189849
0.186886
0.186641
0.1885
0.192079
0.197661
0.20475
0.212804
0.221499
0.230471
0.239202
0.247078
0.253579
0.258305
0.261396
0.580167
0.551356
0.520422
0.487934
0.45455
0.420971
0.387902
0.356009
0.325882
0.298005
0.272748
0.250363
0.230993
0.214702
0.201502
0.191328
0.183961
0.17921
0.177273
0.178166
0.18129
0.186097
0.192782
0.201245
0.210694
0.220756
0.23117
0.241403
0.250389
0.257539
0.262212
0.264811
0.560648
0.531064
0.499567
0.46668
0.433037
0.399344
0.366323
0.334658
0.304949
0.277676
0.25319
0.23171
0.213341
0.198111
0.185994
0.176898
0.170628
0.167029
0.166221
0.168147
0.172445
0.178845
0.187158
0.197207
0.208394
0.220119
0.232241
0.244325
0.254547
0.26259
0.267355
0.269333
0.53903
0.508532
0.476291
0.442819
0.40876
0.374848
0.341838
0.310441
0.28126
0.254759
0.231247
0.210891
0.193745
0.179783
0.168935
0.161079
0.156048
0.153712
0.154042
0.156912
0.16213
0.169614
0.179297
0.190965
0.204214
0.218485
0.232958
0.246719
0.259251
0.269697
0.275623
0.275633
0.515359
0.483859
0.450752
0.416575
0.382018
0.347874
0.314951
0.283986
0.255577
0.230143
0.207927
0.189014
0.173379
0.160929
0.151533
0.145041
0.141301
0.140209
0.141709
0.145707
0.152092
0.160814
0.171927
0.185401
0.200946
0.218224
0.236187
0.253542
0.270483
0.284922
0.29018
0.281093
0.703216
0.701774
0.700932
0.701011
0.700944
0.699106
0.691117
0.673446
0.702534
0.700597
0.700343
0.701351
0.701754
0.69895
0.688535
0.669761
0.70286
0.700586
0.70052
0.701124
0.699665
0.693492
0.680494
0.661196
0.705307
0.7025
0.701341
0.69934
0.694292
0.684726
0.669904
0.650109
0.709087
0.705209
0.701477
0.695995
0.687294
0.674805
0.658167
0.637414
0.712119
0.706282
0.699542
0.690579
0.678608
0.663471
0.644909
0.622893
0.712228
0.70405
0.694627
0.682523
0.667709
0.650208
0.629786
0.606408
0.707949
0.697796
0.686239
0.671571
0.654392
0.634837
0.612686
0.587933
0.69963
0.687497
0.674252
0.657624
0.638555
0.617246
0.593524
0.567429
0.687159
0.673214
0.658735
0.640668
0.620131
0.597351
0.572249
0.544891
0.488944
0.456383
0.422336
0.387408
0.352384
0.318151
0.285589
0.255458
0.228317
0.204498
0.184119
0.167141
0.153425
0.142794
0.135073
0.130105
0.127771
0.128006
0.130764
0.135943
0.143361
0.152826
0.164393
0.178178
0.193889
0.210986
0.228692
0.246389
0.26386
0.278076
0.280566
0.269394
0.459825
0.426227
0.391282
0.355727
0.3205
0.286621
0.255042
0.226501
0.201444
0.180022
0.162163
0.147665
0.136286
0.127803
0.122028
0.118809
0.118027
0.119587
0.123374
0.129314
0.137359
0.147425
0.159478
0.173561
0.189573
0.206914
0.22471
0.242383
0.25923
0.271916
0.274777
0.269766
0.4292
0.394742
0.359157
0.323376
0.288533
0.25578
0.226069
0.199997
0.177765
0.159255
0.144174
0.132178
0.122953
0.116244
0.111856
0.109652
0.109555
0.111531
0.115553
0.121637
0.129757
0.139853
0.151857
0.165692
0.181187
0.197906
0.215191
0.232487
0.248837
0.261438
0.266477
0.265199
0.397609
0.362612
0.326841
0.291472
0.25783
0.22711
0.200112
0.177128
0.158014
0.14237
0.129731
0.119685
0.111923
0.106246
0.10255
0.100798
0.100991
0.10314
0.107256
0.113366
0.121437
0.131412
0.143209
0.156696
0.171631
0.187594
0.204033
0.220383
0.235749
0.248351
0.25583
0.257495
0.365689
0.330613
0.295279
0.261105
0.229518
0.201586
0.177778
0.157979
0.141707
0.128376
0.117479
0.108661
0.101727
0.096598
0.0932644
0.0917512
0.0920958
0.0943223
0.0984435
0.104476
0.112385
0.122104
0.133531
0.146503
0.160751
0.175866
0.191358
0.206691
0.221091
0.233509
0.242406
0.245793
0.334101
0.299511
0.265315
0.2331
0.204232
0.179469
0.158838
0.141839
0.127785
0.116067
0.106272
0.0981903
0.0917539
0.0869724
0.0838841
0.0825358
0.0829749
0.0852199
0.0892835
0.0951705
0.102843
0.112226
0.123204
0.135596
0.149118
0.163358
0.177868
0.192161
0.205601
0.217538
0.226873
0.231028
0.303465
0.269954
0.237552
0.207877
0.18206
0.160425
0.142575
0.127766
0.11528
0.104619
0.095529
0.0879367
0.0818607
0.0773511
0.0744605
0.0732394
0.0737338
0.0759515
0.0799057
0.0855917
0.0929678
0.101955
0.112427
0.124199
0.136983
0.150363
0.163921
0.177219
0.1897
0.20089
0.209959
0.214282
0.274287
0.242394
0.212287
0.18546
0.16268
0.143826
0.128201
0.114989
0.103576
0.0936316
0.0850485
0.0778438
0.0720769
0.067809
0.0650918
0.0639722
0.0644909
0.0666458
0.0704512
0.0758946
0.082932
0.0914815
0.101414
0.112545
0.124591
0.137137
0.149782
0.162135
0.173668
0.183959
0.192362
0.196519
0.246921
0.21706
0.189538
0.165596
0.145588
0.129034
0.115095
0.103027
0.0923772
0.0829733
0.0748131
0.0679593
0.0624819
0.0584396
0.0558782
0.0548389
0.0553567
0.0574211
0.0610472
0.0662169
0.0728852
0.0809706
0.0903451
0.100826
0.112143
0.123887
0.135664
0.147116
0.157729
0.167072
0.174643
0.178457
0.221556
0.193988
0.169131
0.147903
0.130274
0.11554
0.102863
0.091638
0.0815806
0.0726403
0.0648733
0.0583569
0.0531583
0.0493291
0.0469089
0.0459328
0.0464292
0.0483825
0.0518072
0.0566813
0.0629605
0.0705661
0.0793745
0.0892092
0.0998109
0.110787
0.121743
0.13234
0.142076
0.150503
0.157217
0.160616
0.198238
0.173068
0.150792
0.131984
0.116322
0.103006
0.0912893
0.0807297
0.0711831
0.0626775
0.0552933
0.0491068
0.0441777
0.0405509
0.0382598
0.0373336
0.0377928
0.0396208
0.042829
0.0473938
0.0532728
0.060392
0.0686347
0.0778321
0.0877386
0.0979842
0.108172
0.117962
0.126878
0.134461
0.140369
0.143343
0.176906
0.154113
0.134225
0.117502
0.103433
0.0912305
0.0802798
0.0702897
0.0612193
0.053138
0.0461307
0.040267
0.0355992
0.0321654
0.0299933
0.0291067
0.029518
0.0312116
0.0341947
0.0384438
0.0439191
0.0505528
0.0582369
0.0668127
0.0760487
0.0856011
0.0950748
0.104115
0.112276
0.1191
0.124288
0.126865
0.15743
0.136905
0.119165
0.1042
0.0914189
0.0801124
0.0698083
0.0603394
0.0517306
0.0440678
0.0374315
0.0318833
0.0274685
0.0242193
0.0221582
0.0213033
0.0216604
0.0232151
0.0259706
0.029904
0.034979
0.0411346
0.0482732
0.0562481
0.064843
0.0737397
0.0825533
0.0909074
0.0983799
0.104532
0.109093
0.111316
0.13964
0.12123
0.1054
0.0919039
0.0801686
0.0696085
0.0598802
0.0509079
0.0427527
0.0355025
0.0292298
0.023989
0.0198192
0.016747
0.0147899
0.0139616
0.0142617
0.0156771
0.0182073
0.0218309
0.0265149
0.0322059
0.0388177
0.0462171
0.054203
0.0624824
0.0706879
0.0784218
0.0852747
0.0908353
0.0948578
0.0967758
0.123327
0.106894
0.0928021
0.0805124
0.0696233
0.0597062
0.0505107
0.0420204
0.0343115
0.0274662
0.0215487
0.0166066
0.0126733
0.0097708
0.00791236
0.00710741
0.00735067
0.0086298
0.0109416
0.0142658
0.0185732
0.0238183
0.0299268
0.0367781
0.0441877
0.0518964
0.0595492
0.0667242
0.0730194
0.0780604
0.081621
0.0832806
0.108405
0.0937903
0.0811959
0.0699212
0.0597427
0.0504021
0.0417125
0.0336933
0.0264224
0.0199732
0.0144015
0.00974851
0.00604328
0.0033037
0.00153948
0.000756347
0.000945023
0.00209395
0.00419745
0.00723634
0.0111859
0.0160081
0.0216382
0.0279677
0.0348421
0.0420459
0.0492013
0.0558615
0.0616476
0.0662329
0.0693979
0.0708407
0.094872
0.0818085
0.0703649
0.0600098
0.0504992
0.041692
0.0334911
0.0259339
0.0190921
0.0130292
0.00779321
0.00341957
-6.62778e-05
-0.00264943
-0.00432313
-0.0050847
-0.00494659
-0.00391977
-0.00201208
0.000758798
0.00437212
0.00879497
0.0139692
0.0198133
0.0262271
0.0329888
0.0396804
0.0458606
0.0511767
0.0553589
0.058185
0.0594469
0.082613
0.0707937
0.0602472
0.0507257
0.0418686
0.0335665
0.0258448
0.0187419
0.0123202
0.00663378
0.00172313
-0.0023814
-0.00565669
-0.00808978
-0.00967613
-0.0104155
-0.0103228
-0.0094086
-0.00768234
-0.00516022
-0.00186153
0.00218131
0.0069301
0.0123692
0.0184079
0.0247449
0.0309902
0.0367248
0.0416088
0.0454302
0.0479653
0.0490774
0.0715177
0.06067
0.0508801
0.042052
0.0338052
0.0260162
0.0187675
0.0121138
0.00610519
0.00078542
-0.00381124
-0.00765867
-0.0107332
-0.0130227
-0.0145247
-0.0152408
-0.0151878
-0.0143757
-0.0128152
-0.010523
-0.00752232
-0.0038355
0.000567267
0.00570668
0.0113868
0.0172859
0.0231109
0.0284382
0.0329309
0.0364274
0.0387119
0.0397008
0.0614563
0.0514006
0.0422869
0.0340213
0.0263001
0.0190123
0.0122222
0.0060133
0.000430544
-0.00451419
-0.00880751
-0.0124142
-0.0153018
-0.0174559
-0.0188768
-0.0195687
-0.0195494
-0.0188284
-0.0174185
-0.0153422
-0.0126226
-0.00922238
-0.00504529
-0.000179693
0.00510177
0.0105754
0.0160067
0.020972
0.0251214
0.028324
0.030391
0.0312797
0.0523015
0.0429517
0.0344617
0.026696
0.0194228
0.0125828
0.00622156
0.000419908
-0.00476919
-0.00933722
-0.0132946
-0.0166496
-0.0193653
-0.0213965
-0.0227416
-0.023409
-0.0234179
-0.0227779
-0.021508
-0.019637
-0.0171456
-0.0139056
-0.00991075
-0.00537945
-0.000498487
0.00458287
0.00964214
0.0142931
0.0181483
0.0210873
0.0229642
0.0237728
0.0440203
0.0353089
0.0273863
0.0200882
0.0132348
0.00680195
0.000829046
-0.00461885
-0.0094862
-0.0137352
-0.0173653
-0.0204214
-0.0229316
-0.024848
-0.0261266
-0.0267723
-0.0268063
-0.0262422
-0.0251062
-0.0234037
-0.0210182
-0.017876
-0.0141359
-0.00995916
-0.00544131
-0.000721257
0.00399365
0.00836421
0.0119636
0.014677
0.0163902
0.0171375
0.0366041
0.028462
0.0210446
0.0141797
0.00772592
0.00167211
-0.00394462
-0.00906749
-0.0136452
-0.0176377
-0.0210249
-0.0238166
-0.026073
-0.0278277
-0.0290382
-0.0296684
-0.0297313
-0.0292415
-0.0282117
-0.0265682
-0.0242162
-0.0212497
-0.0178056
-0.0139468
-0.00975891
-0.00537028
-0.000967055
0.00314703
0.00652274
0.00905123
0.0106281
0.0113322
0.0300298
0.0223911
0.0154206
0.00894985
0.00286666
-0.00283664
-0.00812485
-0.0129444
-0.0172478
-0.0210015
-0.0241879
-0.0268013
-0.0288587
-0.0304205
-0.031514
-0.0321115
-0.0322014
-0.0317592
-0.0307487
-0.0291048
-0.0268648
-0.0241326
-0.0209523
-0.0173766
-0.013487
-0.00939786
-0.0052757
-0.00139201
0.00179378
0.00417319
0.00564011
0.0063188
0.0242672
0.0170715
0.0104961
0.00438113
-0.0013648
-0.00674835
-0.0117358
-0.0162761
-0.0203243
-0.0238506
-0.0268433
-0.0293023
-0.0312339
-0.0326629
-0.0336295
-0.0341491
-0.0342046
-0.0337488
-0.0327313
-0.0311584
-0.0290914
-0.0265651
-0.023613
-0.0202869
-0.0166596
-0.012835
-0.00896191
-0.00528085
-0.00225324
1.04779e-05
0.0013924
0.0020632
0.0192884
0.0124788
0.00625131
0.000455025
-0.0049872
-0.0100823
-0.0147975
-0.0190843
-0.0229
-0.0262175
-0.0290278
-0.031336
-0.0331531
-0.0344929
-0.0353759
-0.0358112
-0.0357966
-0.0353098
-0.0343305
-0.0328654
-0.0309417
-0.028584
-0.0258252
-0.0227105
-0.0193067
-0.015709
-0.0120512
-0.00854434
-0.00564445
-0.00346449
-0.0021433
-0.00146393
0.015068
0.00859087
0.00266607
-0.00284854
-0.00802093
-0.0128592
-0.0173319
-0.0213923
-0.0250007
-0.0281328
-0.0307817
-0.0329541
-0.034663
-0.0359212
-0.0367393
-0.0371215
-0.0370733
-0.0365829
-0.0356432
-0.0342572
-0.0324414
-0.0302183
-0.0276154
-0.0246726
-0.0214524
-0.0180427
-0.0145648
-0.0112031
-0.00840135
-0.00627413
-0.00498964
-0.00428722
0.0115819
0.00538673
-0.000279289
-0.00554974
-0.0104872
-0.0151017
-0.0193631
-0.0232273
-0.026657
-0.0296311
-0.032145
-0.0342062
-0.0358265
-0.0370168
-0.0377846
-0.038133
-0.0380684
-0.0375813
-0.0366696
-0.0353387
-0.0336036
-0.031483
-0.0290001
-0.0261914
-0.0231153
-0.0198544
-0.0165195
-0.0132732
-0.0105403
-0.00843501
-0.00716427
-0.00642496
0.00880693
0.00284675
-0.00260325
-0.00766746
-0.0124059
-0.0168312
-0.020915
-0.0246156
-0.0278985
-0.0307451
-0.0331528
-0.0351291
-0.0366833
-0.0378225
-0.038551
-0.038871
-0.0387898
-0.0383008
-0.0374059
-0.0361126
-0.0344345
-0.0323874
-0.0299916
-0.0272808
-0.0243103
-0.0211584
-0.0179283
-0.014767
-0.0120721
-0.00995549
-0.00867612
-0.00789082
0.00672473
0.000953974
-0.00432208
-0.00921822
-0.0137945
-0.0180664
-0.0220078
-0.0255795
-0.028749
-0.0314996
-0.0338296
-0.0357453
-0.0372526
-0.0383539
-0.0390504
-0.0393435
-0.0392428
-0.0387453
-0.0378561
-0.0365839
-0.0349408
-0.03294
-0.0305997
-0.0279513
-0.0250479
-0.0219647
-0.0188006
-0.0156935
-0.0130018
-0.0108369
-0.00952872
-0.00868897
0.00532329
-0.00030471
-0.00544858
-0.0102151
-0.0146667
-0.0188221
-0.0226575
-0.0261354
-0.029225
-0.0319104
-0.0341897
-0.0360668
-0.0375434
-0.0386172
-0.039287
-0.0395546
-0.0394323
-0.0389202
-0.038026
-0.0367589
-0.0351291
-0.0331478
-0.0308313
-0.0282094
-0.0253335
-0.0222777
-0.0191402
-0.0160547
-0.0133296
-0.0110811
-0.00972919
-0.00880554
0.00459449
-0.000938639
-0.00599147
-0.010667
-0.0150319
-0.0191081
-0.0228741
-0.0262937
-0.0293364
-0.0319864
-0.0342407
-0.0360999
-0.0375608
-0.0386167
-0.0392648
-0.0395083
-0.0393625
-0.0388305
-0.0379213
-0.0366433
-0.035005
-0.0330154
-0.0306894
-0.0280562
-0.0251668
-0.0220956
-0.0189427
-0.0158379
-0.0130496
-0.0106928
-0.0092776
-0.00822327
0.00453315
-0.000951113
-0.00595432
-0.0105782
-0.014895
-0.01893
-0.0226636
-0.02606
-0.0290882
-0.0317317
-0.0339856
-0.0358471
-0.037307
-0.0383544
-0.0389861
-0.0392077
-0.0390374
-0.0384806
-0.0375463
-0.0362413
-0.0345714
-0.0325439
-0.0301732
-0.0274889
-0.0245429
-0.0214116
-0.0181978
-0.015028
-0.0121489
-0.00965919
-0.00814148
-0.00694909
0.00514042
-0.000337366
-0.00533346
-0.00994685
-0.0142551
-0.018287
-0.0220247
-0.0254324
-0.0284782
-0.0311443
-0.0334236
-0.0353081
-0.0367824
-0.0378316
-0.0384533
-0.0386562
-0.0384609
-0.0378738
-0.0369029
-0.0355522
-0.0338245
-0.0317264
-0.0292728
-0.0264955
-0.0234489
-0.020212
-0.0168911
-0.0136114
-0.0106083
-0.0079544
-0.00630295
-0.0049596
0.00642026
0.000908659
-0.0041214
-0.00876555
-0.0131053
-0.0171726
-0.0209516
-0.0244059
-0.0275024
-0.0302218
-0.0325536
-0.0344833
-0.0359879
-0.0370507
-0.0376705
-0.0378588
-0.0376371
-0.0370109
-0.0359871
-0.034567
-0.0327515
-0.0305469
-0.0279706
-0.0250575
-0.0218653
-0.0184767
-0.0150012
-0.0115654
-0.0083998
-0.00554228
-0.00371993
-0.00223474
0.00838141
0.00279714
-0.002307
-0.00702248
-0.0114335
-0.0155754
-0.019434
-0.0229723
-0.0261556
-0.0289624
-0.0313776
-0.0333773
-0.0349313
-0.0360195
-0.0366392
-0.0368101
-0.0365564
-0.0358771
-0.0347786
-0.0332613
-0.0313258
-0.0289788
-0.0262405
-0.0231495
-0.0197674
-0.0161802
-0.0125015
-0.00886206
-0.00549039
-0.00238649
-0.00036858
0.00128861
0.0110382
0.0053457
0.000128206
-0.00469885
-0.0092215
-0.0134783
-0.017457
-0.0211198
-0.0244306
-0.0273653
-0.0299017
-0.032008
-0.0336355
-0.0347485
-0.0353465
-0.0354723
-0.0351651
-0.0344198
-0.0332326
-0.0315941
-0.0295091
-0.0269876
-0.0240514
-0.0207427
-0.0171266
-0.0132932
-0.00936054
-0.00546701
-0.0018408
0.00155316
0.00378788
0.00567585
0.0144127
0.00857999
0.00321099
-0.00176794
-0.00644346
-0.0108573
-0.0149987
-0.0188296
-0.0223127
-0.0254203
-0.028127
-0.0303866
-0.0320894
-0.0331962
-0.0337563
-0.0338041
-0.033393
-0.0325619
-0.0312868
-0.029521
-0.0272652
-0.0245401
-0.0213729
-0.0178077
-0.0139128
-0.00978306
-0.00554218
-0.00134009
0.0025947
0.00632652
0.0088112
0.0109761
0.0185353
0.0125338
0.00697671
0.00180559
-0.00306492
-0.00767893
-0.0120269
-0.0160699
-0.0197693
-0.0230981
-0.0260197
-0.0283924
-0.0301148
-0.0312403
-0.0318168
-0.0318321
-0.0313094
-0.0303196
-0.0289025
-0.0270046
-0.0245685
-0.0216128
-0.0181788
-0.014316
-0.0100946
-0.00561418
-0.00100576
0.00356462
0.0078687
0.0119915
0.0147661
0.0172479
0.0234427
0.0172493
0.01147
0.0060667
0.000958596
-0.003899
-0.0084963
-0.0127932
-0.0167526
-0.0203462
-0.0234384
-0.0258468
-0.0276195
-0.0288433
-0.0294958
-0.0295402
-0.0289639
-0.0277884
-0.0261235
-0.0240226
-0.0213938
-0.0181872
-0.0144472
-0.0102391
-0.00563823
-0.000747696
0.00429332
0.00929765
0.0140408
0.0186145
0.0217227
0.0245582
0.0291785
0.0227778
0.0167455
0.0110707
0.00568194
0.000537295
-0.0043515
-0.00894326
-0.0132075
-0.0170558
-0.0202484
-0.0227474
-0.0246796
-0.0260398
-0.0267787
-0.0268593
-0.0262646
-0.0249729
-0.0230378
-0.0206072
-0.0177113
-0.0142352
-0.0101561
-0.00554939
-0.000508051
0.00485873
0.0104026
0.0159123
0.0211754
0.0262687
0.0297559
0.0329811
0.0357941
0.0291801
0.0228684
0.0168831
0.0111695
0.00569261
0.000467709
-0.00446352
-0.00906838
-0.0131212
-0.0164468
-0.0191608
-0.0213029
-0.0228158
-0.0236505
-0.0237712
-0.0231606
-0.0217904
-0.019658
-0.0168506
-0.0135357
-0.00971589
-0.00527069
-0.000217804
0.00533159
0.0112496
0.0173726
0.0234669
0.0293381
0.035026
0.0389388
0.0425999
0.043349
0.0365273
0.0299149
0.0235805
0.0174948
0.0116359
0.00602369
0.000689239
-0.0042387
-0.00849055
-0.0120761
-0.0150841
-0.0174633
-0.0191498
-0.0200974
-0.020267
-0.0196396
-0.0181863
-0.0158979
-0.0127883
-0.00897262
-0.00463134
0.000258149
0.00579749
0.0119178
0.0184688
0.0252572
0.032031
0.0385962
0.0449488
0.0493452
0.0534972
0.0519118
0.0449012
0.037973
0.0312506
0.0247413
0.0184462
0.0123904
0.00660224
0.00135923
-0.00318598
-0.00714929
-0.0104937
-0.01314
-0.0150279
-0.0161085
-0.0163379
-0.0156945
-0.0141471
-0.0116881
-0.00832238
-0.00407949
0.000899604
0.00643277
0.0125469
0.0192963
0.0265595
0.0341086
0.0416691
0.0490156
0.056101
0.0610491
0.0657561
0.0615614
0.0543955
0.0471441
0.0399936
0.0330045
0.0262123
0.0196307
0.013381
0.0077595
0.00276016
-0.00164712
-0.00536809
-0.00832031
-0.0104412
-0.0116761
-0.0119764
-0.0113183
-0.00966683
-0.00701378
-0.00336535
0.00125921
0.0068138
0.0131298
0.0200237
0.0275085
0.0355639
0.0439707
0.0524288
0.0606539
0.0685479
0.0741214
0.0794573
0.0723894
0.0651183
0.0575447
0.0499243
0.0423951
0.0350326
0.0278377
0.0210737
0.0149423
0.00937379
0.00445913
0.000308287
-0.00299602
-0.00538453
-0.00679656
-0.00717927
-0.00650687
-0.00474056
-0.0018703
0.00209857
0.00714655
0.0132365
0.0202926
0.0281208
0.0365392
0.0455063
0.0548754
0.0643444
0.0735513
0.0823391
0.0886238
0.0946755
0.0844995
0.077194
0.0693069
0.0611791
0.0530328
0.0449831
0.0371174
0.029727
0.0229041
0.0166794
0.0111878
0.00654344
0.00283597
0.000142667
-0.0014705
-0.00194715
-0.0012599
0.000634047
0.00374619
0.00807279
0.0135954
0.0202752
0.0280478
0.0367994
0.0463069
0.056362
0.0668273
0.0774264
0.0877236
0.097502
0.104603
0.111476
0.0980069
0.0907678
0.0825924
0.0739126
0.0650474
0.0561789
0.0475357
0.0393526
0.0316878
0.0247035
0.0185482
0.0133384
0.00917247
0.00613498
0.00429589
0.00371423
0.00441832
0.00645477
0.0098359
0.0145592
0.0206073
0.027941
0.0364932
0.0461621
0.0567811
0.0680748
0.0797928
0.0916505
0.103153
0.114034
0.122084
0.129909
0.113052
0.106016
0.0975882
0.0882823
0.0785675
0.0687527
0.0591496
0.0499594
0.0413179
0.033458
0.0265394
0.0206851
0.0160019
0.0125793
0.0104895
0.00979284
0.0105173
0.012713
0.016392
0.0215524
0.0281772
0.0362264
0.0456297
0.0562798
0.0680158
0.080608
0.093716
0.106951
0.119781
0.131892
0.141057
0.149992
0.129805
0.123151
0.114499
0.104466
0.0937341
0.0827935
0.0720094
0.0615926
0.0518123
0.042941
0.035148
0.0285642
0.0233018
0.0194524
0.0170882
0.0162678
0.0170177
0.0193903
0.0233963
0.0290334
0.0362845
0.0451071
0.055427
0.0671285
0.0800386
0.0939618
0.108525
0.123225
0.137503
0.150986
0.161466
0.171697
0.148465
0.142419
0.133573
0.122691
0.110716
0.0983937
0.0861672
0.0742889
0.0631738
0.0531337
0.0443447
0.0369411
0.0310358
0.0267184
0.024057
0.0231051
0.0238863
0.0264523
0.030812
0.0369618
0.044883
0.0545302
0.0658232
0.0786362
0.0927894
0.108085
0.124118
0.140338
0.156169
0.171169
0.183207
0.194941
0.169255
0.164123
0.155123
0.143226
0.129711
0.11566
0.101638
0.0880427
0.0753739
0.0639916
0.0540771
0.0457602
0.0391478
0.0343225
0.0313429
0.0302512
0.0310674
0.0338393
0.0385732
0.0452636
0.0538893
0.0644007
0.0767101
0.0906788
0.106128
0.122827
0.140336
0.158107
0.175571
0.19223
0.206114
0.219544
0.192424
0.188619
0.179489
0.166341
0.150914
0.1347
0.118483
0.102836
0.0883454
0.0754274
0.0642529
0.054929
0.0475466
0.0421773
0.0388621
0.0376217
0.0384711
0.0414529
0.0465708
0.0538167
0.0631667
0.0745665
0.0879197
0.103075
0.119851
0.137963
0.156955
0.1763
0.195432
0.213853
0.229845
0.245011
0.218225
0.216275
0.206963
0.1922
0.174416
0.155561
0.136756
0.11871
0.102109
0.0874141
0.0748135
0.0643675
0.0561302
0.0501637
0.0464879
0.0450839
0.0459555
0.0491388
0.0546348
0.0624333
0.0725083
0.0848021
0.0992099
0.115574
0.133689
0.153228
0.173715
0.194619
0.215385
0.235564
0.253643
0.270058
0.246915
0.247437
0.237677
0.220704
0.199965
0.177978
0.1562
0.135475
0.116529
0.0998514
0.0856554
0.0739711
0.0648059
0.0581846
0.0540863
0.0524629
0.053319
0.0566735
0.0625187
0.0708429
0.0816198
0.0947912
0.110249
0.127829
0.147294
0.168279
0.190259
0.21268
0.234963
0.256704
0.276261
0.292513
0.278683
0.282328
0.271458
0.251366
0.226915
0.201222
0.176028
0.152359
0.130937
0.112192
0.0963456
0.083418
0.0733227
0.0659921
0.0613826
0.0594758
0.0602659
0.06374
0.069881
0.0786776
0.0901071
0.104116
0.120603
0.139394
0.160223
0.182679
0.20618
0.230083
0.253698
0.276547
0.296305
0.310626
0.314038
0.321015
0.307695
0.28328
0.25433
0.224422
0.195418
0.168524
0.144558
0.123837
0.106362
0.0921321
0.0810638
0.0730192
0.067915
0.0657216
0.0664054
0.0699374
0.0763032
0.0854976
0.0975065
0.112292
0.129769
0.149776
0.172032
0.196078
0.221268
0.246737
0.271547
0.294519
0.312212
0.323373
0.352214
0.362072
0.344233
0.313959
0.279889
0.245797
0.213303
0.183546
0.15721
0.134517
0.115427
0.0999034
0.087849
0.0790858
0.0734843
0.0709477
0.0714344
0.0749129
0.0813865
0.0908656
0.103351
0.118835
0.137274
0.158547
0.182405
0.208374
0.235671
0.262989
0.288797
0.309881
0.32189
0.327854
0.396575
0.405434
0.380776
0.342522
0.302372
0.263622
0.227327
0.194744
0.16636
0.142079
0.121764
0.105278
0.0924279
0.0830275
0.0769658
0.0741045
0.0744176
0.0778503
0.084416
0.0941489
0.107077
0.123235
0.142639
0.165243
0.19086
0.219012
0.248665
0.277797
0.303432
0.319832
0.324878
0.326276
0.420988
0.43859
0.417114
0.374546
0.32996
0.286532
0.245423
0.208956
0.177705
0.151207
0.129099
0.111171
0.0972289
0.0870138
0.0802394
0.0768101
0.0766752
0.0798583
0.0863222
0.0960665
0.109154
0.125657
0.145627
0.169056
0.195778
0.225261
0.256273
0.286099
0.309641
0.321606
0.324691
0.325342
0.669423
0.654391
0.639187
0.620147
0.59848
0.574473
0.54816
0.519614
0.646517
0.630943
0.615541
0.595969
0.573501
0.548543
0.521201
0.49158
0.619854
0.604181
0.588851
0.569099
0.546174
0.520549
0.492399
0.461883
0.590482
0.574895
0.559743
0.540051
0.516944
0.490896
0.46217
0.430975
0.559117
0.543734
0.528842
0.509327
0.486251
0.460031
0.430982
0.399391
0.526317
0.511264
0.496688
0.477423
0.454582
0.428437
0.39935
0.367705
0.49263
0.478034
0.463806
0.444903
0.422484
0.396642
0.367813
0.336491
0.4586
0.444566
0.430755
0.412351
0.39049
0.36516
0.33688
0.306261
0.424729
0.411341
0.398039
0.380236
0.359053
0.334436
0.306982
0.277423
0.391447
0.378767
0.366049
0.34893
0.328548
0.304831
0.278454
0.250261
0.359113
0.347179
0.3351
0.318742
0.299272
0.276619
0.251526
0.224934
0.328014
0.316851
0.305449
0.289918
0.271453
0.249989
0.226334
0.201494
0.298374
0.287992
0.277296
0.262638
0.245241
0.225054
0.202928
0.17991
0.27036
0.260754
0.250775
0.237018
0.220726
0.20186
0.181298
0.160094
0.244078
0.235235
0.22597
0.213122
0.197944
0.180404
0.161389
0.141917
0.219592
0.211485
0.202922
0.190974
0.176892
0.160651
0.143121
0.125244
0.196924
0.189521
0.181634
0.170562
0.157542
0.14255
0.126428
0.110033
0.176063
0.169326
0.162084
0.151852
0.139845
0.126038
0.111243
0.0962699
0.156976
0.150863
0.144228
0.134793
0.12374
0.111033
0.0974382
0.0838421
0.13961
0.134079
0.128009
0.11932
0.109155
0.0974632
0.0849406
0.0726164
0.123896
0.11891
0.113361
0.105364
0.0960175
0.0852676
0.0737369
0.0624996
0.109767
0.10528
0.10021
0.0928509
0.0842529
0.0743656
0.0637486
0.0534285
0.0971512
0.0931176
0.0884819
0.0817065
0.0737843
0.0646717
0.0548789
0.0453458
0.0859737
0.0823484
0.0781049
0.0718571
0.0645392
0.0561136
0.0470525
0.0381997
0.076157
0.0728996
0.0690076
0.063233
0.0564514
0.0486312
0.0402138
0.0319471
0.0676281
0.0647018
0.0611233
0.0557702
0.0494608
0.0421699
0.0343158
0.0265518
0.0603194
0.0576906
0.0543906
0.0494103
0.043513
0.0366788
0.0293163
0.0219836
0.0541679
0.0518044
0.0487536
0.0441008
0.0385605
0.0321152
0.0251783
0.0182134
0.0491189
0.0469951
0.0441651
0.0397959
0.0345631
0.0284509
0.0218712
0.0152075
0.0451134
0.0431818
0.0405834
0.0364528
0.0314842
0.0256595
0.0193691
0.0129393
0.0421446
0.040488
0.0379815
0.034033
0.0292892
0.0237085
0.0176501
0.0113967
0.0401467
0.0387396
0.0362655
0.0325026
0.0279479
0.0225688
0.0166957
0.0105734
0.0390157
0.0376498
0.0353692
0.031826
0.0274319
0.022219
0.0164914
0.0104611
0.0387665
0.0374317
0.0353582
0.03199
0.0277246
0.0226466
0.0170292
0.0110552
0.0394457
0.0382462
0.0362639
0.0329914
0.0288206
0.0238419
0.0183062
0.0123611
0.0409987
0.0399816
0.0380201
0.0348135
0.030715
0.0258029
0.020325
0.014386
0.0433448
0.0424605
0.0405516
0.0374302
0.0333982
0.028535
0.0230917
0.0171345
0.046461
0.0456786
0.0438493
0.0408264
0.0368614
0.0320419
0.0266158
0.02062
0.0503456
0.0496651
0.0479203
0.0449967
0.0411018
0.036328
0.0309109
0.0248656
0.0549808
0.0544079
0.0527512
0.0499332
0.0461194
0.0414015
0.0359952
0.0299002
0.0603325
0.0598715
0.0583153
0.0556226
0.0519129
0.0472723
0.0418903
0.0357568
0.0663593
0.0660171
0.0645832
0.0620474
0.0584782
0.0539506
0.0486208
0.0424736
0.0730136
0.0728023
0.071521
0.0691855
0.0658077
0.0614459
0.0562132
0.0500945
0.0802374
0.0801744
0.0790855
0.0770068
0.0738884
0.0697643
0.0646959
0.0586704
0.0879577
0.0880655
0.0872193
0.0854702
0.0826991
0.0789061
0.0740963
0.068261
0.0960835
0.0963899
0.0958487
0.0945198
0.0922074
0.0888563
0.0844444
0.0789451
0.104502
0.105041
0.104879
0.104082
0.102371
0.0996062
0.0957774
0.0907982
0.113077
0.113885
0.114191
0.114057
0.113127
0.111151
0.108136
0.103883
0.121641
0.12276
0.123633
0.124315
0.124361
0.123453
0.121565
0.118284
0.129995
0.131468
0.133015
0.134688
0.135926
0.136443
0.13609
0.134104
0.137909
0.139771
0.142098
0.144958
0.147659
0.15001
0.151661
0.151436
0.145112
0.147391
0.150589
0.154811
0.159307
0.163961
0.16816
0.17035
0.151305
0.154005
0.158134
0.163834
0.170476
0.177967
0.185394
0.190879
0.15616
0.159259
0.164324
0.171557
0.180609
0.191442
0.202958
0.212947
0.159334
0.162735
0.168679
0.177405
0.188946
0.203463
0.220066
0.236296
0.160519
0.16396
0.17065
0.180643
0.194484
0.212687
0.235217
0.260133
0.159512
0.162887
0.169756
0.180474
0.196009
0.217185
0.245711
0.283101
0.156075
0.159225
0.165572
0.176147
0.192196
0.214697
0.246249
0.299017
0.150052
0.152471