/*--------------------------------*- C++ -*----------------------------------*\
| =========                 |                                                 |
| \\      /  F ield         | OpenFOAM: The Open Source CFD Toolbox           |
|  \\    /   O peration     | Version:  v2012                                 |
|   \\  /    A nd           | Website:  www.openfoam.com                      |
|    \\/     M anipulation  |                                                 |
\*---------------------------------------------------------------------------*/
FoamFile
{
    version     2.0;
    format      ascii;
    class       surfaceScalarField;
    location    "734";
    object      phi;
}
// * * * * * * * * * * * * * * * * * * * * * * * * * * * * * * * * * * * * * //

dimensions      [0 3 -1 0 0 0 0];
oriented        oriented;


internalField   nonuniform List<scalar> 
11793
(
-0.000199739
-3.95338e-07
0.000200134
-0.000199454
-2.85018e-07
-0.000199259
-1.95016e-07
-0.000199136
-1.22825e-07
-0.00019907
-6.65279e-08
-0.000199044
-2.54515e-08
-0.000199048
3.69415e-09
-0.000199073
2.47436e-08
-0.000199113
4.02133e-08
-0.000199165
5.19397e-08
-0.000199226
6.10742e-08
-0.000199295
6.86668e-08
-0.00019937
7.54638e-08
-0.000199452
8.19402e-08
-0.00019954
8.82554e-08
-0.000199634
9.41966e-08
-0.000199733
9.88585e-08
-0.000199836
1.0234e-07
-0.000199936
1.00631e-07
6.36739e-08
-0.000200992
-8.08112e-07
0.000201405
-0.000200693
-5.8437e-07
-0.000200476
-4.12205e-07
-0.00020032
-2.78689e-07
-0.000200212
-1.74274e-07
-0.000200139
-9.88761e-08
-0.00020009
-4.50699e-08
-0.000200058
-6.84484e-09
-0.000200039
2.04684e-08
-0.000200027
4.02826e-08
-0.000200021
5.50981e-08
-0.000200019
6.67321e-08
-0.00020002
7.64384e-08
-0.000200023
8.49573e-08
-0.000200027
9.23698e-08
-0.000200031
9.84253e-08
-0.000200035
1.02237e-07
-0.000200034
1.01879e-07
-0.000200022
8.78346e-08
4.212e-08
-0.000201265
-1.22319e-06
0.00020168
-0.000200962
-8.87168e-07
-0.000200748
-6.26577e-07
-0.000200598
-4.28792e-07
-0.00020049
-2.82068e-07
-0.000200412
-1.7701e-07
-0.000200354
-1.02939e-07
-0.000200309
-5.10792e-08
-0.000200274
-1.47528e-08
-0.000200245
1.08379e-08
-0.000200219
2.92443e-08
-0.000200195
4.29304e-08
-0.000200172
5.35874e-08
-0.00020015
6.23016e-08
-0.000200126
6.91595e-08
-0.000200102
7.37392e-08
-0.000200075
7.59275e-08
-0.000200047
7.30573e-08
-0.000200017
5.85072e-08
2.4832e-08
-0.00020126
-1.62077e-06
0.000201658
-0.000200983
-1.16398e-06
-0.000200793
-8.16541e-07
-0.000200662
-5.60212e-07
-0.000200568
-3.76116e-07
-0.000200498
-2.46831e-07
-0.000200444
-1.57249e-07
-0.000200399
-9.56368e-08
-0.00020036
-5.33887e-08
-0.000200325
-2.43789e-08
-0.000200292
-4.27578e-09
-0.000200259
9.8959e-09
-0.000200225
2.01496e-08
-0.000200191
2.77586e-08
-0.000200155
3.32613e-08
-0.000200118
3.68195e-08
-0.00020008
3.83774e-08
-0.000200044
3.64467e-08
-0.000200013
2.82457e-08
1.14054e-08
-0.000201095
-1.97999e-06
0.000201454
-0.000200865
-1.3937e-06
-0.000200718
-9.63955e-07
-0.00020062
-6.57562e-07
-0.000200552
-4.44602e-07
-0.0002005
-2.98796e-07
-0.000200457
-1.9997e-07
-0.000200419
-1.33398e-07
-0.000200384
-8.87465e-08
-0.000200349
-5.89007e-08
-0.000200315
-3.89976e-08
-0.000200279
-2.57551e-08
-0.000200242
-1.69776e-08
-0.000200203
-1.12065e-08
-0.000200162
-7.398e-09
-0.000200121
-4.7889e-09
-0.000200079
-3.0355e-09
-0.000200041
-1.8459e-09
-0.000200012
-9.73035e-10
-3.23308e-10
-0.000200791
-2.27369e-06
0.000201085
-0.000200635
-1.54922e-06
-0.000200552
-1.04762e-06
-0.000200504
-7.05241e-07
-0.000200472
-4.76659e-07
-0.000200446
-3.2502e-07
-0.000200421
-2.24935e-07
-0.000200395
-1.59089e-07
-0.000200368
-1.1597e-07
-0.000200339
-8.79773e-08
-0.000200308
-7.00891e-08
-0.000200274
-5.89868e-08
-0.000200239
-5.24837e-08
-0.000200201
-4.90829e-08
-0.000200161
-4.73753e-08
-0.00020012
-4.59385e-08
-0.000200079
-4.41313e-08
-0.000200041
-3.99488e-08
-0.000200012
-3.00493e-08
-1.20014e-08
-0.000200338
-2.46483e-06
0.000200529
-0.000200295
-1.59142e-06
-0.000200302
-1.04147e-06
-0.00020032
-6.86855e-07
-0.000200334
-4.62269e-07
-0.00020034
-3.18877e-07
-0.000200338
-2.27152e-07
-0.000200329
-1.68392e-07
-0.000200314
-1.30909e-07
-0.000200295
-1.07359e-07
-0.000200272
-9.30702e-08
-0.000200246
-8.50197e-08
-0.000200217
-8.12808e-08
-0.000200185
-8.04697e-08
-0.000200151
-8.12698e-08
-0.000200116
-8.15494e-08
-0.000200079
-8.07734e-08
-0.000200043
-7.60653e-08
-0.000200013
-5.98874e-08
-2.5283e-08
-0.000199676
-2.4857e-06
0.000199697
-0.000199816
-1.45142e-06
-0.000199947
-9.10612e-07
-0.000200049
-5.84716e-07
-0.000200119
-3.92317e-07
-0.000200163
-2.7464e-07
-0.000200188
-2.0205e-07
-0.0002002
-1.56904e-07
-0.000200202
-1.28906e-07
-0.000200197
-1.1198e-07
-0.000200188
-1.02421e-07
-0.000200175
-9.79392e-08
-0.000200159
-9.70177e-08
-0.000200141
-9.83868e-08
-0.000200121
-1.01217e-07
-0.000200099
-1.04105e-07
-0.000200074
-1.05787e-07
-0.000200046
-1.04276e-07
-0.000200017
-8.85433e-08
-4.23417e-08
-0.000198618
-2.08278e-06
0.000198215
-0.000199075
-9.94746e-07
-0.000199383
-6.02077e-07
-0.00019959
-3.77559e-07
-0.000199726
-2.56354e-07
-0.000199816
-1.84388e-07
-0.000199877
-1.41701e-07
-0.000199918
-1.1594e-07
-0.000199946
-1.00488e-07
-0.000199966
-9.16426e-08
-0.000199982
-8.72084e-08
-0.000199994
-8.58699e-08
-0.000200004
-8.67804e-08
-0.000200013
-8.92828e-08
-0.000200021
-9.30391e-08
-0.000200028
-9.72923e-08
-0.000200033
-1.00826e-07
-0.000200034
-1.0372e-07
-0.000200021
-1.00776e-07
-6.37395e-08
-0.000196227
0.000194144
-0.000197221
-0.000197823
-0.000198201
-0.000198457
-0.000198642
-0.000198783
-0.000198899
-0.000199
-0.000199091
-0.000199179
-0.000199265
-0.000199351
-0.000199441
-0.000199534
-0.000199631
-0.000199732
-0.000199835
-0.000199936
-8.07242e-05
1.67739e-05
6.39503e-05
-9.59529e-05
1.52287e-05
-0.000109843
1.38902e-05
-0.000122538
1.26947e-05
-0.000134134
1.15964e-05
-0.000144704
1.05697e-05
-0.000154301
9.59724e-06
-0.000162969
8.66803e-06
-0.000170745
7.77592e-06
-0.000177664
6.91855e-06
-0.00018376
6.09661e-06
-0.000189073
5.31262e-06
-0.00019364
4.56763e-06
-0.000197501
3.86082e-06
-0.000200694
3.19322e-06
-0.000203262
2.56729e-06
-0.000205246
1.98465e-06
-0.000206693
1.44647e-06
-0.000207648
9.5469e-07
-0.00020816
5.12515e-07
-0.000208282
1.22267e-07
-0.000208068
-2.1456e-07
-0.000207573
-4.94931e-07
-0.000206858
-7.15332e-07
-0.000205984
-8.7393e-07
-0.000205013
-9.70209e-07
-0.000204008
-1.00499e-06
-0.000203027
-9.81794e-07
-0.000202118
-9.0828e-07
-0.000201322
-7.96692e-07
-0.000200659
-6.62964e-07
-5.24203e-07
-9.5741e-05
3.06791e-05
8.18357e-05
-0.000108894
2.83819e-05
-0.000121181
2.61767e-05
-0.000132586
2.41001e-05
-0.000143124
2.21348e-05
-0.000152813
2.02581e-05
-0.000161667
1.84512e-05
-0.000169701
1.67026e-05
-0.000176932
1.50068e-05
-0.000183377
1.33638e-05
-0.000189057
1.17767e-05
-0.000193995
1.02497e-05
-0.000198215
8.78799e-06
-0.000201751
7.39715e-06
-0.000204641
6.08279e-06
-0.000206923
4.8498e-06
-0.000208641
3.70188e-06
-0.000209836
2.64157e-06
-0.000210554
1.67253e-06
-0.000210843
8.01854e-07
-0.000210756
3.53452e-08
-0.000210345
-6.25102e-07
-0.000209668
-1.17269e-06
-0.000208784
-1.59872e-06
-0.000207759
-1.89893e-06
-0.000206657
-2.07252e-06
-0.000205541
-2.12127e-06
-0.00020447
-2.05273e-06
-0.000203494
-1.88372e-06
-0.00020265
-1.64111e-06
-0.000201954
-1.35919e-06
-1.07277e-06
-0.000102517
4.30921e-05
9.01041e-05
-0.000114457
4.03218e-05
-0.000125816
3.75359e-05
-0.000136519
3.48031e-05
-0.000146521
3.21364e-05
-0.000155793
2.95303e-05
-0.000164319
2.69768e-05
-0.000172088
2.44723e-05
-0.0001791
2.20185e-05
-0.000185359
1.96225e-05
-0.000190876
1.72943e-05
-0.000195672
1.5045e-05
-0.00019977
1.28861e-05
-0.000203201
1.08281e-05
-0.000205998
8.88025e-06
-0.000208199
7.05051e-06
-0.000209842
5.34517e-06
-0.000210969
3.76798e-06
-0.00021162
2.32353e-06
-0.000211842
1.02381e-06
-0.000211688
-1.18699e-07
-0.000211207
-1.10527e-06
-0.000210455
-1.92474e-06
-0.000209494
-2.56016e-06
-0.000208389
-3.00388e-06
-0.000207206
-3.25499e-06
-0.000206013
-3.3151e-06
-0.000204871
-3.1939e-06
-0.000203838
-2.9167e-06
-0.000202954
-2.52599e-06
-0.000202236
-2.07724e-06
-1.62848e-06
-0.000106416
5.46181e-05
9.48895e-05
-0.00011763
5.15361e-05
-0.000128419
4.83253e-05
-0.000138688
4.50723e-05
-0.000148366
4.18138e-05
-0.000157398
3.85626e-05
-0.000165747
3.53256e-05
-0.000173386
3.21112e-05
-0.0001803
2.89329e-05
-0.000186486
2.5808e-05
-0.000191948
2.27563e-05
-0.000196701
1.9798e-05
-0.000200766
1.69516e-05
-0.000204171
1.42331e-05
-0.000206947
1.16558e-05
-0.000209127
9.2313e-06
-0.000210751
6.96856e-06
-0.000211855
4.87201e-06
-0.000212477
2.94574e-06
-0.000212658
1.20533e-06
-0.000212455
-3.22372e-07
-0.000211915
-1.64534e-06
-0.000211088
-2.75151e-06
-0.000210038
-3.61011e-06
-0.000208835
-4.20668e-06
-0.000207548
-4.54174e-06
-0.000206249
-4.61485e-06
-0.000205009
-4.43372e-06
-0.000203895
-4.03056e-06
-0.000202955
-3.46567e-06
-0.000202213
-2.81996e-06
-2.18351e-06
-0.000108873
6.56037e-05
9.78878e-05
-0.000119636
6.2299e-05
-0.000130065
5.87536e-05
-0.000140059
5.50669e-05
-0.000149537
5.12914e-05
-0.000158429
4.74551e-05
-0.000166683
4.35796e-05
-0.00017426
3.96876e-05
-0.000181133
3.58064e-05
-0.000187292
3.1967e-05
-0.000192737
2.82016e-05
-0.00019748
2.45409e-05
-0.000201541
2.1012e-05
-0.000204945
1.76369e-05
-0.000207722
1.44332e-05
-0.000209906
1.14157e-05
-0.000211534
8.59599e-06
-0.000212641
5.97878e-06
-0.000213263
3.56835e-06
-0.000213428
1.37038e-06
-0.000213184
-5.66988e-07
-0.000212595
-2.23432e-06
-0.000211693
-3.65303e-06
-0.000210542
-4.76101e-06
-0.000209222
-5.52695e-06
-0.000207805
-5.95909e-06
-0.000206367
-6.0528e-06
-0.000204995
-5.80546e-06
-0.000203773
-5.25275e-06
-0.000202762
-4.47661e-06
-0.000201994
-3.58754e-06
-2.7239e-06
-0.000110362
7.62697e-05
9.96963e-05
-0.000120847
7.27838e-05
-0.00013105
6.89568e-05
-0.000140874
6.48911e-05
-0.00015023
6.06468e-05
-0.000159038
5.62631e-05
-0.000167233
5.17749e-05
-0.000174766
4.72208e-05
-0.000181605
4.26453e-05
-0.000187734
3.80961e-05
-0.000193154
3.36208e-05
-0.000197876
2.92629e-05
-0.000201923
2.50588e-05
-0.000205322
2.10365e-05
-0.000208105
1.72162e-05
-0.000210303
1.36138e-05
-0.000211952
1.02444e-05
-0.000213088
7.11532e-06
-0.000213748
4.2282e-06
-0.000213974
1.59633e-06
-0.000213751
-7.90305e-07
-0.000213137
-2.84847e-06
-0.000212193
-4.59653e-06
-0.000210957
-5.99716e-06
-0.000209524
-6.96044e-06
-0.000207968
-7.51491e-06
-0.00020637
-7.65028e-06
-0.000204835
-7.34112e-06
-0.000203476
-6.61144e-06
-0.000202376
-5.57673e-06
-0.000201588
-4.3752e-06
-3.22745e-06
-0.00011108
8.67517e-05
0.000100598
-0.000121395
8.30993e-05
-0.000131455
7.90172e-05
-0.000141165
7.46005e-05
-0.000150427
6.99089e-05
-0.000159153
6.49888e-05
-0.000167267
5.98888e-05
-0.000174712
5.46661e-05
-0.000181453
4.93863e-05
-0.000187476
4.41191e-05
-0.000192786
3.89314e-05
-0.000197406
3.3882e-05
-0.000201365
2.90182e-05
-0.000204702
2.43738e-05
-0.000207457
1.99709e-05
-0.000209663
1.58201e-05
-0.000211342
1.1923e-05
-0.000212521
8.29423e-06
-0.000213274
4.98139e-06
-0.000213629
1.95121e-06
-0.000213577
-8.42108e-07
-0.000213078
-3.34697e-06
-0.000212182
-5.49239e-06
-0.000210978
-7.20186e-06
-0.000209513
-8.42534e-06
-0.000207875
-9.15238e-06
-0.000206151
-9.37459e-06
-0.000204442
-9.05071e-06
-0.00020294
-8.11332e-06
-0.000201745
-6.77094e-06
-0.00020096
-5.1607e-06
-3.65869e-06
-0.000111114
9.7121e-05
0.000100745
-0.000121314
9.32991e-05
-0.000131261
8.89642e-05
-0.000140854
8.41939e-05
-0.000149987
7.90413e-05
-0.000158555
7.35577e-05
-0.000166474
6.78071e-05
-0.000173678
6.18705e-05
-0.000180134
5.58422e-05
-0.000185836
4.98207e-05
-0.000190803
4.38986e-05
-0.000195076
3.81548e-05
-0.000198707
3.2649e-05
-0.000201754
2.74215e-05
-0.000204278
2.24946e-05
-0.000206333
1.78746e-05
-0.000207969
1.35592e-05
-0.000209229
9.55426e-06
-0.000210125
5.87792e-06
-0.000210666
2.49193e-06
-0.000210872
-6.365e-07
-0.000210742
-3.47618e-06
-0.000210286
-5.94843e-06
-0.000209488
-7.99983e-06
-0.000208316
-9.59764e-06
-0.000206809
-1.06593e-05
-0.000205164
-1.10199e-05
-0.000203442
-1.07726e-05
-0.000201927
-9.62793e-06
-0.000200713
-7.98488e-06
-0.000199991
-5.88359e-06
-3.95214e-06
-0.000110498
0.000107396
0.000100222
-0.000120581
0.000103382
-0.000130382
9.8765e-05
-0.000139783
9.35953e-05
-0.000148656
8.7914e-05
-0.000156875
8.17765e-05
-0.000164335
7.52673e-05
-0.000170965
6.85005e-05
-0.000176733
6.16109e-05
-0.000181651
5.47378e-05
-0.000185761
4.80091e-05
-0.000189136
4.15296e-05
-0.000191862
3.53749e-05
-0.000194032
2.95919e-05
-0.000195739
2.42018e-05
-0.000197071
1.92064e-05
-0.00019811
1.45975e-05
-0.000198925
1.03696e-05
-0.000199559
6.51216e-06
-0.000200059
2.99227e-06
-0.000200484
-2.1154e-07
-0.000200865
-3.09542e-06
-0.000201191
-5.62312e-06
-0.000201412
-7.77836e-06
-0.000201472
-9.53783e-06
-0.00020129
-1.08407e-05
-0.000200781
-1.15296e-05
-0.000200017
-1.15364e-05
-0.000199165
-1.04798e-05
-0.000198362
-8.78784e-06
-0.00019792
-6.32581e-06
-3.65702e-06
-0.000109223
9.90732e-05
0.000117546
-0.000119129
0.000113289
-0.000128676
0.000108312
-0.000137712
0.000102631
-0.000146067
9.6269e-05
-0.000153578
8.92875e-05
-0.000160114
8.18027e-05
-0.000165593
7.39793e-05
-0.000169994
6.60121e-05
-0.000173354
5.80976e-05
-0.000175753
5.04087e-05
-0.000177302
4.30789e-05
-0.000178123
3.61959e-05
-0.000178338
2.98067e-05
-0.000178061
2.3925e-05
-0.000177397
1.85423e-05
-0.000176441
1.36409e-05
-0.000175274
9.20295e-06
-0.000173969
5.20713e-06
-0.000172611
1.63425e-06
-0.000171331
-1.4916e-06
-0.00017029
-4.13669e-06
-0.000169622
-6.29045e-06
-0.000169466
-7.93491e-06
-0.00017006
-8.94342e-06
-0.000171563
-9.33817e-06
-0.000173942
-9.15071e-06
-0.000177173
-8.30519e-06
-0.000180887
-6.76599e-06
-0.000184812
-4.86216e-06
-0.00018858
-2.55864e-06
1.9072e-06
7.98986e-06
-7.98985e-06
1.00049e-05
-2.01504e-06
7.12722e-06
2.8777e-06
8.83535e-07
6.2437e-06
-9.93246e-06
1.0816e-05
-2.62396e-05
1.63071e-05
-4.53903e-05
1.91507e-05
1.856e-05
4.73258e-06
-1.27224e-05
2.70799e-06
9.55016e-09
-4.36751e-06
9.95321e-06
-1.72034e-05
1.90796e-05
-3.43079e-05
2.79205e-05
-5.17606e-05
3.37599e-05
-6.74146e-05
3.48047e-05
3.29811e-05
-9.38158e-07
-1.17842e-05
-7.66552e-06
6.73692e-06
-1.9138e-05
2.14257e-05
-3.43636e-05
3.43053e-05
-5.01957e-05
4.37525e-05
-6.44409e-05
4.80051e-05
-7.74223e-05
4.77862e-05
4.56629e-05
-6.89293e-06
-4.89131e-06
-1.73905e-05
1.72345e-05
-3.10146e-05
3.50498e-05
-4.57595e-05
4.90502e-05
-5.93547e-05
5.73477e-05
-7.15073e-05
6.01577e-05
-8.31975e-05
5.94764e-05
5.73548e-05
-1.14013e-05
6.50998e-06
-2.45701e-05
3.04034e-05
-3.88346e-05
4.93142e-05
-5.24267e-05
6.26423e-05
-6.45129e-05
6.94339e-05
-7.57048e-05
7.13495e-05
-8.67856e-05
7.05573e-05
6.8457e-05
-1.44436e-05
2.09536e-05
-2.91513e-05
4.5111e-05
-4.3309e-05
6.34719e-05
-5.59641e-05
7.52973e-05
-6.73084e-05
8.07782e-05
-7.81413e-05
8.21824e-05
-8.89299e-05
8.13459e-05
7.92234e-05
-1.62473e-05
3.72009e-05
-3.15995e-05
6.04632e-05
-4.54162e-05
7.72886e-05
-5.75364e-05
8.74176e-05
-6.86233e-05
9.18651e-05
-7.93598e-05
9.29189e-05
-9.00126e-05
9.19987e-05
8.98085e-05
-1.72567e-05
5.44577e-05
-3.25534e-05
7.57599e-05
-4.60052e-05
9.07404e-05
-5.78764e-05
9.92888e-05
-6.89317e-05
0.00010292
-7.96667e-05
0.000103654
-9.02585e-05
0.00010259
0.000100295
-1.74946e-05
7.19522e-05
-3.25147e-05
9.078e-05
-4.56599e-05
0.000103886
-5.74206e-05
0.000111049
-6.85028e-05
0.000114003
-7.92523e-05
0.000114403
-8.98067e-05
0.000113145
0.00011071
-1.70915e-05
8.90438e-05
-3.18065e-05
0.000105495
-4.47234e-05
0.000116803
-5.64314e-05
0.000122757
-6.75128e-05
0.000125084
-7.82445e-05
0.000125135
-8.87455e-05
0.000123646
0.000121038
-0.000113881
0.000128103
0.000103324
-0.000124074
0.000123482
-0.000133726
0.000117964
-0.000142609
0.000111514
-0.000150476
0.000104136
-0.000157101
9.59125e-05
-0.000162322
8.70244e-05
-0.000166071
7.77285e-05
-0.000168377
6.83182e-05
-0.000169353
5.9073e-05
-0.000169163
5.02192e-05
-0.000167995
4.19105e-05
-0.000166027
3.42282e-05
-0.000163416
2.71955e-05
-0.000160286
2.07949e-05
-0.000156731
1.49877e-05
-0.000152819
9.72902e-06
-0.000148596
4.97965e-06
-0.000144095
7.05559e-07
-0.000139321
-3.13888e-06
-0.000134194
-6.61856e-06
-0.00012856
-9.77122e-06
-0.000122272
-1.25788e-05
-0.000115196
-1.50101e-05
-0.000107086
-1.70536e-05
-9.76247e-05
-1.87997e-05
-8.65871e-05
-2.01883e-05
-7.38865e-05
-2.10057e-05
-5.95825e-05
-2.107e-05
-4.39501e-05
-2.04946e-05
-2.56853e-05
-2.08234e-05
-2.37781e-05
-0.000110785
0.000138277
0.000100612
-0.000120415
0.000133111
-0.00012924
0.000126789
-0.000136942
0.000119216
-0.000143206
0.000110399
-0.000147787
0.000100494
-0.000150576
8.98128e-05
-0.000151622
7.87752e-05
-0.000151126
6.78217e-05
-0.000149385
5.73316e-05
-0.000146737
4.75716e-05
-0.00014351
3.86838e-05
-0.000139985
3.07033e-05
-0.000136378
2.35876e-05
-0.00013283
1.7247e-05
-0.000129411
1.15688e-05
-0.000126117
6.43569e-06
-0.000122871
1.73363e-06
-0.000119522
-2.6437e-06
-0.000115876
-6.78484e-06
-0.000111764
-1.07303e-05
-0.000107045
-1.44903e-05
-0.000101556
-1.80682e-05
-9.5085e-05
-2.14811e-05
-8.73667e-05
-2.47719e-05
-7.81544e-05
-2.8012e-05
-6.71387e-05
-3.1204e-05
-5.40017e-05
-3.41428e-05
-3.85368e-05
-3.65349e-05
-2.08268e-05
-3.82047e-05
-3.91766e-06
-3.77325e-05
-2.76957e-05
-0.000106776
0.000147873
9.71799e-05
-0.000115571
0.000141906
-0.000123204
0.000134421
-0.000129282
0.000125294
-0.000133479
0.000114596
-0.000135643
0.000102658
-0.000135862
9.00318e-05
-0.000134457
7.73702e-05
-0.000131909
6.52737e-05
-0.000128752
5.41751e-05
-0.000125473
4.42926e-05
-0.000122435
3.5646e-05
-0.000119842
2.811e-05
-0.000117734
2.1479e-05
-0.000116014
1.55273e-05
-0.000114499
1.00536e-05
-0.000112967
4.90434e-06
-0.000111209
-2.46176e-08
-0.000109054
-4.79851e-06
-0.000106393
-9.44649e-06
-0.000103141
-1.3982e-05
-9.92121e-05
-1.84191e-05
-9.45094e-05
-2.27709e-05
-8.89203e-05
-2.70703e-05
-8.23082e-05
-3.13839e-05
-7.45174e-05
-3.58027e-05
-6.53473e-05
-4.03741e-05
-5.44852e-05
-4.5005e-05
-4.16279e-05
-4.93922e-05
-2.69727e-05
-5.28599e-05
-1.21117e-05
-5.25935e-05
-3.98075e-05
-0.000101858
0.000156684
9.30475e-05
-0.000109548
0.000149596
-0.000115677
0.00014055
-0.000119843
0.00012946
-0.000121833
0.000116587
-0.000121745
0.00010257
-0.000120002
8.82885e-05
-0.000117257
7.46247e-05
-0.00011422
6.22373e-05
-0.000111486
5.14413e-05
-0.000109411
4.22172e-05
-0.000108077
3.43126e-05
-0.000107347
2.73796e-05
-0.000106958
2.10903e-05
-0.00010663
1.51992e-05
-0.000106127
9.55047e-06
-0.00010528
4.05703e-06
-0.000103978
-1.32602e-06
-0.000102153
-6.62369e-06
-9.97511e-05
-1.18484e-05
-9.67147e-05
-1.70183e-05
-9.29848e-05
-2.2149e-05
-8.84957e-05
-2.726e-05
-8.31782e-05
-3.23878e-05
-7.69636e-05
-3.75984e-05
-6.97793e-05
-4.2987e-05
-6.15131e-05
-4.86403e-05
-5.19616e-05
-5.45566e-05
-4.08987e-05
-6.04551e-05
-2.83097e-05
-6.54489e-05
-1.45353e-05
-6.63679e-05
-5.43427e-05
-9.61092e-05
0.000164521
8.82721e-05
-0.000102488
0.000155975
-0.00010695
0.000145012
-0.000109197
0.000131707
-0.000109272
0.000116662
-0.000107628
0.000100926
-0.000105036
8.56962e-05
-0.000102346
7.19346e-05
-0.00010023
6.01209e-05
-9.90094e-05
5.02212e-05
-9.86459e-05
4.18537e-05
-9.88605e-05
3.45272e-05
-9.9305e-05
2.78241e-05
-9.96846e-05
2.14699e-05
-9.97996e-05
1.53141e-05
-9.95314e-05
9.28235e-06
-9.88115e-05
3.33706e-06
-9.75938e-05
-2.54367e-06
-9.58382e-05
-8.37932e-06
-9.35013e-05
-1.41853e-05
-9.05382e-05
-1.99814e-05
-8.69017e-05
-2.57856e-05
-8.25423e-05
-3.16195e-05
-7.74133e-05
-3.75168e-05
-7.14799e-05
-4.35318e-05
-6.47214e-05
-4.97455e-05
-5.71008e-05
-5.62609e-05
-4.85064e-05
-6.31509e-05
-3.87705e-05
-7.0191e-05
-2.76967e-05
-7.65227e-05
-1.49229e-05
-7.91417e-05
-6.92657e-05
-8.96886e-05
0.000171254
8.29561e-05
-9.46684e-05
0.000160955
-9.7507e-05
0.00014785
-9.81275e-05
0.000132327
-9.69144e-05
0.000115448
-9.46658e-05
9.86778e-05
-9.23337e-05
8.33641e-05
-9.06801e-05
7.02811e-05
-9.00383e-05
5.94791e-05
-9.03023e-05
5.04852e-05
-9.11122e-05
4.26636e-05
-9.20792e-05
3.54942e-05
-9.29167e-05
2.86616e-05
-9.34581e-05
2.20113e-05
-9.36187e-05
1.54747e-05
-9.33537e-05
9.01732e-06
-9.26322e-05
2.61558e-06
-9.14243e-05
-3.75153e-06
-8.96966e-05
-1.0107e-05
-8.7411e-05
-1.64709e-05
-8.45272e-05
-2.28652e-05
-8.10029e-05
-2.93099e-05
-7.67957e-05
-3.58266e-05
-7.18691e-05
-4.24434e-05
-6.6201e-05
-4.92e-05
-5.97908e-05
-5.61557e-05
-5.26461e-05
-6.34056e-05
-4.47388e-05
-7.10582e-05
-3.59533e-05
-7.89765e-05
-2.60108e-05
-8.64652e-05
-1.42738e-05
-9.08787e-05
-8.35394e-05
-8.28215e-05
0.000176833
7.72424e-05
-8.64512e-05
0.000164585
-8.79044e-05
0.000149304
-8.73979e-05
0.000131821
-8.56456e-05
0.000113696
-8.36408e-05
9.66729e-05
-8.22586e-05
8.19819e-05
-8.19201e-05
6.99426e-05
-8.25319e-05
6.00909e-05
-8.36999e-05
5.16532e-05
-8.50075e-05
4.39712e-05
-8.61677e-05
3.66545e-05
-8.70311e-05
2.95249e-05
-8.75314e-05
2.25117e-05
-8.76385e-05
1.55817e-05
-8.73318e-05
8.71068e-06
-8.65908e-05
1.87453e-06
-8.539e-05
-4.9523e-06
-8.36994e-05
-1.17977e-05
-8.14839e-05
-1.86864e-05
-7.87054e-05
-2.56437e-05
-7.53239e-05
-3.26914e-05
-7.13005e-05
-3.985e-05
-6.66034e-05
-4.71406e-05
-6.12142e-05
-5.45892e-05
-5.51361e-05
-6.22338e-05
-4.8394e-05
-7.01477e-05
-4.10181e-05
-7.84341e-05
-3.29456e-05
-8.7049e-05
-2.38953e-05
-9.55156e-05
-1.31896e-05
-0.000101584
-9.6729e-05
-7.57643e-05
0.000181298
7.12994e-05
-7.8215e-05
0.000167035
-7.86473e-05
0.000149736
-7.75739e-05
0.000130748
-7.59274e-05
0.00011205
-7.46829e-05
9.54284e-05
-7.44232e-05
8.17222e-05
-7.516e-05
7.06794e-05
-7.65147e-05
6.14456e-05
-7.80445e-05
5.3183e-05
-7.94434e-05
4.53701e-05
-8.05601e-05
3.77712e-05
-8.13358e-05
3.03006e-05
-8.17486e-05
2.29244e-05
-8.17861e-05
1.56193e-05
-8.14357e-05
8.36029e-06
-8.06806e-05
1.11945e-06
-7.94985e-05
-6.13445e-06
-7.78617e-05
-1.34345e-05
-7.5737e-05
-2.0811e-05
-7.30875e-05
-2.82932e-05
-6.98739e-05
-3.59051e-05
-6.60589e-05
-4.36649e-05
-6.16127e-05
-5.15868e-05
-5.65179e-05
-5.96839e-05
-5.07765e-05
-6.79751e-05
-4.44158e-05
-7.65084e-05
-3.74951e-05
-8.53547e-05
-2.99997e-05
-9.45444e-05
-2.16987e-05
-0.000103817
-1.19845e-05
-0.000111299
-0.000108713
-6.87657e-05
0.000184763
6.53012e-05
-7.02866e-05
0.000168556
-7.00994e-05
0.000149549
-6.89458e-05
0.000129594
-6.78172e-05
0.000110921
-6.74854e-05
9.50965e-05
-6.81627e-05
8.23996e-05
-6.95586e-05
7.20753e-05
-7.12169e-05
6.31038e-05
-7.27925e-05
5.47586e-05
-7.41121e-05
4.66897e-05
-7.51127e-05
3.87717e-05
-7.5776e-05
3.09639e-05
-7.60958e-05
2.32442e-05
-7.60662e-05
1.55898e-05
-7.56784e-05
7.97249e-06
-7.49188e-05
3.59792e-07
-7.37675e-05
-7.28577e-06
-7.21992e-05
-1.50027e-05
-7.01824e-05
-2.28279e-05
-6.76805e-05
-3.07952e-05
-6.46542e-05
-3.89313e-05
-6.10661e-05
-4.7253e-05
-5.68861e-05
-5.57668e-05
-5.2097e-05
-6.4473e-05
-4.66998e-05
-7.33723e-05
-4.07201e-05
-8.24881e-05
-3.4225e-05
-9.18498e-05
-2.72382e-05
-0.000101531
-1.95982e-05
-0.000111457
-1.08015e-05
-0.000120095
-0.000119515
-6.20345e-05
0.00018739
5.94076e-05
-6.29013e-05
0.000169423
-6.2454e-05
0.000149101
-6.15573e-05
0.000128697
-6.11098e-05
0.000110474
-6.15855e-05
9.55723e-05
-6.28815e-05
8.36956e-05
-6.45743e-05
7.3768e-05
-6.62706e-05
6.48001e-05
-6.77524e-05
5.62405e-05
-6.89383e-05
4.78756e-05
-6.98076e-05
3.96411e-05
-7.03579e-05
3.15142e-05
-7.0589e-05
2.34753e-05
-7.04985e-05
1.54993e-05
-7.00809e-05
7.55483e-06
-6.93253e-05
-3.95741e-07
-6.82148e-05
-8.39625e-06
-6.67264e-05
-1.64911e-05
-6.48299e-05
-2.47244e-05
-6.24892e-05
-3.31359e-05
-5.96646e-05
-4.17559e-05
-5.6317e-05
-5.06007e-05
-5.24141e-05
-5.96697e-05
-4.79378e-05
-6.89493e-05
-4.28891e-05
-7.84211e-05
-3.72936e-05
-8.80836e-05
-3.12156e-05
-9.79279e-05
-2.4704e-05
-0.000108043
-1.76636e-05
-0.000118497
-9.69957e-06
-0.000128059
-0.000129215
-5.57217e-05
0.000189362
5.37496e-05
-5.61911e-05
0.000169893
-5.57549e-05
0.000148665
-5.52885e-05
0.000128231
-5.54977e-05
0.000110683
-5.65601e-05
9.66347e-05
-5.81782e-05
8.53136e-05
-5.99314e-05
7.55212e-05
-6.15373e-05
6.64061e-05
-6.28767e-05
5.75799e-05
-6.39176e-05
4.89165e-05
-6.46576e-05
4.03811e-05
-6.51005e-05
3.1957e-05
-6.52493e-05
2.36241e-05
-6.51049e-05
1.53549e-05
-6.46644e-05
7.11438e-06
-6.39201e-05
-1.14012e-06
-6.28577e-05
-9.45862e-06
-6.14566e-05
-1.78923e-05
-5.96883e-05
-2.64927e-05
-5.75176e-05
-3.53066e-05
-5.49041e-05
-4.43695e-05
-5.18062e-05
-5.36986e-05
-4.81881e-05
-6.32877e-05
-4.40288e-05
-7.31086e-05
-3.93292e-05
-8.31207e-05
-3.41176e-05
-9.32952e-05
-2.84533e-05
-0.000103592
-2.23977e-05
-0.000114098
-1.59123e-05
-0.000124982
-8.69939e-06
-0.000135272
-0.000137914
-4.99172e-05
0.000190857
4.84221e-05
-5.01986e-05
0.000170174
-4.99422e-05
0.000148409
-4.99459e-05
0.000128235
-5.06842e-05
0.000111421
-5.21026e-05
9.80531e-05
-5.38283e-05
8.70393e-05
-5.55137e-05
7.72066e-05
-5.69783e-05
6.78707e-05
-5.81641e-05
5.87657e-05
-5.90631e-05
4.98155e-05
-5.96806e-05
4.09986e-05
-6.00234e-05
3.22998e-05
-6.00974e-05
2.36981e-05
-5.9906e-05
1.51635e-05
-5.9449e-05
6.65742e-06
-5.87213e-05
-1.8678e-06
-5.77118e-05
-1.04681e-05
-5.64022e-05
-1.92019e-05
-5.47662e-05
-2.81287e-05
-5.27695e-05
-3.73032e-05
-5.03714e-05
-4.67676e-05
-4.75278e-05
-5.65422e-05
-4.41987e-05
-6.66168e-05
-4.0358e-05
-7.69493e-05
-3.60051e-05
-8.74736e-05
-3.11723e-05
-9.8128e-05
-2.59171e-05
-0.000108847
-2.03037e-05
-0.000119712
-1.4338e-05
-0.000130948
-7.80237e-06
-0.000141808
-0.000145716
-4.46579e-05
0.000192032
4.3483e-05
-4.49018e-05
0.000170418
-4.49019e-05
0.000148409
-4.53276e-05
0.00012866
-4.64352e-05
0.000112529
-4.80222e-05
9.96402e-05
-4.97235e-05
8.87406e-05
-5.12815e-05
7.87646e-05
-5.25901e-05
6.91793e-05
-5.36253e-05
5.98008e-05
-5.439e-05
5.05802e-05
-5.48933e-05
4.15018e-05
-5.51443e-05
3.25509e-05
-5.51512e-05
2.37049e-05
-5.49195e-05
1.49318e-05
-5.44515e-05
6.18944e-06
-5.37447e-05
-2.57461e-06
-5.27908e-05
-1.14221e-05
-5.15741e-05
-2.04186e-05
-5.00708e-05
-2.9632e-05
-4.82481e-05
-3.91259e-05
-4.60651e-05
-4.89506e-05
-4.34758e-05
-5.91315e-05
-4.04355e-05
-6.96571e-05
-3.69123e-05
-8.04724e-05
-3.29017e-05
-9.14842e-05
-2.84383e-05
-0.000102591
-2.35837e-05
-0.000113702
-1.84009e-05
-0.000124895
-1.2925e-05
-0.000136424
-7.00131e-06
-0.000147732
-0.000152718
-3.99437e-05
0.000193017
3.89582e-05
-4.02438e-05
0.000170718
-4.05039e-05
0.000148669
-4.12589e-05
0.000129415
-4.25874e-05
0.000113857
-4.42122e-05
0.000101265
-4.58178e-05
9.03462e-05
-4.72263e-05
8.01731e-05
-4.83798e-05
7.03327e-05
-4.9272e-05
6.0693e-05
-4.99115e-05
5.12197e-05
-5.03096e-05
4.19e-05
-5.04775e-05
3.27187e-05
-5.04248e-05
2.36522e-05
-5.01592e-05
1.46662e-05
-4.96851e-05
5.71532e-06
-4.90023e-05
-3.25741e-06
-4.81051e-05
-1.23192e-05
-4.69808e-05
-2.15429e-05
-4.5608e-05
-3.10048e-05
-4.39558e-05
-4.07781e-05
-4.19837e-05
-5.09227e-05
-3.96441e-05
-6.14712e-05
-3.68881e-05
-7.24131e-05
-3.36778e-05
-8.36827e-05
-3.00033e-05
-9.51588e-05
-2.58986e-05
-0.000106696
-2.14319e-05
-0.000118169
-1.6667e-05
-0.000129659
-1.16539e-05
-0.000141437
-6.28584e-06
-0.0001531
-0.000159003
-3.57268e-05
0.000193901
3.4843e-05
-3.61238e-05
0.000171115
-3.66116e-05
0.000149157
-3.76003e-05
0.000130404
-3.90355e-05
0.000115292
-4.06174e-05
0.000102847
-4.20944e-05
9.18232e-05
-4.33498e-05
8.14286e-05
-4.4355e-05
7.13379e-05
-4.51137e-05
6.14516e-05
-4.56375e-05
5.17435e-05
-4.59396e-05
4.2202e-05
-4.60325e-05
3.28116e-05
-4.59276e-05
2.35473e-05
-4.5634e-05
1.43727e-05
-4.5158e-05
5.2393e-06
-4.45016e-05
-3.91386e-06
-4.36615e-05
-1.31593e-05
-4.26276e-05
-2.25768e-05
-4.13812e-05
-3.22512e-05
-3.98936e-05
-4.22657e-05
-3.8125e-05
-5.26912e-05
-3.60267e-05
-6.35695e-05
-3.35462e-05
-7.48936e-05
-3.06406e-05
-8.65882e-05
-2.7294e-05
-9.85054e-05
-2.35374e-05
-0.000110453
-1.94447e-05
-0.000122261
-1.50831e-05
-0.000134021
-1.05073e-05
-0.000146013
-5.64537e-06
-0.000157962
-0.000164649
-3.19396e-05
0.000194736
3.11047e-05
-3.24436e-05
0.000171619
-3.31195e-05
0.000149833
-3.42563e-05
0.000131541
-3.57164e-05
0.000116752
-3.72112e-05
0.000104342
-3.85487e-05
9.31607e-05
-3.96559e-05
8.25358e-05
-4.05222e-05
7.22042e-05
-4.11568e-05
6.20863e-05
-4.1574e-05
5.21607e-05
-4.17886e-05
4.24166e-05
-4.18144e-05
3.28375e-05
-4.16641e-05
2.33969e-05
-4.1348e-05
1.40566e-05
-4.08739e-05
4.7652e-06
-4.02456e-05
-4.54212e-06
-3.94622e-05
-1.39427e-05
-3.8516e-05
-2.3523e-05
-3.7391e-05
-3.33761e-05
-3.60606e-05
-4.35961e-05
-3.44861e-05
-5.42657e-05
-3.26177e-05
-6.5438e-05
-3.04004e-05
-7.71109e-05
-2.77871e-05
-8.92015e-05
-2.47559e-05
-0.000101537
-2.13394e-05
-0.000113869
-1.76092e-05
-0.000125992
-1.36345e-05
-0.000137996
-9.46976e-06
-0.000150178
-5.07029e-06
-0.000162361
-0.000169719
-2.85412e-05
0.00019556
2.7717e-05
-2.91456e-05
0.000172223
-2.9963e-05
0.00015065
-3.11689e-05
0.000132747
-3.25956e-05
0.000118179
-3.39823e-05
0.000105729
-3.51808e-05
9.43591e-05
-3.61479e-05
8.3503e-05
-3.68846e-05
7.29408e-05
-3.7404e-05
6.26057e-05
-3.77228e-05
5.24796e-05
-3.78576e-05
4.25513e-05
-3.78234e-05
3.28033e-05
-3.76337e-05
2.32073e-05
-3.73e-05
1.3723e-05
-3.68313e-05
4.29646e-06
-3.62329e-05
-5.14053e-06
-3.55057e-05
-1.46699e-05
-3.46445e-05
-2.43842e-05
-3.36355e-05
-3.43851e-05
-3.24542e-05
-4.47774e-05
-3.10629e-05
-5.5657e-05
-2.94113e-05
-6.70896e-05
-2.74428e-05
-7.90794e-05
-2.51051e-05
-9.15392e-05
-2.2376e-05
-0.000104266
-1.92922e-05
-0.000116953
-1.59145e-05
-0.000129369
-1.23083e-05
-0.000141602
-8.52856e-06
-0.000153957
-4.55222e-06
-0.000166337
-0.000174271
-2.54872e-05
0.000196386
2.46614e-05
-2.61713e-05
0.000172907
-2.70831e-05
0.000151562
-2.83028e-05
0.000133966
-2.96579e-05
0.000119534
-3.09257e-05
0.000106996
-3.19898e-05
9.54232e-05
-3.28258e-05
8.4339e-05
-3.34415e-05
7.35565e-05
-3.38536e-05
6.30179e-05
-3.40811e-05
5.27071e-05
-3.41427e-05
4.26129e-05
-3.40547e-05
3.27153e-05
-3.38313e-05
2.29839e-05
-3.34847e-05
1.33763e-05
-3.30246e-05
3.83645e-06
-3.24579e-05
-5.70731e-06
-3.17868e-05
-1.5341e-05
-3.10079e-05
-2.5163e-05
-3.01099e-05
-3.52832e-05
-2.90698e-05
-4.58175e-05
-2.78504e-05
-5.68764e-05
-2.64015e-05
-6.85384e-05
-2.46639e-05
-8.0817e-05
-2.25852e-05
-9.36179e-05