/*--------------------------------*- C++ -*----------------------------------*\
| =========                 |                                                 |
| \\      /  F ield         | OpenFOAM: The Open Source CFD Toolbox           |
|  \\    /   O peration     | Version:  v2012                                 |
|   \\  /    A nd           | Website:  www.openfoam.com                      |
|    \\/     M anipulation  |                                                 |
\*---------------------------------------------------------------------------*/
FoamFile
{
    version     2.0;
    format      ascii;
    class       volVectorField;
    location    "734";
    object      U;
}
// * * * * * * * * * * * * * * * * * * * * * * * * * * * * * * * * * * * * * //

dimensions      [0 1 -1 0 0 0 0];


internalField   nonuniform List<vector> 
6024
(
(-0.000906732 -0.999553 0)
(-0.00061776 -0.997878 0)
(-0.000377659 -0.996702 0)
(-0.000202464 -0.995925 0)
(-6.39264e-05 -0.995469 0)
(4.55096e-05 -0.995253 0)
(0.000118493 -0.995207 0)
(0.000169919 -0.995284 0)
(0.000208998 -0.995451 0)
(0.000242457 -0.995684 0)
(0.000270923 -0.995969 0)
(0.000296586 -0.996294 0)
(0.000321089 -0.996655 0)
(0.000345312 -0.997048 0)
(0.000369203 -0.997473 0)
(0.000391489 -0.997932 0)
(0.000406971 -0.998431 0)
(0.000402765 -0.998951 0)
(0.000328411 -0.999413 0)
(8.31627e-05 -0.99973 0)
(-0.00239832 -1.00585 0)
(-0.00172766 -1.0041 0)
(-0.00122036 -1.00287 0)
(-0.000817489 -1.00193 0)
(-0.000488906 -1.00129 0)
(-0.000252921 -1.00085 0)
(-8.18141e-05 -1.00055 0)
(4.1676e-05 -1.00036 0)
(0.00013116 -1.00023 0)
(0.000196918 -1.00016 0)
(0.000247136 -1.00012 0)
(0.00028785 -1.0001 0)
(0.000323171 -1.0001 0)
(0.000355724 -1.00011 0)
(0.000386957 -1.00012 0)
(0.00041528 -1.00015 0)
(0.00043367 -1.00017 0)
(0.000440998 -1.00018 0)
(0.000396819 -1.00015 0)
(0.000214254 -1.00004 0)
(-0.00406769 -1.00722 0)
(-0.00296017 -1.00546 0)
(-0.00209091 -1.0042 0)
(-0.00141845 -1.00331 0)
(-0.000913534 -1.00268 0)
(-0.000549983 -1.00223 0)
(-0.000292399 -1.0019 0)
(-0.000110655 -1.00165 0)
(1.80887e-05 -1.00145 0)
(0.000109896 -1.00129 0)
(0.000177127 -1.00116 0)
(0.000228449 -1.00103 0)
(0.000269935 -1.00092 0)
(0.000305293 -1.0008 0)
(0.000333152 -1.00069 0)
(0.000351636 -1.00057 0)
(0.000362697 -1.00045 0)
(0.000354392 -1.0003 0)
(0.00029669 -1.00015 0)
(0.000144229 -1.00003 0)
(-0.00570962 -1.00714 0)
(-0.00412875 -1.0055 0)
(-0.0029094 -1.00437 0)
(-0.00199645 -1.00359 0)
(-0.00132975 -1.00304 0)
(-0.000856087 -1.00264 0)
(-0.000524555 -1.00234 0)
(-0.000294291 -1.0021 0)
(-0.000134699 -1.00189 0)
(-2.3555e-05 -1.00171 0)
(5.4994e-05 -1.00154 0)
(0.000111922 -1.00138 0)
(0.000154648 -1.00121 0)
(0.000187722 -1.00104 0)
(0.000212692 -1.00086 0)
(0.000229317 -1.00068 0)
(0.000235671 -1.0005 0)
(0.000222302 -1.0003 0)
(0.000173374 -1.00013 0)
(7.30769e-05 -1.00002 0)
(-0.00725281 -1.00621 0)
(-0.00516919 -1.00479 0)
(-0.00360644 -1.00389 0)
(-0.0024708 -1.00331 0)
(-0.00166715 -1.00291 0)
(-0.00110911 -1.00262 0)
(-0.000726283 -1.00239 0)
(-0.000465548 -1.00219 0)
(-0.000288631 -1.00201 0)
(-0.000168695 -1.00183 0)
(-8.70854e-05 -1.00166 0)
(-3.10921e-05 -1.00149 0)
(7.81913e-06 -1.0013 0)
(3.51772e-05 -1.00111 0)
(5.42233e-05 -1.00091 0)
(6.67008e-05 -1.00071 0)
(7.27508e-05 -1.0005 0)
(7.00498e-05 -1.00029 0)
(5.39869e-05 -1.00011 0)
(2.15376e-05 -1.00001 0)
(-0.00859649 -1.00452 0)
(-0.00597102 -1.00347 0)
(-0.00408971 -1.00292 0)
(-0.00277451 -1.00262 0)
(-0.00187719 -1.00243 0)
(-0.00127189 -1.00229 0)
(-0.000866804 -1.00217 0)
(-0.000597054 -1.00204 0)
(-0.000418262 -1.00191 0)
(-0.000300478 -1.00177 0)
(-0.000223579 -1.00162 0)
(-0.00017412 -1.00146 0)
(-0.000143153 -1.00129 0)
(-0.000124484 -1.0011 0)
(-0.000113171 -1.00091 0)
(-0.000104892 -1.0007 0)
(-9.69418e-05 -1.00049 0)
(-8.47822e-05 -1.00029 0)
(-6.16975e-05 -1.00011 0)
(-2.4069e-05 -1.00001 0)
(-0.00962763 -1.00199 0)
(-0.00640638 -1.00152 0)
(-0.00426378 -1.00148 0)
(-0.00284239 -1.00156 0)
(-0.00191716 -1.00165 0)
(-0.00131507 -1.0017 0)
(-0.000923933 -1.00171 0)
(-0.000670072 -1.00167 0)
(-0.000506054 -1.00161 0)
(-0.000401334 -1.00153 0)
(-0.000336086 -1.00142 0)
(-0.000297333 -1.0013 0)
(-0.000276577 -1.00116 0)
(-0.000268167 -1.00101 0)
(-0.000265923 -1.00084 0)
(-0.000263553 -1.00067 0)
(-0.000257299 -1.00049 0)
(-0.000235422 -1.0003 0)
(-0.000179935 -1.00012 0)
(-7.52305e-05 -1.00002 0)
(-0.0100995 -0.998304 0)
(-0.00624577 -0.998729 0)
(-0.00398891 -0.999449 0)
(-0.00259395 -1.00003 0)
(-0.00174095 -1.00045 0)
(-0.00120962 -1.00073 0)
(-0.00087589 -1.0009 0)
(-0.000664979 -1.00098 0)
(-0.000532176 -1.00101 0)
(-0.000450153 -1.001 0)
(-0.000401853 -1.00097 0)
(-0.000376512 -1.00091 0)
(-0.000367382 -1.00084 0)
(-0.000368832 -1.00075 0)
(-0.000376072 -1.00066 0)
(-0.000379272 -1.00056 0)
(-0.000379252 -1.00043 0)
(-0.000364757 -1.0003 0)
(-0.000301403 -1.00015 0)
(-0.000145655 -1.00003 0)
(-0.00936128 -0.992324 0)
(-0.00510209 -0.994361 0)
(-0.00313191 -0.996267 0)
(-0.00200036 -0.997511 0)
(-0.00135064 -0.998341 0)
(-0.000956603 -0.998889 0)
(-0.000715808 -0.999255 0)
(-0.000568474 -0.999501 0)
(-0.000478828 -0.999669 0)
(-0.00042624 -0.999788 0)
(-0.000398391 -0.999874 0)
(-0.000387751 -0.999941 0)
(-0.000389199 -0.999996 0)
(-0.000398621 -1.00004 0)
(-0.000414433 -1.00009 0)
(-0.000433072 -1.00013 0)
(-0.000445464 -1.00016 0)
(-0.000450118 -1.00018 0)
(-0.000397433 -1.00015 0)
(-0.000214607 -1.00004 0)
(-0.00578335 -0.979445 0)
(-0.00240434 -0.983985 0)
(-0.00161738 -0.987824 0)
(-0.00102849 -0.990186 0)
(-0.000732555 -0.99172 0)
(-0.000555849 -0.992792 0)
(-0.000456718 -0.99359 0)
(-0.000397952 -0.994223 0)
(-0.000363837 -0.994757 0)
(-0.000346192 -0.995233 0)
(-0.000340086 -0.995677 0)
(-0.000342537 -0.996107 0)
(-0.000351534 -0.996537 0)
(-0.000365445 -0.996975 0)
(-0.000382652 -0.99743 0)
(-0.000400267 -0.997908 0)
(-0.000412397 -0.998419 0)
(-0.000405486 -0.998947 0)
(-0.000328764 -0.999414 0)
(-8.32955e-05 -0.99973 0)
(0.0397452 -0.365186 0)
(0.0361067 -0.444214 0)
(0.0329355 -0.516525 0)
(0.0300986 -0.582693 0)
(0.0274897 -0.643228 0)
(0.0250539 -0.698508 0)
(0.0227493 -0.748824 0)
(0.0205483 -0.794406 0)
(0.0184345 -0.835447 0)
(0.0164007 -0.87212 0)
(0.0144479 -0.904589 0)
(0.0125887 -0.933045 0)
(0.0108304 -0.957687 0)
(0.00916096 -0.978699 0)
(0.00757677 -0.996274 0)
(0.00608585 -1.01062 0)
(0.00469311 -1.02193 0)
(0.00340336 -1.03045 0)
(0.00222313 -1.03639 0)
(0.00116124 -1.03999 0)
(0.000224888 -1.04151 0)
(-0.000580667 -1.0412 0)
(-0.001248 -1.03935 0)
(-0.00176961 -1.03625 0)
(-0.00214091 -1.0322 0)
(-0.00236044 -1.02751 0)
(-0.00243073 -1.0225 0)
(-0.00236127 -1.01748 0)
(-0.0021718 -1.01271 0)
(-0.00189322 -1.00843 0)
(-0.00156493 -1.00478 0)
(-0.00122665 -1.00183 0)
(0.0950542 -0.44547 0)
(0.0873169 -0.513131 0)
(0.0801599 -0.576635 0)
(0.0735613 -0.63575 0)
(0.0674002 -0.690527 0)
(0.0615785 -0.741032 0)
(0.0560207 -0.787337 0)
(0.0506777 -0.829515 0)
(0.045524 -0.867637 0)
(0.0405525 -0.901784 0)
(0.0357674 -0.932053 0)
(0.0311759 -0.958554 0)
(0.0267857 -0.9814 0)
(0.0226092 -1.00074 0)
(0.0186618 -1.01675 0)
(0.0149574 -1.02962 0)
(0.0115064 -1.03956 0)
(0.00831636 -1.04678 0)
(0.00539908 -1.0515 0)
(0.00277393 -1.05395 0)
(0.000456689 -1.05439 0)
(-0.00154447 -1.05308 0)
(-0.00320912 -1.05028 0)
(-0.00451387 -1.04629 0)
(-0.00544586 -1.04144 0)
(-0.00600151 -1.03605 0)
(-0.00618565 -1.03043 0)
(-0.0060198 -1.02489 0)
(-0.00555177 -1.01974 0)
(-0.00485812 -1.01517 0)
(-0.00403722 -1.01133 0)
(-0.00319025 -1.00824 0)
(0.147865 -0.482505 0)
(0.137642 -0.543417 0)
(0.1276 -0.601724 0)
(0.11794 -0.656885 0)
(0.108646 -0.708647 0)
(0.0996577 -0.756827 0)
(0.0909189 -0.801312 0)
(0.0823968 -0.842036 0)
(0.0740837 -0.87897 0)
(0.0659921 -0.912119 0)
(0.0581477 -0.941526 0)
(0.050582 -0.967269 0)
(0.0433289 -0.989458 0)
(0.0364221 -1.00823 0)
(0.0298916 -1.02375 0)
(0.0237631 -1.03619 0)
(0.0180562 -1.04575 0)
(0.012785 -1.05262 0)
(0.00796818 -1.057 0)
(0.00363972 -1.05912 0)
(-0.000166755 -1.05923 0)
(-0.00344267 -1.05757 0)
(-0.00615673 -1.05441 0)
(-0.00826135 -1.05005 0)
(-0.00973355 -1.0448 0)
(-0.0105706 -1.039 0)
(-0.010782 -1.03298 0)
(-0.0104051 -1.02707 0)
(-0.00952541 -1.02158 0)
(-0.00827949 -1.01677 0)
(-0.00684143 -1.01277 0)
(-0.00539095 -1.00961 0)
(0.196059 -0.503859 0)
(0.184219 -0.560791 0)
(0.172102 -0.615912 0)
(0.160025 -0.668625 0)
(0.14809 -0.718542 0)
(0.136309 -0.765349 0)
(0.124677 -0.808821 0)
(0.113202 -0.848798 0)
(0.101911 -0.885177 0)
(0.0908507 -0.91791 0)
(0.0800792 -0.947003 0)
(0.0696575 -0.972506 0)
(0.0596444 -0.994512 0)
(0.050092 -1.01314 0)
(0.0410443 -1.02855 0)
(0.0325389 -1.04089 0)
(0.024607 -1.05035 0)
(0.0172692 -1.05712 0)
(0.0105448 -1.06138 0)
(0.00448037 -1.06332 0)
(-0.000849895 -1.06321 0)
(-0.00544068 -1.06128 0)
(-0.00927056 -1.05779 0)
(-0.012241 -1.05301 0)
(-0.0143083 -1.04729 0)
(-0.015471 -1.04098 0)
(-0.0157349 -1.03442 0)
(-0.0151406 -1.02798 0)
(-0.0138045 -1.02204 0)
(-0.0119278 -1.01687 0)
(-0.00977406 -1.01268 0)
(-0.00763013 -1.00948 0)
(0.240816 -0.517288 0)
(0.227961 -0.571782 0)
(0.214366 -0.624885 0)
(0.200412 -0.676038 0)
(0.186284 -0.724796 0)
(0.172065 -0.770781 0)
(0.15781 -0.813689 0)
(0.14358 -0.853289 0)
(0.129452 -0.889422 0)
(0.11552 -0.921995 0)
(0.101886 -0.950984 0)
(0.0886487 -0.976423 0)
(0.0758982 -0.998394 0)
(0.0637101 -1.01701 0)
(0.0521457 -1.03242 0)
(0.0412603 -1.04477 0)
(0.0311007 -1.05425 0)
(0.0216869 -1.06105 0)
(0.01302 -1.06532 0)
(0.00515744 -1.06722 0)
(-0.00172573 -1.06699 0)
(-0.00770983 -1.06482 0)
(-0.0127288 -1.06103 0)
(-0.0166341 -1.05581 0)
(-0.0193409 -1.04954 0)
(-0.0208599 -1.0426 0)
(-0.0211878 -1.03535 0)
(-0.0203482 -1.02822 0)
(-0.0184707 -1.02165 0)
(-0.0158335 -1.01603 0)
(-0.0128102 -1.0116 0)
(-0.00984651 -1.00839 0)
(0.283921 -0.525428 0)
(0.270306 -0.578431 0)
(0.25552 -0.630275 0)
(0.239976 -0.680454 0)
(0.223906 -0.728501 0)
(0.207447 -0.77399 0)
(0.19071 -0.816558 0)
(0.173818 -0.855916 0)
(0.156908 -0.891862 0)
(0.140135 -0.924277 0)
(0.123655 -0.953126 0)
(0.107615 -0.978445 0)
(0.0921425 -1.00033 0)
(0.0773384 -1.0189 0)
(0.0632847 -1.03431 0)
(0.0500519 -1.04671 0)
(0.037689 -1.05628 0)
(0.0261863 -1.06322 0)
(0.0155319 -1.06768 0)
(0.00584035 -1.06966 0)
(-0.00280554 -1.06999 0)
(-0.010241 -1.06757 0)
(-0.0165261 -1.06367 0)
(-0.0214706 -1.05813 0)
(-0.0248972 -1.05136 0)
(-0.0268341 -1.04379 0)
(-0.0272651 -1.03577 0)
(-0.0261614 -1.0278 0)
(-0.0236181 -1.02044 0)
(-0.0200383 -1.01424 0)
(-0.0159268 -1.00955 0)
(-0.011968 -1.00641 0)
(0.326141 -0.529432 0)
(0.311852 -0.581537 0)
(0.296014 -0.6326 0)
(0.279034 -0.682149 0)
(0.261156 -0.729693 0)
(0.242553 -0.77476 0)
(0.223391 -0.816933 0)
(0.203858 -0.855876 0)
(0.184167 -0.891358 0)
(0.164549 -0.923258 0)
(0.145229 -0.95156 0)
(0.126408 -0.976338 0)
(0.108253 -0.997732 0)
(0.0908862 -1.01592 0)
(0.0743922 -1.03109 0)
(0.0588212 -1.04343 0)
(0.0442019 -1.05316 0)
(0.0306079 -1.06031 0)
(0.0182234 -1.0649 0)
(0.0069504 -1.06769 0)
(-0.00336629 -1.06846 0)
(-0.0123804 -1.06735 0)
(-0.0202105 -1.0634 0)
(-0.0264627 -1.05823 0)
(-0.0307621 -1.05146 0)
(-0.0332767 -1.04361 0)
(-0.0339197 -1.03502 0)
(-0.0325361 -1.02625 0)
(-0.0292159 -1.01804 0)
(-0.0245609 -1.01122 0)
(-0.0191352 -1.00633 0)
(-0.0139312 -1.00341 0)
(0.367811 -0.529875 0)
(0.352867 -0.581401 0)
(0.336037 -0.631897 0)
(0.317678 -0.680888 0)
(0.29802 -0.727839 0)
(0.277258 -0.77221 0)
(0.255614 -0.813515 0)
(0.233357 -0.851371 0)
(0.210799 -0.885531 0)
(0.188268 -0.915899 0)
(0.166075 -0.942517 0)
(0.144492 -0.965545 0)
(0.123729 -0.985225 0)
(0.103936 -1.00184 0)
(0.0852001 -1.01569 0)
(0.0675569 -1.02705 0)
(0.05102 -1.03624 0)
(0.0356484 -1.04348 0)
(0.0215613 -1.04879 0)
(0.00859275 -1.05237 0)
(-0.00337676 -1.05422 0)
(-0.0141218 -1.05444 0)
(-0.0232152 -1.05293 0)
(-0.0305918 -1.04977 0)
(-0.0360895 -1.04496 0)
(-0.0395919 -1.03817 0)
(-0.0408582 -1.02981 0)
(-0.0394998 -1.02136 0)
(-0.0356254 -1.01298 0)
(-0.0299429 -1.00603 0)
(-0.022771 -1.00124 0)
(-0.0155794 -0.99889 0)
(0.409102 -0.527042 0)
(0.393459 -0.578047 0)
(0.375596 -0.627905 0)
(0.355779 -0.676081 0)
(0.334201 -0.721936 0)
(0.311074 -0.764811 0)
(0.286687 -0.804113 0)
(0.26142 -0.839389 0)
(0.235716 -0.870381 0)
(0.210038 -0.897041 0)
(0.184817 -0.919519 0)
(0.160416 -0.938119 0)
(0.137106 -0.953249 0)
(0.115063 -0.965367 0)
(0.0943784 -0.974938 0)
(0.0750673 -0.982424 0)
(0.0571065 -0.988266 0)
(0.0404803 -0.992835 0)
(0.0251464 -0.996389 0)
(0.0109251 -0.999156 0)
(-0.00231453 -1.00142 0)
(-0.0145093 -1.0034 0)
(-0.0252947 -1.00518 0)
(-0.0343815 -1.00659 0)
(-0.0416425 -1.00735 0)
(-0.04652 -1.00712 0)
(-0.0483601 -1.00551 0)
(-0.0485163 -1.00214 0)
(-0.0436903 -0.997772 0)
(-0.0363614 -0.993143 0)
(-0.025708 -0.990061 0)
(-0.0151863 -0.990271 0)
(0.450006 -0.521031 0)
(0.433526 -0.571306 0)
(0.414432 -0.62013 0)
(0.392868 -0.66681 0)
(0.368963 -0.710512 0)
(0.342947 -0.750367 0)
(0.315204 -0.785609 0)
(0.286272 -0.815691 0)
(0.256787 -0.840359 0)
(0.227406 -0.859663 0)
(0.198727 -0.87392 0)
(0.171233 -0.883631 0)
(0.145262 -0.889394 0)
(0.121009 -0.89183 0)
(0.0985517 -0.891535 0)
(0.0778751 -0.889061 0)
(0.0589296 -0.884909 0)
(0.041682 -0.87951 0)
(0.0261189 -0.87323 0)
(0.012216 -0.866451 0)
(-2.14083e-05 -0.859663 0)
(-0.010595 -0.853673 0)
(-0.0195338 -0.84922 0)
(-0.0268854 -0.846898 0)
(-0.0325575 -0.847634 0)
(-0.0363415 -0.852557 0)
(-0.0377023 -0.862558 0)
(-0.035222 -0.876935 0)
(-0.0288254 -0.893956 0)
(-0.0198925 -0.912224 0)
(-0.0105134 -0.933815 0)
(-0.00598075 -0.959734 0)
(-0.0282628 0.013709 0)
(-0.0228573 0.0488895 0)
(-0.00658818 0.0491961 0)
(0.00779248 0.0293612 0)
(0.0205152 -0.011206 0)
(0.0355153 -0.0807145 0)
(0.0445272 -0.182339 0)
(0.0437812 -0.27921 0)
(-0.0500367 0.00173253 0)
(-0.0124538 0.0249883 0)
(0.0208344 0.00739673 0)
(0.047377 -0.0444128 0)
(0.0776102 -0.124179 0)
(0.101604 -0.215544 0)
(0.108882 -0.303068 0)
(0.103387 -0.374096 0)
(-0.0576289 -0.0161679 0)
(0.0128166 -0.0119815 0)
(0.0612052 -0.0578626 0)
(0.105884 -0.129743 0)
(0.143873 -0.212166 0)
(0.164281 -0.289038 0)
(0.165639 -0.356353 0)
(0.157686 -0.419115 0)
(-0.0318083 -0.0317291 0)
(0.0479255 -0.0532743 0)
(0.112689 -0.116463 0)
(0.167808 -0.192104 0)
(0.203811 -0.264998 0)
(0.217564 -0.328539 0)
(0.21536 -0.387 0)
(0.206759 -0.445483 0)
(0.00442612 -0.0448202 0)
(0.0945916 -0.0863994 0)
(0.168957 -0.157594 0)
(0.224667 -0.230138 0)
(0.254775 -0.294147 0)
(0.263727 -0.351047 0)
(0.260552 -0.406209 0)
(0.252059 -0.461908 0)
(0.0542301 -0.0521814 0)
(0.150172 -0.108376 0)
(0.225948 -0.182496 0)
(0.276603 -0.250484 0)
(0.300855 -0.30931 0)
(0.30724 -0.363822 0)
(0.303977 -0.41771 0)
(0.295555 -0.471748 0)
(0.113056 -0.056444 0)
(0.210699 -0.120391 0)
(0.281822 -0.19503 0)
(0.325708 -0.259424 0)
(0.345335 -0.316114 0)
(0.350199 -0.370142 0)
(0.34675 -0.423538 0)
(0.338161 -0.476693 0)
(0.181133 -0.0598233 0)
(0.272372 -0.125644 0)
(0.33626 -0.19923 0)
(0.373506 -0.261376 0)
(0.389515 -0.317568 0)
(0.393113 -0.371757 0)
(0.389203 -0.424979 0)
(0.380261 -0.477682 0)
(0.253175 -0.061212 0)
(0.333188 -0.126051 0)
(0.389382 -0.198161 0)
(0.420671 -0.259077 0)
(0.43378 -0.315309 0)
(0.436081 -0.369731 0)
(0.431483 -0.422861 0)
(0.422054 -0.475267 0)
(0.322115 -0.0599721 0)
(0.392706 -0.122998 0)
(0.441476 -0.193783 0)
(0.467588 -0.254102 0)
(0.47816 -0.310385 0)
(0.479086 -0.364779 0)
(0.473623 -0.417732 0)
(0.463575 -0.469778 0)
(0.491539 -0.511461 0)
(0.473906 -0.560478 0)
(0.453106 -0.607441 0)
(0.429104 -0.651362 0)
(0.401948 -0.691072 0)
(0.371906 -0.725405 0)
(0.339526 -0.753404 0)
(0.305607 -0.774509 0)
(0.27109 -0.788639 0)
(0.236911 -0.796162 0)
(0.203869 -0.797778 0)
(0.172548 -0.794351 0)
(0.143301 -0.786769 0)
(0.116287 -0.775831 0)
(0.0915311 -0.762199 0)
(0.0689824 -0.746386 0)
(0.0485706 -0.728765 0)
(0.0302278 -0.709579 0)
(0.0138673 -0.688992 0)
(-0.000630367 -0.667152 0)
(-0.0132831 -0.644047 0)
(-0.0240811 -0.619019 0)
(-0.0329339 -0.591061 0)
(-0.0395387 -0.559619 0)
(-0.0431602 -0.524323 0)
(-0.0445736 -0.483105 0)
(-0.0441314 -0.435313 0)
(-0.0416124 -0.379448 0)
(-0.037066 -0.313035 0)
(-0.0318993 -0.236928 0)
(-0.0305849 -0.168412 0)
(-0.0293354 -0.128031 0)
(0.533155 -0.497967 0)
(0.513783 -0.544852 0)
(0.490391 -0.588658 0)
(0.462719 -0.62796 0)
(0.430747 -0.66118 0)
(0.394889 -0.686911 0)
(0.356047 -0.704261 0)
(0.315505 -0.713092 0)
(0.27469 -0.714042 0)
(0.234916 -0.708359 0)
(0.197191 -0.697614 0)
(0.162157 -0.683425 0)
(0.130117 -0.667248 0)
(0.101119 -0.650259 0)
(0.0750365 -0.633302 0)
(0.0516236 -0.616877 0)
(0.0305745 -0.601131 0)
(0.0115572 -0.585867 0)
(-0.00577352 -0.570577 0)
(-0.0217836 -0.554325 0)
(-0.0367795 -0.536237 0)
(-0.0508382 -0.515664 0)
(-0.0639527 -0.491877 0)
(-0.0762602 -0.463924 0)
(-0.0880331 -0.43066 0)
(-0.0991823 -0.391062 0)
(-0.109271 -0.344097 0)
(-0.117179 -0.287168 0)
(-0.121914 -0.217434 0)
(-0.123981 -0.136429 0)
(-0.122556 -0.0579486 0)
(-0.10103 -0.00873802 0)
(0.572889 -0.480716 0)
(0.550899 -0.524406 0)
(0.523649 -0.563565 0)
(0.490664 -0.596306 0)
(0.452012 -0.62079 0)
(0.40855 -0.635778 0)
(0.361907 -0.641086 0)
(0.314179 -0.637745 0)
(0.26747 -0.627774 0)
(0.223494 -0.613704 0)
(0.183365 -0.598039 0)
(0.147568 -0.58284 0)
(0.116063 -0.569457 0)
(0.0884132 -0.558445 0)
(0.0639543 -0.549626 0)
(0.0419532 -0.542278 0)
(0.0217392 -0.535383 0)
(0.00277025 -0.527869 0)
(-0.0153446 -0.518809 0)
(-0.0328057 -0.507559 0)
(-0.0496759 -0.493747 0)
(-0.0660074 -0.476961 0)
(-0.0818166 -0.456772 0)
(-0.0971935 -0.432655 0)
(-0.112433 -0.404011 0)
(-0.127978 -0.37027 0)
(-0.143997 -0.330714 0)
(-0.160037 -0.283591 0)
(-0.174733 -0.226676 0)
(-0.185355 -0.160657 0)
(-0.18133 -0.0928105 0)
(-0.129875 -0.0320693 0)
(0.609905 -0.459758 0)
(0.584115 -0.499127 0)
(0.551428 -0.532222 0)
(0.511331 -0.556868 0)
(0.464359 -0.571428 0)
(0.412321 -0.575534 0)
(0.358033 -0.570479 0)
(0.304623 -0.559 0)
(0.254773 -0.544547 0)
(0.210201 -0.530377 0)
(0.171502 -0.518811 0)
(0.138295 -0.510862 0)
(0.109569 -0.506291 0)
(0.0840949 -0.504017 0)
(0.0607684 -0.502656 0)
(0.0387837 -0.500945 0)
(0.0176445 -0.497929 0)
(-0.00291618 -0.492966 0)
(-0.0230347 -0.485644 0)
(-0.0427734 -0.475765 0)
(-0.0622001 -0.463034 0)
(-0.081381 -0.447183 0)
(-0.100392 -0.42791 0)
(-0.119375 -0.404878 0)
(-0.138594 -0.377762 0)
(-0.158435 -0.346298 0)
(-0.179189 -0.310109 0)
(-0.200692 -0.268216 0)
(-0.221748 -0.219404 0)
(-0.238875 -0.163217 0)
(-0.23957 -0.101606 0)
(-0.188948 -0.0385201 0)
(0.643369 -0.435381 0)
(0.612417 -0.469462 0)
(0.572697 -0.495516 0)
(0.524052 -0.511496 0)
(0.46807 -0.516613 0)
(0.408064 -0.512063 0)
(0.348261 -0.500979 0)
(0.292561 -0.48753 0)
(0.243506 -0.47559 0)
(0.201848 -0.467604 0)
(0.166794 -0.46414 0)
(0.136696 -0.464231 0)
(0.109817 -0.466202 0)
(0.0848216 -0.468442 0)
(0.0608925 -0.46979 0)
(0.037601 -0.469534 0)
(0.0147405 -0.467266 0)
(-0.00779291 -0.462739 0)
(-0.0300721 -0.455777 0)
(-0.0521536 -0.446197 0)
(-0.0741127 -0.433776 0)
(-0.0960171 -0.418298 0)
(-0.117954 -0.399527 0)
(-0.140068 -0.377218 0)
(-0.162608 -0.35118 0)
(-0.185945 -0.321319 0)
(-0.210498 -0.287519 0)
(-0.236425 -0.249404 0)
(-0.262627 -0.206351 0)
(-0.285484 -0.157228 0)
(-0.292551 -0.101215 0)
(-0.24881 -0.0397883 0)
(0.672613 -0.408148 0)
(0.635177 -0.436341 0)
(0.587186 -0.455103 0)
(0.529423 -0.46305 0)
(0.465131 -0.460821 0)
(0.399397 -0.451437 0)
(0.337526 -0.439473 0)
(0.283276 -0.42938 0)
(0.237893 -0.423893 0)
(0.200332 -0.423385 0)
(0.168349 -0.426444 0)
(0.13971 -0.431062 0)
(0.112858 -0.435576 0)
(0.0869477 -0.438958 0)
(0.0615894 -0.440679 0)
(0.0366039 -0.440475 0)
(0.0118889 -0.438178 0)
(-0.0126339 -0.433659 0)
(-0.0370466 -0.426786 0)
(-0.0614213 -0.417385 0)
(-0.0858414 -0.405264 0)
(-0.110383 -0.390229 0)
(-0.135135 -0.37207 0)
(-0.16022 -0.350586 0)
(-0.185823 -0.325638 0)
(-0.21223 -0.297209 0)
(-0.239859 -0.265268 0)
(-0.26912 -0.229841 0)
(-0.299269 -0.19078 0)
(-0.327157 -0.14675 0)
(-0.341502 -0.0957423 0)
(-0.307459 -0.0382632 0)
(0.69726 -0.378864 0)
(0.652309 -0.401061 0)
(0.595493 -0.413081 0)
(0.529143 -0.414664 0)
(0.458519 -0.408119 0)
(0.390221 -0.397941 0)
(0.32969 -0.389087 0)
(0.279315 -0.384887 0)
(0.238243 -0.385948 0)
(0.203762 -0.390726 0)
(0.173072 -0.39701 0)
(0.144277 -0.403071 0)
(0.11642 -0.407944 0)
(0.089102 -0.4112 0)
(0.0621536 -0.412658 0)
(0.0354716 -0.412211 0)
(0.00896559 -0.409761 0)
(-0.0174553 -0.405209 0)
(-0.0438928 -0.398438 0)
(-0.0704366 -0.389287 0)
(-0.0971803 -0.377576 0)
(-0.124209 -0.363121 0)
(-0.151606 -0.345727 0)
(-0.17947 -0.325211 0)
(-0.20793 -0.301457 0)
(-0.237181 -0.274479 0)
(-0.267565 -0.244227 0)
(-0.299538 -0.210928 0)
(-0.332759 -0.174815 0)
(-0.364903 -0.134658 0)
(-0.386238 -0.088155 0)
(-0.362244 -0.0354111 0)
(0.71729 -0.348477 0)
(0.664279 -0.365075 0)
(0.598899 -0.371545 0)
(0.525475 -0.368996 0)
(0.451205 -0.361192 0)
(0.383402 -0.353274 0)
(0.326434 -0.349379 0)
(0.280458 -0.350857 0)
(0.24264 -0.356403 0)
(0.209538 -0.363692 0)
(0.17871 -0.370851 0)
(0.148936 -0.376877 0)
(0.119739 -0.381365 0)
(0.0909431 -0.384177 0)
(0.0624474 -0.385252 0)
(0.0341567 -0.384533 0)
(0.00596844 -0.381941 0)
(-0.022229 -0.377398 0)
(-0.0505584 -0.370797 0)
(-0.0791295 -0.361984 0)
(-0.10805 -0.35079 0)
(-0.137412 -0.337032 0)
(-0.167293 -0.320524 0)
(-0.197762 -0.301088 0)
(-0.228897 -0.278616 0)
(-0.260811 -0.253137 0)
(-0.293746 -0.224569 0)
(-0.328067 -0.193178 0)
(-0.363783 -0.159454 0)
(-0.399467 -0.122447 0)
(-0.426923 -0.0800485 0)
(-0.41241 -0.032162 0)
(0.733026 -0.317955 0)
(0.671975 -0.329746 0)
(0.599021 -0.332211 0)
(0.520618 -0.327769 0)
(0.445375 -0.321083 0)
(0.380235 -0.316967 0)
(0.327528 -0.317935 0)
(0.2851 -0.323424 0)
(0.248981 -0.331175 0)
(0.215932 -0.339099 0)
(0.184228 -0.346031 0)
(0.153199 -0.351524 0)
(0.122625 -0.355446 0)
(0.0924099 -0.357765 0)
(0.062462 -0.358459 0)
(0.032677 -0.35749 0)
(0.00293409 -0.354794 0)
(-0.026902 -0.35031 0)
(-0.056976 -0.343943 0)
(-0.0874211 -0.335545 0)
(-0.118363 -0.324951 0)
(-0.149901 -0.311982 0)
(-0.182105 -0.29645 0)
(-0.215017 -0.278177 0)
(-0.248663 -0.25705 0)
(-0.283082 -0.233104 0)
(-0.318419 -0.206255 0)
(-0.354873 -0.176728 0)
(-0.39269 -0.145137 0)
(-0.431247 -0.110879 0)
(-0.463783 -0.072205 0)
(-0.457786 -0.0289485 0)
(0.745049 -0.288168 0)
(0.676494 -0.296168 0)
(0.597443 -0.296205 0)
(0.516266 -0.291699 0)
(0.442157 -0.28751 0)
(0.380688 -0.287377 0)
(0.331773 -0.29203 0)
(0.291551 -0.299683 0)
(0.255855 -0.308053 0)
(0.222118 -0.315691 0)
(0.189262 -0.322009 0)
(0.156943 -0.326849 0)
(0.125052 -0.330188 0)
(0.0935094 -0.332027 0)
(0.0622192 -0.332365 0)
(0.0310629 -0.331178 0)
(-9.9508e-05 -0.328418 0)
(-0.0314293 -0.324039 0)
(-0.0630934 -0.317955 0)
(-0.0952526 -0.310026 0)
(-0.128053 -0.300095 0)
(-0.161608 -0.287982 0)
(-0.195981 -0.273493 0)
(-0.231184 -0.256444 0)
(-0.267191 -0.236706 0)
(-0.303967 -0.214308 0)
(-0.341562 -0.1892 0)
(-0.380006 -0.161552 0)
(-0.419652 -0.131993 0)
(-0.460531 -0.100241 0)
(-0.49717 -0.0649449 0)
(-0.498608 -0.0259506 0)
(0.754076 -0.259804 0)
(0.67894 -0.265077 0)
(0.595459 -0.264048 0)
(0.513434 -0.260698 0)
(0.441755 -0.25945 0)
(0.383983 -0.262627 0)
(0.33784 -0.269535 0)
(0.298603 -0.277966 0)
(0.262532 -0.286104 0)
(0.227783 -0.293101 0)
(0.193718 -0.298709 0)
(0.16016 -0.302893 0)
(0.127035 -0.305671 0)
(0.0942657 -0.30706 0)
(0.0617463 -0.307073 0)
(0.0293442 -0.305702 0)
(-0.00310078 -0.302912 0)
(-0.0357762 -0.298671 0)
(-0.0688734 -0.292903 0)
(-0.102583 -0.285481 0)
(-0.137077 -0.276253 0)
(-0.172486 -0.265038 0)
(-0.208873 -0.251637 0)
(-0.246225 -0.235853 0)
(-0.284458 -0.217536 0)
(-0.323456 -0.196691 0)
(-0.363164 -0.173318 0)
(-0.403479 -0.147564 0)
(-0.444758 -0.119989 0)
(-0.487525 -0.090583 0)
(-0.527413 -0.0583705 0)
(-0.535252 -0.0232277 0)
(0.76085 -0.233335 0)
(0.680264 -0.236855 0)
(0.59395 -0.235774 0)
(0.51251 -0.234183 0)
(0.443789 -0.235659 0)
(0.389144 -0.24115 0)
(0.344685 -0.249115 0)
(0.30556 -0.257487 0)
(0.2687 -0.26502 0)
(0.232837 -0.271277 0)
(0.197595 -0.276176 0)
(0.16287 -0.279734 0)
(0.128602 -0.281984 0)
(0.0947071 -0.282959 0)
(0.0610716 -0.282683 0)
(0.0275474 -0.281157 0)
(-0.0060453 -0.278366 0)
(-0.0399193 -0.274287 0)
(-0.0742932 -0.268856 0)
(-0.109389 -0.261959 0)
(-0.145409 -0.253452 0)
(-0.182506 -0.243155 0)
(-0.220754 -0.230864 0)
(-0.260117 -0.216366 0)
(-0.300453 -0.199488 0)
(-0.341552 -0.180196 0)
(-0.383238 -0.158527 0)
(-0.425303 -0.134656 0)
(-0.468076 -0.109037 0)
(-0.512383 -0.0818558 0)
(-0.554821 -0.0524743 0)
(-0.568127 -0.0207865 0)
(0.766052 -0.209026 0)
(0.681194 -0.211591 0)
(0.593393 -0.211095 0)
(0.513435 -0.211376 0)
(0.447629 -0.215009 0)
(0.395304 -0.221854 0)
(0.35163 -0.230054 0)
(0.312082 -0.23794 0)
(0.274252 -0.244741 0)
(0.237275 -0.250255 0)
(0.200917 -0.254477 0)
(0.165106 -0.257448 0)
(0.129784 -0.259211 0)
(0.0948642 -0.25981 0)
(0.0602221 -0.259277 0)
(0.0256958 -0.257627 0)
(-0.00891406 -0.254857 0)
(-0.0438442 -0.250957 0)
(-0.0793422 -0.245873 0)
(-0.115663 -0.239504 0)
(-0.153041 -0.231718 0)
(-0.191662 -0.222339 0)
(-0.231613 -0.211157 0)
(-0.272848 -0.197945 0)
(-0.315173 -0.182504 0)
(-0.358269 -0.164757 0)
(-0.401815 -0.144751 0)
(-0.445507 -0.122716 0)
(-0.48965 -0.0990303 0)
(-0.53523 -0.0739766 0)
(-0.579667 -0.0472002 0)
(-0.597627 -0.0186079 0)
(0.770265 -0.186973 0)
(0.682213 -0.189191 0)
(0.593922 -0.189567 0)
(0.515887 -0.1915 0)
(0.452628 -0.196625 0)
(0.401826 -0.20407 0)
(0.358291 -0.212015 0)
(0.318027 -0.219234 0)
(0.279174 -0.225281 0)
(0.241124 -0.230084 0)
(0.203718 -0.233673 0)
(0.166902 -0.236099 0)
(0.130616 -0.237417 0)
(0.0947677 -0.237678 0)
(0.0592242 -0.236923 0)
(0.0238101 -0.235176 0)
(-0.0116927 -0.232446 0)
(-0.0475436 -0.228734 0)
(-0.0840193 -0.223998 0)
(-0.121408 -0.218151 0)
(-0.159983 -0.211073 0)
(-0.199962 -0.202592 0)
(-0.24146 -0.192497 0)
(-0.284429 -0.180548 0)
(-0.328628 -0.166524 0)
(-0.373629 -0.150304 0)
(-0.41894 -0.131922 0)
(-0.46413 -0.111654 0)
(-0.509524 -0.0898591 0)
(-0.556175 -0.0668476 0)
(-0.60219 -0.0424774 0)
(-0.624111 -0.0166634 0)
(0.773896 -0.167118 0)
(0.683564 -0.169253 0)
(0.595496 -0.170616 0)
(0.519479 -0.173861 0)
(0.458249 -0.179881 0)
(0.408298 -0.187418 0)
(0.364476 -0.194856 0)
(0.323355 -0.201354 0)
(0.283484 -0.206673 0)
(0.244418 -0.210808 0)
(0.206037 -0.213808 0)
(0.168296 -0.215735 0)
(0.131131 -0.216649 0)
(0.0944475 -0.216609 0)
(0.0581025 -0.215663 0)
(0.0219083 -0.213843 0)
(-0.0143706 -0.211169 0)
(-0.0510153 -0.207651 0)
(-0.0883304 -0.203259 0)
(-0.126639 -0.197921 0)
(-0.166252 -0.191526 0)
(-0.207431 -0.183912 0)
(-0.250321 -0.174866 0)
(-0.294887 -0.164141 0)
(-0.340848 -0.151493 0)
(-0.387663 -0.136758 0)
(-0.43465 -0.119964 0)
(-0.481232 -0.101397 0)
(-0.527757 -0.0814339 0)
(-0.575321 -0.0603812 0)
(-0.622599 -0.0382375 0)
(-0.647898 -0.0149233 0)
(0.777305 -0.149164 0)
(0.685387 -0.151448 0)
(0.597842 -0.153712 0)
(0.523806 -0.157947 0)
(0.464104 -0.164381 0)
(0.414482 -0.171703 0)
(0.37011 -0.178527 0)
(0.328075 -0.184312 0)
(0.28722 -0.188946 0)
(0.247196 -0.192459 0)
(0.207912 -0.194914 0)
(0.169322 -0.196382 0)
(0.131363 -0.196931 0)
(0.0939321 -0.196625 0)
(0.0568798 -0.195517 0)
(0.0200064 -0.193647 0)
(-0.0169397 -0.191043 0)
(-0.0542597 -0.187723 0)
(-0.0922855 -0.183668 0)
(-0.131374 -0.178819 0)
(-0.171878 -0.173077 0)
(-0.214103 -0.16629 0)
(-0.258238 -0.158245 0)
(-0.30427 -0.148689 0)
(-0.351879 -0.137355 0)
(-0.4004 -0.124033 0)
(-0.44898 -0.108794 0)
(-0.496864 -0.0918921 0)
(-0.54441 -0.0736886 0)
(-0.592773 -0.0545013 0)
(-0.641077 -0.0344203 0)
(-0.669266 -0.0133606 0)
(0.780612 -0.132908 0)
(0.687614 -0.135626 0)
(0.60084 -0.138537 0)
(0.528543 -0.143394 0)
(0.469929 -0.149915 0)
(0.420259 -0.156831 0)
(0.37518 -0.163016 0)
(0.332216 -0.168122 0)
(0.290417 -0.172115 0)
(0.249497 -0.17505 0)
(0.209377 -0.177001 0)
(0.170015 -0.178048 0)
(0.131341 -0.178267 0)
(0.0932474 -0.177725 0)
(0.0555769 -0.176482 0)
(0.0181187 -0.174581 0)
(-0.0193933 -0.172059 0)
(-0.0572789 -0.16894 0)
(-0.0958961 -0.165215 0)
(-0.135634 -0.160836 0)
(-0.17689 -0.155716 0)
(-0.22002 -0.149711 0)
(-0.265266 -0.142615 0)
(-0.312637 -0.134161 0)
(-0.361757 -0.124046 0)
(-0.411898 -0.112086 0)
(-0.461969 -0.0983457 0)
(-0.511063 -0.0830868 0)
(-0.559549 -0.0665709 0)
(-0.608633 -0.0491419 0)
(-0.657789 -0.0309736 0)
(-0.688456 -0.011952 0)
(0.783899 -0.118308 0)
(0.690195 -0.121442 0)
(0.604341 -0.124817 0)
(0.533436 -0.129959 0)
(0.475527 -0.136383 0)
(0.425576 -0.142762 0)
(0.379699 -0.148316 0)
(0.335813 -0.152785 0)
(0.293113 -0.156181 0)
(0.251353 -0.158575 0)
(0.210463 -0.160057 0)
(0.170401 -0.160716 0)
(0.131091 -0.160635 0)
(0.0924165 -0.159886 0)
(0.0542126 -0.158532 0)
(0.0162587 -0.15662 0)
(-0.0217246 -0.154192 0)
(-0.0600746 -0.151278 0)
(-0.0991731 -0.147876 0)
(-0.139442 -0.14395 0)
(-0.181322 -0.139422 0)
(-0.225232 -0.13416 0)
(-0.271467 -0.127955 0)
(-0.320025 -0.120499 0)
(-0.370557 -0.111526 0)
(-0.422215 -0.1009 0)
(-0.473642 -0.0886165 0)
(-0.523878 -0.0749393 0)
(-0.573254 -0.0600308 0)
(-0.623006 -0.0442476 0)
(-0.672884 -0.0278527 0)
(-0.705681 -0.0106775 0)
(0.787228 -0.105172 0)
(0.693073 -0.108571 0)
(0.608141 -0.112271 0)
(0.538277 -0.117498 0)
(0.480752 -0.123601 0)
(0.43041 -0.129402 0)
(0.383706 -0.134349 0)
(0.338918 -0.138239 0)
(0.295349 -0.141098 0)
(0.252793 -0.142994 0)
(0.211195 -0.144042 0)
(0.170506 -0.144343 0)
(0.130637 -0.143991 0)
(0.0914609 -0.143063 0)
(0.0528049 -0.141621 0)
(0.0144399 -0.139718 0)
(-0.0239261 -0.137398 0)
(-0.0626463 -0.134696 0)
(-0.102124 -0.131615 0)
(-0.142815 -0.128127 0)
(-0.18521 -0.12417 0)
(-0.22979 -0.119616 0)
(-0.27687 -0.11421 0)
(-0.326509 -0.107667 0)
(-0.378362 -0.0998101 0)
(-0.431357 -0.0904731 0)
(-0.484049 -0.0796038 0)
(-0.535385 -0.0674142 0)
(-0.585612 -0.0540244 0)
(-0.635992 -0.0397724 0)
(-0.686497 -0.0250198 0)
(-0.721128 -0.0095199 0)
(0.790512 -0.0932754 0)
(0.696157 -0.0967751 0)
(0.612049 -0.100675 0)
(0.542976 -0.105829 0)
(0.485542 -0.111436 0)
(0.434694 -0.116634 0)
(0.387189 -0.120962 0)
(0.341542 -0.124299 0)
(0.297177 -0.126674 0)
(0.253888 -0.128172 0)