/*--------------------------------*- C++ -*----------------------------------*\
| =========                 |                                                 |
| \\      /  F ield         | OpenFOAM: The Open Source CFD Toolbox           |
|  \\    /   O peration     | Version:  v2012                                 |
|   \\  /    A nd           | Website:  www.openfoam.com                      |
|    \\/     M anipulation  |                                                 |
\*---------------------------------------------------------------------------*/
FoamFile
{
    version     2.0;
    format      ascii;
    class       volScalarField;
    location    "2000";
    object      age;
}
// * * * * * * * * * * * * * * * * * * * * * * * * * * * * * * * * * * * * * //

dimensions      [0 0 1 0 0 0 0];


internalField   nonuniform List<scalar> 
6502
(
0.0129906
0.0123475
0.0124427
0.0124736
0.0124786
0.0124786
0.0124735
0.0124426
0.0123476
0.0129897
0.0402469
0.0366518
0.036814
0.037104
0.0371778
0.0371775
0.0371031
0.0368129
0.0366498
0.0402408
0.0710986
0.0609659
0.0604244
0.0611256
0.0613548
0.0613538
0.0611232
0.060421
0.0609535
0.07107
0.106542
0.0858395
0.0832979
0.0844314
0.0848905
0.0848882
0.0844274
0.0832891
0.0857947
0.106448
0.14747
0.111682
0.105535
0.107006
0.107763
0.107759
0.107002
0.105516
0.111561
0.147221
0.194282
0.138718
0.127306
0.128907
0.130006
0.13
0.128904
0.127265
0.138441
0.193718
0.246714
0.166498
0.148699
0.150238
0.151684
0.151678
0.15024
0.148623
0.165941
0.245576
0.30403
0.19647
0.170067
0.171087
0.172872
0.172866
0.171106
0.169908
0.195403
0.301934
0.365392
0.227182
0.191559
0.191552
0.193634
0.193634
0.191599
0.191258
0.22548
0.361791
0.430047
0.257493
0.213096
0.211717
0.214031
0.214043
0.211805
0.21257
0.25463
0.424204
0.497484
0.288361
0.234693
0.23164
0.234118
0.234149
0.231787
0.233833
0.283669
0.488333
0.56743
0.320009
0.256425
0.251373
0.253934
0.253999
0.251593
0.255035
0.312558
0.55368
0.639677
0.352585
0.2782
0.270943
0.273509
0.273626
0.271263
0.276166
0.341038
0.618926
0.714782
0.386453
0.30071
0.290413
0.292867
0.293049
0.290851
0.297148
0.368947
0.687776
0.794792
0.422116
0.324078
0.309879
0.312021
0.312289
0.310327
0.318132
0.39628
0.756413
0.878097
0.460026
0.347892
0.329421
0.330984
0.331362
0.329669
0.339345
0.422821
0.820893
0.964438
0.500801
0.372081
0.34915
0.349775
0.35028
0.348865
0.360346
0.448183
0.880629
1.05465
0.54532
0.396091
0.369076
0.36843
0.369054
0.367904
0.380842
0.471713
0.930943
1.14974
0.594788
0.420553
0.389228
0.386988
0.387691
0.386779
0.400636
0.492846
0.972577
1.25153
0.650861
0.44615
0.409714
0.405506
0.406209
0.405499
0.419496
0.509546
0.982354
1.36184
0.716307
0.474154
0.4308
0.424133
0.42472
0.424186
0.437284
0.519842
0.934687
1.48503
0.792077
0.505593
0.452746
0.442964
0.443258
0.442916
0.45426
0.527778
0.892123
1.62117
0.879125
0.541765
0.475751
0.462021
0.461781
0.461669
0.470658
0.535068
0.845597
1.77883
0.980045
0.584448
0.500453
0.481419
0.480305
0.480489
0.486605
0.542196
0.799317
1.9573
1.09674
0.635981
0.52822
0.501957
0.498912
0.499342
0.503493
0.549671
0.757415
2.17677
1.23434
0.699252
0.557806
0.523806
0.517808
0.518206
0.520891
0.558038
0.721956
2.44301
1.39897
0.778571
0.590286
0.547087
0.537223
0.537109
0.538717
0.567679
0.693956
2.77224
1.59933
0.880727
0.62826
0.572298
0.557468
0.55616
0.55695
0.578809
0.673805
3.19161
1.84572
1.01233
0.677403
0.600171
0.578628
0.575471
0.575566
0.591661
0.661354
3.75447
2.16615
1.18396
0.74457
0.633015
0.601601
0.595264
0.594602
0.605013
0.655913
4.53517
2.5495
1.38874
0.836323
0.6724
0.627481
0.615967
0.614097
0.619239
0.65606
5.90547
3.28559
1.71059
0.96514
0.717254
0.656481
0.638481
0.634396
0.635937
0.661126
7.64933
3.37528
2.00207
1.1668
0.793821
0.691584
0.662342
0.655398
0.65442
0.670656
75.3069
11.3382
2.66849
1.38653
0.893965
0.73673
0.690671
0.677837
0.674403
0.682928
96.1446
28.2996
3.74647
1.70813
1.0267
0.795383
0.724794
0.70275
0.696187
0.695613
94.0871
55.1726
10.2345
2.24219
1.19875
0.871685
0.767142
0.731858
0.720635
0.710646
91.273
82.9919
29.4813
4.63427
1.58181
0.990007
0.822864
0.766764
0.748341
0.733835
90.2648
71.9725
51.2881
14.7605
2.10747
1.18194
0.904375
0.810768
0.779735
0.762368
88.9666
60.0441
59.546
33.9892
8.22504
1.43568
1.02294
0.87472
0.819967
0.795593
87.8381
57.5992
57.0513
49.8035
22.5865
4.92829
1.20431
0.962332
0.87397
0.836273
87.0108
56.3958
51.7681
53.4787
40.2345
15.8378
3.29108
1.09527
0.943288
0.886219
86.1344
55.2776
50.8332
51.7013
49.8363
32.9628
12.095
2.53383
1.05441
0.946053
85.4468
54.5072
50.0692
50.2036
51.249
46.7053
27.8388
9.86693
2.14208
1.04278
85.8656
54.0838
49.4819
49.7676
51.1599
52.6745
43.7449
24.8636
8.75785
2.00026
86.5558
53.7556
48.9808
49.3674
51.8144
53.5992
53.3257
41.5848
23.2923
8.47635
86.811
53.3821
48.5052
48.9346
52.0311
55.0656
57.1982
54.1162
40.9705
23.2841
87.0245
53.0213
48.0377
48.4966
52.0509
56.4787
59.3534
60.598
55.5601
41.8917
86.9414
52.5953
47.5684
48.0612
51.9204
57.1716
62.1442
64.7886
64.7064
58.2229
86.2538
52.0582
47.0941
47.6258
51.6539
57.5317
63.7923
68.9409
71.2351
69.8511
85.3947
51.518
46.6216
47.1392
51.1837
57.4011
64.593
71.5315
76.7653
78.6413
84.6787
51.0447
46.1593
46.5268
50.4177
56.662
64.3083
72.4404
79.8861
85.308
84.4398
50.7295
45.7267
45.7697
49.2522
55.1416
62.7442
71.3661
80.1867
88.2001
85.5193
50.7177
45.3479
44.9507
47.6856
52.7857
59.7479
68.1096
77.3336
86.6794
89.1379
51.2129
45.0598
44.1547
45.8585
49.7608
55.5078
62.795
71.3364
80.6916
96.3169
52.5207
45.1599
43.5731
44.0755
46.4768
50.5714
56.1261
63.0243
71.0235
108.643
55.4769
46.0912
43.3589
42.8112
43.6007
45.8188
49.2674
53.9392
59.665
132.238
63.0811
48.7217
44.08
42.4417
41.9907
42.327
43.6604
45.9659
49.1201
176.283
87.6278
53.9418
46.8188
43.4676
41.7591
41.0194
40.8067
40.9616
41.779
250.583
154.167
67.2242
53.1009
47.3203
43.8217
41.7366
40.4132
39.6091
39.2055
379.136
324.752
103.309
64.6064
55.0107
49.0452
45.3305
42.7334
40.8536
39.4535
143.782
244.579
245.374
254.336
264.234
274.681
284.852
294.99
305.034
315.213
325.72
337.233
350.474
364.257
380.335
395.72
412.032
429.431
445.077
457.853
469.095
481.342
498.02
537.402
637.675
128.09
211.424
189.098
195.704
200.413
206.815
213.371
220.392
227.903
236.191
245.633
256.767
270.422
287.501
309.124
335.965
368.954
407.028
446.418
478.619
492.295
496.56
501.878
524.968
613.44
102.774
196.053
177.063
179.435
181.062
183.852
186.879
190.162
193.688
197.615
202.279
208.155
216.059
227.324
243.971
268.924
305.894
357.914
424.571
498.069
563.66
551.118
527.608
531.059
595.869
76.4344
181.743
173.856
173.568
174.081
175.649
177.64
179.933
182.394
184.983
187.754
190.838
194.506
199.346
206.621
218.952
241.23
281.348
347.657
442.293
542.099
592.748
556.42
540.335
595.783
53.2669
163.507
172.639
169.997
169.779
170.186
171.099
172.444
174.211
176.336
178.807
181.701
184.995
188.66
192.807
197.966
206.069
222.685
258.934
333.298
445.571
558.716
579.477
549.729
602.233
34.1397
141.777
171.915
168.968
168.536
168.295
168.271
168.436
168.885
169.744
171.082
173.068
175.88
179.512
183.993
189.115
194.645
201.194
211.743
241.48
313.101
443.531
560.281
564.835
610.54
19.4345
112.951
167.617
168.895
168.205
167.851
167.609
167.47
167.345
167.293
167.397
167.773
168.77
170.774
174.146
179.111
185.37
192.495
199.837
208.304
228.589
296.611
449.661
600.484
624.132
10.8463
81.3998
155.26
169.013
168.277
167.985
167.703
167.427
167.157
166.906
166.699
166.573
166.497
166.621
167.47
169.917
174.691
181.818
190.709
199.849
208.583
221.857
283.808
453.136
635.778
6.16699
53.1305
135.341
167.939
168.481
168.473
168.65
168.658
168.472
168.134
167.61
166.959
166.354
166.049
165.86
165.904
167.273
171.376
179.283
190.106
201.874
212.384
224.536
288.937
543.087
3.6092
31.0432
106.662
160.065
168.799
169.975
172.921
175.567
177.15
177.696
177.215
175.63
173.009
170.033
167.35
165.614
165.285
165.828
169.402
178.206
191.127
205.546
217.194
224.328
241.425
2.21651
15.6115
73.7367
143.1
168.713
171.19
177.912
184.322
189.247
192.781
194.651
194.42
191.82
186.789
179.962
172.734
167.423
165.009
165.119
168.84
179.296
195.043
210.909
221.29
226.698
1.45777
7.64996
44.2669
113.521
160.845
171.903
180.771
192.17
201.714
209.735
215.691
218.808
218.299
213.711
205.01
193.2
180.381
169.91
164.893
164.739
169.73
183.994
203.099
217.06
222.206
1.05819
3.99723
22.8165
79.3685
141.296
170.198
181.521
196.533
211.803
225.498
237.088
245.368
249.016
246.98
238.783
224.689
206.384
187.018
171.248
164.389
164.63
173.59
194.189
213.245
219.219
0.864366
2.2836
9.86622
46.3207
108.381
156.959
179.681
196.08
216.596
236.65
254.635
269.294
278.748
281.344
276.018
262.366
241.23
215.206
189.074
169.695
163.439
166.179
184.327
208.865
217.315
0.781633
1.42863
4.53216
22.3484
71.275
128.921
168.901
191.846
214.131
239.9
264.629
285.914
302.032
310.682
310.126
299.661
279.079
249.918
215.905
183.965
165.148
162.328
174.784
203.777
216.019
0.751745
1.02216
2.40155
8.81687
37.8539
90.3949
142.967
179.609
205.951
233.645
263.825
291.873
314.585
329.698
335.304
329.733
312.628
284.332
247.268
206.892
173.102
161.398
167.182
198.043
215.092
0.749763
0.856585
1.43761
3.71551
15.9511
52.5196
104.333
152.983
189.568
219.958
251.745
284.596
313.868
336.316
350.437
348.449
336.619
312.033
275.614
232.144
187.595
161.562
160.921
192.002
214.423
0.759306
0.802708
1.01117
1.94101
5.38072
23.2334
62.6044
112.61
159.322
197.436
231.208
265.222
298.448
327.093
346.704
354.588
348.398
329.501
296.222
254.684
206.517
165.869
155.873
185.887
213.926
0.78113
0.794998
0.864943
1.19084
2.29601
7.74004
28.7864
67.884
115.513
161.254
201.043
236.964
271.266
303.016
328.288
343.515
348.532
334.175
306.361
269.138
222.575
174.478
152.28
179.942
213.536
0.81384
0.807159
0.829963
0.913754
1.31929
2.55469
9.51685
31.6764
68.5608
113.177
157.717
198.318
234.951
268.224
296.733
317.465
327.305
323.121
304.946
274.152
232.519
183.366
150.933
174.354
213.232
0.855999
0.836778
0.836186
0.85724
0.944001
1.3553
2.32849
9.96277
31.022
64.5345
105.435
147.812
187.784
223.824
255.077
279.906
295.701
299.974
291.075
268.755
234.464
189.738
150.1
169.035
212.998
0.905031
0.879756
0.862783
0.862606
0.876597
0.955249
1.0919
1.82974
8.57077
26.997
56.2549
92.6022
131.484
169.195
203.303
231.99
253.268
264.984
265.132
252.456
227.058
191.042
149.693
163.44
212.81
0.956976
0.927617
0.906641
0.890957
0.885789
0.895168
0.927394
1.05954
1.14516
6.03117
19.9723
44.1382
75.1582
109.345
143.319
174.317
200.015
218.268
227.089
224.799
210.534
184.961
149.46
154.193
212.537
1.03703
0.970784
0.94955
0.933816
0.919708
0.908752
0.912114
0.937586
0.983511
1.05725
3.50028
12.5545
30.7496
55.5891
84.0364
113.087
140.022
162.437
178.215
185.628
183.5
171.004
147.423
137.103
187.678
2.09013
1.09117
1.00068
0.976375
0.962483
0.948466
0.936862
0.937194
0.948779
0.970697
1.05517
1.47911
6.21518
17.3898
35.5051
57.6777
81.199
103.607
122.724
136.721
144.334
144.694
139.945
124.17
113.275
9.14151
2.61337
1.2228
1.05409
1.01083
0.991583
0.978805
0.966319
0.962597
0.967747
0.981398
1.03507
1.10357
2.25637
7.39123
17.6581
32.8534
50.3671
67.9853
83.8446
96.5137
104.99
109.122
109.161
107.885
24.9665
10.9947
3.60099
1.47488
1.14771
1.06168
1.0275
1.00949
0.99919
0.994958
0.992529
0.999724
1.0174
1.08648
1.15149
2.08263
5.96173
13.3346
24.2649
36.6832
48.9956
59.9965
68.8958
75.5045
80.1343
44.7901
28.3916
13.9617
5.28252
1.95066
1.30977
1.14518
1.07849
1.04764
1.03433
1.02802
1.02315
1.02461
1.03448
1.05473
1.11477
1.17978
1.23325
3.11109
7.06205
13.0478
20.8439
29.0405
36.8702
43.903
62.72
49.6137
33.2759
18.3569
7.99538
2.97314
1.63758
1.29835
1.1659
1.10444
1.07691
1.06445
1.05832
1.05423
1.05894
1.06865
1.09385
1.12092
1.1801
1.23208
1.27917
2.44444
4.74541
8.09641
12.3447
76.4578
69.0248
56.0138
39.8064
24.3428
12.1273
5.12968
2.36466
1.59773
1.32641
1.20111
1.14091
1.11242
1.09868
1.09242
1.08999
1.09626
1.10621
1.12519
1.15177
1.17787
1.22833
1.27047
1.3141
1.42542
87.0414
84.4747
76.8157
63.9786
48.0164
31.823
18.1533
8.8873
3.98547
2.22747
1.64178
1.38516
1.25473
1.18864
1.1556
1.13966
1.1328
1.13317
1.13866
1.14844
1.16268
1.18226
1.20621
1.2316
1.26331
93.9202
95.8833
93.3028
85.669
73.2047
57.4914
40.9002
26.1873
14.6566
7.41632
3.65159
2.27232
1.7393
1.47666
1.33258
1.2542
1.21251
1.19203
1.18366
1.1831
1.18794
1.19697
1.20857
1.22321
1.2406
95.0037
101.277
104.112
101.862
94.6322
82.7838
67.572
51.1688
35.5598
22.7134
13.0245
7.01451
3.79506
2.47662
1.91038
1.61793
1.44914
1.3501
1.29397
1.26384
1.24977
1.24541
1.24757
1.25417
1.26368
90.0109
98.4315
105.249
109.123
107.036
101.136
90.511
76.5689
60.9452
45.5686
31.7933
20.8072
12.6065
7.35482
4.35513
2.88601
2.20038
1.84172
1.6309
1.50032
1.41992
1.37205
1.3452
1.33204
1.32795
79.581
88.119
96.1458
102.705
106.407
108.066
102.783
93.6892
81.7346
68.031
53.8843
40.6446
29.1196
19.9342
13.0508
8.33336
5.39246
3.65881
2.72656
2.22676
1.93526
1.75322
1.63452
1.55653
1.50654
66.135
73.0504
80.1718
87.003
92.8196
96.7339
97.9359
95.7269
88.8373
79.9441
69.3222
57.8639
46.5175
36.0902
27.0667
19.7097
14.0886
9.93395
7.0231
5.08984
3.84291
3.04342
2.55601
2.25226
2.05405
52.9199
57.2658
62.0364
67.0023
71.7828
75.8688
78.7442
79.9827
79.0715
76.094
70.2894
63.4051
55.4862
47.264
39.2461
31.8407
25.3592
19.9131
15.501
12.0456
9.42294
7.43137
5.95352
4.878
4.10449
43.1023
44.8979
47.0886
49.5952
52.276
54.8866
57.1361
58.8176
59.7615
59.6367
58.0518
55.4295
51.8367
47.5291
42.7269
37.6986
32.7876
28.2163
24.1033
20.4954
17.4113
14.8216
12.6782
10.9245
9.50785
38.9061
38.7641
38.8728
39.1814
39.6809
40.3434
41.0658
41.7183
42.2229
42.4727
42.3722
41.8665
40.9473
39.5827
37.7828
35.6202
33.2462
30.832
28.4768
26.1915
24.0289
22.0585
20.2978
18.7359
17.3694
38.4191
37.6439
37.0576
36.631
36.2388
35.8903
35.5748
35.2828
35.0077
34.7424
34.4801
34.2171
33.9425
33.5925
33.0866
32.4084
31.689
30.9263
30.1225
29.2673
28.3561
27.4675
26.6459
25.8901
25.2035
256.674
277.815
289.463
135.343
173.927
205.713
103.426
96.489
93.3114
83.159
85.1802
86.7008
49.7818
54.6642
59.1994
17.0098
21.5013
25.9398
1.9958
2.9766
4.32166
1.29864
1.32835
1.35815
1.26016
1.27988
1.30042
1.27573
1.28823
1.3016
1.32927
1.33419
1.34172
1.47645
1.4595
1.45023
1.92601
1.84051
1.7784
3.56867
3.19642
2.92275
8.42315
7.58674
6.89067
16.2454
15.3309
14.5322
24.6457
24.1677
23.7474
2892.58
2763.21
2615.99
2490.26
2389.36
2314.22
2258.86
2218.27
2189.08
2171.75
2163.37
2160.68
2161.49
2164.41
2168.64
2174.22
2181.39
2189.74
2198.67
2205.52
2212.73
2226.71
2238.11
2249.2
2260.89
2273.43
2291.83
2309.49
2302.47
2309.96
2325.07
2340.06
2363.68
2359.54
2330.42
2197.68
806.61
269.859
231.551
221.934
211.073
203.64
198.076
193.822
190.469
187.773
185.567
183.736
182.201
180.906
179.808
178.864
178.046
177.33
176.698
176.134
175.626
175.162
174.734
174.333
173.952
173.584
173.226
172.88
172.581
172.399
172.294
172.562
173.439
175.17
178.021
182.471
190.272
203.669
223.136
248.387
284.029
310.018
332.378
385.194
2499.54
2318.57
2151.86
2024.81
1941.9
1899.72
1880.61
1876.93
1885.19
1898.63
1914.38
1929.35
1943.26
1955.88
1969.7
1984.84
2000.38
2015.81
2031.89
2045.98
2057.61
2072.83
2085.74
2098.83
2111.22
2124.21
2149.22
2165.78
2180.91
2196.87
2229.73
2295.32
2239.31
1620.13
976.151
553.751
277.772
208.588
203.007
195.978
190.938
187.077
184.332
182.362
180.769
179.427
178.269
177.294
176.644
176.261
175.894
175.556
175.253
174.98
174.734
174.51
174.304
174.113
173.933
173.761
173.595
173.43
173.253
172.672
171.663
170.239
168.461
166.447
164.387
162.606
161.709
161.401
161.16
163.965
175.135
200.535
253.685
320.513
354.799
394.774
2087.8
1936.07
1818.32
1755.36
1746.74
1761.45
1785.71
1824.6
1871.5
1924.42
1974.94
2019.94
2063.73
2106.88
2149.47
2189.82
2226.45
2258.16
2284.15
2303.55
2315.48
2321.19
2321.51
2314.81
2298.15
2274.23
2248.45
2227.71
2226.42
2216.34
2047.79
1561.79
925.497
455.751
258.294
202.779
193.305
188.951
186.982
184.48
182.896
181.749
180.982
180.609
180.344
180.169
180.377
181.144
182.479
184.364
186.922
190.297
194.54
199.513
204.867
210.354
215.715
220.652
224.849
227.991
229.781
229.98
228.461
225.378
220.693
214.522
207.079
198.681
189.751
180.819
172.574
166.09
160.915
158.17
157.631
159.877
185.391
255.841
377.194
416.67
1874.67
1760.26
1690.67
1690.22
1724.87
1794.02
1882.81
1980.83
2081.8
2181.81
2278.67
2370.41
2455.89
2533.9
2603.6
2664.17
2714.46
2753.43
2781.2
2794.82
2794.06
2775.96
2738.9
2678.6
2589.58
2479.09
2412.88
2315.8
2058.32
1575.85
988.593
497.473
260.82
197.676
191.882
187.697
185.877
184.608
183.693
183.061
182.828
182.715
183.237
184.459
186.645
190.418
195.965
203.05
211.626
221.646
232.941
245.178
257.914
270.658
283.009
294.653
305.092
313.897
320.681
325.11
326.898
325.816
321.735
314.618
304.523
291.667
276.454
259.436
241.308
222.881
205.043
188.739
174.953
164.573
158.485
156.557
156.663
174.62
260.064
431.486
1769.1
1669.62
1639.19
1682.04
1779.12
1906.42
2047.96
2194.68
2341.62
2485.47
2624.39
2753.86
2867.45
2958.02
3028.14
3083.59
3127.54
3157.02
3168.07
3170.5
3152.73
3100.69
2989.96
2866.06
2706.94
2460.4
2112.57
1632.38
1066.77
571.678
294.737
196.852
192.689
188.434
186.847
185.488
184.773
184.55
184.481
185.074
186.6
189.874
195.234
202.787
212.786
225.222
239.765
256.211
274.505
294.258
315.03
336.323
357.623
378.409
398.14
416.225
432.033
444.988
454.564
460.293
461.742
458.531
450.495
437.673
420.18
398.374
372.886
344.568
314.478
283.825
253.903
226.01
201.376
181.137
166.336
157.968
155.613
156.404
169.512
233.872
1699.14
1609.1
1619.14
1706.93
1848.86
2015.28
2191.63
2370.55
2547.98
2720.09
2884.71
3027
3119.09
3171.35
3211.73
3250.58
3291.29
3310.86
3256.77
3170
3089.76
2981.48
2795.87
2495.13
2087.03
1599.98
1082.73
621.445
330.032
206.615
193.502
189.275
187.912
186.776
186.141
185.9
186.023
187.106
189.927
195.011
202.678
213.311
226.775
243.197
262.615
284.799
309.511
336.5
365.405
395.738
426.97
458.511
489.709
519.835
548.093
573.635
595.608
613.23
625.818
632.763
633.469
627.43
614.477
594.699
568.293
535.746
497.893
455.88
411.151
365.393
320.427
278.076
240.026
207.719
182.327
164.818
156.108
154.207
155.98
165.157
1644.38
1564.18
1602.82
1726.4
1889.87
2070.77
2256.01
2438.79
2615
2779.74
2929.15
3046.91
3117.18
3147.66
3156.93
3155.46
3133.34
3070.62
2955.85
2793.43
2572.35
2265.69
1874.05
1425.48
985.788
597.667
342.425
219.284
195.307
191.429
188.783
187.742
187.462
187.191
187.432
188.755
192.205
198.227
207.273
219.422
234.986
254.114
276.786
303.027
332.717
365.656
401.594
440.168
480.899
523.203
566.388
609.635
652.013
692.507
730.058
763.558
791.95
814.301
829.78
837.636
837.16
827.822
809.442
782.066
745.957
701.701
650.259
592.994
531.676
468.447
405.714
345.973
291.574
244.511
206.309
178.042
160.448
153.869
153.024
157.095
1597.09
1526.93
1585.19
1714.43
1870.15
2033
2189.53
2332.56
2457.55
2559.12
2632.05
2673.44
2683.02
2661.51
2607.92
2518.11
2387.38
2212.72
1993.32
1727.42
1418.84
1082.57
753.094
479.657
303.341
214.663
196.808
193.494
190.418
188.839
188.269
188.184
188.53
189.986
193.408
199.491
208.743
221.256
237.478
257.552
281.706
310.029
342.562
379.285
420.082
464.756
512.987
564.3
618.063
673.477
729.57
785.221
839.203
890.238
937.053
978.35
1012.92
1039.67
1057.63
1065.91
1063.81
1050.82
1026.76
991.628
945.741
889.73
824.607
751.818
673.295
591.479
509.276
429.885
356.5
291.942
238.361
197.172
169.23
155.138
151.754
152.707
1553.19
1490.98
1546.9
1652.17
1765.44
1869.52
1952.34
2006.28
2029.31
2023.34
1989.48
1929.42
1843.96
1733.51
1598.38
1439.17
1257.83
1058.26
847.274
637.272
455.605
319.646
234.985
199.619
197.075
194.684
192.266
190.655
189.536
189.289
189.423
190.813
193.985
199.587
208.139
220
235.587
255.139
278.992
307.359
340.446
378.385
421.257
469.055
521.664
578.821
640.077
704.774
772.034
840.771
909.723
977.502
1042.65
1103.68
1159.12
1207.53
1247.57
1278.01
1297.75
1305.89
1301.7
1284.71
1254.76
1211.92
1156.56
1089.39
1011.42
924.092
829.296
729.505
627.833
527.992
434.031
349.837
278.571
222.326
182.246
158.9
151.355
150.265
1512.06
1447.88
1477.09
1527.62
1561.5
1566
1538.07
1479.67
1395.39
1290.22
1169.9
1039.37
903.041
764.749
628.64
501.977
396.467
312.52
251.353
214.022
200.776
198.537
196.777
194.8
193.475
192.271
191.248
190.749
190.619
191.6
194.369
199.289
206.806
217.332
231.363
249.262
271.403
298.104
329.688
366.433
408.588
456.34
509.798
568.944
633.597
703.359
777.585
855.375
935.589
1016.88
1097.76
1176.65
1251.89
1321.86
1384.9
1439.45
1484.02
1517.27
1538.03
1545.33
1538.48
1517.07
1481.01
1430.52
1366.11
1288.59
1199.05
1098.9
989.899
874.311
755.069
635.954
521.555
416.829
326.281
253.152
199.195
165.29
151.598
148.803
1472.37
1391.78
1368.68
1334.54
1264.85
1160.42
1029.7
884.39
736.056
594.917
469.356
371.077
299.225
249.79
219.284
204.891
202.598
200.892
199.558
198.211
196.629
195.366
194.285
193.396
192.772
192.431
192.239
192.904
195.092
199.236
205.69
214.72
226.816
242.4
261.926
285.784
314.366
348.049
387.199
432.161
483.229
540.623
604.434
674.579
750.751
832.379
918.565
1008.2
1099.93
1192.23
1283.45
1371.88
1455.74
1533.24
1602.63
1662.17
1710.25
1745.39
1766.32
1772.07
1761.94
1735.7
1693.4
1635.45
1562.54
1475.65
1375.98
1264.97
1144.31
1015.97
882.447
747.104
614.459
490.118
379.981
288.934
219.846
174.045
152.726
148.026
1431.98
1319.51
1220.06
1085.05
914.28
728.919
552.09
404.162
303.362
243.913
214.73
206.639
203.946
202.332
201.206
200.088
199.059
198.053
197.11
196.136
195.266
194.588
194.154
193.876
193.939
194.704
196.656
200.142
205.566
213.181
223.392
236.556
253.137
273.576
298.32
327.799
362.447
402.695
448.962
501.638
561.037
627.36
700.634
780.658
866.969
958.819
1055.07
1154.47
1255.55
1356.68
1456.12
1552.06
1642.66
1726.02
1800.26
1863.49
1913.94
1949.99
1970.26
1973.73
1959.78
1928.39
1879.95
1815.07
1734.65
1639.81
1531.84
1412.22
1282.6
1144.78
1000.84
853.473
706.509
565.454
437.137
328.279
243.533
185.063
154.694
147.374
1390.77
1227.1
1034.89
805.69
576.217
388.622
273.589
221.738
208.718
205.068
203.495
202.504
201.36
200.298
199.363
198.506
197.782
197.149
196.568
196.16
195.778
195.691
196.081
197.174
199.224
202.447
207.094
213.513
222.048
233.021
246.817
263.843
284.554
309.409
338.872
373.411
413.499
459.609
512.193
571.648
638.268
712.187
793.317
881.301
975.547
1075.14
1178.84
1285.3
1392.96
1500.18
1605.2
1706.19
1801.26
1888.44
1965.71
2031.02
2082.4
2118.08
2136.67
2137.26
2119.37
2083.07
2028.85
1958.08
1871.73
1771.05
1657.31
1531.91
1396.41
1252.52
1102.09
947.21
790.805
637.524
494.28
369.201
269.165
197.916
157.651
146.841
1344.5
1116.79
830.334
548.308
338.307
237.06
209.988
205.554
204.199
203.266
202.204
201.191
200.274
199.553
198.961
198.561
198.181
197.989
198.022
198.409
199.333
200.861
203.151
206.35
210.616
216.227
223.447
232.596
243.999
258.006
275.005
295.424
319.721
348.368
381.847
420.651
465.277
516.213
573.904
638.715
710.87
790.4
877.093
970.463
1069.82
1174.11
1282.08
1392.31
1503.28
1613.32
1720.71
1823.62
1920.12
2008.13
2085.44
2149.8
2199.12
2231.75
2246.8
2244.51
2225.67
2187.65
2128.98
2054.12
1964.2
1860.51
1744.2
1616.49
1478.77
1332.58
1179.6
1021.64
860.841
700.668
547.207
409.132
295.358
211.906
161.656
146.399
1268.53
981.509
630.574
358.016
233.353
208.146
205.108
204.239
203.371
202.453
201.641
200.956
200.55
200.249
200.242
200.57
201.299
202.422
203.99
206.075
208.732
212.096
216.301
221.498
227.888
235.715
245.247
256.784
270.657
287.228
306.892
330.084
357.259
388.895
425.48
467.509
515.477
569.846
631.021
699.291
774.789
857.439
946.922
1042.66
1143.85
1249.41
1358.06
1468.42
1578.96
1688.07
1794.07
1895.16
1989.39
2074.69
2148.81
2209.44
2254.09
2279.64
2287.31
2279.78
2264.59
2230.48
2170.78
2094.79
2004.55
1901.35
1786.16
1660.03
1524.1
1379.71
1228.34
1071.57
911.141
749.506
591.368
444.99
320.418
226.114
166.534
146.025
1186
831.502
456.804
254.562
209.26
205.024
204.433
203.811
203.103
202.513
202.148
202.145
202.673
203.752
205.305
207.312
209.735
212.57
215.881
219.715
224.157
229.322
235.345
242.39
250.664
260.399
271.858
285.33
301.158
319.712
341.38
366.587
395.783
429.432
468.009
511.986
561.82
617.921
680.615
750.104
826.421
909.39
998.603
1093.42
1192.99
1296.2
1401.82
1508.48
1614.71
1718.97
1819.63
1914.98
2003.14
2082.21
2150.18
2205.08
2245.09
2268.98
2273.52
2266.23
2245.61
2206.99
2148.86
2075.41
1988.64
1889.69
1779.43
1658.74
1528.59
1390.09
1244.49
1093.15
937.524
779.496
622.464
473.371
342.243
239.465
171.782
145.702
1109.28
693.334
335.911
219.573
205.882
204.718
204.346
203.915
203.568
203.773
204.785
206.605
209.1
212.127
215.635
219.55
223.841
228.517
233.618
239.202
245.353
252.181
259.828
268.47
278.306
289.563
302.499
317.386
334.573
354.436
377.34
403.69
433.913
468.445
507.724
552.174
602.189
658.102
720.149
788.438
862.908
943.301
1029.15
1119.79
1214.34
1311.73
1410.76
1510.11
1608.39
1704.14
1795.85
1881.94
1960.76
2030.64
2089.93
2137.19
2170.75
2191.59
2196.65
2186.4
2160.81
2120.13
2065.29
1997.31
1917.13
1825.57
1723.41
1611.45
1490.52
1361.52
1225.5
1083.54
936.829
786.912
636.366
490.521
358.193
250.648
176.828
145.415
1019.44
562.236
264.165
210.679
205.405
204.813
204.543
204.699
205.809
208.099
211.422
215.551
220.304
225.531
231.143
237.071
243.288
249.802
256.652
263.894
271.608
279.903
288.929
298.87
309.917
322.274
336.192
351.938
369.846
390.275
413.566
440.094
470.25
504.424
542.998
586.332
634.739
688.466
747.661
812.342
882.372
957.44
1037.06
1120.54
1207.03
1295.52
1384.89
1473.89
1561.25
1645.63
1725.67
1799.99
1867.21
1925.97
1974.99
2013.17
2039.48
2053.42
2054.33
2042.13
2016.95
1979.13
1929.21
1867.77
1795.47
1712.93
1620.81
1519.77
1410.48
1293.71
1170.26
1040.97
906.759
768.878
629.512
492.728
365.478
258.08
181.094
145.154
921.474
454.6
233.991
207.769
205.453
205.151
205.811
207.83
211.396
216.31
222.224
228.851
235.975
243.449
251.174
259.091
267.175
275.437
283.919
292.674
301.767
311.303
321.437
332.361
344.248
357.271
371.658
387.674
405.629
425.843
448.631
474.331
503.282
535.818
572.255
612.879
657.923
707.55
761.826
820.703
883.994
951.351
1022.29
1096.15
1172.14
1249.34
1326.72
1403.18
1477.59
1548.77
1615.56
1676.8
1731.38
1778.27
1816.5
1845.27
1863.93
1872.01
1869.21
1855.52
1831.05
1796.05
1750.85
1695.88
1631.58
1558.45
1476.99
1387.75
1291.3
1188.27
1079.26
964.914
845.98
723.53
599.389
476.725
360.829
259.728
183.787
144.912
823.781
372.31
220.59
206.716
205.606
206.482
209.258
213.998
220.47
228.199
236.755
245.838
255.246
264.844
274.546
284.3
294.089
303.924
313.853
323.917
334.163
344.686
355.631
367.17
379.462
392.667
406.991
422.675
439.987
459.207
480.614
504.497
531.139
560.814
593.772
630.223
670.33
714.182
761.788
813.05
867.753
925.549
985.981
1048.45
1112.25
1176.57
1240.54
1303.22
1363.63
1420.81
1473.8
1521.67
1563.58
1598.73
1626.45
1646.17
1657.47
1660
1653.65
1638.4
1614.35
1581.66
1540.57
1491.38
1434.46
1370.18
1298.99
1221.35
1137.76
1048.72
954.738
856.388
754.377
649.752
544.163
440.077
341.054
252.687
183.119
144.645
724.507
306.156
213.595
206.57
206.594
209.795
215.47
223.308
232.709
243.092
254.043
265.296
276.686
288.103
299.477
310.769
321.963
333.068
344.122
355.155
366.205
377.359
388.738
400.477
412.71
425.587
439.288
454.019
470.003
487.475
506.67
527.826
551.17
576.917
605.251
636.321
670.232
707.021
746.652
789.004
833.862
880.905
929.72
979.797
1030.54
1081.27
1131.27
1179.79
1226.03
1269.23
1308.64
1343.56
1373.33
1397.39
1415.24
1426.51
1430.89
1428.18
1418.3
1401.25
1377.1
1345.99
1308.13
1263.76
1213.19
1156.77
1094.86
1027.86
956.21
880.379
800.917
718.492
633.957
548.472
463.597
381.256
303.648
233.713
176.535
143.589
607.409
260.525
210.084
206.836
209.474
215.746
224.577
235.298
247.174
259.673
272.466
285.336
298.167
310.875
323.407
335.732
347.838
359.73
371.423
382.933
394.296
405.576
416.863
428.258
439.872
451.831
464.284
477.4
491.372
506.382
522.615
540.256
559.481
580.449
603.298
628.126
654.99
683.895
714.785
747.534
781.945
817.745
854.586
892.051
929.662
966.89
1003.17
1037.9
1070.51
1100.39
1126.99
1149.78
1168.3
1182.13
1190.92
1194.41
1192.36
1184.68
1171.33
1152.31
1127.71
1097.67
1062.36
1022
976.841
927.158
873.269
815.558
754.488
690.631
624.708
557.607
490.396
424.341
360.878
301.495
247.507
200.166
161.537
139.12
474.681
228.587
208.879
208.818
215.243
224.574
235.929
248.642
262.043
275.722
289.461
303.105
316.57
329.79
342.726
355.349
367.644
379.602
391.233
402.532
413.516
424.227
434.727
445.089
455.398
465.753
476.289
487.241
498.545
510.392
522.96
536.404
550.858
566.437
583.237
601.322
620.719
641.416
663.351
686.411
710.431
735.19
760.414
785.781
810.926
835.453
858.938
880.949
901.05
918.815
933.841
945.755
954.223
958.957
959.697
956.269
948.567
936.53
920.142
899.431
874.465
845.344
812.205
775.223
734.614
690.655
643.716
594.287
542.981
490.541
437.846
385.887
335.738
288.51
245.291
207.112
174.854
149.644
132.41
129.712
273.652
214.171
210.056
215.193
224.306
235.127
247.337
260.443
273.939
287.544
301.092
314.455
327.553
340.322
352.717
364.709
376.259
387.464
398.165
408.364
418.093
427.387
436.288
444.846
453.119
461.196
469.268
476.555
484.388
492.692
501.317
510.319
519.794
529.833
540.51
551.873
563.941
576.701
590.104
604.062
618.447
633.094
647.802
662.336
676.433
689.81
702.168
713.202
722.612
730.101
735.396
738.242
738.415
735.725
730.03
721.209
709.168
693.847
675.223
653.312
628.178
599.935
568.767
534.929
498.751
460.637
421.092
380.735
340.263
300.432
262.013
225.776
192.396
162.456
136.442
114.749
97.6379
85.8194
78.585
83.0852
219.252
215.466
217.506
223.611
232.231
242.258
253.438
265.398
277.658
289.921
302.032
313.882
325.429
336.621
347.404
357.712
367.623
376.59
385.235
393.459
401.124
408.222
414.78
420.835
426.441
431.638
436.824
441.52
445.888
450.14
454.388
458.708
463.165
467.815
472.701
477.851
483.275
488.959
494.867
500.935
507.076
513.176
519.098
524.681
529.75
534.116
537.581
539.938
540.98
540.503
538.314
534.232
528.097
519.773
509.152
496.165
480.78
463.017
442.944
420.69
396.448
370.473
343.082
314.637
285.543
256.246
227.235
199.033
172.154
147.06