/*--------------------------------*- C++ -*----------------------------------*\
| =========                 |                                                 |
| \\      /  F ield         | OpenFOAM: The Open Source CFD Toolbox           |
|  \\    /   O peration     | Version:  v2012                                 |
|   \\  /    A nd           | Website:  www.openfoam.com                      |
|    \\/     M anipulation  |                                                 |
\*---------------------------------------------------------------------------*/
FoamFile
{
    version     2.0;
    format      ascii;
    class       volScalarField;
    location    "2000";
    object      k;
}
// * * * * * * * * * * * * * * * * * * * * * * * * * * * * * * * * * * * * * //

dimensions      [0 2 -2 0 0 0 0];


internalField   nonuniform List<scalar> 
6502
(
0.0732126
0.0987417
0.114693
0.118305
0.11905
0.119051
0.118308
0.114698
0.0987518
0.0732148
0.0445222
0.0654957
0.0951997
0.105845
0.108612
0.108617
0.105862
0.0952344
0.0655268
0.0445357
0.0297895
0.0428178
0.0767944
0.093739
0.099076
0.0990923
0.0937886
0.0768742
0.0428676
0.0298234
0.020627
0.028396
0.0611649
0.0823772
0.0902118
0.0902476
0.082477
0.0613
0.0284627
0.02069
0.0145962
0.0193749
0.0487477
0.0721031
0.0819616
0.0820258
0.0722681
0.0489407
0.0194554
0.0146932
0.0107965
0.0137236
0.0392442
0.0631075
0.0743486
0.0744506
0.0633516
0.0394967
0.0138162
0.0109271
0.008449
0.0101323
0.0320639
0.055371
0.067391
0.0675409
0.0557099
0.0323766
0.0102377
0.00861743
0.00695904
0.00778992
0.0266224
0.0487658
0.0610805
0.0612886
0.0492126
0.0270003
0.00790984
0.00717188
0.00599071
0.00620139
0.0224462
0.0431416
0.0553892
0.0556663
0.0437108
0.0228953
0.00634294
0.00625939
0.00534272
0.00508043
0.0191947
0.0383409
0.050276
0.0506321
0.0390485
0.0197226
0.00524607
0.00568311
0.00487998
0.00426334
0.0166235
0.034202
0.0456839
0.0461354
0.0350805
0.0172389
0.00445773
0.00531509
0.00452225
0.00364869
0.0145498
0.0306251
0.0415567
0.0421221
0.0316878
0.0152714
0.00387774
0.0050807
0.00422422
0.00317183
0.0128476
0.0275083
0.0378446
0.0385293
0.0287968
0.0136941
0.00344302
0.00494244
0.00395678
0.00278961
0.0114143
0.0247682
0.0344961
0.0352968
0.0263433
0.0124199
0.00311295
0.00488131
0.00370023
0.00247259
0.0101718
0.0223392
0.0314637
0.0323827
0.0242112
0.0114149
0.00287658
0.00489039
0.00344126
0.00220119
0.00907787
0.0201719
0.0286959
0.0297464
0.0223434
0.0106093
0.0027317
0.00497494
0.00317181
0.00196223
0.00810278
0.0182195
0.0261637
0.0273524
0.0207042
0.00996547
0.0026607
0.00515172
0.00288683
0.00174638
0.00722044
0.0164373
0.0238369
0.0251687
0.0192636
0.00946463
0.00265956
0.00545063
0.00258427
0.00154709
0.00641275
0.014792
0.0216842
0.0231654
0.0179941
0.00909263
0.00273476
0.0059598
0.00226588
0.00136013
0.00566749
0.0132624
0.0196843
0.0213144
0.0168734
0.0088446
0.00288915
0.0063548
0.00193696
0.00118221
0.00497268
0.0118236
0.0177951
0.019577
0.0158691
0.00872832
0.00303416
0.00223145
0.00160994
0.00101448
0.00433118
0.0104803
0.0160254
0.0179486
0.0149584
0.00871024
0.00334541
0.00150086
0.00129916
0.000858175
0.00374279
0.00923154
0.0143681
0.0164126
0.0141064
0.00873016
0.00375783
0.00152815
0.0010159
0.000714989
0.00320806
0.0080791
0.0128174
0.0149589
0.0132888
0.00874556
0.00422217
0.00182977
0.00076761
0.000586507
0.00272691
0.00702434
0.0113743
0.0135796
0.0124876
0.00873103
0.00469668
0.0022624
0.000558031
0.000473737
0.00229808
0.00606658
0.010039
0.0122681
0.0116896
0.00866968
0.00514265
0.00275704
0.000387872
0.000376995
0.0019195
0.00520348
0.00881142
0.0110243
0.0108888
0.0085436
0.00552774
0.00326661
0.000255516
0.000295946
0.00158862
0.00443161
0.00769302
0.00987399
0.0100886
0.00834721
0.00583021
0.00375305
0.000157591
0.000229676
0.00130263
0.00374671
0.00667995
0.00880159
0.00929344
0.00808204
0.00603552
0.00418399
8.94234e-05
0.000176776
0.00105833
0.00314364
0.00576853
0.00780816
0.00851164
0.0077514
0.00614023
0.00453508
4.54941e-05
0.000135468
0.000852173
0.00261637
0.00495316
0.00689476
0.00775249
0.00736342
0.0061445
0.00479368
1.99065e-05
0.000103769
0.000680329
0.00215866
0.00422713
0.00606101
0.00702515
0.00693293
0.00606073
0.00495515
7.15663e-06
7.96432e-05
0.000538691
0.00176432
0.0035831
0.00530413
0.00633768
0.00647803
0.00590301
0.00502715
3.03132e-06
6.15376e-05
0.000423529
0.00142762
0.00301355
0.00461893
0.00569462
0.00601515
0.00568648
0.00501926
5.07837e-06
4.82026e-05
0.000331305
0.00114349
0.00251166
0.00399884
0.00509701
0.0055583
0.00543088
0.00494995
8.3137e-06
3.81562e-05
0.000258407
0.000907146
0.00207163
0.00343679
0.0045421
0.0051164
0.00515543
0.00483512
1.11967e-05
3.01719e-05
0.000200326
0.000712408
0.00168801
0.00292571
0.0040239
0.00469201
0.0048735
0.00469318
1.37078e-05
2.38014e-05
0.000153927
0.000553453
0.00135622
0.00245997
0.00353506
0.00428214
0.0045922
0.00453904
1.55406e-05
1.90028e-05
0.000118132
0.000426786
0.00107429
0.0020374
0.00306941
0.00387964
0.00431073
0.00438112
1.601e-05
1.51056e-05
8.99663e-05
0.000327394
0.000840005
0.00165894
0.00262423
0.00347606
0.00402103
0.00421843
1.54629e-05
1.19774e-05
6.85782e-05
0.000249127
0.000648526
0.00132627
0.00220123
0.00306536
0.00371106
0.00404089
1.4856e-05
9.51541e-06
5.19055e-05
0.0001868
0.000495122
0.00104168
0.00180744
0.00264841
0.00337009
0.00383183
1.3708e-05
7.59933e-06
3.95094e-05
0.000141612
0.000375058
0.000806659
0.0014548
0.00223726
0.00299631
0.00357467
1.19915e-05
6.01118e-06
2.97949e-05
0.000106518
0.000280074
0.00061735
0.0011515
0.00185131
0.00260414
0.00326514
1.05039e-05
4.73341e-06
2.23582e-05
7.97203e-05
0.000209516
0.000462476
0.00089186
0.00149377
0.00220296
0.00290149
9.3818e-06
3.75429e-06
1.66701e-05
5.88302e-05
0.000154579
0.000340579
0.000671776
0.00116918
0.00180405
0.00249561
8.4531e-06
2.99092e-06
1.22929e-05
4.29384e-05
0.000112494
0.000247013
0.000486232
0.000881805
0.0014217
0.00206367
7.83094e-06
2.43471e-06
9.06629e-06
3.13018e-05
8.14204e-05
0.000177761
0.000348876
0.000635578
0.00107238
0.00163142
7.45592e-06
2.06785e-06
6.85932e-06
2.3192e-05
5.93581e-05
0.000127959
0.000248432
0.000450171
0.00077192
0.00122972
7.10493e-06
1.83933e-06
5.42501e-06
1.78283e-05
4.4422e-05
9.33635e-05
0.000177743
0.000317372
0.000540864
0.000883524
6.61855e-06
1.63528e-06
4.46519e-06
1.43197e-05
3.47437e-05
7.05344e-05
0.000129289
0.000225182
0.000377641
0.000614266
5.85799e-06
1.42158e-06
3.76649e-06
1.18535e-05
2.80903e-05
5.53575e-05
9.79696e-05
0.000163463
0.000264728
0.000426131
4.7634e-06
1.17141e-06
3.15175e-06
9.79288e-06
2.27579e-05
4.3837e-05
7.56306e-05
0.000122679
0.000192642
0.000297949
3.4245e-06
8.80942e-07
2.51196e-06
7.75342e-06
1.77374e-05
3.36031e-05
5.70814e-05
9.11968e-05
0.000140906
0.000213736
2.0699e-06
5.7475e-07
1.81875e-06
5.60952e-06
1.2672e-05
2.37365e-05
4.00171e-05
6.36502e-05
9.79995e-05
0.000147999
9.76969e-07
3.19851e-07
1.14335e-06
3.50765e-06
7.81936e-06
1.45262e-05
2.4446e-05
3.89971e-05
6.03544e-05
9.16534e-05
3.13574e-07
1.39801e-07
5.76647e-07
1.74471e-06
3.8237e-06
7.05134e-06
1.18852e-05
1.90961e-05
2.98449e-05
4.57932e-05
4.75079e-08
4.27144e-08
2.03862e-07
5.97854e-07
1.28283e-06
2.354e-06
3.98856e-06
6.47426e-06
1.02407e-05
1.59029e-05
2.21463e-09
7.81816e-09
3.93207e-08
1.16777e-07
2.6307e-07
5.12834e-07
9.19898e-07
1.56601e-06
2.56947e-06
4.09359e-06
1.15089e-09
2.06981e-09
1.56648e-08
1.03866e-07
3.50792e-07
8.69351e-07
1.80685e-06
3.37166e-06
5.85076e-06
9.61594e-06
0.000656885
0.000205704
0.000151014
9.3284e-05
5.70577e-05
3.50629e-05
2.21263e-05
1.43204e-05
9.36392e-06
6.10743e-06
3.90479e-06
2.38872e-06
1.35298e-06
6.79133e-07
2.87322e-07
1.04967e-07
2.06554e-08
3.9609e-08
8.25575e-08
1.04714e-07
9.66953e-08
6.49611e-08
3.0459e-08
8.31061e-09
1.09772e-09
0.000397627
9.71732e-05
3.78506e-05
1.98119e-05
1.16466e-05
7.17636e-06
4.57785e-06
3.01467e-06
2.04015e-06
1.41266e-06
9.93074e-07
7.0016e-07
5.02722e-07
3.65254e-07
2.68784e-07
2.00576e-07
1.47887e-07
1.1071e-07
8.23337e-08
5.8437e-08
3.78377e-08
2.08844e-08
8.86141e-09
3.36002e-09
9.92948e-09
0.000527688
0.000163408
6.3808e-05
3.09115e-05
1.78632e-05
1.122e-05
7.41127e-06
5.1502e-06
3.80101e-06
2.98961e-06
2.48253e-06
2.13702e-06
1.87336e-06
1.63824e-06
1.40385e-06
1.1613e-06
9.14873e-07
6.78292e-07
4.66575e-07
2.91789e-07
1.60742e-07
7.37892e-08
2.57709e-08
1.03343e-08
4.03906e-08
0.000773494
0.000311248
0.000137129
6.97913e-05
4.12799e-05
2.63384e-05
1.76274e-05
1.24633e-05
9.44799e-06
7.70618e-06
6.67002e-06
5.98252e-06
5.42814e-06
4.88008e-06
4.27542e-06
3.59976e-06
2.87573e-06
2.15081e-06
1.48189e-06
9.19376e-07
4.94881e-07
2.16066e-07
6.98359e-08
2.50163e-08
9.95331e-08
0.00110589
0.000538663
0.000259798
0.000141044
8.20441e-05
5.14443e-05
3.39106e-05
2.3753e-05
1.80296e-05
1.48918e-05
1.31479e-05
1.20553e-05
1.11681e-05
1.02306e-05
9.1159e-06
7.79361e-06
6.31024e-06
4.76977e-06
3.3065e-06
2.05056e-06
1.09403e-06
4.69103e-07
1.43956e-07
3.87148e-08
1.22824e-07
0.00151147
0.00084193
0.000454131
0.000253021
0.00014688
8.90291e-05
5.67539e-05
3.86515e-05
2.89061e-05
2.38927e-05
2.13558e-05
1.99309e-05
1.88192e-05
1.75673e-05
1.59427e-05
1.38733e-05
1.14214e-05
8.76163e-06
6.14481e-06
3.83807e-06
2.05131e-06
8.76071e-07
2.63876e-07
5.76652e-08
1.3432e-07
0.00197053
0.00121464
0.000734506
0.000421842
0.000247715
0.000145496
8.89465e-05
5.82001e-05
4.23118e-05
3.46443e-05
3.11678e-05
2.95349e-05
2.84157e-05
2.70635e-05
2.50752e-05
2.22861e-05
1.87379e-05
1.46676e-05
1.04753e-05
6.63997e-06
3.5853e-06
1.5389e-06
4.60481e-07
8.39262e-08
1.15622e-07
0.0024558
0.00164369
0.00108792
0.000673833
0.000397725
0.000233095
0.000136797
8.5273e-05
5.96005e-05
4.78585e-05
4.30799e-05
4.13504e-05
4.05278e-05
3.94256e-05
3.73716e-05
3.40225e-05
2.93252e-05
2.35353e-05
1.7215e-05
1.11463e-05
6.12091e-06
2.65665e-06
7.95565e-07
1.26882e-07
6.56282e-08
0.00293518
0.00210519
0.0015016
0.00101436
0.000613514
0.000360796
0.000209964
0.000126046
8.37641e-05
6.50853e-05
5.81045e-05
5.62722e-05
5.61225e-05
5.57779e-05
5.41431e-05
5.05664e-05
4.47764e-05
3.69542e-05
2.77979e-05
1.84799e-05
1.03794e-05
4.58e-06
1.38304e-06
2.097e-07
1.94048e-08
0.00337554
0.00256725
0.00195232
0.0014181
0.000930186
0.000550063
0.000318279
0.000187352
0.000120181
8.94741e-05
7.78788e-05
7.54921e-05
7.63856e-05
7.74872e-05
7.70106e-05
7.38004e-05
6.71741e-05
5.70757e-05
4.42529e-05
3.03186e-05
1.7505e-05
7.89851e-06
2.4262e-06
3.85642e-07
1.08687e-07
0.00375083
0.0029965
0.00240787
0.00186738
0.00133004
0.000832597
0.000482649
0.000280161
0.000173904
0.000124671
0.000105573
0.000100706
0.0001027
0.000106097
0.000107857
0.000106004
9.9154e-05
8.67194e-05
6.93422e-05
4.90613e-05
2.92361e-05
1.35698e-05
4.28072e-06
7.67857e-07
6.64482e-07
0.00404307
0.00336359
0.00283158
0.00232779
0.00178404
0.00122501
0.000735281
0.000425933
0.00025755
0.00017641
0.000143811
0.000135176
0.00013687
0.000143329
0.000148892
0.000149918
0.000144049
0.000129591
0.000106792
7.80543e-05
4.81181e-05
2.30915e-05
7.55154e-06
1.59006e-06
2.45595e-06
0.00424578
0.00364819
0.00318941
0.00275722
0.00225781
0.00168409
0.00111765
0.00066034
0.000393687
0.000257445
0.000198518
0.000180648
0.000181921
0.000190992
0.000202265
0.000208954
0.000206109
0.000190562
0.00016161
0.000121899
7.77705e-05
3.87148e-05
1.32299e-05
3.30385e-06
7.06371e-06
0.00436351
0.00384436
0.00345887
0.00311545
0.0027041
0.00217531
0.00158087
0.00103329
0.000624297
0.000393691
0.00028375
0.000243648
0.000239579
0.000251147
0.000269491
0.000285106
0.000289125
0.000275358
0.000240313
0.000186811
0.000123211
6.3682e-05
2.28463e-05
6.6949e-06
1.73261e-05
0.00440965
0.00395831
0.0036332
0.00337461
0.00307404
0.00264529
0.00208976
0.00150033
0.000992604
0.000634889
0.000429547
0.000341017
0.000317983
0.000328936
0.000352773
0.000381055
0.000397459
0.000389714
0.000350652
0.000280873
0.000191226
0.000102489
3.86088e-05
1.29611e-05
3.75833e-05
0.004401
0.00400643
0.0037222
0.00352677
0.003332
0.0030347
0.00258437
0.00202467
0.00146496
0.00100588
0.000690965
0.000510905
0.000437239
0.000430991
0.000457958
0.00049806
0.000533177
0.000539462
0.000501048
0.000413958
0.000290724
0.000161196
6.3516e-05
2.3703e-05
7.34206e-05
0.00435641
0.00401079
0.00374902
0.00358657
0.00346834
0.00329881
0.00299445
0.00253949
0.00200177
0.00148735
0.00107654
0.000798087
0.000642962
0.000584868
0.00059559
0.000638661
0.000695621
0.000725658
0.000697686
0.000596371
0.000432748
0.000247767
0.000101459
4.08308e-05
0.000130872
0.00429178
0.0039921
0.0037406
0.00358329
0.00350107
0.00342457
0.00326539
0.0029638
0.00252845
0.00203364
0.00157216
0.00120812
0.000964075
0.000832606
0.000794089
0.000820984
0.000884817
0.000944006
0.000940916
0.000836292
0.000629733
0.000372511
0.000157364
6.59034e-05
0.000214903
0.00422187
0.00396829
0.00372399
0.0035525
0.00346763
0.00343382
0.00338087
0.00323417
0.00295401
0.00256077
0.00212336
0.00171951
0.0014024
0.00119261
0.001087
0.00106945
0.00110695
0.00118531
0.0012211
0.00113435
0.000892601
0.000548816
0.000238368
0.000100068
0.000324599
0.00415384
0.00395297
0.00371953
0.00352744
0.00341406
0.00337477
0.00336898
0.00333385
0.00320951
0.0029694
0.00263558
0.0022659
0.0019241
0.00165584
0.00148212
0.00140422
0.00140771
0.00145775
0.00151907
0.00147833
0.00122997
0.00079375
0.000356381
0.000147376
0.000450515
0.00408524
0.00395189
0.00374087
0.00353126
0.00337909
0.00330272
0.00328936
0.0033008
0.00328393
0.00319176
0.0030053
0.00274238
0.00244786
0.00217251
0.00195608
0.0018203
0.00176937
0.00177849
0.0018312
0.00183525
0.00163666
0.00112731
0.000531119
0.000223546
0.000621024
0.00400231
0.0039603
0.00379168
0.00358319
0.00339129
0.00326452
0.00320724
0.00320626
0.0032281
0.00322986
0.00317554
0.0030497
0.00286307
0.00264717
0.00244158
0.00228052
0.00218742
0.0021661
0.00217959
0.00219737
0.00205826
0.00156978
0.000796448
0.00036076
0.000996096
0.00388237
0.00395823
0.00386301
0.00367728
0.00346992
0.00329097
0.00317457
0.00312281
0.00312346
0.00314914
0.00316753
0.00315109
0.00308532
0.0029738
0.00283653
0.00269828
0.00259812
0.00255466
0.00256233
0.00256922
0.00249063
0.00208683
0.00122371
0.000597934
0.00153899
0.00370493
0.00391786
0.00392966
0.00380163
0.00360542
0.00339911
0.00322551
0.0031081
0.00305089
0.00304426
0.00306773
0.00309746
0.00311151
0.00309615
0.0030495
0.00297148
0.00289914
0.00285753
0.00285887
0.00288991
0.00287826
0.00267441
0.00195395
0.000972858
0.000509614
0.00345088
0.00380711
0.00395586
0.00392767
0.00378167
0.00357985
0.00337167
0.00319561
0.00307071
0.00299772
0.0029751
0.00298902
0.00302125
0.00305423
0.003075
0.00306946
0.00304738
0.00303254
0.00304053
0.00307865
0.00313376
0.00312373
0.00288057
0.0021749
0.00116288
0.00311466
0.00359878
0.00389889
0.00400839
0.00395973
0.00380614
0.00360073
0.00338774
0.00320269
0.00305811
0.00296593
0.00292125
0.00291734
0.00294128
0.00297925
0.0030176
0.00304338
0.00306349
0.00309091
0.00313469
0.00319807
0.00326899
0.00329821
0.00315825
0.00269272
0.00270517
0.00327943
0.00372073
0.00398837
0.00408052
0.00402723
0.00387458
0.00366768
0.00345048
0.00325102
0.00308761
0.00297126
0.0028977
0.00286609
0.00286921
0.00289642
0.00293649
0.00298084
0.00302573
0.00307807
0.00314221
0.00321833
0.00329714
0.00335212
0.0033387
0.00224557
0.00285803
0.00340298
0.0038205
0.00407687
0.00417077
0.00412751
0.00398424
0.00378358
0.00356339
0.00335117
0.00316771
0.00302131
0.00291896
0.00285277
0.00282309
0.00282464
0.00285
0.00289274
0.00294592
0.00300683
0.0030768
0.00315426
0.00323259
0.00329797
0.00177484
0.00236869
0.0029603
0.0034871
0.00389694
0.00415972
0.00427227
0.00425245
0.00413123
0.00394551
0.00372857
0.00350905
0.00330623
0.00313338
0.00299472
0.00289454
0.00282771
0.00279069
0.00278373
0.00280143
0.00284023
0.0028957
0.00295869
0.00302735
0.00309711
0.00133547
0.00186452
0.00244101
0.00301449
0.00353087
0.00394431
0.00422695
0.00437165
0.00438921
0.00430376
0.00414507
0.00394362
0.00372554
0.00351126
0.00331512
0.0031411
0.00300407
0.002898
0.00282226
0.00277165
0.00274823
0.00274944
0.00277053
0.00280845
0.00285857
0.000957515
0.00139688
0.00191112
0.0024678
0.00302386
0.0035331
0.00395555
0.00426532
0.00445139
0.00451827
0.00448215
0.0043661
0.00419541
0.00399352
0.00378155
0.00357242
0.00337878
0.00320742
0.00305595
0.00293766
0.00284796
0.00278049
0.00273265
0.00270441
0.00269666
0.000662392
0.000996394
0.00142567
0.00192172
0.0024563
0.00299317
0.00349331
0.00392261
0.00425855
0.00448803
0.00461001
0.00463331
0.00457385
0.00445081
0.00428462
0.00409342
0.00389132
0.00369218
0.00350193
0.00332761
0.00316991
0.00303268
0.00292218
0.00283371
0.0027636
0.000453579
0.000685046
0.00100818
0.00142545
0.00190158
0.00241082
0.00292221
0.00339756
0.00381636
0.00415973
0.00441608
0.00458185
0.00466104
0.00466359
0.00460329
0.00449563
0.00435495
0.00419483
0.00402546
0.00385001
0.0036748
0.00350616
0.00334988
0.00320538
0.00307575
0.000319028
0.0004675
0.000679889
0.000989715
0.00139311
0.00184395
0.00232577
0.00280807
0.00326711
0.00367335
0.00401601
0.00428629
0.00448121
0.00460314
0.00465866
0.00465742
0.00461034
0.00452837
0.00442153
0.00429708
0.00416164
0.00402089
0.00387921
0.00373657
0.00359492
0.000219589
0.000318879
0.000459297
0.000656546
0.000927223
0.00129379
0.00173183
0.00218223
0.00263647
0.00307481
0.00347773
0.00382313
0.00410744
0.0043292
0.0044892
0.0045921
0.00464475
0.00465491
0.00463049
0.0045787
0.00450598
0.00441809
0.00431972
0.00421417
0.00410459
0.000136667
0.000199089
0.000287215
0.000410659
0.000581482
0.000814057
0.00112334
0.00148964
0.00189538
0.00232384
0.00273196
0.00311577
0.00346652
0.00377233
0.00401808
0.00421086
0.00435543
0.00445657
0.00451929
0.00454885
0.00455056
0.00452947
0.00449002
0.00443592
0.00437071
6.89726e-05
0.00010137
0.000147467
0.000212561
0.000303476
0.000428428
0.000596479
0.000818007
0.00109647
0.00140294
0.00172679
0.00206536
0.00240952
0.00272
0.0029988
0.00324586
0.00345816
0.00363493
0.00377609
0.00388291
0.00395804
0.00400436
0.00402461
0.00402155
0.00399841
2.42114e-05
3.59132e-05
5.2649e-05
7.63324e-05
0.000109505
0.000155456
0.000218078
0.00030194
0.000413117
0.000560621
0.000729626
0.000913027
0.00110804
0.00130554
0.00150304
0.00170037
0.00187126
0.00202048
0.00214741
0.00225155
0.00233298
0.00239189
0.00242891
0.00244539
0.0024433
6.32047e-06
9.42781e-06
1.37912e-05
1.9805e-05
2.79154e-05
3.85479e-05
5.21154e-05
6.91653e-05
9.05356e-05
0.000117571
0.000152137
0.000193561
0.000240642
0.000292269
0.000347433
0.000404018
0.000456242
0.000503356
0.000546884
0.000584234
0.000616143
0.000641281
0.000659598
0.000671744
0.000678152
1.49897e-05
2.23036e-05
3.22083e-05
4.5343e-05
6.23213e-05
8.29059e-05
0.000105532
0.000128225
0.000148618
0.000164981
0.000176768
0.000183696
0.000184589
0.000176046
0.000158233
0.000132392
0.00010225
7.32254e-05
5.00851e-05
3.50138e-05
4.26145e-05
7.12793e-05
0.000115754
0.000176387
0.000252283
0.000756732
0.000430399
0.000263604
0.000658018
0.000406498
0.000277239
0.00203499
0.00149586
0.00114524
0.00322326
0.00301143
0.00272168
0.00332931
0.00332077
0.00326531
0.00315532
0.00320272
0.00323422
0.00290819
0.00295685
0.00300264
0.00270209
0.00271658
0.00273821
0.00271334
0.00267298
0.00264144
0.00297481
0.00288913
0.0028154
0.00347309
0.00335888
0.00325098
0.00400544
0.00390677
0.0038064
0.0043053
0.00423493
0.00415949
0.003963
0.00391596
0.00385791
0.0024271
0.00239926
0.00236042
0.000679506
0.000677157
0.000671445
0.000335655
0.000423631
0.00051778
2.69772e-12
2.15443e-11
1.73777e-10
6.61247e-10
1.65472e-09
3.23685e-09
5.39597e-09
8.05569e-09
1.11072e-08
1.44296e-08
1.78962e-08
2.13748e-08
2.47481e-08
2.79528e-08
3.09634e-08
3.37077e-08
3.60846e-08
3.88782e-08
5.05037e-08
4.64386e-08
6.00541e-08
9.57302e-08
4.3871e-07
6.97262e-08
3.11335e-07
7.32765e-08
6.8554e-08
9.67695e-08
5.70955e-08
4.51414e-08
4.34954e-08
3.47685e-08
2.76057e-08
2.02412e-08
1.25858e-08
6.46955e-09
6.57081e-09
6.22808e-08
9.66662e-07
1.67083e-07
2.46714e-07
4.57441e-07
7.89739e-07
1.28443e-06
2.00123e-06
3.01404e-06
4.41062e-06
6.29098e-06
8.76272e-06
1.19337e-05
1.59147e-05
2.08043e-05
2.66651e-05
3.35009e-05
4.12247e-05
4.96477e-05
5.84806e-05
6.73256e-05
7.56902e-05
8.30056e-05
8.86235e-05
9.19706e-05
9.26408e-05
9.01352e-05
8.42893e-05
7.54595e-05
6.43808e-05
5.20474e-05
3.94989e-05
2.78237e-05
1.79133e-05
1.03107e-05
5.13489e-06
2.0938e-06
6.32662e-07
1.18738e-07
4.11526e-08
4.47354e-08
2.7401e-08
8.72324e-09
2.64759e-11
3.21951e-11
1.53442e-10
4.4599e-10
9.48335e-10
1.67097e-09
2.59595e-09
3.68314e-09
4.87882e-09
6.12368e-09
7.35896e-09
8.53143e-09
9.59962e-09
1.05395e-08
1.13418e-08
1.20067e-08
1.2566e-08
1.32105e-08
1.4523e-08
1.49149e-08
1.7559e-08
2.54262e-08
5.27267e-08
2.72457e-08
4.22613e-08
2.44123e-08
2.29361e-08
2.67955e-08
2.3787e-08
2.38157e-08
2.60946e-08
2.8782e-08
3.26244e-08
3.77752e-08
4.46267e-08
5.42146e-08
6.95366e-08
1.02754e-07
1.95436e-07
1.62752e-07
1.9971e-07
2.70769e-07
3.73188e-07
5.14889e-07
7.08475e-07
9.70275e-07
1.32124e-06
1.78928e-06
2.40564e-06
3.16717e-06
4.09681e-06
5.21569e-06
6.5339e-06
8.04687e-06
9.73258e-06
1.155e-05
1.34403e-05
1.53293e-05
1.71329e-05
1.8765e-05
2.01483e-05
2.12372e-05
2.20326e-05
2.23345e-05
2.19858e-05
2.09626e-05
1.94641e-05
1.75389e-05
1.52127e-05
1.2613e-05
9.9189e-06
7.33056e-06
5.03632e-06
3.17543e-06
1.80918e-06
9.11064e-07
3.90438e-07
1.28437e-07
2.69483e-08
3.28769e-08
2.82937e-10
1.57455e-10
7.07801e-10
2.13593e-09
4.58493e-09
8.04045e-09
1.23715e-08
1.7358e-08
2.27211e-08
2.81588e-08
3.33808e-08
3.81386e-08
4.22504e-08
4.56129e-08
4.81963e-08
5.00406e-08
5.12621e-08
5.20666e-08
5.27222e-08
5.33551e-08
5.4684e-08
5.75599e-08
6.2607e-08
6.29776e-08
6.7909e-08
7.132e-08
7.82766e-08
8.86136e-08
1.0059e-07
1.16509e-07
1.37395e-07
1.64017e-07
1.9779e-07
2.40418e-07
2.94179e-07
3.62199e-07
4.48841e-07
5.60385e-07
7.02901e-07
8.65161e-07
1.07742e-06
1.34952e-06
1.69342e-06
2.12548e-06
2.66632e-06
3.34083e-06
4.17813e-06
5.20974e-06
6.4628e-06
7.95143e-06
9.7032e-06
1.17464e-05
1.41031e-05
1.67871e-05
1.98018e-05
2.3141e-05
2.67895e-05
3.07266e-05
3.49321e-05
3.93964e-05
4.41373e-05
4.92324e-05
5.40173e-05
5.79656e-05
6.07106e-05
6.19402e-05
6.14337e-05
5.89927e-05
5.45447e-05
4.82506e-05
4.05243e-05
3.20096e-05
2.34997e-05
1.57935e-05
9.51737e-06
4.97897e-06
2.12779e-06
6.47844e-07
1.04385e-07
4.725e-08
1.0824e-09
4.7701e-10
2.0891e-09
6.62452e-09
1.48252e-08
2.67558e-08
4.19419e-08
5.9546e-08
7.85186e-08
9.77362e-08
1.16132e-07
1.32803e-07
1.47093e-07
1.58625e-07
1.67301e-07
1.73278e-07
1.76954e-07
1.78935e-07
1.79976e-07
1.80903e-07
1.82587e-07
1.86028e-07
1.92075e-07
2.00964e-07
2.14716e-07
2.33869e-07
2.60291e-07
2.9565e-07
3.41091e-07
3.99365e-07
4.7362e-07
5.67642e-07
6.86226e-07
8.35348e-07
1.02259e-06
1.25759e-06
1.55238e-06
1.92184e-06
2.38344e-06
2.95792e-06
3.67608e-06
4.57118e-06
5.68174e-06
7.05325e-06
8.73857e-06
1.07975e-05
1.32954e-05
1.62996e-05
1.98757e-05
2.40871e-05
2.90046e-05
3.46971e-05
4.12234e-05
4.86256e-05
5.6923e-05
6.61048e-05
7.61235e-05
8.68878e-05
9.82669e-05
0.000110094
0.000122177
0.000134289
0.000144541
0.000152415
0.000157306
0.000158606
0.000155821
0.000148628
0.00013699
0.000121275
0.000102332
8.14971e-05
6.04789e-05
4.1114e-05
2.49959e-05
1.30921e-05
5.52451e-06
1.63304e-06
2.45147e-07
3.07173e-08
2.51764e-09
1.05539e-09
4.65048e-09
1.51477e-08
3.48599e-08
6.44357e-08
1.02884e-07
1.48025e-07
1.96995e-07
2.46704e-07
2.94236e-07
3.37151e-07
3.73684e-07
4.02834e-07
4.24372e-07
4.38762e-07
4.47088e-07
4.50914e-07
4.52218e-07
4.52897e-07
4.55115e-07
4.61268e-07
4.73794e-07
4.95213e-07
5.28277e-07
5.75757e-07
6.40958e-07
7.27741e-07
8.40483e-07
9.84991e-07
1.1686e-06
1.40053e-06
1.6924e-06
2.05877e-06
2.5179e-06
3.09261e-06
3.81118e-06
4.70832e-06
5.82623e-06
7.21633e-06
8.94087e-06
1.10723e-05
1.36941e-05
1.69021e-05
2.08037e-05
2.55166e-05
3.11661e-05
3.78811e-05
4.57897e-05
5.5016e-05
6.5676e-05
7.78627e-05
9.16294e-05
0.000106973
0.000123817
0.00014202
0.000161364
0.00018149
0.000201958
0.000222259
0.000241864
0.000259359
0.00027355
0.000283498
0.000288515
0.000287802
0.000280682
0.000266684
0.000245709
0.000218196
0.000185286
0.00014891
0.000111722
7.68149e-05
4.71478e-05
2.48226e-05
1.04648e-05
3.07661e-06
4.58734e-07
3.59166e-08
4.39982e-09
1.94078e-09
8.90215e-09
2.94523e-08
6.88868e-08
1.29357e-07
2.09387e-07
3.04552e-07
4.08578e-07
5.14492e-07
6.15691e-07
7.06677e-07
7.83508e-07
8.44006e-07
8.87761e-07
9.15891e-07
9.30897e-07
9.36113e-07
9.35197e-07
9.32717e-07
9.33509e-07
9.42544e-07
9.6487e-07
1.00565e-06
1.07024e-06
1.16436e-06
1.29442e-06
1.46794e-06
1.69394e-06
1.98371e-06
2.35149e-06
2.81528e-06
3.39775e-06
4.12724e-06
5.03911e-06
6.17708e-06
7.59478e-06
9.35736e-06
1.15432e-05
1.42455e-05
1.75739e-05
2.16545e-05
2.66305e-05
3.26619e-05
3.99239e-05
4.86031e-05
5.88917e-05
7.09797e-05
8.50445e-05
0.000101238
0.000119667
0.000140375
0.000163314
0.000188327
0.00021513
0.000243301
0.000272271
0.000301379
0.000329854
0.000356831
0.000381605
0.000402709
0.000419327
0.000430558
0.000435434
0.000432938
0.000422096
0.000402109
0.000372552
0.000333634
0.000286478
0.000233354
0.000177753
0.000124158
7.7339e-05
4.12021e-05
1.75042e-05
5.17455e-06
8.00057e-07
2.26683e-07
6.27559e-09
3.18489e-09
1.56325e-08
5.22626e-08
1.23324e-07
2.33695e-07
3.815e-07
5.58878e-07
7.53925e-07
9.52863e-07
1.14263e-06
1.31237e-06
1.45434e-06
1.56437e-06
1.64199e-06
1.68941e-06
1.7109e-06
1.7129e-06
1.70342e-06
1.69111e-06
1.68494e-06
1.69398e-06
1.72727e-06
1.7939e-06
1.90318e-06
2.06503e-06
2.29043e-06
2.5922e-06
2.98576e-06
3.49025e-06
4.12967e-06
4.93426e-06
5.94187e-06
7.19965e-06
8.76581e-06
1.07115e-05
1.31231e-05
1.61038e-05
1.97759e-05
2.42823e-05
2.97876e-05
3.64785e-05
4.45629e-05
5.4268e-05
6.58356e-05
7.95139e-05
9.55462e-05
0.000114155
0.000135521
0.000159759
0.00018689
0.000216813
0.000249283
0.000283907
0.000320145
0.000357268
0.00039449
0.000430975
0.00046593
0.00049863
0.000528361
0.000553577
0.0005737
0.000587791
0.000594663
0.00059294
0.000581151
0.00055789
0.000522076
0.000473316
0.000412352
0.000341494
0.000264927
0.000188651
0.000119765
6.48844e-05
2.79231e-05
8.34437e-06
1.37283e-06
8.55803e-07
7.51888e-09
4.88382e-09
2.60924e-08
8.78935e-08
2.08301e-07
3.96415e-07
6.49733e-07
9.54987e-07
1.29129e-06
1.63424e-06
1.96028e-06
2.25014e-06
2.49003e-06
2.67227e-06
2.79545e-06
2.86406e-06
2.88715e-06
2.87669e-06
2.84658e-06
2.81171e-06
2.7872e-06
2.78807e-06
2.82905e-06
2.92469e-06
3.08964e-06
3.33931e-06
3.69063e-06
4.16315e-06
4.78032e-06
5.57103e-06
6.57133e-06
7.82629e-06
9.39199e-06
1.13376e-05
1.37478e-05
1.67248e-05
2.03909e-05
2.48903e-05
3.03916e-05
3.70887e-05
4.52016e-05
5.4976e-05
6.66802e-05
8.06007e-05
9.7032e-05
0.000116263
0.000138556
0.000164123
0.000193097
0.000225495
0.000261196
0.000299916
0.000341202
0.000384443
0.000428936
0.000473866
0.000518389
0.000561707
0.000603088
0.000641848
0.000677321
0.000708261
0.000734239
0.000754233
0.000766775
0.000769988
0.000761663
0.000739437
0.000701128
0.000645242
0.000571631
0.000482231
0.000381699
0.000277663
0.000180136
9.95911e-05
4.35819e-05
1.32147e-05
2.34716e-06
2.37938e-06
7.57622e-09
7.25127e-09
4.22301e-08
1.42898e-07
3.39031e-07
6.45796e-07
1.05928e-06
1.55767e-06
2.10639e-06
2.66422e-06
3.19122e-06
3.65404e-06
4.02996e-06
4.30795e-06
4.48752e-06
4.57721e-06
4.59242e-06
4.55316e-06
4.48211e-06
4.40303e-06
4.33973e-06
4.31538e-06
4.35231e-06
4.47213e-06
4.69628e-06
5.04685e-06
5.54777e-06
6.22636e-06
7.11508e-06
8.25359e-06
9.69104e-06
1.14884e-05
1.37208e-05
1.64803e-05
1.98783e-05
2.40477e-05
2.91461e-05
3.5357e-05
4.28922e-05
5.19926e-05
6.29281e-05
7.59951e-05
9.15111e-05
0.000109805
0.000131203
0.000156004
0.000184454
0.000216714
0.000252823
0.000292672
0.000335982
0.000382305
0.000431037
0.000481464
0.000532817
0.000584304
0.000635173
0.000684743
0.000732408
0.000777597
0.000819724
0.0008581
0.000892547
0.000922039
0.000944848
0.000958525
0.000959925
0.000945351
0.000910934
0.000853304
0.000770563
0.000663485
0.000536697
0.000399439
0.000265301
0.000150064
6.69926e-05
2.06786e-05
3.98355e-06
5.53279e-06
6.08965e-09
1.06706e-08
6.69424e-08
2.2705e-07
5.38362e-07
1.0245e-06
1.67814e-06
2.46266e-06
3.3205e-06
4.18591e-06
4.99581e-06
5.69885e-06
6.2607e-06
6.6655e-06
6.91428e-06
7.02194e-06
7.01345e-06
6.92025e-06
6.77718e-06
6.62012e-06
6.48438e-06
6.4038e-06
6.41043e-06
6.53474e-06
6.80631e-06
7.25499e-06
7.91247e-06
8.81428e-06
1.0002e-05
1.15261e-05
1.34481e-05
1.58441e-05
1.88069e-05
2.24495e-05
2.69072e-05
3.23405e-05
3.89373e-05
4.69151e-05
5.65225e-05
6.80393e-05
8.17748e-05
9.80632e-05
0.000117254
0.000139698
0.000165722
0.000195605
0.000229542
0.000267607
0.000309723
0.00035564
0.000404936
0.000457033
0.000511237
0.000566801
0.000622986
0.00067911
0.000734589
0.000788955
0.000841833
0.000892888
0.000941596
0.000988374
0.00103333
0.00107559
0.00111333
0.00114367
0.00116253
0.00116466
0.00114395
0.00109416
0.00101027
0.000890378
0.000737808
0.000562903
0.000383429
0.00022235
0.000101538
3.19913e-05
6.65988e-06
1.13858e-05
3.42865e-09
1.58515e-08
1.04603e-07
3.54867e-07
8.39221e-07
1.59122e-06
2.59591e-06
3.7936e-06
5.09394e-06
6.39486e-06
7.60061e-06
8.63504e-06
9.44892e-06
1.00212e-05
1.03561e-05
1.0478e-05
1.04251e-05
1.02443e-05
9.98626e-06
9.70249e-06
9.44298e-06
9.25504e-06
9.18285e-06
9.26773e-06
9.54901e-06
1.00654e-05
1.08571e-05
1.19678e-05
1.34478e-05
1.53569e-05
1.77675e-05
2.07681e-05
2.44659e-05
2.89905e-05
3.44961e-05
4.11645e-05
4.92075e-05
5.88682e-05
7.04224e-05
8.4177e-05
0.000100467
0.000119648
0.00014208
0.000168111
0.000198038
0.000232072
0.000270345
0.00031282
0.000359285
0.000409351
0.000462469
0.000517964
0.000575101
0.000633152
0.000691473
0.000749555
0.00080706
0.000863825
0.00091983
0.000975132
0.00102957
0.00108472
0.00114108
0.00119814
0.00125428
0.00130654
0.00135027
0.00137891
0.001384
0.00135571
0.00128429
0.00116273
0.000990436
0.000776942
0.000544058
0.000324148
0.000151772
4.89053e-05
1.08974e-05
2.13559e-05
1.31019e-09
2.39923e-08
1.61307e-07
5.45756e-07
1.28545e-06
2.42629e-06
3.93915e-06
5.7283e-06
7.65472e-06
9.56539e-06
1.13201e-05
1.28104e-05
1.39687e-05
1.47688e-05
1.52203e-05
1.53604e-05