/*--------------------------------*- C++ -*----------------------------------*\
| =========                 |                                                 |
| \\      /  F ield         | OpenFOAM: The Open Source CFD Toolbox           |
|  \\    /   O peration     | Version:  v2012                                 |
|   \\  /    A nd           | Website:  www.openfoam.com                      |
|    \\/     M anipulation  |                                                 |
\*---------------------------------------------------------------------------*/
FoamFile
{
    version     2.0;
    format      ascii;
    class       volScalarField;
    location    "2000";
    object      nut;
}
// * * * * * * * * * * * * * * * * * * * * * * * * * * * * * * * * * * * * * //

dimensions      [0 2 -1 0 0 0 0];


internalField   nonuniform List<scalar> 
6502
(
5.86609e-05
0.00061331
0.00201975
0.00260509
0.00270658
0.00270666
0.00260542
0.00202053
0.00061364
5.86626e-05
3.57383e-05
0.000274625
0.00127177
0.00227666
0.00259826
0.00259876
0.00227844
0.00127385
0.00027499
3.57491e-05
2.39347e-05
0.000157519
0.000853867
0.00191698
0.00244386
0.00244537
0.00192099
0.000856742
0.000157908
2.3962e-05
1.65828e-05
0.000100203
0.000609455
0.00159868
0.00225998
0.00226315
0.0016053
0.00061299
0.000100631
1.66333e-05
1.17389e-05
6.84761e-05
0.000459165
0.0013424
0.00206685
0.00207219
0.00135165
0.000463297
6.89398e-05
1.18169e-05
8.68518e-06
4.97651e-05
0.000363134
0.00114537
0.00188072
0.00188869
0.00115739
0.000367896
5.02795e-05
8.79012e-06
6.79776e-06
3.80658e-05
0.00029892
0.000994236
0.00170995
0.00172103
0.0010095
0.000304493
3.86521e-05
6.93319e-06
5.59952e-06
3.0307e-05
0.00025339
0.000875777
0.00155677
0.00157145
0.00089479
0.000260042
3.09883e-05
5.7707e-06
4.82067e-06
2.48795e-05
0.000219334
0.00078081
0.00142078
0.00143958
0.000804196
0.000227299
2.5685e-05
5.03679e-06
4.29941e-06
2.0902e-05
0.00019276
0.000702563
0.00130045
0.00132386
0.000731148
0.000202324
2.18576e-05
4.57324e-06
3.92715e-06
1.78658e-05
0.000171137
0.000636164
0.00119338
0.00122235
0.000671093
0.000182692
1.90077e-05
4.27719e-06
3.63935e-06
1.54842e-05
0.000152941
0.000578422
0.00109719
0.00113297
0.000621085
0.000166947
1.68471e-05
4.08863e-06
3.39958e-06
1.35659e-05
0.000137177
0.000526826
0.0010101
0.00105319
0.000579548
0.000154195
1.51952e-05
3.9774e-06
3.1844e-06
1.19755e-05
0.000123109
0.000479684
0.000930318
0.000980745
0.000545426
0.000143853
1.39134e-05
3.92822e-06
2.97797e-06
1.06201e-05
0.000110275
0.000435953
0.000856307
0.000914475
0.000515187
0.000135707
1.2954e-05
3.93553e-06
2.7696e-06
9.4351e-06
9.84178e-05
0.000394865
0.0007867
0.000853281
0.000487876
0.000128977
1.23814e-05
4.00355e-06
2.55279e-06
8.3771e-06
8.74095e-05
0.000355907
0.000720543
0.000796202
0.000463414
0.000123695
1.21403e-05
4.14576e-06
2.32347e-06
7.41345e-06
7.71272e-05
0.000318614
0.000656919
0.000742372
0.00044176
0.000119985
1.22325e-05
4.38622e-06
2.07999e-06
6.52266e-06
6.75256e-05
0.000282788
0.000595113
0.000690939
0.000422829
0.000118004
1.27158e-05
4.7958e-06
1.82377e-06
5.69196e-06
5.8612e-05
0.000248524
0.000534849
0.000641096
0.00040661
0.000118201
1.37152e-05
5.11352e-06
1.55906e-06
4.91239e-06
5.03777e-05
0.000215898
0.000475692
0.000591828
0.000393647
0.000124164
1.80103e-05
4.82256e-06
1.29587e-06
4.192e-06
4.29515e-05
0.000185628
0.000418716
0.000543059
0.000383236
0.000134645
2.51745e-05
6.21693e-06
1.04574e-06
3.53376e-06
3.6369e-05
0.000158166
0.000364826
0.000494648
0.000373856
0.000148087
3.51738e-05
9.82593e-06
8.17743e-07
2.94027e-06
3.06206e-05
0.00013378
0.000314837
0.000446715
0.000364068
0.000163391
4.82756e-05
1.62444e-05
6.17895e-07
2.41405e-06
2.5656e-05
0.000112501
0.00026935
0.000399567
0.000352601
0.000179827
6.44343e-05
2.56778e-05
4.49199e-07
1.95554e-06
2.14013e-05
9.41852e-05
0.000228697
0.000353697
0.000338409
0.000196128
8.30285e-05
3.79986e-05
3.12229e-07
1.56359e-06
1.77773e-05
7.85898e-05
0.000192974
0.000309794
0.000320885
0.000210172
0.000103109
5.28539e-05
2.05687e-07
1.23541e-06
1.47089e-05
6.54316e-05
0.0001621
0.000268913
0.00029994
0.000220617
0.000123466
6.96834e-05
1.26859e-07
9.66551e-07
1.21271e-05
5.44158e-05
0.000135795
0.000231533
0.000276052
0.00022633
0.000142712
8.76869e-05
7.19854e-08
7.51001e-07
9.96751e-06
4.52476e-05
0.000113649
0.000198071
0.000250203
0.000226535
0.000159421
0.000105893
3.66226e-08
5.81601e-07
8.1702e-06
3.76456e-05
9.51802e-05
0.000168736
0.000223649
0.000221102
0.000172215
0.000123215
1.60247e-08
4.50529e-07
6.68032e-06
3.13557e-05
7.98923e-05
0.000143516
0.000197676
0.000210687
0.000180081
0.000138441
5.76108e-09
3.49375e-07
5.44498e-06
2.61498e-05
6.72985e-05
0.000122188
0.000173367
0.000196569
0.00018252
0.000150481
2.44021e-09
2.72807e-07
4.42752e-06
2.18405e-05
5.69499e-05
0.000104383
0.00015146
0.000180337
0.000179761
0.000158441
4.08808e-09
2.16194e-07
3.59774e-06
1.82765e-05
4.84519e-05
8.96606e-05
0.00013233
0.00016356
0.000172813
0.000161977
6.69253e-09
1.73305e-07
2.92513e-06
1.5329e-05
4.14615e-05
7.75565e-05
0.000116028
0.000147489
0.000163145
0.000161314
9.0133e-09
1.38226e-07
2.35782e-06
1.2842e-05
3.56517e-05
6.76006e-05
0.00010236
0.00013292
0.00015227
0.000157356
1.10348e-08
1.0943e-07
1.87145e-06
1.06953e-05
3.07398e-05
5.93538e-05
9.09922e-05
0.000120216
0.000141441
0.000151359
1.25101e-08
8.79734e-08
1.48437e-06
8.87868e-06
2.65571e-05
5.24621e-05
8.15516e-05
0.0001094
0.000131473
0.000144572
1.28881e-08
7.03544e-08
1.16592e-06
7.3347e-06
2.29539e-05
4.66322e-05
7.3681e-05
0.000100284
0.000122741
0.000137955
1.24476e-08
5.58387e-08
9.06308e-07
5.96176e-06
1.97343e-05
4.1583e-05
6.70508e-05
9.25872e-05
0.000115283
0.000132063
1.1959e-08
4.43858e-08
6.96333e-07
4.73997e-06
1.68087e-05
3.7114e-05
6.14326e-05
8.61058e-05
0.000108972
0.000127094
1.10349e-08
3.54752e-08
5.36524e-07
3.76664e-06
1.4137e-05
3.31169e-05
5.7046e-05
8.12227e-05
0.000103879
0.00012311
9.65314e-09
2.80833e-08
4.0642e-07
2.9269e-06
1.15627e-05
2.92753e-05
5.31595e-05
7.80058e-05
0.000100436
0.000120255
8.45561e-09
2.2116e-08
3.05697e-07
2.23491e-06
9.24097e-06
2.50771e-05
4.87663e-05
7.47214e-05
9.8454e-05
0.000118412
7.55234e-09
1.75443e-08
2.28406e-07
1.66764e-06
7.14258e-06
2.05933e-05
4.3208e-05
7.04316e-05
9.60591e-05
0.000117877
6.80474e-09
1.39757e-08
1.68609e-07
1.22565e-06
5.36488e-06
1.6219e-05
3.64523e-05
6.43333e-05
9.21786e-05
0.000116459
6.30391e-09
1.13755e-08
1.24492e-07
8.98801e-07
3.97023e-06
1.23829e-05
2.93865e-05
5.54793e-05
8.54216e-05
0.000112742
6.00201e-09
9.68642e-09
9.46741e-08
6.71785e-07
2.94792e-06
9.29553e-06
2.27114e-05
4.49229e-05
7.44451e-05
0.000104873
5.71947e-09
8.86595e-09
7.61321e-08
5.2379e-07
2.24309e-06
6.96597e-06
1.70544e-05
3.44639e-05
5.98097e-05
9.07097e-05
5.32793e-09
7.94705e-09
6.32075e-08
4.25712e-07
1.77909e-06
5.32336e-06
1.25329e-05
2.50111e-05
4.39553e-05
7.01635e-05
4.71568e-09
6.92239e-09
5.3605e-08
3.55677e-07
1.44866e-06
4.15103e-06
9.24552e-06
1.74311e-05
2.97636e-05
4.83303e-05
3.83453e-09
5.70681e-09
4.50118e-08
2.95259e-07
1.16708e-06
3.1787e-06
6.65858e-06
1.1862e-05
1.94066e-05
3.05119e-05
2.75672e-09
4.27271e-09
3.58051e-08
2.32585e-07
8.84509e-07
2.26749e-06
4.46234e-06
7.56564e-06
1.19508e-05
1.8331e-05
1.66627e-09
2.70413e-09
2.55175e-08
1.64278e-07
5.91582e-07
1.41098e-06
2.61701e-06
4.27417e-06
6.60257e-06
9.98012e-06
7.8646e-10
1.50175e-09
1.58612e-08
9.74482e-08
3.19872e-07
6.99858e-07
1.23351e-06
1.96924e-06
3.0141e-06
4.5344e-06
2.52427e-10
6.54605e-10
7.726e-09
4.22654e-08
1.19982e-07
2.39596e-07
4.07643e-07
6.46578e-07
9.92947e-07
1.50004e-06
3.82438e-11
1.96875e-10
2.36629e-09
1.0014e-08
2.37861e-08
4.44006e-08
7.47723e-08
1.1986e-07
1.86944e-07
2.8638e-07
1.78278e-12
3.09018e-11
2.50755e-10
8.06772e-10
1.83482e-09
3.57164e-09
6.3834e-09
1.08181e-08
1.7661e-08
2.7988e-08
9.26468e-13
2.54254e-12
1.92425e-11
1.27588e-10
4.3091e-10
1.0679e-09
2.21952e-09
4.14172e-09
7.18701e-09
1.18121e-08
8.40614e-07
2.63251e-07
1.93263e-07
1.19382e-07
7.3021e-08
4.48727e-08
2.83167e-08
1.8327e-08
1.19838e-08
7.81618e-09
4.99728e-09
3.05704e-09
1.73152e-09
8.69142e-10
3.67709e-10
1.34335e-10
2.64344e-11
5.06909e-11
1.05656e-10
1.34012e-10
1.23749e-10
8.31361e-11
3.89809e-11
1.06358e-11
1.01743e-12
1.75477e-06
6.48108e-07
2.88367e-07
1.55871e-07
9.22138e-08
5.6758e-08
3.61038e-08
2.37064e-08
1.60014e-08
1.10479e-08
7.71264e-09
5.27682e-09
3.77151e-09
2.73646e-09
2.01162e-09
1.49941e-09
1.104e-09
8.25131e-10
6.12454e-10
4.33463e-10
2.78654e-10
1.5049e-10
5.71117e-11
1.2481e-11
7.21389e-12
4.25284e-06
2.2611e-06
1.24919e-06
6.92081e-07
4.20964e-07
2.68256e-07
1.77197e-07
1.22524e-07
8.98479e-08
7.01604e-08
5.76945e-08
4.89174e-08
4.25847e-08
3.70785e-08
3.16392e-08
2.60393e-08
2.03791e-08
1.4976e-08
1.01656e-08
6.20224e-09
3.22069e-09
1.25768e-09
2.8583e-10
4.47009e-11
2.93443e-11
8.67005e-06
5.84446e-06
4.20285e-06
2.85856e-06
1.95975e-06
1.3321e-06
9.10191e-07
6.44529e-07
4.85547e-07
3.92363e-07
3.35898e-07
2.97687e-07
2.67422e-07
2.38108e-07
2.06261e-07
1.71134e-07
1.33965e-07
9.72228e-08
6.377e-08
3.6162e-08
1.6293e-08
5.00628e-09
8.60649e-10
1.09315e-10
7.2312e-11
1.52205e-05
1.14563e-05
9.45103e-06
7.79486e-06
5.83075e-06
4.18716e-06
2.92824e-06
2.08749e-06
1.58062e-06
1.29063e-06
1.12188e-06
1.01062e-06
9.18581e-07
8.23678e-07
7.1542e-07
5.92066e-07
4.58602e-07
3.24872e-07
2.03377e-07
1.06554e-07
4.28771e-08
1.165e-08
1.77258e-09
1.63376e-10
8.92335e-11
2.40171e-05
1.89738e-05
1.68111e-05
1.50889e-05
1.24203e-05
9.24471e-06
6.52262e-06
4.59872e-06
3.4345e-06
2.78514e-06
2.42075e-06
2.18607e-06
1.99019e-06
1.78456e-06
1.54764e-06
1.27642e-06
9.81969e-07
6.86647e-07
4.20359e-07
2.132e-07
8.26977e-08
2.18148e-08
3.23345e-09
2.42847e-10
9.75848e-11
3.50135e-05
2.83294e-05
2.59053e-05
2.42771e-05
2.12378e-05
1.63048e-05
1.1424e-05
7.81884e-06
5.65531e-06
4.48793e-06
3.86212e-06
3.47654e-06
3.1639e-06
2.84049e-06
2.47049e-06
2.0475e-06
1.58637e-06
1.11964e-06
6.93326e-07
3.56461e-07
1.40421e-07
3.76067e-08
5.59618e-09
3.52796e-10
8.40009e-11
4.79898e-05
3.93899e-05
3.63871e-05
3.49666e-05
3.16212e-05
2.52471e-05
1.75927e-05
1.15947e-05
8.03298e-06
6.18531e-06
5.2537e-06
4.72112e-06
4.31393e-06
3.90117e-06
3.42688e-06
2.87719e-06
2.26696e-06
1.63534e-06
1.04165e-06
5.54553e-07
2.27091e-07
6.30082e-08
9.55977e-09
5.32248e-10
4.76797e-11
6.25667e-05
5.18946e-05
4.80754e-05
4.67167e-05
4.33958e-05
3.57541e-05
2.54918e-05
1.65083e-05
1.08692e-05
8.05384e-06
6.72991e-06
6.04743e-06
5.57137e-06
5.09968e-06
4.54471e-06
3.88011e-06
3.11806e-06
2.30456e-06
1.51406e-06
8.38349e-07
3.59533e-07
1.04401e-07
1.63598e-08
8.76784e-10
1.40978e-11
7.8152e-05
6.54283e-05
6.06653e-05
5.917e-05
5.65202e-05
4.8223e-05
3.54443e-05
2.30965e-05
1.48093e-05
1.05313e-05
8.56271e-06
7.66844e-06
7.12954e-06
6.61986e-06
5.99799e-06
5.21273e-06
4.27051e-06
3.22713e-06
2.17954e-06
1.25104e-06
5.61542e-07
1.71514e-07
2.81089e-08
1.60515e-09
7.89625e-11
9.40664e-05
7.95125e-05
7.37469e-05
7.20726e-05
7.01412e-05
6.27908e-05
4.83021e-05
3.22989e-05
2.04832e-05
1.41277e-05
1.11845e-05
9.84844e-06
9.20402e-06
8.67042e-06
7.99345e-06
7.07317e-06
5.90106e-06
4.5454e-06
3.13999e-06
1.85658e-06
8.6767e-07
2.78878e-07
4.8321e-08
3.17731e-09
4.82754e-10
0.000109499
9.35726e-05
8.68169e-05
8.49641e-05
8.37332e-05
7.84629e-05
6.44708e-05
4.54558e-05
2.93234e-05
1.96074e-05
1.50194e-05
1.30327e-05
1.20828e-05
1.15167e-05
1.08106e-05
9.74381e-06
8.27464e-06
6.48188e-06
4.5582e-06
2.75675e-06
1.33089e-06
4.48218e-07
8.26497e-08
6.52769e-09
1.78428e-09
0.000123579
0.000106982
9.93651e-05
9.73005e-05
9.6802e-05
9.35382e-05
8.31096e-05
6.33157e-05
4.2732e-05
2.8275e-05
2.0825e-05
1.7612e-05
1.62635e-05
1.55257e-05
1.4826e-05
1.36416e-05
1.1804e-05
9.39623e-06
6.70212e-06
4.11941e-06
2.03638e-06
7.12979e-07
1.40046e-07
1.34316e-08
5.13187e-09
0.000135443
0.000119135
0.000110885
0.000108579
0.000108772
0.000107454
0.000100609
8.51555e-05
6.24739e-05
4.24825e-05
3.01763e-05
2.45024e-05
2.22847e-05
2.12886e-05
2.05883e-05
1.93487e-05
1.70952e-05
1.38519e-05
1.0011e-05
6.22256e-06
3.12347e-06
1.1256e-06
2.34247e-07
2.69212e-08
1.25876e-08
0.000144364
0.000129451
0.000120937
0.000118347
0.000119074
0.000119578
0.000116128
0.000105607
8.70129e-05
6.44447e-05
4.57402e-05
3.55249e-05
3.12844e-05
2.98435e-05
2.88991e-05
2.772e-05
2.50777e-05
2.07189e-05
1.51845e-05
9.52042e-06
4.81944e-06
1.76889e-06
3.85784e-07
5.15553e-08
2.73047e-08
0.000149889
0.000137466
0.000129199
0.0001263
0.000127307
0.000129315
0.00012896
0.000123189
0.000110208
9.09207e-05
7.01333e-05
5.37821e-05
4.52023e-05
4.21532e-05
4.10576e-05
3.97863e-05
3.6916e-05
3.12514e-05
2.33003e-05
1.47407e-05
7.49184e-06
2.77337e-06
6.25083e-07
9.34968e-08
5.33407e-08
0.000152031
0.000142934
0.00013552
0.000132365
0.000133301
0.00013632
0.000138525
0.000137028
0.000129719
0.000116106
9.81732e-05
8.0353e-05
6.71051e-05
6.04096e-05
5.82532e-05
5.66401e-05
5.38756e-05
4.69995e-05
3.58921e-05
2.30012e-05
1.1724e-05
4.34143e-06
9.97281e-07
1.61566e-07
9.50798e-08
0.000151288
0.000145883
0.000139896
0.000136661
0.000137196
0.000140562
0.000144563
0.000146581
0.000144391
0.000136829
0.000124353
0.000109324
9.54104e-05
8.55745e-05
8.12471e-05
7.98099e-05
7.67125e-05
6.93143e-05
5.48135e-05
3.59272e-05
1.8409e-05
6.7736e-06
1.55871e-06
2.62275e-07
1.56128e-07
0.000148607
0.000146712
0.000142564
0.000139502
0.000139414
0.000142427
0.000147236
0.000151725
0.000153695
0.000151657
0.000145155
0.00013518
0.00012401
0.000114384
0.00010818
0.000106019
0.000103625
9.7783e-05
8.1289e-05
5.55654e-05
2.8879e-05
1.05391e-05
2.38835e-06
3.96074e-07
2.35821e-07
0.000145044
0.000146161
0.000143967
0.000141369
0.000140627
0.00014271
0.000147264
0.000152911
0.000157765
0.00016012
0.000159083
0.000154639
0.000147929
0.000140829
0.00013513
0.000132122
0.000131169
0.000126665
0.000113178
8.35885e-05
4.52751e-05
1.64428e-05
3.62826e-06
5.72309e-07
3.27296e-07
0.000141489
0.000145092
0.000144762
0.000142819
0.000141556
0.000142424
0.000145854
0.000151294
0.000157439
0.000162722
0.000165858
0.000166297
0.000164401
0.000160966
0.000157237
0.000154337
0.000153508
0.000151252
0.000141706
0.000115445
7.01285e-05
2.58984e-05
5.55729e-06
8.6028e-07
4.51165e-07
0.000138498
0.000144262
0.000145659
0.000144617
0.000142958
0.000142601
0.000144393
0.000148515
0.000154354
0.000160775
0.000166524
0.000170573
0.000172376
0.000172215
0.000171155
0.000169982
0.000169952
0.000170071
0.000164489
0.000143985
9.82867e-05
4.14785e-05
8.68585e-06
1.36626e-06
7.23634e-07
0.00013632
0.000144111
0.000147249
0.000147203
0.000145638
0.000144163
0.000144192
0.000146316
0.000150575
0.0001564
0.000162872
0.000168958
0.000173707
0.000176575
0.000178008
0.000171289
0.000176007
0.00017952
0.000175924
0.000161646
0.000129005
6.44402e-05
1.48865e-05
2.26184e-06
1.118e-06
0.000135063
0.000144825
0.000149809
0.000151014
0.00014988
0.000147862
0.000146323
0.000146282
0.000148234
0.000152179
0.000157651
0.000163895
0.00016998
0.000175018
0.000178682
0.000164359
0.000163598
0.000166591
0.000165856
0.00015774
0.000139911
0.000106664
3.93346e-05
7.78035e-06
1.66509e-06
0.000134606
0.000146341
0.00015337
0.000156218
0.00015599
0.000153987
0.00015145
0.000149559
0.000149113
0.000150418
0.000153618
0.000158367
0.000163999
0.000169667
0.000174661
0.000166878
0.000156876
0.000156082
0.000155703
0.000152219
0.000143682
0.000127775
0.000101908
4.80559e-05
1.39977e-05
0.000134927
0.00014849
0.000157715
0.000162618
0.000163878
0.00016255
0.000159763
0.000156596
0.000154081
0.000152756
0.000153154
0.000155273
0.000158919
0.000163536
0.000168436
0.000173067
0.000162565
0.000153814
0.000150561
0.000147575
0.000143133
0.000136253
0.000125577
0.000108691
8.18554e-05
0.000135765
0.000150899
0.00016238
0.000169691
0.000173051
0.000173165
0.000170985
0.000167457
0.000163618
0.000160241
0.000157941
0.000157166
0.000157878
0.000160031
0.00016326
0.000167081
0.000171123
0.000167236
0.000155644
0.000149374
0.000144473
0.000139748
0.000134567
0.000128497
0.0001227
0.000135021
0.000152881
0.000166615
0.000176606
0.000182619
0.000184973
0.000184339
0.000181518
0.000177416
0.000172887
0.000168626
0.000165236
0.000163029
0.000162258
0.000162671
0.000164197
0.000166615
0.0001697
0.000173184
0.000165898
0.000155355
0.000148302
0.000143106
0.00013914
0.000136463
0.000130864
0.000152212
0.000169289
0.00018225
0.000191328
0.000196582
0.000198413
0.000197411
0.000194286
0.000189821
0.000184733
0.000179693
0.000175201
0.000171633
0.000169136
0.000167836
0.000167559
0.000168221
0.000169832
0.000172157
0.000174961
0.000175972
0.000163648
0.00015562
0.000150764
0.000120625
0.000146372
0.000167735
0.000184712
0.000197403
0.000206032
0.00021109
0.000212931
0.000212039
0.000209025
0.000204534
0.000199212
0.000193631
0.000188265
0.00018348
0.000179341
0.000176299
0.000174212
0.000173106
0.00017286
0.000173501
0.00017488
0.000176718
0.000178797
0.000180867
0.000101088
0.000131516
0.000158386
0.000180705
0.000198319
0.000211244
0.000219695
0.000224986
0.000227331
0.000227073
0.000224676
0.000220668
0.000215586
0.000209922
0.00020414
0.000198517
0.000193364
0.000188876
0.000184964
0.000182068
0.00018011
0.000178926
0.000178407
0.0001785
0.000179171
7.31874e-05
0.000104187
0.000136341
0.000165323
0.000189588
0.000208562
0.000222045
0.000230243
0.000235974
0.000239174
0.00023998
0.000238695
0.000235716
0.000231469
0.000226386
0.000220849
0.000215154
0.000209623
0.000204389
0.000199636
0.000195396
0.000191794
0.000189029
0.000186972
0.000185507
4.65672e-05
6.95706e-05
9.93578e-05
0.000133162
0.000164884
0.000191551
0.000212017
0.000215948
0.000217994
0.000219192
0.000219528
0.000218979
0.000217663
0.000215924
0.000214403
0.000213405
0.000213848
0.000216367
0.000221116
0.000220334
0.000215839
0.000211511
0.000207516
0.000203845
0.000200583
2.76478e-05
4.09656e-05
6.01354e-05
8.77222e-05
0.000121387
0.000153722
0.000182153
0.000204692
0.000221227
0.000219744
0.000216212
0.000211816
0.00020728
0.000203046
0.000199487
0.000196747
0.000194952
0.000194516
0.000195429
0.000197974
0.000202253
0.000208771
0.000218864
0.00022371
0.000220632
1.49076e-05
2.19557e-05
3.23094e-05
4.74521e-05
6.89665e-05
9.84376e-05
0.000131048
0.000160472
0.000185727
0.000206157
0.000221812
0.000220827
0.000216609
0.000211809
0.000207038
0.000202695
0.000198996
0.000196226
0.000194524
0.000193915
0.000194491
0.000196255
0.000199394
0.000203899
0.000209903
6.74703e-06
9.89577e-06
1.45171e-05
2.13372e-05
3.13965e-05
4.60566e-05
6.68565e-05
9.19229e-05
0.000118366
0.000143977
0.000165923
0.000184366
0.000199463
0.00021122
0.000208619
0.00020525
0.000201724
0.000198479
0.000195885
0.00019406
0.00019301
0.000192709
0.000193185
0.000194513
0.000196743
2.23613e-06
3.27497e-06
4.78578e-06
6.99752e-06
1.02553e-05
1.50458e-05
2.19909e-05
3.19604e-05
4.55739e-05
6.06264e-05
7.63193e-05
9.22893e-05
0.00010805
0.000121846
0.000133853
0.000144154
0.000152681
0.000159536
0.000164868
0.000168846
0.000171626
0.000173344
0.000174116
0.000174045
0.000173232
4.3089e-07
6.33445e-07
9.2355e-07
1.33815e-06
1.93255e-06
2.78922e-06
4.01388e-06
5.74197e-06
8.19334e-06
1.17063e-05
1.58184e-05
2.03051e-05
2.51483e-05
3.01409e-05
3.52235e-05
4.0367e-05
4.4843e-05
4.87383e-05
5.20437e-05
5.47488e-05
5.68347e-05
5.82877e-05
5.91261e-05
5.93926e-05
5.91429e-05
4.29831e-08
6.37899e-08
9.28578e-08
1.32745e-07
1.86523e-07
2.5788e-07
3.50737e-07
4.69476e-07
6.22007e-07
8.20038e-07
1.07801e-06
1.39259e-06
1.75165e-06
2.14569e-06
2.57171e-06
3.01352e-06
3.42483e-06
3.79671e-06
4.14114e-06
4.43873e-06
4.69191e-06
4.88793e-06
5.02681e-06
5.11424e-06
5.15351e-06
1.84132e-08
2.73975e-08
3.95642e-08
5.56987e-08
7.65544e-08
1.0184e-07
1.29633e-07
1.57508e-07
1.82559e-07
2.02657e-07
2.17136e-07
2.25646e-07
2.26743e-07
2.1625e-07
1.94369e-07
1.62627e-07
1.25602e-07
8.99488e-08
6.15238e-08
4.30105e-08
5.23471e-08
8.75582e-08
1.4219e-07
2.16669e-07
3.09894e-07
9.29494e-07
5.28676e-07
3.238e-07
5.23065e-06
3.10894e-06
2.25176e-06
4.89065e-05
3.30297e-05
2.58618e-05
0.000119598
0.000117208
0.000105508
0.000135225
0.000134928
0.000134761
0.00014806
0.000146899
0.000146457
0.000177804
0.000171235
0.000166755
0.000180066
0.000181112
0.000182238
0.000184596
0.000183992
0.000183658
0.000198088
0.000196039
0.000194354
0.000217921
0.000215354
0.000212913
0.000217438
0.000225883
0.000230048
0.000199736
0.000202978
0.000206767
0.000171936
0.000170174
0.000167947
5.85169e-05
5.75747e-05
5.63344e-05
5.1514e-06
5.11888e-06
5.05876e-06
4.12302e-07
5.20363e-07
6.36004e-07
2.56309e-15
2.7572e-14
2.22397e-13
8.46252e-13
2.11768e-12
4.14247e-12
6.90567e-12
1.03095e-11
1.42148e-11
1.84668e-11
2.29032e-11
2.73551e-11
3.16722e-11
3.57735e-11
3.96264e-11
4.31385e-11
4.61805e-11
4.97557e-11
6.46337e-11
5.94313e-11
7.68562e-11
1.22514e-10
5.61453e-10
8.92343e-11
3.98441e-10
9.3778e-11
8.77342e-11
1.23844e-10
7.30698e-11
5.77712e-11
5.56647e-11
4.44961e-11
3.53293e-11
2.59043e-11
1.61071e-11
8.27961e-12
8.40921e-12
7.97059e-11
1.23712e-09
2.1383e-10
3.1574e-10
5.85425e-10
1.01069e-09
1.6438e-09
2.56113e-09
3.85731e-09
5.64463e-09
8.05108e-09
1.12144e-08
1.52726e-08
2.03673e-08
2.66249e-08
3.41254e-08
4.28737e-08
5.27584e-08
6.3538e-08
7.4842e-08
8.61616e-08
9.68663e-08
1.06228e-07
1.13418e-07
1.17701e-07
1.18559e-07
1.15352e-07
1.07871e-07
9.6571e-08
8.23929e-08
6.66091e-08
5.05498e-08
3.56082e-08
2.29251e-08
1.31955e-08
6.57154e-09
2.67961e-09
8.0967e-10
1.51959e-10
5.26663e-11
5.72516e-11
3.50673e-11
8.2879e-12
2.00018e-14
1.22988e-13
1.001e-12
3.23254e-12
7.0034e-12
1.23873e-11
1.92629e-11
2.73378e-11
3.62158e-11
4.54573e-11
5.46263e-11
6.3328e-11
7.12547e-11
7.82283e-11
8.41807e-11
8.91117e-11
9.32556e-11
9.80187e-11
1.07702e-10
1.10387e-10
1.29304e-10
1.88889e-10
3.9069e-10
2.01889e-10
3.12077e-10
1.79604e-10
1.69519e-10
2.06514e-10
1.77501e-10
1.76822e-10
1.93471e-10
2.13266e-10
2.41694e-10
2.79728e-10
3.30249e-10
4.01008e-10
5.14283e-10
7.59792e-10
1.43914e-09
1.19372e-09
1.46351e-09
1.98235e-09
2.72792e-09
3.75618e-09
5.15678e-09
7.04661e-09
9.58342e-09
1.30347e-08
1.78712e-08
2.36382e-08
3.05723e-08
3.88759e-08
4.86498e-08
5.98896e-08
7.24608e-08
8.61005e-08
1.00424e-07
1.14933e-07
1.29054e-07
1.42175e-07
1.5372e-07
1.63302e-07
1.70776e-07
1.73512e-07
1.70342e-07
1.60048e-07
1.47731e-07
1.3338e-07
1.15928e-07
9.62227e-08
7.56622e-08
5.5839e-08
3.82576e-08
2.40235e-08
1.36106e-08
6.79276e-09
2.84286e-09
8.38767e-10
1.02868e-10
2.48376e-11
2.13751e-13
6.81403e-13
7.94814e-12
3.686e-11
9.2338e-11
1.70424e-10
2.66835e-10
3.76784e-10
4.94439e-10
6.134e-10
7.27447e-10
8.31228e-10
9.20833e-10
9.94051e-10
1.05026e-09
1.09033e-09
1.1168e-09
1.13418e-09
1.14847e-09
1.16247e-09
1.1894e-09
1.25259e-09
1.36197e-09
1.37115e-09
1.47781e-09
1.54947e-09
1.7003e-09
1.95279e-09
2.19396e-09
2.52707e-09
2.96991e-09
3.53591e-09
4.25359e-09
5.15533e-09
6.28636e-09
7.71026e-09
9.51425e-09
1.18175e-08
1.47087e-08
1.79531e-08
2.21975e-08
2.76025e-08
3.43677e-08
4.2783e-08
5.32282e-08
6.61902e-08
8.23125e-08
1.0246e-07
1.27449e-07
1.56633e-07
1.90729e-07
2.30638e-07
2.77202e-07
3.31203e-07
3.93364e-07
4.64377e-07
5.44911e-07
6.35642e-07
7.37302e-07
8.50711e-07
9.76814e-07
1.11675e-06
1.24527e-06
1.35222e-06
1.42796e-06
1.46366e-06
1.46032e-06
1.41127e-06
1.30996e-06
1.15902e-06
9.69349e-07
7.58651e-07
5.48578e-07
3.60199e-07
2.0902e-07
1.01702e-07
3.66413e-08
7.23717e-09
4.51436e-10
3.56961e-11
8.17727e-13
2.08563e-12
2.61241e-11
1.56553e-10
4.96172e-10
1.06054e-09
1.79612e-09
2.64107e-09
3.53972e-09
4.44044e-09
5.29616e-09
6.06744e-09
6.72581e-09
7.25537e-09
7.65246e-09
7.92485e-09
8.09136e-09
8.18082e-09
8.22975e-09
8.27704e-09
8.3509e-09
8.49711e-09
8.75917e-09
9.15775e-09
9.77568e-09
1.06259e-08
1.17905e-08
1.34042e-08
1.53719e-08
1.78793e-08
2.1064e-08
2.50727e-08
3.0086e-08
3.63158e-08
4.40295e-08
5.35642e-08
6.53278e-08
7.97929e-08
9.74561e-08
1.18986e-07
1.45463e-07
1.77917e-07
2.17529e-07
2.65769e-07
3.24472e-07
3.95929e-07
4.82945e-07
5.88737e-07
7.16294e-07
8.67665e-07
1.04734e-06
1.2611e-06
1.51545e-06
1.81766e-06
2.17561e-06
2.59746e-06
3.09074e-06
3.66107e-06
4.31015e-06
5.03223e-06
5.80885e-06
6.60005e-06
7.27053e-06
7.80324e-06
8.1578e-06
8.29193e-06
8.17639e-06
7.78657e-06
7.11863e-06
6.20425e-06
5.11046e-06
3.93275e-06
2.78158e-06
1.76353e-06
9.61066e-07
4.17056e-07
1.24914e-07
1.99942e-08
1.06774e-09
2.32061e-11
1.90201e-12
4.61978e-12
5.93171e-11
3.91828e-10
1.43762e-09
3.54913e-09
6.69962e-09
1.05723e-08
1.47916e-08
1.90318e-08
2.30344e-08
2.66054e-08
2.96144e-08
3.19943e-08
3.37375e-08
3.48897e-08
3.5545e-08
3.58354e-08
3.5926e-08
3.5959e-08
3.60838e-08
3.64765e-08
3.7342e-08
3.8898e-08
4.1339e-08
4.48317e-08
4.95833e-08
5.59213e-08
6.39849e-08
7.41652e-08
8.69099e-08
1.02736e-07
1.2226e-07
1.46205e-07
1.75451e-07
2.11067e-07
2.54338e-07
3.06791e-07
3.70231e-07
4.46974e-07
5.39953e-07
6.52588e-07
7.89013e-07
9.5436e-07
1.15503e-06
1.39892e-06
1.69555e-06
2.05601e-06
2.49272e-06
3.02003e-06
3.65701e-06
4.42672e-06
5.35529e-06
6.47094e-06
7.80221e-06
9.37422e-06
1.12001e-05
1.32696e-05
1.55375e-05
1.79109e-05
2.024e-05
2.22009e-05
2.37077e-05
2.46726e-05
2.50071e-05
2.46345e-05
2.35222e-05
2.16891e-05
1.92185e-05
1.62617e-05
1.30261e-05
9.75594e-06
6.70558e-06
4.1082e-06
2.13937e-06
8.74821e-07
2.45953e-07
3.77644e-08
1.99311e-09
2.71341e-11
3.32395e-12
8.49757e-12
1.14064e-10
7.8212e-10
3.07126e-09
8.30831e-09
1.72144e-08
2.93602e-08
4.34828e-08
5.81359e-08
7.21063e-08
8.45311e-08
9.4882e-08
1.02919e-07
1.08648e-07
1.12263e-07
1.14127e-07
1.14684e-07
1.14374e-07
1.13765e-07
1.1343e-07
1.13943e-07
1.15906e-07
1.19928e-07
1.26562e-07
1.36318e-07
1.49732e-07
1.67474e-07
1.9016e-07
2.18614e-07
2.5383e-07
2.96985e-07
3.49481e-07
4.12986e-07
4.89519e-07
5.81537e-07
6.92047e-07
8.24739e-07
9.84156e-07
1.17602e-06
1.40749e-06
1.68742e-06
2.02684e-06
2.43953e-06
2.94269e-06
3.55755e-06
4.30992e-06
5.23072e-06
6.35669e-06
7.73162e-06
9.40783e-06
1.14444e-05
1.39031e-05
1.6841e-05
2.02974e-05
2.42719e-05
2.86962e-05
3.34135e-05
3.81677e-05
4.26166e-05
4.63844e-05
4.90228e-05
5.05234e-05
5.08122e-05
4.98262e-05
4.75577e-05
4.40767e-05
3.95365e-05
3.41716e-05
2.82863e-05
2.22344e-05
1.63917e-05
1.1124e-05
6.74921e-06
3.49224e-06
1.42554e-06
4.02903e-07
6.26953e-08
3.46392e-09
1.71253e-10
4.74105e-12
1.39472e-11
2.00641e-10
1.40088e-09
5.67059e-09
1.61018e-08
3.54659e-08
6.44224e-08
1.00853e-07
1.40802e-07
1.80131e-07
2.15572e-07
2.4506e-07
2.67652e-07
2.8336e-07
2.92756e-07
2.96747e-07
2.9662e-07
2.93917e-07
2.90224e-07
2.87105e-07
2.86065e-07
2.88549e-07
2.95917e-07
3.09397e-07
3.30094e-07
3.59082e-07
3.97523e-07
4.46633e-07
5.07841e-07
5.82864e-07
6.73777e-07
7.83108e-07
9.13961e-07
1.07018e-06
1.25657e-06
1.47914e-06
1.74548e-06
2.06513e-06
2.45016e-06
2.91582e-06
3.48126e-06
4.17059e-06
5.01408e-06
6.0494e-06
7.32305e-06
8.89163e-06
1.08229e-05
1.31967e-05
1.61044e-05
1.96454e-05
2.39184e-05
2.90034e-05
3.49364e-05
4.1673e-05
4.90454e-05
5.67419e-05
6.43177e-05
7.12596e-05
7.70693e-05
8.13241e-05
8.3663e-05
8.41767e-05
8.28522e-05
7.96938e-05
7.47754e-05
6.82633e-05
6.04249e-05
5.16255e-05
4.23135e-05
3.29921e-05
2.41794e-05
1.63615e-05
9.941e-06
5.18301e-06
2.14887e-06
6.21568e-07
9.94091e-08
5.91947e-09
6.46536e-10
5.68032e-12
2.13915e-11
3.35301e-10
2.36735e-09
9.72055e-09
2.82854e-08
6.45417e-08
1.22324e-07
2.00014e-07
2.904e-07
3.83412e-07
4.69605e-07
5.42179e-07
5.9748e-07
6.34642e-07
6.5503e-07
6.61448e-07
6.57402e-07
6.46722e-07
6.33247e-07
6.20631e-07
6.12227e-07
6.11046e-07
6.19731e-07
6.40535e-07
6.75379e-07
7.25978e-07
7.94017e-07
8.81271e-07
9.89801e-07
1.12214e-06
1.28149e-06
1.47192e-06
1.69864e-06
1.9683e-06
2.28941e-06
2.67281e-06
3.13233e-06
3.68556e-06
4.35483e-06
5.16845e-06
6.16221e-06
7.38119e-06
8.88181e-06
1.0734e-05
1.30234e-05
1.58526e-05
1.93416e-05
2.36252e-05
2.8846e-05
3.51388e-05
4.26039e-05
5.12675e-05
6.10357e-05
7.16606e-05
8.27112e-05
9.36016e-05
0.000103684
0.000112347
0.000119094
0.000123579
0.000125549
0.000125108
0.000122234
0.000116918
0.000109233
9.93793e-05
8.7706e-05
7.47195e-05
6.10645e-05
4.74777e-05
3.47162e-05
2.34733e-05
1.42957e-05
7.51171e-06
3.16344e-06
9.37353e-07
1.5453e-07
1.0071e-08
1.79756e-09
5.72363e-12
3.17683e-11
5.43189e-10
3.86105e-09
1.59617e-08
4.70289e-08
1.09459e-07
2.13061e-07
3.59283e-07
5.37977e-07
7.29825e-07
9.12754e-07
1.06869e-06
1.18708e-06
1.26479e-06
1.30444e-06
1.31229e-06
1.29639e-06
1.26532e-06
1.22743e-06
1.19033e-06
1.1607e-06
1.1442e-06
1.14544e-06
1.16809e-06
1.21501e-06
1.28855e-06
1.39078e-06
1.52391e-06
1.69055e-06
1.89414e-06
2.13929e-06
2.43214e-06
2.78084e-06
3.19602e-06
3.69145e-06
4.28486e-06
4.99892e-06
5.8626e-06
6.91273e-06
8.19601e-06
9.77143e-06
1.1713e-05
1.41126e-05
1.70829e-05
2.0759e-05
2.52984e-05
3.08771e-05
3.7679e-05
4.58754e-05
5.55925e-05
6.68662e-05
7.95914e-05
9.34826e-05
0.000108067
0.000122708
0.000136694
0.000149334
0.000160033
0.000168313
0.000173818
0.000176291
0.000175782
0.000172152
0.000165261
0.000155065
0.000141702
0.000125554
0.000107286
8.78297e-05
6.83113e-05
4.99157e-05
3.37221e-05
2.055e-05
1.08467e-05
4.62038e-06
1.39736e-06
2.37292e-07
1.69989e-08
4.17988e-09
4.60057e-12
4.67573e-11
8.61869e-10
6.15281e-09
2.55288e-08
7.57412e-08
1.78314e-07
3.5268e-07
6.06278e-07
9.26787e-07
1.28205e-06
1.62964e-06
1.93054e-06
2.15923e-06
2.30639e-06
2.37607e-06
2.38082e-06
2.33717e-06
2.26252e-06
2.17331e-06
2.08402e-06
2.00682e-06
1.95149e-06
1.92555e-06
1.93454e-06
1.9824e-06
2.07195e-06
2.20552e-06
2.3855e-06
2.61495e-06
2.89826e-06
3.24166e-06
3.65384e-06
4.14661e-06
4.73562e-06
5.44132e-06
6.2901e-06
7.31583e-06
8.56176e-06
1.00828e-05
1.19485e-05
1.42461e-05
1.7084e-05
2.05953e-05
2.49397e-05
3.03031e-05
3.68942e-05
4.49311e-05
5.46201e-05
6.61211e-05
7.95009e-05
9.46846e-05
0.000111416
0.000129251
0.000147588
0.000165735
0.000182994
0.000198717
0.000212332
0.000223311
0.000231066
0.00023548
0.00023645
0.000233617
0.000226557
0.000214922
0.000198588
0.000177803
0.000153305
0.000126368
9.8707e-05
7.22483e-05
4.87965e-05
2.97131e-05
1.57016e-05
6.7328e-06
2.06799e-06
3.60671e-07
2.82552e-08
8.60169e-09
2.59026e-12
6.94749e-11
1.34824e-09
9.64728e-09
4.00798e-08