/*--------------------------------*- C++ -*----------------------------------*\
| =========                 |                                                 |
| \\      /  F ield         | OpenFOAM: The Open Source CFD Toolbox           |
|  \\    /   O peration     | Version:  v2012                                 |
|   \\  /    A nd           | Website:  www.openfoam.com                      |
|    \\/     M anipulation  |                                                 |
\*---------------------------------------------------------------------------*/
FoamFile
{
    version     2.0;
    format      ascii;
    class       volScalarField;
    location    "2000";
    object      omega;
}
// * * * * * * * * * * * * * * * * * * * * * * * * * * * * * * * * * * * * * //

dimensions      [0 0 -1 0 0 0 0];


internalField   nonuniform List<scalar> 
6502
(
1248.07
160.998
56.7856
45.4131
43.9854
43.9844
45.4082
56.7664
160.928
1248.07
1245.78
238.492
74.8559
46.4911
41.802
41.7958
46.4625
74.7608
238.288
1245.79
1244.61
271.825
89.9372
48.8992
40.5408
40.5223
48.8229
89.7286
271.472
1244.61
1243.88
283.386
100.36
51.5282
39.917
39.877
51.378
100.002
282.842
1243.89
1243.4
282.944
106.166
53.7121
39.6554
39.5841
53.4665
105.636
282.209
1243.41
1243.1
275.768
108.071
55.0979
39.5319
39.4191
54.7365
107.358
274.789
1243.11
1242.91
266.18
107.266
55.692
39.4112
39.2444
55.1855
106.33
264.867
1242.92
1242.79
257.033
105.065
55.6828
39.2353
39.0013
54.999
103.83
255.252
1242.81
1242.71
249.257
102.338
55.2524
38.985
38.6685
54.3534
100.728
246.951
1242.74
1242.66
243.06
99.5782
54.5728
38.6605
38.2457
53.407
97.4803
240.011
1242.69
1242.63
238.632
97.1356
53.7629
38.281
37.7434
52.2737
94.3606
234.522
1242.66
1242.6
235.64
95.1331
52.946
37.8755
37.1784
51.0201
91.4749
230.173
1242.64
1242.57
233.808
93.6572
52.2152
37.4663
36.5833
49.6884
88.81
226.586
1242.63
1242.55
232.942
92.7164
51.6343
37.08
35.9898
48.2986
86.3378
223.738
1242.63
1242.53
232.822
92.2402
51.2423
36.7435
35.4112
46.9949
84.1139
222.061
1242.63
1242.51
233.298
92.2381
51.0855
36.4763
34.8613
45.7972
82.2576
220.629
1242.63
1242.49
234.238
92.6991
51.1916
36.3111
34.3536
44.6776
80.5652
219.163
1242.65
1242.47
235.569
93.6172
51.5901
36.286
33.903
43.6066
78.882
217.418
1242.67
1242.44
237.188
94.9676
52.3076
36.4371
33.5274
42.5565
77.0536
215.068
1242.71
1242.42
238.957
96.695
53.3647
36.8035
33.2468
41.4977
74.8265
210.654
1242.74
1242.39
240.659
98.708
54.7648
37.4089
33.0789
40.313
70.297
168.468
462.711
1242.36
242.004
100.839
56.4586
38.2727
33.0509
39.0317
64.6906
132.889
241.415
1242.34
242.85
102.911
58.3661
39.3835
33.1804
37.7321
58.953
106.836
155.522
1242.32
243.171
104.768
60.3909
40.7114
33.4864
36.5008
53.5254
87.4598
112.64
1242.3
242.956
106.287
62.4378
42.2289
33.9859
35.4157
48.5524
72.891
88.1076
1242.28
242.254
107.38
64.4112
43.8964
34.6853
34.5428
44.2042
61.9384
72.5564
1242.27
241.108
107.975
66.2106
45.6612
35.5859
33.9336
40.6506
53.6108
61.8045
1242.26
239.553
108.004
67.729
47.4584
36.7182
33.6353
37.8357
47.2211
53.8586
1242.25
237.624
107.414
68.8534
49.1915
38.0144
33.6655
35.7091
42.2917
47.7151
1242.24
235.388
106.178
69.4764
50.7575
39.421
34.019
34.2173
38.5158
42.8271
1242.24
232.922
104.303
69.5001
52.0398
40.8611
34.6637
33.3032
35.6793
38.9048
1242.24
230.326
101.841
68.8445
52.9104
42.2322
35.5387
32.9063
33.6556
35.7925
1242.24
227.959
98.9336
67.4696
53.2419
43.4097
36.5565
32.9555
32.3417
33.4072
1242.24
225.572
95.6583
65.3654
52.9158
44.25
37.5982
33.355
31.6336
31.6789
1242.24
222.96
92.0869
62.5662
51.8381
44.5998
38.5174
33.9832
31.4264
30.5597
1242.24
220.167
88.3402
59.1783
49.9651
44.3133
39.1467
34.6901
31.6003
29.9733
1242.24
218.28
84.9625
55.4749
47.3471
43.2793
39.3113
35.2994
32.0057
29.8251
1242.24
217.503
82.2501
51.7473
44.1195
41.4458
38.8501
35.6202
32.4673
29.9887
1242.24
216.006
79.5837
48.0686
40.4522
38.8356
37.6376
35.4629
32.788
30.3041
1242.24
214.707
77.1633
44.6362
36.5953
35.575
35.6161
34.6622
32.7602
30.5784
1242.24
214.5
75.6677
41.7876
32.8629
31.8944
32.8293
33.1079
32.191
30.5983
1242.24
214.38
74.5412
39.4094
29.4562
28.067
29.4215
30.7577
30.9262
30.1496
1242.24
214.216
73.6395
37.5964
26.5303
24.3579
25.5022
27.5447
28.8443
29.0363
1242.24
214.049
73.3105
36.3929
24.2221
21.0877
21.6612
23.733
25.9283
27.1517
1242.24
214.026
73.1383
35.6705
22.6725
18.4422
18.2885
19.9913
22.3755
24.5034
1242.24
213.989
72.9844
35.2774
21.6419
16.5384
15.5475
16.6003
18.7807
21.1712
1242.24
214.009
72.9075
35.0331
20.9686
15.2298
13.3389
13.7068
15.4234
17.7202
1242.24
214.031
72.8264
34.8261
20.5078
14.3553
11.872
11.4561
12.554
14.4705
1242.24
213.48
72.4519
34.5229
20.1356
13.7656
10.9387
10.021
10.369
11.7258
1242.24
207.46
71.2579
34.0371
19.804
13.4028
10.4221
9.20883
9.04307
9.74013
1242.24
205.773
70.6433
33.6371
19.5289
13.25
10.316
9.00329
8.59148
8.75478
1242.24
205.359
70.2638
33.3265
19.3905
13.3358
10.5964
9.37767
8.89433
8.81706
1242.24
205.265
70.0206
33.1671
19.4998
13.7909
11.3584
10.3422
9.92664
9.76499
1242.24
206.178
70.1564
33.3358
20.0534
14.8196
12.7918
12.0541
11.7904
11.6598
1242.24
212.545
71.2746
34.1465
21.4205
16.8227
15.2912
14.8918
14.8426
14.8294
1242.24
212.986
72.0844
35.9951
24.4453
20.7559
19.8182
19.8031
20.024
20.2129
1242.24
213.565
74.6372
41.2797
31.8689
29.4301
29.156
29.5341
30.0569
30.5281
1242.24
216.962
86.1525
59.702
53.9319
53.0172
53.3427
54.0152
54.7796
55.5307
1242.24
253
156.809
144.746
143.377
143.585
144.108
144.759
145.488
146.262
1242.24
814.073
814.073
814.073
814.073
814.073
814.073
814.073
814.074
814.074
781.435
781.399
781.395
781.39
781.387
781.386
781.384
781.384
781.383
781.383
781.383
781.383
781.383
781.383
781.383
781.383
781.383
781.383
781.383
781.383
781.383
781.383
781.383
781.383
1078.91
226.598
149.934
131.258
127.104
126.3
126.438
126.797
127.167
127.498
127.866
128.759
132.686
133.295
133.477
133.616
133.77
133.955
134.173
134.433
134.814
135.787
138.776
155.159
269.21
1376.44
124.079
72.2695
51.0795
44.6646
42.434
41.8258
41.8251
42.0344
42.305
42.6112
43.029
43.6862
43.9915
44.1829
44.3704
44.5978
44.8926
45.2919
45.8974
47.0459
49.9092
58.6707
90.1615
231.188
1376.44
89.2144
53.2551
32.6277
24.4149
21.0639
19.772
19.3668
19.337
19.4584
19.6404
19.8573
20.0967
20.298
20.4953
20.7282
21.0347
21.4663
22.1225
23.2381
25.4238
30.3739
43.159
81.1433
228.845
1376.44
72.6577
47.0188
27.4888
18.0945
14.0709
12.2862
11.5805
11.3788
11.4067
11.5383
11.7195
11.9287
12.158
12.4206
12.742
13.1634
13.7597
14.682
16.258
19.2443
25.5155
40.2663
81.2128
236.967
1376.44
62.9333
44.3732
27.0138
16.7687
11.8258
9.63028
8.70108
8.40484
8.41639
8.57863
8.82195
9.11722
9.45596
9.84407
10.3012
10.8689
11.6311
12.76
14.618
18.0022
24.805
40.1594
81.6084
237.455
1376.44
56.2791
42.8756
28.3535
17.3761
11.6639
8.9235
7.78591
7.44357
7.48178
7.71943
8.07013
8.49549
8.98121
9.52777
10.1499
10.8845
11.8118
13.1003
15.1087
18.6275
25.5326
40.9209
82.2849
237.889
1376.44
51.1734
41.7287
29.8986
19.2707
12.5778
9.23256
7.7758
7.35451
7.41948
7.73744
8.19992
8.75858
9.39462
10.1061
10.9054
11.8249
12.9359
14.3917
16.5266
20.0996
26.9536
42.1635
83.2201
238.388
1376.44
46.9129
40.5666
31.2343
21.7131
14.1377
10.091
8.23653
7.63528
7.70654
8.08128
8.63377
9.30515
10.0734
10.9375
11.9134
13.0322
14.3603
16.0353
18.3598
22.0432
28.869
43.8691
84.5388
239.17
1376.44
43.192
39.2376
32.1818
23.9664
16.4576
11.4067
8.97971
8.11172
8.11522
8.49602
9.09511
9.84452
10.714
11.7053
12.8394
14.1577
15.7298
17.6862
20.3038
24.2347
31.1731
46.0517
86.3143
240.253
1376.44
39.8743
37.6858
32.6504
25.9097
18.9623
13.2599
9.9923
8.67401
8.49011
8.82459
9.43916
10.2256
11.1582
12.2366
13.4932
14.9868
16.8028
19.0785
22.0835
26.4257
33.6949
48.6587
88.5891
241.669
1376.44
36.9233
35.9463
32.6155
27.3973
21.3062
15.6126
11.4049
9.37026
8.78311
8.9971
9.57502
10.3721
11.3277
12.4453
13.7728
15.386
17.4085
19.9928
23.4285
28.3139
36.1549
51.5186
91.368
243.587
1376.44
34.3567
34.1008
32.0978
28.3371
23.324
18.0043
13.4479
10.4293
9.21293
9.10506
9.53271
10.2571
11.1859
12.3017
13.6426
15.3175
17.461
20.2807
24.1133
29.5915
38.1906
54.3001
94.4681
245.976
1376.44
32.2165
32.2689
31.1933
28.693
24.8602
20.2441
15.713
12.1341
9.99292
9.26713
9.40305
9.94383
10.7508
11.7973
13.0895
14.7351
16.9126
19.8786
24.0048
30.0216
39.4469
56.5758
97.5307
248.685
1376.44
30.5454
30.5776
30.042
28.5145
25.8162
22.1217
17.9953
14.2067
11.4075
9.85168
9.39102
9.59937
10.1643
11.022
12.207
13.7466
15.8491
18.8096
23.0928
29.5022
39.678
57.9399
100.079
251.403
1376.44
29.3617
29.1448
28.8098
27.9236
26.173
23.4674
20.0401
16.4354
13.2927
11.0633
9.85217
9.49954
9.67294
10.2244
11.154
12.5184
14.443
17.262
21.5039
28.0827
38.8054
58.1227
101.612
253.517
1376.44
28.6547
28.0604
27.6639
27.096
26.0188
24.199
21.6166
18.5326
15.4317
12.8103
10.9657
9.93226
9.58141
9.68171
10.2242
11.2758
12.9116
15.4397
19.4384
25.9278
36.9113
57.0704
101.736
252.72
1376.45
28.3683
27.365
26.7384
26.2203
25.5187
24.3634
22.588
20.2195
17.5111
14.8626
12.6427
11.0508
10.1045
9.7296
9.77374
10.2867
11.5342
13.6192
17.1658
23.2774
34.2079
54.9946
100.958
251.276
1376.46
28.4096
27.0481
26.1215
25.4656
24.8729
24.1093
22.9622
21.3161
19.2199
16.8852
14.6282
12.7202
11.3088
10.4264
10.0481
10.0874
10.6823
12.1218
15.0218
20.4147
30.9083
52.0742
99.8043
252.65
1376.46
28.6385
27.0453
25.836
24.952
24.2775
23.6478
22.8771
21.8025
20.3436
18.5448
16.5673
14.6529
13.0069
11.7577
10.9681
10.6282
10.732
11.5087
13.422
17.6858
27.1666
48.2734
98.2238
257.512
1376.47
28.8731
27.2371
25.8415
24.7255
23.8711
23.1893
22.5524
21.8172
20.8585
19.6148
18.1197
16.4909
14.8896
13.4967
12.4404
11.7943
11.5262
11.7585
12.9225
15.8971
23.3381
43.5282
95.5716
259.853
1376.49
28.8978
27.4522
26.0311
24.7771
23.7223
22.8927
22.2118
21.5887
20.9137
20.0893
19.0696
17.8792
16.6094
15.3712
14.2653
13.4163
12.8708
12.7364
13.2507
15.2611
20.9414
37.8457
91.6949
264.05
1376.52
28.4798
27.4665
26.2345
24.9811
23.8256
22.8282
22.0163
21.3429
20.7435
20.1351
19.448
18.6501
17.7616
16.8416
15.9348
15.1039
14.4492
14.0874
14.2035
15.335
19.3064
32.384
82.2026
264.357
1376.56
27.4311
27.0524
26.2311
25.1741
24.0554
22.9884
22.0438
21.2474
20.5817
20.0044
19.459
18.8991
18.3051
17.6905
17.0667
16.4335
15.8573
15.442
15.3355
15.8395
17.9622
25.0733
49.6751
125.04
306.058
25.6368
26.0153
25.793
25.1422
24.2431
23.2477
22.2626
21.3669
20.5931
19.9293
19.3668
18.8739
18.4223
18.0014
17.6055
17.2058
16.8092
16.477
16.3048
16.4492
17.2552
19.8464
27.2194
45.2577
83.0765
23.084
24.2358
24.7211
24.6491
24.1627
23.4152
22.538
21.6336
20.7858
20.0196
19.3657
18.8136
18.3574
17.9855
17.6877
17.4361
17.2007
16.9957
16.8672
16.8922
17.1999
18.0445
20.0498
24.6086
32.896
19.9253
21.7327
22.9137
23.5037
23.5799
23.2566
22.6603
21.9022
21.0887
20.2883
19.5491
18.9053
18.354
17.9096
17.5746
17.3354
17.1601
17.0297
16.9532
16.96
17.1015
17.4608
18.1773
19.4448
21.3318
16.6312
18.6944
20.4242
21.6329
22.3244
22.5479
22.3909
21.9495
21.326
20.611
19.8735
19.1709
18.5324
17.9896
17.5371
17.1934
16.9531
16.7944
16.7033
16.6821
16.7448
16.9165
17.2369
17.7519
18.4713
13.5624
15.5618
17.4866
19.1336
20.3678
21.1602
21.5322
21.5411
21.2637
20.7855
20.1836
19.5281
18.8711
18.2563
17.7059
17.2462
16.8759
16.5895
16.3911
16.2725
16.2335
16.2744
16.4029
16.6284
16.9496
11.0713
12.7382
14.5528
16.3199
17.8866
19.1442
20.0244
20.5309
20.7
20.5897
20.2659
19.7961
19.2404
18.6507
18.068
17.5146
17.0397
16.6349
16.3037
16.034
15.8398
15.7219
15.6777
15.7074
15.8048
9.47213
10.6214
12.0662
13.6565
15.2474
16.7252
18.0047
18.9582
19.5811
19.8979
19.9494
19.7859
19.4605
19.0238
18.5243
17.9955
17.4737
16.9817
16.5219
16.135
15.8123
15.5399
15.3169
15.1508
15.0508
9.05063
9.56356
10.4566
11.624
12.9559
14.3515
15.7324
17.0368
18.0467
18.7647
19.21
19.411
19.404
19.2286
18.9262
18.5349
18.0862
17.6134
17.1336
16.6684
16.223
15.8121
15.4589
15.1558
14.8975
9.74032
9.84677
10.1469
10.7047
11.5329
12.5858
13.7829
15.0626
16.2653
17.2689
18.0521
18.6102
18.9527
19.0996
19.0779
18.9187
18.6512
18.305
17.9061
17.4735
17.0257
16.5768
16.1428
15.7246
15.334
11.539
11.412
11.306
11.2824
11.4766
11.9954
12.7682
13.7185
14.7425
15.7415
16.6485
17.42
18.0311
18.473
18.7487
18.8715
18.8598
18.7343
18.5174
18.2292
17.8889
17.5126
17.1132
16.7027
16.2937
14.7299
14.5238
14.2156
13.836
13.4445
13.1433
13.2152
13.5989
14.1954
14.9149
15.6787
16.4253
17.1078
17.6933
18.1625
18.5081
18.7317
18.8402
18.8451
18.7599
18.5992
18.3775
18.1075
17.8019
17.4733
20.2558
20.1186
19.7846
19.2462
18.5206
17.6751
16.8022
16.2053
16.0129
16.1404
16.4653
16.8999
17.3792
17.8558
18.297
18.6818
18.9973
19.2361
19.3952
19.4765
19.4863
19.4332
19.3263
19.1746
18.9883
30.8447
30.9531
30.8135
30.3767
29.5921
28.4749
27.124
25.5944
24.0592
23.1408
22.6259
22.3792
22.3001
22.3233
22.4036
22.5166
22.6495
22.7844
22.9037
22.9968
23.062
23.1007
23.1146
23.1064
23.0812
56.1893
56.6951
57.0073
57.0433
56.6634
55.7346
54.3311
52.5847
50.4211
47.8907
46.1251
44.9654
44.0601
43.3146
42.6715
42.1227
41.7292
41.4558
41.2618
41.1251
41.0486
41.036
41.0802
41.1733
41.3118
147.045
147.795
148.519
149.196
149.662
149.48
148.588
147.324
145.554
143.372
141.127
138.994
137.38
136.212
135.098
134.068
133.216
132.577
132.061
131.622
131.32
131.197
131.216
131.348
131.59
814.074
814.075
814.076
814.077
814.078
814.08
814.081
814.083
814.085
814.086
814.087
814.088
814.088
814.087
814.086
814.084
814.081
814.079
814.077
814.076
814.076
814.079
814.082
814.087
814.093
814.133
814.107
814.094
125.8
130.752
123.121
41.6097
45.2884
44.2832
23.3452
24.9948
25.796
19.2446
20.0058
20.614
17.3053
17.6928
18.0722
15.9411
16.1135
16.3095
15.0061
14.9995
15.0255
14.6988
14.5277
14.3824
15.0176
14.7375
14.486
15.9374
15.597
15.269
17.168
16.8585
16.5461
18.7998
18.5971
18.3827
23.0492
23.0115
22.971
41.4769
41.6721
41.9001
131.907
132.286
132.729
814.1
814.107
814.114
1052.53
781.383
781.383
781.383
781.383
781.383
781.383
781.383
781.383
781.383
781.383
781.383
781.383
781.383
781.383
781.383
781.383
781.383
781.383
781.383
781.383
781.383
781.383
781.383
781.383
781.383
781.383
781.383
781.383
781.383
781.383
781.383
781.383
781.383
781.383
781.383
781.383
781.383
781.383
781.383
781.383
781.383
781.383
781.383
781.383
781.383
781.383
781.383
781.383
781.384
781.384
781.384
781.385
781.385
781.386
781.387
781.387
781.388
781.389
781.389
781.39
781.39
781.39
781.39
781.389
781.389
781.388
781.387
781.386
781.385
781.384
781.384
781.383
781.383
781.383
781.383
781.383
781.383
781.383
1052.53
1323.67
261.774
153.288
137.969
135.411
134.894
134.765
134.727
134.715
134.713
134.715
134.718
134.723
134.727
134.731
134.737
134.748
134.776
134.845
135.114
135.796
134.61
134.958
134.954
135.419
135.923
135.301
129.752
134.01
134.687
134.876
134.958
134.982
135.042
135.13
135.196
135.211
135.239
135.8
136.341
136.459
136.59
136.803
137.078
137.387
137.694
137.868
137.27
134.61
133.985
134.004
134.162
134.305
134.362
134.315
134.145
133.836
133.376
132.758
131.985
131.071
130.049
129.015
128.72
129.068
130.978
131.754
131.496
131.226
131.081
131.095
131.28
131.642
132.18
132.924
134.123
137.34
153.126
261.97
1323.67
1323.67
231.074
89.0524
57.9471
49.6538
47.1791
46.3638
46.0688
45.9533
45.9062
45.8876
45.8822
45.8828
45.8859
45.8898
45.8948
45.9009
45.9069
45.9065
45.898
45.9759
45.9527
45.9681
45.9303
45.9526
46.0286
46.0369
45.3779
45.8488
46.1044
46.2622
46.3862
46.4996
46.6348
46.7964
46.9763
47.1756
47.4198
47.7881
48.19
48.5381
48.891
49.2736
49.6806
50.0922
50.4733
50.7593
50.8463
50.7088
50.7646
50.8743
50.9299
50.8768
50.6851
50.3397
49.8324
49.1631
48.3394
47.3783
46.31
45.185
44.0854
43.3779
42.8669
42.5156
42.3187
42.0688
41.8011
41.6384
41.6304
41.8057
42.1928
42.8376
43.8465
45.5334
48.9564
58.0707
89.5162
231.23
1323.67
1323.67
228.712
79.9683
42.3149
29.8791
25.2285
23.3513
22.5461
22.1821
22.0105
21.9275
21.8878
21.8699
21.8631
21.8624
21.8652
21.8695
21.8725
21.869
21.856
21.8643
21.8931
21.9284
21.9447
21.9643
22.0094
22.0763
22.0564
22.1893
22.3368
22.4848
22.6398
22.8088
23.0023
23.2252
23.4782
23.763
24.0853
24.4566
24.8594
25.2716
25.6928
26.1194
26.539
26.9316
27.2714
27.5299
27.6857
27.7479
27.7608
27.6935
27.5135
27.2021
26.7518
26.1642
25.4498
24.6295
23.7329
22.799
21.8777
21.0329
20.3467
19.8804
19.5323
19.2829
19.1277
19.0574
19.0877
19.2438
19.547
20.0241
20.7227
21.7426
23.3135
26.0085
31.3916
44.2266
81.6754
229.595
1323.67
1323.67
228.451
78.4004
38.6589
24.2484
18.1553
15.3567
14.0012
13.318
12.9627
12.7738
12.6723
12.6183
12.5908
12.5787
12.5757
12.5781
12.5829
12.5875
12.5948
12.6127
12.6456
12.688
12.7311
12.7791
12.8427
12.9269
13.0137
13.1356
13.281
13.4461
13.6323
13.8427
14.0814
14.351
14.6523
14.9847
15.347
15.7367
16.1449
16.5586
16.9667
17.3561
17.7104
18.0114
18.2402
18.3811
18.4246
18.3694
18.2171
17.9589
17.5893
17.1101
16.5312
15.8695
15.1501
14.4073
13.6771
12.9981
12.4092
11.9498
11.6823
11.5385
11.4904
11.5373
11.6829
11.9326
12.2958
12.785
13.4178
14.2242
15.2635
16.6611
18.6979
22.0382
28.3745
42.5478
81.4685
230.16
1323.67
1323.67
228.393
78.0454
37.6569
22.4295
15.5695
12.1635
10.3729
9.39629
8.8498
8.53866
8.35996
8.25771
8.20067
8.17102
8.15847
8.15666
8.16252
8.17663
8.1986
8.22981
8.27207
8.32458
8.38546
8.45628
8.54147
8.64489
8.76517
8.90797
9.07401
9.26403
9.47955
9.72228
9.99366
10.294
10.622
10.9744
11.3458
11.729
12.1134
12.486
12.8329
13.1389
13.3886
13.5671
13.662
13.6642
13.5698
13.3788
13.094
12.7199
12.2658
11.7466
11.1826
10.5989
10.024
9.48808
9.01966
8.64222
8.37304
8.22702
8.21473
8.29967
8.47351
8.73905
9.10342
9.57641
10.1706
10.9024
11.7949
12.8845
14.236
15.9792
18.3959
22.146
28.9027
43.4452
82.5349
230.969
1323.67
1323.67
228.353
77.9132
37.3069
21.748
14.5136
10.7568
8.67522
7.47546
6.76739
6.34332
6.08784
5.93465
5.84479
5.7947
5.77071
5.76551
5.77473
5.79557
5.8269
5.86872
5.92166
5.98605
6.06215
6.15127
6.25587
6.37857
6.52087
6.68505
6.87272
7.08514
7.32328
7.58755
7.87742
8.19096
8.52446
8.87213
9.22601
9.57609
9.91047
10.2159
10.4785
10.685
10.8231
10.883
10.858
10.7456
10.5475
10.2693
9.92023
9.51316
9.06471
8.59498
8.1264
7.68231
7.28443
6.95235
6.70071
6.53849
6.46989
6.49698
6.61675
6.81543
7.09446
7.46184
7.92961
8.51338
9.23279
10.1127
11.1859
12.4985
14.1234
16.1922
18.977
23.1072
30.1947
44.9236
83.9396
231.917
1323.67
1323.67
228.307
77.8179
37.1273
21.4289
14.0148
10.0669
7.80703
6.45599
5.62753
5.11273
4.79156
4.59264
4.47257
4.40477
4.37241
4.36488
4.37584
4.40156
4.44014
4.49091
4.55399
4.62985
4.71928
4.82353
4.94435
5.08367
5.24315
5.42435
5.62844
5.85606
6.10717
6.38076
6.67453
6.98461
7.3053
7.62899
7.94624
8.24612
8.51668
8.74568
8.92147
9.03381
9.07481
9.03965
8.92721
8.74026
8.48554
8.17334
7.81719
7.43325
7.03964
6.65533
6.29867
5.98566
5.72917
5.53825
5.41748
5.36806
5.38943
5.48085
5.64131
5.86882
6.17039
6.55824
7.04904
7.6642
8.43085
9.38347
10.5666
12.04
13.8907
16.261
19.4228
23.9807
31.4819
46.4947
85.5155
233.062
1323.67
1323.67
228.255
77.7448
37.01
21.2402
13.7319
9.67738
7.31092
5.86276
4.95229
4.37258
4.00332
3.77094
3.62904
3.54805
3.50895
3.49955
3.51219
3.54227
3.5872
3.64582
3.7179
3.8038
3.9043
4.02049
4.15373
4.30544
4.47687
4.66897
4.8822
5.11632
5.37017
5.64143
5.92637
6.21969
6.51444
6.80212
7.07292
7.31623
7.52129
7.6779
7.77727
7.8128
7.78066
7.68039
7.51502
7.29114
7.0186
6.70993
6.37972
6.04366
5.71746
5.41562
5.1503
4.93045
4.76174
4.64667
4.5853
4.57662
4.61994
4.716
4.86751
5.07758
5.35595
5.7173
6.18143
6.77425
7.52942
8.49072
9.71544
11.2802
13.2921
15.9153
19.4374
24.4591
32.4786
47.9423
87.144
234.342
1323.67
1323.67
228.212
77.6712
36.9019
21.0884
13.5263
9.41114
6.98269
5.47685
4.51658
3.89672
3.49699
3.24298
3.08697
2.99788
2.95527
2.94582
2.96096
2.99541
3.04609
3.11147
3.19101
3.28489
3.3937
3.51831
3.65971
3.81885
3.99646
4.19286
4.40776
4.64006
4.88764
5.14717
5.41395
5.68188
5.9435
6.19025
6.41282
6.60174
6.74804
6.84393
6.88352
6.86338
6.78299
6.64494
6.45495
6.22164
5.95595
5.67049
5.37862
5.09348
4.82689
4.58853
4.38527
4.22112
4.09756
4.01429
3.97023
3.96471
3.9984
4.07501
4.19727
4.37017
4.60406
4.91415
5.32135
5.85399
6.5503
7.46191
8.65853
10.2351
12.3239
15.1201
18.9446
24.4197
33.0249
49.0999
88.6993
235.704
1323.67
1323.67
228.161
77.5853
36.7842
20.9388
13.3432
9.19338
6.731
5.19395
4.20706
3.56612
3.15095
2.88663
2.72469
2.63312
2.59067
2.5833
2.60191
2.64078
2.69652
2.76731
2.85242
2.95179
3.06582
3.19509
3.34025
3.50183
3.68004
3.87463
4.08468
4.30838
4.54294
4.78439
5.02756
5.26611
5.49268
5.69924
5.87748
6.01944
6.11806
6.1678
6.16523
6.10936
6.00194
5.84729
5.65224
5.42628
5.17994
4.92454
4.67121
4.43
4.20914
4.01451
3.84955
3.71553
3.61219
3.53857
3.49387
3.47831
3.49369
3.5462
3.63592
3.76809
3.95212
4.20194
4.53734
4.98627
5.5884
6.39996
7.50058
9.0028
11.0667
13.9269
17.9533
23.8171
33.0173
49.8244
90.0464
237.071
1323.67
1323.67
228.099
77.4837
36.6506
20.7783
13.1598
8.99035
6.51156
4.96152
3.96517
3.31817
2.89992
2.63497
2.47425
2.3852
2.34612
2.34263
2.36535
2.40839
2.46818
2.54278
2.63129
2.7335
2.84957
2.97985
3.12467
3.28419
3.45822
3.64605
3.84627
4.05666
4.27401
4.49412
4.71174
4.9207
5.11418
5.28496
5.42595
5.53069
5.59384
5.61172
5.58271
5.50747
5.38912
5.23265
5.04401
4.83412
4.61173
4.38631
4.16671
3.96032
3.7727
3.60733
3.46581
3.34828
3.2541
3.18255
3.1335
3.10792
3.10833
3.13988
3.20226
3.29945
3.43885
3.63178
3.89495
4.25309
4.7432
5.42091
6.37
7.71577
9.64461
12.4354
16.5222
22.6543
32.395
50.0002
91.0625
238.407
1323.68
1323.67
228.023
77.364
36.4974
20.6009
12.9661
8.78715
6.30434
4.75459
3.76167
3.12013
2.70845
2.45041
2.29643
2.21366
2.18021
2.18165
2.2086
2.25515
2.31773
2.39436
2.48405
2.58648
2.70165
2.82969
2.9707
3.12454
3.29074
3.46828
3.65549
3.8499
4.04824
4.24629
4.43906
4.62084
4.78547
4.92673
5.03868
5.11616
5.15522
5.1535
5.1105
5.02784
4.90958
4.75954
4.58525
4.39501
4.19694
3.99872
3.80724
3.62799
3.46483
3.31994
3.19414
3.08733
2.99903
2.929
2.87763
2.84636
2.83792
2.85575
2.89944
2.97159
3.07737
3.22501
3.42708
3.70306
4.08364
4.618
5.38549
6.51375
8.20601
10.7826
14.7527
20.973
31.1278
49.5309
91.6194
239.62
1323.68
1323.67
227.932
77.2238
36.3222
20.4037
12.7582
8.57799
6.10106
4.56203
3.5825
2.95517
2.55717
2.31144
2.16798
2.09383
2.06722
2.07387
2.1046
2.15367
2.21761
2.29447
2.38328
2.48363
2.59541
2.71861
2.85314
2.99871
3.15466
3.31982
3.49241
3.66997
3.84927
4.02638
4.19667
4.35503
4.49607
4.61446
4.70529
4.76443
4.78895
4.77732
4.7297
4.64803
4.53669
4.39907
4.24197
4.07247
3.89745
3.72321
3.55522
3.39771
3.25359
3.1245
3.01103
2.91321
2.83088
2.76417
2.71385
2.68159
2.67017
2.68141
2.71496
2.77234
2.85684
2.97382
3.13178
3.34437
3.63422
4.03983
4.62788
5.51466
6.90143
9.13173
12.787
18.8582
29.2114
48.3234
91.5738
240.589
1323.68
1323.67
227.833
77.0633
36.1237
20.1856
12.5353
8.36172
5.89949
4.37993
3.42165
2.81505
2.43568
2.20571
2.07491
2.01048
1.99096
2.00248
2.03619
2.08662
2.15051
2.226
2.31217
2.4086
2.51511
2.6316
2.75788
2.89357
3.03794
3.18982
3.34744
3.50846
3.66989
3.82814
3.97905
4.11814
4.24074
4.34232
4.41881
4.46689
4.4843
4.47006
4.42463
4.34989
4.24941
4.12707
3.98837
3.83931
3.68569
3.53275
3.38493
3.24566
3.11748
3.00196
2.89972
2.81095
2.73579
2.67464
2.62848
2.59907
2.58929
2.59967
2.63003
2.68124
2.75518
2.85502
2.98593
3.15654
3.38177
3.68843
4.12615
4.78896
5.85411
7.65261
10.8073
16.4497
26.6762
46.268
90.7265
241.155
1323.68
1323.67
227.722
76.881
35.9013
19.9471
12.2986
8.13984
5.70078
4.20836
3.27762
2.69641
2.33882
2.12646
2.00919
1.95461
1.94183
1.95751
1.99328
2.04399
2.10662
2.17948
2.2617
2.35291
2.4529
2.56154
2.67858
2.8036
2.93588
3.07436
3.21741
3.36287
3.50807
3.64978
3.78436
3.9079
4.0164
4.10603
4.17339
4.21577
4.23135
4.21942
4.18046
4.11614
4.02933
3.9236
3.80344
3.67404
3.54041
3.40693
3.27724
3.15392
3.03977
2.93732
2.84666
2.76803
2.70181
2.64865
2.60968
2.58671
2.5822
2.59611
2.62854
2.67999
2.75141
2.84444
2.96193
3.10888
3.29436
3.53519
3.86428
4.35031
5.13286
6.4873
9.01476
13.945
23.6164
43.281
88.7874
240.992
1323.69
1323.67
227.577
76.6667
35.6509
19.6872
12.0496
7.91534
5.50823
4.05
3.15185
2.59924
2.26518
2.07113
1.96741
1.92231
1.91568
1.93483
1.97189
2.02211
2.08268
2.15209
2.22957
2.3148
2.40759
2.50782
2.61527
2.72959
2.84957
2.97484
3.104
3.23495
3.3654
3.49251
3.61313
3.72387
3.82136
3.90239
3.9641
4.00423
4.02126
4.01454
3.98441
3.93216
3.86019
3.77138
3.66871
3.55756
3.44307
3.32847
3.21681
3.11061
3.01211
2.92306
2.8443
2.77642
2.72013
2.67637
2.64654
2.63273
2.63632
2.65754
2.69653
2.75345
2.82854
2.92238
3.03636
3.1734
3.33912
3.5442
3.80965
4.1791
4.74626
5.72058
7.5989
11.6218
20.2567
39.4318
85.6546
240.072
1323.69
1323.67
227.398
76.4112
35.3644
19.4029
11.7897
7.69235
5.32707
3.90995
3.04862
2.52679
2.21708
2.04142
1.95096
1.91497
1.91411
1.93638
1.97446
2.02395
2.08227
2.14799
2.22046
2.29944
2.38483
2.4765
2.57428
2.67774
2.78593
2.8985
3.01403
3.13105
3.24761
3.3613
3.46933
3.56881
3.65695
3.73112
3.78893
3.82845
3.84831
3.84779
3.82695
3.78605
3.72836
3.65634
3.57285
3.48169
3.38664
3.2909
3.19725
3.10806
3.0253
2.95052
2.88475
2.82882
2.78396
2.75168
2.73378
2.73271
2.7484
2.78072
2.83024
2.89697
2.98046
3.08033
3.19669
3.33096
3.48723
3.67264
3.90068
4.20024
4.63675
5.36544
6.76915
9.81526
16.9516
34.8245
81.0946
238.145
1323.7
1323.67
227.161
76.0898
35.0252
19.0871
11.5196
7.47666
5.1654
3.79686
2.97628
2.48687
2.20195
2.04464
1.96742
1.94067
1.9459
1.97147
2.01086
2.06021
2.11696
2.17963
2.24746
2.32025
2.39825
2.4817
2.57102
2.66501
2.76138
2.86054
2.96201
3.06484
3.16761
3.26843
3.36454
3.45312
3.53216
3.59966
3.65371
3.69255
3.71487
3.71956
3.70693
3.67804
3.63492
3.57973
3.5149
3.44309
3.36702
3.29003
3.21484
3.14362
3.07817
3.01988
2.96945
2.92629
2.89401
2.87612
2.87462
2.89188
2.92586
2.97582
3.04121
3.12142
3.21569
3.32332
3.4441
3.57916
3.73116
3.90546
4.11061
4.36544
4.71487
5.27155
6.33039
8.69008
14.5587
30.1167
74.4647
232.998
1323.7
1323.67
226.81
75.6483
34.5978
18.725
11.2398
7.27749
5.03677
3.72582
2.95017
2.49475
2.23507
2.0964
2.03299
2.01618
2.02902
2.06073
2.1047
2.15716
2.21553
2.27826
2.34446
2.41378
2.48616
2.56163
2.64008
2.72102
2.80382
2.88841
2.97458
3.06208
3.15065
3.24014
3.32608
3.40332
3.47227
3.53192
3.58106
3.6175
3.64004
3.6486
3.64348
3.62554
3.59618
3.55712
3.51012
3.4565
3.39606
3.3365
3.28025
3.22881
3.18355
3.14574
3.11646
3.09661
3.0882
3.09401
3.11734
3.15648
3.21032
3.27789
3.35821
3.45035
3.55347
3.667
3.79085
3.92604
4.07516
4.24231
4.43253
4.65727
4.94611
5.37761
6.17115
7.96709
12.7036
26.334
68.0734
223.715
1323.71
1323.67
226.188
74.9411
33.9948
18.2817
10.949
7.11131
4.96544
3.72397
2.99815
2.57826
2.34423
2.22467
2.17566
2.17103
2.19397
2.23434
2.28577
2.34442
2.40782
2.47437
2.543
2.6131
2.68427
2.75633
2.82911
2.90235
2.97577
3.04923
3.12256
3.19564
3.26822
3.33965
3.40791
3.4708
3.52799
3.57755
3.61827
3.64945
3.67049
3.68124
3.68195
3.6733
3.65635
3.63244
3.60304
3.56957
3.53343
3.49768
3.46472
3.4364
3.41429
3.39982
3.39437
3.39945
3.41709
3.45012
3.49881
3.55921
3.6306
3.71218
3.80312
3.90264
4.01012
4.12523
4.24827
4.38089
4.52675
4.68854
4.86788
5.07096
5.3164
5.65599
6.24375
7.56379
11.2249
22.7835
62.0137
217.64
1323.71
1323.67
224.352
73.3664
32.9375
17.6638
10.6422
7.01019
4.99711
3.84084
3.17002
2.7864
2.57707
2.4753
2.44054
2.44755
2.4809
2.531
2.59174
2.65922
2.73089
2.80502
2.88034
2.95597
3.03131
3.10592
3.17949
3.2517
3.32227
3.39086
3.45717
3.52112
3.58266
3.64171
3.69717
3.74729
3.79201
3.8307
3.86284
3.88806
3.90619
3.91728
3.92166
3.91995
3.91301
3.90193
3.88795
3.87239
3.85668
3.84259
3.83183
3.82601
3.82667
3.83525
3.85336
3.88294
3.92696
3.98444
4.05012
4.12364
4.20457
4.29238
4.38658
4.48668
4.59237
4.70376
4.82174
4.94907
5.09106
5.24798
5.41701
5.60177
5.81382
6.08546
6.51544
7.43647
10.0616
19.1378
54.2028
207.97
1323.69
1323.68
209.582
67.6428
30.4668
16.64
10.3182
7.0434
5.2198
4.16672
3.55295
3.20102
3.01156
2.92211
2.89591
2.91007
2.95043
3.00804
3.07703
3.15326
3.23383
3.31682
3.40084
3.48478
3.56781
3.64929
3.72868
3.80555
3.87967
3.95033
4.01647
4.07823
4.13557
4.18838
4.23634
4.279
4.31626
4.34804
4.37431
4.39518
4.41085
4.42168
4.42818
4.43101
4.43101
4.42914
4.42648
4.42421
4.42358
4.42585
4.43228
4.44425
4.46351
4.49136
4.53013
4.58221
4.64229
4.70721
4.77714
4.85207
4.93189
5.01634
5.10516
5.19815
5.29544
5.39786
5.50749
5.62925
5.76775
5.91528
6.06966
6.2342
6.41659
6.63586
6.94627
7.53429
9.14793
15.1415
42.23
185.891
1323.71
267.871
98.9412
45.5033
24.565
14.9884
10.0881
7.3774
5.79559
4.85034
4.28155
3.94995
3.76414
3.67181
3.64033
3.64936
3.6863
3.7429
3.81344
3.89289
3.97745
4.06517
4.15467
4.2447
4.33418
4.42221
4.50801
4.59089
4.67013
4.74496
4.81469
4.87896
4.93752
4.99026
5.03709
5.07797
5.11302
5.14242
5.16645
5.18553
5.20013
5.21087
5.21843
5.22359
5.22721
5.23025
5.23376
5.23906
5.24737
5.25961
5.27668
5.29998
5.33388
5.37689
5.42592
5.47721
5.53173
5.58975
5.6514
5.71673
5.78569
5.85812
5.93384
6.01305
6.09674
6.18791
6.29195
6.41017
6.53454
6.66116
6.79116
6.92729
7.07467
7.24384
7.45956
7.79317
8.49779
10.6088
18.7172
54.6628
239.252
80.6379
48.4825
30.1087
19.8794
14.0198
10.5186
8.35329
6.96613
6.1063
5.55949
5.21322
4.99851
4.87339
4.81079
4.79257
4.80683
4.84496
4.89917
4.96476
5.03863
5.11871
5.20314
5.29023
5.37849
5.46664
5.55365
5.63871
5.72057
5.79808
5.87038
5.93683
5.99707
6.05088
6.09821
6.1391
6.17373
6.20237
6.22538
6.24328
6.25671
6.26643
6.27324
6.27801
6.28166
6.28513
6.28964
6.29772
6.31082
6.3288
6.35164
6.37886
6.40679
6.43656
6.46893
6.50405
6.54206
6.58306
6.62711
6.6744
6.72497
6.77837
6.83526
6.89767
6.97032
7.05474
7.14256
7.23323
7.32408
7.4152
7.50751
7.60281
7.70427
7.81749
7.95283
8.13238
8.41578
9.00083
10.6147
15.9423
33.8707
37.4454
29.818
23.2452
18.2988
14.7341
12.1388
10.3563
9.1123
8.24316
7.63223
7.20304
6.90402
6.70023
6.56751
6.48684
6.44512
6.43279
6.44261
6.46952
6.5109
6.56417
6.62692
6.69653
6.77064
6.84728
6.92522
7.00449
7.0818
7.1552
7.22352
7.28606
7.3424
7.39236
7.43587
7.47295
7.50379
7.52841
7.54708
7.56039
7.56911
7.57411