/*--------------------------------*- C++ -*----------------------------------*\
| =========                 |                                                 |
| \\      /  F ield         | OpenFOAM: The Open Source CFD Toolbox           |
|  \\    /   O peration     | Version:  v2012                                 |
|   \\  /    A nd           | Website:  www.openfoam.com                      |
|    \\/     M anipulation  |                                                 |
\*---------------------------------------------------------------------------*/
FoamFile
{
    version     2.0;
    format      ascii;
    class       volScalarField;
    location    "2000";
    object      p;
}
// * * * * * * * * * * * * * * * * * * * * * * * * * * * * * * * * * * * * * //

dimensions      [0 2 -2 0 0 0 0];


internalField   nonuniform List<scalar> 
6502
(
1.41896
1.31071
1.25547
1.23161
1.22121
1.22106
1.23115
1.25475
1.30976
1.41781
1.28312
1.24818
1.23326
1.21935
1.21096
1.21079
1.21885
1.23244
1.24709
1.28187
1.20063
1.19363
1.1914
1.18666
1.18275
1.18255
1.18607
1.19044
1.1923
1.1991
1.15297
1.15204
1.15127
1.1497
1.14796
1.1477
1.14895
1.15007
1.1504
1.15103
1.10837
1.1105
1.11325
1.11436
1.11369
1.11336
1.1134
1.11174
1.10838
1.10589
1.06581
1.07059
1.07698
1.0801
1.08029
1.07984
1.07876
1.07479
1.06769
1.0626
1.03131
1.03711
1.04534
1.04814
1.04844
1.04781
1.04628
1.04231
1.03324
1.02712
1.00409
1.00957
1.01714
1.01904
1.01918
1.01837
1.01665
1.01335
1.0045
0.998567
0.981106
0.985492
0.990755
0.992361
0.992428
0.991366
0.989227
0.985788
0.978795
0.973816
0.960707
0.963832
0.967144
0.96801
0.967788
0.966423
0.963931
0.960352
0.954956
0.95115
0.942148
0.944289
0.946493
0.946843
0.945549
0.943521
0.940818
0.937205
0.932613
0.929742
0.925146
0.926528
0.927766
0.927838
0.925368
0.922605
0.919801
0.915645
0.911282
0.909025
0.909427
0.910229
0.910328
0.909327
0.9062
0.902832
0.899629
0.894635
0.890351
0.888478
0.894852
0.895233
0.894342
0.892015
0.887969
0.883576
0.879318
0.87363
0.869337
0.867658
0.881485
0.881607
0.879844
0.876153
0.870663
0.864896
0.859168
0.852579
0.847898
0.846217
0.869453
0.869403
0.866829
0.861841
0.854877
0.847181
0.83946
0.831344
0.825693
0.823726
0.858933
0.858808
0.85547
0.849002
0.840584
0.830486
0.820165
0.80963
0.802182
0.799609
0.850106
0.849944
0.845992
0.837865
0.827349
0.814739
0.801337
0.787271
0.776744
0.77291
0.843186
0.843047
0.838634
0.8289
0.81598
0.800552
0.783674
0.764806
0.748982
0.742615
0.838381
0.83834
0.833683
0.822711
0.807721
0.789751
0.768901
0.744234
0.719188
0.705491
0.835872
0.835953
0.831352
0.819666
0.803085
0.783058
0.759558
0.731804
0.70104
0.679459
0.835786
0.835999
0.831774
0.819975
0.802707
0.781833
0.758767
0.734212
0.711435
0.699341
0.838023
0.838504
0.834898
0.823548
0.806526
0.78599
0.763902
0.741816
0.722791
0.711802
0.842348
0.843226
0.840312
0.829601
0.812883
0.792353
0.769849
0.747435
0.727127
0.713984
0.848492
0.849747
0.847494
0.83742
0.820795
0.799857
0.776136
0.753114
0.731411
0.716687
0.85612
0.857684
0.856075
0.846742
0.830286
0.808983
0.784688
0.761059
0.73818
0.721711
0.864871
0.866679
0.865723
0.857319
0.841263
0.819639
0.795311
0.770733
0.746239
0.727517
0.874382
0.876367
0.876062
0.868792
0.853627
0.832241
0.807226
0.781447
0.755172
0.733995
0.884303
0.886397
0.886703
0.880726
0.866859
0.846201
0.820324
0.792665
0.765467
0.741839
0.894309
0.896443
0.897273
0.89262
0.880219
0.860376
0.834512
0.805296
0.777497
0.751246
0.904117
0.906232
0.907468
0.904128
0.893489
0.87496
0.849908
0.820501
0.79151
0.762358
0.913457
0.915555
0.917069
0.914964
0.906352
0.889743
0.865967
0.836914
0.806084
0.775521
0.922099
0.924248
0.925893
0.924852
0.918341
0.904112
0.882102
0.853918
0.821984
0.790891
0.93009
0.932138
0.933786
0.933615
0.929117
0.917592
0.898053
0.871629
0.840326
0.808135
0.937511
0.939193
0.940748
0.941234
0.938513
0.929786
0.9133
0.889335
0.859369
0.826232
0.944244
0.945484
0.946858
0.947769
0.946466
0.940367
0.927243
0.906422
0.878798
0.846203
0.949952
0.950999
0.952226
0.953315
0.953004
0.949171
0.939448
0.922383
0.898137
0.867971
0.954695
0.955655
0.956781
0.95787
0.958196
0.956172
0.949583
0.936506
0.916232
0.889339
0.958972
0.959554
0.960504
0.961527
0.962232
0.961515
0.957541
0.948279
0.932345
0.90951
0.962663
0.962925
0.963663
0.964572
0.965425
0.965517
0.963498
0.957551
0.945978
0.927828
0.965541
0.965787
0.966391
0.967159
0.967991
0.968492
0.96778
0.964423
0.956755
0.94338
0.967966
0.968182
0.968657
0.969287
0.970025
0.970688
0.970748
0.969202
0.964654
0.955615
0.97015
0.970219
0.970497
0.971023
0.971671
0.972353
0.972791
0.972359
0.970041
0.964545
0.971877
0.971867
0.972044
0.972488
0.973034
0.973648
0.974198
0.974331
0.973399
0.970444
0.97321
0.973211
0.973367
0.973717
0.974153
0.974664
0.975188
0.97554
0.975345
0.973984
0.974359
0.97437
0.974464
0.974696
0.975046
0.975458
0.975899
0.976284
0.976413
0.975927
0.97532
0.97533
0.975368
0.97551
0.975771
0.976071
0.976399
0.976716
0.976927
0.976842
0.976139
0.97613
0.976143
0.976233
0.976386
0.976554
0.976745
0.976944
0.977108
0.977146
0.976911
0.976887
0.97687
0.976874
0.976906
0.976954
0.976999
0.977059
0.977114
0.977129
0.97766
0.977615
0.977563
0.977489
0.977419
0.977342
0.977243
0.977154
0.977073
0.976994
0.978398
0.978323
0.978228
0.978118
0.977967
0.977777
0.977559
0.977327
0.977101
0.976898
0.979125
0.979019
0.97889
0.978745
0.978539
0.978295
0.978001
0.977646
0.977293
0.976965
0.979811
0.979675
0.979522
0.97936
0.979146
0.978877
0.978556
0.978154
0.97771
0.977286
0.980411
0.980253
0.980088
0.979937
0.979747
0.979496
0.979184
0.978808
0.978366
0.97791
0.980871
0.980702
0.98054
0.980414
0.98027
0.98008
0.979833
0.979519
0.97916
0.978775
0.981149
0.980984
0.980834
0.980738
0.980644
0.980528
0.980377
0.980181
0.979946
0.9797
0.981235
0.981089
0.980958
0.980884
0.980828
0.980773
0.980711
0.980637
0.980556
0.980485
0.981165
0.981045
0.980932
0.980865
0.98082
0.980791
0.980777
0.980783
0.980819
0.980903
0.981008
0.980904
0.980795
0.980707
0.980635
0.980584
0.98056
0.980572
0.980636
0.980775
0.980838
0.980745
0.980629
0.980514
0.980409
0.980321
0.980256
0.980226
0.980253
0.980364
0.669305
0.687213
0.698177
0.703168
0.705977
0.707651
0.708807
0.70963
0.710199
0.710583
0.710832
0.710975
0.711026
0.711001
0.710915
0.71082
0.710688
0.710493
0.710289
0.710083
0.709902
0.709771
0.709693
0.709669
0.709679
0.696873
0.699743
0.701981
0.704135
0.706142
0.707686
0.708733
0.709471
0.71
0.710373
0.710623
0.710776
0.710845
0.710843
0.710778
0.710667
0.710521
0.710353
0.710176
0.710014
0.709874
0.709761
0.709686
0.70966
0.709671
0.707647
0.706018
0.705562
0.706222
0.707161
0.708116
0.708909
0.709486
0.709919
0.71024
0.710466
0.710608
0.710677
0.710679
0.710624
0.710523
0.71039
0.710235
0.710073
0.709919
0.709783
0.709675
0.709602
0.709577
0.709591
0.709314
0.708239
0.707799
0.707947
0.708369
0.708855
0.709332
0.70973
0.710021
0.710246
0.710412
0.71052
0.710572
0.710569
0.710515
0.710416
0.710282
0.710124
0.709957
0.709794
0.709648
0.709528
0.709443
0.709402
0.709397
0.711266
0.709973
0.709461
0.709345
0.709486
0.7097
0.709898
0.710062
0.710197
0.710308
0.710387
0.710438
0.710459
0.710445
0.71039
0.710294
0.710162
0.71
0.709823
0.709644
0.709476
0.709331
0.709218
0.709143
0.709117
0.714371
0.711846
0.710947
0.710608
0.710549
0.710555
0.710537
0.710492
0.710436
0.710383
0.710346
0.71032
0.710296
0.710263
0.71021
0.710125
0.710004
0.709848
0.709664
0.709467
0.70927
0.709089
0.708936
0.708821
0.708754
0.717713
0.713692
0.712271
0.71175
0.711527
0.711366
0.711163
0.710913
0.710652
0.710421
0.710234
0.710096
0.710005
0.709947
0.7099
0.709843
0.709757
0.70963
0.709458
0.709251
0.709023
0.708797
0.70859
0.708416
0.708271
0.721488
0.715694
0.713483
0.712708
0.712322
0.71201
0.71164
0.7112
0.710731
0.710289
0.709914
0.70963
0.709445
0.70935
0.709321
0.709323
0.709316
0.709266
0.70915
0.708963
0.708716
0.70844
0.708165
0.707908
0.707682
0.726277
0.718185
0.714707
0.713418
0.712822
0.71235
0.711813
0.711174
0.710478
0.709795
0.70919
0.708713
0.708395
0.708245
0.708245
0.708347
0.708489
0.708604
0.70863
0.708532
0.70831
0.707999
0.707649
0.707289
0.706947
0.732393
0.721468
0.716119
0.713905
0.712934
0.712241
0.711511
0.710656
0.709702
0.708729
0.707832
0.707096
0.706584
0.706338
0.706361
0.706604
0.706981
0.707389
0.707703
0.707827
0.707727
0.707433
0.707016
0.70653
0.70606
0.74014
0.725912
0.718012
0.714314
0.712638
0.711598
0.710606
0.709493
0.708242
0.706926
0.705661
0.704575
0.703779
0.703356
0.703361
0.703764
0.704452
0.705295
0.70609
0.706641
0.706838
0.706673
0.70623
0.705606
0.705014
0.750075
0.732045
0.720867
0.714976
0.712096
0.71045
0.709082
0.707638
0.706037
0.704326
0.702628
0.701104
0.699921
0.69921
0.699075
0.699604
0.700651
0.702009
0.703475
0.704703
0.705455
0.705621
0.705257
0.704512
0.703773
0.762269
0.740309
0.725313
0.716449
0.711693
0.709014
0.707067
0.705195
0.703191
0.701047
0.698874
0.696855
0.695203
0.694108
0.69372
0.694187
0.695432
0.697312
0.699596
0.70175
0.70337
0.704163
0.704068
0.703262
0.702371
0.776997
0.751322
0.732125
0.719517
0.712074
0.707755
0.704876
0.702432
0.699969
0.697382
0.694736
0.692214
0.690052
0.688492
0.687745
0.688035
0.689411
0.691618
0.694511
0.697723
0.700478
0.702224
0.702664
0.701923
0.700914
0.794357
0.765528
0.742039
0.725113
0.714146
0.707417
0.703078
0.699782
0.696777
0.693762
0.690716
0.687776
0.685179
0.6832
0.682072
0.68201
0.683165
0.685568
0.689009
0.693031
0.696934
0.699875
0.701141
0.700643
0.699583
0.813897
0.78301
0.755641
0.734183
0.719001
0.708999
0.702484
0.697885
0.694127
0.690651
0.687279
0.684059
0.681176
0.678887
0.67746
0.677084
0.67797
0.680225
0.683795
0.688344
0.693196
0.697421
0.699765
0.699704
0.698653
0.835514
0.803969
0.773228
0.747463
0.727744
0.713692
0.704145
0.697581
0.692673
0.688566
0.684852
0.681437
0.678422
0.676007
0.674422
0.673853
0.674485
0.676511
0.67997
0.684696
0.690167
0.695402
0.698939
0.699484
0.698511
0.858359
0.826451
0.794548
0.765498
0.741324
0.722723
0.709311
0.699936
0.69324
0.68812
0.683898
0.680268
0.677185
0.674755
0.673166
0.672613
0.673171
0.675028
0.678323
0.683025
0.688767
0.694583
0.699126
0.700453
0.699669
0.881566
0.850566
0.819075
0.788091
0.760198
0.737119
0.719289
0.706227
0.696892
0.690117
0.68498
0.68093
0.677728
0.675338
0.673842
0.673389
0.674111
0.676071
0.679396
0.684114
0.690033
0.696315
0.701405
0.703515
0.702841
0.904098
0.876247
0.84567
0.814369
0.784092
0.757337
0.735151
0.717816
0.704969
0.695681
0.688949
0.684015
0.680427
0.677971
0.6766
0.676366
0.677378
0.679675
0.683352
0.6884
0.694624
0.701422
0.70731
0.709606
0.708938
0.924356
0.900547
0.872351
0.842439
0.812776
0.783309
0.757024
0.735527
0.718782
0.706189
0.697005
0.690476
0.685989
0.683149
0.681756
0.681753
0.683169
0.686068
0.69042
0.696181
0.702979
0.710066
0.716151
0.718
0.717224
0.941426
0.922289
0.898225
0.869134
0.842478
0.815687
0.785268
0.759652
0.739239
0.723014
0.710608
0.701627
0.695509
0.691734
0.689957
0.690009
0.691833
0.695466
0.700897
0.707969
0.716158
0.724136
0.729835
0.729307
0.722216
0.954891
0.940785
0.922174
0.89911
0.872029
0.844843
0.817186
0.789851
0.766373
0.74683
0.731012
0.718932
0.710386
0.704933
0.702167
0.70183
0.703787
0.708035
0.714637
0.723506
0.734253
0.745588
0.754346
0.751662
0.73386
0.964478
0.954918
0.94125
0.923504
0.901276
0.875835
0.849773
0.823675
0.799291
0.777246
0.758179
0.742917
0.73156
0.72377
0.719258
0.717822
0.719287
0.723584
0.730788
0.740968
0.754025
0.769537
0.785634
0.797681
0.811951
0.970641
0.964696
0.955422
0.942445
0.925646
0.905201
0.882084
0.857007
0.834579
0.813823
0.791959
0.773428
0.759298
0.748928
0.742073
0.738736
0.738803
0.742141
0.748726
0.758567
0.771583
0.787443
0.805395
0.824183
0.843798
0.974259
0.970908
0.965227
0.956619
0.944775
0.929693
0.91182
0.891924
0.869619
0.848327
0.828665
0.809448
0.793327
0.780395
0.771029
0.76532
0.763215
0.764602
0.769391
0.777503
0.78877
0.802838
0.819056
0.836368
0.853128
0.976123
0.974433
0.971303
0.966176
0.95859
0.94831
0.935352
0.920179
0.902552
0.883791
0.864133
0.846703
0.83181
0.817413
0.805915
0.797663
0.792914
0.791604
0.793708
0.799036
0.807285
0.818045
0.83065
0.844113
0.857107
0.976883
0.976124
0.974578
0.97184
0.967491
0.961185
0.95269
0.942076
0.929462
0.915334
0.900179
0.884628
0.868525
0.854839
0.844007
0.834764
0.827969
0.823732
0.822628
0.824461
0.829006
0.835897
0.844451
0.853845
0.863171
0.977029
0.976717
0.97604
0.974759
0.972586
0.969223
0.964399
0.957959
0.949876
0.940292
0.929557
0.917848
0.905757
0.893765
0.881612
0.87182
0.864573
0.859332
0.856431
0.854953
0.855658
0.858541
0.862916
0.86825
0.873936
0.9769
0.976755
0.976496
0.976008
0.975137
0.973692
0.971463
0.968256
0.963923
0.958399
0.951769
0.944165
0.935941
0.927315
0.918583
0.910807
0.902473
0.895162
0.890617
0.887339
0.886317
0.886742
0.887448
0.888864
0.89096
0.976733
0.976606
0.976505
0.976399
0.976227
0.975901
0.975299
0.974278
0.972698
0.97043
0.967399
0.963579
0.959025
0.953877
0.948211
0.942828
0.937453
0.932139
0.927727
0.922717
0.918198
0.915805
0.914524
0.914171
0.914342
0.976699
0.976519
0.976443
0.976486
0.976653
0.976927
0.977264
0.977594
0.97783
0.97786
0.977569
0.976847
0.975605
0.973822
0.971454
0.968692
0.965615
0.962005
0.95882
0.955953
0.952739
0.949461
0.945598
0.941905
0.93928
0.976927
0.976672
0.976559
0.976636
0.976946
0.977526
0.978384
0.979501
0.980837
0.982333
0.983899
0.985412
0.986735
0.987744
0.988312
0.98836
0.987864
0.986734
0.985177
0.983198
0.980659
0.978095
0.975346
0.972162
0.968793
0.977492
0.977179
0.977024
0.977092
0.977448
0.97816
0.97928
0.980832
0.982811
0.985184
0.98789
0.990841
0.993908
0.996928
0.999726
1.00214
1.00404
1.00528
1.0058
1.00554
1.00448
1.00278
1.00039
0.997274
0.993696
0.978398
0.978086
0.977925
0.977984
0.978358
0.979138
0.980387
0.98215
0.984459
0.987317
0.99069
0.994505
0.998641
1.00294
1.00722
1.01131
1.01501
1.01814
1.02051
1.02201
1.02255
1.02212
1.02072
1.01839
1.01526
0.97947
0.979269
0.979202
0.97934
0.979759
0.980574
0.981901
0.983802
0.986301
0.989405
0.993122
0.997413
1.00216
1.0072
1.01237
1.01749
1.02237
1.02676
1.03046
1.03328
1.03509
1.03585
1.03551
1.03408
1.0316
0.98044
0.980448
0.980589
0.980925
0.981498
0.982428
0.983873
0.985919
0.988549
0.991765
0.995636
1.00017
1.00522
1.01063
1.01627
1.02195
1.02748
1.03264
1.03714
1.04077
1.04343
1.04503
1.04548
1.04474
1.04285
0.981058
0.981307
0.98169
0.982279
0.983159
0.984385
0.986056
0.988199
0.990781
0.993997
0.998013
1.00276
1.00802
1.0136
1.01939
1.02527
1.03113
1.0367
1.0416
1.04562
1.04871
1.0508
1.05171
1.05138
1.04988
0.981015
0.981385
0.981937
0.982722
0.98381
0.985276
0.98716
0.989485
0.992403
0.996019
1.00026
1.00509
1.01044
1.01609
1.02193
1.02785
1.03376
1.03938
1.04441
1.04859
1.05189
1.05424
1.05536
1.05518
1.05381
0.980586
0.980951
0.981508
0.982309
0.98344
0.985041
0.987187
0.989861
0.993138
0.996995
1.00124
1.00593
1.01126
1.01727
1.02378
1.03025
1.03618
1.04144
1.04623
1.05047
1.05376
1.05582
1.05677
1.05667
1.05544
0.848807
0.861773
0.868543
0.860831
0.869744
0.875808
0.865678
0.873632
0.879245
0.867469
0.87477
0.88003
0.870944
0.876735
0.881119
0.878896
0.882766
0.885821
0.892971
0.894595
0.895899
0.914098
0.913391
0.91255
0.937301
0.93557
0.933868
0.96526
0.961435
0.957387
0.990109
0.986442
0.98233
1.01175
1.00797
1.00364
1.02846
1.02487
1.02068
1.04014
1.03685
1.03288
1.04746
1.04439
1.04059
1.05152
1.04853
1.0448
1.0532
1.05024
1.04652
0.891349
0.891353
0.891356
0.891356
0.891354
0.891348
0.891338
0.891324
0.891307
0.891287
0.891264
0.891238
0.89121
0.891179
0.891147
0.891113
0.891078
0.891043
0.891005
0.890966
0.890922
0.89087
0.890774
0.890704
0.890626
0.890535
0.890461
0.890371
0.890274
0.89019
0.890088
0.889971
0.889851
0.889714
0.889556
0.889382
0.889191
0.888986
0.888843
0.888675
0.88842
0.888159
0.887892
0.887619
0.88734
0.887062
0.886792
0.886538
0.886311
0.886124
0.885988
0.885916
0.885934
0.886069
0.886341
0.886767
0.887362
0.88814
0.889109
0.890269
0.891622
0.89316
0.894847
0.896622
0.898436
0.900245
0.90199
0.903596
0.904996
0.906137
0.906986
0.907537
0.907805
0.907833
0.907701
0.907478
0.907211
0.906951
0.906766
0.906704
0.891343
0.891347
0.89135
0.89135
0.891347
0.89134
0.89133
0.891316
0.8913
0.89128
0.891257
0.891232
0.891204
0.891174
0.891143
0.891109
0.891073
0.891035
0.890993
0.890948
0.890899
0.890842
0.890775
0.890706
0.890633
0.890558
0.890484
0.890403
0.890315
0.890222
0.890127
0.890026
0.889913
0.889786
0.889649
0.889501
0.889339
0.889163
0.888988
0.888801
0.888588
0.888359
0.888119
0.887868
0.887611
0.887352
0.887096
0.886853
0.886631
0.886443
0.886303
0.88623
0.88624
0.886351
0.886583
0.886956
0.887489
0.888196
0.889088
0.890168
0.891435
0.892881
0.894479
0.896189
0.897961
0.899741
0.901464
0.903063
0.904471
0.905632
0.906511
0.907098
0.907411
0.907492
0.907396
0.907197
0.906968
0.906758
0.906611
0.906548
0.89134
0.891345
0.891348
0.891348
0.891344
0.891336
0.891326
0.891312
0.891295
0.891276
0.891254
0.891228
0.891201
0.891172
0.891141
0.891108
0.891072
0.891034
0.890992
0.890946
0.890896
0.890841
0.89078
0.890717
0.890653
0.890586
0.890514
0.890437
0.890354
0.890269
0.89018
0.890082
0.889975
0.889861
0.889739
0.889606
0.889463
0.889308
0.889145
0.88897
0.888779
0.888572
0.888351
0.888116
0.887871
0.887619
0.887363
0.887111
0.88687
0.886651
0.886468
0.886337
0.886277
0.886306
0.886447
0.886722
0.887153
0.887756
0.888543
0.889525
0.890704
0.892072
0.893606
0.895269
0.897018
0.898801
0.900555
0.902207
0.903688
0.904936
0.905908
0.906583
0.906973
0.907116
0.90707
0.906908
0.906698
0.906493
0.906329
0.906212
0.891343
0.891349
0.891352
0.891351
0.891347
0.891339
0.891328
0.891314
0.891297
0.891278
0.891256
0.891232
0.891205
0.891176
0.891145
0.891111
0.891075
0.891037
0.890995
0.890951
0.890904
0.890852
0.890797
0.89074
0.890679
0.890615
0.890546
0.890474
0.890399
0.890321
0.890238
0.890149
0.890052
0.889948
0.889836
0.889715
0.889584
0.889442
0.889288
0.88912
0.888934
0.888729
0.888504
0.888258
0.887991
0.887705
0.887401
0.887087
0.886769
0.886458
0.886169
0.885921
0.885732
0.885622
0.885616
0.88575
0.886055
0.886549
0.887242
0.888142
0.889253
0.890549
0.892017
0.893649
0.89541
0.897242
0.899083
0.900861
0.902498
0.903924
0.90508
0.905931
0.90647
0.906725
0.906749
0.906617
0.906402
0.906167
0.905944
0.905744
0.891355
0.89136
0.891363
0.891361
0.891355
0.891347
0.891335
0.891321
0.891304
0.891284
0.891263
0.891239
0.891213
0.891184
0.891152
0.891118
0.891082
0.891044
0.891003
0.890961
0.890916
0.890868
0.890817
0.890764
0.890707
0.890648
0.890586
0.89052
0.890451
0.890379
0.890304
0.890223
0.890135
0.890041
0.889939
0.889827
0.889703
0.889566
0.889413
0.889239
0.889042
0.888817
0.88856
0.888268
0.887939
0.887574
0.887173
0.886744
0.886295
0.885841
0.8854
0.884995
0.884652
0.884385
0.884212
0.884179
0.884328
0.884684
0.885258
0.886047
0.88703
0.888202
0.889611
0.891234
0.893005
0.894891
0.896835
0.898771
0.90062
0.902302
0.903739
0.904873
0.905669
0.906131
0.906297
0.906237
0.906035
0.905768
0.905473
0.905184
0.891375
0.891378
0.891379
0.891376
0.891369
0.891359
0.891347
0.891331
0.891314
0.891294
0.891272
0.891248
0.891222
0.891193
0.891162
0.89113
0.891095
0.891058
0.891019
0.890978
0.890935
0.89089
0.890842
0.890792
0.89074
0.890686
0.89063
0.890571
0.890509
0.890444
0.890375
0.890302
0.890223
0.890136
0.89004
0.889931
0.889808
0.889666
0.8895
0.889304
0.889073
0.888799
0.888476
0.8881
0.887668
0.887178
0.886635
0.886047
0.885427
0.884794
0.88417
0.883581
0.883055
0.882621
0.882309
0.882136
0.882115
0.882314
0.882772
0.883413
0.884222
0.885283
0.886621
0.888182
0.889929
0.891836
0.893861
0.895946
0.898018
0.899992
0.901777
0.903286
0.904449
0.905229
0.905634
0.905718
0.90557
0.905283
0.904912
0.904551
0.891403
0.891404
0.891402
0.891397
0.891388
0.891376
0.891362
0.891346
0.891328
0.891308
0.891286
0.891262
0.891236
0.891208
0.891178
0.891146
0.891112
0.891076
0.891039
0.891
0.890959
0.890917
0.890873
0.890827
0.890779
0.890731
0.89068
0.890627
0.890572
0.890514
0.890452
0.890385
0.890312
0.890229
0.890134
0.890022
0.889889
0.889729
0.889533
0.889295
0.889004
0.888652
0.888232
0.887737
0.887164
0.886516
0.8858
0.885028
0.884218
0.883395
0.882584
0.88181
0.881099
0.88051
0.880058
0.879737
0.879585
0.879638
0.87993
0.880447
0.881167
0.882116
0.883319
0.884764
0.886433
0.888308
0.890357
0.892539
0.894791
0.897037
0.89918
0.90111
0.902722
0.903929
0.904687
0.905011
0.904982
0.904705
0.904264
0.90384
0.89144
0.891437
0.891432
0.891423
0.891411
0.891398
0.891382
0.891365
0.891346
0.891326
0.891304
0.891279
0.891254
0.891226
0.891197
0.891166
0.891133
0.891099
0.891064
0.891027
0.890989
0.890949
0.890909
0.890868
0.890825
0.890782
0.890737
0.890691
0.890642
0.890591
0.890535
0.890473
0.890403
0.89032
0.89022
0.890097
0.889944
0.889751
0.88951
0.889208
0.888835
0.888381
0.887836
0.887197
0.886463
0.88564
0.88474
0.88378
0.882785
0.881781
0.880799
0.879867
0.879016
0.878282
0.877687
0.877246
0.876984
0.87692
0.87707
0.877442
0.878041
0.878877
0.879954
0.881274
0.882835
0.884628
0.886637
0.888838
0.891189
0.893628
0.896068
0.898398
0.900482
0.902185
0.903398
0.904073
0.904252
0.904039
0.903547
0.903049
0.891485
0.891477
0.891466
0.891453
0.891439
0.891423
0.891406
0.891388
0.891368
0.891347
0.891325
0.891301
0.891275
0.891248
0.89122
0.89119
0.891159
0.891127
0.891093
0.891059
0.891024
0.890988
0.890952
0.890916
0.890879
0.890841
0.890803
0.890764
0.890723
0.890678
0.890628
0.89057
0.8905
0.890413
0.890302
0.89016
0.889976
0.88974
0.889438
0.889057
0.888585
0.888011
0.887329
0.886535
0.885635
0.884638
0.883561
0.882428
0.881266
0.880107
0.878981
0.87792
0.876954
0.876109
0.875407
0.874869
0.874512
0.874352
0.874399
0.874663
0.875149
0.875865
0.876817
0.878009
0.879445
0.881123
0.883042
0.88519
0.887546
0.890071
0.8927
0.895335
0.897838
0.900041
0.901768
0.90289
0.903379
0.903302
0.90279
0.902225
0.891535
0.89152
0.891503
0.891486
0.891468
0.89145
0.891432
0.891412
0.891392
0.891371
0.891348
0.891324
0.891299
0.891273
0.891246
0.891218
0.891188
0.891158
0.891128
0.891097
0.891066
0.891035
0.891004
0.890973
0.890943
0.890913
0.890883
0.890851
0.890818
0.89078
0.890735
0.89068
0.890609
0.890515
0.890389
0.890222
0.89
0.889711
0.889339
0.888869
0.88829
0.887592
0.88677
0.885826
0.884768
0.883611
0.882378
0.881097
0.879798
0.878514
0.877277
0.876117
0.875063
0.874138
0.873362
0.872754
0.872327
0.872093
0.872062
0.872241
0.872635
0.873251
0.874094
0.87517
0.876484
0.878041
0.879845
0.881895
0.884187
0.886701
0.889399
0.89221
0.895017
0.897646
0.899881
0.901506
0.902395
0.902538
0.902052
0.901441
0.891589
0.891566
0.891541
0.891519
0.891498
0.891478
0.891457
0.891437
0.891416
0.891394
0.891372
0.891349
0.891325
0.8913
0.891274
0.891248
0.891221
0.891194
0.891167
0.891141
0.891115
0.891089
0.891065
0.891042
0.89102
0.890999
0.890979
0.890957
0.890933
0.890903
0.890865
0.890813
0.890739
0.890637
0.890494
0.890298
0.890035
0.889689
0.889243
0.888684
0.887998
0.88718
0.886226
0.885144
0.883943
0.882659
0.881296
0.879897
0.878492
0.877115
0.875797
0.874568
0.873452
0.872473
0.871648
0.870992
0.870516
0.870231
0.870143
0.87026
0.870585
0.871122
0.871879
0.872859
0.87407
0.875519
0.877211
0.879152
0.881347
0.883791
0.886468
0.889336
0.892311
0.895243
0.897908
0.900035
0.901384
0.901828
0.901428
0.900795
0.891645
0.891611
0.891577
0.89155
0.891525
0.891502
0.89148
0.891459
0.891438
0.891416
0.891394
0.891372
0.891349
0.891325
0.891302
0.891278
0.891255
0.891232
0.89121
0.89119
0.891171
0.891153
0.891138
0.891125
0.891114
0.891105
0.891096
0.891087
0.891074
0.891056
0.891025
0.890978
0.890904
0.890793
0.890633
0.890409
0.890104
0.889702
0.889186
0.888542
0.887759
0.886832
0.885766
0.884579
0.883279
0.881866
0.880398
0.878911
0.87743
0.875987
0.874614
0.873337
0.872182
0.871168
0.870312
0.869625
0.869117
0.868798
0.868672
0.868745
0.86902
0.869501
0.870194
0.871104
0.872237
0.873601
0.875204
0.877052
0.879155
0.881515
0.884129
0.886979
0.890013
0.893112
0.896083
0.898671
0.900504
0.901313
0.901061
0.900417
0.891697
0.891651
0.891606
0.891572
0.891544
0.891519
0.891496
0.891474
0.891453
0.891432
0.891411
0.891389
0.891368
0.891347
0.891327
0.891307
0.891288
0.891272
0.891256
0.891244
0.891234
0.891227
0.891223
0.891223
0.891226
0.891232
0.891239
0.891246
0.891249
0.891244
0.891225
0.891184
0.891112
0.890996
0.890821
0.890571
0.89023
0.889778
0.8892
0.888483
0.887619
0.886606
0.885453
0.88417
0.88278
0.881283
0.879747
0.878196
0.876661
0.875174
0.873764
0.872458
0.871278
0.870243
0.869366
0.86866
0.868133
0.867791
0.867641
0.867685
0.867927
0.868372
0.869024
0.869888
0.870971
0.87228
0.873823
0.87561
0.877649
0.879947
0.882506
0.885321
0.888361
0.891547
0.894728
0.897665
0.899971
0.901184
0.901137
0.900505
0.891742
0.891679
0.891622
0.891582
0.89155
0.891523
0.891499
0.891477
0.891456
0.891436
0.891416
0.891397
0.891378
0.89136
0.891344
0.89133
0.891318
0.891309
0.891303
0.891301
0.891303
0.89131
0.891322
0.891338
0.891359
0.891384
0.891411
0.891438
0.89146
0.891473
0.89147
0.89144
0.891374
0.891256
0.891071
0.890802
0.89043
0.889938
0.88931
0.888535
0.887607
0.886521
0.885292
0.883944
0.882483
0.880946
0.879365
0.877774
0.876205
0.87469
0.873258
0.871934
0.87074
0.869691
0.868803
0.868085
0.867545
0.86719
0.867025
0.867053
0.867277
0.867703
0.868333
0.869175
0.870234
0.871517
0.873036
0.874798
0.876815
0.879094
0.881639
0.884448
0.887503
0.890755
0.894084
0.89726
0.899973
0.901631
0.901855
0.901316
0.891747
0.891681
0.891613
0.891567
0.891533
0.891505
0.891481
0.89146
0.89144
0.891422
0.891404
0.891387
0.891373
0.89136
0.89135
0.891343
0.89134
0.891342
0.891348
0.89136
0.891377
0.891401
0.891432
0.891469
0.891512
0.891561
0.891613
0.891665
0.891711
0.891747
0.891763
0.891749
0.891693
0.891579
0.89139
0.891109
0.890716
0.890195
0.889531
0.888713
0.887739
0.886607
0.885332
0.88394
0.882442
0.880872
0.879263
0.877648
0.876061
0.874531
0.873087
0.871753
0.87055
0.869494
0.868598
0.867873
0.867327
0.866965
0.866793
0.866813
0.867032
0.867452
0.86808
0.868919
0.869979
0.871267
0.872794
0.874573
0.876614
0.878927
0.881519
0.88439
0.887525
0.890885
0.894375
0.897784
0.900795
0.90288
0.903471
0.90314
0.891726
0.89165
0.891571
0.89152
0.891484
0.891456
0.891434
0.891414
0.891397
0.891381
0.891366
0.891354
0.891345
0.891339
0.891338
0.891341
0.89135
0.891364
0.891386
0.891415
0.891452
0.891498
0.891552
0.891614
0.891683
0.891758
0.891843
0.891927
0.892
0.892061
0.892102
0.892109
0.892068
0.891963
0.891777
0.891492
0.891088
0.89055
0.889864
0.889022
0.888021
0.886867
0.885571
0.884152
0.882634
0.881049
0.879428
0.877804
0.87621
0.874675
0.873227
0.871888
0.87068
0.869619
0.868717
0.867987
0.867436
0.86707
0.866896
0.866917
0.867138
0.867565
0.868204
0.86906
0.870143
0.871463
0.873034
0.874869
0.876984
0.879392
0.882103
0.88512
0.88843
0.892001
0.895756
0.899525
0.903009
0.90543
0.90641
0.906347
0.891682
0.89158
0.891484
0.891427
0.89139
0.891364
0.891345
0.891329
0.891316
0.891304
0.891296
0.89129
0.891288
0.891292
0.891301
0.891317
0.89134
0.891371
0.891411
0.891461
0.891521
0.891593
0.891674
0.891766
0.891869
0.891979
0.892093
0.892207
0.892315
0.892409
0.892479
0.89251
0.892489
0.892399
0.892222
0.89194
0.891535
0.890992
0.890298
0.889447
0.888436
0.887274
0.885972
0.884549
0.883031
0.881447
0.879828
0.878207
0.876615
0.875082
0.873635
0.872297
0.871088
0.870025
0.869122
0.868389
0.867837
0.867472
0.8673
0.867327
0.867559
0.868002
0.868663
0.86955
0.870675
0.872052
0.873695
0.875623
0.877857
0.880414
0.883313
0.886563
0.890159
0.894071
0.898213
0.902469
0.906527
0.909684
0.911113
0.911266
0.89157
0.891443
0.891329
0.891268
0.891235
0.891215
0.891202
0.891194
0.891188
0.891184
0.891184
0.891187
0.891196
0.891212
0.891234
0.891266
0.891307
0.891357
0.891418
0.891492
0.891582
0.891684
0.891793
0.891912
0.892047
0.892196
0.892349
0.892501
0.892647
0.892776
0.892876
0.892934
0.892937
0.892866
0.892704
0.892432
0.892034
0.891496
0.890806
0.889958
0.888953
0.887797
0.886504
0.885094
0.883589
0.88202
0.880416
0.87881
0.877231
0.87571
0.874271
0.872939
0.871733
0.870672
0.869769
0.869037
0.868486
0.868124
0.867958
0.867995
0.868243
0.868709
0.869402
0.870333
0.871516
0.872969
0.874711
0.876766
0.879161
0.881922
0.885076
0.888643
0.892634
0.897035
0.901767
0.906641
0.911325
0.915585
0.917883
0.918317
0.891366
0.891211
0.89108
0.891022
0.891
0.890994
0.890995
0.891
0.891007
0.891016
0.891027
0.891044
0.891066
0.891096
0.891134
0.891184
0.891244
0.891312
0.891393
0.891492
0.891606
0.891737
0.891889
0.892055
0.892229
0.892413
0.892603
0.892791
0.892973
0.893136
0.893268
0.893356
0.893384
0.893334
0.89319
0.892934
0.892549
0.892023
0.891346
0.890513
0.889525
0.88839
0.88712
0.885734
0.884257
0.882715
0.881138
0.879557
0.878
0.876498
0.875075
0.873755
0.872558
0.871503
0.870606
0.869878
0.869332
0.868976
0.86882
0.868872
0.86914
0.869635
0.870366
0.87135
0.872603
0.874147
0.876008
0.878217
0.880806
0.883815
0.887281
0.89124
0.895726
0.900754
0.906276
0.912101
0.917849
0.923154
0.926811
0.928109
0.891027
0.890844
0.890698
0.890658
0.890666
0.89069
0.890718
0.890746
0.890774
0.8908
0.890829
0.890862
0.8909
0.890946
0.891001
0.891066
0.891142
0.891235
0.891347
0.891471
0.891612
0.891773
0.891959
0.892164
0.892377
0.892597
0.892822
0.893047
0.893263
0.893459
0.893622
0.893738
0.89379
0.893762
0.893638
0.893399
0.893032
0.892524
0.891867
0.891057
0.890096
0.88899
0.887754
0.886404
0.884964
0.88346
0.881921
0.880375
0.878851
0.877376
0.875978
0.874678
0.873499
0.872459
0.871573
0.870856
0.870321
0.869978
0.869837
0.869908
0.870201
0.870729
0.871505
0.872548
0.873879
0.875524
0.877515
0.879889
0.882691
0.885971
0.889784
0.894188
0.899243
0.905
0.911471
0.918514
0.925678
0.932229
0.937363
0.94011
0.890527
0.890288
0.890128
0.890143
0.890219
0.890301
0.890374
0.890441
0.890498
0.890549
0.890601
0.890655
0.890712
0.890775
0.890846
0.890928
0.891024
0.891139
0.891274
0.891424
0.891592
0.891782
0.891995
0.892227
0.892471
0.892725
0.892985
0.893244
0.893491
0.893715
0.893904
0.894043
0.894116
0.894107
0.894
0.893779
0.89343
0.892943
0.89231
0.891527
0.890598
0.889529
0.888334
0.887029
0.885637
0.884181
0.88269
0.88119
0.879709
0.878275
0.876912