/*--------------------------------*- C++ -*----------------------------------*\
| =========                 |                                                 |
| \\      /  F ield         | OpenFOAM: The Open Source CFD Toolbox           |
|  \\    /   O peration     | Version:  v2012                                 |
|   \\  /    A nd           | Website:  www.openfoam.com                      |
|    \\/     M anipulation  |                                                 |
\*---------------------------------------------------------------------------*/
FoamFile
{
    version     2.0;
    format      ascii;
    class       surfaceScalarField;
    location    "2000";
    object      phi;
}
// * * * * * * * * * * * * * * * * * * * * * * * * * * * * * * * * * * * * * //

dimensions      [0 3 -1 0 0 0 0];
oriented        oriented;


internalField   nonuniform List<scalar> 
12722
(
1.49264e-05
0.000185074
7.67408e-06
0.000207252
3.88138e-06
0.000203793
1.75201e-06
0.000202129
2.36301e-08
0.000201728
-1.70668e-06
0.00020173
-3.84168e-06
0.000202135
-7.64366e-06
0.000203802
-1.49003e-05
0.000207257
0.0001851
2.13133e-05
0.00016376
1.68224e-05
0.000211743
1.01571e-05
0.000210458
4.72979e-06
0.000207557
7.35577e-08
0.000206385
-4.58673e-06
0.000206391
-1.00243e-05
0.000207573
-1.67075e-05
0.000210485
-2.12385e-05
0.000211788
0.000163861
2.02836e-05
0.000143477
1.82857e-05
0.000213741
1.22243e-05
0.000216519
6.02212e-06
0.000213759
1.30889e-07
0.000212276
-5.76673e-06
0.000212288
-1.19871e-05
0.000213793
-1.80868e-05
0.000216585
-2.01617e-05
0.000213863
0.000143699
1.84162e-05
0.00012506
1.86861e-05
0.000213471
1.28985e-05
0.000222307
6.46963e-06
0.000220188
2.00874e-07
0.000218545
-6.07606e-06
0.000218565
-1.25287e-05
0.000220246
-1.83724e-05
0.000222429
-1.82305e-05
0.000213721
0.000125469
1.53609e-05
0.000109699
1.78212e-05
0.000211011
1.27707e-05
0.000227357
6.54317e-06
0.000226415
2.87592e-07
0.0002248
-5.9814e-06
0.000224834
-1.22561e-05
0.00022652
-1.73735e-05
0.000227546
-1.51299e-05
0.000211477
0.000110339
1.16624e-05
9.80371e-05
1.57724e-05
0.000206901
1.17742e-05
0.000231356
6.24925e-06
0.00023194
4.00317e-07
0.000230649
-5.468e-06
0.000230702
-1.10639e-05
0.000232116
-1.51854e-05
0.000231667
-1.13741e-05
0.000207666
9.8965e-05
8.39401e-06
8.96431e-05
1.32275e-05
0.000202068
1.05703e-05
0.000234013
5.81856e-06
0.000236692
5.54945e-07
0.000235913
-4.72984e-06
0.000235987
-9.564e-06
0.00023695
-1.24462e-05
0.00023455
-8.02898e-06
0.000203249
9.0936e-05
6.00218e-06
8.36409e-05
1.09886e-05
0.000197081
9.54218e-06
0.000235459
5.46096e-06
0.000240773
7.52951e-07
0.000240621
-3.98375e-06
0.000240724
-8.18037e-06
0.000241147
-9.93285e-06
0.000236302
-5.53295e-06
0.000198849
8.54031e-05
4.3531e-06
7.92878e-05
9.21795e-06
0.000192216
8.59598e-06
0.000236081
5.19334e-06
0.000244176
1.0082e-06
0.000244806
-3.21411e-06
0.000244946
-6.79134e-06
0.000244724
-7.84035e-06
0.000237351
-3.75758e-06
0.000194766
8.16455e-05
3.26772e-06
7.602e-05
7.82349e-06
0.00018766
7.85654e-06
0.000236048
4.95586e-06
0.000247077
1.32038e-06
0.000248441
-2.40028e-06
0.000248667
-5.47788e-06
0.000247802
-6.04553e-06
0.000237919
-2.49978e-06
0.00019122
7.91457e-05
2.65162e-06
7.33684e-05
6.85284e-06
0.000183459
7.31883e-06
0.000235582
4.93143e-06
0.000249464
1.75619e-06
0.000251617
-1.51143e-06
0.000251935
-4.22694e-06
0.000250517
-4.52525e-06
0.000238217
-1.62998e-06
0.000188325
7.75157e-05
2.29041e-06
7.1078e-05
6.19873e-06
0.000179551
7.01733e-06
0.000234764
5.22377e-06
0.000251258
2.37841e-06
0.000254462
-5.74991e-07
0.000254888
-2.94154e-06
0.000252884
-3.18491e-06
0.00023846
-9.69862e-07
0.00018611
7.65459e-05
2.12196e-06
6.89561e-05
5.8577e-06
0.000175815
7.04337e-06
0.000233578
5.66263e-06
0.000252638
3.13188e-06
0.000256993
4.1644e-07
0.000257603
-1.62199e-06
0.000254922
-1.93579e-06
0.000238774
-4.093e-07
0.000184583
7.61366e-05
2.11602e-06
6.684e-05
5.83138e-06
0.0001721
7.37883e-06
0.00023203
6.33384e-06
0.000253683
4.0887e-06
0.000259238
1.59644e-06
0.000260096
-2.68965e-07
0.000256788
-7.2512e-07
0.00023923
1.0863e-07
0.00018375
7.62452e-05
2.22045e-06
6.46196e-05
6.04104e-06
0.000168279
7.97099e-06
0.0002301
7.31347e-06
0.000254341
5.29877e-06
0.000261253
3.03934e-06
0.000262355
1.2379e-06
0.000258589
5.4778e-07
0.00023992
6.59696e-07
0.000183638
7.69049e-05
2.41682e-06
6.22028e-05
6.49205e-06
0.000164204
8.8627e-06
0.00022773
8.61309e-06
0.00025459
6.88162e-06
0.000262984
4.83601e-06
0.000264401
3.05976e-06
0.000260365
2.02547e-06
0.000240955
1.30706e-06
0.000184356
7.8212e-05
2.6805e-06
5.95223e-05
7.13526e-06
0.000159749
1.0032e-05
0.000224833
1.02758e-05
0.000254347
8.9806e-06
0.000264279
7.13698e-06
0.000266244
5.36984e-06
0.000262133
3.89283e-06
0.000242432
2.17919e-06
0.00018607
8.03912e-05
3.00992e-06
5.65123e-05
8.01029e-06
0.000154749
1.15647e-05
0.000221279
1.24263e-05
0.000253485
1.16127e-05
0.000265093
1.00683e-05
0.000267789
8.37623e-06
0.000263825
6.42267e-06
0.000244385
3.47384e-06
0.000189018
8.3865e-05
3.38179e-06
5.31305e-05
9.07463e-06
0.000149056
1.3455e-05
0.000216898
1.50992e-05
0.000251841
1.48676e-05
0.000265324
1.37202e-05
0.000268936
1.22912e-05
0.000265254
9.979e-06
0.000246697
5.43883e-06
0.000193559
8.93038e-05
3.76658e-06
4.9364e-05
1.0269e-05
0.000142554
1.56405e-05
0.000211527
1.82279e-05
0.000249253
1.87134e-05
0.000264839
1.82634e-05
0.000269386
1.74533e-05
0.000266064
1.55535e-05
0.000248597
1.10098e-05
0.000198102
0.000100314
4.14505e-06
4.52189e-05
1.15998e-05
0.000135099
1.81674e-05
0.000204959
2.18979e-05
0.000245523
2.33234e-05
0.000263413
2.38116e-05
0.000268898
2.40287e-05
0.000265847
2.34283e-05
0.000249198
2.1035e-05
0.000200496
0.000110006
1.13431e-05
4.38465e-06
4.08342e-05
1.27633e-05
0.00012672
2.05864e-05
0.000197136
2.5573e-05
0.000240536
2.80366e-05
0.00026095
2.92544e-05
0.00026768
3.00979e-05
0.000265003
2.96016e-05
0.000249694
2.5395e-05
0.000204702
0.000124468
1.09327e-05
4.51385e-06
3.63204e-05
1.3739e-05
0.000117495
2.28301e-05
0.000188045
2.91015e-05
0.000234265
3.25483e-05
0.000257503
3.43491e-05
0.000265879
3.53707e-05
0.000263982
3.45935e-05
0.000250471
2.94547e-05
0.000209841
0.000138122
1.58002e-05
4.54798e-06
3.17724e-05
1.44642e-05
0.000107579
2.47852e-05
0.000177724
3.23842e-05
0.000226666
3.68675e-05
0.00025302
3.93015e-05
0.000263445
4.05161e-05
0.000262767
3.97942e-05
0.000251193
3.44135e-05
0.000215222
0.000151218
2.13179e-05
4.4885e-06
2.72839e-05
1.49274e-05
9.71398e-05
2.64303e-05
0.000166221
3.54433e-05
0.000217653
4.10926e-05
0.00024737
4.42857e-05
0.000260252
4.57244e-05
0.000261328
4.52559e-05
0.000251661
3.98308e-05
0.000220647
0.000163969
2.70795e-05
4.3545e-06
2.29294e-05
1.51335e-05
8.63608e-05
2.77359e-05
0.000153619
3.82336e-05
0.000207155
4.52001e-05
0.000240404
4.92341e-05
0.000256218
5.10845e-05
0.000259478
5.09244e-05
0.000251822
4.57287e-05
0.000225843
0.000176174
3.3524e-05
4.15472e-06
1.87747e-05
1.50753e-05
7.54403e-05
2.86467e-05
0.000140047
4.06746e-05
0.000195127
4.91628e-05
0.000231916
5.4155e-05
0.000251226
5.66503e-05
0.000256983
5.69126e-05
0.000251559
5.21982e-05
0.000230557
0.000187643
4.07288e-05
3.89382e-06
1.48809e-05
1.47417e-05
6.45924e-05
2.90935e-05
0.000125695
4.26377e-05
0.000181583
5.27869e-05
0.000221766
5.90789e-05
0.000244934
6.23696e-05
0.000253692
6.32576e-05
0.000250671
5.9237e-05
0.000234578
0.000198224
4.86559e-05
3.57737e-06
1.13035e-05
1.41276e-05
5.40422e-05
2.90028e-05
0.00011082
4.39614e-05
0.000166625
5.58676e-05
0.00020986
6.38259e-05
0.000236976
6.82241e-05
0.000249294
6.96999e-05
0.000249195
6.67357e-05
0.000237542
0.000207681
5.72795e-05
3.21711e-06
8.08636e-06
1.32538e-05
4.40055e-05
2.835e-05
9.57239e-05
4.45604e-05
0.000150414
5.8338e-05
0.000196083
6.81683e-05
0.000227145
7.40287e-05
0.000243433
7.62253e-05
0.000246999
7.45736e-05
0.000239193
0.000215756
6.64985e-05
2.82561e-06
5.26075e-06
1.21602e-05
3.4671e-05
2.71382e-05
8.07459e-05
4.43358e-05
0.000133217
5.99677e-05
0.000180451
7.1854e-05
0.000215259
7.9471e-05
0.000235816
8.29678e-05
0.000243502
8.27614e-05
0.0002394
0.000222277
7.62406e-05
2.41507e-06
2.84568e-06
1.08967e-05
2.61893e-05
2.53876e-05
6.6255e-05
4.31928e-05
0.000115411
6.0522e-05
0.000163121
7.46004e-05
0.000201181
8.43039e-05
0.000226113
8.96321e-05
0.000238174
9.08218e-05
0.00023821
0.000226796
8.63021e-05
2.07102e-06
7.74654e-07
9.54549e-06
1.87148e-05
2.31649e-05
5.26356e-05
4.11048e-05
9.74715e-05
5.98326e-05
0.000144394
7.61371e-05
0.000184876
8.82517e-05
0.000213998
9.57759e-05
0.00023065
9.85829e-05
0.000235403
0.000228964
9.64152e-05
1.70949e-06
-9.34835e-07
8.12946e-06
1.22949e-05
2.05671e-05
4.0198e-05
3.81186e-05
7.992e-05
5.77878e-05
0.000124724
7.61638e-05
0.0001665
9.08664e-05
0.000199296
0.000100909
0.000220607
0.000106007
0.000230305
0.00022874
0.000106231
1.29101e-06
-2.22585e-06
6.6823e-06
6.90357e-06
1.77226e-05
2.91577e-05
3.43594e-05
6.32831e-05
5.43677e-05
0.000104716
7.44432e-05
0.000146425
9.17348e-05
0.000182004
0.000104625
0.000207717
0.000112521
0.000222409
0.000226042
0.000115219
8.21506e-07
-3.04736e-06
5.20364e-06
2.52143e-06
1.47679e-05
1.95934e-05
3.00348e-05
4.80162e-05
4.96912e-05
8.50598e-05
7.0878e-05
0.000125238
9.05235e-05
0.000162359
0.000106424
0.000191817
0.000117476
0.000211356
0.000220429
0.00012309
5.41111e-07
-3.58847e-06
3.99103e-06
-9.28502e-07
1.19613e-05
1.16231e-05
2.54434e-05
3.45341e-05
4.40193e-05
6.64839e-05
6.55312e-05
0.000103726
8.6994e-05
0.000140896
0.000105768
0.000173043
0.000120157
0.000196968
0.000211297
0.000129288
4.77497e-07
-4.06597e-06
3.12094e-06
-3.57195e-06
9.44616e-06
5.2979e-06
2.08722e-05
2.31081e-05
3.77157e-05
4.96404e-05
5.86586e-05
8.27828e-05
8.11312e-05
0.000118423
0.00010233
0.000151845
0.000120051
0.000179247
0.000198392
0.000132955
2.24039e-07
-4.29001e-06
2.16372e-06
-5.51165e-06
7.10773e-06
3.53892e-07
1.65039e-05
1.37119e-05
3.11832e-05
3.4961e-05
5.07e-05
6.32661e-05
7.31903e-05
9.5933e-05
9.60289e-05
0.000129006
0.00011671
0.000158566
0.00018171
0.000133392
-3.53923e-08
-4.25462e-06
1.2653e-06
-6.81234e-06
5.02993e-06
-3.41074e-06
1.25313e-05
6.21057e-06
2.48364e-05
2.26558e-05
4.22246e-05
4.58779e-05
6.36799e-05
7.44777e-05
8.70866e-05
0.000105599
0.000109938
0.000135715
0.000161627
0.00013002
-3.66316e-08
-4.21799e-06
7.75079e-07
-7.62406e-06
3.46221e-06
-6.09788e-06
9.16925e-06
5.03514e-07
1.90508e-05
1.27743e-05
3.38419e-05
3.10868e-05
5.33122e-05
5.50074e-05
7.60748e-05
8.28368e-05
9.9958e-05
0.000111832
0.000138944
0.000122641
-6.19192e-08
-4.15608e-06
3.85483e-07
-8.07147e-06
2.20198e-06
-7.91438e-06
6.38126e-06
-3.67577e-06
1.4025e-05
5.1305e-06
2.6069e-05
1.90428e-05
4.28793e-05
3.81971e-05
6.38565e-05
6.18596e-05
8.74404e-05
8.82478e-05
0.000114858
0.000111526
-2.33444e-07
-3.92264e-06
-1.13557e-07
-8.19136e-06
1.08376e-06
-9.11171e-06
4.09978e-06
-6.69179e-06
9.83751e-06
-6.0724e-07
1.92673e-05
9.61299e-06
3.31052e-05
2.43593e-05
5.14227e-05
4.35421e-05
7.33969e-05
6.62736e-05
9.08302e-05
9.74248e-05
-2.62846e-07
-3.65979e-06
-3.29615e-07
-8.1246e-06
3.67818e-07
-9.80915e-06
2.39532e-06
-8.7193e-06
6.47377e-06
-4.6857e-06
1.34506e-05
2.6362e-06
2.41394e-05
1.36705e-05
3.90305e-05
2.86509e-05
5.79768e-05
4.73273e-05
6.8752e-05
8.0055e-05
-1.93881e-07
-3.46591e-06
-3.2531e-07
-7.99317e-06
2.54158e-08
-1.01599e-05
1.33755e-06
-1.00314e-05
4.20233e-06
-7.55048e-06
9.30555e-06
-2.46702e-06
1.7416e-05
5.55997e-06
2.92068e-05
1.68602e-05
4.49958e-05
3.15383e-05
4.92516e-05
6.44962e-05
-1.83499e-07
-3.28242e-06
-3.67384e-07
-7.8093e-06
-1.99227e-07
-1.0328e-05
6.65716e-07
-1.08964e-05
2.65457e-06
-9.53934e-06
6.30097e-06
-6.11343e-06
1.22506e-05
-3.89645e-07
2.11951e-05
7.91566e-06
3.36898e-05
1.90435e-05
3.30116e-05
4.99298e-05
-1.46941e-07
-3.13548e-06
-3.25346e-07
-7.6309e-06
-2.568e-07
-1.03966e-05
3.16904e-07
-1.14701e-05
1.68619e-06
-1.09086e-05
4.2523e-06
-8.67955e-06
8.51629e-06
-4.65364e-06
1.50719e-05
1.36004e-06
2.45253e-05
9.59016e-06
2.02053e-05
3.73316e-05
-8.54041e-08
-3.05008e-06
-2.03446e-07
-7.51286e-06
-1.89064e-07
-1.0411e-05
1.48902e-07
-1.18081e-05
1.05437e-06
-1.18141e-05
2.83731e-06
-1.04625e-05
5.86478e-06
-7.68112e-06
1.05829e-05
-3.35809e-06
1.75117e-05
2.66141e-06
1.05486e-05
2.71683e-05
-6.77127e-08
-2.98237e-06
-1.99784e-07
-7.38079e-06
-2.76684e-07
-1.03341e-05
-1.24588e-07
-1.19602e-05
4.44117e-07
-1.23828e-05
1.66295e-06
-1.16813e-05
3.80663e-06
-9.8248e-06
7.20192e-06
-6.75338e-06
1.22278e-05
-2.36447e-06
3.45513e-06
1.93213e-05
-8.23802e-08
-2.89999e-06
-2.87144e-07
-7.17603e-06
-5.10477e-07
-1.01108e-05
-5.78225e-07
-1.18924e-05
-3.32926e-07
-1.26281e-05
4.05864e-07
-1.24201e-05
1.88102e-06
-1.13e-05
4.31919e-06
-9.19155e-06
7.98453e-06
-6.02982e-06
-1.74166e-06
1.31813e-05
-1.29896e-07
-2.77009e-06
-4.6684e-07
-6.83909e-06
-8.97977e-07
-9.67962e-06
-1.27717e-06
-1.15132e-05
-1.41452e-06
-1.24908e-05
-1.12346e-06
-1.27112e-05
-2.40617e-07
-1.21828e-05
1.42893e-06
-1.08611e-05
4.08067e-06
-8.68156e-06
-5.57741e-06
7.91641e-06
-2.13222e-07
-2.55687e-06
-7.48441e-07
-6.30388e-06
-1.46559e-06
-8.96247e-06
-2.20088e-06
-1.0778e-05
-2.76957e-06
-1.19221e-05
-2.99904e-06
-1.24817e-05
-2.71761e-06
-1.24642e-05
-1.7647e-06
-1.1814e-05
2.11494e-08
-1.04674e-05
-8.34763e-06
2.79136e-06
-3.16296e-07
-2.24058e-06
-1.07928e-06
-5.54089e-06
-2.10762e-06
-7.93414e-06
-3.22511e-06
-9.66047e-06
-4.26504e-06
-1.08822e-05
-5.06973e-06
-1.1677e-05
-5.46387e-06
-1.20701e-05
-5.27811e-06
-1.19998e-05
-4.36508e-06
-1.13805e-05
-1.0122e-05
-2.59068e-06
-4.17923e-07
-1.82266e-06
-1.39682e-06
-4.562e-06
-2.72056e-06
-6.61041e-06
-4.21345e-06
-8.16759e-06
-5.71982e-06
-9.37579e-06
-7.08738e-06
-1.03095e-05
-8.18017e-06
-1.09773e-05
-8.83371e-06
-1.13462e-05
-8.88978e-06
-1.13244e-05
-1.08307e-05
-8.18115e-06
-4.88391e-07
-1.33427e-06
-1.61436e-06
-3.43603e-06
-3.14618e-06
-5.07859e-06
-4.92259e-06
-6.39118e-06
-6.81376e-06
-7.48463e-06
-8.69702e-06
-8.42622e-06
-1.04429e-05
-9.23148e-06
-1.19208e-05
-9.86834e-06
-1.29799e-05
-1.02653e-05
-1.03457e-05
-1.34649e-05
-5.00869e-07
-8.33401e-07
-1.65383e-06
-2.28308e-06
-3.24266e-06
-3.48977e-06
-5.13521e-06
-4.49863e-06
-7.23716e-06
-5.38269e-06
-9.46419e-06
-6.19919e-06
-1.1724e-05
-6.97166e-06
-1.39072e-05
-7.68516e-06
-1.58838e-05
-8.28868e-06
-8.70437e-06
-1.75251e-05
-4.38891e-07
-3.94511e-07
-1.471e-06
-1.25098e-06
-2.92781e-06
-2.03296e-06
-4.71623e-06
-2.71021e-06
-6.77941e-06
-3.31951e-06
-9.07305e-06
-3.90556e-06
-1.15488e-05
-4.49587e-06
-1.41417e-05
-5.09227e-06
-1.67604e-05
-5.66998e-06
-6.18419e-06
-1.92806e-05
-3.06998e-07
-8.75146e-08
-1.07522e-06
-4.82762e-07
-2.21185e-06
-8.96328e-07
-3.66439e-06
-1.25768e-06
-5.404e-06
-1.57989e-06
-7.41508e-06
-1.89449e-06
-9.68628e-06
-2.22467e-06
-1.21986e-05
-2.58e-06
-1.49141e-05
-2.9544e-06
-3.33095e-06
-1.77674e-05
-1.28996e-07
4.14797e-08
-5.35763e-07
-7.59979e-08
-1.21992e-06
-2.12174e-07
-2.15323e-06
-3.24377e-07
-3.31573e-06
-4.1739e-07
-4.70191e-06
-5.08316e-07
-6.31923e-06
-6.07351e-07
-8.17777e-06
-7.21461e-07
-1.02832e-05
-8.48982e-07
-9.86092e-07
-1.26281e-05
4.14794e-08
-3.45191e-08
-2.46693e-07
-5.7107e-07
-9.8846e-07
-1.49678e-06
-2.10413e-06
-2.82559e-06
-3.67457e-06
-4.66066e-06
-1.50589e-05
2.6402e-05
-1.7323e-05
2.26408e-06
-1.47213e-05
-2.60168e-06
-1.16997e-05
-3.02163e-06
-9.21871e-06
-2.48099e-06
-7.32659e-06
-1.89213e-06
-5.86814e-06
-1.45846e-06
-4.73244e-06
-1.13571e-06
-3.82513e-06
-9.0732e-07
-3.07442e-06
-7.50716e-07
-2.43029e-06
-6.44168e-07
-1.86105e-06
-5.6925e-07
-1.35198e-06
-5.09118e-07
-8.98141e-07
-4.53834e-07
-5.05966e-07
-3.92193e-07
-1.61121e-07
-3.44809e-07
1.18193e-07
-2.79299e-07
3.10676e-07
-1.92431e-07
4.25833e-07
-1.15123e-07
4.47156e-07
-2.1271e-08
3.905e-07
5.6703e-08
2.89042e-07
1.0151e-07
1.62859e-07
1.26232e-07
5.04096e-08
1.12506e-07
5.04172e-08
-8.79051e-06
4.61252e-05
-1.7884e-05
1.13576e-05
-1.9767e-05
-7.18713e-07
-1.86945e-05
-4.09415e-06
-1.6648e-05
-4.52755e-06
-1.44769e-05
-4.06327e-06
-1.24727e-05
-3.4627e-06
-1.06896e-05
-2.91883e-06
-9.10877e-06
-2.48812e-06
-7.68962e-06
-2.16992e-06
-6.39254e-06
-1.9413e-06
-5.18997e-06
-1.77191e-06
-4.06726e-06
-1.63187e-06
-3.02454e-06
-1.4966e-06
-2.06956e-06
-1.34715e-06
-1.2399e-06
-1.17443e-06
-5.56401e-07
-9.62702e-07
-2.63571e-08
-7.22371e-07
3.27749e-07
-4.69106e-07
5.17755e-07
-2.11144e-07
5.56137e-07
1.84549e-08
4.61009e-07
1.96766e-07
2.85204e-07
3.02207e-07
1.00174e-07
2.97646e-07
1.50598e-07
-1.16805e-06
6.30934e-05
-1.25169e-05
2.27064e-05
-1.76243e-05
4.38865e-06
-1.89692e-05
-2.74922e-06
-1.85237e-05
-4.97314e-06
-1.73051e-05
-5.28182e-06
-1.58027e-05
-4.9652e-06
-1.4228e-05
-4.4935e-06
-1.26736e-05
-4.04251e-06
-1.11569e-05
-3.68676e-06
-9.67239e-06
-3.42581e-06
-8.21469e-06
-3.22968e-06
-6.78618e-06
-3.06042e-06
-5.40227e-06
-2.88054e-06
-4.09086e-06
-2.65854e-06
-2.8922e-06
-2.37305e-06
-1.84075e-06
-2.01406e-06
-9.71992e-07
-1.59104e-06
-3.15977e-07
-1.125e-06
1.19479e-07
-6.46478e-07
3.36913e-07
-1.98857e-07
3.62735e-07
1.71084e-07
2.57834e-07
4.07215e-07
1.03257e-07
4.52317e-07
2.53861e-07
5.08376e-06
7.93275e-05
-7.16302e-06
3.49532e-05
-1.41671e-05
1.13927e-05
-1.73822e-05
4.65774e-07
-1.83474e-05
-4.00787e-06
-1.81707e-05
-5.45863e-06
-1.74463e-05
-5.68957e-06
-1.64489e-05
-5.49096e-06
-1.52953e-05
-5.19611e-06
-1.40287e-05
-4.95341e-06
-1.26652e-05
-4.78932e-06
-1.12131e-05
-4.68189e-06
-9.6869e-06
-4.58662e-06
-8.11534e-06
-4.45212e-06
-6.54146e-06
-4.2324e-06
-5.02008e-06
-3.8944e-06
-3.61055e-06
-3.42352e-06
-2.37354e-06
-2.82795e-06
-1.36108e-06
-2.13736e-06
-6.06642e-07
-1.40081e-06
-1.21106e-07
-6.84288e-07
1.15153e-07
-6.51008e-08
1.51448e-07
3.71037e-07
7.14004e-08
5.32429e-07
3.25265e-07
1.12041e-05
9.52029e-05
-1.96501e-06
4.81223e-05
-1.03489e-05
1.97766e-05
-1.50221e-05
5.13892e-06
-1.73077e-05
-1.72224e-06
-1.82087e-05
-4.5577e-06
-1.83713e-05
-5.52698e-06
-1.81033e-05
-5.759e-06
-1.7546e-05
-5.75337e-06
-1.67509e-05
-5.74854e-06
-1.57203e-05
-5.81998e-06
-1.4458e-05
-5.94421e-06
-1.29811e-05
-6.06355e-06
-1.1324e-05
-6.10923e-06
-9.54164e-06
-6.01479e-06
-7.708e-06
-5.72801e-06
-5.91071e-06
-5.22075e-06
-4.24277e-06
-4.49582e-06
-2.79056e-06
-3.58949e-06
-1.62112e-06
-2.57017e-06
-7.72028e-07
-1.53331e-06
-2.43984e-07
-5.9305e-07
7.33288e-10
1.26375e-07
4.00475e-08
4.93172e-07
3.65317e-07
1.79275e-05
0.000110799
3.76799e-06
6.22818e-05
-6.08477e-06
2.96294e-05
-1.21737e-05
1.12278e-05
-1.57286e-05
1.83264e-06
-1.77479e-05
-2.53843e-06
-1.88799e-05
-4.39499e-06
-1.94907e-05
-5.1482e-06
-1.96966e-05
-5.54757e-06
-1.95315e-05
-5.91358e-06
-1.89984e-05
-6.35311e-06
-1.80865e-05
-6.85619e-06
-1.67967e-05
-7.3534e-06
-1.5155e-05
-7.75087e-06
-1.32189e-05
-7.95087e-06
-1.1078e-05
-7.86894e-06
-8.84923e-06
-7.44947e-06
-6.66666e-06
-6.67833e-06
-4.66514e-06
-5.59094e-06
-2.96146e-06
-4.27378e-06
-1.6369e-06
-2.8578e-06
-7.24606e-07
-1.5053e-06
-2.04051e-07
-3.94103e-07
-6.50586e-10
2.89812e-07
3.64668e-07
2.53887e-05
0.000126139
1.02869e-05
7.73836e-05
-1.19051e-06
4.11068e-05
-8.80916e-06
1.88465e-05
-1.3682e-05
6.70543e-06
-1.68502e-05
6.29826e-07
-1.90274e-05
-2.21785e-06
-2.05802e-05
-3.5954e-06
-2.1657e-05
-4.47083e-06
-2.22828e-05
-5.28782e-06
-2.24265e-05
-6.20939e-06
-2.20464e-05
-7.23632e-06
-2.11135e-05
-8.28628e-06
-1.96291e-05
-9.23525e-06
-1.7637e-05
-9.94298e-06
-1.52301e-05
-1.02759e-05
-1.25492e-05
-1.01304e-05
-9.77319e-06
-9.45424e-06
-7.09967e-06
-8.26441e-06
-4.71658e-06
-6.65682e-06
-2.77296e-06
-4.80136e-06
-1.35538e-06
-2.92283e-06
-4.75255e-07
-1.27419e-06
-6.77613e-08
-1.17647e-07
2.96909e-07
3.36684e-05
0.000141127
1.77598e-05
9.32923e-05
4.58964e-06
5.42769e-05
-4.72434e-06
2.81604e-05
-1.10327e-05
1.30138e-05
-1.54047e-05
5.00175e-06
-1.86393e-05
1.01674e-06
-2.11847e-05
-1.04998e-06
-2.32202e-05
-2.43533e-06
-2.4758e-05
-3.75001e-06
-2.57394e-05
-5.22805e-06
-2.60828e-05
-6.89294e-06
-2.57141e-05
-8.65494e-06
-2.45894e-05
-1.036e-05
-2.27147e-05
-1.18176e-05
-2.01629e-05
-1.28277e-05
-1.70797e-05
-1.32135e-05
-1.368e-05
-1.2854e-05
-1.02302e-05
-1.17142e-05
-7.01179e-06
-9.87514e-06
-4.27372e-06
-7.53939e-06
-2.18825e-06
-5.00828e-06
-8.23367e-07
-2.63903e-06
-1.41116e-07
-7.9988e-07
1.55794e-07
4.28686e-05
0.000155538
2.63927e-05
0.000109768
1.15929e-05
6.90767e-05
3.86612e-07
3.93667e-05
-7.50235e-06
2.09027e-05
-1.31552e-05
1.06546e-05
-1.74739e-05
5.33541e-06
-2.10176e-05
2.49371e-06
-2.40295e-05
5.76545e-07
-2.65413e-05
-1.2382e-06
-2.84763e-05
-3.29303e-06
-2.97156e-05
-5.65365e-06
-3.01334e-05
-8.23722e-06
-2.96237e-05
-1.08697e-05
-2.8127e-05
-1.33143e-05
-2.56629e-05
-1.52918e-05
-2.2349e-05
-1.65274e-05
-1.84045e-05
-1.67985e-05
-1.41505e-05
-1.59682e-05
-9.97395e-06
-1.40516e-05
-6.26026e-06
-1.12531e-05
-3.31707e-06
-7.95144e-06
-1.31459e-06
-4.64151e-06
-2.61582e-07
-1.85287e-06
-1.05787e-07
5.30079e-05
0.000169028
3.63419e-05
0.000126434
2.01187e-05
8.52999e-05
6.9094e-06
5.25759e-05
-2.76823e-06
3.05804e-05
-9.8035e-06
1.76898e-05
-1.52187e-05
1.07506e-05
-1.97173e-05
6.99232e-06
-2.36544e-05
4.51358e-06
-2.71176e-05
2.22504e-06
-3.00398e-05
-3.70822e-07
-3.22772e-05
-3.4163e-06
-3.36634e-05
-6.85102e-06
-3.4032e-05
-1.05011e-05
-3.32356e-05
-1.41107e-05
-3.12001e-05
-1.73272e-05
-2.79776e-05
-1.97499e-05
-2.37372e-05
-2.10388e-05
-1.88037e-05
-2.09017e-05
-1.36505e-05
-1.92048e-05
-8.82271e-06
-1.60808e-05
-4.82189e-06
-1.19523e-05
-1.98884e-06
-7.47453e-06
-4.29141e-07
-3.41256e-06
-5.34927e-07
6.40304e-05
0.000181239
4.76574e-05
0.000142807
3.03874e-05
0.00010257
1.5233e-05
6.77304e-05
3.54174e-06
4.22716e-05
-5.04216e-06
2.62737e-05
-1.15862e-05
1.72946e-05
-1.69691e-05
1.23752e-05
-2.17086e-05
9.25298e-06
-2.60008e-05
6.51723e-06
-2.98264e-05
3.45477e-06
-3.30473e-05
-1.95409e-07
-3.54699e-05
-4.42837e-06
-3.68906e-05
-9.08041e-06
-3.71089e-05
-1.38925e-05
-3.59097e-05
-1.85264e-05
-3.32255e-05
-2.24341e-05
-2.9134e-05
-2.51303e-05
-2.38663e-05
-2.61694e-05
-1.79128e-05
-2.51582e-05
-1.19607e-05
-2.2033e-05
-6.74875e-06
-1.71642e-05
-2.87785e-06
-1.13454e-05
-6.46368e-07
-5.64404e-06
-1.1813e-06
7.58055e-05
0.000191735
6.02954e-05
0.000158317
4.25275e-05
0.000120338
2.56795e-05
8.45784e-05
1.18509e-05
5.61002e-05
1.45154e-06
3.66731e-05
-6.33252e-06
2.50787e-05
-1.25596e-05
1.86023e-05
-1.79522e-05
1.46456e-05
-2.28742e-05
1.14392e-05
-2.74092e-05
7.98968e-06
-3.14689e-05
3.86432e-06
-3.48641e-05
-1.03323e-06
-3.73548e-05
-6.58964e-06
-3.86956e-05
-1.25516e-05
-3.86742e-05
-1.85478e-05
-3.70716e-05
-2.40367e-05
-3.37297e-05
-2.84722e-05
-2.86979e-05
-3.12012e-05
-2.23768e-05
-3.14793e-05
-1.55151e-05
-2.88947e-05
-9.07954e-06
-2.35997e-05
-4.01667e-06
-1.64083e-05
-9.48748e-07
-8.71196e-06
-2.13004e-06
8.8041e-05
0.000200109
7.40392e-05
0.000172319
5.6496e-05
0.000137881
3.84517e-05
0.000102623
2.25569e-05
7.1995e-05
1.00659e-05
4.91641e-05
7.60889e-07
3.43837e-05
-6.37861e-06
2.57418e-05
-1.2326e-05
2.05929e-05
-1.76676e-05
1.67809e-05
-2.26547e-05
1.29768e-05
-2.7306e-05
8.51562e-06
-3.15041e-05
3.16479e-06
-3.50368e-05
-3.05686e-06
-3.76276e-05
-9.96087e-06
-3.89766e-05
-1.71988e-05
-3.86799e-05
-2.43334e-05
-3.65371e-05
-3.06151e-05
-3.24165e-05
-3.53218e-05
-2.63886e-05
-3.75073e-05
-1.91068e-05
-3.61765e-05
-1.16639e-05
-3.10426e-05
-5.3769e-06
-2.26953e-05
-1.33445e-06
-1.27544e-05
-3.46449e-06
0.000100382
0.000205959
8.85341e-05
0.000184167
7.20513e-05
0.000154364
5.35614e-05
0.000121113
3.5952e-05
8.96044e-05
2.124e-05
6.3876e-05
1.00086e-05
4.5615e-05
1.6509e-06
3.40995e-05
-4.90802e-06
2.71518e-05
-1.05373e-05
2.24102e-05
-1.57203e-05
1.81597e-05
-2.06344e-05
1.34298e-05
-2.52734e-05
7.80372e-06
-2.95152e-05
1.18502e-06
-3.31497e-05
-6.32639e-06
-3.58586e-05
-1.449e-05
-3.72386e-05
-2.29535e-05
-3.67783e-05
-3.10753e-05
-3.41068e-05
-3.79933e-05
-2.91297e-05
-4.24844e-05
-2.21566e-05
-4.31496e-05
-1.4198e-05
-3.90012e-05
-6.85412e-06
-3.00392e-05
-1.78604e-06
-1.78225e-05
-5.25054e-06
0.000112357
0.00020882
0.000103273
0.00019325
8.87366e-05
0.0001689
7.07634e-05
0.000139086
5.21272e-05
0.000108241
3.5352e-05
8.06513e-05
2.18658e-05
5.91012e-05
1.17612e-05
4.42041e-05
4.21627e-06
3.46968e-05
-1.81289e-06
2.84393e-05
-7.10436e-06
2.34512e-05
-1.20735e-05
1.83989e-05
-1.68669e-05
1.25971e-05
-2.14752e-05
5.79332e-06
-2.5777e-05
-2.02456e-06
-2.95256e-05
-1.07414e-05
-3.23637e-05
-2.01154e-05
-3.37463e-05
-2.96928e-05
-3.3079e-05
-3.86606e-05
-2.98693e-05
-4.56941e-05
-2.40369e-05
-4.8982e-05
-1.62778e-05
-4.67603e-05
-8.27357e-06
-3.80435e-05
-2.2653e-06
-2.38308e-05
-7.51584e-06
0.000123318
0.000208592
0.000117564
0.000199004
0.000105845
0.000180619
8.94908e-05
0.00015544
7.08519e-05
0.000126879
5.25911e-05
9.89121e-05
3.68087e-05
7.48836e-05
2.44458e-05
5.6567e-05
1.52662e-05
4.38764e-05
8.356e-06
3.53495e-05
2.73843e-06
2.90687e-05
-2.2895e-06
2.34268e-05
-7.10605e-06
1.74136e-05
-1.18541e-05
1.05414e-05
-1.65236e-05
2.64494e-06
-2.0986e-05
-6.27893e-06
-2.49627e-05
-1.61387e-05
-2.7982e-05
-2.66735e-05
-2.93476e-05
-3.72949e-05
-2.82674e-05
-4.67743e-05
-2.42693e-05
-5.29801e-05
-1.7505e-05
-5.35245e-05
-9.42792e-06
-4.61206e-05
-2.73181e-06
-3.05269e-05
-1.02476e-05
0.00013273
0.00020515
0.000130794
0.00020094
0.000122572
0.000188842
0.000108903
0.000169109
9.14992e-05
0.000144283
7.27754e-05
0.000117636
5.51518e-05
9.25073e-05
4.03195e-05
7.13993e-05
2.88466e-05
5.53492e-05
2.03056e-05
4.38905e-05
1.37771e-05
3.55972e-05
8.35616e-06
2.88478e-05
3.40594e-06
2.23638e-05
-1.42357e-06
1.53709e-05
-6.27225e-06
7.49361e-06
-1.11394e-05
-1.41181e-06
-1.58737e-05
-1.14044e-05
-2.01287e-05
-2.24185e-05
-2.32902e-05
-3.41334e-05
-2.44387e-05
-4.56258e-05
-2.26211e-05
-5.47977e-05
-1.75863e-05
-5.85592e-05
-1.01351e-05
-5.35718e-05
-3.13845e-06
-3.75235e-05
-1.33861e-05
0.000140095
0.00019801
0.00014197
0.000199065
0.000137903
0.000192909
0.000127913
0.000179099
0.000113052
0.000159144
9.52285e-05
0.000135459
7.67843e-05
0.000110951
5.98486e-05
8.8335e-05
4.57632e-05
6.94347e-05
3.48446e-05
5.48091e-05
2.65854e-05
4.38565e-05
2.01147e-05
3.53184e-05
1.46087e-05
2.78698e-05
9.487e-06
2.04926e-05
4.42447e-06
1.25561e-05
-7.04051e-07
3.7167e-06
-5.90412e-06
-6.20435e-06
-1.09909e-05
-1.73318e-05
-1.55294e-05
-2.95949e-05
-1.86886e-05
-4.24666e-05
-1.91801e-05
-5.43063e-05
-1.6399e-05
-6.13403e-05
-1.0296e-05
-5.96749e-05
-3.41327e-06
-4.44062e-05
-1.67994e-05
0.000144526
0.000186877
0.000150344
0.000193247
0.000150763
0.00019249
0.000145232
0.000184631
0.000134135
0.00017024
0.000118736
0.000150859
0.00010096
0.000128728
8.29704e-05
0.000106324
6.6619e-05
8.57861e-05
5.2983e-05
6.84451e-05
4.22362e-05
5.46033e-05
3.38753e-05
4.36793e-05
2.71158e-05
3.46293e-05
2.12238e-05
2.63846e-05
1.56729e-05
1.8107e-05
1.0158e-05
9.23157e-06
4.55383e-06
-6.00146e-07
-1.13013e-06
-1.16478e-05
-6.67265e-06
-2.40524e-05
-1.15141e-05
-3.76252e-05
-1.4505e-05
-5.13154e-05
-1.40829e-05
-6.17624e-05
-9.83283e-06
-6.3925e-05
-3.5022e-06
-5.07369e-05
-2.03016e-05
0.000145093
0.000171804
0.000155308
0.000183032
0.000160263
0.000187536
0.000159643
0.00018525
0.00015322
0.000176663
0.000141645
0.000162434
0.000126232
0.000144141
0.000108804
0.000123752
9.13247e-05
0.000103265
7.53919e-05
8.43779e-05
6.18942e-05
6.8101e-05
5.09532e-05
5.46203e-05
4.2133e-05
4.34495e-05
3.47621e-05
3.37555e-05
2.81984e-05
2.46707e-05
2.19616e-05
1.54683e-05
1.57634e-05
5.59808e-06
9.45685e-06
-5.34129e-06
3.0744e-06
-1.76699e-05
-3.10605e-06
-3.14447e-05
-8.31813e-06
-4.61033e-05
-1.06236e-05
-5.9457e-05
-8.78028e-06
-6.57683e-05
-3.62381e-06
-5.58933e-05
-2.39254e-05
0.000141304
0.000153141
0.000155881
0.000168455
0.000165641
0.000177776
0.000169914
0.000180977
0.000168715
0.000177862
0.000162096
0.000169053
0.000150594
0.000155643
0.000135559
0.000138787
0.000118712
0.000120112
0.000101776
0.000101314
8.61188e-05
8.37578e-05
7.2511e-05
6.82281e-05
6.10886e-05
5.48719e-05
5.15206e-05
4.33235e-05
4.32571e-05
3.29342e-05
3.57428e-05
2.29826e-05
2.8527e-05
1.28139e-05
2.13097e-05
1.87599e-06
1.39234e-05
-1.02836e-05
6.44126e-06
-2.39627e-05
-6.71395e-07
-3.89906e-05
-6.11024e-06
-5.40181e-05
-7.51105e-06
-6.43675e-05
-3.85902e-06
-5.95454e-05
-2.77844e-05
0.000132967
0.000131699
0.000151451
0.000149971
0.000165903
0.000163324
0.000175774
0.000171106
0.000180114
0.000173522
0.000178609
0.000170559
0.000171997
0.000162254
0.000160975
0.000149809
0.000146685
0.000134402
0.000130623
0.000117377
0.000114273
0.000100108
9.88145e-05
8.36866e-05
8.49463e-05
6.874e-05
7.28524e-05
5.54174e-05
6.23134e-05
4.34732e-05
5.28913e-05
3.24046e-05
4.40816e-05
2.16237e-05
3.54286e-05
1.0529e-05
2.65668e-05
-1.42181e-06
1.72752e-05
-1.4671e-05
7.68376e-06
-2.93992e-05
-1.27011e-06
-4.50643e-05
-6.87989e-06
-5.87578e-05
-5.13921e-06
-6.12861e-05
-3.29236e-05
0.000120375
0.00010875
0.000141756
0.00012859
0.000160124
0.000144955
0.000174425
0.000156806
0.000184205
0.000163741
0.000188988
0.000165776
0.000188251
0.000162991
0.000182494
0.000155566
0.000172492
0.000144404
0.000159337
0.000130532
0.000144312
0.000115133
0.00012867
9.93281e-05
0.000113447
8.3963e-05
9.92975e-05
6.95671e-05
8.64491e-05
5.63217e-05
7.47725e-05
4.40812e-05
6.39017e-05
3.24945e-05
5.33318e-05
2.10989e-05
4.25088e-05
9.40119e-06
3.08823e-05
-3.04457e-06
1.80435e-05
-1.65605e-05
4.15465e-06
-3.11754e-05
-8.66975e-06
-4.59334e-05
-1.38451e-05
-5.61107e-05
-4.67687e-05
0.000102555
8.62493e-05
0.000124996
0.000106149
0.000145876
0.000124075
0.000163897
0.000138785
0.000178166
0.000149472
0.000188088
0.000155853
0.000193334
0.000157745
0.000193547
0.000155354
0.000189134
0.000148818
0.000180788
0.000138878
0.000169325
0.000126596
0.000155828
0.000112825
0.000141378
9.84123e-05
0.000126859
8.40862e-05
0.000112848
7.03329e-05
9.95786e-05
5.73504e-05
8.69816e-05
4.50915e-05
7.4724e-05
3.33565e-05
6.22544e-05
2.18708e-05
4.88365e-05
1.03733e-05
3.35816e-05
-1.3056e-06
1.54836e-05
-1.30774e-05
-5.93771e-06
-2.4512e-05
-2.83957e-05
-3.36527e-05
-3.07899e-05
-4.43745e-05
8.56067e-05
6.51388e-05
0.000108015
8.37403e-05
0.000130329
0.000101762
0.000151157
0.000117957
0.000169346
0.000131284
0.000184097
0.000141102
0.000194793
0.000147049
0.000201311
0.000148836
0.000203006
0.000147122
0.000199889
0.000141995