/*--------------------------------*- C++ -*----------------------------------*\
| =========                 |                                                 |
| \\      /  F ield         | OpenFOAM: The Open Source CFD Toolbox           |
|  \\    /   O peration     | Version:  v2012                                 |
|   \\  /    A nd           | Website:  www.openfoam.com                      |
|    \\/     M anipulation  |                                                 |
\*---------------------------------------------------------------------------*/
FoamFile
{
    version     2.0;
    format      ascii;
    class       volVectorField;
    location    "2000";
    object      U;
}
// * * * * * * * * * * * * * * * * * * * * * * * * * * * * * * * * * * * * * //

dimensions      [0 1 -1 0 0 0 0];


internalField   nonuniform List<vector> 
6502
(
(0.0235904 -0.93005 0)
(0.0438555 -1.00836 0)
(0.0249977 -1.00585 0)
(0.0114516 -1.00323 0)
(0.00349253 -1.00261 0)
(-0.00330664 -1.00261 0)
(-0.0112804 -1.00324 0)
(-0.0248527 -1.00586 0)
(-0.0437594 -1.00838 0)
(-0.0235291 -0.930087 0)
(0.0592538 -0.867434 0)
(0.0894434 -1.04618 0)
(0.0520897 -1.03214 0)
(0.0278024 -1.02039 0)
(0.00926469 -1.01674 0)
(-0.00867823 -1.01676 0)
(-0.027247 -1.02044 0)
(-0.0515988 -1.03221 0)
(-0.0890266 -1.0462 0)
(-0.0591108 -0.867696 0)
(0.069932 -0.775293 0)
(0.0874071 -1.06976 0)
(0.0614899 -1.06673 0)
(0.0351898 -1.0512 0)
(0.0121288 -1.04438 0)
(-0.0110858 -1.04442 0)
(-0.0341929 -1.05132 0)
(-0.060582 -1.06696 0)
(-0.0867814 -1.07017 0)
(-0.0696215 -0.776023 0)
(0.0619441 -0.670877 0)
(0.0848722 -1.07145 0)
(0.0649471 -1.09836 0)
(0.0380215 -1.08491 0)
(0.0132301 -1.07666 0)
(-0.0116293 -1.07674 0)
(-0.0364788 -1.08512 0)
(-0.0635264 -1.09877 0)
(-0.0838298 -1.07228 0)
(-0.0615949 -0.672387 0)
(0.0444089 -0.580063 0)
(0.0793934 -1.06279 0)
(0.0639781 -1.12481 0)
(0.0381874 -1.11711 0)
(0.0134869 -1.1087 0)
(-0.0111975 -1.10883 0)
(-0.0359934 -1.1175 0)
(-0.0620146 -1.12569 0)
(-0.0778905 -1.06448 0)
(-0.0441567 -0.582658 0)
(0.0254791 -0.514051 0)
(0.0699844 -1.04582 0)
(0.0579463 -1.14796 0)
(0.0360612 -1.14673 0)
(0.0131868 -1.13914 0)
(-0.00998855 -1.13935 0)
(-0.0330183 -1.14738 0)
(-0.0553393 -1.14891 0)
(-0.0680039 -1.04877 0)
(-0.0251696 -0.517906 0)
(0.011349 -0.466477 0)
(0.0584254 -1.02329 0)
(0.0502534 -1.16593 0)
(0.033231 -1.17252 0)
(0.0127893 -1.16709 0)
(-0.00835194 -1.1674 0)
(-0.0289762 -1.1736 0)
(-0.0465538 -1.16802 0)
(-0.0559604 -1.028 0)
(-0.0108762 -0.471951 0)
(0.00407627 -0.431348 0)
(0.0466574 -0.998153 0)
(0.0440834 -1.17465 0)
(0.0308453 -1.19451 0)
(0.0125629 -1.19206 0)
(-0.00655282 -1.1925 0)
(-0.0250784 -1.19607 0)
(-0.038944 -1.17806 0)
(-0.0436468 -1.00531 0)
(-0.00325687 -0.438866 0)
(0.00117338 -0.405877 0)
(0.0362378 -0.972975 0)
(0.0391609 -1.17968 0)
(0.0288218 -1.21325 0)
(0.0125725 -1.21425 0)
(-0.00452277 -1.21483 0)
(-0.0210993 -1.21542 0)
(-0.0324036 -1.18475 0)
(-0.0324147 -0.983541 0)
(-0.000120797 -0.416014 0)
(0.000218697 -0.387374 0)
(0.0280047 -0.949272 0)
(0.0355297 -1.18108 0)
(0.0268114 -1.22828 0)
(0.0128344 -1.23374 0)
(-0.00227549 -1.23463 0)
(-0.0169216 -1.23181 0)
(-0.0266125 -1.18871 0)
(-0.0230764 -0.964231 0)
(0.00116383 -0.400867 0)
(0.000138951 -0.372967 0)
(0.0225582 -0.927435 0)
(0.0329526 -1.17969 0)
(0.0254742 -1.24275 0)
(0.0136682 -1.25076 0)
(0.000363181 -1.25205 0)
(-0.0123662 -1.24623 0)
(-0.0213985 -1.19068 0)
(-0.015902 -0.948129 0)
(0.0016238 -0.390895 0)
(0.000415518 -0.360859 0)
(0.0189658 -0.90726 0)
(0.0309771 -1.17631 0)
(0.0255737 -1.25232 0)
(0.0154772 -1.26566 0)
(0.00347143 -1.2675 0)
(-0.00764021 -1.25927 0)
(-0.0162617 -1.19179 0)
(-0.010222 -0.93533 0)
(0.00181406 -0.384549 0)
(0.000869078 -0.349991 0)
(0.017012 -0.888297 0)
(0.0299262 -1.17128 0)
(0.0267183 -1.26007 0)
(0.0179631 -1.27897 0)
(0.00696492 -1.28153 0)
(-0.00299295 -1.26983 0)
(-0.010828 -1.19297 0)
(-0.00547933 -0.925939 0)
(0.00196406 -0.381159 0)
(0.00140208 -0.339522 0)
(0.0163971 -0.869822 0)
(0.0301859 -1.16449 0)
(0.0288859 -1.26625 0)
(0.0213296 -1.29095 0)
(0.0112308 -1.29449 0)
(0.0020511 -1.27932 0)
(-0.00517632 -1.19479 0)
(-0.00129833 -0.920017 0)
(0.00216173 -0.380402 0)
(0.00192944 -0.328793 0)
(0.016813 -0.851149 0)
(0.0313322 -1.15582 0)
(0.0323202 -1.27056 0)
(0.0256847 -1.30128 0)
(0.016607 -1.30637 0)
(0.00800143 -1.28849 0)
(0.000930843 -1.19756 0)
(0.00278738 -0.917602 0)
(0.00266271 -0.382289 0)
(0.002446 -0.317283 0)
(0.0180571 -0.831562 0)
(0.0335607 -1.14513 0)
(0.0370999 -1.27287 0)
(0.0313836 -1.31126 0)
(0.023451 -1.31717 0)
(0.0153572 -1.29741 0)
(0.00810815 -1.20173 0)
(0.00732652 -0.918966 0)
(0.00341303 -0.387076 0)
(0.00292708 -0.304617 0)
(0.0199834 -0.81042 0)
(0.036697 -1.1321 0)
(0.0430364 -1.27297 0)
(0.03905 -1.31869 0)
(0.0323443 -1.32686 0)
(0.0247527 -1.30623 0)
(0.0170396 -1.20786 0)
(0.0130329 -0.924809 0)
(0.00479952 -0.395557 0)
(0.00339645 -0.290452 0)
(0.0224333 -0.786966 0)
(0.0413332 -1.11616 0)
(0.0504054 -1.27037 0)
(0.0488666 -1.3239 0)
(0.0436312 -1.33544 0)
(0.036885 -1.31492 0)
(0.0286728 -1.2163 0)
(0.0210231 -0.936015 0)
(0.00711331 -0.408871 0)
(0.00383558 -0.274511 0)
(0.0252692 -0.760415 0)
(0.0471757 -1.09653 0)
(0.0594998 -1.26432 0)
(0.0610167 -1.32672 0)
(0.0575933 -1.34201 0)
(0.0523555 -1.3229 0)
(0.0443 -1.227 0)
(0.032548 -0.954049 0)
(0.0108452 -0.431404 0)
(0.00419586 -0.256633 0)
(0.0282959 -0.730064 0)
(0.0538794 -1.07237 0)
(0.0701501 -1.25398 0)
(0.0752631 -1.32639 0)
(0.0743952 -1.34717 0)
(0.0720315 -1.32901 0)
(0.0665403 -1.23829 0)
(0.0530993 -0.976991 0)
(0.0312443 -0.452579 0)
(0.00420517 -0.236809 0)
(0.0312555 -0.695254 0)
(0.0610007 -1.04272 0)
(0.0819409 -1.23843 0)
(0.0911612 -1.32183 0)
(0.0937991 -1.34638 0)
(0.0953179 -1.33091 0)
(0.0949452 -1.24604 0)
(0.0862335 -0.999051 0)
(0.0774167 -0.53425 0)
(0.00361892 -0.215404 0)
(0.0338167 -0.65569 0)
(0.0679636 -1.00687 0)
(0.0941173 -1.21682 0)
(0.107975 -1.31232 0)
(0.113929 -1.34264 0)
(0.117888 -1.32822 0)
(0.119791 -1.24851 0)
(0.111455 -1.0146 0)
(0.0886326 -0.59142 0)
(0.00297515 -0.19305 0)
(0.0356392 -0.611577 0)
(0.0741261 -0.964602 0)
(0.105691 -1.18874 0)
(0.124271 -1.29758 0)
(0.133249 -1.33492 0)
(0.138714 -1.32304 0)
(0.140836 -1.25027 0)
(0.131514 -1.03479 0)
(0.101592 -0.654149 0)
(0.00264398 -0.170299 0)
(0.0365706 -0.563523 0)
(0.0791342 -0.916 0)
(0.11621 -1.15409 0)
(0.139738 -1.27769 0)
(0.152063 -1.32413 0)
(0.159027 -1.31688 0)
(0.161676 -1.25392 0)
(0.15202 -1.06157 0)
(0.1195 -0.722647 0)
(0.00241952 -0.147632 0)
(0.0366758 -0.51241 0)
(0.082895 -0.861345 0)
(0.125593 -1.11263 0)
(0.154548 -1.2525 0)
(0.170835 -1.31021 0)
(0.179367 -1.31034 0)
(0.183075 -1.25747 0)
(0.173839 -1.08995 0)
(0.140426 -0.788916 0)
(0.00224424 -0.125454 0)
(0.0360714 -0.459137 0)
(0.0853344 -0.800964 0)
(0.133661 -1.06396 0)
(0.168526 -1.22122 0)
(0.189311 -1.29233 0)
(0.200084 -1.303 0)
(0.205037 -1.25928 0)
(0.196929 -1.11686 0)
(0.164212 -0.851334 0)
(0.00208681 -0.104111 0)
(0.0348246 -0.404642 0)
(0.0863272 -0.735347 0)
(0.140115 -1.00769 0)
(0.181403 -1.18284 0)
(0.207523 -1.26975 0)
(0.221251 -1.29197 0)
(0.227946 -1.2591 0)
(0.22159 -1.14169 0)
(0.190928 -0.910455 0)
(0.00192758 -0.0839184 0)
(0.0329746 -0.34995 0)
(0.0857286 -0.665267 0)
(0.144492 -0.943706 0)
(0.192636 -1.13645 0)
(0.225062 -1.24265 0)
(0.242628 -1.27789 0)
(0.251951 -1.25662 0)
(0.248008 -1.16377 0)
(0.220382 -0.965791 0)
(0.00175753 -0.0651721 0)
(0.0305685 -0.296176 0)
(0.0834326 -0.591844 0)
(0.146333 -0.87228 0)
(0.201391 -1.08141 0)
(0.240983 -1.20696 0)
(0.264154 -1.25906 0)
(0.276285 -1.24989 0)
(0.275559 -1.18193 0)
(0.252194 -1.01642 0)
(0.00158166 -0.048131 0)
(0.0277114 -0.244448 0)
(0.0794852 -0.516504 0)
(0.145429 -0.794086 0)
(0.207225 -1.01725 0)
(0.254702 -1.16274 0)
(0.285054 -1.23385 0)
(0.300691 -1.24181 0)
(0.303804 -1.19344 0)
(0.285863 -1.06037 0)
(0.00140366 -0.0330026 0)
(0.0245325 -0.195796 0)
(0.0740257 -0.440868 0)
(0.141599 -0.710172 0)
(0.209527 -0.943668 0)
(0.265243 -1.10876 0)
(0.303839 -1.2006 0)
(0.325056 -1.22849 0)
(0.33313 -1.19883 0)
(0.321245 -1.09712 0)
(0.0013595 -0.0198553 0)
(0.0211376 -0.151097 0)
(0.0672636 -0.366728 0)
(0.134749 -0.622127 0)
(0.207637 -0.860991 0)
(0.271598 -1.04399 0)
(0.319273 -1.1577 0)
(0.34828 -1.20667 0)
(0.362016 -1.195 0)
(0.357048 -1.12563 0)
(0.00215967 -0.00857009 0)
(0.0177163 -0.111018 0)
(0.0595457 -0.29597 0)
(0.125047 -0.532104 0)
(0.201141 -0.770355 0)
(0.272838 -0.967955 0)
(0.330208 -1.10349 0)
(0.368909 -1.17504 0)
(0.389388 -1.18686 0)
(0.392214 -1.14243 0)
(0.00249226 0.000898465 0)
(0.0143358 -0.0762372 0)
(0.0512542 -0.230459 0)
(0.112896 -0.442678 0)
(0.189945 -0.673677 0)
(0.268091 -0.880935 0)
(0.33521 -1.03662 0)
(0.384696 -1.13161 0)
(0.41445 -1.16756 0)
(0.425977 -1.14745 0)
(0.0015396 0.00833035 0)
(0.0111178 -0.0467092 0)
(0.0427866 -0.171541 0)
(0.0989189 -0.356559 0)
(0.174375 -0.573644 0)
(0.25684 -0.784197 0)
(0.332993 -0.956504 0)
(0.393862 -1.0746 0)
(0.43503 -1.13555 0)
(0.456369 -1.13974 0)
(0.000342599 0.0135839 0)
(0.00759007 -0.0224141 0)
(0.0344271 -0.120023 0)
(0.0839241 -0.276295 0)
(0.155238 -0.473574 0)
(0.239177 -0.680154 0)
(0.322647 -0.863681 0)
(0.394678 -1.0027 0)
(0.448685 -1.08864 0)
(0.481756 -1.12071 0)
(0.000198047 0.0169591 0)
(0.00515772 -0.00296225 0)
(0.0269765 -0.076067 0)
(0.0689874 -0.203961 0)
(0.133801 -0.377078 0)
(0.215878 -0.572304 0)
(0.303834 -0.760048 0)
(0.385645 -0.915674 0)
(0.4526 -1.02519 0)
(0.499492 -1.08406 0)
(0.00034847 0.0194433 0)
(0.0044063 0.0123814 0)
(0.020678 -0.0402801 0)
(0.0549847 -0.141408 0)
(0.111503 -0.287754 0)
(0.188366 -0.464983 0)
(0.27712 -0.649015 0)
(0.366107 -0.814936 0)
(0.444978 -0.944678 0)
(0.506489 -1.0291 0)
(-0.000977892 0.0210952 0)
(0.0029067 0.0236596 0)
(0.0147404 -0.0124596 0)
(0.0421274 -0.089511 0)
(0.0896143 -0.208546 0)
(0.158526 -0.362798 0)
(0.244062 -0.535245 0)
(0.336455 -0.703623 0)
(0.424847 -0.847954 0)
(0.500223 -0.954991 0)
(-0.00175367 0.0215716 0)
(0.00104739 0.0314904 0)
(0.00947055 0.00907021 0)
(0.0307802 -0.0475227 0)
(0.0692992 -0.140988 0)
(0.128466 -0.269792 0)
(0.207037 -0.424058 0)
(0.298285 -0.586499 0)
(0.392326 -0.737873 0)
(0.479161 -0.86236 0)
(-0.00100758 0.0213437 0)
(0.000465311 0.0366947 0)
(0.00598917 0.0250128 0)
(0.0216334 -0.0146442 0)
(0.0515767 -0.0855633 0)
(0.100182 -0.188924 0)
(0.168881 -0.320658 0)
(0.254384 -0.469498 0)
(0.349119 -0.619384 0)
(0.443443 -0.754119 0)
(-0.000494937 0.0210559 0)
(-0.000125979 0.0396859 0)
(0.00335049 0.036021 0)
(0.0141833 0.0096658 0)
(0.0366996 -0.0421002 0)
(0.0750533 -0.12184 0)
(0.132318 -0.229305 0)
(0.208288 -0.358794 0)
(0.298484 -0.498935 0)
(0.395035 -0.635422 0)
(-0.000443318 0.0202981 0)
(-0.00164902 0.0410127 0)
(0.000693907 0.0433134 0)
(0.00809328 0.0272743 0)
(0.0245606 -0.00911209 0)
(0.0538109 -0.0684972 0)
(0.0995 -0.152553 0)
(0.163581 -0.259691 0)
(0.24467 -0.38348 0)
(0.337648 -0.513192 0)
(-0.000344774 0.0189957 0)
(-0.00208423 0.0409966 0)
(-0.000700269 0.0478366 0)
(0.00392634 0.0395574 0)
(0.0155149 0.0149625 0)
(0.0370872 -0.0280096 0)
(0.0721558 -0.0915716 0)
(0.123695 -0.176447 0)
(0.192684 -0.280184 0)
(0.276969 -0.396243 0)
(-0.000257902 0.0177999 0)
(-0.00155121 0.0403786 0)
(-0.00113442 0.0502346 0)
(0.00150354 0.0476046 0)
(0.00933866 0.0319091 0)
(0.0247762 0.00167393 0)
(0.0507888 -0.0450665 0)
(0.0905228 -0.109935 0)
(0.146273 -0.192921 0)
(0.218337 -0.291113 0)
(-0.000239296 0.0168554 0)
(-0.00135816 0.039533 0)
(-0.00169857 0.0514064 0)
(0.000120574 0.0528147 0)
(0.00534992 0.0436701 0)
(0.0161882 0.023045 0)
(0.0349448 -0.0104936 0)
(0.0644436 -0.0585883 0)
(0.107408 -0.122328 0)
(0.165646 -0.201225 0)
(-0.0001811 0.0160166 0)
(-0.00103813 0.0386091 0)
(-0.00170913 0.051951 0)
(-0.000390062 0.0562417 0)
(0.00307408 0.051796 0)
(0.0105923 0.038154 0)
(0.02389 0.014446 0)
(0.0451766 -0.0204973 0)
(0.0770163 -0.0679882 0)
(0.121771 -0.128717 0)
(-8.903e-05 0.015437 0)
(-0.000650303 0.0378486 0)
(-0.00107735 0.0521148 0)
(-0.000429114 0.0584691 0)
(0.00170402 0.0573093 0)
(0.0068208 0.0486993 0)
(0.0161685 0.0321697 0)
(0.0313726 0.00698543 0)
(0.0544068 -0.0277985 0)
(0.0875158 -0.0731729 0)
(-4.98255e-05 0.0150891 0)
(-0.000541559 0.0372953 0)
(-0.00109399 0.0520084 0)
(-0.0011574 0.0596788 0)
(0.000168014 0.0609351 0)
(0.00345295 0.0560113 0)
(0.00998578 0.0447374 0)
(0.0208559 0.0267069 0)
(0.037496 0.001312 0)
(0.0615774 -0.0321561 0)
(-3.58972e-05 0.014748 0)
(-0.000679092 0.0365259 0)
(-0.00162402 0.0513439 0)
(-0.00254453 0.0599702 0)
(-0.00212307 0.0629439 0)
(-0.00054789 0.0608699 0)
(0.00378436 0.0536097 0)
(0.0114473 0.040941 0)
(0.023526 0.0224663 0)
(0.0411383 -0.00223765 0)
(-4.93434e-05 0.0142509 0)
(-0.00106957 0.0352432 0)
(-0.00271664 0.0497913 0)
(-0.00451587 0.0589353 0)
(-0.00582724 0.0633237 0)
(-0.00564005 0.0633738 0)
(-0.00347385 0.059453 0)
(0.00149659 0.0510576 0)
(0.0100459 0.0379473 0)
(0.0229728 0.0198041 0)
(-0.000102535 0.013419 0)
(-0.00172671 0.0331133 0)
(-0.00434161 0.0469717 0)
(-0.00746009 0.0561859 0)
(-0.0103894 0.0615953 0)
(-0.0120177 0.0637137 0)
(-0.0122408 0.0623534 0)
(-0.00985058 0.0575981 0)
(-0.00446828 0.0489424 0)
(0.00459425 0.0360864 0)
(-0.000180784 0.0121017 0)
(-0.00252781 0.0298742 0)
(-0.00622685 0.0426119 0)
(-0.0107684 0.0515621 0)
(-0.0153399 0.0575796 0)
(-0.0191932 0.0610722 0)
(-0.0218074 0.0622424 0)
(-0.022477 0.0604839 0)
(-0.020336 0.0557295 0)
(-0.0150513 0.0474301 0)
(-0.00026803 0.010247 0)
(-0.00331132 0.0254696 0)
(-0.00802729 0.0366657 0)
(-0.0139181 0.0449693 0)
(-0.0201629 0.0511599 0)
(-0.0261427 0.0556186 0)
(-0.03123 0.0584014 0)
(-0.0349865 0.0594134 0)
(-0.0365942 0.0579543 0)
(-0.0354264 0.0537012 0)
(-0.000334976 0.007934 0)
(-0.00385246 0.0200973 0)
(-0.00926116 0.0293835 0)
(-0.016124 0.0366402 0)
(-0.0236879 0.0425141 0)
(-0.0314567 0.0473615 0)
(-0.0389393 0.0512344 0)
(-0.0456266 0.0539364 0)
(-0.0509011 0.0551337 0)
(-0.0542064 0.054407 0)
(-0.000352434 0.00539547 0)
(-0.00394828 0.0142473 0)
(-0.00949708 0.0213815 0)
(-0.0166737 0.0272381 0)
(-0.0248592 0.0322801 0)
(-0.0337104 0.0368228 0)
(-0.0428948 0.0409646 0)
(-0.0520215 0.0445816 0)
(-0.0605993 0.0473488 0)
(-0.0680091 0.0488497 0)
(-0.00028769 0.00297838 0)
(-0.00348411 0.00861689 0)
(-0.00849158 0.013539 0)
(-0.0151471 0.0177576 0)
(-0.0230024 0.0215364 0)
(-0.0318671 0.0251321 0)
(-0.0415773 0.0286791 0)
(-0.0519195 0.0321502 0)
(-0.0625818 0.0353519 0)
(-0.0731177 0.0379642 0)
(-0.00017691 0.00103992 0)
(-0.00248014 0.00395943 0)
(-0.00628754 0.00683441 0)
(-0.0115801 0.00936988 0)
(-0.0180705 0.0116675 0)
(-0.0256754 0.0139135 0)
(-0.0343574 0.0162435 0)
(-0.0440686 0.0186991 0)
(-0.054705 0.0212202 0)
(-0.0660607 0.0236684 0)
(-7.74905e-05 -8.62395e-05 0)
(-0.00110042 0.00097929 0)
(-0.00327904 0.00224228 0)
(-0.00658937 0.00334309 0)
(-0.0108471 0.00430251 0)
(-0.0160037 0.00523517 0)
(-0.0220742 0.0062317 0)
(-0.0291029 0.00734355 0)
(-0.03713 0.00857474 0)
(-0.0461582 0.00989206 0)
(0.000117346 -0.000152249 0)
(0.000141679 -6.98339e-06 0)
(-0.00045248 0.000112951 0)
(-0.00156116 0.000174032 0)
(-0.00307007 0.000190597 0)
(-0.0049408 0.000227146 0)
(-0.00719205 0.000301491 0)
(-0.00987192 0.000433411 0)
(-0.0130401 0.000589213 0)
(-0.0167483 0.000751014 0)
(-0.0102145 -0.118734 0)
(-0.0699492 -0.00998441 0)
(-0.0686151 0.0112259 0)
(-0.0526587 0.0110944 0)
(-0.0413871 0.00643162 0)
(-0.0325052 0.00347573 0)
(-0.0258362 0.00225354 0)
(-0.0208041 0.00154165 0)
(-0.0168236 0.00108976 0)
(-0.0135799 0.000806562 0)
(-0.010843 0.000629591 0)
(-0.00845548 0.00051257 0)
(-0.00632501 0.000405713 0)
(-0.00442289 0.00032386 0)
(-0.00273849 0.000288403 0)
(-0.00125216 0.000371097 0)
(-2.97748e-05 0.000307374 0)
(0.000915425 0.000189833 0)
(0.00154316 0.0001866 0)
(0.00179442 -5.23747e-05 0)
(0.00171232 -0.000290172 0)
(0.00138085 -0.000294734 0)
(0.000909931 -0.00024877 0)
(0.000411174 -0.000178921 0)
(5.01628e-05 -7.52114e-05 0)
(6.45471e-05 -0.19525 0)
(-0.0635086 -0.031594 0)
(-0.0790666 0.0124639 0)
(-0.0776258 0.0208983 0)
(-0.0702184 0.0203731 0)
(-0.0617545 0.0168127 0)
(-0.0533036 0.0134403 0)
(-0.045749 0.0107692 0)
(-0.0391013 0.00880289 0)
(-0.0331882 0.00740932 0)
(-0.0278317 0.00643572 0)
(-0.022892 0.00573544 0)
(-0.0182831 0.00517886 0)
(-0.0139793 0.00466001 0)
(-0.0100087 0.00407759 0)
(-0.00645279 0.00349791 0)
(-0.00342716 0.00281152 0)
(-0.000998052 0.00198785 0)
(0.000760202 0.00115121 0)
(0.00182745 0.000317483 0)
(0.00227237 -0.000358917 0)
(0.00211846 -0.000860349 0)
(0.00151757 -0.00116751 0)
(0.000769993 -0.00108952 0)
(9.68576e-05 -0.00052128 0)
(0.0268258 -0.283375 0)
(-0.0354364 -0.0855647 0)
(-0.0638722 -0.00607118 0)
(-0.0747354 0.0207456 0)
(-0.075364 0.0266194 0)
(-0.071316 0.0258547 0)
(-0.0658562 0.0229911 0)
(-0.0595665 0.0199997 0)
(-0.0533147 0.017447 0)
(-0.047222 0.015492 0)
(-0.0412781 0.0140539 0)
(-0.0354455 0.0129662 0)
(-0.029713 0.012048 0)
(-0.0241156 0.0111354 0)
(-0.0187423 0.0100961 0)
(-0.0137306 0.00884871 0)
(-0.00923188 0.00734186 0)
(-0.00538987 0.0056165 0)
(-0.00234414 0.00376472 0)
(-0.000175071 0.00189947 0)
(0.00110732 0.000189444 0)
(0.00155129 -0.00118885 0)
(0.00130965 -0.00200707 0)
(0.000771712 -0.00204696 0)
(0.000102583 -0.00109894 0)
(0.0524619 -0.374489 0)
(-0.0102155 -0.149957 0)
(-0.0466729 -0.0393198 0)
(-0.0652672 0.00821119 0)
(-0.072296 0.0254571 0)
(-0.0731221 0.0295435 0)
(-0.0708985 0.0291645 0)
(-0.067433 0.0271525 0)
(-0.0630746 0.0249881 0)
(-0.0582402 0.023223 0)
(-0.0530218 0.0219217 0)
(-0.047428 0.0209468 0)
(-0.0415022 0.0200843 0)
(-0.0353267 0.0191048 0)
(-0.0290443 0.0178116 0)
(-0.0228522 0.0160693 0)
(-0.0169812 0.0138199 0)
(-0.0116765 0.0111092 0)
(-0.00717146 0.00807094 0)
(-0.0036431 0.004912 0)
(-0.00118518 0.00191271 0)
(0.000210313 -0.000604695 0)
(0.000689295 -0.00227919 0)
(0.000510936 -0.00272356 0)
(0.00012498 -0.00154781 0)
(0.0772011 -0.460126 0)
(0.0135195 -0.217448 0)
(-0.0288386 -0.0801856 0)
(-0.0530846 -0.0129172 0)
(-0.065791 0.0167635 0)
(-0.0713573 0.0278218 0)
(-0.0730357 0.0306588 0)
(-0.0726722 0.0306536 0)
(-0.0709129 0.0296949 0)
(-0.0682341 0.0288746 0)
(-0.0646213 0.0284466 0)
(-0.0600561 0.0282936 0)
(-0.0546008 0.0281517 0)
(-0.0483452 0.0277138 0)
(-0.0414643 0.0266962 0)
(-0.0342164 0.0248886 0)
(-0.0269283 0.0221918 0)
(-0.019968 0.0186436 0)
(-0.0137035 0.0144215 0)
(-0.00845047 0.00983249 0)
(-0.00442621 0.0052932 0)
(-0.00171495 0.00129572 0)
(-0.000239407 -0.00162045 0)
(0.000200164 -0.0028832 0)
(0.000209059 -0.0018818 0)
(0.104019 -0.542481 0)
(0.039469 -0.289225 0)
(-0.00885028 -0.127963 0)
(-0.0391243 -0.0411587 0)
(-0.0571308 0.00133162 0)
(-0.0674919 0.0201014 0)
(-0.0732629 0.0274358 0)
(-0.076497 0.0298659 0)
(-0.0781008 0.0307837 0)
(-0.0781311 0.0315892 0)
(-0.0767647 0.0327644 0)
(-0.0739042 0.0342136 0)
(-0.0695253 0.0356054 0)
(-0.063673 0.0365219 0)
(-0.0565085 0.0365476 0)
(-0.0483241 0.0353437 0)
(-0.0395367 0.0327122 0)
(-0.0306568 0.0286433 0)
(-0.0222347 0.023339 0)
(-0.0147877 0.0172096 0)
(-0.00872387 0.0108418 0)
(-0.00428057 0.00494522 0)
(-0.00148874 0.000291626 0)
(-0.000142074 -0.00230381 0)
(0.000132595 -0.00199206 0)
(0.13384 -0.623762 0)
(0.0684887 -0.366269 0)
(0.0140611 -0.183869 0)
(-0.0229413 -0.0770867 0)
(-0.0466138 -0.0207265 0)
(-0.0617572 0.00649028 0)
(-0.0718765 0.0186936 0)
(-0.0790797 0.0242055 0)
(-0.0841932 0.0275051 0)
(-0.0875849 0.0305363 0)
(-0.0891477 0.0339897 0)
(-0.0887123 0.0378361 0)
(-0.0861215 0.041676 0)
(-0.0813063 0.0449426 0)
(-0.0743463 0.0470255 0)
(-0.0655095 0.0473761 0)
(-0.0552642 0.0456071 0)
(-0.0442583 0.0415787 0)
(-0.0332616 0.0354587 0)
(-0.0230675 0.0277432 0)
(-0.0143708 0.0192196 0)
(-0.00765331 0.0108841 0)
(-0.00311739 0.00383653 0)
(-0.000648301 -0.000770512 0)
(-2.84549e-05 -0.00183423 0)
(0.166736 -0.703833 0)
(0.101008 -0.448146 0)
(0.0408337 -0.248738 0)
(-0.00359767 -0.12134 0)
(-0.0335038 -0.0499648 0)
(-0.0538152 -0.0132675 0)
(-0.0683454 0.00448817 0)
(-0.0795413 0.0134625 0)
(-0.0885468 0.0193723 0)
(-0.0956601 0.024951 0)
(-0.100723 0.0312005 0)
(-0.103423 0.0381622 0)
(-0.103428 0.0453708 0)
(-0.100484 0.0520904 0)
(-0.0944962 0.0574583 0)
(-0.0856107 0.0606189 0)
(-0.0742604 0.0608715 0)
(-0.0611687 0.0578078 0)
(-0.0473161 0.0514346 0)
(-0.0338324 0.0422607 0)
(-0.0218147 0.0312813 0)
(-0.0121273 0.0198621 0)
(-0.00525637 0.00956411 0)
(-0.00129842 0.00199045 0)
(-6.45612e-05 -0.00133206 0)
(0.2028 -0.781645 0)
(0.13764 -0.53378 0)
(0.0725736 -0.322496 0)
(0.0203166 -0.175039 0)
(-0.0166707 -0.0871003 0)
(-0.0425831 -0.0395174 0)
(-0.0617012 -0.0153607 0)
(-0.0769464 -0.00259041 0)
(-0.0898365 0.00607362 0)
(-0.100821 0.0143274 0)
(-0.109734 0.0236326 0)
(-0.116144 0.0341931 0)
(-0.119536 0.0455257 0)
(-0.119429 0.0567461 0)
(-0.115468 0.0667169 0)
(-0.107542 0.0741876 0)
(-0.0959179 0.0780031 0)
(-0.0812621 0.0773045 0)
(-0.0646569 0.071715 0)
(-0.0475611 0.0615733 0)
(-0.0315779 0.0480083 0)
(-0.0181376 0.0328163 0)
(-0.00821069 0.0181878 0)
(-0.00226409 0.00639888 0)
(-0.000231959 -0.000315027 0)
(0.241851 -0.855541 0)
(0.178727 -0.621577 0)
(0.11019 -0.404499 0)
(0.0503162 -0.239221 0)
(0.00527656 -0.132907 0)
(-0.0268632 -0.0727048 0)
(-0.0507705 -0.040916 0)
(-0.0699661 -0.0238002 0)
(-0.0865177 -0.0122939 0)
(-0.101202 -0.00145138 0)
(-0.113967 0.0108616 0)
(-0.124343 0.0251476 0)
(-0.131681 0.041006 0)
(-0.135297 0.0574833 0)
(-0.134555 0.0732321 0)
(-0.12895 0.086571 0)
(-0.118396 0.0957557 0)
(-0.103366 0.0993077 0)
(-0.0847874 0.0961763 0)
(-0.0642888 0.0861805 0)
(-0.0439894 0.070336 0)
(-0.0260595 0.05082 0)
(-0.012245 0.0306339 0)
(-0.00366421 0.0130773 0)
(-0.000332595 0.00142223 0)
(0.283544 -0.923591 0)
(0.224193 -0.709182 0)
(0.154183 -0.493223 0)
(0.0876722 -0.314013 0)
(0.034028 -0.188817 0)
(-0.00535812 -0.113444 0)
(-0.0344197 -0.0722479 0)
(-0.0574508 -0.0498337 0)
(-0.0772267 -0.0352578 0)
(-0.095087 -0.0220135 0)
(-0.111277 -0.00700499 0)
(-0.125399 0.0107554 0)
(-0.136769 0.031058 0)
(-0.144575 0.0529962 0)
(-0.14796 0.0752061 0)
(-0.146233 0.0957033 0)
(-0.138442 0.112011 0)
(-0.124879 0.121984 0)
(-0.10599 0.123658 0)
(-0.0831605 0.1158 0)
(-0.0588651 0.098801 0)
(-0.0360551 0.0749157 0)
(-0.0175647 0.0480211 0)
(-0.0055712 0.022845 0)
(-0.000281726 0.00417529 0)
(0.327131 -0.984206 0)
(0.273661 -0.793977 0)
(0.204656 -0.586281 0)
(0.133312 -0.398694 0)
(0.0712386 -0.255875 0)
(0.0234822 -0.162892 0)
(-0.0115775 -0.109661 0)
(-0.0385474 -0.0803217 0)
(-0.0611213 -0.0620378 0)
(-0.081409 -0.0464738 0)
(-0.100198 -0.0292263 0)
(-0.117377 -0.00856175 0)
(-0.132336 0.0156872 0)
(-0.144241 0.0427365 0)
(-0.152068 0.0711912 0)
(-0.154663 0.0993777 0)
(-0.151864 0.124079 0)
(-0.141969 0.142453 0)
(-0.125229 0.151688 0)
(-0.102137 0.148887 0)
(-0.0751811 0.133002 0)
(-0.0478597 0.105683 0)
(-0.0242609 0.071389 0)
(-0.00811422 0.0365926 0)
(-0.000359205 0.00829401 0)
(0.371542 -1.03403 0)
(0.326091 -0.87241 0)
(0.260978 -0.680252 0)
(0.187515 -0.491344 0)
(0.118226 -0.334329 0)
(0.0614654 -0.222788 0)
(0.0189362 -0.154015 0)
(-0.0126567 -0.115239 0)
(-0.0379244 -0.0918803 0)
(-0.0599689 -0.0736733 0)
(-0.0803703 -0.0545752 0)
(-0.0995538 -0.0317736 0)
(-0.117233 -0.00446723 0)
(-0.13275 0.0269503 0)
(-0.145212 0.0612479 0)
(-0.15308 0.0962236 0)
(-0.155882 0.129366 0)
(-0.150673 0.157558 0)
(-0.138646 0.176836 0)
(-0.118093 0.182494 0)
(-0.0908834 0.171128 0)
(-0.0604974 0.14271 0)
(-0.0320788 0.10135 0)
(-0.0113113 0.0551922 0)
(-0.000536301 0.0142312 0)
(0.415439 -1.0724 0)
(0.37995 -0.941423 0)
(0.321835 -0.770999 0)
(0.24973 -0.588658 0)
(0.175651 -0.423181 0)
(0.110246 -0.294338 0)
(0.0588719 -0.207504 0)
(0.0209247 -0.15534 0)
(-0.00770356 -0.124516 0)
(-0.0312999 -0.10258 0)
(-0.0524907 -0.0815753 0)
(-0.0724709 -0.0573337 0)
(-0.0914759 -0.0282099 0)
(-0.109214 0.00594564 0)
(-0.125022 0.0443197 0)
(-0.137833 0.0854286 0)
(-0.14625 0.127156 0)
(-0.148926 0.165122 0)
(-0.142442 0.19549 0)
(-0.127416 0.212616 0)
(-0.103112 0.209824 0)
(-0.0722359 0.18414 0)
(-0.040304 0.137646 0)
(-0.0150173 0.0792242 0)
(-0.000774036 0.0224113 0)
(0.456877 -1.09571 0)
(0.433225 -0.997205 0)
(0.385216 -0.853816 0)
(0.318412 -0.686034 0)
(0.243145 -0.519731 0)
(0.170907 -0.377666 0)
(0.110146 -0.272239 0)
(0.0637934 -0.203178 0)
(0.0297626 -0.160889 0)
(0.00370123 -0.132904 0)
(-0.0182466 -0.109143 0)
(-0.0383929 -0.0835424 0)
(-0.057711 -0.0533663 0)
(-0.0763784 -0.0177666 0)
(-0.0941418 0.0229952 0)
(-0.110309 0.06789 0)
(-0.123755 0.115373 0)
(-0.132639 0.162684 0)
(-0.134571 0.204879 0)
(-0.127202 0.235008 0)
(-0.108996 0.244689 0)
(-0.0809469 0.226625 0)
(-0.0478354 0.17877 0)
(-0.0188851 0.108641 0)
(-0.00108028 0.0331059 0)
(0.493847 -1.10243 0)
(0.483326 -1.03701 0)
(0.448228 -0.924091 0)
(0.390856 -0.777946 0)
(0.318964 -0.619436 0)
(0.243374 -0.470979 0)
(0.174319 -0.349504 0)
(0.118176 -0.261741 0)
(0.0760864 -0.203974 0)
(0.0451361 -0.16613 0)
(0.0210654 -0.137385 0)
(0.000404676 -0.109768 0)
(-0.0189206 -0.0788191 0)
(-0.0378203 -0.042704 0)
(-0.0564716 -0.00102744 0)
(-0.074668 0.0458399 0)
(-0.0916922 0.0969719 0)
(-0.106076 0.150558 0)
(-0.115453 0.202793 0)
(-0.116708 0.246612 0)
(-0.106736 0.271458 0)
(-0.0846732 0.265933 0)
(-0.0534603 0.221965 0)
(-0.0224353 0.142515 0)
(-0.00162887 0.0463464 0)
(0.524397 -1.09346 0)
(0.528083 -1.05822 0)
(0.507998 -0.977283 0)
(0.463631 -0.858243 0)
(0.39995 -0.716027 0)
(0.325874 -0.56998 0)
(0.251719 -0.438431 0)
(0.186212 -0.333356 0)
(0.134006 -0.25756 0)
(0.0950337 -0.205703 0)
(0.0660564 -0.168404 0)
(0.0430676 -0.136684 0)
(0.0229048 -0.104326 0)
(0.00369883 -0.068028 0)
(-0.0153674 -0.0264326 0)
(-0.0345726 0.0208446 0)
(-0.0537412 0.0735163 0)
(-0.0719651 0.13081 0)
(-0.0873482 0.190394 0)
(-0.0968274 0.246362 0)
(-0.0961851 0.286777 0)
(-0.0820441 0.297936 0)
(-0.0561572 0.263798 0)
(-0.0252324 0.179158 0)
(-0.00241421 0.0619431 0)
(0.546116 -1.0662 0)
(0.564505 -1.05692 0)
(0.56066 -1.01068 0)
(0.532392 -0.921987 0)
(0.481709 -0.802772 0)
(0.4148 -0.668192 0)
(0.340643 -0.535112 0)
(0.26872 -0.417928 0)
(0.206367 -0.324763 0)
(0.156909 -0.256046 0)
(0.119601 -0.206129 0)
(0.0912307 -0.166901 0)
(0.0681299 -0.131105 0)
(0.0474288 -0.0938609 0)
(0.0274012 -0.0525106 0)
(0.00734617 -0.00576365 0)
(-0.0130475 0.0469701 0)
(-0.0336393 0.105681 0)
(-0.0532493 0.169473 0)
(-0.0694182 0.234517 0)
(-0.0779346 0.290705 0)
(-0.0731105 0.319277 0)
(-0.0552538 0.300769 0)
(-0.0269843 0.216453 0)
(-0.00308696 0.0795247 0)
(0.555717 -1.01834 0)
(0.589595 -1.03852 0)
(0.602517 -1.0202 0)
(0.592454 -0.963513 0)
(0.558803 -0.872603 0)
(0.504736 -0.757755 0)
(0.436916 -0.632716 0)
(0.363974 -0.511711 0)
(0.294392 -0.405855 0)
(0.234299 -0.320612 0)
(0.186141 -0.255286 0)
(0.148922 -0.204726 0)
(0.119694 -0.162228 0)
(0.0951954 -0.121949 0)
(0.07285 -0.0798731 0)
(0.0510939 -0.0335909 0)
(0.0292129 0.0184248 0)
(0.0068675 0.0770501 0)
(-0.0156332 0.142476 0)
(-0.0368579 0.213 0)
(-0.0535996 0.281457 0)
(-0.0601691 0.326929 0)
(-0.0500397 0.328299 0)
(-0.0277305 0.251568 0)
(-0.00342576 0.0979924 0)
(0.549756 -0.949142 0)
(0.600355 -0.996275 0)
(0.630842 -1.00642 0)
(0.639728 -0.980384 0)
(0.625687 -0.919524 0)
(0.589122 -0.83038 0)
(0.534039 -0.722484 0)
(0.467043 -0.607507 0)
(0.396043 -0.497005 0)
(0.328521 -0.399619 0)
(0.269656 -0.319221 0)
(0.22138 -0.254824 0)
(0.182773 -0.202126 0)
(0.151322 -0.155717 0)
(0.124215 -0.11079 0)
(0.0991629 -0.0637962 0)
(0.0747427 -0.0122579 0)
(0.0501407 0.0456361 0)
(0.0249702 0.110969 0)
(-0.000235265 0.183528 0)
(-0.0236744 0.259206 0)
(-0.0409967 0.323386 0)
(-0.041097 0.344159 0)
(-0.0287556 0.281911 0)
(-0.00338761 0.115054 0)
(0.526727 -0.859563 0)
(0.593578 -0.930642 0)
(0.641931 -0.967826 0)
(0.67124 -0.970266 0)
(0.67637 -0.940901 0)
(0.660869 -0.879402 0)
(0.624177 -0.794854 0)
(0.570072 -0.695279 0)
(0.505095 -0.590011 0)
(0.436527 -0.488432 0)
(0.37082 -0.397404 0)
(0.312348 -0.31987 0)
(0.262834 -0.254998 0)
(0.221669 -0.199417 0)
(0.18686 -0.148799 0)
(0.156042 -0.0990531 0)
(0.12718 -0.0468298 0)
(0.0989062 0.0105498 0)
(0.0701926 0.0751275 0)
(0.0407047 0.147839 0)
(0.011191 0.227061 0)
(-0.0153263 0.303928 0)
(-0.0305225 0.349364 0)
(-0.0302366 0.306799 0)
(-0.00347265 0.132586 0)
(0.486915 -0.752617 0)
(0.567353 -0.842758 0)
(0.633736 -0.90374 0)
(0.679954 -0.933807 0)
(0.71481 -0.931574 0)
(0.714626 -0.902124 0)
(0.699598 -0.844161 0)
(0.664319 -0.765863 0)
(0.612577 -0.674542 0)
(0.550783 -0.578132 0)
(0.485191 -0.484188 0)
(0.421194 -0.39814 0)
(0.362606 -0.322374 0)
(0.311152 -0.256402 0)
(0.266609 -0.197713 0)
(0.227487 -0.142817 0)
(0.191785 -0.0881924 0)
(0.157587 -0.0305777 0)
(0.123412 0.0328412 0)
(0.0878758 0.104075 0)
(0.0504788 0.183382 0)
(0.0123975 0.266238 0)
(-0.0192139 0.332241 0)
(-0.0350733 0.325252 0)
(-0.0181743 0.167187 0)
(0.432538 -0.633851 0)
(0.521871 -0.736194 0)
(0.602243 -0.816114 0)
(0.667499 -0.869119 0)
(0.714766 -0.894941 0)
(0.74627 -0.892141 0)
(0.752386 -0.864349 0)
(0.739653 -0.811607 0)
(0.707631 -0.74049 0)
(0.660386 -0.657649 0)
(0.603206 -0.569793 0)
(0.541279 -0.482866 0)
(0.479244 -0.401171 0)
(0.420547 -0.326842 0)
(0.366969 -0.259818 0)
(0.318579 -0.198283 0)
(0.274265 -0.139592 0)
(0.232261 -0.080726 0)
(0.190486 -0.0186956 0)
(0.146882 0.049025 0)
(0.0992997 0.123811 0)
(0.0468779 0.204894 0)
(-0.00599638 0.28406 0)
(-0.0604795 0.327962 0)
(-0.0773313 0.218072 0)
(0.36882 -0.512172 0)
(0.461291 -0.618745 0)
(0.550397 -0.710953 0)
(0.630508 -0.782441 0)
(0.695836 -0.830305 0)
(0.745726 -0.853964 0)
(0.776737 -0.851667 0)
(0.787887 -0.826628 0)
(0.778739 -0.779914 0)
(0.752132 -0.715959 0)
(0.711082 -0.641571 0)
(0.659517 -0.562114 0)
(0.601946 -0.481984 0)
(0.542528 -0.4047 0)
(0.484374 -0.332289 0)
(0.429085 -0.265041 0)
(0.376891 -0.201902 0)
(0.326993 -0.141036 0)
(0.277585 -0.0802854 0)
(0.226106 -0.0176124 0)
(0.169369 0.0484758 0)
(0.10419 0.117817 0)
(0.025738 0.18698 0)
(-0.079772 0.23551 0)
(-0.167889 0.203436 0)
(0.301803 -0.395604 0)
(0.391258 -0.49858 0)
(0.4831 -0.595152 0)
(0.571834 -0.678466 0)
(0.651661 -0.743312 0)
(0.718891 -0.787381 0)
(0.771197 -0.809352 0)