/*--------------------------------*- C++ -*----------------------------------*\
| =========                 |                                                 |
| \\      /  F ield         | OpenFOAM: The Open Source CFD Toolbox           |
|  \\    /   O peration     | Version:  v2012                                 |
|   \\  /    A nd           | Website:  www.openfoam.com                      |
|    \\/     M anipulation  |                                                 |
\*---------------------------------------------------------------------------*/
FoamFile
{
    version     2.0;
    format      ascii;
    class       volScalarField;
    location    "673";
    object      age;
}
// * * * * * * * * * * * * * * * * * * * * * * * * * * * * * * * * * * * * * //

dimensions      [0 0 1 0 0 0 0];


internalField   nonuniform List<scalar> 
6084
(
0.489195
0.464034
0.438883
0.413739
0.388602
0.363472
0.33835
0.313235
0.288127
0.263026
0.237933
0.212848
0.187771
0.162703
0.137644
0.112594
0.0875553
0.0625268
0.0375091
0.0125017
0.487517
0.46251
0.437504
0.4125
0.387496
0.362493
0.33749
0.312488
0.287486
0.262485
0.237484
0.212484
0.187484
0.162485
0.137486
0.112488
0.0874912
0.0624943
0.0374975
0.0124996
0.487082
0.462118
0.437153
0.412188
0.387221
0.362253
0.337283
0.312312
0.287339
0.262364
0.237387
0.212409
0.187428
0.162446
0.137461
0.112474
0.0874848
0.0624926
0.0374976
0.0124998
0.486908
0.461963
0.437016
0.412067
0.387116
0.362162
0.337206
0.312247
0.287286
0.262322
0.237355
0.212385
0.187412
0.162435
0.137455
0.112472
0.0874843
0.062493
0.0374979
0.0124998
0.486837
0.461901
0.436963
0.412021
0.387076
0.362128
0.337177
0.312224
0.287267
0.262307
0.237344
0.212377
0.187406
0.162432
0.137454
0.112471
0.0874846
0.0624933
0.0374981
0.0124999
0.486832
0.461899
0.436961
0.41202
0.387076
0.362128
0.337177
0.312224
0.287267
0.262307
0.237343
0.212377
0.187406
0.162432
0.137454
0.112471
0.0874846
0.0624933
0.0374981
0.0124999
0.486894
0.461956
0.437013
0.412066
0.387115
0.362162
0.337206
0.312247
0.287286
0.262322
0.237355
0.212385
0.187412
0.162435
0.137455
0.112472
0.0874843
0.062493
0.0374979
0.0124998
0.487063
0.462109
0.437149
0.412185
0.38722
0.362252
0.337283
0.312311
0.287338
0.262364
0.237387
0.212409
0.187428
0.162446
0.137461
0.112474
0.0874848
0.0624926
0.0374976
0.0124998
0.487497
0.462504
0.437499
0.412497
0.387494
0.362492
0.337489
0.312487
0.287486
0.262485
0.237484
0.212484
0.187484
0.162485
0.137486
0.112488
0.0874912
0.0624943
0.0374975
0.0124996
0.485003
0.465023
0.438647
0.413791
0.388587
0.363474
0.338348
0.313234
0.288126
0.263026
0.237933
0.212848
0.187771
0.162703
0.137644
0.112594
0.0875553
0.0625268
0.0375091
0.0125017
0.783288
0.758519
0.733849
0.709258
0.684729
0.660249
0.635807
0.611396
0.587008
0.562639
0.538286
0.513945
0.779253
0.754732
0.730298
0.705933
0.681619
0.657345
0.6331
0.608878
0.584671
0.560477
0.53629
0.51211
0.778004
0.753589
0.72925
0.70497
0.680735
0.656531
0.632352
0.60819
0.58404
0.559899
0.535763
0.511629
0.777427
0.753066
0.728776
0.70454
0.680345
0.656178
0.632031
0.607899
0.583776
0.55966
0.535547
0.511435
0.777098
0.752776
0.72852
0.704315
0.680146
0.656003
0.631877
0.607763
0.583657
0.559554
0.535454
0.511354
0.776996
0.752687
0.728444
0.70425
0.680091
0.655956
0.631838
0.607732
0.583632
0.559536
0.535441
0.511345
0.777301
0.752946
0.728661
0.70443
0.68024
0.65608
0.631942
0.607821
0.583711
0.559608
0.535508
0.51141
0.778677
0.7541
0.729614
0.705206
0.680864
0.656577
0.632338
0.608139
0.583974
0.559833
0.535708
0.511593
0.781091
0.75639
0.731705
0.707047
0.682434
0.657888
0.633422
0.609033
0.584719
0.560465
0.536254
0.512072
0.858925
0.832461
0.804717
0.775924
0.746323
0.716199
0.685756
0.655109
0.624364
0.593551
0.56257
0.531429
10.7705
11.231
12.1589
12.0857
2.55742
1.90933
1.70756
1.58261
1.49554
1.42643
1.36845
1.31784
1.27251
1.23111
1.19275
1.15679
1.12274
1.09025
1.05904
1.02887
0.999575
0.970992
0.942999
0.915493
0.888387
0.861609
0.835097
0.8088
9.84216
11.5074
11.4233
6.40011
2.08713
1.79884
1.64922
1.54726
1.47012
1.40654
1.35197
1.30368
1.26
1.21985
1.18248
1.14732
1.11396
1.08206
1.05138
1.0217
0.992843
0.964673
0.937066
0.909924
0.883162
0.856708
0.830503
0.804497
9.41797
10.7738
7.50775
3.07714
1.89814
1.7235
1.60665
1.52039
1.45074
1.39167
1.34001
1.29375
1.25159
1.21262
1.17621
1.14184
1.10915
1.07784
1.04766
1.0184
0.989923
0.962077
0.934751
0.907853
0.881302
0.855033
0.82899
0.803125
8.49556
7.89391
4.17895
2.07342
1.81895
1.67812
1.58061
1.50322
1.43847
1.38252
1.33292
1.28811
1.24702
1.20886
1.17307
1.13919
1.10689
1.07588
1.04595
1.0169
0.988591
0.960887
0.933685
0.906893
0.880437
0.854252
0.828284
0.802488
7.13476
5.30538
2.6204
1.91345
1.77151
1.65131
1.56458
1.49237
1.43088
1.37698
1.32875
1.28488
1.24444
1.20674
1.17128
1.13766
1.10555
1.0747
1.04489
1.01596
0.987747
0.960132
0.93301
0.906291
0.879901
0.853776
0.827862
0.802116
6.03916
3.68994
2.12545
1.86571
1.74241
1.635
1.55428
1.48537
1.42605
1.37352
1.32619
1.28291
1.24286
1.20543
1.17016
1.13669
1.10472
1.07399
1.0443
1.01546
0.987334
0.959792
0.932729
0.906059
0.879707
0.853612
0.827723
0.801997
5.26385
2.86344
2.00873
1.84206
1.72369
1.62478
1.54761
1.48105
1.42322
1.37158
1.32472
1.28167
1.24175
1.20447
1.16938
1.13612
1.10438
1.07387
1.04437
1.0157
0.987696
0.960236
0.933217
0.906556
0.880189
0.854061
0.828127
0.802351
4.67155
2.45681
1.96821
1.82786
1.71153
1.61842
1.54339
1.47821
1.42092
1.36939
1.3227
1.28017
1.24111
1.20481
1.1706
1.13802
1.1068
1.07665
1.04737
1.01879
0.990776
0.963224
0.93605
0.909188
0.882587
0.856205
0.830009
0.803972
4.23722
2.29578
1.94834
1.81839
1.70389
1.61458
1.54069
1.47642
1.42022
1.37066
1.32659
1.28623
1.24775
1.21018
1.17384
1.13992
1.10764
1.07681
1.04718
1.01853
0.990651
0.963426
0.936708
0.910354
0.884233
0.858243
0.832311
0.806397
3.93166
2.22444
1.93881
1.81206
1.69945
1.61252
1.53962
1.47686
1.42216
1.37232
1.32368
1.27408
1.2256
1.18424
1.16035
1.13569
1.11214
1.08969
1.06803
1.04672
1.02706
1.00855
0.990436
0.972006
0.952639
0.931862
0.909374
0.885049
68.5031
74.0294
79.1382
83.8744
88.3039
92.5093
96.5277
100.296
104.099
107.985
111.186
111.245
130.991
132.032
132.407
132.287
131.849
131.352
130.906
130.607
130.46
130.427
130.599
130.866
150.201
147.213
143.772
140.161
136.746
133.863
131.752
130.528
130.037
129.874
130.022
130.616
174.715
167.314
159.517
151.764
144.552
138.418
133.84
131.11
130.038
129.711
129.852
130.456
199.151
187.922
176.339
164.857
154.028
144.512
137.03
132.199
130.127
129.563
129.6
130.265
224.812
210.104
194.972
179.893
165.443
152.363
141.574
134.05
130.412
129.467
129.375
130.096
252.148
233.899
215.162
196.445
178.345
161.626
147.328
136.729
130.976
129.381
129.158
129.942
281.114
259.103
236.567
214.083
192.276
171.907
154.045
140.17
131.893
129.363
128.955
129.798
311.511
285.465
258.885
232.451
206.851
182.842
161.448
144.232
133.193
129.408
128.768
129.664
343.079
312.724
281.858
251.282
221.776
194.125
169.283
148.746
134.825
129.514
128.598
129.54
375.529
340.605
305.236
270.347
236.822
205.509
177.316
153.592
136.739
129.674
128.447
129.423
408.563
368.82
328.76
289.425
251.795
216.794
185.329
158.59
138.878
129.879
128.323
129.312
441.872
397.069
352.156
308.281
266.502
227.812
193.147
163.577
141.165
130.119
128.211
129.208
475.123
425.038
375.14
326.673
280.747
238.405
200.624
168.403
143.513
130.388
128.096
129.108
507.95
452.391
397.413
344.343
294.327
248.419
207.631
172.937
145.826
130.671
127.985
129.013
539.94
478.761
418.66
361.03
307.027
257.695
214.047
177.066
148.01
130.952
127.878
128.921
570.629
503.749
438.548
376.46
318.631
266.069
219.759
180.693
149.972
131.212
127.776
128.831
599.501
526.922
456.724
390.351
328.918
273.374
224.651
183.732
151.628
131.431
127.677
128.744
625.993
547.819
472.82
402.416
337.666
279.444
228.607
186.107
152.899
131.588
127.584
128.659
649.502
565.961
486.461
412.366
344.656
284.115
231.512
187.743
153.716
131.664
127.494
128.575
669.404
580.86
497.272
419.917
349.676
287.231
233.255
188.575
154.024
131.643
127.409
128.491
685.079
592.039
504.892
424.799
352.525
288.644
233.735
188.539
153.786
131.505
127.325
128.412
695.937
599.053
508.988
426.765
353.022
288.225
232.863
187.583
153.019
131.192
127.24
128.34
701.459
601.518
509.277
425.607
351.02
285.87
230.564
185.662
151.693
130.717
127.152
128.274
701.225
599.129
505.539
421.166
346.399
281.497
226.79
182.752
149.806
130.099
127.059
128.215
694.963
591.687
497.628
413.338
339.091
275.064
221.521
178.853
147.376
129.373
126.955
128.164
682.535
579.111
485.496
402.096
329.085
266.577
214.784
174
144.449
128.591
126.835
128.125
664.001
561.463
469.202
387.492
316.436
256.098
206.639
168.258
141.109
127.824
126.738
128.098
639.603
538.95
448.916
369.673
301.272
243.744
197.207
161.752
137.5
127.159
126.666
128.078
609.76
511.916
424.925
348.884
283.816
229.729
186.693
154.681
133.871
126.686
126.569
128.075
575.048
480.841
397.63
325.47
264.384
214.352
175.385
147.335
130.719
126.492
126.477
128.107
536.179
446.323
367.55
299.896
243.396
198.013
163.68
140.144
128.254
126.294
126.4
128.198
493.962
409.056
335.293
272.727
221.405
181.251
152.123
133.724
126.686
126.074
126.379
128.369
449.29
369.827
301.568
244.638
199.094
164.776
141.468
129.05
126.084
125.976
126.477
128.622
403.119
329.526
267.254
216.529
177.389
149.556
132.784
126.429
125.823
125.946
126.791
128.973
356.457
289.141
233.401
189.543
157.5
136.929
127.535
125.741
125.736
126.251
127.462
129.399
310.36
249.788
201.261
165.063
140.987
128.746
125.651
125.633
126.078
127.294
128.566
129.874
265.964
212.789
172.393
144.843
129.92
125.588
125.548
126.166
127.902
129.7
130.382
130.496
224.564
179.762
148.697
131.076
125.55
125.476
126.573
129.577
132.829
134.151
133.108
131.261
187.734
152.713
132.394
125.546
125.413
127.318
132.389
138.396
141.705
140.844
136.729
132.219
157.461
133.997
125.757
125.357
128.264
136.116
146.22
153.521
154.707
149.678
141.113
133.37
136.187
126.092
125.305
129.117
140.064
155.365
168.816
174.936
171.419
160.231
146.018
134.537
126.626
125.258
129.497
143.198
164.163
185.58
199.906
201.952
191.075
171.933
151.165
135.631
125.109
129.136
144.55
170.753
200.815
225.962
238.023
232.85
212.362
184.06
156.271
136.612
128.038
143.704
173.775
211.539
248.033
273.453
280.15
265.301
233.808
195.838
161.046
137.457
140.815
172.577
215.677
261.706
300.766
323.049
321.814
296.293
253.758
206.479
165.224
138.146
167.331
212.57
264.742
314.807
352.833
369.517
359.207
323.192
270.656
215.278
168.588
138.667
202.974
257.254
313.919
364.377
399.045
408.936
389.506
344.071
283.339
221.714
170.985
139.018
241.358
299.517
356.951
405.555
435.839
438.181
410.207
357.478
291.06
225.471
172.357
139.2
275.262
333.655
389.732
434.956
460.469
456.895
421.032
362.596
293.339
226.361
172.578
139.288
300.181
356.744
409.441
449.432
470.196
456.692
418.946
358.912
290.12
224.357
171.522
139.375
314.217
366.657
413.452
446.371
457.747
443.161
404.521
346.623
281.504
219.425
169.164
139.461
316.06
361.826
400.514
425.806
431.894
415.888
378.997
326.479
267.818
211.582
165.554
139.549
305.083
342.422
372.53
390.649
392.764
377.031
344.55
299.79
249.639
200.976
160.858
139.64
282.787
310.978
332.617
344.552
344.193
330.417
304.08
268.322
227.839
188.037
155.431
139.737
251.996
271.368
285.569
292.708
291.207
280.388
260.747
234.172
203.754
173.737
149.891
139.844
216.892
228.491
236.65
240.364
238.66
231.113
217.91
200.088
179.675
159.871
145.093
139.968
182.778
188.147
191.749
193.196
191.878
187.502
180.107
170.226
159.092
148.778
141.995
140.122
155.989
157.321
158.186
158.465
157.817
156.111
153.36
149.771
145.921
142.599
140.866
140.486
143.355
143.239
143.123
143.008
142.88
142.68
142.406
142.083
141.784
141.582
141.942
142.486
3.7209
2.18652
1.93507
1.80818
1.69746
1.61227
1.54055
1.47865
1.42236
1.36783
1.31658
1.2799
1.26678
1.3015
1.42931
1.72425
2.30653
3.35978
5.1582
8.03904
12.364
18.3303
25.504
33.0938
40.82
48.3962
55.6257
62.3895
3.57624
2.16546
1.93472
1.80655
1.69766
1.61392
1.54302
1.47997
1.41961
1.36371
1.32885
1.33913
1.4938
1.94268
2.94753
5.24259
10.2319
19.22
31.6534
46.6392
62.7582
78.3692
92.1408
103.666
113.109
120.38
125.636
129.09
3.47618
2.15439
1.93664
1.80706
1.7
1.61742
1.54564
1.47746
1.41144
1.36783
1.38579
1.60698
2.27107
4.32152
10.3119
22.1449
40.0254
61.7191
83.8541
104.495
121.715
134.821
143.986
149.83
153.014
154.151
153.802
152.369
3.4045
2.14949
1.94028
1.80962
1.70424
1.6214
1.54507
1.46999
1.41181
1.40105
1.53854
2.14929
5.48824
14.9226
32.9786
57.9294
86.4912
114.152
137.91
156.75
170.727
180.655
187.269
191.013
192.105
190.663
186.963
181.441
3.35172
2.14877
1.94539
1.81407
1.70988
1.62505
1.5432
1.46682
1.42367
1.45542
1.68346
5.22457
16.4609
38.027
68.6209
103.144
136.379
164.912
188.023
206.196
219.956
229.448
234.608
235.588
232.925
227.37
219.503
209.849
3.31237
2.1511
1.95188
1.82021
1.71621
1.62714
1.53983
1.47352
1.46048
1.58898
3.49325
14.0777
36.5077
70.3375
110.292
149.804
184.891
214.564
239.074
258.218
271.477
278.749
280.665
278.222
272.255
263.372
252.121
238.994
3.28312
2.15579
1.95967
1.82773
1.72275
1.62906
1.54061
1.48549
1.50936
1.73017
8.69198
29.2988
63.3219
107.036
152.933
195.604
233.3
265.672
291.716
310.288
321.41
326.159
325.734
320.968
312.451
300.739
286.356
269.837
3.26175
2.16242
1.96866
1.83635
1.72947
1.63128
1.54498
1.51424
1.59709
3.57344
18.504
49.4483
93.6936
144.609
194.872
241.23
282.633
317.315
343.307
360.464
370.161
373.728
371.969
365.44
354.665
340.194
322.607
302.525
3.24669
2.17068
1.97878
1.84582
1.7361
1.63435
1.55917
1.54661
1.67089
7.67369
31.8533
72.5175
125.049
181.512
236.21
287.108
331.93
367.596
393.129
409.962
419.624
422.904
420.273
412.19
399.173
381.826
360.83
336.926
3.23681
2.18035
1.9899
1.85601
1.74325
1.64005
1.57349
1.6002
2.05028
14.2574
47.515
96.705
155.918
217.417
277.153
332.655
379.907
416.192
442.373
460.283
470.789
474.241
470.95
461.337
445.957
425.515
400.828
372.795
3.23123
2.19125
2.00194
1.86684
1.75117
1.64905
1.59802
1.65097
3.50105
23.0913
64.2936
120.761
185.684
252.36
317.486
377.053
426.237
463.993
492.233
512.165
524.037
527.943
524.077
512.856
494.91
471.08
442.363
409.857
3.22927
2.20323
2.01479
1.87833
1.76026
1.66086
1.62558
1.69583
6.01928
33.0701
81.2662
143.973
214.18
286.324
356.787
419.913
471.409
511.94
543.306
565.879
579.505
584.06
579.636
566.668
545.886
518.314
485.18
447.825
3.23037
2.21618
2.02839
1.89043
1.77029
1.6779
1.65482
1.74115
9.48877
43.4992
97.8178
166.019
241.395
319.183
394.724
461.331
516.075
560.55
595.784
621.493
637.201
642.555
637.546
622.636
598.695
566.979
529.001
486.396
3.23405
2.22999
2.04267
1.90318
1.78192
1.69666
1.68236
1.78583
13.7188
53.8868
113.568
186.767
267.313
350.757
431.155
501.608
560.667
609.975
649.66
678.957
697.044
703.314
697.649
680.555
653.083
616.778
573.501
525.234
3.23998
2.24457
2.05758
1.9167
1.79516
1.71435
1.71924
1.99047
18.5101
63.8842
128.29
206.137
291.848
380.856
466.061
541.006
605.335
660.156
704.819
738.131
758.872
766.146
759.709
740.135
708.709
667.338
618.291
563.953
3.24785
2.25984
2.07308
1.93101
1.8097
1.73445
1.75546
2.48244
23.5448
73.2725
141.881
224.114
314.926
409.356
499.486
579.646
650.019
710.919
761.062
798.8
822.451
830.782
823.404
800.991
765.134
718.183
662.896
602.102
3.25742
2.27572
2.08912
1.94607
1.82549
1.75712
1.78599
3.18837
28.4521
81.9376
154.32
240.723
336.525
436.229
531.489
617.513
694.533
762.015
818.119
860.677
887.474
896.872
888.319
862.633
821.802
768.732
706.745
639.157
3.26847
2.29215
2.10568
1.96184
1.84242
1.78062
1.81477
4.03619
33.0699
89.8275
165.624
256.004
356.653
461.499
562.103
654.5
738.629
813.138
875.656
923.407
953.551
963.97
953.927
924.447
878.035
818.282
749.165
674.515
3.2808
2.30908
2.12271
1.97829
1.8603
1.80436
1.8432
4.96261
37.3197
96.934
175.833
270.005
375.335
485.216
591.345
690.455
782.02
863.937
933.272
986.544
1020.18
1031.5
1019.55
985.662
933.01
866.009
789.385
707.501
3.29427
2.32645
2.14019
1.99538
1.87897
1.82819
1.87142
5.91515
41.1653
103.275
185
282.774
392.611
507.428
619.196
725.199
824.398
914.013
990.488
1049.53
1086.72
1098.68
1084.31
1045.31
985.73
910.96
826.542
737.376
3.30874
2.34422
2.15807
2.01305
1.89829
1.85204
1.89943
6.85152
44.5929
108.88
193.178
294.362
408.512
528.157
645.603
758.536
865.435
962.917
1046.73
1111.67
1152.31
1164.55
1147.09
1102.21
1035.02
952.053
859.698
763.36
3.32408
2.36235
2.17633
2.03125
1.91816
1.87589
1.92721
7.73924
47.6036
113.785
200.42
304.81
423.068
547.414
670.503
790.28
904.799
1010.15
1101.33
1172.09
1215.9
1227.83
1206.49
1154.93
1079.52
988.104
887.868
784.661
3.34019
2.38081
2.19494
2.04993
1.93843
1.89973
1.95476
8.55512
50.2092
118.028
206.776
314.157
436.304
565.189
693.801
820.222
942.128
1055.15
1153.47
1229.72
1276.14
1286.98
1260.83
1201.82
1117.77
1017.87
910.064
800.514
3.35698
2.39956
2.21387
2.06903
1.95922
1.92355
1.98207
9.28328
52.4276
121.649
212.291
322.438
448.232
581.455
715.382
848.136
977.042
1097.3
1202.27
1283.38
1331.68
1340.47
1308.21
1241.1
1148.22
1040.13
925.355
810.226
3.37438
2.41858
2.23308
2.08851
1.98059
1.94734
2.00915
9.9136
54.2791
124.688
217.007
329.681
458.862
596.175
735.129
873.801
1009.15
1135.95
1246.7
1331.89
1381.54
1387.16
1346.7
1270.96
1169.43
1053.79
932.941
813.221
3.39231
2.43785
2.25256
2.10834
2.00226
1.97111
2.036
10.4406
55.7848
127.18
220.96
335.911
468.196
609.306
752.914
896.971
1038.03
1170.37
1285.99
1374.77
1424.78
1424.9
1374.45
1289.76
1180.18
1057.99
932.226
809.102
3.41075
2.45734
2.27229
2.12847
2.02415
1.99484
2.06261
10.8621
56.9656
129.158
224.183
341.147
476.23
620.796
768.602
917.39
1063.24
1199.99
1319
1408.11
1452.05
1447.55
1389.64
1296.28
1179.62
1052.21
922.896
797.647
3.42964
2.47704
2.29224
2.1489
2.04622
2.01855
2.08899
11.1788
57.8413
130.649
226.703
345.406
482.957
630.593
782.067
934.822
1084.4
1224.11
1344.4
1430.79
1467.73
1456.19
1390.83
1289.86
1167.46
1036.24
904.863
778.882
3.44893
2.49693
2.31241
2.1696
2.06845
2.04223
2.11515
11.3933
58.43
131.682
228.546
348.699
488.368
638.646
793.187
949.04
1101.13
1242.06
1361.2
1443.51
1478.28
1450.77
1378.04
1270.42
1143.68
1010.33
878.43
753.083
3.46858
2.51701
2.33279
2.19055
2.09082
2.0659
2.14109
11.5082
58.7507
132.278
229.732
351.037
492.451
644.902
801.842
959.827
1113.05
1253.25
1368.87
1445.16
1464.82
1432.32
1351.63
1238.32
1108.98
975.144
844.184
720.751
3.48858
2.53727
2.35337
2.21174
2.11332
2.08954
2.16674
11.5369
58.8116
132.457
230.28
352.428
495.194
649.311
807.925
966.987
1119.84
1257.32
1367.14
1436.28
1443.71
1401.16
1312.03
1194.74
1064.53
931.684
802.964
682.585
3.50889
2.55768
2.37413
2.23314
2.13596
2.11317
2.192
11.5008
58.6111
132.238
230.209
352.877
496.588
651.831
811.339
970.356
1121.34
1254.13
1355.51
1415.31
1414.12
1357.07
1260.75
1141.43
1011.77
881.154
755.791
639.437
3.52947
2.57831
2.39504
2.25474
2.15848
2.13679
2.21689
11.4076
58.1609
131.635
229.538
352.396
496.611
652.419
812.017
969.86
1117.42
1243.54
1334.37
1378.71
1364.25
1299.78
1200.27
1080.33
952.25
824.895
703.813
592.267
3.55007
2.59937
2.41606
2.27651
2.18102
2.16039
2.24144
11.2628
57.4755
130.664
228.284
351.001
495.259
651.041
809.905
965.409
1108.01
1225.64
1304.4
1332.96
1307.16
1235.79
1132.97
1013.04
887.52
764.322
648.229
542.099
3.57068
2.6209
2.43719
2.29846
2.20363
2.184
2.26566
11.0717
56.5699
129.339
226.463
348.704
492.53
647.673
804.961
956.96
1093.12
1200.68
1266.24
1280.52
1243.6
1165.41
1060.13
941.291
819.233
700.827
590.234
489.994
3.59132
2.64286
2.45843
2.32057
2.22636
2.20759
2.28958
10.8399
55.4599
127.673
224.092
345.518
488.428
642.298
797.163
944.516
1072.88
1169.05
1220.72
1221.35
1174.11
1090.25
983.693
866.851
748.862
635.691
530.991
437.026
3.61199
2.66524
2.47978
2.34284
2.24921
2.2312
2.31323
10.573
54.1614
125.679
221.187
341.461
482.961
634.913
786.51
928.128
1047.5
1131.31
1168.89
1156.59
1100.3
1012.1
905.308
791.177
677.708
570.108
471.634
384.276
3.63269
2.688
2.50124
2.36527
2.2722
2.25481
2.33662
10.2765
52.6911
123.373
217.769
336.556
476.15
625.532
773.032
907.909
1017.28
1088.15
1111.82
1087.72
1023.81
932.511
826.391
715.534
606.924
505.193
413.257
332.826
3.65343
2.71115
2.52282
2.38786
2.29533
2.27843
2.35978
9.95616
51.0664
120.769
213.859
330.831
468.025
614.189
756.797
884.035
982.63
1040.35
1050.76
1016.19
946.064
852.806
748.136
640.994
537.542
441.997
356.923
283.779
3.67422
2.73466
2.5445
2.41059
2.3186
2.30209
2.38275
9.61742
49.306
117.884
209.482
324.323
458.635
600.946
737.917
856.755
944.054
988.774
986.935
943.292
868.261
774.097
671.539
568.477
470.511
381.529
303.672
238.329
3.69506
2.75852
2.56631
2.43347
2.34201
2.32578
2.40555
9.26577
47.4296
114.74
204.67
317.08
448.047
585.896
716.55
826.383
902.129
934.31
921.406
870.082
791.451
697.344
597.425
498.795
406.747
324.759
254.555
197.894
3.71595
2.7827
2.58824
2.45649
2.36556
2.34951
2.42823
8.90654
45.4584
111.36
199.457
309.159
436.348
569.171
692.909
793.297
857.503
877.829
855.166
797.576
716.591
623.333
526.476
432.729
347.149
272.619
210.749
164.301
3.73691
2.8072
2.61028
2.47965
2.38927
2.37331
2.4508
8.54478
43.4145
107.771
193.884
300.631
423.65
550.938
667.261
757.94
810.87
820.309
789.195
726.712
644.488
552.674
459.32
371.084
292.582
226.045
173.77
139.943
3.75793
2.83199
2.63245
2.50293
2.41311
2.39717
2.47332
8.18529
41.3211
104.003
187.998
291.576
410.09
531.407
639.927
720.814
762.955
762.621
724.358
658.352
575.786
485.863
396.625
314.678
243.828
186.144
145.765
127.771
3.77901
2.85704
2.65474
2.52635
2.4371
2.42111
2.49582
7.83249
39.2022
100.092
181.853
282.09
395.824
510.827
611.29
682.482
714.531
705.541
661.53
593.28
510.947
423.4
339.151
264.247
201.639
154.528
129.792
124.786
3.80017
2.88234
2.67715
2.54988
2.46123
2.44514
2.51834
7.49036
37.082
96.0777
175.509
272.277
381.033
489.483
581.774
643.548
666.368
649.878
601.616
532.059
450.299
365.913
287.658
220.353
166.956
133.749
124.385
126.326
3.82139
2.90786
2.69968
2.57353
2.4855
2.46927
2.54091
7.16239
34.9845
92.0011
169.032
262.252
365.912
467.687
551.845
604.667
619.146
596.519
545.413
474.967
394.238
314.181
242.715
183.448
141.281
124.331
124.36
135.933
3.84269
2.93356
2.72232
2.59728
2.5099
2.49351
2.56359
6.85148
32.9324
87.9071
162.491
252.134
350.668
445.772
522
566.526
573.689
546.455
493.381
422.145
343.422
268.926
204.541
154.173
126.857
122.66
130.246
157.967
3.86407
2.95942
2.74507
2.62112
2.53442
2.51787
2.5864
6.55995
30.9472
83.8414
155.958
242.048
335.512
424.08
492.754
529.807
530.799
500.445
445.58
373.952
298.715
230.489
173.122
133.825
121.554
125.047
145.897
187.743
3.88552
2.98539
2.76793
2.64505
2.55906
2.54236
2.60938
6.28959
29.0483
79.8498
149.509
232.116
320.652
402.947
464.6
495.096
491.309
458.847
401.954
331.186
260.794
198.672
148.601
123.097
121.472
134.319
169.323
218.82
3.90705
3.01143
2.79088
2.66906
2.58381
2.56697
2.63256
6.04159
27.2523
75.9767
143.216
222.459
306.287
382.691
438.014
462.898
455.917
421.505
362.754
294.865
229.706
172.976
131.616
119.304
125.124
150.979
193.168
244.338
3.92865
3.03752
2.81393
2.69313
2.60865
2.59172
2.65598
5.81657
25.5728
72.2631
137.15
213.187
292.601
363.605
413.43
433.701
424.997
388.029
328.825
265.648
204.837
153.002
121.954
119.235
134.289
169.034
211.732
260.951
3.95033
3.0636
2.83705
2.71725
2.63358
2.61661
2.67967
5.61469
24.0197
68.7457
131.373
204.404
279.756
345.945
391.185
408.023
398.427
358.32
301.344
243.38
185.373
138.489
117.167
121.045
147.103
182.533
221.727
267.619
3.97207
3.08964
2.86024
2.74142
2.65857
2.64163
2.70363
5.43564
22.5997
65.4552
125.943
196.195
267.89
329.92
371.503
386.36
375.571
332.969
281.103
227.235
170.858
129.092
115.642
125.871
158.481
188.566
223.419
264.05
3.99389
3.11559
2.88348
2.76562
2.68373
2.66678
2.72789
5.27877
21.3159
62.4155
120.906
188.631
257.109
315.686
354.509
369.01
355.588
313.19
267.931
216.4
161.306
124.134
115.588
130.555
163.844
187.722
217.37
250.524
4.01576
3.14143
2.90677
2.78985
2.70896
2.69208
2.75246
5.1431
20.1682
59.6435
116.297
181.767
247.492
303.348
340.281
355.895
338.002
300.138
260.816
210.668
156.918
122.028
115.53
132.609
163.435
182.103
204.59
229.134
4.0377
3.1671
2.9301
2.81408
2.73423
2.71751
2.77735
5.02749
19.1539
57.1485
112.141
175.638
239.09
292.96
328.875
346.552
323.246
293.977
258.709
210.4
157.913
122.264
115.422
130.234
158.521
173.049
187.534
203.136
4.0597
3.19259
2.95345
2.83832
2.75952
2.74306
2.80256
4.9306
18.2682
54.9341
108.45
170.266
231.927
284.524
320.316
340.197
312.85
293.441
261.268
216.187
164.93
125.5
114.874
124.234
150.049
162.943
169.515
176.932
4.08173
3.21784
2.97681
2.86256
2.78481
2.76872
2.82808
4.85107
17.5035
52.995
105.224
165.649
225.989
277.979
314.487
337.143
308.914
296.54
268.539
227.874
178.607
134.256
114.769
117.014
137.382
153.412
154.377
155.669
4.10411
3.24293
3.00017
2.88679
2.81013
2.7945
2.85399
4.78727
16.8556
51.3318
102.472
161.803
221.292
273.314
311.332
333.427
311.133
302.787
279.665
244.647
199.218
152.013
119.713
112.145
121.493
141.893
145.289
143.865
4.12166
3.26473
3.02101
2.90839
2.83262
2.81758
2.8749
4.7444
16.3594
50.0466
100.361
158.934
218.001
270.496
310.473
330.128
315.266
310.58
292.059
262.807
222.919
176.563
134.046
112.008
110.272
121.919
144.198
143.633
4.13901
3.28396
3.03933
2.92736
2.8531
2.83794
2.89557
4.71355
15.99
49.0829
98.7978
156.89
215.866
269.125
311.078
328.145
320.62
318.967
304.445
280.201
246.152
204.364
160.281
124.15
108.82
108.676
121.418
143.885
4.15618
3.30302
3.05763
2.94632
2.8732
2.85837
2.91639
4.69009
15.6759
48.2599
97.485
155.256
214.378
268.746
312.618
327.76
327.251
328.555
317.966
298.422
269.969
233.807
192.672
152.284
121.121
107.387
105.736
110.005
98.8064
97.7136
96.9668
96.4888
96.1272
95.8661
95.7058
95.5791
95.4396
99.5183
111.525
163.135
126.612
120.34
115.086
110.873
107.02
103.489
100.359
97.7779
95.8055
94.8942
94.8481
96.209
175.881
163.632
152.911
143.166
133.831
124.727
115.898
107.706
100.835
96.1579
94.2919
93.8854
230.235
214.098
198.932
184.169
169.367
154.34
139.171
124.344
110.893
100.465
94.9712
93.6577
282.825
264.237
245.813
227.107
207.757
187.57
166.596
145.314
124.908
107.578
96.5722
93.5407
331.959
311.5
290.437
268.465
245.306
220.77
194.838
167.874
141.016
116.764
99.33
93.4472
377.657
355.573
332.183
307.3
280.74
252.358
222.109
190.22
157.619
126.794
102.872
93.3687
420.098
396.521
371.018
343.469
313.769
281.838
247.665
211.417
173.807
137.085
106.835
93.3002
459.604
434.528
407.027
377.008
344.392
309.145
271.313
231.077
189.023
147.101
110.982
93.2386
496.639
469.904
440.388
408.009
372.673
334.337
293.077
249.131
203.06
156.56
115.134
93.182
531.729
503.047
471.367
436.631
398.71
357.498
313.043
265.633
215.881
165.328
119.173
93.1291
565.367
534.365
500.268
463.082
422.64
378.733
331.317
280.682
227.53
173.362
123.031
93.0792
597.948
564.216
527.391
487.588
444.622
398.161
348.007
294.385
238.089
180.673
126.667
93.0316
629.749
592.872
552.988
510.362
464.821
415.907
363.219
306.849
247.646
187.294
130.062
92.9859
660.929
620.514
577.249
531.588
483.397
432.097
377.058
318.169
256.288
193.271
133.21
92.9417
691.543
647.233
600.301
551.411
500.49
446.851
389.621
328.434
264.096
198.652
136.112
92.8986
721.559
673.045
622.208
569.932
516.216
460.28
401
337.722
271.14
203.487
138.774
92.8564
750.864
697.901
642.986
587.218
530.669
472.477
411.279
346.103
277.484
207.819
141.203
92.8151
779.282
721.698
662.604
603.299
543.917
483.526
420.533
353.64
283.181
211.69
143.409
92.7746
806.571
744.287
680.999
618.178
556.008
493.494
428.828
360.39
288.279
215.137
145.402
92.7347
832.434
765.475
698.072
631.833
566.971
502.433
436.222
366.402
292.822
218.193
147.191
92.6954
856.529
785.042
713.705
644.224
576.82
510.39
442.768
371.723
296.846
220.888
148.786
92.6566
878.495
802.762
727.777
655.31
585.57
517.409
448.519
376.398
300.388
223.251
150.198
92.6181
898.031
818.486
740.239
665.101
593.263
523.546
453.528
380.471
303.478
225.303
151.434
92.5801
914.936
832.135
751.083
673.629
599.95
528.856
457.844
383.978
306.142
227.066
152.501
92.5425
928.996
843.577
760.234
680.863
605.638
533.368
461.502
386.948
308.398
228.552
153.405
92.5052
939.891
852.593
767.554
686.725
610.293
537.079
464.513
389.393
310.257
229.77
154.148
92.4683
947.268
858.94
772.887
691.121
613.863
539.966
466.873
391.315
311.719
230.723
154.729
92.4317
950.814
862.397
776.082
693.956
616.292
541.999
468.567
392.706
312.78
231.412
155.147
92.3952
950.304
862.798
777.019
695.144
617.526
543.149
469.577
393.555
313.432
231.832
155.399
92.358
945.603
860.034
775.607
694.618
617.514
543.382
469.884
393.846
313.664
231.978
155.479
92.3203
936.747
854.082
771.8
692.32
616.209
542.662
469.461
393.562
313.462
231.839
155.392
92.2826
923.887
844.989
765.59
688.217
613.564
540.946
468.278
392.682
312.807
231.402
155.156
92.2133
907.286
832.868
757.005
682.29
609.538
538.189
466.292
391.172
311.676
230.648
154.762
92.1076
887.288
817.893
746.11
674.538
604.097
534.342
463.457
388.991
310.037
229.558
154.199
91.9613
864.29
800.279
732.997
664.978
597.214
529.358
459.722
386.094
307.854
228.11
153.456
91.7732
838.71
780.276
717.783
653.64
588.867
523.187
455.027
382.429
305.089
226.277
152.52
91.5398
810.957
758.141
700.6
640.565
579.036
515.774
449.307
377.934
301.693
224.029
151.378
91.2578
781.412
734.13
681.584
625.797
567.703
507.061
442.488
372.542
297.616
221.335
150.015
90.9234
750.403
708.473
660.866
609.382
554.846
496.982
434.488
366.178
292.803
218.162
148.413
90.5327
718.197
681.358
638.558
591.357
540.435
485.459
425.213
358.763
287.197
214.473
146.555
90.0812
684.997
652.929
614.743
571.735
524.418
472.396
414.555
350.205
280.736
210.229
144.42
89.5636
650.927
623.269
589.454
550.49
506.713
457.674
402.386
340.399
273.35
205.39
141.986
88.9731
616.038
592.4
562.67
527.551
487.198
441.142
388.559
329.234
264.969
199.917
139.235
88.2999
580.292
560.271
534.297
502.775
465.699
422.618
372.91
316.589
255.526
193.777
136.151
87.5388
543.527
526.71
504.129
475.927
441.977
401.892
355.273
302.348
244.96
186.945
132.719
86.6853
505.399
491.384