/*--------------------------------*- C++ -*----------------------------------*\
| =========                 |                                                 |
| \\      /  F ield         | OpenFOAM: The Open Source CFD Toolbox           |
|  \\    /   O peration     | Version:  v2012                                 |
|   \\  /    A nd           | Website:  www.openfoam.com                      |
|    \\/     M anipulation  |                                                 |
\*---------------------------------------------------------------------------*/
FoamFile
{
    version     2.0;
    format      ascii;
    class       volScalarField;
    location    "673";
    object      k;
}
// * * * * * * * * * * * * * * * * * * * * * * * * * * * * * * * * * * * * * //

dimensions      [0 2 -2 0 0 0 0];


internalField   nonuniform List<scalar> 
6084
(
0.048887
0.0528605
0.0573725
0.0625288
0.0684656
0.0753591
0.0834411
0.0930226
0.10453
0.11856
0.13598
0.158077
0.186855
0.22556
0.279747
0.359555
0.484982
0.699421
1.10879
2.01242
0.120754
0.130779
0.142133
0.155059
0.169872
0.186972
0.206877
0.230262
0.258029
0.291402
0.332079
0.382474
0.446109
0.528276
0.637192
0.786077
0.99699
1.308
1.78596
2.54331
0.160798
0.174137
0.189229
0.206384
0.226002
0.248584
0.274771
0.305389
0.341517
0.384593
0.43656
0.500097
0.578975
0.678621
0.807023
0.976232
1.20484
1.52219
1.97545
2.64223
0.184144
0.19941
0.216671
0.23627
0.258647
0.284352
0.314076
0.348704
0.389372
0.437568
0.49526
0.565106
0.650748
0.757289
0.892037
1.06573
1.29464
1.60434
2.03717
2.66858
0.195188
0.211362
0.229643
0.250389
0.274053
0.301205
0.332556
0.369003
0.411696
0.46212
0.522218
0.594577
0.6827
0.791425
0.927619
1.10135
1.328
1.63238
2.05711
2.681
0.195195
0.211366
0.229646
0.25039
0.274055
0.301206
0.332557
0.369004
0.411697
0.46212
0.522218
0.594578
0.6827
0.791425
0.927619
1.10135
1.328
1.63238
2.05711
2.681
0.184157
0.199418
0.216676
0.236274
0.25865
0.284354
0.314078
0.348705
0.389373
0.437568
0.495261
0.565106
0.650748
0.75729
0.892037
1.06573
1.29464
1.60434
2.03717
2.66858
0.160796
0.17414
0.189233
0.206388
0.226005
0.248587
0.274773
0.30539
0.341518
0.384594
0.436561
0.500098
0.578976
0.678621
0.807023
0.976232
1.20484
1.52219
1.97545
2.64223
0.120695
0.130769
0.142131
0.155061
0.169875
0.186975
0.206879
0.230264
0.25803
0.291403
0.33208
0.382475
0.446109
0.528276
0.637192
0.786077
0.996991
1.308
1.78596
2.54331
0.048879
0.0528587
0.0573729
0.0625299
0.0684667
0.0753601
0.0834419
0.0930232
0.10453
0.118561
0.13598
0.158078
0.186855
0.22556
0.279747
0.359555
0.484982
0.699421
1.10879
2.01242
0.0236729
0.0249335
0.0262854
0.0277421
0.0293181
0.03103
0.0328968
0.0349404
0.0371864
0.0396648
0.042411
0.0454676
0.0564894
0.0597319
0.0632032
0.0669385
0.0709746
0.075353
0.0801217
0.0853355
0.0910582
0.0973641
0.104341
0.112092
0.0753162
0.0795922
0.084181
0.08913
0.0944874
0.100308
0.106653
0.113597
0.121221
0.129625
0.138923
0.149251
0.086371
0.0912245
0.0964455
0.102088
0.108205
0.114859
0.12212
0.130069
0.138802
0.14843
0.159082
0.170913
0.0917374
0.0968263
0.102317
0.108266
0.114728
0.121767
0.129455
0.137877
0.147131
0.157334
0.168624
0.181163
0.0920514
0.0970452
0.102462
0.108356
0.114783
0.121804
0.129486
0.137908
0.147161
0.157358
0.168641
0.181175
0.0874622
0.0919658
0.0969035
0.102332
0.108306
0.114884
0.122133
0.130118
0.138868
0.148487
0.159123
0.170939
0.0783732
0.0818178
0.0856804
0.0900301
0.0949317
0.10045
0.106646
0.113576
0.121248
0.129673
0.138954
0.149264
0.0669693
0.0684503
0.0701623
0.072226
0.0747564
0.0778758
0.0816382
0.0860937
0.0913663
0.0974516
0.104336
0.112064
0.0588864
0.0579891
0.0564797
0.0542569
0.0512347
0.0483241
0.0458037
0.0439087
0.042841
0.0427848
0.0437124
0.0456581
0.000979587
0.000865231
0.00090945
0.00123148
0.00230653
0.00329866
0.00424932
0.00514318
0.00597215
0.00677155
0.00755337
0.0083253
0.00909257
0.00985912
0.0106282
0.0114028
0.0121856
0.0129795
0.0137878
0.0146136
0.015461
0.0163342
0.0172381
0.0181783
0.019161
0.0201933
0.0212833
0.0224398
0.00174438
0.00222734
0.00384071
0.00567816
0.00713284
0.00841301
0.00982109
0.011459
0.0131815
0.0148854
0.0165934
0.0183138
0.0200535
0.0218191
0.0236171
0.025454
0.0273362
0.02927
0.0312619
0.0333187
0.0354481
0.0376585
0.0399603
0.0423652
0.0448866
0.0475404
0.0503448
0.0533211
0.00268012
0.00518958
0.00706051
0.0088549
0.010459
0.0122802
0.0145262
0.0170229
0.0195082
0.0219167
0.0242611
0.0265548
0.028818
0.0310717
0.0333362
0.0356307
0.0379725
0.0403774
0.0428599
0.0454338
0.0481125
0.0509099
0.0538409
0.0569219
0.0601714
0.0636104
0.0672634
0.071158
0.00399642
0.00782145
0.00976282
0.0115493
0.0135241
0.0160322
0.0190044
0.0220939
0.0250615
0.0278657
0.0305182
0.033049
0.0354972
0.037902
0.0402996
0.0427222
0.0451979
0.0477504
0.0504005
0.0531664
0.0560653
0.0591139
0.0623296
0.0657314
0.0693406
0.073181
0.0772803
0.0816698
0.0054707
0.0102826
0.012197
0.0141309
0.016584
0.0196969
0.0231641
0.0265935
0.0297971
0.0327487
0.035471
0.0380124
0.0404293
0.0427767
0.045104
0.0474539
0.049862
0.0523576
0.0549653
0.0577059
0.0605983
0.0636609
0.0669126
0.0703741
0.0740685
0.0780219
0.082264
0.0868286
0.00662444
0.0124423
0.0144998
0.0167081
0.0196309
0.0231826
0.0269201
0.0304803
0.0337203
0.0366286
0.0392437
0.0416301
0.0438582
0.0459951
0.0481
0.0502231
0.0524047
0.0546771
0.057066
0.0595926
0.062276
0.0651346
0.068188
0.0714583
0.0749704
0.0787529
0.0828382
0.0872627
0.00755063
0.0143821
0.0167119
0.0192645
0.0225741
0.0263884
0.03021
0.0337328
0.0368508
0.0395681
0.0419392
0.0440416
0.0459573
0.047763
0.0495255
0.0512994
0.053127
0.0550402
0.0570621
0.0592101
0.0614994
0.063945
0.0665644
0.0693787
0.0724141
0.0757021
0.0792795
0.0831883
0.00835857
0.0161094
0.0188222
0.0217346
0.0253236
0.0292408
0.033001
0.0363521
0.0392225
0.0416329
0.0436524
0.0453711
0.0468822
0.0482721
0.0496146
0.0509678
0.0523734
0.0538583
0.0554373
0.0571169
0.0588995
0.0607876
0.062787
0.0649096
0.0671748
0.0696115
0.0722576
0.0751612
0.00905452
0.0176557
0.0208095
0.0240536
0.0278101
0.0317025
0.0352841
0.0383578
0.0408806
0.0428942
0.044483
0.0457524
0.0468108
0.0477583
0.0486793
0.0496375
0.0506737
0.0518068
0.0530368
0.0543501
0.0557247
0.057136
0.0585607
0.0599803
0.0613835
0.0627682
0.0641434
0.0655317
0.00964813
0.0190504
0.0226539
0.0261732
0.0299936
0.0337567
0.0370699
0.0397806
0.0418793
0.0434322
0.0445441
0.0453425
0.0459589
0.0465147
0.0471107
0.0478184
0.0486764
0.0496914
0.0508434
0.0520936
0.0533926
0.0546869
0.0559229
0.057048
0.0580084
0.0587457
0.0591932
0.0592712
0.0573841
0.0568693
0.0559023
0.0543377
0.051959
0.0487099
0.0443093
0.0384404
0.0303926
0.0220649
0.01433
0.00812371
0.0411418
0.0379555
0.0343509
0.0303937
0.026259
0.0217448
0.0165191
0.0118631
0.00798197
0.00518563
0.0028982
0.00114217
0.0210834
0.018239
0.0155224
0.0129131
0.0107073
0.00886444
0.00716396
0.0056693
0.00441268
0.00332504
0.0021099
0.000835794
0.0111194
0.00986468
0.00883359
0.00791739
0.00712417
0.00639303
0.00566362
0.0049072
0.00410715
0.00321354
0.00212411
0.000870889
0.00826862
0.00784156
0.00745641
0.0070695
0.00666001
0.00620447
0.00567745
0.00505469
0.00430565
0.00339109
0.00226526
0.000954053
0.0077124
0.00754613
0.00735735
0.00712371
0.00682692
0.00644631
0.00596334
0.00535621
0.00459655
0.00364685
0.00246339
0.00104808
0.00774933
0.00767782
0.00755926
0.00737765
0.00711748
0.00676208
0.00629322
0.00568833
0.00491721
0.00393739
0.00269058
0.0011485
0.00795206
0.00791995
0.00783119
0.00767242
0.00742961
0.00708725
0.00662707
0.00602521
0.00524792
0.00424396
0.00293422
0.00125339
0.00820505
0.00819199
0.00811811
0.00797153
0.00773933
0.00740665
0.00695502
0.00635894
0.00558042
0.00455803
0.00318884
0.00136188
0.00847443
0.008471
0.008405
0.00826574
0.00804125
0.00771723
0.00727485
0.00668695
0.00591113
0.00487549
0.00345175
0.0014736
0.00874967
0.00875059
0.00868845
0.00855371
0.00833533
0.00801946
0.00758698
0.00700905
0.006239
0.00519468
0.00372166
0.00158848
0.00902812
0.00902994
0.00896891
0.00883667
0.00862317
0.00831507
0.00789292
0.00732629
0.00656439
0.0055153
0.00399813
0.00170664
0.00931016
0.00931025
0.0092481
0.00911664
0.00890691
0.00860615
0.00819464
0.00764036
0.00688857
0.00583793
0.00428118
0.00182835
0.00959728
0.0095934
0.00952809
0.00939576
0.00918872
0.0088949
0.00849432
0.00795333
0.00721326
0.00616367
0.00457122
0.00195404
0.00989135
0.00988142
0.00981096
0.00967611
0.00947067
0.00918341
0.00879413
0.00826738
0.00754045
0.00649397
0.00486884
0.00208429
0.0101944
0.0101763
0.0100987
0.0099596
0.00975467
0.00947368
0.00909615
0.00858468
0.00787225
0.00683044
0.00517479
0.00221988
0.0105083
0.01048
0.010393
0.010248
0.0100424
0.00976747
0.00940232
0.00890732
0.00821072
0.00717481
0.00548995
0.00236189
0.010835
0.0107941
0.0106956
0.0105427
0.0103354
0.0100663
0.00971435
0.0092372
0.00855785
0.00752878
0.00581519
0.0025118
0.0111763
0.0111204
0.0110079
0.010845
0.0106348
0.0103716
0.0100337
0.00957596
0.00891542
0.00789398
0.00615153
0.00267174
0.0115337
0.0114601
0.0113308
0.0111559
0.0109416
0.0106842
0.0103614
0.0099249
0.00928488
0.00827174
0.00649962
0.0028448
0.0119088
0.0118142
0.0116654
0.0114762
0.0112565
0.0110048
0.0106984
0.0102849
0.00966733
0.00866306
0.00686026
0.00303566
0.0123027
0.0121836
0.012012
0.0118061
0.0115796
0.0113339
0.0110448
0.0106564
0.0100633
0.0090716
0.00723865
0.0032419
0.0127158
0.0125683
0.0123706
0.0121456
0.011911
0.0116714
0.0114023
0.0110422
0.0104771
0.00949883
0.00763364
0.00345638
0.0131484
0.012968
0.0127405
0.0124946
0.0122519
0.0120184
0.0117702
0.0114411
0.0109074
0.00994462
0.00804541
0.00367914
0.0135994
0.0133823
0.0131228
0.0128531
0.0126
0.0123721
0.0121461
0.0118509
0.0113527
0.0104085
0.00847395
0.0039093
0.0140694
0.0138108
0.0135144
0.0132177
0.0129519
0.012729
0.0125269
0.0122687
0.0118108
0.010889
0.00891836
0.00414634
0.014556
0.0142497
0.0139114
0.013584
0.0133034
0.013085
0.0129061
0.01269
0.0122783
0.0113836
0.0093766
0.00438896
0.0150548
0.0146937
0.014308
0.0139462
0.0136488
0.013433
0.0132803
0.0131096
0.0127499
0.0118878
0.00984488
0.00463487
0.0155587
0.0151352
0.0146962
0.0142967
0.0139813
0.0137674
0.0136418
0.0135199
0.0132181
0.0123947
0.0103171
0.00488048
0.0160582
0.0155639
0.015066
0.0146255
0.0142884
0.0140782
0.0139813
0.0139115
0.0136732
0.0128945
0.0107836
0.00512051
0.01654
0.0159665
0.0154041
0.0149217
0.0145599
0.0143545
0.0142877
0.0142723
0.0141019
0.0133727
0.0112302
0.00534768
0.0169873
0.0163265
0.0156945
0.0151649
0.0147829
0.0145834
0.0145465
0.0145862
0.0144865
0.0138103
0.0116382
0.00555321
0.0173793
0.016624
0.0159187
0.0153352
0.0149411
0.0147484
0.0147389
0.0148316
0.0148027
0.0141845
0.011987
0.00572873
0.0176912
0.0168357
0.0160574
0.0154306
0.0150195
0.0148306
0.0148439
0.0149785
0.0150315
0.0144734
0.0122624
0.00586791
0.0178961
0.0169373
0.0160879
0.0154263
0.014999
0.0148136
0.014841
0.0150253
0.0151635
0.0146791
0.0124835
0.00596835
0.0179664
0.0169053
0.0159893
0.0152993
0.014865
0.0146859
0.0147286
0.0149662
0.0151893
0.0147855
0.0126221
0.00602545
0.0178759
0.0167194
0.0157542
0.0150427
0.0146098
0.0144355
0.0145053
0.0147989
0.0151033
0.014782
0.0126673
0.006071
0.017604
0.0163648
0.0153667
0.0146518
0.0142329
0.0140706
0.0141749
0.0145242
0.0149005
0.0146558
0.0126044
0.00608349
0.0171391
0.0158487
0.0148371
0.0141359
0.013739
0.0135998
0.0137437
0.0141451
0.0145778
0.0143832
0.0124121
0.00603848
0.016482
0.0151731
0.0141797
0.0135124
0.0131432
0.0130359
0.0132207
0.0136667
0.0141338
0.0139694
0.0121076
0.00593811
0.0156588
0.0143716
0.0134257
0.0128064
0.0124672
0.0123926
0.0126147
0.0130921
0.0135454
0.013444
0.0117042
0.00577414
0.0146995
0.0134814
0.0126066
0.01204
0.011724
0.0116765
0.0119305
0.012426
0.012893
0.0128383
0.0112257
0.0055584
0.0136682
0.0125451
0.0117444
0.0112105
0.0109072
0.0108837
0.0111686
0.0116597
0.0121705
0.012172
0.0106959
0.00530929
0.0125942
0.0115762
0.0108303
0.0102934
0.00999843
0.0100099
0.0103424
0.0108797
0.0114243
0.0114715
0.0101289
0.00503625
0.011496
0.0105529
0.00979953
0.00925279
0.00899306
0.0090764
0.00946454
0.0100995
0.010684
0.0107649
0.00954142
0.00474555
0.0103444
0.00939236
0.00861538
0.00810759
0.00795134
0.00816468
0.00866586
0.00936715
0.00997337
0.0100794
0.00895442
0.00444406
0.00905209
0.00806943
0.00734465
0.00697315
0.00697013
0.00732421
0.00794615
0.00870227
0.00931704
0.00943338
0.00838337
0.00413753
0.00759991
0.00670371
0.00616273
0.00597661
0.00613867
0.00660671
0.00733068
0.00811745
0.00872459
0.00883477
0.00783576
0.00383021
0.00615506
0.00550389
0.00520173
0.00520909
0.005515
0.00607581
0.00683422
0.00761306
0.00819163
0.0082792
0.00731015
0.00352456
0.00496459
0.00460663
0.004532
0.00469745
0.00509368
0.00569216
0.00643429
0.00717116
0.00769991
0.00774673
0.00678411
0.00323409
0.00414779
0.0040488
0.0041425
0.00439854
0.00483
0.00541641
0.00609955
0.00675934
0.00721595
0.0072097
0.00624213
0.00296957
0.00369909
0.00377172
0.00395426
0.00423993
0.00464928
0.00518139
0.00578534
0.00635607
0.0067299
0.00665957
0.00568153
0.00271992
0.00351181
0.00365673
0.0038547
0.00412789
0.00449588
0.00496035
0.00547614
0.00594969
0.00623067
0.00608667
0.005102
0.00247795
0.00342828
0.0035845
0.00377362
0.00402063
0.0043405
0.00473252
0.0051557
0.00552542
0.00570455
0.00548208
0.00450781
0.00223863
0.00334953
0.00349579
0.00366848
0.00388588
0.00415566
0.0044739
0.00480175
0.00506287
0.00513606
0.00484159
0.00390991
0.00199785
0.00322089
0.00334798
0.00350141
0.00368804
0.00390728
0.00415201
0.00438472
0.00453902
0.004515
0.0041735
0.00332663
0.00175121
0.00299561
0.00309658
0.00322753
0.00338226
0.00355267
0.00372906
0.00387644
0.00394165
0.00385054
0.0035054
0.00278039
0.0014928
0.0026202
0.00268339
0.00279067
0.00291972
0.00305468
0.00318279
0.00327555
0.00329645
0.00319619
0.00290418
0.00231593
0.00120868
0.00201361
0.00203397
0.00212637
0.00224447
0.00237128
0.00248963
0.0025833
0.00262906
0.0025879
0.00238614
0.00189183
0.000884457
0.0009084
0.000966851
0.00103733
0.00111737
0.00120748
0.00128897
0.00135559
0.00139517
0.00138557
0.00128853
0.00104109
0.000468637
0.0101863
0.0203646
0.0244137
0.0281411
0.0319314
0.0354691
0.0384256
0.0406926
0.0422946
0.0433296
0.043935
0.0442693
0.0444954
0.0447607
0.0451793
0.0458199
0.0467022
0.0478019
0.0490629
0.0504128
0.0517771
0.0530892
0.054295
0.0553534
0.0562324
0.0569054
0.0573465
0.0575261
0.0106508
0.0215093
0.0259568
0.0298114
0.0334922
0.0367372
0.0392828
0.0410636
0.0421416
0.0426534
0.0427773
0.0427102
0.0426448
0.0427409
0.0430999
0.0437504
0.0446515
0.0457098
0.0468045
0.047813
0.0486285
0.0491683
0.0493724
0.0492021
0.0486205
0.0475889
0.0460604
0.0439615
0.0110511
0.0224733
0.0272668
0.0311712
0.0346738
0.0375784
0.0396783
0.0409539
0.0415098
0.0415268
0.0412259
0.0408395
0.0405723
0.0405619
0.0408498
0.0413773
0.0420073
0.042563
0.0428687
0.0427811
0.0422044
0.0410894
0.0394205
0.037208
0.034473
0.0312471
0.0276703
0.0241644
0.0113782
0.0232453
0.0283375
0.0322148
0.0354965
0.0380286
0.0396666
0.0404387
0.0404974
0.0400712
0.0394195
0.038791
0.0383696
0.0382253
0.038298
0.03842
0.0383694
0.0379309
0.0369434
0.0353302
0.0330913
0.0302967
0.0270727
0.0235819
0.0200353
0.0169735
0.0146097
0.0126766
0.0116393
0.0238423
0.0291606
0.0329602
0.0359892
0.0381323
0.0393098
0.0396007
0.0392087
0.038408
0.0374838
0.036672
0.0360942
0.0357185
0.0353716
0.0348039
0.0337728
0.0321148
0.0297848
0.026858
0.0235113
0.0200055
0.0166558
0.0137745
0.0117834
0.0104274
0.00948618
0.00879592
0.0118386
0.0242712
0.0297383
0.0334333
0.036188
0.0379409
0.0386764
0.0385272
0.037749
0.0366534
0.0355298
0.0345681
0.0337954
0.0330669
0.032126
0.0307089
0.0286455
0.0259196
0.0226754
0.0191872
0.0158225
0.0129486
0.0108188
0.00953859
0.00880776
0.00837081
0.00808957
0.00788637
0.0119806
0.0245468
0.0300986
0.0336633
0.0361344
0.03751
0.0378377
0.0373055
0.0362182
0.0349103
0.0336489
0.0325484
0.0315271
0.0303471
0.028728
0.0264771
0.0235842
0.0202348
0.0167766
0.0136334
0.0111636
0.00951643
0.00859775
0.008164
0.00796008
0.00786534
0.00782196
0.00779182
0.0120698
0.024685
0.0302676
0.0336834
0.0358729
0.0368965
0.0368638
0.0360177
0.0347044
0.0332627
0.031911
0.0306678
0.0293494
0.0276687
0.0253922
0.0224776
0.0191171
0.0156953
0.0126742
0.0104042
0.00897196
0.00821666
0.0078957
0.00779422
0.00779673
0.00784181
0.00789737
0.00794041
0.0121111
0.0247025
0.0302719
0.033528
0.0354482
0.0361552
0.0358193
0.0347352
0.0332788
0.0317727
0.0303637
0.0289677
0.027322
0.0251454
0.0223199
0.018997
0.0155639
0.0125192
0.0102464
0.00883432
0.00810455
0.00779987
0.00773402
0.00778114
0.00787702
0.00798719
0.00809002
0.00816779
0.0121096
0.0246158
0.0301377
0.0332313
0.0349028
0.0353364
0.0347603
0.0335156
0.0319938
0.0304806
0.0290356
0.0274758
0.0254945
0.0228715
0.0196537
0.016188
0.0129958
0.0105401
0.00898121
0.00816357
0.00781478
0.00773171
0.00778976
0.00791063
0.00805529
0.00820051
0.00832837
0.00842419
0.0120702
0.0244412
0.0298902
0.0328251
0.0342751
0.0344831
0.0337321
0.0324015
0.0308831
0.0294076
0.0279383
0.0262068
0.0239007
0.0209083
0.0174634
0.014072
0.0112882
0.00941708
0.00838716
0.00792317
0.00778337
0.00781835
0.00794277
0.00810589
0.00828014
0.00844594
0.00858794
0.00869325
0.0119979
0.0241941
0.0295529
0.0323385
0.0335981
0.0336307
0.0327688
0.0314208
0.0299636
0.0285587
0.0270702
0.0251628
0.0225557
0.0192815
0.0157533
0.012573
0.010231
0.0088324
0.00815086
0.0078968
0.00787734
0.00798061
0.00814614
0.00833744
0.00853116
0.00870995
0.00886004
0.00896978
0.0118977
0.0238887
0.0291468
0.0317963
0.032899
0.0328059
0.0318932
0.0305879
0.0292381
0.0279253
0.0264157
0.0243303
0.0214548
0.0179835
0.0144783
0.0115696
0.00962237
0.00856795
0.00810739
0.00798353
0.00803825
0.00818577
0.00838063
0.00859247
0.00880006
0.00898751
0.00914202
0.00925287
0.011774
0.0235375
0.02869
0.0312197
0.0321994
0.0320279
0.0311186
0.0299064
0.0286982
0.0274868
0.0259463
0.023673
0.0205704
0.0169823
0.0135704
0.0109384
0.00930937
0.00849256
0.00817634
0.0081361
0.00824002
0.00841979
0.00863752
0.00886545
0.00908377
0.00927728
0.0094338
0.0095434
0.0116311
0.0231517
0.0281981
0.0306256
0.0315153
0.0313089
0.0304501
0.0293714
0.0283267
0.0272121
0.0255887
0.023122
0.0198565
0.0162332
0.0129575
0.0105773
0.00919137
0.00853443
0.00831482
0.0083314
0.00847107
0.00867637
0.00891292
0.00915444
0.00938166
0.00957962
0.00973646
0.00984294
0.0114726
0.0227409
0.0276839
0.0300273
0.0308581
0.0306557
0.029887
0.0289717
0.0280993
0.0270358
0.0253178
0.0226743
0.0192784
0.0156851
0.0125734
0.0104092
0.00920264
0.00865703
0.00850246
0.00855892
0.0087262
0.00895259
0.00920564
0.00945936
0.00969443
0.00989576
0.0100516
0.0101533
0.0113021
0.022313
0.0271577
0.0294347
0.030235
0.0300707
0.0294238
0.0286914
0.0279863
0.0269365
0.0251221
0.0223218
0.0188272
0.0153039
0.0123629
0.0103795
0.00930438
0.00883641
0.0087273
0.00881337
0.00900301
0.00924782
0.00951606
0.00978123
0.0100235
0.0102275
0.0103812
0.0104766
0.0111224
0.0218745
0.0266276
0.0288551
0.0296503
0.0295527
0.0290516
0.0285109
0.0279394
0.026899
0.0249932
0.0220567
0.0184943
0.015052
0.0122779
0.0104491
0.00947166
0.00905918
0.00898314
0.00909236
0.00930114
0.00956289
0.00984556
0.0101218
0.0103709
0.0105768
0.0107273
0.0108147
0.0109363
0.0214309
0.0260996
0.0282935
0.0291058
0.0290984
0.0287593
0.0284103
0.0279434
0.026913
0.0249237
0.0218708
0.0182671
0.0149027
0.0122853
0.0105911
0.0096884
0.00931755
0.00926698
0.00939542
0.00962148
0.00989953
0.0101962
0.0104833
0.010739
0.010946
0.0110921
0.0111697
0.0107457
0.0209862
0.0255786
0.027753
0.0286015
0.0287025
0.0285354
0.0283718
0.0279904
0.0269708
0.0249067
0.0217564
0.018131
0.0148424
0.0123654
0.0107874
0.0099445
0.00960715
0.00957777
0.00972329
0.00996575
0.0102598
0.0105707
0.0108687
0.0111304
0.0113378
0.0114779
0.0115435
0.0105526
0.020544
0.0250676
0.0272352
0.0281358
0.0283586
0.0283674
0.0283759
0.0280722
0.0270651
0.0249357
0.0217063
0.0180748
0.0148623
0.0125001
0.0110241
0.0102343
0.00992594
0.00991577
0.0100776
0.0103364
0.0106469
0.0109722
0.011281
0.0115483
0.0117548
0.0118869
0.0119379
0.0103586
0.0201066
0.0245691
0.0267409
0.0277063
0.0280598
0.0282428
0.0284021
0.0281809
0.0271899
0.0250051
0.0217143
0.0180896
0.0149504
0.0126842
0.0112955
0.0105558
0.0102739
0.0102823
0.0104608
0.0107366
0.0110642
0.0114044
0.0117239
0.0119959
0.0121998
0.0123215
0.0123546
0.0101648
0.019676
0.0240844
0.0262699
0.0273102
0.0277995
0.0281516
0.0284466
0.0283106
0.0273396
0.0251096
0.0217752
0.0181684
0.0150979
0.0129139
0.0115981
0.0109065
0.0106513
0.0106792
0.0108759
0.0111699
0.0115159
0.0118715
0.0122015
0.012477
0.0126759
0.0127837
0.0127948
0.00997232
0.0192536
0.0236144
0.0258217
0.0269442
0.0275714
0.0280857
0.0285052
0.0284564
0.0275099
0.0252456
0.021884
0.018304
0.0152985
0.0131874
0.0119301
0.0112852
0.0110595
0.0111094
0.0113264
0.0116406
0.0120065
0.0123782
0.012718
0.0129949
0.0131856
0.0132752
0.0132593
0.00978194
0.0188404
0.0231595
0.025395
0.0266052
0.0273698
0.0280385
0.0285745
0.0286139
0.0276965
0.0254102
0.0220367
0.0184909
0.0155478
0.0135019
0.0122944
0.0116942
0.0115011
0.0115762
0.0118166
0.0121536
0.0125413
0.0129295
0.0132779
0.0135533
0.0137312
0.0137969
0.0137479
0.00959429
0.0184371
0.0227197
0.0249888
0.0262899
0.0271897
0.0280049
0.0286511
0.0287796
0.0278963
0.0256008
0.0222296
0.0187243
0.0158423
0.0138562
0.0126926
0.0121357
0.0119793
0.0120839
0.0123515
0.0127143
0.0131259
0.0135307
0.0138855
0.0141551
0.0143142
0.0143486
0.0142602
0.00940975
0.0180441
0.0222949
0.0246015
0.0259953
0.0270267
0.0279803
0.0287324
0.0289503
0.0281065
0.025815
0.0224597
0.0190008
0.0161795
0.01425
0.0131276
0.0126125
0.0124984
0.0126376
0.0129369
0.0133289
0.0137662
0.0141869
0.0145447
0.0148022
0.014934
0.0149303
0.0147957
0.0092286
0.0176613
0.0218847
0.0242318
0.0257188
0.0268771
0.0279614
0.0288158
0.0291234
0.028325
0.0260509
0.0227241
0.0193175
0.016558
0.0146839
0.0136033
0.0131318
0.0130642
0.0132432
0.0135792
0.0140043
0.0144686
0.014903
0.0152563
0.0154934
0.0155909
0.0155409
0.0153515
0.00905124
0.0172885
0.0214884
0.0238782
0.0254577
0.026738
0.0279454
0.0288992
0.0292968
0.0285498
0.0263067
0.0230209
0.0196724
0.0169767
0.015157
0.0141233
0.0136991
0.0136821
0.0139069
0.0142855
0.014749
0.0152377
0.0156777
0.0160203
0.0162294
0.0162833
0.0161765
0.0159218
0.00887789
0.0169259
0.0211054
0.0235396
0.02521
0.0266067
0.0279301
0.0289807
0.0294682
0.0287793
0.02658
0.0233483
0.0200651
0.0174354
0.0156705
0.0146894
0.0143187
0.0143571
0.0146354
0.015063
0.0155676
0.0160728
0.0165131
0.0168369
0.0170079
0.0170061
0.0168301
0.016498
0.0087086
0.0165735
0.0207351
0.0232148
0.024974
0.0264819
0.027914
0.0290581
0.0296348
0.029012
0.0268695
0.0237056
0.0204952
0.0179347
0.0162266
0.0153047
0.0149956
0.0150959
0.0154355
0.0159113
0.0164539
0.0169747
0.0174086
0.0177031
0.0178229
0.0177509
0.0174909
0.0170676
0.00854338
0.0162312
0.0203772
0.0229038
0.0247491
0.0263617
0.0278949
0.0291291
0.0297926
0.0292415
0.0271754
0.0240955
0.0209637
0.0184766
0.0168291
0.0159747
0.015737
0.0159072
0.0163096
0.0168347
0.0174126
0.0179434
0.0183606
0.018612
0.0186642
0.0185047
0.0181437
0.0176143
0.00838266
0.0159001
0.0200317
0.0226043
0.0245329
0.0262444
0.027872
0.029193
0.0299411
0.0294669
0.0274892
0.0245133
0.0214755
0.0190645
0.017485
0.0167072
0.0165501
0.0167946
0.0172624
0.0178374
0.018445
0.0189756
0.0193617
0.0195522
0.019517
0.0192497
0.0187687
0.0181171
0.00822833
0.0155786
0.019697
0.0223152
0.0243242
0.0261287
0.0278445
0.0292489
0.0300798
0.0296877
0.0278101
0.0249534
0.0220228
0.0196974
0.0182033
0.0175114
0.0174389
0.0177614
0.0182972
0.0189242
0.0195489
0.0200641
0.0204002
0.0205076
0.0203614
0.0199632
0.0193414
0.0185508
0.00807981
0.0152662
0.0193728
0.0220359
0.0241219
0.0260139
0.0278119
0.0292964
0.0302084
0.029904
0.0281376
0.0254149
0.0226064
0.0203781
0.0189826
0.0183879
0.018406
0.01881
0.0194142
0.020091
0.0207166
0.0211967
0.0214591
0.0214569
0.0211725
0.0206174
0.0198327
0.0188868
0.00793659
0.0149629
0.0190586
0.0217657
0.0239251
0.0258992
0.0277741
0.0293352
0.030327
0.0301154
0.0284709
0.0258937
0.0232236
0.0211117
0.0198267
0.0193384
0.0194531
0.0199409
0.02061
0.0213213
0.0219344
0.0223563
0.0225164
0.0223738
0.0219202
0.0211804
0.0202103
0.0190941
0.00779824
0.0146684
0.0187539
0.0215038
0.0237332
0.0257842
0.027731
0.0293654
0.0304358
0.0303221
0.0288095
0.0263892
0.0238724
0.0218963
0.0207365
0.0203641
0.0205813
0.0211543
0.021883
0.0226103
0.0231875
0.0235215
0.0235456
0.0232271
0.0225703
0.0216164
0.0204396
0.0191417
0.00766437
0.0143824
0.0184585
0.0212498
0.0235457
0.0256688
0.0276826
0.0293871
0.0305351
0.0305242
0.029153
0.0269012
0.0245528
0.0227309
0.0217118
0.0214658
0.021791
0.0224487
0.0232331
0.0239472
0.0244569
0.0246669
0.0245155
0.0239812
0.0230848
0.0218879
0.0204861
0.0190011
0.00753465
0.0141047
0.0181718
0.0210032
0.0233621
0.0255527
0.0276294
0.0294006
0.0306255
0.0307221
0.0295014
0.0274298
0.0252652
0.0236153
0.0227527
0.0226437
0.0230806
0.0238172
0.0246409
0.0253125
0.025718
0.0257621
0.0253906
0.0245969
0.0234234
0.0219567
0.0203182
0.0186502
0.0074088
0.013835
0.0178936
0.0207635
0.0231821
0.0254361
0.0275718
0.0294067
0.0307079
0.0309165
0.0298548
0.0279752
0.0260098
0.0245496
0.0238592
0.0238972
0.024447
0.0252511
0.0260825
0.0266814
0.0269418
0.0267728
0.0261316
0.0250322
0.0235447
0.0217876
0.0199112
0.0180783
0.00728657
0.013573
0.0176234
0.0205305
0.0230056
0.025319
0.0275102
0.0294059
0.0307833
0.031108
0.0302138
0.0285379
0.0267871
0.0255342
0.0250314
0.0252253
0.0258866
0.0267433
0.0275454
0.0280315
0.0280988
0.0276619
0.0266961
0.025243
0.0234087
0.0213507
0.0192515
0.0172892
0.00716772
0.0133187
0.0173611
0.0203038
0.0228325
0.0252019
0.0274455
0.0293993
0.0308529
0.0312978
0.030579
0.0291186
0.027598
0.0265697
0.0262689
0.0266253
0.0273928
0.0282892
0.0290081
0.0293354
0.0291546
0.0283891
0.0270392
0.0251846
0.022979
0.0206268
0.0183425
0.0163062
0.00705206
0.0130716
0.0171063
0.0200833
0.0226628
0.0250852
0.0273783
0.0293879
0.030918
0.0314871
0.0309514
0.0297182
0.0284434
0.0276565
0.027571
0.0280922
0.0289504
0.0298479
0.0304415
0.0305584
0.0300674
0.0289083
0.0271132
0.0248139
0.0222278
0.0196133
0.0172084
0.0151861
0.00693943
0.0128317
0.0168589
0.0198688
0.0224967
0.0249692
0.0273096
0.0293729
0.0309804
0.0316775
0.0313324
0.030338
0.0293244
0.0287953
0.0289357
0.0296184
0.0305423
0.0313886
0.0318173
0.0316621
0.0307917
0.0291673
0.0268662
0.0240916
0.0211414
0.0183294
0.0158976
0.0139835
0.00682967
0.0125988
0.0166187
0.0196603
0.0223343
0.0248545
0.0272403
0.0293556
0.0310417
0.0318707
0.0317237
0.0309795
0.0302424
0.0299862
0.0303596
0.0311938
0.0321515
0.0328934
0.0331007
0.032604
0.0312774
0.02911
0.0262455
0.022987
0.0197273
0.016822
0.0144918
0.0127397
0.00672266
0.0123726
0.0163854
0.0194576
0.0221759
0.0247418
0.0271713
0.0293375
0.0311036
0.0320686
0.0321269
0.0316446
0.0311988
0.0312285
0.0318371
0.0328052
0.0337606
0.0343391
0.0342545
0.0333375
0.0314684
0.028677
0.025204
0.0214891
0.0180214
0.0151657
0.0130268
0.0114801
0.0066183
0.0121531
0.0161591
0.0192608
0.0220215
0.0246315
0.0271035
0.0293199
0.0311681
0.0322734
0.0325443
0.0323352
0.0321947
0.0325201
0.0333579
0.0344315
0.0353444
0.0356882
0.0352356
0.0338098
0.0313023
0.0278079
0.0237091
0.0196176
0.0160939
0.0134425
0.0115702
0.0101872
0.00651651
0.0119401
0.0159395
0.0190699
0.0218715
0.0245237
0.0270366
0.0293046
0.0312371
0.032487
0.032978
0.0330533
0.0332304
0.0338558
0.0349057
0.0360386
0.03683
0.0368897
0.0359949
0.0339595
0.0307101
0.0264495
0.021757
0.0174309
0.0140642
0.0117416
0.0101144
0.00875797
0.0064172
0.0117335
0.0157267
0.018885
0.0217261
0.0244189
0.0269716
0.0292929
0.0313125
0.0327119
0.0334304
0.0338007
0.0343047
0.0352264
0.0364582
0.0375935
0.0381938
0.0378998
0.03648
0.0337205
0.0296263
0.0245714
0.0193875
0.0150627
0.0120521
0.0100935
0.00856028
0.00719401
0.00632032
0.0115331
0.0155206
0.0187061
0.0215855
0.0243174
0.0269093
0.0292861
0.031396
0.0329501
0.0339037
0.0345784
0.0354141
0.0366172
0.0379855
0.0390542
0.0393919
0.03867
0.0366322
0.0330245
0.0280021
0.0221884
0.0167099
0.0126396
0.0101394
0.00842787
0.00691914
0.00570174
0.00622585
0.011339
0.0153212
0.0185332
0.0214498
0.0242197
0.0268508
0.0292853
0.0314895
0.0332036
0.0343998
0.0353865
0.0365518
0.0380077
0.0394506
0.040375
0.0403773
0.0391482
0.0363909
0.0318117
0.0258279
0.0193894
0.0139086
0.0103612
0.0083587
0.00675714
0.00539264
0.00453549
0.00613374
0.011151
0.0151285
0.0183665
0.0213193
0.0241263
0.0267969
0.0292918
0.0315944
0.0334744
0.0349202
0.0362231
0.0377062
0.0393701
0.040813
0.0415139
0.0410998
0.0392792
0.0356976
0.0300508
0.0231679
0.0163694
0.0112047
0.00835195
0.0066919
0.00522846
0.00422321
0.00378659
0.00604399
0.0109691
0.0149425
0.018206
0.021194
0.0240376
0.0267484
0.0293065
0.0317121
0.0337641
0.0354653
0.0370834
0.0388597
0.0406689
0.0420241
0.0424162
0.0415057
0.0390076
0.0345071
0.0277656
0.0201862
0.0134179
0.00884082
0.00668442
0.00525566
0.00405108
0.00349201
0.00341573
0.00595659
0.0107932
0.0147632
0.0180517
0.0210742
0.023954
0.0267061
0.0293303
0.0318438
0.0340736
0.0360345
0.0379595
0.0399886
0.0418623
0.0430327
0.0430302
0.0415459
0.0382878
0.0328062
0.025068
0.0171623
0.0108884
0.00706499
0.00543457
0.00415571
0.0032954
0.00314838
0.00327758
0.00587154
0.0106234
0.0145906
0.0179036
0.0209598
0.0238756
0.0266706
0.0293639
0.0319904
0.0344037
0.0366251
0.0388393
0.041064
0.0429061
0.0437906
0.0433109
0.0411811
0.0370944
0.0306341
0.0221775
0.0144544
0.00906202
0.00595192
0.00463087
0.00340209
0.00292392
0.00301852
0.00319907
0.00578885
0.0104596
0.0144247
0.0177619
0.020851
0.0238028
0.0266425
0.0294081
0.0321527
0.0347541
0.0372328
0.0397067
0.0420531
0.0437592
0.0442606
0.0432258
0.0403889
0.0354323
0.0280924
0.0194024
0.0124819
0.00800269
0.00546205
0.0042479
0.00301373
0.00277323
0.0029244
0.00309219
0.00570854
0.0103018
0.0142656
0.0176263
0.0207477
0.0237358
0.0266221
0.0294633
0.0323309
0.0351237
0.0378504
0.0405419
0.0429229
0.044388
0.04442
0.0427609
0.0391694
0.0333385
0.0253368
0.0170635
0.0113546
0.00763241
0.0054896