/*--------------------------------*- C++ -*----------------------------------*\
| =========                 |                                                 |
| \\      /  F ield         | OpenFOAM: The Open Source CFD Toolbox           |
|  \\    /   O peration     | Version:  v2012                                 |
|   \\  /    A nd           | Website:  www.openfoam.com                      |
|    \\/     M anipulation  |                                                 |
\*---------------------------------------------------------------------------*/
FoamFile
{
    version     2.0;
    format      ascii;
    class       volScalarField;
    location    "673";
    object      nut;
}
// * * * * * * * * * * * * * * * * * * * * * * * * * * * * * * * * * * * * * //

dimensions      [0 2 -1 0 0 0 0];


internalField   nonuniform List<scalar> 
6084
(
0.000496525
0.00051631
0.000537894
0.000561545
0.000587598
0.000616471
0.000648686
0.000684918
0.000726046
0.00077324
0.000828097
0.000892852
0.000970727
0.00106654
0.00118776
0.00134656
0.00156389
0.00187808
0.00236467
0.00318569
0.00276145
0.00286662
0.00297974
0.00310174
0.0032338
0.00337737
0.00353415
0.0037063
0.00389652
0.00410827
0.00434613
0.00461631
0.00492743
0.00529187
0.00572812
0.00626496
0.00694968
0.0078655
0.00917399
0.0112424
0.00471814
0.00488651
0.00506666
0.00525969
0.00546709
0.00569059
0.00593226
0.00619456
0.00648054
0.00679394
0.00713952
0.00752341
0.00795361
0.00844069
0.00899862
0.00964562
0.0104044
0.0112993
0.0123451
0.0135072
0.00595961
0.00616425
0.00638248
0.00661536
0.00686427
0.00713082
0.00741682
0.00772427
0.00805545
0.00841292
0.00879952
0.00921842
0.00967302
0.0101668
0.010703
0.0112836
0.0119074
0.0125669
0.0132427
0.0138984
0.00655424
0.00677514
0.00701031
0.00726071
0.00752758
0.00781232
0.00811639
0.00844131
0.00878856
0.00915953
0.00955531
0.00997647
0.0104227
0.0108922
0.0113811
0.0118825
0.0123861
0.0128788
0.0133507
0.0138127
0.00655458
0.00677534
0.00701043
0.00726079
0.00752763
0.00781235
0.00811642
0.00844132
0.00878857
0.00915953
0.00955531
0.00997647
0.0104227
0.0108922
0.0113811
0.0118825
0.0123861
0.0128788
0.0133507
0.0138127
0.00596015
0.00616456
0.00638269
0.00661551
0.00686438
0.0071309
0.00741687
0.00772431
0.00805548
0.00841294
0.00879953
0.00921843
0.00967303
0.0101668
0.010703
0.0112836
0.0119074
0.0125669
0.0132427
0.0138984
0.00471778
0.00488647
0.00506673
0.00525982
0.00546721
0.00569069
0.00593233
0.00619461
0.00648057
0.00679396
0.00713953
0.00752342
0.00795362
0.00844069
0.00899862
0.00964563
0.0104044
0.0112993
0.0123451
0.0135072
0.0027584
0.00286586
0.00297952
0.00310177
0.00323388
0.00337744
0.00353421
0.00370635
0.00389655
0.00410829
0.00434615
0.00461632
0.00492743
0.00529187
0.00572812
0.00626496
0.00694968
0.00786551
0.00917399
0.0112424
0.000496485
0.000516301
0.000537895
0.00056155
0.000587603
0.000616474
0.000648689
0.00068492
0.000726047
0.000773241
0.000828098
0.000892852
0.000970728
0.00106654
0.00118776
0.00134656
0.00156389
0.00187808
0.00236467
0.00318569
0.000345518
0.000354598
0.000364084
0.000374037
0.000384514
0.000395581
0.000407307
0.000419767
0.000433049
0.000447246
0.00046247
0.000478846
0.0018785
0.00193956
0.00200125
0.00206409
0.00212854
0.00219508
0.00226418
0.00233634
0.00241206
0.00249186
0.00257626
0.00266585
0.00328935
0.00338694
0.00348605
0.00358747
0.00369189
0.00379998
0.00391241
0.00402986
0.00415304
0.00428264
0.0044194
0.00456411
0.0042217
0.00433772
0.00445648
0.00457888
0.00470558
0.00483726
0.00497461
0.00511832
0.0052691
0.00542773
0.005595
0.00577173
0.00469255
0.00481258
0.00493684
0.00506614
0.00520105
0.00534212
0.00548988
0.00564488
0.00580774
0.00597919
0.00616005
0.00635114
0.00473696
0.00484649
0.00496206
0.0050844
0.00521401
0.00535128
0.00549653
0.00564989
0.00581139
0.00598151
0.00616136
0.00635181
0.00438229
0.00446287
0.00455122
0.00464816
0.00475444
0.00487093
0.00499869
0.00513789
0.00528354
0.00543674
0.00559974
0.00577371
0.00370477
0.00373477
0.00377258
0.0038187
0.00387358
0.00393784
0.00401193
0.00409619
0.00419727
0.00431125
0.00443419
0.00456912
0.00286563
0.00281609
0.00277077
0.00273042
0.00269464
0.00266161
0.00262899
0.00259943
0.00258437
0.00259587
0.00263527
0.00269007
0.00212079
0.00196618
0.00179833
0.00161786
0.00142661
0.001243
0.00107414
0.000925646
0.000800444
0.000699313
0.000617009
0.0005489
7.02855e-05
6.60557e-05
6.77227e-05
7.88057e-05
0.000107851
0.000108812
0.000110464
0.00016105
0.000173544
0.000184794
0.000195171
0.000204901
0.000214135
0.000222979
0.000231513
0.0002398
0.000247895
0.000255843
0.000263689
0.000271471
0.000279231
0.000287007
0.000294842
0.000302776
0.000310852
0.000319116
0.000327615
0.000336399
0.000118915
0.000226953
0.000297442
0.000313291
0.000323969
0.000357642
0.000402942
0.000461717
0.000526518
0.000592273
0.000659002
0.000726672
0.000795239
0.000864628
0.000934713
0.00100531
0.00107618
0.00114706
0.00121766
0.00128769
0.00135694
0.00142521
0.00149244
0.00155862
0.00162381
0.00168814
0.00175185
0.00181521
0.000147398
0.000435102
0.000462306
0.000477538
0.000515806
0.000588001
0.000693086
0.000818486
0.00095101
0.00108547
0.00122018
0.00135415
0.00148686
0.0016179
0.00174694
0.00187366
0.00199777
0.00211903
0.00223726
0.00235241
0.00246451
0.00257371
0.00268029
0.00278459
0.00288707
0.00298822
0.00308861
0.00318888
0.000179991
0.000564294
0.000609067
0.000648549
0.000726866
0.000855002
0.00102295
0.00121081
0.00140382
0.00159539
0.00178211
0.00196235
0.00213541
0.00230115
0.00245968
0.0026113
0.00275643
0.00289556
0.00302927
0.0031582
0.00328302
0.00340445
0.00352323
0.00364009
0.0037558
0.00387112
0.00398679
0.00410356
0.000210589
0.000685058
0.000739007
0.000837465
0.00096527
0.00114972
0.00137195
0.00160877
0.00184499
0.00207251
0.00228705
0.00248708
0.00267255
0.00284428
0.00300356
0.00315185
0.0032907
0.00342165
0.00354614
0.00366554
0.00378112
0.00389405
0.00400542
0.00411624
0.00422746
0.00433995
0.00445455
0.00457202
0.000231734
0.000714263
0.000865924
0.00103976
0.00122225
0.00145631
0.00171922
0.00198766
0.00224649
0.00248701
0.00270519
0.00290037
0.00307378
0.00322773
0.00336493
0.0034882
0.00360024
0.0037035
0.00380018
0.0038922
0.00398124
0.00406881
0.00415623
0.0042447
0.0043353
0.00442902
0.00452675
0.00462932
0.000247404
0.000774057
0.00100257
0.00125109
0.00148311
0.00175852
0.00204746
0.00232976
0.00259124
0.00282386
0.00302479
0.00319485
0.00333693
0.00345496
0.00355309
0.00363536
0.00370538
0.00376628
0.00382071
0.0038709
0.00391875
0.0039659
0.00401379
0.00406373
0.0041169
0.00417441
0.00423726
0.0043064
0.000260304
0.000865443
0.00114707
0.00146423
0.00173701
0.00204174
0.00234433
0.00262449
0.00287147
0.00307908
0.00324641
0.00337622
0.00347327
0.00354311
0.00359123
0.00362264
0.00364161
0.00365163
0.00365547
0.00365533
0.00365297
0.00364985
0.00364725
0.00364633
0.00364822
0.00365399
0.0036647
0.00368136
0.000270924
0.000971863
0.00129236
0.00167206
0.00197576
0.00229698
0.00260141
0.00286719
0.00308627
0.00325641
0.00337919
0.00345971
0.00350485
0.0035219
0.00351776
0.00349833
0.00346832
0.00343119
0.0033893
0.0033441
0.0032964
0.00324661
0.00319496
0.00314164
0.00308692
0.00303124
0.00297521
0.00291966
0.000279664
0.00108096
0.00143475
0.00186905
0.00219408
0.00252016
0.00281456
0.00305721
0.00323942
0.00336449
0.00343746
0.00346633
0.00346046
0.00342926
0.00338106
0.00332256
0.00325846
0.00319151
0.00312279
0.00305217
0.00297875
0.00290121
0.00281811
0.00272797
0.0026293
0.00252064
0.00240053
0.00226756
0.00193679
0.00180892
0.00167516
0.0015347
0.00138613
0.0012298
0.00106256
0.000881297
0.000583137
0.000343967
0.000232732
0.000139587
0.00163392
0.0014861
0.00133542
0.00118296
0.00103266
0.000878489
0.000708255
0.00055201
0.000415984
0.000312749
0.000219087
9.17058e-05
0.00122684
0.00111135
0.00100351
0.000900604
0.000814727
0.000747429
0.000688528
0.000627946
0.000566536
0.000492717
0.000314043
7.84479e-05
0.00114714
0.00112471
0.00111646
0.0011097
0.00109997
0.00108439
0.00104937
0.000972705
0.000801593
0.000581939
0.000320715
8.0078e-05
0.00151597
0.00156649
0.00160702
0.00163247
0.00161007
0.00151654
0.0013717
0.00117346
0.000914119
0.000625164
0.000330508
8.38143e-05
0.00208756
0.0021231
0.00211373
0.00206476
0.00195899
0.001788
0.00156806
0.00130341
0.0010001
0.000673619
0.000350238
8.78474e-05
0.00254659
0.00252336
0.00245171
0.00233643
0.00217591
0.00196907
0.00171772
0.001423
0.00108961
0.000730747
0.000376119
9.19595e-05
0.00283492
0.00276866
0.00266532
0.00252531
0.00234608
0.00212435
0.00185717
0.00154289
0.00118429
0.000794191
0.000405864
9.60671e-05
0.00302776
0.00294374
0.00282926
0.00268164
0.0024965
0.00226846
0.00199204
0.00166315
0.00128249
0.000862111
0.000438393
0.000100139
0.00317609
0.003086
0.00296863
0.00281978
0.00263378
0.00240371
0.00212205
0.00178229
0.00138254
0.000933243
0.000473108
0.000104165
0.00330057
0.00320866
0.00309135
0.00294374
0.00275932
0.00252993
0.00224617
0.00189891
0.00148312
0.00100668
0.000509657
0.000108149
0.00340927
0.00331676
0.00320039
0.00305499
0.00287352
0.00264678
0.00236355
0.0020119
0.00158319
0.00108173
0.000547809
0.000112099
0.00350591
0.00341277
0.00329734
0.00315444
0.00297673
0.00275412
0.00247363
0.00212048
0.00168192
0.00115783
0.000587399
0.000116028
0.00359264
0.00349835
0.00338347
0.003243
0.00306946
0.00285204
0.00257615
0.00222406
0.00177863
0.00123447
0.000628278
0.000119949
0.003671
0.00357486
0.00345993
0.00332157
0.00315231
0.00294082
0.00267101
0.00232226
0.00187279
0.00131119
0.000670284
0.000123883
0.00374221
0.00364342
0.00352776
0.00339103
0.00322595
0.00302085
0.0027583
0.00241485
0.00196392
0.0013875
0.000713204
0.000127849
0.00380721
0.003705
0.00358788
0.00345221
0.00329106
0.00309257
0.00283816
0.00250167
0.00205161
0.00146287
0.00075673
0.000131875
0.00386672
0.00376036
0.00364107
0.00350585
0.00334826
0.00315643
0.00291078
0.00258261
0.00213548
0.00153673
0.000800415
0.000135995
0.00392123
0.00381006
0.00368794
0.00355257
0.00339809
0.00321283
0.00297636
0.0026576
0.00221515
0.0016084
0.00084367
0.000140258
0.003971
0.00385448
0.00372894
0.00359285
0.00344103
0.00326216
0.00303507
0.00272652
0.00229022
0.00167708
0.000885474
0.00014473
0.00401612
0.00389381
0.00376437
0.00362707
0.00347743
0.0033047
0.00308701
0.00278922
0.00236022
0.00174189
0.000924563
0.000149506
0.00405647
0.00392807
0.00379435
0.00365543
0.00350753
0.00334069
0.0031322
0.00284542
0.0024246
0.00180424
0.000962749
0.000154501
0.00409179
0.00395711
0.00381887
0.00367807
0.00353144
0.00337028
0.00317212
0.00289786
0.00248724
0.00186615
0.00100149
0.00015953
0.0041217
0.00398065
0.00383775
0.00369522
0.0035507
0.00339524
0.00320716
0.00294599
0.00254717
0.00192741
0.00104084
0.000164591
0.00414569
0.00399908
0.00385223
0.00370772
0.00356457
0.00341463
0.0032367
0.00298926
0.00260378
0.00198761
0.00108069
0.000169661
0.00416498
0.00401241
0.00386108
0.00371435
0.00357231
0.00342777
0.00326014
0.00302703
0.00265642
0.00204624
0.00112085
0.000174729
0.00417803
0.00401928
0.00386328
0.00371423
0.00357321
0.00343403
0.00327666
0.00305856
0.00270429
0.00210261
0.00116101
0.000179768
0.00418367
0.00401858
0.00385783
0.00370648
0.00356649
0.00343257
0.00328563
0.003083
0.00274637
0.00215577
0.0012007
0.000184736
0.00418077
0.00400917
0.00384367
0.0036901
0.00355131
0.00342264
0.00328616
0.00309928
0.00278145
0.00220452
0.00123925
0.000189567
0.00416811
0.00398981
0.00381956
0.00366396
0.00352643
0.00340323
0.00327723
0.00310625
0.00280807
0.00224732
0.00127565
0.000194173
0.00414427
0.00395906
0.00378415
0.00362693
0.0034908
0.0033733
0.00325773
0.00310252
0.00282443
0.00228213
0.00130849
0.000198433
0.00410762
0.00391533
0.00373587
0.00357728
0.00344324
0.00333175
0.00322635
0.00308641
0.00282823
0.00230635
0.00133586
0.000202211
0.00405627
0.00385681
0.0036731
0.00351328
0.00338248
0.00327728
0.00318145
0.00305577
0.00264321
0.00229763
0.00135544
0.000205381
0.00398814
0.00378161
0.00359432
0.00343461
0.0033075
0.0032086
0.00312118
0.00272182
0.00235785
0.00209944
0.0013654
0.000207861
0.00390104
0.00368784
0.00349795
0.00333985
0.00321722
0.00312474
0.00282951
0.00242982
0.00213608
0.00193949
0.00137093
0.000209633
0.00379286
0.00357389
0.00338269
0.00322783
0.00311121
0.00298605
0.00253167
0.00219235
0.00196118
0.0018171
0.00137156
0.000210633
0.00366179
0.00343865
0.0032486
0.0030988
0.00298987
0.00268224
0.00227896
0.00200019
0.00182545
0.00172577
0.00136659
0.000211428
0.00350672
0.00328176
0.00309574
0.00295379
0.00285459
0.00242297
0.00207052
0.00184993
0.00172763
0.00166437
0.00135477
0.000211645
0.00332762
0.003105
0.00292643
0.00279537
0.00263714
0.002202
0.00190426
0.0017388
0.00166534
0.00163311
0.00133618
0.000210861
0.00312596
0.00291061
0.00274416
0.00262736
0.00239003
0.00201373
0.00177707
0.00166438
0.00163593
0.00163083
0.00131124
0.000209101
0.00290601
0.00270387
0.00255438
0.00245489
0.00216832
0.00185972
0.00168807
0.00162616
0.00163579
0.00165578
0.00128012
0.000206194
0.00267338
0.00249134
0.00236331
0.00228329
0.00196428
0.00173967
0.00163909
0.00162683
0.00167853
0.00171608
0.00124416
0.000202305
0.00243739
0.00228078
0.00217674
0.00202576
0.00177921
0.00166004
0.00163535
0.00166984
0.00176947
0.00181676
0.00120459
0.00019772
0.00220532
0.00207767
0.0019976
0.00174609
0.00163933
0.0016358
0.0016859
0.00177556
0.00191427
0.00184743
0.00116055
0.000192568
0.00198315
0.00188368
0.0016333
0.00154438
0.00158467
0.00168584
0.00179319
0.00193269
0.00203215
0.00178107
0.00111191
0.000186928
0.00177204
0.00149577
0.00140602
0.00147403
0.00162721
0.00179534
0.00192085
0.00199985
0.00197128
0.001711
0.0010604
0.000180893
0.00139296
0.00127875
0.00134518
0.00152234
0.00163852
0.00175952
0.00188036
0.00195297
0.00190872
0.00163836
0.00100737
0.000174543
0.00116586
0.00123247
0.00138258
0.00146788
0.00159347
0.00173313
0.00185097
0.00190768
0.0018441
0.0015636
0.000953641
0.000167936
0.00109131
0.00122889
0.00130798
0.00143344
0.00158221
0.00172325
0.0018251
0.00185948
0.00177475
0.00148536
0.000898704
0.000161096
0.00108384
0.00116248
0.00128606
0.00143761
0.00159014
0.00171408
0.00179114
0.00180012
0.00169321
0.00139589
0.000833548
0.000154315
0.00102496
0.00114907
0.00129826
0.0014512
0.00158911
0.00168402
0.00173331
0.00171654
0.00158939
0.00128691
0.000755668
0.000147869
0.00101228
0.0011545
0.00130446
0.00143862
0.00154814
0.00161805
0.00164448
0.00160559
0.00146185
0.00116023
0.000670307
0.000141517
0.00100765
0.00114007
0.00126715
0.00137912
0.00146414
0.00151452
0.00152182
0.00146489
0.00131024
0.00101866
0.000581681
0.000135076
0.00097102
0.00108501
0.00118986
0.00127887
0.00134171
0.00137399
0.00136471
0.00129445
0.00113678
0.00086691
0.00049359
0.000128388
0.000903306
0.000994917
0.00107601
0.0011417
0.00118366
0.00119901
0.00117609
0.00109859
0.00094792
0.000712296
0.000409801
0.000121287
0.000804659
0.000871895
0.000929082
0.000972424
0.000995688
0.000996676
0.000964817
0.000888093
0.000755554
0.00056465
0.000334063
0.000113554
0.000660449
0.000719146
0.000755261
0.000780074
0.000789229
0.000781106
0.000747491
0.000680919
0.000576249
0.000434877
0.000269781
0.000104841
0.000500536
0.000539175
0.000561183
0.000576082
0.000579586
0.000571089
0.000545217
0.000497947
0.000426964
0.000333066
0.000221095
7.58796e-05
0.000318153
0.000323931
0.000339074
0.000354097
0.000362782
0.000365039
0.000358299
0.000339785
0.000306673
0.000256085
0.000179545
8.06994e-05
7.19139e-05
7.41914e-05
7.68479e-05
7.97576e-05
8.29114e-05
8.56633e-05
8.78492e-05
8.91227e-05
8.88152e-05
7.61513e-05
7.6987e-05
5.49698e-05
0.000287358
0.00120065
0.00158254
0.002053
0.00239759
0.00271806
0.00299174
0.00320116
0.00334112
0.00341615
0.00343727
0.0034162
0.00336534
0.00329632
0.00321871
0.00313919
0.00306138
0.00298623
0.00291279
0.00283914
0.0027631
0.00268276
0.00259671
0.00250406
0.00240439
0.00229762
0.00218392
0.00206356
0.000293837
0.00132716
0.00173234
0.00221485
0.00257251
0.00287901
0.00312474
0.0032959
0.00339104
0.00341848
0.00339273
0.00333054
0.00324734
0.00315621
0.00306639
0.00298256
0.0029053
0.00283226
0.00275969
0.00268382
0.00260162
0.00251116
0.00241155
0.00230264
0.00218485
0.00205875
0.00192501
0.00178353
0.000299307
0.00144636
0.00188798
0.00237864
0.00271812
0.00300464
0.00321797
0.00334889
0.0034002
0.00338476
0.00332093
0.00322895
0.00312658
0.0030264
0.00293478
0.00285208
0.00277431
0.00269543
0.00260953
0.00251218
0.00240095
0.00227535
0.0021366
0.00198653
0.00182849
0.00166654
0.00150611
0.00135611
0.000303705
0.00150696
0.00205463
0.00250457
0.00283608
0.00309861
0.00327758
0.0033688
0.00337973
0.00332776
0.00323532
0.00312459
0.00301324
0.00291091
0.0028189
0.00273214
0.00264245
0.00254173
0.0024242
0.00228734
0.00213211
0.00196296
0.00178719
0.00161471
0.0014585
0.00133481
0.00124881
0.0011876
0.000307169
0.00155742
0.00219926
0.00260908
0.00292881
0.00316522
0.00330986
0.00336387
0.00333949
0.00325842
0.00314618
0.00302554
0.00291121
0.00280771
0.00271048
0.00260992
0.00249595
0.00236144
0.00220426
0.0020282
0.00184309
0.00166426
0.00151192
0.00140996
0.00137201
0.00137923
0.00141543
0.00146651
0.000309789
0.00159776
0.00227948
0.00269396
0.00299923
0.00320895
0.00332086
0.00334151
0.0032878
0.00318521
0.00306099
0.00293633
0.00282118
0.00271374
0.00260448
0.00248181
0.00233732
0.00216912
0.00198443
0.00179983
0.0016401
0.00153562
0.00151395
0.00157317
0.00167427
0.00178573
0.00189769
0.0019985
0.000311641
0.00162868
0.00234453
0.00276107
0.00305047
0.00323418
0.00331613
0.00330811
0.00323143
0.00311451
0.00298464
0.00285945
0.0027429
0.00262748
0.00250078
0.00235289
0.00218151
0.00199646
0.00182055
0.00168773
0.00163579
0.00168867
0.00183089
0.00199776
0.00216612
0.0023193
0.00243191
0.00250643
0.000312799
0.001651
0.00239583
0.0028125
0.00308566
0.00324502
0.00330054
0.00326902
0.00317574
0.00305092
0.00292021
0.00279613
0.00267642
0.00254946
0.00240331
0.0022338
0.00205093
0.00188179
0.00176754
0.0017521
0.00185682
0.00205331
0.00227796
0.00249019
0.00265374
0.00277414
0.00284094
0.00286007
0.000313334
0.00166559
0.00243485
0.0028504
0.00310779
0.00324512
0.00327822
0.00322856
0.00312476
0.00299762
0.00286952
0.00274698
0.00262219
0.00248184
0.00231819
0.00213779
0.00196832
0.0018556
0.00185025
0.00197733
0.00220589
0.00247899
0.00272208
0.00290955
0.00302348
0.0030862
0.00310423
0.00308308
0.000313313
0.00167335
0.00246307
0.00287683
0.00311956
0.00323767
0.0032526
0.00319011
0.0030814
0.00295659
0.00283348
0.00271228
0.00258098
0.00242749
0.00225206
0.00207702
0.00194924
0.00192646
0.00204548
0.00228431
0.00258812
0.0028724
0.00307798
0.00320493
0.00327159
0.00329527
0.00328392
0.00324322
0.000312803
0.00167515
0.0024819
0.00289373
0.00312338
0.00322533
0.00322638
0.00315612
0.00304757
0.00292888
0.00281231
0.00269203
0.00255359
0.00238926
0.00221066
0.00205894
0.00199639
0.00207671
0.00230007
0.00261149
0.0029321
0.003178
0.00333029
0.00341306
0.00344811
0.00344856
0.00342209
0.00337239
0.000311866
0.00167184
0.00249271
0.00290286
0.00312131
0.00321029
0.00320163
0.0031283
0.00302429
0.00291471
0.00280565
0.00268581
0.00254045
0.00236881
0.00219699
0.00208426
0.00209905
0.00227337
0.00256678
0.0029086
0.00320424
0.00340391
0.0035164
0.00357071
0.00358576
0.00357294
0.00353817
0.00348355
0.000310561
0.00166423
0.00249676
0.00290576
0.00311507
0.00319423
0.00317981
0.00310763
0.00301185
0.00291354
0.00281228
0.00269234
0.00254105
0.00236651
0.0022109
0.00214724
0.00223849
0.00248428
0.0028217
0.00316053
0.00341767
0.00357901
0.00366449
0.00370004
0.00370243
0.00368118
0.00364073
0.00358233
0.000308942
0.00165303
0.00249516
0.00290375
0.00310605
0.00317845
0.00316188
0.00309451
0.00300982
0.0029239
0.00282948
0.0026613
0.00255353
0.00238134
0.00224933
0.00223826
0.00239575
0.00269164
0.00305044
0.00336814
0.00359056
0.00372403
0.0037907
0.00381345
0.00380705
0.00377937
0.00373391
0.00367163
0.000307061
0.00163892
0.00248892
0.00289797
0.00309536
0.00316386
0.00314836
0.00308881
0.00301704
0.00294282
0.00261598
0.00249515
0.00254997
0.00241054
0.00230746
0.00234685
0.00255535
0.00288995
0.00325313
0.00354373
0.00373821
0.00385114
0.00390412
0.00391756
0.00390418
0.00387065
0.00382003
0.0037533
0.000304962
0.00162248
0.00247891
0.00288932
0.00308385
0.00315107
0.00313943
0.00308995
0.00303161
0.00275774
0.0024552
0.00237774
0.00245193
0.00245061
0.00237995
0.0024647
0.00271245
0.00307057
0.00342797
0.00369617
0.0038694
0.00396697
0.00400981
0.00401586
0.00399622
0.0039568
0.00390051
0.00382861
0.000302687
0.00160424
0.00246587
0.00287857
0.00307216
0.00314046
0.00313498
0.003097
0.00305124
0.00258703
0.00234537
0.00229766
0.00237844
0.00249903
0.00246174
0.00258518
0.00286154
0.00323163
0.00358113
0.00383173
0.00398919
0.00407553
0.00411056
0.00411025
0.00408451
0.00403887
0.00397632
0.0038985
0.000300272
0.00158462
0.00245043
0.00286633
0.00306074
0.00313218
0.00313463
0.00310865
0.00290621
0.00246662
0.00227057
0.00224374
0.00233046
0.00250459
0.00254836
0.00270382
0.00300114
0.00337707
0.00371798
0.00395502
0.00410104
0.00417915
0.00420787
0.00420168
0.00416976
0.00411747
0.00404805
0.00396363
0.000297748
0.00156402
0.00243314
0.00285306
0.00304991
0.00312625
0.00313789
0.00312363
0.00276592
0.00238216
0.00221937
0.00220905
0.00230195
0.00247633
0.00263664
0.002818
0.00313175
0.00351078
0.00384285
0.00406939
0.00420714
0.00427911
0.00430242
0.00429055
0.00425222
0.00419284
0.00411602
0.00402437
0.000295143
0.00154274
0.00241443
0.00283913
0.00303984
0.00312253
0.00314419
0.00314089
0.00266411
0.00232346
0.00218626
0.00218912
0.00228731
0.00246279
0.00272423
0.00292643
0.00325466
0.00363602
0.00395888
0.00417707
0.00430872
0.00437589
0.00439435
0.00437681
0.0043318
0.00426494
0.00418026
0.00408088
0.000292479
0.00152105
0.00239467
0.00282483
0.00303065
0.00312082
0.00315285
0.0031258
0.00259138
0.00228412
0.00216777
0.0021809
0.00228319
0.00246169
0.00274016
0.00302927
0.00337132
0.00375467
0.00406798
0.00427932
0.00440632
0.00446953
0.00448339
0.0044601
0.00440815
0.00433348
0.00424058
0.00413311
0.000289777
0.00149916
0.00237417
0.00281035
0.00302234
0.00312085
0.00316317
0.00303535
0.00254
0.00225985
0.00216056
0.00218162
0.00228651
0.00246877
0.00275364
0.00312827
0.0034811
0.00386498
0.00417069
0.00437665
0.00449997
0.00455966
0.00456898
0.00453976
0.00448065
0.00439795
0.00429661
0.0041808
0.000287054
0.00147725
0.00235315
0.00279586
0.0030149
0.00312234
0.0031746
0.0029668
0.00250494
0.0022469
0.00216191
0.00218921
0.00229596
0.00248146
0.00277385
0.00321568
0.00358432
0.003967
0.00426742
0.00446918
0.00458938
0.00464564
0.0046503
0.00461498
0.00454854
0.00445767
0.00434781
0.00422355
0.000284324
0.00145546
0.00233183
0.00278146
0.00300826
0.00312503
0.00318677
0.00291778
0.00248256
0.00224321
0.00217016
0.00220227
0.0023104
0.00249869
0.00279747
0.00324473
0.00368332
0.00406306
0.00435887
0.00455692
0.00467406
0.00472667
0.00472639
0.00468477
0.0046109
0.00451185
0.00439353
0.00426081
0.000281597
0.00143389
0.00231036
0.00276721
0.00300235
0.00312865
0.00319938
0.00288375
0.00247025
0.0022473
0.00218409
0.00221977
0.00232882
0.00251925
0.00282316
0.00327228
0.00377933
0.00415476
0.00444571
0.00463981
0.00475346
0.00480188
0.00479625
0.00474812
0.0046668
0.00455962
0.00443303
0.00429194
0.000278882
0.00141263
0.00228887
0.00275317
0.00299708
0.00313299
0.00321221
0.00286147
0.00246617
0.00225775
0.00220266
0.00224094
0.0023506
0.00254288
0.00285048
0.00330161
0.00387197
0.00424325
0.00452845
0.00471774
0.00482703
0.00487039
0.0048589
0.00480403
0.00471533
0.00460007
0.00446556
0.00431762
0.000276187
0.00139175
0.00226746
0.00273935
0.00299234
0.00313786
0.0032251
0.00284872
0.00246894
0.00227336
0.00222501
0.0022652
0.00237522
0.00256912
0.00287961
0.00333029
0.00389909
0.00432964
0.00460744
0.00479056
0.00489423
0.00493148
0.00491348
0.00485163
0.00475569
0.00463402
0.00449269
0.0043375
0.000273516
0.00137128
0.0022462
0.00272576
0.00298804
0.00314308
0.00323793
0.00284384
0.00247745
0.00229317
0.0022505
0.00229212
0.00240227
0.00259756
0.00291003
0.00335926
0.00392431
0.00441366
0.00468262
0.004858
0.00495459
0.00498457
0.00495939
0.00489149
0.00478982
0.00466161
0.00451304
0.00435025
0.000270875
0.00135122
0.00222514
0.00271239
0.0029841
0.00314851
0.00325061
0.0028455
0.00249078
0.00231642
0.00227865
0.00232138
0.00243153
0.00262823
0.0029421
0.00339054
0.00395349
0.00449442
0.00475366
0.00491982
0.00500769
0.00502961
0.00499839
0.0049248
0.00481706
0.00468189
0.00452559
0.00435478
0.000268269
0.00133158
0.00220431
0.00269925
0.00298043
0.00315406
0.00326307
0.00285259
0.00250817
0.00234252
0.00230896
0.00235274
0.00246305
0.0026611
0.00297573
0.00342339
0.00398462
0.00457151
0.00482037
0.00497594
0.00505355
0.00506816
0.00503094
0.00495139
0.00483697
0.00469413
0.00452939
0.00434994
0.000265699
0.00131239
0.00218374
0.00268634
0.00297698
0.00315967
0.00327524
0.00286414
0.00252891
0.00237095
0.00234108
0.00238606
0.00249672
0.002696
0.00301059
0.00345774
0.00401624
0.004596
0.00488263
0.00502572
0.00509377
0.00510111
0.0050575
0.00497123
0.0048491
0.00469751
0.00452333
0.00433443
0.000263166
0.00129367
0.0021635
0.00267377
0.00297376
0.00316515
0.00328694
0.00287927
0.00255224
0.0024009
0.00237493
0.00242161
0.00253266
0.00273303
0.00304703
0.00349395
0.00404991
0.00461995
0.00493873
0.00507023
0.00512924
0.00512912
0.0050783
0.00498406
0.00485276
0.00469094
0.00450602
0.00430667
0.000260679
0.00127555
0.00214349
0.00266117
0.00297049
0.00317039
0.00329817
0.00289735
0.00257769
0.00243199
0.00240955
0.00245891
0.00257155
0.00277275
0.00308657
0.00353396
0.00408718
0.00464748
0.0049897
0.00511035
0.00516059
0.00515246
0.00509315
0.0049892
0.00484682
0.00467294
0.00447572
0.00426481
0.000258268
0.00125742
0.0021235
0.00264855
0.00296713
0.00317534
0.00330892
0.00291781
0.0026049
0.00246394
0.00244474
0.00249731
0.00261234
0.00281452
0.00313069
0.00357939
0.00412766
0.00467666
0.0050365
0.00514664
0.00518814
0.00517094
0.00510132
0.0049854
0.00482961
0.00464153
0.00443028
0.00420665
0.000255927
0.00123933
0.00210355
0.00263589
0.00296366
0.00317997
0.00331921
0.00294008
0.00263348
0.00249654
0.00248031
0.00253661
0.00265493
0.00285852
0.00317809
0.00362855
0.00417004
0.00470611
0.00507997
0.00517971
0.00521179
0.00518377
0.0051014
0.00497077
0.00479888
0.00459425
0.00436721
0.0041298
0.000253648
0.00122137
0.00208368
0.00262321
0.00296003
0.00318426
0.00332905
0.00296362
0.00266305
0.00252951
0.00251604
0.0025761
0.00269856
0.00290516
0.00322835
0.0036797
0.00421268
0.0047346
0.00512062
0.00520991
0.00523084
0.00518951
0.00509135
0.00494282
0.00475183
0.00452821
0.00428369
0.00403172
0.000251428
0.0012036
0.00206391
0.0026105
0.00295624
0.00318819
0.00333846
0.0029879
0.0026932
0.00256257
0.00255163
0.00261543
0.00274243
0.00295327
0.00328016
0.0037309
0.00425365
0.00476097
0.0051584
0.00523627
0.00524382
0.00518604
0.0050685
0.00489849
0.00468526
0.00444023
0.00417682
0.00390997
0.00024926
0.00118606
0.00204427
0.00259775
0.00295225
0.00319176
0.00334746
0.00301236
0.00272349
0.00259537
0.00258672
0.00265419
0.00278596
0.00300156
0.00333175
0.00378002
0.00429099
0.00478433
0.00519279
0.00525767
0.00524884
0.00517075
0.00502972
0.00483435
0.00459566
0.00432704
0.0040438
0.00376254
0.000247142
0.00116879
0.00202478
0.00258499
0.00294807
0.00319498
0.00335609
0.00303644
0.00275347
0.00262755
0.00262093
0.0026919
0.00282846
0.0030489
0.00338153
0.00382544
0.00432399
0.00480438
0.00521084
0.00527277
0.0052436
0.00514062
0.00497149
0.00474671
0.00447948
0.00418553
0.00388233
0.00358818
0.000245069
0.00115183
0.00200547
0.0025722
0.0029437
0.00319785
0.00336438
0.00305959
0.00278262
0.00265869
0.00265381
0.00272801
0.0028692
0.0030942
0.00342823
0.00386635
0.00435299
0.00482268
0.00522171
0.00527973
0.00522538
0.00509218
0.00489005
0.0046318
0.00433334
0.00401311
0.00369103
0.00338704
0.000243039
0.00113518
0.00198635
0.00255941
0.00293914
0.00320041
0.00337236
0.00308127
0.00281043
0.00268836
0.00268491
0.00276197
0.00290742
0.0031364
0.00347067
0.00390211
0.00437849
0.00484137
0.00523794
0.00527522
0.00518994
0.00502137
0.00478147
0.004486
0.00415432
0.00380812
0.00346997
0.00316108
0.000241049
0.00111888
0.00196745
0.00254662
0.0029344
0.00320268
0.00338008
0.00310094
0.00283638
0.00271612
0.00271376
0.00279321
0.00294236
0.0031745
0.00350779
0.00393213
0.0044012
0.00486265
0.00525323
0.00525612
0.00513393
0.00492415
0.00464171
0.00430602
0.00394033
0.00357033
0.00322127
0.00291465
0.000239096
0.00110296
0.00194881
0.00253387
0.00292952
0.0032047
0.00338757
0.00311815
0.00285999
0.00274152
0.00273994
0.00282123
0.00297339
0.00320773
0.00353913
0.00395729
0.00442297
0.00488425
0.00520662
0.0052199
0.00505463
0.00479741
0.00446743
0.00408909
0.00369058
0.00330154
0.00294964
0.00265592
0.000237179
0.00108743
0.00193046
0.00252118
0.00292452
0.00320651
0.00339489
0.0031325
0.00288082
0.0027642
0.00276307
0.00284565
0.0030001
0.00323582
0.00356512
0.00397937
0.00444368
0.00490295
0.00515733
0.00516401
0.00494899
0.00463816
0.00425615
0.00383395
0.00340599
0.00300614
0.00266263
0.00239397
0.000235296
0.00107232
0.00191243
0.00250859
0.00291944
0.00320816
0.00340208
0.00314372
0.00289859
0.0027839
0.00278297
0.00286633
0.00302245
0.00325918
0.00358736
0.00400149
0.0044659
0.0048787
0.00509919
0.00508546
0.00481351
0.00444294
0.00400568
0.00354095
0.00309035
0.00269152
0.00237173
0.00213727
0.000233445
0.00105766
0.00189477
0.00249613
0.00291433
0.00320971
0.00340919
0.00315171
0.00291319
0.00280051
0.00279958
0.00288334
0.00304075
0.0032787
0.00360783
0.00402492
0.00449235
0.00484043
0.00502136
0.00498091
0.00464419
0.00420815
0.0037143
0.00321211
0.00275035
0.00236857
0.00208504
0.0018925
0.000231626
0.00104347
0.00187752
0.00248387
0.00290924
0.00321121
0.00341626
0.0031566
0.00292467
0.0028141
0.00281312
0.00289706
0.00305567
0.00329553
0.00362827
0.00404993
0.00450921
0.00479254
0.00491267
0.00484654
0.00443664
0.00393051
0.00338189
0.00285221
0.00239597
0.00204953
0.00181337
0.00166227
0.000229838
0.00102977
0.00186073
0.00247185
0.00290421
0.00321267
0.00341201
0.00315873
0.00293333
0.00282496