/*--------------------------------*- C++ -*----------------------------------*\
| =========                 |                                                 |
| \\      /  F ield         | OpenFOAM: The Open Source CFD Toolbox           |
|  \\    /   O peration     | Version:  v2012                                 |
|   \\  /    A nd           | Website:  www.openfoam.com                      |
|    \\/     M anipulation  |                                                 |
\*---------------------------------------------------------------------------*/
FoamFile
{
    version     2.0;
    format      ascii;
    class       volScalarField;
    location    "673";
    object      omega;
}
// * * * * * * * * * * * * * * * * * * * * * * * * * * * * * * * * * * * * * //

dimensions      [0 0 -1 0 0 0 0];


internalField   nonuniform List<scalar> 
6084
(
98.4583
102.381
106.661
111.351
116.518
122.243
128.631
135.816
143.971
153.329
164.207
177.048
192.49
211.488
235.526
267.016
310.112
372.413
468.901
631.705
43.7286
45.6214
47.6997
49.9909
52.53
55.3604
58.5365
62.1271
66.2204
70.9305
76.4079
82.8527
90.5359
99.8278
111.239
125.472
143.458
166.296
194.677
226.225
34.0809
35.6362
37.3478
39.2388
41.3386
43.6833
46.3181
49.2995
52.6989
56.6083
61.147
66.4721
72.794
80.3987
89.683
101.21
115.802
134.716
160.02
195.616
30.8987
32.3494
33.9477
35.7154
37.6802
39.8764
42.3465
45.144
48.3365
52.0114
56.2826
61.3018
67.2746
74.4863
83.3444
94.4498
108.726
127.664
153.833
192.006
29.7805
31.1967
32.7579
34.4854
36.4066
38.5552
40.9734
43.714
46.8446
50.4523
54.6521
59.598
65.5013
72.6598
81.5051
92.6862
107.217
126.749
154.082
194.096
29.78
31.1964
32.7578
34.4853
36.4065
38.5551
40.9733
43.714
46.8446
50.4523
54.6521
59.598
65.5013
72.6598
81.5051
92.6862
107.217
126.749
154.082
194.096
30.898
32.3491
33.9475
35.7152
37.6801
39.8763
42.3464
45.1439
48.3365
52.0114
56.2826
61.3018
67.2746
74.4863
83.3444
94.4498
108.726
127.664
153.833
192.006
34.083
35.6373
37.3481
39.2387
41.3383
43.6831
46.3179
49.2993
52.6988
56.6083
61.147
66.4721
72.794
80.3987
89.683
101.21
115.802
134.716
160.02
195.616
43.7554
45.6299
47.7028
49.9913
52.5297
55.36
58.5361
62.1268
66.2202
70.9304
76.4078
82.8527
90.5358
99.8278
111.239
125.472
143.458
166.296
194.677
226.225
98.4503
102.38
106.662
111.352
116.519
122.244
128.632
135.816
143.971
153.33
164.207
177.048
192.49
211.488
235.526
267.016
310.112
372.413
468.901
631.705
68.5143
70.3148
72.196
74.1695
76.2471
78.4416
80.7667
83.2376
85.8712
88.6866
91.7054
94.9526
30.0716
30.7966
31.5819
32.4301
33.3443
34.3282
35.3866
36.5252
37.7512
39.0729
40.5008
42.0472
22.897
23.4997
24.148
24.8448
25.5932
26.3969
27.2603
28.1887
29.1886
30.2677
31.4349
32.701
20.4588
21.0305
21.6416
22.2953
22.995
23.7446
24.5486
25.4125
26.3427
27.3465
28.4329
29.6121
19.5496
20.1194
20.7252
21.3704
22.0586
22.7937
23.5807
24.4252
25.3336
26.3136
27.3738
28.5245
19.4326
20.0238
20.649
21.3115
22.0144
22.7616
23.5578
24.409
25.3228
26.3074
27.3708
28.5233
19.9581
20.6069
21.2918
22.0156
22.7799
23.5857
24.4331
25.3251
26.2831
27.3118
28.4162
29.6064
21.1547
21.907
22.7114
23.5761
24.5075
25.5089
26.5822
27.7274
28.8873
30.0779
31.337
32.668
23.3698
24.3068
25.3223
26.4524
27.7426
29.2589
31.0531
33.1202
35.3534
37.5409
39.5921
41.6582
27.7662
29.4933
31.4068
33.5362
35.9137
38.8771
42.6424
47.4357
53.5215
61.1812
70.8455
83.1812
13.9373
13.0985
13.429
15.6268
21.3863
25.5755
29.0279
31.9353
34.4129
36.6437
38.7013
40.6308
42.4618
44.2155
45.9077
47.5511
49.1562
50.7324
52.288
53.8313
55.37
56.912
58.4656
60.0388
61.6403
63.279
64.9643
66.7061
14.6692
9.81412
12.9125
18.1242
21.7315
23.5235
24.3735
24.8182
25.0353
25.1326
25.1796
25.2023
25.217
25.2353
25.2667
25.3196
25.401
25.5173
25.6738
25.8747
26.1236
26.4231
26.7751
27.1812
27.6428
28.1614
28.7382
29.3746
18.1829
11.9273
15.2724
18.5428
20.277
20.8846
20.9588
20.798
20.5131
20.191
19.8832
19.6099
19.3818
19.2049
19.0826
19.0166
19.0074
19.0547
19.1573
19.3137
19.5222
19.7807
20.0877
20.4417
20.8417
21.2871
21.7778
22.3144
22.2035
13.8606
16.0292
17.8079
18.6061
18.751
18.578
18.2472
17.8524
17.4664
17.1247
16.8416
16.6231
16.4709
16.384
16.3605
16.3973
16.4909
16.6378
16.8344
17.0773
17.3637
17.6911
18.0576
18.4622
18.9044
19.3841
19.9022
25.9781
15.0097
16.0739
16.8735
17.1807
17.1319
16.884
16.5303
16.1503
15.8014
15.5094
15.284
15.1276
15.0395
15.0169
15.0559
15.1524
15.3019
15.5
15.7428
16.0266
16.3482
16.7055
17.0967
17.5208
17.9776
18.4674
18.9913
28.5864
15.6292
15.8359
16.0691
16.0613
15.9188
15.6584
15.3347
15.0103
14.728
14.5068
14.3534
14.2685
14.25
14.2945
14.398
14.5559
14.7636
15.0166
15.3108
15.6424
16.0083
16.4062
16.8347
17.293
17.7811
18.2997
18.85
30.5195
15.9158
15.4993
15.3982
15.2208
15.006
14.7549
14.4791
14.2213
14.012
13.8651
13.7852
13.7723
13.8245
13.9387
14.1112
14.3378
14.614
14.9349
15.2962
15.6936
16.1237
16.5839
17.0727
17.5895
18.1348
18.7101
19.3174
32.1108
15.9843
15.1444
14.8437
14.5789
14.3215
14.077
13.8511
13.6594
13.5212
13.4464
13.4384
13.498
13.6242
13.8155
14.0692
14.3819
14.7491
15.1656
15.6257
16.1238
16.6548
17.2149
17.8013
18.413
19.0508
19.7172
20.4167
33.4209
15.9413
14.8076
14.3856
14.0757
13.8018
13.5635
13.3782
13.246
13.1722
13.1638
13.2243
13.356
13.5604
13.8382
14.1889
14.6105
15.0988
15.6483
16.2525
16.9047
17.5986
18.3291
19.092
19.885
20.7071
21.5593
22.445
34.499
15.8555
14.5013
14.0035
13.6703
13.3946
13.1707
13.012
12.928
12.909
12.9584
13.0808
13.2811
13.5641
13.9337
14.392
14.9385
15.5699
16.2814
17.0677
17.9245
18.8497
19.8441
20.9123
22.0623
23.3059
24.6584
26.1388
29.6285
31.4383
33.3714
35.4061
37.485
39.6079
41.7007
43.6179
44.981
44.555
39.7816
33.2159
25.1799
25.5404
25.723
25.693
25.4285
24.7525
23.3237
21.4908
19.1882
16.5808
13.2285
12.4547
17.1852
16.4116
15.468
14.3382
13.1422
11.8599
10.4048
9.02833
7.78887
6.74837
6.7185
10.6541
9.69312
8.77087
7.91212
7.13472
6.47667
5.8955
5.39718
5.04491
5.12374
5.52213
6.62304
10.8755
5.45436
5.00582
4.63991
4.33056
4.13647
4.0912
4.13899
4.30752
4.71017
5.42432
6.85387
11.3829
3.69447
3.55429
3.48074
3.45014
3.48491
3.60532
3.80299
4.10938
4.59611
5.41382
7.03348
11.9307
3.04302
3.0427
3.08326
3.15765
3.27104
3.43414
3.6637
3.99742
4.51282
5.38818
7.15355
12.4892
2.80504
2.86057
2.93818
3.03821
3.16681
3.33619
3.56836
3.90515
4.43127
5.34376
7.22957
13.047
2.70994
2.78285
2.86934
2.97263
3.10007
3.26505
3.49141
3.82344
4.35125
5.28705
7.27394
13.6
2.66819
2.74498
2.83128
2.93134
3.05313
3.21055
3.42822
3.7519
4.27556
5.22425
7.29589
14.1468
2.65096
2.72718
2.81057
2.90572
3.02079
3.16984
3.37774
3.6911
4.20666
5.16021
7.30229
14.6879
2.64811
2.72252
2.80244
2.89254
3.00091
3.14158
3.33943
3.64147
4.14631
5.09859
7.29839
15.2243
2.65556
2.72806
2.80472
2.89009
2.99218
3.12483
3.3128
3.60313
4.09567
5.04214
7.28838
15.7579
2.67137
2.74226
2.81607
2.89724
2.9936
3.11878
3.2973
3.57604
4.05551
4.99295
7.27579
16.2905
2.69445
2.76415
2.83559
2.91312
3.00436
3.12274
3.29243
3.56005
4.02632
4.95271
7.26384
16.8247
2.72416
2.79307
2.86263
2.93705
3.02381
3.13609
3.29774
3.55495
4.00843
4.92283
7.2557
17.3633
2.7601
2.82861
2.89671
2.96852
3.05142
3.15836
3.31283
3.56055
4.00208
4.90459
7.25483
17.9101
2.80211
2.87051
2.9375
3.00716
3.0868
3.18916
3.33737
3.57669
4.00745
4.89923
7.26521
18.4697
2.85019
2.91869
2.98483
3.05272
3.12965
3.22817
3.37112
3.60323
4.02474
4.90798
7.2914
19.0487
2.90449
2.97318
3.03862
3.10504
3.17976
3.27519
3.41391
3.64013
4.05415
4.93222
7.34027
19.656
2.96526
3.0341
3.0989
3.16404
3.23701
3.33005
3.46562
3.68738
4.09595
4.97337
7.42001
20.3046
3.03285
3.10167
3.16576
3.22974
3.30137
3.39268
3.52622
3.74509
4.15049
5.02794
7.51873
20.983
3.10764
3.17613
3.23933
3.30217
3.37284
3.46303
3.59454
3.81049
4.21235
5.09007
7.62232
21.666
3.19004
3.25775
3.31978
3.38128
3.45056
3.53977
3.66997
3.88361
4.28215
5.15958
7.72976
22.3533
3.28036
3.34636
3.40653
3.46659
3.53479
3.62325
3.75262
3.96448
4.36007
5.23666
7.84126
23.0419
3.37803
3.44203
3.50017
3.55855
3.62564
3.71349
3.84245
4.05303
4.44615
5.32146
7.95682
23.7302
3.48395
3.54535
3.60094
3.65728
3.7231
3.81039
3.9388
4.149
4.54033
5.41405
8.07626
24.4146
3.59846
3.65645
3.70881
3.76266
3.82697
3.91341
4.04194
4.25224
4.64245
5.51441
8.19926
25.0892
3.7215
3.77514
3.82349
3.87433
3.93695
4.02247
4.1513
4.36227
4.75221
5.62242
8.32527
25.7454
3.85264
3.9009
3.94443
3.99171
4.05179
4.13672
4.26621
4.47855
4.86923
5.73773
8.45342
26.3709
3.99106
4.03289
4.07069
4.11413
4.17094
4.25533
4.38577
4.60023
4.99284
5.85976
8.58261
26.9495
4.13557
4.1699
4.20102
4.23922
4.29332
4.37711
4.50865
4.72593
5.12211
5.98794
8.71215
27.4625
4.28454
4.31029
4.33387
4.36494
4.41719
4.50018
4.63277
4.85363
5.25615
6.12222
8.84365
27.8932
4.43595
4.452
4.46742
4.49268
4.54105
4.62216
4.75586
4.98401
5.39459
6.25581
8.98084
28.2299
4.58753
4.59275
4.59924
4.61885
4.66211
4.74075
4.8784
5.11756
5.53431
6.38696
9.10589
28.4705
4.7369
4.73024
4.72679
4.7398
4.7779
4.85474
4.99856
5.2476
5.66744
6.50664
9.20274
28.6064
4.88173
4.86221
4.84952
4.85435
4.88642
4.96253
5.11204
5.3672
5.78519
6.60643
9.2693
28.7143
5.02008
4.98659
4.96382
4.96033
4.98596
5.0609
5.21285
5.46835
5.87741
6.6767
9.30373
28.7438
5.15056
5.10425
5.07002
5.0569
5.07511
5.14604
5.29473
5.54265
5.93437
6.70592
9.28921
28.6373
5.27263
5.21301
5.16723
5.14295
5.15131
5.21309
5.35032
5.58131
5.94735
6.68439
9.23366
28.3983
5.38842
5.31519
5.25594
5.21671
5.20966
5.25411
5.36975
5.57424
5.90342
6.61658
9.14304
28.0035
5.49847
5.41132
5.3343
5.2731
5.24127
5.25671
5.33985
5.50959
5.80472
6.5087
9.02271
27.4753
5.60771
5.50033
5.3954
5.30011
5.22877
5.20106
5.24372
5.36944
5.65246
6.36905
8.87921
26.8526
5.71083
5.57172
5.42164
5.2724
5.14201
5.06156
5.0671
5.17071
5.46295
6.20944
8.72763
26.153
5.79683
5.60229
5.38001
5.14872
4.94648
4.82212
4.80051
4.92869
5.25751
6.04408
8.5811
25.387
5.83753
5.54954
5.217
4.89031
4.63646
4.50817
4.51146
4.68394
5.05934
5.89096
8.4444
24.5673
5.78155
5.34844
4.89511
4.50976
4.25393
4.16263
4.22586
4.45592
4.88129
5.75782
8.32201
23.7049
5.55125
4.9695
4.45742
4.07158
3.8524
3.81202
3.96046
4.25515
4.73107
5.65028
8.21667
22.8076
5.1225
4.47876
3.97691
3.63399
3.48564
3.5258
3.74458
4.09419
4.61566
5.57387
8.1341
21.8787
4.58057
3.96276
3.52394
3.26754
3.20328
3.32083
3.59228
3.9837
4.54752
5.54967
8.13883
20.9577
4.04679
3.52356
3.19081
3.03096
3.03944
3.21636
3.51901
3.93777
4.54008
5.60235
8.26042
20.0824
3.65423
3.26696
3.03134
2.94723
3.00314
3.20224
3.51803
3.95871
4.6037
5.73989
8.47601
19.2197
3.48516
3.20745
3.04202
2.99313
3.07066
3.2752
3.59843
4.06154
4.75535
5.9752
8.77112
18.3449
3.5306
3.30366
3.17147
3.14389
3.23506
3.44436
3.77787
4.26856
5.01815
6.3237
9.13271
17.4365
3.70808
3.51365
3.40933
3.40361
3.51085
3.73134
4.08281
4.60853
5.41825
6.79716
9.541
16.4721
4.0028
3.83988
3.76868
3.79263
3.9242
4.16585
4.54462
5.11097
5.97575
7.39131
9.95809
15.4219
4.43818
4.30591
4.27339
4.33582
4.50144
4.77407
5.18594
5.78873
6.68208
8.06067
10.3061
14.2387
5.08932
4.97684
4.97284
5.06824
5.27044
5.57319
6.00779
6.62008
7.48586
8.71952
10.4748
12.8122
6.32905
6.27903
6.27111
6.33858
6.53636
6.82017
7.20992
7.73742
8.43864
9.31775
10.2908
10.9599
12.6318
13.0318
13.4984
14.0095
14.5635
15.0469
15.4308
15.6545
15.6005
15.0444
13.5229
8.52536
35.4481
15.7495
14.2108
13.6626
13.3181
13.0494
12.8439
12.7118
12.6588
12.6838
12.782
12.9586
13.2217
13.579
14.0365
14.5961
15.2553
16.0074
16.8439
17.7564
18.7388
19.789
20.9092
22.1055
23.3874
24.7672
26.2585
27.8771
36.2474
15.6429
13.9485
13.3676
13.0193
12.7603
12.5715
12.459
12.4273
12.4773
12.6085
12.8238
13.1322
13.5418
14.0556
14.6687
15.369
16.139
16.96
17.8152
18.6916
19.5799
20.4733
21.3677
22.2535
23.1154
23.9274
24.6486
36.9222
15.5379
13.707
13.1046
12.7565
12.5068
12.3302
12.2291
12.208
12.2687
12.414
12.6479
12.9766
13.4027
13.9192
14.5078
15.1416
15.7908
16.4278
17.0294
17.5782
18.0585
18.4501
18.7302
18.8533
18.7496
18.3721
17.8189
37.4647
15.4252
13.4787
12.8624
12.516
12.2728
12.1024
12.0039
11.9824
12.0415
12.1841
12.4147
12.7337
13.1317
13.5861
14.0622
14.5204
14.9232
15.2394
15.446
15.5204
15.4342
15.1482
14.6044
13.7369
12.716
11.6989
10.6741
37.892
15.3088
13.2593
12.6328
12.288
12.0473
11.8766
11.7723
11.7409
11.7873
11.9141
12.1208
12.3984
12.7216
13.0499
13.3352
13.531
13.5997
13.5124
13.2423
12.7565
12.0207
11.0163
9.76937
8.5884
7.5603
6.70197
5.99787
38.2152
15.1907
13.0461
12.4105
12.0658
11.8235
11.6465
11.5299
11.4816
11.5074
11.6073
11.7726
11.9791
12.185
12.3349
12.3736
12.2557
11.9494
11.4267
10.6605
9.64727
8.4322
7.14612
6.06328
5.26065
4.68762
4.26284
3.94615
38.4437
15.0716
12.8378
12.1921
11.8455
11.598
11.4102
11.277
11.2081
11.2089
11.274
11.3827
11.4941
11.5499
11.4876
11.253
10.8109
10.1354
9.2151
8.07792
6.82458
5.63547
4.69593
4.08658
3.67481
3.39125
3.21638
3.10874
38.5865
14.9516
12.6334
11.9763
11.6257
11.3702
11.169
11.0179
10.928
10.9025
10.9276
10.9679
10.9659
10.8528
10.5655
10.0625
9.32118
8.3406
7.17052
5.93813
4.8319
4.00167
3.46612
3.12997
2.93801
2.82675
2.77985
2.7763
38.6525
14.831
12.4327
11.7626
11.4062
11.1414
10.9264
10.7587
10.65
10.5993
10.5815
10.5453
10.4195
10.1318
9.62816
8.88625
7.90724
6.7467
5.53787
4.46781
3.67406
3.1464
2.84122
2.67435
2.60529
2.58804
2.60613
2.64923
38.65
14.7105
12.2358
11.5513
11.1884
10.9142
10.6869
10.5061
10.3829
10.3094
10.2473
10.1301
9.87785
9.42188
8.727
7.79385
6.66713
5.47122
4.39077
3.57376
3.01948
2.69173
2.53081
2.46827
2.46219
2.48857
2.5361
2.59747
38.5871
14.5904
12.0433
11.3435
10.9737
10.6913
10.4551
10.2662
10.1337
10.0406
9.93428
9.73497
9.35963
8.75093
7.89965
6.83457
5.65429
4.53462
3.64647
3.03397
2.65454
2.46014
2.38501
2.37496
2.40136
2.44912
2.50956
2.57777
38.4715
14.4715
11.8557
11.1402
10.7641
10.4759
10.235
10.044
9.90763
9.79812
9.64846
9.36877
8.87863
8.13975
7.17038
6.03236
4.87413
3.88516
3.17552
2.71498
2.45841
2.34454
2.31661
2.33495
2.37918
2.43775
2.50413
2.57489
38.3104
14.3542
11.6738
10.9425
10.5613
10.2704
10.0299
9.84284
9.70767
9.58464
9.39301
9.03688
8.44327
7.59918
6.54862
5.38811
4.2986
3.44887
2.87323
2.52601
2.35197
2.28716
2.28698
2.32227
2.37684
2.44147
2.51104
2.58292
38.1108
14.239
11.4983
10.7515
10.3667
10.0766
9.8418
9.66433
9.53485
9.40075
9.16999
8.7419
8.05569
7.13141
6.03307
4.88698
3.88579
3.15516
2.68038
2.41561
2.29491
2.26094
2.27861
2.32478
2.38604
2.45471
2.52652
2.59922
37.8787
14.1262
11.3295
10.568
10.1815
9.8958
9.67173
9.50897
9.38891
9.24694
8.98061
8.48193
7.71458
6.73423
5.61548
4.50701
3.5969
2.95314
2.55594
2.35103
2.26608
2.25294
2.28295
2.33677
2.40298
2.47494
2.54879
2.62248
37.6198
14.0161
11.1678
10.3925
10.0063
9.72866
9.51987
9.37611
9.26877
9.12191
8.82072
8.25607
7.42031
6.4005
5.28305
4.22333
3.39274
2.81936
2.48032
2.31562
2.25519
2.25678
2.29578
2.3555
2.4259
2.50095
2.57701
2.65197
37.3392
13.9088
11.0135
10.2254
9.8416
9.57524
9.38566
9.26426
9.1721
9.02262
8.68731
8.06237
7.16928
6.12392
5.02202
4.01502
3.25153
2.73435
2.43703
2.3001
2.25685
2.26911
2.31503
2.37972
2.45403
2.53226
2.61077
2.68734
37.0412
13.8042
10.8665
10.0669
9.68729
9.43517
9.26794
9.17148
9.09654
8.94543
8.57744
7.89824
6.95859
5.89744
4.81795
3.86458
3.15602
2.68256
2.41613
2.29894
2.26799
2.28824
2.3398
2.40898
2.48717
2.56876
2.65
2.72849
36.7299
13.7024
10.7267
9.91691
9.54319
9.30778
9.16518
9.09528
9.03932
8.88709
8.48838
7.76083
6.78448
5.71359
4.65945
3.75837
3.09361
2.65399
2.41149
2.3088
2.28694
2.31345
2.36988
2.44335
2.52549
2.61065
2.69487
2.77552
36.4085
13.6032
10.594
9.77516
9.40887
9.19207
9.07562
9.03307
8.99748
8.8446
8.41731
7.64713
6.64214
5.56641
4.53906
3.68621
3.05546
2.64221
2.41931
2.32778
2.31293
2.34463
2.40552
2.48324
2.56946
2.65837
2.74573
2.82867
36.0799
13.5065
10.4681
9.64137
9.28375
9.08691
8.99739
8.98252
8.96819
8.8151
8.36147
7.55432
6.52767
5.45254
4.44993
3.63918
3.0357
2.64362
2.43752
2.35497
2.34582
2.3821
2.4473
2.52931
2.61976
2.71254
2.80313
2.88836
35.7466
13.4119
10.3485
9.51514
9.16717
8.99108
8.92866
8.94177
8.94895
8.796
8.31838
7.47978
6.43762
5.36676
4.38648
3.61078
3.03233
2.65819
2.46536
2.39015
2.38592
2.42654
2.49605
2.58249
2.67728
2.77398
2.86772
2.95508
35.4107
13.3193
10.2349
9.39601
9.0584
8.9034
8.86777
8.90894
8.9376
8.78507
8.2855
7.42089
6.36949
5.30488
4.34509
3.59735
3.04284
2.68499
2.50251
2.43353
2.43386
2.47885
2.55285
2.64388
2.74307
2.84361
2.94026
3.02941
35.0738
13.2286
10.127
9.28349
8.95674
8.82276
8.81322
8.88226
8.9322
8.78036
8.26133
7.37612
6.32013
5.26369
4.32378
3.59735
3.06386
2.72197
2.54869
2.48554
2.49048
2.54016
2.61896
2.71475
2.81831
2.92244
3.02152
3.11193
34.7374
13.1394
10.0242
9.17711
8.86145
8.7481
8.76376
8.8602
8.93109
8.78022
8.24469
7.34393
6.28685
5.24045
4.3198
3.60956
3.09426
2.76817
2.6039
2.54678
2.55679
2.61176
2.69576
2.79645
2.9042
3.01149
3.11229
3.20319
34.4026
13.0516
9.92617
9.07636
8.77186
8.67849
8.71826
8.84147
8.93285
8.78328
8.23454
7.32291
6.26743
5.23289
4.33125
3.63303
3.13328
2.82313
2.66844
2.6181
2.63398
2.69504
2.78472
2.89039
3.00194
3.11173
3.21317
3.30279
34.0702
12.965
9.83256
8.98078
8.68731
8.6131
8.6758
8.82495
8.93626
8.78849
8.23004
7.3118
6.26008
5.23917
4.3568
3.66762
3.18062
2.8867
2.74287
2.7005
2.72339
2.7915
2.88734
2.99791
3.11252
3.22269
3.32325
3.41112
33.7406
12.8794
9.74299
8.88992
8.60724
8.55123
8.63558
8.80972
8.9403
8.79501
8.23051
7.30959
6.26329
5.2577
4.39488
3.71304
3.23718
2.95993
2.82816
2.79522
2.82654
2.90267
3.00501
3.11896
3.23465
3.34454
3.44356
3.52888
33.4148
12.7948
9.65713
8.80336
8.53112
8.49225
8.59697
8.79497
8.94415
8.80219
8.23533
7.31542
6.27588
5.28691
4.44155
3.77002
3.30593
3.04423
2.92552
2.90365
2.94527
3.0296
3.13655
3.25298
3.36916
3.47792
3.57446
3.65618
33.0933
12.7112
9.57464
8.72077
8.45851
8.43569
8.55944
8.78007
8.94709
8.8095
8.24342
7.32823
6.29762
5.32588
4.4956
3.8373
3.38724
3.14055
3.03615
3.02717
3.08053
3.17133
3.2823
3.40044
3.51623
3.62285
3.71576
3.7927
32.7763
12.6285
9.49524
8.64181
8.38903
8.38122
8.52273
8.76441
8.94819
8.81646
8.25408
7.34744
6.32826
5.37431
4.55712
3.91355
3.48062
3.24979
3.16131
3.16597
3.2302
3.32765
3.44213
3.56112
3.6755
3.7788
3.86682
3.93769
32.4639
12.5466
9.41866
8.5661
8.32252
8.32875
8.4866
8.74746
8.94642
8.82126
8.26736
7.37392
6.36784
5.4323
4.62626
3.99826
3.58577
3.37398
3.3024
3.3203
3.39477
3.49833
3.61549
3.7343
3.84609
3.94478
4.02654
4.09
32.157
12.4653
9.34534
8.49409
8.2589
8.27797
8.45076
8.72892
8.94156
8.82374
8.28071
7.40609
6.41772
5.49959
4.70377
4.09256
3.70606
3.51463
3.45961
3.49045
3.5742
3.68282
3.80152
3.9189
4.02675
4.1194
4.19345
4.24804
31.8596
12.3893
9.27573
8.42546
8.19788
8.22863
8.41498
8.70854
8.93352
8.82391
8.29412
7.44243
6.47494
5.57112
4.79233
4.20412
3.84261
3.67155
3.63292
3.67701
3.768
3.88017
3.999
4.11353
4.21595
4.30099
4.36571
4.40987
31.5708
12.3181
9.20956
8.35995
8.13922
8.18053
8.37909
8.68619
8.92229
8.82184
8.30762
7.48294
6.54018
5.6488
4.89062
4.33092
3.99498
3.84435
3.82171
3.8788
3.97495
4.08905
4.2065
4.31662
4.41196
4.48766
4.54128
4.57329
31.2898
12.2509
9.14659
8.29735
8.08272
8.1335
8.34296
8.66182
8.90793
8.81763
8.32105
7.52451
6.60966
5.73675
5.00221
4.47244
4.16267
4.03244
4.0249
4.09246
4.19328
4.30797
4.42249
4.52653
4.61301
4.67743
4.71796
4.73598
31.0158
12.1871
9.0866
8.23746
8.02819
8.08742
8.30652
8.63543
8.8906
8.81143
8.33433
7.56689
6.68201
5.83386
5.12721
4.6283
4.34522
4.23531
4.2422
4.31802
4.42187
4.53555
4.64548
4.74168
4.81731
4.86831
4.89358
4.89561
30.7485
12.1262
9.02936
8.18008
7.9755
8.0422
8.26974
8.60712
8.87051
8.80342
8.34747
7.61026
6.75754
5.93923
5.2645
4.79792
4.54202
4.45238
4.47411
4.55471
4.65949
4.77046
4.87413
4.96058
5.02318
5.05839
5.06605
5.05007
30.4871
12.0677
8.97469
8.12508
7.92452
7.99777
8.23262
8.57701
8.84793
8.79384
8.3606
7.65487
6.83656
6.05242
5.41326
4.98062
4.75224
4.68221
4.71736
4.80061
4.90464
5.01148
5.10723
5.18189
5.22904
5.24587
5.23351
5.19768
30.2315
12.0113
8.92239
8.07229
7.87515
7.95411
8.19521
8.5453
8.8232
8.78297
8.37389
7.70104
6.91942
6.17325
5.57285
5.17568
4.97492
4.92331
4.96849
5.05356
5.15595
5.25764
5.34383
5.40441
5.43339
5.4291
5.39448
5.33748
29.981
11.9567
8.87226
8.02159
7.82732
7.91119
8.15756
8.51223
8.79669
8.77116
8.38763
7.74912
7.00652
6.30165
5.74281
5.38239
5.20919
5.17517
5.22749
5.31381
5.4141
5.50883
5.58325
5.62706
5.63478
5.60661
5.54804
5.46939
29.7355
11.9036
8.82414
7.97285
7.78097
7.86902
8.11979
8.47808
8.76883
8.75882
8.40216
7.79956
7.09826
6.4377
5.92279
5.59997
5.45403
5.43834
5.49321
5.58118
5.6788
5.76527
5.82526
5.8487
5.83175
5.77729
5.6942
5.59455
29.4946
11.8514
8.77781
7.92595
7.73603
7.82762
8.082
8.44315
8.74009
8.7464
8.41791
7.85282
7.19511
6.58155
6.11241
5.82732
5.70705
5.7067
5.76475
5.85421
5.94848
6.02581
6.0691
6.06832
6.02285
5.94067
5.83406
5.71783
29.2582
11.8
8.7331
7.88077
7.69246
7.78704
8.04434
8.40778
8.71097
8.7344
8.43534
7.90944
7.29755
6.73333
6.31117
6.0631
5.96609
5.97682
6.04075
6.13131
6.22182
6.28855
6.31232
6.28376
6.20713
6.09732
5.97064
5.84114
29.0259
11.749
8.68981
7.83719
7.65021
7.74729
8.00696
8.37233
8.68198
8.72332
8.45496
7.96992
7.40601
6.89305
6.51831
6.30578
6.22978
6.2499
6.31942
6.41122
6.49783
6.55198
6.55207
6.49178
6.38351
6.24999
6.11021
5.96074
28.7976
11.6981
8.64772
7.7951
7.60925
7.70843
7.97001
8.33714
8.65361
8.71371
8.47727
8.03479
7.52085
7.06052
6.73269
6.55349
6.49674
6.52518
6.59939
6.69307
6.77585
6.81463
6.78567
6.69003
6.55241
6.40288
6.24774
6.06609
28.5732
11.6468
8.60662
7.75435
7.56952
7.67048
7.93366
8.30257
8.62636
8.70609
8.5028
8.1045
7.64226
7.23519
6.95254
6.80358
6.76544
6.79937
6.87882
6.97608
7.0554
7.07487
7.01062
6.87803
6.71709
6.5588
6.3805
6.12847
28.3526
11.5948
8.5663
7.71484
7.53096
7.63345
7.89806
8.26896
8.60067
8.70094
8.53199
8.1794
7.77015
7.41584
7.17497
7.05132
7.02625
7.06781
7.15564
7.26018
7.33605
7.3307
7.22503
7.05716
6.88781
6.71953
6.47858
6.08574
28.1357
11.5419
8.52652
7.67641
7.49352
7.59736
7.86338
8.23662
8.57696
8.69871
8.56523
8.25963
7.90391
7.60032
7.39616
7.29208
7.27766
7.32763
7.42824
7.54524
7.61664
7.57977
7.42793
7.23878
7.07094
6.86345
6.47571
5.84454
27.9225
11.4876
8.48707
7.63893
7.45711
7.56221
7.82973
8.20581
8.55558
8.69973
8.60275
8.34504
8.04234
7.78563
7.61155
7.521
7.51526
7.5756
7.69452
7.82972
7.89508
7.81986
7.62261
7.42737
7.25921
6.93047
6.26508
5.37954
27.7131
11.4316
8.44771
7.60226
7.42167
7.528
7.7972
8.1767
8.53679
8.70425
8.6446
8.4351
8.18347
7.96774
7.8164
7.73582
7.73535
7.80812
7.95158
8.11104
8.16795
8.05017
7.81879
7.64004
7.41748
6.81621
5.80397
4.80385
27.5073
11.3737
8.40822
7.56623
7.38708
7.4947
7.76586
8.14945
8.52074
8.71236
8.69058
8.52868
8.32431
8.14154
8.00442
7.92997
7.93261
8.02028
8.19481
8.38532
8.43238
8.27568
8.0263
7.8717
7.47489
6.44726
5.21058
4.27115
27.3053
11.3136
8.36841
7.53069
7.35326
7.46229
7.73573
8.12411
8.50751
8.724
8.74018
8.62403
8.46083
8.30101
8.169
8.09618
8.10082
8.2056
8.41723
8.6469
8.68587
8.50696
8.25702
8.09793
7.35228
5.9102
4.66904
3.93684
27.1072
11.2511
8.32807
7.49549
7.32009
7.4307
7.7068
8.10068
8.49705
8.73892
8.7925
8.71868
8.58825
8.44008
8.30446
8.22882
8.23405
8.35649
8.60971
8.88906
8.92777
8.76527
8.54095
8.30638
7.07952
5.39282
4.36166
3.86655
26.9129
11.186
8.28704
7.4605
7.28746
7.39988
7.67902
8.0791
8.48921
8.7567
8.84629
8.80957
8.70154
8.55358
8.40736
8.32366
8.32684
8.46477
8.76207
9.10492
9.15977
9.06575
8.88548
8.53277
6.79451
5.11946
4.39887
3.99994
26.7228
11.1183
8.24519
7.42557
7.25526
7.36975
7.65233
8.05924
8.48375
8.77674
8.89992
8.89321
8.79583
8.63741
8.47515
8.37741
8.37428
8.52284
8.86489
9.2853
9.40856
9.38566
9.30793
8.87029
6.77949
5.27448
4.6322
4.2682
26.5367
11.048
8.20241
7.39059
7.2234
7.34021
7.62662
8.04095
8.48035
8.79825
8.95142
8.9659
8.86692
8.6886
8.50503
8.3878
8.3729
8.52594
8.90999
9.40715
9.65632
9.71217
9.81888
9.5186
7.41198
5.72096
5.03472
4.68614
26.355
10.9751
8.15863
7.35546
7.19177
7.31119
7.60178
8.02402
8.47861
8.82026
8.99855
9.02411
8.91176
8.70605
8.49656
8.35459
8.32193
8.4742
8.87798
9.43215
9.82629
10.0521
10.4227
10.5702
8.76724
6.55696
5.67529
5.32745
26.1777
10.8997
8.11381
7.32011
7.1603
7.28262
7.57771
8.00822
8.47806
8.84163
9.03898
9.06488
8.92899
8.69066
8.45153
8.27959
8.2226
8.34989
8.73331
9.32397
9.88365
10.3556
11.0263
11.8102
11.1072
8.24935
6.75247
6.45061
26.0051
10.8223
8.06815
7.28467
7.12912
7.25463
7.55446
7.99343
8.47817
8.86106
9.07042
9.08637
8.91921
8.64518
8.37302
8.16424
8.07158
8.14632
8.46201
9.03277
9.72392
10.4382
11.3668
12.7758
14.115
12.5973
11.716
11.4929
25.8721
10.7596
8.03123
7.25615
7.10415
7.23232
7.53608
7.98196
8.47842
8.87479
9.08835
9.08831
8.88945
8.58202
8.27611
8.03036
7.88626
7.88241
8.07896
8.53834
9.23821
10.096
11.1694
12.8342
15.5061
17.6926
11.8512
10.1209
25.7422
10.6961
7.99398
7.22766
7.07942
7.21043
7.51822
7.97096
8.47849
8.88574
9.09817
9.07698
8.84532
8.50614
8.16856
7.88897
7.69044
7.61296
7.69221
8.01035
8.60216
9.43924
10.5104
12.013
14.5079
18.2867
21.6563
10.4384
25.6152
10.6317
7.95607
7.19878
7.05446
7.18846
7.5004
7.96002
8.47803
8.89349
9.09947
9.05208
8.78558
8.41286
8.04604
7.72933
7.47402
7.31458
7.27233
7.42962
7.83647
8.50733
9.45569
10.7293
12.5021
15.1241
18.5397
19.1148
24.5461
23.4324
22.5669
21.9919
21.53
21.099
20.6073
19.9377
18.9104
17.3876
14.8366
6.60394
8.51431
8.48046
8.55982
8.70697
8.92188
9.207
9.5709
10.0162
10.5088
10.9441
11.0907
10.3356
6.44184
6.62837
6.85526
7.12975
7.46479
7.87575
8.38833
9.03714
9.85871
10.8693
12.013
12.5506
5.52053
5.74766
6.00658
6.30623
6.66233
7.09544
7.63835
8.34143
9.27779
10.5507
12.2603
14.1463
4.87952
5.10873
5.36861
5.66854
6.02321
6.45486
6.99972
7.71724
8.70557
10.1252
12.2235
15.3668
4.39436
4.61207
4.86229
5.15293
5.49742
5.91791
6.45143
7.16164
8.16189
9.65524
12.043
16.3596
4.02184
4.2264
4.46382
4.74127
5.07151
5.47619
5.99218
6.68477
7.67521
9.2024
11.8024
17.2062
3.73906
3.93032
4.154
4.41688
4.7312
5.11806
5.61399
6.28477
7.25711
8.79639
11.5554
17.9501
3.52668
3.70537
3.91553
4.16371
4.46177
4.83032
5.30544
5.95314
6.9037
8.44262
11.3225
18.615
3.36877
3.536
3.73342
3.96747
4.24969
4.60026
5.05486
5.67955
6.60711
8.13855
11.1111
19.2172
3.25253
3.4095
3.59522
3.81603
4.08322
4.41663
4.85158
5.45409
6.35873
7.87861
10.923
19.768
3.16785
3.3157
3.49081
3.69942
3.95261
4.26993
4.68639
5.26795
6.15051
7.65672
10.7574
20.2764
3.10677
3.24655
3.41212
3.60961
3.84991
4.15231
4.5516
5.11367
5.97542
7.4671
10.6125
20.7493
3.06311
3.19574
3.3528
3.54024
3.76876
4.05745
4.44092
4.98507
5.82754
7.30469
10.4861
21.1922
3.03203
3.15836
3.30786
3.48631
3.70416
3.98031
4.34932
4.87712
5.70195
7.16517
10.3764
21.61
3.00984
3.13061
3.27346
3.44391
3.65216
3.91694
4.27279
4.78578
5.59468
7.04493
10.2813
22.0065
2.99369
3.10956
3.2466
3.41004
3.60974
3.86424
4.20818
4.70785
5.5025
6.94098
10.1994
22.3855
2.98141
3.09298
3.22501
3.38238
3.57455
3.81985
4.15304
4.6408
5.42283
6.85087
10.1291
22.7498
2.9714
3.07916
3.20693
3.35915
3.5448
3.78192
4.10549
4.58265
5.35358
6.77256
10.0693
23.1023
2.9625
3.06686
3.19104
3.33903
3.51914
3.74908
4.06405
4.53181
5.29307
6.70438
10.0188
23.4457
2.95392
3.05517
3.17637
3.321
3.49661
3.72033
4.02763
4.48705
5.23991
6.64488
9.97685
23.7823
2.9451
3.04346
3.16223
3.30442
3.47654
3.69489
3.9953
4.44729
5.19292
6.59287
9.9426
24.1143
2.93555
3.03096
3.1477
3.28832
3.45814
3.67201
3.96619
4.41159
5.15106
6.54729
9.91537
24.4441
2.925
3.01737
3.13189
3.27093
3.43932
3.65034
3.93945
4.37907
5.11344
6.50726
9.89459
24.7739
2.91258
3.00162
3.11388
3.25157
3.41896
3.62865
3.91447
4.34904
5.07938
6.4721
9.87986
25.1059
2.89804
2.98361
3.0937
3.23045
3.39748
3.60675
3.89047
4.32112
5.04844
6.44137
9.87104
25.4424
2.882
2.96404
3.07196
3.20802
3.37532
3.58493
3.8675
4.29526
5.02042
6.41486
9.86828
25.7859
2.86543
2.94377
3.04936
3.18479
3.35277
3.56344
3.84575
4.27155
4.99527
6.39254
9.8721
26.1389
2.84922
2.92361
3.02654
3.16119
3.33002
3.54228
3.8253
4.25014
4.97303
6.3745
9.88324
26.5043
2.83413
2.90425
3.00405
3.13758
3.30721
3.52135
3.8061
4.2312
4.95372
6.3609
9.9028
26.8857
2.8208
2.88653
2.98281
3.11436
3.28453
3.50087
3.78819
4.21452
4.93742
6.35203
9.93313
27.287
2.80929
2.87045
2.9629
3.09226
3.2627
3.48142
3.77189
4.20021
4.92427
6.34816
9.97591
27.713
2.79975
2.85624
2.94454
3.07122
3.24151
3.46256
3.75661
4.18745
4.91303
6.34632
10.022
28.151
2.79246
2.84422
2.9281
3.0516
3.22115
3.44432
3.74225
4.17607
4.9034
6.34588
10.0692
28.6006
2.78771
2.83479
2.91407
3.03387
3.20201
3.42687
3.72886
4.16612
4.89553
6.347
10.1178
29.0622
2.78587
2.8284
2.90295
3.01861
3.18458
3.41051
3.71656
4.15773
4.88972
6.34997
10.168
29.5377
2.78734
2.82553
2.89531
3.00643
3.16942
3.3956
3.70548
4.15107
4.88638
6.35519
10.22
30.028
2.79251
2.82668
2.89172
2.99796
3.15718
3.38262
3.69578
4.14634
4.88603
6.36312
10.2744
30.5345
2.8018
2.83228
2.89276
2.99387
3.14856
3.37212
3.6876
4.14377
4.88941
6.37427
10.3316
31.0582
2.81561
2.84274
2.89903
2.99479
3.1443
3.36482
3.6814
4.14372
4.89691
6.38916
10.3918
31.6007
2.83447
2.85853
2.91093
3.00135
3.14517
3.36157
3.67824
4.14678
4.90836
6.40842
10.4558
32.1631
2.85891
2.88006
2.92882
3.01415
3.15198
3.36329
3.67895
4.15353
4.92421
6.43294
10.5243
32.7469
2.88944
2.90777
2.95315
3.03379
3.16548
3.37096
3.68449
4.16453
4.94493
6.46386
10.5981
33.3534
2.92661
2.94218
2.98439
3.06064
3.18637
3.38572
3.69605
4.18024
4.9708
6.50257
10.6782
33.9843
2.97092
2.98378
3.02289
3.09498
3.21532
3.40886
3.7151
4.20083
5.00166
6.55084
10.7654
34.6423
3.02283
3.033
3.06897
3.13721
3.25308
3.44169
3.74348
4.22794
5.03791
6.60721
10.8602
35.3314
3.08263
3.09014
3.12298
3.18784
3.30042
3.48542
3.78297
4.26455
5.08034
6.66737
10.9641
36.0561
3.15039
3.15544
3.18525
3.24751
3.35818
3.54093
3.83473
4.31175
5.12827
6.72986
11.0809
36.8212
3.22609
3.22903
3.25625
3.31707
3.42711
3.60881
3.89957
4.37062
5.18032
6.79177
11.2181
37.6359
3.30977
3.31103
3.33663
3.39727
3.50769
3.68927
3.97796
4.44355
5.24584
6.86371
11.3577
38.5202
3.40137
3.40136
3.4267
3.48831
3.59991
3.78214
4.07001
4.53195
5.32909
6.94919
11.4943
39.4849
3.50011
3.5001