/*--------------------------------*- C++ -*----------------------------------*\
| =========                 |                                                 |
| \\      /  F ield         | OpenFOAM: The Open Source CFD Toolbox           |
|  \\    /   O peration     | Version:  v2012                                 |
|   \\  /    A nd           | Website:  www.openfoam.com                      |
|    \\/     M anipulation  |                                                 |
\*---------------------------------------------------------------------------*/
FoamFile
{
    version     2.0;
    format      ascii;
    class       volScalarField;
    location    "673";
    object      p;
}
// * * * * * * * * * * * * * * * * * * * * * * * * * * * * * * * * * * * * * //

dimensions      [0 2 -2 0 0 0 0];


internalField   nonuniform List<scalar> 
6084
(
0.318001
0.318148
0.318325
0.318519
0.318725
0.318938
0.319154
0.319372
0.319591
0.319811
0.320031
0.32025
0.320469
0.32069
0.320914
0.321142
0.321381
0.321679
0.322167
0.322876
0.317993
0.318146
0.318327
0.318525
0.318734
0.318949
0.319168
0.319389
0.319612
0.319836
0.320061
0.320286
0.320512
0.320741
0.320972
0.321205
0.321439
0.321693
0.321987
0.322242
0.317922
0.318091
0.318284
0.31849
0.318703
0.318921
0.319141
0.319364
0.319587
0.319812
0.320037
0.320264
0.320492
0.320722
0.320953
0.321181
0.321402
0.321624
0.321811
0.321898
0.317821
0.318019
0.318232
0.31845
0.318671
0.318892
0.319115
0.319338
0.319561
0.319785
0.320011
0.320236
0.320463
0.320691
0.320917
0.321136
0.321347
0.321548
0.321702
0.321754
0.317706
0.317945
0.318186
0.318419
0.318649
0.318875
0.3191
0.319324
0.319548
0.319773
0.319998
0.320223
0.320449
0.320676
0.3209
0.321116
0.321322
0.321512
0.321652
0.321692
0.317587
0.31788
0.318153
0.318402
0.318639
0.31887
0.319097
0.319322
0.319547
0.319772
0.319997
0.320223
0.320449
0.320676
0.3209
0.321116
0.321322
0.321512
0.321652
0.321692
0.317496
0.317844
0.318147
0.318405
0.318647
0.318878
0.319106
0.319332
0.319558
0.319783
0.320009
0.320235
0.320462
0.32069
0.320917
0.321136
0.321347
0.321548
0.321702
0.321754
0.317503
0.31787
0.318184
0.318436
0.318673
0.318902
0.31913
0.319356
0.319582
0.319808
0.320035
0.320263
0.320491
0.320721
0.320953
0.321181
0.321402
0.321624
0.321811
0.321898
0.317756
0.318004
0.318265
0.318484
0.318707
0.31893
0.319155
0.319381
0.319606
0.319832
0.320058
0.320284
0.320511
0.32074
0.320971
0.321204
0.321438
0.321693
0.321987
0.322242
0.318382
0.318225
0.318309
0.318494
0.318702
0.31892
0.319142
0.319364
0.319586
0.319807
0.320028
0.320248
0.320468
0.320689
0.320914
0.321142
0.321381
0.321678
0.322167
0.322876
0.330444
0.326992
0.324322
0.322296
0.32079
0.319698
0.318931
0.318417
0.318097
0.317927
0.317872
0.317903
0.330318
0.326876
0.324218
0.322205
0.320714
0.319636
0.318882
0.318378
0.318066
0.317901
0.31785
0.317888
0.329414
0.326109
0.323577
0.32168
0.32029
0.319298
0.318614
0.318166
0.317898
0.317762
0.317734
0.317795
0.327693
0.324661
0.32238
0.320709
0.319517
0.318691
0.31814
0.317797
0.31761
0.317534
0.317549
0.317653
0.325208
0.322587
0.320681
0.319346
0.318444
0.317858
0.317496
0.317301
0.317231
0.317239
0.317312
0.317474
0.322006
0.319914
0.318495
0.317604
0.31709
0.316823
0.316708
0.316705
0.316798
0.316918
0.317032
0.317255
0.31806
0.316608
0.315828
0.315542
0.315547
0.315695
0.315893
0.316117
0.316389
0.316595
0.316672
0.31699
0.313508
0.312882
0.312879
0.313337
0.313947
0.314523
0.314995
0.315338
0.315677
0.31597
0.316092
0.316695
0.308153
0.308268
0.30903
0.310178
0.311259
0.312134
0.312844
0.313345
0.313966
0.315115
0.316039
0.316202
0.302571
0.303521
0.305032
0.306772
0.308688
0.310812
0.312825
0.314368
0.315646
0.317996
0.318787
0.312289
0.77125
0.770073
0.769421
0.769451
0.769161
0.766783
0.758576
0.742697
0.721139
0.695931
0.668332
0.639324
0.609688
0.580078
0.551048
0.523068
0.496524
0.471722
0.448883
0.428151
0.409597
0.393222
0.378964
0.366718
0.356345
0.347685
0.340585
0.33489
0.770747
0.769182
0.769028
0.769821
0.769845
0.766547
0.756654
0.740238
0.719193
0.694492
0.667338
0.638693
0.609343
0.579947
0.551068
0.523184
0.496693
0.47191
0.449065
0.42831
0.40972
0.393301
0.378998
0.366712
0.356305
0.34762
0.3405
0.334775
0.771122
0.769239
0.769223
0.7696
0.767947
0.762021
0.750375
0.733652
0.71291
0.688784
0.662257
0.634178
0.605307
0.576301
0.547738
0.520111
0.493834
0.469239
0.446568
0.42598
0.407555
0.3913
0.377162
0.36504
0.354797
0.346275
0.339314
0.333733
0.773176
0.770829
0.769817
0.767965
0.763388
0.754886
0.741954
0.724889
0.704191
0.680442
0.654411
0.62683
0.598405
0.569782
0.541547
0.514212
0.488211
0.463892
0.441509
0.421228
0.403129
0.387215
0.37343
0.361665
0.351778
0.343606
0.33698
0.331718
0.776222
0.772899
0.769741
0.765063
0.7576
0.746844
0.732551
0.714787
0.693818
0.670117
0.644292
0.616981
0.588836
0.560487
0.532522
0.505469
0.479781
0.455818
0.433843
0.41402
0.396422
0.381044
0.367814
0.356612
0.347281
0.339652
0.333547
0.328779
0.778594
0.773542
0.767943
0.760516
0.750479
0.737655
0.721883
0.703162
0.681658
0.657724
0.631849
0.604594
0.576567
0.54838
0.520629
0.493856
0.468527
0.445013
0.423578
0.404379
0.387472
0.372832
0.360365
0.349932
0.34136
0.334467
0.329071
0.324974
0.778503
0.771509
0.763759
0.753863
0.741584
0.7269
0.709674
0.689895
0.667676
0.643293
0.617153
0.58976
0.56169
0.533553
0.505952
0.479448
0.454523
0.431553
0.410796
0.392389
0.376364
0.362665
0.351169
0.341707
0.334088
0.328117
0.323602
0.320323
0.774986
0.766326
0.756852
0.744912
0.730761
0.714446
0.695846
0.674973
0.651919
0.626915
0.600319
0.572604
0.544335
0.516132
0.488619
0.462381
0.437915
0.415597
0.395668
0.378235
0.36329
0.350735
0.340408
0.332105
0.325612
0.320719
0.317219
0.314885
0.768377
0.758021
0.747149
0.733617
0.717945
0.700219
0.680347
0.658382
0.634417
0.608662
0.581453
0.553261
0.524661
0.496302
0.468848
0.442911
0.419001
0.397487
0.378575
0.362325
0.348672
0.337463
0.328485
0.321496
0.31625
0.312526
0.310112
0.308746
0.758457
0.746612
0.734702
0.71998
0.703096
0.68417
0.66315
0.640134
0.615226
0.588635
0.560705
0.531926
0.502917
0.474379
0.447027
0.42151
0.398343
0.377864
0.360223
0.345406
0.333268
0.323583
0.316083
0.310485
0.306523
0.303979
0.302662
0.302297
0.295564
0.296479
0.29766
0.298832
0.300064
0.301473
0.302419
0.302377
0.302515
0.303928
0.302144
0.291756
0.29163
0.293016
0.294644
0.296229
0.29762
0.29902
0.30015
0.300566
0.300801
0.300977
0.299494
0.295999
0.289512
0.291126
0.292919
0.29469
0.296118
0.29728
0.298316
0.29907
0.299461
0.299313
0.298271
0.296652
0.288281
0.289904
0.291546
0.2932
0.294686
0.295884
0.296785
0.297428
0.297803
0.297766
0.29715
0.296212
0.286784
0.288358
0.289924
0.291435
0.292843
0.294075
0.295077
0.295819
0.296263
0.29633
0.295968
0.295374
0.28514
0.28666
0.288206
0.289715
0.291132
0.292394
0.293446
0.294236
0.294714
0.294854
0.294667
0.294261
0.283538
0.28504
0.286575
0.288083
0.289501
0.290766
0.291825
0.292627
0.293131
0.293334
0.293264
0.292966
0.281995
0.283481
0.284996
0.286483
0.287883
0.289135
0.290189
0.290998
0.291527
0.29178
0.291784
0.29155
0.280471
0.281934
0.283422
0.284884
0.286262
0.2875
0.288551
0.289369
0.289921
0.29021
0.290261
0.290065
0.278946
0.280385
0.281849
0.283288
0.284649
0.285879
0.286929
0.287757
0.288329
0.288646
0.288725
0.288554
0.277422
0.278841
0.280287
0.281711
0.283061
0.284286
0.28534
0.28618
0.286772
0.28711
0.287208
0.287056
0.27591
0.277315
0.278749
0.280165
0.281511
0.282739
0.283801
0.284656
0.285268
0.285626
0.285739
0.285606
0.274421
0.27582
0.27725
0.278665
0.280015
0.281251
0.282327
0.2832
0.283835
0.284216
0.284345
0.284233
0.27297
0.274368
0.275802
0.277224
0.278585
0.279836
0.280933
0.28183
0.282493
0.282901
0.28305
0.282967
0.271568
0.272973
0.274418
0.275854
0.277234
0.278509
0.279633
0.280562
0.281259
0.281702
0.281879
0.281832
0.270227
0.271646
0.273109
0.274569
0.275977
0.277284
0.278443
0.279411
0.280151
0.280637
0.280851
0.280853
0.268959
0.2704
0.271889
0.273381
0.274825
0.276173
0.277377
0.278393
0.279184
0.279726
0.279988
0.28005
0.267775
0.269245
0.270769
0.272302
0.273792
0.275191
0.276449
0.277523
0.278375
0.278984
0.279308
0.279445
0.266686
0.268192
0.26976
0.271343
0.27289
0.274349
0.275672
0.276814
0.277739
0.278427
0.278824
0.279059
0.265702
0.267251
0.268872
0.270515
0.272128
0.273659
0.275057
0.276279
0.277288
0.278069
0.278558
0.278909
0.26483
0.266432
0.268114
0.269827
0.271518
0.273132
0.274617
0.275929
0.277033
0.27792
0.278524
0.279006
0.26408
0.265741
0.267493
0.269287
0.271067
0.272775
0.274359
0.275772
0.276983
0.27799
0.278727
0.279358
0.263456
0.265185
0.267017
0.268902
0.270781
0.272595
0.274287
0.275814
0.277145
0.278287
0.279171
0.279978
0.262964
0.264768
0.266689
0.268673
0.270663
0.272593
0.27441
0.27606
0.277519
0.27881
0.279863
0.280877
0.262605
0.264491
0.266508
0.268603
0.270712
0.272773
0.274731
0.276507
0.2781
0.27955
0.280796
0.282041
0.26238
0.264354
0.266475
0.268688
0.270927
0.273133
0.275221
0.277132
0.278874
0.280496
0.281959
0.283458
0.262287
0.264353
0.266582
0.268921
0.271305
0.27365
0.275867
0.277929
0.279828
0.281625
0.283325
0.2851
0.262319
0.264479
0.26682
0.269289
0.271821
0.274308
0.276676
0.278887
0.280932
0.282902
0.284855
0.286924
0.262467
0.26472
0.267172
0.269781
0.272455
0.275083
0.277602
0.27996
0.282145
0.284278
0.28649
0.288862
0.262718
0.265058
0.267612
0.270359
0.273164
0.275936
0.278607
0.281111
0.283425
0.285692
0.288158
0.290826
0.263053
0.265473
0.268131
0.270976
0.273906
0.27683
0.279655
0.282314
0.284734
0.287073
0.289757
0.292696
0.263446
0.265931
0.268689
0.2716
0.27464
0.277706
0.2807
0.283524
0.285975
0.288297
0.291141
0.294309
0.26386
0.266378
0.269183
0.272169
0.275295
0.278482
0.28164
0.284545
0.28696
0.289219
0.29215
0.295468
0.26426
0.266769
0.26956
0.272597
0.275772
0.279041
0.282246
0.285111
0.287556
0.289789
0.292765
0.296081
0.264602
0.267057
0.269791
0.272794
0.275953
0.279224
0.282347
0.28519
0.287736
0.290002
0.293046
0.296238
0.264833
0.267164
0.269799
0.272674
0.275745
0.27889
0.281895
0.284789
0.287417
0.289736
0.292849
0.295839
0.264898
0.267025
0.269482
0.272143
0.275024
0.277969
0.28088
0.28379
0.286447
0.288793
0.291878
0.294825
0.264737
0.266616
0.268769
0.271138
0.273713
0.276414
0.27924
0.282099
0.28473
0.287071
0.290051
0.293188
0.2643
0.265852
0.267611
0.2696
0.271801
0.274224
0.276912
0.279666
0.282234
0.284563
0.28744
0.290762
0.263577
0.26467
0.265969
0.267507
0.269302
0.27143
0.273913
0.276522
0.279013
0.281346
0.284144
0.287603
0.262507
0.263081
0.263871
0.264923
0.266291
0.268103
0.270341
0.27279
0.275221
0.277588
0.280359
0.283945
0.261062
0.261097
0.261397
0.261957
0.262891
0.264387
0.266382
0.268685
0.27108
0.273507
0.276242
0.279832
0.259295
0.258858
0.258665
0.258744
0.259308
0.260523
0.262309
0.264495
0.266868
0.269307
0.271921
0.275343
0.257372
0.256473
0.255789
0.255496
0.255822
0.256819
0.258435
0.26051
0.262832
0.265169
0.267582
0.27073
0.255381
0.253999
0.252997
0.252534
0.252714
0.253554
0.255011
0.256937
0.259095
0.261254
0.263449
0.26627
0.253383
0.25174
0.250622
0.250085
0.250156
0.250845
0.252108
0.25383
0.255769
0.257764
0.259735
0.262194
0.251686
0.249973
0.248807
0.248192
0.24815
0.248684
0.249745
0.251255
0.253019
0.254878
0.25661
0.258687
0.25047
0.248742
0.247529
0.246829
0.246667
0.24706
0.247973
0.249333
0.250961
0.252672
0.254165
0.255891
0.249766
0.248017
0.246744
0.245956
0.245699
0.245993
0.246808
0.248061
0.249578
0.251154
0.252433
0.253899
0.249539
0.247748
0.2464
0.245535
0.245211
0.245437
0.246191
0.247383
0.248837
0.250325
0.251461
0.252733
0.249705
0.247854
0.246434
0.245509
0.245141
0.245331
0.24607
0.247257
0.248714
0.250187
0.251279
0.252445
0.250173
0.248259
0.246779
0.245815
0.245434
0.245642
0.246426
0.247677
0.249211
0.250754
0.251929
0.253094
0.25088
0.248908
0.247392
0.246426
0.246078
0.246358
0.247249
0.248633
0.250321
0.252032
0.25343
0.254703
0.251791
0.249777
0.248251
0.24732
0.247051
0.247461
0.248519
0.250105
0.252024
0.254007
0.255771
0.257241
0.252879
0.250831
0.249322
0.248464
0.248322
0.248913
0.250198
0.252051
0.254273
0.256632
0.258879
0.26058
0.254075
0.252009
0.250548
0.2498
0.249829
0.250654
0.252223
0.254399
0.256988
0.259801
0.262563
0.264409
0.255302
0.253226
0.25184
0.251239
0.251483
0.252588
0.254487
0.257028
0.260026
0.263309
0.266434
0.268158
0.256397
0.254305
0.25305
0.252645
0.253142
0.254564
0.256823
0.259751
0.263184
0.266852
0.26989
0.27094
0.25667
0.25479
0.253801
0.253666
0.25447
0.256272
0.258966
0.262332
0.266124
0.269772
0.271962
0.272172
0.255454
0.254792
0.254339
0.254598
0.255781
0.257975
0.261093
0.264726
0.268408
0.271542
0.272711
0.272479
0.744419
0.731671
0.719105
0.703542
0.685703
0.66576
0.643704
0.619677
0.593804
0.566316
0.537591
0.508173
0.478756
0.450124
0.423063
0.398254
0.376196
0.357165
0.341214
0.328211
0.317903
0.30997
0.304076
0.299894
0.297131
0.29555
0.294937
0.295029
0.726378
0.713128
0.700297
0.684232
0.665696
0.644929
0.621975
0.597013
0.570204
0.541825
0.512319
0.482328
0.452665
0.424231
0.397887
0.374329
0.353994
0.337031
0.323334
0.312616
0.304492
0.298555
0.294416
0.291734
0.290219
0.289638
0.289792
0.290507
0.705374
0.691976
0.679112
0.662825
0.643845
0.622472
0.5988
0.573047
0.545426
0.516284
0.486173
0.45588
0.426372
0.398676
0.373704
0.352096
0.334138
0.319775
0.308691
0.300426
0.294484
0.290401
0.287784
0.286324
0.285784
0.285982
0.286773
0.288016
0.682199
0.668828
0.656057
0.63971
0.620512
0.598734
0.574538
0.548182
0.519943
0.490277
0.459889
0.429747
0.400988
0.37473
0.351851
0.33283
0.31771
0.306173
0.297694
0.291683
0.287594
0.284985
0.28353
0.282998
0.283196
0.28396
0.285141
0.286635
0.657447
0.644239
0.63163
0.615333
0.596117
0.574128
0.54962
0.52289
0.494309
0.464473
0.434274
0.404878
0.377555
0.353429
0.333228
0.31717
0.304998
0.296152
0.289955
0.285775
0.283105
0.281587
0.280965
0.281024
0.281595
0.282551
0.283787
0.285231
0.631612
0.618709
0.606307
0.59018
0.571098
0.549098
0.524512
0.497687
0.469111
0.439551
0.410098
0.382085
0.356837
0.33537
0.318158
0.305102
0.295669
0.289124
0.284738
0.281918
0.280243
0.27942
0.279226
0.279501
0.280147
0.281092
0.282279
0.283659
0.605178
0.592693
0.580569
0.56473
0.545915
0.524103
0.499687
0.473082
0.444909
0.416115
0.387973
0.361914
0.339214
0.320672
0.306455
0.29616
0.289049
0.284308
0.281236
0.279325
0.278233
0.277738
0.277692
0.278014
0.278657
0.279577
0.280732
0.282082
0.578607
0.566634
0.554877
0.53942
0.521003
0.499578
0.47559
0.449534
0.422174
0.394624
0.368285
0.344601
0.324692
0.309077
0.297617
0.28967
0.284382
0.280942
0.278733
0.277348
0.276543
0.276183
0.27619
0.276529
0.27717
0.278078
0.279219
0.280553
0.552319
0.540927
0.529615
0.514631
0.496747
0.475904
0.4526
0.427416
0.401251
0.375352
0.351183
0.330103
0.313003
0.300108
0.291019
0.284941
0.280986
0.278413
0.276719
0.275617
0.274955
0.27466
0.274699
0.275053
0.275698
0.276602
0.277732
0.27905
0.526668
0.515913
0.50511
0.49069
0.473473
0.453395
0.431011
0.406988
0.382338
0.358392
0.336604
0.318175
0.303728
0.293216
0.286057
0.281383
0.278345
0.276315
0.274923
0.273977
0.273395
0.273146
0.273213
0.273584
0.274232
0.275132
0.27625
0.277549
0.501954
0.491875
0.481636
0.467866
0.451434
0.432285
0.411025
0.388397
0.365494
0.343678
0.324335
0.308463
0.296402
0.287884
0.282225
0.278558
0.276125
0.274432
0.273219
0.272369
0.271843
0.271635
0.271731
0.272115
0.272766
0.273659
0.274764
0.276045
0.478414
0.469037
0.459407
0.446361
0.430814
0.412726
0.392749
0.371681
0.350657
0.331026
0.314073
0.300579
0.290596
0.283682
0.279144
0.276175
0.274136
0.272656
0.271558
0.270776
0.270302
0.270133
0.270253
0.270649
0.271301
0.272187
0.27328
0.274547
0.45623
0.447568
0.438579
0.426313
0.411729
0.394798
0.376209
0.356794
0.337683
0.320171
0.305461
0.294165
0.285962
0.280288
0.276558
0.274063
0.272284
0.270945
0.269928
0.269205
0.268778
0.268644
0.268785
0.26919
0.269842
0.270724
0.27181
0.273067
0.435524
0.427579
0.41925
0.407805
0.394233
0.378519
0.361373
0.343629
0.326366
0.310797
0.298221
0.288986
0.282243
0.277482
0.274307
0.272128
0.270523
0.269282
0.268331
0.267663
0.267281
0.267176
0.267335
0.267748
0.268403
0.269283
0.270365
0.271618
0.416372
0.409131
0.401468
0.390865
0.378329
0.363857
0.348162
0.332052
0.316505
0.302834
0.292287
0.2847
0.279141
0.275102
0.272291
0.270322
0.268836
0.26767
0.266777
0.266159
0.265817
0.265739
0.265914
0.266335
0.266994
0.267875
0.268957
0.270212
0.398801
0.392243
0.38524
0.375484
0.363985
0.350749
0.336482
0.321943
0.308036
0.296284
0.287458
0.280982
0.276372
0.272962
0.270433
0.268614
0.267215
0.266112
0.265274
0.264703
0.264395
0.264341
0.264531
0.264962
0.265626
0.266512
0.267599
0.268861
0.382804
0.376899
0.370539
0.361617
0.351137
0.339109
0.326213
0.313134
0.300897
0.290911
0.283352
0.277722
0.273827
0.270944
0.268691
0.266988
0.265662
0.264616
0.263829
0.263302
0.263026
0.262993
0.263198
0.26364
0.264312
0.265206
0.266302
0.267577
0.368342
0.363052
0.35731
0.349197
0.3397
0.328832
0.317237
0.305498
0.294877
0.286388
0.279767
0.274856
0.271485
0.269037
0.267047
0.265441
0.26418
0.263188
0.26245
0.261962
0.261716
0.261705
0.261925
0.262378
0.263062
0.263967
0.265078
0.26637
0.355352
0.350639
0.34548
0.338141
0.329577
0.319804
0.309438
0.298973
0.289752
0.282443
0.276612
0.272327
0.269359
0.267236
0.265473
0.263969
0.262774
0.261834
0.261142
0.260693
0.260475
0.260485
0.260721
0.261189
0.261886
0.262806
0.263935
0.265251
0.343755
0.339577
0.334962
0.328353
0.320662
0.311902
0.302658
0.293409
0.285378
0.278981
0.273838
0.270077
0.267434
0.26553
0.263966
0.262587
0.261451
0.260562
0.259914
0.259501
0.259311
0.259343
0.259597
0.26008
0.260793
0.261732
0.262884
0.26423
0.333463
0.329776
0.325665
0.319732
0.312848
0.305009
0.296741
0.288637
0.281655
0.275964
0.271399
0.268065
0.265684
0.263939
0.262542
0.261292
0.260214
0.259377
0.258774
0.258396
0.258234
0.258287
0.25856
0.259061
0.259793
0.260754
0.261934
0.263315
0.324385
0.321142
0.317491
0.312182
0.306034
0.299033
0.291626
0.284535
0.278448
0.273333
0.269255
0.266265
0.264101
0.262488
0.261211
0.260074
0.25907
0.258287
0.257728
0.257385
0.25725
0.257326
0.257619
0.258139
0.258893
0.259879
0.261092
0.262514
0.316428
0.313583
0.310349
0.305609
0.300126
0.29389
0.28727
0.281017
0.275644
0.271035
0.267372
0.264663
0.262676
0.261174
0.259979
0.258949
0.258033
0.2573
0.256785
0.256476
0.256368
0.256467
0.256781
0.257323
0.2581
0.259116
0.260365
0.261834
0.309496
0.307006
0.304148
0.299922
0.295035
0.289483
0.283575
0.278011
0.27321
0.269042
0.265728
0.263248
0.261405
0.259995
0.258866
0.257931
0.257105
0.256422
0.255949
0.255674
0.255594
0.255717
0.256053
0.256618
0.257421
0.258468
0.259758
0.261278
0.303499
0.301323
0.298804
0.295039
0.290679
0.285726
0.280446
0.275462
0.27113
0.267338
0.264309
0.262015
0.260292
0.258959
0.257889
0.257027
0.256283
0.25566
0.255229
0.254988
0.254936
0.255082
0.255442
0.25603
0.256861
0.257942
0.259275
0.260851
0.298352
0.296452
0.294239
0.290882
0.286985
0.282551
0.277818
0.273323
0.269381
0.265904
0.263108
0.260965
0.259337
0.258068
0.257049
0.25624
0.255579
0.255029
0.254634
0.254424
0.2544
0.25457
0.254952
0.255565
0.256424
0.25754
0.258918
0.260553
0.293977
0.292308
0.290385
0.287384
0.283889
0.279904
0.275642
0.27156
0.26794
0.264726
0.262119
0.260098
0.258547
0.257329
0.256352
0.255586
0.255004
0.254528
0.254168
0.253989
0.253991
0.254185
0.25459
0.255227
0.256113
0.257263
0.258687
0.260383
0.290312
0.288859
0.287193
0.284485
0.281338
0.277739
0.27388
0.270145
0.26679
0.263793
0.26134
0.259416
0.257925
0.256749
0.255809
0.255083
0.254564
0.254153
0.253837
0.253689
0.253717
0.253934
0.25436
0.255017
0.255928
0.257112
0.258581
0.260337
0.287307
0.286127
0.284603
0.282131
0.279285
0.276015
0.2725
0.269057
0.265918
0.2631
0.260771
0.258924
0.257478
0.256334
0.255424
0.254735
0.254264
0.253914
0.253648
0.25353
0.253583
0.25382
0.254263
0.254938
0.255871
0.257085
0.258596
0.26041
0.284887
0.28396
0.282522
0.280271
0.277687
0.274697
0.271476
0.268279
0.265317
0.262644
0.260414
0.258626
0.257212
0.256089
0.255204
0.254543
0.254108
0.253823
0.253616
0.253523
0.253595
0.253847
0.254303
0.254991
0.25594
0.257178
0.258724
0.260591
0.282984
0.282183
0.280878
0.27886
0.276506
0.273758
0.270788
0.267797
0.264981
0.262424
0.260272
0.258527
0.257135
0.256025
0.255157
0.254519
0.254114
0.25389
0.253742
0.253671
0.253757
0.25402
0.254482
0.255175
0.256132
0.257384
0.258957
0.260866
0.281552
0.280805
0.279661
0.277865
0.275711
0.273174
0.270419
0.267602
0.264904
0.262442
0.26035
0.258636
0.257255
0.256151
0.255293
0.254675
0.254298
0.254124
0.254025
0.253979
0.254074
0.25434
0.2548
0.255488
0.256442
0.257696
0.25928
0.261215
0.280557
0.279864
0.278872
0.277264
0.275282
0.272929
0.270358
0.267687
0.265085
0.2627
0.260655
0.258961
0.257581
0.256477
0.255623
0.255017
0.254665
0.254532
0.254476
0.254453
0.254551
0.25481
0.255258
0.255928
0.256863
0.258101
0.259676
0.261612
0.279982
0.279359
0.278494
0.277037
0.275203
0.273009
0.270595
0.268047
0.265525
0.263202
0.261192
0.259509
0.258125
0.257013
0.256157
0.255556
0.255224
0.255127
0.255108
0.255101
0.255192
0.255434
0.255854
0.25649
0.257386
0.258584
0.260123
0.26203
0.279796
0.279262
0.278493
0.277162
0.275456
0.273402
0.271124
0.268681
0.266226
0.263953
0.261969
0.26029
0.258896
0.25777
0.256905
0.256306
0.25599
0.255923
0.255934
0.255933
0.256005
0.256215
0.256589
0.257168
0.257999
0.259127
0.260594
0.262432
0.27998
0.279523
0.278836
0.277617
0.276027
0.274096
0.271937
0.269588
0.267192
0.26496
0.262994
0.261316
0.259909
0.258764
0.257884
0.257284
0.256979
0.256936
0.256968
0.25696
0.256998
0.257155
0.257461
0.257955
0.258687
0.259708
0.261061
0.26278
0.280505
0.280109
0.2795
0.278384
0.2769
0.275082
0.27303
0.270766
0.268425
0.26623
0.264279
0.262597
0.261175
0.26001
0.259114
0.258509
0.258213
0.258184
0.258225
0.258196
0.258177
0.258258
0.258465
0.25884
0.259435
0.260302
0.261489
0.263031
0.281339
0.281005
0.280467
0.279446
0.278062
0.27635
0.274398
0.272215
0.269931
0.267772
0.265835
0.264151
0.262714
0.261528
0.260615
0.260005
0.259712
0.259686
0.259721
0.259654
0.259553
0.259525
0.259598
0.259813
0.260222
0.260882
0.261843
0.263139
0.282459
0.28219
0.281718
0.280788
0.279499
0.27789
0.276036
0.273935
0.271712
0.269593
0.267675
0.265991
0.264543
0.26334
0.262412
0.261797
0.261502
0.261465
0.261475
0.261344
0.261132
0.260958
0.260854
0.260857
0.261026
0.261418
0.262085
0.263054
0.283846
0.283643
0.283232
0.282391
0.281199
0.279693
0.277937
0.275923
0.273771
0.271701
0.26981
0.268134
0.26668
0.265466
0.264528
0.263909
0.263606
0.263541
0.263498
0.263274
0.262918
0.262556
0.262222
0.261958
0.261823
0.261877
0.262175
0.262727
0.28548
0.285341
0.284991
0.284239
0.283146
0.281748
0.280095
0.278178
0.27611
0.274102
0.27225
0.270593
0.269146
0.267929
0.266987
0.266363
0.266043
0.265927
0.265799
0.265457
0.264917
0.264314
0.263693
0.263094
0.262584
0.262227
0.262072
0.262125
0.287339
0.287262
0.286974
0.286315
0.285326
0.284042
0.282502
0.280693
0.278727
0.276799
0.275003
0.273383
0.271955
0.270748
0.269811
0.269182
0.268829
0.268633
0.268401
0.267914
0.267135
0.26623
0.265251
0.264245
0.263284
0.262439
0.261765
0.261325
0.289402
0.289385
0.28916
0.288599
0.28772
0.286561
0.285144
0.28346
0.281619
0.279792
0.278074
0.27651
0.275122
0.273941
0.273018
0.272383
0.271983
0.271679
0.271322
0.270643
0.269573
0.268294
0.266879
0.265384
0.263898
0.262495
0.261264
0.26017
0.291644
0.291687
0.291528
0.291069
0.290309
0.289286
0.288008
0.286469
0.284774
0.283076
0.281461
0.279979
0.278653
0.277518
0.276621
0.275975
0.275504
0.275084
0.274568
0.273638
0.27222
0.27049
0.268553
0.266483
0.264386
0.262358
0.260481
0.25868
0.294043
0.294143
0.294054
0.293703
0.293071
0.292196
0.291074
0.289701
0.288181
0.286638
0.285157
0.283785
0.282548
0.28148
0.28062
0.27996
0.279398
0.278839
0.278121
0.276895
0.27507
0.272804
0.270247
0.267496
0.264653
0.26194
0.259456
0.257181
0.29657
0.296727
0.296712
0.296475
0.29598
0.295266
0.294318
0.293137
0.291816
0.290459
0.289144
0.287914
0.286794
0.285816
0.285003
0.284322
0.283661
0.282934
0.281962
0.280409
0.27812
0.275219
0.271929
0.26834
0.264679
0.261463
0.258345
0.255563
0.2992
0.299412
0.299473
0.299356
0.299008
0.298463
0.297712
0.296751
0.295654
0.294513
0.293395
0.29234
0.291369
0.290503
0.289745
0.28903
0.288271
0.287357
0.286082
0.284183
0.281384
0.277727
0.273544
0.268937
0.264787
0.260814
0.25706
0.25402
0.301904
0.302168
0.30231
0.302318
0.302124
0.301758
0.301223
0.300508
0.299655
0.29876
0.297873
0.297025
0.296232
0.295502
0.294809
0.294058
0.293195
0.292077
0.290478
0.288227
0.284855
0.280307
0.275027
0.269397
0.264478
0.259771
0.255873
0.252792
0.304651
0.304966
0.305191
0.305328
0.305296
0.30512
0.304815
0.30436
0.303776
0.303153
0.302526
0.301916
0.301328
0.30075
0.300128
0.299353
0.298385
0.297058
0.295153
0.292532
0.288493
0.282894
0.276269
0.269688
0.263703
0.258801
0.254979
0.252044
0.307412
0.307773
0.308084
0.308352
0.308489
0.308512
0.308443
0.308259
0.307963
0.307635
0.307293
0.306944
0.306581
0.306166
0.305608
0.304835
0.303789
0.302275
0.300101
0.297079
0.29227
0.285408
0.277117
0.269599
0.26293
0.258087
0.25458
0.251811
0.310156
0.31056
0.310956
0.311354
0.311663
0.311891
0.312061
0.312154
0.312159
0.312141
0.312099
0.312028
0.311905
0.311658
0.311168
0.310413
0.309325
0.307688
0.3053
0.301848
0.296162
0.287826
0.2779
0.268926
0.262215
0.257849
0.254706
0.251997
0.312852
0.313294
0.313773
0.3143
0.314777
0.315212
0.315621
0.31599
0.316299
0.316596
0.316863
0.317078
0.317195
0.317117
0.316709
0.315986
0.314899
0.313233
0.310714
0.306802
0.300093
0.29
0.278378
0.267988
0.261753
0.258145
0.255202
0.2525
0.31547
0.315943
0.316504
0.317153
0.317793
0.318429
0.319072
0.31971
0.320318
0.320925
0.321496
0.32199
0.322336
0.322413
0.322098
0.321441
0.320428
0.318841
0.316286
0.311909
0.304047
0.291891
0.278192
0.267093
0.261802
0.258846
0.255968
0.253259
0.31798
0.318479
0.319115
0.319878
0.320672
0.3215
0.322365
0.323256
0.324148
0.325049
0.325907
0.32666
0.327208
0.327415
0.327207
0.326671
0.325815
0.324415
0.321937
0.317139
0.308061
0.293808
0.27781
0.266632
0.262403
0.259799
0.256941
0.254224
0.320357
0.320874
0.321579
0.322444
0.323378
0.324383
0.325451
0.326574
0.327726
0.328895
0.33001
0.330989
0.331703
0.33201
0.331924
0.331562
0.330938
0.329825
0.32755
0.322431
0.312186
0.296015
0.277786
0.266808
0.263361
0.260928
0.2581
0.255361
0.322575
0.323103
0.323867
0.324821
0.325877
0.32704
0.328289
0.329613
0.330992
0.332393
0.333727
0.334887
0.335725
0.336109
0.336143
0.335987
0.335655
0.334918
0.332939
0.327573
0.316361
0.298506
0.278589
0.267652
0.264416
0.262205
0.259405
0.2566
0.324613
0.325143
0.325956
0.326983
0.328141
0.329439
0.330839
0.332331
0.333897
0.335486
0.336991
0.338281
0.339193
0.339633
0.339779
0.33984
0.339837
0.339518
0.337831
0.332331
0.320629
0.301484
0.280545
0.268939
0.26543
0.263537
0.26079
0.257863
0.326453
0.326972
0.327828
0.328909
0.330147
0.331552
0.333072
0.334692
0.336402
0.33813
0.339751
0.341113
0.34205
0.34252
0.342768
0.343045
0.343372
0.343416
0.341933
0.33655
0.325085
0.305873
0.284179
0.27087
0.266722
0.265011
0.262354
0.259096
0.328083
0.328583
0.329468
0.330584
0.331878
0.33336
0.334965
0.336672
0.338477
0.340292
0.341972
0.343349
0.344266
0.344742
0.345076
0.345552
0.346153
0.346415
0.345021
0.339989
0.329571
0.312152
0.290091
0.274219
0.269082
0.267403
0.264192
0.25951
0.329489
0.329976
0.330873
0.331999
0.333321
0.334852
0.336505
0.338256
0.34011
0.341959
0.343643
0.344982
0.345841
0.346302
0.346708
0.34734
0.348104
0.348425
0.347049
0.342464
0.333536
0.318889
0.29766
0.279835
0.272458
0.270917
0.265375
0.256222
0.330617
0.331071
0.331915
0.333022
0.334346
0.335892
0.337558
0.339315
0.341174
0.34301
0.34465
0.345911
0.34669
0.347126
0.347583
0.348302
0.349117
0.349399
0.347997
0.343783
0.336085
0.323979
0.3059
0.287508
0.27526
0.271335
0.264624
0.251672
0.331466
0.331882
0.332654
0.333737
0.335047
0.336587
0.338245
0.339985
0.341821
0.343613
0.34518
0.346347
0.347047
0.347465
0.347957
0.348713
0.349513
0.349704
0.348268
0.344351
0.337529
0.327245
0.312634
0.295793
0.282737
0.273585
0.263991
0.251138
0.332095
0.332497
0.333235
0.334296
0.335583
0.337099
0.33873
0.340432
0.342219
0.343943
0.345416
0.346474
0.347092
0.347485
0.347984
0.348726
0.349458
0.349518
0.34805
0.344419
0.338385
0.329663
0.317879
0.304056
0.292879
0.282919
0.267092
0.250125
0.313121
0.331154
0.34446
0.355188
0.364802
0.373644
0.381515
0.388118
0.393284
0.395794
0.395579
0.395274
0.319976
0.331952
0.343058
0.352751
0.361735
0.370128
0.377857
0.384725
0.390396
0.394007
0.395162
0.395141
0.323998
0.333099
0.342141
0.350732
0.358936
0.366721
0.37401
0.380677
0.386533
0.391247
0.394094
0.394524
0.325815
0.333059
0.340579
0.348129
0.35557
0.362761
0.369583
0.375905
0.381657
0.386871
0.390936
0.392322
0.326083
0.331969
0.338389
0.345072
0.3518
0.358398
0.364726
0.370654
0.376144
0.381327
0.385777
0.387814
0.325184
0.330131
0.335721
0.341669
0.347751
0.353783
0.359612
0.365103
0.370215
0.375078
0.379387
0.381548
0.323579
0.327839
0.332741
0.338046
0.343539
0.349035
0.354372
0.359405
0.364066
0.368436
0.3723
0.374324
0.321518
0.325233
0.329562
0.334303
0.33926
0.34425
0.349107
0.353679
0.357866
0.361687
0.364989
0.366746
0.319167
0.322436
0.326279
0.330523
0.334991
0.339508
0.343906
0.348027
0.351747
0.355032
0.357771
0.359222
0.316648
0.319545
0.32297
0.326775
0.330799
0.334876
0.338842
0.342534
0.345814
0.348613
0.350845
0.351998
0.314056
0.316635
0.319698
0.323113
0.326737
0.33041
0.333975
0.337269
0.340148
0.342522
0.344322
0.345213
0.311458
0.313765
0.316511
0.319583
0.322846
0.326154
0.329352
0.332284
0.334806
0.336817
0.338261
0.338932
0.308906
0.310979
0.313449
0.316217
0.319159
0.322138
0.325007
0.327617
0.329825
0.331531
0.332688
0.333181
0.30644
0.308309
0.31054
0.313042
0.315701
0.318388
0.320965
0.323289
0.325227
0.32668
0.327607
0.327961
0.304086
0.305782
0.307806
0.310076
0.312487
0.314919
0.31724
0.319316
0.321022
0.322267
0.323013
0.32326
0.301867
0.303414
0.305261
0.307333
0.309531
0.311741
0.31384
0.315702
0.317214
0.318288
0.318892
0.319059
0.299798
0.301219
0.302917
0.304822
0.306839
0.30886