/*--------------------------------*- C++ -*----------------------------------*\
| =========                 |                                                 |
| \\      /  F ield         | OpenFOAM: The Open Source CFD Toolbox           |
|  \\    /   O peration     | Version:  v2012                                 |
|   \\  /    A nd           | Website:  www.openfoam.com                      |
|    \\/     M anipulation  |                                                 |
\*---------------------------------------------------------------------------*/
FoamFile
{
    version     2.0;
    format      ascii;
    class       surfaceScalarField;
    location    "673";
    object      phi;
}
// * * * * * * * * * * * * * * * * * * * * * * * * * * * * * * * * * * * * * //

dimensions      [0 3 -1 0 0 0 0];
oriented        oriented;


internalField   nonuniform List<scalar> 
11933
(
-0.000198729
7.38045e-08
0.000198655
-0.000198794
6.56466e-08
-0.000198855
6.05786e-08
-0.000198913
5.77501e-08
-0.000198969
5.64192e-08
-0.000199025
5.60549e-08
-0.000199082
5.64192e-08
-0.000199139
5.73128e-08
-0.000199198
5.8651e-08
-0.000199258
6.04242e-08
-0.000199321
6.26646e-08
-0.000199386
6.54337e-08
-0.000199455
6.88013e-08
-0.000199528
7.27814e-08
-0.000199605
7.72588e-08
-0.000199687
8.17988e-08
-0.000199772
8.55303e-08
-0.000199861
8.84495e-08
-0.000199947
8.5789e-08
5.34385e-08
-0.000199948
9.31171e-08
0.000199929
-0.000199961
7.78467e-08
-0.000199969
6.85249e-08
-0.000199974
6.32635e-08
-0.000199978
6.06049e-08
-0.000199982
5.95171e-08
-0.000199985
5.95657e-08
-0.000199988
6.03993e-08
-0.000199991
6.18452e-08
-0.000199995
6.38548e-08
-0.000199998
6.64414e-08
-0.000200003
6.96507e-08
-0.000200007
7.35191e-08
-0.000200013
7.79837e-08
-0.000200018
8.27095e-08
-0.000200023
8.68298e-08
-0.000200027
8.94452e-08
-0.000200027
8.88922e-08
-0.000200017
7.56665e-08
3.61796e-08
-0.000200292
9.3234e-08
0.000200292
-0.000200286
7.21262e-08
-0.000200277
5.95332e-08
-0.000200266
5.24527e-08
-0.000200254
4.873e-08
-0.000200242
4.70082e-08
-0.000200229
4.65642e-08
-0.000200215
4.69547e-08
-0.000200202
4.79717e-08
-0.000200187
4.95222e-08
-0.000200172
5.15817e-08
-0.000200157
5.41541e-08
-0.000200141
5.72316e-08
-0.000200123
6.07449e-08
-0.000200105
6.43439e-08
-0.000200085
6.67642e-08
-0.000200063
6.7613e-08
-0.000200039
6.45516e-08
-0.000200014
5.12266e-08
2.18153e-08
-0.000200445
8.01721e-08
0.000200458
-0.000200428
5.52505e-08
-0.00020041
4.0968e-08
-0.00020039
3.31859e-08
-0.000200371
2.90138e-08
-0.000200351
2.69156e-08
-0.00020033
2.60044e-08
-0.000200309
2.58238e-08
-0.000200287
2.61446e-08
-0.000200264
2.68524e-08
-0.000200241
2.78968e-08
-0.000200216
2.92537e-08
-0.00020019
3.08973e-08
-0.000200162
3.27565e-08
-0.000200132
3.45488e-08
-0.000200101
3.5644e-08
-0.000200069
3.56963e-08
-0.000200037
3.31885e-08
-0.000200012
2.53812e-08
1.02789e-08
-0.000200518
5.4751e-08
0.000200543
-0.000200492
2.92849e-08
-0.000200466
1.56979e-08
-0.000200442
8.9275e-09
-0.000200418
5.2571e-09
-0.000200395
3.23305e-09
-0.000200371
2.0422e-09
-0.000200346
1.31304e-09
-0.000200321
8.53352e-10
-0.000200295
5.57788e-10
-0.000200267
3.6549e-10
-0.000200238
2.39504e-10
-0.000200207
1.56698e-10
-0.000200175
1.02399e-10
-0.00020014
6.70758e-11
-0.000200104
4.36701e-11
-0.000200069
2.75421e-11
-0.000200036
1.63945e-11
-0.00020001
8.54654e-12
2.82439e-12
-0.000200534
1.45177e-08
0.000200575
-0.000200501
-4.5399e-09
-0.000200471
-1.40931e-08
-0.000200444
-1.75312e-08
-0.00020042
-1.95898e-08
-0.000200395
-2.09978e-08
-0.000200371
-2.22094e-08
-0.000200346
-2.33593e-08
-0.000200321
-2.45327e-08
-0.000200295
-2.57948e-08
-0.000200267
-2.72023e-08
-0.000200238
-2.8798e-08
-0.000200207
-3.05991e-08
-0.000200175
-3.25618e-08
-0.00020014
-3.44212e-08
-0.000200104
-3.55607e-08
-0.000200069
-3.56439e-08
-0.000200036
-3.31575e-08
-0.00020001
-2.53654e-08
-1.02738e-08
-0.000200492
-4.84949e-08
0.000200555
-0.000200453
-4.39359e-08
-0.000200422
-4.52568e-08
-0.000200397
-4.26744e-08
-0.000200374
-4.21624e-08
-0.000200353
-4.25378e-08
-0.000200331
-4.35457e-08
-0.00020031
-4.49318e-08
-0.000200288
-4.66238e-08
-0.000200265
-4.86283e-08
-0.000200241
-5.09911e-08
-0.000200216
-5.37654e-08
-0.00020019
-5.69771e-08
-0.000200162
-6.05793e-08
-0.000200132
-6.42352e-08
-0.000200101
-6.66926e-08
-0.000200069
-6.75682e-08
-0.000200037
-6.45253e-08
-0.000200012
-5.12147e-08
-2.18114e-08
-0.000200354
-1.40269e-07
0.000200446
-0.000200318
-8.01191e-08
-0.000200292
-7.11564e-08
-0.000200274
-6.06339e-08
-0.000200259
-5.74795e-08
-0.000200245
-5.68584e-08
-0.000200231
-5.75807e-08
-0.000200217
-5.89921e-08
-0.000200202
-6.08791e-08
-0.000200188
-6.32046e-08
-0.000200173
-6.60082e-08
-0.000200157
-6.93647e-08
-0.000200141
-7.33319e-08
-0.000200123
-7.78618e-08
-0.000200105
-8.26293e-08
-0.000200085
-8.67773e-08
-0.000200063
-8.94124e-08
-0.000200039
-8.88713e-08
-0.000200014
-7.56604e-08
-3.61778e-08
-0.000199995
-2.70782e-07
0.000200125
-0.000199982
-9.27951e-08
-0.00019998
-7.30395e-08
-0.000199981
-5.95085e-08
-0.000199983
-5.57837e-08
-0.000199985
-5.49744e-08
-0.000199987
-5.545e-08
-0.000199989
-5.65788e-08
-0.000199992
-5.81339e-08
-0.000199995
-6.00715e-08
-0.000199999
-6.24276e-08
-0.000200003
-6.52769e-08
-0.000200007
-6.86988e-08
-0.000200013
-7.27149e-08
-0.000200018
-7.72152e-08
-0.000200023
-8.17705e-08
-0.000200027
-8.55123e-08
-0.000200027
-8.84374e-08
-0.000200017
-8.57878e-08
-5.3438e-08
-0.000198692
0.000198422
-0.000198785
-0.000198858
-0.000198918
-0.000198974
-0.000199028
-0.000199084
-0.000199141
-0.000199199
-0.000199259
-0.000199321
-0.000199386
-0.000199455
-0.000199528
-0.000199605
-0.000199687
-0.000199772
-0.000199861
-0.000199947
-0.000195205
9.66483e-07
0.000194238
-0.000195979
7.74739e-07
-0.000196596
6.16701e-07
-0.000197084
4.87813e-07
-0.000197468
3.84287e-07
-0.000197771
3.024e-07
-0.000198009
2.38442e-07
-0.000198198
1.89004e-07
-0.000198349
1.51157e-07
-0.000198471
1.22261e-07
-0.000198572
1.00144e-07
8.3355e-08
-0.000197334
1.7958e-06
0.000196504
-0.000197989
1.42971e-06
-0.000198498
1.12647e-06
-0.00019889
8.79431e-07
-0.000199188
6.81857e-07
-0.000199412
5.2634e-07
-0.000199579
4.05392e-07
-0.000199702
3.12134e-07
-0.000199791
2.40824e-07
-0.000199855
1.86417e-07
-0.0001999
1.44499e-07
1.12652e-07
-0.000198037
2.57538e-06
0.000197257
-0.000198645
2.03774e-06
-0.000199111
1.59245e-06
-0.000199462
1.23072e-06
-0.000199723
9.42681e-07
-0.000199914
7.1722e-07
-0.000200051
5.42844e-07
-0.000200148
4.08897e-07
-0.000200214
3.06795e-07
-0.000200257
2.29236e-07
-0.000200282
1.69181e-07
1.22838e-07
-0.000198474
3.31708e-06
0.000197732
-0.000199044
2.60828e-06
-0.000199474
2.02217e-06
-0.000199791
1.54773e-06
-0.000200021
1.17211e-06
-0.000200184
8.80278e-07
-0.000200297
6.56284e-07
-0.000200373
4.85067e-07
-0.000200422
3.55027e-07
-0.000200449
2.57076e-07
-0.000200461
1.80802e-07
1.20082e-07
-0.000198777
4.03019e-06
0.000198064
-0.000199319
3.14994e-06
-0.00019972
2.42324e-06
-0.000200009
1.83682e-06
-0.000200212
1.37554e-06
-0.000200352
1.02028e-06
-0.000200446
7.50173e-07
-0.000200506
5.44731e-07
-0.000200539
3.8872e-07
-0.000200555
2.72658e-07
-0.000200556
1.82272e-07
1.06603e-07
-0.000198854
4.74148e-06
0.000198143
-0.000199395
3.69062e-06
-0.000199794
2.82283e-06
-0.00020008
2.1222e-06
-0.000200278
1.57426e-06
-0.000200414
1.15585e-06
-0.000200504
8.4052e-07
-0.000200561
6.00985e-07
-0.000200589
4.16587e-07
-0.000200598
2.81885e-07
-0.000200596
1.80806e-07
8.49888e-08
-0.000198372
5.52361e-06
0.00019759
-0.00019898
4.29821e-06
-0.000199446
3.28888e-06
-0.000199794
2.4706e-06
-0.000200052
1.83213e-06
-0.000200242
1.34566e-06
-0.00020038
9.78663e-07
-0.000200477
6.97824e-07
-0.000200532
4.71626e-07
-0.000200556
3.06213e-07
-0.000200578
2.0237e-07
6.23635e-08
-0.0001963
6.53486e-06
0.000195289
-0.000197161
5.1594e-06
-0.000197882
4.00905e-06
-0.000198469
3.05815e-06
-0.000198961
2.3238e-06
-0.00019938
1.76468e-06
-0.000199729
1.32781e-06
-0.000200015
9.83554e-07
-0.000200225
6.81499e-07
-0.000200352
4.33632e-07
-0.000200454
3.0422e-07
5.46995e-08
-0.000189554
7.96532e-06
0.000188123
-0.000190949
6.55495e-06
-0.000192292
5.35172e-06
-0.000193566
4.33269e-06
-0.000194803
3.56081e-06
-0.000195995
2.95601e-06
-0.000197084
2.41698e-06
-0.00019805
1.94998e-06
-0.000198863
1.49436e-06
-0.000199428
9.98435e-07
-0.000199766
6.42574e-07
4.13522e-07
-0.000168859
0.000167896
8.92839e-06
-0.000170161
7.85622e-06
-0.000171816
7.0072e-06
-0.000173832
6.34816e-06
-0.000176212
5.94123e-06
-0.000178935
5.67891e-06
-0.000181947
5.42932e-06
-0.000185177
5.17986e-06
-0.00018851
4.82752e-06
-0.00019152
4.00827e-06
-0.000193692
2.81486e-06
5.14268e-06
7.17866e-06
-7.17867e-06
8.70188e-06
-1.52322e-06
5.6649e-06
3.03698e-06
-6.31968e-07
6.29686e-06
-1.1305e-05
1.0673e-05
-2.65917e-05
1.52867e-05
-4.37903e-05
1.71986e-05
-6.02969e-05
1.65066e-05
-7.5333e-05
1.50361e-05
-8.90584e-05
1.37254e-05
-0.000101612
1.25535e-05
-0.000113098
1.14856e-05
-0.000123595
1.04975e-05
-0.000133166
9.57053e-06
-0.000141858
8.69215e-06
-0.000149713
7.85504e-06
-0.000156769
7.05608e-06
-0.000163064
6.29527e-06
-0.000168639
5.5746e-06
-0.000173536
4.89721e-06
-0.000177803
4.26664e-06
-0.000181489
3.68632e-06
-0.000184646
3.15731e-06
-0.000187325
2.67861e-06
-0.000189575
2.24976e-06
-0.000191445
1.87026e-06
-0.000192984
1.53899e-06
1.25438e-06
4.03942e-06
-1.12181e-05
1.73792e-06
7.78272e-07
-5.23492e-06
1.00098e-05
-1.73812e-05
1.84431e-05
-3.28598e-05
2.61516e-05
-4.83572e-05
3.07841e-05
-6.24724e-05
3.13137e-05
-7.56553e-05
2.96896e-05
-8.83042e-05
2.76849e-05
-0.000100224
2.5645e-05
-0.000111349
2.36786e-05
-0.000121679
2.18161e-05
-0.000131227
2.00451e-05
-0.000140006
1.83494e-05
-0.00014803
1.67164e-05
-0.000155315
1.51404e-05
-0.000161881
1.36215e-05
-0.00016775
1.21644e-05
-0.000172952
1.07767e-05
-0.000177522
9.46683e-06
-0.000181498
8.24286e-06
-0.000184923
7.11089e-06
-0.00018784
6.07508e-06
-0.000190299
5.13766e-06
-0.000192348
4.29893e-06
-0.000194036
3.55747e-06
-0.000195407
2.91035e-06
2.35172e-06
-1.26249e-06
-9.95561e-06
-7.78266e-06
7.29844e-06
-1.84774e-05
2.07046e-05
-3.22061e-05
3.21718e-05
-4.62874e-05
4.02329e-05
-5.90849e-05
4.35816e-05
-7.09841e-05
4.32129e-05
-8.26155e-05
4.13209e-05
-9.39449e-05
3.90143e-05
-0.000104826
3.65266e-05
-0.000115172
3.40242e-05
-0.000124918
3.15618e-05
-0.000134023
2.91506e-05
-0.000142463
2.6789e-05
-0.000150222
2.44752e-05
-0.000157294
2.22127e-05
-0.000163683
2.0011e-05
-0.000169403
1.78836e-05
-0.000174473
1.5847e-05
-0.000178924
1.39175e-05
-0.000182791
1.21099e-05
-0.000186115
1.04355e-05
-0.000188943
8.90236e-06
-0.00019132
7.51463e-06
-0.000193294
6.27301e-06
-0.000194912
5.1754e-06
-0.000196218
4.21713e-06
3.39064e-06
-6.58014e-06
-3.37548e-06
-1.63494e-05
1.70677e-05
-2.87045e-05
3.30596e-05
-4.18535e-05
4.53208e-05
-5.40267e-05
5.24061e-05
-6.51113e-05
5.46662e-05
-7.58816e-05
5.39832e-05
-8.66225e-05
5.20619e-05
-9.71905e-05
4.95824e-05
-0.000107467
4.68031e-05
-0.000117347
4.39044e-05
-0.000126744
4.09583e-05
-0.000135591
3.79974e-05
-0.000143839
3.50374e-05
-0.000151455
3.20914e-05
-0.000158419
2.91763e-05
-0.000164722
2.63141e-05
-0.000170369
2.35309e-05
-0.000175376
2.08543e-05
-0.00017977
1.83108e-05
-0.000183583
1.59233e-05
-0.000186857
1.37095e-05
-0.000189636
1.16813e-05
-0.000191967
9.84516e-06
-0.000193896
8.20218e-06
-0.00019547
6.7496e-06
-0.000196734
5.48143e-06
4.38867e-06
-1.05505e-05
7.17505e-06
-2.25083e-05
2.90255e-05
-3.52957e-05
4.58469e-05
-4.74714e-05
5.74966e-05
-5.84239e-05
6.33586e-05
-6.87125e-05
6.49548e-05
-7.8932e-05
6.42026e-05
-8.91563e-05
6.22862e-05
-9.92707e-05
5.96967e-05
-0.000109174
5.6706e-05
-0.000118758
5.34889e-05
-0.000127931
5.0131e-05
-0.000136614
4.66806e-05
-0.000144745
4.31689e-05
-0.000152278
3.96241e-05
-0.00015918
3.60781e-05
-0.000165434
3.25684e-05
-0.000171039
2.9136e-05
-0.000176007
2.58224e-05
-0.000180363
2.26662e-05
-0.000184139
1.96997e-05
-0.000187377
1.69474e-05
-0.000190122
1.44258e-05
-0.000192419
1.21428e-05
-0.000194317
1.01e-05
-0.000195861
8.29348e-06
-0.000197095
6.71595e-06
5.357e-06
-1.31416e-05
2.03166e-05
-2.63733e-05
4.22573e-05
-3.90482e-05
5.85218e-05
-5.04693e-05
6.89177e-05
-6.0834e-05
7.37234e-05
-7.08142e-05
7.4935e-05
-8.0768e-05
7.41564e-05
-9.07036e-05
7.22218e-05
-0.000100548
6.95409e-05
-0.000110216
6.63741e-05
-0.00011961
6.28829e-05
-0.000128637
5.91582e-05
-0.000137214
5.52571e-05
-0.000145268
5.12227e-05
-0.000152741
4.70976e-05
-0.000159593
4.29304e-05
-0.000165801
3.87764e-05
-0.00017136
3.46948e-05
-0.000176281
3.07437e-05
-0.000180591
2.69755e-05
-0.000184324
2.34334e-05
-0.000187526
2.01487e-05
-0.000190241
1.71413e-05
-0.000192519
1.44203e-05
-0.000194405
1.19858e-05
-0.000195943
9.83181e-06
-0.000197176
7.94865e-06
6.3242e-06
-1.46621e-05
3.49787e-05
-2.84186e-05
5.60138e-05
-4.08219e-05
7.09252e-05
-5.18226e-05
7.99184e-05
-6.19832e-05
8.3884e-05
-7.18711e-05
8.48228e-05
-8.16993e-05
8.39847e-05
-9.14755e-05
8.1998e-05
-0.000101157
7.92221e-05
-0.000110673
7.58907e-05
-0.000119938
7.21474e-05
-0.000128858
6.80788e-05
-0.000137346
6.37445e-05
-0.000145319
5.91961e-05
-0.000152712
5.44906e-05
-0.000159477
4.96957e-05
-0.000165589
4.48883e-05
-0.000171044
4.01497e-05
-0.000175859
3.55585e-05
-0.000180067
3.11832e-05
-0.000183711
2.70782e-05
-0.000186844
2.32812e-05
-0.000189516
1.98137e-05
-0.000191779
1.66831e-05
-0.000193679
1.38853e-05
-0.000195256
1.14093e-05
-0.000196549
9.24143e-06
7.36556e-06
-1.55101e-05
5.04888e-05
-2.92072e-05
6.97108e-05
-4.13213e-05
8.30393e-05
-5.21318e-05
9.07289e-05
-6.22608e-05
9.4013e-05
-7.21337e-05
9.46957e-05
-8.18981e-05
9.37491e-05
-9.15775e-05
9.16774e-05
-0.000101147
8.87919e-05
-0.000110549
8.52921e-05
-0.0001197
8.12981e-05
-0.000128505
7.6884e-05
-0.000136866
7.21062e-05
-0.000144693
6.70231e-05
-0.00015191
6.17076e-05
-0.000158465
5.62507e-05
-0.000164335
5.07576e-05
-0.000169523
4.53383e-05
-0.000174062
4.00969e-05
-0.000178001
3.5122e-05
-0.000181403
3.04803e-05
-0.000184336
2.62149e-05
-0.000186869
2.2346e-05
-0.00018906
1.88749e-05
-0.000190964
1.57885e-05
-0.000192619
1.30642e-05
-0.000194053
1.0676e-05
8.60131e-06
-1.5671e-05
6.61598e-05
-2.91453e-05
8.31851e-05
-4.10202e-05
9.49142e-05
-5.1746e-05
0.000101455
-6.18857e-05
0.000104153
-7.17519e-05
0.000104562
-8.14656e-05
0.000103463
-9.10627e-05
0.000101274
-0.000100527
9.82566e-05
-0.000109803
9.45679e-05
-0.000118803
9.02983e-05
-0.000127422
8.55023e-05
-0.000135544
8.02283e-05
-0.000143061
7.45407e-05
-0.000149886
6.85324e-05
-0.000155962
6.23262e-05
-0.00016127
5.60655e-05
-0.000165831
4.98999e-05
-0.000169702
4.39679e-05
-0.000172964
3.83836e-05
-0.000175712
3.32289e-05
-0.000178049
2.85518e-05
-0.000180073
2.43694e-05
-0.000181872
2.06742e-05
-0.000183524
1.74403e-05
-0.00018509
1.463e-05
-0.000186614
1.22006e-05
1.01102e-05
-1.53058e-05
8.14656e-05
-2.8518e-05
9.63973e-05
-4.02044e-05
0.000106601
-5.08659e-05
0.000112116
-6.09921e-05
0.000114279
-7.08223e-05
0.000114392
-8.04633e-05
0.000113104
-8.99535e-05
0.000110765
-9.92761e-05
0.000107579
-0.000108365
0.000103657
-0.000117115
9.90485e-05
-0.000125394
9.37814e-05
-0.000133057
8.78915e-05
-0.000139968
8.1451e-05
-0.000146016
7.45811e-05
-0.00015114
6.74498e-05
-0.00015533
6.02553e-05
-0.000158631
5.32008e-05
-0.000161131
4.64688e-05
-0.000162951
4.02031e-05
-0.000164222
3.44998e-05
-0.000165078
2.94082e-05
-0.000165647
2.49384e-05
-0.000166045
2.10717e-05
-0.000166375
1.77709e-05
-0.000166735
1.49896e-05
-0.000167212
1.26781e-05
1.07941e-05
-0.000129796
4.78133e-06
0.000133943
-0.000125115
3.17575e-06
-0.000119788
1.68012e-06
-0.000113719
2.79313e-07
-0.000106708
-1.0697e-06
-9.84405e-05
-2.589e-06
-8.8723e-05
-4.28816e-06
-7.74497e-05
-6.0934e-06
-6.4869e-05
-7.75322e-06
-5.14738e-05
-9.38693e-06
-3.39455e-05
-1.47134e-05
-2.88028e-05
-7.94618e-05
-2.31524e-06
8.65583e-05
-7.1924e-05
-4.362e-06
-6.39199e-05
-6.32399e-06
-5.55271e-05
-8.1135e-06
-4.69017e-05
-9.69509e-06
-3.81389e-05
-1.13518e-05
-2.92742e-05
-1.31529e-05
-2.05108e-05
-1.48568e-05
-1.20658e-05
-1.61982e-05
-3.79379e-06
-1.76589e-05
2.53794e-06
-2.10452e-05
-2.62649e-05
-4.70539e-05
-8.41284e-06
5.31515e-05
-4.11474e-05
-1.02685e-05
-3.54913e-05
-1.19801e-05
-3.00431e-05
-1.35617e-05
-2.47282e-05
-1.501e-05
-1.96101e-05
-1.64699e-05
-1.4848e-05
-1.79149e-05
-1.04833e-05
-1.92215e-05
-6.29582e-06
-2.03857e-05
-2.18097e-06
-2.17738e-05
6.6261e-07
-2.38888e-05
-2.56023e-05
-3.35061e-05
-1.20304e-05
3.71237e-05
-3.00423e-05
-1.37322e-05
-2.66856e-05
-1.53368e-05
-2.33752e-05
-1.68722e-05
-2.00584e-05
-1.83268e-05
-1.67912e-05
-1.97371e-05
-1.36003e-05
-2.11059e-05
-1.04116e-05
-2.24102e-05
-7.12295e-06
-2.36744e-05
-3.85463e-06
-2.50421e-05
-1.18961e-06
-2.65538e-05
-2.67919e-05
-2.92429e-05
-1.43386e-05
3.1551e-05
-2.68655e-05
-1.61096e-05
-2.44043e-05
-1.77979e-05
-2.18496e-05
-1.94269e-05
-1.9181e-05
-2.09954e-05
-1.64093e-05
-2.25088e-05
-1.35536e-05
-2.39616e-05
-1.0613e-05
-2.53507e-05
-7.58866e-06
-2.66987e-05
-4.59598e-06
-2.80348e-05
-1.95506e-06
-2.91947e-05
-2.8747e-05
-2.74529e-05
-1.61654e-05
2.92797e-05
-2.54706e-05
-1.80919e-05
-2.33274e-05
-1.99412e-05
-2.10337e-05
-2.17206e-05
-1.85952e-05
-2.34339e-05
-1.60235e-05
-2.50805e-05
-1.3337e-05
-2.6648e-05
-1.05581e-05
-2.81297e-05
-7.72944e-06
-2.95274e-05
-4.94362e-06
-3.08206e-05
-2.34634e-06
-3.1792e-05
-3.10933e-05
-2.61621e-05
-1.77925e-05
2.77892e-05
-2.4353e-05
-1.9901e-05
-2.2365e-05
-2.19292e-05
-2.02102e-05
-2.38754e-05
-1.79053e-05
-2.57388e-05
-1.54719e-05
-2.75139e-05
-1.29326e-05
-2.91873e-05
-1.03154e-05
-3.07468e-05
-7.66335e-06
-3.21794e-05
-5.03852e-06
-3.34454e-05
-2.49761e-06
-3.43329e-05
-3.35909e-05
-2.49398e-05
-1.93137e-05
2.64611e-05
-2.3231e-05
-2.16098e-05
-2.13449e-05
-2.38153e-05
-1.9297e-05
-2.59233e-05
-1.71083e-05
-2.79275e-05
-1.48033e-05
-2.98189e-05
-1.24066e-05
-3.15841e-05
-9.94525e-06
-3.32081e-05
-7.45337e-06
-3.46713e-05
-4.97034e-06
-3.59285e-05
-2.51345e-06
-3.67898e-05
-3.61043e-05
-2.36973e-05
-2.07613e-05
2.51449e-05
-2.20662e-05
-2.32409e-05
-2.02664e-05
-2.56151e-05
-1.83162e-05
-2.78734e-05
-1.62383e-05
-3.00054e-05
-1.40571e-05
-3.20001e-05
-1.1797e-05
-3.38442e-05
-9.48263e-06
-3.55225e-05
-7.13998e-06
-3.7014e-05
-4.79403e-06
-3.82744e-05
-2.44618e-06
-3.91376e-05
-3.85505e-05
-2.24264e-05
-2.21465e-05
2.38116e-05
-2.08657e-05
-2.48015e-05
-1.91466e-05
-2.73342e-05
-1.72894e-05
-2.97306e-05
-1.53172e-05
-3.19776e-05
-1.32545e-05
-3.40629e-05
-1.11247e-05
-3.59739e-05
-8.95032e-06
-3.76969e-05
-6.75171e-06
-3.92126e-05
-4.54524e-06
-4.04809e-05
-2.32703e-06
-4.13558e-05
-4.08776e-05
-2.11312e-05
-2.34744e-05
2.24591e-05
-1.96373e-05
-2.62954e-05
-1.79955e-05
-2.8976e-05
-1.62272e-05
-3.14989e-05
-1.43562e-05
-3.38486e-05
-1.24069e-05
-3.60122e-05
-1.04026e-05
-3.79782e-05
-8.36418e-06
-3.97354e-05
-6.30846e-06
-4.12683e-05
-4.24679e-06
-4.25426e-05
-2.17438e-06
-4.34283e-05
-4.30519e-05
-1.98137e-05
-2.47482e-05
2.10875e-05
-1.83837e-05
-2.77254e-05
-1.68163e-05
-3.05434e-05
-1.51336e-05
-3.31815e-05
-1.33601e-05
-3.56222e-05
-1.15207e-05
-3.78517e-05
-9.63888e-06
-3.986e-05
-7.73485e-06
-4.16394e-05
-5.82346e-06
-4.31797e-05
-3.91305e-06
-4.4453e-05
-1.99924e-06
-4.53421e-05
-4.50512e-05
-1.84722e-05
-2.59707e-05
1.96947e-05
-1.71036e-05
-2.90941e-05
-1.56081e-05
-3.20389e-05
-1.40084e-05
-3.47812e-05
-1.23299e-05
-3.73007e-05
-1.05984e-05
-3.95832e-05
-8.83795e-06
-4.16204e-05
-7.06883e-06
-4.34085e-05
-5.30492e-06
-4.49436e-05
-3.55266e-06
-4.62052e-05
-1.80811e-06
-4.70866e-05
-4.68593e-05
-1.7103e-05
-2.71446e-05
1.82769e-05
-1.57933e-05
-3.04037e-05
-1.43675e-05
-3.34647e-05
-1.28491e-05
-3.62996e-05
-1.12642e-05
-3.88856e-05
-9.63988e-06
-4.12075e-05
-8.00135e-06
-4.32589e-05
-6.36925e-06
-4.50406e-05
-4.75723e-06
-4.65556e-05
-3.17042e-06
-4.77921e-05
-1.60461e-06
-4.86524e-05
-4.84639e-05
-1.57006e-05
-2.82731e-05
1.68291e-05
-1.44474e-05
-3.16569e-05
-1.30895e-05
-3.48226e-05
-1.16511e-05
-3.7738e-05
-1.01595e-05
-4.03772e-05
-8.64306e-06
-4.2724e-05
-7.12824e-06
-4.47737e-05
-5.63663e-06
-4.65322e-05
-4.18198e-06
-4.80103e-05
-2.76838e-06
-4.92057e-05
-1.3905e-06
-5.00303e-05
-4.98544e-05
-1.42591e-05
-2.93594e-05
1.53455e-05
-1.30599e-05
-3.28562e-05
-1.17682e-05
-3.61143e-05
-1.04091e-05
-3.90971e-05
-9.01115e-06
-4.17752e-05
-7.60407e-06
-4.41311e-05
-6.21594e-06
-4.61618e-05
-4.86944e-06
-4.78787e-05
-3.57865e-06
-4.93011e-05
-2.34674e-06
-5.04376e-05
-1.16626e-06
-5.12108e-05
-5.10206e-05
-1.2772e-05
-3.04075e-05
1.38201e-05
-1.16239e-05
-3.40043e-05
-1.03968e-05
-3.73414e-05
-9.11661e-06
-4.03773e-05
-7.81314e-06
-4.30787e-05
-6.51782e-06
-4.54264e-05
-5.26032e-06
-4.74193e-05
-4.06457e-06
-4.90745e-05
-2.94513e-06
-5.04205e-05
-1.90442e-06
-5.14783e-05
-9.31663e-07
-5.21835e-05
-5.19523e-05
-1.12325e-05
-3.14217e-05
1.22467e-05
-1.01324e-05
-3.51044e-05
-8.96803e-06
-3.85057e-05
-7.76647e-06
-4.15788e-05
-6.55884e-06
-4.42863e-05
-5.37825e-06
-4.6607e-05
-4.25611e-06
-4.85415e-05
-3.21766e-06
-5.01129e-05
-2.278e-06
-5.13602e-05
-1.43917e-06
-5.23171e-05
-6.87791e-07
-5.29349e-05
-5.26401e-05
-9.63373e-06
-3.2407e-05
1.06191e-05
-8.5779e-06
-3.61603e-05
-7.47434e-06
-3.96093e-05
-6.35114e-06
-4.2702e-05
-5.24093e-06
-4.53965e-05
-4.17857e-06
-4.76694e-05
-3.1972e-06
-4.95228e-05
-2.32346e-06
-5.09867e-05
-1.57291e-06
-5.21107e-05
-9.46719e-07
-5.29433e-05
-4.27699e-07
-5.34539e-05
-5.30678e-05
-7.96853e-06
-3.33692e-05
8.93066e-06
-6.9529e-06
-3.71759e-05
-5.9078e-06
-4.06544e-05
-4.86266e-06
-4.37472e-05
-3.85165e-06
-4.64075e-05
-2.91143e-06
-4.86096e-05
-2.07689e-06
-5.03574e-05
-1.37605e-06
-5.16875e-05
-8.25042e-07
-5.26617e-05
-4.24432e-07
-5.33439e-05
-1.55175e-07
-5.37232e-05
-5.3223e-05
-6.22959e-06
-3.43144e-05
7.17483e-06
-5.24954e-06
-3.81559e-05
-4.26028e-06
-4.16436e-05
-3.29281e-06
-4.47146e-05
-2.38295e-06
-4.73174e-05
-1.56915e-06
-4.94234e-05
-8.88068e-07
-5.10385e-05
-3.69081e-07
-5.22065e-05
-2.86126e-08
-5.30022e-05
1.33782e-07
-5.35063e-05
1.36165e-07
-5.37256e-05
-5.30868e-05
-4.40938e-06
-3.52497e-05
5.34465e-06
-3.45979e-06
-3.91055e-05
-2.52345e-06
-4.258e-05
-1.6332e-06
-4.56049e-05
-8.26621e-07
-4.8124e-05
-1.43842e-07
-5.01062e-05
3.76505e-07
-5.15588e-05
7.03831e-07
-5.25338e-05
8.21057e-07
-5.31194e-05
7.28426e-07
-5.34137e-05
4.41669e-07
-5.34388e-05
-5.26451e-05
-2.50009e-06
-3.61824e-05
3.43287e-06
-1.57542e-06
-4.00302e-05
-6.88887e-07
-4.34665e-05
1.24545e-07
-4.64183e-05
8.25492e-07
-4.88249e-05
1.37219e-06
-5.06529e-05
1.72375e-06
-5.19104e-05
1.84878e-06
-5.26589e-05
1.72906e-06
-5.29997e-05
1.36377e-06
-5.30484e-05
7.69912e-07
-5.28449e-05
-5.18752e-05
-4.93687e-07
-3.71207e-05
1.43192e-06
4.11871e-07
-4.09358e-05
1.25176e-06
-4.43064e-05
1.98851e-06
-4.71551e-05
2.58084e-06
-4.94172e-05
2.98577e-06
-5.10578e-05
3.1607e-06
-5.20853e-05
3.07237e-06
-5.25705e-05
2.70292e-06
-5.26302e-05
2.05027e-06
-5.23957e-05
1.13426e-06
-5.19289e-05
-5.0741e-05
1.6179e-06
-3.80726e-05
-6.66008e-07
2.51024e-06
-4.18281e-05
3.30651e-06
-4.51027e-05
3.96652e-06
-4.78151e-05
4.44688e-06
-4.98976e-05
4.70288e-06
-5.13138e-05
4.69297e-06
-5.20754e-05
4.37871e-06
-5.22563e-05
3.74677e-06
-5.19983e-05
2.78948e-06
-5.14384e-05
1.52409e-06
-5.06635e-05
-4.92169e-05
3.84266e-06
-3.90464e-05
-2.86886e-06
4.72767e-06
-4.27131e-05
5.48323e-06
-4.58582e-05
6.06599e-06
-4.83978e-05
6.42991e-06
-5.02615e-05
6.52498e-06
-5.14089e-05
6.31374e-06
-5.18641e-05
5.7702e-06
-5.17127e-05
4.86531e-06
-5.10934e-05
3.58525e-06
-5.01584e-05
1.94506e-06
-4.90233e-05
-4.72718e-05
6.1885e-06
-4.00504e-05
-5.18449e-06
7.07194e-06
-4.35965e-05
7.78926e-06
-4.65756e-05
8.29293e-06
-4.89015e-05
8.53112e-06
-5.04997e-05
8.45802e-06
-5.13358e-05
8.04322e-06
-5.14493e-05
7.25884e-06
-5.09284e-05
6.06448e-06
-4.9899e-05
4.4416e-06
-4.85355e-05
2.40015e-06
-4.69819e-05
-4.48717e-05
8.6627e-06
-4.10926e-05
-7.62053e-06
9.54971e-06
-4.44836e-05
1.02308e-05
-4.72566e-05
1.06546e-05
-4.93254e-05
1.07634e-05
-5.06085e-05
1.05143e-05
-5.10867e-05
9.88526e-06
-5.08203e-05
8.8406e-06
-4.98837e-05
7.34294e-06
-4.84014e-05
5.3586e-06
-4.65512e-05
2.88978e-06
-4.45131e-05
-4.19819e-05
1.12713e-05
-4.21801e-05
-1.01837e-05
1.2166e-05
-4.53783e-05
1.28105e-05
-4.79011e-05
1.31458e-05
-4.96607e-05
1.31144e-05
-5.05771e-05
1.26804e-05
-5.06526e-05
1.18208e-05
-4.99607e-05
1.05074e-05
-4.85703e-05
8.69533e-06
-4.65894e-05
6.33152e-06
-4.41873e-05
3.41043e-06
-4.1592e-05
-3.85715e-05
1.40179e-05
-4.3319e-05
-1.2879e-05
1.49233e-05
-4.62837e-05
1.55321e-05
-4.85099e-05
1.57705e-05
-4.98991e-05
1.55802e-05
-5.03867e-05
1.49494e-05
-5.00218e-05
1.38461e-05
-4.88574e-05
1.22501e-05
-4.69743e-05
1.01106e-05
-4.44499e-05
7.34766e-06
-4.14244e-05
3.95297e-06
-3.81973e-05
-3.46185e-05
1.69032e-05
-4.45129e-05
-1.57093e-05
1.78169e-05
-4.71974e-05
1.83788e-05
-4.90717e-05
1.85149e-05
-5.00352e-05
1.81706e-05
-5.00424e-05
1.73225e-05
-4.91737e-05
1.59523e-05
-4.74872e-05
1.4053e-05
-4.5075e-05
1.15639e-05
-4.19607e-05
8.37855e-06
-3.82391e-05
4.49722e-06
-3.4316e-05
-3.01213e-05
1.99262e-05
-4.57647e-05
-1.86744e-05
2.08469e-05
-4.81181e-05
2.13484e-05
-4.95732e-05
2.13675e-05
-5.00543e-05
2.08675e-05
-4.95424e-05
1.9784e-05
-4.80902e-05
1.81271e-05
-4.58303e-05
1.58947e-05
-4.28426e-05
1.30026e-05
-3.90687e-05
9.37219e-06
-3.46086e-05
5.01165e-06
-2.99554e-05
-2.51096e-05
2.30789e-05
-4.70754e-05
-2.17682e-05
2.40085e-05
-4.90477e-05
2.44614e-05
-5.00261e-05
2.43591e-05
-4.99521e-05
2.36596e-05
-4.88429e-05
2.23224e-05
-4.6753e-05
2.0368e-05
-4.38759e-05
1.7753e-05
-4.02276e-05
1.43724e-05
-3.56881e-05
1.02631e-05
-3.04993e-05
5.46928e-06
-2.51616e-05
-1.96403e-05
2.63375e-05
-4.84377e-05
-2.49752e-05
2.72644e-05
-4.99746e-05
2.76599e-05
-5.04215e-05
2.74296e-05
-4.97218e-05
2.65057e-05
-4.7919e-05
2.49134e-05
-4.51607e-05
2.26503e-05
-4.16129e-05
1.95924e-05
-3.71697e-05
1.56765e-05
-3.17722e-05
1.10376e-05
-2.58604e-05
5.84624e-06
-1.99703e-05
-1.37941e-05
2.9668e-05
-4.98349e-05
-2.82708e-05
3.05653e-05
-5.08719e-05
3.08602e-05
-5.07164e-05
3.04691e-05
-4.93307e-05
2.9328e-05
-4.67779e-05
2.74738e-05
-4.33065e-05
2.48434e-05
-3.89824e-05
2.13072e-05
-3.36334e-05
1.68739e-05
-2.73389e-05
1.17064e-05
-2.06929e-05
6.07544e-06
-1.43394e-05
-7.71863e-06
3.30261e-05
-5.12416e-05
-3.16194e-05
3.38639e-05
-5.17097e-05
3.4027e-05
-5.08795e-05
3.34205e-05
-4.87242e-05
3.20277e-05
-4.53851e-05
2.98648e-05
-4.11436e-05
2.68094e-05
-3.5927e-05
2.27912e-05
-2.96152e-05
1.78766e-05
-2.24243e-05
1.22434e-05
-1.50597e-05
6.15258e-06
-8.24852e-06
-1.56605e-06
3.63423e-05
-5.26161e-05
-3.49677e-05
3.70676e-05
-5.2435e-05
3.70462e-05
-5.08581e-05
3.61779e-05
-4.7856e-05
3.44836e-05
-4.36908e-05
3.19352e-05
-3.85952e-05
2.84266e-05
-3.24184e-05
2.39572e-05
-2.51458e-05
1.86358e-05
-1.71029e-05
1.26732e-05
-9.09715e-06
6.32699e-06
-1.9023e-06
4.76094e-06
3.95248e-05
-5.38976e-05
-3.82434e-05
4.00705e-05
-5.29807e-05
3.97639e-05
-5.05515e-05
3.85653e-05
-4.66574e-05
3.6508e-05
-4.16335e-05
3.35276e-05
-3.56148e-05
2.95702e-05
-2.8461e-05
2.47003e-05
-2.02759e-05
1.90755e-05
-1.14781e-05
1.29356e-05
-2.95719e-06
6.55639e-06
4.47688e-06
1.13173e-05
4.2443e-05
-5.49917e-05
-4.13488e-05
4.27023e-05
-5.324e-05
4.20108e-05
-4.986e-05
4.03931e-05
-4.50397e-05
3.78923e-05
-3.91327e-05
3.44517e-05
-3.21741e-05
3.00809e-05
-2.40903e-05
2.48985e-05
-1.50935e-05
1.91044e-05
-5.68398e-06
1.29502e-05
3.19705e-06
6.66347e-06
1.07636e-05
1.79808e-05
4.49367e-05
-5.57795e-05
-4.4149e-05
4.47519e-05
-5.30552e-05
4.35649e-05
-4.8673e-05
4.14441e-05
-4.2919e-05
3.84396e-05
-3.61283e-05
3.45365e-05
-2.82709e-05
2.98164e-05
-1.93702e-05
2.44448e-05
-9.72192e-06
1.86391e-05
1.21734e-07
1.26555e-05
9.18067e-06
6.61127e-06
1.68078e-05
2.45921e-05
4.67802e-05
-5.6089e-05
-4.64708e-05
4.59899e-05
-5.22649e-05
4.41785e-05
-4.68615e-05
4.14779e-05
-4.02184e-05
3.79427e-05
-3.2593e-05
3.36217e-05
-2.395e-05
2.86677e-05
-1.44162e-05
2.32714e-05
-4.32561e-06
1.764e-05
5.75313e-06
1.19823e-05
1.48383e-05
6.26971e-06
2.25204e-05
3.08618e-05
4.7684e-05
-5.56847e-05
-4.80883e-05
4.61535e-05
-5.07343e-05
4.36156e-05
-4.43237e-05
4.02808e-05
-3.68837e-05
3.62304e-05
-2.85426e-05
3.16016e-05
-1.93211e-05
2.6596e-05
-9.41067e-06
2.13877e-05
8.82678e-07
1.61474e-05
1.09935e-05
1.09875e-05
1.99982e-05
5.7155e-06
2.77924e-05
3.65773e-05
4.74638e-05
-5.44197e-05
-4.87289e-05
4.50246e-05
-4.82951e-05
4.16924e-05
-4.09914e-05
3.77078e-05
-3.28991e-05
3.3239e-05
-2.40737e-05
2.85098e-05
-1.4592e-05
2.37022e-05
-4.60305e-06
1.89237e-05
5.66115e-06
1.42879e-05
1.56293e-05
9.78312e-06
2.4503e-05
5.07886e-06
3.24967e-05
4.16561e-05
4.58383e-05
-5.20373e-05
-4.82207e-05
4.23783e-05
-4.4835e-05
3.82622e-05
-3.68754e-05
3.37466e-05
-2.83835e-05
2.91143e-05
-1.94414e-05
2.45913e-05
-1.0069e-05
2.02562e-05
-2.67977e-07
1.6133e-05
9.78438e-06
1.22469e-05
1.95154e-05
8.43753e-06
2.83124e-05
4.37676e-06
3.65575e-05
4.60329e-05
4.25024e-05
-4.83937e-05
-4.61459e-05
3.81118e-05
-4.04445e-05
3.33742e-05
-3.21377e-05
2.86679e-05
-2.36772e-05
2.42833e-05
-1.50569e-05
2.02846e-05
-6.07023e-06
1.66181e-05
3.39854e-06
1.32531e-05
1.31494e-05
1.01238e-05
2.26447e-05
6.9887e-06
3.14474e-05
3.61487e-06
3.99313e-05
4.96478e-05
3.7481e-05
-4.36705e-05
-4.22041e-05
3.24031e-05
-3.53666e-05
2.75103e-05
-2.72449e-05
2.31532e-05
-1.93201e-05
1.93631e-05
-1.12667e-05
1.60345e-05
-2.74166e-06
1.30681e-05
6.36497e-06
1.04069e-05
1.58106e-05
7.94524e-06
2.51064e-05
5.47432e-06
3.39184e-05
2.81961e-06
4.2586e-05
5.24674e-05
3.10557e-05
-3.81699e-05
-3.65563e-05
2.59086e-05
-3.02195e-05
2.15375e-05
-2.28738e-05
1.79034e-05
-1.5686e-05
1.47833e-05
-8.14663e-06
1.20503e-05
-8.73271e-09
9.67685e-06
8.73846e-06
7.62447e-06
1.78629e-05
5.77552e-06
2.69553e-05
3.95395e-06
3.57399e-05
2.0113e-06
4.45287e-05
5.44787e-05
2.40431e-05
-3.26746e-05
-2.95384e-05
1.96033e-05
-2.57797e-05
1.60771e-05
-1.93477e-05
1.31212e-05
-1.27301e-05
1.0558e-05
-5.58344e-06
8.3455e-06
2.20379e-06
6.48666e-06
1.05973e-05
4.96029e-06
1.93893e-05
3.67116e-06
2.82444e-05
2.46678e-06
3.69443e-05
1.2112e-06
4.57843e-05
5.56899e-05
1.74938e-05
-2.80626e-05
-2.21058e-05