/*--------------------------------*- C++ -*----------------------------------*\
| =========                 |                                                 |
| \\      /  F ield         | OpenFOAM: The Open Source CFD Toolbox           |
|  \\    /   O peration     | Version:  v2012                                 |
|   \\  /    A nd           | Website:  www.openfoam.com                      |
|    \\/     M anipulation  |                                                 |
\*---------------------------------------------------------------------------*/
FoamFile
{
    version     2.0;
    format      ascii;
    class       volVectorField;
    location    "673";
    object      U;
}
// * * * * * * * * * * * * * * * * * * * * * * * * * * * * * * * * * * * * * //

dimensions      [0 1 -1 0 0 0 0];


internalField   nonuniform List<vector> 
6084
(
(0.000261319 -0.993467 0)
(0.000242773 -0.993813 0)
(0.000231478 -0.994127 0)
(0.000225723 -0.994421 0)
(0.00022391 -0.994705 0)
(0.000224922 -0.994986 0)
(0.000228121 -0.995266 0)
(0.000233115 -0.99555 0)
(0.00023978 -0.995839 0)
(0.000248174 -0.996137 0)
(0.000258472 -0.996444 0)
(0.000270905 -0.996764 0)
(0.000285663 -0.997099 0)
(0.000302574 -0.997452 0)
(0.000321002 -0.997826 0)
(0.000339011 -0.998226 0)
(0.00035195 -0.998657 0)
(0.000348316 -0.999106 0)
(0.000282379 -0.999506 0)
(6.98059e-05 -0.999778 0)
(0.000347923 -0.999702 0)
(0.000299789 -0.999778 0)
(0.000270178 -0.999826 0)
(0.000253557 -0.999858 0)
(0.000245326 -0.999882 0)
(0.00024242 -0.999901 0)
(0.000243471 -0.999917 0)
(0.000247336 -0.999932 0)
(0.000253485 -0.999948 0)
(0.000261845 -0.999964 0)
(0.000272565 -0.999982 0)
(0.000285919 -1 0)
(0.000302122 -1.00002 0)
(0.000321064 -1.00005 0)
(0.00034202 -1.00008 0)
(0.000363041 -1.0001 0)
(0.000377526 -1.00013 0)
(0.000383389 -1.00014 0)
(0.000337656 -1.00012 0)
(0.000181796 -1.00003 0)
(0.000382904 -1.00147 0)
(0.000309289 -1.00145 0)
(0.000264586 -1.00141 0)
(0.0002393 -1.00136 0)
(0.000226352 -1.0013 0)
(0.00022048 -1.00124 0)
(0.000219636 -1.00118 0)
(0.000222117 -1.00111 0)
(0.000227137 -1.00104 0)
(0.000234397 -1.00097 0)
(0.000243862 -1.0009 0)
(0.000255633 -1.00082 0)
(0.000269811 -1.00075 0)
(0.000286214 -1.00066 0)
(0.000303078 -1.00057 0)
(0.000313953 -1.00048 0)
(0.000319363 -1.00037 0)
(0.000310316 -1.00025 0)
(0.000257935 -1.00013 0)
(0.000125071 -1.00002 0)
(0.000357946 -1.00226 0)
(0.000263575 -1.00219 0)
(0.000207917 -1.0021 0)
(0.000177142 -1.002 0)
(0.000160728 -1.0019 0)
(0.000152958 -1.0018 0)
(0.000150242 -1.0017 0)
(0.00015078 -1.0016 0)
(0.000153679 -1.00149 0)
(0.000158503 -1.00138 0)
(0.000165089 -1.00126 0)
(0.000173371 -1.00114 0)
(0.000183229 -1.00102 0)
(0.00019422 -1.00088 0)
(0.000204861 -1.00074 0)
(0.000211973 -1.00058 0)
(0.000213034 -1.00042 0)
(0.000198714 -1.00026 0)
(0.000153748 -1.00011 0)
(6.4893e-05 -1.00001 0)
(0.000280756 -1.00265 0)
(0.000175357 -1.00252 0)
(0.000117874 -1.00239 0)
(8.72574e-05 -1.00227 0)
(7.08221e-05 -1.00215 0)
(6.22099e-05 -1.00203 0)
(5.78621e-05 -1.00191 0)
(5.60188e-05 -1.00179 0)
(5.57884e-05 -1.00167 0)
(5.67111e-05 -1.00154 0)
(5.8554e-05 -1.00141 0)
(6.11878e-05 -1.00126 0)
(6.44999e-05 -1.00112 0)
(6.82679e-05 -1.00096 0)
(7.18574e-05 -1.00079 0)
(7.40371e-05 -1.00061 0)
(7.3595e-05 -1.00043 0)
(6.74892e-05 -1.00025 0)
(5.06012e-05 -1.0001 0)
(2.00868e-05 -1.00001 0)
(0.000149625 -1.00277 0)
(5.44982e-05 -1.00258 0)
(4.79448e-06 -1.00242 0)
(-1.73373e-05 -1.00229 0)
(-2.94883e-05 -1.00216 0)
(-3.66941e-05 -1.00204 0)
(-4.16934e-05 -1.00192 0)
(-4.55994e-05 -1.00179 0)
(-4.90066e-05 -1.00167 0)
(-5.22739e-05 -1.00154 0)
(-5.56446e-05 -1.00141 0)
(-5.92806e-05 -1.00126 0)
(-6.32516e-05 -1.00112 0)
(-6.74523e-05 -1.00096 0)
(-7.13233e-05 -1.00079 0)
(-7.36894e-05 -1.00061 0)
(-7.33754e-05 -1.00043 0)
(-6.73584e-05 -1.00025 0)
(-5.05334e-05 -1.0001 0)
(-2.00647e-05 -1.00001 0)
(-5.17281e-05 -1.0026 0)
(-9.96456e-05 -1.00235 0)
(-0.000122004 -1.00218 0)
(-0.000124795 -1.00204 0)
(-0.000128054 -1.00193 0)
(-0.000131754 -1.00182 0)
(-0.000136348 -1.00171 0)
(-0.000141639 -1.0016 0)
(-0.000147653 -1.00149 0)
(-0.000154531 -1.00138 0)
(-0.000162474 -1.00127 0)
(-0.000171653 -1.00114 0)
(-0.000182104 -1.00102 0)
(-0.000193485 -1.00088 0)
(-0.000204379 -1.00074 0)
(-0.000211659 -1.00058 0)
(-0.000212838 -1.00042 0)
(-0.000198599 -1.00026 0)
(-0.000153691 -1.00011 0)
(-6.48745e-05 -1.00001 0)
(-0.000382307 -1.00198 0)
(-0.000267104 -1.00166 0)
(-0.000241539 -1.00152 0)
(-0.000214869 -1.00141 0)
(-0.000206803 -1.00133 0)
(-0.000206101 -1.00126 0)
(-0.000209536 -1.00119 0)
(-0.000215185 -1.00112 0)
(-0.000222459 -1.00105 0)
(-0.000231274 -1.00098 0)
(-0.000241792 -1.0009 0)
(-0.000254271 -1.00083 0)
(-0.000268921 -1.00075 0)
(-0.000285637 -1.00066 0)
(-0.000302697 -1.00057 0)
(-0.000313697 -1.00048 0)
(-0.000319205 -1.00037 0)
(-0.000310225 -1.00025 0)
(-0.000257895 -1.00013 0)
(-0.000125059 -1.00002 0)
(-0.000803439 -1.00044 0)
(-0.000373877 -0.999892 0)
(-0.000302803 -0.999912 0)
(-0.0002522 -0.999901 0)
(-0.000238081 -0.99991 0)
(-0.000234971 -0.999919 0)
(-0.000237531 -0.999929 0)
(-0.000242997 -0.99994 0)
(-0.000250466 -0.999953 0)
(-0.000259798 -0.999968 0)
(-0.000271194 -0.999984 0)
(-0.000285006 -1 0)
(-0.000301522 -1.00003 0)
(-0.000320673 -1.00005 0)
(-0.000341767 -1.00008 0)
(-0.00036288 -1.0001 0)
(-0.000377421 -1.00013 0)
(-0.000383311 -1.00014 0)
(-0.00033765 -1.00012 0)
(-0.000181793 -1.00003 0)
(-0.000918551 -0.995845 0)
(-0.000228683 -0.993687 0)
(-0.000272581 -0.994109 0)
(-0.000232231 -0.994443 0)
(-0.000223135 -0.994728 0)
(-0.000222383 -0.995004 0)
(-0.000225617 -0.99528 0)
(-0.000231169 -0.995559 0)
(-0.000238385 -0.995846 0)
(-0.00024721 -0.996141 0)
(-0.000257816 -0.996446 0)
(-0.000270479 -0.996765 0)
(-0.000285389 -0.9971 0)
(-0.000302392 -0.997452 0)
(-0.000320876 -0.997826 0)
(-0.000338929 -0.998226 0)
(-0.0003519 -0.998657 0)
(-0.000348291 -0.999106 0)
(-0.000282377 -0.999506 0)
(-6.98052e-05 -0.999778 0)
(0.00247936 -0.973856 0)
(0.00200252 -0.978145 0)
(0.0016111 -0.981589 0)
(0.0012911 -0.98432 0)
(0.00103404 -0.986475 0)
(0.00083061 -0.98817 0)
(0.000671624 -0.989506 0)
(0.0005486 -0.990561 0)
(0.000454176 -0.991401 0)
(0.000382089 -0.992077 0)
(0.000328568 -0.992626 0)
(0.000289161 -0.993082 0)
(0.00576376 -0.984813 0)
(0.00460701 -0.98848 0)
(0.00364938 -0.99136 0)
(0.00286799 -0.993583 0)
(0.00224099 -0.995282 0)
(0.00174568 -0.996565 0)
(0.00135928 -0.997527 0)
(0.00106078 -0.99824 0)
(0.000832183 -0.998763 0)
(0.000657471 -0.999141 0)
(0.000522935 -0.999406 0)
(0.000420899 -0.999585 0)
(0.00905843 -0.988449 0)
(0.00719037 -0.991879 0)
(0.00564278 -0.99453 0)
(0.0043837 -0.996543 0)
(0.00337857 -0.998048 0)
(0.00258924 -0.999157 0)
(0.00197689 -0.999962 0)
(0.00150563 -1.00054 0)
(0.00114566 -1.00093 0)
(0.000871324 -1.0012 0)
(0.000659653 -1.00136 0)
(0.00049796 -1.00145 0)
(0.0122109 -0.990731 0)
(0.00963378 -0.993971 0)
(0.00750133 -0.996437 0)
(0.00577173 -0.998272 0)
(0.00439759 -0.999612 0)
(0.00332527 -1.00057 0)
(0.0024987 -1.00125 0)
(0.00186514 -1.00171 0)
(0.00138227 -1.00201 0)
(0.00101623 -1.0022 0)
(0.000733463 -1.00229 0)
(0.000513566 -1.00231 0)
(0.0152157 -0.992318 0)
(0.0119353 -0.995414 0)
(0.00922281 -0.997736 0)
(0.00702771 -0.999428 0)
(0.00529339 -1.00063 0)
(0.00395051 -1.00147 0)
(0.00292363 -1.00204 0)
(0.00214019 -1.00241 0)
(0.00154517 -1.00264 0)
(0.00110104 -1.00276 0)
(0.000760162 -1.0028 0)
(0.00048108 -1.00276 0)
(0.0181438 -0.99271 0)
(0.0141419 -0.995799 0)
(0.0108289 -0.998115 0)
(0.00815747 -0.999794 0)
(0.00606591 -1.00097 0)
(0.0044646 -1.00179 0)
(0.00325463 -1.00234 0)
(0.0023409 -1.0027 0)
(0.00165209 -1.00289 0)
(0.00114887 -1.00298 0)
(0.000757197 -1.00302 0)
(0.000401981 -1.00295 0)
(0.0210641 -0.99015 0)
(0.0163471 -0.993554 0)
(0.0124824 -0.996203 0)
(0.00935979 -0.99821 0)
(0.00692792 -0.9997 0)
(0.00508879 -1.0008 0)
(0.0037168 -1.00161 0)
(0.00268541 -1.00219 0)
(0.00188179 -1.00255 0)
(0.00126239 -1.00276 0)
(0.00077589 -1.00289 0)
(0.000298311 -1.00288 0)
(0.0247229 -0.979156 0)
(0.0193788 -0.983821 0)
(0.0149326 -0.987751 0)
(0.011339 -0.990985 0)
(0.00855062 -0.993659 0)
(0.0064045 -0.995931 0)
(0.00473646 -0.997862 0)
(0.00340092 -0.999458 0)
(0.00223604 -1.00068 0)
(0.00126026 -1.00154 0)
(0.000690762 -1.00214 0)
(0.000266384 -1.00233 0)
(0.0291891 -0.944232 0)
(0.0230926 -0.951292 0)
(0.0180218 -0.958125 0)
(0.0137649 -0.964661 0)
(0.0103075 -0.970962 0)
(0.00745057 -0.977084 0)
(0.0051147 -0.98285 0)
(0.00329782 -0.988086 0)
(0.00189536 -0.992539 0)
(0.000927553 -0.995869 0)
(0.000984071 -0.998253 0)
(0.00133875 -1.00003 0)
(0.0371484 -0.841481 0)
(0.0319783 -0.847075 0)
(0.0275594 -0.854419 0)
(0.0238745 -0.863725 0)
(0.0217762 -0.874604 0)
(0.0208891 -0.887398 0)
(0.020268 -0.901815 0)
(0.0197867 -0.917735 0)
(0.0184431 -0.934554 0)
(0.0164724 -0.949525 0)
(0.0142855 -0.963425 0)
(0.00838661 -0.981214 0)
(-0.0256553 0.0122586 0)
(-0.0205187 0.0436011 0)
(-0.00455813 0.0424188 0)
(0.00900277 0.0221411 0)
(0.0212865 -0.0192986 0)
(0.0339288 -0.0890051 0)
(0.0399454 -0.17959 0)
(0.0388729 -0.264735 0)
(0.035451 -0.341917 0)
(0.0323445 -0.413174 0)
(0.0295929 -0.478477 0)
(0.0270742 -0.538331 0)
(0.0247472 -0.593123 0)
(0.0225686 -0.643173 0)
(0.0205082 -0.688736 0)
(0.0185473 -0.730024 0)
(0.0166765 -0.767229 0)
(0.0148941 -0.800537 0)
(0.0132031 -0.830141 0)
(0.0116099 -0.85625 0)
(0.0101233 -0.879083 0)
(0.00875935 -0.898892 0)
(0.00752414 -0.915932 0)
(0.0064068 -0.930454 0)
(0.00540282 -0.942713 0)
(0.00451268 -0.952958 0)
(0.0037334 -0.961418 0)
(0.00305672 -0.968304 0)
(-0.0438769 0.00105879 0)
(-0.00824477 0.0208425 0)
(0.0217089 0.00198977 0)
(0.0467055 -0.0484802 0)
(0.0730692 -0.121988 0)
(0.0920396 -0.204288 0)
(0.0963971 -0.28077 0)
(0.0913369 -0.346316 0)
(0.0843991 -0.41135 0)
(0.0777294 -0.472723 0)
(0.0714662 -0.53022 0)
(0.0656346 -0.583766 0)
(0.0601602 -0.633391 0)
(0.0549718 -0.679152 0)
(0.0500166 -0.721113 0)
(0.045265 -0.759342 0)
(0.0407079 -0.793921 0)
(0.0363523 -0.824956 0)
(0.0322152 -0.852578 0)
(0.0283181 -0.876948 0)
(0.0246819 -0.89825 0)
(0.0213209 -0.916691 0)
(0.018244 -0.932483 0)
(0.0154569 -0.945859 0)
(0.0129612 -0.957069 0)
(0.010754 -0.966354 0)
(0.00882756 -0.973939 0)
(0.0071641 -0.980048 0)
(-0.0492178 -0.0152146 0)
(0.0153699 -0.0139518 0)
(0.0593864 -0.0578791 0)
(0.0991829 -0.123556 0)
(0.131245 -0.197003 0)
(0.147113 -0.265467 0)
(0.147284 -0.326398 0)
(0.140311 -0.384454 0)
(0.131743 -0.442282 0)
(0.122747 -0.497826 0)
(0.113888 -0.550935 0)
(0.105328 -0.601172 0)
(0.0970587 -0.648303 0)
(0.0890426 -0.692162 0)
(0.0812498 -0.732647 0)
(0.0736741 -0.769705 0)
(0.066333 -0.803331 0)
(0.0592624 -0.833565 0)
(0.0525083 -0.860493 0)
(0.0461196 -0.884243 0)
(0.0401405 -0.904979 0)
(0.034606 -0.922897 0)
(0.02954 -0.938214 0)
(0.0249553 -0.951162 0)
(0.0208539 -0.96198 0)
(0.0172286 -0.970903 0)
(0.014064 -0.978156 0)
(0.0113344 -0.98396 0)
(-0.0246996 -0.0296928 0)
(0.0480103 -0.050859 0)
(0.105905 -0.108977 0)
(0.15371 -0.176654 0)
(0.183978 -0.241473 0)
(0.194744 -0.298866 0)
(0.19238 -0.352706 0)
(0.184761 -0.406576 0)
(0.175221 -0.460072 0)
(0.164715 -0.512269 0)
(0.15396 -0.56276 0)
(0.143209 -0.611016 0)
(0.132549 -0.65667 0)
(0.122004 -0.699438 0)
(0.111595 -0.739114 0)
(0.101361 -0.775563 0)
(0.0913593 -0.808715 0)
(0.0816676 -0.838563 0)
(0.0723698 -0.86516 0)
(0.0635488 -0.888612 0)
(0.0552772 -0.909073 0)
(0.047612 -0.926731 0)
(0.0405921 -0.941801 0)
(0.0342378 -0.954513 0)
(0.0285528 -0.965103 0)
(0.0235272 -0.973805 0)
(0.0191394 -0.980843 0)
(0.0153567 -0.98644 0)
(0.00853037 -0.041503 0)
(0.0902976 -0.0796743 0)
(0.155808 -0.143798 0)
(0.20379 -0.208576 0)
(0.229248 -0.26614 0)
(0.236476 -0.3182 0)
(0.233471 -0.369139 0)
(0.225847 -0.420438 0)
(0.215786 -0.471421 0)
(0.204335 -0.521587 0)
(0.192207 -0.570421 0)
(0.179717 -0.617403 0)
(0.167028 -0.662115 0)
(0.154234 -0.704205 0)
(0.141415 -0.743399 0)
(0.128665 -0.779501 0)
(0.116098 -0.812387 0)
(0.103844 -0.842014 0)
(0.0920366 -0.868411 0)
(0.0808018 -0.891671 0)
(0.0702476 -0.911945 0)
(0.0604571 -0.92942 0)
(0.0514862 -0.944314 0)
(0.0433639 -0.956857 0)
(0.036096 -0.967288 0)
(0.0296695 -0.975836 0)
(0.0240585 -0.982725 0)
(0.0192258 -0.988173 0)
(0.0534869 -0.0476945 0)
(0.139802 -0.098337 0)
(0.206068 -0.164624 0)
(0.249826 -0.225662 0)
(0.270633 -0.279152 0)
(0.275991 -0.329268 0)
(0.272969 -0.378999 0)
(0.265387 -0.428842 0)
(0.254977 -0.478395 0)
(0.242808 -0.527299 0)
(0.229548 -0.575073 0)
(0.215551 -0.621231 0)
(0.201032 -0.66533 0)
(0.186138 -0.706976 0)
(0.17101 -0.745844 0)
(0.155804 -0.781685 0)
(0.140699 -0.814338 0)
(0.125889 -0.843735 0)
(0.111569 -0.869897 0)
(0.0979163 -0.892923 0)
(0.0850785 -0.912971 0)
(0.0731671 -0.930245 0)
(0.0622542 -0.944973 0)
(0.0523757 -0.957394 0)
(0.0435364 -0.967746 0)
(0.0357192 -0.976254 0)
(0.0288938 -0.983127 0)
(0.0230186 -0.98857 0)
(0.105991 -0.0514476 0)
(0.193383 -0.108404 0)
(0.255464 -0.175079 0)
(0.293679 -0.233266 0)
(0.310805 -0.285106 0)
(0.315018 -0.334781 0)
(0.311882 -0.384017 0)
(0.304179 -0.433087 0)
(0.293422 -0.481812 0)
(0.2806 -0.529918 0)
(0.26632 -0.576988 0)
(0.250941 -0.622566 0)
(0.234698 -0.66619 0)
(0.217778 -0.707428 0)
(0.200378 -0.745905 0)
(0.182724 -0.781334 0)
(0.16507 -0.813529 0)
(0.14769 -0.842421 0)
(0.130849 -0.868049 0)
(0.114784 -0.890544 0)
(0.0996868 -0.910105 0)
(0.0856953 -0.926976 0)
(0.0728935 -0.941419 0)
(0.0613169 -0.953695 0)
(0.0509624 -0.964047 0)
(0.0418002 -0.972691 0)
(0.0337846 -0.979816 0)
(0.0268529 -0.985606 0)
(0.166997 -0.0544232 0)
(0.247856 -0.112729 0)
(0.303738 -0.178563 0)
(0.336533 -0.235005 0)
(0.350742 -0.286455 0)
(0.353963 -0.336193 0)
(0.350491 -0.385217 0)
(0.342516 -0.433848 0)
(0.331364 -0.482037 0)
(0.317899 -0.529568 0)
(0.302647 -0.576069 0)
(0.285933 -0.621087 0)
(0.267988 -0.664126 0)
(0.249031 -0.7047 0)
(0.229315 -0.742381 0)
(0.209147 -0.776846 0)
(0.188877 -0.807901 0)
(0.168876 -0.835506 0)
(0.149498 -0.859755 0)
(0.13105 -0.880862 0)
(0.113768 -0.899121 0)
(0.0978144 -0.914868 0)
(0.0832741 -0.928448 0)
(0.0701695 -0.940186 0)
(0.0584732 -0.950367 0)
(0.0481265 -0.959218 0)
(0.0390625 -0.966911 0)
(0.0312316 -0.973558 0)
(0.230339 -0.0554632 0)
(0.301576 -0.112865 0)
(0.350985 -0.177574 0)
(0.378949 -0.233065 0)
(0.390704 -0.284528 0)
(0.39289 -0.334369 0)
(0.388897 -0.383223 0)
(0.380526 -0.431501 0)
(0.368908 -0.479215 0)
(0.354759 -0.526171 0)
(0.338498 -0.571997 0)
(0.320388 -0.616193 0)
(0.300637 -0.658191 0)
(0.279489 -0.697414 0)
(0.257263 -0.733354 0)
(0.234371 -0.765637 0)
(0.211292 -0.794074 0)
(0.188527 -0.818679 0)
(0.166546 -0.839654 0)
(0.145744 -0.857358 0)
(0.126411 -0.872248 0)
(0.108727 -0.884828 0)
(0.0927674 -0.895607 0)
(0.0785183 -0.90506 0)
(0.0658987 -0.913605 0)
(0.0547836 -0.92158 0)
(0.0450309 -0.929247 0)
(0.0364941 -0.936816 0)
(0.291125 -0.0542675 0)
(0.354235 -0.11011 0)
(0.397444 -0.173804 0)
(0.421143 -0.228692 0)
(0.430708 -0.280099 0)
(0.431768 -0.329865 0)
(0.427096 -0.378435 0)
(0.418204 -0.426259 0)
(0.406011 -0.473357 0)
(0.391055 -0.51951 0)
(0.373626 -0.564274 0)
(0.353891 -0.607038 0)
(0.332019 -0.647082 0)
(0.308278 -0.683673 0)
(0.283077 -0.716171 0)
(0.256973 -0.744129 0)
(0.230624 -0.767366 0)
(0.20471 -0.785983 0)
(0.17986 -0.800332 0)
(0.156582 -0.810957 0)
(0.135234 -0.818504 0)
(0.116017 -0.823652 0)
(0.0989953 -0.827061 0)
(0.0841243 -0.829343 0)
(0.0712891 -0.831047 0)
(0.060335 -0.832655 0)
(0.0510937 -0.834614 0)
(0.0433876 -0.837415 0)
(0.0345512 -0.621143 0)
(0.0301421 -0.600414 0)
(0.0265234 -0.577012 0)
(0.0234727 -0.550442 0)
(0.0206718 -0.519926 0)
(0.0175199 -0.484 0)
(0.0133126 -0.442108 0)
(0.00758661 -0.393749 0)
(0.0018029 -0.336245 0)
(-0.00700601 -0.269333 0)
(-0.0255924 -0.205876 0)
(-0.0403575 -0.150842 0)
(0.0053656 -0.391169 0)
(-0.00308429 -0.356691 0)
(-0.0111664 -0.320042 0)
(-0.0188426 -0.281423 0)
(-0.0263966 -0.241361 0)
(-0.0348077 -0.199756 0)
(-0.0428684 -0.158565 0)
(-0.0492231 -0.117605 0)
(-0.054211 -0.0756028 0)
(-0.0592251 -0.0335894 0)
(-0.0763649 -0.000265705 0)
(-0.118635 0.00752089 0)
(-0.0241291 -0.235605 0)
(-0.0325232 -0.207291 0)
(-0.0404744 -0.17978 0)
(-0.0473339 -0.153883 0)
(-0.0529062 -0.128938 0)
(-0.0587835 -0.103958 0)
(-0.0658588 -0.0803502 0)
(-0.0728789 -0.0592138 0)
(-0.0782879 -0.0390359 0)
(-0.0832462 -0.0192514 0)
(-0.0930032 -0.00173374 0)
(-0.106775 0.00125054 0)
(-0.044281 -0.165852 0)
(-0.0513355 -0.149503 0)
(-0.0579456 -0.13324 0)
(-0.0644925 -0.117721 0)
(-0.0706792 -0.102139 0)
(-0.0764174 -0.0866217 0)
(-0.0816265 -0.0714442 0)
(-0.0865249 -0.0565168 0)
(-0.0913152 -0.0412048 0)
(-0.0968863 -0.0254 0)
(-0.10422 -0.0111924 0)
(-0.107657 -0.00370756 0)
(-0.0554363 -0.143068 0)
(-0.0625392 -0.132099 0)
(-0.0691863 -0.120712 0)
(-0.075531 -0.108932 0)
(-0.081662 -0.0966423 0)
(-0.0876234 -0.0838247 0)
(-0.093385 -0.0705671 0)
(-0.0989225 -0.0569204 0)
(-0.104393 -0.0428055 0)
(-0.110052 -0.0284136 0)
(-0.115411 -0.0150591 0)
(-0.114572 -0.00558308 0)
(-0.0634163 -0.133645 0)
(-0.0710032 -0.124697 0)
(-0.0782771 -0.11498 0)
(-0.0852735 -0.104529 0)
(-0.0920284 -0.0933832 0)
(-0.0985653 -0.0815735 0)
(-0.104836 -0.0691706 0)
(-0.110813 -0.0562714 0)
(-0.116528 -0.0430092 0)
(-0.121959 -0.0296581 0)
(-0.126259 -0.0169359 0)
(-0.12369 -0.0066869 0)
(-0.0703744 -0.127142 0)
(-0.0787022 -0.119057 0)
(-0.0867192 -0.110109 0)
(-0.0944313 -0.100341 0)
(-0.101844 -0.089824 0)
(-0.108944 -0.078647 0)
(-0.115675 -0.0669117 0)
(-0.121991 -0.0547372 0)
(-0.127856 -0.0422945 0)
(-0.133131 -0.0297926 0)
(-0.13692 -0.0175962 0)
(-0.133852 -0.00708023 0)
(-0.076843 -0.121154 0)
(-0.0859587 -0.113543 0)
(-0.0947287 -0.105066 0)
(-0.103134 -0.095786 0)
(-0.111154 -0.0857895 0)
(-0.118758 -0.0751855 0)
(-0.125888 -0.0640884 0)
(-0.132487 -0.0526218 0)
(-0.138481 -0.0409404 0)
(-0.14369 -0.0291795 0)
(-0.147285 -0.0175169 0)
(-0.144303 -0.00709936 0)
(-0.0829802 -0.115133 0)
(-0.0928707 -0.107872 0)
(-0.102358 -0.0997781 0)
(-0.111406 -0.0909284 0)
(-0.119979 -0.0814213 0)
(-0.128033 -0.0713692 0)
(-0.135514 -0.0608872 0)
(-0.142357 -0.0500936 0)
(-0.148475 -0.0391193 0)
(-0.153681 -0.0280498 0)
(-0.157246 -0.0169682 0)
(-0.154614 -0.00688326 0)
(-0.0888389 -0.108998 0)
(-0.0994725 -0.102047 0)
(-0.109636 -0.0943067 0)
(-0.119279 -0.0858645 0)
(-0.128353 -0.0768246 0)
(-0.136807 -0.0673003 0)
(-0.144589 -0.0574057 0)
(-0.151638 -0.0472522 0)
(-0.157867 -0.0369513 0)
(-0.163103 -0.02656 0)
(-0.166707 -0.0161158 0)
(-0.16452 -0.00652035 0)
(-0.0944493 -0.102759 0)
(-0.105789 -0.0960984 0)
(-0.116586 -0.0886957 0)
(-0.126776 -0.080644 0)
(-0.136299 -0.0720509 0)
(-0.145103 -0.0630317 0)
(-0.153137 -0.0537004 0)
(-0.16035 -0.0441643 0)
(-0.166668 -0.0345214 0)
(-0.171938 -0.0248145 0)
(-0.175594 -0.0150617 0)
(-0.173853 -0.00606117 0)
(-0.0998291 -0.0964205 0)
(-0.111836 -0.0900375 0)
(-0.123223 -0.0829594 0)
(-0.133912 -0.0752834 0)
(-0.143836 -0.0671205 0)
(-0.152938 -0.0585889 0)
(-0.161175 -0.0498046 0)
(-0.168506 -0.040874 0)
(-0.174878 -0.0318873 0)
(-0.180162 -0.0228806 0)
(-0.18385 -0.0138686 0)
(-0.182501 -0.00553538 0)
(-0.104991 -0.0899758 0)
(-0.117623 -0.0838577 0)
(-0.129557 -0.0770925 0)
(-0.140701 -0.0697802 0)
(-0.150976 -0.0620352 0)
(-0.160325 -0.0539801 0)
(-0.16871 -0.0457348 0)
(-0.176107 -0.0374073 0)
(-0.182485 -0.0290845 0)
(-0.187745 -0.0207997 0)
(-0.191426 -0.0125742 0)
(-0.190388 -0.00495941 0)
(-0.109946 -0.0834062 0)
(-0.123162 -0.0775407 0)
(-0.135599 -0.0710778 0)
(-0.14715 -0.0641197 0)
(-0.157727 -0.056785 0)
(-0.167268 -0.0492013 0)
(-0.175743 -0.0414942 0)
(-0.183146 -0.0337755 0)
(-0.189474 -0.0261315 0)
(-0.19466 -0.0185943 0)
(-0.198283 -0.0111994 0)
(-0.197457 -0.00434107 0)
(-0.114706 -0.0766873 0)
(-0.128462 -0.0710616 0)
(-0.141357 -0.0648907 0)
(-0.153267 -0.0582796 0)
(-0.164092 -0.0513512 0)
(-0.173767 -0.0442392 0)
(-0.18227 -0.0370757 0)
(-0.189613 -0.029978 0)
(-0.195825 -0.0230339 0)
(-0.200875 -0.0162737 0)
(-0.204381 -0.00975443 0)
(-0.203662 -0.00368232 0)
(-0.119284 -0.0697912 0)
(-0.133533 -0.0643911 0)
(-0.146837 -0.0585022 0)
(-0.159054 -0.0522324 0)
(-0.170071 -0.0457094 0)
(-0.179818 -0.0390733 0)
(-0.188279 -0.0324639 0)
(-0.19549 -0.0260049 0)
(-0.201512 -0.0197873 0)
(-0.206357 -0.0138372 0)
(-0.209683 -0.00824153 0)
(-0.20896 -0.00298152 0)
(-0.123696 -0.0626883 0)
(-0.138386 -0.057498 0)
(-0.152046 -0.0518804 0)
(-0.164514 -0.0459468 0)
(-0.175661 -0.0398302 0)
(-0.185412 -0.0336776 0)
(-0.193757 -0.027637 0)
(-0.200756 -0.0218393 0)
(-0.206506 -0.0163796 0)
(-0.211069 -0.0112769 0)
(-0.214148 -0.00665768 0)
(-0.213311 -0.0022379 0)
(-0.127958 -0.0553479 0)
(-0.143034 -0.0503494 0)
(-0.156992 -0.0449912 0)
(-0.169648 -0.0393889 0)
(-0.180858 -0.0336809 0)
(-0.190537 -0.0280219 0)
(-0.198686 -0.0225682 0)
(-0.205385 -0.0174584 0)
(-0.210775 -0.0127923 0)
(-0.214968 -0.00857896 0)
(-0.217728 -0.00499602 0)
(-0.216673 -0.00146489 0)
(-0.132089 -0.0477388 0)
(-0.14749 -0.0429113 0)
(-0.161681 -0.037799 0)
(-0.174458 -0.0325225 0)
(-0.185655 -0.0272262 0)
(-0.195182 -0.0220727 0)
(-0.203043 -0.0172269 0)
(-0.209349 -0.0128352 0)
(-0.214282 -0.00900261 0)
(-0.21801 -0.00572533 0)
(-0.220373 -0.00324446 0)
(-0.218992 -0.000586372 0)
(-0.136112 -0.0398288 0)
(-0.151771 -0.035149 0)
(-0.166124 -0.0302672 0)
(-0.178943 -0.0253101 0)
(-0.190045 -0.0204289 0)
(-0.199329 -0.0157943 0)
(-0.206806 -0.0115798 0)
(-0.212615 -0.00793979 0)
(-0.216985 -0.00498502 0)
(-0.220147 -0.00269965 0)
(-0.222019 -0.00137958 0)
(-0.22021 0.000321827 0)
(-0.140051 -0.0315849 0)
(-0.155895 -0.0270266 0)
(-0.17033 -0.0223579 0)
(-0.183106 -0.0177128 0)
(-0.194021 -0.0132504 0)
(-0.202962 -0.00914928 0)
(-0.209948 -0.00559181 0)
(-0.215147 -0.00274054 0)
(-0.218841 -0.000711632 0)
(-0.221326 0.000519638 0)
(-0.222585 0.000649018 0)
(-0.220267 0.00125415 0)
(-0.143934 -0.022973 0)
(-0.159881 -0.0185072 0)
(-0.17431 -0.0140322 0)
(-0.186949 -0.00969108 0)
(-0.197574 -0.00565123 0)
(-0.206062 -0.00209984 0)
(-0.212441 0.000773027 0)
(-0.216908 0.00279417 0)
(-0.2198 0.00384496 0)
(-0.221487 0.00395693 0)
(-0.222042 0.00280312 0)
(-0.219095 0.00222512 0)
(-0.14779 -0.0139575 0)
(-0.163753 -0.00955301 0)
(-0.178078 -0.00525078 0)
(-0.190472 -0.00120499 0)
(-0.200694 0.00240737 0)
(-0.20861 0.00539086 0)
(-0.214254 0.00755013 0)
(-0.217855 0.00869514 0)
(-0.219806 0.00871248 0)
(-0.220551 0.00763547 0)
(-0.220211 0.00508671 0)
(-0.216606 0.00333721 0)
(-0.151652 -0.00450146 0)
(-0.167532 -0.000125264 0)
(-0.181645 0.00402584 0)
(-0.193678 0.00778442 0)
(-0.203372 0.0109618 0)
(-0.210585 0.0133566 0)
(-0.21535 0.0147742 0)
(-0.217939 0.014992 0)
(-0.218805 0.0139217 0)
(-0.218461 0.0115876 0)
(-0.217117 0.00757564 0)
(-0.212688 0.00465096 0)
(-0.155553 0.00543272 0)
(-0.171245 0.00981438 0)
(-0.185026 0.0138358 0)
(-0.196568 0.0173142 0)
(-0.205595 0.0200476 0)
(-0.211959 0.0218335 0)
(-0.215681 0.0224709 0)
(-0.217112 0.0217037 0)
(-0.216744 0.0194942 0)
(-0.215145 0.01583 0)
(-0.212623 0.0102786 0)
(-0.207217 0.00604567 0)
(-0.159528 0.0158822 0)
(-0.174915 0.0203035 0)
(-0.188233 0.0242169 0)
(-0.199139 0.0274202 0)
(-0.207347 0.0297004 0)
(-0.212694 0.0308575 0)
(-0.215279 0.030586 0)
(-0.215348 0.0288384 0)
(-0.213576 0.0254493 0)
(-0.210532 0.0203837 0)
(-0.206631 0.0132124 0)
(-0.200058 0.00756185 0)
(-0.16361 0.0268846 0)
(-0.178567 0.0313795 0)
(-0.191277 0.0352041 0)
(-0.201387 0.0381349 0)
(-0.208597 0.0399559 0)
(-0.212749 0.0403808 0)
(-0.213945 0.0392386 0)
(-0.212611 0.0364723 0)
(-0.209245 0.0318176 0)
(-0.204541 0.0252697 0)
(-0.199033 0.0163926 0)
(-0.191084 0.00923181 0)
(-0.167835 0.0384753 0)
(-0.182224 0.0430756 0)
(-0.194167 0.0468268 0)
(-0.203308 0.0494908 0)
(-0.209319 0.0508391 0)
(-0.212086 0.0504985 0)
(-0.211815 0.0484803 0)
(-0.208837 0.0445668 0)
(-0.203685 0.0385943 0)
(-0.197092 0.030486 0)
(-0.189719 0.0198218 0)
(-0.180149 0.011073 0)
(-0.172234 0.0506846 0)
(-0.185906 0.0554176 0)
(-0.196909 0.0591027 0)
(-0.204881 0.061508 0)
(-0.209488 0.0622675 0)
(-0.210679 0.0611934 0)
(-0.208745 0.0581787 0)
(-0.203971 0.0530857 0)
(-0.196851 0.0457472 0)
(-0.188113 0.0360071 0)
(-0.178583 0.0234823 0)
(-0.167112 0.0130828 0)
(-0.176834 0.0635337 0)
(-0.189629 0.0684198 0)
(-0.199508 0.0720429 0)
(-0.20608 0.0742006 0)
(-0.209058 0.0742686 0)
(-0.208495 0.0724009 0)
(-0.204704 0.0683335 0)
(-0.197975 0.0619988 0)
(-0.18869 0.0532255 0)
(-0.177518 0.0417702 0)
(-0.165514 0.0273186 0)
(-0.151842 0.0152434 0)
(-0.181655 0.0770305 0)
(-0.19339 0.0820769 0)
(-0.201932 0.0856325 0)
(-0.206862 0.0873873 0)
(-0.207915 0.0869113 0)
(-0.205447 0.0841498 0)
(-0.199607 0.0789195 0)
(-0.190751 0.071262 0)
(-0.179109 0.0609247 0)
(-0.16521 0.0476295 0)
(-0.150431 0.0312068 0)
(-0.134251 0.0175157 0)
(-0.186711 0.0911715 0)
(-0.197183 0.0963828 0)
(-0.204128 0.0998724 0)
(-0.20719 0.101062 0)
(-0.206192 0.10009 0)
(-0.201464 0.0963556 0)
(-0.193335 0.0898955 0)
(-0.182167 0.0808232 0)
(-0.168029 0.0686534 0)
(-0.151135 0.0532905 0)
(-0.13337 0.0349429 0)
(-0.114453 0.0198605 0)
(-0.192015 0.105923 0)
(-0.201016 0.111302 0)
(-0.206107 0.114704 0)
(-0.207009 0.115536 0)
(-0.203762 0.11376 0)
(-0.19646 0.10896 0)
(-0.185822 0.101244 0)
(-0.172231 0.0905891 0)
(-0.1552 0.0763327 0)
(-0.135233 0.0583623 0)
(-0.114496 0.0382961 0)
(-0.0929178 0.022251 0)
(-0.197555 0.121197 0)
(-0.204873 0.126703 0)
(-0.207889 0.129915 0)
(-0.206343 0.130458 0)
(-0.200394 0.12772 0)
(-0.190375 0.121819 0)
(-0.177185 0.112801 0)
(-0.160647 0.100443 0)
(-0.140108 0.0838577 0)
(-0.117148 0.0629761 0)
(-0.0937878 0.0410911 0)
(-0.0696566 0.0244534 0)
(-0.203284 0.13686 0)
(-0.208672 0.14239 0)
(-0.209355 0.145283 0)
(-0.205103 0.145213 0)
(-0.196126 0.141572 0)
(-0.183288 0.134579 0)
(-0.167154 0.124075 0)
(-0.146943 0.109777 0)
(-0.122741 0.090777 0)
(-0.0967257 0.0671882 0)
(-0.0712545 0.0434596 0)
(-0.0437187 0.0258632 0)
(-0.209118 0.152722 0)
(-0.212306 0.158117 0)
(-0.210315 0.160625 0)
(-0.203102 0.159645 0)
(-0.190932 0.154954 0)
(-0.175061 0.146588 0)
(-0.155429 0.134486 0)
(-0.131288 0.117949 0)
(-0.103347 0.0966179 0)
(-0.074281 0.0706728 0)
(-0.0469165 0.0454457 0)
(-0.0190958 0.0269816 0)
(-0.214923 0.168495 0)
(-0.215624 0.173535 0)
(-0.21072 0.175386 0)
(-0.200097 0.173274 0)
(-0.184621 0.167293 0)
(-0.165391 0.157308 0)
(-0.141829 0.143241 0)
(-0.113692 0.124482 0)
(-0.0820938 0.101078 0)
(-0.0501727 0.0733251 0)
(-0.0211016 0.0468851 0)
(0.00644911 0.028059 0)
(-0.220497 0.183774 0)
(-0.218277 0.18824 0)
(-0.210147 0.188915 0)
(-0.195916 0.185334 0)
(-0.176941 0.177667 0)
(-0.153994 0.165929 0)
(-0.126382 0.149674 0)
(-0.0943227 0.128829 0)
(-0.0593559 0.103733 0)
(-0.0250248 0.0748457 0)
(0.00528784 0.0473588 0)
(0.0329396 0.0276163 0)
(-0.225546 0.198067 0)
(-0.22015 0.201447 0)
(-0.208185 0.200442 0)
(-0.190193 0.194956 0)
(-0.167605 0.185201 0)
(-0.140742 0.171389 0)
(-0.109134 0.152973 0)
(-0.0734563 0.13034 0)
(-0.0356286 0.10408 0)
(0.000502256 0.0748676 0)
(0.0315298 0.047013 0)
(0.0596753 0.027064 0)
(-0.229525 0.210722 0)
(-0.220457 0.212232 0)
(-0.204457 0.208942 0)
(-0.182574 0.201064 0)
(-0.156277 0.188943 0)
(-0.125548 0.172796 0)
(-0.0902755 0.152386 0)
(-0.0515263 0.12844 0)
(-0.0115306 0.101692 0)
(0.0257166 0.0730526 0)
(0.0571745 0.0457041 0)
(0.0879521 0.0265659 0)
(-0.232081 0.220724 0)
(-0.218618 0.21955 0)
(-0.198388 0.213266 0)
(-0.172668 0.202494 0)
(-0.142774 0.187789 0)
(-0.1085 0.169286 0)
(-0.0701635 0.147277 0)
(-0.0291182 0.122727 0)
(0.0122777 0.0963487 0)
(0.0499653 0.0691882 0)
(0.0816621 0.0429958 0)
(0.115231 0.0251658 0)
(-0.232122 0.226656 0)
(-0.213987 0.222139 0)
(-0.189488 0.212242 0)
(-0.160244 0.198181 0)
(-0.127088 0.180781 0)
(-0.0898854 0.160195 0)
(-0.0493878 0.137335 0)
(-0.00698916 0.11316 0)
(0.0349912 0.0881983 0)
(0.0725817 0.0635096 0)
(0.10452 0.0391942 0)
(0.139865 0.0228246 0)
(-0.2288 0.227925 0)
(-0.205936 0.218868 0)
(-0.177389 0.204867 0)
(-0.145133 0.187383 0)
(-0.109338 0.167351 0)
(-0.0702929 0.145475 0)
(-0.0288262 0.122942 0)
(0.0139538 0.100329 0)
(0.0557193 0.0779053 0)
(0.0927252 0.0564719 0)
(0.125237 0.0348493 0)
(0.16224 0.0201182 0)
(-0.221614 0.222999 0)
(-0.193778 0.208493 0)
(-0.161998 0.190243 0)
(-0.127385 0.169679 0)
(-0.0901563 0.147832 0)
(-0.0507672 0.126159 0)
(-0.00957449 0.105378 0)
(0.032681 0.0854983 0)
(0.0735155 0.0665693 0)
(0.109898 0.0486414 0)
(0.143418 0.0300246 0)
(0.18195 0.0173204 0)
(-0.209073 0.209757 0)
(-0.177473 0.19024 0)
(-0.14345 0.168315 0)
(-0.10775 0.14566 0)
(-0.0709481 0.124083 0)
(-0.0327247 0.10445 0)
(0.00727027 0.0865795 0)
(0.0482612 0.0700942 0)
(0.0878939 0.0548549 0)
(0.124209 0.0403959 0)
(0.158863 0.0247262 0)
(0.198603 0.014504 0)
(-0.191643 0.188215 0)
(-0.157487 0.164475 0)
(-0.122704 0.140395 0)
(-0.0883 0.118456 0)
(-0.0537091 0.0994062 0)
(-0.0175369 0.0828377 0)
(0.0208528 0.0682061 0)
(0.0605023 0.0550479 0)
(0.0993468 0.0430477 0)
(0.135856 0.0318004 0)
(0.171391 0.0191664 0)
(0.211981 0.0116928 0)
(-0.169954 0.159048 0)
(-0.135315 0.133193 0)
(-0.102815 0.110603 0)
(-0.0716181 0.0920477 0)
(-0.0395534 0.0764145 0)
(-0.00519409 0.0627362 0)
(0.0317535 0.0508099 0)
(0.0702061 0.0404873 0)
(0.108299 0.0314225 0)
(0.144755 0.0231372 0)
(0.180924 0.0135775 0)
(0.222012 0.00885105 0)
(-0.146042 0.124884 0)
(-0.114817 0.101378 0)
(-0.0864978 0.0830911 0)
(-0.0582101 0.0681639 0)
(-0.0279182 0.0552755 0)
(0.00504781 0.0441129 0)
(0.040525 0.0345837 0)
(0.0776088 0.0266811 0)
(0.114774 0.0201814 0)
(0.150992 0.0146545 0)
(0.187529 0.00809084 0)
(0.228707 0.00613241 0)
(-0.124413 0.0914899 0)
(-0.0985414 0.0731229 0)
(-0.0736202 0.0586584 0)
(-0.0471585 0.0463402 0)
(-0.0183042 0.035696 0)
(0.013233 0.026642 0)
(0.0472268 0.0192062 0)
(0.0828917 0.0134754 0)
(0.118984 0.00931915 0)
(0.154723 0.00639891 0)
(0.191288 0.00267506 0)
(0.232136 0.00379527 0)
(-0.107797 0.0626938 0)
(-0.0859027 0.0484353 0)
(-0.0629624 0.0363847 0)
(-0.0379425 0.0259718 0)
(-0.0104472 0.017104 0)
(0.0196657 0.00982494 0)
(0.052135 0.00424976 0)
(0.0862764 0.000536386 0)
(0.121101 -0.00139331 0)
(0.156077 -0.00181831 0)
(0.192383 -0.00280231 0)