/*--------------------------------*- C++ -*----------------------------------*\
| =========                 |                                                 |
| \\      /  F ield         | OpenFOAM: The Open Source CFD Toolbox           |
|  \\    /   O peration     | Version:  v2012                                 |
|   \\  /    A nd           | Website:  www.openfoam.com                      |
|    \\/     M anipulation  |                                                 |
\*---------------------------------------------------------------------------*/
FoamFile
{
    version     2.0;
    format      ascii;
    class       volScalarField;
    location    "572";
    object      age;
}
// * * * * * * * * * * * * * * * * * * * * * * * * * * * * * * * * * * * * * //

dimensions      [0 0 1 0 0 0 0];


internalField   nonuniform List<scalar> 
6598
(
0.0125023
0.0124995
0.0124997
0.0124998
0.0124998
0.0124998
0.0124998
0.0124997
0.0124995
0.0125023
0.0375127
0.0374962
0.0374966
0.0374973
0.0374976
0.0374976
0.0374973
0.0374966
0.0374962
0.0375127
0.062537
0.0624914
0.0624897
0.0624907
0.0624914
0.0624914
0.0624907
0.0624897
0.0624914
0.062537
0.0875758
0.0874865
0.0874789
0.0874792
0.0874799
0.0874799
0.0874791
0.0874788
0.0874864
0.0875758
0.112629
0.112482
0.112464
0.112462
0.112463
0.112463
0.112462
0.112464
0.112482
0.112629
0.137696
0.137478
0.137446
0.137441
0.13744
0.13744
0.13744
0.137446
0.137478
0.137696
0.162776
0.162475
0.162425
0.162414
0.162411
0.162411
0.162413
0.162425
0.162475
0.162776
0.187869
0.187474
0.187401
0.187382
0.187377
0.187377
0.187382
0.187401
0.187473
0.187869
0.212974
0.212473
0.212375
0.212346
0.212337
0.212337
0.212345
0.212374
0.212472
0.212973
0.23809
0.237473
0.237346
0.237306
0.237293
0.237293
0.237305
0.237344
0.237471
0.238088
0.263218
0.262473
0.262314
0.262262
0.262244
0.262243
0.26226
0.262312
0.262471
0.263214
0.288356
0.287475
0.28728
0.287214
0.28719
0.287189
0.287211
0.287276
0.287471
0.288351
0.313505
0.312478
0.312244
0.312162
0.312132
0.312131
0.312158
0.312239
0.312471
0.313496
0.338664
0.337482
0.337206
0.337107
0.33707
0.337068
0.337102
0.337198
0.337471
0.33865
0.363834
0.362488
0.362167
0.362049
0.362004
0.362002
0.362041
0.362154
0.362471
0.363818
0.389015
0.387495
0.387126
0.386989
0.386935
0.386931
0.386976
0.387107
0.38747
0.388971
0.414208
0.412505
0.412085
0.411926
0.411862
0.411855
0.411907
0.412056
0.412467
0.414223
0.439414
0.437519
0.437045
0.436861
0.436786
0.436776
0.436832
0.437
0.437461
0.439089
0.464635
0.462538
0.462006
0.461796
0.461707
0.461692
0.461752
0.461938
0.462451
0.465617
0.489872
0.487565
0.48697
0.486732
0.486627
0.486604
0.486665
0.486865
0.487426
0.485124
0.514769
0.512244
0.511584
0.511315
0.511192
0.511157
0.511214
0.511424
0.512029
0.53373
0.539329
0.53658
0.535851
0.535549
0.535404
0.535356
0.535406
0.535623
0.536273
0.566239
0.563918
0.560936
0.560133
0.559795
0.559627
0.559562
0.559604
0.559833
0.560517
0.598047
0.588543
0.585319
0.584436
0.58406
0.583865
0.583781
0.583816
0.584068
0.584774
0.629209
0.613211
0.609735
0.608768
0.60835
0.608126
0.608023
0.608052
0.608341
0.609063
0.65976
0.637934
0.634195
0.633136
0.632675
0.63242
0.632296
0.632323
0.632669
0.633399
0.689537
0.66272
0.658708
0.657551
0.657043
0.656757
0.656612
0.656642
0.657066
0.657796
0.718444
0.688029
0.683728
0.682463
0.681904
0.681583
0.681418
0.681457
0.681987
0.68271
0.747353
0.713879
0.709271
0.707886
0.707274
0.706915
0.70673
0.706786
0.707453
0.708159
0.775172
0.739846
0.73492
0.733404
0.732733
0.732336
0.732132
0.732214
0.73305
0.733724
0.801861
0.765952
0.760693
0.759034
0.758301
0.757863
0.757642
0.757759
0.758796
0.759432
0.827494
0.792224
0.786617
0.7848
0.784
0.783518
0.78328
0.783439
0.784708
0.785306
0.852157
0.81869
0.812722
0.810729
0.809854
0.809325
0.809069
0.809274
0.810802
0.811366
0.875898
0.845387
0.83904
0.83685
0.835894
0.835313
0.835036
0.835287
0.837091
0.837627
0.898792
0.872357
0.865615
0.863201
0.862153
0.861515
0.861212
0.861504
0.863592
0.864107
0.920938
0.899651
0.892495
0.889829
0.888676
0.887972
0.887637
0.887957
0.890323
0.890825
0.942469
0.92733
0.91974
0.916786
0.915512
0.914734
0.914356
0.914685
0.917305
0.917811
0.963602
0.955469
0.947422
0.944138
0.942723
0.941861
0.941426
0.941737
0.944567
0.945108
0.984632
0.984156
0.975628
0.971966
0.970385
0.969425
0.968919
0.969176
0.972152
0.972775
1.00591
1.0135
1.00446
1.00037
0.998588
0.997515
0.996921
0.997083
1.00012
1.00089
1.02781
1.04363
1.03405
1.02946
1.02744
1.02624
1.02554
1.02556
1.02854
1.02953
1.05038
1.07471
1.06455
1.05939
1.05708
1.05572
1.05489
1.05474
1.05754
1.05886
1.07295
1.10694
1.09615
1.09032
1.08766
1.08611
1.08515
1.08477
1.08725
1.08908
1.0958
1.14056
1.12907
1.12249
1.11938
1.11761
1.11648
1.11587
1.11786
1.12042
1.11908
1.17589
1.16361
1.15615
1.15249
1.15043
1.14912
1.14826
1.1496
1.15325
1.14229
1.21332
1.20013
1.19163
1.18729
1.18486
1.18332
1.18223
1.18275
1.18776
1.16981
1.2534
1.2391
1.22938
1.22416
1.22124
1.21941
1.2181
1.2177
1.22336
1.20868
1.29686
1.28116
1.26995
1.26362
1.26002
1.25778
1.25627
1.25503
1.25999
1.2526
1.34475
1.32717
1.31408
1.3063
1.30176
1.29895
1.29716
1.29532
1.29847
1.29743
1.39864
1.37844
1.36284
1.35312
1.34726
1.3436
1.34135
1.33917
1.34016
1.34209
1.46113
1.43689
1.41771
1.40529
1.39755
1.39263
1.3896
1.38716
1.38641
1.38825
1.53692
1.506
1.48126
1.46481
1.45423
1.44736
1.44304
1.44008
1.43823
1.43864
1.63572
1.59095
1.5565
1.53399
1.51938
1.50972
1.50339
1.49929
1.49659
1.49556
1.78503
1.71117
1.65487
1.61923
1.59677
1.58228
1.57283
1.56677
1.56295
1.56083
2.05781
1.87368
1.78157
1.72678
1.6935
1.67143
1.65632
1.64625
1.63991
1.63628
6.21852
3.02978
2.07599
1.87979
1.81171
1.7796
1.76
1.74587
1.73559
1.72867
13.5599
8.83591
4.39082
2.44539
2.0097
1.91266
1.87626
1.86008
1.85062
1.84412
12.4796
12.7439
9.61549
5.55596
3.27021
2.3298
2.08724
2.01748
1.98749
1.97279
12.0235
11.8985
12.5604
9.6668
6.6448
4.48456
3.29695
2.69241
2.42381
2.3103
11.5857
10.6859
10.2975
9.57486
8.16502
6.88334
5.92782
5.21138
4.67639
4.28796
131.246
154.732
155.331
158.282
161.162
164.882
168.97
173.166
177.657
182.182
185.962
188.794
190.743
191.936
192.446
192.589
192.727
192.864
193.004
193.15
193.308
193.489
193.716
194.106
196.308
127.315
147.635
144.331
147.183
152.361
160.459
171.43
184.562
199.166
214.146
228.258
240.49
250.115
256.807
260.546
261.055
258.064
251.657
242.25
230.651
218.257
207.053
199.069
195.292
195.837
120.508
145.016
142.929
143.124
146.063
154.669
169.954
191.081
216.999
245.743
274.518
300.501
321.657
336.879
345.703
347.952
343.761
333.155
316.216
293.425
266.333
238.378
214.82
200.028
195.893
113.469
144.047
142.836
142.697
143.056
148.621
164.669
190.849
226.204
268.378
312.737
353.981
388.473
414.129
429.774
434.757
429.071
413.265
388.241
355.076
315.352
272.578
233.724
206.808
196.464
106.394
143.856
143.064
142.792
142.53
144.35
156.998
183.998
224.069
275.218
331.68
385.938
432.755
468.967
492.225
501.82
496.03
475.896
443.598
401.602
352.231
298.908
248.97
212.575
197.064
98.323
144.016
143.959
143.552
142.455
142.378
149.314
172.393
211.571
265.082
326.991
388.982
444.184
488.378
518.255
533.864
528.125
506.727
470.57
423.864
369.638
311.348
256.402
215.615
197.439
89.6807
143.428
145.701
145.618
143.239
142.159
144.163
159.429
192.381
241.634
302.127
365.132
422.747
469.932
503.067
519.2
518.572
498.655
464.037
418.358
364.96
307.947
254.831
215.388
197.647
80.6471
141.577
147.723
148.841
145.446
142.322
141.967
148.782
171.331
210.516
262.894
320.528
374.768
419.786
452.433
470.122
470.889
454.669
425.144
384.653
337.112
287.583
243.446
212.792
200.293
71.4184
138.382
149.574
153.175
149.777
144.061
141.782
142.984
153.591
178.826
217.607
264.332
310.785
349.865
377.772
393.049
395.016
383.761
360.937
329.625
294.142
259.717
231.534
211.355
190.827
62.3123
133.717
150.923
157.633
155.671
148.308
142.721
141.509
143.806
154.392
176.56
207.882
242.902
274.993
298.855
312.368
315.382
308.65
293.734
273.021
249.262
224.579
199.419
173.032
147.512
53.5311
127.672
151.968
161.842
162.951
155.606
146.767
142.071
141.412
142.894
149.445
163.272
182.455
203.586
221.774
233.358
237.231
233.31
223.217
208.22
190.035
170.517
152.049
138.632
131.834
45.2509
119.802
152.084
165.358
170.726
165.493
155.597
146.609
142.002
140.883
140.994
142.68
146.568
152.41
159.049
164.085
165.851
163.787
158.335
151.314
144.33
138.293
134.712
134.203
137.765
37.5453
110.658
150.848
168.01
178.354
176.981
168.583
158.222
149.355
143.716
140.604
139.167
138.733
138.668
138.593
138.514
138.431
138.323
138.106
138.016
137.926
137.872
140.816
148.993
163.125
30.45
100.541
147.909
169.715
185.154
188.99
184.09
175.188
165.881
157.889
151.711
147.298
144.433
142.761
141.847
141.421
141.363
141.656
142.509
144.465
148.722
156.201
168.219
183.709
202.192
23.9934
89.687
143.026
170.199
190.661
200.673
200.689
194.908
187.051
179.307
172.536
166.995
162.785
159.907
158.331
158.044
159.057
161.601
166.047
172.878
182.487
194.741
209.76
226.925
245.892
18.1452
77.9013
135.913
169.106
194.281
211.217
217.562
216.518
212.114
206.783
201.764
197.545
194.365
192.405
191.814
192.727
195.386
199.989
206.707
215.646
226.766
239.902
254.874
271.447
289.427
13.2432
65.262
126.224
165.908
195.438
219.213
232.351
237.056
237.129
235.347
233.24
231.54
230.58
230.575
231.725
234.27
238.384
244.182
251.724
261.001
271.946
284.47
298.472
313.864
330.543
9.42914
52.2487
113.692
159.858
193.679
223.582
243.829
254.901
260.128
262.39
263.556
264.618
266.063
268.169
271.14
275.156
280.347
286.798
294.552
303.618
313.991
325.66
338.608
352.812
368.222
6.58985
39.5276
98.3231
150.082
188.596
223.193
250.724
268.44
279.286
286.04
290.78
294.728
298.555
302.626
307.185
312.403
318.406
325.285
333.106
341.911
351.741
362.631
374.611
387.699
401.887
4.56008
27.8558
80.5589
135.749
179.402
217.566
251.416
276.184
293.048
304.735
313.354
320.362
326.615
332.611
338.663
344.978
351.706
358.963
366.844
375.424
384.772
394.947
406.003
417.991
430.939
3.17678
17.9415
61.632
116.636
165.008
206.43
244.59
276.37
299.666
316.669
329.623
339.987
348.868
356.915
364.535
371.996
379.487
387.157
395.126
403.502
412.382
421.85
431.979
442.84
454.487
2.28808
10.3657
42.3999
93.1448
144.403
189.227
230.041
266.911
297.022
319.97
337.488
351.677
363.557
373.913
383.292
392.046
400.411
408.568
416.672
424.863
433.273
442.017
451.195
460.896
471.191
1.74688
5.84016
25.6147
67.221
117.36
164.911
207.873
247.424
282.59
311.763
334.793
353.162
368.319
381.301
392.761
403.044
412.447
421.206
429.52
437.575
445.543
453.581
461.822
470.371
479.315
1.4447
3.43904
13.3527
42.552
85.9461
133.08
177.638
218.61
256.167
289.598
317.989
341.357
360.509
376.479
390.165
402.141
412.774
422.331
431.041
439.124
446.795
454.248
461.647
469.118
476.764
1.2976
2.2302
6.10868
22.2332
54.2618
95.7301
139.248
180.731
219.101
254.171
285.567
312.917
336.221
355.87
372.458
386.568
398.681
409.188
418.435
426.721
434.307
441.411
448.204
454.817
461.364
1.23999
1.63017
3.07994
9.47817
28.1753
58.5501
95.7896
134.805
172.48
207.553
239.625
268.513
294.132
316.53
335.889
352.463
366.558
378.54
388.805
397.713
405.572
412.639
419.113
425.153
430.884
1.23436
1.36916
1.92736
3.62362
11.1218
28.4773
54.5316
85.9847
119.349
152.157
183.078
211.536
237.339
260.477
280.994
298.931
314.415
327.686
339.046
348.803
357.239
364.604
371.111
376.936
382.218
1.25292
1.29624
1.4572
1.92631
3.60693
10.1002
23.7126
43.7332
68.1153
94.5613
121.212
146.848
170.798
192.769
212.63
230.299
245.812
259.307
270.977
281.038
289.704
297.183
303.66
309.302
314.243
1.29171
1.30116
1.3278
1.44145
1.5776
2.54375
6.49377
15.1742
28.6454
45.5547
64.4261
83.9868
103.287
121.71
138.864
154.494
168.503
180.9
191.764
201.216
209.392
216.437
222.493
227.695
232.152
1.33926
1.33768
1.33854
1.35601
1.39974
1.52373
1.636
2.8909
6.53896
13.1282
22.8081
34.3116
46.7486
59.435
71.8369
83.5799
94.436
104.288
113.1
120.887
127.701
133.618
138.718
143.089
146.806
1.38895
1.38796
1.38398
1.37913
1.38609
1.41403
1.45632
1.54574
1.63329
1.85549
3.36255
6.26631
10.5234
15.9458
22.3647
29.0738
35.6714
41.9372
47.7453
53.0257
57.7534
61.9323
65.5831
68.7415
71.4404
1.44036
1.44185
1.44162
1.43787
1.43393
1.43371
1.44323
1.46714
1.50118
1.55057
1.60843
1.65935
1.71214
1.76276
2.28704
3.25221
4.56024
6.10795
7.79832
9.54545
11.2809
12.9516
14.5186
15.9566
17.2511
1.49643
1.49856
1.50114
1.50255
1.50224
1.49957
1.49873
1.50022
1.51203
1.52533
1.55003
1.57853
1.60943
1.63876
1.68323
1.7186
1.75098
1.78314
1.8152
1.8471
1.87881
1.91027
1.94144
1.97229
2.00282
1.56045
1.56174
1.56452
1.5682
1.57203
1.57481
1.57682
1.57833
1.57973
1.58405
1.59166
1.6035
1.62037
1.63673
1.65607
1.67902
1.70306
1.72753
1.75221
1.77699
1.80179
1.82661
1.85142
1.87619
1.90093
1.63474
1.63497
1.63686
1.64031
1.64507
1.65068
1.65658
1.66258
1.66808
1.6738
1.68011
1.68729
1.69584
1.70654
1.71865
1.73239
1.74768
1.76429
1.78198
1.80149
1.822
1.84192
1.86181
1.88175
1.90222
1.72465
1.723
1.72333
1.72547
1.72928
1.73462
1.74124
1.74892
1.75735
1.76631
1.77572
1.78558
1.79587
1.80686
1.81864
1.83121
1.8446
1.85883
1.87384
1.88952
1.90586
1.92287
1.94049
1.95862
1.9772
1.83971
1.83714
1.83623
1.83697
1.83929
1.84316
1.84851
1.85522
1.86319
1.87229
1.88236
1.89328
1.90495
1.9173
1.93028
1.94387
1.95804
1.97277
1.98803
2.00378
2.02
2.03665
2.05371
2.07115
2.08894
1.96653
1.96487
1.96575
1.96833
1.97223
1.97728
1.9834
1.99056
1.99872
2.00786
2.01793
2.02888
2.04064
2.05316
2.06637
2.08022
2.09465
2.10961
2.12505
2.14094
2.15723
2.17389
2.19088
2.20817
2.22574
2.25518
2.22473
2.20693
2.19696
2.19219
2.1911
2.19277
2.19661
2.20223
2.20936
2.21779
2.22738
2.238
2.24954
2.26191
2.27503
2.28883
2.30323
2.31818
2.33363
2.34951
2.36579
2.38242
2.39936
2.41666
4.02459
3.84786
3.72395
3.63332
3.56488
3.51222
3.47145
3.43996
3.41593
3.398
3.38516
3.37659
3.37166
3.36986
3.37076
3.37396
3.37919
3.38619
3.39475
3.40468
3.41581
3.428
3.44112
3.45506
3.4698
198.655
165.207
126.739
156.808
134.903
126.886
131.602
128.261
132.127
131.393
137.667
150.571
147.446
163.443
181.495
180.73
199.757
220.074
221.749
241.269
261.823
265.035
283.923
303.65
307.442
325.231
343.793
347.296
363.892
381.273
383.742
399.168
415.391
416.191
430.441
445.465
443.981
456.984
470.712
466.18
477.832
490.137
481.463
491.67
502.438
488.149
496.863
505.997
484.169
491.373
498.868
467.52
473.357
479.316
436.077
440.832
445.546
386.803
390.826
394.664
318.373
321.848
325.026
235.78
238.732
241.332
149.795
152.183
154.235
73.615
75.347
76.8263
18.3274
19.22
20.0033
2.02931
2.05547
2.08138
1.92481
1.94743
1.9696
1.92205
1.94089
1.95993
1.99495
2.0118
2.02887
2.1059
2.12198
2.13825
2.24243
2.25821
2.27414
2.43265
2.44809
2.46366
3.48323
3.49699
3.51102
161.182
131.904
125.426
124.716
124.336
124.097
123.935
123.809
123.691
123.583
123.482
123.386
123.296
123.21
123.127
123.046
122.969
122.893
122.819
122.746
122.675
122.605
122.536
122.468
122.401
122.334
122.268
122.202
122.137
122.072
122.007
121.942
121.878
121.813
121.748
121.683
121.618
121.552
121.486
121.42
121.353
121.284
121.215
121.145
121.073
120.999
120.923
120.845
120.762
120.673
120.573
120.467
120.386
120.325
120.261
120.203
120.159
120.141
120.134
120.134
120.243
120.411
120.597
120.758
121.012
121.342
121.8
122.268
122.677
122.992
123.205
123.315
123.416
123.517
123.622
123.733
123.857
124.003
124.318
125.734
137.431
127.34
125.089
124.698
124.524
124.48
124.533
124.647
124.812
125.016
125.247
125.495
125.75
126.006
126.258
126.501
126.733
126.952
127.157
127.346
127.52
127.678
127.821
127.946
128.056
128.149
128.225
128.285
128.327
128.351
128.358
128.345
128.313
128.26
128.184
128.071
127.917
127.72
127.478
127.187
126.848
126.463
126.031
125.554
125.033
124.472
123.878
123.259
122.626
121.996
121.388
120.825
120.337
119.979
119.806
119.673
119.503
119.3
119.196
119.095
119.045
119.164
119.525
120.101
121.137
122.712
124.663
126.902
129.177
131.174
132.618
133.315
133.132
132.114
130.427
128.389
126.462
125.12
124.565
125.501
130.613
125.826
125.081
124.948
125.163
125.722
126.67
128.053
129.806
131.828
134.036
136.351
138.707
141.052
143.349
145.572
147.702
149.727
151.642
153.441
155.124
156.69
158.139
159.472
160.689
161.791
162.776
163.645
164.395
165.024
165.53
165.909
166.156
166.267
166.242
166.088
165.795
165.355
164.754
163.985
163.041
161.912
160.588
159.057
157.309
155.334
153.121
150.664
147.957
145.003
141.809
138.399
134.82
131.179
127.76
124.692
122.141
120.295
119.318
119.096
118.812
118.732
118.904
119.552
121.067
123.789
127.537
132.496
137.949
143.13
147.016
149.313
149.358
147.286
143.298
137.994
132.441
127.981
125.408
125.435
128.358
125.528
125.251
125.755
127.237
129.86
133.628
138.31
143.567
149.161
154.861
160.496
165.95
171.149
176.054
180.647
184.925
188.894
192.567
195.957
199.08
201.951
204.582
206.987
209.174
211.153
212.93
214.51
215.895
217.086
218.083
218.882
219.481
219.872
220.049
220.005
219.734
219.22
218.447
217.402
216.067
214.426
212.458
210.143
207.459
204.381
200.887
196.953
192.557
187.679
182.304
176.423
170.039
163.179
155.903
148.33
140.668
133.28
126.853
122.226
119.482
118.716
118.504
118.646
119.621
122.312
126.749
133.48
141.619
150.086
156.702
160.706
160.618
158.513
153.685
146.12
137.748
130.673
126.362
125.594
127.468
125.538
125.89
128.102
132.419
138.842
146.91
155.975
165.472
174.992
184.243
193.054
201.336
209.058
216.222
222.85
228.973
234.626
239.844
244.661
249.106
253.205
256.981
260.453
263.636
266.542
269.179
271.555
273.671
275.53
277.128
278.463
279.527
280.313
280.809
281.005
280.884
280.432
279.627
278.45
276.876
274.882
272.441
269.524
266.101
262.14
257.608
252.471
246.695
240.25
233.105
225.239
216.633
207.283
197.21
186.458
175.118
163.37
151.524
140.12
130.072
122.993
119.168
118.409
118.291
119.362
122.232
127.937
136.043
145.63
153.916
159.175
161.247
160.206
155.75
148.003
139.245
131.61
126.744
125.798
127.004
125.7
127.756
133.171
141.93
153.314
166.252
179.779
193.22
206.171
218.415
229.867
240.517
250.393
259.542
268.018
275.875
283.163
289.929
296.212
302.049
307.468
312.496
317.153
321.457
325.419
329.049
332.354
335.335
337.993
340.325
342.324
343.982
345.288
346.228
346.786
346.942
346.678
345.968
344.787
343.107
340.897
338.124
334.755
330.752
326.078
320.693
314.558
307.633
299.881
291.267
281.761
271.334
259.972
247.685
234.486
220.405
205.534
190.014
174.124
158.341
143.425
130.697
122.366
118.337
118.013
118.345
120.369
124.953
132.767
140.752
147.773
151.615
151.962
148.883
143.36
136.69
130.593
126.784
125.995
126.683
126.499
131.866
142.334
156.649
173.25
190.711
208.042
224.682
240.384
255.074
268.764
281.506
293.367
304.414
314.712
324.32
333.291
341.673
349.507
356.829
363.671
370.059
376.013
381.552
386.689
391.433
395.789
399.759
403.343
406.534
409.324
411.703
413.656
415.165
416.21
416.768
416.814
416.32
415.257
413.59
411.286
408.306
404.611
400.161
394.913
388.825
381.856
373.964
365.108
355.255
344.371
332.432
319.421
305.349
290.22
274.041
256.873
238.779
219.919
200.576
181.119
162.165
144.733
130.434
121.702
117.793
117.672
117.742
120.238
124.812
130.935
135.983
138.23
137.891
135.476
131.995
128.639
126.645
126.182
126.622
129.879
141.292
157.925
177.769
198.851
219.862
240.075
259.18
277.115
293.909
309.631
324.357
338.158
351.102
363.252
374.663
385.386
395.468
404.948
413.864
422.246
430.119
437.507
444.425
450.886
456.898
462.465
467.587
472.26
476.475
480.221
483.484
486.243
488.477
490.16
491.263
491.757
491.606
490.777
489.234
486.936
483.841
479.909
475.095
469.356
462.651
454.938
446.177
436.332
425.371
413.266
400
385.562
369.962
353.209
335.326
316.375
296.404
275.526
253.927
231.814
209.494
187.435
166.346
147.328
132.007
122.515
117.523
116.194
116.097
117.385
120.78
124.474
127.589
129.114
128.876
127.979
127.352
126.68
130.053
141.186
159.401
181.468
205.415
229.51
252.859
275.072
296.056
315.844
334.503
352.104
368.715
384.4
399.216
413.22
426.462
438.992
450.851
462.079
472.712
482.777
492.3
501.299
509.791
517.784
525.283
532.289
538.796
544.796
550.276
555.216
559.596
563.388
566.563
569.088
570.925
572.036
572.378
571.909
570.588
568.371
565.214
561.072
555.904
549.669
542.33
533.852
524.207
513.367
501.313
488.029
473.509
457.755
440.78
422.606
403.274
382.848
361.398
339.035
315.915
292.211
268.138
243.967
220.047
196.845
174.982
155.255
138.758
126.971
119.301
114.6
112.277
111.576
111.507
111.427
111.157
109.837
107.596
104.775
143.653
162.827
186.225
211.827
238.002
263.654
288.325
311.864
334.267
355.579
375.851
395.133
413.475
430.928
447.541
463.363
478.441
492.82
506.539
519.634
532.137
544.072
555.461
566.319
576.655
586.473
595.772
604.545
612.779
620.456
627.552
634.039
639.882
645.044
649.481
653.145
655.987
657.953
658.989
659.041
658.052
655.976
652.763
648.369
642.754
635.886
627.74
618.299
607.553
595.502
582.151
567.512
551.605
534.454
516.093
496.56
475.906
454.198
431.518
407.98
383.728
358.936
333.809
308.585
283.539
258.982
235.267
212.789
191.996
173.368
157.421
144.379
134.275
127.123
122.498
119.753
118.522
118.781
120.88
126.456
169.36
193.424
219.747
246.891
273.849
300.107
325.473
349.893
373.369
395.914
417.552
438.31
458.224
477.334
495.684
513.317
530.275
546.599
562.323
577.479
592.093
606.184
619.768
632.853
645.439
657.521
669.089
680.123
690.596
700.478
709.727
718.298
726.137
733.185
739.377
744.645
748.915
752.111
754.158
754.981
754.506
752.666
749.407
744.679
738.446
730.688
721.398
710.586
698.277
684.51
669.337
652.82
635.028
616.035
595.914
574.739
552.586
529.532
505.663
481.083
455.917
430.321
404.477
378.601
352.938
327.754
303.335
279.984
258.014
237.752
219.519
203.611
190.266
179.664
171.94
167.216
165.644
167.5
173.42
183.602
204.05
230.194
257.366
284.639
311.55
337.896
363.585
388.571
412.827
436.34
459.112
481.159
502.509
523.195
543.256
562.732
581.661
600.079
618.017
635.499
652.547
669.173
685.384
701.176
716.543
731.464
745.915
759.859
773.253
786.041
798.163
809.544
820.104
829.753
838.393
845.923
852.233
857.212
860.752
862.745
863.09
861.696
858.482
853.391
846.388
837.462
826.628
813.931
799.44
783.251
765.481
746.263
725.743
704.068
681.388
657.839
633.552
608.641
583.21
557.361
531.201
504.849
478.453
452.189
426.268
400.926
376.42
353.017
330.989
310.607
292.139
275.851
262.006
250.859
242.657
237.644
236.054
238.122
244.054
253.625
243.708
270.007
296.774
323.505
350.005
376.171
401.932
427.227
452.01
476.258
499.966
523.145
545.821
568.026
589.796
611.168
632.179
652.859
673.237
693.332
713.159
732.722
752.019
771.036
789.751
808.132
826.133
843.699
860.762
877.242
893.046
908.067
922.189
935.281
947.201
957.799
966.919
974.401
980.084
983.815
985.449
984.86
981.94
976.601
968.802
958.54
945.85
930.814
913.555
894.238
873.057
850.235
826.012
800.634
774.346
747.381
719.951
692.242
664.411
636.586
608.874
581.371
554.174
527.399
501.188
475.719
451.202
427.87
405.97
385.752
367.459
351.33
337.599
326.502
318.267
313.072
311.022
312.138
316.333
323.239
284.976
310.455
336.32
362.302
388.26
414.089
439.725
465.112
490.209
514.993
539.464
563.636
587.534
611.194
634.649
657.938
681.094
704.148
727.123
750.036
772.895
795.697
818.432
841.074
863.588
885.925
908.024
929.806
951.181
972.039
992.254
1011.68
1030.17
1047.52
1063.56
1078.08
1090.84
1101.63
1110.22
1116.39
1119.93
1120.67
1118.47
1113.18
1104.74
1093.16
1078.51
1060.9
1040.5
1017.56
992.363
965.232
936.513
906.563
875.733
844.362
812.761
781.206
749.933
719.131
688.948
659.492
630.845
603.074
576.249
550.457
525.817
502.478
480.621
460.447
442.161
425.971
412.083
400.708
392.033
386.144
383.013
382.516
384.422
388.379
325.703
350.032
374.878
400.05
425.39
450.765
476.117
501.415
526.637
551.776
576.837
601.843
626.82
651.806
676.836
701.949
727.178
752.552
778.094
803.815
829.72
855.802
882.04
908.402
934.844
961.304
987.707
1013.96
1039.95
1065.55
1090.6
1114.92
1138.32
1160.56
1181.38
1200.52
1217.67
1232.54
1244.79
1254.14
1260.28
1262.98
1262
1257.2
1248.42
1235.7
1219.17
1199.03
1175.49
1148.84
1119.45
1087.76
1054.22
1019.3
983.467
947.164
910.793
874.718
839.25
804.648
771.116
738.806
707.824
678.236
650.087
623.409
598.233
574.611
552.616
532.345
513.918
497.47
483.158
471.169
461.645
454.601
449.933
447.45
446.875
447.876
364.625
387.75
411.546
435.841
460.468
485.279
510.206
535.248
560.411
585.704
611.142
636.753
662.568
688.623
714.958
741.609
768.61
795.987
823.761
851.943
880.532
909.52
938.882
968.584
998.577
1028.8
1059.17
1089.58
1119.93
1150.06
1179.8
1208.94
1237.25
1264.43
1290.17
1314.12
1335.91
1355.13
1371.39
1384.3
1393.48
1398.61
1399.44
1395.8
1387.33
1374.09
1356.08
1333.7
1307.44
1277.58
1244.49
1208.71
1170.78
1131.27
1090.76
1049.77
1008.81
968.302
928.625
890.091
852.95
817.391
783.55
751.515
721.34
693.048
666.644
642.122
619.474
598.698
579.809
562.839
547.878
535.059
524.453
516.014
509.595
504.956
501.789
499.731
400.895
422.802
445.491
468.799
492.578
516.683
541.035
565.637
590.518
615.705
641.22
667.094
693.359
720.052
747.207
774.86
803.041
831.774
861.076
890.956
921.41
952.427
983.985
1016.05
1048.57
1081.49
1114.73
1148.19
1181.74
1215.23
1248.45
1281.18
1313.11
1343.93
1373.25
1400.65
1425.72
1448
1467.04
1482.4
1493.64
1500.51
1502.99
1501.26
1495.55
1485.19
1468.99
1446.27
1418.52
1386.64
1351.23
1312.8
1271.98
1229.35
1185.55
1141.19
1096.83
1052.97
1010.04
968.372
928.266
889.936
853.539
819.177
786.913
756.773
728.758
702.848
679.008
657.19
637.338
619.414
603.442
589.477
577.505
567.426
559.054
552.123
546.3
541.211
433.786
454.413
475.885
498.058
520.808
544.009
567.575
591.495
615.804
640.534
665.711
691.365
717.526
744.223
771.488
799.349
827.828
856.945
886.71
917.127
948.192
979.89
1012.19
1045.07
1078.48
1112.35
1146.61
1181.16
1215.87
1250.58
1285.08
1319.13
1352.44
1384.65
1415.39
1444.25
1470.78
1494.41
1514.2
1528.27
1535.36
1537.07
1535.48
1533.7
1531.6
1528.91
1523.75
1510.4
1486.03
1454.37
1418.97
1380.4
1339.3
1296.22
1251.77
1206.55
1161.16
1116.14
1071.95
1028.96
987.492
947.778
909.999
874.279
840.693
809.272
780.016
752.894
727.859
704.855
683.812
664.676
647.435
632.08
618.537
606.66
596.232
586.964
578.506
570.481
462.553
481.776
501.871
522.718
544.214
566.248
588.733
611.639
634.985
658.798
683.101
707.916
733.267
759.177
785.665
812.748
840.44
868.747
897.674
927.214
957.351
988.057
1019.31
1051.08
1083.32
1115.96
1148.92
1182.12
1215.42
1248.68
1281.71
1314.29
1346.17
1377.03
1406.54
1434.35
1460.07
1483.22
1503.75
1517.36
1525.17
1529.52
1531.61
1532.5
1532.01
1529.17
1522.26
1509.24
1488.71
1460.98
1428.81
1393.37
1355.32
1315.18
1273.48
1230.76
1187.57
1144.47
1101.89
1060.23
1019.81
980.884
943.644
908.239
874.771
843.295
813.825
786.337
760.778
737.081
715.183
695.043
676.637
659.927
644.824
631.176
618.763
607.287
596.379
585.644
486.358
504.005
522.519
541.8
561.763
582.301
603.325
624.787
646.686
669.031
691.833
715.103
738.848
763.072
787.788
813.006
838.726
864.946
891.656
918.843
946.484
974.542
1002.99
1031.79
1060.88
1090.21
1119.7
1149.26
1178.79
1208.15
1237.18
1265.73
1293.58
1320.5
1346.23
1370.48
1393
1413.19
1432.05
1448.13
1460.46
1469.1
1474.22
1475.8
1473.55
1467.26
1456.74
1441.9
1422.88
1400
1373.66
1344.26
1312.22
1278.01
1242.1
1204.99
1167.15
1129.03
1091.04
1053.53
1016.81
981.124
946.685
913.645
882.128
852.218
823.951
797.329
772.324
748.878
726.938
706.474
687.46
669.851
653.56
638.456
624.354
610.989
598.003
584.992
504.179
520.045
536.737
554.174
572.279
590.944
610.07
629.594
649.486
669.74
690.36
711.343
732.683
754.372
776.405
798.781
821.492
844.527
867.868
891.493
915.377
939.486
963.781
988.22
1012.75
1037.32
1061.85
1086.28
1110.5
1134.42
1157.92
1180.86
1203.11
1224.5
1244.84
1263.92
1281.55
1297.44
1311.47
1323.46
1333.12
1340.17
1344.36
1345.47
1343.47
1338.28
1329.89
1318.31
1303.65
1286.04
1265.68
1242.82
1217.74
1190.75
1162.2
1132.42
1101.77
1070.56
1039.12
1007.74
976.679
946.161
916.368
887.453
859.544
832.733
807.076
782.596
759.291
737.139
716.114
696.191
677.351
659.558
642.747
626.816
611.619
596.937
582.451
567.775
514.722
528.605
543.233
558.526
574.41
590.781
607.549
624.64
642.009
659.632
677.495
695.588
713.894
732.398
751.082
769.934
788.937
808.076
827.328
846.671
866.079
885.526
904.979
924.4
943.745
962.96
981.993
1000.78
1019.27
1037.35
1054.96
1072
1088.35
1103.93
1118.59
1132.2
1144.64
1155.74
1165.36
1173.35
1179.58
1183.91
1186.22
1186.38
1184.36
1180.1
1173.6
1164.86
1153.93
1140.9
1125.87
1108.99
1090.41
1070.33
1048.95
1026.48
1003.14
979.162
954.748
930.105
905.421
880.867
856.584
832.699
809.322
786.541
764.417
742.985
722.263
702.252
682.946
664.339
646.422
629.171
612.542
596.463
580.831
565.483
550.153
534.486
516.389
528.108
540.428
553.309
566.675
580.433
594.497
608.797
623.282
637.914
652.666
667.514
682.44
697.424
712.446
727.488
742.531
757.558
772.547
787.477
802.328
817.08
831.709
846.189
860.487
874.562
888.372
901.875
915.02
927.747
939.995
951.701
962.8
973.222
982.89
991.728
999.65
1006.58
1012.42
1017.1
1020.53
1022.65
1023.38
1022.67
1020.5
1016.84
1011.68
1005.03
996.906
987.355
976.431
964.21
950.78
936.242
920.71
904.304
887.153
869.384
851.129
832.513
813.655
794.664
775.637
756.659
737.811
719.16
700.758
682.643
664.838
647.353
630.195
613.363
596.857
580.663
564.753
549.082
533.584
518.148
502.571
486.542
507.349
516.867
526.801
537.144
547.849
558.841
570.046
581.402
592.861
604.384
615.937
627.493
639.029
650.524
661.959
673.317
684.584
695.743
706.776
717.666
728.396
738.952
749.316
759.471
769.393
779.054
788.424
797.474
806.172
814.481
822.362
829.778
836.689
843.058
848.843
854
858.487
862.258
865.272
867.485
868.859
869.355
868.942
867.598
865.304
862.047
857.818
852.62
846.462
839.362
831.348
822.453
812.721
802.202
790.952
779.033
766.51
753.451
739.927
726.005
711.752
697.23
682.495
667.6
652.593
637.518
622.41
607.297
592.198
577.125
562.085
547.083
532.119
517.187
502.273
487.348
472.375
457.286
441.94
426.083
485.964
493.346
500.978
508.859
516.965
525.254
533.672
542.169
550.704
559.244
567.762
576.233
584.637
592.954
601.168
609.264
617.229
625.051
632.717