/*--------------------------------*- C++ -*----------------------------------*\
| =========                 |                                                 |
| \\      /  F ield         | OpenFOAM: The Open Source CFD Toolbox           |
|  \\    /   O peration     | Version:  v2012                                 |
|   \\  /    A nd           | Website:  www.openfoam.com                      |
|    \\/     M anipulation  |                                                 |
\*---------------------------------------------------------------------------*/
FoamFile
{
    version     2.0;
    format      ascii;
    class       volVectorField;
    location    "572";
    object      C;
}
// * * * * * * * * * * * * * * * * * * * * * * * * * * * * * * * * * * * * * //

dimensions      [0 1 0 0 0 0 0];


internalField   nonuniform List<vector> 
6598
(
(0.01 1.4875 -0.005)
(0.03 1.4875 -0.005)
(0.05 1.4875 -0.005)
(0.07 1.4875 -0.005)
(0.09 1.4875 -0.005)
(0.11 1.4875 -0.005)
(0.13 1.4875 -0.005)
(0.15 1.4875 -0.005)
(0.17 1.4875 -0.005)
(0.19 1.4875 -0.005)
(0.01 1.4625 -0.005)
(0.03 1.4625 -0.005)
(0.05 1.4625 -0.005)
(0.07 1.4625 -0.005)
(0.09 1.4625 -0.005)
(0.11 1.4625 -0.005)
(0.13 1.4625 -0.005)
(0.15 1.4625 -0.005)
(0.17 1.4625 -0.005)
(0.19 1.4625 -0.005)
(0.01 1.4375 -0.005)
(0.03 1.4375 -0.005)
(0.05 1.4375 -0.005)
(0.07 1.4375 -0.005)
(0.09 1.4375 -0.005)
(0.11 1.4375 -0.005)
(0.13 1.4375 -0.005)
(0.15 1.4375 -0.005)
(0.17 1.4375 -0.005)
(0.19 1.4375 -0.005)
(0.01 1.4125 -0.005)
(0.03 1.4125 -0.005)
(0.05 1.4125 -0.005)
(0.07 1.4125 -0.005)
(0.09 1.4125 -0.005)
(0.11 1.4125 -0.005)
(0.13 1.4125 -0.005)
(0.15 1.4125 -0.005)
(0.17 1.4125 -0.005)
(0.19 1.4125 -0.005)
(0.01 1.3875 -0.005)
(0.03 1.3875 -0.005)
(0.05 1.3875 -0.005)
(0.07 1.3875 -0.005)
(0.09 1.3875 -0.005)
(0.11 1.3875 -0.005)
(0.13 1.3875 -0.005)
(0.15 1.3875 -0.005)
(0.17 1.3875 -0.005)
(0.19 1.3875 -0.005)
(0.01 1.3625 -0.005)
(0.03 1.3625 -0.005)
(0.05 1.3625 -0.005)
(0.07 1.3625 -0.005)
(0.09 1.3625 -0.005)
(0.11 1.3625 -0.005)
(0.13 1.3625 -0.005)
(0.15 1.3625 -0.005)
(0.17 1.3625 -0.005)
(0.19 1.3625 -0.005)
(0.01 1.3375 -0.005)
(0.03 1.3375 -0.005)
(0.05 1.3375 -0.005)
(0.07 1.3375 -0.005)
(0.09 1.3375 -0.005)
(0.11 1.3375 -0.005)
(0.13 1.3375 -0.005)
(0.15 1.3375 -0.005)
(0.17 1.3375 -0.005)
(0.19 1.3375 -0.005)
(0.01 1.3125 -0.005)
(0.03 1.3125 -0.005)
(0.05 1.3125 -0.005)
(0.07 1.3125 -0.005)
(0.09 1.3125 -0.005)
(0.11 1.3125 -0.005)
(0.13 1.3125 -0.005)
(0.15 1.3125 -0.005)
(0.17 1.3125 -0.005)
(0.19 1.3125 -0.005)
(0.01 1.2875 -0.005)
(0.03 1.2875 -0.005)
(0.05 1.2875 -0.005)
(0.07 1.2875 -0.005)
(0.09 1.2875 -0.005)
(0.11 1.2875 -0.005)
(0.13 1.2875 -0.005)
(0.15 1.2875 -0.005)
(0.17 1.2875 -0.005)
(0.19 1.2875 -0.005)
(0.01 1.2625 -0.005)
(0.03 1.2625 -0.005)
(0.05 1.2625 -0.005)
(0.07 1.2625 -0.005)
(0.09 1.2625 -0.005)
(0.11 1.2625 -0.005)
(0.13 1.2625 -0.005)
(0.15 1.2625 -0.005)
(0.17 1.2625 -0.005)
(0.19 1.2625 -0.005)
(0.01 1.2375 -0.005)
(0.03 1.2375 -0.005)
(0.05 1.2375 -0.005)
(0.07 1.2375 -0.005)
(0.09 1.2375 -0.005)
(0.11 1.2375 -0.005)
(0.13 1.2375 -0.005)
(0.15 1.2375 -0.005)
(0.17 1.2375 -0.005)
(0.19 1.2375 -0.005)
(0.01 1.2125 -0.005)
(0.03 1.2125 -0.005)
(0.05 1.2125 -0.005)
(0.07 1.2125 -0.005)
(0.09 1.2125 -0.005)
(0.11 1.2125 -0.005)
(0.13 1.2125 -0.005)
(0.15 1.2125 -0.005)
(0.17 1.2125 -0.005)
(0.19 1.2125 -0.005)
(0.01 1.1875 -0.005)
(0.03 1.1875 -0.005)
(0.05 1.1875 -0.005)
(0.07 1.1875 -0.005)
(0.09 1.1875 -0.005)
(0.11 1.1875 -0.005)
(0.13 1.1875 -0.005)
(0.15 1.1875 -0.005)
(0.17 1.1875 -0.005)
(0.19 1.1875 -0.005)
(0.01 1.1625 -0.005)
(0.03 1.1625 -0.005)
(0.05 1.1625 -0.005)
(0.07 1.1625 -0.005)
(0.09 1.1625 -0.005)
(0.11 1.1625 -0.005)
(0.13 1.1625 -0.005)
(0.15 1.1625 -0.005)
(0.17 1.1625 -0.005)
(0.19 1.1625 -0.005)
(0.01 1.1375 -0.005)
(0.03 1.1375 -0.005)
(0.05 1.1375 -0.005)
(0.07 1.1375 -0.005)
(0.09 1.1375 -0.005)
(0.11 1.1375 -0.005)
(0.13 1.1375 -0.005)
(0.15 1.1375 -0.005)
(0.17 1.1375 -0.005)
(0.19 1.1375 -0.005)
(0.01 1.1125 -0.005)
(0.03 1.1125 -0.005)
(0.05 1.1125 -0.005)
(0.07 1.1125 -0.005)
(0.09 1.1125 -0.005)
(0.11 1.1125 -0.005)
(0.13 1.1125 -0.005)
(0.15 1.1125 -0.005)
(0.17 1.1125 -0.005)
(0.19 1.1125 -0.005)
(0.01 1.0875 -0.005)
(0.03 1.0875 -0.005)
(0.05 1.0875 -0.005)
(0.07 1.0875 -0.005)
(0.09 1.0875 -0.005)
(0.11 1.0875 -0.005)
(0.13 1.0875 -0.005)
(0.15 1.0875 -0.005)
(0.17 1.0875 -0.005)
(0.19 1.0875 -0.005)
(0.01 1.0625 -0.005)
(0.03 1.0625 -0.005)
(0.05 1.0625 -0.005)
(0.07 1.0625 -0.005)
(0.09 1.0625 -0.005)
(0.11 1.0625 -0.005)
(0.13 1.0625 -0.005)
(0.15 1.0625 -0.005)
(0.17 1.0625 -0.005)
(0.19 1.0625 -0.005)
(0.01 1.0375 -0.005)
(0.03 1.0375 -0.005)
(0.05 1.0375 -0.005)
(0.07 1.0375 -0.005)
(0.09 1.0375 -0.005)
(0.11 1.0375 -0.005)
(0.13 1.0375 -0.005)
(0.15 1.0375 -0.005)
(0.17 1.0375 -0.005)
(0.19 1.0375 -0.005)
(0.01 1.0125 -0.005)
(0.03 1.0125 -0.005)
(0.05 1.0125 -0.005)
(0.07 1.0125 -0.005)
(0.09 1.0125 -0.005)
(0.11 1.0125 -0.005)
(0.13 1.0125 -0.005)
(0.15 1.0125 -0.005)
(0.17 1.0125 -0.005)
(0.19 1.0125 -0.005)
(0.01 0.987857 -0.005)
(0.03 0.987857 -0.005)
(0.05 0.987857 -0.005)
(0.07 0.987857 -0.005)
(0.09 0.987857 -0.005)
(0.11 0.987857 -0.005)
(0.13 0.987857 -0.005)
(0.15 0.987857 -0.005)
(0.17 0.987857 -0.005)
(0.19 0.987857 -0.005)
(0.01 0.963571 -0.005)
(0.03 0.963571 -0.005)
(0.05 0.963571 -0.005)
(0.07 0.963571 -0.005)
(0.09 0.963571 -0.005)
(0.11 0.963571 -0.005)
(0.13 0.963571 -0.005)
(0.15 0.963571 -0.005)
(0.17 0.963571 -0.005)
(0.19 0.963571 -0.005)
(0.01 0.939286 -0.005)
(0.03 0.939286 -0.005)
(0.05 0.939286 -0.005)
(0.07 0.939286 -0.005)
(0.09 0.939286 -0.005)
(0.11 0.939286 -0.005)
(0.13 0.939286 -0.005)
(0.15 0.939286 -0.005)
(0.17 0.939286 -0.005)
(0.19 0.939286 -0.005)
(0.01 0.915 -0.005)
(0.03 0.915 -0.005)
(0.05 0.915 -0.005)
(0.07 0.915 -0.005)
(0.09 0.915 -0.005)
(0.11 0.915 -0.005)
(0.13 0.915 -0.005)
(0.15 0.915 -0.005)
(0.17 0.915 -0.005)
(0.19 0.915 -0.005)
(0.01 0.890714 -0.005)
(0.03 0.890714 -0.005)
(0.05 0.890714 -0.005)
(0.07 0.890714 -0.005)
(0.09 0.890714 -0.005)
(0.11 0.890714 -0.005)
(0.13 0.890714 -0.005)
(0.15 0.890714 -0.005)
(0.17 0.890714 -0.005)
(0.19 0.890714 -0.005)
(0.01 0.866429 -0.005)
(0.03 0.866429 -0.005)
(0.05 0.866429 -0.005)
(0.07 0.866429 -0.005)
(0.09 0.866429 -0.005)
(0.11 0.866429 -0.005)
(0.13 0.866429 -0.005)
(0.15 0.866429 -0.005)
(0.17 0.866429 -0.005)
(0.19 0.866429 -0.005)
(0.01 0.842143 -0.005)
(0.03 0.842143 -0.005)
(0.05 0.842143 -0.005)
(0.07 0.842143 -0.005)
(0.09 0.842143 -0.005)
(0.11 0.842143 -0.005)
(0.13 0.842143 -0.005)
(0.15 0.842143 -0.005)
(0.17 0.842143 -0.005)
(0.19 0.842143 -0.005)
(0.01 0.817424 -0.005)
(0.03 0.817424 -0.005)
(0.05 0.817424 -0.005)
(0.07 0.817424 -0.005)
(0.09 0.817424 -0.005)
(0.11 0.817424 -0.005)
(0.13 0.817424 -0.005)
(0.15 0.817424 -0.005)
(0.17 0.817424 -0.005)
(0.19 0.817424 -0.005)
(0.01 0.792273 -0.005)
(0.03 0.792273 -0.005)
(0.05 0.792273 -0.005)
(0.07 0.792273 -0.005)
(0.09 0.792273 -0.005)
(0.11 0.792273 -0.005)
(0.13 0.792273 -0.005)
(0.15 0.792273 -0.005)
(0.17 0.792273 -0.005)
(0.19 0.792273 -0.005)
(0.01 0.767121 -0.005)
(0.03 0.767121 -0.005)
(0.05 0.767121 -0.005)
(0.07 0.767121 -0.005)
(0.09 0.767121 -0.005)
(0.11 0.767121 -0.005)
(0.13 0.767121 -0.005)
(0.15 0.767121 -0.005)
(0.17 0.767121 -0.005)
(0.19 0.767121 -0.005)
(0.01 0.74197 -0.005)
(0.03 0.74197 -0.005)
(0.05 0.74197 -0.005)
(0.07 0.74197 -0.005)
(0.09 0.74197 -0.005)
(0.11 0.74197 -0.005)
(0.13 0.74197 -0.005)
(0.15 0.74197 -0.005)
(0.17 0.74197 -0.005)
(0.19 0.74197 -0.005)
(0.01 0.716818 -0.005)
(0.03 0.716818 -0.005)
(0.05 0.716818 -0.005)
(0.07 0.716818 -0.005)
(0.09 0.716818 -0.005)
(0.11 0.716818 -0.005)
(0.13 0.716818 -0.005)
(0.15 0.716818 -0.005)
(0.17 0.716818 -0.005)
(0.19 0.716818 -0.005)
(0.01 0.691667 -0.005)
(0.03 0.691667 -0.005)
(0.05 0.691667 -0.005)
(0.07 0.691667 -0.005)
(0.09 0.691667 -0.005)
(0.11 0.691667 -0.005)
(0.13 0.691667 -0.005)
(0.15 0.691667 -0.005)
(0.17 0.691667 -0.005)
(0.19 0.691667 -0.005)
(0.01 0.666515 -0.005)
(0.03 0.666515 -0.005)
(0.05 0.666515 -0.005)
(0.07 0.666515 -0.005)
(0.09 0.666515 -0.005)
(0.11 0.666515 -0.005)
(0.13 0.666515 -0.005)
(0.15 0.666515 -0.005)
(0.17 0.666515 -0.005)
(0.19 0.666515 -0.005)
(0.01 0.641364 -0.005)
(0.03 0.641364 -0.005)
(0.05 0.641364 -0.005)
(0.07 0.641364 -0.005)
(0.09 0.641364 -0.005)
(0.11 0.641364 -0.005)
(0.13 0.641364 -0.005)
(0.15 0.641364 -0.005)
(0.17 0.641364 -0.005)
(0.19 0.641364 -0.005)
(0.01 0.616212 -0.005)
(0.03 0.616212 -0.005)
(0.05 0.616212 -0.005)
(0.07 0.616212 -0.005)
(0.09 0.616212 -0.005)
(0.11 0.616212 -0.005)
(0.13 0.616212 -0.005)
(0.15 0.616212 -0.005)
(0.17 0.616212 -0.005)
(0.19 0.616212 -0.005)
(0.01 0.591061 -0.005)
(0.03 0.591061 -0.005)
(0.05 0.591061 -0.005)
(0.07 0.591061 -0.005)
(0.09 0.591061 -0.005)
(0.11 0.591061 -0.005)
(0.13 0.591061 -0.005)
(0.15 0.591061 -0.005)
(0.17 0.591061 -0.005)
(0.19 0.591061 -0.005)
(0.01 0.565909 -0.005)
(0.03 0.565909 -0.005)
(0.05 0.565909 -0.005)
(0.07 0.565909 -0.005)
(0.09 0.565909 -0.005)
(0.11 0.565909 -0.005)
(0.13 0.565909 -0.005)
(0.15 0.565909 -0.005)
(0.17 0.565909 -0.005)
(0.19 0.565909 -0.005)
(0.01 0.540758 -0.005)
(0.03 0.540758 -0.005)
(0.05 0.540758 -0.005)
(0.07 0.540758 -0.005)
(0.09 0.540758 -0.005)
(0.11 0.540758 -0.005)
(0.13 0.540758 -0.005)
(0.15 0.540758 -0.005)
(0.17 0.540758 -0.005)
(0.19 0.540758 -0.005)
(0.01 0.515606 -0.005)
(0.03 0.515606 -0.005)
(0.05 0.515606 -0.005)
(0.07 0.515606 -0.005)
(0.09 0.515606 -0.005)
(0.11 0.515606 -0.005)
(0.13 0.515606 -0.005)
(0.15 0.515606 -0.005)
(0.17 0.515606 -0.005)
(0.19 0.515606 -0.005)
(0.01 0.490455 -0.005)
(0.03 0.490455 -0.005)
(0.05 0.490455 -0.005)
(0.07 0.490455 -0.005)
(0.09 0.490455 -0.005)
(0.11 0.490455 -0.005)
(0.13 0.490455 -0.005)
(0.15 0.490455 -0.005)
(0.17 0.490455 -0.005)
(0.19 0.490455 -0.005)
(0.01 0.465303 -0.005)
(0.03 0.465303 -0.005)
(0.05 0.465303 -0.005)
(0.07 0.465303 -0.005)
(0.09 0.465303 -0.005)
(0.11 0.465303 -0.005)
(0.13 0.465303 -0.005)
(0.15 0.465303 -0.005)
(0.17 0.465303 -0.005)
(0.19 0.465303 -0.005)
(0.01 0.440152 -0.005)
(0.03 0.440152 -0.005)
(0.05 0.440152 -0.005)
(0.07 0.440152 -0.005)
(0.09 0.440152 -0.005)
(0.11 0.440152 -0.005)
(0.13 0.440152 -0.005)
(0.15 0.440152 -0.005)
(0.17 0.440152 -0.005)
(0.19 0.440152 -0.005)
(0.01 0.415 -0.005)
(0.03 0.415 -0.005)
(0.05 0.415 -0.005)
(0.07 0.415 -0.005)
(0.09 0.415 -0.005)
(0.11 0.415 -0.005)
(0.13 0.415 -0.005)
(0.15 0.415 -0.005)
(0.17 0.415 -0.005)
(0.19 0.415 -0.005)
(0.01 0.389848 -0.005)
(0.03 0.389848 -0.005)
(0.05 0.389848 -0.005)
(0.07 0.389848 -0.005)
(0.09 0.389848 -0.005)
(0.11 0.389848 -0.005)
(0.13 0.389848 -0.005)
(0.15 0.389848 -0.005)
(0.17 0.389848 -0.005)
(0.19 0.389848 -0.005)
(0.01 0.364697 -0.005)
(0.03 0.364697 -0.005)
(0.05 0.364697 -0.005)
(0.07 0.364697 -0.005)
(0.09 0.364697 -0.005)
(0.11 0.364697 -0.005)
(0.13 0.364697 -0.005)
(0.15 0.364697 -0.005)
(0.17 0.364697 -0.005)
(0.19 0.364697 -0.005)
(0.01 0.339545 -0.005)
(0.03 0.339545 -0.005)
(0.05 0.339545 -0.005)
(0.07 0.339545 -0.005)
(0.09 0.339545 -0.005)
(0.11 0.339545 -0.005)
(0.13 0.339545 -0.005)
(0.15 0.339545 -0.005)
(0.17 0.339545 -0.005)
(0.19 0.339545 -0.005)
(0.01 0.314394 -0.005)
(0.03 0.314394 -0.005)
(0.05 0.314394 -0.005)
(0.07 0.314394 -0.005)
(0.09 0.314394 -0.005)
(0.11 0.314394 -0.005)
(0.13 0.314394 -0.005)
(0.15 0.314394 -0.005)
(0.17 0.314394 -0.005)
(0.19 0.314394 -0.005)
(0.01 0.289242 -0.005)
(0.03 0.289242 -0.005)
(0.05 0.289242 -0.005)
(0.07 0.289242 -0.005)
(0.09 0.289242 -0.005)
(0.11 0.289242 -0.005)
(0.13 0.289242 -0.005)
(0.15 0.289242 -0.005)
(0.17 0.289242 -0.005)
(0.19 0.289242 -0.005)
(0.01 0.264091 -0.005)
(0.03 0.264091 -0.005)
(0.05 0.264091 -0.005)
(0.07 0.264091 -0.005)
(0.09 0.264091 -0.005)
(0.11 0.264091 -0.005)
(0.13 0.264091 -0.005)
(0.15 0.264091 -0.005)
(0.17 0.264091 -0.005)
(0.19 0.264091 -0.005)
(0.01 0.238939 -0.005)
(0.03 0.238939 -0.005)
(0.05 0.238939 -0.005)
(0.07 0.238939 -0.005)
(0.09 0.238939 -0.005)
(0.11 0.238939 -0.005)
(0.13 0.238939 -0.005)
(0.15 0.238939 -0.005)
(0.17 0.238939 -0.005)
(0.19 0.238939 -0.005)
(0.01 0.213788 -0.005)
(0.03 0.213788 -0.005)
(0.05 0.213788 -0.005)
(0.07 0.213788 -0.005)
(0.09 0.213788 -0.005)
(0.11 0.213788 -0.005)
(0.13 0.213788 -0.005)
(0.15 0.213788 -0.005)
(0.17 0.213788 -0.005)
(0.19 0.213788 -0.005)
(0.01 0.188636 -0.005)
(0.03 0.188636 -0.005)
(0.05 0.188636 -0.005)
(0.07 0.188636 -0.005)
(0.09 0.188636 -0.005)
(0.11 0.188636 -0.005)
(0.13 0.188636 -0.005)
(0.15 0.188636 -0.005)
(0.17 0.188636 -0.005)
(0.19 0.188636 -0.005)
(0.01 0.163485 -0.005)
(0.03 0.163485 -0.005)
(0.05 0.163485 -0.005)
(0.07 0.163485 -0.005)
(0.09 0.163485 -0.005)
(0.11 0.163485 -0.005)
(0.13 0.163485 -0.005)
(0.15 0.163485 -0.005)
(0.17 0.163485 -0.005)
(0.19 0.163485 -0.005)
(0.01 0.138333 -0.005)
(0.03 0.138333 -0.005)
(0.05 0.138333 -0.005)
(0.07 0.138333 -0.005)
(0.09 0.138333 -0.005)
(0.11 0.138333 -0.005)
(0.13 0.138333 -0.005)
(0.15 0.138333 -0.005)
(0.17 0.138333 -0.005)
(0.19 0.138333 -0.005)
(0.01 0.113182 -0.005)
(0.03 0.113182 -0.005)
(0.05 0.113182 -0.005)
(0.07 0.113182 -0.005)
(0.09 0.113182 -0.005)
(0.11 0.113182 -0.005)
(0.13 0.113182 -0.005)
(0.15 0.113182 -0.005)
(0.17 0.113182 -0.005)
(0.19 0.113182 -0.005)
(0.01 0.0880303 -0.005)
(0.03 0.0880303 -0.005)
(0.05 0.0880303 -0.005)
(0.07 0.0880303 -0.005)
(0.09 0.0880303 -0.005)
(0.11 0.0880303 -0.005)
(0.13 0.0880303 -0.005)
(0.15 0.0880303 -0.005)
(0.17 0.0880303 -0.005)
(0.19 0.0880303 -0.005)
(0.01 0.0628788 -0.005)
(0.03 0.0628788 -0.005)
(0.05 0.0628788 -0.005)
(0.07 0.0628788 -0.005)
(0.09 0.0628788 -0.005)
(0.11 0.0628788 -0.005)
(0.13 0.0628788 -0.005)
(0.15 0.0628788 -0.005)
(0.17 0.0628788 -0.005)
(0.19 0.0628788 -0.005)
(0.01 0.0377273 -0.005)
(0.03 0.0377273 -0.005)
(0.05 0.0377273 -0.005)
(0.07 0.0377273 -0.005)
(0.09 0.0377273 -0.005)
(0.11 0.0377273 -0.005)
(0.13 0.0377273 -0.005)
(0.15 0.0377273 -0.005)
(0.17 0.0377273 -0.005)
(0.19 0.0377273 -0.005)
(0.01 0.0125758 -0.005)
(0.03 0.0125758 -0.005)
(0.05 0.0125758 -0.005)
(0.07 0.0125758 -0.005)
(0.09 0.0125758 -0.005)
(0.11 0.0125758 -0.005)
(0.13 0.0125758 -0.005)
(0.15 0.0125758 -0.005)
(0.17 0.0125758 -0.005)
(0.19 0.0125758 -0.005)
(0.2095 0.987857 -0.005)
(0.2285 0.987857 -0.005)
(0.2475 0.987857 -0.005)
(0.2665 0.987857 -0.005)
(0.2855 0.987857 -0.005)
(0.3045 0.987857 -0.005)
(0.3235 0.987857 -0.005)
(0.3425 0.987857 -0.005)
(0.3615 0.987857 -0.005)
(0.3805 0.987857 -0.005)
(0.3995 0.987857 -0.005)
(0.4185 0.987857 -0.005)
(0.4375 0.987857 -0.005)
(0.4565 0.987857 -0.005)
(0.4755 0.987857 -0.005)
(0.4945 0.987857 -0.005)
(0.5135 0.987857 -0.005)
(0.5325 0.987857 -0.005)
(0.5515 0.987857 -0.005)
(0.5705 0.987857 -0.005)
(0.5895 0.987857 -0.005)
(0.6085 0.987857 -0.005)
(0.6275 0.987857 -0.005)
(0.6465 0.987857 -0.005)
(0.6655 0.987857 -0.005)
(0.2095 0.963571 -0.005)
(0.2285 0.963571 -0.005)
(0.2475 0.963571 -0.005)
(0.2665 0.963571 -0.005)
(0.2855 0.963571 -0.005)
(0.3045 0.963571 -0.005)
(0.3235 0.963571 -0.005)
(0.3425 0.963571 -0.005)
(0.3615 0.963571 -0.005)
(0.3805 0.963571 -0.005)
(0.3995 0.963571 -0.005)
(0.4185 0.963571 -0.005)
(0.4375 0.963571 -0.005)
(0.4565 0.963571 -0.005)
(0.4755 0.963571 -0.005)
(0.4945 0.963571 -0.005)
(0.5135 0.963571 -0.005)
(0.5325 0.963571 -0.005)
(0.5515 0.963571 -0.005)
(0.5705 0.963571 -0.005)
(0.5895 0.963571 -0.005)
(0.6085 0.963571 -0.005)
(0.6275 0.963571 -0.005)
(0.6465 0.963571 -0.005)
(0.6655 0.963571 -0.005)
(0.2095 0.939286 -0.005)
(0.2285 0.939286 -0.005)
(0.2475 0.939286 -0.005)
(0.2665 0.939286 -0.005)
(0.2855 0.939286 -0.005)
(0.3045 0.939286 -0.005)
(0.3235 0.939286 -0.005)
(0.3425 0.939286 -0.005)
(0.3615 0.939286 -0.005)
(0.3805 0.939286 -0.005)
(0.3995 0.939286 -0.005)
(0.4185 0.939286 -0.005)
(0.4375 0.939286 -0.005)
(0.4565 0.939286 -0.005)
(0.4755 0.939286 -0.005)
(0.4945 0.939286 -0.005)
(0.5135 0.939286 -0.005)
(0.5325 0.939286 -0.005)
(0.5515 0.939286 -0.005)
(0.5705 0.939286 -0.005)
(0.5895 0.939286 -0.005)
(0.6085 0.939286 -0.005)
(0.6275 0.939286 -0.005)
(0.6465 0.939286 -0.005)
(0.6655 0.939286 -0.005)
(0.2095 0.915 -0.005)
(0.2285 0.915 -0.005)
(0.2475 0.915 -0.005)
(0.2665 0.915 -0.005)
(0.2855 0.915 -0.005)
(0.3045 0.915 -0.005)
(0.3235 0.915 -0.005)
(0.3425 0.915 -0.005)
(0.3615 0.915 -0.005)
(0.3805 0.915 -0.005)
(0.3995 0.915 -0.005)
(0.4185 0.915 -0.005)
(0.4375 0.915 -0.005)
(0.4565 0.915 -0.005)
(0.4755 0.915 -0.005)
(0.4945 0.915 -0.005)
(0.5135 0.915 -0.005)
(0.5325 0.915 -0.005)
(0.5515 0.915 -0.005)
(0.5705 0.915 -0.005)
(0.5895 0.915 -0.005)
(0.6085 0.915 -0.005)
(0.6275 0.915 -0.005)
(0.6465 0.915 -0.005)
(0.6655 0.915 -0.005)
(0.2095 0.890714 -0.005)
(0.2285 0.890714 -0.005)
(0.2475 0.890714 -0.005)
(0.2665 0.890714 -0.005)
(0.2855 0.890714 -0.005)
(0.3045 0.890714 -0.005)
(0.3235 0.890714 -0.005)
(0.3425 0.890714 -0.005)
(0.3615 0.890714 -0.005)
(0.3805 0.890714 -0.005)
(0.3995 0.890714 -0.005)
(0.4185 0.890714 -0.005)
(0.4375 0.890714 -0.005)
(0.4565 0.890714 -0.005)
(0.4755 0.890714 -0.005)
(0.4945 0.890714 -0.005)
(0.5135 0.890714 -0.005)
(0.5325 0.890714 -0.005)
(0.5515 0.890714 -0.005)
(0.5705 0.890714 -0.005)
(0.5895 0.890714 -0.005)
(0.6085 0.890714 -0.005)
(0.6275 0.890714 -0.005)
(0.6465 0.890714 -0.005)
(0.6655 0.890714 -0.005)
(0.2095 0.866429 -0.005)
(0.2285 0.866429 -0.005)
(0.2475 0.866429 -0.005)
(0.2665 0.866429 -0.005)
(0.2855 0.866429 -0.005)
(0.3045 0.866429 -0.005)
(0.3235 0.866429 -0.005)
(0.3425 0.866429 -0.005)
(0.3615 0.866429 -0.005)
(0.3805 0.866429 -0.005)
(0.3995 0.866429 -0.005)
(0.4185 0.866429 -0.005)
(0.4375 0.866429 -0.005)
(0.4565 0.866429 -0.005)
(0.4755 0.866429 -0.005)
(0.4945 0.866429 -0.005)
(0.5135 0.866429 -0.005)
(0.5325 0.866429 -0.005)
(0.5515 0.866429 -0.005)
(0.5705 0.866429 -0.005)
(0.5895 0.866429 -0.005)
(0.6085 0.866429 -0.005)
(0.6275 0.866429 -0.005)
(0.6465 0.866429 -0.005)
(0.6655 0.866429 -0.005)
(0.2095 0.842143 -0.005)
(0.2285 0.842143 -0.005)
(0.2475 0.842143 -0.005)
(0.2665 0.842143 -0.005)
(0.2855 0.842143 -0.005)
(0.3045 0.842143 -0.005)
(0.3235 0.842143 -0.005)
(0.3425 0.842143 -0.005)
(0.3615 0.842143 -0.005)
(0.3805 0.842143 -0.005)
(0.3995 0.842143 -0.005)
(0.4185 0.842143 -0.005)
(0.4375 0.842143 -0.005)
(0.4565 0.842143 -0.005)
(0.4755 0.842143 -0.005)
(0.4945 0.842143 -0.005)
(0.5135 0.842143 -0.005)
(0.5325 0.842143 -0.005)
(0.5515 0.842143 -0.005)
(0.5705 0.842143 -0.005)
(0.5895 0.842143 -0.005)
(0.6085 0.842143 -0.005)
(0.6275 0.842143 -0.005)
(0.6465 0.842143 -0.005)
(0.6655 0.842143 -0.005)
(0.2095 0.817424 -0.005)
(0.2285 0.817424 -0.005)
(0.2475 0.817424 -0.005)
(0.2665 0.817424 -0.005)
(0.2855 0.817424 -0.005)
(0.3045 0.817424 -0.005)
(0.3235 0.817424 -0.005)
(0.3425 0.817424 -0.005)
(0.3615 0.817424 -0.005)
(0.3805 0.817424 -0.005)
(0.3995 0.817424 -0.005)
(0.4185 0.817424 -0.005)
(0.4375 0.817424 -0.005)
(0.4565 0.817424 -0.005)
(0.4755 0.817424 -0.005)
(0.4945 0.817424 -0.005)
(0.5135 0.817424 -0.005)
(0.5325 0.817424 -0.005)
(0.5515 0.817424 -0.005)
(0.5705 0.817424 -0.005)
(0.5895 0.817424 -0.005)
(0.6085 0.817424 -0.005)
(0.6275 0.817424 -0.005)
(0.6465 0.817424 -0.005)
(0.6655 0.817424 -0.005)
(0.2095 0.792273 -0.005)
(0.2285 0.792273 -0.005)
(0.2475 0.792273 -0.005)
(0.2665 0.792273 -0.005)
(0.2855 0.792273 -0.005)
(0.3045 0.792273 -0.005)
(0.3235 0.792273 -0.005)
(0.3425 0.792273 -0.005)
(0.3615 0.792273 -0.005)
(0.3805 0.792273 -0.005)
(0.3995 0.792273 -0.005)
(0.4185 0.792273 -0.005)
(0.4375 0.792273 -0.005)
(0.4565 0.792273 -0.005)
(0.4755 0.792273 -0.005)
(0.4945 0.792273 -0.005)
(0.5135 0.792273 -0.005)
(0.5325 0.792273 -0.005)
(0.5515 0.792273 -0.005)
(0.5705 0.792273 -0.005)
(0.5895 0.792273 -0.005)
(0.6085 0.792273 -0.005)
(0.6275 0.792273 -0.005)
(0.6465 0.792273 -0.005)
(0.6655 0.792273 -0.005)
(0.2095 0.767121 -0.005)
(0.2285 0.767121 -0.005)
(0.2475 0.767121 -0.005)
(0.2665 0.767121 -0.005)
(0.2855 0.767121 -0.005)
(0.3045 0.767121 -0.005)
(0.3235 0.767121 -0.005)
(0.3425 0.767121 -0.005)
(0.3615 0.767121 -0.005)
(0.3805 0.767121 -0.005)
(0.3995 0.767121 -0.005)
(0.4185 0.767121 -0.005)
(0.4375 0.767121 -0.005)
(0.4565 0.767121 -0.005)
(0.4755 0.767121 -0.005)
(0.4945 0.767121 -0.005)
(0.5135 0.767121 -0.005)
(0.5325 0.767121 -0.005)
(0.5515 0.767121 -0.005)
(0.5705 0.767121 -0.005)
(0.5895 0.767121 -0.005)
(0.6085 0.767121 -0.005)
(0.6275 0.767121 -0.005)
(0.6465 0.767121 -0.005)
(0.6655 0.767121 -0.005)
(0.2095 0.74197 -0.005)
(0.2285 0.74197 -0.005)
(0.2475 0.74197 -0.005)
(0.2665 0.74197 -0.005)
(0.2855 0.74197 -0.005)
(0.3045 0.74197 -0.005)
(0.3235 0.74197 -0.005)
(0.3425 0.74197 -0.005)
(0.3615 0.74197 -0.005)
(0.3805 0.74197 -0.005)
(0.3995 0.74197 -0.005)
(0.4185 0.74197 -0.005)
(0.4375 0.74197 -0.005)
(0.4565 0.74197 -0.005)
(0.4755 0.74197 -0.005)
(0.4945 0.74197 -0.005)
(0.5135 0.74197 -0.005)
(0.5325 0.74197 -0.005)
(0.5515 0.74197 -0.005)
(0.5705 0.74197 -0.005)
(0.5895 0.74197 -0.005)
(0.6085 0.74197 -0.005)
(0.6275 0.74197 -0.005)
(0.6465 0.74197 -0.005)
(0.6655 0.74197 -0.005)
(0.2095 0.716818 -0.005)
(0.2285 0.716818 -0.005)
(0.2475 0.716818 -0.005)
(0.2665 0.716818 -0.005)
(0.2855 0.716818 -0.005)
(0.3045 0.716818 -0.005)
(0.3235 0.716818 -0.005)
(0.3425 0.716818 -0.005)
(0.3615 0.716818 -0.005)
(0.3805 0.716818 -0.005)
(0.3995 0.716818 -0.005)
(0.4185 0.716818 -0.005)
(0.4375 0.716818 -0.005)
(0.4565 0.716818 -0.005)
(0.4755 0.716818 -0.005)
(0.4945 0.716818 -0.005)
(0.5135 0.716818 -0.005)
(0.5325 0.716818 -0.005)
(0.5515 0.716818 -0.005)
(0.5705 0.716818 -0.005)
(0.5895 0.716818 -0.005)
(0.6085 0.716818 -0.005)
(0.6275 0.716818 -0.005)
(0.6465 0.716818 -0.005)
(0.6655 0.716818 -0.005)
(0.2095 0.691667 -0.005)
(0.2285 0.691667 -0.005)
(0.2475 0.691667 -0.005)
(0.2665 0.691667 -0.005)
(0.2855 0.691667 -0.005)
(0.3045 0.691667 -0.005)
(0.3235 0.691667 -0.005)
(0.3425 0.691667 -0.005)
(0.3615 0.691667 -0.005)
(0.3805 0.691667 -0.005)
(0.3995 0.691667 -0.005)
(0.4185 0.691667 -0.005)
(0.4375 0.691667 -0.005)
(0.4565 0.691667 -0.005)
(0.4755 0.691667 -0.005)
(0.4945 0.691667 -0.005)
(0.5135 0.691667 -0.005)
(0.5325 0.691667 -0.005)
(0.5515 0.691667 -0.005)
(0.5705 0.691667 -0.005)
(0.5895 0.691667 -0.005)
(0.6085 0.691667 -0.005)
(0.6275 0.691667 -0.005)
(0.6465 0.691667 -0.005)
(0.6655 0.691667 -0.005)
(0.2095 0.666515 -0.005)
(0.2285 0.666515 -0.005)
(0.2475 0.666515 -0.005)
(0.2665 0.666515 -0.005)
(0.2855 0.666515 -0.005)
(0.3045 0.666515 -0.005)
(0.3235 0.666515 -0.005)
(0.3425 0.666515 -0.005)
(0.3615 0.666515 -0.005)
(0.3805 0.666515 -0.005)
(0.3995 0.666515 -0.005)
(0.4185 0.666515 -0.005)
(0.4375 0.666515 -0.005)
(0.4565 0.666515 -0.005)
(0.4755 0.666515 -0.005)
(0.4945 0.666515 -0.005)
(0.5135 0.666515 -0.005)
(0.5325 0.666515 -0.005)
(0.5515 0.666515 -0.005)
(0.5705 0.666515 -0.005)
(0.5895 0.666515 -0.005)
(0.6085 0.666515 -0.005)
(0.6275 0.666515 -0.005)
(0.6465 0.666515 -0.005)
(0.6655 0.666515 -0.005)
(0.2095 0.641364 -0.005)
(0.2285 0.641364 -0.005)
(0.2475 0.641364 -0.005)
(0.2665 0.641364 -0.005)
(0.2855 0.641364 -0.005)
(0.3045 0.641364 -0.005)
(0.3235 0.641364 -0.005)
(0.3425 0.641364 -0.005)
(0.3615 0.641364 -0.005)
(0.3805 0.641364 -0.005)
(0.3995 0.641364 -0.005)
(0.4185 0.641364 -0.005)
(0.4375 0.641364 -0.005)
(0.4565 0.641364 -0.005)
(0.4755 0.641364 -0.005)
(0.4945 0.641364 -0.005)
(0.5135 0.641364 -0.005)
(0.5325 0.641364 -0.005)
(0.5515 0.641364 -0.005)
(0.5705 0.641364 -0.005)
(0.5895 0.641364 -0.005)
(0.6085 0.641364 -0.005)
(0.6275 0.641364 -0.005)
(0.6465 0.641364 -0.005)
(0.6655 0.641364 -0.005)
(0.2095 0.616212 -0.005)
(0.2285 0.616212 -0.005)
(0.2475 0.616212 -0.005)
(0.2665 0.616212 -0.005)
(0.2855 0.616212 -0.005)
(0.3045 0.616212 -0.005)
(0.3235 0.616212 -0.005)
(0.3425 0.616212 -0.005)
(0.3615 0.616212 -0.005)
(0.3805 0.616212 -0.005)
(0.3995 0.616212 -0.005)
(0.4185 0.616212 -0.005)
(0.4375 0.616212 -0.005)
(0.4565 0.616212 -0.005)
(0.4755 0.616212 -0.005)
(0.4945 0.616212 -0.005)
(0.5135 0.616212 -0.005)
(0.5325 0.616212 -0.005)
(0.5515 0.616212 -0.005)
(0.5705 0.616212 -0.005)
(0.5895 0.616212 -0.005)
(0.6085 0.616212 -0.005)
(0.6275 0.616212 -0.005)
(0.6465 0.616212 -0.005)
(0.6655 0.616212 -0.005)
(0.2095 0.591061 -0.005)
(0.2285 0.591061 -0.005)
(0.2475 0.591061 -0.005)
(0.2665 0.591061 -0.005)
(0.2855 0.591061 -0.005)
(0.3045 0.591061 -0.005)
(0.3235 0.591061 -0.005)
(0.3425 0.591061 -0.005)
(0.3615 0.591061 -0.005)
(0.3805 0.591061 -0.005)
(0.3995 0.591061 -0.005)
(0.4185 0.591061 -0.005)
(0.4375 0.591061 -0.005)
(0.4565 0.591061 -0.005)
(0.4755 0.591061 -0.005)
(0.4945 0.591061 -0.005)
(0.5135 0.591061 -0.005)
(0.5325 0.591061 -0.005)
(0.5515 0.591061 -0.005)
(0.5705 0.591061 -0.005)
(0.5895 0.591061 -0.005)
(0.6085 0.591061 -0.005)
(0.6275 0.591061 -0.005)
(0.6465 0.591061 -0.005)
(0.6655 0.591061 -0.005)
(0.2095 0.565909 -0.005)
(0.2285 0.565909 -0.005)
(0.2475 0.565909 -0.005)
(0.2665 0.565909 -0.005)
(0.2855 0.565909 -0.005)
(0.3045 0.565909 -0.005)
(0.3235 0.565909 -0.005)
(0.3425 0.565909 -0.005)
(0.3615 0.565909 -0.005)
(0.3805 0.565909 -0.005)
(0.3995 0.565909 -0.005)
(0.4185 0.565909 -0.005)
(0.4375 0.565909 -0.005)
(0.4565 0.565909 -0.005)
(0.4755 0.565909 -0.005)
(0.4945 0.565909 -0.005)
(0.5135 0.565909 -0.005)
(0.5325 0.565909 -0.005)
(0.5515 0.565909 -0.005)
(0.5705 0.565909 -0.005)
(0.5895 0.565909 -0.005)
(0.6085 0.565909 -0.005)
(0.6275 0.565909 -0.005)
(0.6465 0.565909 -0.005)
(0.6655 0.565909 -0.005)
(0.2095 0.540758 -0.005)
(0.2285 0.540758 -0.005)
(0.2475 0.540758 -0.005)
(0.2665 0.540758 -0.005)
(0.2855 0.540758 -0.005)
(0.3045 0.540758 -0.005)
(0.3235 0.540758 -0.005)
(0.3425 0.540758 -0.005)
(0.3615 0.540758 -0.005)
(0.3805 0.540758 -0.005)
(0.3995 0.540758 -0.005)
(0.4185 0.540758 -0.005)
(0.4375 0.540758 -0.005)
(0.4565 0.540758 -0.005)
(0.4755 0.540758 -0.005)
(0.4945 0.540758 -0.005)
(0.5135 0.540758 -0.005)
(0.5325 0.540758 -0.005)
(0.5515 0.540758 -0.005)
(0.5705 0.540758 -0.005)
(0.5895 0.540758 -0.005)
(0.6085 0.540758 -0.005)
(0.6275 0.540758 -0.005)
(0.6465 0.540758 -0.005)
(0.6655 0.540758 -0.005)
(0.2095 0.515606 -0.005)
(0.2285 0.515606 -0.005)
(0.2475 0.515606 -0.005)
(0.2665 0.515606 -0.005)
(0.2855 0.515606 -0.005)
(0.3045 0.515606 -0.005)
(0.3235 0.515606 -0.005)
(0.3425 0.515606 -0.005)
(0.3615 0.515606 -0.005)
(0.3805 0.515606 -0.005)
(0.3995 0.515606 -0.005)
(0.4185 0.515606 -0.005)
(0.4375 0.515606 -0.005)
(0.4565 0.515606 -0.005)
(0.4755 0.515606 -0.005)
(0.4945 0.515606 -0.005)
(0.5135 0.515606 -0.005)
(0.5325 0.515606 -0.005)
(0.5515 0.515606 -0.005)
(0.5705 0.515606 -0.005)
(0.5895 0.515606 -0.005)
(0.6085 0.515606 -0.005)
(0.6275 0.515606 -0.005)
(0.6465 0.515606 -0.005)
(0.6655 0.515606 -0.005)
(0.2095 0.490455 -0.005)
(0.2285 0.490455 -0.005)
(0.2475 0.490455 -0.005)
(0.2665 0.490455 -0.005)
(0.2855 0.490455 -0.005)
(0.3045 0.490455 -0.005)
(0.3235 0.490455 -0.005)
(0.3425 0.490455 -0.005)
(0.3615 0.490455 -0.005)
(0.3805 0.490455 -0.005)
(0.3995 0.490455 -0.005)
(0.4185 0.490455 -0.005)
(0.4375 0.490455 -0.005)
(0.4565 0.490455 -0.005)
(0.4755 0.490455 -0.005)
(0.4945 0.490455 -0.005)
(0.5135 0.490455 -0.005)
(0.5325 0.490455 -0.005)
(0.5515 0.490455 -0.005)
(0.5705 0.490455 -0.005)
(0.5895 0.490455 -0.005)
(0.6085 0.490455 -0.005)
(0.6275 0.490455 -0.005)
(0.6465 0.490455 -0.005)
(0.6655 0.490455 -0.005)
(0.2095 0.465303 -0.005)
(0.2285 0.465303 -0.005)
(0.2475 0.465303 -0.005)
(0.2665 0.465303 -0.005)
(0.2855 0.465303 -0.005)
(0.3045 0.465303 -0.005)
(0.3235 0.465303 -0.005)
(0.3425 0.465303 -0.005)
(0.3615 0.465303 -0.005)
(0.3805 0.465303 -0.005)
(0.3995 0.465303 -0.005)
(0.4185 0.465303 -0.005)
(0.4375 0.465303 -0.005)
(0.4565 0.465303 -0.005)
(0.4755 0.465303 -0.005)
(0.4945 0.465303 -0.005)
(0.5135 0.465303 -0.005)
(0.5325 0.465303 -0.005)
(0.5515 0.465303 -0.005)
(0.5705 0.465303 -0.005)
(0.5895 0.465303 -0.005)
(0.6085 0.465303 -0.005)
(0.6275 0.465303 -0.005)
(0.6465 0.465303 -0.005)
(0.6655 0.465303 -0.005)
(0.2095 0.440152 -0.005)
(0.2285 0.440152 -0.005)
(0.2475 0.440152 -0.005)
(0.2665 0.440152 -0.005)
(0.2855 0.440152 -0.005)
(0.3045 0.440152 -0.005)
(0.3235 0.440152 -0.005)
(0.3425 0.440152 -0.005)
(0.3615 0.440152 -0.005)
(0.3805 0.440152 -0.005)
(0.3995 0.440152 -0.005)
(0.4185 0.440152 -0.005)
(0.4375 0.440152 -0.005)
(0.4565 0.440152 -0.005)
(0.4755 0.440152 -0.005)
(0.4945 0.440152 -0.005)
(0.5135 0.440152 -0.005)
(0.5325 0.440152 -0.005)
(0.5515 0.440152 -0.005)
(0.5705 0.440152 -0.005)
(0.5895 0.440152 -0.005)
(0.6085 0.440152 -0.005)
(0.6275 0.440152 -0.005)
(0.6465 0.440152 -0.005)
(0.6655 0.440152 -0.005)
(0.2095 0.415 -0.005)
(0.2285 0.415 -0.005)
(0.2475 0.415 -0.005)
(0.2665 0.415 -0.005)
(0.2855 0.415 -0.005)
(0.3045 0.415 -0.005)
(0.3235 0.415 -0.005)
(0.3425 0.415 -0.005)
(0.3615 0.415 -0.005)
(0.3805 0.415 -0.005)
(0.3995 0.415 -0.005)
(0.4185 0.415 -0.005)
(0.4375 0.415 -0.005)
(0.4565 0.415 -0.005)
(0.4755 0.415 -0.005)
(0.4945 0.415 -0.005)
(0.5135 0.415 -0.005)
(0.5325 0.415 -0.005)
(0.5515 0.415 -0.005)
(0.5705 0.415 -0.005)
(0.5895 0.415 -0.005)
(0.6085 0.415 -0.005)
(0.6275 0.415 -0.005)
(0.6465 0.415 -0.005)
(0.6655 0.415 -0.005)
(0.2095 0.389848 -0.005)
(0.2285 0.389848 -0.005)
(0.2475 0.389848 -0.005)
(0.2665 0.389848 -0.005)
(0.2855 0.389848 -0.005)
(0.3045 0.389848 -0.005)
(0.3235 0.389848 -0.005)
(0.3425 0.389848 -0.005)
(0.3615 0.389848 -0.005)
(0.3805 0.389848 -0.005)
(0.3995 0.389848 -0.005)
(0.4185 0.389848 -0.005)
(0.4375 0.389848 -0.005)
(0.4565 0.389848 -0.005)
(0.4755 0.389848 -0.005)
(0.4945 0.389848 -0.005)
(0.5135 0.389848 -0.005)
(0.5325 0.389848 -0.005)
(0.5515 0.389848 -0.005)
(0.5705 0.389848 -0.005)
(0.5895 0.389848 -0.005)
(0.6085 0.389848 -0.005)
(0.6275 0.389848 -0.005)
(0.6465 0.389848 -0.005)
(0.6655 0.389848 -0.005)
(0.2095 0.364697 -0.005)
(0.2285 0.364697 -0.005)
(0.2475 0.364697 -0.005)
(0.2665 0.364697 -0.005)
(0.2855 0.364697 -0.005)
(0.3045 0.364697 -0.005)
(0.3235 0.364697 -0.005)
(0.3425 0.364697 -0.005)
(0.3615 0.364697 -0.005)
(0.3805 0.364697 -0.005)
(0.3995 0.364697 -0.005)
(0.4185 0.364697 -0.005)
(0.4375 0.364697 -0.005)