/*--------------------------------*- C++ -*----------------------------------*\
| =========                 |                                                 |
| \\      /  F ield         | OpenFOAM: The Open Source CFD Toolbox           |
|  \\    /   O peration     | Version:  v2012                                 |
|   \\  /    A nd           | Website:  www.openfoam.com                      |
|    \\/     M anipulation  |                                                 |
\*---------------------------------------------------------------------------*/
FoamFile
{
    version     2.0;
    format      ascii;
    class       volScalarField;
    location    "572";
    object      k;
}
// * * * * * * * * * * * * * * * * * * * * * * * * * * * * * * * * * * * * * //

dimensions      [0 2 -2 0 0 0 0];


internalField   nonuniform List<scalar> 
6598
(
1.38444
1.73333
1.7955
1.81115
1.81777
1.81777
1.81115
1.7955
1.73333
1.38444
0.807206
1.26438
1.38573
1.42332
1.435
1.435
1.42332
1.38573
1.26438
0.807206
0.528199
0.953975
1.09626
1.14825
1.16535
1.16535
1.14825
1.09626
0.953976
0.528199
0.375205
0.744008
0.886787
0.945708
0.966818
0.966819
0.945708
0.886787
0.744009
0.375206
0.282808
0.597199
0.73161
0.792283
0.815624
0.815625
0.792283
0.731611
0.5972
0.282809
0.222686
0.491054
0.61404
0.673358
0.697451
0.697451
0.67336
0.614042
0.491056
0.222687
0.181217
0.411924
0.523063
0.57937
0.603178
0.603178
0.579372
0.523066
0.411928
0.181218
0.151262
0.351322
0.451295
0.503831
0.526714
0.526715
0.503834
0.451299
0.351327
0.151263
0.128806
0.303811
0.393686
0.442224
0.463833
0.463834
0.442228
0.393692
0.303817
0.128808
0.111457
0.265802
0.346722
0.391324
0.411504
0.411507
0.39133
0.346729
0.265811
0.11146
0.097715
0.234858
0.307904
0.348787
0.367506
0.367509
0.348794
0.307915
0.23487
0.0977188
0.0866029
0.209281
0.275426
0.312872
0.330171
0.330175
0.312882
0.27544
0.209297
0.0866081
0.077459
0.18786
0.247956
0.28227
0.298227
0.298233
0.282284
0.247975
0.187882
0.0774661
0.0698221
0.16971
0.224496
0.255978
0.270692
0.2707
0.255998
0.224523
0.16974
0.0698317
0.0633619
0.154175
0.204287
0.233221
0.246795
0.246806
0.233248
0.204324
0.154216
0.0633749
0.0578363
0.140759
0.186743
0.213389
0.225926
0.22594
0.213427
0.186794
0.140814
0.0578541
0.0530641
0.129077
0.171405
0.195999
0.207595
0.207614
0.19605
0.171477
0.129153
0.0530882
0.0489072
0.118833
0.157911
0.180662
0.191408
0.191433
0.180731
0.158012
0.118937
0.0489399
0.0452586
0.10979
0.14597
0.167065
0.177046
0.177079
0.167159
0.146108
0.109935
0.045303
0.0420346
0.101764
0.135353
0.154962
0.164253
0.164298
0.155089
0.135538
0.10194
0.042093
0.0392389
0.0947671
0.126076
0.144372
0.153054
0.153114
0.144541
0.126325
0.0950263
0.0393219
0.0367315
0.0884747
0.117733
0.134845
0.14298
0.143059
0.135069
0.118065
0.08884
0.0377174
0.0344706
0.0827832
0.110182
0.126221
0.133862
0.133963
0.126509
0.110612
0.0833395
0.0370867
0.0324221
0.0776127
0.103321
0.118386
0.125579
0.125704
0.118738
0.10383
0.0784984
0.0374791
0.0305575
0.0728961
0.0970641
0.11124
0.118028
0.118174
0.11164
0.0976465
0.074344
0.0389679
0.0288531
0.0685763
0.0913356
0.104702
0.111121
0.111289
0.105141
0.092055
0.0708862
0.0414182
0.0272883
0.0646022
0.086068
0.0986922
0.104777
0.104973
0.0992142
0.0870495
0.0680319
0.0445973
0.0257999
0.0608232
0.0810692
0.0929976
0.098773
0.0990102
0.093663
0.0824664
0.0656923
0.0483535
0.0244261
0.0573294
0.0764504
0.0877401
0.0932375
0.0935297
0.0886103
0.0784112
0.0639213
0.0522333
0.0231531
0.0540905
0.0721762
0.0828824
0.0881333
0.0884964
0.0840189
0.0748383
0.0626038
0.0553098
0.0219689
0.0510779
0.0682075
0.0783809
0.0834151
0.0838658
0.0798435
0.0716924
0.0616249
0.0576445
0.0208628
0.048265
0.0645104
0.0741973
0.0790434
0.0795983
0.0760417
0.0689166
0.0608688
0.0592921
0.0198252
0.0456282
0.0610548
0.0702979
0.0749831
0.0756581
0.0725728
0.0664465
0.0601641
0.0602996
0.0188478
0.0431471
0.0578141
0.0666532
0.0712032
0.0720126
0.0693982
0.0642217
0.0594377
0.0607236
0.0179229
0.0408035
0.0547647
0.0632367
0.0676758
0.0686321
0.0664811
0.0621831
0.0586351
0.0606231
0.0170436
0.0385811
0.0518854
0.0600249
0.0643759
0.0654893
0.0637876
0.0602843
0.0577198
0.0600589
0.0162037
0.0364657
0.0491575
0.0569971
0.0612814
0.0625596
0.061287
0.0584875
0.0566741
0.0590944
0.0153973
0.0344445
0.0465644
0.0541345
0.0583723
0.0598208
0.0589531
0.0567647
0.0554976
0.0577974
0.0146193
0.0325065
0.0440913
0.0514207
0.0556307
0.0572534
0.0567641
0.0550982
0.054206
0.0562412
0.013865
0.0306423
0.0417249
0.0488406
0.0530406
0.0548401
0.0547026
0.0534799
0.052829
0.0545056
0.01313
0.0288436
0.0394534
0.0463803
0.0505869
0.0525654
0.0527555
0.0519104
0.0514063
0.052676
0.0124104
0.027103
0.0372655
0.0440263
0.0482549
0.0504144
0.0509121
0.0503956
0.0499826
0.0508397
0.0117027
0.0254138
0.03515
0.0417644
0.0460288
0.048372
0.0491622
0.0489428
0.0486013
0.0490801
0.0110036
0.0237698
0.0330951
0.0395791
0.0438907
0.0464201
0.0474933
0.0475558
0.0472969
0.0474671
0.0103101
0.0221656
0.0310883
0.0374521
0.0418192
0.0445365
0.0458872
0.0462296
0.0460877
0.0460472
0.00961933
0.0205955
0.0291154
0.035362
0.0397874
0.042692
0.044317
0.0449457
0.0449692
0.0448336
0.00892856
0.019054
0.027161
0.0332833
0.0377626
0.0408493
0.0427445
0.0436692
0.0439103
0.0437997
0.00823487
0.0175354
0.0252078
0.0311862
0.0357049
0.0389618
0.0411192
0.0423471
0.0428534
0.0428792
0.00753502
0.0160336
0.0232372
0.0290373
0.0335684
0.0369743
0.0393789
0.0409101
0.0417168
0.0419708
0.00682505
0.0145423
0.0212302
0.026801
0.0313029
0.0348248
0.0374523
0.0392767
0.0404025
0.0409496
0.00609939
0.013052
0.0191679
0.0244429
0.0288586
0.0324508
0.0352655
0.0373606
0.0388058
0.0396815
0.00534974
0.0115488
0.0170347
0.0219377
0.0261966
0.0297993
0.032753
0.0350829
0.0368288
0.0380406
0.00455562
0.0100353
0.0148252
0.0192781
0.0233028
0.0268454
0.0298767
0.0323908
0.0344008
0.0359297
0.00369352
0.00864954
0.0126612
0.0165452
0.0202296
0.0236223
0.0266536
0.0292845
0.0314994
0.0332993
0.00277694
0.00745583
0.0108082
0.0140224
0.017214
0.0203138
0.0232232
0.0258648
0.0281942
0.0301832
0.00177924
0.00629878
0.00931899
0.0119824
0.0146253
0.0172913
0.0199137
0.0224097
0.0247087
0.0267591
0.00101542
0.00487576
0.007874
0.0103408
0.012632
0.0149019
0.0171667
0.0193799
0.0214828
0.0234188
0.000806882
0.00307055
0.00613645
0.00870925
0.0109678
0.0130649
0.0150649
0.0169725
0.0187719
0.0204412
0.000836021
0.00199954
0.00447474
0.00695076
0.00926534
0.0113046
0.0131196
0.0147316
0.0161586
0.0174335
0.00092558
0.00161393
0.00241303
0.0035892
0.00483895
0.00604751
0.00692608
0.00768728
0.00835152
0.00891023
0.00834801
0.00319965
0.00316719
0.00318662
0.00315306
0.00302151
0.00274349
0.0024859
0.00225424
0.00204227
0.00184613
0.00166964
0.00151153
0.00136939
0.00123947
0.00112273
0.00101998
0.000925865
0.000836703
0.000749684
0.000662162
0.000571218
0.000471046
0.000354037
0.000201209
0.0163304
0.00717059
0.0063436
0.00614481
0.00595687
0.00562084
0.00507475
0.00443532
0.00387613
0.00340766
0.00301935
0.00270408
0.00245073
0.00224519
0.00207416
0.0019165
0.00175509
0.00158846
0.00141801
0.00124737
0.00108252
0.000929051
0.000798832
0.000670692
0.000373478
0.0250372
0.0125699
0.009002
0.00776781
0.0069888
0.00621182
0.00534524
0.00441625
0.00367547
0.00312687
0.00271881
0.00241907
0.00219796
0.00203709
0.00191858
0.00182271
0.00172556
0.00161977
0.00149952
0.00136219
0.00121083
0.00105433
0.000911075
0.000780109
0.000430724
0.0348267
0.0192375
0.0122752
0.00962171
0.00791359
0.00648121
0.00521127
0.00411822
0.00321369
0.00259664
0.00217056
0.00188768
0.00170199
0.00159024
0.00152912
0.00149776
0.00147089
0.00143479
0.0013792
0.00129724
0.00118744
0.00105575
0.000918494
0.000779502
0.000435639
0.0445627
0.0279172
0.0169264
0.0121454
0.00916324
0.00691187
0.00516986
0.00387691
0.00293255
0.00225446
0.00177554
0.00146863
0.00128312
0.00119216
0.00116572
0.00117536
0.00120152
0.00121759
0.00121074
0.00117289
0.0011007
0.000997096
0.000873917
0.000733575
0.000411613
0.0520895
0.0372206
0.0234649
0.0156672
0.0109239
0.00766249
0.00537276
0.00382641
0.00279348
0.00208828
0.00159167
0.00125056
0.00104076
0.000940783
0.000923092
0.000951708
0.00100248
0.00104326
0.00106017
0.00104575
0.000996728
0.000914372
0.000806301
0.00067072
0.000374948
0.0573647
0.0462834
0.0307288
0.0200149
0.013308
0.00880011
0.00584818
0.00398527
0.00282013
0.00206839
0.00155425
0.00119716
0.000967679
0.000846362
0.000809563
0.000827006
0.000871324
0.000911876
0.000932861
0.000926689
0.000890751
0.000826155
0.000736313
0.000613611
0.00033874
0.0613272
0.0537179
0.0378343
0.024934
0.0162095
0.0103318
0.00659393
0.00435059
0.0030086
0.00218408
0.00164154
0.00126677
0.00101138
0.000854398
0.000779693
0.000764702
0.00078426
0.000811175
0.000826423
0.000822661
0.000798994
0.000759293
0.0007082
0.000630971
0.000385465
0.064273
0.0595798
0.0444442
0.0302269
0.0196156
0.0122821
0.00763119
0.00493398
0.00337078
0.00244221
0.00185238
0.00145387
0.00117194
0.000973393
0.000846165
0.000780434
0.000763391
0.000774733
0.000787315
0.000795478
0.000801901
0.000815538
0.000848783
0.000926992
0.00123246
0.0663713
0.0639137
0.0504192
0.0356519
0.0232572
0.0144806
0.00892244
0.00571932
0.00391531
0.0028572
0.00219851
0.00176904
0.00147309
0.00125696
0.00109865
0.000993415
0.000943774
0.000953061
0.000988944
0.00105207
0.00115679
0.00133166
0.00161868
0.00203771
0.00250499
0.0677614
0.0669648
0.0553366
0.0403238
0.0268115
0.0168185
0.0103964
0.00670964
0.00465802
0.00345665
0.00270758
0.00222859
0.00191947
0.00171722
0.00158582
0.00150892
0.00148436
0.00152209
0.00161145
0.00175426
0.00195549
0.00221179
0.00249774
0.0027759
0.0030283
0.0685103
0.0689417
0.0591117
0.0443449
0.03023
0.0192462
0.0120357
0.00788631
0.00559579
0.00425403
0.00340745
0.00285594
0.00249908
0.00227897
0.00215929
0.0021145
0.00212821
0.00218643
0.00228447
0.00242009
0.00258957
0.00278846
0.00301878
0.00330924
0.00364384
0.0687024
0.0699957
0.0617785
0.0478026
0.0335394
0.0217366
0.0138084
0.00921183
0.00669623
0.00522621
0.00429905
0.00368687
0.00326912
0.00298828
0.00281999
0.0027444
0.00274779
0.00280073
0.00290155
0.00304361
0.00322507
0.00344924
0.00372673
0.00407204
0.0044619
0.0683758
0.0702532
0.063455
0.0506781
0.036456
0.0242419
0.0156983
0.0106547
0.00791654
0.00632538
0.00533117
0.00469977
0.00427341
0.00397335
0.00377301
0.00366003
0.00362919
0.00365107
0.00373129
0.00386938
0.00407323
0.00433168
0.00461989
0.00494241
0.00528023
0.067565
0.0698336
0.0643398
0.0529785
0.0391538
0.0268725
0.0177484
0.0122089
0.00920217
0.00752816
0.00648502
0.00582296
0.00540079
0.00511927
0.00493058
0.00481429
0.00474446
0.00473857
0.00479586
0.00491282
0.00508186
0.00529093
0.00553103
0.00579358
0.00606533
0.0663128
0.0688389
0.0645539
0.05469
0.0416981
0.0294859
0.0200431
0.0139211
0.0105382
0.00874405
0.00768888
0.007012
0.00658146
0.00629989
0.00611391
0.00598255
0.00589999
0.00587317
0.00590092
0.00597936
0.00610234
0.00626096
0.00644513
0.00664513
0.0068519
0.0646694
0.0673498
0.0641739
0.0557793
0.0441556
0.0321777
0.0225225
0.0159184
0.0120235
0.00994312
0.00883158
0.00816655
0.00774827
0.00747709
0.00728517
0.00714999
0.00706538
0.00702792
0.00703391
0.00707882
0.00715758
0.00726426
0.00739233
0.00753524
0.00768771
0.0626921
0.065436
0.0632699
0.0563434
0.0462674
0.0349823
0.0252194
0.0181742
0.0137754
0.0113027
0.00996722
0.0092316
0.00879264
0.00852069
0.00834866
0.00824214
0.00818336
0.00816202
0.00817066
0.00820231
0.00825529
0.00832642
0.00841298
0.0085122
0.00862164
0.0604468
0.0631609
0.0618828
0.0563793
0.0478405
0.0378809
0.0281857
0.0207658
0.0158156
0.0128652
0.0112166
0.0103103
0.00980019
0.00950938
0.0093498
0.00927258
0.0092488
0.00926123
0.00929802
0.00934907
0.00940959
0.00947324
0.00954168
0.00961563
0.00969545
0.0580112
0.0605942
0.0600596
0.0558952
0.0488766
0.0403047
0.0315141
0.0238084
0.0183234
0.0148257
0.0127673
0.0116079
0.0109684
0.0106188
0.0104403
0.0103681
0.0103633
0.0104027
0.0104703
0.0105545
0.0106434
0.0107282
0.0108065
0.0108775
0.0109448
0.0554758
0.0578193
0.0578553
0.054896
0.0493474
0.0421855
0.0345141
0.0273333
0.0214095
0.0173479
0.0147892
0.0132787
0.0124224
0.0119584
0.011728
0.0116393
0.011641
0.0117002
0.0117933
0.0119027
0.0120157
0.0121252
0.0122218
0.012302
0.0123664
0.052943
0.0549406
0.0553491
0.0534092
0.0492311
0.0434686
0.0369848
0.0306024
0.0249735
0.0205605
0.0174327
0.015487
0.0143236
0.0136615
0.0133169
0.0131719
0.0131529
0.0132119
0.0133151
0.0134392
0.013567
0.0136871
0.0137937
0.0138829
0.0139513
0.0505214
0.0520836
0.052655
0.0515031
0.0485249
0.0440985
0.0388406
0.0334052
0.0283424
0.0240496
0.0207225
0.0183726
0.0168291
0.0158806
0.0153527
0.0150919
0.0150033
0.0150241
0.0151097
0.0152276
0.015355
0.015478
0.0155883
0.0156812
0.0157583
0.0483147
0.0493871
0.0499234
0.0492986
0.0472894
0.0440562
0.0399949
0.0355821
0.0312654
0.0273909
0.0241694
0.0216854
0.0198998
0.0187001
0.0179506
0.017523
0.0173172
0.0172577
0.0172891
0.0173682
0.0174678
0.0175742
0.0176779
0.0177728
0.0178585
0.0464055
0.0469853
0.0473289
0.0469699
0.0456548
0.0433967
0.0404119
0.0370177
0.0335424
0.0302697
0.0274014
0.0250465
0.0232304
0.0219133
0.0210143
0.0204399
0.0201042
0.0199306
0.0198688
0.0198786
0.0199317
0.0200117
0.0201059
0.020207
0.0203078
0.0448389
0.044983
0.0450436
0.0447274
0.0438218
0.0422686
0.040157
0.0376724
0.0350359
0.0324557
0.0300984
0.0280744
0.0264348
0.0251779
0.0242619
0.0236202
0.0231904
0.0229185
0.0227702
0.0227193
0.0227394
0.0228064
0.0229031
0.0230164
0.023137
0.0436081
0.0434282
0.0431982
0.0427781
0.0420351
0.0409049
0.0394091
0.0376405
0.03573
0.033816
0.0320214
0.0304385
0.0291211
0.0280797
0.0272898
0.0266967
0.0262637
0.0259808
0.0258232
0.0257645
0.0257816
0.0258541
0.0259647
0.0260995
0.0262475
0.0426488
0.0422939
0.0418446
0.0412719
0.0405277
0.0395814
0.0384386
0.0371429
0.0357656
0.0343896
0.0330952
0.0319484
0.0309924
0.0302386
0.0296704
0.0292279
0.0289119
0.0287132
0.0286177
0.0286087
0.0286698
0.0287844
0.0289377
0.0291176
0.0293132
0.0418439
0.0414748
0.0409326
0.0402525
0.0394509
0.0385404
0.037541
0.0364858
0.0354186
0.0343891
0.0334458
0.0326303
0.031971
0.0314756
0.0311299
0.0308814
0.0307246
0.0306538
0.0306622
0.0307401
0.0308763
0.0310593
0.0312781
0.0315222
0.0317813
0.0410391
0.0408016
0.0403136
0.0396356
0.0388176
0.0379045
0.0369394
0.0359645
0.0350204
0.0341452
0.0333721
0.0327277
0.0322295
0.031882
0.0316749
0.0315726
0.0315429
0.0315807
0.0316797
0.031833
0.0320337
0.0322736
0.0325445
0.0328383
0.0331458
0.0400633
0.0400707
0.0397708
0.0392244
0.0384905
0.0376285
0.036696
0.0357464
0.0348272
0.0339784
0.0332318
0.0326102
0.0321278
0.031789
0.0315894
0.0315124
0.0315306
0.0316026
0.031727
0.0318976
0.0321077
0.0323512
0.032622
0.0329142
0.03322
0.0387539
0.0390766
0.0390617
0.038759
0.0382229
0.0375112
0.0366834
0.035797
0.0349047
0.0340513
0.0332729
0.032596
0.0320376
0.0316062
0.0313023
0.0311202
0.0310475
0.0310641
0.0311484
0.0312664
0.0314173
0.0315969
0.0318016
0.0320265
0.0322652
0.0369767
0.0376411
0.0379614
0.0379749
0.0377247
0.0372591
0.0366305
0.0358925
0.0350964
0.0342885
0.0335079
0.0327855
0.0321436
0.0315963
0.0311507
0.0308078
0.0305642
0.030412
0.0303398
0.0303319
0.0303765
0.0304611
0.030565
0.0306829
0.0308117
0.0346476
0.0356381
0.0362974
0.0366507
0.0367288
0.0365688
0.0362123
0.0357041
0.0350892
0.0344106
0.0337063
0.0330089
0.0323439
0.0317302
0.0311806
0.0307024
0.0302985
0.0299682
0.0297082
0.0295123
0.0293736
0.029284
0.0292325
0.029211
0.0292129
0.0317652
0.0330276
0.0339857
0.0346541
0.0350529
0.0352079
0.0351502
0.0349148
0.0345385
0.0340576
0.0335063
0.0329154
0.0323106
0.031713
0.0311387
0.0305993
0.0301023
0.0296524
0.0292513
0.0288987
0.0285929
0.0283305
0.0281072
0.0279186
0.0277606
0.0284662
0.0299052
0.0310783
0.0319895
0.032651
0.0330789
0.0332943
0.0333231
0.0331935
0.0329349
0.0325761
0.0321437
0.0316617
0.0311506
0.0306274
0.0301057
0.0295956
0.0291049
0.0286387
0.0282003
0.0277915
0.0274126
0.0270631
0.026742
0.0264489
0.0250807
0.0265405
0.0277926
0.0288302
0.0296429
0.0302434
0.0306475
0.030873
0.0309409
0.0308736
0.0306935
0.0304225
0.030081
0.0296872
0.029257
0.0288039
0.0283389
0.0278709
0.0274068
0.0269517
0.0265094
0.0260826
0.0256727
0.025281
0.0249092
0.0218963
0.023202
0.0243528
0.0253425
0.0261635
0.0268058
0.0272695
0.0275735
0.0277348
0.027771
0.0276996
0.0275375
0.0273011
0.0270052
0.0266633
0.0262871
0.0258868
0.0254707
0.0250458
0.0246178
0.0241911
0.0237691
0.0233544
0.0229491
0.022556
0.0185186
0.0194781
0.020316
0.0210273
0.021603
0.0220525
0.0223796
0.0225939
0.0227063
0.0227277
0.0226696
0.0225428
0.0223581
0.0221253
0.0218538
0.0215515
0.0212258
0.0208829
0.020528
0.0201658
0.0197998
0.0194331
0.0190681
0.0187069
0.018352
0.00936439
0.00976165
0.0101125
0.0104186
0.0106724
0.0108787
0.0110403
0.0111599
0.0112405
0.0112853
0.0112975
0.0112805
0.0112378
0.0111726
0.011088
0.010987
0.0108725
0.0107469
0.0106125
0.0104713
0.0103252
0.0101756
0.0100239
0.0098711
0.00971831
0.000410139
0.000995331
0.00200368
0.00230497
0.00250605
0.00265884
0.00288082
0.00301771
0.00341702
0.00334987
0.00371181
0.00421951
0.00407699
0.00450351
0.00493625
0.00487491
0.00523322
0.00556703
0.00561516
0.00590069
0.00616261
0.00632716
0.00655285
0.00676397
0.00705372
0.0072333
0.00740596
0.0078411
0.00798264
0.00812284
0.00873493
0.0088431
0.00895348
0.00977763
0.00985737
0.00994039
0.0110081
0.011067
0.0111268
0.012418
0.0124615
0.0125029
0.0140003
0.0140375
0.0140697
0.0158156
0.0158592
0.0158953
0.0179291
0.0179869
0.0180366
0.0203974
0.0204761
0.0205477
0.0232501
0.0233555
0.0234555
0.0263902
0.0265285
0.0266642
0.0295013
0.0296875
0.0298736
0.0320265
0.0322709
0.0325173
0.0334332
0.0337209
0.0340121
0.0335055
0.0337936
0.0340874
0.0324901
0.03272
0.0329572
0.030936
0.0310659
0.031203
0.0292308
0.029261
0.0293016
0.027641
0.0275403
0.0274544
0.0262076
0.0259861
0.0257797
0.0245928
0.0242925
0.024004
0.0222158
0.0218869
0.0215656
0.0180428
0.0177404
0.0174428
0.00958464
0.00945249
0.00932192
0.000110916
0.000252544
0.000384757
0.000495848
0.00059485
0.000683282
0.000764453
0.000839927
0.000910748
0.00097763
0.00104109
0.00110155
0.00115934
0.00121479
0.00126818
0.00131978
0.00136985
0.00141863
0.00146636
0.00151328
0.00155962
0.00160559
0.00165142
0.00169735
0.0017436
0.00179044
0.00183813
0.00188698
0.00193733
0.00198957
0.00204417
0.00210171
0.00216288
0.00222859
0.0022978
0.00236981
0.00244477
0.00252298
0.00260479
0.00268992
0.00277864
0.00287156
0.00296893
0.00307105
0.00317823
0.00329078
0.00340899
0.00353313
0.00366343
0.00380002
0.00394291
0.00409185
0.00424616
0.00440459
0.00456486
0.00472316
0.00487317
0.00500478
0.00510474
0.00516707
0.00520052
0.00520918
0.0051921
0.00511582
0.00498462
0.00479627
0.00454329
0.00424799
0.00392715
0.00358934
0.00324503
0.00289739
0.0025907
0.00230576
0.00203229
0.00176369
0.00149351
0.00121032
0.000899101
0.000514479
0.000418739
0.000780255
0.000984581
0.00116083
0.00134829
0.00154051
0.00172808
0.00191136
0.00208952
0.00226203
0.00242847
0.00258861
0.00274244
0.0028901
0.00303191
0.00316827
0.00329966
0.00342662
0.00354968
0.00366941
0.00378636
0.00390107
0.0040141
0.00412595
0.00423715
0.00434819
0.00445957
0.00457179
0.00468532
0.00480066
0.0049183
0.00503873
0.00516232
0.00528973
0.00542342
0.00556339
0.00570917
0.00586093
0.00601871
0.00618247
0.00635312
0.00653127
0.00671744
0.00691212
0.0071158
0.00732895
0.00755201
0.00778534
0.0080292
0.00828367
0.00854854
0.00882316
0.0091062
0.00939538
0.00968688
0.00997464
0.0102496
0.0104998
0.0107097
0.0108523
0.0109138
0.0108875
0.0107627
0.0105094
0.0101167
0.00961838
0.00902042
0.00837613
0.00771479
0.00705636
0.00642304
0.00581232
0.0051559
0.0044683
0.0037737
0.00310721
0.00250638
0.00200921
0.00158906
0.000859295
0.000644649
0.0012331
0.00150514
0.00176622
0.00204839
0.00233356
0.00260986
0.00287456
0.00312641
0.00336552
0.00359246
0.00380802
0.00401305
0.00420838
0.00439481
0.00457311
0.00474404
0.00490834
0.00506672
0.00521987
0.00536849
0.00551323
0.00565474
0.00579365
0.00593059
0.00606616
0.00620095
0.00633555
0.00647054
0.0066065
0.00674399
0.00688358
0.00702578
0.00717113
0.00732013
0.00747562
0.00763703
0.00780407
0.00797683
0.00815576
0.00834131
0.00853396
0.00873415
0.00894228
0.00915872
0.00938372
0.00961746
0.00985992
0.0101109
0.0103698
0.0106357
0.0109069
0.0111811
0.0114546
0.0117224
0.0119774
0.01221
0.0124084
0.012557
0.0126283
0.0126019
0.0124685
0.0122166
0.0118378
0.0113273
0.0106791
0.00991663
0.0091286
0.00832763
0.00752869
0.00678878
0.00611789
0.00546852
0.00480055
0.00411206
0.00342123
0.0027674
0.00220485
0.00173236
0.00092152
0.000846594
0.00165635
0.00202018
0.00236801
0.00272258
0.00306858
0.00339571
0.00370338
0.00399287
0.00426622
0.00452541
0.00477208
0.00500751
0.00523269
0.00544842
0.00565537
0.00585417
0.00604541
0.0062297
0.00640763
0.00657982
0.00674686
0.00690938
0.00706799
0.0072233
0.00737591
0.00752643
0.00767545
0.00782358
0.00797139
0.00811946
0.00826839
0.00841872
0.00857102
0.00872583
0.00888373
0.00904744
0.00921615
0.00938975
0.00956841
0.00975237
0.00994193
0.0101373
0.0103387
0.0105462
0.0107597
0.0109788
0.011203
0.0114314
0.0116627
0.0118949
0.0121255
0.0123511
0.0125671
0.0127679
0.0129462
0.0130926
0.013196
0.013242
0.013211
0.0130712
0.0128161
0.0124381
0.0119387
0.0113258
0.0106125
0.00981626
0.00895851
0.00805858
0.00713141
0.00628265
0.00554574
0.0049179
0.0043247
0.0037399
0.00315718
0.00259243
0.0020803
0.00161897
0.000854861
0.00104566
0.0020807
0.00254146
0.00295752
0.00335936
0.00373455
0.00408074
0.00440425
0.00470968
0.00500065
0.00527956
0.00554796
0.0058068
0.00605662
0.00629775
0.00653045
0.00675496
0.00697158
0.00718065
0.00738256
0.00757777
0.00776676
0.00795005
0.00812818
0.00830171
0.00847122
0.00863728
0.00880047
0.00896137
0.00912057
0.00927865
0.00943617
0.00959372
0.00975186
0.00991116
0.0100722
0.010236
0.0104045
0.0105771
0.0107535
0.010934
0.0111185
0.0113071
0.0114998
0.0116964
0.0118964
0.0120992
0.0123037
0.0125085
0.0127115
0.0129101
0.013101
0.0132799
0.0134416
0.0135802
0.0136881
0.0137561
0.0137732
0.0137261
0.0135994
0.0133773
0.0130457
0.0125883
0.0120072
0.0113189
0.0105423
0.00969371
0.00878063
0.00781258
0.00680856
0.0058214
0.00491148
0.00416465
0.00359908
0.00311791
0.00267381
0.0022458
0.00183435
0.00143131
0.000732999
0.0012974
0.00253715
0.00307383
0.00352866
0.00394607
0.00432434
0.00466652
0.00499024
0.0053008
0.00560212
0.00589591
0.00618284
0.00646298
0.00673608
0.00700182
0.00725991
0.00751014
0.00775244
0.00798685
0.00821355
0.00843277
0.00864488
0.00885027
0.00904939
0.00924274
0.00943084
0.00961422
0.00979345
0.00996909
0.0101417
0.0103119
0.0104803
0.0106473
0.0108137
0.01098
0.0111467
0.0113144
0.0114851
0.0116594
0.0118369
0.0120175
0.0122012
0.0123879
0.0125776
0.0127698
0.0129641
0.0131595
0.0133548
0.0135483
0.0137378
0.0139203
0.0140922
0.0142485
0.0143837
0.0144911
0.0145629
0.014591
0.0145639
0.0144702
0.0142934
0.0140191
0.0136355
0.0131345
0.0125152
0.0117881
0.0109724
0.0100933
0.00915461
0.00815627
0.00709111
0.00597435
0.00485796
0.00384038
0.00306734
0.002569
0.00221001
0.00189939
0.00158711
0.00123233
0.000633285
0.00163817
0.00313033
0.00363882
0.00408315
0.00448124
0.00483534
0.00516066
0.00547767
0.00578972
0.00609924
0.00640653
0.00671099
0.00701166
0.00730747
0.00759742
0.00788068
0.00815661
0.00842478
0.00868495
0.00893706
0.00918116
0.00941746
0.00964622
0.00986782
0.0100827
0.0102912
0.010494
0.0106914
0.0108842
0.0110728
0.0112579
0.0114399
0.0116196
0.0117976
0.0119744
0.0121507
0.012327
0.0125041
0.0126845
0.0128678
0.013054
0.013243
0.0134348
0.0136294
0.0138265
0.0140256
0.0142259
0.0144262
0.014625
0.01482
0.0150086
0.015187
0.0153509
0.0154947
0.0156102
0.0156895
0.0157244
0.0157013
0.015619
0.0154553
0.0151895
0.0148104
0.0143072
0.0136759
0.0129259
0.0120769
0.0111704
0.0101954
0.00920294
0.00817734
0.00709289
0.00593269
0.00472002
0.00355277
0.00263441
0.00212305
0.00179698
0.00151052
0.00114844
0.000574727
0.00236462
0.00370743
0.00419884
0.00460838
0.00496274
0.00527893
0.00558549
0.00589515
0.00620873
0.00652633
0.00684671
0.00716809
0.00748856
0.00780631
0.00811978
0.00842765
0.00872891
0.00902281
0.00930883
0.00958668
0.00985626
0.0101176
0.0103708
0.0106162
0.0108541
0.0110848
0.0113089
0.0115268
0.0117391
0.0119462
0.0121489
0.0123476
0.0125431
0.0127359
0.0129267
0.0131163
0.0133053
0.0134943
0.0136845
0.013878
0.0140747
0.0142745
0.0144777
0.0146843
0.0148942
0.0151072
0.0153228
0.0155402
0.015758
0.0159745
0.0161872
0.0163931
0.0165879
0.0167667
0.0169232
0.01705
0.0171385
0.0171758
0.0171522
0.0170507
0.016855
0.016549
0.016117
0.0155465
0.0148441
0.0140074
0.013076
0.0120699
0.0110374
0.0100114
0.00900244
0.00800667
0.00699242
0.00591151
0.00475429
0.00363387
0.00289605
0.00248018
0.00207466
0.00166284
0.00327438
0.00424823
0.0047107
0.0050682
0.0053728
0.00565889
0.00595354
0.00625902
0.00657531
0.00690089
0.00723341
0.00757023
0.00790877
0.00824667
0.00858191
0.00891281
0.00923803
0.00955654
0.00986759
0.0101707
0.0104655
0.0107519
0.01103
0.0112999
0.0115617
0.0118159
0.0120627
0.0123027
0.0125363
0.0127641
0.0129866
0.0132045
0.0134184
0.013629
0.013837
0.0140431
0.0142481
0.0144527
0.0146577
0.0148653
0.0150766
0.0152918
0.0155112
0.0157352
0.015964
0.0161977
0.0164361
0.016679
0.0169256
0.0171745
0.0174239
0.0176715
0.0179138
0.0181467
0.0183648
0.0185616
0.0187289
0.018857
0.0189342
0.0189462
0.0188777
0.0187118
0.0184309
0.0180187
0.0174619
0.0167548
0.0159054
0.0149313
0.0138656
0.0127797
0.0117122
0.0107165
0.00983765
0.00909161
0.00846887
0.00796288
0.00759151
0.00761679
0.00806198
0.00888283
0.00409234
0.00475471
0.00515587
0.00546186
0.00573248
0.00600602
0.00629267
0.00659524
0.00691323
0.0072445
0.0075861
0.00793489
0.00828787
0.00864231
0.00899586
0.00934653
0.00969273
0.0100332
0.0103669
0.0106932
0.0110116
0.0113218
0.0116237
0.0119173
0.0122027
0.0124801
0.0127499
0.0130124
0.013268
0.0135173
0.0137607
0.013999
0.0142327
0.0144626
0.0146894
0.0149139
0.015137
0.0153595
0.0155824
0.0158064
0.0160347
0.0162676
0.0165057
0.0167496
0.0169999
0.0172572
0.0175217
0.0177935
0.0180724
0.0183577
0.0186483
0.0189424
0.0192376
0.0195306
0.0198171
0.0200918
0.0203479
0.0205773
0.0207699
0.0209139
0.0209959
0.0210009
0.0209125
0.0207137
0.0203882
0.0199235
0.0193137
0.0185605
0.0176748
0.0166794
0.0156187
0.0145519
0.0135483
0.0126782
0.012001
0.0115899
0.0115142
0.0118228
0.0124197
0.0133722
0.00475483
0.00522831
0.00556358
0.00583374
0.00608869
0.00635127
0.00663019
0.00692826
0.00724498
0.00757804
0.00792431
0.00828044
0.00864317
0.00900956
0.00937702
0.00974333
0.0101067
0.0104656
0.0108188
0.0111656
0.0115051
0.011837
0.012161
0.0124769
0.0127847
0.0130846
0.0133767
0.0136614
0.013939
0.0142099
0.0144746
0.0147337
0.0149879
0.0152379
0.0154844
0.0157283
0.0159705
0.0162119
0.0164536
0.0166965
0.0169425
0.0171939
0.0174514
0.0177159
0.0179883
0.0182694
0.01856
0.0188606
0.0191714
0.0194924
0.0198231
0.0201624
0.0205087
0.0208596
0.0212118
0.0215611
0.0219021
0.0222283
0.0225316
0.0228025
0.0230303
0.023203
0.0233072
0.0233293
0.0232556
0.0230741
0.0227766
0.0223598
0.0218282
0.0211942
0.0204748
0.0197046
0.0189301
0.0182104
0.0176168
0.0172454
0.0171735
0.0174463
0.0181072
0.0191322
0.00532951
0.00569001
0.00597621
0.00622432
0.00646501
0.00671602
0.00698536
0.00727595
0.00758743
0.00791765
0.00826355
0.00862178
0.00898905
0.00936227
0.00973873
0.010116
0.0104922
0.0108655
0.0112346
0.0115985
0.0119562
0.0123071
0.0126509
0.0129871
0.0133158
0.0136367
0.0139501
0.0142561
0.0145549
0.014847
0.0151327
0.0154126
0.0156873
0.0159575
0.016224
0.0164875
0.0167491
0.0170098
0.0172706
0.0175327
0.0177972
0.0180671
0.0183438
0.0186282
0.0189216
0.0192252
0.0195401
0.0198671
0.020207
0.0205602
0.0209268
0.0213064
0.0216978
0.0220996
0.0225093
0.0229237
0.0233385
0.0237484
0.024147
0.0245267
0.0248789
0.0251941
0.025462
0.0256721
0.0258139
0.0258787
0.02586
0.0257559
0.0255707
0.025309
0.0249823
0.0246104
0.0242203
0.0238448
0.0235215
0.0232916
0.0232009
0.0232765
0.0235884
0.0240973
0.00586988
0.00616055
0.00641288
0.0066449
0.00687282
0.00711219
0.00737032
0.00765047
0.0079528
0.0082756
0.00861614
0.00897128
0.00933782
0.0097127
0.0100931
0.0104766
0.0108611
0.0112446
0.0116256
0.012003
0.0123756
0.0127426
0.0131035
0.0134577
0.013805
0.0141453
0.0144783
0.0148043
0.0151233
0.0154357
0.0157417
0.0160419
0.0163367
0.0166268
0.0169129
0.0171959
0.0174768
0.0177565
0.0180362
0.0183172
0.0186006
0.0188883
0.019183
0.0194861
0.0197988
0.0201227
0.0204591
0.0208093
0.0211742
0.0215548
0.0219516
0.0223647
0.0227935
0.0232372
0.0236939
0.0241612
0.0246356
0.0251129
0.0255875
0.0260534
0.0265032
0.0269291
0.0273226
0.027675
0.0279778
0.0282235
0.0284064
0.028524
0.0285749
0.0285594
0.0284822
0.028351
0.0281752
0.0279675
0.0277571
0.027563
0.0274068
0.0272999
0.0273172
0.0274512
0.00640747
0.0066534
0.00688115
0.0070995
0.00731771
0.00754627
0.00779252
0.00806016
0.00835018
0.00866165
0.00899244
0.00933981
0.00970081
0.0100725
0.0104522
0.0108372
0.0112255
0.011615
0.012004
0.0123912
0.0127752
0.0131552
0.0135303
0.0138999
0.0142636
0.014621
0.0149719
0.0153162
0.015654
0.0159854
0.0163107
0.0166301
0.0169442
0.0172535
0.0175588
0.0178607
0.0181603
0.0184585
0.0187565
0.0190556
0.019357
0.0196621
0.0199739
0.0202941
0.0206242
0.0209659
0.0213208
0.0216903
0.0220759
0.0224787
0.0228995
0.0233389
0.0237969
0.0242728
0.0247656
0.0252732
0.0257929
0.0263209
0.0268526
0.0273825
0.0279042
0.0284107
0.0288943
0.0293471
0.0297613
0.0301293
0.0304451
0.0307034
0.0308992
0.0310292
0.0310922
0.0310872
0.0310128
0.0308773
0.0307009
0.0305019
0.0302907
0.0300761
0.0298994
0.0297663
0.00696876
0.00718236
0.00738942
0.0075949
0.00780492
0.00802342
0.00825773
0.00851175
0.00878741
0.00908474
0.0094024
0.00973822
0.0100897
0.010454
0.0108287
0.0112112
0.0115992
0.0119907
0.0123839
0.0127772
0.0131693
0.013559
0.0139454
0.0143276
0.0147051
0.0150773
0.0154439
0.0158046
0.0161594
0.0165083
0.0168513
0.0171888
0.0175211
0.0178486
0.018172
0.018492
0.0188095
0.0191255
0.019441
0.0197573