/*--------------------------------*- C++ -*----------------------------------*\
| =========                 |                                                 |
| \\      /  F ield         | OpenFOAM: The Open Source CFD Toolbox           |
|  \\    /   O peration     | Version:  v2012                                 |
|   \\  /    A nd           | Website:  www.openfoam.com                      |
|    \\/     M anipulation  |                                                 |
\*---------------------------------------------------------------------------*/
FoamFile
{
    version     2.0;
    format      ascii;
    class       volScalarField;
    location    "572";
    object      nut;
}
// * * * * * * * * * * * * * * * * * * * * * * * * * * * * * * * * * * * * * //

dimensions      [0 2 -1 0 0 0 0];


internalField   nonuniform List<scalar> 
6598
(
0.0026423
0.00928474
0.011031
0.0113148
0.0112726
0.0112726
0.0113148
0.011031
0.00928474
0.0026423
0.00201761
0.00768328
0.0101755
0.0108342
0.0109172
0.0109172
0.0108342
0.0101755
0.00768328
0.00201761
0.00163209
0.00664896
0.0093922
0.0103413
0.010564
0.010564
0.0103413
0.0093922
0.00664897
0.00163209
0.00137556
0.00591547
0.00871078
0.00985805
0.010204
0.010204
0.00985806
0.0087108
0.00591549
0.00137556
0.00119424
0.0053624
0.00812561
0.00939759
0.00983993
0.00983993
0.0093976
0.00812563
0.00536242
0.00119424
0.00105972
0.00492643
0.00762194
0.00896573
0.0094776
0.00947761
0.00896576
0.00762198
0.00492647
0.00105972
0.00095597
0.00457098
0.00718482
0.00856395
0.00912262
0.00912263
0.00856399
0.00718487
0.00457104
0.000955973
0.000873392
0.00427341
0.00680152
0.00819143
0.00877914
0.00877917
0.00819149
0.0068016
0.0042735
0.000873397
0.000805959
0.00401901
0.00646189
0.00784631
0.00844987
0.00844991
0.00784641
0.00646202
0.00401914
0.000805965
0.000749717
0.00379781
0.00615804
0.00752638
0.00813628
0.00813633
0.00752652
0.00615824
0.003798
0.000749727
0.000701981
0.00360279
0.00588385
0.00722939
0.00783895
0.00783904
0.0072296
0.00588415
0.00360308
0.000701994
0.000660862
0.00342891
0.00563456
0.0069532
0.00755786
0.00755798
0.00695351
0.00563501
0.00342933
0.000660882
0.000625001
0.00327241
0.00540645
0.00669585
0.00729257
0.00729276
0.00669633
0.00540712
0.00327303
0.000625029
0.000593391
0.00313042
0.00519656
0.0064556
0.0070424
0.00704268
0.00645631
0.00519754
0.00313133
0.000593432
0.000565274
0.00300073
0.00500249
0.00623085
0.00680654
0.00680696
0.00623191
0.00500394
0.00300207
0.000565332
0.000540064
0.00288158
0.00482229
0.00602019
0.00658413
0.00658472
0.00602178
0.00482442
0.00288353
0.000540146
0.000517303
0.00277152
0.00465431
0.00582233
0.00637425
0.00637509
0.00582465
0.0046575
0.00277435
0.000517421
0.000496628
0.00266936
0.00449717
0.00563612
0.00617604
0.00617721
0.00563943
0.00450189
0.00267341
0.000496794
0.000477744
0.0025741
0.00434968
0.00546053
0.00598867
0.00599031
0.0054652
0.00435642
0.00258002
0.000477978
0.000460413
0.00248494
0.00421091
0.00529476
0.00581151
0.00581382
0.00530136
0.00422044
0.00249239
0.000460733
0.000444839
0.00240298
0.00408261
0.00514101
0.00564704
0.00565031
0.00515068
0.00409894
0.00243436
0.00050455
0.000430392
0.00232549
0.00396104
0.00499523
0.00549118
0.00549584
0.00500957
0.00398865
0.00238835
0.00056378
0.000416936
0.00225182
0.00384517
0.0048562
0.00534269
0.00534925
0.00487707
0.00388844
0.002357
0.000638257
0.000404357
0.00218149
0.00373435
0.00472328
0.00520097
0.0052099
0.00475227
0.00379579
0.00235226
0.000733527
0.000392558
0.0021141
0.00362802
0.00459587
0.00506541
0.00507684
0.0046332
0.00371503
0.00237179
0.00085574
0.000381453
0.00204927
0.00352566
0.00447339
0.00493546
0.00494989
0.00451911
0.00364881
0.00240496
0.0010058
0.000370965
0.0019866
0.00342666
0.00435519
0.00481051
0.00482886
0.00441421
0.00359125
0.00244229
0.00118118
0.000360706
0.00192401
0.00332794
0.0042378
0.00468713
0.0047108
0.00431601
0.00354107
0.00248333
0.0013825
0.000350971
0.00186308
0.00323179
0.00412382
0.00456811
0.00459856
0.00422631
0.00349949
0.00252967
0.00159628
0.000341703
0.00180356
0.00313798
0.00401317
0.0044535
0.00449225
0.00414466
0.00346616
0.00258285
0.00180267
0.00033285
0.00174515
0.00304606
0.00390537
0.0043429
0.0043915
0.00407042
0.00344072
0.00264299
0.00199869
0.000324362
0.0016876
0.00295556
0.00379995
0.00423589
0.00429592
0.00400301
0.00342278
0.00270903
0.00218177
0.000316194
0.00163056
0.00286601
0.00369638
0.00413202
0.00420503
0.00394184
0.00341162
0.00277771
0.00234981
0.000308301
0.0015737
0.00277691
0.00359414
0.00403076
0.00411834
0.0038863
0.00340637
0.0028473
0.00250153
0.000300641
0.00151674
0.00268773
0.00349263
0.00393155
0.00403527
0.00383569
0.00340593
0.002916
0.00263636
0.000293174
0.00145938
0.00259792
0.00339123
0.00383376
0.00395516
0.00378921
0.00340917
0.00298219
0.00275434
0.000285859
0.0014014
0.00250695
0.00328925
0.00373667
0.00387724
0.00374594
0.00341488
0.00304449
0.00285598
0.000278655
0.0013426
0.0024143
0.003186
0.00363949
0.00380066
0.00370486
0.0034218
0.00310193
0.00294229
0.000271524
0.00128285
0.00231951
0.00308074
0.00354136
0.00372442
0.00366483
0.00342867
0.00315388
0.00301471
0.000264426
0.00122213
0.00222216
0.00297272
0.00344132
0.00364744
0.00362459
0.00343425
0.00320009
0.0030751
0.000257322
0.00116047
0.00212195
0.00286122
0.00333834
0.00356844
0.00358276
0.0034373
0.00324053
0.00312564
0.000250171
0.00109798
0.00201867
0.0027455
0.00323127
0.003486
0.00353777
0.00343648
0.00327526
0.00316868
0.000242933
0.00103484
0.00191225
0.00262489
0.00311888
0.00339852
0.00348784
0.0034303
0.00330411
0.00320637
0.000235565
0.000971271
0.0018027
0.00249874
0.00299985
0.00330413
0.00343088
0.0034169
0.00332645
0.00324025
0.000228021
0.000907533
0.00169016
0.00236647
0.00287275
0.00320073
0.00336441
0.00339387
0.00334075
0.00327067
0.00022025
0.000843905
0.00157488
0.00222759
0.00273609
0.00308594
0.00328548
0.00335813
0.00334436
0.0032962
0.000212195
0.000780635
0.00145716
0.00208174
0.0025884
0.00295718
0.00319066
0.00330579
0.00333329
0.00331324
0.000203785
0.000717927
0.00133737
0.0019287
0.00242831
0.0028118
0.00307618
0.00323224
0.0033022
0.00331593
0.000194934
0.000655925
0.00121593
0.00176849
0.00225474
0.00264731
0.00293818
0.00313238
0.00324474
0.0032965
0.000185523
0.000594716
0.00109334
0.00160151
0.00206722
0.00246184
0.00277324
0.00300121
0.00315414
0.00324601
0.000175383
0.000534244
0.000970218
0.00142875
0.00186629
0.00225479
0.00257919
0.00283473
0.00302426
0.00315565
0.000164252
0.000474414
0.0008476
0.00125227
0.00165424
0.0020278
0.00235627
0.00263127
0.002851
0.00301831
0.000134237
0.000416383
0.000727612
0.00107593
0.00143618
0.00178606
0.00210864
0.00239313
0.00263416
0.00282999
9.6873e-05
0.00036649
0.000617585
0.000907855
0.00122126
0.00153921
0.00184548
0.00212785
0.00237752
0.00258961
0.000110818
0.000321996
0.000531299
0.000764359
0.00102599
0.00130343
0.00158195
0.00184749
0.00209099
0.00230726
9.47243e-05
0.000304176
0.000477548
0.000662456
0.000872346
0.00110193
0.00133891
0.0015733
0.00179696
0.00200378
7.15593e-05
0.000297589
0.000447494
0.000604952
0.000772703
0.000952871
0.00114291
0.00133694
0.0015284
0.0017041
6.37895e-05
0.000280062
0.00044324
0.000578419
0.000685691
0.000789344
0.000904351
0.00103014
0.00116199
0.00129248
6.49311e-05
0.000211006
0.000416716
0.000538808
0.00065111
0.000679959
0.00072167
0.000792299
0.000886408
0.000983035
6.83205e-05
0.000113454
0.000138727
0.000169191
0.000196451
0.000219617
0.00023503
0.000247608
0.000258084
0.000266577
0.000123506
0.000154247
0.000153463
0.000153933
0.00015312
0.000149892
0.000142829
0.000135959
0.000129469
0.000123232
0.000117164
0.000111423
0.000106017
0.000100909
9.60026e-05
9.13697e-05
8.70886e-05
8.29734e-05
7.88771e-05
7.46627e-05
7.01693e-05
6.51727e-05
4.52558e-05
4.72823e-05
3.39568e-05
0.000220962
0.00046079
0.000656066
0.000739779
0.000767022
0.000764711
0.000686599
0.000626778
0.000617345
0.000609468
0.000568721
0.000531517
0.000497347
0.000465925
0.000436006
0.000399687
0.000355083
0.000307228
0.000260045
0.000216193
0.000177672
0.000145762
0.000121832
9.34593e-05
4.12287e-05
0.000359821
0.00059512
0.000796714
0.000931827
0.00097733
0.000948221
0.000770219
0.000654286
0.000607963
0.000609847
0.00064956
0.000692679
0.00066069
0.00063267
0.000606214
0.000574587
0.000529441
0.000472233
0.000406324
0.000336908
0.00027027
0.000212324
0.000167102
0.000131578
3.50768e-05
0.000606626
0.000624818
0.000851442
0.000974499
0.00101362
0.000994827
0.000887101
0.000741351
0.000646062
0.000616637
0.000638391
0.000660389
0.000636495
0.000623642
0.000616101
0.000605396
0.000580344
0.000537981
0.000478582
0.000406315
0.000329084
0.000256402
0.000196151
0.000146087
4.45277e-05
0.000934353
0.00082085
0.000992423
0.00103364
0.00102931
0.000984255
0.000919014
0.000848138
0.000740936
0.00066343
0.000620502
0.000569478
0.000544357
0.00054313
0.000555507
0.000567731
0.00056526
0.000541243
0.000494933
0.000429823
0.000353598
0.00027695
0.000209771
0.000150283
4.32825e-05
0.00119323
0.00113802
0.00120579
0.00116024
0.00109418
0.00100428
0.000909645
0.000821465
0.000734844
0.000646664
0.000561672
0.000494607
0.00045941
0.000459143
0.000483702
0.000512267
0.000524686
0.000512377
0.000476402
0.000420117
0.000350346
0.000277097
0.00021007
0.000146851
4.13098e-05
0.00140137
0.00151924
0.00144365
0.00132469
0.00120085
0.00106545
0.000942397
0.000836313
0.00073474
0.000631105
0.00053344
0.000455969
0.000410896
0.000400466
0.000417366
0.000444336
0.000461215
0.000455281
0.000427763
0.000381866
0.000323512
0.000260708
0.000200258
0.000138108
3.92646e-05
0.0016056
0.001759
0.00168352
0.00151489
0.00133586
0.00115619
0.00100372
0.000880795
0.000764146
0.00064499
0.00053408
0.000446144
0.000388899
0.000362118
0.000360978
0.000373595
0.000383875
0.000379217
0.000358906
0.000324776
0.000281203
0.000233884
0.000187198
0.000122748
4.40097e-05
0.00180251
0.00197784
0.00191968
0.00172488
0.00149647
0.00127385
0.00109126
0.000952864
0.000822532
0.000687393
0.000561748
0.000462073
0.000391793
0.000346683
0.000322645
0.000313956
0.000311784
0.000306072
0.000291946
0.000269677
0.000241968
0.000212235
0.000165503
0.000133674
0.000138813
0.00199101
0.00218062
0.00214699
0.00194722
0.00166985
0.00140705
0.00120028
0.00104913
0.000910693
0.000761698
0.000620287
0.000507673
0.000426292
0.000368471
0.000327793
0.000300618
0.000284871
0.000277455
0.000269288
0.000259764
0.000250683
0.0002447
0.000244449
0.000235276
0.000195892
0.00217012
0.00236739
0.00235496
0.00215007
0.00184468
0.00155031
0.00132416
0.00116862
0.00103066
0.000874471
0.000718613
0.000591143
0.000498719
0.000434124
0.000389298
0.000358895
0.000340286
0.000332654
0.000329191
0.00032868
0.000331281
0.000337223
0.000339198
0.000353495
0.000388001
0.00233782
0.00253731
0.00254225
0.00233973
0.00202009
0.00170038
0.00145949
0.00130693
0.00118128
0.0010303
0.000867217
0.000725002
0.00061715
0.000540951
0.000489698
0.000456987
0.000438229
0.000429609
0.000426448
0.000427906
0.00043422
0.000446745
0.000468998
0.000508957
0.000575685
0.00249261
0.00268932
0.00270865
0.00251837
0.00219796
0.00185494
0.00160149
0.00145665
0.00135549
0.0012131
0.00107113
0.000924372
0.000803816
0.000712096
0.000647211
0.000605048
0.000581911
0.000569962
0.000568147
0.000575502
0.000592821
0.000622919
0.000671411
0.000747229
0.000861296
0.00263252
0.00282277
0.00285423
0.00268217
0.00236211
0.00201107
0.00174664
0.00160957
0.00154109
0.00129739
0.00117578
0.00113786
0.00107004
0.000974522
0.000901494
0.00084979
0.000818478
0.000800098
0.000797158
0.000810055
0.000841048
0.000892325
0.000967362
0.00106433
0.00113005
0.00275602
0.00293778
0.00298077
0.00283127
0.00252149
0.00217457
0.00189521
0.00175916
0.00172375
0.00153666
0.00131536
0.00124055
0.00122591
0.00123204
0.0012362
0.00118409
0.00114346
0.00112113
0.00111847
0.00113646
0.00114983
0.0011518
0.00118878
0.00127247
0.00140852
0.00286227
0.00303428
0.0030884
0.00296503
0.00267679
0.00233529
0.00205132
0.00190307
0.00188877
0.00191551
0.00163226
0.00149501
0.00144712
0.00142616
0.00141461
0.00140157
0.00138388
0.00136307
0.00134473
0.00133841
0.00135673
0.00140325
0.00147778
0.00159
0.00173583
0.0029511
0.00311229
0.00317684
0.00308201
0.00282958
0.00249769
0.00220947
0.0020466
0.00202912
0.002095
0.00214239
0.00196214
0.00186928
0.0018202
0.0017817
0.00175152
0.00172819
0.00171195
0.00170481
0.00171271
0.0017413
0.00179459
0.00187436
0.0019804
0.00210608
0.00302302
0.0031721
0.00324598
0.00318137
0.00297221
0.00266394
0.00237189
0.00218865
0.00215185
0.00222665
0.00233446
0.00242137
0.00246783
0.00242397
0.0023697
0.00232993
0.00229931
0.00227728
0.00226554
0.00226528
0.0022782
0.00230838
0.00235852
0.00243046
0.0025227
0.00307922
0.00321445
0.00329604
0.00326128
0.00309767
0.0028332
0.00254299
0.00233713
0.00226492
0.0023185
0.00243875
0.00256323
0.00266731
0.00274044
0.00278734
0.0028216
0.00285447
0.0028934
0.00294292
0.00291391
0.00288951
0.00287804
0.00288489
0.00291508
0.00296995
0.0031216
0.00324064
0.00332699
0.00331972
0.00320173
0.00298858
0.00272926
0.00250355
0.00239074
0.0024027
0.00250505
0.0026424
0.00277471
0.00289069
0.00298824
0.00306963
0.00314229
0.00321311
0.00328655
0.00336596
0.00345202
0.00341413
0.00338233
0.00337816
0.00340361
0.00315283
0.00325287
0.0033397
0.00335582
0.0032805
0.00312054
0.00290734
0.00269397
0.00254452
0.00250576
0.00256645
0.00268712
0.00282657
0.00296046
0.00308161
0.00319126
0.00329228
0.00338742
0.0034785
0.0035677
0.00365632
0.00374465
0.00377752
0.00375479
0.00375608
0.00317623
0.00325444
0.00333637
0.00337003
0.00333177
0.00322238
0.00306061
0.00288133
0.0027295
0.00264628
0.00265372
0.00273457
0.00285569
0.00298991
0.00312048
0.00324177
0.00335382
0.00345844
0.00355732
0.00365128
0.00374088
0.00382645
0.00390794
0.00397857
0.00397883
0.00319551
0.00324976
0.0033209
0.00336452
0.00335592
0.00329053
0.00317896
0.00304301
0.00291288
0.00281941
0.00278538
0.00281612
0.00289953
0.00301534
0.00314016
0.0032639
0.00338228
0.00349398
0.00359875
0.00369651
0.00378729
0.00387119
0.0039484
0.00401925
0.0040623
0.00321429
0.00324405
0.00329893
0.00334398
0.00335564
0.00332545
0.00325772
0.00316607
0.00306938
0.00298889
0.00294333
0.00294322
0.00298854
0.00307004
0.00317359
0.00328701
0.00340215
0.00351425
0.00362054
0.00371936
0.00381003
0.00389252
0.00396698
0.00400074
0.00402532
0.00323524
0.00324252
0.00327742
0.00331561
0.00333704
0.00333147
0.00329847
0.00324526
0.00318397
0.00312842
0.0030916
0.00308358
0.00310866
0.00316448
0.00324391
0.00333829
0.00343974
0.00354206
0.00364123
0.00369022
0.00369491
0.00371513
0.00374829
0.00378535
0.00382152
0.0032591
0.00324907
0.00326335
0.00328831
0.00330936
0.00331678
0.00330741
0.00328393
0.00325303
0.00322348
0.00320434
0.00320318
0.00322471
0.00326927
0.003333
0.00340997
0.00349392
0.00346586
0.00342318
0.00340715
0.00341278
0.00343323
0.00346328
0.00349906
0.00353715
0.00328373
0.00326468
0.0032618
0.00327083
0.00328365
0.00329309
0.00329539
0.00329053
0.00328158
0.00327365
0.0032724
0.00328298
0.00330891
0.00335107
0.00340687
0.00342249
0.00332093
0.0032407
0.00319211
0.00316975
0.00316589
0.00317552
0.00319602
0.0032246
0.00325841
0.00330361
0.00328606
0.00327361
0.0032689
0.00326993
0.00327331
0.00327647
0.0032787
0.00328123
0.00328658
0.00329797
0.00331854
0.00335058
0.00339434
0.00344548
0.00328775
0.00316454
0.0030782
0.00302033
0.00298561
0.00296975
0.00296873
0.00297939
0.0029992
0.00302589
0.00330997
0.00330508
0.00329362
0.00328216
0.0032733
0.00326745
0.00326453
0.00326464
0.00326846
0.00327735
0.00329303
0.00331724
0.00335123
0.00339488
0.00343535
0.00323848
0.00308891
0.00298463
0.00290996
0.00285899
0.00282828
0.0028143
0.00281359
0.00282324
0.00284111
0.00329176
0.00330947
0.00331031
0.00330214
0.00329014
0.00327797
0.00326785
0.0032613
0.00325962
0.00326405
0.00327581
0.00329594
0.00332512
0.00336324
0.00340863
0.00333666
0.00314163
0.00299746
0.00289521
0.00282298
0.00277218
0.00273935
0.00272155
0.0027158
0.00272008
0.0032371
0.00328451
0.00330699
0.00331229
0.00330701
0.00329613
0.00328343
0.00327176
0.00326336
0.00326001
0.00326309
0.00327366
0.00329231
0.00331915
0.00335353
0.00339355
0.00339106
0.00318949
0.00303604
0.00292525
0.0028448
0.00278669
0.00274646
0.00271993
0.00270515
0.00313515
0.00321452
0.00326443
0.0032918
0.00330275
0.00330249
0.00329537
0.00328497
0.00327424
0.00326552
0.00326067
0.00326104
0.00326754
0.00328064
0.00330031
0.00332603
0.00335666
0.00339034
0.00339825
0.00323333
0.00310343
0.003007
0.00293551
0.00288261
0.00284481
0.00297633
0.00308638
0.00316584
0.00321992
0.00325372
0.0032719
0.00327866
0.00327766
0.00327207
0.00326453
0.00325721
0.00325182
0.00324963
0.0032515
0.00325792
0.00326902
0.00328462
0.00330422
0.00332704
0.00335184
0.00337794
0.00340455
0.00332476
0.00323473
0.00316661
0.00275805
0.00289375
0.00300037
0.00308136
0.00314044
0.00318135
0.00320763
0.0032226
0.00322922
0.00323011
0.00322752
0.00322332
0.00321901
0.00321576
0.00321441
0.00321551
0.0032194
0.00322618
0.00323576
0.00324789
0.00326223
0.00327837
0.00329559
0.00331345
0.00333159
0.00248726
0.0026401
0.00276748
0.00287117
0.00295346
0.00301691
0.0030642
0.003098
0.00312085
0.00313508
0.0031428
0.00314584
0.00314577
0.00314388
0.00314121
0.00313856
0.00313654
0.00313558
0.00313596
0.00313783
0.00314123
0.00314611
0.00315234
0.00315975
0.00316814
0.00218286
0.00234132
0.0024792
0.00259682
0.00269531
0.0027761
0.00284092
0.00289168
0.0029303
0.0029587
0.00297865
0.00299179
0.00299958
0.00300327
0.00300394
0.0030025
0.00299968
0.00299606
0.00299211
0.00298818
0.00298453
0.00298133
0.00297871
0.00297674
0.00297546
0.0018445
0.0019824
0.00212481
0.00227533
0.00237816
0.00246572
0.00253912
0.00259947
0.00264806
0.00268623
0.00271533
0.00273664
0.00275138
0.00276065
0.00276543
0.00276658
0.00276486
0.00276088
0.00275518
0.00274821
0.00274032
0.00273182
0.00272293
0.00271387
0.00270485
0.00141611
0.00154104
0.00167065
0.00180772
0.001956
0.00207787
0.00214515
0.00220121
0.00224694
0.00228327
0.00231118
0.0023316
0.00234546
0.00235364
0.00235694
0.0023561
0.0023518
0.00234462
0.00233508
0.00232364
0.00231068
0.00229654
0.00228151
0.00226585
0.00224986
0.00107857
0.00118168
0.0012914
0.0013888
0.00143639
0.00147659
0.00150931
0.00153502
0.00155422
0.00156749
0.00157542
0.00157861
0.00157763
0.00157305
0.00156539
0.00155516
0.0015428
0.0015287
0.00151324
0.00149672
0.00147943
0.00146159
0.00144342
0.00142509
0.0014068
0.000273287
0.000279023
0.000283994
0.000288259
0.000291749
0.000294556
0.000296736
0.000298339
0.000299414
0.000300009
0.000300171
0.000299946
0.000299378
0.000298507
0.000297375
0.000296018
0.000294471
0.000292766
0.000290929
0.000288988
0.000286964
0.000284878
0.000282746
0.000280583
0.000278403
3.87696e-05
5.40621e-05
6.46676e-05
0.000137543
0.000125598
0.000242154
0.000235609
0.000337241
0.000432085
0.000447217
0.00054448
0.000719347
0.000691054
0.000853383
0.00108965
0.00102116
0.00116736
0.00138744
0.00128056
0.00147339
0.00169107
0.00158256
0.00176581
0.00196599
0.00189531
0.00205916
0.00224265
0.00224168
0.00238608
0.0025513
0.00263038
0.00275162
0.00289419
0.00304688
0.00314176
0.00325815
0.0034543
0.00352473
0.0036147
0.00378591
0.00383615
0.00390198
0.00399285
0.00402682
0.00407368
0.00407946
0.00410438
0.00413878
0.00404851
0.00407376
0.00410384
0.00385327
0.00388375
0.00391745
0.00357297
0.00360767
0.00364492
0.00329226
0.00332601
0.00336247
0.00305439
0.00308426
0.00311738
0.0028623
0.00288645
0.00291444
0.00272983
0.00274468
0.00276418
0.00269844
0.00269922
0.00270569
0.00281821
0.00280127
0.00279093
0.00311675
0.00308049
0.00305267
0.00334792
0.00336421
0.00338063
0.00317621
0.00318486
0.00319403
0.00297469
0.0029745
0.00297476
0.0026967
0.00268881
0.002681
0.00223529
0.00222076
0.00220611
0.00139062
0.00137467
0.00135885
0.000276482
0.000274569
0.000272666
2.54884e-05
4.33344e-05
5.34882e-05
5.47455e-05
6.65072e-05
7.12795e-05
7.53946e-05
7.90288e-05
8.22932e-05
8.52613e-05
8.79852e-05
9.05037e-05
9.28477e-05
9.50422e-05
9.71082e-05
9.90641e-05
0.000100926
0.000102707
0.000104421
0.000106078
0.00010769
0.000109265
0.000110814
0.000112344
0.000113865
0.000115384
0.000116911
0.000118454
0.000120024
0.000121631
0.000123289
0.000125012
0.000126818
0.00012873
0.000130714
0.000132746
0.00013483
0.000136969
0.000139172
0.000141428
0.000143741
0.000146125
0.000148582
0.000151116
0.00015373
0.000156428
0.000159213
0.000162086
0.000165048
0.000168097
0.000171228
0.000174432
0.000177691
0.000180975
0.000184238
0.000187406
0.000190358
0.000192912
0.000194829
0.000196014
0.000196648
0.000196811
0.000196489
0.00019504
0.000192523
0.00018885
0.000183802
0.000177728
0.000170885
0.00016337
0.000155337
0.000146781
0.000138795
0.00013094
0.00012293
0.000114519
0.000105383
8.61106e-05
8.17654e-05
5.48946e-05
4.45171e-05
0.000126814
0.000146658
0.000166246
0.000190907
0.000219168
0.000249264
0.000280529
0.000312314
0.000344081
0.000375386
0.00040589
0.000435352
0.000463623
0.000490627
0.000516348
0.000540813
0.000564079
0.000586221
0.000607328
0.000627489
0.000646796
0.000665334
0.000683185
0.000700417
0.000717092
0.000733259
0.000748956
0.000764202
0.000779
0.000793335
0.000807164
0.000820326
0.000832792
0.000845678
0.000859157
0.000873034
0.000887297
0.000901894
0.000916788
0.000932049
0.000947727
0.000963836
0.000980383
0.000997371
0.0010148
0.00103264
0.00105087
0.00106945
0.0010883
0.00110731
0.00112632
0.00114509
0.00116331
0.0011805
0.00119598
0.00120878
0.00121762
0.00122079
0.00121577
0.00120409
0.00118678
0.00116312
0.00113099
0.00109208
0.00104734
0.000997137
0.000944464
0.00088988
0.000832679
0.000773881
0.000709523
0.000617725
0.000516844
0.000418475
0.000330439
0.000257778
0.00020346
0.000162764
6.37717e-05
5.52353e-05
0.000188669
0.000239471
0.000291405
0.000348588
0.000413748
0.000483845
0.000556594
0.000630052
0.000702695
0.000773396
0.000841392
0.00090622
0.000967654
0.00102564
0.00108023
0.00113157
0.00117985
0.00122527
0.00126806
0.00130842
0.00134657
0.00138269
0.00141697
0.00144956
0.0014806
0.00151023
0.00153854
0.00156562
0.00159156
0.00161641
0.00164022
0.00166301
0.00168482
0.00170568
0.00172718
0.00174899
0.00177085
0.00179266
0.00181436
0.00183593
0.00185733
0.00187849
0.00189931
0.0019197
0.00193949
0.00195851
0.00197654
0.00199332
0.00200851
0.00202173
0.00203251
0.00204026
0.0020443
0.00204379
0.00203772
0.0020249
0.00200397
0.00197337
0.00180885
0.00162448
0.00147565
0.00135931
0.00127164
0.00121383
0.00118151
0.00117224
0.00119772
0.00122965
0.00115536
0.00108221
0.00100478
0.000901794
0.000773678
0.000631762
0.000491479
0.000368537
0.000273722
0.000202434
6.60403e-05
5.92222e-05
0.000235547
0.000330126
0.000441208
0.000538151
0.000645393
0.000758527
0.000873848
0.000988352
0.00109984
0.00120685
0.00130854
0.00140448
0.00149457
0.00157894
0.00165781
0.00173148
0.00180028
0.00186457
0.00192468
0.00198094
0.00203365
0.00208308
0.00212949
0.00217312
0.00221417
0.00225282
0.00228924
0.00232357
0.00235594
0.00238646
0.00241521
0.00244227
0.00246768
0.0024915
0.00251375
0.00253605
0.0025577
0.00257841
0.00259801
0.00261635
0.00263329
0.00264865
0.00266223
0.00267377
0.002683
0.00268958
0.00269313
0.0026932
0.0026893
0.00268087
0.0026673
0.00264787
0.00262184
0.00258844
0.00254682
0.00249611
0.00243546
0.00236405
0.00225085
0.00198176
0.00175569
0.00156819
0.00141477
0.00129652
0.00121083
0.00115629
0.00113487
0.001147
0.00117422
0.00110196
0.00103374
0.000950265
0.00083523
0.000696676
0.000549629
0.00041278
0.000301642
0.000212826
6.3607e-05
7.03478e-05
0.000282817
0.000409738
0.000568663
0.000744606
0.000902068
0.00105526
0.00120845
0.00135815
0.00150204
0.00163876
0.00176763
0.00188846
0.00200139
0.0021067
0.0022048
0.00229614
0.00238115
0.00246029
0.00253397
0.00260259
0.00266651
0.00272606
0.00278154
0.00283323
0.00288137
0.00292618
0.00296784
0.00300653
0.00304239
0.00307553
0.00310607
0.00313406
0.00315956
0.00318261
0.00320319
0.00322165
0.00323901
0.0032546
0.00326807
0.00327919
0.00328771
0.00329339
0.00329595
0.00329507
0.00329037
0.00328144
0.00326781
0.00324895
0.00322426
0.00319311
0.00315482
0.00310865
0.00305386
0.00298978
0.00291576
0.00283115
0.00273544
0.00262823
0.00250929
0.00237869
0.00223666
0.00199762
0.00175272
0.00155123
0.0013836
0.00124651
0.00114243
0.00106648
0.0010286
0.00100584
0.000928074
0.000855726
0.000764801
0.000649148
0.000523119
0.000401256
0.000296154
0.000204043
5.88991e-05
5.18248e-05
0.000325554
0.000481385
0.000681099
0.000914259
0.00117495
0.00136179
0.00154605
0.0017239
0.00189326
0.00205309
0.00220304
0.00234319
0.0024739
0.00259563
0.00270889
0.00281424
0.00291218
0.00300322
0.00308782
0.0031664
0.00323936
0.00330706
0.00336981
0.00342792
0.00348163
0.00353119
0.00357678
0.00361859
0.00365677
0.00369144
0.0037227
0.00375063
0.00377528
0.00379667
0.00381481
0.00382967
0.0038421
0.00385226
0.0038596
0.0038638
0.00386456
0.00386161
0.00385462
0.00384324
0.00382707
0.00380565
0.00377847
0.00374496
0.00370447
0.00365634
0.00359982
0.00353412
0.00345841
0.00337199
0.00327421
0.00316449
0.00304239
0.00290767
0.00276009
0.00260016
0.00242915
0.00224912
0.00206297
0.0018749
0.00168998
0.00151343
0.0013479
0.00115958
0.00100222
0.000895562
0.000815029
0.000714433
0.00062931
0.00053877
0.000446514
0.000354676
0.000267173
0.000176793
5.47466e-05
8.80511e-05
0.000268613
0.000536357
0.000789608
0.00110132
0.00145876
0.00167174
0.00187984
0.002079
0.00226747
0.00244461
0.00261042
0.00276524
0.0029096
0.00304409
0.00316931
0.00328584
0.00339424
0.00349503
0.00358867
0.00367562
0.00375626
0.00383095
0.00390003
0.00396379
0.0040225
0.00407637
0.00412563
0.00417045
0.00421098
0.00424735
0.00427967
0.00430803
0.00433248
0.00435307
0.00436981
0.0043827
0.0043917
0.00439807
0.00440124
0.00440084
0.00439655
0.00438807
0.00437508
0.00435722
0.0043341
0.00430524
0.00427013
0.00422817
0.0041787
0.004121
0.00405427
0.00397769
0.0038904
0.00379145
0.00367998
0.00355525
0.00341648
0.00326394
0.00309708
0.00291596
0.00272169
0.00251612
0.00230219
0.00208418
0.00186738
0.00165852
0.00145983
0.00127642
0.0011085
0.000954415
0.000811455
0.000677519
0.00055525
0.000456552
0.000380726
0.000308722
0.000237309
0.000155554
5.2154e-05
0.000183311
0.000386568
0.00067352
0.000978052
0.001386
0.00175761
0.00198999
0.00221515
0.00242938
0.00263135
0.00282082
0.00299811
0.00316377
0.00331845
0.00346279
0.00359745
0.00372301
0.00384002
0.00394901
0.00405042
0.00414469
0.0042322
0.0043133
0.00438832
0.00445753
0.0045212
0.00457956
0.0046328
0.00468112
0.00472466
0.00476356
0.00479794
0.00482788
0.00485346
0.00487473
0.00489173
0.00490448
0.00491296
0.00491735
0.0049186
0.00491618
0.00490971
0.00489889
0.00488342
0.00486297
0.00483716
0.00480554
0.00476761
0.00472277
0.00467037
0.00460966
0.00453981
0.00445991
0.00436903
0.00426614
0.00415025
0.0040204
0.00387559
0.00371526
0.00353881
0.00334616
0.00313786
0.00291517
0.00268026
0.00243727
0.0021903
0.00194584
0.00170869
0.00148501
0.00127943
0.00109501
0.000932347
0.000788751
0.000633643
0.00048067
0.000358903
0.000312802
0.000236728
0.000204374
0.000159021
0.000374505
0.000654718
0.000920489
0.00132222
0.00181111
0.0020641
0.00231018
0.00254611
0.00276964
0.00298005
0.00317749
0.00336248
0.0035357
0.00369786
0.00384964
0.00399165
0.00412447
0.00424862
0.00436459
0.0044728
0.00457365
0.00466751
0.0047547
0.00483554
0.00491028
0.00497917
0.00504244
0.00510028
0.00515288
0.00520038
0.00524292
0.00528062
0.00531358
0.00534189
0.0053656
0.00538476
0.00539939
0.00540949
0.00541502
0.00541676
0.0054149
0.00540903
0.00539889
0.0053842
0.00536467
0.00533998
0.00530972
0.00527343
0.00523057
0.0051805
0.0051225
0.00505576
0.00497934
0.00489226
0.00479343
0.00468172
0.00455598
0.00441507
0.00425796
0.00408374
0.00389188
0.00368231
0.00345562
0.00321321
0.00295761
0.00269229
0.00242159
0.00214995
0.00188261
0.00162798
0.00139357
0.00118669
0.00101123
0.000866437
0.000748645
0.000654098
0.000581136
0.00053782
0.000514352
0.000502899
0.000652905
0.00101094
0.00133931
0.00184012
0.00211656
0.00237993
0.00263247
0.00287284
0.00310003
0.00331395
0.00351503
0.00370395
0.00388143
0.00404817
0.00420481
0.00435193
0.00449006
0.00461966
0.00474117
0.00485497
0.00496143
0.00506087
0.00515359
0.00523986
0.00531993
0.00539403
0.00546237
0.00552513
0.00558248
0.00563457
0.00568153
0.00572348
0.00576052
0.00579274
0.00582021
0.00584298
0.0058611
0.00587458
0.00588342
0.00588762
0.00588825
0.00588502
0.00587769
0.00586605
0.00584987
0.00582887
0.00580275
0.0057711
0.00573347
0.00568929
0.00563792
0.00557858
0.00551042
0.00543247
0.00534365
0.00524281
0.00512872
0.00500015
0.00485584
0.00469466
0.00451569
0.00431836
0.00410257
0.0038689
0.00361883
0.00335478
0.00307995
0.00279773
0.00251165
0.00222667
0.00195259
0.00169858
0.0014721
0.00127886
0.00112245
0.00100554
0.000929327
0.000893116
0.000881423
0.000898884
0.00101018
0.00137914
0.00179342
0.00215823
0.0024397
0.0027053
0.0029576
0.00319668
0.00342252
0.00363553
0.00383635
0.00402573
0.00420436
0.00437291
0.00453193
0.00468195
0.00482342
0.00495675
0.00508229
0.0052004
0.00531136
0.00541548
0.005513
0.00560416
0.00568918
0.00576827
0.0058416
0.00590934
0.00597165
0.00602865
0.00608048
0.00612724
0.00616903
0.00620594
0.00623803
0.00626538
0.00628802
0.00630599
0.00631929
0.00632792
0.00633223
0.00633291
0.0063297
0.00632245
0.006311
0.00629517
0.00627474
0.0062494
0.0062188
0.0061825
0.00613995
0.00609051
0.00603343
0.00596784
0.00589278
0.00580718
0.00570986
0.00559962
0.00547519
0.00533536
0.00517904
0.00500534
0.00481373
0.00460416
0.00437727
0.00413457
0.00387841
0.00361162
0.0033366
0.00305974
0.00278766
0.00252773
0.00228722
0.00207312
0.00189182
0.0017502
0.0016526
0.0015986
0.00159407
0.00164739
0.00136567
0.00172162
0.00215749
0.00249863
0.00277724
0.00303821
0.00328463
0.0035176
0.00373782
0.00394607
0.00414313
0.00432974
0.00450658
0.00467422
0.00483316
0.00498383
0.00512661
0.00526182
0.00538978
0.00551074
0.00562496
0.00573267
0.00583407
0.00592936
0.00601872
0.00610231
0.00618029
0.00625279
0.00631994
0.00638186
0.00643865
0.00649042
0.00653725
0.0065792
0.00661636
0.00664878
0.00667651
0.00669957