/*--------------------------------*- C++ -*----------------------------------*\
| =========                 |                                                 |
| \\      /  F ield         | OpenFOAM: The Open Source CFD Toolbox           |
|  \\    /   O peration     | Version:  v2012                                 |
|   \\  /    A nd           | Website:  www.openfoam.com                      |
|    \\/     M anipulation  |                                                 |
\*---------------------------------------------------------------------------*/
FoamFile
{
    version     2.0;
    format      ascii;
    class       volScalarField;
    location    "572";
    object      omega;
}
// * * * * * * * * * * * * * * * * * * * * * * * * * * * * * * * * * * * * * //

dimensions      [0 0 -1 0 0 0 0];


internalField   nonuniform List<scalar> 
6598
(
523.954
186.686
162.769
160.069
161.255
161.255
160.069
162.769
186.686
523.954
400.081
164.562
136.183
131.373
131.444
131.444
131.373
136.183
164.562
400.081
323.634
143.477
116.721
111.035
110.314
110.314
111.035
116.721
143.477
323.634
272.766
125.773
101.803
95.9325
94.7487
94.7487
95.9325
101.803
125.773
272.766
236.811
111.368
90.0376
84.307
82.8893
82.8892
84.3069
90.0375
111.368
236.811
210.137
99.6774
80.5621
75.1035
73.5894
73.5894
75.1035
80.562
99.6771
210.137
189.564
90.1173
72.8012
67.6521
66.1189
66.1189
67.6521
72.801
90.1169
189.564
173.189
82.2112
66.3521
61.5071
59.9961
59.9961
61.507
66.3518
82.2106
173.19
159.817
75.5935
60.9243
56.3607
54.8923
54.8922
56.3605
60.9239
75.5926
159.819
148.665
69.9883
56.3039
51.9937
50.5765
50.5764
51.9934
56.3033
69.987
148.667
139.199
65.1878
52.3304
48.2457
46.8821
46.8819
48.2453
52.3295
65.1859
139.202
131.045
61.0343
48.8815
44.9968
43.6858
43.6856
44.9962
48.8802
61.0315
131.049
123.934
57.4073
45.8629
42.1559
40.8947
40.8944
42.155
45.8609
57.403
123.94
117.666
54.2132
43.2008
39.6521
38.4375
38.437
39.6508
43.1978
54.2068
117.674
112.091
51.3792
40.837
37.4301
36.2585
36.2578
37.428
40.8326
51.3698
112.102
107.092
48.8477
38.725
35.4456
34.3137
34.3127
35.4425
38.7184
48.8338
107.108
102.578
46.5728
36.8272
33.6633
32.5677
32.5664
33.6587
36.8175
46.5525
102.602
98.4786
44.5175
35.1134
32.0542
30.9921
30.9902
32.0478
35.099
44.4887
98.5115
94.734
42.6519
33.5587
30.595
29.5634
29.5609
30.5861
33.5385
42.6102
94.7805
91.2975
40.9524
32.1435
29.267
28.2635
28.26
29.2545
32.1146
40.9004
91.3609
88.2092
39.4374
30.8814
28.0823
27.1035
27.0983
28.0626
30.8188
39.0355
77.9346
85.3444
38.0456
29.7227
26.9947
26.0382
26.0304
26.9622
29.6001
37.1972
66.901
82.6761
36.7628
28.6547
25.9917
25.0552
25.0433
25.9396
28.4464
35.3583
58.1062
80.1818
35.5778
27.6679
25.0643
24.1454
24.1279
24.9854
27.354
33.3715
51.0944
77.8421
34.4808
26.754
24.2045
23.3009
23.2771
24.0956
26.2842
31.3451
45.5371
75.6401
33.4637
25.906
23.4055
22.5149
22.4832
23.2659
25.2287
29.4751
41.1796
73.5603
32.519
25.1172
22.6608
21.7808
21.7388
22.4761
24.2393
27.8558
37.7564
71.5261
31.6127
24.3602
21.9448
21.0732
21.0177
21.7013
23.2886
26.4533
34.9755
69.5957
30.7712
23.6558
21.2764
20.4105
20.3389
20.9664
22.4065
25.2687
32.7219
67.758
29.991
23.0008
20.6526
19.7897
19.6998
20.2716
21.5911
24.2383
30.6821
66.0024
29.2684
22.392
20.07
19.2072
19.0973
19.6155
20.8364
23.3163
28.8412
64.3193
28.5997
21.8268
19.5259
18.6604
18.5288
18.9961
20.1347
22.4689
27.1761
62.6996
27.9832
21.303
19.018
18.1469
17.9923
18.4109
19.4765
21.6596
25.6615
61.1344
27.4176
20.8196
18.545
17.665
17.4858
17.8571
18.8534
20.8752
24.2746
59.6156
26.9022
20.3759
18.1057
17.2135
17.0081
17.3322
18.2573
20.108
22.995
58.1349
26.4366
19.9719
17.7001
16.7919
16.558
16.834
17.683
19.3549
21.8052
56.6843
26.0209
19.6085
17.3283
16.4
16.1351
16.3609
17.1273
18.6153
20.6915
55.2558
25.6551
19.2869
16.9914
16.0386
15.7396
15.9124
16.5892
17.8913
19.6437
53.8418
25.3393
19.0089
16.691
15.7089
15.3724
15.4889
16.0698
17.1871
18.6556
52.4343
25.0729
18.7768
16.4296
15.4129
15.0353
15.0921
15.5725
16.5086
17.7248
51.0255
24.8552
18.593
16.21
15.1533
14.7306
14.7248
15.1021
15.8635
16.8528
49.6076
24.6843
18.4604
16.0358
14.9337
14.462
14.391
14.6649
15.2607
16.0445
48.1724
24.5581
18.3815
15.9109
14.7581
14.2332
14.0953
14.2678
14.7093
15.3071
46.7113
24.4729
18.3587
15.8396
14.631
14.0491
13.8429
13.9178
14.2185
14.6492
45.2154
24.424
18.3937
15.8262
14.5572
13.9145
13.639
13.6215
13.7956
14.0788
43.6745
24.405
18.4875
15.8745
14.5417
13.8343
13.4888
13.3842
13.4463
13.6016
42.0771
24.4083
18.6398
15.9882
14.5892
13.8136
13.3968
13.2099
13.1733
13.2196
40.4095
24.425
18.8488
16.1696
14.7036
13.8565
13.367
13.1015
12.9772
12.9313
38.6543
24.4442
19.1106
16.4193
14.8879
13.9667
13.4025
13.0604
12.8567
12.7319
36.7882
24.4526
19.4178
16.7348
15.1425
14.1458
13.5049
13.0869
12.8094
12.6153
34.7775
24.4309
19.7563
17.1079
15.4631
14.3919
13.6731
13.1796
12.8315
12.5747
32.5703
24.3433
20.0976
17.5184
15.836
14.6954
13.9004
13.3331
12.9179
12.6033
30.0559
24.1013
20.3751
17.9176
16.2255
15.0306
14.1687
13.5349
13.0595
12.696
27.063
23.601
20.5011
18.2245
16.5646
15.347
14.4426
13.7625
13.2489
12.8588
23.466
22.5878
20.343
18.3453
16.7779
15.5849
14.6801
14
13.4837
13.0818
18.7833
20.3518
19.5143
18.0879
16.7655
15.6918
14.8731
14.2438
13.7503
13.3543
14.1898
16.3842
17.4596
17.0936
16.3478
15.6389
15.0201
14.4957
14.0558
13.687
12.6491
10.9638
13.8445
15.057
15.3764
15.3034
15.0671
14.7727
14.4707
14.186
12.8755
9.47623
10.7381
12.9002
14.2301
14.9999
15.4018
15.5572
15.5608
15.5004
13.5476
14.2254
17.3941
21.2139
24.6318
27.5366
29.469
31.0462
32.3597
33.4246
33.5063
20.7437
20.6382
20.7014
20.5921
20.158
19.2082
18.2842
17.4115
16.5726
15.7567
14.9846
14.2575
13.5706
12.9108
12.2877
11.712
11.1586
10.6077
10.0409
9.43663
8.76468
7.95915
6.90016
5.92543
43.5679
15.5615
9.66914
8.30628
7.76623
7.35028
6.8539
6.34327
5.92833
5.5912
5.30901
5.08747
4.9276
4.81878
4.75717
4.795
4.94277
5.17028
5.45293
5.76973
6.09278
6.37375
6.55684
6.57354
9.05868
47.4545
21.1217
11.2989
8.33611
7.15091
6.38079
5.70649
5.01713
4.46574
4.04896
3.72786
3.49234
3.32677
3.21984
3.16486
3.1722
3.25922
3.43003
3.69045
4.04321
4.48008
4.96566
5.45222
5.92887
9.7282
47.6388
25.3279
14.417
9.87349
7.80728
6.5149
5.5014
4.66036
3.95231
3.46745
3.1126
2.85843
2.67401
2.54992
2.48193
2.47401
2.53452
2.66699
2.88185
3.1927
3.60832
4.11757
4.6826
5.33589
9.78353
46.0123
28.3208
17.0556
11.7501
8.90235
7.02243
5.62544
4.57108
3.80033
3.25608
2.86146
2.5789
2.35712
2.19498
2.09848
2.07027
2.1256
2.24962
2.44626
2.72877
3.11286
3.60027
4.16606
4.88131
9.50993
43.6542
29.7742
19.4602
13.5033
9.98368
7.62985
5.90643
4.65803
3.80147
3.22931
2.83381
2.52839
2.26543
2.049
1.90839
1.85784
1.91064
2.03611
2.22536
2.48919
2.84498
3.29983
3.83825
4.56734
9.07649
40.9348
30.4648
21.2854
15.1092
11.0821
8.25955
6.20564
4.76529
3.83827
3.27741
2.91364
2.62552
2.35505
2.11344
1.9397
1.86122
1.88919
2.00289
2.18079
2.42674
2.75337
3.16889
3.67682
4.44297
8.62713
38.1959
30.5389
22.4734
16.4593
12.1341
8.9361
6.56951
4.93939
3.93721
3.38623
3.07359
2.83937
2.60061
2.35945
2.15995
2.04687
2.04301
2.13908
2.30261
2.53301
2.84135
3.24646
3.78317
4.57275
8.25574
35.6576
30.1237
23.1518
17.5241
13.1079
9.64171
6.993
5.17805
4.09805
3.55286
3.29753
3.14642
2.99123
2.80773
2.62259
2.48581
2.44847
2.53121
2.69678
2.94974
3.31408
3.84261
4.65689
6.03487
8.87856
33.3355
29.3098
23.4836
18.3091
13.9277
10.2914
7.43361
5.45151
4.29926
3.75109
3.54435
3.48462
3.45559
3.41129
3.35166
3.30458
3.31299
3.43501
3.67243
4.05011
4.61455
5.442
6.62174
8.10652
9.44192
31.2247
28.2864
23.4979
18.7547
14.5345
10.8485
7.85133
5.74152
4.51947
3.95285
3.76778
3.76996
3.8488
3.95559
4.07354
4.20434
4.3621
4.57558
4.89519
5.3373
5.90282
6.55885
7.20868
7.68567
7.80486
29.3052
27.1712
23.2517
18.953
14.9647
11.3188
8.24651
6.03425
4.73706
4.12892
3.92918
3.93922
4.04939
4.21288
4.40944
4.62705
4.85639
5.08934
5.35698
5.65566
5.96374
6.24173
6.43665
6.502
6.32956
27.5624
26.0273
22.8079
18.9816
15.2593
11.7182
8.62224
6.32398
4.9401
4.26267
4.01358
3.98851
4.067
4.19646
4.35713
4.53583
4.72201
4.91389
5.10705
5.28861
5.44021
5.53723
5.55059
5.44952
5.18045
25.9735
24.888
22.2319
18.8945
15.4336
12.0542
8.98771
6.61959
5.13697
4.36282
4.03653
3.95892
3.9937
4.07723
4.18529
4.30698
4.43408
4.56329
4.68074
4.77669
4.84304
4.85437
4.77576
4.59334
4.28953
24.5154
23.7709
21.585
18.7119
15.528
12.3576
9.36487
6.94022
5.33847
4.4543
4.03387
3.888
3.87635
3.92071
3.9885
4.0658
4.14923
4.22662
4.28789
4.32292
4.31853
4.25719
4.12349
3.91141
3.62975
23.1679
22.687
20.902
18.445
15.5776
12.6262
9.77083
7.31508
5.5794
4.56488
4.03703
3.80115
3.72967
3.73374
3.76684
3.8118
3.85746
3.89329
3.91006
3.89797
3.84678
3.74822
3.59889
3.40327
3.17699
21.9137
21.6399
20.2006
18.0984
15.605
12.883
10.1936
7.77794
5.92546
4.74611
4.0932
3.75114
3.59584
3.54425
3.54075
3.55469
3.56913
3.57367
3.56035
3.52217
3.45349
3.35148
3.21793
3.06015
2.88953
20.7382
20.6286
19.4917
17.7104
15.5666
13.1318
10.6326
8.30381
6.40168
5.07611
4.26959
3.81255
3.5629
3.43918
3.38352
3.35856
3.34282
3.32367
3.2931
3.24583
3.17841
3.09015
2.98346
2.86352
2.7372
19.6306
19.6491
18.7749
17.2875
15.444
13.3703
11.0837
8.88515
6.98283
5.54894
4.59934
4.02239
3.67418
3.47002
3.35438
3.28629
3.24011
3.20081
3.15945
3.11033
3.05034
2.97864
2.89639
2.8065
2.71294
18.5838
18.6982
18.0522
16.8373
15.2657
13.4862
11.5468
9.50986
7.66435
6.17042
5.09663
4.39294
3.95299
3.67345
3.4938
3.37763
3.29802
3.23757
3.18582
3.13564
3.08324
3.02654
2.96474
2.89879
2.83079
17.5955
17.7749
17.3235
16.3584
15.0426
13.5187
11.8714
10.1461
8.41395
6.92322
5.76251
4.94162
4.39488
4.03939
3.8058
3.64725
3.53586
3.45401
3.39035
3.33624
3.28628
3.23801
3.18945
3.13964
3.08834
16.6685
16.8818
16.5896
15.8483
14.7762
13.4896
12.0841
10.6209
9.14949
7.76958
6.56915
5.66341
5.0158
4.56919
4.26759
4.06317
3.92178
3.82019
3.74303
3.68068
3.62668
3.57697
3.52967
3.48361
3.43771
15.8101
16.0269
15.8556
15.3077
14.4595
13.4017
12.218
10.9777
9.73006
8.53002
7.43973
6.52408
5.80409
5.2666
4.88914
4.62386
4.43584
4.29998
4.19861
4.11946
4.05436
3.99826
3.948
3.90152
3.85814
15.0312
15.2239
15.1332
14.7425
14.0925
13.2482
12.277
11.2386
10.1862
9.16424
8.21158
7.3679
6.6587
6.09113
5.65625
5.33099
5.09006
4.91079
4.77528
4.66967
4.58468
4.51486
4.45627
4.40592
4.36172
14.3438
14.4904
14.4409
14.1663
13.6812
13.0263
12.2517
11.4067
10.5348
9.6757
8.86316
8.12253
7.47281
6.92478
6.47808
6.12286
5.84469
5.62685
5.45664
5.32331
5.21761
5.13275
5.06401
5.00793
4.96112
13.7581
13.8449
13.8029
13.6019
13.2418
12.7439
12.1415
11.4718
10.7702
10.0685
9.393
8.76454
8.19758
7.7014
7.27928
6.92681
6.63738
6.40342
6.21526
6.06537
5.94654
5.85212
5.77684
5.71596
5.666
13.2801
13.3024
13.2437
13.0786
12.8014
12.4214
11.9589
11.439
10.888
10.3297
9.7853
9.27163
8.8008
8.37934
8.01024
7.69217
7.42408
7.20308
7.02316
6.87746
6.75971
6.66434
6.58694
6.52378
6.47174
12.9098
12.8707
12.7824
12.6256
12.3941
12.0922
11.7317
11.3285
10.9001
10.4637
10.035
9.62722
9.24987
8.90855
8.60729
8.34628
8.12487
7.94081
7.79032
7.66882
7.57147
7.49313
7.42942
7.37743
7.33468
12.6418
12.5488
12.4278
12.264
12.0523
11.7952
11.4996
11.176
10.8365
10.493
10.1565
9.83656
9.5401
9.27152
9.03471
8.83227
8.66144
8.52038
8.40682
8.3176
8.24898
8.19713
8.15851
8.13005
8.1092
12.4672
12.3287
12.1782
12.003
11.7982
11.5634
11.3039
11.0277
10.7437
10.461
10.1874
9.92971
9.69273
9.47954
9.29256
9.13437
9.00435
8.89993
8.81885
8.75858
8.71641
8.68932
8.67429
8.6685
8.66937
12.3763
12.1999
12.0263
11.8421
11.6391
11.416
11.1761
10.9257
10.6722
10.4228
10.1841
9.9614
9.75842
9.57745
9.41975
9.28597
9.17643
9.09042
9.02575
8.97986
8.95038
8.93492
8.93103
8.93641
8.94873
12.3611
12.1563
11.9658
11.7744
11.5731
11.3585
11.1318
10.8972
10.6604
10.4275
10.2043
9.99559
9.80481
9.63415
9.48466
9.35657
9.24953
9.16254
9.09397
9.04248
9.00621
8.98298
8.97077
8.96774
8.97204
12.4236
12.1959
11.991
11.7937
11.5943
11.3876
11.1724
10.9506
10.726
10.5033
10.2873
10.0822
9.89147
9.71746
9.56153
9.42418
9.30525
9.20398
9.11918
9.04933
8.99261
8.94717
8.91166
8.88476
8.86501
12.5624
12.3155
12.0977
11.8943
11.6954
11.4947
11.2894
11.0793
10.8662
10.6531
10.4434
10.2406
10.0478
9.8671
9.70028
9.54821
9.41121
9.28908
9.18121
9.08662
9.00416
8.93249
8.87017
8.81587
8.76846
12.7711
12.51
12.2804
12.0697
11.8684
11.6702
11.4713
11.2701
11.067
10.8634
10.6613
10.4631
10.2711
10.0872
9.91297
9.74946
9.5973
9.45674
9.32768
9.20979
9.10246
9.00493
8.9163
8.8357
8.76243
13.0408
12.7728
12.5356
12.3187
12.114
11.9156
11.7195
11.5238
11.3276
11.1315
10.9365
10.744
10.5554
10.3723
10.1958
10.0269
9.86627
9.7144
9.57142
9.4373
9.31185
9.19473
9.08549
8.98367
8.88901
13.3869
13.1247
12.8888
12.6708
12.4646
12.2655
12.0701
11.8767
11.6844
11.4933
11.3038
11.1167
10.933
10.7537
10.5795
10.4114
10.2497
10.0949
9.94736
9.80701
9.67384
9.54769
9.42832
9.31546
9.20909
13.9367
13.7071
13.4927
13.2892
13.0925
12.9006
12.7122
12.5265
12.3434
12.1628
11.9851
11.8106
11.64
11.4738
11.3127
11.157
11.0072
10.8635
10.7259
10.5945
10.4693
10.35
10.2364
10.1282
10.0255
15.4191
15.3276
15.2342
15.1406
15.0398
14.9348
14.8276
14.719
14.6094
14.4994
14.3895
14.2802
14.172
14.0653
13.9606
13.8581
13.758
13.6605
13.5656
13.4733
13.3834
13.2958
13.2104
13.1268
13.0452
34.2658
34.9851
35.6083
36.1431
36.5807
36.9326
37.206
37.407
37.5418
37.6164
37.6367
37.6085
37.5372
37.4281
37.2861
37.116
36.922
36.7082
36.4779
36.2345
35.9808
35.7192
35.4518
35.1807
34.9073
7.17113
11.1713
15.8503
11.6755
11.9114
10.9799
9.66117
8.94824
7.90821
7.49049
6.81715
5.86574
5.89967
5.27725
4.52451
4.72951
4.20944
3.67172
3.88733
3.49636
3.12991
3.31553
3.03661
2.78529
2.9459
2.74723
2.57004
2.72179
2.57809
2.44947
2.6148
2.50902
2.41339
2.62283
2.54396
2.47187
2.76556
2.70744
2.65327
3.03926
2.99459
2.9517
3.39424
3.35442
3.31603
3.81895
3.78326
3.74888
4.32429
4.29124
4.2599
4.92336
4.89098
4.86104
5.62679
5.59364
5.56358
6.43118
6.39673
6.36562
7.3017
7.27351
7.24793
8.09508
8.08424
8.07516
8.67427
8.68157
8.69022
8.9643
8.9826
9.00277
8.981
8.9936
9.0091
8.85237
8.84366
8.8381
8.73105
8.69773
8.6675
8.70251
8.64726
8.59553
8.81019
8.73629
8.66615
9.11956
9.03467
8.95338
9.93864
9.85557
9.77543
12.9746
12.9052
12.8364
34.6664
34.4266
34.188
4.35163
5.8278
7.19332
8.16601
8.94415
9.58596
10.1394
10.6281
11.0671
11.4663
11.8326
12.1713
12.4865
12.7816
13.0595
13.3225
13.5729
13.8124
14.0429
14.2658
14.4825
14.6944
14.9027
15.1085
15.3129
15.5173
15.7226
15.9301
16.1412
16.3574
16.5803
16.8121
17.055
17.3121
17.5788
17.8522
18.1323
18.4201
18.7163
19.0197
19.3308
19.6514
19.9818
20.3225
20.6741
21.037
21.4115
21.7978
22.1962
22.6062
23.0273
23.4581
23.8964
24.3381
24.7769
25.2029
25.6
25.9434
26.2012
26.3607
26.4459
26.4679
26.4244
26.2296
25.8911
25.3972
24.7184
23.9016
22.9812
21.9706
20.8903
19.7396
18.6656
17.6093
16.5321
15.4009
14.1723
12.7581
10.9961
9.37212
9.40625
6.15275
6.71344
6.98262
7.06253
7.0289
6.93274
6.81341
6.69044
6.57412
6.46925
6.37762
6.29935
6.23373
6.17966
6.13591
6.1013
6.07471
6.05519
6.04189
6.03414
6.03139
6.03321
6.0393
6.04947
6.06364
6.08185
6.10422
6.131
6.16259
6.19953
6.24252
6.29301
6.3518
6.4131
6.47541
6.53946
6.60538
6.67341
6.74362
6.81629
6.89151
6.96949
7.05043
7.13456
7.2221
7.3133
7.40844
7.50777
7.61158
7.72012
7.83364
7.95236
8.0764
8.20574
8.34016
8.47929
8.62317
8.77276
8.92626
9.06391
9.17401
9.25333
9.29229
9.26372
9.1836
9.04632
8.86866
8.66948
8.47429
8.29978
8.19187
8.34659
8.64536
9.01774
9.40327
9.72303
9.87522
9.76296
13.4746
11.6709
6.2154
6.15444
6.06106
5.87625
5.64006
5.39401
5.16456
4.96215
4.78944
4.64504
4.52586
4.42834
4.34906
4.28496
4.23347
4.19245
4.16015
4.13518
4.11643
4.10303
4.09428
4.08965
4.08876
4.09131
4.09709
4.10598
4.11791
4.13289
4.15096
4.17219
4.19673
4.22473
4.25631
4.29162
4.32823
4.36654
4.40695
4.44972
4.49511
4.54337
4.59475
4.64957
4.70817
4.77092
4.83825
4.9106
4.98846
5.07238
5.16292
5.26067
5.36624
5.48023
5.6032
5.73563
5.87783
6.02994
6.19187
6.36325
6.54208
6.72724
6.90562
7.06358
7.18519
7.2515
7.24812
7.15836
6.994
6.77233
6.51631
6.27309
6.08879
6.06405
6.20485
6.50888
6.9611
7.50914
8.0551
8.55765
13.9539
13.3746
6.14914
5.6658
5.3671
5.05914
4.75459
4.47672
4.23801
4.03992
3.87894
3.74975
3.64688
3.5654
3.50112
3.45068
3.41135
3.38103
3.35803
3.34109
3.32919
3.32156
3.31762
3.31691
3.3191
3.32393
3.33124
3.3409
3.35284
3.36705
3.38352
3.40231
3.42347
3.44709
3.4733
3.50223
3.53405
3.56753
3.6033
3.64168
3.68298
3.72747
3.77548
3.82735
3.88349
3.94432
4.01031
4.08197
4.15985
4.24454
4.33669
4.43694
4.546
4.66454
4.79323
4.93266
5.08326
5.2452
5.41829
5.60141
5.79225
5.99061
6.19135
6.38381
6.55367
6.68301
6.75348
6.74481
6.63665
6.41468
6.07333
5.70133
5.36472
5.17529
5.17785
5.36821
5.7442
6.2804
6.89658
7.60702
13.4397
14.8641
6.06145
5.26645
4.83317
4.46344
4.13999
3.86704
3.64456
3.46773
3.32923
3.22168
3.13865
3.07489
3.02621
2.98939
2.96192
2.94188
2.92782
2.91862
2.91343
2.91162
2.91271
2.91631
2.92218
2.93012
2.93999
2.95173
2.96527
2.98064
2.99783
3.01692
3.03798
3.06112
3.08646
3.11416
3.14442
3.17725
3.21225
3.24988
3.29048
3.33435
3.38183
3.43327
3.48908
3.54968
3.61554
3.68717
3.76513
3.85002
3.94245
4.04312
4.1527
4.27192
4.40152
4.5422
4.69452
4.85883
5.03509
5.22258
5.41962
5.62381
5.83265
6.04115
6.24074
6.41846
6.55882
6.64021
6.63164
6.49938
6.21274
5.78763
5.29212
4.8668
4.70591
4.80308
5.11127
5.59693
6.1939
7.01477
12.445
16.557
5.95839
4.92691
4.4012
4.00047
3.68044
3.42675
3.22773
3.07488
2.95897
2.87172
2.80651
2.75819
2.72286
2.69755
2.68003
2.66862
2.66207
2.65943
2.65999
2.66321
2.6687
2.67618
2.68543
2.69631
2.70874
2.72266
2.73806
2.75496
2.77341
2.79347
2.81523
2.83881
2.86434
2.892
2.92195
2.95442
2.98929
3.02665
3.06688
3.11028
3.1572
3.20797
3.26299
3.32267
3.38747
3.45788
3.53445
3.61776
3.70844
3.80718
3.91469
4.03171
4.15906
4.29749
4.44777
4.61085
4.78699
4.97655
5.17861
5.39162
5.61329
5.83982
6.06662
6.28732
6.49263
6.66917
6.79177
6.82754
6.7242
6.43599
5.96047
5.37543
4.87413
4.76827
4.94948
5.35529
5.94038
6.97051
11.5676
18.6047
6.08292
4.62235
4.02594
3.61607
3.31468
3.087
2.9139
2.78486
2.68989
2.62068
2.57085
2.53564
2.5115
2.49579
2.48656
2.48235
2.48208
2.48495
2.49035
2.49786
2.50714
2.51797
2.53019
2.54369
2.55841
2.57434
2.59147
2.60984
2.62951
2.65056
2.67309
2.6972
2.72305
2.75079
2.78059
2.81266
2.84721
2.8841
2.92367
2.96624
3.01212
3.06167
3.11524
3.17323
3.2361
3.30431
3.3784
3.45894
3.54657
3.64198
3.74593
3.85923
3.9828
4.11721
4.26348
4.42285
4.59575
4.78532
4.99027
5.20908
5.44161
5.68619
5.94039
6.20188
6.46726
6.73516
6.98398
7.20995
7.37695
7.43166
7.31118
6.96662
6.39851
5.77024
5.57632
5.82072
6.36519
7.38292
11.0198
12.8995
5.61123
4.24042
3.65261
3.27032
3.00348
2.8068
2.66128
2.55568
2.48022
2.4272
2.39087
2.36697
2.3524
2.34487
2.34268
2.34459
2.34967
2.35726
2.36684
2.37805
2.39062
2.40438
2.4192
2.435
2.45175
2.46944
2.48809
2.50775
2.52849
2.55038
2.57352
2.59805
2.62408
2.65178
2.68132
2.71288
2.74668
2.78289
2.82153
2.86293
2.90741
2.95531
3.00697
3.06278
3.12316
3.18857
3.25953
3.3366
3.42039
3.51159
3.61096
3.71934
3.83764
3.96687
4.1082
4.2629
4.4318
4.61669
4.81819
5.03711
5.27398
5.52868
5.80036
6.09048
6.3952
6.71998
7.06384
7.4325
7.82488
8.22132
8.58764
8.86518
8.98303
8.85962
8.47717
8.2267
8.39353
8.71945
10.4568
8.7432
4.85703
3.80092
3.28914
2.96659
2.74158
2.57709
2.45827
2.37406
2.31569
2.27646
2.25139
2.23683
2.23012
2.22928
2.23287
2.23981
2.24933
2.26083
2.2739
2.28822
2.30357
2.31981
2.33684
2.35459
2.37306
2.39224
2.41216
2.43288
2.45446
2.47699
2.50056
2.5253
2.55134
2.57883
2.60793
2.63883
2.67173
2.70687
2.74432
2.78429
2.82709
2.87304
2.92248
2.97576
3.03328
3.09549
3.16285
3.2359
3.31521
3.40145
3.49532
3.59763
3.70926
3.83124
3.9647
4.11085
4.27105
4.44678
4.63943
4.85053
5.08153
5.33362
5.60768
5.90406
6.22323
6.56817
6.94495
7.36509
7.85001
8.40448
9.03054
9.72843
10.4931
11.3123
12.1738
13.0632
14.1623
15.6741
17.6633
6.22546
4.14019
3.37241
2.96821
2.70839
2.52361
2.3904
2.29572
2.23005
2.18606
2.15819
2.14228
2.13526
2.13487
2.13942
2.14767
2.15871
2.17184
2.18657
2.20253
2.21944
2.23713
2.25546
2.27435
2.29377
2.31369
2.33413
2.35513
2.37672
2.39899
2.42201
2.44589
2.47074
2.49668
2.52386
2.55245
2.58263
2.61458
2.64852
2.68469
2.72317
2.76423
2.80819
2.85534
2.90604
2.96064
3.01956
3.08321
3.15209
3.22672
3.30766
3.39556
3.49114
3.59516
3.70854
3.83226
3.96744
4.11533
4.2773
4.45482
4.64953
4.86316
5.09742
5.35389
5.63393
5.93885
6.27078
6.63414
7.03712
7.49075
7.99898
8.56709
9.2034
9.91367
10.6917
11.5261
12.3898
13.2377
14.0905
14.8764
4.69659
3.55431
3.0131
2.70302
2.49567
2.34772
2.24175
2.16733
2.11686
2.08444
2.06558
2.05688
2.05576
2.06031
2.0691
2.08104
2.09533
2.11138
2.12873
2.14706
2.16613
2.18577
2.20587
2.22636
2.2472
2.26838
2.28991
2.31183
2.33419
2.35705
2.3805
2.40463
2.42954
2.45537
2.48225
2.51035
2.53982
2.57087
2.6037
2.63855
2.6756
2.71501
2.75707
2.80206
2.85031
2.90213
2.95789
3.01798
3.08281
3.15284
3.22854
3.31046
3.39918
3.49533
3.59962
3.71283
3.83583
3.96961
4.11522
4.27385
4.44684
4.63564
4.84182
5.067
5.3128
5.58078
5.87267
6.19107
6.54204
6.92679
7.34481
7.79535
8.2765
8.78408
9.31212
9.85336
10.3918
10.9135
11.3591
11.6136
3.76877
3.10549
2.72721
2.4911
2.32786
2.21052
2.12668
2.06844
2.02991
2.00646
1.99452
1.99129
1.99465
2.00296
2.01498
2.02977
2.04662
2.06497
2.08443
2.1047
2.12556
2.14684
2.16845
2.19031
2.21239
2.23468
2.25719
2.27996
2.30302
2.32644
2.35029
2.37467
2.39969
2.42545
2.4521
2.47978
2.50867
2.53894
2.5708
2.60446
2.64018
2.6781
2.71846
2.76152
2.80756
2.85687
2.90977
2.96659
3.0277
3.09347
3.16429
3.24059
3.32281
3.41144
3.50697
3.60996
3.721
3.84072
3.96981
4.10902
4.25918
4.42117
4.59594
4.78451
4.9879
5.20709
5.44309
5.69773
5.97148
6.26403
6.57463
6.90109
7.23925
7.58238
7.92084
8.24326
8.53239
8.76211
8.86716
8.77332
3.1873
2.77451
2.50685
2.3276
2.20023
2.10752
2.04118
1.99553
1.96615
1.94949
1.94271
1.94354
1.95019
1.96128
1.97572
1.99267
2.01147
2.03164
2.05279
2.07463
2.09696
2.11963
2.14252
2.16558
2.18876
2.21205
2.23545
2.259
2.28273
2.30671
2.33099
2.35567
2.38085
2.40663
2.43315
2.46055
2.48898
2.51864
2.54971
2.5824
2.61694
2.65357
2.69247
2.73386
2.77799
2.82512
2.87553
2.92949
2.98731
3.0493
3.11577
3.18704
3.26345
3.34531
3.43296
3.52674
3.62698
3.73401
3.84817
3.96979
4.0992
4.23671
4.38263
4.5372
4.70057
4.87277
5.05383
5.2433
5.44028
5.64355
5.85114
6.06038
6.26708
6.46519
6.64408
6.79388
6.90383
6.96135
6.91314
6.73289
2.81179
2.53776
2.34385
2.2072
2.10787
2.03479
1.98227
1.94641
1.92402
1.91246
1.90949
1.91327
1.92232
1.93544
1.95166
1.97022
1.99052
2.0121
2.03457
2.05768
2.08121
2.10502
2.129
2.15308
2.17722
2.20139
2.2256
2.24988
2.27425
2.29877
2.3235
2.34852
2.37392
2.3998
2.4263
2.45354
2.48168
2.51089
2.54136
2.57328
2.60689
2.64241
2.68007
2.72007
2.7626
2.80789
2.85618
2.9077
2.9627
3.02144
3.08416
3.15109
3.22246
3.29849
3.37937
3.46526
3.5563
3.65258
3.75417
3.86108
3.97328
4.09067
4.21307
4.34017
4.47155
4.60657
4.74448
4.88402
5.02374
5.16192
5.29635
5.42417
5.54171
5.64217
5.71828
5.76347
5.77496
5.7501
5.66661
5.51495
2.5673
2.37538
2.23121
2.12538
2.04752
1.99013
1.94872
1.92065
1.90377
1.89613
1.89605
1.90203
1.91285
1.92746
1.94501
1.96478
1.98621
2.00885
2.03233
2.0564
2.08085
2.10553
2.13035
2.15524
2.18014
2.20504
2.22993
2.25482
2.27975
2.30476
2.3299
2.35525
2.38089
2.40692
2.43345
2.46063
2.48859
2.51749
2.54752
2.57887
2.61174
2.64636
2.68298
2.72182
2.76303
2.8068
2.85332
2.9028
2.95543
3.01141
3.07094
3.13419
3.2013
3.27242
3.34761
3.42693
3.51036
3.59786
3.68929
3.78448
3.88314
3.98494
4.08942
4.19602
4.30398
4.41246
4.52019
4.62577
4.72758
4.82381
4.91236
4.99073
5.05529
5.10062
5.12334
5.12126
5.09345
5.03968
4.96001
4.84844
2.41417
2.27395
2.16413
2.08096
2.01938
1.97435
1.94209
1.92052
1.90821
1.90381
1.90607
1.91382
1.92604
1.94181
1.96036
1.98103
2.00328
2.02666
2.05079
2.07543
2.1004
2.12557
2.15087
2.17622
2.20157
2.2269
2.25219
2.27747
2.30275
2.32807
2.35349
2.37905
2.40485
2.43098
2.45753
2.48465
2.51247
2.54114
2.57083
2.60173
2.63403
2.66794
2.70368
2.74155
2.78167
2.82418
2.86924
2.91701
2.96765
3.02131
3.07814
3.13826
3.20178
3.26875
3.33919
3.41308
3.4903
3.57071
3.65406
3.74004
3.82828
3.91831
4.00957
4.1014
4.19306
4.2835
4.37142
4.45535
4.53377
4.60503
4.66741
4.71899
4.75643
4.77695
4.77851
4.76037
4.72297
4.66758
4.5958
4.50899
2.3341
2.22847
2.14333
2.07742
2.02827
1.993
1.96836
1.95239
1.94411
1.94262
1.94699
1.95631
1.96972
1.98643
2.00575
2.02704
2.04978
2.07347
2.09773
2.1223
2.1471
2.17209
2.19721
2.22241
2.24762
2.27283
2.29803
2.32322
2.34844
2.3737
2.39905
2.42455
2.45025
2.47626
2.50267
2.5296
2.55719
2.58558
2.61493
2.64542
2.67723
2.71056
2.7456
2.78261
2.8218
2.86326
2.90709
2.95342
3.00235
3.05402
3.10852
3.16595
3.22636
3.28978
3.35619
3.42551
3.49758
3.57218
3.64902
3.72774
3.80789
3.88899
3.97046
4.05175
4.13222
4.21081
4.28616
4.35694
4.42182
4.47945
4.52851
4.56748
4.59409
4.60618
4.60239
4.58251
4.54751
4.49932
4.44038
4.37304
2.32584
2.24468
2.17802
2.12569
2.08652
2.05878
2.04029
2.02914
2.02456
2.02584
2.03224
2.04302
2.05745
2.07486
2.09459
2.11608
2.13876
2.1621
2.18551
2.20873
2.232
2.25548
2.27925
2.30319
2.3272
2.35127
2.37543
2.3997
2.42407
2.44856
2.47321
2.49805
2.52315
2.54858
2.57444
2.60085
2.62794
2.65584
2.68471
2.7147
2.74599
2.77874
2.81315
2.84939
2.88777
2.9283
2.97106
3.01611
3.06353
3.11341
3.16582
3.22082
3.27843
3.33866
3.40147
3.46678
3.53441
3.60406
3.67544
3.74818
3.82183
3.89589
3.96983
4.04347
4.11624
4.18698
4.25447
4.31753
4.37503
4.42597
4.46939
4.50405
4.52821
4.54002
4.53831
4.52287
4.49462
4.45554
4.40828
4.35534
2.40464
2.34188
2.28975
2.24843
2.21743
2.19566
2.18166
2.17454
2.17334
2.17723
2.18549
2.19745
2.21246
2.2299
2.24919
2.26976
2.29111
2.31268
2.33331
2.35229
2.37117
2.39058
2.41098
2.43172
2.45264
2.47377
2.49525
2.51713
2.53934
2.56184
2.58467
2.60786
2.63144
2.65549
2.68008
2.70534
2.7314
2.75837
2.7864
2.81563
2.8462
2.87827
2.91198
2.94748
2.98505
3.02467
3.06637
3.11016
3.1561
3.20423
3.25458
3.30718
3.36205
3.41917
3.47852
3.54006
3.60362
3.66875
3.73524
3.80275
3.87085
3.93903
4.00698
4.07488
4.14205
4.20738
4.2698
4.32829
4.38198
4.4301
4.47196
4.50649
4.53214
4.54733
4.55087
4.54231
4.52213
4.49203
4.4546
4.4124
2.60136
2.5521
2.51028
2.47633
2.45016
2.43105
2.41881
2.41308
2.41267
2.41669
2.42437
2.43512
2.44839
2.4636
2.48018
2.49763
2.51551
2.53322
2.54964
2.56462
2.5792
2.59373
2.60845
2.62313
2.63795
2.6532
2.66945
2.68686
2.70497
2.72366
2.74301
2.76305
2.78376
2.80518
2.8274
2.85054
2.87472
2.90005
2.92665
2.95463
2.98411
3.0152
3.04802
3.08268
3.11933
3.15791
3.19842
3.24082
3.28514
3.33137
3.37953
3.42962
3.48164
3.53556
3.59134
3.6489
3.70809
3.76868
3.83044
3.89306
3.95618
4.01932
4.08267
4.14608
4.20887
4.27015
4.32896
4.38458
4.43635
4.4836
4.52554
4.5613
4.58964
4.60916
4.61864
4.61728
4.60507
4.58314
4.55386
4.51987
2.90858
2.86603
2.82821
2.79593
2.76974
2.7494
2.73543
2.72702
2.72337
2.72371
2.72738
2.73383
2.74257
2.75313
2.76498
2.77748
2.79038
2.80331
2.81627
2.82979
2.84296
2.85533
2.86651
2.87707
2.8873
2.89748
2.90799
2.9191
2.9308
2.94331
2.95711
2.97222
2.98839
3.00562
3.02402
3.0438
3.06503
3.08779
3.11218
3.13827
3.16613
3.19582
3.2274
3.26097
3.29643
3.33368
3.37267
3.41335
3.45569
3.49968
3.54531
3.59258
3.64146
3.69194
3.74396
3.79746
3.85233
3.90842
3.96554
4.02346
4.08194
4.14071
4.19992
4.25943
4.31875
4.37687
4.43277
4.48608
4.53619
4.58246
4.62425
4.66083
4.69117
4.7141
4.7285
4.73342
4.72834
4.71364
4.69125
4.66373
3.27684
3.23759
3.20171
3.16984
3.14312
3.12193
3.10609
3.09498
3.08795
3.0844
3.08373
3.08544
3.08916
3.0945
3.10104
3.1083
3.11616
3.12457
3.13386
3.14394
3.15433
3.1647
3.17481
3.18458
3.19393
3.20269
3.21054
3.21761
3.22458
3.23194
3.24012
3.24929
3.25951
3.27097
3.28401
3.29923
3.31647
3.3357
3.35704
3.38053
3.40614
3.43385
3.46366
3.49562
3.52927
3.56451
3.60128
3.63952
3.6792
3.7203
3.76282
3.80673
3.85204
3.89871
3.94673
3.99602
4.04651
4.09809
4.15059
4.20385
4.25768
4.31192
4.36664
4.42176
4.47651
4.5301
4.58233
4.6327
4.68039
4.72477
4.76515
4.801
4.83163
4.85607
4.87334
4.88246
4.88255
4.87333
4.85609
4.8333
3.71342
3.67764
3.64425
3.61365
3.58684
3.56492
3.54742
3.5336
3.52305
3.51538
3.51015
3.50696
3.50549
3.50548
3.5067
3.50916
3.51254
3.5167
3.5216
3.52707
3.53302
3.53933
3.54584
3.55247
3.55916
3.56584
3.5724
3.57875
3.58493
3.59104
3.59691
3.60282
3.60927
3.61663
3.62529
3.63574
3.64817
3.66288
3.68048
3.70091
3.72386
3.74917
3.77677
3.80628
3.83718
3.86939
3.90289
3.93763
3.9736
4.01079
4.04922
4.08886
4.12973
4.1718
4.21505
4.25943
4.30487
4.35127
4.39847
4.44633
4.49462
4.54317
4.59181
4.64031
4.68831
4.73544
4.78165
4.82615
4.86829
4.9076
4.9439
4.97679
5.00543
5.02894
5.04644
5.05699
5.0596
5.05352
5.03938
5.01939
4.22759
4.1951
4.16431
4.13528
4.10859
4.08528
4.0655
4.04886
4.03496
4.02344
4.014
4.00637
4.00023
3.99535
3.99152
3.98864
3.98659
3.98529
3.98477
3.98501
3.98597
3.98757
3.98972
3.99237
3.99547
3.99903
4.00299
4.00714
4.01143
4.01592
4.02068
4.02592
4.03179
4.03843
4.04597
4.05429
4.06414
4.07613
4.09121
4.1093
4.12995
4.15304
4.17802
4.20408
4.23117
4.25925
4.28831
4.31834
4.34934
4.38132
4.41428
4.44824
4.48317
4.51909
4.55595
4.59372
4.63234
4.67171
4.71171
4.75219
4.79297
4.83384
4.87463
4.91511
4.955
4.99399
5.03176
5.06791
5.10205
5.13389
5.16332
5.18989
5.21289
5.23159
5.24532
5.2533
5.25459
5.24822
5.2343
5.21463
4.83055
4.80029
4.77144
4.74374
4.71728
4.69254
4.67004
4.65016
4.63265
4.61717
4.60346
4.59126
4.58033
4.57049
4.56158
4.55348
4.54612
4.53951
4.5337
4.52889
4.52496
4.52182
4.51936
4.51754
4.51629
4.5156
4.51544
4.51578
4.5166
4.51797
4.52009
4.52324
4.52753
4.53304
4.5399
4.54854
4.55992
4.57355
4.58887
4.60592
4.62469
4.6444
4.66467
4.68552
4.70699
4.7291
4.75187
4.77533
4.7995
4.8244
4.85003
4.8764
4.90353
4.93139
4.95997
4.98924
5.01913
5.04959
5.0805
5.11175
5.14318
5.17463
5.20594
5.2369
5.26729
5.29684
5.32525
5.35221
5.3774
5.40055
5.42138
5.43957
5.45467
5.46618
5.4736