/*--------------------------------*- C++ -*----------------------------------*\
| =========                 |                                                 |
| \\      /  F ield         | OpenFOAM: The Open Source CFD Toolbox           |
|  \\    /   O peration     | Version:  v2012                                 |
|   \\  /    A nd           | Website:  www.openfoam.com                      |
|    \\/     M anipulation  |                                                 |
\*---------------------------------------------------------------------------*/
FoamFile
{
    version     2.0;
    format      ascii;
    class       volScalarField;
    location    "572";
    object      p;
}
// * * * * * * * * * * * * * * * * * * * * * * * * * * * * * * * * * * * * * //

dimensions      [0 2 -2 0 0 0 0];


internalField   nonuniform List<scalar> 
6598
(
0.353576
0.35278
0.352352
0.352171
0.352093
0.352093
0.35217
0.352351
0.352778
0.353575
0.352668
0.352436
0.352228
0.352098
0.352036
0.352036
0.352097
0.352227
0.352434
0.352666
0.352049
0.352059
0.351979
0.351894
0.351853
0.351852
0.351892
0.351977
0.352057
0.352046
0.351677
0.351742
0.351699
0.351637
0.35161
0.351609
0.351636
0.351696
0.351739
0.351673
0.351377
0.351452
0.351424
0.351373
0.35135
0.351349
0.35137
0.351419
0.351447
0.351372
0.351089
0.351161
0.351141
0.3511
0.35108
0.351079
0.351096
0.351135
0.351154
0.351082
0.350806
0.350871
0.350851
0.350817
0.350799
0.350797
0.350811
0.350842
0.350861
0.350796
0.35053
0.350586
0.350563
0.350531
0.350514
0.350511
0.350522
0.35055
0.35057
0.350514
0.350257
0.350305
0.35028
0.350247
0.35023
0.350225
0.350234
0.35026
0.350281
0.350233
0.349985
0.350027
0.35
0.349966
0.349946
0.349939
0.349946
0.349969
0.349991
0.349949
0.349717
0.349752
0.349722
0.349687
0.349664
0.349654
0.349656
0.349676
0.349697
0.349662
0.349452
0.349481
0.349449
0.349411
0.349383
0.349368
0.349365
0.34938
0.3494
0.34937
0.349194
0.349218
0.349182
0.349139
0.349104
0.349081
0.349071
0.349079
0.349096
0.34907
0.348946
0.348966
0.348925
0.348873
0.348828
0.348793
0.348772
0.348771
0.348783
0.348759
0.348714
0.348729
0.348681
0.348617
0.348555
0.348502
0.348464
0.34845
0.348455
0.348433
0.348504
0.348514
0.348455
0.348374
0.348287
0.348206
0.348143
0.34811
0.348106
0.348084
0.348329
0.348332
0.348257
0.34815
0.34803
0.347908
0.347805
0.347739
0.347722
0.347704
0.348202
0.348198
0.348102
0.347956
0.347785
0.347603
0.347435
0.347319
0.347288
0.347281
0.348147
0.348134
0.34801
0.34781
0.347561
0.347284
0.347008
0.346798
0.346743
0.346835
0.348192
0.34817
0.34801
0.347741
0.347389
0.346974
0.346526
0.346166
0.346064
0.346442
0.348376
0.348347
0.348145
0.347791
0.347306
0.346696
0.345946
0.345133
0.344162
0.33997
0.348736
0.348703
0.348459
0.34802
0.347403
0.346614
0.345585
0.344205
0.343348
0.345114
0.349316
0.349287
0.349008
0.34849
0.347753
0.346823
0.345675
0.344023
0.342
0.34367
0.350166
0.350147
0.349838
0.349245
0.348389
0.347298
0.345988
0.344163
0.341089
0.341668
0.351336
0.35133
0.35099
0.350321
0.349342
0.348076
0.346554
0.344635
0.341176
0.341015
0.352874
0.352883
0.352512
0.351763
0.350658
0.349222
0.347478
0.345421
0.341694
0.340361
0.354832
0.354856
0.35445
0.353615
0.352376
0.350758
0.348773
0.346508
0.342588
0.339977
0.35729
0.357335
0.356894
0.355962
0.35457
0.352748
0.350493
0.347957
0.344035
0.34021
0.360345
0.360417
0.359933
0.358888
0.357318
0.355261
0.352699
0.349767
0.345766
0.341494
0.364058
0.364142
0.363609
0.36243
0.360654
0.358331
0.355453
0.352103
0.347843
0.343474
0.368512
0.368615
0.368003
0.366659
0.364641
0.36201
0.358783
0.355033
0.350428
0.345786
0.373789
0.373912
0.373189
0.371649
0.369343
0.366338
0.362678
0.358461
0.35352
0.348436
0.379972
0.380097
0.379256
0.377488
0.374839
0.37138
0.367178
0.362335
0.356935
0.351268
0.387185
0.387307
0.386329
0.384292
0.381236
0.377238
0.372384
0.366787
0.360669
0.354282
0.395572
0.395687
0.394549
0.3922
0.388676
0.384055
0.378434
0.371962
0.364914
0.357627
0.405279
0.405386
0.404066
0.40137
0.397322
0.392001
0.385509
0.378021
0.369875
0.361503
0.416459
0.416555
0.415037
0.411964
0.407349
0.401267
0.39382
0.385204
0.375805
0.366167
0.429258
0.429346
0.427618
0.424149
0.418939
0.412053
0.403596
0.393772
0.383001
0.371936
0.443814
0.443895
0.441951
0.438079
0.432262
0.424557
0.415064
0.403992
0.39178
0.379164
0.460238
0.460313
0.458151
0.453879
0.447466
0.438954
0.428439
0.416125
0.402458
0.38822
0.478598
0.478668
0.476289
0.471632
0.464651
0.455374
0.443889
0.430393
0.415317
0.399456
0.498911
0.498971
0.496378
0.491356
0.483853
0.47388
0.461518
0.446949
0.43058
0.413173
0.521133
0.521168
0.518359
0.512995
0.505026
0.494447
0.481333
0.465849
0.448363
0.429579
0.54514
0.545128
0.542092
0.536404
0.528028
0.516944
0.503226
0.48702
0.468651
0.448736
0.570716
0.570628
0.567346
0.561342
0.552612
0.541127
0.526961
0.510248
0.491263
0.47053
0.597557
0.597359
0.593797
0.587469
0.578426
0.566636
0.552175
0.535171
0.515853
0.494649
0.625279
0.624923
0.621031
0.614353
0.605023
0.593009
0.578396
0.561304
0.541923
0.520593
0.653407
0.652835
0.648547
0.641478
0.631875
0.619708
0.605065
0.588064
0.568863
0.547722
0.681375
0.680518
0.675759
0.668252
0.658389
0.646137
0.63158
0.61483
0.596013
0.575325
0.708512
0.707291
0.701987
0.69402
0.683936
0.671688
0.657338
0.640988
0.622729
0.602699
0.734008
0.73232
0.726449
0.718072
0.707869
0.695763
0.681776
0.665982
0.648438
0.629227
0.756865
0.754619
0.748284
0.739683
0.729567
0.717821
0.704408
0.689358
0.672685
0.654423
0.775615
0.773089
0.766624
0.758139
0.748462
0.737413
0.724862
0.710785
0.695152
0.677956
0.787984
0.786581
0.780849
0.772943
0.76416
0.754243
0.742907
0.730065
0.715655
0.699631
0.793166
0.793398
0.789879
0.783664
0.77648
0.768217
0.758484
0.747149
0.734133
0.719368
0.79434
0.795005
0.793819
0.79026
0.785462
0.779388
0.771637
0.762051
0.750554
0.737087
0.794328
0.794547
0.794469
0.793463
0.791443
0.787965
0.782542
0.774938
0.765066
0.752901
0.794242
0.793717
0.793803
0.79454
0.795024
0.794173
0.791228
0.785741
0.777539
0.766659
0.794969
0.793936
0.793832
0.795239
0.797512
0.798887
0.798033
0.794252
0.787418
0.777627
0.796165
0.795572
0.795667
0.797423
0.800423
0.803122
0.804083
0.801859
0.796523
0.788384
0.320261
0.323937
0.326346
0.328355
0.329581
0.329844
0.329293
0.328057
0.326286
0.324332
0.322339
0.320392
0.318683
0.317366
0.316482
0.316028
0.316013
0.316442
0.317295
0.318502
0.319931
0.321358
0.322453
0.322967
0.323104
0.327621
0.324737
0.324928
0.326283
0.327363
0.327723
0.327175
0.325886
0.324163
0.322274
0.320412
0.318705
0.317275
0.316196
0.315491
0.315159
0.315195
0.315613
0.316403
0.317537
0.318936
0.320449
0.321856
0.322774
0.323133
0.328089
0.32497
0.324279
0.324917
0.325624
0.325806
0.325218
0.323994
0.322396
0.320655
0.318969
0.317465
0.316236
0.315334
0.314766
0.314514
0.31456
0.314907
0.31555
0.316477
0.317652
0.319002
0.320409
0.321616
0.322343
0.326815
0.32386
0.323005
0.323444
0.324049
0.324187
0.323586
0.322362
0.320803
0.319147
0.317574
0.316221
0.315158
0.3144
0.313935
0.313741
0.313802
0.31412
0.314686
0.315484
0.316487
0.317644
0.318867
0.32001
0.320867
0.32706
0.322668
0.32128
0.321646
0.32238
0.322585
0.322088
0.32097
0.319507
0.31797
0.316536
0.315322
0.314384
0.313726
0.313327
0.313167
0.313231
0.313523
0.314034
0.314747
0.315638
0.316659
0.317727
0.318711
0.319552
0.328092
0.322395
0.320087
0.32025
0.321061
0.321379
0.321032
0.320072
0.318732
0.317307
0.315977
0.314865
0.314014
0.313418
0.313053
0.312909
0.312973
0.313248
0.313729
0.314396
0.315226
0.316179
0.317165
0.317988
0.318648
0.328965
0.322992
0.320181
0.319994
0.320599
0.320945
0.320659
0.319837
0.318585
0.31723
0.315947
0.314873
0.314057
0.313485
0.313134
0.312997
0.313062
0.313332
0.313802
0.314458
0.315278
0.316237
0.317254
0.318019
0.318278
0.330018
0.324548
0.321695
0.321048
0.321337
0.321632
0.321359
0.320512
0.319222
0.31784
0.316524
0.315418
0.314579
0.313991
0.313629
0.31348
0.313537
0.313801
0.314276
0.314953
0.315813
0.316844
0.318028
0.318992
0.318753
0.332147
0.327077
0.324271
0.323286
0.323262
0.323382
0.323037
0.322054
0.320735
0.319252
0.31782
0.316588
0.315639
0.314977
0.31457
0.31439
0.314427
0.314679
0.315157
0.315858
0.316759
0.317818
0.319075
0.32067
0.322329
0.33513
0.330324
0.327549
0.32637
0.326121
0.326043
0.325526
0.324444
0.323103
0.321516
0.319914
0.318467
0.317298
0.316453
0.315915
0.315654
0.315635
0.315833
0.316247
0.316871
0.317697
0.318736
0.320096
0.321916
0.323976
0.338398
0.333855
0.331159
0.329909
0.329533
0.32933
0.328749
0.327654
0.326216
0.324576
0.322857
0.321204
0.319757
0.31861
0.317798
0.317324
0.31716
0.317241
0.317551
0.318097
0.318884
0.319922
0.321218
0.322699
0.324436
0.341669
0.337307
0.33471
0.333443
0.33299
0.332727
0.332152
0.331105
0.329734
0.328187
0.326522
0.324839
0.323257
0.321885
0.320808
0.320077
0.319698
0.319638
0.319895
0.320476
0.321369
0.322473
0.323755
0.325247
0.327166
0.344789
0.3405
0.337925
0.336622
0.336115
0.335838
0.335321
0.334381
0.333169
0.33183
0.330378
0.328876
0.327425
0.326128
0.325101
0.324361
0.323892
0.323729
0.323913
0.324456
0.325315
0.326346
0.327691
0.329352
0.330886
0.347753
0.343349
0.340667
0.339268
0.33869
0.33839
0.337924
0.337094
0.336053
0.334954
0.333751
0.332454
0.331227
0.330164
0.329318
0.32871
0.328334
0.328203
0.328419
0.328991
0.329725
0.330529
0.331445
0.332428
0.333347
0.350709
0.345944
0.342986
0.341384
0.340665
0.34031
0.339879
0.339146
0.338201
0.337276
0.336349
0.335319
0.334288
0.3334
0.332718
0.332255
0.331997
0.331945
0.332117
0.332474
0.332931
0.333466
0.334053
0.334647
0.335245
0.353877
0.348486
0.345043
0.343093
0.342131
0.341659
0.341238
0.3406
0.339724
0.33884
0.338071
0.337309
0.336517
0.335811
0.335247
0.334858
0.334653
0.334616
0.334727
0.334944
0.335239
0.335609
0.336026
0.336448
0.336854
0.357536
0.351244
0.347075
0.344587
0.343249
0.34256
0.34209
0.341528
0.340772
0.339917
0.339143
0.338492
0.337899
0.337366
0.336933
0.336625
0.336451
0.336412
0.336499
0.336682
0.336929
0.337217
0.337524
0.337825
0.3381
0.36203
0.354554
0.349385
0.346125
0.34424
0.343201
0.342573
0.342022
0.341372
0.340628
0.339895
0.339249
0.338714
0.338272
0.337925
0.337679
0.337543
0.337525
0.337622
0.337805
0.33804
0.338299
0.338558
0.338798
0.339004
0.367749
0.35881
0.352344
0.34804
0.34538
0.34382
0.34289
0.342234
0.341618
0.340963
0.34031
0.339722
0.339215
0.338803
0.3385
0.338299
0.338196
0.338191
0.338278
0.338448
0.338689
0.338961
0.33922
0.339447
0.339633
0.375115
0.364459
0.35639
0.350738
0.347028
0.344715
0.343301
0.34239
0.341698
0.341067
0.340466
0.339926
0.339474
0.339122
0.33887
0.338716
0.338651
0.338665
0.338743
0.338892
0.339108
0.339366
0.339636
0.339881
0.340077
0.384555
0.371982
0.362022
0.354695
0.349619
0.346268
0.344128
0.342768
0.341848
0.341141
0.34054
0.340025
0.339608
0.339296
0.339089
0.338982
0.338966
0.339028
0.339151
0.339319
0.33951
0.339728
0.339974
0.34022
0.34043
0.396469
0.381862
0.369777
0.360459
0.353671
0.348949
0.345783
0.343709
0.34235
0.341415
0.340716
0.340167
0.339742
0.339439
0.339256
0.339184
0.339211
0.33932
0.339491
0.339702
0.339926
0.340145
0.340361
0.340576
0.340771
0.411176
0.394536
0.380189
0.368616
0.359778
0.353324
0.348781
0.345675
0.343592
0.342194
0.341234
0.340546
0.340048
0.339705
0.339506
0.33944
0.33949
0.339634
0.339845
0.340093
0.340345
0.340583
0.340801
0.340986
0.341138
0.428855
0.410326
0.393722
0.379742
0.368576
0.360037
0.35374
0.349235
0.34609
0.343931
0.342456
0.341444
0.340748
0.340285
0.340014
0.339914
0.339964
0.340127
0.34036
0.340622
0.340867
0.341075
0.341253
0.341398
0.341512
0.449496
0.429365
0.410683
0.394308
0.380659
0.369754
0.361346
0.355056
0.35047
0.347195
0.344894
0.343293
0.342194
0.341461
0.34102
0.340829
0.340847
0.340984
0.341146
0.341306
0.341459
0.341597
0.341716
0.341818
0.341907
0.472857
0.451533
0.431126
0.412569
0.396467
0.383055
0.372267
0.363844
0.357432
0.352655
0.349159
0.34664
0.344854
0.343624
0.342849
0.342446
0.34226
0.342165
0.342111
0.342089
0.342115
0.342182
0.342259
0.342331
0.342393
0.498465
0.476426
0.454787
0.434457
0.416154
0.4003
0.387023
0.376224
0.367656
0.361001
0.355922
0.352104
0.349273
0.347217
0.345829
0.344922
0.344234
0.34371
0.343367
0.34317
0.34307
0.343031
0.343022
0.343025
0.34303
0.525656
0.503387
0.48107
0.459519
0.439472
0.421471
0.405818
0.392584
0.381665
0.372837
0.365819
0.360314
0.356036
0.352738
0.350304
0.348525
0.34716
0.346145
0.34543
0.344934
0.344588
0.344346
0.344173
0.344043
0.343937
0.553656
0.531586
0.509123
0.486947
0.465739
0.446084
0.428397
0.412898
0.399632
0.388498
0.379305
0.371804
0.365723
0.360794
0.356851
0.353873
0.351701
0.350036
0.348737
0.347741
0.346986
0.346409
0.345961
0.345603
0.345308
0.581684
0.560144
0.537972
0.515708
0.493935
0.473211
0.453997
0.436614
0.421231
0.407875
0.39646
0.386821
0.378736
0.371952
0.366242
0.361663
0.358277
0.355722
0.353655
0.351972
0.350615
0.349527
0.348653
0.34794
0.347344
0.609042
0.588255
0.566679
0.54473
0.52289
0.501651
0.481463
0.462694
0.445594
0.430297
0.416824
0.405105
0.395001
0.386327
0.378869
0.372543
0.367403
0.36338
0.360258
0.35776
0.355667
0.353919
0.352468
0.35125
0.350214
0.635185
0.615278
0.594469
0.573083
0.551512
0.530176
0.50949
0.489822
0.471465
0.454622
0.439399
0.425818
0.413826
0.403322
0.39417
0.386239
0.379411
0.373671
0.368978
0.365147
0.362
0.359431
0.357317
0.355509
0.353937
0.659738
0.640767
0.620791
0.600075
0.578944
0.557759
0.536894
0.516702
0.497488
0.479491
0.462875
0.447731
0.43408
0.421889
0.411089
0.401592
0.393299
0.386116
0.379904
0.374594
0.370152
0.366429
0.363281
0.360606
0.35832
0.682478
0.664451
0.645301
0.625257
0.604602
0.583661
0.562776
0.542285
0.522489
0.503647
0.485956
0.469551
0.454506
0.440844
0.428546
0.417564
0.40783
0.399264
0.391768
0.385256
0.379623
0.374717
0.370449
0.3668
0.363693
0.703294
0.686173
0.667787
0.648352
0.628124
0.607408
0.586535
0.565833
0.545604
0.526114
0.507578
0.49016
0.473969
0.459068
0.445475
0.433175
0.422128
0.412275
0.403539
0.395837
0.389073
0.383147
0.377975
0.373483
0.369582
0.72207
0.705795
0.688077
0.669134
0.649224
0.628657
0.607759
0.58686
0.566263
0.546238
0.527012
0.508767
0.491635
0.475705
0.461022
0.447599
0.435418
0.424438
0.414601
0.405834
0.398057
0.391186
0.385132
0.379812
0.375145
0.738866
0.723295
0.706086
0.687479
0.66772
0.647129
0.626078
0.604919
0.583955
0.563451
0.543634
0.524696
0.506785
0.490005
0.474423
0.460068
0.446941
0.435016
0.424251
0.414584
0.405946
0.398257
0.391436
0.385404
0.380078
0.753534
0.738528
0.721615
0.703125
0.683389
0.662737
0.641516
0.620085
0.598773
0.577845
0.55753
0.538022
0.519477
0.502011
0.485703
0.470594
0.456699
0.444006
0.432481
0.422075
0.412725
0.404358
0.3969
0.390272
0.384396
0.765107
0.750372
0.733583
0.715121
0.695303
0.674504
0.653105
0.631443
0.609823
0.58852
0.567773
0.547785
0.528721
0.510707
0.493828
0.478137
0.463656
0.450384
0.438293
0.42734
0.417466
0.408605
0.400683
0.393621
0.387334
0.776997
0.762714
0.746128
0.727734
0.707848
0.686852
0.66515
0.6431
0.621022
0.599205
0.577902
0.557326
0.537651
0.519011
0.501496
0.485173
0.470078
0.456216
0.443563
0.432078
0.421708
0.412388
0.404047
0.396612
0.390013
0.317336
0.316828
0.316121
0.32243
0.322068
0.324392
0.325494
0.327433
0.330382
0.326288
0.328772
0.331599
0.329259
0.331075
0.33269
0.33215
0.333226
0.334199
0.334137
0.334861
0.335534
0.335791
0.336268
0.336697
0.337206
0.337495
0.337743
0.338323
0.338494
0.338628
0.339158
0.339267
0.339339
0.339764
0.339848
0.339893
0.340209
0.34029
0.34033
0.340571
0.340657
0.340699
0.340909
0.340994
0.341035
0.34125
0.341321
0.34135
0.341594
0.341645
0.341662
0.341972
0.342007
0.34201
0.342432
0.342445
0.342432
0.343022
0.342998
0.342954
0.343843
0.343749
0.343648
0.345062
0.344848
0.344645
0.346859
0.346455
0.346088
0.349376
0.348689
0.348078
0.352654
0.3516
0.350663
0.356472
0.354967
0.353642
0.361185
0.359134
0.357312
0.366396
0.363762
0.361402
0.371309
0.368133
0.365283
0.375676
0.372023
0.36874
0.379526
0.375462
0.371796
0.382079
0.377716
0.373815
0.384414
0.379685
0.375518
0.360424
0.360378
0.360252
0.359845
0.358955
0.357646
0.356059
0.354318
0.35252
0.350735
0.349012
0.347379
0.345853
0.344439
0.343141
0.341956
0.340879
0.339904
0.339026
0.338238
0.337536
0.336913
0.336366
0.33589
0.335482
0.335139
0.334859
0.33464
0.334481
0.334382
0.334342
0.334364
0.334447
0.334591
0.334795
0.335062
0.335389
0.335782
0.336253
0.336801
0.337424
0.338125
0.338907
0.33977
0.340718
0.341751
0.342869
0.34407
0.345351
0.346704
0.34812
0.349579
0.351059
0.352524
0.353923
0.35518
0.356185
0.356834
0.357106
0.356984
0.356361
0.355207
0.353547
0.351285
0.348353
0.344994
0.341468
0.337802
0.334235
0.331103
0.328696
0.327151
0.326549
0.326955
0.328351
0.330537
0.333091
0.335316
0.336537
0.336923
0.360534
0.360407
0.360219
0.359632
0.3586
0.357254
0.355679
0.353978
0.352234
0.350508
0.34884
0.347257
0.345774
0.344398
0.34313
0.341968
0.340909
0.339947
0.339078
0.338296
0.337596
0.336973
0.336423
0.335942
0.335527
0.335174
0.334883
0.334652
0.334479
0.334363
0.334305
0.3343
0.334354
0.334465
0.334642
0.334888
0.33519
0.335532
0.335946
0.336444
0.337008
0.337644
0.338353
0.339137
0.339996
0.340929
0.341936
0.343013
0.344154
0.345351
0.346593
0.34786
0.349131
0.350373
0.351547
0.352595
0.35345
0.354044
0.354327
0.354258
0.35376
0.352707
0.350971
0.348591
0.345611
0.342195
0.338605
0.335036
0.331702
0.328868
0.326723
0.325374
0.324864
0.325248
0.32652
0.328601
0.331254
0.334028
0.336036
0.336886
0.360644
0.360168
0.359578
0.358699
0.357538
0.356172
0.354654
0.353055
0.351431
0.349825
0.348272
0.346792
0.345398
0.344099
0.342895
0.341787
0.340771
0.339845
0.339004
0.338244
0.337561
0.336949
0.336407
0.33593
0.335515
0.335161
0.334865
0.334625
0.334441
0.334312
0.334238
0.334217
0.33425
0.334336
0.334483
0.334694
0.334968
0.335292
0.335669
0.336112
0.336624
0.337202
0.337848
0.338562
0.339344
0.340192
0.341105
0.342077
0.343104
0.344175
0.345279
0.346397
0.347509
0.348584
0.349588
0.350476
0.351207
0.351739
0.351997
0.351877
0.351332
0.350305
0.348691
0.346455
0.343621
0.340322
0.336799
0.333323
0.330147
0.327488
0.325526
0.324357
0.323941
0.324228
0.325195
0.326815
0.329
0.331548
0.333894
0.335407
0.359866
0.359073
0.358207
0.357194
0.356007
0.354681
0.35326
0.351791
0.350311
0.34885
0.347435
0.34608
0.344799
0.343597
0.342477
0.34144
0.340484
0.339608
0.338808
0.338081
0.337424
0.336833
0.336305
0.335838
0.33543
0.335078
0.33478
0.334536
0.334344
0.334204
0.334116
0.334078
0.334092
0.334158
0.334278
0.334453
0.334683
0.334967
0.335309
0.335709
0.33617
0.336692
0.337276
0.337923
0.338631
0.3394
0.340227
0.341108
0.342038
0.343006
0.344002
0.345012
0.346015
0.346988
0.3479
0.348718
0.349409
0.349949
0.350299
0.350311
0.349829
0.348788
0.347176
0.34498
0.342209
0.338964
0.335462
0.332008
0.328936
0.326428
0.324595
0.323524
0.323188
0.323483
0.32434
0.325705
0.327514
0.329633
0.331716
0.333333
0.357894
0.356931
0.356059
0.355116
0.35403
0.352825
0.351551
0.350246
0.348933
0.347635
0.346373
0.345159
0.344003
0.342912
0.341889
0.340935
0.340051
0.339235
0.338486
0.337801
0.337178
0.336615
0.33611
0.335659
0.335263
0.334918
0.334624
0.334379
0.334183
0.334036
0.333936
0.333885
0.333882
0.333928
0.334024
0.334171
0.334369
0.334618
0.334921
0.335279
0.335693
0.336163
0.336691
0.337276
0.337919
0.338616
0.339367
0.340167
0.341011
0.341892
0.342794
0.343709
0.344622
0.345504
0.346334
0.347084
0.347718
0.348207
0.348514
0.348543
0.348158
0.347264
0.345822
0.343803
0.34123
0.338193
0.334866
0.331513
0.328503
0.326093
0.324388
0.323414
0.32315
0.323483
0.324321
0.325592
0.327224
0.329066
0.330778
0.332127
0.35364
0.353202
0.352862
0.352302
0.351512
0.350556
0.349516
0.348438
0.347333
0.346226
0.345136
0.344077
0.343059
0.342088
0.341171
0.340309
0.339504
0.338756
0.338064
0.337427
0.336844
0.336314
0.335835
0.335406
0.335024
0.334691
0.334403
0.334161
0.333963
0.333811
0.333703
0.33364
0.333621
0.333649
0.333722
0.333843
0.334012
0.334229
0.334496
0.334813
0.335182
0.335603
0.336078
0.336605
0.337185
0.337816
0.338495
0.339219
0.339983
0.340784
0.341603
0.342433
0.343268
0.344068
0.344814
0.345496
0.346079
0.346535
0.346814
0.346827
0.346512
0.345822
0.344674
0.342994
0.340779
0.338113
0.335207
0.332188
0.329335
0.326942
0.325235
0.324276
0.324028
0.324386
0.325232
0.326497
0.328094
0.32982
0.331254
0.332162
0.346139
0.347992
0.348654
0.348786
0.348503
0.347945
0.347249
0.346462
0.345603
0.344708
0.343803
0.342906
0.34203
0.341184
0.340376
0.339608
0.338884
0.338205
0.337573
0.336987
0.336447
0.335952
0.335502
0.335096
0.334732
0.334411
0.334132
0.333894
0.333698
0.333542
0.333427
0.333353
0.333321
0.333332
0.333385
0.333482
0.333623
0.333809
0.334042
0.334321
0.334647
0.335023
0.335447
0.33592
0.336441
0.337009
0.337622
0.338276
0.338966
0.339688
0.340434
0.341192
0.341953
0.342692
0.343381
0.344009
0.344555
0.344991
0.345279
0.345355
0.345166
0.344671
0.343814
0.342562
0.340882
0.338802
0.336455
0.333921
0.331375
0.329075
0.327314
0.326248
0.32592
0.326273
0.32717
0.328516
0.330206
0.331956
0.333173
0.333412
0.330349
0.339751
0.343087
0.344647
0.345152
0.345153
0.344892
0.344427
0.343829
0.343153
0.342435
0.341699
0.340964
0.34024
0.339538
0.338862
0.338219
0.33761
0.337037
0.336502
0.336005
0.335547
0.335126
0.334744
0.334399
0.334092
0.333822
0.33359
0.333394
0.333236
0.333116
0.333033
0.332989
0.332983
0.333017
0.333091
0.333206
0.333364
0.333564
0.333807
0.334094
0.334426
0.334804
0.335227
0.335694
0.336205
0.336757
0.337348
0.337974
0.338628
0.339305
0.339993
0.340683
0.341378
0.342053
0.342664
0.343206
0.343627
0.343913
0.344084
0.344071
0.343812
0.343267
0.342461
0.341397
0.340044
0.338323
0.336383
0.334374
0.332382
0.330696
0.329464
0.328773
0.328702
0.329328
0.330581
0.332086
0.333615
0.3349
0.334817
0.330511
0.335948
0.339146
0.341196
0.342208
0.342659
0.342732
0.342532
0.342157
0.341673
0.341122
0.340531
0.339922
0.33931
0.338705
0.338116
0.337547
0.337002
0.336486
0.335999
0.335543
0.335119
0.334727
0.334367
0.334041
0.333748
0.333487
0.33326
0.333067
0.332907
0.332782
0.33269
0.332634
0.332614
0.33263
0.332683
0.332775
0.332905
0.333075
0.333285
0.333537
0.33383
0.334165
0.334543
0.334963
0.335423
0.335924
0.336461
0.337033
0.337634
0.33826
0.3389
0.339549
0.340196
0.340828
0.341428
0.341997
0.342485
0.342864
0.343146
0.343299
0.343291
0.343098
0.342698
0.34211
0.341345
0.340347
0.339209
0.33808
0.336933
0.33571
0.334617
0.33376
0.333226
0.333124
0.333619
0.334883
0.337174
0.340475
0.342773
0.333347
0.335992
0.337954
0.339414
0.340343
0.340861
0.341041
0.340976
0.340742
0.340392
0.339964
0.339487
0.33898
0.338459
0.337936
0.337419
0.336913
0.336425
0.335957
0.335512
0.335092
0.334698
0.334332
0.333993
0.333683
0.333402
0.33315
0.332928
0.332736
0.332575
0.332444
0.332345
0.332279
0.332245
0.332245
0.332279
0.332349
0.332456
0.332599
0.332781
0.333001
0.33326
0.33356
0.333899
0.334279
0.334698
0.335157
0.335652
0.336182
0.336744
0.337332
0.337942
0.338567
0.339199
0.339828
0.340443
0.341035
0.341581
0.342067
0.342487
0.342823
0.343062
0.343193
0.343211
0.34312
0.342935
0.34266
0.342307
0.341894
0.341616
0.341369
0.341115
0.341068
0.341421
0.342059
0.342899
0.344064
0.346225
0.350289
0.35598
0.333981
0.335924
0.33739
0.33848
0.339216
0.339637
0.339808
0.339787
0.339621
0.33935
0.339002
0.338604
0.338171
0.337719
0.337259
0.336799
0.336344
0.335901
0.335473
0.335063
0.334673
0.334304
0.333959
0.333637
0.33334
0.333069
0.332824
0.332606
0.332415
0.332251
0.332116
0.33201
0.331934
0.331888
0.331874
0.331892
0.331942
0.332028
0.332148
0.332305
0.332498
0.332729
0.332999
0.333307
0.333655
0.334042
0.334468
0.334932
0.335432
0.335966
0.336531
0.337124
0.33774
0.338372
0.339014
0.339659
0.340298
0.340919
0.341513
0.342075
0.342594
0.343064
0.343482
0.343849
0.344171
0.344462
0.344743
0.345041
0.345385
0.345832
0.346442
0.347251
0.348261
0.349473
0.350979
0.352916
0.355415
0.358624
0.362721
0.367845
0.334312
0.335804
0.337003
0.337897
0.338479
0.338808
0.338943
0.338922
0.33878
0.338547
0.338245
0.337895
0.337511
0.337107
0.336691
0.336272
0.335856
0.335447
0.335049
0.334666
0.334298
0.333949
0.33362
0.333312
0.333025
0.332762
0.332521
0.332305
0.332114
0.331948
0.331809
0.331696
0.33161
0.331554
0.331526
0.331529
0.331563
0.33163
0.331731
0.331866
0.332037
0.332245
0.332491
0.332775
0.333098
0.33346
0.333862
0.334304
0.334784
0.335302
0.335856
0.336444
0.337062
0.337707
0.338374
0.339059
0.339755
0.340457
0.34116
0.341858
0.342548
0.343228
0.343897
0.344561
0.345226
0.345906
0.346618
0.347388
0.348244
0.34922
0.350358
0.351708
0.3533
0.355129
0.357247
0.359736
0.362693
0.366063
0.369671
0.37348
0.335213
0.33619
0.337026
0.337673
0.338093
0.338317
0.33839
0.338341
0.338192
0.337967
0.337684
0.337357
0.337001
0.336625
0.336238
0.335847
0.335456
0.335071
0.334694
0.334329
0.333978
0.333643
0.333326
0.333026
0.332747
0.332488
0.332251
0.332035
0.331843
0.331674
0.331529
0.331409
0.331315
0.331248
0.331209
0.331199
0.331219
0.33127
0.331354
0.331471
0.331624
0.331813
0.33204
0.332305
0.332609
0.332954
0.33334
0.333768
0.334237
0.334747
0.335299
0.33589
0.336519
0.337184
0.337883
0.338613
0.339371
0.340153
0.340957
0.341781
0.342622
0.343483
0.344363
0.34527
0.346209
0.347194
0.348239
0.349366
0.350597
0.351961
0.353495
0.355248
0.357226
0.359337
0.361556
0.363958
0.366594
0.369433
0.37243
0.375632
0.336186
0.336793
0.337317
0.337725
0.337984
0.338098
0.338095
0.337998
0.337822
0.337585
0.337299
0.336979
0.336633
0.336271
0.335899
0.335522
0.335147
0.334776
0.334412
0.334059
0.333718
0.333392
0.333081
0.332787
0.332511
0.332255
0.332018
0.331802
0.331607
0.331434
0.331284
0.331157
0.331055
0.330979
0.330929
0.330908
0.330915
0.330952
0.331022
0.331124
0.331262
0.331436
0.331648
0.331899
0.33219
0.332523
0.332898
0.333318
0.333782
0.334291
0.334846
0.335447
0.336093
0.336783
0.337517
0.338293
0.33911
0.339966
0.340861
0.341794
0.342764
0.343773
0.344825
0.345922
0.347071
0.348282
0.349565
0.350936
0.352411
0.354012
0.355778
0.357735
0.359791
0.361848
0.363938
0.366158
0.368558
0.371105
0.373768
0.376542
0.337098
0.337454
0.337745
0.337957
0.33807
0.338083
0.338001
0.337845
0.33763
0.337368
0.337068
0.33674
0.336393
0.336032
0.335664
0.335294
0.334925
0.33456
0.334203
0.333855
0.333519
0.333197
0.332889
0.332598
0.332323
0.332066
0.331828
0.33161
0.331411
0.331234
0.331078
0.330945
0.330835
0.33075
0.330691
0.330659
0.330655
0.33068
0.330738
0.330828
0.330953
0.331115
0.331315
0.331555
0.331837
0.332162
0.332532
0.332948
0.333411
0.333924
0.334486
0.3351
0.335764
0.336481
0.337249
0.338068
0.338939
0.339861
0.340833
0.341857
0.342932
0.34406
0.345242
0.346483
0.347785
0.349155
0.3506
0.352126
0.353745
0.355474
0.357338
0.359295
0.361239
0.363202
0.365249
0.367377
0.369589
0.371887
0.37426
0.376686
0.337962
0.338139
0.33826
0.33832
0.338302
0.338215
0.33806
0.337842
0.337581
0.337286
0.336963
0.33662
0.336263
0.335897
0.335526
0.335154
0.334785
0.334421
0.334065
0.333718
0.333383
0.333061
0.332753
0.332461
0.332185
0.331926
0.331685
0.331463
0.331261
0.331078
0.330916
0.330777
0.330659
0.330566
0.330498
0.330456
0.330441
0.330457
0.330504
0.330583
0.330698
0.33085
0.331041
0.331274
0.331549
0.331869
0.332235
0.332651
0.333116
0.333635
0.334207
0.334834
0.335517
0.336259
0.337058
0.337916
0.338833
0.339809
0.340845
0.341941
0.343097
0.344315
0.345594
0.346938
0.348346
0.349821
0.351365
0.35298
0.35467
0.356446
0.358309
0.360177
0.362044
0.363979
0.365962
0.367971
0.37001
0.37209
0.374214
0.376368
0.338731
0.338788
0.338795
0.338749
0.338639
0.338463
0.338231
0.337952
0.337643
0.337311
0.336962
0.3366
0.336228
0.335852
0.335473
0.335096
0.334723
0.334355
0.333996
0.333646
0.333309
0.332985
0.332675
0.33238
0.332101
0.331839
0.331594
0.331367
0.33116
0.330971
0.330804
0.330657
0.330532
0.33043
0.330353
0.330302
0.330279
0.330285
0.330322
0.330393
0.330499
0.330642
0.330826
0.331052
0.331322
0.331639
0.332004
0.33242
0.33289
0.333414
0.333996
0.334637
0.335338
0.336101
0.336928
0.337818
0.338773
0.339793
0.340878
0.342028
0.343244
0.344526
0.345873
0.347285
0.348761
0.350299
0.351899
0.353558
0.355277
0.357052
0.358855
0.360652
0.362483
0.36437
0.366273
0.368168
0.370061
0.371968
0.373905
0.375868
0.339374
0.339359
0.339297
0.339186
0.33902
0.338784
0.338486
0.33815
0.337793
0.337426
0.33705
0.336667
0.336279
0.33589
0.335502
0.335117
0.334737
0.334363
0.333999
0.333644
0.333302
0.332974
0.33266
0.33236
0.332076
0.331809
0.331559
0.331328
0.331114
0.33092
0.330745
0.330591
0.330458
0.330348
0.330262
0.330202
0.33017
0.330167
0.330195
0.330257
0.330355
0.330492
0.330669
0.330889
0.331155
0.33147
0.331834
0.332252
0.332725
0.333256
0.333847
0.3345
0.335216
0.335998
0.336847
0.337762
0.338747
0.339799
0.34092
0.34211
0.343367
0.344691
0.346082
0.347536
0.349051
0.350622
0.352248
0.353924
0.355643
0.357391
0.359123
0.36086
0.362657
0.364491
0.366322
0.368127
0.369909
0.371689
0.373499
0.375349
0.339897
0.339846
0.339743
0.339594
0.339397
0.339134
0.338792
0.338405
0.338009
0.337613
0.337215
0.336813
0.336411
0.33601
0.335611
0.335218
0.334831
0.334451
0.334081
0.333722
0.333374
0.333039
0.332718
0.332411
0.332121
0.331847
0.331591
0.331352
0.331132
0.33093
0.330748
0.330586
0.330444
0.330325
0.33023
0.33016
0.330119
0.330107
0.330126
0.33018
0.330271
0.3304
0.330571
0.330787
0.331049
0.331361
0.331725
0.332145
0.332621
0.333157
0.333756
0.334419
0.335147
0.335944
0.336809
0.337745
0.33875
0.339826
0.340971
0.342186
0.343469
0.34482
0.346237
0.347717
0.34925
0.350832
0.352463
0.354133
0.355817
0.357498
0.359174
0.360882
0.362644
0.36443
0.366204
0.367944
0.369647
0.371339
0.373066
0.374836
0.340325
0.34026
0.340139
0.33997
0.339756
0.339468
0.339094
0.338681
0.338268
0.337856
0.337442
0.337027
0.336613
0.336201
0.335794
0.335393
0.335
0.334616
0.334243
0.333881
0.333528
0.333187
0.332858
0.332544
0.332246
0.331964
0.331698
0.331451
0.331222
0.331013
0.330823
0.330651
0.330499
0.330369
0.330263
0.330183
0.330131
0.330109
0.330119
0.330164
0.330246
0.330368
0.330533
0.330744
0.331003
0.331312
0.331676
0.332096
0.332576
0.333117
0.333722
0.334393
0.335132
0.33594
0.336819
0.337769
0.338789
0.339881