/*--------------------------------*- C++ -*----------------------------------*\
| =========                 |                                                 |
| \\      /  F ield         | OpenFOAM: The Open Source CFD Toolbox           |
|  \\    /   O peration     | Version:  v2012                                 |
|   \\  /    A nd           | Website:  www.openfoam.com                      |
|    \\/     M anipulation  |                                                 |
\*---------------------------------------------------------------------------*/
FoamFile
{
    version     2.0;
    format      ascii;
    class       surfaceScalarField;
    location    "572";
    object      phi;
}
// * * * * * * * * * * * * * * * * * * * * * * * * * * * * * * * * * * * * * //

dimensions      [0 3 -1 0 0 0 0];
oriented        oriented;


internalField   nonuniform List<scalar> 
12946
(
7.48183e-08
0.000199925
4.86817e-08
0.000200026
2.85e-08
0.00020002
1.32386e-08
0.000200015
4.55504e-11
0.000200013
-1.3154e-08
0.000200013
-2.84345e-08
0.000200015
-4.86478e-08
0.00020002
-7.48069e-08
0.000200026
0.000199925
1.16763e-07
0.000199808
1.01622e-07
0.000200041
6.77406e-08
0.000200054
3.32468e-08
0.00020005
1.36547e-10
0.000200046
-3.29924e-08
0.000200046
-6.7543e-08
0.00020005
-1.0152e-07
0.000200054
-1.16742e-07
0.000200041
0.000199808
1.18669e-07
0.00019969
1.18273e-07
0.000200042
8.53264e-08
0.000200087
4.37093e-08
0.000200091
2.56241e-10
0.00020009
-4.32209e-08
0.00020009
-8.48993e-08
0.000200092
-1.17928e-07
0.000200087
-1.18472e-07
0.000200042
0.00019969
1.15243e-07
0.000199575
1.19716e-07
0.000200037
9.0008e-08
0.000200117
4.74955e-08
0.000200134
4.09386e-10
0.000200137
-4.67248e-08
0.000200137
-8.93772e-08
0.000200134
-1.19247e-07
0.000200117
-1.14978e-07
0.000200038
0.000199575
1.10841e-07
0.000199464
1.1698e-07
0.000200031
8.965e-08
0.000200144
4.80428e-08
0.000200175
6.43226e-10
0.000200184
-4.68232e-08
0.000200184
-8.86123e-08
0.000200176
-1.16226e-07
0.000200145
-1.1042e-07
0.000200032
0.000199465
1.05274e-07
0.000199358
1.12368e-07
0.000200024
8.75243e-08
0.000200169
4.73839e-08
0.000200216
1.01101e-09
0.000200231
-4.54498e-08
0.000200231
-8.58475e-08
0.000200216
-1.11151e-07
0.00020017
-1.04618e-07
0.000200025
0.00019936
9.9769e-08
0.000199259
1.07103e-07
0.000200017
8.39181e-08
0.000200192
4.59204e-08
0.000200254
1.53411e-09
0.000200275
-4.29995e-08
0.000200275
-8.14279e-08
0.000200255
-1.0526e-07
0.000200194
-9.87636e-08
0.000200019
0.000199261
9.48368e-08
0.000199164
1.01922e-07
0.00020001
8.00806e-08
0.000200214
4.43226e-08
0.000200289
2.31551e-09
0.000200317
-3.99119e-08
0.000200318
-7.63084e-08
0.000200291
-9.91426e-08
0.000200217
-9.33158e-08
0.000200013
0.000199168
9.06919e-08
0.000199073
9.75064e-08
0.000200003
7.69859e-08
0.000200234
4.32391e-08
0.000200323
3.49479e-09
0.000200357
-3.65782e-08
0.000200358
-7.12844e-08
0.000200326
-9.33189e-08
0.000200239
-8.8397e-08
0.000200008
0.000199079
8.74096e-08
0.000198986
9.41226e-08
0.000199996
7.48582e-08
0.000200254
4.29615e-08
0.000200355
5.25951e-09
0.000200394
-3.29379e-08
0.000200396
-6.62798e-08
0.000200359
-8.78161e-08
0.00020026
-8.39474e-08
0.000200004
0.000198996
8.50235e-08
0.000198901
9.19424e-08
0.000199989
7.39395e-08
0.000200272
4.37746e-08
0.000200385
7.89934e-09
0.00020043
-2.87205e-08
0.000200433
-6.10473e-08
0.000200392
-8.24371e-08
0.000200282
-7.97997e-08
0.000200002
0.000198916
8.3618e-08
0.000198817
9.12047e-08
0.000199982
7.45536e-08
0.000200288
4.6081e-08
0.000200414
1.18514e-08
0.000200465
-2.34964e-08
0.000200468
-5.51937e-08
0.000200423
-7.68391e-08
0.000200303
-7.57179e-08
0.0002
0.00019884
8.33747e-08
0.000198734
9.22516e-08
0.000199973
7.72343e-08
0.000200303
5.05044e-08
0.00020044
1.77872e-08
0.000200497
-1.66074e-08
0.000200502
-4.81292e-08
0.000200455
-7.05464e-08
0.000200326
-7.14085e-08
0.000200001
0.000198769
8.43119e-08
0.000198649
9.51555e-08
0.000199962
8.25104e-08
0.000200316
5.79374e-08
0.000200465
2.67053e-08
0.000200529
-7.08473e-09
0.000200536
-3.90123e-08
0.000200487
-6.29192e-08
0.00020035
-6.65042e-08
0.000200005
0.000198702
8.69968e-08
0.000198562
1.01121e-07
0.000199948
9.1736e-08
0.000200325
6.97787e-08
0.000200487
4.01063e-08
0.000200558
6.50782e-09
0.00020057
-2.66205e-08
0.00020052
-5.30752e-08
0.000200376
-6.05455e-08
0.000200012
0.000198642
9.20439e-08
0.00019847
1.11213e-07
0.000199929
1.06326e-07
0.00020033
8.77479e-08
0.000200506
5.98954e-08
0.000200586
2.65611e-08
0.000200603
-8.9415e-09
0.000200555
-3.98112e-08
0.000200407
-5.30241e-08
0.000200026
0.000198589
1.00321e-07
0.00019837
1.2712e-07
0.000199902
1.28899e-07
0.000200329
1.15259e-07
0.000200519
9.01411e-08
0.000200611
5.61121e-08
0.000200637
1.66364e-08
0.000200595
-2.1557e-08
0.000200445
-4.36365e-08
0.000200048
0.000198545
1.12968e-07
0.000198257
1.51065e-07
0.000199864
1.62733e-07
0.000200317
1.56821e-07
0.000200525
1.35978e-07
0.000200632
1.00733e-07
0.000200672
5.41434e-08
0.000200641
2.37102e-09
0.000200497
-3.43649e-08
0.000200084
0.000198511
1.31454e-07
0.000198126
1.86132e-07
0.000199809
2.12637e-07
0.00020029
2.18833e-07
0.000200519
2.05471e-07
0.000200645
1.71478e-07
0.000200706
1.16427e-07
0.000200696
4.75157e-08
0.000200566
-1.88165e-08
0.000200151
0.000198492
1.5714e-07
0.000197968
2.35769e-07
0.00019973
2.84221e-07
0.000200242
3.09379e-07
0.000200494
3.09772e-07
0.000200645
2.80121e-07
0.000200736
2.07117e-07
0.000200769
7.92794e-08
0.000200694
-1.12161e-07
0.000200342
0.00019838
1.86589e-07
0.000197782
2.94318e-07
0.000199623
3.71962e-07
0.000200164
4.26344e-07
0.000200439
4.569e-07
0.000200614
4.61675e-07
0.000200731
4.38976e-07
0.000200792
3.89577e-07
0.000200743
6.22834e-07
0.000200109
0.000194081
4.92157e-06
2.30068e-07
0.000197552
3.78442e-07
0.000199474
4.96691e-07
0.000200046
5.92634e-07
0.000200343
6.67141e-07
0.00020054
7.23515e-07
0.000200675
7.82569e-07
0.000200733
8.9945e-07
0.000200626
1.16356e-06
0.000199845
0.000192098
3.14591e-06
2.83216e-07
0.000197269
4.82081e-07
0.000199275
6.50545e-07
0.000199878
7.97544e-07
0.000200196
9.25041e-07
0.000200412
1.03643e-06
0.000200563
1.14833e-06
0.000200621
1.34714e-06
0.000200427
1.92994e-06
0.000199262
0.000189105
4.92325e-06
3.46094e-07
0.000196922
6.05023e-07
0.000199016
8.32955e-07
0.00019965
1.03989e-06
0.000199989
1.22942e-06
0.000200223
1.40872e-06
0.000200384
1.60552e-06
0.000200424
1.93774e-06
0.000200095
2.82225e-06
0.000198377
0.000185754
6.17343e-06
4.1922e-07
0.000196503
7.4807e-07
0.000198688
1.04511e-06
0.000199353
1.3216e-06
0.000199713
1.58312e-06
0.000199961
1.84184e-06
0.000200125
2.13561e-06
0.000200131
2.59621e-06
0.000199635
3.68551e-06
0.000197288
0.00018238
7.05933e-06
5.03402e-07
0.000196
9.12331e-07
0.000198279
1.28834e-06
0.000198977
1.64388e-06
0.000199357
1.98617e-06
0.000199619
2.3313e-06
0.00019978
2.72547e-06
0.000199736
3.31642e-06
0.000199044
4.62953e-06
0.000195975
0.000179058
7.95202e-06
6.00299e-07
0.0001954
1.09951e-06
0.000197779
1.56463e-06
0.000198511
2.00906e-06
0.000198913
2.44159e-06
0.000199187
2.88237e-06
0.000199339
3.38685e-06
0.000199232
4.11865e-06
0.000198312
5.63956e-06
0.000194454
0.000175933
8.76415e-06
7.36149e-07
0.000194663
1.36217e-06
0.000197153
1.95036e-06
0.000197923
2.51613e-06
0.000198347
3.07043e-06
0.000198632
3.63822e-06
0.000198772
4.28483e-06
0.000198585
5.18416e-06
0.000197412
6.88445e-06
0.000192754
0.000172919
9.89847e-06
8.66897e-07
0.000193796
1.61873e-06
0.000196402
2.33026e-06
0.000197212
3.01749e-06
0.00019766
3.69339e-06
0.000197956
4.3872e-06
0.000198078
5.17421e-06
0.000197798
6.23994e-06
0.000196347
8.07235e-06
0.000190921
0.000170176
1.08152e-05
1.01942e-06
0.000192777
1.91026e-06
0.000195511
2.76136e-06
0.000196361
3.58561e-06
0.000196836
4.39764e-06
0.000197144
5.22981e-06
0.000197246
6.16353e-06
0.000196865
7.39223e-06
0.000195118
9.34131e-06
0.000188972
0.000167718
1.17998e-05
1.19223e-06
0.000191585
2.24489e-06
0.000194458
3.25243e-06
0.000195353
4.2306e-06
0.000195858
5.19377e-06
0.000196181
6.17537e-06
0.000196264
7.2569e-06
0.000195783
8.62465e-06
0.00019375
1.06334e-05
0.000186964
0.000165605
1.27464e-05
1.38678e-06
0.000190198
2.62939e-06
0.000193215
3.81492e-06
0.000194168
4.96661e-06
0.000194706
6.09845e-06
0.000195049
7.24328e-06
0.000195119
8.47922e-06
0.000194547
9.9731e-06
0.000192256
1.19929e-05
0.000184944
0.000163882
1.37157e-05
1.61314e-06
0.000188585
3.06971e-06
0.000191759
4.4607e-06
0.000192777
5.81116e-06
0.000193355
7.13498e-06
0.000193725
8.46305e-06
0.000193791
9.8674e-06
0.000193143
1.14921e-05
0.000190632
1.34973e-05
0.000182939
0.00016252
1.48592e-05
1.87486e-06
0.00018671
3.57611e-06
0.000190058
5.20405e-06
0.000191149
6.78433e-06
0.000191775
8.33027e-06
0.00019218
9.86952e-06
0.000192252
1.14638e-05
0.000191548
1.32281e-05
0.000188867
1.51879e-05
0.000180979
0.000161468
1.62401e-05
2.17607e-06
0.000184534
4.15928e-06
0.000188074
6.06054e-06
0.000189247
7.90719e-06
0.000189928
9.7116e-06
0.000190375
1.14971e-05
0.000190466
1.33124e-05
0.000189733
1.5232e-05
0.000186948
1.71485e-05
0.000179062
0.000160663
1.79537e-05
2.52154e-06
0.000182012
4.82901e-06
0.000185767
7.04494e-06
0.000187031
9.19976e-06
0.000187774
1.13049e-05
0.00018827
1.33783e-05
0.000188393
1.54525e-05
0.000187659
1.75511e-05
0.000184849
1.94607e-05
0.000177153
0.000160026
2.00978e-05
2.91543e-06
0.000179097
5.59361e-06
0.000183089
8.16981e-06
0.000184455
1.06791e-05
0.000185264
1.31323e-05
0.000185817
1.55412e-05
0.000185984
1.79193e-05
0.000185281
2.02378e-05
0.000182531
2.21994e-05
0.000175191
0.000159462
2.27631e-05
3.36073e-06
0.000175736
6.45928e-06
0.00017999
9.4444e-06
0.00018147
1.23575e-05
0.000182351
1.52098e-05
0.000182964
1.80063e-05
0.000183188
2.07406e-05
0.000182547
2.33354e-05
0.000179936
2.54279e-05
0.000173099
0.00015886
2.60293e-05
3.85907e-06
0.000171877
7.42947e-06
0.00017642
1.08737e-05
0.000178026
1.42413e-05
0.000178984
1.7545e-05
0.000179661
2.07839e-05
0.000179949
2.39324e-05
0.000179398
2.68714e-05
0.000176997
2.91915e-05
0.000170779
0.000158093
2.99587e-05
4.41064e-06
0.000167467
8.50445e-06
0.000172326
1.24574e-05
0.000174073
1.63293e-05
0.000175112
2.01357e-05
0.000175854
2.38716e-05
0.000176213
2.74946e-05
0.000175775
3.08535e-05
0.000173638
3.3511e-05
0.000168121
0.000157017
3.45874e-05
5.01385e-06
0.000162453
9.68111e-06
0.000167659
1.419e-05
0.000169564
1.86122e-05
0.000170689
2.29688e-05
0.000171498
2.72522e-05
0.00017193
3.14086e-05
0.000171619
3.52651e-05
0.000169781
3.83758e-05
0.00016501
0.000155477
3.99155e-05
5.66787e-06
0.000156785
1.0953e-05
0.000162374
1.60602e-05
0.000164457
2.10729e-05
0.000165677
2.60195e-05
0.000166551
3.08936e-05
0.000167055
3.56352e-05
0.000166877
4.00624e-05
0.000165354
4.37386e-05
0.000161334
0.000153319
4.58967e-05
6.37204e-06
0.000150413
1.23119e-05
0.000156434
1.80525e-05
0.000158716
2.36871e-05
0.000160042
2.92531e-05
0.000160985
3.4749e-05
0.00016156
4.01153e-05
0.000161511
4.5173e-05
0.000160296
4.95123e-05
0.000156995
0.0001504
5.24313e-05
7.12279e-06
0.00014329
1.37493e-05
0.000149807
2.0149e-05
0.000152317
2.64256e-05
0.000153766
3.26272e-05
0.000154784
3.87603e-05
0.000155426
4.47726e-05
0.000155498
5.04995e-05
0.00015457
5.55726e-05
0.000151922
0.000146608
5.93654e-05
7.91628e-06
0.000135374
1.52568e-05
0.000142467
2.23314e-05
0.000145242
2.92572e-05
0.00014684
3.60945e-05
0.000147946
4.28616e-05
0.000148659
4.95191e-05
0.000148841
5.5926e-05
0.000148163
6.17663e-05
0.000146081
0.000141874
6.64996e-05
8.75094e-06
0.000126623
1.68275e-05
0.00013439
2.45828e-05
0.000137487
3.21512e-05
0.000139271
3.96077e-05
0.00014049
4.69853e-05
0.000141282
5.42625e-05
0.000141564
6.13284e-05
0.000141097
6.79259e-05
0.000139484
0.000136192
7.3608e-05
9.62867e-06
0.000116994
1.8459e-05
0.00012556
2.68901e-05
0.000129056
3.50801e-05
0.000131081
4.3122e-05
0.000132448
5.10668e-05
0.000133337
5.89141e-05
0.000133716
6.65866e-05
0.000133424
7.38879e-05
0.000132183
0.000129615
8.04655e-05
1.05558e-05
0.000106438
2.01544e-05
0.000115961
2.92452e-05
0.000119965
3.80207e-05
0.000122306
4.65973e-05
0.000123871
5.50475e-05
0.000124887
6.33944e-05
0.00012537
7.15946e-05
0.000125224
7.95094e-05
0.000124268
0.000122248
8.68758e-05
1.15449e-05
9.48935e-05
2.19229e-05
0.000105583
3.16437e-05
0.000110244
4.09516e-05
0.000112998
4.99961e-05
0.000114827
5.88742e-05
0.000116009
6.76342e-05
0.00011661
7.62651e-05
0.000116593
8.4679e-05
0.000115854
0.000114236
9.26912e-05
1.26154e-05
8.22781e-05
2.37762e-05
9.44224e-05
3.40781e-05
9.99422e-05
4.38462e-05
0.00010323
5.32753e-05
0.000105398
6.24919e-05
0.000106792
7.15696e-05
0.000107532
8.05266e-05
0.000107636
8.93169e-05
0.000107064
0.000105734
9.78189e-05
1.38136e-05
6.84645e-05
2.57149e-05
8.2521e-05
3.65198e-05
8.91373e-05
4.6655e-05
9.30946e-05
5.63709e-05
9.56818e-05
6.5829e-05
9.73338e-05
7.51281e-05
9.82329e-05
8.43105e-05
9.84537e-05
9.33621e-05
9.8012e-05
9.68876e-05
0.000102208
1.5189e-05
5.32755e-05
2.76962e-05
7.00139e-05
3.88851e-05
7.79483e-05
4.92762e-05
8.27035e-05
5.91728e-05
8.57853e-05
6.87757e-05
8.77309e-05
7.8208e-05
8.88005e-05
8.75307e-05
8.91311e-05
9.67507e-05
8.87919e-05
8.78137e-05
0.000105825
1.65625e-05
3.6713e-05
2.96128e-05
5.69636e-05
4.10154e-05
6.65457e-05
5.15122e-05
7.22068e-05
6.14799e-05
7.58175e-05
7.11459e-05
7.80649e-05
8.06469e-05
7.92995e-05
9.00535e-05
7.97245e-05
9.93841e-05
7.94613e-05
7.8585e-05
0.000108613
1.65196e-05
2.01934e-05
3.075e-05
4.27331e-05
4.25382e-05
5.47575e-05
5.30676e-05
6.16774e-05
6.30036e-05
6.58815e-05
7.2662e-05
6.84065e-05
8.21934e-05
6.97681e-05
9.16654e-05
7.02525e-05
0.000101095
7.0032e-05
6.92199e-05
0.00011046
1.34702e-05
6.72326e-06
2.89538e-05
2.72495e-05
4.19444e-05
4.17669e-05
5.3029e-05
5.05928e-05
6.31489e-05
5.57617e-05
7.28715e-05
5.86838e-05
8.24676e-05
6.0172e-05
9.20418e-05
6.06783e-05
0.000101614
6.04596e-05
5.96752e-05
0.000111159
8.66025e-06
-1.93699e-06
2.32015e-05
1.27083e-05
3.72542e-05
2.77142e-05
4.95837e-05
3.82634e-05
6.05763e-05
4.4769e-05
7.083e-05
4.84301e-05
8.07775e-05
5.02245e-05
9.06435e-05
5.08123e-05
0.000100503
5.06001e-05
4.9832e-05
0.000110346
5.10619e-06
-7.04318e-06
1.55093e-05
2.30519e-06
2.84253e-05
1.47981e-05
4.1365e-05
2.53237e-05
5.35232e-05
3.26108e-05
6.4913e-05
3.70402e-05
7.5805e-05
3.93326e-05
8.64353e-05
4.01819e-05
9.69293e-05
4.01062e-05
3.94274e-05
0.000107334
2.32773e-06
-9.3709e-06
7.89012e-06
-3.2572e-06
1.72102e-05
5.47802e-06
2.86696e-05
1.38643e-05
4.09821e-05
2.02982e-05
5.34147e-05
2.46076e-05
6.56664e-05
2.70809e-05
7.76493e-05
2.8199e-05
8.93545e-05
2.8401e-05
2.79487e-05
0.000100833
-2.06269e-06
-7.30821e-06
-7.63733e-07
-4.55616e-06
4.51031e-06
2.03974e-07
1.30369e-05
5.33772e-06
2.40649e-05
9.27022e-06
3.66081e-05
1.20645e-05
4.99309e-05
1.37582e-05
6.33702e-05
1.47597e-05
7.6598e-05
1.51731e-05
1.49172e-05
8.96294e-05
-7.30821e-06
-1.18644e-05
-1.16604e-05
-6.32268e-06
2.94754e-06
1.5012e-05
2.87702e-05
4.35299e-05
5.87031e-05
7.36203e-05
-2.71192e-05
3.20408e-05
-2.43175e-05
-2.80175e-06
-1.87198e-05
-5.59768e-06
-1.23295e-05
-6.39033e-06
-5.48256e-06
-6.84692e-06
1.29195e-06
-6.7745e-06
7.73679e-06
-6.44484e-06
1.37867e-05
-6.04995e-06
1.92398e-05
-5.4531e-06
2.3865e-05
-4.62516e-06
2.75266e-05
-3.66155e-06
3.02611e-05
-2.73453e-06
3.21256e-05
-1.86452e-06
3.32201e-05
-1.09446e-06
3.36001e-05
-3.80059e-07
3.32564e-05
3.43759e-07
3.21645e-05
1.09186e-06
3.02621e-05
1.90243e-06
2.74777e-05
2.7844e-06
2.37223e-05
3.75535e-06
1.89599e-05
4.76243e-06
1.33194e-05
5.64054e-06
7.42014e-06
5.89921e-06
2.51168e-06
4.90846e-06
2.51168e-06
-1.34344e-05
4.86211e-05
-1.80078e-05
1.77163e-06
-1.64746e-05
-7.13079e-06
-1.27207e-05
-1.01442e-05
-7.80122e-06
-1.17664e-05
-2.17733e-06
-1.23984e-05
3.61071e-06
-1.22329e-05
8.9987e-06
-1.14379e-05
1.36831e-05
-1.01375e-05
1.75887e-05
-8.53077e-06
2.07531e-05
-6.82602e-06
2.31747e-05
-5.15605e-06
2.49001e-05
-3.58999e-06
2.59861e-05
-2.18042e-06
2.65082e-05
-9.02203e-07
2.65438e-05
3.08167e-07
2.61141e-05
1.52157e-06
2.521e-05
2.80655e-06
2.37735e-05
4.22092e-06
2.17279e-05
5.80096e-06
1.89693e-05
7.521e-06
1.53888e-05
9.22101e-06
1.08331e-05
1.0455e-05
5.47733e-06
1.02642e-05
7.98901e-06
-8.30661e-06
6.18509e-05
-1.48295e-05
8.29453e-06
-1.55927e-05
-6.36761e-06
-1.34812e-05
-1.22558e-05
-9.79534e-06
-1.54523e-05
-5.26036e-06
-1.69334e-05
-3.65556e-07
-1.71277e-05
4.38417e-06
-1.61877e-05
8.59669e-06
-1.435e-05
1.21001e-05
-1.20342e-05
1.48482e-05
-9.57409e-06
1.68869e-05
-7.19481e-06
1.83346e-05
-5.03769e-06
1.92825e-05
-3.12823e-06
1.97855e-05
-1.4053e-06
1.98795e-05
2.14244e-07
1.95917e-05
1.80935e-06
1.8942e-05
3.45619e-06
1.79404e-05
5.22255e-06
1.65759e-05
7.16546e-06
1.479e-05
9.30688e-06
1.24529e-05
1.15581e-05
9.34277e-06
1.35651e-05
5.22021e-06
1.43868e-05
1.32092e-05
-6.05159e-06
7.4076e-05
-1.38983e-05
1.61412e-05
-1.61061e-05
-4.15973e-06
-1.49947e-05
-1.33672e-05
-1.20496e-05
-1.83974e-05
-8.23517e-06
-2.07478e-05
-4.19585e-06
-2.1167e-05
-2.94406e-07
-2.00891e-05
3.23043e-06
-1.78748e-05
6.20776e-06
-1.50115e-05
8.57001e-06
-1.19363e-05
1.03653e-05
-8.99008e-06
1.16913e-05
-6.36368e-06
1.26199e-05
-4.05685e-06
1.31901e-05
-1.9755e-06
1.34187e-05
-1.44067e-08
1.33221e-05
1.90599e-06
1.29203e-05
3.85798e-06
1.22399e-05
5.90293e-06
1.13043e-05
8.10105e-06
1.01113e-05
1.04999e-05
8.59838e-06
1.3071e-05
6.60734e-06
1.55562e-05
3.87008e-06
1.7124e-05
1.70793e-05
-3.3942e-06
8.45295e-05
-1.27157e-05
2.54627e-05
-1.63609e-05
-5.1457e-07
-1.63313e-05
-1.33968e-05
-1.42505e-05
-2.04782e-05
-1.12059e-05
-2.37924e-05
-7.92466e-06
-2.44482e-05
-4.77571e-06
-2.32381e-05
-1.9383e-06
-2.07122e-05
5.04744e-07
-1.74546e-05
2.50429e-06
-1.39359e-05
4.08688e-06
-1.05727e-05
5.30671e-06
-7.58352e-06
6.21607e-06
-4.96621e-06
6.84498e-06
-2.60441e-06
7.2044e-06
-3.73828e-07
7.30252e-06
1.80788e-06
7.15806e-06
4.00244e-06
6.79983e-06
6.26116e-06
6.26326e-06
8.63762e-06
5.57928e-06
1.11839e-05
4.74849e-06
1.39018e-05
3.68651e-06
1.66182e-05
2.08479e-06
1.87257e-05
1.91641e-05
-4.86985e-07
9.29685e-05
-1.01827e-05
3.51584e-05
-1.52737e-05
4.57642e-06
-1.66166e-05
-1.20538e-05
-1.57448e-05
-2.135e-05
-1.3796e-05
-2.57412e-05
-1.14197e-05
-2.68246e-05
-8.95525e-06
-2.57025e-05
-6.66795e-06
-2.29995e-05
-4.64371e-06
-1.94788e-05
-2.93778e-06
-1.56418e-05
-1.57203e-06
-1.19384e-05
-5.08847e-07
-8.6467e-06
3.13638e-07
-5.78869e-06
9.27987e-07
-3.21876e-06
1.34599e-06
-7.91828e-07
1.57625e-06
1.57761e-06
1.64152e-06
3.93716e-06
1.57332e-06
6.32936e-06
1.41243e-06
8.79851e-06
1.2102e-06
1.13861e-05
1.03288e-06
1.40791e-05
9.12034e-07
1.6739e-05
6.16046e-07
1.90217e-05
1.97801e-05
2.14721e-06
9.95854e-05
-6.85411e-06
4.41597e-05
-1.29807e-05
1.0703e-05
-1.58465e-05
-9.18795e-06
-1.64415e-05
-2.0755e-05
-1.57001e-05
-2.64826e-05
-1.44014e-05
-2.81232e-05
-1.27542e-05
-2.73497e-05
-1.10484e-05
-2.47053e-05
-9.40291e-06
-2.11243e-05
-7.93022e-06
-1.71145e-05
-6.72713e-06
-1.31415e-05
-5.80491e-06
-9.56892e-06
-5.10643e-06
-6.48717e-06
-4.56981e-06
-3.75539e-06
-4.16208e-06
-1.19955e-06
-3.86757e-06
1.2831e-06
-3.66073e-06
3.73033e-06
-3.50059e-06
6.16922e-06
-3.33205e-06
8.62997e-06
-3.0808e-06
1.11349e-05
-2.63208e-06
1.36304e-05
-1.79196e-06
1.58989e-05
-5.14519e-07
1.77443e-05
1.92656e-05
4.61292e-06
0.000104871
-3.70273e-06
5.24754e-05
-1.05133e-05
1.75135e-05
-1.48311e-05
-4.87011e-06
-1.70014e-05
-1.85847e-05
-1.76325e-05
-2.58515e-05
-1.74735e-05
-2.82822e-05
-1.67739e-05
-2.80494e-05
-1.57963e-05
-2.56829e-05
-1.45895e-05
-2.23311e-05
-1.33133e-05
-1.83907e-05
-1.21628e-05
-1.42921e-05
-1.12684e-05
-1.04633e-05
-1.06358e-05
-7.1197e-06
-1.01834e-05
-4.2078e-06
-9.82914e-06
-1.55382e-06
-9.52792e-06
9.81874e-07
-9.24836e-06
3.45077e-06
-8.94058e-06
5.86144e-06
-8.52132e-06
8.21072e-06
-7.84615e-06
1.04597e-05
-6.68276e-06
1.2467e-05
-4.58622e-06
1.38023e-05
-3.12917e-07
1.3471e-05
1.10398e-05
7.91284e-06
6.64509e-06
0.000109041
-7.66591e-07
5.98871e-05
-7.69934e-06
2.44463e-05
-1.29725e-05
4.03026e-07
-1.64776e-05
-1.50796e-05
-1.85536e-05
-2.37755e-05
-1.95992e-05
-2.72366e-05
-2.01221e-05
-2.75265e-05
-2.00957e-05
-2.57093e-05
-1.95643e-05
-2.28625e-05
-1.86656e-05
-1.92893e-05
-1.76198e-05
-1.53379e-05
-1.66752e-05
-1.14079e-05
-1.59837e-05
-7.81118e-06
-1.55419e-05
-4.64965e-06
-1.52474e-05
-1.84828e-06
-1.49907e-05
7.25125e-07
-1.46918e-05
3.15191e-06
-1.4276e-05
5.4456e-06
-1.36181e-05
7.55282e-06
-1.25204e-05
9.36201e-06
-1.0738e-05
1.06847e-05
-8.28204e-06
1.13463e-05
-6.33986e-06
1.15288e-05
1.30635e-05
-8.36353e-06
8.39003e-06
0.000112451
1.72105e-06
6.65561e-05
-5.18521e-06
3.13525e-05
-1.11087e-05
6.32651e-06
-1.5691e-05
-1.04973e-05
-1.90309e-05
-2.04356e-05
-2.13552e-05
-2.49123e-05
-2.30965e-05
-2.57852e-05
-2.41566e-05
-2.46492e-05
-2.45763e-05
-2.24428e-05
-2.43784e-05
-1.94872e-05
-2.36964e-05
-1.60199e-05
-2.27769e-05
-1.23274e-05
-2.18818e-05
-8.70635e-06
-2.11692e-05
-5.36223e-06
-2.06486e-05
-2.36882e-06
-2.02286e-05
3.05129e-07
-1.98013e-05
2.72457e-06
-1.92995e-05
4.94378e-06
-1.87167e-05
6.96998e-06
-1.82044e-05
8.84978e-06
-1.82657e-05
1.0746e-05
-1.99901e-05
1.30706e-05
-2.49106e-05
1.64493e-05
2.16127e-05
-3.34598e-05
9.88998e-06
0.000115307
3.83542e-06
7.26106e-05
-2.98359e-06
3.81715e-05
-9.35895e-06
1.27019e-05
-1.48003e-05
-5.05596e-06
-1.91985e-05
-1.60373e-05
-2.27027e-05
-2.14081e-05
-2.55307e-05
-2.29572e-05
-2.77344e-05
-2.24455e-05
-2.93037e-05
-2.08734e-05
-3.02025e-05
-1.85885e-05
-3.04359e-05
-1.57865e-05
-3.01176e-05
-1.26457e-05
-2.94642e-05
-9.35974e-06
-2.87221e-05
-6.10431e-06
-2.80936e-05
-2.99731e-06
-2.76984e-05
-9.0146e-08
-2.7609e-05
2.63515e-06
-2.79096e-05
5.24438e-06
-2.88096e-05
7.87008e-06
-3.06564e-05
1.06966e-05
-3.38493e-05
1.39389e-05
-3.84393e-05
1.76607e-05
-4.37033e-05
2.17133e-05
2.55615e-05
-4.76522e-05
1.12269e-05
0.000117796
5.66627e-06
7.81712e-05
-1.02235e-06
4.48601e-05
-7.68423e-06
1.93637e-05
-1.37582e-05
1.01797e-06
-1.89837e-05
-1.08118e-05
-2.33883e-05
-1.70035e-05
-2.71438e-05
-1.92017e-05
-3.03598e-05
-1.92296e-05
-3.3045e-05
-1.81882e-05
-3.51964e-05
-1.64371e-05
-3.67863e-05
-1.41966e-05
-3.7818e-05
-1.16141e-05
-3.83864e-05
-8.79131e-06
-3.86629e-05
-5.82782e-06
-3.88845e-05
-2.77567e-06
-3.92917e-05
3.17076e-07
-4.00728e-05
3.4162e-06
-4.13582e-05
6.52976e-06
-4.32299e-05
9.74183e-06
-4.56198e-05
1.30864e-05
-4.81686e-05
1.64877e-05
-5.01551e-05
1.96471e-05
-5.07077e-05
2.2266e-05
2.4225e-05
-4.93713e-05
1.25854e-05
0.00012007
7.38924e-06
8.33674e-05
8.50254e-07
5.13991e-05
-5.95729e-06
2.61713e-05
-1.2434e-05
7.49471e-06
-1.82246e-05
-5.02127e-06
-2.32419e-05
-1.19862e-05
-2.76302e-05
-1.48134e-05
-3.15503e-05
-1.53095e-05
-3.50465e-05
-1.46919e-05
-3.81254e-05
-1.33582e-05
-4.08054e-05
-1.15166e-05
-4.30693e-05
-9.35009e-06
-4.49378e-05
-6.92279e-06
-4.64946e-05
-4.27108e-06
-4.78264e-05
-1.44384e-06
-4.90165e-05
1.50714e-06
-5.01257e-05
4.52537e-06
-5.1161e-05
7.56508e-06
-5.20275e-05
1.06084e-05
-5.25123e-05
1.35712e-05
-5.22872e-05
1.62626e-05
-5.12392e-05
1.85991e-05
-4.93705e-05
2.03973e-05
2.15029e-05
-4.66483e-05
1.40827e-05
0.000122227
9.17241e-06
8.82777e-05
2.80217e-06
5.77694e-05
-4.03845e-06
3.30119e-05
-1.07266e-05
1.41828e-05
-1.68432e-05
1.09539e-06
-2.21867e-05
-6.64266e-06
-2.68561e-05
-1.01441e-05
-3.10878e-05
-1.10778e-05
-3.49976e-05
-1.07821e-05
-3.84885e-05
-9.86737e-06
-4.15449e-05
-8.46016e-06
-4.42084e-05
-6.68661e-06
-4.64891e-05
-4.64213e-06
-4.83696e-05
-2.3905e-06
-4.9848e-05
3.44787e-08
-5.09364e-05
2.59554e-06
-5.16441e-05
5.23308e-06
-5.19852e-05
7.90621e-06
-5.19049e-05
1.05281e-05
-5.12517e-05
1.2918e-05
-4.99427e-05
1.49536e-05
-4.79727e-05
1.66291e-05
-4.54613e-05
1.78859e-05
1.87224e-05
-4.26808e-05
1.58631e-05
0.000124318
1.11822e-05
9.29586e-05
4.98654e-06
6.3965e-05
-1.81196e-06
3.98104e-05
-8.58682e-06
2.09577e-05
-1.48655e-05
7.37405e-06
-2.03578e-05
-1.15036e-06
-2.50712e-05
-5.43066e-06
-2.92517e-05
-6.89729e-06
-3.3121e-05
-6.91277e-06
-3.66816e-05
-6.30686e-06
-3.98299e-05
-5.31179e-06
-4.25257e-05
-3.99083e-06
-4.47645e-05
-2.40331e-06
-4.65588e-05
-5.96232e-07
-4.79116e-05
1.3873e-06
-4.8801e-05
3.48494e-06
-4.92049e-05
5.63692e-06
-4.9075e-05
7.7764e-06
-4.83487e-05
9.80178e-06
-4.70532e-05
1.16225e-05
-4.53003e-05
1.32007e-05
-4.3187e-05
1.45158e-05
-4.08553e-05
1.55542e-05
1.63436e-05
-3.84765e-05
1.80643e-05
0.000126351
1.35791e-05
9.74438e-05
7.55617e-06
6.99879e-05
8.41078e-07
4.65255e-05
-5.95289e-06
2.77516e-05
-1.23246e-05
1.37458e-05
-1.79097e-05
4.43469e-06
-2.2607e-05
-7.33296e-07
-2.65807e-05
-2.92362e-06
-3.00879e-05
-3.40558e-06
-3.33225e-05
-3.07224e-06
-3.62461e-05
-2.38822e-06
-3.87748e-05
-1.46212e-06
-4.08564e-05
-3.21697e-07
-4.24688e-05
1.01613e-06
-4.3594e-05
2.51253e-06
-4.42172e-05
4.10818e-06
-4.43244e-05
5.74407e-06
-4.39073e-05
7.35932e-06
-4.29975e-05
8.89199e-06
-4.16737e-05
1.02987e-05
-4.00319e-05
1.15588e-05
-3.81736e-05
1.26575e-05
-3.62056e-05
1.35862e-05
1.43494e-05
-3.42114e-05
2.08119e-05
0.000128303
1.65138e-05
0.000101742
1.06618e-05
7.584e-05
4.0494e-06
5.31379e-05
-2.72712e-06
3.45282e-05
-9.17271e-06
2.01914e-05
-1.48654e-05
1.01273e-05
-1.9607e-05
4.00835e-06
-2.34782e-05
9.47567e-07
-2.6689e-05
-1.94783e-07
-2.94492e-05
-3.12051e-07
-3.18954e-05
5.80463e-08
-3.40261e-05
6.68517e-07
-3.57917e-05
1.4439e-06
-3.71532e-05
2.37768e-06
-3.80788e-05
3.4381e-06
-3.85505e-05
4.57989e-06
-3.85658e-05
5.75938e-06
-3.81429e-05
6.93639e-06
-3.73321e-05
8.08124e-06
-3.62051e-05
9.17168e-06
-3.48355e-05
1.01891e-05
-3.32944e-05
1.11164e-05
-3.16458e-05
1.19376e-05
1.26416e-05
-2.99381e-05
2.42179e-05
0.000130114
2.01278e-05
0.000105832
1.44574e-05
8.15103e-05
7.95881e-06
5.96365e-05
1.21844e-06
4.12685e-05
-5.28989e-06
2.66997e-05
-1.11295e-05
1.59669e-05
-1.60163e-05
8.89511e-06
-1.99383e-05
4.86965e-06
-2.30726e-05
2.9395e-06
-2.56105e-05
2.22586e-06
-2.77053e-05
2.15282e-06
-2.94412e-05
2.40435e-06
-3.08538e-05
2.85655e-06
-3.19312e-05
3.4551e-06
-3.26519e-05
4.15879e-06
-3.30072e-05
4.9352e-06
-3.30028e-05
5.75499e-06
-3.26564e-05
6.58995e-06
-3.2001e-05
7.42585e-06
-3.10795e-05
8.25016e-06
-2.99403e-05
9.04995e-06
-2.86344e-05
9.81051e-06
-2.72079e-05
1.05112e-05
1.11342e-05
-2.57004e-05
2.83768e-05
0.000131696
2.45493e-05
0.00010966
1.90936e-05
8.6966e-05
1.2728e-05
6.60021e-05
6.03974e-06
4.79568e-05
-5.12832e-07
3.32523e-05
-6.51372e-06
2.19678e-05
-1.16252e-05
1.40066e-05
-1.57335e-05
8.97787e-06
-1.89518e-05
6.15783e-06
-2.14749e-05
4.749e-06
-2.34666e-05
4.14451e-06
-2.50438e-05
3.9815e-06
-2.62674e-05
4.08019e-06
-2.71602e-05
4.34793e-06
-2.7733e-05
4.73151e-06
-2.79955e-05
5.19774e-06
-2.79623e-05
5.72178e-06
-2.76531e-05
6.28082e-06
-2.70902e-05
6.86293e-06
-2.62965e-05
7.45642e-06
-2.53017e-05
8.05518e-06
-2.41431e-05
8.65188e-06
-2.28585e-05
9.22657e-06
9.76088e-06
-2.14852e-05
3.3356e-05
0.000132927
2.98842e-05
0.000113131
2.47101e-05
9.21402e-05
1.85201e-05
7.2192e-05
1.1907e-05
5.457e-05
5.3327e-06
3.98266e-05
-8.13231e-07
2.81138e-05
-6.18794e-06
1.93813e-05
-1.0592e-05
1.3382e-05
-1.40449e-05
9.61074e-06
-1.67086e-05
7.41269e-06
-1.87623e-05
6.19819e-06
-2.03433e-05
5.56246e-06
-2.1534e-05
5.27089e-06
-2.23807e-05
5.19462e-06
-2.29118e-05
5.2626e-06
-2.31481e-05
5.43407e-06
-2.31097e-05
5.68343e-06
-2.28218e-05
5.99285e-06
-2.23096e-05
6.3508e-06
-2.15956e-05
6.74238e-06
-2.06982e-05
7.15781e-06
-1.96412e-05
7.59488e-06
-1.84568e-05
8.04216e-06
8.48516e-06
-1.71811e-05
3.91828e-05
0.00013366
3.62009e-05
0.000116113
3.14185e-05
9.69226e-05
2.54845e-05
7.8126e-05
1.89976e-05
6.10569e-05
1.24348e-05
4.63894e-05
6.17825e-06
3.43703e-05
5.52985e-07
2.50066e-05
-4.20245e-06
1.81374e-05
-8.01207e-06
1.34204e-05
-1.09652e-05
1.03658e-05
-1.32221e-05
8.45515e-06
-1.49335e-05
7.27386e-06
-1.6206e-05
6.54342e-06
-1.7107e-05
6.09561e-06
-1.76793e-05
5.8349e-06
-1.79534e-05
5.70818e-06
-1.7956e-05
5.68605e-06
-1.77146e-05
5.75141e-06
-1.72559e-05
5.89207e-06
-1.66084e-05
6.09488e-06
-1.57971e-05
6.34655e-06
-1.48398e-05
6.63756e-06
-1.37558e-05
6.95815e-06
7.3031e-06
-1.25737e-05
4.58304e-05
0.000133726
4.35109e-05
0.000118433
3.92799e-05
0.000101154
3.37328e-05
8.36731e-05
2.74683e-05
6.73214e-05
2.09836e-05
5.28741e-05
1.4671e-05
4.06829e-05
8.84703e-06
3.08306e-05
3.75739e-06
2.3227e-05
-4.61982e-07
1.76397e-05
-3.81383e-06
1.37176e-05
-6.40449e-06
1.10458e-05
-8.3729e-06
9.24227e-06
-9.83908e-06
8.0096e-06
-1.08889e-05
7.14541e-06
-1.15806e-05
6.5266e-06
-1.19554e-05
6.08301e-06
-1.20477e-05
5.77837e-06
-1.18903e-05
5.59398e-06
-1.15155e-05
5.51728e-06
-1.09562e-05
5.53553e-06
-1.02418e-05
5.63224e-06
-9.39397e-06
5.78968e-06
-8.42894e-06
5.99313e-06
6.2363e-06
-7.36214e-06
5.32033e-05
0.000132954
5.17467e-05
0.000119889
4.82755e-05
0.000104625
4.33054e-05
8.86432e-05
3.74188e-05
7.32081e-05
3.11309e-05
5.9162e-05
2.48558e-05
4.6958e-05
1.8918e-05
3.67683e-05
1.3567e-05
2.8578e-05
8.96729e-06
2.22395e-05
5.18119e-06
1.75037e-05
2.16947e-06
1.40575e-05
-1.66157e-07
1.15779e-05
-1.93666e-06
9.7801e-06
-3.23625e-06
8.445e-06
-4.13436e-06
7.4247e-06
-4.6827e-06
6.63135e-06
-4.92602e-06
6.02169e-06
-4.90707e-06
5.57503e-06
-4.66597e-06
5.27617e-06
-4.24143e-06
5.11099e-06
-3.66601e-06
5.05682e-06
-2.96055e-06
5.08421e-06
-2.1401e-06
5.17268e-06
5.31156e-06
-1.21537e-06
6.113e-05
0.000131189
6.07432e-05
0.000120276
5.82756e-05
0.000107092
5.41305e-05
9.27883e-05
4.88452e-05
7.84934e-05
4.294e-05
6.50672e-05
3.68527e-05
5.30453e-05
3.09293e-05
4.26917e-05
2.54329e-05
3.40744e-05
2.0548e-05
2.71243e-05
1.63758e-05
2.16759e-05
1.29332e-05
1.75001e-05
1.01715e-05
1.43396e-05
8.00891e-06
1.19427e-05
6.3613e-06
1.00926e-05
5.1595e-06
8.6265e-06
4.34732e-06
7.44354e-06
3.86899e-06
6.50002e-06
3.6663e-06
5.77772e-06
3.69118e-06
5.25129e-06
3.90434e-06
4.89783e-06
4.27665e-06
4.68451e-06
4.79013e-06
4.57073e-06
5.43219e-06
4.53062e-06
4.55094e-06
6.19282e-06
6.93683e-05
0.000128321
7.0232e-05
0.000119412
6.90177e-05
0.000108307
6.59859e-05
9.582e-05
6.15901e-05
8.28892e-05
5.63282e-05
7.03292e-05
5.06516e-05
5.87218e-05
4.49314e-05
4.84119e-05
3.94546e-05
3.95513e-05
3.44287e-05
3.21503e-05
2.99849e-05
2.61197e-05
2.61808e-05
2.13042e-05
2.30107e-05
1.75097e-05
2.04267e-05
1.45267e-05
1.83687e-05