/*--------------------------------*- C++ -*----------------------------------*\
| =========                 |                                                 |
| \\      /  F ield         | OpenFOAM: The Open Source CFD Toolbox           |
|  \\    /   O peration     | Version:  v2012                                 |
|   \\  /    A nd           | Website:  www.openfoam.com                      |
|    \\/     M anipulation  |                                                 |
\*---------------------------------------------------------------------------*/
FoamFile
{
    version     2.0;
    format      ascii;
    class       volVectorField;
    location    "572";
    object      U;
}
// * * * * * * * * * * * * * * * * * * * * * * * * * * * * * * * * * * * * * //

dimensions      [0 1 -1 0 0 0 0];


internalField   nonuniform List<vector> 
6598
(
(9.78821e-05 -0.999678 0)
(0.000249454 -1.00004 0)
(0.000166056 -1.00003 0)
(8.40305e-05 -1.00002 0)
(2.58381e-05 -1.00002 0)
(-2.54811e-05 -1.00002 0)
(-8.37222e-05 -1.00002 0)
(-0.000165846 -1.00003 0)
(-0.000249395 -1.00004 0)
(-9.7858e-05 -0.999678 0)
(0.000378115 -0.999314 0)
(0.00046143 -1.00018 0)
(0.000342951 -1.00017 0)
(0.000201248 -1.00014 0)
(6.60193e-05 -1.00013 0)
(-6.49367e-05 -1.00013 0)
(-0.000200316 -1.00014 0)
(-0.000342267 -1.00017 0)
(-0.000461357 -1.00018 0)
(-0.000378051 -0.999314 0)
(0.000463759 -0.998779 0)
(0.000512265 -1.00022 0)
(0.000412399 -1.00035 0)
(0.000261461 -1.00034 0)
(8.88832e-05 -1.00033 0)
(-8.68366e-05 -1.00033 0)
(-0.000259615 -1.00034 0)
(-0.000410923 -1.00035 0)
(-0.000510943 -1.00022 0)
(-0.000463388 -0.998779 0)
(0.000471566 -0.998174 0)
(0.000506376 -1.0002 0)
(0.000426727 -1.00051 0)
(0.000283158 -1.00056 0)
(9.83528e-05 -1.00056 0)
(-9.50932e-05 -1.00056 0)
(-0.000280243 -1.00056 0)
(-0.000424702 -1.00051 0)
(-0.000504719 -1.00021 0)
(-0.000470839 -0.998176 0)
(0.000457129 -0.997591 0)
(0.000490511 -1.00017 0)
(0.000421764 -1.00066 0)
(0.000285063 -1.00078 0)
(0.000100842 -1.0008 0)
(-9.56997e-05 -1.0008 0)
(-0.000280518 -1.00078 0)
(-0.000418154 -1.00066 0)
(-0.000488044 -1.00018 0)
(-0.00045597 -0.997595 0)
(0.000435314 -0.997048 0)
(0.000465171 -1.00014 0)
(0.000412108 -1.00078 0)
(0.000279284 -1.00098 0)
(0.000100366 -1.00104 0)
(-9.23027e-05 -1.00104 0)
(-0.000272021 -1.00098 0)
(-0.000406051 -1.00079 0)
(-0.000461466 -1.00014 0)
(-0.000433486 -0.997054 0)
(0.000412584 -0.996536 0)
(0.000439677 -1.0001 0)
(0.000395431 -1.0009 0)
(0.000269267 -1.00118 0)
(9.84336e-05 -1.00127 0)
(-8.62127e-05 -1.00127 0)
(-0.000258262 -1.00118 0)
(-0.000386649 -1.00091 0)
(-0.000433887 -1.00011 0)
(-0.000409774 -0.996546 0)
(0.000391413 -0.996051 0)
(0.000417148 -1.00007 0)
(0.000376517 -1.00102 0)
(0.000258457 -1.00136 0)
(9.67226e-05 -1.00148 0)
(-7.82737e-05 -1.00149 0)
(-0.00024181 -1.00137 0)
(-0.000363272 -1.00103 0)
(-0.000408344 -1.00008 0)
(-0.000387251 -0.996067 0)
(0.000372812 -0.995588 0)
(0.000398133 -1.00003 0)
(0.000360906 -1.00112 0)
(0.00024977 -1.00153 0)
(9.67736e-05 -1.00169 0)
(-6.89303e-05 -1.00169 0)
(-0.000224616 -1.00154 0)
(-0.0003409 -1.00114 0)
(-0.000384876 -1.00005 0)
(-0.000366589 -0.995613 0)
(0.000357242 -0.995143 0)
(0.000383218 -0.999997 0)
(0.000349542 -1.00122 0)
(0.000244539 -1.0017 0)
(9.96533e-05 -1.00188 0)
(-5.77472e-05 -1.00189 0)
(-0.000206697 -1.00171 0)
(-0.000319448 -1.00125 0)
(-0.000363221 -1.00003 0)
(-0.000347933 -0.995183 0)
(0.000344865 -0.994713 0)
(0.000372863 -0.999963 0)
(0.00034316 -1.00131 0)
(0.000243924 -1.00185 0)
(0.000106563 -1.00206 0)
(-4.36199e-05 -1.00207 0)
(-0.000187117 -1.00188 0)
(-0.00029785 -1.00135 0)
(-0.000342683 -1.00001 0)
(-0.000330966 -0.994773 0)
(0.000335815 -0.994293 0)
(0.00036775 -0.999927 0)
(0.000342877 -1.0014 0)
(0.000249412 -1.002 0)
(0.000119213 -1.00224 0)
(-2.47866e-05 -1.00225 0)
(-0.000164245 -1.00204 0)
(-0.000274564 -1.00146 0)
(-0.000322063 -1 0)
(-0.000315053 -0.994385 0)
(0.000330404 -0.993876 0)
(0.000368893 -0.999887 0)
(0.000350574 -1.00148 0)
(0.0002633 -1.00214 0)
(0.000140245 -1.00241 0)
(1.46201e-06 -1.00243 0)
(-0.000135564 -1.0022 0)
(-0.000247431 -1.00157 0)
(-0.000299727 -1 0)
(-0.000299366 -0.994017 0)
(0.000328914 -0.993459 0)
(0.00037643 -0.999838 0)
(0.00036647 -1.00155 0)
(0.000289269 -1.00227 0)
(0.000173468 -1.00257 0)
(3.91329e-05 -1.0026 0)
(-9.73938e-05 -1.00235 0)
(-0.000213461 -1.00169 0)
(-0.000273559 -1.00001 0)
(-0.000282906 -0.993671 0)
(0.000332294 -0.993032 0)
(0.000393528 -0.999777 0)
(0.000397207 -1.00161 0)
(0.000331984 -1.00238 0)
(0.000224821 -1.00272 0)
(9.42572e-05 -1.00276 0)
(-4.43137e-05 -1.00251 0)
(-0.000168409 -1.00181 0)
(-0.00024075 -1.00004 0)
(-0.000264519 -0.993353 0)
(0.000341865 -0.992587 0)
(0.000424031 -0.999696 0)
(0.000447244 -1.00164 0)
(0.000398581 -1.00249 0)
(0.000300482 -1.00286 0)
(0.000175717 -1.00293 0)
(3.37821e-05 -1.00268 0)
(-0.000106202 -1.00195 0)
(-0.00019787 -1.00009 0)
(-0.000243025 -0.993067 0)
(0.000359498 -0.99211 0)
(0.000473224 -0.999584 0)
(0.000524787 -1.00165 0)
(0.000500421 -1.00257 0)
(0.000418511 -1.003 0)
(0.000297792 -1.0031 0)
(0.00014606 -1.00287 0)
(-1.76883e-05 -1.00212 0)
(-0.00013999 -1.00017 0)
(-0.000218538 -0.992823 0)
(0.000387615 -0.991581 0)
(0.000547961 -0.999426 0)
(0.000641466 -1.00163 0)
(0.000652276 -1.00262 0)
(0.00059855 -1.00311 0)
(0.000482933 -1.00327 0)
(0.000312936 -1.00308 0)
(0.000108246 -1.00234 0)
(-7.22951e-05 -1.00032 0)
(-0.00019762 -0.992619 0)
(0.000429537 -0.990977 0)
(0.00065726 -0.999201 0)
(0.000812871 -1.00154 0)
(0.000878741 -1.00262 0)
(0.000866231 -1.0032 0)
(0.000769755 -1.00345 0)
(0.000584824 -1.00333 0)
(0.000317657 -1.00263 0)
(5.49102e-05 -1.00053 0)
(-0.000105628 -0.992455 0)
(0.000487418 -0.990262 0)
(0.000810802 -0.998876 0)
(0.00105669 -1.00136 0)
(0.00120638 -1.00256 0)
(0.00126233 -1.00324 0)
(0.00120827 -1.00361 0)
(0.000999947 -1.00364 0)
(0.000603043 -1.0031 0)
(-7.04603e-05 -1.00131 0)
(-0.00045778 -0.994954 0)
(0.000569416 -0.989418 0)
(0.00101668 -0.99842 0)
(0.00138893 -1.00105 0)
(0.00166404 -1.00237 0)
(0.00184345 -1.00319 0)
(0.00192317 -1.00371 0)
(0.0018601 -1.00398 0)
(0.00178544 -1.0037 0)
(0.00255639 -1.00141 0)
(0.00903739 -0.982001 0)
(0.000676234 -0.988384 0)
(0.00128022 -0.997791 0)
(0.00181784 -1.00058 0)
(0.00226108 -1.00201 0)
(0.00261568 -1.00294 0)
(0.00289578 -1.00358 0)
(0.00309616 -1.00389 0)
(0.00309448 -1.00357 0)
(0.00350649 -1.00016 0)
(0.0165133 -0.965944 0)
(0.000808008 -0.987113 0)
(0.00160362 -0.996935 0)
(0.00234671 -0.999871 0)
(0.00299713 -1.00141 0)
(0.00356111 -1.00245 0)
(0.00406327 -1.00317 0)
(0.00455382 -1.00349 0)
(0.00487751 -1.0028 0)
(0.00474052 -0.997995 0)
(0.02094 -0.952653 0)
(0.000964357 -0.985552 0)
(0.00198656 -0.995803 0)
(0.00297442 -0.998892 0)
(0.00387029 -1.00054 0)
(0.00468209 -1.00167 0)
(0.00543843 -1.00245 0)
(0.00624796 -1.00271 0)
(0.00721633 -1.00147 0)
(0.00700749 -0.994455 0)
(0.0250581 -0.937654 0)
(0.00114626 -0.983652 0)
(0.00243179 -0.994346 0)
(0.00370475 -0.997591 0)
(0.00488554 -0.999343 0)
(0.00598765 -1.00055 0)
(0.00704151 -1.00137 0)
(0.00816943 -1.0015 0)
(0.00978533 -0.999485 0)
(0.00990142 -0.989493 0)
(0.028262 -0.92041 0)
(0.00135521 -0.981358 0)
(0.0029433 -0.992513 0)
(0.00454301 -0.99592 0)
(0.00604783 -0.997775 0)
(0.00747889 -0.999053 0)
(0.00887038 -0.999875 0)
(0.0103343 -0.999798 0)
(0.0125447 -0.996863 0)
(0.013365 -0.983406 0)
(0.0308027 -0.903289 0)
(0.00159613 -0.978624 0)
(0.00352832 -0.990258 0)
(0.00549695 -0.993831 0)
(0.00736657 -0.995788 0)
(0.00916612 -0.997128 0)
(0.0109375 -0.99792 0)
(0.0127784 -0.99756 0)
(0.0155555 -0.993563 0)
(0.0173607 -0.976299 0)
(0.0334813 -0.887163 0)
(0.00187455 -0.975278 0)
(0.00420215 -0.987461 0)
(0.00659648 -0.991217 0)
(0.00888602 -0.993282 0)
(0.0111062 -0.99468 0)
(0.0133095 -0.995417 0)
(0.0155804 -0.994698 0)
(0.0188606 -0.989487 0)
(0.0218735 -0.968186 0)
(0.0359248 -0.871758 0)
(0.00218949 -0.97131 0)
(0.00497216 -0.984042 0)
(0.00786233 -0.98799 0)
(0.0106366 -0.990169 0)
(0.0133385 -0.991624 0)
(0.0160351 -0.992282 0)
(0.018816 -0.991132 0)
(0.0225676 -0.984588 0)
(0.0268007 -0.959327 0)
(0.0396541 -0.857565 0)
(0.00254977 -0.966619 0)
(0.00585938 -0.979936 0)
(0.00929712 -0.984103 0)
(0.0126224 -0.986411 0)
(0.015865 -0.987923 0)
(0.0191062 -0.988483 0)
(0.0224602 -0.986843 0)
(0.026707 -0.97886 0)
(0.031815 -0.949841 0)
(0.0442475 -0.844329 0)
(0.00296588 -0.961115 0)
(0.00687205 -0.975143 0)
(0.0109345 -0.97948 0)
(0.014883 -0.981926 0)
(0.0187293 -0.983503 0)
(0.0225635 -0.983962 0)
(0.0265252 -0.981805 0)
(0.0313026 -0.972346 0)
(0.0370092 -0.939884 0)
(0.0487806 -0.832847 0)
(0.00343547 -0.954694 0)
(0.00801944 -0.969412 0)
(0.0128202 -0.974022 0)
(0.0174677 -0.976625 0)
(0.0219935 -0.978287 0)
(0.0264841 -0.978662 0)
(0.0310892 -0.976015 0)
(0.0364022 -0.96517 0)
(0.0427153 -0.929807 0)
(0.0533697 -0.823255 0)
(0.00397311 -0.947229 0)
(0.00934092 -0.962693 0)
(0.0149866 -0.967613 0)
(0.0204339 -0.970401 0)
(0.025738 -0.972177 0)
(0.030975 -0.972504 0)
(0.0362955 -0.96943 0)
(0.0421532 -0.95736 0)
(0.0491425 -0.919633 0)
(0.0584858 -0.815565 0)
(0.00459206 -0.938553 0)
(0.0108657 -0.95484 0)
(0.0174777 -0.960106 0)
(0.02385 -0.963113 0)
(0.0300552 -0.96504 0)
(0.0361552 -0.965371 0)
(0.0422952 -0.961963 0)
(0.0488032 -0.948919 0)
(0.0563083 -0.909698 0)
(0.0644891 -0.80959 0)
(0.00530314 -0.928476 0)
(0.0126225 -0.945678 0)
(0.0203449 -0.95133 0)
(0.0277886 -0.954593 0)
(0.0350406 -0.956711 0)
(0.0421479 -0.957104 0)
(0.0492335 -0.953476 0)
(0.0565463 -0.939713 0)
(0.0644707 -0.900033 0)
(0.0717305 -0.805029 0)
(0.00611652 -0.916788 0)
(0.0146391 -0.935005 0)
(0.0236375 -0.94109 0)
(0.0323185 -0.944643 0)
(0.0407845 -0.946992 0)
(0.0490695 -0.947511 0)
(0.0572614 -0.943801 0)
(0.0655165 -0.929703 0)
(0.0739077 -0.890521 0)
(0.0805501 -0.801523 0)
(0.00704116 -0.903258 0)
(0.0169395 -0.922601 0)
(0.0273973 -0.929169 0)
(0.037498 -0.933043 0)
(0.0473638 -0.935657 0)
(0.0570176 -0.936367 0)
(0.0665055 -0.93273 0)
(0.0758715 -0.918721 0)
(0.0848805 -0.880926 0)
(0.0912664 -0.798643 0)
(0.00808371 -0.887636 0)
(0.0195416 -0.908225 0)
(0.0316552 -0.91533 0)
(0.0433699 -0.919551 0)
(0.0548341 -0.92246 0)
(0.0660627 -0.923422 0)
(0.0770572 -0.920019 0)
(0.087743 -0.906516 0)
(0.097606 -0.870902 0)
(0.104157 -0.795878 0)
(0.00924753 -0.869658 0)
(0.022455 -0.891622 0)
(0.036428 -0.899324 0)
(0.0499565 -0.903917 0)
(0.0632227 -0.90714 0)
(0.0762389 -0.908406 0)
(0.0889634 -0.905391 0)
(0.10121 -0.892776 0)
(0.112231 -0.860004 0)
(0.119429 -0.792629 0)
(0.0105331 -0.849059 0)
(0.0256801 -0.872533 0)
(0.0417159 -0.880899 0)
(0.0572555 -0.885885 0)
(0.0725226 -0.889433 0)
(0.0875357 -0.891043 0)
(0.102215 -0.888545 0)
(0.116281 -0.877135 0)
(0.12881 -0.84771 0)
(0.137188 -0.788214 0)
(0.0119347 -0.825573 0)
(0.0292079 -0.850703 0)
(0.047502 -0.859811 0)
(0.0652381 -0.865214 0)
(0.0826892 -0.869091 0)
(0.0998917 -0.871064 0)
(0.116739 -0.869177 0)
(0.132881 -0.859204 0)
(0.147289 -0.833447 0)
(0.157403 -0.781882 0)
(0.013459 -0.798946 0)
(0.0330214 -0.825884 0)
(0.0537516 -0.835832 0)
(0.0738491 -0.841684 0)
(0.0936401 -0.845889 0)
(0.113194 -0.84823 0)
(0.132391 -0.847004 0)
(0.150842 -0.838595 0)
(0.167483 -0.816631 0)
(0.179879 -0.772846 0)
(0.0151116 -0.768932 0)
(0.0371016 -0.797882 0)
(0.0604172 -0.808766 0)
(0.0830114 -0.815113 0)
(0.10526 -0.819651 0)
(0.127281 -0.822351 0)
(0.14896 -0.82179 0)
(0.169904 -0.814965 0)
(0.189077 -0.79672 0)
(0.204236 -0.76034 0)
(0.0168774 -0.735276 0)
(0.0414304 -0.766525 0)
(0.0674462 -0.77846 0)
(0.0926336 -0.785369 0)
(0.117408 -0.790259 0)
(0.141953 -0.793303 0)
(0.166181 -0.793374 0)
(0.189725 -0.788054 0)
(0.211636 -0.773278 0)
(0.229917 -0.743703 0)
(0.0187449 -0.697757 0)
(0.0459882 -0.731661 0)
(0.074786 -0.744808 0)
(0.102619 -0.752382 0)
(0.129932 -0.757669 0)
(0.156991 -0.761052 0)
(0.183752 -0.761701 0)
(0.209905 -0.757732 0)
(0.234631 -0.746031 0)
(0.256226 -0.722462 0)
(0.0207111 -0.656176 0)
(0.0507615 -0.69317 0)
(0.0823908 -0.707757 0)
(0.112876 -0.716148 0)
(0.142679 -0.72192 0)
(0.172169 -0.725664 0)
(0.20136 -0.726832 0)
(0.230023 -0.724019 0)
(0.257497 -0.714912 0)
(0.282392 -0.696415 0)
(0.0227816 -0.610328 0)
(0.0557517 -0.650956 0)
(0.0902309 -0.667305 0)
(0.123326 -0.676738 0)
(0.155509 -0.683138 0)
(0.187272 -0.687305 0)
(0.218705 -0.688956 0)
(0.249673 -0.6871 0)
(0.279682 -0.680084 0)
(0.307661 -0.665674 0)
(0.0249723 -0.559996 0)
(0.0609808 -0.604944 0)
(0.0982983 -0.623505 0)
(0.13391 -0.634293 0)
(0.1683 -0.641535 0)
(0.202107 -0.646241 0)
(0.235517 -0.648378 0)
(0.268491 -0.64731 0)
(0.300705 -0.641915 0)
(0.331378 -0.630655 0)
(0.0273137 -0.504923 0)
(0.066495 -0.555073 0)
(0.106604 -0.576471 0)
(0.144579 -0.589034 0)
(0.180934 -0.597404 0)
(0.216495 -0.602824 0)
(0.251555 -0.605498 0)
(0.286173 -0.605102 0)
(0.320179 -0.600936 0)
(0.353044 -0.592009 0)
(0.0298408 -0.444798 0)
(0.0723587 -0.501325 0)
(0.115161 -0.526397 0)
(0.155266 -0.541271 0)
(0.193271 -0.551122 0)
(0.230237 -0.557475 0)
(0.266579 -0.560781 0)
(0.302449 -0.560995 0)
(0.337804 -0.557763 0)
(0.372322 -0.550516 0)
(0.0326878 -0.379196 0)
(0.0786494 -0.443684 0)
(0.123918 -0.473564 0)
(0.165811 -0.491408 0)
(0.205081 -0.503139 0)
(0.243059 -0.510664 0)
(0.2803 -0.514715 0)
(0.317034 -0.515517 0)
(0.353321 -0.513012 0)
(0.38899 -0.506961 0)
(0.0359588 -0.307723 0)
(0.0853714 -0.382575 0)
(0.132618 -0.418454 0)
(0.175833 -0.439979 0)
(0.215935 -0.453985 0)
(0.254516 -0.462891 0)
(0.292289 -0.467775 0)
(0.32955 -0.469149 0)
(0.366426 -0.46722 0)
(0.402846 -0.462022 0)
(0.0390056 -0.229854 0)
(0.0921379 -0.318947 0)
(0.140705 -0.361646 0)
(0.184584 -0.387464 0)
(0.22502 -0.404148 0)
(0.26383 -0.414609 0)
(0.301845 -0.420366 0)
(0.3394 -0.422266 0)
(0.376648 -0.420785 0)
(0.413572 -0.416194 0)
(0.0381555 -0.143147 0)
(0.0949113 -0.253169 0)
(0.146068 -0.304924 0)
(0.190839 -0.335061 0)
(0.231208 -0.354257 0)
(0.269855 -0.36618 0)
(0.307901 -0.372725 0)
(0.34565 -0.375052 0)
(0.383223 -0.373889 0)
(0.420602 -0.369714 0)
(0.0287896 -0.0578486 0)
(0.085497 -0.174114 0)
(0.141514 -0.243177 0)
(0.189947 -0.282044 0)
(0.231677 -0.304725 0)
(0.27061 -0.317987 0)
(0.308826 -0.32503 0)
(0.3469 -0.327539 0)
(0.384965 -0.3265 0)
(0.422985 -0.322559 0)
(0.0161717 -0.00313739 0)
(0.0629975 -0.095491 0)
(0.12032 -0.173658 0)
(0.173963 -0.223787 0)
(0.220124 -0.252936 0)
(0.261698 -0.268905 0)
(0.301494 -0.276726 0)
(0.340766 -0.279264 0)
(0.379957 -0.278113 0)
(0.419132 -0.274215 0)
(0.00637409 0.0302992 0)
(0.0377134 -0.0288727 0)
(0.0861743 -0.101908 0)
(0.139408 -0.158287 0)
(0.189666 -0.194677 0)
(0.236101 -0.21549 0)
(0.280039 -0.225666 0)
(0.322639 -0.229014 0)
(0.364563 -0.228045 0)
(0.406063 -0.224254 0)
(-0.00610496 0.0465763 0)
(0.0162322 0.0119696 0)
(0.0483591 -0.0426125 0)
(0.0907462 -0.093379 0)
(0.138477 -0.130697 0)
(0.187862 -0.154615 0)
(0.23695 -0.167726 0)
(0.285078 -0.17316 0)
(0.332131 -0.173504 0)
(0.378171 -0.170541 0)
(-0.0198459 0.0447947 0)
(-0.0135374 0.0245367 0)
(0.0067163 -0.00599533 0)
(0.0347703 -0.0413323 0)
(0.0731526 -0.0705286 0)
(0.119806 -0.0908208 0)
(0.171532 -0.102521 0)
(0.225071 -0.108182 0)
(0.278324 -0.109647 0)
(0.330531 -0.107703 0)
(-0.0247902 0.0128541 0)
(-0.04568 0.00282047 0)
(-0.0544466 -0.0131331 0)
(-0.0351127 -0.0259597 0)
(-0.00570193 -0.0377588 0)
(0.0353594 -0.0450804 0)
(0.0852156 -0.0484684 0)
(0.140726 -0.0513715 0)
(0.203429 -0.0532776 0)
(0.263508 -0.0526678 0)
(-0.0404138 -0.146967 0)
(-0.114681 0.0219274 0)
(-0.0883485 0.0283789 0)
(-0.0639348 0.0295151 0)
(-0.035563 0.0313339 0)
(-0.00861988 0.0316006 0)
(0.0180947 0.0295313 0)
(0.0433951 0.0266274 0)
(0.0680417 0.0240673 0)
(0.0897569 0.0210516 0)
(0.106492 0.0172975 0)
(0.119612 0.0135021 0)
(0.129177 0.00989152 0)
(0.135292 0.00701706 0)
(0.138302 0.00449399 0)
(0.138366 0.00174828 0)
(0.135473 -0.00111933 0)
(0.129422 -0.00422405 0)
(0.119936 -0.0074028 0)
(0.106709 -0.010849 0)
(0.0894489 -0.0143673 0)
(0.0683898 -0.0173022 0)
(0.0437429 -0.0178234 0)
(0.0177517 -0.0137869 0)
(0.00289692 -0.00669319 0)
(-0.0246166 -0.216025 0)
(-0.0701527 0.00416471 0)
(-0.071449 0.03576 0)
(-0.0610124 0.0456946 0)
(-0.0427416 0.0511282 0)
(-0.0208348 0.0529083 0)
(0.00272703 0.0510341 0)
(0.0261277 0.0468249 0)
(0.0472015 0.0411666 0)
(0.0649917 0.034344 0)
(0.0795594 0.0270917 0)
(0.0910614 0.0201447 0)
(0.0996121 0.0136467 0)
(0.105375 0.00770859 0)
(0.108606 0.00224066 0)
(0.109676 -0.00295746 0)
(0.108868 -0.00812314 0)
(0.106179 -0.0135649 0)
(0.101468 -0.0195563 0)
(0.0944851 -0.0262029 0)
(0.0848825 -0.0332872 0)
(0.0720789 -0.0399377 0)
(0.0563247 -0.0437205 0)
(0.0339824 -0.0403092 0)
(0.0121331 -0.0278819 0)
(-0.00480538 -0.288041 0)
(-0.0537169 -0.0243 0)
(-0.0645393 0.036953 0)
(-0.0613059 0.0597704 0)
(-0.0487035 0.0721184 0)
(-0.0314477 0.0776314 0)
(-0.0118828 0.0779353 0)
(0.00840815 0.0734737 0)
(0.0271144 0.0651684 0)
(0.0432007 0.054832 0)
(0.0561633 0.0439589 0)
(0.0659223 0.0333047 0)
(0.0730165 0.0233954 0)
(0.0779321 0.0145364 0)
(0.08088 0.0065404 0)
(0.0820662 -0.000987523 0)
(0.0816374 -0.00851368 0)
(0.0796915 -0.0164042 0)
(0.0763032 -0.0249835 0)
(0.0714943 -0.0344835 0)
(0.065201 -0.0448617 0)
(0.0569459 -0.0553904 0)
(0.0465361 -0.0638217 0)
(0.0318079 -0.0650524 0)
(0.0143715 -0.0527515 0)
(0.00608598 -0.359866 0)
(-0.047944 -0.0603197 0)
(-0.0644837 0.0303627 0)
(-0.0658531 0.0689726 0)
(-0.0566539 0.0902063 0)
(-0.0421231 0.100209 0)
(-0.0257519 0.101986 0)
(-0.00920071 0.0968166 0)
(0.00630042 0.0861071 0)
(0.0198583 0.0722788 0)
(0.0309338 0.0574182 0)
(0.0394658 0.0431023 0)
(0.0458315 0.0303078 0)
(0.0504534 0.0190609 0)
(0.0535043 0.00893502 0)
(0.0551311 -0.000567015 0)
(0.0553909 -0.00987444 0)
(0.0543399 -0.0193905 0)
(0.052089 -0.0294828 0)
(0.0487612 -0.0404848 0)
(0.0444654 -0.0525994 0)
(0.03907 -0.0655148 0)
(0.0322592 -0.0775623 0)
(0.0230349 -0.0838399 0)
(0.0125957 -0.0816292 0)
(0.0152696 -0.420622 0)
(-0.0399772 -0.108236 0)
(-0.0630396 0.0149229 0)
(-0.0689029 0.0726193 0)
(-0.0642822 0.10395 0)
(-0.0528131 0.118618 0)
(-0.0395127 0.121177 0)
(-0.0261149 0.114927 0)
(-0.0136679 0.102329 0)
(-0.00269698 0.0860754 0)
(0.00650113 0.068573 0)
(0.0139029 0.0518958 0)
(0.0196843 0.0370802 0)
(0.0240476 0.0240584 0)
(0.027181 0.01228 0)
(0.0292088 0.0011577 0)
(0.0301544 -0.00976695 0)
(0.0300352 -0.0208068 0)
(0.0289679 -0.0322431 0)
(0.0271021 -0.0443849 0)
(0.0246141 -0.0575219 0)
(0.0216234 -0.0716318 0)
(0.01797 -0.0856164 0)
(0.0126508 -0.0955471 0)
(0.00829415 -0.0972186 0)
(0.0248006 -0.469815 0)
(-0.0283613 -0.160113 0)
(-0.0552593 -0.00859466 0)
(-0.0672547 0.0691974 0)
(-0.0680065 0.112114 0)
(-0.0614166 0.132194 0)
(-0.05221 0.136402 0)
(-0.0421131 0.12983 0)
(-0.0320873 0.115749 0)
(-0.0231842 0.0976642 0)
(-0.0154189 0.0781666 0)
(-0.0090432 0.0595261 0)
(-0.00404441 0.0429762 0)
(-0.000184482 0.0285472 0)
(0.00275929 0.0155231 0)
(0.00489965 0.0031952 0)
(0.00624814 -0.00888359 0)
(0.00683043 -0.021 0)
(0.00678319 -0.0333715 0)
(0.00627289 -0.0462592 0)
(0.00551064 -0.0599289 0)
(0.00481895 -0.0744026 0)
(0.00449788 -0.0888993 0)
(0.00304143 -0.100879 0)
(0.00465579 -0.104062 0)
(0.0315549 -0.508616 0)
(-0.0138863 -0.210104 0)
(-0.0430035 -0.0397303 0)
(-0.0612417 0.0578015 0)
(-0.0678425 0.112904 0)
(-0.0670819 0.139051 0)
(-0.0622967 0.146307 0)
(-0.0563913 0.140927 0)
(-0.0491052 0.126456 0)
(-0.0421885 0.107409 0)
(-0.0355965 0.086491 0)
(-0.0299452 0.0661378 0)
(-0.0255525 0.0480362 0)
(-0.022292 0.0324049 0)
(-0.0198107 0.0184229 0)
(-0.01786 0.00523989 0)
(-0.0163911 -0.00760349 0)
(-0.0153804 -0.0203626 0)
(-0.0146717 -0.033208 0)
(-0.0140584 -0.0463407 0)
(-0.0132816 -0.0599353 0)
(-0.0117768 -0.0738508 0)
(-0.00863448 -0.0872715 0)
(-0.00493486 -0.0987164 0)
(-0.000211297 -0.102942 0)
(0.0368698 -0.53978 0)
(0.000305245 -0.255669 0)
(-0.0301161 -0.0741617 0)
(-0.0520088 0.038338 0)
(-0.0646582 0.105323 0)
(-0.0698245 0.139562 0)
(-0.0703456 0.149572 0)
(-0.0687275 0.146902 0)
(-0.0651255 0.133695 0)
(-0.0607428 0.115085 0)
(-0.0555921 0.0937848 0)
(-0.050498 0.0722619 0)
(-0.0463012 0.0526797 0)
(-0.0433251 0.0358079 0)
(-0.0412916 0.0210132 0)
(-0.0397399 0.00729578 0)
(-0.0384264 -0.00595338 0)
(-0.0372939 -0.0189678 0)
(-0.03618 -0.0318427 0)
(-0.0348268 -0.0447032 0)
(-0.0328885 -0.057622 0)
(-0.0294448 -0.0702854 0)
(-0.0222361 -0.0813926 0)
(-0.00924864 -0.0886183 0)
(0.00743857 -0.0911926 0)
(0.041525 -0.564256 0)
(0.0118992 -0.296917 0)
(-0.0181529 -0.110588 0)
(-0.0423766 0.0125816 0)
(-0.0596651 0.0900564 0)
(-0.0706365 0.132397 0)
(-0.0766699 0.147947 0)
(-0.0795231 0.148289 0)
(-0.0806879 0.136559 0)
(-0.0794218 0.119947 0)
(-0.0764338 0.0997913 0)
(-0.0722387 0.0781787 0)
(-0.0679836 0.0574217 0)
(-0.0646362 0.0390095 0)
(-0.0624779 0.0230423 0)
(-0.0611512 0.00873007 0)
(-0.0601281 -0.00474315 0)
(-0.0590576 -0.0177862 0)
(-0.0577253 -0.0304448 0)
(-0.0556952 -0.0425701 0)
(-0.0524524 -0.0536192 0)
(-0.0472678 -0.0621037 0)
(-0.0387132 -0.0647631 0)
(-0.0261323 -0.0571427 0)
(-0.0170015 -0.0436274 0)
(0.045865 -0.58381 0)
(0.0212426 -0.333755 0)
(-0.00760659 -0.147082 0)
(-0.0332607 -0.0172569 0)
(-0.05413 0.0683213 0)
(-0.0699337 0.1176 0)
(-0.0812404 0.138653 0)
(-0.0889181 0.141389 0)
(-0.0947361 0.133886 0)
(-0.0976508 0.120548 0)
(-0.0980492 0.103185 0)
(-0.0960669 0.0833153 0)
(-0.0925346 0.0628027 0)
(-0.0886518 0.0433878 0)
(-0.0853629 0.026011 0)
(-0.0829657 0.0106986 0)
(-0.0812028 -0.00301199 0)
(-0.0796089 -0.0155315 0)
(-0.0778086 -0.0269201 0)
(-0.075607 -0.0367235 0)
(-0.0732447 -0.044351 0)
(-0.0718056 -0.0496368 0)
(-0.0737752 -0.054383 0)
(-0.0845103 -0.0636523 0)
(-0.112094 -0.089127 0)
(0.0498975 -0.600003 0)
(0.0289388 -0.367029 0)
(0.00155029 -0.183218 0)
(-0.0250094 -0.0497647 0)
(-0.0486635 0.0417199 0)
(-0.0683964 0.0970604 0)
(-0.0841114 0.123088 0)
(-0.096601 0.129491 0)
(-0.106565 0.125217 0)
(-0.114119 0.115374 0)
(-0.119096 0.101687 0)
(-0.121302 0.0851935 0)
(-0.12092 0.0670661 0)
(-0.118704 0.0486688 0)
(-0.115671 0.0311824 0)
(-0.112733 0.0152709 0)
(-0.110557 0.00102511 0)
(-0.109624 -0.011862 0)
(-0.109905 -0.0237225 0)
(-0.112007 -0.0351413 0)
(-0.117059 -0.0472852 0)
(-0.126683 -0.0620715 0)
(-0.142302 -0.0815747 0)
(-0.163426 -0.106629 0)
(-0.18402 -0.134302 0)
(0.0537845 -0.613817 0)
(0.0355453 -0.397372 0)
(0.009565 -0.218744 0)
(-0.0174729 -0.0841955 0)
(-0.0430634 0.0111735 0)
(-0.0657686 0.071419 0)
(-0.0850104 0.101908 0)
(-0.10113 0.111803 0)
(-0.114873 0.110608 0)
(-0.126604 0.103831 0)
(-0.136279 0.0933842 0)
(-0.143761 0.0803241 0)
(-0.148929 0.0654097 0)
(-0.151957 0.0493644 0)
(-0.153405 0.0328734 0)
(-0.15409 0.0164258 0)
(-0.155084 0.000335008 0)
(-0.157318 -0.0154027 0)
(-0.161314 -0.0311682 0)
(-0.167498 -0.0477124 0)
(-0.176071 -0.0657114 0)
(-0.186613 -0.085249 0)
(-0.196439 -0.104802 0)
(-0.202627 -0.122526 0)
(-0.200428 -0.13618 0)
(0.0582932 -0.626143 0)
(0.0417921 -0.425512 0)
(0.0170469 -0.253522 0)
(-0.0100966 -0.119725 0)
(-0.0368302 -0.0220504 0)
(-0.0615261 0.0421578 0)
(-0.0831949 0.0768016 0)
(-0.101788 0.0900033 0)
(-0.11808 0.0914217 0)
(-0.132816 0.0871493 0)
(-0.145933 0.0790207 0)
(-0.157356 0.06826 0)
(-0.167261 0.0557256 0)
(-0.175387 0.0417775 0)
(-0.181993 0.0267067 0)
(-0.187716 0.0107166 0)
(-0.192652 -0.00583683 0)
(-0.197152 -0.0225181 0)
(-0.201432 -0.0392716 0)
(-0.205307 -0.0562608 0)
(-0.208205 -0.0732784 0)
(-0.209523 -0.0894199 0)
(-0.20624 -0.10353 0)
(-0.200706 -0.11412 0)
(-0.19182 -0.120664 0)
(0.0636246 -0.637697 0)
(0.0483495 -0.451994 0)
(0.0246845 -0.287478 0)
(-0.00223536 -0.155726 0)
(-0.0294985 -0.0568328 0)
(-0.055342 0.0106365 0)
(-0.0783747 0.0492979 0)
(-0.0982227 0.0658521 0)
(-0.115499 0.0695905 0)
(-0.131651 0.067269 0)
(-0.146652 0.0613482 0)
(-0.15959 0.052768 0)
(-0.170883 0.04239 0)
(-0.180724 0.030566 0)
(-0.188985 0.0175482 0)
(-0.195643 0.00360481 0)
(-0.200752 -0.0110811 0)
(-0.204402 -0.0262342 0)
(-0.206255 -0.0416146 0)
(-0.20688 -0.0568885 0)
(-0.205748 -0.0710408 0)
(-0.201838 -0.0830759 0)
(-0.195244 -0.0930137 0)
(-0.186091 -0.100405 0)
(-0.175396 -0.105111 0)
(0.070242 -0.648833 0)
(0.0558702 -0.477164 0)
(0.0331548 -0.320534 0)
(0.00665952 -0.191676 0)
(-0.020753 -0.0923596 0)
(-0.0471224 -0.0220899 0)
(-0.0708299 0.0206645 0)
(-0.0911568 0.0409792 0)
(-0.108458 0.047116 0)
(-0.12412 0.0462827 0)
(-0.139139 0.0424422 0)
(-0.15266 0.0361517 0)
(-0.164228 0.0279377 0)
(-0.173998 0.0183235 0)
(-0.181977 0.00763852 0)
(-0.188237 -0.00399478 0)
(-0.19274 -0.0163471 0)
(-0.195333 -0.0290635 0)
(-0.195885 -0.0417674 0)
(-0.194256 -0.0538229 0)
(-0.190178 -0.0646259 0)
(-0.183954 -0.0739254 0)
(-0.176219 -0.0816032 0)
(-0.16719 -0.0875169 0)
(-0.157666 -0.0917483 0)
(0.0786169 -0.659688 0)
(0.0649727 -0.501249 0)
(0.0431133 -0.352675 0)
(0.0171376 -0.227267 0)
(-0.0101899 -0.128121 0)
(-0.0367961 -0.0554011 0)
(-0.0609209 -0.00847053 0)
(-0.0814691 0.0162401 0)
(-0.0985498 0.0256107 0)
(-0.112942 0.0267279 0)
(-0.126199 0.0241741 0)
(-0.138736 0.0198523 0)
(-0.149613 0.0140813 0)
(-0.158782 0.00697226 0)
(-0.166136 -0.00130454 0)
(-0.171572 -0.0104683 0)
(-0.175062 -0.0201573 0)
(-0.176519 -0.030063 0)
(-0.175894 -0.0398506 0)
(-0.173219 -0.0491068 0)
(-0.168683 -0.0574789 0)
(-0.162669 -0.0648117 0)
(-0.155616 -0.0710548 0)
(-0.14791 -0.0761992 0)
(-0.139976 -0.0803299 0)
(0.0891757 -0.670223 0)
(0.0762265 -0.524363 0)
(0.0551867 -0.383921 0)
(0.0297612 -0.262346 0)
(0.00266238 -0.16386 0)
(-0.0240599 -0.0891394 0)
(-0.0485916 -0.0380741 0)
(-0.069499 -0.00843619 0)
(-0.0865175 0.00518784 0)
(-0.100361 0.0092231 0)
(-0.111902 0.00845403 0)
(-0.122212 0.00564284 0)
(-0.131417 0.00159576 0)
(-0.139193 -0.00335793 0)
(-0.145439 -0.00921099 0)
(-0.150005 -0.0158219 0)
(-0.15279 -0.0229155 0)
(-0.153745 -0.0302046 0)
(-0.152894 -0.0374276 0)
(-0.15038 -0.0443651 0)
(-0.146456 -0.0508631 0)
(-0.141419 -0.0568208 0)
(-0.135563 -0.0621478 0)
(-0.129169 -0.0667778 0)
(-0.122463 -0.0706852 0)
(0.102291 -0.680219 0)
(0.0901509 -0.546481 0)
(0.0699769 -0.414262 0)
(0.0451421 -0.296858 0)
(0.0183489 -0.199445 0)
(-0.00841939 -0.123241 0)
(-0.0333795 -0.0683664 0)
(-0.0549466 -0.0336221 0)
(-0.0724171 -0.0150818 0)
(-0.0862351 -0.00717568 0)
(-0.0973042 -0.00516799 0)
(-0.106363 -0.00612608 0)
(-0.113926 -0.00840908 0)
(-0.120184 -0.0115904 0)
(-0.125165 -0.0155613 0)
(-0.128754 -0.0201154 0)
(-0.130893 -0.0250538 0)
(-0.131573 -0.0302039 0)
(-0.130835 -0.0354108 0)
(-0.128813 -0.0405611 0)
(-0.125631 -0.045559 0)
(-0.121486 -0.0503277 0)
(-0.116578 -0.0547793 0)
(-0.111106 -0.0588076 0)
(-0.10524 -0.0623266 0)
(0.118264 -0.689287 0)
(0.107196 -0.56741 0)
(0.0880511 -0.443599 0)
(0.0639169 -0.330743 0)
(0.0374822 -0.234799 0)
(0.0107551 -0.157638 0)
(-0.014601 -0.0995257 0)
(-0.0369921 -0.0598346 0)
(-0.0553726 -0.0360289 0)
(-0.0697782 -0.0236553 0)
(-0.0809785 -0.0182051 0)
(-0.0897972 -0.0165181 0)
(-0.0968137 -0.0168441 0)
(-0.102337 -0.0183632 0)
(-0.10653 -0.0206586 0)
(-0.109438 -0.0234986 0)
(-0.111087 -0.0267253 0)
(-0.111523 -0.0301962 0)
(-0.110821 -0.0337645 0)
(-0.109063 -0.03741 0)
(-0.106324 -0.0411209 0)
(-0.102748 -0.044814 0)
(-0.0984331 -0.0483945 0)
(-0.0935405 -0.0517588 0)
(-0.0882228 -0.0548146 0)
(0.137287 -0.696874 0)
(0.127708 -0.586769 0)
(0.109906 -0.471684 0)
(0.0866942 -0.363856 0)
(0.0607447 -0.269843 0)
(0.0341286 -0.19221 0)
(0.00847797 -0.131528 0)
(-0.0147411 -0.0874127 0)
(-0.0343257 -0.0583007 0)
(-0.049869 -0.0410185 0)
(-0.0618406 -0.0316622 0)
(-0.0710431 -0.0270019 0)
(-0.0781575 -0.0249936 0)
(-0.083606 -0.0245432 0)
(-0.0876219 -0.0250755 0)
(-0.090338 -0.0262731 0)
(-0.0918425 -0.027951 0)
(-0.0922156 -0.0299847 0)
(-0.0915509 -0.0322747 0)
(-0.0899217 -0.0347303 0)
(-0.087463 -0.037248 0)
(-0.0842404 -0.0398565 0)
(-0.080324 -0.0425818 0)
(-0.0758421 -0.0452929 0)
(-0.0709205 -0.0478768 0)
(0.159398 -0.702264 0)
(0.151873 -0.603963 0)
(0.135902 -0.498065 0)
(0.113998 -0.395895 0)
(0.0887956 -0.304405 0)
(0.0624455 -0.226837 0)
(0.0366153 -0.164218 0)
(0.0126994 -0.116404 0)
(-0.00813533 -0.0823716 0)
(-0.0251857 -0.0599867 0)
(-0.0385046 -0.0462414 0)
(-0.0486944 -0.038147 0)
(-0.0564488 -0.0334809 0)
(-0.0622951 -0.0308732 0)
(-0.0665645 -0.0295482 0)
(-0.0694587 -0.029075 0)
(-0.0711131 -0.0292117 0)
(-0.0716361 -0.0298193 0)
(-0.071134 -0.0308126 0)
(-0.0697156 -0.0321336 0)
(-0.0675009 -0.0337099 0)
(-0.0645664 -0.0354402 0)
(-0.0610317 -0.0373003 0)
(-0.0569481 -0.039304 0)
(-0.052421 -0.0414009 0)
(0.184434 -0.704612 0)
(0.179647 -0.618179 0)
(0.166181 -0.522039 0)
(0.146173 -0.426324 0)
(0.122173 -0.338123 0)
(0.0964059 -0.261287 0)
(0.0706219 -0.197383 0)
(0.0462107 -0.146624 0)
(0.0243054 -0.108341 0)
(0.00570521 -0.0810831 0)
(-0.00930613 -0.0627077 0)
(-0.0209952 -0.0507241 0)
(-0.029925 -0.0429779 0)
(-0.0366483 -0.0379124 0)
(-0.0415797 -0.034538 0)
(-0.0449944 -0.0322795 0)
(-0.0470781 -0.0308183 0)
(-0.0479734 -0.0299848 0)
(-0.0478108 -0.0296867 0)
(-0.0467205 -0.0298627 0)
(-0.0448367 -0.0304516 0)
(-0.0422854 -0.0313824 0)
(-0.0391571 -0.032568 0)
(-0.0355301 -0.0339226 0)
(-0.0314785 -0.0354562 0)
(0.211988 -0.703 0)
(0.210688 -0.628416 0)
(0.200558 -0.542633 0)
(0.183259 -0.454307 0)
(0.161158 -0.370357 0)
(0.136515 -0.295099 0)
(0.111187 -0.230664 0)
(0.0866245 -0.177709 0)
(0.0639681 -0.135945 0)
(0.0440576 -0.104385 0)
(0.0273585 -0.0814881 0)
(0.0139031 -0.0653738 0)
(0.00337517 -0.0541631 0)
(-0.00468267 -0.0462756 0)
(-0.0107041 -0.040569 0)
(-0.015014 -0.0363237 0)
(-0.0178418 -0.0331219 0)
(-0.0193721 -0.0307541 0)
(-0.0197762 -0.0291184 0)
(-0.0192216 -0.0281452 0)
(-0.0178678 -0.0277665 0)
(-0.0158557 -0.0278868 0)
(-0.0132885 -0.0283944 0)
(-0.010252 -0.0291879 0)
(-0.00676738 -0.030198 0)
(0.241396 -0.696537 0)
(0.244302 -0.633565 0)
(0.238423 -0.55863 0)
(0.22484 -0.478685 0)
(0.205595 -0.400121 0)
(0.182897 -0.327496 0)
(0.158684 -0.263449 0)
(0.134512 -0.209131 0)
(0.111586 -0.164674 0)
(0.0907974 -0.129505 0)
(0.0727212 -0.102549 0)
(0.0575877 -0.0824011 0)
(0.0453113 -0.0675372 0)
(0.0356006 -0.0565263 0)
(0.0281013 -0.0481959 0)
(0.0225002 -0.0417091 0)
(0.0185562 -0.0365637 0)