/*--------------------------------*- C++ -*----------------------------------*\
| =========                 |                                                 |
| \\      /  F ield         | OpenFOAM: The Open Source CFD Toolbox           |
|  \\    /   O peration     | Version:  v2012                                 |
|   \\  /    A nd           | Website:  www.openfoam.com                      |
|    \\/     M anipulation  |                                                 |
\*---------------------------------------------------------------------------*/
FoamFile
{
    version     2.0;
    format      ascii;
    class       volScalarField;
    location    "560";
    object      age;
}
// * * * * * * * * * * * * * * * * * * * * * * * * * * * * * * * * * * * * * //

dimensions      [0 0 1 0 0 0 0];


internalField   nonuniform List<scalar> 
6018
(
0.643667
0.594133
0.549055
0.50731
0.468082
0.430807
0.39508
0.360639
0.327302
0.294942
0.26347
0.232819
0.202941
0.173798
0.145357
0.117589
0.0904624
0.0639445
0.0380014
0.0125933
0.512849
0.48013
0.44955
0.419432
0.39166
0.364551
0.338127
0.312145
0.286499
0.2611
0.235888
0.210821
0.185867
0.161003
0.13621
0.111467
0.0867533
0.0620429
0.0372979
0.0124701
0.46779
0.443565
0.419684
0.396032
0.372627
0.349212
0.325789
0.302315
0.278774
0.255151
0.231437
0.207621
0.183693
0.159644
0.135467
0.111158
0.0867087
0.0621144
0.0373726
0.0124885
0.461861
0.439362
0.416757
0.394036
0.37119
0.348227
0.325144
0.30194
0.27861
0.25515
0.231555
0.20782
0.183941
0.159912
0.135729
0.111386
0.0868841
0.0622252
0.0374203
0.0124944
0.461551
0.439081
0.416518
0.393851
0.371073
0.348178
0.325159
0.302009
0.278723
0.255296
0.231722
0.207997
0.184116
0.160075
0.135869
0.111497
0.0869603
0.062268
0.0374358
0.0124958
0.460862
0.438498
0.416048
0.393485
0.370795
0.34797
0.325006
0.301898
0.278644
0.25524
0.231683
0.207971
0.184099
0.160064
0.135863
0.111493
0.0869586
0.0622673
0.0374356
0.0124958
0.460274
0.438059
0.415709
0.393208
0.370549
0.347736
0.32477
0.301657
0.278402
0.255
0.23145
0.207749
0.183894
0.159883
0.135711
0.111377
0.0868792
0.0622232
0.0374197
0.0124944
0.460901
0.438833
0.416496
0.393911
0.371111
0.348129
0.325014
0.301773
0.2784
0.254899
0.23127
0.207513
0.183623
0.1596
0.135441
0.111143
0.0867018
0.0621117
0.0373719
0.0124884
0.478682
0.455942
0.432114
0.407899
0.383993
0.359632
0.334983
0.310159
0.285255
0.260329
0.235415
0.210534
0.185697
0.160907
0.136158
0.111442
0.0867424
0.0620393
0.0372973
0.0124701
0.582562
0.555544
0.523669
0.490844
0.4573
0.423799
0.390564
0.357755
0.325478
0.293802
0.262767
0.232395
0.202693
0.173659
0.145283
0.117553
0.090447
0.063939
0.038
0.0125931
43.254
42.8581
43.1837
43.675
44.3919
45.5245
47.2883
49.6188
53.9607
53.7159
52.2311
50.7848
49.8012
49.4764
49.7609
50.2164
50.6996
51.2095
51.6483
52.1517
52.4724
53.2068
53.9852
54.9857
55.9092
6.4693
1.82845
1.55308
1.24184
1.06956
0.940228
0.842931
0.764818
0.699683
38.9933
39.1517
39.3859
39.8286
40.5038
41.4142
42.5854
43.9614
45.0822
45.206
44.5759
44.1123
43.9699
44.0749
44.3167
44.7066
45.1735
45.6077
46.0548
48.3645
51.339
43.4293
25.7106
14.3803
6.80466
1.40047
1.12291
0.970296
0.8487
0.7641
0.69506
0.638682
0.590838
0.549415
40.2177
41.4918
41.8381
41.5247
41.1545
41.1448
41.2385
41.5988
42.0171
42.328
42.5443
42.7559
43.0814
43.4315
43.7516
44.0644
45.0511
45.5447
42.615
33.0283
20.6436
9.50602
3.24732
1.12922
0.993752
0.841498
0.773872
0.706253
0.657847
0.616826
0.580184
0.547798
0.519428
0.492881
48.5589
51.8525
52.8072
51.3087
48.2643
45.1556
43.113
42.2461
42.2145
42.4411
42.867
43.4542
44.1252
44.5757
45.1834
44.5166
41.0856
31.5357
18.9085
8.2975
2.82415
0.990071
0.895917
0.795376
0.747373
0.701099
0.6644
0.6322
0.604032
0.577706
0.552892
0.529635
0.507025
0.484388
62.8785
67.8234
68.8556
66.3251
61.2134
55.1087
49.737
46.1474
44.4716
44.11
44.4658
44.9425
46.0779
45.2559
41.9579
33.389
21.1964
9.72382
3.31094
0.999914
0.915088
0.809659
0.767155
0.725787
0.694764
0.665995
0.640749
0.618093
0.595626
0.573422
0.551276
0.529036
0.506612
0.484063
81.5802
87.7897
88.3606
84.0049
76.3294
67.284
58.8558
52.5514
48.8797
47.1913
46.474
46.1817
43.9381
36.8916
25.597
13.4157
5.03417
1.41237
0.949891
0.846825
0.803773
0.762531
0.733849
0.708723
0.684882
0.662456
0.640532
0.618579
0.596229
0.573745
0.551137
0.528495
0.505883
0.483309
102.624
109.298
108.664
101.755
90.8739
78.6138
67.237
58.403
52.3321
49.1818
47.3121
41.3601
31.5096
19.2515
8.63573
2.74616
1.02314
0.927367
0.840906
0.806876
0.777564
0.753708
0.730719
0.708853
0.686587
0.664313
0.641591
0.61863
0.595628
0.572722
0.549963
0.527371
0.504914
0.482532
122.682
128.758
126.209
116.37
102.048
86.5313
72.3687
60.9627
53.4325
47.8664
39.1371
27.0754
14.9963
5.72846
1.6893
0.987622
0.892523
0.851183
0.821058
0.800662
0.777571
0.756559
0.73414
0.711445
0.688081
0.664451
0.640738
0.617235
0.594066
0.571272
0.54885
0.526739
0.504779
0.482842
139.164
143.651
138.351
125.338
107.643
89.0582
72.53
59.7074
49.6132
37.8825
24.1124
11.8772
4.05281
1.13473
0.996116
0.896488
0.868206
0.847328
0.828992
0.80753
0.783527
0.758792
0.733443
0.708177
0.683318
0.659281
0.636278
0.614467
0.593972
0.574982
0.557658
0.53948
0.520526
0.500422
150.246
153.655
144.748
127.308
106.471
85.7348
67.9371
52.9664
38.0939
22.7293
10.1758
3.18983
1.06442
0.972803
0.914909
0.889645
0.870501
0.846507
0.819183
0.789346
0.762606
0.745154
0.726648
0.709011
0.692516
0.677113
0.663636
0.653629
0.646762
0.642151
0.638377
0.63394
0.62675
0.614031
63.8237
57.0781
54.6667
51.4935
47.7922
44.7106
63.6891
58.0464
55.5926
47.737
41.7597
39.1225
64.8592
62.9166
50.4103
41.1827
37.7532
38.5997
67.4979
54.8673
41.0123
37.1785
39.4871
43.8879
65.8056
42.5423
36.4281
39.6037
46.6861
55.1312
35.4112
35.4691
37.9878
46.2679
58.286
70.9088
34.2628
35.5745
42.2852
56.0994
73.2155
89.7248
34.0576
36.9147
48.8144
68.1398
89.5767
108.784
33.9125
39.4219
56.8595
80.6991
105.105
125.644
33.8067
42.834
64.9475
91.9225
117.944
138.501
154.95
153.634
142.722
121.66
98.6573
76.788
57.3356
39.1827
22.2929
9.32082
2.75356
1.05306
0.975747
0.934273
0.909635
0.892282
0.868287
0.847131
0.834941
0.831183
0.858558
0.939372
1.11801
1.47121
2.13512
3.36944
5.63852
9.69298
16.0564
24.0493
33.7665
44.9487
56.2629
64.5049
155.293
148.949
132.837
109.337
85.1117
62.1203
41.0136
22.5327
8.99898
2.50317
1.05558
0.987987
0.95803
0.934326
0.916263
0.899836
0.889531
0.899348
0.957727
1.12372
1.48257
2.20786
3.74936
7.02569
13.0683
21.8058
33.1504
46.078
58.421
67.2532
75.3386
81.0173
86.5902
95.7214
147.849
137.058
117.036
92.1104
67.0617
43.6329
23.6202
9.2861
2.49481
1.06102
1.00545
0.982235
0.961993
0.943583
0.932591
0.937535
0.989792
1.15623
1.53898
2.40587
4.51037
9.27335
17.2615
28.6524
42.1692
55.3253
65.9531
72.1948
75.1051
75.1854
75.3136
76.3012
82.0746
96.1716
134.472
119.801
97.1584
71.4815
46.6731
25.319
10.0491
2.69332
1.09538
1.0242
1.00732
0.9896
0.971603
0.964327
0.987432
1.09655
1.38572
2.10588
4.08975
8.80481
17.1696
29.2974
43.3986
57.5343
68.1258
73.3503
75.1318
74.8928
74.6808
74.711
75.09
77.9342
86.0186
98.3547
116.967
99.0256
74.9172
49.7436
27.4853
11.2429
3.08992
1.16732
1.04975
1.03215
1.01615
0.997655
0.992265
1.03409
1.19542
1.6179
2.9363
6.60928
13.8341
25.0996
39.2543
54.3152
66.7828
73.398
75.6836
74.9532
74.4317
74.3156
74.4043
74.7735
76.478
81.2532
89.4954
100.414
96.7348
76.5263
52.5109
29.9621
12.8643
3.69577
1.27082
1.08278
1.05748
1.04253
1.02361
1.0193
1.07032
1.25218
1.84611
4.04643
9.23382
18.4545
31.2696
46.4304
60.9864
71.5212
75.5581
75.6712
74.8241
74.2509
74.0727
74.2244
74.677
76.6737
81.0388
87.5477
95.1777
102.994
75.3529
54.3983
32.5648
14.9243
4.55537
1.41399
1.12443
1.08378
1.06809
1.0488
1.04232
1.09359
1.28756
2.13433
5.09131
11.5523
21.8644
35.649
50.9102
64.7823
73.759
76.8824
75.7847
74.5115
73.8631
73.7901
74.0605
75.3432
78.9108
84.8146
91.6862
98.0584
102.666
105.849
54.6987
34.9427
17.281
5.72384
1.61164
1.17729
1.11226
1.09256
1.07441
1.06642
1.10908
1.28564
2.37387
5.88655
13.139
24.1941
38.3049
53.4117
66.4099
74.0469
75.8925
74.8043
73.8362
73.3985
73.6132
74.7002
78.1901
84.7233
93.5656
102.384
109.121
112.499
111.633
108.932
36.4877
19.6348
7.22391
1.95828
1.24322
1.14575
1.11931
1.10322
1.09189
1.10942
1.19912
2.47869
6.34865
14.0111
25.5212
39.8287
54.749
67.0637
73.3991
74.3781
73.6501
73.098
73.0342
73.8555
77.0514
83.8622
94.7075
107.83
120.508
129.648
133.098
130.262
121.379
111.821
21.7923
9.11964
2.63506
1.33772
1.18691
1.14775
1.13096
1.11582
1.1172
1.17626
2.37392
6.48477
14.2587
26.0536
40.6587
55.6731
67.643
72.9996
73.4882
72.9485
72.5619
72.8277
74.6471
80.2401
91.0514
106.904
126.1
145.291
159.97
166.2
162.477
149.698
130.75
114.659
11.3972
3.6999
1.50761
1.24102
1.17933
1.15804
1.14002
1.13138
1.17795
2.14079
6.09877
14.0068
25.9412
41.0333
56.5373
68.5622
73.4193
73.5173
72.7097
72.1607
72.3446
74.2916
81.4181
95.5568
116.603
142.798
170.232
193.672
207.367
207.356
192.659
167.339
137.974
116.532
5.22459
1.79043
1.31958
1.21802
1.1859
1.16528
1.15045
1.18566
1.82851
5.33431
13.1612
25.2839
40.916
57.2217
69.6419
74.4673
73.972
73.0321
72.0997
71.8895
72.5687
78.2132
92.4214
115.671
146.778
181.366
213.343
237.704
248.926
241.177
215.469
179.03
141.643
117.066
2.4351
1.43062
1.26753
1.21626
1.19109
1.17335
1.19862
1.48642
4.32935
11.7527
23.9222
40.0594
57.2463
70.4316
75.8651
75.5509
74.8181
73.2627
71.9689
71.7814
72.8208
81.3075
99.3538
128.209
165.306
203.504
236.082
260.5
271.424
258.763
225.464
181.934
140.882
117.393
1.6411
1.33882
1.25375
1.222
1.19909
1.19575
1.26059
3.21469
9.86453
21.7444
38.2158
56.367
70.8666
77.6126
78.4813
78.1459
76.832
74.7182
72.6553
71.6293
72.3207
78.8528
95.6649
124.249
162.065
201.131
234.149
259
270.061
255.749
220.69
176.339
137.033
117.724
1.45175
1.30481
1.25427
1.22633
1.21281
1.26894
2.18623
7.54594
18.7549
35.1791
54.2474
70.5281
79.3758
82.033
82.993
82.8928
81.1887
78.4112
75.2031
72.6002
71.5342
73.9245
84.4902
107.107
141.318
180.075
213.526
236.93
247.2
235.923
204.607
165.07
131.897
118.1
1.38134
1.29469
1.25722
1.23448
1.25642
1.4634
5.02811
15.0146
30.9023
50.59
68.9242
80.5788
85.7012
88.646
90.6835
90.8322
89.0912
85.6363
81.0581
76.3461
72.8483
71.4631
74.6412
87.0058
112.559
147.953
182.266
205.264
214.702
207.886
183.434
152.111
127.129
118.578
1.35285
1.29475
1.26465
1.25762
1.33283
2.91756
10.7608
25.4755
45.2262
65.5118
80.4586
88.6462
94.0156
98.7757
101.867
102.694
101.099
97.1469
91.3483
84.5698
78.0372
73.3013
71.4039
74.3075
86.837
113.334
146.936
173.35
183.437
179.968
163.055
140.568
123.845
119.226
1.34389
1.29792
1.27593
1.30953
1.62755
6.40374
19.199
38.1937
59.8762
78.2446
90.0237
98.0735
105.668
112.237
116.604
118.298
117.013
112.834
106.158
97.7136
88.5455
80.0263
73.8271
71.3291
73.5093
85.5503
111.76
142.046
158.802
157.538
147.362
132.419
122.438
120.302
1.34362
1.30682
1.30335
1.38494
3.13861
12.4854
29.8118
51.8432
73.254
89.0372
100.063
110.287
120.297
128.6
134.324
136.911
136.097
131.956
124.793
115.193
104.021
92.4402
81.9245
74.2198
71.1111
72.6622
84.2733
110.04
136.743
143.841
137.352
128.042
122.796
122.636
1.34821
1.31935
1.33808
1.48877
6.35998
20.6325
41.7349
65.1292
84.9947
99.4595
112.071
125.068
137.221
147.172
154.146
157.605
157.361
153.462
146.15
135.888
123.366
109.536
95.6524
83.3013
74.3344
70.7091
72.0162
83.9069
110.167
134.234
132.467
126.706
123.438
125.681
1.35655
1.34185
1.39939
2.49799
11.6745
30.2103
53.9796
77.3029
95.7666
110.852
126.166
141.707
155.741
167.175
175.264
179.575
179.949
176.413
169.178
158.615
145.282
129.941
113.607
97.6245
83.7457
73.9581
70.199
71.8587
85.2725
113.063
131.798
126.997
124.379
127.661
1.36831
1.36849
1.45472
4.65351
18.451
40.5247
65.7689
88.3598
106.531
123.676
141.809
159.518
175.217
187.963
197.089
202.241
203.252
200.136
193.093
182.456
168.695
152.408
134.381
115.69
97.8462
82.841
72.9265
69.7213
72.5741
90.4094
120.79
128.613
125.886
128.923
1.38371
1.40577
1.62022
8.08398
26.1705
50.9405
76.7278
98.7497
117.912
137.729
158.371
177.945
195.14
209.108
219.278
225.303
226.974
224.274
217.397
206.695
192.635
175.756
156.674
136.173
115.395
96.0354
80.3994
71.3218
69.1611
75.2661
101.088
128.47
127.032
129.895
1.40545
1.44966
2.3942
12.7754
34.3373
60.9981
86.8455
108.957
130.037
152.545
175.334
196.58
215.204
230.456
241.809
248.836
251.235
248.937
242.142
231.246
216.781
199.319
179.424
157.704
134.977
112.513
92.2516
76.8118
69.5065
68.8775
82.1782
116.883
128.477
131.157
1.42933
1.4887
3.81146
18.1456
42.5494
70.4487
96.3058
119.27
142.71
167.659
192.327
215.172
235.297
252.028
264.782
272.985
276.208
274.311
267.495
256.222
241.133
222.905
202.151
179.408
155.258
130.6
106.977
86.7335
72.8417
68.1548
70.9982
96.658
131.549
132.375
1.45486
1.52832
5.8465
23.8346
50.515
79.2171
105.319
129.741
155.611
182.708
209.109
233.596
255.413
273.895
288.317
297.907
302.083
300.607
293.673
281.821
265.83
246.539
224.699
200.893
175.578
149.313
123.146
99.0095
79.8284
69.2652
67.182
79.2964
123.795
133.617
1.47865
1.56608
8.41469
29.5761
58.0497
87.3306
114.023
140.264
168.428
197.435
225.535
251.8
275.569
296.11
312.489
323.71
328.994
327.98
320.842
308.213
291.035
270.345
247.082
221.961
195.457
167.931
139.98
112.985
89.5082
73.0541
67.0802
68.7351
97.8193
135.762
1.51304
1.81997
11.4519
35.1675
65.0552
94.8519
122.462
150.659
180.906
211.669
241.511
269.745
295.749
318.661
337.303
350.42
356.993
356.499
349.076
335.469
316.819
294.403
269.374
242.619
214.71
185.953
156.632
127.536
100.663
79.4633
68.0416
65.7572
80.5038
137.323
1.54321
2.28465
14.6417
40.47
71.4915
101.837
130.604
160.737
192.854
225.289
256.96
287.365
315.877
341.462
362.683
377.99
386.064
386.164
378.374
363.569
343.148
318.677
291.56
262.868
233.289
203.169
172.643
142.039
112.647
87.4982
70.9085
65.6449
69.3929
121.059
1.57027
2.9147
17.793
45.3958
77.3521
108.317
138.375
170.33
204.132
238.199
271.793
304.55
335.804
364.345
388.47
406.286
416.099
416.881
408.636
392.398
369.886
343.026
313.519
282.627
251.146
219.477
187.719
155.917
124.712
96.3928
75.3496
66.0542
64.4282
65.534
1.59664
3.65927
20.7963
49.8927
82.6455
114.297
145.687
179.304
214.634
250.308
285.894
321.132
355.31
387.056
414.396
435.046
446.852
448.417
439.626
421.706
396.777
367.204
335.028
301.719
268.168
234.806
201.727
168.845
136.345
105.679
80.7344
67.2153
64.3081
64.2496
1.62258
4.46795
23.5816
53.9342
87.3846
119.765
152.45
187.552
224.273
261.517
299.117
336.894
374.105
409.239
440.061
463.847
477.898
480.346
470.911
451.06
423.409
390.836
355.765
319.884
284.164
249.036
214.576
180.631
147.115
114.834
86.8654
69.061
64.254
63.8187
1.64812
5.29423
26.1036
57.5105
91.5819
124.7
158.592
194.996
232.973
271.719
311.287
351.575
391.824
430.429
464.907
492.069
508.588
512.006
501.816
479.793
449.171
413.404
375.31
336.791
298.884
261.997
226.165
191.179
156.788
123.351
93.1528
71.6035
64.3629
63.6044
1.67323
6.09717
28.3343
60.6223
95.2475
129.077
164.049
201.571
240.662
280.797
322.212
364.873
408.04
450.051
488.21
518.875
538.016
542.455
531.386
506.983
473.245
434.234
393.138
352.042
312.036
273.484
236.358
200.403
165.251
130.956
99.0975
74.5178
64.5677
63.4683
1.69789
6.84271
30.2581
63.2761
98.3896
132.873
168.777
207.23
247.275
288.632
331.687
376.47
422.279
467.434
509.089
543.193
564.998
570.464
558.364
531.449
494.623
452.525
408.643
365.195
323.3
283.271
245.006
208.203
172.408
137.474
104.522
77.5685
64.8523
63.3575
1.72208
7.50411
31.869
65.4824
101.016
136.07
172.743
211.936
252.749
295.109
339.512
386.044
434.046
481.855
526.54
563.752
588.091
594.524
581.188
551.803
512.176
467.41
421.185
375.79
332.351
291.132
251.955
214.48
178.19
142.779
109.116
80.5126
65.1929
63.2651
1.7458
8.06207
33.1686
67.2544
103.134
138.657
175.923
215.66
257.031
300.121
345.503
393.296
442.874
492.598
539.509
579.136
605.633
612.623
598.038
566.553
524.766
478.045
430.154
383.394
338.885
296.854
257.059
219.139
182.537
146.819
112.711
83.0896
65.5515
63.1842
1.76905
8.50477
34.1644
68.6077
104.753
140.628
178.306
218.383
260.078
303.583
349.507
397.975
448.364
499.043
547.085
588.056
614.679
620.969
607.028
574.333
531.414
483.73
435.048
387.652
342.652
300.258
260.196
222.094
185.386
149.553
115.211
85.0731
65.8819
63.1107
1.79186
8.82739
34.8693
69.5604
105.886
141.985
179.89
220.095
261.859
305.43
351.413
399.9
450.241
500.777
548.566
589.233
614.935
621.169
606.772
574.236
531.492
484.021
435.546
388.33
343.483
301.219
261.273
223.28
186.686
150.939
116.574
86.3008
66.1345
63.0416
1.81427
9.03209
35.3
70.1322
106.549
142.736
180.677
220.796
262.36
305.627
351.161
398.99
448.394
497.652
543.783
582.517
606.978
612.409
597.328
566.129
524.883
478.813
431.556
385.349
341.308
299.678
260.236
222.654
186.398
150.93
116.775
86.6793
66.2598
62.9745
1.83633
9.12251
35.4785
70.3474
106.759
142.895
180.682
220.489
261.578
304.169
348.748
395.254
442.872
489.805
533.059
568.541
590.477
594.483
580.053
550.835
512.054
468.388
423.242
378.797
336.171
295.648
257.08
220.202
184.509
149.505
115.793
86.1672
66.2067
62.9068
1.85791
9.12522
35.4213
70.2237
106.531
142.484
179.925
219.188
259.53
301.084
344.227
388.8
433.886
477.632
517.121
548.55
567.279
569.913
556.354
529.596
493.923
453.357
411
368.921
328.214
289.205
251.838
215.93
181.009
146.657
113.627
84.8342
65.8587
62.8369
1.87905
9.05972
35.1518
69.7848
105.887
141.527
178.429
216.917
256.246
296.426
337.702
379.817
421.773
461.717
496.923
524.016
539.412
540.739
528.13
503.956
471.633
434.531
395.386
356.091
317.67
280.486
244.587
209.869
175.899
142.373
110.267
82.6972
65.2596
62.7633
1.8999
8.94209
34.7
69.0588
104.85
140.048
176.221
213.708
251.77
290.273
329.318
368.559
406.958
442.743
473.477
496.319
508.594
508.748
497.04
475.335
446.329
412.788
377.044
340.749
304.828
269.672
235.434
202.075
169.19
136.653
105.734
79.8153
64.4783
62.682
1.92061
8.78878
34.1002
68.0771
103.448
138.072
173.335
209.599
246.154
282.719
319.245
355.318
389.911
421.413
447.738
466.614
476.114
475.253
464.364
444.923
419.053
388.977
356.618
323.357
290
256.974
224.516
192.614
160.906
129.516
100.086
76.3018
63.6122
62.5885
1.94136
8.61678
33.3898
66.8729
101.706
135.626
169.803
204.63
239.455
273.865
307.667
340.398
371.104
398.386
420.542
435.836
442.925
441.216
431.071
413.672
390.677
363.841
334.693
304.345
273.5
242.617
211.984
181.57
151.083
121.018
93.4467
72.3641
62.767
62.4962
1.96238
8.44351
32.6085
65.4809
99.6499
132.727
165.653
198.844
231.73
263.808
294.757
324.091
350.969
374.241
392.577
404.712
409.745
407.349
397.888
382.304
361.882
337.97
311.743
284.081
255.615
226.828
197.993
169.03
139.798
111.28
86.0413
68.3733
62.1534
62.4725
1.98392
8.2866
31.7981
63.9374
97.3024
129.394
160.906
192.272
223.03
252.635
280.672
306.655
329.88
349.447
364.374
373.778
377.088
374.154
365.318
351.323
333.14
311.775
288.112
262.862
236.61
209.823
182.686
155.088
127.187
100.556
78.2964
65.0534
61.9535
62.5424
2.0064
8.16453
31.0026
62.2812
94.6879
125.639
155.583
184.947
213.402
240.419
265.539
288.294
308.119
324.349
336.297
343.386
345.274
341.928
333.648
321.003
304.707
285.492
264.032
240.93
216.725
191.793
166.188
139.868
113.499
89.3127
70.9474
62.6975
61.832
62.7629
2.03014
8.09811
30.269
60.5526
91.8277
121.469
149.69
176.895
202.89
227.225
249.453
269.146
285.867
299.149
308.543
313.696
314.425
310.76
302.947
291.406
276.651
259.223
239.664
218.495
196.166
172.882
148.613
123.597
99.1912
78.3234
65.1713
61.6373
62.2183
63.2907
2.05523
8.11389
29.6466
58.791
88.736
116.877
143.219
168.123
191.53
213.109
232.482
249.288
263.201
273.908
281.134
284.681
284.464
280.536
273.091
262.431
248.935
233.027
215.158
195.747
175.077
153.177
130.127
106.704
85.0784
68.8033
61.6841
61.5253
63.4293
63.9642
2.08226
8.24432
29.1921
57.0323
85.4155
111.837
136.137
158.62
179.341
198.117
214.679
228.758
240.124
248.579
253.963
256.174
255.176
251.026
243.872
233.945
221.538
206.998
190.669
172.805
153.505
132.764
111.094
90.0018
72.4709
62.4114
60.6805
64.1021
66.7523
65.0877
2.11185
8.56325
28.9364
55.3035
81.8534
106.3
128.378
148.339
166.321
182.286
196.096
207.59
216.628
223.093
226.895
227.983
226.344
222.031
215.163
205.922
194.539
181.265
166.277
149.67
131.457
111.93
92.3318
74.8958
63.2216
59.9297
63.3407
69.031
70.2094
66.0402
2.16434
9.15784
28.9324
53.6186
78.0145
100.186
119.844
137.193
152.43
165.632
176.788
185.849
192.756
197.454
199.896
200.051
197.921
193.548
187.023
178.475
168.05
155.851
141.897
126.281
109.145
91.5253
75.3992
63.5224
59.4528
62.1738
68.7305
73.7775
72.0478
66.5589
2.31083
10.1469
29.2439
51.9701
73.8312
93.3814
110.393
125.047
137.569
148.118
156.783
163.611
168.614
171.778
173.081
172.504
170.045
165.722
159.577
151.659
141.988
130.554
117.417
102.892
87.5001
73.4191
62.7693
58.6932
60.9747
67.3647
73.9532
75.9498
71.5609
66.8502
2.68451
11.7033
29.9468
50.318
69.1951
85.736
99.8492
111.715
121.572
129.626
136.035
140.902
144.279
146.175
146.577
145.462
142.802
138.568
132.718
125.213
116.025
105.28
93.3151
80.7619
68.8636
60.7204
57.6164
59.9217
66.4509
72.9055
75.9576
73.9448
70.2097
67.1291
3.54518
14.0855
31.1187
48.5573
63.9309
77.0543
88.0099
96.9935
104.253
110.01
114.436
117.641
119.681
120.575
120.292
118.778
115.954
111.726
106.009
98.8254
90.3535
81.1175
71.6253
62.8863
57.6394
56.6132
59.5473
66.5466
72.4975
73.878
72.9002
71.6532
69.1705
67.468
5.69504
17.8154
32.8469
46.5056
57.8405
67.2135
74.8369
80.9129
85.6725
89.3155
91.9874
93.7684
94.7202
94.8114
93.9583
92.0846
89.0988
84.9467
79.7331
73.7491
67.4496
61.4871
56.6288
54.6306
55.5996
61.2889
68.6884
73.1113
72.5522
71.6594
71.0587
70.082
68.8288
68.219
10.0061
23.4893
35.2185
43.8561
50.7154
56.2018
60.4557
63.6786
66.0739
67.7877
68.931
69.5454
69.5525
68.9617
67.7658
65.9541
63.5794
60.8067
57.8945
55.1405
52.9724
51.4829
52.4774
57.6602
65.3481
76.8418
74.914
73.1368
72.3928
71.6208
70.9371
70.3703
69.9517
70.4975
27.6969
32.7058
38.2011
41.0367
43.2065
45.1692
46.6307
47.5795
48.1804
48.5441
48.7275
48.7815
48.8331
48.8848
48.9374
48.9919
49.0497
49.1139
49.1896
49.2871
49.4287
49.753
64.3404
83.3316
82.0499
80.5403
79.8984
79.0288
78.4184
76.8637
76.0266
75.6886
76.9456
79.8634
33.7198
46.5584
72.1938
100.907
127.288
146.581
33.6387
49.9992
77.7458
106.861
132.359
149.256
33.5625
52.5576
80.942
109.205
132.528
146.557
33.4882
54.037
81.8242
108.085
127.836
137.333
33.4141
54.3492
80.4713
103.753
119.518
124.279
33.336
53.5257
77.1522
96.6975
107.889
107.97
33.108
51.7525
72.2307
87.4711
93.8888
89.6212
32.6412
49.2599
66.0734
76.728
78.5005
70.629
31.9501
46.1651
59.0494
65.2107
62.888
52.461
31.0291
42.5975
51.4917
53.509
47.9717
36.279
29.8653
38.6793
43.7605
42.2536
34.5468
23.0074
28.5127
34.5511
36.19
32.0231
23.3641
13.2643
27.1813
30.4081
29.1295
23.1908
14.6845
6.8299
25.8665
26.4195
22.8536
16.0952
8.69558
3.4339
24.5298
22.7153
17.5083
10.714
4.86199
1.98548
23.2029
19.3501
13.1495
6.93806
2.8527
1.6034
21.892
16.367
9.73489
4.46104
1.98194
1.48544
20.5692
13.8124
7.1998
3.03452
1.69408
1.43281
19.3353
11.6589
5.33951
2.28414
1.57998
1.40848
18.2294
9.89572
4.0747
1.95492
1.52287
1.40013
17.261
8.4402
3.24203
1.79731
1.49295
1.40009
16.4254
7.26767
2.74255
1.71047
1.47894
1.40507
15.7129
6.35154
2.44896
1.65944
1.47451
1.41298
15.1125
5.64712
2.26671
1.6294
1.47629
1.42373
14.5998
5.10264
2.1476
1.61289
1.48238
1.43713
14.1586
4.68922
2.06739
1.60552
1.49153
1.45283
13.7852
4.38283
2.01286
1.60454
1.50311
1.46982
13.4752
4.15529
1.97624
1.60805
1.51651
1.48835
13.2231
3.98559
1.95252
1.61491
1.53171
1.5088
13.0228
3.85916
1.93836
1.62439
1.54837
1.52975
12.8684
3.76587
1.9315
1.63595
1.5653
1.55083
12.7545
3.69864
1.93038
1.64913
1.58213
1.57192
12.6764
3.65232
1.93379
1.66354
1.59906
1.59296
12.6296
3.62299
1.94084
1.67892
1.61656
1.61392
12.6109
3.60773
1.95084
1.69513
1.63473
1.63477
12.6159
3.60433
1.96328
1.71203
1.65322
1.65551
12.6433
3.60932
1.97779
1.7295
1.67192
1.6761
12.6721
3.63421
1.99405
1.74744
1.69078
1.69658
12.7011
3.67976
2.01185
1.7658
1.70977
1.71692
12.7303
3.74276
2.03083
1.78449
1.72886
1.73723
12.7598
3.81979
2.05037
1.80347
1.74805
1.75763
12.7896
3.90686
2.07038
1.8226
1.76731
1.77798
12.8197
3.99952
2.0907
1.84183
1.78662
1.79823
12.8501
4.09278
2.11115
1.86112
1.80597
1.81838
12.8808
4.18094
2.13149
1.8804
1.82534
1.83848
12.9117
4.25724
2.15145
1.89963
1.84475
1.85862
12.9428
4.31495
2.17085
1.91871
1.86416
1.87887
12.9741
4.34325
2.18879
1.93745
1.88357
1.89934
12.9749
4.35017
2.20451
1.95569
1.90295
1.92009
12.933
4.33585
2.21737
1.97328
1.92232
1.94118
12.8407
4.29721
2.22681
1.99008
1.94169
1.96275
12.6897
4.23096
2.23235
2.00597
1.96107
1.98451
12.4751
4.1355
2.23368
2.02088
1.98048
2.00672
12.1957
4.01155
2.23075
2.0348
1.99993
2.03052
11.8541
3.86237
2.22396
2.04787
2.01965
2.0587
11.4577
3.69461
2.21427
2.06024
2.03962
2.09223
11.0213
3.51782
2.20296
2.07252
2.0616
2.13464
10.5668
3.34273
2.19198
2.08317
2.08116
2.17715
10.1197
3.18124
2.18361
2.09426
2.1255
2.76225
9.70676
3.04019
2.1758
2.11959
3.37092
12.286
9.40222
2.9414
2.17813
2.17266
5.72525
15.6077
9.15512
2.87201
2.18636
2.46782
7.67596
15.6291
8.95697
2.82073
2.19292
2.85379
8.92689
15.1543
103.828
103.605
104.866
106.662
109.48
112.8
116.428
119.827
122.049
122.877
123.117
123.333
123.558
123.813
124.131
124.581
125.218
128.096
301.937
399.942
396.502
390.993
387.91
387.237
385.16
382.66
378.76
374.284
371.552
373.563
384.896
410.809
465.919
555.02
99.4449
91.9797
95.8078
101.272
109.941
121.297
133.803
145.555
154.824
160.719
162.438
159.974
154.43
147.151
139.659
133.628
129.888
128.795
153.683
232.883
358.398
355.529
341.562
338.204
334.856
331.654
328.414
325.138
321.882
318.982
317.293
320.815
340.515
383.118
95.2066
82.4864
87.9554
97.8291
112.901
134.329
159.456
184.664
206.32
221.871
229.91
229.524
221.327
206.919
188.645
169.275
152.232
139.087
133.328
144.632
218.055
316.045
346.126
342.869
341.742
339.778
337.413
334.064
327.866
319.031
310.448
305.712
305.572
318.699
89.8973
72.8105
81.6513
95.6653
117.1
149.538
189.331
230.666
267.563
295.505
311.952
315.772
307.435
288.619
261.793
230.235
198.309
170.207
147.711
137.767
150.033
217.49
313.04
360.393
369.437
378.004
380.438
377.072
366.342
347.893
325.073
305.281
296.834
299.684
84.5267
65.7617
75.8403
93.9178
121.822
166.18
222.232
281.383
334.874
376.251
401.949
410.777
403.264
381.347
347.829
306.176
260.902
217.504
180.055
151.58
140.474
158.827
233.792
330.935
390.291
417.078
433.284
435.74
423.214
394.221
354.435
316.326
294.417
289.897
79.6543
63.6462
70.7693
92.1285
126.495
183.272
256.363
333.674
403.547
458.009
492.785
506.514
499.996
475.65
436.777
387.141
331.191
274.44
222.979
180.203
150.874
143.007
173.096
262.675
365.188
436.327
475.758
494.38
486.511
450.691
393.492
334.514
295.554
284.217
75.8165
63.3031
67.2151
90.1096
130.62
199.549
289.206
383.329
467.743
533.832
576.895
595.094
589.366
562.827
519.586
463.926
400.243
333.57
270.443
215.911
173.106
148.812
147.501
192.593
295.559
405.995
488.2
542.07
540.597
506.71
436.105
356.729
300.302
281.105
73.0201
62.9699
64.8807
87.8895
133.781
213.601
317.809
425.628
521.29
596.649
646.676
668.737
663.429
634.75
588.031
528.292
459.938
387.334
316.377
253.184
200.8
163.388
148.558
158.138
219.18
328.591
441.84
528.192
569.043
546.763
472.517
378.546
306.686
278.36
71.0917
62.6446
63.3897
85.578
135.608
224.041
339.235
456.181
558.652
639.792
694.302
719.304
713.912
683.296
634.421
573.022
503.375
429.114
355.015
287.179
229.07
183.491
155.877
150.951
171.458
243.422
350.034
455.638
529.18
557.22
488.478
394.058
312.623
275.926
69.8303
62.3995
62.4724
83.235
135.78
229.645
350.991
471.601
575.581
657.474
712.104
738.3
730.87
699.756
651.679
592.207
525.22
453.738
381.5
313.787
254.151
204.935
169.154
153.314
154.39
182.004
253.494
347.682
434.507
482.37
464.463
394.045
314.913
273.551
69.1119
62.2661
61.9397
80.8894
134.058
229.453
351.314
469.826
569.583
646.173
695.257
715.671
709.137
680.503
636.8
582.947
522.491
458.059
392.406
329.795
273.201
224.677
186.069
161.377
153.777
157.325
185.081
245.781
321.308
383.052
402.917
370.054
310.056
270.694
68.5379
62.3479
61.6677
78.5561
130.23
222.808
339.27
450.193
540.266
606.475
646.611
661.183
653.62
628.593
591.205
545.587
494.763
440.948
386.222
333.288
284.133
240.485
203.538
175.498
159.025
154.224
157.69
179.643
226.962
283.515
323.745
326.814
294.959
265.92
67.8726
62.7466
61.5228
76.1965
124.135
209.224
314.669
413.159
489.473
542.059
571.595
579.98
571.104
549.442
519.018
483.135
444.174
403.768
363.14
323.419
285.538
250.525
219.154
192.516
172.179
159.558
155.089
156.417
171.409
206.153
248.474
274.004
270.974
259.043
67.0053
63.4937
61.3785
73.6402
115.606
188.853
277.968
359.941
420.342
457.928
475.753
477.61
467.462
449.106
425.977
400.613
374.665
348.991
323.884
299.353
275.405
252.175
229.838
208.679
189.353
173.207
161.385
156.562
156.774
166.547
193.574
225.765
243.435
249.942
65.8509
64.4949
61.2265
70.8164
104.856
162.896
231.147
292.747
336.228
360.225
367.978
363.925
352.542
337.25
320.793
305.004
290.887
278.73
268.3
259.038
250.236
241.21
230.685
218.713
204.852
189.952
175.356
163.323
158.016
157.22
166.173
191.711
219.019
240.039
64.457
64.8954
61.0445
67.8317
92.7052
133.872
178.766
216.631
240.471
249.548
247.341
238.162
225.384
212.056
200.248
191.263
185.753
183.935
185.844
190.864
198.057
205.947
212.374
215.051
211.619
202.721
190.098
175.817
164.299
158.726
157.565
170.568
199.508
230.911
62.9049
64.6322
60.8085
64.8194
80.1114
105.143
128.762
144.387
150.509
148.183
140.286
129.771
119.328
110.646
104.598
101.509
101.434
104.341
110.365
119.844
132.745
149.389
168.328
186.758
200.632
205.623
199.187
187.249
173.538
163.249
158.286
161.573
184.87
222.488
61.332
64.3717
60.6806
62.184
68.6927
80.2345
89.9819
93.0421
90.5953
85.0311
78.7029
73.4292
69.7268
67.4353
66.2001
65.6972
65.8163
66.8098
69.2942
74.4279
82.9958
96.7318
116.374
140.255
166.018
187.058
196.321
192.282
180.921
168.834
160.505
160.053
176.025
215.684
59.7391
63.9453
60.4958
60.5703
61.5201
62.8242
63.3715
62.794
61.3674
60.0303
59.3838
59.3179