/*--------------------------------*- C++ -*----------------------------------*\
| =========                 |                                                 |
| \\      /  F ield         | OpenFOAM: The Open Source CFD Toolbox           |
|  \\    /   O peration     | Version:  v2012                                 |
|   \\  /    A nd           | Website:  www.openfoam.com                      |
|    \\/     M anipulation  |                                                 |
\*---------------------------------------------------------------------------*/
FoamFile
{
    version     2.0;
    format      ascii;
    class       volVectorField;
    location    "560";
    object      C;
}
// * * * * * * * * * * * * * * * * * * * * * * * * * * * * * * * * * * * * * //

dimensions      [0 1 0 0 0 0 0];


internalField   nonuniform List<vector> 
6018
(
(0.01 1.0125 -0.005)
(0.01 1.0375 -0.005)
(0.01 1.0625 -0.005)
(0.01 1.0875 -0.005)
(0.01 1.1125 -0.005)
(0.01 1.1375 -0.005)
(0.01 1.1625 -0.005)
(0.01 1.1875 -0.005)
(0.01 1.2125 -0.005)
(0.01 1.2375 -0.005)
(0.01 1.2625 -0.005)
(0.01 1.2875 -0.005)
(0.01 1.3125 -0.005)
(0.01 1.3375 -0.005)
(0.01 1.3625 -0.005)
(0.01 1.3875 -0.005)
(0.01 1.4125 -0.005)
(0.01 1.4375 -0.005)
(0.01 1.4625 -0.005)
(0.01 1.4875 -0.005)
(0.03 1.0125 -0.005)
(0.03 1.0375 -0.005)
(0.03 1.0625 -0.005)
(0.03 1.0875 -0.005)
(0.03 1.1125 -0.005)
(0.03 1.1375 -0.005)
(0.03 1.1625 -0.005)
(0.03 1.1875 -0.005)
(0.03 1.2125 -0.005)
(0.03 1.2375 -0.005)
(0.03 1.2625 -0.005)
(0.03 1.2875 -0.005)
(0.03 1.3125 -0.005)
(0.03 1.3375 -0.005)
(0.03 1.3625 -0.005)
(0.03 1.3875 -0.005)
(0.03 1.4125 -0.005)
(0.03 1.4375 -0.005)
(0.03 1.4625 -0.005)
(0.03 1.4875 -0.005)
(0.05 1.0125 -0.005)
(0.05 1.0375 -0.005)
(0.05 1.0625 -0.005)
(0.05 1.0875 -0.005)
(0.05 1.1125 -0.005)
(0.05 1.1375 -0.005)
(0.05 1.1625 -0.005)
(0.05 1.1875 -0.005)
(0.05 1.2125 -0.005)
(0.05 1.2375 -0.005)
(0.05 1.2625 -0.005)
(0.05 1.2875 -0.005)
(0.05 1.3125 -0.005)
(0.05 1.3375 -0.005)
(0.05 1.3625 -0.005)
(0.05 1.3875 -0.005)
(0.05 1.4125 -0.005)
(0.05 1.4375 -0.005)
(0.05 1.4625 -0.005)
(0.05 1.4875 -0.005)
(0.07 1.0125 -0.005)
(0.07 1.0375 -0.005)
(0.07 1.0625 -0.005)
(0.07 1.0875 -0.005)
(0.07 1.1125 -0.005)
(0.07 1.1375 -0.005)
(0.07 1.1625 -0.005)
(0.07 1.1875 -0.005)
(0.07 1.2125 -0.005)
(0.07 1.2375 -0.005)
(0.07 1.2625 -0.005)
(0.07 1.2875 -0.005)
(0.07 1.3125 -0.005)
(0.07 1.3375 -0.005)
(0.07 1.3625 -0.005)
(0.07 1.3875 -0.005)
(0.07 1.4125 -0.005)
(0.07 1.4375 -0.005)
(0.07 1.4625 -0.005)
(0.07 1.4875 -0.005)
(0.09 1.0125 -0.005)
(0.09 1.0375 -0.005)
(0.09 1.0625 -0.005)
(0.09 1.0875 -0.005)
(0.09 1.1125 -0.005)
(0.09 1.1375 -0.005)
(0.09 1.1625 -0.005)
(0.09 1.1875 -0.005)
(0.09 1.2125 -0.005)
(0.09 1.2375 -0.005)
(0.09 1.2625 -0.005)
(0.09 1.2875 -0.005)
(0.09 1.3125 -0.005)
(0.09 1.3375 -0.005)
(0.09 1.3625 -0.005)
(0.09 1.3875 -0.005)
(0.09 1.4125 -0.005)
(0.09 1.4375 -0.005)
(0.09 1.4625 -0.005)
(0.09 1.4875 -0.005)
(0.11 1.0125 -0.005)
(0.11 1.0375 -0.005)
(0.11 1.0625 -0.005)
(0.11 1.0875 -0.005)
(0.11 1.1125 -0.005)
(0.11 1.1375 -0.005)
(0.11 1.1625 -0.005)
(0.11 1.1875 -0.005)
(0.11 1.2125 -0.005)
(0.11 1.2375 -0.005)
(0.11 1.2625 -0.005)
(0.11 1.2875 -0.005)
(0.11 1.3125 -0.005)
(0.11 1.3375 -0.005)
(0.11 1.3625 -0.005)
(0.11 1.3875 -0.005)
(0.11 1.4125 -0.005)
(0.11 1.4375 -0.005)
(0.11 1.4625 -0.005)
(0.11 1.4875 -0.005)
(0.13 1.0125 -0.005)
(0.13 1.0375 -0.005)
(0.13 1.0625 -0.005)
(0.13 1.0875 -0.005)
(0.13 1.1125 -0.005)
(0.13 1.1375 -0.005)
(0.13 1.1625 -0.005)
(0.13 1.1875 -0.005)
(0.13 1.2125 -0.005)
(0.13 1.2375 -0.005)
(0.13 1.2625 -0.005)
(0.13 1.2875 -0.005)
(0.13 1.3125 -0.005)
(0.13 1.3375 -0.005)
(0.13 1.3625 -0.005)
(0.13 1.3875 -0.005)
(0.13 1.4125 -0.005)
(0.13 1.4375 -0.005)
(0.13 1.4625 -0.005)
(0.13 1.4875 -0.005)
(0.15 1.0125 -0.005)
(0.15 1.0375 -0.005)
(0.15 1.0625 -0.005)
(0.15 1.0875 -0.005)
(0.15 1.1125 -0.005)
(0.15 1.1375 -0.005)
(0.15 1.1625 -0.005)
(0.15 1.1875 -0.005)
(0.15 1.2125 -0.005)
(0.15 1.2375 -0.005)
(0.15 1.2625 -0.005)
(0.15 1.2875 -0.005)
(0.15 1.3125 -0.005)
(0.15 1.3375 -0.005)
(0.15 1.3625 -0.005)
(0.15 1.3875 -0.005)
(0.15 1.4125 -0.005)
(0.15 1.4375 -0.005)
(0.15 1.4625 -0.005)
(0.15 1.4875 -0.005)
(0.17 1.0125 -0.005)
(0.17 1.0375 -0.005)
(0.17 1.0625 -0.005)
(0.17 1.0875 -0.005)
(0.17 1.1125 -0.005)
(0.17 1.1375 -0.005)
(0.17 1.1625 -0.005)
(0.17 1.1875 -0.005)
(0.17 1.2125 -0.005)
(0.17 1.2375 -0.005)
(0.17 1.2625 -0.005)
(0.17 1.2875 -0.005)
(0.17 1.3125 -0.005)
(0.17 1.3375 -0.005)
(0.17 1.3625 -0.005)
(0.17 1.3875 -0.005)
(0.17 1.4125 -0.005)
(0.17 1.4375 -0.005)
(0.17 1.4625 -0.005)
(0.17 1.4875 -0.005)
(0.19 1.0125 -0.005)
(0.19 1.0375 -0.005)
(0.19 1.0625 -0.005)
(0.19 1.0875 -0.005)
(0.19 1.1125 -0.005)
(0.19 1.1375 -0.005)
(0.19 1.1625 -0.005)
(0.19 1.1875 -0.005)
(0.19 1.2125 -0.005)
(0.19 1.2375 -0.005)
(0.19 1.2625 -0.005)
(0.19 1.2875 -0.005)
(0.19 1.3125 -0.005)
(0.19 1.3375 -0.005)
(0.19 1.3625 -0.005)
(0.19 1.3875 -0.005)
(0.19 1.4125 -0.005)
(0.19 1.4375 -0.005)
(0.19 1.4625 -0.005)
(0.19 1.4875 -0.005)
(0.01 0.152647 -0.005)
(0.01 0.177941 -0.005)
(0.01 0.203235 -0.005)
(0.01 0.228529 -0.005)
(0.01 0.253824 -0.005)
(0.01 0.279118 -0.005)
(0.01 0.304412 -0.005)
(0.01 0.329706 -0.005)
(0.01 0.355 -0.005)
(0.01 0.380294 -0.005)
(0.01 0.405588 -0.005)
(0.01 0.430882 -0.005)
(0.01 0.456176 -0.005)
(0.01 0.481471 -0.005)
(0.01 0.506765 -0.005)
(0.01 0.532059 -0.005)
(0.01 0.557353 -0.005)
(0.01 0.582647 -0.005)
(0.01 0.607941 -0.005)
(0.01 0.633235 -0.005)
(0.01 0.658529 -0.005)
(0.01 0.683824 -0.005)
(0.01 0.709118 -0.005)
(0.01 0.734412 -0.005)
(0.01 0.759706 -0.005)
(0.01 0.785 -0.005)
(0.01 0.810294 -0.005)
(0.01 0.835588 -0.005)
(0.01 0.860882 -0.005)
(0.01 0.886176 -0.005)
(0.01 0.911471 -0.005)
(0.01 0.936765 -0.005)
(0.01 0.962059 -0.005)
(0.01 0.987353 -0.005)
(0.03 0.152647 -0.005)
(0.03 0.177941 -0.005)
(0.03 0.203235 -0.005)
(0.03 0.228529 -0.005)
(0.03 0.253824 -0.005)
(0.03 0.279118 -0.005)
(0.03 0.304412 -0.005)
(0.03 0.329706 -0.005)
(0.03 0.355 -0.005)
(0.03 0.380294 -0.005)
(0.03 0.405588 -0.005)
(0.03 0.430882 -0.005)
(0.03 0.456176 -0.005)
(0.03 0.481471 -0.005)
(0.03 0.506765 -0.005)
(0.03 0.532059 -0.005)
(0.03 0.557353 -0.005)
(0.03 0.582647 -0.005)
(0.03 0.607941 -0.005)
(0.03 0.633235 -0.005)
(0.03 0.658529 -0.005)
(0.03 0.683824 -0.005)
(0.03 0.709118 -0.005)
(0.03 0.734412 -0.005)
(0.03 0.759706 -0.005)
(0.03 0.785 -0.005)
(0.03 0.810294 -0.005)
(0.03 0.835588 -0.005)
(0.03 0.860882 -0.005)
(0.03 0.886176 -0.005)
(0.03 0.911471 -0.005)
(0.03 0.936765 -0.005)
(0.03 0.962059 -0.005)
(0.03 0.987353 -0.005)
(0.05 0.152647 -0.005)
(0.05 0.177941 -0.005)
(0.05 0.203235 -0.005)
(0.05 0.228529 -0.005)
(0.05 0.253824 -0.005)
(0.05 0.279118 -0.005)
(0.05 0.304412 -0.005)
(0.05 0.329706 -0.005)
(0.05 0.355 -0.005)
(0.05 0.380294 -0.005)
(0.05 0.405588 -0.005)
(0.05 0.430882 -0.005)
(0.05 0.456176 -0.005)
(0.05 0.481471 -0.005)
(0.05 0.506765 -0.005)
(0.05 0.532059 -0.005)
(0.05 0.557353 -0.005)
(0.05 0.582647 -0.005)
(0.05 0.607941 -0.005)
(0.05 0.633235 -0.005)
(0.05 0.658529 -0.005)
(0.05 0.683824 -0.005)
(0.05 0.709118 -0.005)
(0.05 0.734412 -0.005)
(0.05 0.759706 -0.005)
(0.05 0.785 -0.005)
(0.05 0.810294 -0.005)
(0.05 0.835588 -0.005)
(0.05 0.860882 -0.005)
(0.05 0.886176 -0.005)
(0.05 0.911471 -0.005)
(0.05 0.936765 -0.005)
(0.05 0.962059 -0.005)
(0.05 0.987353 -0.005)
(0.07 0.152647 -0.005)
(0.07 0.177941 -0.005)
(0.07 0.203235 -0.005)
(0.07 0.228529 -0.005)
(0.07 0.253824 -0.005)
(0.07 0.279118 -0.005)
(0.07 0.304412 -0.005)
(0.07 0.329706 -0.005)
(0.07 0.355 -0.005)
(0.07 0.380294 -0.005)
(0.07 0.405588 -0.005)
(0.07 0.430882 -0.005)
(0.07 0.456176 -0.005)
(0.07 0.481471 -0.005)
(0.07 0.506765 -0.005)
(0.07 0.532059 -0.005)
(0.07 0.557353 -0.005)
(0.07 0.582647 -0.005)
(0.07 0.607941 -0.005)
(0.07 0.633235 -0.005)
(0.07 0.658529 -0.005)
(0.07 0.683824 -0.005)
(0.07 0.709118 -0.005)
(0.07 0.734412 -0.005)
(0.07 0.759706 -0.005)
(0.07 0.785 -0.005)
(0.07 0.810294 -0.005)
(0.07 0.835588 -0.005)
(0.07 0.860882 -0.005)
(0.07 0.886176 -0.005)
(0.07 0.911471 -0.005)
(0.07 0.936765 -0.005)
(0.07 0.962059 -0.005)
(0.07 0.987353 -0.005)
(0.09 0.152647 -0.005)
(0.09 0.177941 -0.005)
(0.09 0.203235 -0.005)
(0.09 0.228529 -0.005)
(0.09 0.253824 -0.005)
(0.09 0.279118 -0.005)
(0.09 0.304412 -0.005)
(0.09 0.329706 -0.005)
(0.09 0.355 -0.005)
(0.09 0.380294 -0.005)
(0.09 0.405588 -0.005)
(0.09 0.430882 -0.005)
(0.09 0.456176 -0.005)
(0.09 0.481471 -0.005)
(0.09 0.506765 -0.005)
(0.09 0.532059 -0.005)
(0.09 0.557353 -0.005)
(0.09 0.582647 -0.005)
(0.09 0.607941 -0.005)
(0.09 0.633235 -0.005)
(0.09 0.658529 -0.005)
(0.09 0.683824 -0.005)
(0.09 0.709118 -0.005)
(0.09 0.734412 -0.005)
(0.09 0.759706 -0.005)
(0.09 0.785 -0.005)
(0.09 0.810294 -0.005)
(0.09 0.835588 -0.005)
(0.09 0.860882 -0.005)
(0.09 0.886176 -0.005)
(0.09 0.911471 -0.005)
(0.09 0.936765 -0.005)
(0.09 0.962059 -0.005)
(0.09 0.987353 -0.005)
(0.11 0.152647 -0.005)
(0.11 0.177941 -0.005)
(0.11 0.203235 -0.005)
(0.11 0.228529 -0.005)
(0.11 0.253824 -0.005)
(0.11 0.279118 -0.005)
(0.11 0.304412 -0.005)
(0.11 0.329706 -0.005)
(0.11 0.355 -0.005)
(0.11 0.380294 -0.005)
(0.11 0.405588 -0.005)
(0.11 0.430882 -0.005)
(0.11 0.456176 -0.005)
(0.11 0.481471 -0.005)
(0.11 0.506765 -0.005)
(0.11 0.532059 -0.005)
(0.11 0.557353 -0.005)
(0.11 0.582647 -0.005)
(0.11 0.607941 -0.005)
(0.11 0.633235 -0.005)
(0.11 0.658529 -0.005)
(0.11 0.683824 -0.005)
(0.11 0.709118 -0.005)
(0.11 0.734412 -0.005)
(0.11 0.759706 -0.005)
(0.11 0.785 -0.005)
(0.11 0.810294 -0.005)
(0.11 0.835588 -0.005)
(0.11 0.860882 -0.005)
(0.11 0.886176 -0.005)
(0.11 0.911471 -0.005)
(0.11 0.936765 -0.005)
(0.11 0.962059 -0.005)
(0.11 0.987353 -0.005)
(0.13 0.152647 -0.005)
(0.13 0.177941 -0.005)
(0.13 0.203235 -0.005)
(0.13 0.228529 -0.005)
(0.13 0.253824 -0.005)
(0.13 0.279118 -0.005)
(0.13 0.304412 -0.005)
(0.13 0.329706 -0.005)
(0.13 0.355 -0.005)
(0.13 0.380294 -0.005)
(0.13 0.405588 -0.005)
(0.13 0.430882 -0.005)
(0.13 0.456176 -0.005)
(0.13 0.481471 -0.005)
(0.13 0.506765 -0.005)
(0.13 0.532059 -0.005)
(0.13 0.557353 -0.005)
(0.13 0.582647 -0.005)
(0.13 0.607941 -0.005)
(0.13 0.633235 -0.005)
(0.13 0.658529 -0.005)
(0.13 0.683824 -0.005)
(0.13 0.709118 -0.005)
(0.13 0.734412 -0.005)
(0.13 0.759706 -0.005)
(0.13 0.785 -0.005)
(0.13 0.810294 -0.005)
(0.13 0.835588 -0.005)
(0.13 0.860882 -0.005)
(0.13 0.886176 -0.005)
(0.13 0.911471 -0.005)
(0.13 0.936765 -0.005)
(0.13 0.962059 -0.005)
(0.13 0.987353 -0.005)
(0.15 0.152647 -0.005)
(0.15 0.177941 -0.005)
(0.15 0.203235 -0.005)
(0.15 0.228529 -0.005)
(0.15 0.253824 -0.005)
(0.15 0.279118 -0.005)
(0.15 0.304412 -0.005)
(0.15 0.329706 -0.005)
(0.15 0.355 -0.005)
(0.15 0.380294 -0.005)
(0.15 0.405588 -0.005)
(0.15 0.430882 -0.005)
(0.15 0.456176 -0.005)
(0.15 0.481471 -0.005)
(0.15 0.506765 -0.005)
(0.15 0.532059 -0.005)
(0.15 0.557353 -0.005)
(0.15 0.582647 -0.005)
(0.15 0.607941 -0.005)
(0.15 0.633235 -0.005)
(0.15 0.658529 -0.005)
(0.15 0.683824 -0.005)
(0.15 0.709118 -0.005)
(0.15 0.734412 -0.005)
(0.15 0.759706 -0.005)
(0.15 0.785 -0.005)
(0.15 0.810294 -0.005)
(0.15 0.835588 -0.005)
(0.15 0.860882 -0.005)
(0.15 0.886176 -0.005)
(0.15 0.911471 -0.005)
(0.15 0.936765 -0.005)
(0.15 0.962059 -0.005)
(0.15 0.987353 -0.005)
(0.17 0.152647 -0.005)
(0.17 0.177941 -0.005)
(0.17 0.203235 -0.005)
(0.17 0.228529 -0.005)
(0.17 0.253824 -0.005)
(0.17 0.279118 -0.005)
(0.17 0.304412 -0.005)
(0.17 0.329706 -0.005)
(0.17 0.355 -0.005)
(0.17 0.380294 -0.005)
(0.17 0.405588 -0.005)
(0.17 0.430882 -0.005)
(0.17 0.456176 -0.005)
(0.17 0.481471 -0.005)
(0.17 0.506765 -0.005)
(0.17 0.532059 -0.005)
(0.17 0.557353 -0.005)
(0.17 0.582647 -0.005)
(0.17 0.607941 -0.005)
(0.17 0.633235 -0.005)
(0.17 0.658529 -0.005)
(0.17 0.683824 -0.005)
(0.17 0.709118 -0.005)
(0.17 0.734412 -0.005)
(0.17 0.759706 -0.005)
(0.17 0.785 -0.005)
(0.17 0.810294 -0.005)
(0.17 0.835588 -0.005)
(0.17 0.860882 -0.005)
(0.17 0.886176 -0.005)
(0.17 0.911471 -0.005)
(0.17 0.936765 -0.005)
(0.17 0.962059 -0.005)
(0.17 0.987353 -0.005)
(0.19 0.152647 -0.005)
(0.19 0.177941 -0.005)
(0.19 0.203235 -0.005)
(0.19 0.228529 -0.005)
(0.19 0.253824 -0.005)
(0.19 0.279118 -0.005)
(0.19 0.304412 -0.005)
(0.19 0.329706 -0.005)
(0.19 0.355 -0.005)
(0.19 0.380294 -0.005)
(0.19 0.405588 -0.005)
(0.19 0.430882 -0.005)
(0.19 0.456176 -0.005)
(0.19 0.481471 -0.005)
(0.19 0.506765 -0.005)
(0.19 0.532059 -0.005)
(0.19 0.557353 -0.005)
(0.19 0.582647 -0.005)
(0.19 0.607941 -0.005)
(0.19 0.633235 -0.005)
(0.19 0.658529 -0.005)
(0.19 0.683824 -0.005)
(0.19 0.709118 -0.005)
(0.19 0.734412 -0.005)
(0.19 0.759706 -0.005)
(0.19 0.785 -0.005)
(0.19 0.810294 -0.005)
(0.19 0.835588 -0.005)
(0.19 0.860882 -0.005)
(0.19 0.886176 -0.005)
(0.19 0.911471 -0.005)
(0.19 0.936765 -0.005)
(0.19 0.962059 -0.005)
(0.19 0.987353 -0.005)
(0.01 0.0116667 -0.005)
(0.01 0.035 -0.005)
(0.01 0.0583333 -0.005)
(0.01 0.0816667 -0.005)
(0.01 0.105 -0.005)
(0.01 0.128333 -0.005)
(0.03 0.0116667 -0.005)
(0.03 0.035 -0.005)
(0.03 0.0583333 -0.005)
(0.03 0.0816667 -0.005)
(0.03 0.105 -0.005)
(0.03 0.128333 -0.005)
(0.05 0.0116667 -0.005)
(0.05 0.035 -0.005)
(0.05 0.0583333 -0.005)
(0.05 0.0816667 -0.005)
(0.05 0.105 -0.005)
(0.05 0.128333 -0.005)
(0.07 0.0116667 -0.005)
(0.07 0.035 -0.005)
(0.07 0.0583333 -0.005)
(0.07 0.0816667 -0.005)
(0.07 0.105 -0.005)
(0.07 0.128333 -0.005)
(0.09 0.0116667 -0.005)
(0.09 0.035 -0.005)
(0.09 0.0583333 -0.005)
(0.09 0.0816667 -0.005)
(0.09 0.105 -0.005)
(0.09 0.128333 -0.005)
(0.11 0.0116667 -0.005)
(0.11 0.035 -0.005)
(0.11 0.0583333 -0.005)
(0.11 0.0816667 -0.005)
(0.11 0.105 -0.005)
(0.11 0.128333 -0.005)
(0.13 0.0116667 -0.005)
(0.13 0.035 -0.005)
(0.13 0.0583333 -0.005)
(0.13 0.0816667 -0.005)
(0.13 0.105 -0.005)
(0.13 0.128333 -0.005)
(0.15 0.0116667 -0.005)
(0.15 0.035 -0.005)
(0.15 0.0583333 -0.005)
(0.15 0.0816667 -0.005)
(0.15 0.105 -0.005)
(0.15 0.128333 -0.005)
(0.17 0.0116667 -0.005)
(0.17 0.035 -0.005)
(0.17 0.0583333 -0.005)
(0.17 0.0816667 -0.005)
(0.17 0.105 -0.005)
(0.17 0.128333 -0.005)
(0.19 0.0116667 -0.005)
(0.19 0.035 -0.005)
(0.19 0.0583333 -0.005)
(0.19 0.0816667 -0.005)
(0.19 0.105 -0.005)
(0.19 0.128333 -0.005)
(0.210625 0.152647 -0.005)
(0.210625 0.177941 -0.005)
(0.210625 0.203235 -0.005)
(0.210625 0.228529 -0.005)
(0.210625 0.253824 -0.005)
(0.210625 0.279118 -0.005)
(0.210625 0.304412 -0.005)
(0.210625 0.329706 -0.005)
(0.210625 0.355 -0.005)
(0.210625 0.380294 -0.005)
(0.210625 0.405588 -0.005)
(0.210625 0.430882 -0.005)
(0.210625 0.456176 -0.005)
(0.210625 0.481471 -0.005)
(0.210625 0.506765 -0.005)
(0.210625 0.532059 -0.005)
(0.210625 0.557353 -0.005)
(0.210625 0.582647 -0.005)
(0.210625 0.607941 -0.005)
(0.210625 0.633235 -0.005)
(0.210625 0.658529 -0.005)
(0.210625 0.683824 -0.005)
(0.210625 0.709118 -0.005)
(0.210625 0.734412 -0.005)
(0.210625 0.759706 -0.005)
(0.210625 0.785 -0.005)
(0.210625 0.810294 -0.005)
(0.210625 0.835588 -0.005)
(0.210625 0.860882 -0.005)
(0.210625 0.886176 -0.005)
(0.210625 0.911471 -0.005)
(0.210625 0.936765 -0.005)
(0.210625 0.962059 -0.005)
(0.210625 0.987353 -0.005)
(0.231875 0.152647 -0.005)
(0.231875 0.177941 -0.005)
(0.231875 0.203235 -0.005)
(0.231875 0.228529 -0.005)
(0.231875 0.253824 -0.005)
(0.231875 0.279118 -0.005)
(0.231875 0.304412 -0.005)
(0.231875 0.329706 -0.005)
(0.231875 0.355 -0.005)
(0.231875 0.380294 -0.005)
(0.231875 0.405588 -0.005)
(0.231875 0.430882 -0.005)
(0.231875 0.456176 -0.005)
(0.231875 0.481471 -0.005)
(0.231875 0.506765 -0.005)
(0.231875 0.532059 -0.005)
(0.231875 0.557353 -0.005)
(0.231875 0.582647 -0.005)
(0.231875 0.607941 -0.005)
(0.231875 0.633235 -0.005)
(0.231875 0.658529 -0.005)
(0.231875 0.683824 -0.005)
(0.231875 0.709118 -0.005)
(0.231875 0.734412 -0.005)
(0.231875 0.759706 -0.005)
(0.231875 0.785 -0.005)
(0.231875 0.810294 -0.005)
(0.231875 0.835588 -0.005)
(0.231875 0.860882 -0.005)
(0.231875 0.886176 -0.005)
(0.231875 0.911471 -0.005)
(0.231875 0.936765 -0.005)
(0.231875 0.962059 -0.005)
(0.231875 0.987353 -0.005)
(0.253125 0.152647 -0.005)
(0.253125 0.177941 -0.005)
(0.253125 0.203235 -0.005)
(0.253125 0.228529 -0.005)
(0.253125 0.253824 -0.005)
(0.253125 0.279118 -0.005)
(0.253125 0.304412 -0.005)
(0.253125 0.329706 -0.005)
(0.253125 0.355 -0.005)
(0.253125 0.380294 -0.005)
(0.253125 0.405588 -0.005)
(0.253125 0.430882 -0.005)
(0.253125 0.456176 -0.005)
(0.253125 0.481471 -0.005)
(0.253125 0.506765 -0.005)
(0.253125 0.532059 -0.005)
(0.253125 0.557353 -0.005)
(0.253125 0.582647 -0.005)
(0.253125 0.607941 -0.005)
(0.253125 0.633235 -0.005)
(0.253125 0.658529 -0.005)
(0.253125 0.683824 -0.005)
(0.253125 0.709118 -0.005)
(0.253125 0.734412 -0.005)
(0.253125 0.759706 -0.005)
(0.253125 0.785 -0.005)
(0.253125 0.810294 -0.005)
(0.253125 0.835588 -0.005)
(0.253125 0.860882 -0.005)
(0.253125 0.886176 -0.005)
(0.253125 0.911471 -0.005)
(0.253125 0.936765 -0.005)
(0.253125 0.962059 -0.005)
(0.253125 0.987353 -0.005)
(0.274375 0.152647 -0.005)
(0.274375 0.177941 -0.005)
(0.274375 0.203235 -0.005)
(0.274375 0.228529 -0.005)
(0.274375 0.253824 -0.005)
(0.274375 0.279118 -0.005)
(0.274375 0.304412 -0.005)
(0.274375 0.329706 -0.005)
(0.274375 0.355 -0.005)
(0.274375 0.380294 -0.005)
(0.274375 0.405588 -0.005)
(0.274375 0.430882 -0.005)
(0.274375 0.456176 -0.005)
(0.274375 0.481471 -0.005)
(0.274375 0.506765 -0.005)
(0.274375 0.532059 -0.005)
(0.274375 0.557353 -0.005)
(0.274375 0.582647 -0.005)
(0.274375 0.607941 -0.005)
(0.274375 0.633235 -0.005)
(0.274375 0.658529 -0.005)
(0.274375 0.683824 -0.005)
(0.274375 0.709118 -0.005)
(0.274375 0.734412 -0.005)
(0.274375 0.759706 -0.005)
(0.274375 0.785 -0.005)
(0.274375 0.810294 -0.005)
(0.274375 0.835588 -0.005)
(0.274375 0.860882 -0.005)
(0.274375 0.886176 -0.005)
(0.274375 0.911471 -0.005)
(0.274375 0.936765 -0.005)
(0.274375 0.962059 -0.005)
(0.274375 0.987353 -0.005)
(0.295625 0.152647 -0.005)
(0.295625 0.177941 -0.005)
(0.295625 0.203235 -0.005)
(0.295625 0.228529 -0.005)
(0.295625 0.253824 -0.005)
(0.295625 0.279118 -0.005)
(0.295625 0.304412 -0.005)
(0.295625 0.329706 -0.005)
(0.295625 0.355 -0.005)
(0.295625 0.380294 -0.005)
(0.295625 0.405588 -0.005)
(0.295625 0.430882 -0.005)
(0.295625 0.456176 -0.005)
(0.295625 0.481471 -0.005)
(0.295625 0.506765 -0.005)
(0.295625 0.532059 -0.005)
(0.295625 0.557353 -0.005)
(0.295625 0.582647 -0.005)
(0.295625 0.607941 -0.005)
(0.295625 0.633235 -0.005)
(0.295625 0.658529 -0.005)
(0.295625 0.683824 -0.005)
(0.295625 0.709118 -0.005)
(0.295625 0.734412 -0.005)
(0.295625 0.759706 -0.005)
(0.295625 0.785 -0.005)
(0.295625 0.810294 -0.005)
(0.295625 0.835588 -0.005)
(0.295625 0.860882 -0.005)
(0.295625 0.886176 -0.005)
(0.295625 0.911471 -0.005)
(0.295625 0.936765 -0.005)
(0.295625 0.962059 -0.005)
(0.295625 0.987353 -0.005)
(0.316875 0.152647 -0.005)
(0.316875 0.177941 -0.005)
(0.316875 0.203235 -0.005)
(0.316875 0.228529 -0.005)
(0.316875 0.253824 -0.005)
(0.316875 0.279118 -0.005)
(0.316875 0.304412 -0.005)
(0.316875 0.329706 -0.005)
(0.316875 0.355 -0.005)
(0.316875 0.380294 -0.005)
(0.316875 0.405588 -0.005)
(0.316875 0.430882 -0.005)
(0.316875 0.456176 -0.005)
(0.316875 0.481471 -0.005)
(0.316875 0.506765 -0.005)
(0.316875 0.532059 -0.005)
(0.316875 0.557353 -0.005)
(0.316875 0.582647 -0.005)
(0.316875 0.607941 -0.005)
(0.316875 0.633235 -0.005)
(0.316875 0.658529 -0.005)
(0.316875 0.683824 -0.005)
(0.316875 0.709118 -0.005)
(0.316875 0.734412 -0.005)
(0.316875 0.759706 -0.005)
(0.316875 0.785 -0.005)
(0.316875 0.810294 -0.005)
(0.316875 0.835588 -0.005)
(0.316875 0.860882 -0.005)
(0.316875 0.886176 -0.005)
(0.316875 0.911471 -0.005)
(0.316875 0.936765 -0.005)
(0.316875 0.962059 -0.005)
(0.316875 0.987353 -0.005)
(0.338125 0.152647 -0.005)
(0.338125 0.177941 -0.005)
(0.338125 0.203235 -0.005)
(0.338125 0.228529 -0.005)
(0.338125 0.253824 -0.005)
(0.338125 0.279118 -0.005)
(0.338125 0.304412 -0.005)
(0.338125 0.329706 -0.005)
(0.338125 0.355 -0.005)
(0.338125 0.380294 -0.005)
(0.338125 0.405588 -0.005)
(0.338125 0.430882 -0.005)
(0.338125 0.456176 -0.005)
(0.338125 0.481471 -0.005)
(0.338125 0.506765 -0.005)
(0.338125 0.532059 -0.005)
(0.338125 0.557353 -0.005)
(0.338125 0.582647 -0.005)
(0.338125 0.607941 -0.005)
(0.338125 0.633235 -0.005)
(0.338125 0.658529 -0.005)
(0.338125 0.683824 -0.005)
(0.338125 0.709118 -0.005)
(0.338125 0.734412 -0.005)
(0.338125 0.759706 -0.005)
(0.338125 0.785 -0.005)
(0.338125 0.810294 -0.005)
(0.338125 0.835588 -0.005)
(0.338125 0.860882 -0.005)
(0.338125 0.886176 -0.005)
(0.338125 0.911471 -0.005)
(0.338125 0.936765 -0.005)
(0.338125 0.962059 -0.005)
(0.338125 0.987353 -0.005)
(0.359375 0.152647 -0.005)
(0.359375 0.177941 -0.005)
(0.359375 0.203235 -0.005)
(0.359375 0.228529 -0.005)
(0.359375 0.253824 -0.005)
(0.359375 0.279118 -0.005)
(0.359375 0.304412 -0.005)
(0.359375 0.329706 -0.005)
(0.359375 0.355 -0.005)
(0.359375 0.380294 -0.005)
(0.359375 0.405588 -0.005)
(0.359375 0.430882 -0.005)
(0.359375 0.456176 -0.005)
(0.359375 0.481471 -0.005)
(0.359375 0.506765 -0.005)
(0.359375 0.532059 -0.005)
(0.359375 0.557353 -0.005)
(0.359375 0.582647 -0.005)
(0.359375 0.607941 -0.005)
(0.359375 0.633235 -0.005)
(0.359375 0.658529 -0.005)
(0.359375 0.683824 -0.005)
(0.359375 0.709118 -0.005)
(0.359375 0.734412 -0.005)
(0.359375 0.759706 -0.005)
(0.359375 0.785 -0.005)
(0.359375 0.810294 -0.005)
(0.359375 0.835588 -0.005)
(0.359375 0.860882 -0.005)
(0.359375 0.886176 -0.005)
(0.359375 0.911471 -0.005)
(0.359375 0.936765 -0.005)
(0.359375 0.962059 -0.005)
(0.359375 0.987353 -0.005)
(0.380625 0.152647 -0.005)
(0.380625 0.177941 -0.005)
(0.380625 0.203235 -0.005)
(0.380625 0.228529 -0.005)
(0.380625 0.253824 -0.005)
(0.380625 0.279118 -0.005)
(0.380625 0.304412 -0.005)
(0.380625 0.329706 -0.005)
(0.380625 0.355 -0.005)
(0.380625 0.380294 -0.005)
(0.380625 0.405588 -0.005)
(0.380625 0.430882 -0.005)
(0.380625 0.456176 -0.005)
(0.380625 0.481471 -0.005)
(0.380625 0.506765 -0.005)
(0.380625 0.532059 -0.005)
(0.380625 0.557353 -0.005)
(0.380625 0.582647 -0.005)
(0.380625 0.607941 -0.005)
(0.380625 0.633235 -0.005)
(0.380625 0.658529 -0.005)
(0.380625 0.683824 -0.005)
(0.380625 0.709118 -0.005)
(0.380625 0.734412 -0.005)
(0.380625 0.759706 -0.005)
(0.380625 0.785 -0.005)
(0.380625 0.810294 -0.005)
(0.380625 0.835588 -0.005)
(0.380625 0.860882 -0.005)
(0.380625 0.886176 -0.005)
(0.380625 0.911471 -0.005)
(0.380625 0.936765 -0.005)
(0.380625 0.962059 -0.005)
(0.380625 0.987353 -0.005)
(0.401875 0.152647 -0.005)
(0.401875 0.177941 -0.005)
(0.401875 0.203235 -0.005)
(0.401875 0.228529 -0.005)
(0.401875 0.253824 -0.005)
(0.401875 0.279118 -0.005)
(0.401875 0.304412 -0.005)
(0.401875 0.329706 -0.005)
(0.401875 0.355 -0.005)
(0.401875 0.380294 -0.005)
(0.401875 0.405588 -0.005)
(0.401875 0.430882 -0.005)
(0.401875 0.456176 -0.005)
(0.401875 0.481471 -0.005)
(0.401875 0.506765 -0.005)
(0.401875 0.532059 -0.005)
(0.401875 0.557353 -0.005)
(0.401875 0.582647 -0.005)
(0.401875 0.607941 -0.005)
(0.401875 0.633235 -0.005)
(0.401875 0.658529 -0.005)
(0.401875 0.683824 -0.005)
(0.401875 0.709118 -0.005)
(0.401875 0.734412 -0.005)
(0.401875 0.759706 -0.005)
(0.401875 0.785 -0.005)
(0.401875 0.810294 -0.005)
(0.401875 0.835588 -0.005)
(0.401875 0.860882 -0.005)
(0.401875 0.886176 -0.005)
(0.401875 0.911471 -0.005)
(0.401875 0.936765 -0.005)
(0.401875 0.962059 -0.005)
(0.401875 0.987353 -0.005)
(0.423125 0.152647 -0.005)
(0.423125 0.177941 -0.005)
(0.423125 0.203235 -0.005)
(0.423125 0.228529 -0.005)
(0.423125 0.253824 -0.005)
(0.423125 0.279118 -0.005)
(0.423125 0.304412 -0.005)
(0.423125 0.329706 -0.005)
(0.423125 0.355 -0.005)
(0.423125 0.380294 -0.005)
(0.423125 0.405588 -0.005)
(0.423125 0.430882 -0.005)
(0.423125 0.456176 -0.005)
(0.423125 0.481471 -0.005)
(0.423125 0.506765 -0.005)
(0.423125 0.532059 -0.005)
(0.423125 0.557353 -0.005)
(0.423125 0.582647 -0.005)
(0.423125 0.607941 -0.005)
(0.423125 0.633235 -0.005)
(0.423125 0.658529 -0.005)
(0.423125 0.683824 -0.005)
(0.423125 0.709118 -0.005)
(0.423125 0.734412 -0.005)
(0.423125 0.759706 -0.005)
(0.423125 0.785 -0.005)
(0.423125 0.810294 -0.005)
(0.423125 0.835588 -0.005)
(0.423125 0.860882 -0.005)
(0.423125 0.886176 -0.005)
(0.423125 0.911471 -0.005)
(0.423125 0.936765 -0.005)
(0.423125 0.962059 -0.005)
(0.423125 0.987353 -0.005)
(0.444375 0.152647 -0.005)
(0.444375 0.177941 -0.005)
(0.444375 0.203235 -0.005)
(0.444375 0.228529 -0.005)
(0.444375 0.253824 -0.005)
(0.444375 0.279118 -0.005)
(0.444375 0.304412 -0.005)
(0.444375 0.329706 -0.005)
(0.444375 0.355 -0.005)
(0.444375 0.380294 -0.005)
(0.444375 0.405588 -0.005)
(0.444375 0.430882 -0.005)
(0.444375 0.456176 -0.005)
(0.444375 0.481471 -0.005)
(0.444375 0.506765 -0.005)
(0.444375 0.532059 -0.005)
(0.444375 0.557353 -0.005)
(0.444375 0.582647 -0.005)
(0.444375 0.607941 -0.005)
(0.444375 0.633235 -0.005)
(0.444375 0.658529 -0.005)
(0.444375 0.683824 -0.005)
(0.444375 0.709118 -0.005)
(0.444375 0.734412 -0.005)
(0.444375 0.759706 -0.005)
(0.444375 0.785 -0.005)
(0.444375 0.810294 -0.005)
(0.444375 0.835588 -0.005)
(0.444375 0.860882 -0.005)
(0.444375 0.886176 -0.005)
(0.444375 0.911471 -0.005)
(0.444375 0.936765 -0.005)
(0.444375 0.962059 -0.005)
(0.444375 0.987353 -0.005)
(0.465625 0.152647 -0.005)
(0.465625 0.177941 -0.005)
(0.465625 0.203235 -0.005)
(0.465625 0.228529 -0.005)
(0.465625 0.253824 -0.005)
(0.465625 0.279118 -0.005)
(0.465625 0.304412 -0.005)
(0.465625 0.329706 -0.005)
(0.465625 0.355 -0.005)
(0.465625 0.380294 -0.005)
(0.465625 0.405588 -0.005)
(0.465625 0.430882 -0.005)
(0.465625 0.456176 -0.005)
(0.465625 0.481471 -0.005)
(0.465625 0.506765 -0.005)
(0.465625 0.532059 -0.005)
(0.465625 0.557353 -0.005)
(0.465625 0.582647 -0.005)
(0.465625 0.607941 -0.005)
(0.465625 0.633235 -0.005)
(0.465625 0.658529 -0.005)
(0.465625 0.683824 -0.005)
(0.465625 0.709118 -0.005)
(0.465625 0.734412 -0.005)
(0.465625 0.759706 -0.005)
(0.465625 0.785 -0.005)
(0.465625 0.810294 -0.005)
(0.465625 0.835588 -0.005)
(0.465625 0.860882 -0.005)
(0.465625 0.886176 -0.005)
(0.465625 0.911471 -0.005)
(0.465625 0.936765 -0.005)
(0.465625 0.962059 -0.005)
(0.465625 0.987353 -0.005)
(0.486875 0.152647 -0.005)
(0.486875 0.177941 -0.005)
(0.486875 0.203235 -0.005)
(0.486875 0.228529 -0.005)
(0.486875 0.253824 -0.005)
(0.486875 0.279118 -0.005)
(0.486875 0.304412 -0.005)
(0.486875 0.329706 -0.005)
(0.486875 0.355 -0.005)
(0.486875 0.380294 -0.005)
(0.486875 0.405588 -0.005)
(0.486875 0.430882 -0.005)
(0.486875 0.456176 -0.005)
(0.486875 0.481471 -0.005)
(0.486875 0.506765 -0.005)
(0.486875 0.532059 -0.005)
(0.486875 0.557353 -0.005)
(0.486875 0.582647 -0.005)
(0.486875 0.607941 -0.005)
(0.486875 0.633235 -0.005)
(0.486875 0.658529 -0.005)
(0.486875 0.683824 -0.005)
(0.486875 0.709118 -0.005)
(0.486875 0.734412 -0.005)
(0.486875 0.759706 -0.005)
(0.486875 0.785 -0.005)
(0.486875 0.810294 -0.005)
(0.486875 0.835588 -0.005)
(0.486875 0.860882 -0.005)
(0.486875 0.886176 -0.005)
(0.486875 0.911471 -0.005)
(0.486875 0.936765 -0.005)
(0.486875 0.962059 -0.005)
(0.486875 0.987353 -0.005)
(0.508125 0.152647 -0.005)
(0.508125 0.177941 -0.005)
(0.508125 0.203235 -0.005)
(0.508125 0.228529 -0.005)
(0.508125 0.253824 -0.005)
(0.508125 0.279118 -0.005)
(0.508125 0.304412 -0.005)
(0.508125 0.329706 -0.005)
(0.508125 0.355 -0.005)
(0.508125 0.380294 -0.005)
(0.508125 0.405588 -0.005)
(0.508125 0.430882 -0.005)
(0.508125 0.456176 -0.005)
(0.508125 0.481471 -0.005)
(0.508125 0.506765 -0.005)
(0.508125 0.532059 -0.005)
(0.508125 0.557353 -0.005)
(0.508125 0.582647 -0.005)
(0.508125 0.607941 -0.005)
(0.508125 0.633235 -0.005)
(0.508125 0.658529 -0.005)
(0.508125 0.683824 -0.005)
(0.508125 0.709118 -0.005)
(0.508125 0.734412 -0.005)
(0.508125 0.759706 -0.005)
(0.508125 0.785 -0.005)
(0.508125 0.810294 -0.005)
(0.508125 0.835588 -0.005)
(0.508125 0.860882 -0.005)
(0.508125 0.886176 -0.005)
(0.508125 0.911471 -0.005)
(0.508125 0.936765 -0.005)
(0.508125 0.962059 -0.005)
(0.508125 0.987353 -0.005)
(0.529375 0.152647 -0.005)
(0.529375 0.177941 -0.005)
(0.529375 0.203235 -0.005)
(0.529375 0.228529 -0.005)
(0.529375 0.253824 -0.005)
(0.529375 0.279118 -0.005)
(0.529375 0.304412 -0.005)
(0.529375 0.329706 -0.005)
(0.529375 0.355 -0.005)
(0.529375 0.380294 -0.005)
(0.529375 0.405588 -0.005)
(0.529375 0.430882 -0.005)
(0.529375 0.456176 -0.005)
(0.529375 0.481471 -0.005)
(0.529375 0.506765 -0.005)
(0.529375 0.532059 -0.005)
(0.529375 0.557353 -0.005)
(0.529375 0.582647 -0.005)
(0.529375 0.607941 -0.005)
(0.529375 0.633235 -0.005)
(0.529375 0.658529 -0.005)
(0.529375 0.683824 -0.005)
(0.529375 0.709118 -0.005)
(0.529375 0.734412 -0.005)
(0.529375 0.759706 -0.005)
(0.529375 0.785 -0.005)
(0.529375 0.810294 -0.005)
(0.529375 0.835588 -0.005)
(0.529375 0.860882 -0.005)
(0.529375 0.886176 -0.005)
(0.529375 0.911471 -0.005)
(0.529375 0.936765 -0.005)
(0.529375 0.962059 -0.005)
(0.529375 0.987353 -0.005)
(0.550625 0.152647 -0.005)
(0.550625 0.177941 -0.005)
(0.550625 0.203235 -0.005)
(0.550625 0.228529 -0.005)
(0.550625 0.253824 -0.005)
(0.550625 0.279118 -0.005)
(0.550625 0.304412 -0.005)
(0.550625 0.329706 -0.005)
(0.550625 0.355 -0.005)
(0.550625 0.380294 -0.005)
(0.550625 0.405588 -0.005)
(0.550625 0.430882 -0.005)
(0.550625 0.456176 -0.005)
(0.550625 0.481471 -0.005)
(0.550625 0.506765 -0.005)
(0.550625 0.532059 -0.005)
(0.550625 0.557353 -0.005)
(0.550625 0.582647 -0.005)
(0.550625 0.607941 -0.005)
(0.550625 0.633235 -0.005)
(0.550625 0.658529 -0.005)
(0.550625 0.683824 -0.005)
(0.550625 0.709118 -0.005)
(0.550625 0.734412 -0.005)
(0.550625 0.759706 -0.005)
(0.550625 0.785 -0.005)
(0.550625 0.810294 -0.005)
(0.550625 0.835588 -0.005)
(0.550625 0.860882 -0.005)
(0.550625 0.886176 -0.005)
(0.550625 0.911471 -0.005)
(0.550625 0.936765 -0.005)
(0.550625 0.962059 -0.005)
(0.550625 0.987353 -0.005)
(0.571875 0.152647 -0.005)
(0.571875 0.177941 -0.005)
(0.571875 0.203235 -0.005)
(0.571875 0.228529 -0.005)
(0.571875 0.253824 -0.005)
(0.571875 0.279118 -0.005)
(0.571875 0.304412 -0.005)
(0.571875 0.329706 -0.005)
(0.571875 0.355 -0.005)
(0.571875 0.380294 -0.005)
(0.571875 0.405588 -0.005)
(0.571875 0.430882 -0.005)