/*--------------------------------*- C++ -*----------------------------------*\
| =========                 |                                                 |
| \\      /  F ield         | OpenFOAM: The Open Source CFD Toolbox           |
|  \\    /   O peration     | Version:  v2012                                 |
|   \\  /    A nd           | Website:  www.openfoam.com                      |
|    \\/     M anipulation  |                                                 |
\*---------------------------------------------------------------------------*/
FoamFile
{
    version     2.0;
    format      ascii;
    class       volScalarField;
    location    "560";
    object      k;
}
// * * * * * * * * * * * * * * * * * * * * * * * * * * * * * * * * * * * * * //

dimensions      [0 2 -2 0 0 0 0];


internalField   nonuniform List<scalar> 
6018
(
0.0128401
0.0147041
0.0164846
0.0181981
0.0198899
0.0216181
0.0234443
0.0254342
0.0276634
0.0302234
0.0332308
0.0368395
0.0412583
0.0467806
0.0538306
0.0630392
0.0753707
0.0923531
0.116536
0.15248
0.0179012
0.0198198
0.0219103
0.0241848
0.0266713
0.0294238
0.0325099
0.0360079
0.0400105
0.0446293
0.05
0.05629
0.0637057
0.0725067
0.0830068
0.0955847
0.110681
0.128764
0.150245
0.17515
0.0316161
0.0344607
0.037419
0.040528
0.0438359
0.0473988
0.0512789
0.0555446
0.0602723
0.0655487
0.0714724
0.0781585
0.0857418
0.0943677
0.104213
0.115478
0.128379
0.143147
0.160029
0.179314
0.0417095
0.0446644
0.047728
0.0509438
0.0543567
0.0580137
0.0619644
0.0662622
0.070966
0.0761417
0.0818639
0.0882189
0.0953063
0.103245
0.112179
0.122285
0.13378
0.14695
0.162184
0.180037
0.0470547
0.049854
0.0527892
0.0558986
0.0592187
0.0627868
0.0666424
0.0708285
0.0753937
0.0803934
0.0858925
0.0919679
0.0987126
0.106243
0.114705
0.124288
0.135239
0.147888
0.162684
0.18024
0.048275
0.0508326
0.0535683
0.056515
0.0597029
0.0631637
0.0669321
0.0710478
0.0755564
0.080509
0.0859727
0.092022
0.0987481
0.106265
0.114718
0.124295
0.135243
0.14789
0.162685
0.18024
0.045391
0.0476171
0.050077
0.0527974
0.0558047
0.0591283
0.0628029
0.0668714
0.0714043
0.0764565
0.0820866
0.0883727
0.0954095
0.103312
0.112222
0.122309
0.133793
0.146956
0.162186
0.180037
0.037533
0.039219
0.041197
0.0434902
0.0461195
0.0491107
0.0525425
0.0564857
0.0609687
0.06606
0.0718458
0.0784269
0.0859281
0.0944917
0.104293
0.115527
0.128406
0.14316
0.160033
0.179315
0.0234822
0.0242576
0.0253674
0.0268204
0.0286477
0.0309284
0.0336716
0.0369022
0.040695
0.0451489
0.0503903
0.0565805
0.0639197
0.0726612
0.0831138
0.0956548
0.110723
0.128785
0.150253
0.175151
0.020793
0.0206373
0.0208019
0.0213203
0.0221451
0.023246
0.0246148
0.0262727
0.028262
0.0306494
0.0335328
0.0370516
0.041405
0.0468795
0.0538946
0.0630781
0.075392
0.0923631
0.11654
0.152481
0.000126293
0.000150346
0.000146922
0.000115317
7.02414e-05
3.34616e-05
1.3475e-05
5.60468e-06
3.87419e-06
8.04957e-06
2.80964e-05
6.68076e-05
0.00010889
0.000136475
0.000142996
0.000141603
0.000139129
0.000143087
0.000156125
0.000167003
0.000173429
0.000184179
0.000198111
0.000201475
0.000196899
0.000251428
0.000507014
0.00101085
0.00188622
0.0031862
0.00487665
0.0068176
0.00884938
0.0108765
0.000511178
0.000433428
0.000309928
0.000213386
0.000140189
8.83124e-05
5.45994e-05
3.52335e-05
2.91084e-05
5.96059e-05
0.00020755
0.000448298
0.000658483
0.000744336
0.000738049
0.000761362
0.000834947
0.00098606
0.00118481
0.0013718
0.00153724
0.00194422
0.00262458
0.00339773
0.00429104
0.0053038
0.00643147
0.00764543
0.00893624
0.0102996
0.0117142
0.0131503
0.0145628
0.0161363
0.00125793
0.00118165
0.00100672
0.000788596
0.000575502
0.000400473
0.000273268
0.00019174
0.000162101
0.000272218
0.00081138
0.00165696
0.0024667
0.00304605
0.00360706
0.00414109
0.00478174
0.00574759
0.00691974
0.00790388
0.00871385
0.00940512
0.010072
0.0107963
0.011665
0.0127037
0.0139351
0.0153727
0.0170341
0.0189184
0.0211131
0.0235466
0.0261357
0.0288324
0.00186047
0.00175861
0.00156656
0.00132843
0.00106075
0.000805256
0.000595291
0.000453334
0.000439655
0.000831129
0.00220257
0.0041044
0.00591601
0.00777678
0.00930542
0.0109382
0.0126154
0.0140675
0.0148514
0.0150057
0.0149293
0.0149632
0.0152878
0.0159771
0.0170506
0.0185001
0.0203053
0.02243
0.0248512
0.0274779
0.0302334
0.0330602
0.0359169
0.0387942
0.00255696
0.00242234
0.00216645
0.00185769
0.00152949
0.0012134
0.0009494
0.000812207
0.00111537
0.00267503
0.00556108
0.00896822
0.0121169
0.0146602
0.0166739
0.0183906
0.0194506
0.0196374
0.0191074
0.0183275
0.0178754
0.0179622
0.0186294
0.0198379
0.0215125
0.0235627
0.0258926
0.0284094
0.0310312
0.0336916
0.0363531
0.0390047
0.0416532
0.0443247
0.00348914
0.00323652
0.00286593
0.00244068
0.00201616
0.00163694
0.00137855
0.00154855
0.0031866
0.00714618
0.0120484
0.0165392
0.0195125
0.0215699
0.022863
0.0232447
0.0226854
0.021476
0.020231
0.0194887
0.0194655
0.0201466
0.0214235
0.0231561
0.0252024
0.0274363
0.0297578
0.0320972
0.0344149
0.0366983
0.0389564
0.0412114
0.0434927
0.0458353
0.00465246
0.00422386
0.00366902
0.00306863
0.00252508
0.00213437
0.00216801
0.00359931
0.00781725
0.0141694
0.0199992
0.0236952
0.0256729
0.026355
0.0259262
0.0245966
0.0227752
0.0211961
0.0202718
0.0201564
0.020785
0.0219895
0.0235837
0.0254005
0.0273081
0.0292153
0.0310701
0.0328545
0.0345764
0.0362612
0.0379438
0.0396604
0.0414406
0.043335
0.00594366
0.00525408
0.00446221
0.00368668
0.00310583
0.00301439
0.00422198
0.00821806
0.015297
0.0221295
0.0268612
0.0289929
0.0291187
0.0278929
0.025759
0.023469
0.0215919
0.0204938
0.0202399
0.0207109
0.0216995
0.0229913
0.0244079
0.0258195
0.0271444
0.0283434
0.0294126
0.0303704
0.0312512
0.0320986
0.0329589
0.0338822
0.0349215
0.0361128
0.00722749
0.00626846
0.00524999
0.00442212
0.00415345
0.00525618
0.00892216
0.015392
0.0229843
0.0287655
0.0314439
0.0313239
0.0293826
0.0265983
0.0238315
0.0216616
0.0203446
0.0198838
0.0201057
0.0207733
0.0216564
0.0225694
0.0233821
0.024017
0.0244378
0.0246408
0.0246405
0.0244678
0.0241645
0.0237798
0.023382
0.0230566
0.0228989
0.0230124
0.00846408
0.00727914
0.0062319
0.00577192
0.00666101
0.00970513
0.0153823
0.0227064
0.0293045
0.0328694
0.0329499
0.0306027
0.0272912
0.0240751
0.0215703
0.0199918
0.0192721
0.0191994
0.019514
0.0199773
0.0204033
0.0206656
0.0206939
0.0204619
0.0199787
0.0192803
0.0184219
0.0174615
0.0164589
0.0154836
0.0146251
0.014032
0.0141881
0.0158969
7.45658e-07
3.95892e-06
9.70338e-06
1.79519e-05
4.3927e-05
8.55995e-05
3.41039e-06
1.43679e-05
8.62438e-05
0.000253877
0.000414777
0.000507109
7.43853e-06
4.98055e-05
0.000304326
0.000674981
0.000997543
0.00119627
1.05465e-05
0.000122273
0.000559738
0.00109213
0.00152154
0.00177943
1.39229e-05
0.00025599
0.000915266
0.00162936
0.0021758
0.00249081
4.38608e-05
0.000493361
0.0014375
0.00239316
0.00309853
0.00347313
0.000184541
0.000874576
0.00219648
0.00348122
0.00436574
0.0047405
0.000536824
0.00143697
0.00327496
0.00497063
0.00599647
0.00627083
0.00111479
0.002214
0.00474792
0.00686243
0.0078846
0.00789618
0.00178756
0.00322711
0.00662578
0.0090411
0.0098642
0.00949557
0.00976249
0.00854046
0.00793904
0.00852733
0.0109916
0.0157371
0.0222962
0.0288781
0.0331369
0.0337915
0.0314763
0.0278102
0.024195
0.0213639
0.01952
0.0185522
0.0182148
0.0182422
0.0184083
0.0185526
0.0185863
0.0184839
0.0182656
0.0179651
0.0175337
0.016958
0.0161731
0.0150988
0.0136713
0.0118628
0.00971194
0.00736527
0.00506763
0.00359137
0.0113858
0.0105624
0.0107842
0.0126039
0.016402
0.021941
0.027991
0.0325101
0.0338572
0.031988
0.0283003
0.0244008
0.0212559
0.0191449
0.0179567
0.0174379
0.0173331
0.0174466
0.0176641
0.0179469
0.0183035
0.018747
0.0192463
0.0196881
0.0198872
0.0196426
0.0187493
0.0170976
0.0147094
0.0116633
0.00792967
0.00438289
0.00184198
0.000665639
0.0136319
0.0133941
0.0145395
0.0173977
0.0218702
0.0271057
0.0314888
0.0333507
0.0321234
0.0287237
0.0247309
0.0213288
0.0189684
0.0176012
0.0169935
0.0169118
0.0171965
0.0177737
0.0186353
0.0197829
0.0211641
0.022618
0.0238565
0.0245076
0.024229
0.0227934
0.0202112
0.0167513
0.0129509
0.00948939
0.00660767
0.00422152
0.00205271
0.000478985
0.0163749
0.016834
0.0187715
0.0221927
0.0265019
0.0304552
0.0325564
0.0319441
0.0290318
0.0251539
0.0216017
0.0190297
0.0175187
0.0168906
0.0169411
0.0175403
0.0186395
0.0202239
0.0222386
0.0245036
0.0266698
0.0282432
0.0287076
0.0277024
0.0251761
0.021434
0.0171573
0.0133718
0.0102394
0.00800567
0.00620653
0.00455544
0.00243386
0.000438858
0.0194941
0.0205512
0.0229563
0.0263162
0.0296641
0.0317388
0.0315859
0.029217
0.0256192
0.0220454
0.0193196
0.0176911
0.0170758
0.0173128
0.0182924
0.0199681
0.0222897
0.0251014
0.0280584
0.0306123
0.0321179
0.0320338
0.0301382
0.0266367
0.0220827
0.0175254
0.0138032
0.0110867
0.00900331
0.00741714
0.00612793
0.00482011
0.00271953
0.000419816
0.0227007
0.0241304
0.026565
0.0292576
0.0311051
0.0312085
0.0293254
0.0260937
0.0226146
0.0198024
0.0180782
0.0174794
0.0179051
0.0192663
0.0215001
0.0244974
0.0279791
0.0314284
0.0341357
0.0353815
0.0346899
0.0320076
0.0277002
0.0224493
0.0178231
0.0143078
0.0115905
0.00954538
0.00803801
0.00690635
0.00597723
0.00490377
0.00285998
0.00038153
0.0256424
0.0271186
0.0291365
0.0307702
0.0309589
0.0294401
0.0265763
0.0232667
0.0204303
0.0186264
0.0180269
0.0186069
0.0202997
0.0230189
0.026581
0.0305848
0.0343583
0.0370768
0.0380038
0.0367436
0.0333483
0.0282674
0.0224245
0.0179136
0.0143338
0.0116038
0.00956763
0.00808374
0.00702028
0.00625188
0.00561684
0.00475406
0.00282579
0.000335437
0.0281007
0.029296
0.0305221
0.0308893
0.0296451
0.0270962
0.0239764
0.0211588
0.0192862
0.0186485
0.0193182
0.0212523
0.0243413
0.028324
0.0326835
0.0366287
0.0392596
0.0398534
0.0380799
0.0339942
0.0278523
0.0220464
0.0173572
0.0137444
0.0110253
0.00901657
0.0075924
0.00658584
0.00589623
0.00543226
0.0050418
0.00435625
0.00256643
0.000324337
0.0299105
0.0305403
0.0307912
0.0299741
0.0277003
0.024754
0.0219618
0.0200137
0.0192943
0.0199589
0.0220149
0.0253242
0.029558
0.034096
0.0380579
0.0405057
0.0407437
0.0384971
0.0338259
0.026627
0.0206701
0.0159996
0.0124615
0.00984024
0.00799434
0.00668276
0.00576207
0.00513271
0.0047321
0.00450099
0.00427898
0.00373928
0.00218068
0.000314023
0.0309912
0.0308888
0.0301722
0.0284119
0.0256379
0.0228487
0.0207844
0.019919
0.0204816
0.0225183
0.0258835
0.0301904
0.0347348
0.0385669
0.0407342
0.0405805
0.037889
0.0326925
0.0248096
0.0185889
0.0139116
0.0105639
0.00818509
0.00654368
0.00543658
0.00466643
0.00413026
0.00377922
0.0035944
0.00352681
0.00344924
0.0030799
0.00175386
0.000292662
0.0313755
0.0305149
0.0289938
0.0266335
0.0238412
0.0216031
0.0205049
0.0208659
0.0227441
0.0260002
0.0302158
0.0346243
0.0382175
0.040035
0.0394643
0.0363701
0.0309128
0.0230846
0.016282
0.0116314
0.00838574
0.0063258
0.00494307
0.0040242
0.0034158
0.00300173
0.00272808
0.00258293
0.00256731
0.00263199
0.00270776
0.00246261
0.00133393
0.000251599
0.0311837
0.0296515
0.0275681
0.0249574
0.0225227
0.0211091
0.0211322
0.0227178
0.0257222
0.029707
0.0338802
0.0371878
0.0386474
0.0376785
0.0342244
0.0286151
0.0211751
0.0145003
0.00956465
0.00656678
0.00470481
0.00354393
0.00280062
0.0023102
0.00197968
0.00176266
0.0016495
0.0016502
0.00176053
0.00195317
0.00211089
0.00191957
0.000941565
0.000206553
0.0305759
0.0285291
0.026153
0.0236143
0.0218175
0.0213865
0.0225089
0.0251362
0.0287898
0.0326697
0.0357045
0.0368756
0.0356015
0.0318856
0.026195
0.0192082
0.0128409
0.00821494
0.0052825
0.00365983
0.00275025
0.00218777
0.00178589
0.00147738
0.00122991
0.00105662
0.000985569
0.00104279
0.00121688
0.00147214
0.0016357
0.00140846
0.000597022
0.000169336
0.0297081
0.0273216
0.0248543
0.0226869
0.0216807
0.0222445
0.0243487
0.0275922
0.0311606
0.0339761
0.0349856
0.0335682
0.0297487
0.0241037
0.0175569
0.0113292
0.0070121
0.00445251
0.00313523
0.00247197
0.00208456
0.00180347
0.00154854
0.00128426
0.00101667
0.000795568
0.000682693
0.000717357
0.000888007
0.00110657
0.00119841
0.000949486
0.000361169
0.000124253
0.0287152
0.0261629
0.0237983
0.0222054
0.0220584
0.023499
0.026233
0.0294771
0.032149
0.0331478
0.0317837
0.0280433
0.0225382
0.0162485
0.0103452
0.00611522
0.00384314
0.00280924
0.0023342
0.00207578
0.00190237
0.001754
0.00158592
0.00136277
0.00108094
0.000794994
0.000596614
0.000549722
0.000645858
0.000786896
0.000811978
0.000595402
0.000209243
7.75041e-05
0.0277008
0.0251413
0.0230377
0.0221026
0.0227419
0.0248461
0.0277156
0.0302937
0.0314304
0.0303205
0.0268594
0.0216333
0.0156314
0.00994891
0.0056617
0.00342664
0.00254409
0.00218267
0.00199881
0.00188947
0.0018186
0.00175911
0.0016761
0.0015266
0.00127848
0.000953429
0.000648186
0.000471697
0.000454395
0.000521237
0.000513403
0.000354578
0.000116238
4.00499e-05
0.0267232
0.024242
0.0225373
0.0222766
0.0235695
0.0259673
0.0284394
0.0298105
0.0291359
0.0261426
0.0213316
0.0156678
0.0102009
0.00587425
0.00332894
0.00234197
0.00202339
0.00187719
0.00179302
0.00174638
0.00172861
0.00172688
0.00171702
0.00165994
0.00150465
0.0012197
0.000849317
0.000522381
0.000352885
0.000334212
0.000310824
0.0002044
6.18506e-05
1.734e-05
0.0258141
0.0234824
0.0222545
0.0225966
0.0243309
0.0266109
0.0282306
0.0281153
0.0257582
0.0214793
0.0161753
0.0109203
0.0065301
0.00365421
0.00232783
0.00190625
0.00178025
0.0017105
0.00166489
0.00163934
0.00163757
0.00165688
0.00168546
0.00169862
0.00165235
0.00148671
0.00116822
0.000754575
0.000402478
0.000241499
0.000190191
0.000116868
3.19966e-05
6.74467e-06
0.0249922
0.0228781
0.0221539
0.0229687
0.0248521
0.0266415
0.0271289
0.0255534
0.0219536
0.0171136
0.0119971
0.00753352
0.00431321
0.00257448
0.00192569
0.00174511
0.00168957
0.00165485
0.00162389
0.00159678
0.00158519
0.00159338
0.00162066
0.00165536
0.00167466
0.00162919
0.00145172
0.00110425
0.000651173
0.000278569
0.000141531
7.19358e-05
1.72746e-05
2.92585e-06
0.0242064
0.0223952
0.0221166
0.0232791
0.025023
0.0260495
0.0253278
0.0225471
0.0182406
0.0133672
0.0088423
0.00529008
0.00308314
0.00209416
0.00179233
0.00172414
0.00170746
0.00169421
0.00167141
0.00164058
0.00160716
0.00158368
0.00158189
0.00159666
0.00162054
0.0016297
0.00156908
0.00136843
0.000990643
0.000518258
0.000179059
6.11582e-05
1.21719e-05
2.22302e-06
0.023494
0.0220301
0.0221313
0.0234496
0.0248114
0.0249343
0.0231104
0.0195058
0.0149642
0.0104255
0.00658439
0.00389019
0.00245039
0.00191642
0.00179505
0.00178885
0.00179879
0.00180085
0.00178421
0.00175065
0.00170578
0.001657
0.00160883
0.00158395
0.00157428
0.00157421
0.00155356
0.00145254
0.00120186
0.000781092
0.000309455
8.06636e-05
1.50185e-05
3.41846e-06
0.0228494
0.0217205
0.0221486
0.0234418
0.0242518
0.0234575
0.0207531
0.0167011
0.0122497
0.00818758
0.00503331
0.00306307
0.0021604
0.00189657
0.0018761
0.00190944
0.00193887
0.00195217
0.00194104
0.00190682
0.00185332
0.00178611
0.00171225
0.00164306
0.00158874
0.00154852
0.00151235
0.00144198
0.00127245
0.000944223
0.000489221
0.000122762
2.24639e-05
5.88793e-06
0.0222789
0.0214796
0.0221412
0.0232538
0.0234208
0.0217914
0.0184659
0.0142617
0.0100781
0.00653167
0.00400602
0.00260468
0.00206403
0.00196275
0.00200344
0.00206372
0.00210741
0.00212883
0.00212355
0.00209274
0.00203853
0.00196386
0.00187309
0.00177294
0.00167488
0.0015893
0.00151325
0.00143044
0.00129189
0.00102996
0.000614718
0.000184564
2.94664e-05
8.92999e-06
0.0217854
0.0212991
0.0220938
0.0229077
0.0224108
0.0200837
0.0163774
0.012218
0.0083777
0.00533424
0.00334942
0.00237613
0.00207588
0.0020745
0.00215347
0.00223146
0.00228511
0.00231065
0.00231088
0.00228602
0.00223696
0.00216417
0.00206873
0.00195375
0.0018261
0.00169747
0.00157721
0.00146059
0.00131944
0.00109398
0.000724731
0.000273666
3.93979e-05
1.17493e-05
0.0213689
0.0211684
0.0220015
0.0224397
0.0213106
0.0184417
0.0145449
0.0105429
0.0070669
0.00448617
0.00294698
0.00228763
0.00214624
0.00220679
0.00230883
0.00239677
0.00245577
0.00248377
0.00248871
0.00247093
0.00243074
0.00236675
0.00227682
0.00216003
0.00201911
0.00186224
0.00170144
0.00154402
0.00137898
0.00116319
0.000829601
0.000374241
5.45374e-05
1.34929e-05
0.021025
0.0210755
0.0218698
0.021892
0.020194
0.0169302
0.0129777
0.00918852
0.00606896
0.00389753
0.0027149
0.00228233
0.00224548
0.00234371
0.00245793
0.00254939
0.00260948
0.00263909
0.00264756
0.00263684
0.00260726
0.00255635
0.0024795
0.00237191
0.00223156
0.00206211
0.00187367
0.0016785
0.00147924
0.00125127
0.000933857
0.00048265
8.09867e-05
1.45706e-05
0.0207582
0.0210165
0.0217084
0.0213038
0.019115
0.0155811
0.01166
0.00810395
0.00531773
0.00349788
0.00259495
0.00232453
0.00235584
0.00247568
0.00259425
0.00268444
0.00274243
0.00277165
0.00278215
0.00277772
0.00275911
0.00272338
0.00266425
0.00257378
0.00244538
0.00227754
0.00207641
0.00185427
0.00162112
0.00136816
0.00104901
0.000599915
0.000127178
1.51029e-05
0.0205585
0.020984
0.0215248
0.0207073
0.0181093
0.0144031
0.0105645
0.00724236
0.00475847
0.003234
0.00254743
0.00239195
0.00246678
0.00259729
0.00271455
0.00279985
0.00285311
0.0028799
0.00289077
0.00289131
0.00288301
0.00286297
0.00282391
0.00275543
0.00264696
0.00249191
0.00229177
0.00205656
0.00179836
0.00151776
0.00118431
0.000732686
0.000199671
1.42534e-05
0.0204201
0.0209695
0.0213136
0.0201244
0.017197
0.013391
0.00966175
0.00656322
0.00434714
0.00306664
0.00254569
0.00247085
0.00257236
0.002706
0.00281793
0.00289568
0.00294209
0.00296458
0.00297416
0.00297809
0.00297885
0.00297396
0.00295562
0.00291165
0.00282805
0.00269351
0.00250472
0.00226914
0.00199902
0.00169749
0.0013434
0.000884714
0.000301764
1.36324e-05
0.0203294
0.0209687
0.0210917
0.0195728
0.0163874
0.0125327
0.00892399
0.00603252
0.00404912
0.00296739
0.00257202
0.00255297
0.00266957
0.00280117
0.00290506
0.00297339
0.00301133
0.00302789
0.00303458
0.00304021
0.00304845
0.00305759
0.00305969
0.00304114
0.00298503
0.00287568
0.00270504
0.00247805
0.00220849
0.0018995
0.00152654
0.00105731
0.000436184
3.64207e-05
0.0202762
0.0209646
0.0208712
0.0190628
0.0156816
0.0118138
0.00832678
0.0056223
0.00383766
0.00291594
0.00261483
0.00263358
0.00275725
0.00288342
0.00297758
0.00303534
0.00306363
0.00307287
0.00307518
0.00308077
0.00309477
0.00311652
0.00313825
0.00314519
0.0031177
0.00303606
0.00288742
0.00267398
0.00241258
0.00211126
0.00173774
0.00125029
0.000603647
0.000110811
0.0202529
0.0209553
0.0206609
0.0186023
0.0150766
0.0112196
0.00784917
0.00530995
0.00369241
0.00289792
0.00266667
0.00271015
0.00283543
0.00295405
0.00303763
0.00308426
0.00310221
0.00310303
0.00309958
0.00310345
0.0031214
0.00315416
0.00319445
0.00322648
0.00322801
0.00317523
0.00305048
0.00285246
0.00260168
0.00231741
0.00196264
0.00146128
0.00080327
0.000276928
0.0202522
0.0209447
0.0204675
0.0181965
0.0145678
0.0107371
0.00747367
0.00507746
0.00359809
0.00290332
0.00272289
0.00278157
0.00290475
0.00301471
0.0030875
0.00312297
0.0031303
0.00312197
0.00311164
0.00311224
0.00313236
0.00317446
0.00323204
0.00328848
0.00331891
0.00329542
0.00319534
0.00301296
0.00277135
0.00250704
0.00218734
0.00168579
0.00102997
0.000563463
0.020267
0.0209362
0.0202964
0.0178482
0.0141493
0.0103538
0.00718589
0.00491072
0.00354341
0.00292527
0.00278069
0.00284753
0.00296619
0.00306705
0.00312937
0.00315407
0.00315093
0.00313315
0.00311513
0.00311116
0.00313189
0.00318174
0.00325523
0.00333511
0.00339396
0.00339965
0.00332434
0.00315713
0.00292169
0.00267187
0.00239978
0.00192986
0.00127279
0.000957709
0.0202925
0.0209328
0.0201516
0.0175585
0.0138151
0.0100591
0.00697423
0.00479894
0.00352019
0.00295919
0.00283852
0.00290823
0.00302077
0.00311261
0.00316509
0.00317974
0.00316659
0.00313959
0.00311349
0.00310414
0.00312433
0.00318062
0.00326866
0.00337074
0.003457
0.00349118
0.00344025
0.0032877
0.00305554
0.00281361
0.0025904
0.00217792
0.00151733
0.00139931
0.0203257
0.020937
0.0200359
0.0173267
0.0135593
0.00984438
0.00682962
0.00473405
0.0035227
0.00300213
0.00289561
0.00296404
0.00306942
0.00315255
0.00319605
0.00320151
0.00317937
0.00314368
0.00310966
0.00309479
0.00311403
0.00317595
0.00327739
0.00340019
0.00351224
0.00357338
0.00354566
0.00340707
0.00317615
0.00293482
0.00275464
0.00241615
0.00175125
0.00181819
0.0203605
0.0209505
0.0199513
0.0171518
0.0133766
0.00970253
0.0067452
0.00471038
0.0035472
0.00305242
0.00295176
0.00301547
0.00311283
0.00318758
0.00322298
0.00322054
0.00319078
0.00314705
0.00310593
0.00308637
0.0031052
0.00317273
0.00328676
0.00342866
0.00356424
0.00364982
0.00364305
0.00351702
0.00328624
0.00304016
0.00289369
0.00263552
0.00196902
0.00216563
0.0203924
0.0209744
0.0198988
0.0170319
0.0132623
0.00962814
0.00671613
0.00472428
0.0035916
0.00310949
0.00300731
0.00306311
0.0031515
0.00321784
0.00324578
0.00323673
0.00320034
0.00315023
0.003104
0.00308184
0.00310202
0.00317607
0.00330235
0.00346163
0.00361781
0.00372418
0.00373477
0.00361891
0.0033877
0.00313465
0.00300965
0.00283222
0.00217418
0.00241311
0.0204223
0.0210092
0.0198787
0.0169648
0.0132126
0.00961713
0.00673933
0.00477399
0.00365528
0.00317399
0.0030635
0.00310804
0.0031859
0.00324285
0.00326327
0.00324843
0.00320707
0.00315334
0.00310547
0.00308427
0.00310881
0.0031912
0.00332982
0.00350464
0.00367779
0.00380015
0.00382308
0.00371368
0.0034816
0.00322263
0.00310747
0.0030049
0.00236876
0.00254307
0.0204508
0.0210552
0.0198908
0.0169483
0.0132237
0.00966601
0.00681292
0.00485967
0.00373827
0.00325001
0.00312511
0.00315322
0.00321628
0.0032617
0.00327523
0.00325548
0.00321115
0.00315677
0.00311102
0.00309492
0.00312791
0.00322196
0.00337454
0.00356395
0.00375024
0.00388219
0.00391006
0.00380204
0.0035685
0.00330732
0.00319672
0.00315489
0.00254823
0.00255993
0.0204786
0.021112
0.0199334
0.0169786
0.013288
0.00976692
0.00693285
0.00498576
0.00385834
0.00334894
0.00319746
0.00320119
0.00324439
0.00327762
0.00328393
0.00325963
0.00321391
0.00316135
0.00312117
0.00311443
0.00316047
0.00327035
0.00343966
0.00364413
0.00384126
0.0039778
0.00400332
0.00388803
0.00364767
0.00338687
0.00328729
0.00328755
0.00271307
0.0024845
0.0205065
0.0211735
0.0199946
0.0170433
0.0134052
0.00992955
0.0071155
0.00516664
0.0040196
0.00347502
0.00328535
0.00325649
0.00327557
0.00329447
0.00329192
0.00326353
0.00321783
0.00316964
0.00313881
0.00314629
0.00321069
0.00334117
0.00353023
0.00375008
0.00395513
0.00409031
0.00410543
0.00397432
0.00372104
0.00346022
0.00337687
0.00342016
0.00285405
0.00234383
0.0205353
0.0212399
0.0200744
0.0171438
0.013572
0.0101516
0.00736089
0.0054049
0.00422694
0.00363469
0.00339579
0.00332528
0.0033163
0.0033178
0.0033044
0.00327183
0.00322745
0.00318655
0.00316945
0.00319671
0.00328534
0.00344129
0.00365262
0.00388704
0.00409553
0.00422165
0.00421668
0.0040603
0.00378805
0.00352714
0.00346391
0.00355109
0.00298309
0.00215714
0.0205682
0.0213143
0.0201736
0.0172821
0.0137789
0.0104271
0.00766925
0.00570432
0.00448708
0.00383666
0.00353805
0.00341793
0.00337553
0.00335517
0.00332897
0.0032919
0.00325013
0.00322003
0.00322184
0.00327505
0.00339395
0.00357963
0.00381431
0.00406034
0.00426531
0.00437218
0.0043355
0.0041436
0.003847
0.00358705
0.00354676
0.00366728
0.00309482
0.00193886
0.0206095
0.0214003
0.0202938
0.0174567
0.0140254
0.0107552
0.00804153
0.00606971
0.0048081
0.00409119
0.0037226
0.00354668
0.00346529
0.00341812
0.00337694
0.00333491
0.00329724
0.0032822
0.00330889
0.00339456
0.00354907
0.00376704
0.00402341
0.00427478
0.00446573
0.00454
0.00445786
0.00421981
0.0038949
0.00363904
0.00362277
0.00374791
0.00318165
0.00169923
0.0206648
0.0215028
0.0204366
0.0176661
0.0143123
0.0111351
0.00847811
0.00650515
0.00519745
0.00440733
0.00396349
0.0037268
0.0036012
0.00352292
0.00346443
0.00341707
0.00338536
0.00339058
0.00344859
0.00357271
0.00376627
0.00401564
0.00428776
0.0045334
0.00469521
0.00471979
0.00457645
0.00428211
0.00392742
0.00367893
0.00368811
0.00379579
0.00323309
0.00144976
0.0207413
0.0216276
0.0206051
0.0179098
0.0146434
0.0115618
0.00897332
0.00701029
0.0056566
0.00479413
0.00427634
0.00397675
0.0038026
0.00369048
0.00361304
0.00356061
0.00353773
0.00356918
0.00366452
0.00383095
0.00406306
0.00433753
0.00461305
0.00483562
0.00494761
0.00490148
0.00467996
0.00432118
0.0039396
0.00370621
0.00373832
0.00381379
0.00323526
0.00120579
0.0208481
0.0217827
0.0208037
0.0181896
0.0150232
0.0120337
0.00951386
0.00757048
0.00618712
0.00526503
0.00467934
0.00431836
0.00409451
0.00394742
0.00385068
0.00379467
0.00378628
0.00384912
0.00398518
0.00419301
0.00445649
0.00474187
0.00500023
0.00517455
0.00520992
0.00506867
0.00475256
0.00432572
0.00392691
0.00371814
0.00376303
0.00379355
0.00317248
0.000966655
0.0209912
0.0219775
0.0210387
0.0185096
0.0154478
0.0125537
0.0101087
0.00819895
0.0068033
0.00583663
0.00519327
0.00477677
0.00450588
0.00432545
0.00421117
0.00415474
0.00416974
0.00426574
0.00444046
0.00468091
0.00495879
0.00523044
0.00544116
0.00553358
0.00545961
0.0051974
0.00477428
0.00428438
0.00388185
0.00371098
0.00375086
0.00372237
0.00302753
0.000741918
0.0211823
0.0222227
0.0213192
0.0188726
0.0159166
0.0131287
0.0107712
0.00891079
0.00752119
0.00652788
0.00584157
0.00538039
0.00506941
0.00486085
0.00473344
0.0046807
0.00472207
0.00485133
0.00505537
0.00530846
0.00557097
0.00579159
0.00591302
0.00588179
0.0056622
0.00525607
0.00472351
0.00418909
0.00380983
0.00368416
0.00369942
0.00358414
0.0027889
0.000541914
0.0214418
0.0225296
0.0216568
0.019282
0.0164398
0.0137725
0.0115175
0.00972392
0.00836084
0.00736187
0.00665172
0.00616184
0.00582234
0.00559463
0.00546087
0.00541622
0.00548362
0.00563469
0.00584353
0.00607266
0.00627409
0.00639249
0.00637227
0.00616975
0.00577012
0.00520837
0.00458263
0.00403954
0.0037129
0.00362576
0.00358392
0.00335016
0.0024487
0.000452663
0.0217934
0.0229186
0.0220641
0.0197544
0.0170359
0.0145051
0.0123705
0.0106639
0.00935017
0.00836965
0.00765876
0.00716036
0.00680761
0.00657148
0.00643732
0.00640194
0.00648129
0.00662278
0.00679042
0.00693933
0.00701752
0.00696972
0.00674798
0.00632754
0.0057262
0.00502158
0.00434616
0.00384328
0.00358814
0.0035096
0.00336088
0.00297798
0.00198457
0.000405801
0.0222693
0.0234112
0.0225782
0.0203168
0.0177328
0.0153579
0.0133647
0.0117682
0.0105295
0.00959402
0.0089075
0.0084209
0.00806806
0.00782837
0.00769031
0.0076632
0.00770502
0.00777549
0.00783222
0.00782669
0.00770585
0.00741956
0.00693782
0.00626864
0.00547612
0.00468093
0.00402497
0.00360653
0.00341326
0.00328071
0.00296384
0.00241126
0.00132455
0.000341832
0.0229186
0.0240556
0.0232438
0.0210117
0.0185769
0.0163803
0.0145525
0.0130911
0.0119531
0.0110878
0.010446
0.00997838
0.00962204
0.00936314
0.00919101
0.00910989
0.00904891
0.00897135
0.00883422
0.00858878
0.00818561
0.00759214
0.00681373
0.00590918
0.00499262
0.00420071
0.00363529
0.00331261
0.00312778
0.00285546
0.00231785
0.00164673
0.000735738
0.000265133
0.0238243
0.0249292
0.0241368
0.0219122
0.0196457
0.017651
0.0160103
0.0147038
0.013683
0.0128965
0.0122926
0.01181
0.0114099
0.0110818
0.0108146
0.0105855
0.0103279
0.0100066
0.00957894
0.00899985
0.00823728
0.00730057
0.00625428
0.00521061
0.00429891
0.00361266
0.0031695
0.00289977
0.00263405
0.00216019
0.0014591
0.000719586
0.000340352
0.000196822
0.0251194
0.0261625
0.025391
0.0231449
0.0210633
0.0192802
0.0178257
0.0166598
0.0157238
0.0149613
0.0143117
0.0137267
0.0132004
0.012721
0.0122728
0.0117804
0.0112154
0.0105409
0.0097192
0.00872885
0.00759126
0.00638399
0.00522333
0.00422383
0.00345648
0.00292516
0.00256912
0.00226769
0.00185332
0.00123765
0.000575345
0.000269015
0.000152709
0.00012095
0.027126
0.0280181
0.0272477
0.024895
0.0229443
0.0212839
0.0199024
0.018742
0.0177349
0.016836
0.0159887
0.0152005
0.014459
0.0137376
0.0129677
0.0121068
0.0111287
0.0100125
0.00876171
0.00742197
0.00608488
0.00486238
0.00384448
0.0030631
0.00249797
0.00208994
0.00174879
0.00136578
0.000886399
0.000383364
0.00016657
0.000106328
6.45741e-05
5.40975e-05
0.0302024
0.0307181
0.0297801
0.0268913
0.0247481
0.0228931
0.021294
0.0198699
0.0185467
0.0173278
0.016197
0.0151343
0.0141087
0.0130105
0.0118224
0.0105502
0.0091982
0.00779492
0.00639645
0.00508931
0.0039518
0.00303766
0.0023465
0.00182043
0.00141652
0.00108109
0.000761685
0.000421982
0.000205628
9.0222e-05
4.98822e-05
3.88693e-05
2.3525e-05
1.63709e-05
0.0359578
0.0328753
0.0306364
0.0260157
0.022833
0.0202739
0.018188
0.0164251
0.0148687
0.0134729
0.0122025
0.0110038
0.00980014
0.00863069
0.00751338
0.00643943
0.00540753
0.00441836
0.00347929
0.00263989
0.00195592
0.00138565
0.000935037
0.000598408
0.00035402
0.000187908
0.000106768
5.79346e-05
2.89172e-05
1.4805e-05
1.10858e-05
9.86619e-06
5.94217e-06
3.19987e-06
0.0271268
0.0182004
0.0120453
0.00866717
0.00811374
0.00806015
0.00798763
0.00798725
0.00803614
0.0080799
0.0080859
0.00803063
0.00789043
0.00761728
0.0071712
0.0065116
0.00559837
0.00442231
0.00307174
0.00174415
0.00074471
0.000226522
4.66354e-05
4.145e-05
4.04323e-05
3.34146e-05
2.63364e-05
1.91357e-05
1.51917e-05
1.44225e-05
1.27402e-05
7.7252e-06
2.46952e-06
3.26888e-07
0.00242217
0.00448182
0.00882466
0.0113388
0.0118245
0.0110699
0.00299023
0.00603982
0.0113139
0.0137087
0.0137997
0.0127289
0.00346028
0.00779166
0.0138208
0.0159683
0.0157429
0.0146047
0.00384646
0.00966165
0.0162415
0.0181143
0.0178075
0.0168582
0.00418332
0.0116013
0.0184444
0.0202513
0.0200973
0.0195673
0.00451943
0.013459
0.0205147
0.0224648
0.0225487
0.0224009
0.00482765
0.0151445
0.0225683
0.024725
0.0250623
0.025117
0.00507534
0.0167921
0.024583
0.0269323
0.0274596
0.0275431
0.00527449
0.0184007
0.0265209
0.0289656
0.0294932
0.0295463
0.00543364
0.0199665
0.0283724
0.0308726
0.0311684
0.0310222
0.00554824
0.021466
0.0300579
0.0323623
0.0324139
0.0319303
0.00557696
0.0228642
0.031634
0.03353
0.0332233
0.0323025
0.00550911
0.0240743
0.0328153
0.0343569
0.0336225
0.032223
0.00545994
0.0252686
0.0337298
0.034865
0.0336679
0.031799
0.00545595
0.0261576
0.0343751
0.0350881
0.0334308
0.0311402
0.00594088
0.0269147
0.0347877
0.0350726
0.0329844
0.0303425
0.00666928
0.0275152
0.0349995
0.034867
0.0323939
0.0294783
0.00743058
0.0279366
0.0350364
0.0345154
0.0317122
0.0285977
0.00820461
0.0281817
0.034922
0.0340549
0.0309781
0.027732
0.00898104
0.0282549
0.0346808
0.0335143
0.0302165
0.0268936
0.00971774
0.0281912
0.0343367
0.0329161
0.0294457
0.0260942
0.0104219
0.0280084