/*--------------------------------*- C++ -*----------------------------------*\
| =========                 |                                                 |
| \\      /  F ield         | OpenFOAM: The Open Source CFD Toolbox           |
|  \\    /   O peration     | Version:  v2012                                 |
|   \\  /    A nd           | Website:  www.openfoam.com                      |
|    \\/     M anipulation  |                                                 |
\*---------------------------------------------------------------------------*/
FoamFile
{
    version     2.0;
    format      ascii;
    class       volScalarField;
    location    "560";
    object      nut;
}
// * * * * * * * * * * * * * * * * * * * * * * * * * * * * * * * * * * * * * //

dimensions      [0 2 -1 0 0 0 0];


internalField   nonuniform List<scalar> 
6018
(
5.65543e-05
6.45334e-05
7.2103e-05
7.93402e-05
8.64412e-05
9.36493e-05
0.000101217
0.000109406
0.000118512
0.00012888
0.000140942
0.000155252
0.000172537
0.000193783
0.00022036
0.000254196
0.000298054
0.000355958
0.000433975
0.000541689
0.000251005
0.000287257
0.000326428
0.00036815
0.000411908
0.000457766
0.000506497
0.000559083
0.000616713
0.000680786
0.000752978
0.000835402
0.000930805
0.00104272
0.00117601
0.00133773
0.00153862
0.00179615
0.00214571
0.00266708
0.000878763
0.000981971
0.00108206
0.00117845
0.00127162
0.00136292
0.00145409
0.00154691
0.00164314
0.00174443
0.00185241
0.00196875
0.00209526
0.00223359
0.00238511
0.00255075
0.00273039
0.00292149
0.00311722
0.00330254
0.00164268
0.00175819
0.00186356
0.00196081
0.00205214
0.00213963
0.00222504
0.00230981
0.00239501
0.00248146
0.0025697
0.00265997
0.0027522
0.00284609
0.00294098
0.00303559
0.00312813
0.00321642
0.00329822
0.00337185
0.00213758
0.00222609
0.00230673
0.00238183
0.00245319
0.0025221
0.0025895
0.00265598
0.0027219
0.00278739
0.00285245
0.0029169
0.00298045
0.0030428
0.00310359
0.0031625
0.00321934
0.00327416
0.00332736
0.00337979
0.00226269
0.00232247
0.00238036
0.00243766
0.00249519
0.00255341
0.00261253
0.00267264
0.00273369
0.00279535
0.00285767
0.00292022
0.00298251
0.00304402
0.00310428
0.00316286
0.00321951
0.00327422
0.00332738
0.00337979
0.00200931
0.00204505
0.00208533
0.00213041
0.00218026
0.00223482
0.00229403
0.00235791
0.00242817
0.00250423
0.00258508
0.00267012
0.00275876
0.00285024
0.00294347
0.00303698
0.00312882
0.00321671
0.00329831
0.00337186
0.00135515
0.00136696
0.00138768
0.00141645
0.00145253
0.0014956
0.00154931
0.0016155
0.00169213
0.00177909
0.00187673
0.00198574
0.00210702
0.00224152
0.00239028
0.00255395
0.00273221
0.00292238
0.00311757
0.00330261
0.000473024
0.000471004
0.000475923
0.000486191
0.000500699
0.000524125
0.000556358
0.00059639
0.000644463
0.000701301
0.000768091
0.000846543
0.00093897
0.00104864
0.00118023
0.00134067
0.00154053
0.00179729
0.00214634
0.0026673
9.02134e-05
8.95639e-05
9.02506e-05
9.24103e-05
9.58384e-05
0.000100398
0.000106041
0.00011284
0.000120945
0.000130596
0.000142146
0.000156087
0.000173106
0.00019416
0.000220598
0.000254337
0.000298128
0.000355991
0.000433986
0.00054169
5.70384e-07
6.78981e-07
6.63521e-07
5.20825e-07
3.1727e-07
1.51152e-07
6.08716e-08
2.53189e-08
1.75015e-08
3.63633e-08
1.26918e-07
3.01763e-07
4.918e-07
6.16357e-07
6.45797e-07
6.3951e-07
6.28339e-07
6.46207e-07
7.05074e-07
7.54182e-07
7.83192e-07
8.3172e-07
8.94606e-07
9.0979e-07
8.89137e-07
1.13525e-06
2.28809e-06
4.5572e-06
8.48866e-06
1.43017e-05
2.1816e-05
3.03823e-05
3.92799e-05
4.80875e-05
1.45337e-05
1.18592e-05
7.62696e-06
4.6378e-06
2.83773e-06
1.77321e-06
1.14327e-06
7.97077e-07
7.26318e-07
1.57154e-06
5.74337e-06
1.26404e-05
1.84945e-05
2.04387e-05
1.96424e-05
1.93762e-05
2.08014e-05
2.46443e-05
2.93486e-05
3.32182e-05
3.44402e-05
3.73295e-05
4.31019e-05
4.9045e-05
5.60073e-05
6.45967e-05
7.508e-05
8.73668e-05
0.000101739
0.000118699
0.000138581
0.000161669
0.000187776
0.000217594
7.6756e-05
7.45049e-05
6.20591e-05
4.25437e-05
2.6944e-05
1.72586e-05
1.17288e-05
8.8748e-06
8.71228e-06
1.70334e-05
5.70594e-05
0.000122385
0.000180718
0.000213
0.000232899
0.000229598
0.000226546
0.000228672
0.000219838
0.000207189
0.000196096
0.00018974
0.000189626
0.000195783
0.000208788
0.000229167
0.000257718
0.000295498
0.000344101
0.000405209
0.000480675
0.000569485
0.000668518
0.000772973
0.000126236
0.000132031
0.000126317
0.000106266
7.87674e-05
5.50028e-05
3.91898e-05
3.09972e-05
3.37033e-05
7.29092e-05
0.000207862
0.000380829
0.000510367
0.000585047
0.000575548
0.000520015
0.00047777
0.000445971
0.000411709
0.000380419
0.000359671
0.000353445
0.000363007
0.000388801
0.000431576
0.000492476
0.000572678
0.000672803
0.000792604
0.000928899
0.00107602
0.00122698
0.0013749
0.00151441
0.000179245
0.000190619
0.000187373
0.000170238
0.000140383
0.000107058
8.09709e-05
7.01291e-05
0.000102488
0.000255235
0.000490914
0.000687307
0.000790773
0.000796551
0.000727289
0.000642191
0.000592207
0.000565531
0.00054587
0.000517023
0.00051109
0.000530325
0.000575445
0.000646671
0.000743673
0.000864894
0.00100683
0.00116389
0.00132875
0.00149343
0.00165062
0.00179503
0.0019239
0.00203744
0.00026353
0.000278275
0.000271504
0.000246511
0.000208462
0.000166503
0.000136009
0.00015021
0.000300526
0.000592668
0.000847361
0.000981144
0.000962825
0.000858154
0.000780471
0.000735395
0.000715106
0.000686091
0.000654404
0.000651718
0.000681892
0.000744831
0.000838609
0.000959447
0.0011014
0.00125652
0.00141576
0.00157042
0.00171356
0.00184095
0.00195137
0.00204601
0.00212724
0.00219836
0.000395875
0.000411242
0.000391589
0.00034451
0.000287451
0.000237626
0.000229236
0.000347782
0.000641571
0.000959649
0.00111651
0.00107694
0.000993999
0.000928036
0.000890281
0.000866553
0.000804464
0.00076967
0.000768966
0.000805448
0.000877334
0.000979105
0.00110262
0.00123783
0.00137399
0.00150142
0.00161307
0.00170549
0.00177873
0.00183551
0.00187967
0.0019155
0.00194675
0.00197696
0.000581289
0.000585156
0.000537097
0.000456549
0.000380036
0.000347369
0.000428874
0.000687783
0.00103307
0.00121911
0.00120745
0.00114361
0.00108888
0.00105882
0.000977035
0.000903927
0.000862047
0.000858154
0.000892531
0.000960374
0.00105229
0.00115611
0.00125899
0.00134953
0.0014196
0.00146533
0.00148705
0.00148807
0.00147332
0.00144797
0.00141761
0.00138837
0.00136698
0.00135514
0.000805144
0.000783725
0.000690627
0.000578706
0.000510861
0.00055916
0.000771527
0.00107462
0.00133029
0.0013706
0.00131529
0.00126575
0.00118902
0.00107535
0.000986332
0.000932877
0.000918627
0.00094134
0.000992392
0.00105874
0.00112531
0.00117809
0.00120668
0.00120586
0.00117551
0.00111955
0.00104416
0.000956353
0.000862828
0.000769513
0.000681721
0.000603633
0.000538808
0.000496139
0.00103566
0.000967553
0.000837292
0.000726436
0.000730813
0.000875996
0.0011248
0.00137406
0.00152087
0.00151532
0.00143393
0.00129825
0.00116445
0.00105634
0.000985748
0.000955005
0.000958502
0.000984517
0.00101729
0.00104054
0.00104106
0.00101131
0.000950346
0.000863013
0.000757975
0.000645224
0.000533911
0.000430826
0.000340163
0.000263809
0.000201909
0.00015377
0.000119445
9.80691e-05
3.36851e-09
1.78843e-08
4.38341e-08
8.10948e-08
1.98422e-07
3.86629e-07
2.09697e-08
2.84555e-07
2.25562e-06
7.10021e-06
1.19251e-05
1.46549e-05
4.57372e-08
1.5246e-06
1.43579e-05
3.46806e-05
5.44223e-05
6.92026e-05
6.48469e-08
3.42374e-06
2.26477e-05
5.14877e-05
8.16694e-05
0.00010768
8.5606e-08
5.8632e-06
3.06152e-05
6.89226e-05
0.000111768
0.000150664
2.6966e-07
9.62418e-06
4.29339e-05
9.67892e-05
0.000160864
0.000220679
1.13413e-06
1.54385e-05
6.31045e-05
0.000144107
0.000242946
0.00033385
3.29596e-06
2.4313e-05
9.66846e-05
0.000224071
0.000376765
0.000506525
6.83367e-06
3.79576e-05
0.000153135
0.000354698
0.00057739
0.000738922
1.09377e-05
5.89e-05
0.000245445
0.000551863
0.000842029
0.0010063
0.00124387
0.00111994
0.000988146
0.000939868
0.00101995
0.00120273
0.00141739
0.00157379
0.00161328
0.00153825
0.00139802
0.00124609
0.0011174
0.00102697
0.000976502
0.000958249
0.000958427
0.000960962
0.000951519
0.000921058
0.000867537
0.000795204
0.00071194
0.000625855
0.000541706
0.000463047
0.000390726
0.000324285
0.000262875
0.000205626
0.000151992
0.000102496
5.79658e-05
2.56536e-05
0.00140394
0.00126258
0.0011721
0.00118636
0.00130179
0.00146717
0.00161003
0.00166724
0.00161685
0.00148513
0.00132327
0.00117516
0.0010637
0.00099289
0.000954932
0.00093602
0.000921476
0.000900013
0.000866413
0.000821605
0.00077033
0.000717971
0.000668044
0.000621288
0.000576554
0.000532266
0.000486652
0.00043911
0.000390377
0.00034231
0.000279669
0.000192133
6.36111e-05
4.79935e-06
0.00153245
0.00141468
0.00137149
0.00142074
0.0015314
0.00164576
0.00170496
0.00167407
0.00155841
0.00139644
0.00123434
0.00110331
0.00101357
0.000959869
0.000929831
0.000910624
0.000893289
0.000874367
0.000854928
0.000837674
0.000824256
0.000813936
0.000803826
0.000790178
0.000770199
0.000742747
0.000710107
0.000680833
0.000651944
0.000589172
0.000512285
0.000361557
9.18946e-05
3.45563e-06
0.00165417
0.00157181
0.00156102
0.00161494
0.00169182
0.00173971
0.00171885
0.00161955
0.00146506
0.00129642
0.00114999
0.00104378
0.000977927
0.000942866
0.000927472
0.000923942
0.000928933
0.000941879
0.000962364
0.000987972
0.00101393
0.00103401
0.00104232
0.00103517
0.00101282
0.000981248
0.000947105
0.000894147
0.000838238
0.000790374
0.000717689
0.000496298
0.0001171
3.16654e-06
0.00177355
0.00171876
0.00171969
0.00175468
0.00178135
0.00176057
0.00167334
0.00152948
0.00136105
0.00120474
0.00108529
0.00100987
0.000973297
0.000966337
0.000981433
0.00101414
0.00106138
0.00111895
0.00118022
0.00123639
0.00127823
0.00129807
0.00129184
0.00126108
0.00121713
0.00115734
0.00108672
0.00102351
0.00097201
0.000925561
0.000837211
0.000573708
0.000135393
3.02933e-06
0.00187983
0.00184003
0.00183531
0.00183669
0.00180733
0.00172573
0.00159179
0.00142773
0.00126678
0.00113759
0.00105445
0.00101769
0.00102061
0.00105569
0.00111661
0.0011972
0.00128917
0.00138156
0.00146176
0.00151768
0.00154013
0.0015247
0.00147337
0.0013996
0.00130528
0.00121778
0.00113747
0.00107033
0.00101897
0.000972452
0.000882079
0.000608318
0.00014513
2.75341e-06
0.00184688
0.00176099
0.0017583
0.00186353
0.00178271
0.00165538
0.00149678
0.00133483
0.00119903
0.00110936
0.00107219
0.00108415
0.00113794
0.00122519
0.00133621
0.00145866
0.00157724
0.00167562
0.00173885
0.00175557
0.00171996
0.00163675
0.00151499
0.00139499
0.00128087
0.00118026
0.00109776
0.00103616
0.00099246
0.000954647
0.000874428
0.000606781
0.000144795
2.42112e-06
0.00173905
0.00165796
0.00167465
0.00181118
0.00172385
0.00156963
0.00140804
0.00126773
0.00117217
0.00113307
0.00115142
0.00122057
0.00133024
0.00146719
0.00161496
0.00175427
0.00186515
0.00192968
0.00193352
0.00186665
0.00173206
0.00157139
0.00141732
0.00127772
0.00115828
0.00106129
0.000990384
0.000942476
0.000914225
0.000892482
0.000827195
0.000571356
0.000131616
2.34109e-06
0.00162608
0.00156375
0.00161149
0.00179265
0.00164834
0.00148688
0.00134244
0.00124062
0.00119739
0.00121784
0.00129728
0.00142374
0.00158069
0.00174758
0.00190136
0.00201881
0.00207912
0.00206475
0.00196033
0.00175827
0.00155601
0.00136978
0.00120785
0.00107273
0.00096918
0.000892787
0.000841461
0.0008126
0.000803268
0.000799856
0.000747227
0.000504413
0.000110732
2.26672e-06
0.00152287
0.00148922
0.00157611
0.00173242
0.00157287
0.00142338
0.00131333
0.00126262
0.0012802
0.00136358
0.00150001
0.00167006
0.00184926
0.00201084
0.00212863
0.00217953
0.00214386
0.00200099
0.00172895
0.00147651
0.00125467
0.00107224
0.000927679
0.000820278
0.000746283
0.000697808
0.000670517
0.000663066
0.000674335
0.000688043
0.000646875
0.000423267
8.70007e-05
2.11267e-06
0.0014382
0.00143856
0.00157039
0.00166494
0.00151143
0.00139031
0.0013276
0.00133684
0.00141714
0.00155613
0.00173214
0.00191715
0.00208047
0.00219298
0.00222973
0.00217067
0.00199657
0.00168298
0.00135854
0.00109744
0.000887608
0.000737943
0.000631893
0.000561962
0.000520261
0.00049922
0.000495406
0.000509358
0.00054193
0.000571929
0.000541964
0.000336942
6.34722e-05
1.81649e-06
0.00137501
0.00141355
0.0016037
0.00160626
0.00147368
0.00139441
0.00138815
0.00145806
0.00159222
0.00176739
0.00195267
0.00211352
0.00221731
0.00223722
0.00215335
0.00195136
0.00161699
0.0012536
0.00093272
0.000705206
0.000548738
0.000447035
0.000383714
0.00034688
0.00032893
0.000326113
0.000339023
0.000371451
0.000423288
0.000466551
0.000435396
0.000248446
4.11768e-05
1.49149e-06
0.0013355
0.00141975
0.0016907
0.00156556
0.00146673
0.00143833
0.0014888
0.00161083
0.00177915
0.00196045
0.00211685
0.00221191
0.00221621
0.00210985
0.00188291
0.00153533
0.00115013
0.000813795
0.000566715
0.000416843
0.000330559
0.000279159
0.000246273
0.000225101
0.000212121
0.000209179
0.000222428
0.000260925
0.000320855
0.000361851
0.000318311
0.000150627
2.1682e-05
1.2229e-06
0.00132083
0.00145788
0.00166152
0.00154696
0.00149032
0.00151464
0.00161617
0.00177202
0.00194644
0.00209846
0.0021879
0.00218206
0.00206019
0.00181581
0.001462
0.0010504
0.000709003
0.000478415
0.000350672
0.00028472
0.000246999
0.000221706
0.000201565
0.000182943
0.000165005
0.000151542
0.000151665
0.000176665
0.000222725
0.00024117
0.000187292
7.90435e-05
1.14742e-05
8.97452e-07
0.00133377
0.00154255
0.00163602
0.00155235
0.00154222
0.00161425
0.00175114
0.001916
0.00206502
0.00215406
0.00214673
0.00202003
0.00176808
0.00140678
0.000989918
0.000635464
0.000421469
0.000317077
0.000266804
0.000238212
0.000218755
0.000203443
0.000189075
0.000172836
0.000153017
0.000131491
0.00011598
0.000117421
0.000134736
0.000137474
9.93026e-05
4.083e-05
6.17405e-06
5.59878e-07
0.00137887
0.00168751
0.00162676
0.00157912
0.00161294
0.00172268
0.00187392
0.0020207
0.00211522
0.0021164
0.00199816
0.00175376
0.00139943
0.000984709
0.000611082
0.000391447
0.000299027
0.000258224
0.000234637
0.000217944
0.000205093
0.000194417
0.000184015
0.000171381
0.000153786
0.000130064
0.000103549
8.35824e-05
7.75141e-05
7.43035e-05
5.25735e-05
2.18834e-05
3.38244e-06
2.89349e-07
0.00145635
0.0017109
0.0016323
0.00162235
0.00169403
0.00182501
0.00196801
0.00207201
0.00209092
0.00199378
0.00177149
0.00143916
0.00104044
0.000659683
0.000401812
0.000293021
0.00025571
0.000235272
0.000219734
0.000206826
0.000196168
0.000187286
0.000179135
0.0001699
0.00015685
0.000136994
0.000109032
7.67555e-05
5.22029e-05
4.2255e-05
2.93435e-05
1.23807e-05
1.8668e-06
1.25286e-07
0.00158175
0.00170325
0.00165046
0.00167548
0.00177507
0.00190909
0.00202309
0.00206598
0.00200012
0.00181104
0.00150988
0.00113671
0.000756405
0.000463454
0.000312625
0.000261489
0.000243438
0.000229785
0.000216587
0.000203832
0.000192371
0.000182549
0.00017411
0.000166132
0.000156764
0.00014304
0.000121622
9.03415e-05
5.35137e-05
2.95971e-05
1.82057e-05
7.51112e-06
1.04167e-06
4.87336e-08
0.00177725
0.00170389
0.001679
0.0017332
0.00184724
0.00196714
0.00203608
0.0020088
0.00186233
0.00160257
0.00125777
0.000886148
0.000564768
0.000365529
0.000285379
0.00026162
0.000250905
0.00024009
0.000226864
0.000211929
0.00019715
0.000183678
0.000172075
0.000162125
0.000153079
0.000142975
0.000128776
0.000106868
7.38177e-05
3.43568e-05
1.48632e-05
5.25787e-06
6.23201e-07
2.1141e-08
0.00177632
0.00171106
0.00171216
0.00178941
0.00190439
0.001996
0.00201001
0.00191259
0.00169923
0.00139279
0.00103867
0.00070028
0.000452649
0.000329489
0.000291383
0.00028217
0.00027602
0.000266791
0.000252607
0.000234597
0.000214588
0.000194921
0.000177434
0.000162397
0.000149795
0.000138798
0.000127279
0.000112334
9.04591e-05
5.77826e-05
2.09823e-05
5.32438e-06
4.85992e-07
1.60627e-08
0.00177202
0.00172413
0.00174853
0.00183968
0.00194356
0.00199684
0.00195286
0.0017934
0.00153185
0.00120453
0.000863379
0.000575869
0.000399547
0.000331696
0.000319495
0.000320206
0.000318002
0.000309921
0.000294289
0.000272554
0.000247032
0.000220224
0.000194136
0.000171459
0.000152192
0.000136341
0.000122643
0.00010882
9.20417e-05
6.91904e-05
3.53859e-05
7.90467e-06
6.2609e-07
2.47004e-08
0.00177031
0.0017401
0.00178523
0.00188136
0.00196453
0.00197399
0.0018748
0.00166579
0.00137474
0.00104507
0.000733049
0.000502993
0.000387941
0.000359524
0.000365525
0.000374861
0.000376769
0.000369806
0.000352641
0.00032688
0.000295071
0.000260156
0.00022504
0.000192464
0.000164195
0.000140627
0.000121341
0.000104581
8.77844e-05
6.80464e-05
4.34594e-05
1.20974e-05
9.491e-07
4.25434e-08
0.00177127
0.00175909
0.00182041
0.00191348
0.00196916
0.00193342
0.00178572
0.00154066
0.00123543
0.000916959
0.00064387
0.000470531
0.000405465
0.000406291
0.000427125
0.000444931
0.00045137
0.000445682
0.000427266
0.000397773
0.000359827
0.000316592
0.000271436
0.000227601
0.000188028
0.000154467
0.000126982
0.00010459
8.49269e-05
6.50523e-05
4.21696e-05
1.58621e-05
1.22766e-06
6.45232e-08
0.00177492
0.00178039
0.0018529
0.00193626
0.00196043
0.00188135
0.00169375
0.00142495
0.00111701
0.000819329
0.000589821
0.0004686
0.000443767
0.000467693
0.000501858
0.000528354
0.000540045
0.000535285
0.00051615
0.000483633
0.00044023
0.000389075
0.00033374
0.00027801
0.000225545
0.00017944
0.0001413
0.000110783
8.60167e-05
6.39927e-05
4.14639e-05
1.77734e-05
1.60759e-06
8.4893e-08
0.00178118
0.00180327
0.00188212
0.00195072
0.0019418
0.00182339
0.00160474
0.00132218
0.00102001
0.00074942
0.000564374
0.000489139
0.000496863
0.000539944
0.000586278
0.00062116
0.000638217
0.000635004
0.000615862
0.000581374
0.000533792
0.00047596
0.000411255
0.000343635
0.000277478
0.00021706
0.000165591
0.000124252
9.19428e-05
6.57963e-05
4.22379e-05
1.92475e-05
2.16487e-06
9.7491e-08
0.00178982
0.001827
0.00190803
0.0019584
0.00191666
0.00176406
0.00152238
0.00123369
0.00094342
0.00070355
0.000561349
0.000525743
0.000560081
0.000619376
0.00067652
0.000718916
0.000740862
0.000740234
0.000721756
0.000686415
0.000636259
0.000573696
0.000501567
0.000423457
0.000343911
0.000268177
0.000201202
0.00014617
0.000103485
7.08319e-05
4.43394e-05
2.08357e-05
2.91128e-06
1.05277e-07
0.00180102
0.00185127
0.00193087
0.00196096
0.00188801
0.00170659
0.00144862
0.0011595
0.000885412
0.000677745
0.000575269
0.000573331
0.000629588
0.00070262
0.000769094
0.000817987
0.000844306
0.000846347
0.000828886
0.000793558
0.000742324
0.000677168
0.000600228
0.000514278
0.000423312
0.000332811
0.00024916
0.000177897
0.000121762
7.98164e-05
4.82591e-05
2.28735e-05
3.92774e-06
1.09123e-07
0.00181434
0.00187564
0.00194322
0.00195994
0.00185828
0.00165309
0.00138428
0.00109893
0.000843744
0.00066812
0.000601466
0.000627845
0.000702183
0.000786706
0.000860954
0.000915178
0.0009451
0.000949489
0.000933042
0.000898146
0.000846841
0.000780842
0.000701646
0.000611045
0.000511944
0.000409119
0.000309454
0.00022055
0.000148115
9.37418e-05
5.46178e-05
2.58415e-05
5.34942e-06
1.02986e-07
0.00182945
0.00189948
0.00187261
0.00195656
0.00182928
0.00160489
0.00132946
0.00105088
0.000816032
0.000671099
0.00063605
0.000686032
0.000775218
0.000869173
0.000949677
0.00100807
0.00104076
0.00104698
0.00103128
0.000996819
0.000945873
0.000880083
0.000800494
0.000708038
0.000604405
0.000493054
0.000380158
0.000274247
0.000183763
0.000113824
6.40892e-05
3.00254e-05
7.19754e-06
9.84985e-08
0.00184575
0.00192248
0.00181802
0.00195187
0.00180236
0.00156273
0.00128387
0.00101407
0.00079992
0.000683509
0.000675834
0.000745309
0.000846571
0.00094811
0.00103351
0.00109505
0.00112974
0.00113723
0.00112188
0.00108759
0.001037
0.000971845
0.000892894
0.000800417
0.000695103
0.000579094
0.000457135
0.000337235
0.000229151
0.000141367
7.75969e-05
3.57593e-05
9.57395e-06
2.63133e-07
0.00186263
0.00186173
0.00177645
0.00193436
0.00177839
0.0015269
0.00124697
0.000987136
0.000793203
0.000702622
0.000718252
0.000803646
0.000914597
0.00102211
0.00111125
0.00117511
0.00121118
0.00121942
0.00120397
0.00116946
0.00111901
0.00105456
0.000976707
0.000885145
0.000779786
0.000661861
0.000534847
0.00040555
0.000283068
0.000177277
9.65096e-05
4.34883e-05
1.25671e-05
8.00395e-07
0.00187971
0.00179271
0.0017446
0.0019109
0.00175793
0.00149743
0.00121813
0.000968746
0.000793888
0.000726146
0.000761274
0.000859473
0.000978054
0.00109016
0.00118209
0.0012476
0.00128456
0.00129309
0.00127711
0.00124194
0.00119135
0.00112759
0.00105108
0.000960908
0.000856207
0.000737643
0.000608059
0.000473633
0.000342082
0.000221439
0.000122039
5.38822e-05
1.6314e-05
1.9992e-06
0.00189669
0.00174406
0.00171999
0.00188987
0.00174131
0.00147418
0.00119667
0.000957655
0.000800237
0.000752206
0.000803315
0.00091159
0.00103601
0.00115152
0.00124544
0.00131206
0.0013495
0.00135792
0.00134095
0.00130469
0.00125366
0.00119061
0.00111577
0.00102742
0.000923742
0.000804856
0.000673449
0.000536149
0.000400657
0.000271662
0.000155208
6.79355e-05
2.09769e-05
4.06399e-06
0.00191333
0.00170924
0.00170053
0.00187126
0.00172872
0.00145694
0.00118192
0.000952749
0.000810787
0.000779305
0.000843144
0.000959087
0.00108776
0.00120563
0.00130083
0.00136805
0.00140557
0.00141354
0.00139515
0.00135734
0.00130563
0.00124337
0.00117064
0.00108473
0.000982532
0.00086341
0.000729993
0.000589956
0.000453168
0.000322857
0.000195661
8.70636e-05
2.67066e-05
6.89873e-06
0.00192947
0.00168329
0.00168473
0.0018543
0.00172024
0.00144545
0.0011733
0.00095307
0.000824335
0.000806266
0.000879838
0.00100128
0.00113277
0.00125203
0.00134781
0.00141509
0.0014453
0.00145949
0.00143924
0.00139949
0.00134693
0.00128566
0.00121559
0.00113284
0.00103277
0.000913696
0.00077805
0.000634447
0.000496167
0.000368994
0.000240799
0.000112361
3.36973e-05
1.00654e-05
0.00194506
0.00166354
0.00167149
0.00183797
0.00171591
0.00143947
0.00117028
0.000957835
0.00083994
0.000832206
0.000912721
0.00103766
0.00117063
0.00129032
0.00138594
0.00144381
0.00147271
0.00149519
0.00147269
0.00143076
0.00137736
0.00131741
0.00125056
0.0011717
0.00107445
0.000955906
0.000818197
0.000670443
0.000529118
0.000405502
0.000285413
0.000144345
4.21881e-05
1.3061e-05
0.00193556
0.0016483
0.00165995
0.00182142
0.00171572
0.00143878
0.00117246
0.00096645
0.000856911
0.000856503
0.000941323
0.00106787
0.00120097
0.00132011
0.00141479
0.00146889
0.00151056
0.00151985
0.00149481
0.00145079
0.00139696
0.00133886
0.00127583
0.00120141
0.00110746
0.000989883
0.000850567
0.00069884
0.000553349
0.000431126
0.000323342
0.000181921
5.25713e-05
1.55396e-05
0.00190195
0.0016363
0.00164929
0.00180408
0.00171963
0.0014432
0.00117955
0.000978515
0.000874808
0.000878795
0.000965387
0.00109167
0.00122355
0.00134094
0.00143373
0.00149752
0.00153058
0.00153224
0.00150476
0.00145938
0.0014061
0.00135071
0.00129202
0.0012223
0.00113178
0.00101531
0.000874818
0.000719911
0.000570373
0.000447416
0.00035039
0.000221245
6.5408e-05
1.73017e-05
0.00187418
0.00162649
0.00163882
0.0017857
0.00172756
0.00145261
0.00119137
0.000993847
0.000893485
0.000899098
0.000985008
0.00110906
0.0012382
0.00134136
0.00142476
0.00150219
0.0015318
0.00153055
0.00150168
0.00145667
0.00140562
0.00135407
0.00130014
0.00123495
0.00114748
0.00103186
0.000890386
0.000733356
0.000581029
0.000456746
0.0003663
0.000256036
8.10168e-05
1.82259e-05
0.0018513
0.00161792
0.00162824
0.00176622
0.00173943
0.00146688
0.00120791
0.00101261
0.000913444
0.000918794
0.00100152
0.00112049
0.00124169
0.00131553
0.00141717
0.00149302
0.00151896
0.00151534
0.00148676
0.00144415
0.00139719
0.00135072
0.00130185
0.00124052
0.00115485
0.00103885
0.000896375
0.000738647
0.000585494
0.000460861
0.000373742
0.00028035
9.83968e-05
1.83458e-05
0.00183099
0.00160951
0.00161722
0.00174546
0.00175483
0.00148566
0.00122934
0.00103634
0.000937637
0.000939276
0.00101492
0.0011254
0.00120924
0.00129785
0.00141905
0.00147182
0.00149436
0.00148944
0.00146262
0.00142423
0.00138318
0.00134319
0.00129996
0.00124216
0.00115733
0.0010398
0.000895024
0.000736007
0.000583131
0.000459864
0.000375497
0.000291286
0.000113889
1.78095e-05
0.00181052
0.00159986
0.00160478
0.00172224
0.00177378
0.00151009
0.00125765
0.00106671
0.000966531
0.000961323
0.00102638
0.00112378
0.00118537
0.00128819
0.0013948
0.00144075
0.00146033
0.00145516
0.00143162
0.00139917
0.00136573
0.00133342
0.00129609
0.00124104
0.00115559
0.00103508
0.000887002
0.000726586
0.000574934
0.000454545
0.000374097
0.000297525
0.00012289
1.68087e-05
0.0017875
0.00158787
0.0015905
0.00169716
0.00179596
0.00153993
0.00129275
0.00110389
0.00100074
0.000986144
0.00103761
0.00109862
0.00116964
0.00128572
0.00136171
0.00140242
0.00141956
0.00141521
0.00139639
0.00137164
0.00134733
0.00132347
0.00129164
0.00123781
0.00114964
0.0010243
0.000871917
0.000710169
0.000560874
0.00044497
0.000369704
0.000300916
0.000130657
1.54791e-05
0.00176018
0.00157259
0.00157427
0.00167082
0.00176453
0.00157444
0.00133447
0.00114811
0.00104108
0.0010153
0.00105091
0.00108175
0.0011608
0.00126911
0.00132469
0.00136011
0.00137537
0.001373
0.00136042
0.00134501
0.001331
0.00131559
0.00128784
0.00123269
0.00113896
0.00100666
0.00084907
0.000686413
0.000540927
0.000431269
0.000362361
0.000301086
0.000137054
1.39224e-05
0.00172707
0.00155318
0.00155553
0.00164345
0.00172675
0.00161332
0.00138265
0.00119966
0.00108847
0.00105045
0.00104328
0.0010738
0.00116044
0.00124127
0.0012878
0.00131797
0.00133197
0.00133292
0.00132812
0.00132337
0.00132006
0.0013119
0.00128543
0.00122521
0.00112237
0.000980863
0.000817569
0.00065502
0.000515188
0.000413696
0.000352144
0.000297368
0.000141664
1.22111e-05
0.00168666
0.00152887
0.00153379
0.00161503
0.00168979
0.00165612
0.00143691
0.00125855
0.00114345
0.00106591
0.00103732
0.00107523
0.00116995
0.00121881
0.00125607
0.00128121
0.00129466
0.00130036
0.00130473
0.00131124
0.00131772
0.00131397
0.00128415
0.00121378
0.0010978
0.000945143
0.00077647
0.000615881
0.000483969
0.000392494
0.000339207
0.000264489
0.00014407
1.04267e-05
0.00163745
0.00149903
0.00150843
0.00158484
0.00165372
0.00165707
0.00149587
0.00131651
0.00115358
0.00106235
0.00104363
0.00108823
0.001174
0.00120704
0.0012353
0.00125595
0.00126978
0.00128164
0.00129594
0.00131297
0.00132632
0.00132182
0.0012821
0.00119536
0.00106225
0.000897446
0.000725006
0.000569231
0.000447939
0.000368328
0.000323776
0.000235571
0.000143907
8.6788e-06
0.00157864
0.00146289
0.00147859
0.00155221
0.00161902
0.00158993
0.00145224
0.00128716
0.00115122
0.00107586
0.00106563
0.00111591
0.00119032
0.00121145
0.00123168
0.00124887
0.00126429
0.00128329
0.00130696
0.00133161
0.00134613
0.00133293
0.00127487
0.00116514
0.00101193
0.000835809
0.000662964
0.00051588
0.000408189
0.000341969
0.000303158
0.000213315
0.000140699
6.96296e-06
0.00150948
0.00142008
0.00144359
0.00151688
0.00156566
0.00152114
0.00141102
0.00127823
0.00116862
0.00110871
0.00110662
0.00116266
0.00122585
0.00123715
0.00125107
0.00126634
0.00128505
0.00131077
0.00134094
0.00136718
0.00137376
0.001341
0.0012549
0.00111665
0.000942849
0.000759071
0.000591184
0.000457455
0.000365956
0.000314312
0.000266237
0.000197049
0.000133931
5.34802e-06
0.00143027
0.0013696
0.0014031
0.00147154
0.00150165
0.00147391
0.00139101
0.00128889
0.0012048
0.00116163
0.00116979
0.00123334
0.00128376
0.00128811
0.00129805
0.00131302
0.00133582
0.00136587
0.00139648
0.00141443
0.00140027
0.0013349
0.00121174
0.00104267
0.000852156
0.000667836
0.000511988
0.000396448
0.000323396
0.00028647
0.000240222
0.000186583
0.000123214
3.90883e-06
0.00134203
0.00131096
0.00135545
0.00141073
0.00145041
0.00144172
0.00138621
0.00131441
0.00125695
0.00123358
0.00125598
0.0013308
0.00136569
0.00136641
0.00137474
0.00139041
0.00141562
0.00144414
0.00146484
0.00146028
0.0014095
0.00129868
0.00113366
0.000937727
0.000739896
0.000565376
0.0004293
0.000335998
0.000282409
0.00025908
0.000222261
0.000181352
0.000108171
3.26601e-06
0.00124586
0.00124375
0.00129105
0.00135473
0.00140553
0.00141721
0.00139035
0.00134971
0.00132075
0.00132058
0.00136166
0.00145222
0.00147104
0.0014709
0.00147887
0.0014943
0.00151587
0.00153183
0.00152713
0.00148191
0.00137801
0.00121395
0.00101134
0.000801129
0.000610786
0.000457865
0.000348173
0.00027925
0.000244358
0.000232252
0.00020874
0.000180507
8.76248e-05
2.92834e-06
0.00114284
0.00116334
0.00122568
0.00129767
0.00136104
0.00139513
0.00139854
0.00139011
0.00139126
0.00141669
0.00147886
0.00158851
0.0015948
0.00159437
0.00160023
0.00161061
0.00161577
0.00160211
0.00155179
0.00144642
0.00127859
0.00106642
0.000843693
0.000640198
0.000474665
0.000353431
0.000273628
0.000228443
0.000209527
0.000205029
0.000195298
0.000165724
5.72232e-05
2.46723e-06
0.00103396
0.00107691
0.00115517
0.00123571
0.00131399
0.00137289
0.00140804
0.00143257
0.0014642
0.00151474
0.00159727
0.00172922
0.00172302
0.00171842
0.00171516
0.00170632
0.001677
0.0016116
0.00149379
0.00131572
0.0010913
0.000856157
0.000643261
0.000471061
0.000344686
0.000259991
0.000209098
0.000184026
0.000176651
0.000175187
0.000160037
0.000117397
2.72093e-05
1.91412e-06
0.000918909
0.000983726
0.00107802
0.00116839
0.00126487
0.00135101
0.00141819
0.00147357
0.00153149
0.00160592
0.00171874
0.00183969
0.00182333
0.00180466
0.00177845
0.00172801
0.0016391
0.00149846
0.00130186
0.00106449
0.000821159
0.000606801
0.000437704
0.000315197
0.000233097
0.000182537
0.000155199
0.000144385
0.000142956
0.000139268
0.00011115
4.65487e-05
9.99823e-06
1.42126e-06
0.000806685
0.000889636
0.000997531
0.00109929
0.0012157
0.00132727
0.0014211
0.00150347
0.00159386
0.00170857
0.001858
0.00186694
0.00182784
0.00177932
0.0017042
0.00158615
0.00141712
0.00119992
0.00095557
0.00071828
0.000518372
0.000367253
0.000260782
0.000190193
0.000146345
0.000121486
0.000109695
0.000106272
0.000104815
9.27048e-05
4.67264e-05
1.45055e-05
3.99897e-06
8.73601e-07
0.00067428
0.000791131
0.000912797
0.00102456
0.00116385
0.00130787
0.0014379
0.00155689
0.00168313
0.00181359
0.00175333
0.0016867
0.00161166
0.00151654
0.00136978
0.00117949
0.000959562
0.000735629
0.000535592
0.000376829
0.000262172
0.000184281
0.00013344
0.000101719
8.3127e-05
7.33359e-05
6.87799e-05
6.62112e-05
6.01468e-05
3.34908e-05
1.26945e-05
5.38346e-06
1.67908e-06
3.90821e-07
0.000584057
0.000714148
0.000841164
0.000966734
0.00112097
0.00127883
0.00141472
0.00148242
0.00139395
0.00130604
0.00121792
0.00112765
0.00102838
0.000886348
0.000724248
0.000562408
0.000416538
0.000296937
0.000206894