/*--------------------------------*- C++ -*----------------------------------*\
| =========                 |                                                 |
| \\      /  F ield         | OpenFOAM: The Open Source CFD Toolbox           |
|  \\    /   O peration     | Version:  v2012                                 |
|   \\  /    A nd           | Website:  www.openfoam.com                      |
|    \\/     M anipulation  |                                                 |
\*---------------------------------------------------------------------------*/
FoamFile
{
    version     2.0;
    format      ascii;
    class       volScalarField;
    location    "560";
    object      omega;
}
// * * * * * * * * * * * * * * * * * * * * * * * * * * * * * * * * * * * * * //

dimensions      [0 0 -1 0 0 0 0];


internalField   nonuniform List<scalar> 
6018
(
227.04
227.852
228.626
229.367
230.098
230.841
231.624
232.474
233.423
234.508
235.776
237.289
239.128
241.407
244.285
247.994
252.876
259.449
268.532
281.49
71.318
68.9967
67.1213
65.6927
64.7506
64.2771
64.1857
64.4051
64.877
65.5555
66.403
67.3807
68.4415
69.5361
70.5837
71.4528
71.9356
71.6887
70.021
65.671
35.9779
35.0934
34.5812
34.391
34.4724
34.7773
35.2653
35.9067
36.6813
37.576
38.5834
39.6995
40.9217
42.2494
43.6932
45.272
47.0185
48.998
51.3369
54.2959
25.3912
25.4037
25.6112
25.981
26.4878
27.1139
27.8486
28.6874
29.6308
30.6842
31.8574
33.1654
34.6291
36.276
38.1435
40.2837
42.7667
45.6875
49.1734
53.3943
22.0131
22.3953
22.8848
23.4687
24.1395
24.8946
25.7356
26.6675
27.6989
28.8418
30.1118
31.5293
33.12
34.9161
36.9587
39.3004
42.0082
45.1683
48.8929
53.3286
21.3353
21.8872
22.5043
23.1841
23.9272
24.737
25.6196
26.5833
27.6389
28.8011
30.0849
31.512
33.1091
34.9094
36.9549
39.2984
42.0072
45.1679
48.8928
53.3286
22.5904
23.2841
24.0139
24.7828
25.5954
26.4577
27.3766
28.3604
29.4066
30.5309
31.754
33.0968
34.5842
36.247
38.1256
40.2734
42.7614
45.6851
49.1725
53.3941
27.6966
28.6907
29.6878
30.7036
31.7511
32.8368
33.9135
34.9648
36.0308
37.1315
38.2824
39.4952
40.7819
42.1551
43.6324
45.2345
46.9971
48.9874
51.3327
54.295
49.6427
51.502
53.3014
55.1643
57.2155
59.0096
60.5215
61.876
63.1455
64.3788
65.6047
66.8371
68.0742
69.291
70.4218
71.3487
71.8732
71.6553
70.0047
65.6661
230.486
230.419
230.49
230.713
231.067
231.539
232.125
232.832
233.677
234.688
235.903
237.377
239.189
241.447
244.311
248.01
252.885
259.453
268.533
281.491
221.418
221.429
221.427
221.413
221.393
221.376
221.367
221.364
221.363
221.365
221.374
221.391
221.41
221.422
221.425
221.425
221.424
221.425
221.431
221.436
221.439
221.444
221.45
221.452
221.45
221.474
221.588
221.814
222.205
222.784
223.535
224.394
225.29
226.18
35.172
36.5478
40.6358
46.0102
49.4018
49.8037
47.7572
44.2034
40.0767
37.9283
36.1374
35.4656
35.6043
36.4179
37.5742
39.2937
40.1389
40.0117
40.3702
41.2966
44.6351
52.0826
60.8924
69.2777
76.6157
82.1063
85.6616
87.5095
87.8352
86.7708
84.5295
81.3408
77.5541
74.1582
16.3886
15.8601
16.2219
18.5361
21.3592
23.2042
23.2989
21.605
18.6061
15.9814
14.2199
13.5389
13.6494
14.3007
15.4877
18.0363
21.1072
25.1347
31.4765
38.1481
44.4367
49.5685
53.115
55.1444
55.8699
55.4341
54.0713
52.0231
49.5033
46.688
43.9239
41.3471
39.0949
37.3007
14.738
13.3197
12.4018
12.501
13.4668
14.6403
15.1899
14.625
13.0449
11.3995
10.5963
10.7775
11.5917
13.2926
16.1679
21.0343
26.4047
31.5435
36.0725
39.4452
41.5082
42.3353
42.1143
41.0933
39.5077
37.5654
35.4567
33.3382
31.3539
29.5811
28.0975
26.9444
26.1232
25.6167
14.2651
12.7077
11.5622
10.9123
10.8951
11.3341
11.7252
11.5816
10.883
10.4807
11.328
13.0483
15.3228
18.4046
22.2651
26.6853
30.5814
33.4016
35.0035
35.4481
34.9751
33.8702
32.374
30.6769
28.9273
27.2434
25.7169
24.409
23.3537
22.5598
22.0239
21.7292
21.6504
21.7551
13.24
11.6306
10.5557
9.90089
9.6716
9.83133
10.1357
10.3092
10.6034
12.0576
14.2188
16.8571
19.7755
23.1223
26.4359
29.1399
30.7781
31.302
30.9151
29.9036
28.5464
27.0485
25.5465
24.1349
22.8821
21.8351
21.0189
20.4386
20.0839
19.9344
19.9636
20.1423
20.4456
20.8498
11.7524
10.271
9.36958
8.90723
8.7844
8.98209
9.45755
10.3493
12.1846
14.7652
17.6081
20.479
23.3003
25.7729
27.5414
28.3845
28.311
27.5392
26.3624
25.0251
23.6911
22.4588
21.3888
20.5202
19.875
19.4584
19.2614
19.2639
19.4388
19.7554
20.1864
20.705
21.287
21.92
10.225
8.97894
8.308
8.0751
8.17246
8.67775
9.84433
11.9486
14.8073
17.6901
20.5368
23.013
24.8927
26.0319
26.3645
25.9634
25.0472
23.8813
22.677
21.5655
20.6212
19.8868
19.3868
19.1322
19.1212
19.3427
19.7791
20.4092
21.2115
22.168
23.2497
24.4042
25.5464
26.6488
8.97664
7.99829
7.60178
7.64141
8.1303
9.40014
11.5643
14.3232
17.2776
20.0773
22.394
23.9506
24.7116
24.7345
24.1618
23.2202
22.1467
21.1229
20.2599
19.6209
19.2448
19.1577
19.3772
19.917
20.7891
22.0095
23.5984
25.5845
28.0062
30.9024
34.2985
38.1964
42.4992
46.3829
8.17268
7.52325
7.44293
7.94554
9.11452
11.079
13.6755
16.525
19.2683
21.5213
22.9788
23.5723
23.437
22.7911
21.8822
20.9337
20.1065
19.5014
19.1824
19.199
19.5985
20.4345
21.7752
23.7099
26.358
29.8815
34.5036
40.5304
48.3853
58.6925
72.4338
91.2533
118.783
162.099
221.362
221.363
221.366
221.369
221.381
221.4
162.634
50.4926
38.235
35.7563
34.7817
34.6034
162.636
32.668
21.1958
19.4628
18.3297
17.2864
162.638
35.7132
24.7149
21.2115
18.6305
16.5251
162.639
43.6604
29.8958
23.6404
19.4672
16.5322
162.652
51.2627
33.4817
24.7255
19.2618
15.7384
162.715
56.649
34.8071
24.1572
17.97
14.1995
162.873
59.1029
33.8726
22.1833
15.9157
12.3801
163.131
58.3281
31.0047
19.3472
13.6556
10.6861
163.432
54.7897
26.9949
16.3829
11.7148
9.43617
7.84846
7.62583
8.03428
9.0729
10.7767
13.0844
15.7305
18.3494
20.54
21.9676
22.5148
22.318
21.653
20.8028
19.9897
19.3605
19.0049
18.9833
19.3462
20.1427
21.4242
23.2442
25.6561
28.7048
32.3676
36.6227
41.3923
46.5603
52.0069
57.6912
63.8978
71.859
87.4246
139.995
8.10985
8.36571
9.20078
10.6241
12.5996
14.9546
17.3854
19.4993
20.9403
21.5388
21.3866
20.7637
19.9831
19.282
18.8041
18.6298
18.8101
19.3848
20.3876
21.8438
23.7606
26.1111
28.81
31.6892
34.4933
36.9037
38.5272
38.937
37.6799
34.0723
28.3538
22.8118
28.9569
138.694
8.89549
9.46793
10.6013
12.2455
14.2812
16.4701
18.4689
19.922
20.6129
20.5692
20.0358
19.3316
18.7145
18.3371
18.2759
18.5717
19.2508
20.3275
21.7975
23.6164
25.6766
27.7884
29.6787
31.0153
31.4582
30.6879
28.4622
24.6041
19.865
16.1063
12.8984
11.676
22.3376
138.61
9.89916
10.7099
12.0252
13.7422
15.6648
17.5059
18.9408
19.7241
19.8161
19.4026
18.7842
18.2314
17.9141
17.9141
18.2659
18.9842
20.0655
21.4718
23.1083
24.802
26.3035
27.3144
27.542
26.7613
24.8575
21.8436
18.1155
14.9548
12.2154
10.129
8.64794
9.17883
20.7845
138.592
10.9915
11.957
13.349
14.9977
16.6526
18.0276
18.8759
19.1026
18.8231
18.2989
17.8014
17.5181
17.5443
17.9159
18.6384
19.6897
21.0008
22.4331
23.774
24.7594
25.1269
24.6781
23.3297
21.1222
18.1433
15.1429
12.7017
10.832
9.26257
8.01368
7.31946
8.40169
20.0861
138.584
12.0759
13.1142
14.4744
15.9296
17.2105
18.0843
18.4229
18.2764
17.852
17.4073
17.1447
17.1756
17.5436
18.25
19.2548
20.4622
21.7031
22.7485
23.3524
23.3128
22.5241
20.9927
18.8005
16.0398
13.6546
11.7491
10.1897
8.91815
7.88836
7.10199
6.7763
8.06119
19.7063
138.567
13.1
14.1292
15.3506
16.5063
17.3662
17.7845
17.7556
17.4304
17.039
16.7902
16.8132
17.1627
17.8389
18.7881
19.8928
20.9678
21.7839
22.1272
21.8557
20.9297
19.389
17.2705
14.8018
12.8414
11.1907
9.8315
8.71559
7.80162
7.07362
6.54889
6.42344
7.83488
19.5158
138.546
14.0274
14.9563
15.9408
16.7393
17.197
17.2628
17.0283
16.6903
16.4534
16.4584
16.7777
17.4118
18.2985
19.3049
20.238
20.8798
21.049
20.6529
19.6946
18.2113
16.0805
14.0299
12.2464
10.757
9.5187
8.49586
7.66612
6.9878
6.44943
6.08668
6.09506
7.62442
19.4994
138.541
14.8045
15.5485
16.2351
16.6772
16.8049
16.6484
16.3596
16.1319
16.1137
16.3888
16.97
17.7871
18.6994
19.5105
20.0161
20.0641
19.5966
18.6449
17.2552
15.1438
13.2841
11.6805
10.3171
9.17313
8.24856
7.48527
6.8477
6.3164
5.89106
5.62725
5.72648
7.41313
19.6932
138.536
15.3894
15.8887
16.2634
16.4001
16.3001
16.0524
15.8257
15.7759
15.9988
16.5141
17.2556
18.0775
18.7831
19.1795
19.1364
18.6189
17.6732
16.3382
14.3495
12.5898
11.0879
9.85216
8.82319
7.97739
7.28488
6.68727
6.15981
5.69961
5.33029
5.12585
5.33215
7.27648
20.1591
138.527
15.7637
15.9943
16.0867
15.9967
15.7739
15.5383
15.4451
15.6084
16.0493
16.7083
17.4442
18.0603
18.3696
18.256
17.6991
16.7552
15.483
13.7165
11.9849
10.5986
9.44757
8.57222
7.82264
7.16099
6.56555
6.01285
5.50676
5.07094
4.73735
4.60196
4.99621
7.30872
21.0159
138.508
15.934
15.9052
15.7702
15.5376
15.2833
15.1384
15.2233
15.5808
16.155
16.8084
17.3507
17.5952
17.4298
16.8417
15.8935
14.6642
13.0953
11.5669
10.2546
9.31186
8.57387
7.92765
7.29871
6.65993
6.01853
5.40506
4.86545
4.44258
4.15917
4.1864
4.84821
7.72631
22.8664
138.488
15.9248
15.671
15.3777
15.0836
14.875
14.869
15.1188
15.6045
16.1818
16.6644
16.8668
16.6714
16.0642
15.1127
13.912
12.5108
11.1648
10.0946
9.32126
8.77987
8.31999
7.83702
7.25167
6.56321
5.79816
5.05126
4.43096
3.99652
3.79262
4.06835
5.13868
9.35066
27.5355
138.472
15.7715
15.3435
14.9587
14.6654
14.5477
14.6863
15.0658
15.571
16.009
16.191
15.9905
15.3837
14.4398
13.2744
12.0088
10.7856
9.89009
9.3068
8.94062
8.68211
8.43954
8.13453
7.68255
7.02004
6.16143
5.24983
4.50131
4.06055
3.98701
4.58833
6.39861
12.0122
31.4767
138.451
15.5107
14.9634
14.5464
14.3043
14.303
14.5573
14.9805
15.3847
15.5684
15.3885
14.8056
13.8826
12.7473
11.5501
10.4506
9.62325
9.11844
8.85981
8.74875
8.71401
8.69636
8.62162
8.38778
7.88478
7.06415
6.04597
5.14409
4.68162
4.79352
5.72394
8.1768
14.5825
33.8907
138.43
15.1774
14.5647
14.1617
13.9968
14.0997
14.423
14.7902
14.9917
14.8591
14.3265
13.442
12.3354
11.1699
10.1034
9.26504
8.75377
8.50787
8.4526
8.51873
8.66951
8.86721
9.0481
9.10848
8.90767
8.3134
7.33045
6.25971
5.6435
5.8621
7.01497
9.76544
16.2031
34.365
138.414
14.8038
14.1692
13.8071
13.731
13.9132
14.2286
14.4508
14.3872
13.9345
13.1121
12.0416
10.8868
9.80437
8.90467
8.28481
7.9925
7.91282
7.97881
8.15996
8.44371
8.8119
9.22052
9.58508
9.77011
9.59295
8.90334
7.78963
6.80579
6.75988
7.90942
10.5926
16.5095
33.1319
138.404
14.4104
13.7868
13.4839
13.4866
13.707
13.9391
13.9542
13.6086
12.8783
11.8602
10.7129
9.60692
8.63308
7.88473
7.44609
7.28999
7.31297
7.44392
7.68697
8.04259
8.51258
9.07634
9.68048
10.2246
10.5404
10.3937
9.6053
8.35248
7.52103
8.15955
10.4468
15.5593
30.7166
138.399
14.0142
13.427
13.1947
13.2522
13.4536
13.5433
13.3241
12.7207
11.7883
10.6788
9.53836
8.50142
7.63713
7.04316
6.74783
6.6704
6.7339
6.89264
7.15798
7.53451
8.04052
8.67484
9.41829
10.2104
10.9399
11.3949
11.2732
10.3329
8.82136
8.10812
9.52223
13.6815
27.7191
138.397
13.6273
13.0885
12.9174
13.0093
13.1396
13.0509
12.6008
11.7887
10.7346
9.59747
8.51309
7.55423
6.81132
6.35577
6.1511
6.11029
6.18601
6.3503
6.61666
6.9932
7.48951
8.12471
8.91536
9.83184
10.8184
11.7415
12.3279
12.1818
10.9513
8.9691
8.53383
11.4864
25.0454
138.397
13.2583
12.7775
12.657
12.7466
12.766
12.4869
11.8341
10.8764
9.76873
8.65523
7.62631
6.75534
6.13293
5.77766
5.61839
5.58656
5.65656
5.8107
6.06279
6.42311
6.90512
7.52413
8.28716
9.23803
10.344
11.5461
12.6673
13.3481
13.0578
11.289
8.74514
10.2045
23.9878
138.397
12.907
12.4824
12.4066
12.46
12.3448
11.8833
11.0695
10.0259
8.91056
7.83451
6.86626
6.0897
5.56889
5.27523
5.13262
5.09372
5.14605
5.2789
5.50429
5.83338
6.28091
6.86551
7.60864
8.537
9.67598
11.0115
12.4637
13.7881
14.4952
13.8762
11.257
10.1478
23.6686
138.398
12.5779
12.2107
12.1628
12.1526
11.8938
11.2709
10.3408
9.25689
8.15758
7.12318
6.22178
5.53563
5.09052
4.8309
4.69053
4.63829
4.66893
4.77657
4.97008
5.26113
5.6653
6.20312
6.90066
7.78967
8.90757
10.2889
11.917
13.6766
15.2118
15.8328
14.5773
11.6355
24.0022
138.4
12.274
11.9632
11.9239
11.8309
11.4315
10.6752
9.66931
8.57434
7.50012
6.51049
5.6787
5.0707
4.67785
4.43561
4.29099
4.22343
4.23133
4.31667
4.47715
4.72676
5.08133
5.56234
6.19863
7.02762
8.0964
9.4598
11.1621
13.1842
15.3394
17.0954
17.4786
15.3975
24.5075
138.401
11.9971
11.7389
11.6897
11.5033
10.9746
10.1139
9.06371
7.97386
6.92827
5.98619
5.22168
4.67685
4.31957
4.08706
3.93811
3.85854
3.84786
3.91142
4.04101
4.25015
4.55371
4.97258
5.53627
6.28583
7.27663
8.57937
10.275
12.4265
14.9982
17.6786
19.6412
19.4436
25.192
138.402
11.747
11.5356
11.462
11.1785
10.536
9.59731
8.52464
7.44802
6.43293
5.5398
4.8364
4.34115
4.00921
3.78399
3.6332
3.54616
3.52222
3.5652
3.66822
3.84147
4.09779
4.45592
4.94351
5.60131
6.48878
7.68934
9.31239
11.4832
14.2943
17.6654
21.0616
23.1646
27.8182
138.402
11.5258
11.3524
11.2428
10.864
10.1244
9.12998
8.04903
6.98917
6.00594
5.16106
4.51084
4.05443
3.74187
3.5235
3.37312
3.28176
3.24815
3.27484
3.3565
3.50034
3.71685
4.02172
4.43873
5.00465
5.77678
6.84335
8.33363
10.4233
13.3139
17.1414
21.737
26.2276
32.3794
138.403
11.3312
11.1877
11.0342
10.5653
9.7452
8.71285
7.6318
6.59037
5.6397
4.84044
4.23538
3.80977
3.51302
3.30148
3.15295
3.05935
3.01885
3.0331
3.09822
3.2192
3.40443
3.66652
4.02469
4.50938
5.17041
6.09093
7.40585
9.32468
12.1416
16.1909
21.6835
28.3531
37.3258
138.402
11.1619
11.0396
10.8382
10.2856
9.40095
8.34385
7.26742
6.24543
5.32717
4.56958
4.00235
3.60165
3.31825
3.1133
2.96725
2.87249
2.82687
2.83156
2.88395
2.98759
3.14931
3.37918
3.69225
4.11228
4.67906
5.4629
6.58863
8.27409
10.8783
14.9132
20.9615
29.4655
41.926
138.402
11.0142
10.9071
10.6559
10.0277
9.09217
8.01976
6.95085
5.94881
5.06191
4.34141
3.80571
3.42539
3.15339
2.95448
2.81088
2.7153
2.6655
2.66251
2.70491
2.79536
2.93968
3.14617
3.42671
3.79945
4.29437
4.96584
5.91739
7.34815
9.63772
13.4367
19.6727
29.5672
45.5595
138.412
10.8858
10.7895
10.4881
9.79289
8.81788
7.73713
6.67759
5.69557
4.83818
4.15009
3.64055
3.27704
3.01472
2.82105
2.67949
2.58303
2.52947
2.51995
2.55419
2.63435
2.76563
2.95527
3.21309
3.5533
3.99815
4.58715
5.39858
6.59345
8.52297
11.9094
18.0059
28.7501
48.0339
138.445
10.7745
10.6852
10.3352
9.58164
8.57636
7.49259
6.44361
5.48126
4.65104
3.99083
3.5029
3.15327
2.89905
2.70975
2.56972
2.47215
2.415
2.3997
2.42703
2.49887
2.62006
2.79727
3.0392
3.35774
3.77012
4.30456
5.01675
6.02251
7.60545
10.4652
16.082
27.1199
49.2381
138.52
10.6777
10.5929
10.1973
9.39337
8.36597
7.28342
6.2454
5.30197
4.49629
3.85974
3.38956
3.05134
2.80379
2.61803
2.47904
2.3802
2.31961
2.29908
2.32047
2.38542
2.49856
2.66626
2.8967
3.20071
3.5929
4.09443
4.74474
5.61964
6.91702
9.22854
14.093
24.8145
49.1003
138.648
10.5925
10.5112
10.0743
9.22756
8.18487
7.10653
6.07983
5.15427
4.37034
3.75369
3.29801
2.969
2.72688
2.54394
2.40567
2.30552
2.24174
2.21653
2.23283
2.2921
2.39875
2.55896
2.78072
3.0746
3.4543
3.93746
4.55393
5.35147
6.44725
8.27572
12.265
22.1661
47.6583
138.824
10.5171
10.4395
9.96626
9.08348
8.03092
6.95916
5.94412
5.03524
4.27034
3.67024
3.22618
2.9045
2.6667
2.48605
2.34833
2.24703
2.18041
2.15116
2.16329
2.21804
2.3196
2.47392
2.68896
2.97549
3.34731
3.82094
4.42163
5.182
6.15829
7.62508
10.7575
19.3833
45.0284
139.021
10.4499
10.3771
9.8728
8.96024
7.90208
6.83888
5.83588
4.94245
4.19399
3.60743
3.1725
2.85646
2.62203
2.44324
2.30606
2.20385
2.13491
2.10253
2.11156
2.16305
2.26086
2.41076
2.62073
2.90192
3.26888
3.73822
4.33351
5.08181
6.00272
7.2375
9.6514
16.7387
41.5104
139.208
10.3899
10.3234
9.79364
8.85688
7.79645
6.74357
5.75303
4.8739
4.13952
3.56382
3.13576
2.82383
2.59192
2.41464
2.27806
2.17536
2.10503
2.07063
2.07781
2.12737
2.22282
2.36973
2.57617
2.85387
3.21839
3.68712
4.28308
5.03266
5.93882
7.05168
8.94932
14.4872
37.4544
139.362
10.3363
10.2781
9.72842
8.77245
7.71231
6.67137
5.69383
4.82801
4.10559
3.53835
3.11514
2.8059
2.57571
2.39969
2.26388
2.16139
2.09094
2.05597
2.06278
2.11174
2.20611
2.35142
2.55596
2.83208
3.19658
3.66804
4.2692
5.02688
5.93944
7.0061
8.58943
12.8013
33.2403
139.472
10.2882
10.2405
9.67678
8.706
7.64811
6.62059
5.65678
4.80355
4.09103
3.53019
3.11012
2.80241
2.57301
2.39804
2.26352
2.16247
2.09366
2.06026
2.06799
2.11735
2.21171
2.35675
2.56112
2.83788
3.2051
3.68282
4.29373
5.06395
5.99212
7.05562
8.48339
11.7363
29.2379
139.53
10.2451
10.2104
9.63824
8.65661
7.6023
6.58948
5.64024
4.79917
4.0925
3.53726
3.12036
2.81413
2.58619
2.41252
2.27944
2.18047
2.11404
2.08322
2.09248
2.14307
2.23872
2.38536
2.59211
2.87296
3.24738
3.73702
4.36208
5.14731
6.09486
7.17639
8.55328
11.2534
25.8975
139.538
10.2063
10.1874
9.61212
8.62319
7.57226
6.57415
5.63947
4.81093
4.11496
3.56544
3.15045
2.84448
2.61643
2.44314
2.31149
2.2147
2.1507
2.12251
2.13396
2.18674
2.28493
2.43476
2.64596
2.93371
3.31908
3.82553
4.47287
5.28259
6.25532
7.36494
8.7545
11.2863
23.8221
139.504
10.1717
10.1691
9.59508
8.60286
7.55742
6.57546
5.65776
4.84353
4.15879
3.61482
3.20091
2.89385
2.66449
2.4909
2.36014
2.26516
2.20351
2.17821
2.19248
2.24869
2.3509
2.50571
2.72375
3.02173
3.42261
3.9517
4.62843
5.46985
6.47211
7.6125
9.02673
11.4954
23.2244
139.442
10.1415
10.1557
9.58703
8.59591
7.55698
6.59223
5.69399
4.89625
4.22382
3.68576
3.2727
2.96335
2.73159
2.55709
2.42666
2.33298
2.27356
2.25165
2.26974
2.33057
2.4384
2.60019
2.82789
3.14025
3.56245
4.1215
4.8361
5.71737
6.75384
7.92668
9.36942
11.801
22.8315
139.359
10.1165
10.1482
9.58812
8.60281
7.57062
6.6227
5.74704
4.96843
4.31001
3.77883
3.36665
3.05472
2.81997
2.64373
2.51303
2.42032
2.3631
2.34525
2.36828
2.43496
2.54993
2.72094
2.96178
3.29388
3.7449
4.34326
5.10617
6.0366
7.11187
8.31742
9.78792
12.1802
22.581
139.261
10.0982
10.1481
9.59879
8.62323
7.59833
6.66646
5.81602
5.05952
4.41729
3.89469
3.48402
3.16972
2.93215
2.75372
2.62225
2.53033
2.47546
2.46242
2.49142
2.56509
2.68857
2.87143
3.13002
3.48903
3.97884
4.62857
5.45258
6.44226
7.56015
8.79642
10.2877
12.6036
22.4591
139.155
10.0886
10.1573
9.61989
8.65704
7.64046
6.7236
5.90022
5.16876
4.5454
4.03357
3.62613
3.31065
3.07081
2.89045
2.75815
2.66707
2.61486
2.60741
2.64315
2.72467
2.85817
3.05612
3.33899
3.73494
4.27692
4.99373
5.89391
6.95282
8.11502
9.3732
10.8727
13.0905
22.4411
139.044
10.0907
10.1786
9.65278
8.70409
7.6983
6.7958
5.99874
5.29545
4.69381
4.19528
3.79408
3.47989
3.23901
3.05747
2.92484
2.83499
2.7861
2.78485
2.8277
2.91776
3.06341
3.28148
3.59804
4.04531
4.65765
5.46159
6.45505
7.59126
8.79494
10.0623
11.546
13.6206
22.4815
138.935
10.1087
10.2156
9.69972
8.76561
7.77431
6.88731
6.11373
5.43863
4.86146
4.38027
3.98927
3.67957
3.43984
3.25844
3.12638
3.03848
2.99479
2.99941
3.04919
3.14884
3.31059
3.55747
3.92215
4.44113
5.14848
6.06439
7.16864
8.38513
9.62032
10.8727
12.2981
14.1593
22.5481
138.828
10.1474
10.2734
9.76414
8.84449
7.87064
7.00076
6.24929
5.60191
5.05107
4.59058
4.21339
3.9116
3.6757
3.49632
3.36604
3.28092
3.2448
3.25438
3.31145
3.42378
3.60964
3.90042
4.33593
4.95552
5.79055
6.84705
8.0758
9.36569
10.6074
11.8067
13.1076
14.6558
22.6051
138.728
10.2143
10.3586
9.85146
8.94646
7.99158
7.1391
6.4104
5.79061
5.26692
4.82926
4.46887
4.17817
3.94888
3.77363
3.64657
3.56484
3.53495
3.55182
3.62008
3.75309
3.9785
4.3386
4.87978
5.64108
6.64455
7.87031
9.22581
10.5665
11.7807
12.8605
13.9241
15.0354
22.6346
138.638
10.3212
10.4811
9.97175
9.0836
8.1446
7.31019
6.60479
6.01238
5.51596
5.10215
4.76049
4.48339
4.26328
4.0944
3.9723
3.89541
3.87366
3.90176
3.9892
4.15855
4.45128
4.92231
5.62097
6.57947
7.79855
9.21223
10.6746
12.0225
13.1473
13.9947
14.6542
15.2014
22.6373
138.598
10.4849
10.6572
10.1536
9.27033
8.34347
7.52702
6.84505
6.2795
5.80978
5.41989
5.09796
4.83632
4.62776
4.46765
4.35288
4.28423
4.27562
4.32345
4.44652
4.68268
5.0925
5.74134
6.6723
7.89827
9.37513
10.9674
12.4828
13.7628
14.684
15.1111
15.1446
15.0491
22.6485
138.577
10.7335
10.9312
10.4288
9.52933
8.60825
7.80839
7.14931
6.60969
6.1658
5.79963
5.4983
5.25381
5.05897
4.91001
4.80576
4.75794
4.76863
4.85329
5.04721
5.41108
6.02686
6.95745
8.22315
9.79172
11.5368
13.2443
14.7096
15.7874
16.2903
16.0012
15.1684
14.5498
23.1471
138.549
11.1308
11.354
10.8357
9.89039
8.96649
8.18065
7.54326
7.02868
6.61032
6.26869
5.98981
5.76389
5.58441
5.4487
5.35868
5.33892
5.39589
5.56672
5.91397
6.52782
7.50081
8.8677
10.5925
12.5444
14.4846
16.1572
17.3856
18.0007
17.706
16.2995
14.4832
14.027
27.04
138.514
11.7712
11.9965
11.4329
10.4014
9.46489
8.68973
8.07322
7.58461
7.19425
6.88032
6.62625
6.41958
6.25774
6.14065
6.08089
6.12586
6.30097
6.67791
7.3579
8.45463
10.0313
12.0312
14.2888
16.5313
18.4426
19.7914
20.4222
20.0836
18.4257
15.5111
13.1273
15.4588
34.0413
138.484
12.8084
12.9881
12.3391
11.1645
10.2048
9.43898
8.84776
8.39257
8.03745
7.75775
7.53165
7.35253
7.22186
7.14935
7.20148
7.42703
7.91423
8.78463
10.1711
12.1524
14.6444
17.3831
20.0295
22.2082
23.6187
24.0782
23.4206
21.3386
17.6819
13.3504
12.3131
18.5457
38.1871
138.45
14.706
14.6588
13.8538
12.4593
11.4703
10.723
10.182
9.79303
9.50094
9.28325
9.11902
9.01196
8.97147
9.05852
9.46702
10.2645
11.5977
13.6108
16.3589
19.6959
23.2095
26.3858
28.8105
30.1135
30.0501
28.4981
25.4258
20.6276
14.7373
11.4469
13.1214
19.7509
38.4579
138.42
18.3472
17.8326
16.9369
15.3936
14.5087
13.9172
13.5773
13.4037
13.3052
13.2674
13.2989
13.421
13.7194
14.6788
16.3237
18.7589
22.0825
26.2511
30.9166
35.4702
39.1706
41.4735
42.1678
40.7659
37.1362
31.4879
24.6989
17.5912
14.5814
14.1439
15.6852
20.717
36.9223
138.403
35.5928
29.9225
30.1597
29.8867
29.8228
29.8852
30.1711
30.6084
31.1526
31.7539
32.4176
33.605
36.5024
40.2847
44.8521
50.281
56.2557
62.0589
66.9017
70.1745
71.3924
69.4894
64.5805
56.4534
46.3464
37.5073
35.161
34.3971
34.135
34.1622
33.9325
35.2147
44.7674
138.397
207.88
204.074
201.408
199.929
199.686
199.662
199.63
199.63
199.652
199.671
199.674
199.649
199.588
199.467
199.271
198.98
198.576
198.056
197.456
196.864
196.418
196.186
196.106
196.103
196.103
196.1
196.097
196.093
196.092
196.091
196.091
196.088
196.086
167.24
163.714
49.6103
22.8825
13.9318
10.3757
8.71762
163.967
43.761
19.2864
12.2376
9.67666
8.53488
164.175
38.4145
16.7629
11.3882
9.56655
8.89111
164.347
33.9645
15.2696
11.2199
9.95227
9.6002
164.496
30.8245
14.834
11.5317
10.5953
10.5346
164.645
29.5541
14.9699
12.0516
11.3624
11.5077
164.781
29.3692
15.309
12.6813
12.2048
12.4663
164.89
29.338
15.7348
13.377
13.1046
13.3974
164.978
29.3789
16.2177
14.0968
13.9486
14.2509
165.049
29.4766
16.7509
14.8885
14.7372
14.9801
165.099
29.6235
17.2816
15.5848
15.4279
15.5501
165.112
29.8421
17.8542
16.215
15.9934
15.9437
165.082
30.0973
18.3473
16.7527
16.4152
16.1612
165.06
30.405
18.7869
17.1825
16.6876
16.2171
165.058
30.6435
19.1479
17.4933
16.8158
16.1344
165.272
30.8869
19.4271
17.6828
16.8128
15.9394
165.593
31.118
19.6237
17.7567
16.6968
15.6603
165.928
31.3231
19.738
17.7257
16.4881
15.3215
166.267
31.4949
19.7729
17.6031
16.2064
14.9439
166.607
31.6313
19.7368
17.4041
15.8703
14.5477
166.929
31.7552
19.6419
17.1441
15.4972
14.1476
167.236
31.8731
19.4991
16.8383
15.1053
13.7563
167.53
31.9863
19.3184
16.5011
14.7101
13.3812
167.813
32.0975
19.1103
16.1455
14.3208
13.0255
168.084
32.2104
18.8849
15.7857
13.9455
12.692
168.344
32.3276
18.6519
15.4329
13.5907
12.3825
168.592
32.458
18.4196
15.0923
13.2574
12.0987
168.828
32.6113
18.1925
14.7659
12.9454
11.8416
169.048
32.7882
17.9766
14.4566
12.6558
11.6078
169.253
32.9886
17.7758
14.1665
12.3877
11.3962
169.441
33.2126
17.593
13.8968
12.141
11.2082
169.61
33.4598
17.4297
13.6472
11.9151
11.044
169.76
33.7296
17.2864
13.411
11.708
10.8972
169.889
34.0204
17.1623
13.1891
11.5182
10.7657
169.995
34.3297
17.0565
12.9885
11.3436
10.6474
170.079
34.6358
16.9683
12.8066
11.1827
10.5402
170.139
34.9317
16.8962
12.6414
11.0339
10.4423
170.176
35.4238
16.8427
12.4914
10.8957
10.3521
170.188
36.0752
16.8088
12.355
10.7663
10.2684
170.174
36.8063
16.8051
12.2312
10.6453
10.1905
170.136
37.5375
16.8482
12.1194
10.5326
10.1179
170.075
38.2298
16.9133
12.0235
10.4282
10.0508
169.993
38.8427
16.9841
11.9391
10.334
9.9901
169.897
39.3351
17.0452
11.8618
10.249
9.93586
169.79
39.6636
17.0795
11.786
10.1722
9.88852
169.679
39.7825
17.0678
11.7057
10.1023
9.84896
169.572
39.6468
16.9849
11.6193
10.0386
9.81856
169.478
39.1551
16.8581
11.5285
9.98335
9.80027
169.402
38.5648
16.6949
11.4322
9.93884
9.79926
169.352
37.8966
16.4931
11.3299
9.9087
9.82286
169.338
37.1239
16.2513
11.2236
9.89916
9.88162
169.37
36.2338
15.9675
11.1195
9.92042
9.992
169.459
35.219
15.6466
11.031
9.99037
10.1809
169.615
34.103
15.2945
10.9801
10.1437
10.4939
169.848
32.9104
14.9429
11.0028
10.4393
11.0191
170.17
31.712
14.6379
11.1543
10.9979
11.9151
170.593
30.651
14.4406
11.5499
12.0441
13.5833
171.13
29.8455
14.4338
12.4188
14.1492
16.8622
171.791
29.3243
14.8322
14.4638
19.6046
28.5028
172.581
29.1723
16.636
23.0795
49.0831
110.192
173.278
29.2318
18.7453
31.1246
70.3938
176.062
174.04
29.5072
20.8591
37.1168
80.5199
176.348
174.859
29.9659
22.6891
41.2675
85.2116
175.334
196.516
196.257
196.319
196.367
196.388
196.43
196.456
196.455
196.434
196.4
196.363
196.317
196.259
196.197
196.144
196.11
196.094
196.088
196.086
196.086
196.086
196.085
196.085
196.085
196.085
196.085
196.085
196.085
196.085
196.085
196.085
196.085
196.085
167.24
61.043
34.8398
30.9368
29.454
28.6514
28.3933
28.5008
28.9712
29.7867
30.9678
34.5845
39.7895
44.5681
48.1465
49.7753
49.0964
46.6535
43.4648
40.1561
37.141
35.1346
34.1052
33.9187
33.8551
33.8229
33.8091
33.7822
33.7072
33.6104
33.5188
33.5443
34.2337
41.0478
138.396
36.1603
16.2802
13.1447
12.1953
11.5202
11.0609
10.7215
10.5244
10.4982
10.68
11.3031
13.3505
16.3918
19.7618
22.6715
24.4273
24.7716
23.815
21.7764
19.0094
16.1826
13.9221
12.5226
11.9176
11.6707
11.5855
11.5292
11.4345
11.3596
11.4102
11.9184
14.2495
26.877
138.396
28.0874
13.5816
10.7932
9.78862
8.92996
8.25116
7.66852
7.19318
6.8451
6.64537
6.65273
7.14097
8.36319
10.2476
12.4844
14.5476
15.9437
16.4071
15.868
14.4097
12.3213
10.0555
8.11007
6.78617
6.1239
5.81032
5.64199
5.5856
5.64059
5.99483
7.12098
10.6791
25.4195
138.396
26.5445
14.0299
11.0553
9.74106
8.56761
7.655
6.89081
6.2611
5.76679
5.41278
5.21444
5.23987
5.67888
6.60447
7.99462
9.62917
11.1264
12.1247
12.4007
11.8979
10.6946
9.00747
7.18255
5.59174
4.47922
3.8857
3.60035
3.54587
3.73885
4.35904
5.90687
10.0613
25.419
138.396
26.9826
15.3299
11.9372
10.1946
8.66206
7.51958
6.60617
5.87157
5.29301
4.86168
4.57664
4.45524
4.58789
5.04452
5.87574
7.03151
8.29873
9.37213
9.98238
10.0038
9.43008
8.3417
6.91171
5.39055
4.14206
3.30076
2.85248
2.7408
2.99483
3.75158
5.5103
9.94719
25.5657
138.396
28.0673
16.8266
12.9507
10.7459
8.86845
7.50991
6.47206
5.65907
5.02164
4.54034
4.20855
4.02875
4.04004
4.28348
4.80539
5.61289
6.60303
7.56235
8.25679
8.52142
8.31062
7.65047
6.62897
5.36526
4.17745
3.25413
2.67219
2.43607
2.62982
3.38902
5.20808
9.79826
25.6495
138.396
29.3778
18.3895
13.9874
11.2892
9.1147
7.56044
6.42162
5.54939
4.86636
4.34326
3.9754
3.76391
3.72671
3.87649
4.23677
4.82115
5.57882
6.37831
7.04014
7.38363
7.36356
6.96631
6.24542
5.28334
4.26094
3.37853
2.73572
2.39168
2.42005
3.0609
4.81166
9.45445
25.5394
138.397
30.7399
19.8641
14.986
11.7916
9.36896
7.64887
6.43667
5.52669
4.81326
4.25915
3.86005
3.62389
3.56677
3.67565
3.94855
4.38898
4.97062
5.61591
6.19267
6.54283
6.59649
6.34668
5.82333
5.09665
4.27541
3.50513
2.8856
2.48507
2.37543
2.76858
4.29059
8.82465
25.0915
138.397
32.0333
21.3134
15.9412
12.2468
9.57046
7.74037
6.50425
5.588
4.86907
4.30398
3.8883
3.6368
3.56952
3.64908
3.85923
4.19451
4.63999
5.14797
5.62396
5.93219
6.00301
5.82132
5.41422
4.84959
4.20793
3.57577
3.03192
2.63554
2.44577
2.64519
3.832
7.95434
24.3196
138.397
33.2188
22.6749
16.8326
12.6574
9.7412
7.85469
6.63007
5.74427
5.05675
4.51906
4.12139
3.87392
3.79313
3.83445
3.9774
4.21326
4.53046
4.90152
5.27762
5.52098
5.56882
5.40875
5.06729
4.60761
4.09366
3.59217
3.14653
2.78871
2.56977
2.64964
3.58116
7.38099
23.3159
138.397
34.3883
23.9018
17.6296
13.0185
9.90453
8.01063
6.84188
6.02991
5.41755
4.94968
4.60588
4.3869
4.30161
4.30562
4.38624
4.5322
4.73067
4.96342
5.19766
5.35296
5.35503
5.17982
4.86181
4.45725
4.02542
3.60889
3.23756
2.92789
2.71089
2.7216
3.46096
6.95785
22.7325
138.398
35.4388
24.9613
18.3084
13.3208
10.0751
8.23158
7.15864
6.46144
5.97194
5.62655
5.39438
5.26518
5.20876
5.21163
5.26411
5.35237
5.46147
5.57527
5.67086
5.70615
5.63203
5.39408
5.03847
4.61533
4.17944
3.76794
3.4028
3.09735
2.87258
2.83471
3.43313
6.62745
22.2091
138.398
36.2784
25.8635
18.8623
13.5744
10.2783
8.53113
7.59651
7.05413
6.73256
6.5575
6.49001
6.50677
6.54846
6.62609
6.7279
6.83609
6.93175
6.99586
7.00697
6.94015
6.76714
6.45225
5.96792
5.3984
4.81662
4.26547
3.78881
3.39548
3.09734
2.9899
3.47449
6.43503
21.7691
138.398
36.8636
26.6563
19.2813
13.793
10.5183
8.91969
8.16177
7.80779
7.68472
7.71295
7.84503
8.02351
8.21606
8.43037
8.64991
8.85364
9.01993
9.12505
9.13652
9.02905
8.77931
8.36628
7.77224
6.93734
6.06175
5.22529
4.48441
3.88216
3.42921
3.19981
3.5722
6.36053
21.4966
138.399
37.2542
27.2106
19.5325
13.9352
10.7962
9.4018
8.84804
8.69991
8.78387
9.01638
9.32985
9.65708
10.0132
10.3837
10.7483
11.0873
11.3858
11.6287
11.7458
11.6989
11.4522
10.9737
10.2397
9.23543
7.95762
6.68736
5.51988
4.58235
3.88376
3.46938
3.71687
6.39125
21.415
138.401
37.4753
27.5216
19.6141
14.0319
11.1168
9.96975
9.63366
9.68912
9.96836
10.361
10.7894
11.2612
11.7598
12.2638
12.7519
13.2052
13.6095
13.8978
14.0684
14.0934
13.9357
13.5532
12.902
11.9438
10.6335
8.92033
7.04673
5.57632
4.49475
3.80663
3.90504
6.51655
21.5227
138.404
37.5388
27.5978
19.5243
14.1052
11.4864
10.6021
10.4756
10.7107
11.104
11.5699
12.0964
12.6601
13.2364
13.8019
14.3346
14.814
15.2202
15.5544
15.816
15.9831
16.0161
15.8579
15.4366
14.6704
13.4806
11.8122
9.60888
7.21167
5.42309
4.28611
4.15411
6.73159
21.7956
138.406
37.4485
27.4527
19.338
14.188
11.9003
11.2584
11.3003
11.5914
12.0063
12.4983
13.0304
13.5724
14.1007
14.5978
15.0514
15.454
15.7998
16.1437
16.4999
16.8538
17.1693
17.3835
17.4063
17.1153
16.3616
14.9951
12.911
10.0873
7.13446
5.13887
4.53684
7.04107
22.1779
138.408
37.2073
27.1299
19.1861
14.3119
12.3307
11.8614
11.9096
12.167
12.5192
12.9058
13.2869
13.6391
13.9532
14.2335
14.4974
14.7692
15.067
15.439
15.9077
16.4585
17.0682
17.6941
18.2561
18.6297
18.63
18.0118
16.5079
13.9201
10.2543