/*--------------------------------*- C++ -*----------------------------------*\
| =========                 |                                                 |
| \\      /  F ield         | OpenFOAM: The Open Source CFD Toolbox           |
|  \\    /   O peration     | Version:  v2012                                 |
|   \\  /    A nd           | Website:  www.openfoam.com                      |
|    \\/     M anipulation  |                                                 |
\*---------------------------------------------------------------------------*/
FoamFile
{
    version     2.0;
    format      ascii;
    class       surfaceScalarField;
    location    "560";
    object      phi;
}
// * * * * * * * * * * * * * * * * * * * * * * * * * * * * * * * * * * * * * //

dimensions      [0 3 -1 0 0 0 0];
oriented        oriented;


internalField   nonuniform List<scalar> 
11779
(
-0.00010728
1.01702e-05
9.71102e-05
-0.000116309
9.02896e-06
-0.000124218
7.90898e-06
-0.000131049
6.83062e-06
-0.000136973
5.92427e-06
-0.000142236
5.26266e-06
-0.000147028
4.79229e-06
-0.000151499
4.4705e-06
-0.000155759
4.26004e-06
-0.000159891
4.13254e-06
-0.000163962
4.07063e-06
-0.000168023
4.06098e-06
-0.000172101
4.07847e-06
-0.000176214
4.11225e-06
-0.000180366
4.15236e-06
-0.00018454
4.17413e-06
-0.000188688
4.14788e-06
-0.000192843
4.15475e-06
-0.000197043
4.20029e-06
2.95696e-06
-0.000193655
1.43702e-05
0.000189455
-0.0001966
1.1974e-05
-0.000198646
9.95513e-06
-0.000200144
8.32861e-06
-0.000201283
7.06351e-06
-0.000202128
6.10693e-06
-0.000202738
5.40243e-06
-0.000203163
4.89553e-06
-0.000203442
4.53891e-06
-0.000203603
4.29427e-06
-0.000203671
4.13809e-06
-0.000203674
4.0643e-06
-0.000203636
4.04045e-06
-0.000203547
4.02332e-06
-0.000203394
3.99891e-06
-0.000203174
3.9546e-06
-0.00020287
3.84334e-06
-0.000202349
3.63429e-06
-0.000201439
3.28968e-06
1.51833e-06
-0.000213186
1.52428e-05
0.000212313
-0.000213655
1.24437e-05
-0.000213821
1.01206e-05
-0.000213749
8.25733e-06
-0.000213488
6.80215e-06
-0.000213072
5.69101e-06
-0.00021253
4.86032e-06
-0.000211886
4.25137e-06
-0.000211161
3.81396e-06
-0.000210372
3.50556e-06
-0.00020952
3.28587e-06
-0.000208574
3.11821e-06
-0.000207558
3.02405e-06
-0.00020652
2.9862e-06
-0.000205455
2.93301e-06
-0.00020434
2.84058e-06
-0.000203185
2.68766e-06
-0.000202012
2.46122e-06
-0.000200736
2.01396e-06
7.82321e-07
-0.00021918
1.52368e-05
0.000219186
-0.000218887
1.21509e-05
-0.00021838
9.61366e-06
-0.000217711
7.58803e-06
-0.000216916
6.00684e-06
-0.00021602
4.79509e-06
-0.000215041
3.88142e-06
-0.000213993
3.20285e-06
-0.000212885
2.70612e-06
-0.000211724
2.34502e-06
-0.000210517
2.07842e-06
-0.00020928
1.88149e-06
-0.00020801
1.75402e-06
-0.000206695
1.67159e-06
-0.000205357
1.5951e-06
-0.000204021
1.50454e-06
-0.000202721
1.38768e-06
-0.000201496
1.23597e-06
-0.000200431
9.49133e-07
3.50979e-07
-0.000222088
1.48277e-05
0.000222497
-0.000221389
1.14515e-05
-0.000220494
8.71857e-06
-0.000219471
6.56547e-06
-0.000218363
4.89879e-06
-0.000217193
3.62522e-06
-0.000215975
2.66286e-06
-0.000214715
1.94365e-06
-0.000213421
1.41182e-06
-0.000212096
1.01985e-06
-0.000210745
7.27402e-07
-0.000209374
5.09993e-07
-0.000207976
3.56286e-07
-0.000206555
2.51287e-07
-0.000205137
1.76154e-07
-0.000203753
1.21288e-07
-0.000202447
8.13453e-08
-0.000201262
5.14871e-08
-0.000200342
2.84239e-08
9.22645e-09
-0.00022404
1.409e-05
0.000224778
-0.000222986
1.03971e-05
-0.000221757
7.49042e-06
-0.000220451
5.25903e-06
-0.000219111
3.55931e-06
-0.000217758
2.27134e-06
-0.000216395
1.30026e-06
-0.000215025
5.7336e-07
-0.000213646
3.33274e-08
-0.00021226
-3.66504e-07
-0.000210864
-6.67921e-07
-0.000209458
-8.97004e-07
-0.000208031
-1.07021e-06
-0.000206591
-1.18832e-06
-0.00020516
-1.25537e-06
-0.000203768
-1.27105e-06
-0.000202455
-1.23132e-06
-0.000201266
-1.13731e-06
-0.000200343
-8.94891e-07
-3.33537e-07
-0.000225206
1.29097e-05
0.000226386
-0.000223767
8.95837e-06
-0.000222215
5.93785e-06
-0.000220669
3.7132e-06
-0.000219167
2.05716e-06
-0.000217714
8.18471e-07
-0.000216301
-1.12394e-07
-0.000214918
-8.09448e-07
-0.000213554
-1.33061e-06
-0.000212206
-1.71517e-06
-0.000210865
-2.00888e-06
-0.000209525
-2.23685e-06
-0.000208171
-2.4246e-06
-0.000206799
-2.56038e-06
-0.000205425
-2.62923e-06
-0.000204063
-2.63322e-06
-0.000202744
-2.5495e-06
-0.000201507
-2.37505e-06
-0.000200434
-1.96707e-06
-7.67959e-07
-0.000224389
1.12887e-05
0.00022601
-0.00022252
7.08982e-06
-0.000220688
4.10512e-06
-0.000218985
2.0102e-06
-0.000217429
5.01146e-07
-0.000216014
-5.96421e-07
-0.000214712
-1.41454e-06
-0.000213494
-2.02691e-06
-0.000212334
-2.49034e-06
-0.000211197
-2.85246e-06
-0.000210062
-3.14369e-06
-0.000208925
-3.37453e-06
-0.0002078
-3.54868e-06
-0.000206689
-3.67231e-06
-0.000205561
-3.75689e-06
-0.000204405
-3.78932e-06
-0.00020322
-3.73438e-06
-0.000202027
-3.56802e-06
-0.000200741
-3.25337e-06
-1.50861e-06
-0.00021536
8.53942e-06
0.000218109
-0.000212668
4.39859e-06
-0.000210488
1.92438e-06
-0.00020886
3.82437e-07
-0.000207656
-7.02267e-07
-0.000206765
-1.48767e-06
-0.000206082
-2.09755e-06
-0.000205549
-2.56044e-06
-0.000205122
-2.91727e-06
-0.000204774
-3.19992e-06
-0.000204489
-3.42907e-06
-0.000204249
-3.6144e-06
-0.00020403
-3.7681e-06
-0.000203803
-3.89886e-06
-0.000203554
-4.00626e-06
-0.000203269
-4.07426e-06
-0.000202919
-4.08385e-06
-0.000202368
-4.11933e-06
-0.000201441
-4.18008e-06
-2.9498e-06
-0.000155616
0.000164156
-0.000151218
-0.000149293
-0.000148911
-0.000149613
-0.000151101
-0.000153198
-0.000155759
-0.000158676
-0.000161876
-0.000165305
-0.000168919
-0.000172688
-0.000176586
-0.000180593
-0.000184667
-0.000188751
-0.00019287
-0.00019705
1.13853e-05
-3.1072e-06
-8.27809e-06
1.2563e-05
-1.17772e-06
1.17231e-05
8.39926e-07
9.44133e-06
2.28175e-06
6.65546e-06
2.78586e-06
4.21837e-06
2.4371e-06
2.53583e-06
1.68253e-06
1.71142e-06
8.24403e-07
1.76813e-06
-5.67074e-08
2.74119e-06
-9.73065e-07
4.80926e-06
-2.06807e-06
7.25867e-06
-2.44941e-06
9.35707e-06
-2.0984e-06
1.06166e-05
-1.25952e-06
1.08771e-05
-2.60486e-07
1.0544e-05
3.33043e-07
1.02032e-05
3.40827e-07
1.01255e-05
7.76531e-08
1.02538e-05
-1.28254e-07
1.02581e-05
-4.26157e-09
9.8311e-06
4.26954e-07
8.85665e-06
9.74453e-07
7.27433e-06
1.58232e-06
4.59152e-06
2.68281e-06
2.97341e-07
4.29417e-06
-5.83495e-06
6.13229e-06
-1.37202e-05
7.88521e-06
-2.32867e-05
9.5665e-06
-3.44483e-05
1.11616e-05
-4.68594e-05
1.24111e-05
-6.00286e-05
1.31692e-05
-7.3192e-05
1.31634e-05
-8.56664e-05
1.24744e-05
1.14438e-05
2.36861e-05
-7.87923e-06
-1.89141e-05
2.62331e-05
-3.72469e-06
2.64346e-05
6.38376e-07
2.43658e-05
4.35056e-06
2.06053e-05
6.54642e-06
1.61207e-05
6.92163e-06
1.20737e-05
5.72959e-06
9.39074e-06
3.50732e-06
8.54124e-06
7.92789e-07
9.58032e-06
-2.01215e-06
1.22257e-05
-4.7135e-06
1.49794e-05
-5.20302e-06
1.71307e-05
-4.24974e-06
1.81521e-05
-2.2809e-06
1.81185e-05
-2.26929e-07
1.72954e-05
1.1562e-06
1.5777e-05
1.85915e-06
1.34253e-05
2.42943e-06
1.00906e-05
3.20644e-06
5.53366e-06
4.55263e-06
-1.0052e-06
6.96581e-06
-1.08634e-05
1.08326e-05
-2.469e-05
1.54089e-05
-4.1791e-05
1.97838e-05
-6.08944e-05
2.33976e-05
-8.08836e-05
2.61215e-05
-0.000100872
2.78739e-05
-0.000120012
2.87059e-05
-0.00013752
2.86703e-05
-0.000152827
2.77173e-05
-0.000165535
2.58775e-05
-0.000175702
2.33301e-05
-0.000183578
2.03505e-05
1.73211e-05
3.32881e-05
-1.23651e-05
-2.88022e-05
3.55191e-05
-5.9557e-06
3.5534e-05
6.23487e-07
3.36346e-05
6.24994e-06
3.02262e-05
9.95483e-06
2.58335e-05
1.13143e-05
2.13492e-05
1.02139e-05
1.78179e-05
7.03861e-06
1.60222e-05
2.58853e-06
1.60918e-05
-2.08172e-06
1.72405e-05
-5.86222e-06
1.79481e-05
-5.91068e-06
1.76756e-05
-3.97715e-06
1.6196e-05
-8.01336e-07
1.36855e-05
2.2836e-06
1.01463e-05
4.69539e-06
5.13799e-06
6.86743e-06
-2.19447e-06
9.76189e-06
-1.30484e-05
1.40603e-05
-2.82652e-05
1.97694e-05
-4.76144e-05
2.63151e-05
-6.96371e-05
3.28553e-05
-9.26869e-05
3.84587e-05
-0.000115335
4.24319e-05
-0.000136476
4.45389e-05
-0.000155282
4.49271e-05
-0.000171252
4.38443e-05
-0.000184132
4.15853e-05
-0.000193907
3.84453e-05
-0.000200894
3.47042e-05
-0.000205647
3.0631e-05
-0.000208794
2.64766e-05
-0.0002109
2.24571e-05
1.87339e-05
3.95378e-05
-1.55727e-05
-3.63303e-05
4.05015e-05
-6.9194e-06
3.97138e-05
1.4112e-06
3.76663e-05
8.2975e-06
3.45011e-05
1.31199e-05
3.05519e-05
1.52635e-05
2.63967e-05
1.43691e-05
2.28183e-05
1.06169e-05
2.04726e-05
4.93427e-06
1.91335e-05
-7.42597e-07
1.74446e-05
-4.17333e-06
1.48986e-05
-3.3647e-06
1.11176e-05
-1.96168e-07
6.15043e-06
4.16585e-06
-2.51486e-07
8.68551e-06
-8.98466e-06
1.34286e-05
-2.1409e-05
1.92918e-05
-3.83312e-05
2.66841e-05
-5.93947e-05
3.51238e-05
-8.32073e-05
4.35821e-05
-0.000107846
5.09538e-05
-0.000131382
5.63909e-05
-0.000152382
5.94595e-05
-0.00017009
6.01397e-05
-0.000184297
5.87462e-05
-0.000195148
5.57774e-05
-0.000203042
5.17388e-05
-0.000208546
4.70894e-05
-0.000212299
4.2198e-05
-0.000214891
3.72966e-05
-0.000216728
3.24673e-05
-0.00021801
2.77588e-05
-0.000218817
2.32646e-05
1.91027e-05
4.10611e-05
-1.70449e-05
-3.95888e-05
4.0724e-05
-6.58231e-06
3.92694e-05
2.86577e-06
3.69125e-05
1.06544e-05
3.37979e-05
1.62345e-05
3.01637e-05
1.88978e-05
2.63801e-05
1.81526e-05
2.2906e-05
1.4091e-05
1.98688e-05
7.97154e-06
1.65579e-05
2.56824e-06
1.19031e-05
4.81458e-07
5.97445e-06
2.56397e-06
-1.61328e-06
7.39156e-06
-1.12475e-05
1.38001e-05
-2.39963e-05
2.14343e-05
-4.09205e-05
3.03528e-05
-6.20084e-05
4.03797e-05
-8.60739e-05
5.07495e-05
-0.000111185
6.02345e-05
-0.000135251
6.76486e-05
-0.000156569
7.22712e-05
-0.000174168
7.39906e-05
-0.000187832
7.3123e-05
-0.000197915
7.02234e-05
-0.000205091
6.59214e-05
-0.000210109
6.0796e-05
-0.000213672
5.53017e-05
-0.000216328
4.97452e-05
-0.000218399
4.42686e-05
-0.000220016
3.89135e-05
-0.00022124
3.36913e-05
-0.000222088
2.86069e-05
-0.000222514
2.36914e-05
1.90855e-05
3.76223e-05
-1.64926e-05
-3.81746e-05
3.62792e-05
-5.23927e-06
3.43359e-05
4.80913e-06
3.18318e-05
1.31584e-05
2.88309e-05
1.92354e-05
2.54475e-05
2.22813e-05
2.18991e-05
2.1701e-05
1.83047e-05
1.76854e-05
1.41829e-05
1.20933e-05
8.61794e-06
8.13322e-06
9.98806e-07
8.10059e-06
-8.86701e-06
1.24298e-05
-2.16016e-05
2.01261e-05
-3.79257e-05
3.01242e-05
-5.80968e-05
4.16054e-05
-8.14917e-05
5.37476e-05
-0.000106512
6.54004e-05
-0.000131083
7.53204e-05
-0.000153236
8.23869e-05
-0.000171656
8.60685e-05
-0.000185915
8.65311e-05
-0.000196326
8.44011e-05
-0.000203636
8.04329e-05
-0.000208734
7.53217e-05
-0.000212418
6.9605e-05
-0.000215269
6.36475e-05
-0.000217645
5.76769e-05
-0.000219703
5.1804e-05
-0.000221478
4.60434e-05
-0.000222939
4.03746e-05
-0.000224051
3.48027e-05
-0.000224791
2.93474e-05
-0.000225058
2.3958e-05
1.88053e-05
3.07588e-05
-1.49601e-05
-3.22913e-05
2.87981e-05
-3.27856e-06
2.65306e-05
7.07655e-06
2.392e-05
1.57691e-05
2.09348e-05
2.22205e-05
1.76199e-05
2.55962e-05
1.40444e-05
2.52765e-05
9.93041e-06
2.17994e-05
4.27459e-06
1.77491e-05
-3.93891e-06
1.63467e-05
-1.5402e-05
1.95637e-05
-3.05601e-05
2.75878e-05
-4.95021e-05
3.90681e-05
-7.17558e-05
5.23779e-05
-9.61618e-05
6.60115e-05
-0.000120991
7.85769e-05
-0.000144258
8.86675e-05
-0.000164225
9.52872e-05
-0.000179989
9.81505e-05
-0.000191589
9.76688e-05
-0.000199733
9.46757e-05
-0.00020538
9.00474e-05
-0.000209431
8.44839e-05
-0.000212576
7.84674e-05
-0.000215245
7.22733e-05
-0.000217634
6.60366e-05
-0.000219803
5.98463e-05
-0.000221747
5.37477e-05
-0.000223442
4.77382e-05
-0.000224848
4.17806e-05
-0.000225904
3.58595e-05
-0.000226589
3.00323e-05
-0.000226872
2.42412e-05
1.83192e-05
2.2982e-05
-1.27019e-05
-2.52402e-05
2.04689e-05
-7.65524e-07
1.77306e-05
9.81491e-06
1.47354e-05
1.87643e-05
1.14461e-05
2.55098e-05
7.87572e-06
2.91666e-05
3.8985e-06
2.92537e-05
-1.36239e-06
2.70603e-05
-9.41089e-06
2.57976e-05
-2.14092e-05
2.83451e-05
-3.78421e-05
3.59966e-05
-5.82831e-05
4.80288e-05
-8.15996e-05
6.23846e-05
-0.000106265
7.70436e-05
-0.000130476
9.02218e-05
-0.000152296
0.000100397
-0.000170295
0.000106667
-0.000183943
0.000108935
-0.00019363
0.000107838
-0.000200296
0.000104334
-0.000204981
9.93613e-05
-0.000208531
9.3597e-05
-0.000211483
8.74356e-05
-0.000214117
8.11023e-05
-0.000216551
7.47072e-05
-0.000218778
6.82635e-05
-0.000220752
6.18196e-05
-0.000222447
5.54436e-05
-0.000223841
4.91313e-05
-0.000224921
4.28607e-05
-0.000225704
3.66431e-05
-0.000226235
3.05631e-05
-0.00022653
2.45357e-05
1.77995e-05
1.52834e-05
-9.93596e-06
-1.80493e-05
1.21966e-05
2.32119e-06
8.82151e-06
1.319e-05
5.16439e-06
2.24214e-05
1.27776e-06
2.93964e-05
-2.85376e-06
3.32981e-05
-7.90465e-06
3.43046e-05
-1.54597e-05
3.46154e-05
-2.71022e-05
3.744e-05
-4.3594e-05
4.48368e-05
-6.44104e-05
5.6813e-05
-8.79987e-05
7.16172e-05
-0.000112516
8.6902e-05
-0.00013598
0.000100507
-0.000156535
0.000110778
-0.000172969
0.000116831
-0.000185048
0.000118746
-0.000193416
0.000117303
-0.00019914
0.000113561
-0.000203256
0.00010845
-0.000206518
0.000102624
-0.000209356
9.64351e-05
-0.000211905
8.99842e-05
-0.000214132
8.33299e-05
-0.000215967
7.65417e-05
-0.000217444
6.97406e-05
-0.000218615
6.29906e-05
-0.000219429
5.62579e-05
-0.000219906
4.96085e-05
-0.000220131
4.30858e-05
-0.000220073
3.65845e-05
-0.00021957
3.00604e-05
-0.000218839
2.38044e-05
1.70694e-05
7.92853e-06
-1.12108e-05
-6.6537e-06
4.18998e-06
6.05974e-06
3.8795e-08
1.73412e-05
-4.40924e-06
2.68695e-05
-9.05321e-06
3.40404e-05
-1.43116e-05
3.85565e-05
-2.1531e-05
4.1524e-05
-3.24654e-05
4.55498e-05
-4.81699e-05
5.31445e-05
-6.84096e-05
6.50765e-05
-9.16562e-05
8.00597e-05
-0.000115751
9.57116e-05
-0.00013849
0.000109642
-0.000158027
0.000120044
-0.000173295
0.000126046
-0.000184269
0.000127804
-0.000191736
0.000126213
-0.000196826
0.000122393
-0.000200554
0.000117289
-0.000203547
0.000111443
-0.000206047
0.000105124
-0.00020806
9.8448e-05
-0.00020958
9.15039e-05
-0.000210499
8.42493e-05
-0.00021062
7.66627e-05
-0.00020976
6.888e-05
-0.000207683
6.09137e-05
-0.000204233
5.28086e-05
-0.000199322
4.46967e-05
-0.000192979
3.6743e-05
-0.000185551
2.91568e-05
-0.000177286
2.17954e-05
-0.000168148
1.46659e-05
1.30776e-05
-1.03383e-06
1.03383e-06
-2.06668e-06
1.03285e-06
-1.7069e-06
-3.5978e-07
6.0699e-07
-2.31389e-06
4.34733e-06
-3.74034e-06
-3.93076e-06
-1.1871e-06
2.22092e-06
-1.24103e-06
1.08678e-06
1.44217e-06
-3.04299e-06
6.70881e-06
-7.58053e-06
1.30187e-05
-1.00502e-05
-9.82618e-06
-4.51781e-07
2.6727e-06
1.69546e-06
-1.06047e-06
7.48116e-06
-8.82869e-06
1.51438e-05
-1.52431e-05
2.26844e-05
-1.75909e-05
-1.59439e-05
7.36198e-07
1.9365e-06
5.82789e-06
-6.15216e-06
1.44779e-05
-1.74787e-05
2.36253e-05
-2.43906e-05
3.11381e-05
-2.51036e-05
-2.11361e-05
2.28573e-06
-3.49236e-07
1.06785e-05
-1.45449e-05
2.1239e-05
-2.80392e-05
3.02256e-05
-3.33772e-05
3.61974e-05
-3.10754e-05
-2.45276e-05
4.52497e-06
-4.87421e-06
1.55141e-05
-2.55341e-05
2.61139e-05
-3.86389e-05
3.3213e-05
-4.04763e-05
3.69815e-05
-3.48439e-05
-2.57207e-05
7.18101e-06
-1.20552e-05
1.91131e-05
-3.74662e-05
2.78236e-05
-4.73494e-05
3.20132e-05
-4.46658e-05
3.29815e-05
-3.58123e-05
-2.50304e-05
9.75013e-06
-2.18053e-05
2.05062e-05
-4.82223e-05
2.62278e-05
-5.3071e-05
2.77281e-05
-4.61662e-05
2.6955e-05
-3.50392e-05
-2.33156e-05
1.11485e-05
-3.29538e-05
1.93263e-05
-5.64001e-05
2.22364e-05
-5.59812e-05
2.19489e-05
-4.58787e-05
2.02715e-05
-3.33618e-05
-2.10934e-05
1.06853e-05
-4.36392e-05
1.6216e-05
-6.19307e-05
1.72222e-05
-5.69874e-05
1.59344e-05
-4.45909e-05
1.38041e-05
-3.12315e-05
-1.85001e-05
6.86175e-07
-2.49355e-06
-4.84633e-06
-4.10708e-06
1.0853e-05
-9.40098e-06
2.26351e-05
-1.50529e-05
3.25214e-05
-2.12513e-05
4.02388e-05
-2.9022e-05
4.63271e-05
-4.007e-05
5.2572e-05
-5.57649e-05
6.12447e-05
-7.61966e-05
7.35763e-05
-9.99791e-05
8.8859e-05
-0.000124759
0.00010484
-0.000148027
0.000118979
-0.00016777
0.000129384
-0.000182961
0.000135235
-0.000193695
0.00013678
-0.000200895
0.000135004
-0.000205758
0.000131077
-0.000209235
0.00012587
-0.000211837
0.000119891
-0.000213742
0.000113348
-0.000214765
0.000106147
-0.000214447
9.81297e-05
-0.000212119
8.9176e-05
-0.000207074
7.92041e-05
-0.000198888
6.84767e-05
-0.000187318
5.73106e-05
-0.000172335
4.59303e-05
-0.000154221
3.46946e-05
-0.000133478
2.39534e-05
-0.000110796
1.40612e-05
-8.71999e-05
5.56081e-06
-6.34006e-05
-2.00392e-06
-3.75206e-05
-1.12141e-05
-2.4443e-05
-7.08588e-06
2.46637e-06
2.12596e-06
-1.27712e-05
1.65383e-05
-1.905e-05
2.89139e-05
-2.59763e-05
3.94477e-05
-3.42022e-05
4.84647e-05
-4.50609e-05
5.71858e-05
-5.99097e-05
6.74208e-05
-7.91561e-05
8.04911e-05
-0.000101749
9.61695e-05
-0.000125464
0.000112574
-0.000147748
0.000127124
-0.000166553
0.000137784
-0.00018087
0.000143701
-0.000190844
0.00014521
-0.000197417
0.000143353
-0.000201692
0.000139279
-0.000204493
0.000133878
-0.000206169
0.000127545
-0.000206451
0.000120173
-0.000204626
0.000111523
-0.000199876
0.000101396
-0.000191457
8.97111e-05
-0.000178928
7.66465e-05
-0.000162425
6.27013e-05
-0.000142464
4.85163e-05
-0.000119878
3.47239e-05
-9.59417e-05
2.19945e-05
-7.21876e-05
1.09405e-05
-5.02606e-05
2.02646e-06
-3.16054e-05
-4.59411e-06
-1.676e-05
-9.28458e-06
-4.96034e-06
-1.38036e-05
3.06488e-06
-1.92393e-05
-2.13781e-05
-1.47902e-05
8.30958e-06
8.94694e-06
-2.14615e-05
2.32097e-05
-2.89696e-05
3.6422e-05
-3.7702e-05
4.81802e-05
-4.85988e-05
5.93615e-05
-6.28153e-05
7.14022e-05
-8.09217e-05
8.55272e-05
-0.000102236
0.000101806
-0.000124821
0.000118754
-0.000146182
0.000133935
-0.000164234
0.000145176
-0.000177922
0.000151472
-0.000187336
0.000153115
-0.000193337
0.000151211
-0.000196925
0.000146941
-0.000198758
0.000141111
-0.000198769
0.000133889
-0.000196303
0.00012508
-0.000190563
0.000114433
-0.000180825
0.000101785
-0.00016671
8.72813e-05
-0.000148418
7.14193e-05
-0.000126808
5.50366e-05
-0.000103242
3.9136e-05
-7.93596e-05
2.46334e-05
-5.69336e-05
1.22979e-05
-3.76081e-05
2.66896e-06
-2.23667e-05
-4.30084e-06
-1.12098e-05
-9.13044e-06
-3.49608e-06
-1.23078e-05
1.68561e-06
-1.44663e-05
4.44137e-06
-1.65593e-05
4.28272e-06
-1.90806e-05
-1.70954e-05
-2.25736e-05
1.51452e-05
1.5738e-05
-3.04296e-05
3.10658e-05
-3.95559e-05
4.55482e-05
-5.05836e-05
5.92079e-05
-6.43804e-05
7.31583e-05
-8.15266e-05
8.85484e-05
-0.000101634
0.000105635
-0.000123118
0.00012329
-0.000143663
0.000139299
-0.000161148
0.00015142
-0.000174415
0.000158443
-0.000183452
0.000160509
-0.000188948
0.000158611
-0.000191739
0.000154002
-0.000192222
0.000147424
-0.000190063
0.000138953
-0.000184557
0.000128383
-0.000174988
0.000115511
-0.00016096
0.000100405
-0.000142689
8.35142e-05
-0.000121079
6.56713e-05
-9.76209e-05
4.79611e-05
-7.41156e-05
3.15313e-05
-5.23121e-05
1.73324e-05
-3.3633e-05
5.95435e-06
-1.88696e-05
-2.46552e-06
-7.92841e-06
-8.27224e-06
-2.07396e-07
-1.20219e-05
4.77643e-06
-1.41143e-05
7.45457e-06
-1.4986e-05
8.23664e-06
-1.52483e-05
7.21521e-06
-1.55379e-05
4.1201e-06
-1.59855e-05
-1.29753e-05
-3.05981e-05
2.3139e-05
2.26043e-05
-3.99145e-05
4.03822e-05
-5.10154e-05
5.66491e-05
-6.45471e-05
7.27396e-05
-8.0938e-05
8.95491e-05
-9.99937e-05
0.000107604
-0.000120473
0.000126114
-0.000140317
0.000143134
-0.000157421
0.000156404
-0.00017046
0.000164459
-0.000179201
0.000167184
-0.000184165
0.000165473
-0.000186134
0.00016058
-0.000185235
0.000153103
-0.000180936
0.000143125
-0.000172624
0.000130641
-0.000159827
0.000115586
-0.000142627
9.83111e-05
-0.000121808
7.95851e-05
-9.87866e-05
6.04933e-05
-7.53516e-05
4.22363e-05
-5.32903e-05
2.58998e-05
-3.40188e-05
1.22598e-05
-1.83326e-05
1.64624e-06
-6.29987e-06
-6.07838e-06
2.50295e-06
-1.12683e-05
8.54358e-06
-1.43129e-05
1.21979e-05
-1.56762e-05
1.38727e-05
-1.57891e-05
1.38203e-05
-1.49336e-05
1.22652e-05
-1.36932e-05
9.29821e-06
-1.25709e-05
4.80205e-06
-1.14894e-05
-8.17325e-06
-3.90135e-05
3.25161e-05
2.96363e-05
-5.0048e-05
5.14167e-05
-6.328e-05
6.98811e-05
-7.91036e-05
8.85632e-05
-9.72984e-05
0.000107744
-0.000116905
0.00012721
-0.000136158
0.000145367
-0.000153042
0.000160018
-0.00016608
0.000169442
-0.00017477
0.000173148
-0.000179452
0.000171866
-0.000180679
0.0001667
-0.000178422
0.000158322
-0.000172194
0.000146875
-0.000161561
0.000132491
-0.000146335
0.000115415
-0.000127019
9.62702e-05
-0.000104822
7.61141e-05
-8.14374e-05
5.62e-05
-5.86759e-05
3.77318e-05
-3.80783e-05
2.16387e-05
-2.06485e-05
8.47009e-06
-6.75657e-06
-1.6322e-06
3.79781e-06
-8.90815e-06
1.14706e-05
-1.37511e-05
1.65613e-05
-1.63591e-05
1.94108e-05
-1.71624e-05
2.04123e-05
-1.66776e-05
1.98299e-05
-1.52067e-05
1.79183e-05
-1.3022e-05
1.48452e-05
-1.06201e-05
1.06296e-05
-8.35528e-06
5.1789e-06
-6.03868e-06
-2.99435e-06
-4.78159e-05
4.35357e-05
3.67963e-05
-6.08055e-05
6.44063e-05
-7.60833e-05
8.5159e-05
-9.35368e-05
0.000106017
-0.000112393
0.000126601
-0.000131164
0.000145981
-0.000147954
0.000162157
-0.000161173
0.000173237
-0.000170101
0.00017837
-0.000174715
0.000177762
-0.000175397
0.000172548
-0.000172089
0.000163392
-0.000164393
0.000150626
-0.000152039
0.000134521
-0.000135167
0.000115619
-0.000114594
9.4843e-05
-9.17877e-05
7.34635e-05
-6.85237e-05
5.28501e-05
-4.64895e-05
3.41658e-05
-2.69482e-05
1.81904e-05
-1.0583e-05
5.27352e-06
2.41422e-06
-4.52717e-06
1.22403e-05
-1.14582e-05
1.92371e-05
-1.5905e-05
2.37354e-05
-1.82494e-05
2.60305e-05
-1.86543e-05
2.64552e-05
-1.7587e-05
2.54318e-05
-1.56543e-05
2.32031e-05
-1.2978e-05
2.0025e-05
-9.84392e-06
1.60076e-05
-6.60273e-06
1.11032e-05
-3.45085e-06
5.22667e-06
-1.62165e-07
2.23232e-06
-5.70169e-05
5.6349e-05
4.42037e-05
-7.18994e-05
7.92888e-05
-8.87706e-05
0.00010203
-0.000106962
0.000124209
-0.000125295
0.000144934
-0.000142069
0.000162754
-0.000155599
0.000175688
-0.000164901
0.000182538
-0.000169925
0.000183394
-0.000170342
0.00017818
-0.000166386
0.000168592
-0.000157753
0.000154759
-0.000144332
0.000137205
-0.000126531
0.00011672
-0.000105404
9.4493e-05
-8.25347e-05
7.19734e-05
-5.96687e-05
5.05975e-05
-3.83167e-05
3.14981e-05
-1.95014e-05
1.53505e-05
-3.69399e-06
2.38306e-06
8.96631e-06
-7.38678e-06
1.85078e-05
-1.40686e-05
2.51387e-05
-1.80892e-05
2.91702e-05
-1.99364e-05
3.09009e-05
-1.99802e-05
3.08707e-05
-1.8624e-05
2.95408e-05
-1.62571e-05
2.71489e-05
-1.32624e-05
2.39523e-05
-9.78136e-06
2.01282e-05
-6.0199e-06
1.57264e-05
-2.20086e-06
1.06567e-05
1.61886e-06
4.86575e-06
5.62876e-06
7.09807e-06
-6.64222e-05
7.09105e-05
5.18606e-05
-8.28438e-05
9.57105e-05
-0.000100566
0.000119753
-0.000118496
0.000142138
-0.000135267
0.000161704
-0.00014922
0.000176707
-0.00015913
0.000185598
-0.000164767
0.000188175
-0.000165456
0.000184083
-0.000161305
0.000174028
-0.000152279
0.000159566
-0.000138419
0.000140899
-0.000120327
0.000119114
-9.92296e-05
9.56221e-05
-7.6755e-05
7.20183e-05
-5.45619e-05
4.97803e-05
-3.39817e-05
3.00173e-05
-1.58368e-05
1.33533e-05
-4.33068e-07
-5.32317e-08
1.20582e-05
-1.01082e-05
2.1561e-05
-1.68896e-05
2.80181e-05
-2.05257e-05
3.1677e-05
-2.17481e-05
3.31445e-05
-2.14039e-05
3.281e-05
-1.96457e-05
3.11573e-05
-1.69714e-05
2.86431e-05
-1.37429e-05
2.55661e-05
-1.01855e-05
2.20975e-05
-6.31271e-06
1.82726e-05
-2.19501e-06
1.40489e-05
2.02282e-06
9.33516e-06
6.33259e-06
4.17327e-06
1.07906e-05
1.12713e-05
-7.56202e-05
8.69372e-05
5.95935e-05
-9.29768e-05
0.000113067
-0.00011069
0.000137466
-0.000127449
0.000158898
-0.000141905
0.00017616
-0.000152669
0.000187471
-0.000159155
0.000192085
-0.000160596
0.000189615
-0.00015664
0.000180128
-0.000147784
0.000165172
-0.000134057
0.000145838
-0.00011623
0.000123073
-9.56466e-05
9.85301e-05
-7.39608e-05
7.39363e-05
-5.27487e-05
5.08063e-05
-3.31918e-05
3.02234e-05
-1.59523e-05
1.27778e-05
-1.21548e-06
-1.38356e-06
1.09159e-05
-1.21846e-05
2.0145e-05
-1.93373e-05
2.65695e-05
-2.33141e-05
3.04629e-05
-2.4419e-05
3.19164e-05
-2.32017e-05
3.12701e-05
-2.07575e-05
2.93408e-05
-1.77165e-05
2.67578e-05
-1.43883e-05
2.39604e-05
-1.09455e-05
2.10695e-05
-7.29457e-06
1.805e-05
-3.29319e-06
1.47985e-05
1.05649e-06
1.12182e-05
5.60317e-06
7.24247e-06
1.03083e-05
3.04424e-06
1.49889e-05
1.43156e-05
-8.40836e-05
0.000103954
6.70665e-05
-0.000101668
0.000130651
-0.000118591
0.000154389
-0.00013354
0.000173848
-0.000145294
0.000187913
-0.000152808
0.000194985
-0.000155367
0.000194644
-0.000152236
0.000186484
-0.000143945
0.000171836
-0.000130871
0.000152099
-0.000113773
0.00012874
-9.4086e-05
0.000103385
-7.34977e-05
7.79418e-05
-5.35449e-05
5.39835e-05
-3.53212e-05
3.25826e-05
-1.93905e-05
1.42927e-05
-5.87363e-06
-7.39005e-07
5.20861e-06
-1.24658e-05
1.37288e-05
-2.07049e-05
1.97543e-05
-2.53627e-05
2.33308e-05
-2.68907e-05
2.47132e-05
-2.58015e-05
2.45691e-05
-2.30576e-05
2.32013e-05
-1.93897e-05
2.11426e-05
-1.56577e-05
1.89307e-05
-1.21765e-05
1.68271e-05
-8.84191e-06
1.48122e-05
-5.27962e-06
1.27119e-05
-1.19291e-06
1.03609e-05
3.40741e-06
7.64961e-06
8.3145e-06
4.5532e-06
1.34047e-05
1.46194e-06
1.80801e-05
1.57775e-05
-9.13324e-05
0.000121403
7.38838e-05
-0.00010847
0.000147789
-0.000123973
0.000169892
-0.000136635
0.000186509
-0.000145246
0.000196524
-0.000149428
0.000199168
-0.000147654
0.00019287
-0.000140494
0.000179324
-0.000128436
0.000159778
-0.000112443
0.000136106
-9.39288e-05
0.000110226
-7.46344e-05
8.4091e-05
-5.6115e-05
5.94224e-05
-3.9456e-05
3.73244e-05
-2.52067e-05
1.83333e-05
-1.34863e-05
2.57227e-06
-4.23482e-06
-9.99047e-06
2.63018e-06
-1.93308e-05
7.40465e-06
-2.54793e-05
1.05788e-05
-2.85369e-05
1.25199e-05
-2.88317e-05
1.3429e-05
-2.67106e-05
1.33738e-05
-2.30023e-05
1.26107e-05
-1.86267e-05
1.14516e-05
-1.44986e-05
1.02665e-05
-1.09913e-05
9.23287e-06
-7.80832e-06
8.25611e-06
-4.30286e-06
7.12246e-06
-5.92693e-08
5.67207e-06
4.8578e-06
3.82396e-06
1.01626e-05
1.63658e-06
1.55921e-05
-1.96695e-07
1.99134e-05
1.55808e-05
-9.69781e-05
0.000138712
7.96687e-05
-0.000113059
0.00016387
-0.000126639
0.000183472
-0.000136726
0.000196596
-0.000142384
0.000202182
-0.000142661
0.000199446
-0.00013703
0.000187238
-0.000126376
0.00016867
-0.000111739
0.000145141
-9.45928e-05
0.000118961
-7.66773e-05
9.23104e-05
-5.96234e-05
6.70371e-05
-4.45872e-05
4.43862e-05
-3.2189e-05
2.49262e-05
-2.26065e-05
8.75083e-06
-1.57347e-05
-4.29949e-06
-1.12014e-05
-1.45238e-05
-8.22941e-06
-2.23027e-05
-5.92531e-06
-2.77834e-05
-3.71571e-06
-3.07465e-05
-1.55943e-06
-3.0988e-05
3.59033e-07
-2.86291e-05
1.73948e-06
-2.43827e-05
2.46977e-06
-1.9357e-05
2.65654e-06
-1.46854e-05
2.5924e-06
-1.09272e-05
2.49722e-06
-7.71314e-06
2.33731e-06
-4.14296e-06
1.94512e-06
3.3292e-07
1.20496e-06
5.59796e-06
8.38917e-08
1.12837e-05
-1.21341e-06
1.68894e-05
-1.6809e-06
2.03809e-05
1.38999e-05
-0.000100737
0.000155353
8.40958e-05
-0.00011531
0.000178443
-0.000126694
0.000194855
-0.000134037
0.000203939
-0.000136635
0.000204779
-0.000133006
0.000195817
-0.00012423
0.000178462
-0.000111223
0.000155663
-9.55697e-05
0.000129488
-7.90534e-05
0.000102444
-6.33753e-05
7.66323e-05
-4.98287e-05
5.34904e-05
-3.91729e-05
3.37304e-05
-3.17069e-05
1.74601e-05
-2.73157e-05
4.35964e-06
-2.53476e-05
-6.26761e-06
-2.45477e-05
-1.53237e-05
-2.36305e-05
-2.32199e-05
-2.19107e-05
-2.95032e-05
-1.92869e-05
-3.33703e-05
-1.59958e-05
-3.4279e-05
-1.2422e-05
-3.2203e-05
-9.06653e-06
-2.77382e-05
-6.39751e-06
-2.2026e-05
-4.64134e-06
-1.64415e-05
-3.65501e-06
-1.19135e-05
-3.0857e-06
-8.28245e-06
-2.7242e-06
-4.50446e-06
-2.61474e-06
2.23448e-07
-2.84233e-06
5.82555e-06
-3.36246e-06
1.18038e-05
-3.67458e-06
1.72015e-05
-2.6331e-06
1.93394e-05
1.12668e-05
-0.000102481
0.000170879
8.69553e-05
-0.000115225
0.000191187
-0.000124245
0.000203876
-0.000129032
0.000208726
-0.000128129
0.000203877
-0.000121459
0.000189147
-0.000110435
0.000167437
-9.64428e-05
0.000141671
-8.13274e-05
0.000114372
-6.68869e-05
8.80039e-05
-5.4568e-05
6.43134e-05
-4.53165e-05
4.4239e-05
-3.95834e-05
2.79973e-05
-3.72848e-05
1.51616e-05
-3.7582e-05
4.65682e-06
-3.88669e-05
-4.98269e-06
-3.9647e-05
-1.45436e-05
-3.92586e-05
-2.36083e-05
-3.75631e-05
-3.11988e-05
-3.45542e-05
-3.63792e-05
-3.03482e-05
-3.84851e-05
-2.52621e-05
-3.7289e-05
-1.98672e-05
-3.3133e-05
-1.49347e-05
-2.69585e-05
-1.11848e-05
-2.01915e-05
-8.88212e-06
-1.42161e-05
-7.66686e-06
-9.49771e-06
-6.95367e-06
-5.21764e-06
-6.48778e-06
-2.42445e-07
-6.27537e-06
5.61314e-06
-6.12594e-06
1.16544e-05
-5.35677e-06
1.64323e-05
-3.01778e-06
1.70004e-05
8.24903e-06
-0.000102246
0.000184944
8.81813e-05
-0.000112988
0.000201928
-0.000119702
0.00021059
-0.000121788
0.000210812
-0.000117835
0.000199924
-0.000108988
0.0001803
-9.68621e-05
0.000155311
-8.3197e-05
0.000128006
-6.98682e-05
0.000101043
-5.84833e-05
7.66191e-05
-5.01814e-05
5.60115e-05
-4.55839e-05
3.96415e-05
-4.46812e-05
2.70946e-05
-4.65451e-05
1.70255e-05
-4.9415e-05
7.52678e-06
-5.17357e-05
-2.66197e-06
-5.29683e-05
-1.33111e-05
-5.30382e-05
-2.35384e-05
-5.17823e-05
-3.24547e-05
-4.89762e-05
-3.91853e-05
-4.45082e-05
-4.2953e-05
-3.85137e-05
-4.32836e-05
-3.14632e-05
-4.01836e-05
-2.42283e-05
-3.41934e-05
-1.79656e-05
-2.64541e-05
-1.36141e-05
-1.85677e-05
-1.12638e-05
-1.18481e-05
-1.01206e-05
-6.36086e-06
-9.35998e-06
-1.00305e-06
-8.68123e-06
4.93439e-06
-7.76731e-06
1.07405e-05
-5.96598e-06
1.4631e-05
-2.73917e-06
1.37736e-05
5.50986e-06
-0.000100233
0.000197379
8.77975e-05
-0.000109
0.000210695
-0.000113546
0.000215137
-0.000112688
0.000209954
-0.000106534
0.00019377
-9.65145e-05
0.000170281
-8.44406e-05
0.000143237
-7.21845e-05
0.00011575
-6.14929e-05
9.03519e-05
-5.36993e-05
6.88255e-05
-4.9595e-05
5.19072e-05
-4.92961e-05
3.93426e-05
-5.19329e-05
2.97313e-05
-5.57247e-05
2.08172e-05
-5.90664e-05
1.08685e-05
-6.14897e-05
-2.38659e-07
-6.30994e-05
-1.17013e-05
-6.38483e-05
-2.27894e-05
-6.34513e-05
-3.28518e-05
-6.14869e-05
-4.11497e-05
-5.75888e-05
-4.68512e-05
-5.16415e-05
-4.92309e-05
-4.38614e-05
-4.79636e-05
-3.49115e-05
-4.31433e-05
-2.60271e-05
-3.53385e-05
-1.87476e-05
-2.58472e-05
-1.41124e-05
-1.64833e-05
-1.18561e-05
-8.61715e-06
-1.06806e-05
-2.17856e-06
-9.55162e-06
3.80541e-06
-7.97535e-06
9.16419e-06
-5.46146e-06
1.21171e-05
-2.07195e-06
1.03841e-05
3.43791e-06
-9.65989e-05
0.000208065
8.59128e-05
-0.000103348
0.000217445
-0.00010587
0.000217658
-0.000102708
0.000206793
-9.51196e-05
0.000186181
-8.48432e-05
0.000160004
-7.37515e-05
0.000132146
-6.36534e-05
0.000105651
-5.60566e-05
8.2755e-05
-5.19607e-05
6.47296e-05